/*--------------------------------*- C++ -*----------------------------------*\
| =========                 |                                                 |
| \\      /  F ield         | OpenFOAM: The Open Source CFD Toolbox           |
|  \\    /   O peration     | Version:  2012                                  |
|   \\  /    A nd           | Website:  www.openfoam.com                      |
|    \\/     M anipulation  |                                                 |
\*---------------------------------------------------------------------------*/
FoamFile
{
    version     2.0;
    format      ascii;
    class       volScalarField;
    location    "0.26";
    object      volumeFraction1;
}
// * * * * * * * * * * * * * * * * * * * * * * * * * * * * * * * * * * * * * //

dimensions      [0 0 0 0 0 0 0];


internalField   nonuniform List<scalar> 
2268
(
1
1
1
1
1
1
1
1
1
1
1
1
1
1
1
1
1
1
1
1
1
1
0.995795
1
1
1
1
1
1
1
1
1
1
1
1
1
1
1
1
1
1
1
1
1
1
0.995543
1
1
1
1
1
1
1
1
1
1
1
1
1
1
1
1
1
1
1
1
1
1
0.994491
1
1
1
1
1
1
1
1
1
1
1
1
1
1
1
1
1
1
1
1
1
1
0.994098
1
1
1
1
1
1
1
1
1
1
1
1
1
1
1
1
1
1
1
1
1
1
0.994099
1
1
1
1
1
1
1
1
1
1
1
1
1
1
1
1
1
1
1
1
1
1
0.994098
1
1
1
1
1
1
1
1
1
1
1
1
1
1
1
1
1
1
1
1
1
1
0.994428
1
1
1
1
1
1
1
1
1
1
1
1
1
1
1
1
1
1
1
1
1
1
0.998876
5.11324e-25
9.28331e-25
2.12381e-24
5.28234e-24
1.43271e-23
1.33074e-23
6.12252e-24
1.1378e-25
3.80756e-27
4.70803e-29
3.59529e-31
1.3598e-33
2.30227e-36
5.61336e-39
1.69068e-41
3.9e-44
8.57864e-47
1.42432e-49
2.5463e-52
2.17049e-23
8.7519e-23
2.91277e-22
6.90693e-22
2.31528e-21
3.09564e-21
1.1091e-21
2.63161e-23
8.70965e-25
1.34583e-26
9.12411e-29
4.26473e-31
1.0052e-33
3.35236e-36
1.11901e-38
2.77811e-41
6.52298e-44
1.15007e-46
1.07664e-49
7.63292e-22
5.43179e-21
2.20393e-20
5.36603e-20
2.63604e-19
4.07217e-19
9.45738e-20
3.4481e-21
1.16854e-22
2.38788e-24
1.33338e-26
7.03063e-29
2.22953e-31
9.74537e-34
3.68569e-36
1.00892e-38
2.56438e-41
4.81328e-44
4.73335e-47
2.38201e-20
2.26512e-19
1.10913e-18
3.37845e-18
2.48729e-17
3.36926e-17
4.79097e-18
3.02187e-19
1.08679e-20
3.04404e-22
1.59006e-24
8.73461e-27
3.4891e-29
1.88174e-31
8.09648e-34
2.59221e-36
7.66928e-39
1.67504e-41
1.89877e-44
1.55877e-18
2.67007e-17
1.37629e-16
3.54361e-16
1.92112e-15
1.90207e-15
1.54303e-16
1.94257e-17
7.28075e-19
2.82689e-20
1.66709e-22
9.79998e-25
4.65532e-27
2.70794e-29
1.25253e-31
4.41961e-34
1.44536e-36
3.47028e-39
4.30076e-42
1.93795e-16
2.765e-15
1.42814e-14
2.77715e-14
9.15318e-14
6.90869e-14
3.29826e-15
9.16759e-16
3.57859e-17
1.8787e-18
1.45522e-20
1.00147e-22
5.74806e-25
3.52348e-27
1.6825e-29
6.78792e-32
2.61641e-34
7.52775e-37
1.11851e-39
1.23454e-14
2.43475e-13
1.20156e-12
2.16314e-12
3.03864e-12
1.75235e-12
4.47913e-14
3.2272e-14
1.31704e-15
8.94046e-17
1.01469e-18
8.81757e-21
6.47101e-23
4.11788e-25
1.90045e-27
7.49268e-30
2.96446e-32
9.12219e-35
1.48116e-37
1.85952e-13
3.39858e-12
3.24616e-11
1.3478e-10
5.34175e-11
3.02556e-11
4.08005e-13
8.11028e-13
3.68773e-14
2.98569e-15
5.50726e-17
6.29616e-19
6.24301e-21
4.60209e-23
2.28373e-25
9.53144e-28
3.98408e-30
1.36046e-32
2.56527e-35
1
1
1
1
1
1
1
1
1
1
1
1
1
1
1
1
1
1
1
1
1
1
0.999998
1
1
1
1
1
1
1
1
1
1
1
1
1
1
1
1
1
1
1
1
1
1
0.999996
1
1
1
1
1
1
1
1
1
1
1
1
1
1
0.999999
0.999991
0.999951
0.99988
1
1
1
1
0.999989
1
1
1
1
1
1
1
1
1
1
1
0.999996
0.999934
0.999012
0.994897
0.984959
0.954686
0.915046
0.911265
0.932566
0.990779
1
1
1
1
1
1
1
1
1
0.999998
0.999978
0.999701
0.997907
0.990992
0.963723
0.869956
0.71024
0.508186
0.336439
0.208381
0.184152
0.211118
0.281827
0.408484
0.611732
0.999992
0.999989
0.999978
0.999934
0.999769
0.999167
0.997267
0.991998
0.977434
0.915183
0.801726
0.624474
0.384427
0.174758
0.00206867
1.21656e-09
1.21655e-09
1.21656e-09
1.21655e-09
0.000222861
0.00178505
0.00609728
0.0391872
0.980258
0.976933
0.966952
0.945588
0.908228
0.846915
0.755961
0.629773
0.443507
0.257667
0.109834
-1.02909e-20
2.69674e-28
-2.81246e-29
-1.62331e-25
0.000145661
0.000945902
0.00257143
0.00257155
0.00157096
5.71886e-05
1.44368e-05
8.87098e-05
0.443954
0.424012
0.37882
0.314835
0.241311
0.162422
0.086157
0.0176616
2.37381e-21
-1.36885e-29
-6.09398e-23
8.87684e-11
8.91526e-10
1.18584e-10
7.49382e-29
3.31743e-05
0.00268018
0.00268595
0.00212088
0.000256224
4.72788e-06
2.33649e-08
1.34789e-08
-4.28607e-45
-7.00098e-38
-7.78228e-37
9.1739e-34
-4.29882e-32
-4.97553e-31
-6.82173e-30
-6.35455e-30
2.15455e-11
4.34037e-11
6.89997e-29
1.85278e-09
1.05411e-08
2.00229e-08
8.3833e-24
4.5692e-05
4.81887e-05
9.27538e-05
3.85537e-08
3.84407e-08
6.94329e-08
7.86491e-08
3.01224e-08
1.53662e-20
1.5607e-18
1.30946e-16
6.71364e-15
1.87228e-13
3.80577e-12
1.26217e-11
4.24348e-11
1.83755e-10
1.87365e-10
1.07341e-10
1.24514e-12
1.24763e-12
6.29784e-06
1.40537e-05
2.82237e-06
1.05205e-08
1.06615e-08
7.14129e-08
1.20233e-07
4.75197e-08
3.99617e-09
2.48063e-09
1.90491e-19
2.18266e-17
1.40596e-15
5.57232e-14
1.26629e-12
2.15684e-11
7.2012e-11
6.59112e-11
6.00751e-10
7.41062e-10
8.34279e-10
8.29905e-29
4.46348e-06
4.23045e-05
4.46286e-05
3.27451e-05
1.58069e-06
7.00442e-08
2.32406e-07
2.68517e-07
1.40768e-07
2.53551e-09
2.77381e-10
7.64238e-19
9.31461e-17
5.87969e-15
2.21793e-13
4.79668e-12
7.54558e-11
1.43349e-10
6.01731e-11
3.04274e-08
2.07841e-07
4.57311e-08
1.20614e-24
2.8439e-05
4.23051e-05
4.14453e-05
1.00099e-05
2.09784e-07
9.32393e-09
2.95238e-12
2.54784e-10
1.73435e-13
1.69861e-10
2.09766e-10
2.26194e-18
2.92242e-16
1.80872e-14
6.44016e-13
1.29591e-11
1.49763e-10
1.55201e-10
6.01402e-11
7.6697e-07
2.19147e-06
3.89047e-07
1.27753e-06
2.90634e-06
1.28869e-05
1.1284e-06
6.53513e-08
3.29751e-08
5.09133e-10
2.95432e-12
6.3508e-14
1.73462e-13
1.73435e-13
1.24798e-11
5.42703e-18
6.42984e-16
3.47667e-14
1.07358e-12
1.97935e-11
1.7726e-10
1.18324e-10
6.01731e-11
2.46729e-06
2.57594e-06
5.35999e-07
3.17624e-16
3.17624e-16
3.17624e-16
3.17624e-16
3.17624e-16
3.17624e-16
3.17624e-16
8.20672e-15
1.17552e-13
6.67281e-13
5.91189e-13
9.03301e-12
7.83068e-18
8.56559e-16
4.28798e-14
1.24289e-12
2.14908e-11
1.70295e-10
4.75226e-11
1.14362e-07
2.57594e-06
2.57572e-06
2.30017e-07
3.17624e-16
1.21775e-10
4.59311e-11
1.21834e-12
6.40324e-14
5.42701e-15
2.96391e-15
5.04187e-15
8.84485e-15
1.55118e-13
7.30827e-14
1.42812e-14
8.40068e-18
8.85912e-16
4.27434e-14
1.16639e-12
1.74419e-11
1.16482e-10
4.75371e-11
1.08374e-07
1.51106e-06
2.43372e-06
3.23765e-07
3.17624e-16
6.96701e-10
2.35492e-10
7.15256e-12
2.38373e-13
9.40097e-15
7.9654e-16
6.98156e-16
1.29124e-15
8.30355e-15
1.07704e-14
9.80161e-15
6.51449e-18
6.12137e-16
2.58007e-14
5.86478e-13
7.43692e-12
4.69025e-11
4.75362e-11
2.98776e-08
2.0637e-13
1.88016e-07
2.20308e-07
1.21165e-09
2.99546e-09
6.35269e-10
1.56035e-11
3.88758e-13
1.05838e-14
3.70663e-16
1.62605e-16
4.5188e-16
7.96635e-15
1.37806e-14
9.80044e-15
2.36533e-18
2.01478e-16
8.00038e-15
1.75736e-13
2.27499e-12
2.04648e-11
2.2155e-10
2.0637e-13
2.06348e-13
1.67828e-13
1.67811e-13
6.93944e-09
6.0832e-09
8.75251e-10
1.73429e-11
3.21479e-13
5.84429e-15
1.25287e-16
4.04336e-17
3.20046e-16
1.12556e-14
1.12557e-14
6.63733e-11
4.69791e-19
3.92662e-17
1.56524e-15
3.73018e-14
6.09266e-13
8.34599e-12
6.73875e-11
8.02079e-13
1.20191e-12
1.33048e-11
5.36273e-11
8.56692e-09
6.26209e-09
8.51283e-10
1.09719e-11
1.25942e-13
1.41442e-15
1.89019e-17
1.97019e-17
5.47978e-16
2.33508e-14
4.27991e-13
1.70388e-10
4.32721e-20
4.45849e-18
2.13259e-16
6.51358e-15
1.41696e-13
2.20839e-12
1.04387e-11
1.8216e-13
1.90673e-12
2.32443e-11
4.10906e-10
4.60063e-09
1.93318e-09
4.70041e-10
5.59854e-12
3.09449e-14
1.64514e-16
1.73371e-18
2.12136e-17
9.26967e-16
3.21351e-14
5.90614e-13
4.61021e-12
1.66139e-21
2.75728e-19
1.97011e-17
7.71573e-16
1.71875e-14
1.93642e-13
4.22667e-13
1.14214e-13
1.34224e-12
1.0442e-11
5.35086e-11
4.68849e-15
1.04989e-10
1.25379e-10
5.2034e-12
3.53157e-15
2.15038e-18
4.71632e-19
2.16306e-17
8.55028e-16
2.51111e-14
4.01775e-13
8.76908e-12
7.66831e-24
6.33879e-22
2.69289e-20
7.61832e-19
1.37817e-17
1.08869e-16
1.61142e-15
2.65694e-14
2.37926e-13
1.3259e-12
1.98395e-12
4.68826e-15
1.35195e-15
1.14963e-11
2.77053e-12
1.42561e-24
1.01269e-20
2.61976e-19
6.2226e-18
1.29231e-16
2.27175e-15
3.32403e-14
2.36385e-13
1.13384e-24
1.10281e-22
5.55761e-21
1.99696e-19
6.07702e-18
1.00867e-16
6.67244e-16
2.83775e-15
1.59212e-14
3.50396e-14
2.13655e-14
1.28593e-14
1.35196e-15
6.05018e-23
9.22768e-14
1.42562e-24
5.34361e-21
1.66866e-19
4.81483e-18
1.21385e-16
2.36832e-15
3.30585e-14
3.26181e-13
8.12459e-26
8.16194e-24
3.82459e-22
1.09524e-20
2.13131e-19
2.93813e-18
2.96701e-17
2.16338e-16
1.11831e-15
2.70623e-15
3.72644e-15
5.57164e-15
1.09658e-15
6.0501e-23
4.89392e-23
1.17301e-22
1.76623e-21
5.09133e-20
1.2204e-18
2.43155e-17
4.11532e-16
6.30351e-15
9.17188e-14
4.30791e-31
2.89703e-29
8.87422e-28
1.60384e-26
1.79015e-25
5.39488e-25
3.77619e-26
3.77619e-26
3.79432e-26
3.79432e-26
3.79434e-26
3.81248e-26
3.35768e-24
9.0216e-23
4.89408e-23
1.57032e-23
3.66895e-22
1.10345e-20
2.72375e-19
5.48328e-18
8.93374e-17
1.16751e-15
1.21058e-14
3.62524e-35
3.20615e-33
1.38631e-31
3.96061e-30
8.6957e-29
1.70501e-27
3.77626e-26
3.82379e-25
2.1444e-24
8.77863e-24
1.76662e-23
1.97101e-23
1.74487e-23
6.72462e-24
6.67132e-25
1.13674e-24
4.11815e-23
1.30904e-21
3.43365e-20
7.35722e-19
1.27365e-17
1.76381e-16
1.93603e-15
2.31733e-38
1.96151e-36
7.83644e-35
1.95133e-33
3.37933e-32
4.27686e-31
4.09164e-30
2.97798e-29
1.68894e-28
7.69603e-28
3.15776e-27
8.16921e-27
4.02254e-27
2.15498e-27
2.71538e-27
7.61168e-26
2.95675e-24
9.65594e-23
2.62285e-21
5.88797e-20
1.08312e-18
1.61868e-17
1.94778e-16
7.25054e-44
7.76107e-42
4.00605e-40
1.32248e-38
3.13086e-37
5.63561e-36
8.02497e-35
9.23432e-34
8.76245e-33
6.88078e-32
4.46279e-31
2.32176e-30
8.80108e-30
1.68624e-29
7.89972e-29
3.11134e-27
1.28716e-25
4.46125e-24
1.28544e-22
3.06644e-21
6.02844e-20
9.72566e-19
1.28057e-17
2.68267e-47
3.0472e-45
1.67088e-43
5.89403e-42
1.50968e-40
3.00719e-39
4.89397e-38
6.69935e-37
7.83275e-36
7.7402e-35
6.31774e-34
4.08323e-33
1.93066e-32
7.60805e-32
1.8172e-30
9.08114e-29
3.95399e-27
1.44974e-25
4.45663e-24
1.14427e-22
2.44234e-21
4.31769e-20
6.29285e-19
1.19642e-53
1.58016e-51
1.11064e-49
5.59201e-48
2.22715e-46
7.18725e-45
1.87496e-43
3.91716e-42
6.49445e-41
8.47565e-40
9.09383e-39
1.33676e-37
6.67925e-36
4.88716e-34
3.18788e-32
1.76443e-30
8.25014e-29
3.25246e-27
1.0792e-25
3.00919e-24
7.03502e-23
1.37656e-21
2.24726e-20
6.29687e-59
1.35416e-56
1.46401e-54
1.04895e-52
5.52833e-51
2.25486e-49
7.32599e-48
1.94412e-46
4.52044e-45
1.28742e-43
8.09809e-42
7.96848e-40
7.57925e-38
6.24065e-36
4.37774e-34
2.60774e-32
1.3177e-30
5.64231e-29
2.04484e-27
6.26571e-26
1.62067e-24
3.53642e-23
6.49938e-22
3.95858e-63
1.21899e-60
1.82314e-58
1.75117e-56
1.20733e-54
6.37434e-53
2.72328e-51
1.04041e-49
4.76446e-48
3.93373e-46
4.75345e-44
5.72555e-42
6.05711e-40
5.47518e-38
4.20767e-36
2.74651e-34
1.52346e-32
7.1836e-31
2.88024e-29
9.82123e-28
2.84689e-26
7.01717e-25
1.46959e-23
1.12237e-67
4.7332e-65
1.0004e-62
1.41063e-60
1.50054e-58
1.31171e-56
1.03686e-54
8.82236e-53
1.00577e-50
1.48734e-48
2.26761e-46
3.10611e-44
3.65951e-42
3.66731e-40
3.12258e-38
2.26096e-36
1.39453e-34
7.33727e-33
3.29685e-31
1.26645e-29
4.16138e-28
1.17078e-26
2.82006e-25
2.1612e-71
1.11894e-68
2.9396e-66
5.25869e-64
7.29842e-62
8.62089e-60
9.65382e-58
1.22525e-55
2.01693e-53
3.83382e-51
6.96444e-49
1.10318e-46
1.4852e-44
1.69235e-42
1.63516e-40
1.34246e-38
9.39142e-37
5.61227e-35
2.87172e-33
1.26112e-31
4.76178e-30
1.54927e-28
4.34842e-27
1.44335e-75
1.03115e-72
3.82686e-70
9.90624e-68
2.02426e-65
3.55401e-63
5.96908e-61
1.13353e-58
2.61942e-56
6.4105e-54
1.42687e-51
2.70585e-49
4.30363e-47
5.74061e-45
6.45431e-43
6.14541e-41
4.97754e-39
3.44265e-37
2.04036e-35
1.03975e-33
4.56919e-32
1.73733e-30
5.73027e-29
5.60895e-80
5.60162e-77
2.98086e-74
1.12638e-71
3.36912e-69
8.57553e-67
2.05769e-64
5.46414e-62
1.7071e-59
5.48158e-57
1.56804e-54
3.75496e-52
7.41758e-50
1.21107e-47
1.64835e-45
1.88597e-43
1.82768e-41
1.50909e-39
1.06685e-37
6.48531e-36
3.40252e-34
1.54669e-32
6.11211e-31
6.20244e-85
9.86192e-82
8.3974e-79
5.04689e-76
2.35612e-73
9.10922e-71
3.20378e-68
1.19897e-65
5.16747e-63
2.27544e-60
8.84083e-58
2.83484e-55
7.38462e-53
1.56531e-50
2.72183e-48
3.91978e-46
4.72531e-44
4.81427e-42
4.18072e-40
3.11563e-38
2.00293e-36
1.11575e-34
5.40548e-33
4.06862e-90
9.8225e-87
1.27657e-83
1.16214e-80
8.08725e-78
4.53841e-75
2.21371e-72
1.07893e-69
5.95178e-67
3.50459e-64
1.89267e-61
8.55065e-59
3.13134e-56
9.23931e-54
2.20637e-51
4.29765e-49
6.89732e-47
9.21717e-45
1.03689e-42
9.92113e-41
8.14561e-39
5.78064e-37
3.56569e-35
4.27259e-96
1.89481e-92
4.29339e-89
6.46393e-86
7.16533e-83
6.18496e-80
4.39995e-77
2.85259e-74
1.96248e-71
1.51996e-68
1.17719e-65
7.97479e-63
4.44082e-60
1.9937e-57
7.19651e-55
2.09343e-52
4.93362e-50
9.4872e-48
1.5023e-45
1.98051e-43
2.20026e-41
2.08463e-39
1.70268e-37
2.96812e-102
2.21134e-98
7.87151e-95
1.76202e-91
2.80038e-88
3.37722e-85
3.24862e-82
2.64292e-79
2.02278e-76
1.67407e-73
1.56083e-70
1.46747e-67
1.23835e-64
8.82064e-62
5.17272e-59
2.4738e-56
9.6171e-54
3.03853e-51
7.81398e-49
1.64155e-46
2.83428e-44
4.05634e-42
4.86215e-40
5.90986e-109
6.3778e-105
3.27209e-101
1.04916e-97
2.36163e-94
3.99068e-91
5.28882e-88
5.70341e-85
5.26718e-82
4.54534e-79
4.17379e-76
4.40134e-73
4.98386e-70
5.38563e-67
5.15749e-64
4.23054e-61
2.92316e-58
1.68413e-55
8.02119e-53
3.13546e-50
9.99473e-48
2.59064e-45
5.46983e-43
1.89161e-116
3.06616e-112
2.2836e-108
1.04181e-104
3.29856e-101
7.80196e-98
1.44172e-94
2.14746e-91
2.65061e-88
2.79886e-85
2.66642e-82
2.50828e-79
2.59536e-76
3.05846e-73
3.82042e-70
4.62558e-67
5.14342e-64
5.12761e-61
4.53026e-58
3.51699e-55
2.3744e-52
1.38026e-49
6.8481e-47
1
1
1
0.0652186
0.999958
0.999979
1
0.924402
0.999958
0.999977
0.999998
0.998978
1
1
1
1
0.760461
0.859085
0.972788
1
0.0832294
0.132381
0.199422
0.282461
0.000313594
0.000860894
0.00211186
0.0045731
1.34815e-08
3.68531e-08
1.72484e-07
4.9121e-07
2.06026e-09
5.19282e-10
2.68569e-10
2.68612e-10
1.6887e-09
1.14538e-09
9.24038e-10
8.03345e-10
2.83851e-10
3.22738e-10
8.92599e-10
1.38248e-09
1.9664e-10
1.98013e-10
3.80122e-10
7.71656e-10
3.53688e-11
8.26732e-11
1.41339e-10
2.18954e-10
3.50187e-11
6.93092e-10
1.10133e-09
9.06669e-10
9.80161e-15
1.19375e-08
1.18407e-08
2.1678e-13
9.80044e-15
3.16776e-08
2.5474e-08
1.81394e-13
1.06651e-09
3.16626e-08
1.44057e-08
2.1678e-13
5.14652e-09
4.47468e-10
2.1678e-13
1.81394e-13
1.36253e-10
1.33839e-10
1.81394e-13
1.2984e-05
4.047e-10
1.34202e-10
9.04374e-07
1.6452e-05
1.30292e-09
1.68934e-08
5.96877e-09
2.0676e-09
2.36381e-13
1.71151e-12
1.71088e-12
2.06471e-09
1.73862e-12
4.87014e-12
1.72786e-11
5.92525e-09
8.95141e-13
5.60581e-12
1.03394e-10
2.64854e-08
7.48388e-14
2.07827e-13
2.88061e-13
2.88175e-13
1.2759e-14
4.9208e-14
1.53629e-13
4.01805e-13
1.42901e-15
6.1921e-15
2.23105e-14
7.01225e-14
1.03951e-16
4.98329e-16
2.00447e-15
7.09386e-15
5.71e-18
3.0643e-17
1.39493e-16
5.62981e-16
2.30574e-19
1.4005e-18
7.27724e-18
3.36175e-17
7.57221e-21
5.23542e-20
3.13094e-19
1.67597e-18
1.96424e-22
1.55921e-21
1.08053e-20
6.74802e-20
4.35815e-24
3.9991e-23
3.22324e-22
2.34546e-21
7.87842e-26
8.48906e-25
8.09967e-24
6.99689e-23
1.22554e-27
1.56209e-26
1.77855e-25
1.84295e-24
1.56791e-29
2.39672e-28
3.29736e-27
4.15374e-26
1.69722e-31
3.16575e-30
5.32859e-29
8.22317e-28
1.42356e-33
3.37385e-32
7.2439e-31
1.42418e-29
8.95463e-36
2.79461e-34
7.94778e-33
2.07633e-31
3.65222e-38
1.61191e-36
6.47982e-35
2.39514e-33
6.99268e-41
5.1629e-39
3.41954e-37
2.04058e-35
2.12346e-44
3.84905e-42
6.36179e-40
9.51563e-38
3.69124e-16
3.69119e-16
1.25362e-09
1.40181e-09
9.53398e-10
7.35045e-10
5.5291e-12
2.10224e-11
1.21094e-12
1.03685e-13
3.56997e-15
5.52977e-17
7.075e-19
6.48296e-21
3.67611e-23
1.57976e-25
6.45388e-28
2.21002e-30
4.46763e-33
0.646682
0.101232
1.25362e-09
1.25361e-09
2.99467e-09
6.68089e-09
2.18505e-10
5.3782e-10
3.45238e-11
2.6427e-12
2.01093e-13
4.38648e-15
7.62451e-17
9.52888e-19
7.88596e-21
5.3617e-23
3.04469e-25
1.3122e-27
3.31176e-30
0.99999
0.860193
0.474212
0.0168057
2.29726e-09
2.29674e-09
2.39319e-09
9.67259e-09
6.88633e-10
3.05317e-11
7.28246e-12
2.01774e-13
4.39519e-15
7.18483e-17
7.53676e-19
6.55764e-21
4.48652e-23
2.15738e-25
5.69156e-28
0.99999
0.999961
0.976943
0.769581
0.29009
0.000629344
2.39319e-09
1.71567e-08
4.29079e-09
3.53026e-10
1.74635e-10
6.36587e-12
1.6696e-13
3.7701e-15
6.54964e-17
8.96943e-19
8.94337e-21
5.80405e-23
1.89268e-25
1
1
0.999383
1
0.92649
0.553185
0.0488837
1.51223e-09
1.51074e-09
5.5569e-08
7.85996e-09
6.51575e-11
1.24469e-12
3.43578e-14
8.50171e-16
1.59418e-17
2.09932e-19
1.7623e-21
7.31444e-24
0.479209
0.842412
1
1
0.999965
0.99883
0.633369
0.0753075
0.00150398
2.06527e-05
1.73537e-07
6.1461e-11
2.68936e-13
9.71557e-15
3.98128e-16
1.44729e-17
4.08922e-19
7.75464e-21
7.23638e-23
0.0107329
0.0953074
0.290611
0.679593
0.994947
0.998872
0.998919
0.567198
0.0437658
0.000746219
4.0694e-06
5.87636e-10
2.54525e-13
1.81552e-14
1.21616e-15
6.54019e-17
2.55628e-18
6.2735e-20
7.11546e-22
1.45187e-05
0.00126389
0.00084738
0.0446191
0.297995
0.853788
0.990247
0.926706
0.347075
0.0153486
7.43566e-05
7.82253e-09
2.19409e-13
2.31616e-14
3.19982e-15
2.93335e-16
1.63771e-17
5.205e-19
7.29061e-21
9.152e-09
1.80265e-08
1.287e-06
0.000330213
2.91282e-07
0.227
0.857548
0.972702
0.730339
0.115972
0.00111592
8.78905e-08
2.33415e-13
2.06884e-14
3.93753e-15
4.46834e-16
2.96435e-17
1.07515e-18
1.67655e-20
4.74274e-10
4.74302e-10
6.14445e-07
9.55181e-07
2.91309e-07
1.00192e-10
0.454314
0.972704
0.898186
0.302024
0.00538629
7.4224e-07
4.13836e-13
2.16087e-14
5.78815e-15
7.66186e-16
5.66847e-17
2.26431e-18
3.85786e-20
6.46853e-10
1.90344e-09
1.46228e-08
1.37819e-07
1.28218e-07
1.00192e-10
0.115888
0.815599
0.885873
0.337333
0.00601688
8.49304e-07
4.35452e-13
3.13312e-14
9.82135e-15
1.40695e-15
1.09764e-16
4.57739e-18
8.09866e-20
2.18646e-10
7.47221e-09
2.59626e-08
4.14783e-08
3.53703e-08
1.13205e-09
1.00192e-10
0.636366
0.831235
0.29696
0.00467416
5.18788e-07
3.43881e-13
4.55867e-14
1.5423e-14
2.25482e-15
1.78349e-16
7.54723e-18
1.35611e-19
2.18683e-10
3.28849e-08
1.12189e-07
3.89513e-08
1.74647e-09
1.1324e-10
1.00192e-10
0.673659
0.776894
0.227934
0.00251491
1.46675e-07
2.02724e-13
5.50611e-14
1.70544e-14
2.38599e-15
1.85265e-16
7.78487e-18
1.39485e-19
1.08008e-08
1.81326e-08
1.56414e-07
1.90294e-07
6.60005e-08
1.00192e-10
0.12854
0.746828
0.762097
0.194476
0.00157214
4.80909e-08
1.32247e-13
5.73351e-14
1.64745e-14
2.21541e-15
1.67834e-16
6.91377e-18
1.21666e-19
2.84558e-06
3.86943e-06
1.56411e-07
3.34227e-07
1.36082e-07
1.00192e-10
0.186606
0.746777
0.658155
0.132687
0.000788024
1.13829e-08
9.8255e-14
5.49444e-14
1.42368e-14
1.80365e-15
1.30669e-16
5.17605e-18
8.79068e-20
5.74473e-06
0.000104713
5.89681e-05
2.85602e-06
2.96613e-08
1.00192e-10
0.133897
0.297015
0.208183
0.0412018
0.000439759
3.12188e-09
9.66246e-14
4.58224e-14
9.42793e-15
1.05286e-15
6.99409e-17
2.59621e-18
4.1182e-20
3.14459e-05
0.000154349
0.000129815
8.98495e-06
8.12132e-09
0.00269829
0.010531
0.00556872
0.00286356
0.00281774
0.000497352
2.12338e-08
6.82517e-14
4.83464e-14
1.13836e-14
9.78679e-16
5.03096e-17
1.47042e-18
2.05224e-20
5.01169e-05
0.000154439
0.000100308
2.67604e-06
8.1157e-09
0.000378259
1.19287e-05
5.15245e-06
1.85227e-06
7.33394e-07
0.000178355
2.32707e-06
6.81715e-14
3.99014e-13
5.46465e-14
3.15752e-15
1.08642e-16
2.14308e-18
2.05224e-20
6.83546e-05
8.65909e-05
2.16925e-05
8.1157e-09
8.12094e-09
8.1157e-09
8.12132e-09
0.000799503
1.49882e-06
3.75577e-11
1.21212e-08
1.25222e-06
2.93931e-08
3.68981e-11
9.59914e-13
2.79071e-14
4.91072e-16
5.15468e-18
2.60321e-20
1.90994e-05
7.18241e-06
9.67196e-11
0.00104115
0.145415
0.34944
0.131495
0.0045941
1.55932e-06
3.75648e-11
3.75577e-11
1.66954e-08
1.22396e-08
2.11561e-10
2.34484e-12
3.26417e-14
4.11109e-16
3.55889e-18
1.50785e-20
2.94048e-06
9.67196e-11
9.65016e-11
0.0619525
0.465669
0.48231
0.354109
0.021146
7.15586e-06
3.7565e-11
3.85306e-11
2.51119e-10
1.37508e-09
8.4777e-11
1.20614e-12
1.53449e-14
1.51643e-16
9.95487e-19
3.22596e-21
1.35243e-05
0.000105872
9.67196e-11
0.0608188
0.438437
0.482308
0.295209
0.0124554
3.58258e-06
3.5689e-11
3.84096e-11
1.30017e-10
2.16976e-10
1.37605e-11
1.99822e-13
2.37076e-15
2.15519e-17
1.31052e-19
4.06773e-22
1.60095e-05
0.000116071
9.65016e-11
0.0215693
0.138409
0.196101
0.073265
0.00425738
2.02921e-06
1.86742e-11
2.77954e-11
4.98958e-11
3.72217e-11
1.76284e-12
2.47302e-14
2.74949e-16
2.33042e-18
1.33356e-20
3.95443e-23
4.26941e-07
4.09993e-06
9.5076e-05
0.000950931
0.00159003
0.00186954
0.000956045
0.000762503
7.5835e-10
6.47614e-12
1.06457e-11
1.30339e-11
5.50395e-12
1.98597e-13
2.68552e-15
2.81944e-17
2.25861e-19
1.23189e-21
3.51427e-24
2.88176e-13
2.9071e-13
2.90817e-13
4.48242e-08
6.26949e-08
8.18221e-08
7.2037e-08
8.77146e-07
2.96503e-12
3.36121e-12
2.73476e-12
2.56778e-12
6.98744e-13
2.00792e-14
2.61242e-16
2.60419e-18
1.98966e-20
1.04285e-22
2.896e-25
9.91997e-13
1.89806e-12
2.25541e-12
2.16883e-12
1.6494e-12
1.6316e-12
2.0435e-12
5.05195e-12
3.49468e-13
1.13523e-12
5.59966e-13
3.96834e-13
7.66688e-14
1.83712e-15
2.29789e-17
2.18737e-19
1.60571e-21
8.15975e-24
2.2413e-26
2.68311e-13
1.02573e-12
1.82769e-12
2.01035e-12
1.72257e-12
1.53034e-12
1.34468e-12
5.18029e-13
1.70329e-13
2.49322e-13
9.14147e-14
4.9711e-14
7.31992e-15
1.52357e-16
1.8354e-18
1.67914e-20
1.19398e-22
5.95155e-25
1.64763e-27
3.18676e-14
1.55118e-13
5.5318e-13
9.50943e-13
1.10302e-12
9.26402e-13
7.29649e-13
2.98877e-13
3.64332e-14
3.98226e-14
1.2063e-14
5.21428e-15
6.11184e-16
1.14376e-17
1.33311e-19
1.18188e-21
8.22451e-24
4.08192e-26
1.16217e-28
2.97184e-15
1.76506e-14
8.10949e-14
2.02753e-13
2.76418e-13
2.52065e-13
1.67853e-13
7.58056e-14
6.11928e-15
4.87377e-15
1.31794e-15
4.6489e-16
4.49058e-17
7.77341e-19
8.82573e-21
7.65879e-23
5.28257e-25
2.65724e-27
7.93114e-30
2.07017e-16
1.46551e-15
8.36613e-15
3.10056e-14
4.84769e-14
5.03586e-14
2.78973e-14
1.22338e-14
8.27127e-16
4.88079e-16
1.21753e-16
3.57235e-17
2.92199e-18
4.78823e-20
5.34093e-22
4.59207e-24
3.18903e-26
1.65798e-28
5.26776e-31
1.22122e-17
1.0369e-16
7.12212e-16
3.52942e-15
6.71369e-15
7.68474e-15
3.73597e-15
1.44643e-15
9.14939e-17
4.22214e-17
9.67725e-18
2.3953e-18
1.69639e-19
2.6831e-21
2.97044e-23
2.56693e-25
1.82786e-27
1.00085e-29
3.41262e-32
5.87332e-19
6.0927e-18
5.25506e-17
3.12885e-16
7.45156e-16
9.39043e-16
4.32212e-16
1.35816e-16
8.57221e-18
3.21523e-18
6.72803e-19
1.4188e-19
8.85755e-21
1.37514e-22
1.52942e-24
1.35108e-26
1.00603e-28
5.88878e-31
2.15323e-33
2.41487e-20
3.01637e-19
3.22972e-18
2.2597e-17
6.79214e-17
9.48953e-17
4.50073e-17
1.07485e-17
6.98081e-19
2.18709e-19
4.15379e-20
7.51483e-21
4.19752e-22
6.49692e-24
7.36324e-26
6.77962e-28
5.3773e-30
3.39078e-32
1.31755e-34
8.64431e-22
1.29551e-20
1.67395e-19
1.36083e-18
5.20277e-18
8.10032e-18
4.31673e-18
7.55582e-19
5.05704e-20
1.34943e-20
2.3123e-21
3.60507e-22
1.8243e-23
2.85896e-25
3.35742e-27
3.2884e-29
2.8165e-31
1.91027e-33
7.77544e-36
2.77135e-23
5.10231e-22
7.53512e-21
7.00076e-20
3.40615e-19
5.89864e-19
3.83032e-19
4.91705e-20
3.32008e-21
7.66257e-22
1.1782e-22
1.58765e-23
7.36149e-25
1.18748e-26
1.47233e-28
1.56241e-30
1.45259e-32
1.04925e-34
4.40331e-37
7.71533e-25
1.77022e-23
3.01717e-22
3.23144e-21
1.92795e-20
3.75782e-20
3.04126e-20
3.04147e-21
2.00719e-22
4.06265e-23
5.58226e-24
6.51582e-25
2.79956e-26
4.73236e-28
6.31269e-30
7.34445e-32
7.37644e-34
5.59097e-36
2.38409e-38
1.89476e-26
5.4584e-25
1.08238e-23
1.34782e-22
9.57136e-22
2.14651e-21
2.12709e-21
1.80221e-22
1.13055e-23
2.03635e-24
2.49779e-25
2.53379e-26
1.02154e-27
1.8434e-29
2.6856e-31
3.43121e-33
3.67527e-35
2.87707e-37
1.2319e-39
4.18946e-28
1.48358e-26
3.46803e-25
5.04915e-24
4.1966e-23
1.12306e-22
1.31559e-22
1.02067e-23
5.98977e-25
9.75504e-26
1.07173e-26
9.50979e-28
3.65113e-29
7.14803e-31
1.14465e-32
1.59157e-34
1.78789e-36
1.42538e-38
6.07405e-41
8.18485e-30
3.56212e-28
9.96506e-27
1.70882e-25
1.65579e-24
5.39325e-24
7.31946e-24
5.49082e-25
3.00464e-26
4.50096e-27
4.46823e-28
3.51016e-29
1.30541e-30
2.79857e-32
4.90184e-34
7.29821e-36
8.45688e-38
6.791e-40
2.86182e-42
1.34706e-31
7.47861e-30
2.56281e-28
5.24533e-27
5.94449e-26
2.38893e-25
3.72458e-25
2.80019e-26
1.43611e-27
2.0125e-28
1.82953e-29
1.29581e-30
4.74927e-32
1.11356e-33
2.10267e-35
3.29125e-37
3.87976e-39
3.11322e-41
1.29177e-43
1.78159e-33
1.34875e-31
5.88054e-30
1.46783e-28
1.96449e-27
9.81437e-27
1.75641e-26
1.35406e-27
6.57307e-29
8.75442e-30
7.40859e-31
4.84011e-32
1.77387e-33
4.49788e-35
8.98379e-37
1.45414e-38
1.72565e-40
1.37617e-42
5.60592e-45
1.57576e-35
1.88256e-33
1.12837e-31
3.59242e-30
5.86804e-29
3.61571e-28
7.49221e-28
6.00551e-29
2.79117e-30
3.58399e-31
2.87446e-32
1.77535e-33
6.56203e-35
1.76606e-36
3.65921e-38
6.04158e-40
7.16411e-42
5.65842e-44
2.25958e-46
)
;

boundaryField
{
    leftWall
    {
        type            zeroGradient;
    }
    rightWall
    {
        type            zeroGradient;
    }
    lowerWall
    {
        type            zeroGradient;
    }
    atmosphere
    {
        type            inletOutlet;
        inletValue      uniform 0;
        value           nonuniform List<scalar> 
46
(
0
0
0
0
0
0
0
0
0
0
0
0
0
0
0
0
0
0
0
0
0
0
0
0
0
0
9.51563e-38
1.57576e-35
1.88256e-33
1.12837e-31
3.59242e-30
5.86804e-29
3.61571e-28
7.49221e-28
6.00551e-29
2.79117e-30
3.58399e-31
2.87446e-32
1.77535e-33
6.56203e-35
1.76606e-36
3.65921e-38
6.04158e-40
7.16411e-42
5.65842e-44
2.25958e-46
)
;
    }
    defaultFaces
    {
        type            empty;
    }
}


// ************************************************************************* //
