/*--------------------------------*- C++ -*----------------------------------*\
| =========                 |                                                 |
| \\      /  F ield         | OpenFOAM: The Open Source CFD Toolbox           |
|  \\    /   O peration     | Version:  2012                                  |
|   \\  /    A nd           | Website:  www.openfoam.com                      |
|    \\/     M anipulation  |                                                 |
\*---------------------------------------------------------------------------*/
FoamFile
{
    version     2.0;
    format      ascii;
    class       volScalarField;
    location    "0.86";
    object      maxKappa;
}
// * * * * * * * * * * * * * * * * * * * * * * * * * * * * * * * * * * * * * //

dimensions      [0 0 0 0 0 0 0];


internalField   nonuniform List<scalar> 
2268
(
3.164e-06
6.0275e-06
8.71307e-06
1.10015e-05
1.28245e-05
1.42018e-05
1.51095e-05
1.55752e-05
1.5702e-05
1.5702e-05
1.5502e-05
1.49768e-05
1.4226e-05
1.32388e-05
1.19428e-05
1.02538e-05
8.06908e-06
5.40751e-06
2.57716e-06
3.18756e-06
3.54571e-06
3.54571e-06
2.93011e-06
3.9563e-06
6.46552e-06
9.02102e-06
1.12207e-05
1.29649e-05
1.42817e-05
1.51747e-05
1.56568e-05
1.57668e-05
1.57668e-05
1.55391e-05
1.50127e-05
1.42751e-05
1.33287e-05
1.2074e-05
1.04147e-05
8.29119e-06
5.7518e-06
3.2478e-06
3.45559e-06
3.80329e-06
3.80329e-06
3.43915e-06
4.88511e-06
7.00973e-06
9.37296e-06
1.15052e-05
1.32648e-05
1.4612e-05
1.54812e-05
1.5919e-05
1.597e-05
1.597e-05
1.56866e-05
1.51559e-05
1.44698e-05
1.35486e-05
1.23323e-05
1.0743e-05
8.77505e-06
6.5288e-06
4.55187e-06
4.98456e-06
4.98456e-06
4.96251e-06
4.09372e-06
6.27559e-06
8.06339e-06
1.0187e-05
1.21044e-05
1.36629e-05
1.48737e-05
1.57055e-05
1.6123e-05
1.61257e-05
1.61257e-05
1.58231e-05
1.53032e-05
1.463e-05
1.37998e-05
1.27355e-05
1.13022e-05
9.54041e-06
7.55664e-06
5.80247e-06
6.0953e-06
6.44205e-06
6.44205e-06
6.42067e-06
7.52471e-06
9.00393e-06
1.09013e-05
1.27224e-05
1.4311e-05
1.55562e-05
1.62985e-05
1.65872e-05
1.65872e-05
1.64937e-05
1.61107e-05
1.55798e-05
1.50123e-05
1.42451e-05
1.32635e-05
1.19724e-05
1.04715e-05
8.9027e-06
7.75962e-06
8.71801e-06
8.71801e-06
8.65882e-06
8.17624e-06
9.17018e-06
1.04477e-05
1.21467e-05
1.36901e-05
1.4972e-05
1.60086e-05
1.66997e-05
1.6952e-05
1.6952e-05
1.67653e-05
1.63459e-05
1.58089e-05
1.52081e-05
1.46225e-05
1.39244e-05
1.28741e-05
1.16481e-05
1.04137e-05
9.88288e-06
1.04593e-05
1.06359e-05
1.16859e-05
1.16859e-05
1.06893e-05
1.16694e-05
1.30821e-05
1.45169e-05
1.58753e-05
1.69857e-05
1.7535e-05
1.7581e-05
1.7581e-05
1.7269e-05
1.67098e-05
1.61401e-05
1.57659e-05
1.53449e-05
1.47644e-05
1.38823e-05
1.29452e-05
1.21915e-05
1.3002e-05
1.31335e-05
1.31335e-05
1.43183e-05
1.43183e-05
1.26204e-05
1.36154e-05
1.49937e-05
1.61138e-05
1.69999e-05
1.77613e-05
1.82219e-05
1.82219e-05
1.81922e-05
1.76757e-05
1.702e-05
1.64008e-05
1.59373e-05
1.57888e-05
1.55431e-05
1.49639e-05
1.446e-05
1.45472e-05
1.559e-05
1.559e-05
1.56704e-05
1.88832e-05
1.81669e-05
0.000134906
0.000320973
0.000590367
0.000590367
0.000582605
0.0007083
0.00131743
0.00201875
0.00240316
0.00240316
0.00162037
0.000588017
0.000194184
0.000165169
0.000165169
0.000135788
9.27172e-05
7.11974e-05
4.36841e-05
0.000185662
0.000495731
0.000560832
0.000680906
0.00138932
0.00271584
0.00317302
0.00317302
0.00309117
0.00223005
0.000552598
0.000168157
0.000543781
0.000762233
0.000762233
0.00036804
0.000204574
0.000114524
3.58713e-05
0.000243007
0.000466016
0.00059547
0.00104506
0.0018341
0.00235235
0.00251281
0.00251281
0.00202852
0.00122859
0.000229502
7.95137e-05
9.57898e-05
0.000327855
0.000768203
0.000768203
0.000433685
8.60274e-05
3.41759e-05
0.000158084
0.000221693
0.000359023
0.00124965
0.00124965
0.00118683
0.000593337
0.000862755
0.000862755
0.000753036
0.000179249
0.000270482
0.000270482
0.000195818
0.000231987
0.000481846
0.000481846
0.000221022
3.94194e-05
0.000156114
0.000156114
0.000187855
0.000377325
0.000377325
0.000153675
0.000352984
0.000675934
0.000675934
0.000232829
0.000217792
0.00054548
0.000609322
0.000609322
0.000453487
0.000101136
5.82938e-05
3.68033e-05
2.04808e-05
0.00016602
0.000183315
0.000483511
0.000483511
0.000357524
9.18497e-05
0.000113576
0.000449217
0.000449217
0.000218082
0.000188276
0.000216172
0.000442559
0.000446281
0.000446281
0.000330118
6.67387e-05
2.87106e-05
1.43217e-05
0.000205505
0.000438714
0.000776236
0.000776236
0.00043266
0.000209995
6.17521e-05
0.000286879
0.000286879
0.000195231
0.000143654
0.00010059
0.000237111
0.000272617
0.00033825
0.00033825
0.00024222
7.22726e-05
1.39724e-05
0.000230259
0.000545422
0.000545422
0.000477827
0.000471023
0.000471023
0.000100109
6.7205e-05
0.000116662
0.000116662
9.0011e-05
0.000123745
0.00048202
0.000761637
0.000761637
0.000622847
0.000341926
7.24527e-05
3.84025e-05
1.78342e-05
1.79886e-05
1.88696e-05
1.96518e-05
1.99999e-05
2.00296e-05
2.05952e-05
2.31826e-05
2.54609e-05
2.42086e-05
2.2539e-05
2.01246e-05
1.99895e-05
2.20717e-05
2.30953e-05
2.22366e-05
2.2359e-05
2.43075e-05
3.33267e-05
8.91359e-05
0.000166846
9.79981e-05
4.59937e-05
3.44239e-05
3.58772e-05
3.5695e-05
3.63001e-05
4.08837e-05
6.044e-05
7.7329e-05
0.000121705
0.000194353
0.000169101
0.000118363
9.65751e-05
0.00010212
9.01097e-05
8.7717e-05
7.69962e-05
7.10355e-05
8.59059e-05
0.000184568
0.000437759
0.00042166
0.000173296
0.000153555
0.000224403
0.000247832
0.000252544
0.000259605
0.000308764
0.000541395
0.000779815
0.000961693
0.00100499
0.000843907
0.000556741
0.000343084
0.000324342
0.000361417
0.000399306
0.000440257
0.000492514
0.000588779
0.0007214
0.000765567
0.000683433
0.000308705
0.000126929
0.000990547
0.000865336
0.00076491
0.000833305
0.00115099
0.00169421
0.00169077
0.00173177
0.00147585
0.00143954
0.00128437
0.000818725
0.000450159
0.000626209
0.000808421
0.000852598
0.000886587
0.000929368
0.000929368
0.000912308
0.000852861
0.000553649
0.00016709
0.00226532
0.00146948
0.00124656
0.00142078
0.00210684
0.00284674
0.00268971
0.00239834
0.00153315
0.00139207
0.00146446
0.00158042
0.0011596
0.000556113
0.000648218
0.000602224
0.000608472
0.000704057
0.000873847
0.000841391
0.000818995
0.000444203
0.000133389
0.00372389
0.00219988
0.0019118
0.00229456
0.00274465
0.00292922
0.0027179
0.00200191
0.0015572
0.00149094
0.00146754
0.00187284
0.00194688
0.0013763
0.00139151
0.000832056
0.000782389
0.000796016
0.00108781
0.00125696
0.001072
0.000707698
0.000189757
0.00509319
0.00342696
0.00231195
0.00240514
0.00272786
0.00292922
0.00240419
0.00220097
0.00219385
0.00195215
0.00183193
0.00188867
0.00211102
0.00213335
0.00213335
0.0017779
0.00137395
0.00135529
0.00136738
0.00147892
0.0014572
0.00130249
0.00090285
0.00626372
0.00418482
0.0021983
0.0025465
0.00277477
0.00269779
0.0023117
0.00208311
0.00208721
0.00206152
0.00194148
0.00204394
0.00204394
0.00190465
0.00203344
0.00201535
0.00170373
0.00147897
0.00151004
0.00163127
0.00167537
0.00167537
0.00149081
0.006745
0.00477672
0.00269718
0.00261653
0.00277477
0.00254695
0.00220238
0.00210423
0.00211485
0.00211485
0.0020611
0.00192798
0.0019661
0.0018055
0.00179108
0.00181272
0.00169346
0.00166745
0.00139253
0.00145754
0.00153029
0.0015687
0.00131112
0.006745
0.00513442
0.00308339
0.00267837
0.00254879
0.00200759
0.00163156
0.00163169
0.00173118
0.0017867
0.00182086
0.00176247
0.00177706
0.0017968
0.0017968
0.00161118
0.00160684
0.00140799
0.00126542
0.0011435
0.00122071
0.0012589
0.000992897
0.00689037
0.0053767
0.00346069
0.0026228
0.00195527
0.0010737
0.000908897
0.00101588
0.00114697
0.00116078
0.00125368
0.00133003
0.00137285
0.00148534
0.00146744
0.00142317
0.00144346
0.00139486
0.0011421
0.00115203
0.00115684
0.00112332
0.00109202
0.0070501
0.00555672
0.00346189
0.00232372
0.00122776
0.000697876
0.00079458
0.000879512
0.000862216
0.000805182
0.00079583
0.000860123
0.000891902
0.000905402
0.000998475
0.00106391
0.00115448
0.00116901
0.00124989
0.00137539
0.00137539
0.00124965
0.00124728
0.0070501
0.00565486
0.00343134
0.00201716
0.00119034
0.00116261
0.00104349
0.000986597
0.000890314
0.000750468
0.000603578
0.000581829
0.000573824
0.000583845
0.000628591
0.000623345
0.000639366
0.00076093
0.000962305
0.0011213
0.00110919
0.000945045
0.00106036
0.006788
0.00539397
0.00343825
0.00219631
0.00162495
0.0014028
0.00122238
0.001071
0.00090497
0.000723137
0.000567349
0.000467317
0.00044643
0.000483265
0.00049284
0.000469549
0.000473629
0.000495281
0.000613743
0.000740408
0.000837039
0.000765426
0.000816052
0.00604891
0.00473535
0.0033992
0.00248102
0.00190541
0.00162216
0.0013641
0.00114601
0.000931213
0.000735679
0.000569697
0.000446067
0.000384784
0.000365473
0.000366216
0.000386844
0.000382297
0.0004033
0.000514748
0.000591645
0.000645269
0.000665917
0.000708901
0.00487352
0.00382264
0.00314495
0.00247828
0.00195852
0.00163241
0.00133106
0.00107425
0.000835809
0.000641373
0.000490801
0.000383353
0.00030907
0.000284464
0.000283152
0.000296065
0.000334676
0.000372445
0.000434596
0.000501563
0.000565599
0.000602828
0.000665437
0.00360551
0.00315888
0.00267071
0.00222193
0.00181921
0.00149752
0.00121396
0.000974779
0.000763627
0.000594253
0.000454697
0.000340493
0.000240364
0.000191521
0.00018697
0.000224749
0.000276402
0.00034271
0.000418963
0.000480206
0.000526174
0.000565452
0.000609936
0.0026736
0.00258938
0.00225215
0.00186849
0.00158397
0.00131895
0.00108582
0.000879251
0.000693958
0.000536883
0.00040232
0.000287369
0.000183154
9.47211e-05
0.000115318
0.000189515
0.000252637
0.00031106
0.00037143
0.000431688
0.000490848
0.000539198
0.000576181
0.00212967
0.0021235
0.00187209
0.00162163
0.00140486
0.00119979
0.00101353
0.000839777
0.000679495
0.00053615
0.00040815
0.000293058
0.000187616
0.000105703
0.000120378
0.000193736
0.000266443
0.000335363
0.000397445
0.000451094
0.000496313
0.000533261
0.000557807
0.00180214
0.00180972
0.00161762
0.00144508
0.00128298
0.00111786
0.00096002
0.000807619
0.000665688
0.000536327
0.000420793
0.000319497
0.000233085
0.000193512
0.000194556
0.000231338
0.000281652
0.000337356
0.00039276
0.000443154
0.000488579
0.000525829
0.000552717
0.00158811
0.00158937
0.00144748
0.00132322
0.00120039
0.00106763
0.000936431
0.00080646
0.000682831
0.00056711
0.000463137
0.000372734
0.000313041
0.000282245
0.000278427
0.000301332
0.000338213
0.000383328
0.000430215
0.000475165
0.000516539
0.000554631
0.000588773
0.00144413
0.00143891
0.00133166
0.00124094
0.0011434
0.00103339
0.000921496
0.00080989
0.000703585
0.000604807
0.00051666
0.000444791
0.000396105
0.000369668
0.000362639
0.000376352
0.000402976
0.000439395
0.000480942
0.00052595
0.000571649
0.000618096
0.000664108
0.00134694
0.00133651
0.0012575
0.0011898
0.00111157
0.00102164
0.000927687
0.000831623
0.000738392
0.000650495
0.000575685
0.000522685
0.000480469
0.00045636
0.000448335
0.00045705
0.000478345
0.000510859
0.000552411
0.000602733
0.000658688
0.000717361
0.000767105
0.00128102
0.00127014
0.00121452
0.00116064
0.00109513
0.00101954
0.000940111
0.000859743
0.000781977
0.000708804
0.000647475
0.000602341
0.00056561
0.000544241
0.000536759
0.000544759
0.000566378
0.000602963
0.000652834
0.000714603
0.000778424
0.000830243
0.000857359
0.00124032
0.00122921
0.00119092
0.00114912
0.00109596
0.00103316
0.000965163
0.000894741
0.000826249
0.000773358
0.000721828
0.00068318
0.000651683
0.000634499
0.000630749
0.000643205
0.000672249
0.000719331
0.000781067
0.000845436
0.000888684
0.000904849
0.00090781
0.00122188
0.00120784
0.00118291
0.0011486
0.0011046
0.00105317
0.000997394
0.000940352
0.00088652
0.000842618
0.000798614
0.000766714
0.000741251
0.000730869
0.000734397
0.000757072
0.000797899
0.000856485
0.000915514
0.00094537
0.000945327
0.00093546
0.000931007
0.00122665
0.00121467
0.00119128
0.00116254
0.00112558
0.00108427
0.00103775
0.000996055
0.000951032
0.00091426
0.000877846
0.000853203
0.000835557
0.000834636
0.000849181
0.000885307
0.000937587
0.000991122
0.00100601
0.000987176
0.000964009
0.000949103
0.000946019
0.00124437
0.00123527
0.00121627
0.00119217
0.00116017
0.00112762
0.00108993
0.00105591
0.00101915
0.000989862
0.000961929
0.000946298
0.000939377
0.000951124
0.000979937
0.00102751
0.00107224
0.00107407
0.00103429
0.00100453
0.00097399
0.000955209
0.000950409
0.00127128
0.00126464
0.0012501
0.00123042
0.00120472
0.00117818
0.00114804
0.00112039
0.00109169
0.00106978
0.00105136
0.0010456
0.00105062
0.00107618
0.00111678
0.00115731
0.00114965
0.00111038
0.00106118
0.00101164
0.000975742
0.000955209
0.000950409
0.00130674
0.00130187
0.00129078
0.00127511
0.00125502
0.00123416
0.00121101
0.00118986
0.00116922
0.00115538
0.0011471
0.0011524
0.00117045
0.00120735
0.00124348
0.00123442
0.00117894
0.00111637
0.00105128
0.00100174
0.000967143
0.000947326
0.000935782
0.00135055
0.00134717
0.00133909
0.00132734
0.00131247
0.00129704
0.00128039
0.00126552
0.001253
0.0012469
0.00124943
0.0012651
0.00129537
0.00133324
0.00132737
0.00127482
0.00120368
0.00111876
0.00104726
0.0009878
0.000944453
0.000916596
0.000893567
0.0014014
0.00139907
0.00139337
0.00138515
0.00137506
0.00136495
0.00135483
0.00134682
0.00134268
0.00134503
0.00135768
0.00138405
0.00141972
0.00142449
0.00136301
0.00128671
0.0011836
0.0010926
0.00101232
0.000946504
0.000901541
0.000867658
0.000839492
0.00146068
0.00145937
0.00145582
0.00145095
0.00144516
0.00144003
0.00143576
0.00143439
0.00143777
0.00144778
0.00146932
0.00150097
0.00151601
0.00146303
0.00139413
0.001279
0.00116766
0.00106257
0.000968241
0.000892426
0.000844547
0.000808536
0.000785851
0.00152502
0.00152483
0.00152342
0.00152172
0.00152005
0.00151993
0.00152161
0.00152692
0.00153789
0.00155466
0.00158156
0.00160371
0.00156415
0.00149326
0.00137445
0.00124412
0.00111991
0.00100341
0.000905751
0.000831632
0.000784651
0.000753309
0.000737484
0.00160065
0.00160084
0.00160036
0.00160108
0.00160298
0.00160686
0.00161291
0.00162349
0.00163958
0.00165928
0.00168319
0.00166947
0.00160615
0.00149811
0.00135441
0.00121268
0.00107267
0.00094482
0.000837912
0.000764284
0.000720365
0.000697894
0.000693421
0.00167752
0.00167859
0.00168017
0.0016841
0.00168952
0.00169772
0.00170828
0.00172381
0.00174343
0.00176257
0.00176856
0.00170434
0.00161404
0.00146399
0.00130489
0.00114767
0.000998314
0.00087064
0.000770076
0.000699593
0.000665375
0.000652676
0.000663236
0.00176925
0.00177073
0.00177323
0.00177808
0.00178558
0.00179617
0.00180872
0.00182567
0.00184212
0.00185069
0.00181498
0.00174447
0.0016054
0.00143444
0.0012629
0.00109311
0.000937322
0.00080331
0.000696594
0.000634408
0.000614572
0.000615824
0.000642294
0.00185769
0.00185988
0.00186385
0.00187091
0.00188152
0.00189496
0.0019101
0.00192684
0.00193752
0.00192573
0.00185044
0.00173568
0.00155939
0.00137104
0.00118538
0.00100968
0.000855631
0.000729376
0.00063668
0.000582284
0.000581198
0.000620453
0.000641166
0.00196704
0.00196932
0.00197341
0.00198034
0.00199081
0.00200356
0.00201646
0.0020251
0.00201938
0.00196752
0.00189083
0.00172633
0.00152726
0.0013283
0.00113488
0.000955426
0.000796549
0.000662973
0.000567091
0.000535847
0.000546912
0.000598746
0.000656711
0.00206531
0.00206795
0.00207261
0.00208108
0.00209342
0.00210667
0.00211762
0.00211992
0.00209266
0.00200574
0.00186852
0.00166789
0.00145264
0.00124414
0.00104719
0.000868494
0.000715908
0.000598456
0.000525729
0.000521013
0.000571809
0.000638641
0.000676687
0.00219464
0.00219748
0.00220256
0.00221101
0.00222063
0.00222857
0.00222952
0.00221071
0.00214097
0.00205323
0.00187327
0.0016502
0.00142558
0.00120846
0.00100481
0.00082055
0.000661662
0.000537551
0.000477027
0.000489448
0.00055318
0.000629548
0.000703757
0.00230887
0.00231026
0.00231268
0.002315
0.002315
0.00231468
0.00230649
0.00227742
0.00219511
0.00202918
0.00180214
0.00156032
0.00132789
0.00111018
0.000911292
0.000736146
0.000593413
0.000494539
0.000468832
0.000524696
0.000601478
0.000685709
0.000703757
0.000154183
7.67543e-05
6.77036e-05
7.52947e-05
0.000157898
8.21525e-05
7.68778e-05
0.000138024
0.000157898
0.000107203
0.000144257
0.000181145
0.000123555
0.000150825
0.000173871
0.0002612
0.000138784
0.000156087
0.000175277
0.00063066
0.000141486
0.000156087
0.000220663
0.000728236
0.00032057
0.000250439
0.000577863
0.000823109
0.00086019
0.000651188
0.000675074
0.000950889
0.00086019
0.000654517
0.000718491
0.000950889
0.00076505
0.000776636
0.000757209
0.000802736
0.000850395
0.000776636
0.000757209
0.000800966
0.00115375
0.00110092
0.00100405
0.000870324
0.00115375
0.00113864
0.00113165
0.00106024
0.00105144
0.00113864
0.00113165
0.00106024
0.000828483
0.000911887
0.00100758
0.00105913
0.000760873
0.000806547
0.000866052
0.000911954
0.000667458
0.000698693
0.000735446
0.000768372
0.000609872
0.000625671
0.000638563
0.000650943
0.000580911
0.000591264
0.00059652
0.000601781
0.000567899
0.000575174
0.000577446
0.000578944
0.000608984
0.000618828
0.000624724
0.000629221
0.000691385
0.00070485
0.000715101
0.000722167
0.000788428
0.000799864
0.000807061
0.000814319
0.000865792
0.000871708
0.000875521
0.000881924
0.000909795
0.000914671
0.000918606
0.000926606
0.000934981
0.000940741
0.000945632
0.000953158
0.000950136
0.000954326
0.000956756
0.000960332
0.000950136
0.000954326
0.000956756
0.000960332
0.000949311
0.000948074
0.000944969
0.000941901
0.000923976
0.000917285
0.000908019
0.000900376
0.000875477
0.000865397
0.000854651
0.000845646
0.000822222
0.000812804
0.000803825
0.00079713
0.000771627
0.0007662
0.000760339
0.000758391
0.000730563
0.000729623
0.000729443
0.000732561
0.000696255
0.000701922
0.000708234
0.000718464
0.000676316
0.000689132
0.00070502
0.000727634
0.000670795
0.000696042
0.000719986
0.000747555
0.000683119
0.000713217
0.000740857
0.000772115
0.000705116
0.000738801
0.000769471
0.000803219
0.000729897
0.000765906
0.000798771
0.000834075
0.000761187
0.000799061
0.00083395
0.000870559
0.000761187
0.000799061
0.00083395
0.000870559
0.000232626
0.000534806
0.000692983
0.00071711
0.00071711
0.000566212
0.000218341
4.48638e-05
7.20315e-05
7.98044e-05
0.000103133
0.00029815
0.000839343
0.000926471
0.00084795
0.000613039
0.000552929
0.000389788
0.000224489
0.00026356
0.000771555
0.000478587
0.000728679
0.000617715
0.000303252
0.000254857
0.000138745
9.06709e-05
0.000114334
0.000180007
0.000779551
0.00116114
0.00115369
0.000805856
0.000669977
0.000583803
0.000262993
0.000173673
0.000567221
0.00116195
0.00105121
0.00104341
0.00104341
0.000531973
0.000154529
0.000102411
0.000142932
0.000451195
0.000828308
0.00104367
0.0012753
0.0012753
0.00103123
0.00081159
0.000502485
0.000268359
0.000360546
0.0011983
0.00152292
0.00152292
0.00105821
0.000614758
0.000429807
0.000205288
0.00011081
0.00053764
0.00121994
0.00140879
0.00140879
0.00104483
0.000864812
0.000717694
0.000538468
0.000617579
0.00116854
0.00119697
0.00162694
0.00162694
0.00135069
0.000572321
0.000416237
0.000331439
0.000212121
0.00029393
0.000465895
0.000723194
0.00084687
0.0011301
0.0011301
0.00107333
0.000804821
0.00112713
0.00179341
0.00184939
0.00212893
0.00133852
0.00132866
0.00122485
0.0010656
0.000902066
0.000604685
0.000421966
0.000201655
0.000543453
0.00102321
0.00102643
0.00102643
0.000806098
0.00121335
0.00194997
0.00247002
0.00248129
0.00258597
0.00283189
0.00105737
0.0012599
0.00157212
0.00110093
0.000910902
0.000905349
0.000845029
0.000530717
0.000421267
0.000570157
0.000640929
0.000764706
0.00091688
0.000961968
0.00150441
0.00193063
0.00234168
0.00297419
0.00297419
0.00105672
0.00159434
0.00179548
0.00116411
0.00111522
0.00110622
0.000781987
0.000460638
0.000557214
0.000676238
0.000568946
0.000595126
0.000746936
0.000980467
0.00130941
0.00114826
0.00149981
0.00272974
0.00284857
0.00152192
0.00183588
0.00183588
0.00163574
0.00123642
0.00112173
0.000960601
0.000656973
0.000720541
0.000748417
0.000748417
0.000488382
0.000894914
0.00152881
0.00152881
0.000840141
0.00170015
0.002645
0.00284857
0.00120712
0.00197656
0.00197656
0.00170743
0.00113612
0.000826974
0.000826974
0.000875792
0.000991601
0.00110704
0.00136919
0.00123454
0.00143979
0.00143979
0.00125619
0.000838703
0.0013831
0.0023832
0.002795
0.000942368
0.00146414
0.00166665
0.00147687
0.000568326
0.000781372
0.0010708
0.00159148
0.0018996
0.00207828
0.00207828
0.0020348
0.00192549
0.00161819
0.000739277
0.000937186
0.00142253
0.00232896
0.00260808
0.000761887
0.000634193
0.00118961
0.000786518
0.000537423
0.0010413
0.00169406
0.0018816
0.00193439
0.00202589
0.00202589
0.00194347
0.00158154
0.00106421
0.000683854
0.00103471
0.0013597
0.00208417
0.00240349
0.000987329
0.000777198
0.000775994
0.000664101
0.000782762
0.00156618
0.00176448
0.00176448
0.00165931
0.00157053
0.00158627
0.00133444
0.00100586
0.000826475
0.000956612
0.00116503
0.00139058
0.00183293
0.00203728
0.00119306
0.00119306
0.000999451
0.00112134
0.00137474
0.00154052
0.00156892
0.00153234
0.00128086
0.00107086
0.000995023
0.000914961
0.000870795
0.00100084
0.00113956
0.00124903
0.00133041
0.00164827
0.00179011
0.0012955
0.00136304
0.00150743
0.00156324
0.00156324
0.00142655
0.00137403
0.00121199
0.000801831
0.000617027
0.00073347
0.000874642
0.00100088
0.0011217
0.00121794
0.00126436
0.00128698
0.00149717
0.00159745
0.00111716
0.00122104
0.00127504
0.00132604
0.00127019
0.00115597
0.00104954
0.000761529
0.000552831
0.000898826
0.00103678
0.00111935
0.00119492
0.00123405
0.00125131
0.00125131
0.00123378
0.00133225
0.00141428
0.000817984
0.00090191
0.000921587
0.00092718
0.000846308
0.000753795
0.000640146
0.000690018
0.00101065
0.00115071
0.00121833
0.00125288
0.00126857
0.00126857
0.00125341
0.00122049
0.00114776
0.00115776
0.00123695
0.000672305
0.000672305
0.000612869
0.00055292
0.000402127
0.000337239
0.000609728
0.000915315
0.0011579
0.0012657
0.00131437
0.00132277
0.00132277
0.00130282
0.00123514
0.00113919
0.00101746
0.0009944
0.00106957
0.000602757
0.000602757
0.00052055
0.000376786
0.000183419
0.000310519
0.000610417
0.000908057
0.00112411
0.00123685
0.0012944
0.00129534
0.00129534
0.00124377
0.00114059
0.00101561
0.000883459
0.000833773
0.000910003
0.000598187
0.000598187
0.000526012
0.000413479
0.000293538
0.000386133
0.000598732
0.000866242
0.00106803
0.00118748
0.00124422
0.00124422
0.00122926
0.00116218
0.00104426
0.000907151
0.000764705
0.000678928
0.000754348
0.000626494
0.000622931
0.00057552
0.000512375
0.000480034
0.000515171
0.000652562
0.000852227
0.00101234
0.00111824
0.00116792
0.00116792
0.00115209
0.00108799
0.000969846
0.000821851
0.000667994
0.000533222
0.000603737
0.000742105
0.000742105
0.000717984
0.000691119
0.000682159
0.000727612
0.000798297
0.000933719
0.0010432
0.00112162
0.0011456
0.0011456
0.00110591
0.00102311
0.000898444
0.000748177
0.000589292
0.000433782
0.000455255
0.00085822
0.00085822
0.000855827
0.000860319
0.000888832
0.000932511
0.00100124
0.00109344
0.00115895
0.00119368
0.00119368
0.00117671
0.00109721
0.000975987
0.000823508
0.000665244
0.00050882
0.000349017
0.000309911
0.000959913
0.000973584
0.000996483
0.00102602
0.0010766
0.00114011
0.00121491
0.00129295
0.00133958
0.00135559
0.00135559
0.00130124
0.00117476
0.000998228
0.00079076
0.000606882
0.000458541
0.000316869
0.000188767
0.00102303
0.00104541
0.00107414
0.00111537
0.00118478
0.00127835
0.00137505
0.00145721
0.00151189
0.00153061
0.00153061
0.00145391
0.00128456
0.0010584
0.000793449
0.000573702
0.000445356
0.000353624
0.000204247
0.00106668
0.00108362
0.00110973
0.00115703
0.00125116
0.00137606
0.00149903
0.0016016
0.00167911
0.00171704
0.00171704
0.00163889
0.00144249
0.00116361
0.00083649
0.000567506
0.000454798
0.000423408
0.000314486
0.00107118
0.0010756
0.00109041
0.00114886
0.00127282
0.00142637
0.0015771
0.00170754
0.00181332
0.00187893
0.00187893
0.00182183
0.00161621
0.00128985
0.000901584
0.000578495
0.000504865
0.000522022
0.00044023
0.00105042
0.00105042
0.00104663
0.00111821
0.00126792
0.0014499
0.00163183
0.0017921
0.00192526
0.00202667
0.00202667
0.00200494
0.00180596
0.00144608
0.0009976
0.000615625
0.000608519
0.000643229
0.000579626
0.000991563
0.000991563
0.000982639
0.0010654
0.00122711
0.00142578
0.00163996
0.00183908
0.0020073
0.00215042
0.00216956
0.00216956
0.00198771
0.00161148
0.00111302
0.000671005
0.000725387
0.000777826
0.000733514
0.000939431
0.000939431
0.000951092
0.00104649
0.0012187
0.00142088
0.00164414
0.00187242
0.00207402
0.00225782
0.00232027
0.00232027
0.00216592
0.00178554
0.00124089
0.000737017
0.000857016
0.000927607
0.000900951
0.000880963
0.000880963
0.000911334
0.00101623
0.00120441
0.00141959
0.0016478
0.00189319
0.00212368
0.00234615
0.00245564
0.00245564
0.00233685
0.00196159
0.00138203
0.000823489
0.00100279
0.00109457
0.00108782
0.000856245
0.000866236
0.000910319
0.00101732
0.0012143
0.00144431
0.00167594
0.0019281
0.00217806
0.00243365
0.00258649
0.00258649
0.00250388
0.00213945
0.0015244
0.000905513
0.00116711
0.0012938
0.0012938
0.000826966
0.000852413
0.000907662
0.00101056
0.00120791
0.00145535
0.00169751
0.00195482
0.00221813
0.00250431
0.00270209
0.00270209
0.00265964
0.00231791
0.00168289
0.0010106
0.00134403
0.0015204
0.0015204
0.000838645
0.00087929
0.00094556
0.00104727
0.00123686
0.00148949
0.00174114
0.00200482
0.00227654
0.0025827
0.00281586
0.00281586
0.00281082
0.00249128
0.00183218
0.00110243
0.00154233
0.00177087
0.00177087
0.000834359
0.000889247
0.000966401
0.00106913
0.00125164
0.00150662
0.00176873
0.00204112
0.00232137
0.00264593
0.00291397
0.00294865
0.00294865
0.0026625
0.00200133
0.00122346
0.00174369
0.00203081
0.00203081
0.000874485
0.000938143
0.00102055
0.00112557
0.00130291
0.00155321
0.00181879
0.00209904
0.00238537
0.00272068
0.00301291
0.00308016
0.00308016
0.00282651
0.00215437
0.00130978
0.00196738
0.00231983
0.00231983
0.00088644
0.000960473
0.00104814
0.00115612
0.00133129
0.0015781
0.0018465
0.00213538
0.00243161
0.0027804
0.0030983
0.00319984
0.00319984
0.00298608
0.00230748
0.00138464
0.00217292
0.00259289
0.00259289
0.000942338
0.00102162
0.00111109
0.00121852
0.00139175
0.001636
0.00190285
0.00219412
0.00249393
0.00284832
0.00318259
0.00330909
0.00330909
0.00312644
0.00242953
0.00144931
0.0024127
0.00289982
0.00289982
0.000958453
0.00104441
0.00113793
0.001247
0.00141951
0.00166297
0.00193054
0.00222707
0.00253453
0.00289537
0.00324894
0.00340261
0.00340261
0.00325558
0.00256341
0.0014885
0.00258264
0.00313285
0.00313285
0.0010246
0.00111274
0.00120729
0.00131614
0.00148597
0.00172705
0.00199263
0.00228757
0.00259576
0.00295529
0.00331525
0.00347892
0.00347892
0.00335229
0.00264047
0.00153737
0.00278126
0.00337806
0.00337806
0.0010354
0.00112702
0.0012244
0.00133494
0.00150436
0.00174617
0.0020123
0.00230904
0.00262135
0.00298152
0.00335022
0.0035263
0.0035263
0.00342443
0.00273017
0.00154019
0.00288716
0.00352109
0.00352109
0.00111379
0.00120714
0.00130518
0.00141638
0.00158407
0.00182318
0.00208734
0.00238002
0.00268968
0.0030427
0.00340936
0.00358048
0.00358048
0.0034837
0.00277
0.00156625
0.00305921
0.00371078
0.00371078
)
;

boundaryField
{
    leftWall
    {
        type            calculated;
        value           uniform 0;
    }
    rightWall
    {
        type            calculated;
        value           uniform 0;
    }
    lowerWall
    {
        type            calculated;
        value           uniform 0;
    }
    atmosphere
    {
        type            calculated;
        value           uniform 0;
    }
    defaultFaces
    {
        type            empty;
    }
}


// ************************************************************************* //
