/*--------------------------------*- C++ -*----------------------------------*\
| =========                 |                                                 |
| \\      /  F ield         | OpenFOAM: The Open Source CFD Toolbox           |
|  \\    /   O peration     | Version:  2012                                  |
|   \\  /    A nd           | Website:  www.openfoam.com                      |
|    \\/     M anipulation  |                                                 |
\*---------------------------------------------------------------------------*/
FoamFile
{
    version     2.0;
    format      ascii;
    class       volScalarField;
    location    "0.86";
    object      p;
}
// * * * * * * * * * * * * * * * * * * * * * * * * * * * * * * * * * * * * * //

dimensions      [1 -1 -2 0 0 0 0];


internalField   nonuniform List<scalar> 
2268
(
102637
102622
102607
102572
102550
102509
102484
102446
102418
102388
102359
102338
102311
102299
102274
102268
102242
102238
102207
102198
102168
102166
102161
102579
102564
102549
102513
102491
102450
102424
102388
102359
102330
102299
102279
102251
102240
102215
102210
102183
102179
102148
102139
102110
102108
102101
102523
102508
102492
102455
102432
102389
102366
102326
102301
102268
102240
102217
102191
102178
102154
102148
102122
102117
102085
102076
102043
102040
102037
102467
102450
102435
102396
102375
102330
102306
102269
102239
102210
102178
102159
102129
102120
102094
102090
102063
102058
102026
102016
101986
101983
101977
102414
102396
102379
102337
102314
102269
102248
102205
102183
102146
102119
102093
102068
102055
102031
102025
101999
101994
101958
101946
101906
101904
101901
102361
102339
102324
102277
102258
102208
102186
102150
102118
102088
102052
102035
102004
101997
101970
101967
101940
101935
101898
101883
101846
101847
101842
102311
102290
102268
102219
102194
102146
102130
102082
102065
102021
101995
101965
101943
101928
101905
101898
101872
101867
101824
101801
101742
101749
101737
102262
102230
102214
102156
102139
102081
102066
102029
101993
101965
101922
101909
101875
101871
101843
101840
101813
101806
101762
101735
101676
101688
101684
103240
102830
102434
102132
101989
101882
101847
101827
101854
101953
102696
102506
102303
101994
101894
101915
101946
102075
102216
103165
102736
102342
102051
101913
101820
101812
101811
101825
101924
102586
102372
102180
101899
101905
101897
101874
102008
102142
102910
102556
102210
101936
101848
101825
101810
101807
101816
101862
102338
102221
102021
101860
101833
101825
101844
101937
102070
102766
102435
102068
101876
101830
101809
101809
101808
101810
101852
102177
102032
101888
101670
101777
101831
101836
101945
102060
102517
102209
101938
101811
101818
101806
101810
101806
101809
101821
102050
101934
101773
101595
101672
101730
101826
101930
102016
102322
102053
101791
101728
101762
101767
101798
101808
101801
101843
101951
101853
101703
101522
101610
101672
101803
101942
102012
102116
101852
101746
101718
101739
101738
101783
101801
101795
101812
101875
101760
101595
101511
101585
101639
101767
101899
101946
101983
101801
101738
101716
101736
101718
101769
101819
101872
101836
101811
101694
101534
101484
101567
101609
101711
101901
101958
102189
102166
102124
102066
102031
101985
101980
101918
101922
101857
101839
101787
101780
101756
101738
101727
101704
101697
101639
101590
101488
101514
101421
102094
102019
102013
101909
101914
101813
101833
101819
101745
101735
101651
101679
101622
101643
101602
101602
101570
101555
101485
101447
101405
101442
101420
102046
102001
101884
101786
101710
101719
101751
101689
101746
101647
101608
101505
101526
101484
101459
101438
101424
101413
101400
101387
101359
101355
101269
101982
101819
101800
101599
101657
101506
101654
101690
101606
101594
101485
101524
101429
101412
101385
101379
101378
101375
101375
101371
101360
101346
101224
102003
101906
101654
101446
101393
101393
101522
101536
101607
101514
101502
101393
101390
101377
101375
101375
101375
101375
101375
101374
101368
101341
101282
101767
101549
101367
101324
101330
101334
101341
101374
101391
101413
101396
101419
101385
101381
101377
101375
101376
101375
101376
101376
101378
101377
101377
101463
101357
101331
101325
101325
101326
101323
101325
101329
101338
101339
101335
101376
101375
101373
101375
101374
101375
101375
101375
101377
101376
101382
101358
101327
101326
101324
101324
101324
101324
101324
101324
101324
101324
101324
101326
101353
101365
101374
101375
101374
101375
101377
101382
101382
101390
101329
101322
101324
101322
101322
101322
101321
101322
101322
101323
101324
101324
101327
101335
101343
101359
101373
101374
101373
101373
101379
101381
101390
101325
101321
101322
101320
101320
101320
101321
101321
101322
101323
101324
101324
101324
101325
101332
101334
101343
101348
101340
101358
101361
101370
101364
101320
101318
101319
101318
101319
101319
101320
101321
101322
101323
101323
101324
101324
101324
101325
101325
101326
101332
101340
101341
101337
101334
101339
101318
101316
101317
101317
101318
101318
101320
101321
101322
101323
101323
101324
101324
101324
101324
101325
101325
101325
101325
101325
101325
101326
101325
101317
101315
101316
101316
101318
101319
101320
101321
101322
101323
101323
101323
101324
101324
101324
101324
101324
101324
101324
101325
101325
101325
101325
101319
101317
101317
101317
101319
101320
101321
101322
101322
101323
101323
101324
101324
101324
101324
101324
101324
101324
101324
101325
101325
101325
101325
101322
101320
101320
101320
101320
101321
101322
101322
101323
101323
101323
101323
101324
101324
101324
101324
101324
101324
101324
101324
101324
101325
101324
101325
101324
101322
101322
101322
101322
101322
101323
101323
101323
101323
101324
101324
101324
101324
101324
101324
101324
101324
101324
101324
101324
101324
101325
101325
101324
101323
101323
101323
101323
101323
101323
101323
101323
101323
101324
101324
101324
101324
101324
101324
101324
101324
101324
101324
101324
101325
101325
101324
101324
101323
101323
101323
101323
101323
101323
101323
101324
101324
101324
101324
101324
101324
101324
101324
101324
101324
101324
101324
101325
101325
101324
101324
101324
101323
101323
101323
101323
101323
101323
101323
101323
101324
101324
101324
101324
101324
101324
101324
101324
101324
101324
101324
101324
101324
101324
101324
101324
101323
101323
101323
101323
101323
101323
101323
101324
101324
101324
101324
101324
101324
101324
101324
101324
101324
101324
101324
101324
101324
101324
101323
101323
101323
101323
101323
101323
101323
101323
101323
101323
101323
101323
101323
101323
101324
101324
101324
101324
101324
101324
101324
101324
101323
101323
101323
101323
101323
101323
101323
101323
101323
101323
101323
101323
101323
101323
101323
101323
101323
101324
101324
101323
101323
101323
101323
101323
101323
101323
101323
101323
101323
101323
101323
101323
101323
101323
101323
101323
101323
101323
101323
101323
101323
101323
101323
101323
101323
101323
101323
101323
101323
101323
101323
101323
101323
101323
101323
101323
101323
101323
101323
101323
101323
101323
101323
101323
101323
101323
101323
101323
101323
101323
101323
101323
101323
101323
101323
101323
101323
101323
101323
101323
101323
101323
101323
101323
101323
101323
101323
101323
101323
101323
101323
101323
101323
101323
101323
101323
101323
101323
101323
101323
101323
101323
101323
101323
101323
101323
101323
101323
101323
101323
101323
101322
101322
101322
101322
101322
101322
101322
101322
101322
101322
101322
101322
101322
101322
101322
101322
101322
101322
101322
101322
101322
101322
101322
101322
101322
101322
101322
101322
101322
101322
101322
101322
101322
101322
101322
101322
101322
101322
101322
101322
101322
101322
101322
101322
101322
101322
101322
101322
101322
101322
101322
101322
101322
101322
101322
101322
101322
101322
101322
101322
101322
101322
101322
101322
101322
101322
101322
101322
101322
101322
101322
101322
101322
101322
101322
101322
101322
101322
101322
101322
101322
101322
101322
101321
101321
101321
101321
101321
101321
101321
101321
101321
101321
101321
101321
101321
101321
101321
101321
101321
101321
101321
101321
101321
101321
101321
101321
101321
101321
101321
101321
101321
101321
101321
101321
101321
101321
101321
101321
101321
101321
101321
101321
101321
101321
101321
101321
101321
101321
101321
101321
101321
101321
101321
101321
101321
101321
101321
101321
101321
101321
101321
101321
101321
101321
101321
101321
101321
101321
101321
101321
101321
101321
101320
101320
101320
101320
101320
101320
101320
101320
101320
101320
101320
101320
101320
101320
101320
101320
101320
101320
101320
101320
101320
101320
101320
101320
101320
101320
101320
101320
101320
101320
101320
101320
101320
101320
101320
101320
101320
101320
101320
101320
101320
101320
101320
101320
101320
101320
101320
101320
101320
101320
101320
101320
101320
101320
101320
101320
101320
101320
101320
101320
101320
101320
101320
101320
101320
101320
101320
101320
101320
101319
101319
101319
101319
101319
101319
101319
101319
101320
101320
101320
101320
101320
101320
101320
101319
101319
101319
101319
101319
101319
101319
101319
101319
101319
101319
101319
101319
101319
101319
101319
101319
101319
101319
101319
101319
101319
101319
101319
101319
101319
101319
101319
101319
101319
101319
101319
101319
101319
101319
101319
101319
101319
101319
101319
101319
101319
101319
101319
101319
101319
101319
101319
101319
101319
101319
101319
101319
101319
101319
101319
101319
101319
101319
101319
101319
101319
101319
101319
101319
101319
101319
101319
101319
101319
101319
101319
101318
101318
101318
101318
101318
101318
101318
101318
101318
101318
101318
101318
101318
101318
101318
101318
101318
101318
101318
101318
101318
101318
101318
101318
101318
101318
101318
101318
101318
101318
101318
101318
101318
101318
101318
101318
101318
101318
101318
101318
101318
101318
101318
101318
101318
101318
101318
101318
101318
101318
101318
101318
101318
101318
101318
101318
101318
101318
101318
101472
101394
101564
101348
101525
101472
101541
101506
101298
101289
101309
101344
101308
101306
101359
101382
101314
101343
101372
101414
101424
101446
101438
101449
101402
101430
101407
101404
101446
101466
101393
101375
101424
101385
101380
101376
101386
101378
101389
101364
101341
101329
101340
101328
101333
101337
101332
101330
101325
101325
101325
101324
101325
101324
101324
101325
101325
101325
101325
101325
101325
101325
101325
101325
101324
101324
101324
101324
101324
101324
101324
101324
101324
101324
101324
101324
101324
101324
101324
101324
101324
101324
101324
101324
101324
101324
101324
101324
101323
101323
101323
101323
101323
101323
101323
101323
101323
101323
101323
101323
101323
101323
101323
101323
101322
101322
101322
101322
101322
101322
101322
101322
101322
101322
101322
101322
101321
101321
101321
101321
101321
101321
101321
101321
101321
101321
101321
101321
101320
101320
101320
101320
101320
101320
101320
101320
101320
101320
101320
101320
101319
101319
101319
101320
101319
101319
101319
101319
101319
101319
101319
101319
101319
101319
101319
101319
101318
101318
101318
101318
101318
101318
101318
101318
101318
101318
101318
101318
101794
101713
101742
101712
101731
101711
101742
101814
101838
101776
101696
101602
101468
101503
101536
101613
101702
101827
101863
101697
101684
101737
101693
101731
101681
101717
101759
101814
101712
101585
101509
101448
101465
101483
101516
101565
101712
101751
101615
101615
101756
101641
101711
101668
101624
101635
101557
101478
101448
101429
101442
101474
101462
101467
101479
101543
101515
101618
101595
101678
101617
101654
101631
101715
101519
101422
101359
101330
101353
101381
101401
101419
101424
101422
101452
101512
101449
101471
101448
101443
101493
101536
101529
101454
101381
101329
101348
101335
101332
101351
101355
101353
101407
101427
101427
101410
101437
101332
101327
101343
101385
101391
101379
101358
101347
101333
101331
101332
101333
101330
101329
101331
101364
101381
101369
101369
101318
101323
101319
101336
101340
101330
101328
101331
101318
101333
101323
101332
101328
101328
101327
101329
101334
101343
101351
101316
101313
101317
101317
101329
101327
101329
101327
101329
101328
101329
101329
101328
101327
101327
101328
101329
101366
101343
101329
101324
101319
101322
101328
101326
101327
101326
101326
101326
101325
101326
101327
101328
101327
101328
101328
101335
101337
101329
101328
101327
101321
101328
101325
101328
101325
101326
101325
101326
101327
101328
101327
101328
101328
101328
101329
101331
101330
101327
101331
101326
101327
101326
101326
101326
101326
101326
101326
101327
101328
101327
101328
101328
101328
101330
101334
101329
101328
101327
101326
101327
101325
101326
101325
101326
101326
101327
101327
101327
101327
101327
101327
101328
101325
101323
101324
101326
101326
101325
101326
101325
101325
101325
101326
101326
101326
101326
101327
101327
101327
101327
101327
101324
101325
101325
101326
101326
101326
101326
101325
101325
101325
101325
101326
101326
101326
101327
101327
101327
101327
101327
101325
101324
101325
101325
101326
101325
101325
101325
101325
101325
101325
101325
101326
101326
101326
101326
101327
101327
101327
101325
101325
101325
101325
101325
101325
101325
101325
101325
101325
101325
101325
101326
101326
101326
101326
101327
101327
101327
101325
101325
101325
101325
101325
101325
101325
101325
101325
101325
101325
101325
101326
101326
101326
101326
101326
101326
101326
101325
101325
101325
101325
101325
101325
101325
101325
101325
101325
101325
101325
101325
101326
101326
101326
101326
101326
101326
101324
101324
101325
101325
101325
101325
101325
101325
101325
101325
101325
101325
101325
101325
101326
101326
101326
101326
101326
101324
101324
101325
101325
101325
101325
101325
101325
101325
101325
101325
101325
101325
101325
101325
101326
101326
101326
101326
101324
101324
101324
101324
101325
101325
101325
101325
101325
101325
101325
101325
101325
101325
101325
101325
101326
101326
101326
101324
101324
101324
101324
101324
101325
101325
101325
101325
101325
101325
101325
101325
101325
101325
101325
101325
101325
101325
101324
101324
101324
101324
101324
101324
101324
101324
101325
101325
101325
101325
101325
101325
101325
101325
101325
101325
101325
101323
101323
101324
101324
101324
101324
101324
101324
101324
101324
101324
101324
101325
101325
101325
101325
101325
101325
101325
101323
101323
101323
101323
101324
101324
101324
101324
101324
101324
101324
101324
101324
101324
101324
101325
101325
101325
101325
101323
101323
101323
101323
101323
101323
101323
101324
101324
101324
101324
101324
101324
101324
101324
101324
101325
101325
101325
101322
101322
101323
101323
101323
101323
101323
101323
101323
101324
101324
101324
101324
101324
101324
101324
101324
101324
101324
101322
101322
101322
101322
101322
101323
101323
101323
101323
101323
101323
101324
101324
101324
101324
101324
101324
101324
101324
101322
101322
101322
101322
101322
101322
101322
101322
101323
101323
101323
101323
101323
101324
101324
101324
101324
101324
101324
101321
101321
101322
101322
101322
101322
101322
101322
101322
101322
101323
101323
101323
101323
101324
101324
101324
101324
101324
101321
101321
101321
101321
101321
101321
101322
101322
101322
101322
101322
101323
101323
101323
101323
101323
101323
101324
101324
101321
101321
101321
101321
101321
101321
101321
101321
101322
101322
101322
101322
101323
101323
101323
101323
101323
101323
101323
101321
101321
101321
101321
101321
101321
101321
101321
101321
101321
101322
101322
101322
101322
101323
101323
101323
101323
101323
101320
101320
101320
101320
101320
101320
101320
101321
101321
101321
101321
101321
101322
101322
101322
101322
101322
101323
101323
101320
101320
101320
101320
101320
101320
101320
101320
101320
101321
101321
101321
101321
101321
101322
101322
101322
101322
101322
101320
101320
101320
101320
101320
101320
101320
101320
101320
101320
101320
101321
101321
101321
101321
101321
101321
101321
101322
101319
101319
101319
101319
101319
101319
101319
101320
101320
101320
101320
101320
101320
101320
101320
101320
101321
101321
101321
101319
101319
101319
101319
101319
101319
101319
101319
101319
101319
101319
101320
101320
101320
101320
101320
101320
101320
101320
101319
101319
101319
101319
101319
101319
101319
101319
101319
101319
101319
101319
101319
101319
101319
101319
101319
101319
101319
101318
101318
101318
101318
101318
101318
101318
101318
101318
101318
101319
101319
101319
101319
101318
101318
101319
101319
101319
101318
101318
101318
101318
101318
101318
101318
101318
101318
101318
101318
101318
101318
101318
101318
101318
101318
101318
101318
101318
101318
101318
101318
101318
101318
101318
101318
101318
101318
101318
101317
101318
101317
101318
101317
101318
101318
101318
)
;

boundaryField
{
    leftWall
    {
        type            zeroGradient;
    }
    rightWall
    {
        type            zeroGradient;
    }
    lowerWall
    {
        type            zeroGradient;
    }
    atmosphere
    {
        type            fixedValue;
        value           uniform 101325;
    }
    defaultFaces
    {
        type            empty;
    }
}


// ************************************************************************* //
