/*--------------------------------*- C++ -*----------------------------------*\
| =========                 |                                                 |
| \\      /  F ield         | OpenFOAM: The Open Source CFD Toolbox           |
|  \\    /   O peration     | Version:  2012                                  |
|   \\  /    A nd           | Website:  www.openfoam.com                      |
|    \\/     M anipulation  |                                                 |
\*---------------------------------------------------------------------------*/
FoamFile
{
    version     2.0;
    format      ascii;
    class       volScalarField;
    location    "0.86";
    object      p_rgh;
}
// * * * * * * * * * * * * * * * * * * * * * * * * * * * * * * * * * * * * * //

dimensions      [1 -1 -2 0 0 0 0];


internalField   nonuniform List<scalar> 
2268
(
102666
102652
102637
102602
102579
102538
102513
102475
102448
102418
102389
102367
102340
102328
102303
102298
102272
102267
102236
102228
102198
102195
102190
102667
102652
102637
102601
102580
102538
102513
102476
102447
102418
102387
102368
102339
102329
102303
102298
102272
102267
102236
102228
102198
102196
102190
102670
102655
102639
102602
102579
102537
102513
102473
102448
102415
102387
102364
102338
102325
102301
102295
102269
102264
102232
102223
102190
102187
102184
102673
102656
102641
102602
102581
102536
102512
102475
102445
102416
102384
102365
102335
102326
102300
102296
102269
102264
102232
102222
102192
102189
102183
102679
102661
102644
102602
102579
102534
102513
102470
102448
102411
102384
102358
102333
102319
102295
102290
102263
102259
102223
102211
102171
102169
102166
102685
102662
102647
102601
102582
102532
102510
102473
102441
102412
102376
102359
102328
102321
102294
102290
102263
102258
102222
102207
102170
102170
102165
102694
102672
102650
102602
102577
102528
102513
102465
102448
102404
102378
102347
102325
102310
102287
102281
102255
102249
102207
102183
102124
102132
102120
102703
102671
102656
102597
102581
102522
102507
102471
102435
102406
102363
102350
102316
102312
102284
102281
102254
102248
102203
102176
102114
102130
102125
103267
102856
102457
102156
102014
101907
101869
101843
101865
101961
102711
102525
102329
102020
101921
101942
101974
102104
102244
103245
102802
102408
102121
101974
101842
101822
101817
101830
101939
102656
102444
102242
101918
101921
101937
101939
102089
102229
103040
102665
102319
102029
101903
101830
101811
101807
101816
101893
102477
102360
102160
101988
101892
101854
101873
102038
102213
102960
102616
102251
101953
101831
101810
101809
101809
101812
101975
102372
102196
102014
101847
101954
101932
101943
102122
102261
102767
102458
102187
101979
101963
101970
101815
101807
101812
102062
102290
102069
101864
101688
101860
101989
102085
102192
102279
102627
102358
102025
101831
101941
102002
101914
101818
101819
102137
102228
102140
101850
101594
101712
101922
102124
102263
102333
102476
102180
101811
101724
101769
101929
102113
101910
101994
102155
102231
102134
101921
101597
101670
101747
102069
102254
102325
102398
102146
101745
101722
101745
101808
102149
102126
102264
102231
102241
102125
101862
101583
101666
101708
101899
102309
102348
102723
102699
102658
102600
102564
102518
102514
102452
102456
102390
102372
102321
102313
102289
102271
102261
102237
102230
102171
102108
101908
101935
101954
102753
102678
102672
102568
102573
102472
102492
102461
102360
102341
102265
102308
102255
102276
102236
102245
102221
102206
102106
101851
101627
101712
101815
102767
102699
102573
102490
102400
102289
102169
102030
102069
101954
101935
101898
101979
102050
102063
102020
101956
101861
101709
101542
101472
101726
101862
102361
102157
102200
101994
101962
101848
102072
101980
101703
101691
101582
101657
101745
101732
101511
101440
101410
101386
101379
101394
101436
101776
102029
102056
102234
102109
101871
101546
101396
101570
101713
102049
101919
101643
101428
101400
101385
101376
101377
101376
101376
101376
101376
101453
102079
102249
101826
101875
101722
101427
101352
101336
101374
101717
101888
101909
101893
101612
101389
101382
101378
101376
101377
101377
101377
101377
101401
101858
102451
101534
101455
101362
101329
101327
101329
101330
101341
101440
101604
101643
101639
101521
101392
101388
101377
101376
101377
101377
101377
101379
101406
101911
101394
101330
101328
101326
101326
101326
101326
101326
101325
101326
101326
101371
101538
101629
101528
101386
101376
101376
101377
101379
101384
101388
101448
101340
101325
101326
101324
101324
101324
101323
101324
101324
101325
101326
101326
101407
101635
101643
101636
101395
101390
101410
101475
101427
101392
101504
101328
101325
101324
101322
101323
101322
101323
101324
101324
101325
101326
101326
101326
101337
101520
101616
101625
101568
101674
101796
101668
101431
101779
101322
101322
101322
101320
101321
101321
101322
101323
101324
101325
101325
101326
101326
101327
101327
101327
101360
101564
101797
101812
101707
101452
101697
101320
101319
101320
101319
101320
101321
101322
101323
101325
101325
101326
101326
101326
101327
101327
101327
101327
101327
101327
101333
101338
101339
101342
101320
101318
101319
101319
101321
101321
101323
101324
101325
101325
101326
101326
101326
101327
101327
101327
101327
101327
101327
101327
101327
101328
101327
101321
101319
101320
101320
101322
101322
101324
101324
101325
101326
101326
101326
101327
101327
101327
101327
101327
101327
101327
101327
101327
101328
101327
101325
101323
101323
101323
101323
101324
101325
101325
101326
101326
101326
101326
101327
101327
101327
101327
101327
101327
101327
101327
101327
101328
101327
101328
101327
101325
101325
101325
101325
101326
101326
101326
101326
101326
101327
101327
101327
101327
101327
101327
101327
101327
101327
101327
101328
101328
101329
101328
101327
101327
101326
101326
101326
101326
101326
101326
101327
101327
101327
101327
101327
101327
101327
101327
101327
101327
101327
101328
101328
101329
101328
101328
101327
101327
101327
101327
101327
101327
101327
101327
101327
101327
101327
101327
101327
101327
101327
101327
101328
101328
101328
101328
101328
101328
101328
101328
101327
101327
101327
101327
101327
101327
101327
101327
101327
101327
101327
101327
101327
101327
101327
101327
101327
101328
101328
101328
101328
101328
101328
101327
101327
101327
101327
101327
101327
101327
101327
101327
101327
101327
101327
101327
101327
101327
101328
101328
101328
101328
101328
101328
101328
101328
101327
101327
101327
101327
101327
101327
101327
101327
101327
101327
101327
101327
101327
101327
101327
101327
101328
101328
101328
101328
101328
101328
101328
101328
101327
101327
101327
101327
101327
101327
101327
101327
101327
101327
101327
101327
101327
101327
101328
101328
101328
101328
101328
101328
101328
101328
101327
101327
101327
101327
101327
101327
101327
101327
101327
101327
101327
101327
101327
101327
101327
101327
101327
101328
101328
101328
101328
101328
101327
101327
101327
101327
101327
101327
101327
101327
101327
101327
101327
101327
101327
101327
101327
101327
101327
101327
101327
101328
101327
101327
101327
101327
101327
101327
101327
101327
101327
101327
101327
101327
101327
101327
101327
101327
101327
101327
101327
101327
101327
101327
101327
101327
101327
101327
101327
101327
101327
101327
101327
101327
101327
101327
101327
101327
101327
101327
101327
101327
101327
101327
101327
101327
101327
101327
101327
101327
101327
101327
101327
101327
101327
101327
101327
101327
101327
101327
101327
101327
101327
101327
101327
101327
101327
101327
101327
101327
101327
101327
101327
101327
101327
101327
101327
101327
101327
101327
101327
101327
101327
101327
101327
101327
101327
101327
101327
101327
101327
101327
101327
101327
101327
101327
101327
101327
101327
101327
101327
101327
101327
101327
101327
101327
101327
101327
101327
101327
101327
101327
101327
101327
101327
101327
101327
101327
101327
101327
101327
101327
101327
101327
101327
101327
101327
101327
101327
101327
101327
101327
101327
101327
101327
101327
101327
101327
101327
101327
101327
101327
101327
101327
101327
101327
101327
101327
101327
101327
101327
101327
101327
101327
101327
101327
101327
101327
101327
101327
101327
101327
101327
101327
101327
101327
101327
101327
101327
101327
101327
101327
101327
101327
101327
101327
101327
101327
101327
101326
101326
101326
101326
101326
101326
101326
101327
101327
101327
101327
101327
101327
101327
101327
101327
101327
101327
101327
101326
101326
101326
101326
101326
101326
101326
101326
101326
101326
101326
101327
101327
101327
101327
101327
101327
101327
101327
101326
101326
101326
101326
101326
101326
101326
101326
101326
101326
101326
101326
101326
101326
101326
101326
101326
101326
101326
101326
101326
101326
101326
101326
101326
101326
101326
101326
101326
101326
101326
101326
101326
101326
101326
101326
101326
101326
101326
101326
101326
101326
101326
101326
101326
101326
101326
101326
101326
101326
101326
101326
101326
101326
101326
101326
101326
101326
101326
101326
101326
101326
101326
101326
101326
101326
101326
101326
101326
101326
101326
101326
101326
101326
101326
101326
101326
101326
101326
101326
101326
101326
101326
101326
101326
101326
101326
101326
101326
101326
101326
101326
101326
101326
101326
101326
101326
101326
101326
101326
101326
101325
101325
101325
101325
101326
101326
101326
101326
101326
101326
101326
101326
101326
101326
101326
101326
101326
101326
101326
101326
101325
101325
101325
101325
101325
101325
101325
101325
101325
101326
101326
101326
101326
101326
101326
101326
101326
101326
101326
101325
101325
101325
101325
101325
101325
101325
101325
101325
101325
101325
101325
101325
101325
101325
101325
101325
101325
101325
101325
101325
101325
101325
101325
101325
101325
101325
101325
101325
101325
101325
101325
101325
101325
101325
101325
101326
101326
101326
101326
101326
101326
101325
101325
101325
101325
101325
101325
101325
101325
101325
101325
101325
101325
101325
101325
101325
101325
101325
101896
101714
101967
101843
101921
101868
102121
102121
101894
101980
102042
102077
102157
102156
102209
102232
102281
102309
102339
102159
102507
102530
102509
102153
102531
102599
102337
101988
101706
101779
101649
101543
101656
101482
101389
101381
102003
101889
101513
101466
102004
101992
102003
101726
101592
101752
101580
101463
101327
101327
101327
101327
101327
101327
101327
101327
101328
101327
101328
101328
101328
101328
101328
101328
101328
101328
101328
101328
101328
101328
101328
101328
101328
101328
101328
101328
101328
101328
101328
101328
101328
101328
101328
101328
101328
101328
101328
101328
101328
101328
101328
101328
101328
101328
101328
101328
101327
101327
101328
101328
101327
101327
101327
101327
101327
101327
101327
101327
101327
101327
101327
101327
101327
101327
101327
101327
101327
101327
101327
101327
101327
101327
101327
101327
101326
101326
101326
101326
101326
101326
101326
101326
101326
101326
101326
101326
101326
101326
101326
101326
101326
101326
101326
101326
101326
101326
101326
101326
101326
101326
101326
101326
101325
101326
101326
101326
101325
101325
101325
101325
101325
101325
101325
101325
101325
101325
101325
101325
102296
102091
101754
101749
101747
101767
102042
102285
102338
102288
102216
102093
101723
101630
101743
101911
101992
102176
102196
102313
101962
101803
101802
101751
101716
102069
102329
102422
102346
102219
101966
101607
101603
101829
101886
101957
102257
102296
102282
101723
101829
101713
101919
102276
102349
102371
102294
102109
101992
101855
101603
101610
101599
101608
101910
102179
102131
102150
101695
101784
102053
102227
102253
102501
102368
102009
101505
101425
101613
101797
101817
101633
101713
101816
101695
101709
101734
101585
101711
102181
102244
102286
102279
101996
101814
101461
101350
101336
101474
101649
101834
101831
101530
101463
101463
101777
101625
101478
101575
101734
102043
102076
102041
101881
101518
101335
101333
101334
101334
101332
101331
101345
101408
101440
101774
101705
101380
101325
101320
101481
101456
101403
101331
101384
101329
101347
101340
101337
101329
101330
101330
101346
101393
101491
101518
101407
101315
101319
101432
101331
101329
101331
101369
101418
101419
101391
101333
101330
101329
101330
101330
101331
101370
101346
101377
101330
101321
101448
101367
101329
101329
101328
101330
101358
101343
101328
101329
101330
101330
101330
101331
101371
101340
101331
101330
101392
101456
101369
101328
101330
101327
101328
101328
101329
101329
101330
101330
101330
101330
101330
101364
101333
101332
101330
101579
101385
101330
101328
101329
101328
101328
101328
101329
101329
101330
101330
101330
101330
101330
101512
101485
101349
101383
101387
101329
101330
101328
101329
101328
101328
101328
101329
101330
101330
101330
101330
101330
101330
101328
101336
101360
101361
101329
101328
101329
101328
101328
101328
101328
101328
101329
101329
101330
101329
101330
101330
101330
101327
101329
101335
101331
101329
101329
101328
101328
101328
101328
101328
101328
101329
101329
101329
101329
101330
101330
101330
101328
101327
101329
101329
101330
101328
101328
101328
101328
101328
101328
101328
101329
101329
101329
101329
101330
101330
101330
101328
101328
101328
101329
101330
101329
101328
101328
101328
101328
101328
101328
101329
101329
101329
101329
101330
101330
101330
101328
101328
101328
101328
101329
101329
101329
101328
101328
101328
101328
101328
101329
101329
101329
101329
101330
101330
101330
101328
101328
101328
101328
101329
101329
101329
101328
101328
101328
101329
101329
101329
101329
101329
101329
101330
101330
101330
101328
101328
101328
101328
101329
101329
101329
101329
101329
101329
101329
101329
101329
101329
101329
101329
101330
101330
101330
101328
101328
101328
101328
101329
101329
101329
101329
101329
101329
101329
101329
101329
101329
101329
101329
101330
101330
101330
101328
101328
101328
101328
101329
101329
101329
101329
101329
101329
101329
101329
101329
101329
101329
101329
101329
101330
101330
101328
101328
101328
101328
101329
101329
101329
101329
101329
101329
101329
101329
101329
101329
101329
101329
101329
101330
101330
101328
101328
101328
101328
101328
101328
101329
101329
101329
101329
101329
101329
101329
101329
101329
101329
101329
101329
101330
101328
101328
101328
101328
101328
101328
101329
101329
101329
101329
101329
101329
101329
101329
101329
101329
101329
101329
101329
101328
101328
101328
101328
101328
101328
101328
101328
101329
101329
101329
101329
101329
101329
101329
101329
101329
101329
101329
101327
101328
101328
101328
101328
101328
101328
101328
101328
101329
101329
101329
101329
101329
101329
101329
101329
101329
101329
101327
101327
101327
101328
101328
101328
101328
101328
101328
101328
101329
101329
101329
101329
101329
101329
101329
101329
101329
101327
101327
101327
101327
101327
101328
101328
101328
101328
101328
101328
101329
101329
101329
101329
101329
101329
101329
101329
101327
101327
101327
101327
101327
101327
101328
101328
101328
101328
101328
101328
101329
101329
101329
101329
101329
101329
101329
101327
101327
101327
101327
101327
101327
101327
101327
101328
101328
101328
101328
101329
101329
101329
101329
101329
101329
101329
101327
101327
101327
101327
101327
101327
101327
101327
101327
101328
101328
101328
101328
101329
101329
101329
101329
101329
101329
101327
101327
101327
101327
101327
101327
101327
101327
101327
101327
101328
101328
101328
101328
101329
101329
101329
101329
101329
101326
101326
101326
101327
101327
101327
101327
101327
101327
101327
101327
101328
101328
101328
101328
101329
101329
101329
101329
101326
101326
101326
101326
101326
101326
101327
101327
101327
101327
101327
101327
101328
101328
101328
101328
101328
101329
101329
101326
101326
101326
101326
101326
101326
101326
101326
101327
101327
101327
101327
101327
101328
101328
101328
101328
101328
101328
101326
101326
101326
101326
101326
101326
101326
101326
101326
101327
101327
101327
101327
101327
101328
101328
101328
101328
101328
101326
101326
101326
101326
101326
101326
101326
101326
101326
101326
101326
101327
101327
101327
101327
101327
101327
101327
101327
101326
101326
101326
101326
101326
101326
101326
101326
101326
101326
101326
101326
101326
101326
101326
101327
101327
101327
101327
101326
101326
101326
101326
101326
101326
101326
101326
101326
101326
101326
101326
101326
101326
101326
101326
101326
101326
101326
101325
101325
101325
101325
101325
101325
101325
101325
101325
101325
101326
101326
101326
101326
101325
101326
101326
101326
101326
101325
101325
101325
101325
101325
101325
101325
101325
101325
101325
101325
101325
101325
101325
101325
101325
101325
101325
101325
101325
101325
101325
101325
101325
101325
101325
101325
101325
101325
101325
101325
101325
101325
101325
101325
101325
101325
101325
)
;

boundaryField
{
    leftWall
    {
        type            zeroGradient;
    }
    rightWall
    {
        type            zeroGradient;
    }
    lowerWall
    {
        type            zeroGradient;
    }
    atmosphere
    {
        type            fixedValue;
        value           uniform 101325;
    }
    defaultFaces
    {
        type            empty;
    }
}


// ************************************************************************* //
