/*--------------------------------*- C++ -*----------------------------------*\
| =========                 |                                                 |
| \\      /  F ield         | OpenFOAM: The Open Source CFD Toolbox           |
|  \\    /   O peration     | Version:  2012                                  |
|   \\  /    A nd           | Website:  www.openfoam.com                      |
|    \\/     M anipulation  |                                                 |
\*---------------------------------------------------------------------------*/
FoamFile
{
    version     2.0;
    format      ascii;
    class       surfaceScalarField;
    location    "0.86";
    object      phi;
}
// * * * * * * * * * * * * * * * * * * * * * * * * * * * * * * * * * * * * * //

dimensions      [0 3 -1 0 0 0 0];
oriented        oriented;


internalField   nonuniform List<scalar> 
4432
(
-4.54758e-06
4.54758e-06
-8.85716e-06
4.30959e-06
-1.28334e-05
3.9762e-06
-1.62335e-05
3.40012e-06
-1.89189e-05
2.68545e-06
-2.09668e-05
2.04788e-06
-2.22999e-05
1.33311e-06
-2.29955e-05
6.95555e-07
-2.31809e-05
1.85387e-07
-2.28854e-05
-2.95459e-07
-2.2113e-05
-7.72363e-07
-2.09969e-05
-1.11616e-06
-1.95464e-05
-1.45051e-06
-1.76171e-05
-1.92926e-06
-1.51265e-05
-2.49056e-06
-1.18647e-05
-3.2618e-06
-7.90272e-06
-3.96201e-06
-3.46525e-06
-4.43746e-06
9.42646e-07
-4.4079e-06
4.57758e-06
-3.63493e-06
5.17943e-06
-6.01845e-07
4.2813e-06
8.98135e-07
4.2813e-06
-4.61191e-06
9.1595e-06
-8.98404e-06
8.68173e-06
-1.29876e-05
7.97972e-06
-1.63823e-05
6.79484e-06
-1.90243e-05
5.32751e-06
-2.10318e-05
4.05535e-06
-2.23771e-05
2.67838e-06
-2.311e-05
1.42845e-06
-2.32769e-05
3.52365e-07
-2.29364e-05
-6.35956e-07
-2.21593e-05
-1.54952e-06
-2.10535e-05
-2.22195e-06
-1.96489e-05
-2.8551e-06
-1.77535e-05
-3.82462e-06
-1.52515e-05
-4.99264e-06
-1.19729e-05
-6.54031e-06
-7.96227e-06
-7.97268e-06
-3.44313e-06
-8.9566e-06
1.06077e-06
-8.91179e-06
4.77536e-06
-7.34953e-06
5.47089e-06
-1.29737e-06
4.12665e-06
2.24238e-06
8.40797e-06
-4.71053e-06
1.387e-05
-9.10404e-06
1.30752e-05
-1.31532e-05
1.20289e-05
-1.66395e-05
1.02811e-05
-1.94067e-05
8.09475e-06
-2.15005e-05
6.14916e-06
-2.28213e-05
3.99915e-06
-2.34997e-05
2.10687e-06
-2.35731e-05
4.25795e-07
-2.31484e-05
-1.0607e-06
-2.2347e-05
-2.35088e-06
-2.13041e-05
-3.26485e-06
-1.99046e-05
-4.25464e-06
-1.80002e-05
-5.72904e-06
-1.54587e-05
-7.53409e-06
-1.21276e-05
-9.87145e-06
-7.98995e-06
-1.21103e-05
-3.19666e-06
-1.37499e-05
1.71618e-06
-1.38246e-05
6.2479e-06
-1.18812e-05
7.25937e-06
-2.30884e-06
5.10386e-06
4.39789e-06
1.35118e-05
-4.88342e-06
1.87535e-05
-9.42343e-06
1.76152e-05
-1.35415e-05
1.61469e-05
-1.70153e-05
1.37549e-05
-1.96859e-05
1.07654e-05
-2.17302e-05
8.19343e-06
-2.30993e-05
5.36831e-06
-2.37846e-05
2.79213e-06
-2.38049e-05
4.4606e-07
-2.33374e-05
-1.52817e-06
-2.25477e-05
-3.14058e-06
-2.14982e-05
-4.3143e-06
-2.01924e-05
-5.56048e-06
-1.84349e-05
-7.48652e-06
-1.59762e-05
-9.99277e-06
-1.26849e-05
-1.31628e-05
-8.43127e-06
-1.63639e-05
-3.34328e-06
-1.88379e-05
2.15751e-06
-1.93254e-05
7.41901e-06
-1.71427e-05
9.09527e-06
-3.9851e-06
6.46673e-06
7.02643e-06
1.99786e-05
-5.07841e-06
2.38319e-05
-9.72928e-06
2.22661e-05
-1.40052e-05
2.04229e-05
-1.76698e-05
1.74194e-05
-2.05639e-05
1.36595e-05
-2.27119e-05
1.03415e-05
-2.39587e-05
6.61506e-06
-2.44767e-05
3.31014e-06
-2.43384e-05
3.07727e-07
-2.37503e-05
-2.11626e-06
-2.291e-05
-3.98089e-06
-2.20004e-05
-5.22387e-06
-2.07405e-05
-6.8204e-06
-1.89936e-05
-9.23344e-06
-1.64945e-05
-1.24918e-05
-1.31135e-05
-1.65438e-05
-8.62228e-06
-2.08551e-05
-3.03752e-06
-2.44226e-05
3.49467e-06
-2.58576e-05
1.02621e-05
-2.39102e-05
1.24331e-05
-6.15603e-06
9.0343e-06
1.04252e-05
2.90129e-05
-5.34795e-06
2.91798e-05
-1.02734e-05
2.71916e-05
-1.466e-05
2.48094e-05
-1.82899e-05
2.10494e-05
-2.10247e-05
1.63943e-05
-2.31367e-05
1.24535e-05
-2.44845e-05
7.96281e-06
-2.49941e-05
3.8198e-06
-2.47435e-05
5.71255e-08
-2.40712e-05
-2.7886e-06
-2.32302e-05
-4.82192e-06
-2.22357e-05
-6.21837e-06
-2.11855e-05
-7.87057e-06
-1.97462e-05
-1.06727e-05
-1.74057e-05
-1.48323e-05
-1.40805e-05
-1.9869e-05
-9.46317e-06
-2.54724e-05
-3.52075e-06
-3.03651e-05
4.12229e-06
-3.35006e-05
1.19144e-05
-3.17024e-05
1.47506e-05
-8.99222e-06
1.05876e-05
1.45883e-05
3.96004e-05
-5.66486e-06
3.48447e-05
-1.07251e-05
3.22518e-05
-1.53225e-05
2.94068e-05
-1.92481e-05
2.4975e-05
-2.23199e-05
1.94661e-05
-2.45552e-05
1.46888e-05
-2.56914e-05
9.09894e-06
-2.59374e-05
4.06581e-06
-2.54653e-05
-4.14957e-07
-2.4591e-05
-3.66288e-06
-2.36465e-05
-5.76649e-06
-2.29896e-05
-6.8752e-06
-2.21629e-05
-8.6973e-06
-2.07714e-05
-1.20643e-05
-1.836e-05
-1.72436e-05
-1.48618e-05
-2.33672e-05
-9.99519e-06
-3.03391e-05
-3.48402e-06
-3.68762e-05
5.3847e-06
-4.23694e-05
1.41574e-05
-4.04751e-05
1.77247e-05
-1.25595e-05
1.45488e-05
1.77641e-05
5.41493e-05
-6.33356e-06
4.11783e-05
-1.20813e-05
3.79995e-05
-1.68345e-05
3.41601e-05
-2.05793e-05
2.87199e-05
-2.32771e-05
2.21639e-05
-2.54083e-05
1.682e-05
-2.66561e-05
1.03467e-05
-2.68172e-05
4.22694e-06
-2.6068e-05
-1.16421e-06
-2.4995e-05
-4.73588e-06
-2.40282e-05
-6.7332e-06
-2.32184e-05
-7.68499e-06
-2.27222e-05
-9.19349e-06
-2.16695e-05
-1.31171e-05
-1.94641e-05
-1.9449e-05
-1.62639e-05
-2.65674e-05
-1.16877e-05
-3.49153e-05
-5.06121e-06
-4.35027e-05
4.2507e-06
-5.16813e-05
1.32137e-05
-4.94379e-05
1.7315e-05
-1.66606e-05
1.42825e-05
2.07966e-05
6.84318e-05
-5.93902e-05
5.93879e-05
-0.000102316
4.28943e-05
-0.000134486
3.20857e-05
-0.000156088
2.15793e-05
-0.000171587
1.54941e-05
-0.000183424
1.18421e-05
-0.00019233
8.91227e-06
-0.000197656
5.35741e-06
-0.000192197
-5.3546e-06
-0.000140402
-5.11835e-05
-7.20716e-05
-6.86857e-05
-4.95164e-05
-2.25391e-05
-5.30874e-05
3.5563e-06
-6.22798e-05
9.19111e-06
-6.50799e-05
2.80509e-06
-5.78916e-05
-7.18278e-06
-4.76537e-05
-1.0233e-05
-2.95526e-05
-1.80945e-05
-2.95494e-05
-4.89339e-05
0.000108322
-9.07481e-05
8.46505e-05
-0.00012098
6.22429e-05
-0.000140575
4.11629e-05
-0.000160804
3.57002e-05
-0.000181644
3.27282e-05
-0.000192139
1.94616e-05
-0.000182053
-4.64275e-06
-0.000132244
-5.50529e-05
-6.20705e-05
-0.00012121
-1.0233e-05
-0.000120608
3.0258e-05
-6.30062e-05
5.95274e-05
-2.56841e-05
4.91835e-05
1.97332e-05
5.3846e-06
4.66686e-05
-2.78788e-05
2.61308e-05
-3.15626e-05
-6.52445e-06
-2.02497e-05
-2.93969e-05
-4.97974e-05
-4.55357e-05
0.000153891
-7.88735e-05
0.000117973
-0.000100491
8.38062e-05
-0.000114816
5.55005e-05
-0.000127266
4.81915e-05
-0.000135385
4.09009e-05
-0.000146317
3.04362e-05
-0.000112242
-3.86604e-05
-5.666e-05
-0.000110571
-2.68626e-05
-0.00015093
-3.23927e-06
-0.000144271
2.37729e-05
-9.00179e-05
4.54654e-05
-4.73714e-05
5.71403e-05
8.07897e-06
5.45482e-05
4.93243e-05
2.44142e-05
5.63498e-05
2.08265e-06
1.58636e-05
3.15505e-07
-2.75972e-05
-4.94793e-05
-3.85556e-05
0.000192454
-6.48553e-05
0.000144258
-7.91464e-05
9.80774e-05
-8.28569e-05
5.9255e-05
-6.52593e-05
3.06464e-05
-2.96325e-05
5.35385e-06
-2.12933e-05
2.21462e-05
-2.85497e-05
-3.13441e-05
-1.73804e-05
-0.000121665
-1.03986e-05
-0.000157883
-2.02602e-06
-0.00015266
2.69719e-05
-0.000119031
4.55587e-05
-6.59719e-05
4.61852e-05
7.46917e-06
4.88871e-05
4.66197e-05
4.90668e-05
5.61899e-05
3.68413e-05
2.81114e-05
1.78893e-05
-8.6411e-06
-3.15873e-05
-3.50196e-05
0.000227498
-5.55171e-05
0.000164763
-6.27239e-05
0.000105276
-4.71319e-05
4.3669e-05
-1.90953e-05
2.64218e-06
2.66698e-06
-1.63791e-05
1.98046e-05
5.07444e-06
9.15887e-06
-2.06378e-05
-5.03718e-06
-0.000107386
-8.70536e-06
-0.000154197
-1.10874e-05
-0.000150313
1.07653e-05
-0.000140821
4.19321e-05
-9.71141e-05
5.14883e-05
-2.01018e-06
4.74603e-05
5.06388e-05
4.53153e-05
5.83341e-05
3.63389e-05
3.70874e-05
2.10058e-05
6.69259e-06
-1.05805e-05
-2.70848e-05
0.0002546
-4.45129e-05
0.000182191
-4.98061e-05
0.000110587
-3.15457e-05
2.55224e-05
-7.46835e-06
-2.14266e-05
4.59965e-06
-2.84289e-05
4.51307e-06
5.1981e-06
-8.09797e-07
-1.52364e-05
-5.88314e-06
-0.000102152
-1.49739e-05
-0.000145096
-1.9714e-05
-0.000145583
-1.3377e-05
-0.000147149
9.3597e-06
-0.000119767
3.01643e-05
-2.27677e-05
3.73947e-05
4.34423e-05
3.83863e-05
5.73419e-05
2.95663e-05
4.5907e-05
1.55396e-05
2.07196e-05
4.96015e-06
-2.12451e-05
0.000275862
-3.39931e-05
0.000194955
-3.61633e-05
0.000112884
-1.23852e-05
1.81907e-06
9.62066e-06
-4.3415e-05
1.08082e-05
-2.96123e-05
1.08748e-05
5.13531e-06
6.67777e-06
-1.09554e-05
-8.4711e-06
-8.68378e-05
-2.22426e-05
-0.000131308
-2.5876e-05
-0.000141954
-2.59563e-05
-0.000147068
-1.8998e-05
-0.000126732
-9.26449e-06
-3.2462e-05
7.50028e-06
2.67111e-05
1.9834e-05
4.50967e-05
1.46258e-05
5.11133e-05
7.60922e-06
2.7741e-05
1.25704e-05
-1.21297e-05
0.000288002
-7.93537e-06
0.000190758
-1.14971e-06
0.00010616
1.32882e-05
-1.25565e-05
2.29011e-05
-5.30044e-05
1.66378e-05
-2.33186e-05
1.41027e-05
7.66935e-06
5.94807e-06
-2.78058e-06
-1.2353e-05
-6.8525e-05
-2.81894e-05
-0.000115456
-3.30971e-05
-0.000137047
-3.68585e-05
-0.000143306
-4.35695e-05
-0.000120073
-5.28098e-05
-2.31664e-05
-4.21685e-05
1.61237e-05
-2.03242e-05
2.33323e-05
-1.17598e-05
4.26499e-05
-8.57485e-06
2.45583e-05
4.0122e-06
-1.35342e-05
5.47125e-05
-2.56502e-05
5.01155e-05
-3.7207e-05
4.57169e-05
-4.72944e-05
3.88072e-05
-5.53013e-05
3.01709e-05
-6.05181e-05
2.20368e-05
-6.16778e-05
1.15065e-05
-6.03037e-05
2.85278e-06
-5.71946e-05
-4.27332e-06
-5.3266e-05
-8.66444e-06
-5.0575e-05
-9.4242e-06
-5.13661e-05
-6.89389e-06
-5.17913e-05
-8.76826e-06
-5.02139e-05
-1.46945e-05
-4.63294e-05
-2.33334e-05
-4.05177e-05
-3.23791e-05
-3.16278e-05
-4.38052e-05
-1.76783e-05
-5.74521e-05
1.11098e-06
-7.04705e-05
2.13477e-05
-6.96741e-05
4.58608e-05
-4.11709e-05
5.35881e-05
1.30831e-05
6.63645e-05
5.56553e-05
-1.99897e-05
7.47022e-05
-3.60775e-05
6.62033e-05
-4.67765e-05
5.64159e-05
-5.42874e-05
4.63181e-05
-5.71338e-05
3.30172e-05
-6.11584e-05
2.60614e-05
-6.54977e-05
1.58458e-05
-6.42731e-05
1.62831e-06
-5.86593e-05
-9.88581e-06
-5.43134e-05
-1.30006e-05
-5.30209e-05
-1.07094e-05
-5.15378e-05
-8.36807e-06
-5.52063e-05
-5.09782e-06
-5.97054e-05
-1.01927e-05
-5.9468e-05
-2.35682e-05
-5.76503e-05
-3.41956e-05
-5.45036e-05
-4.69515e-05
-4.84713e-05
-6.34847e-05
-3.98909e-05
-7.90587e-05
-2.74789e-05
-8.21979e-05
-8.74157e-06
-5.99932e-05
1.017e-05
-5.80656e-06
4.43559e-05
3.21906e-05
-2.49252e-05
9.96717e-05
-4.37391e-05
8.50559e-05
-6.20103e-05
7.47172e-05
-8.19192e-05
6.62198e-05
-0.00010242
5.35035e-05
-0.000116385
3.98522e-05
-0.000119088
1.83974e-05
-0.000116985
-6.59529e-07
-0.000101855
-2.50802e-05
-7.58697e-05
-3.90603e-05
-6.68931e-05
-1.95745e-05
-8.26329e-05
7.41368e-06
-9.10858e-05
3.43508e-06
-9.03342e-05
-1.09269e-05
-9.01363e-05
-2.37812e-05
-8.79383e-05
-3.64474e-05
-8.53539e-05
-4.96372e-05
-8.05957e-05
-6.84342e-05
-6.97498e-05
-9.02127e-05
-5.6166e-05
-9.59711e-05
-3.73036e-05
-7.88077e-05
-1.61912e-05
-2.69044e-05
3.05493e-05
-2.38467e-06
-4.89018e-05
0.000149136
-7.44407e-05
0.000111136
-9.19965e-05
9.26544e-05
-0.00010543
7.97527e-05
-0.000143724
9.23631e-05
-0.000219858
0.000115963
-0.000261966
5.99787e-05
-0.000244105
-1.90679e-05
-0.000202751
-6.61711e-05
-0.000151322
-9.01854e-05
-8.90755e-05
-8.17005e-05
-5.77025e-05
-2.34768e-05
-8.73939e-05
3.31199e-05
-0.000112375
1.39363e-05
-0.000112038
-2.42215e-05
-0.000107113
-4.14199e-05
-9.93592e-05
-5.74262e-05
-8.63272e-05
-8.14565e-05
-6.09265e-05
-0.000115605
-5.73361e-05
-9.95754e-05
-7.11735e-05
-6.489e-05
-7.99856e-05
-1.79272e-05
4.09057e-05
-9.03244e-05
-0.000132965
0.000283391
-0.000185585
0.000163969
-0.000206098
0.00011316
-0.0002209
9.42348e-05
-0.000254527
0.000125582
-0.000352532
0.000214338
-0.000340562
4.81451e-05
-0.000300192
-5.87167e-05
-0.000265621
-0.000100792
-0.000231641
-0.000124547
-0.000178798
-0.000134339
-8.58521e-05
-0.00011622
-2.24198e-05
-3.02188e-05
2.39368e-05
-3.23534e-05
6.07551e-05
-6.10327e-05
3.90154e-05
-1.96719e-05
1.67535e-06
-2.008e-05
-2.8463e-05
-5.131e-05
-4.3996e-05
-0.000100066
-7.22643e-05
-7.12692e-05
-0.000105262
-3.13362e-05
-0.000120128
-2.9758e-06
5.04812e-05
-0.0001297
-0.000202043
0.000485851
-0.00026056
0.000222928
-0.000278924
0.000131379
-0.000287335
0.000102832
-0.000328128
0.000166465
-0.000343815
0.000230118
-0.000314315
1.94863e-05
-0.000293956
-7.87864e-05
-0.00027628
-0.000118698
-0.000264964
-0.000135961
-0.000258481
-0.000141165
-0.000233918
-0.000141177
-0.000143912
-0.000120141
-7.82695e-05
-9.79842e-05
-4.44006e-05
-9.4888e-05
-3.24823e-05
-3.15825e-05
-5.89498e-05
6.39661e-06
-9.2582e-05
-1.76685e-05
-0.000143092
-4.95467e-05
-0.000139935
-7.44093e-05
-0.00011833
-5.26773e-05
-0.000121504
7.17127e-07
5.50606e-05
-0.000126083
-0.000193161
0.000679983
-0.000251352
0.000281527
-0.00027321
0.000153435
-0.000303805
0.000133508
-0.000321133
0.000183804
-0.000292277
0.000201307
-0.000284855
1.20774e-05
-0.000282258
-8.124e-05
-0.00027267
-0.000128001
-0.000266352
-0.000142597
-0.000265153
-0.000142812
-0.000271629
-0.000135083
-0.000272112
-0.000120132
-0.000264818
-0.000105015
-0.000258898
-0.000100752
-0.000217748
-7.27181e-05
-0.000191678
-1.9667e-05
-0.00020205
-7.28898e-06
-0.00020601
-4.55837e-05
-0.000179378
-0.000101035
-0.000132577
-9.94527e-05
-0.000115671
-1.58185e-05
4.64632e-05
-0.000106341
-0.000146133
0.000826682
-0.000215216
0.000350815
-0.000291908
0.000230155
-0.000364315
0.000205913
-0.000377352
0.000196835
-0.000338422
0.000162378
-0.000319762
-6.58851e-06
-0.000311293
-8.97114e-05
-0.000295233
-0.000144067
-0.000276015
-0.000161821
-0.00026634
-0.000152437
-0.000269861
-0.000131274
-0.000271821
-0.000118007
-0.00026715
-0.000109774
-0.000266528
-0.000101664
-0.000255317
-8.37344e-05
-0.000239658
-3.53177e-05
-0.000230263
-1.6672e-05
-0.000213587
-6.22378e-05
-0.000217361
-9.72033e-05
-0.000222591
-9.42019e-05
-0.000198147
-4.01965e-05
-2.05659e-05
-0.000130662
-9.49981e-05
0.000921959
-0.000180318
0.000436146
-0.000296734
0.00034657
-0.000356788
0.000265968
-0.000370508
0.000210557
-0.000340889
0.000132764
-0.000330253
-1.72282e-05
-0.000313869
-0.000106096
-0.000297891
-0.000160046
-0.000286343
-0.00017337
-0.00027258
-0.0001662
-0.000261072
-0.000142679
-0.000253721
-0.000124873
-0.000253013
-0.000110719
-0.000250657
-0.000104085
-0.000245148
-8.9729e-05
-0.000216884
-6.34469e-05
-0.000177191
-5.62396e-05
-0.000162204
-7.69339e-05
-0.000164881
-9.42521e-05
-0.000174339
-8.46434e-05
-0.000167355
-4.70942e-05
-7.63072e-05
-0.000111231
-8.41076e-05
0.00100616
-0.000169079
0.000521116
-0.000253811
0.000431301
-0.000287784
0.00029994
-0.000273729
0.000196499
-0.000212609
7.16411e-05
-0.000165118
-6.47224e-05
-0.000144438
-0.000126778
-0.000152734
-0.000151751
-0.000180577
-0.000145528
-0.000211992
-0.000134785
-0.000226676
-0.000127993
-0.000231448
-0.000120087
-0.000227083
-0.000114787
-0.000221703
-0.000109425
-0.000218198
-9.34336e-05
-0.000202237
-7.96701e-05
-0.00017705
-8.13372e-05
-0.000162033
-9.16085e-05
-0.000157644
-9.86807e-05
-0.000146967
-9.56349e-05
-0.000132946
-6.08217e-05
-8.15723e-05
-0.000127361
-9.43654e-05
0.00110054
-0.000161262
0.000588016
-0.000184296
0.000454336
-0.000170869
0.00028651
-0.000127171
0.000152802
-6.37397e-05
8.20879e-06
-4.06456e-05
-8.78175e-05
-3.89004e-05
-0.000128522
-5.67804e-05
-0.000133871
-8.1539e-05
-0.000120769
-0.000108318
-0.000108008
-0.000128449
-0.000107862
-0.000145046
-0.000103488
-0.000167069
-9.27612e-05
-0.000186144
-9.03514e-05
-0.000187934
-9.16156e-05
-0.000177427
-9.00099e-05
-0.000165947
-9.25296e-05
-0.000155826
-0.000102043
-0.000148647
-0.000106279
-0.000140116
-0.000104784
-0.00012829
-7.25375e-05
-8.9582e-05
-0.000120145
-4.71873e-05
0.00114774
-0.000103037
0.000643878
-8.89845e-05
0.000440283
-2.92584e-05
0.000226784
2.42848e-05
9.92577e-05
5.61016e-05
-2.36086e-05
5.0386e-05
-8.21027e-05
3.31964e-05
-0.000111333
1.10435e-05
-0.000111718
-7.03186e-06
-0.000102693
-2.34332e-05
-9.16051e-05
-4.06109e-05
-9.06838e-05
-6.06645e-05
-8.34341e-05
-7.647e-05
-7.6954e-05
-8.75489e-05
-7.92703e-05
-0.000102217
-7.69448e-05
-0.000128535
-6.36892e-05
-0.000153922
-6.71427e-05
-0.000158285
-9.76802e-05
-0.000146281
-0.000118294
-0.000137519
-0.000113567
-0.00014144
-6.86203e-05
-9.49113e-05
-0.000135902
4.23915e-05
0.00110535
2.06972e-05
0.000665574
5.4478e-05
0.000406506
0.000114753
0.000166508
0.000144553
6.94589e-05
0.000144853
-2.39087e-05
0.000123212
-6.04611e-05
9.93838e-05
-8.75044e-05
7.35725e-05
-8.59061e-05
4.83721e-05
-7.74922e-05
2.1274e-05
-6.45062e-05
-7.19375e-06
-6.22151e-05
-2.30812e-05
-6.75455e-05
-2.48282e-05
-7.52061e-05
-2.7893e-05
-7.62045e-05
-3.85723e-05
-6.62643e-05
-5.25762e-05
-4.96838e-05
-6.51023e-05
-5.46146e-05
-7.87355e-05
-8.40452e-05
-9.70246e-05
-0.000100003
-0.000114079
-9.6511e-05
-0.000113213
-6.94848e-05
-9.40251e-05
-0.000114098
0.000130387
0.000974949
0.000177338
0.000618622
0.000216866
0.000366982
0.000227799
0.000155581
0.000219968
7.72916e-05
0.000194935
1.12823e-06
0.000163121
-2.86467e-05
0.000128397
-5.27789e-05
9.56254e-05
-5.31329e-05
6.79205e-05
-4.97862e-05
4.68871e-05
-4.34717e-05
3.10184e-05
-4.63454e-05
1.59314e-05
-5.24572e-05
-3.00114e-06
-5.62723e-05
-2.19141e-05
-5.72901e-05
-2.99344e-05
-5.82426e-05
-2.42438e-05
-5.5373e-05
-2.01115e-05
-5.87454e-05
-3.3046e-05
-7.11093e-05
-6.04777e-05
-7.257e-05
-8.11515e-05
-7.58362e-05
-7.74426e-05
-7.31919e-05
-8.40839e-05
-8.73823e-05
0.000202308
0.000772635
0.000279242
0.000541692
0.000304452
0.000341776
0.000280386
0.000179652
0.000256833
0.000100848
0.000221038
3.69264e-05
0.000184256
8.13708e-06
0.000146492
-1.50138e-05
0.000113718
-2.0357e-05
8.63552e-05
-2.24224e-05
6.46359e-05
-2.17514e-05
4.5443e-05
-2.71515e-05
2.68857e-05
-3.38988e-05
1.18585e-05
-4.12441e-05
-4.90099e-07
-4.49404e-05
-1.32998e-05
-4.54317e-05
-2.47278e-05
-4.39438e-05
-3.60275e-05
-4.74444e-05
-4.88531e-05
-5.82823e-05
-5.83861e-05
-6.30358e-05
-6.72146e-05
-6.70062e-05
-7.62166e-05
-6.41887e-05
-6.92269e-05
-9.10722e-05
0.000204871
0.000567772
0.00028101
0.000465561
0.000300305
0.000322488
0.000277068
0.000202894
0.000250603
0.000127318
0.000211855
7.56773e-05
0.000173605
4.63894e-05
0.000135576
2.30178e-05
0.000103889
1.13309e-05
7.86537e-05
2.81491e-06
5.94553e-05
-2.55161e-06
4.28349e-05
-1.05298e-05
2.72386e-05
-1.83012e-05
1.12519e-05
-2.52561e-05
-4.2505e-06
-2.94367e-05
-1.62973e-05
-3.33836e-05
-2.30198e-05
-3.72199e-05
-2.90416e-05
-4.14213e-05
-3.93386e-05
-4.79841e-05
-5.22489e-05
-5.01242e-05
-6.62844e-05
-5.29695e-05
-7.70572e-05
-5.34145e-05
-5.51411e-05
-9.11416e-05
0.000142863
0.000424909
0.000218749
0.000389677
0.000246682
0.00029456
0.00023555
0.000214028
0.000212444
0.000150427
0.000180133
0.00010799
0.000149253
7.72717e-05
0.000119438
5.28344e-05
9.43089e-05
3.64618e-05
7.29043e-05
2.42209e-05
5.50609e-05
1.52931e-05
3.84284e-05
6.10389e-06
2.22748e-05
-2.14643e-06
7.11837e-06
-1.00985e-05
-6.09829e-06
-1.62189e-05
-1.80772e-05
-2.14035e-05
-2.95145e-05
-2.57815e-05
-4.03236e-05
-3.06111e-05
-5.09764e-05
-3.73301e-05
-6.0083e-05
-4.10164e-05
-6.83393e-05
-4.4712e-05
-7.62634e-05
-4.54892e-05
-4.60243e-05
-8.53789e-05
8.33646e-05
0.000341545
0.00014457
0.000328473
0.000173263
0.00026587
0.000174443
0.000212851
0.000161213
0.000163659
0.000140992
0.000128213
0.000119798
9.84678e-05
9.76206e-05
7.50134e-05
7.73987e-05
5.66852e-05
5.90901e-05
4.2531e-05
4.32773e-05
3.11072e-05
2.85005e-05
2.0882e-05
1.45838e-05
1.17715e-05
9.92129e-07
3.49439e-06
-1.14139e-05
-3.81166e-06
-2.22415e-05
-1.05747e-05
-3.12869e-05
-1.67349e-05
-3.9782e-05
-2.21147e-05
-4.93235e-05
-2.77874e-05
-5.90512e-05
-3.12875e-05
-6.86983e-05
-3.50637e-05
-7.66986e-05
-3.74877e-05
-3.86927e-05
-8.4029e-05
5.17772e-05
0.000289769
9.59811e-05
0.00028427
0.000119881
0.000241971
0.000126756
0.000205978
0.000122025
0.000168392
0.000110915
0.000139325
9.6758e-05
0.000112626
8.04291e-05
9.13438e-05
6.41666e-05
7.2949e-05
4.82387e-05
5.84602e-05
3.33407e-05
4.60065e-05
1.9053e-05
3.51709e-05
5.53898e-06
2.52866e-05
-7.2316e-06
1.62661e-05
-1.9119e-05
8.07683e-06
-3.03523e-05
6.59767e-07
-4.08666e-05
-6.21949e-06
-5.0301e-05
-1.26792e-05
-5.898e-05
-1.91074e-05
-6.64953e-05
-2.37711e-05
-7.30904e-05
-2.84674e-05
-7.87303e-05
-3.18468e-05
-3.40613e-05
-8.33605e-05
3.40641e-05
0.000255705
6.6056e-05
0.000252279
8.46536e-05
0.000223375
9.21253e-05
0.000198508
9.0725e-05
0.000169794
8.38787e-05
0.000146172
7.3594e-05
0.000122912
6.10577e-05
0.000103881
4.77684e-05
8.62396e-05
3.42666e-05
7.19631e-05
2.13225e-05
5.89517e-05
8.69047e-06
4.78041e-05
-3.3154e-06
3.72937e-05
-1.49442e-05
2.7896e-05
-2.57696e-05
1.89033e-05
-3.57306e-05
1.06218e-05
-4.4777e-05
2.8281e-06
-5.31397e-05
-4.31546e-06
-6.10541e-05
-1.11919e-05
-6.79998e-05
-1.68243e-05
-7.42247e-05
-2.22414e-05
-7.92589e-05
-2.68115e-05
-3.00755e-05
-8.32436e-05
2.31555e-05
0.000232551
4.5664e-05
0.000229772
5.95532e-05
0.000209487
6.62795e-05
0.000191782
6.65234e-05
0.000169551
6.23279e-05
0.000150369
5.47604e-05
0.000130481
4.48864e-05
0.000113757
3.36869e-05
9.74403e-05
2.17933e-05
8.38579e-05
9.85295e-06
7.08932e-05
-2.02113e-06
5.96792e-05
-1.35245e-05
4.87981e-05
-2.44991e-05
3.88716e-05
-3.49294e-05
2.93348e-05
-4.47552e-05
2.04487e-05
-5.37963e-05
1.18703e-05
-6.17992e-05
3.68841e-06
-6.87468e-05
-4.24323e-06
-7.4615e-05
-1.0955e-05
-7.94823e-05
-1.7373e-05
-8.36233e-05
-2.26695e-05
-2.69353e-05
-8.67625e-05
1.55775e-05
0.000216974
3.10298e-05
0.000214321
4.07573e-05
0.00019976
4.58034e-05
0.000186737
4.6061e-05
0.000169295
4.27792e-05
0.000153652
3.6642e-05
0.000136619
2.85273e-05
0.000121872
1.90938e-05
0.000106875
8.8578e-06
9.40949e-05
-1.692e-06
8.1444e-05
-1.23974e-05
7.03856e-05
-2.29781e-05
5.93799e-05
-3.32658e-05
4.91603e-05
-4.3076e-05
3.9146e-05
-5.22697e-05
2.96434e-05
-6.07795e-05
2.0381e-05
-6.85661e-05
1.14761e-05
-7.57705e-05
2.96229e-06
-8.21189e-05
-4.60553e-06
-8.79913e-05
-1.14997e-05
-9.33611e-05
-1.72988e-05
-2.19149e-05
-9.83805e-05
1.06218e-05
0.000206353
2.07999e-05
0.000204143
2.70968e-05
0.000193464
3.03588e-05
0.000183476
3.01422e-05
0.000169512
2.71241e-05
0.000156671
2.16492e-05
0.000142095
1.43049e-05
0.000129218
5.61162e-06
0.000115569
-3.97471e-06
0.000103682
-1.40618e-05
9.15321e-05
-2.42625e-05
8.05873e-05
-3.43367e-05
6.94551e-05
-4.4081e-05
5.89057e-05
-5.3461e-05
4.85269e-05
-6.23219e-05
3.85053e-05
-7.06467e-05
2.87069e-05
-7.84719e-05
1.93024e-05
-8.59879e-05
1.04793e-05
-9.34763e-05
2.88369e-06
-0.000101047
-3.92827e-06
-0.000108902
-9.44227e-06
-1.52157e-05
-0.000115601
6.54995e-06
0.000199804
1.28538e-05
0.00019784
1.63347e-05
0.000189984
1.77065e-05
0.000182105
1.65126e-05
0.000170707
1.32559e-05
0.000159928
8.10221e-06
0.000147249
1.44588e-06
0.000135875
-6.44878e-06
0.000123465
-1.52512e-05
0.000112486
-2.46326e-05
0.000100914
-3.42709e-05
9.02266e-05
-4.3984e-05
7.91691e-05
-5.35682e-05
6.84909e-05
-6.29383e-05
5.7898e-05
-7.19965e-05
4.75645e-05
-8.08715e-05
3.7583e-05
-8.97774e-05
2.82092e-05
-9.92481e-05
1.99509e-05
-0.000109295
1.29311e-05
-0.000119828
6.60651e-06
-0.000128548
-7.21341e-07
-1.078e-05
-0.000132983
2.96197e-06
0.000196843
6.25997e-06
0.000194543
7.65312e-06
0.000188592
7.52782e-06
0.000182232
5.30532e-06
0.000172931
1.39309e-06
0.000163842
-4.21611e-06
0.000152859
-1.10995e-05
0.000142759
-1.91236e-05
0.00013149
-2.78838e-05
0.000121247
-3.70885e-05
0.00011012
-4.65177e-05
9.96568e-05
-5.60562e-05
8.87086e-05
-6.56399e-05
7.80756e-05
-7.53033e-05
6.75624e-05
-8.50706e-05
5.7333e-05
-9.53271e-05
4.78402e-05
-0.000106393
3.92757e-05
-0.000118272
3.18311e-05
-0.000130044
2.47035e-05
-0.000138859
1.5423e-05
-0.000142659
3.07939e-06
-1.06384e-05
-0.0001428
4.80474e-07
0.000196364
1.0245e-06
0.000194
4.06247e-07
0.000189211
-1.16071e-06
0.000183799
-4.26575e-06
0.000176036
-8.61709e-06
0.000168194
-1.43607e-05
0.000158604
-2.12122e-05
0.000149612
-2.91084e-05
0.000139387
-3.77203e-05
0.000129859
-4.68656e-05
0.000119266
-5.63554e-05
0.000109147
-6.61902e-05
9.85444e-05
-7.63686e-05
8.8255e-05
-8.70772e-05
7.8272e-05
-9.85233e-05
6.87797e-05
-0.000110949
6.02668e-05
-0.000124355
5.26826e-05
-0.000137352
4.48296e-05
-0.00014615
3.35026e-05
-0.000149156
1.84293e-05
-0.000148805
2.72877e-06
-1.16094e-05
-0.000147833
-1.23972e-06
0.000197604
-2.89166e-06
0.000195653
-5.39704e-06
0.000191717
-8.60634e-06
0.00018701
-1.30155e-05
0.000180446
-1.84182e-05
0.000173597
-2.50221e-05
0.000165209
-3.24807e-05
0.000157071
-4.07936e-05
0.000147701
-4.96309e-05
0.000138698
-5.90477e-05
0.000128684
-6.89171e-05
0.000119018
-7.93535e-05
0.000108982
-9.04964e-05
9.93988e-05
-0.000102619
9.0395e-05
-0.000115939
8.2101e-05
-0.000130285
7.46131e-05
-0.000143767
6.61661e-05
-0.000151829
5.28923e-05
-0.000153639
3.53139e-05
-0.000152672
1.74627e-05
-0.00015128
1.33729e-06
-1.2226e-05
-0.000150662
-2.81658e-06
0.000200422
-6.05454e-06
0.000198892
-9.97898e-06
0.000195642
-1.44206e-05
0.000191452
-1.9712e-05
0.000185739
-2.57714e-05
0.000179658
-3.28351e-05
0.000172273
-4.06546e-05
0.000164892
-4.92655e-05
0.000156312
-5.84669e-05
0.0001479
-6.83696e-05
0.000138588
-7.89116e-05
0.000129561
-9.03552e-05
0.000120426
-0.000102907
0.000111951
-0.000116895
0.000104384
-0.000132189
9.73959e-05
-0.000146559
8.89844e-05
-0.000154938
7.45455e-05
-0.000156607
5.4562e-05
-0.0001558
3.45072e-05
-0.000154499
1.61626e-05
-0.000153391
2.30312e-07
-1.28502e-05
-0.000152766
-4.36799e-06
0.00020479
-9.07698e-06
0.000203602
-1.43911e-05
0.000200957
-2.02412e-05
0.000197303
-2.6852e-05
0.00019235
-3.41029e-05
0.000186909
-4.21714e-05
0.000180342
-5.08093e-05
0.00017353
-6.02414e-05
0.000165745
-7.02991e-05
0.000157959
-8.12798e-05
0.000149569
-9.31513e-05
0.000141433
-0.000106113
0.000133388
-0.00012039
0.000126228
-0.000135659
0.000119654
-0.000149945
0.000111683
-0.000157947
9.69868e-05
-0.00015891
7.55096e-05
-0.000157745
5.33979e-05
-0.000156081
3.28438e-05
-0.000154444
1.45268e-05
-0.000152932
-1.28112e-06
-1.49792e-05
-0.000150803
-5.65743e-06
0.000210449
-1.15261e-05
0.000209471
-1.78128e-05
0.000207245
-2.45353e-05
0.000204026
-3.18833e-05
0.000199699
-3.97961e-05
0.000194823
-4.84087e-05
0.000188956
-5.75922e-05
0.000182715
-6.75111e-05
0.000175665
-7.81561e-05
0.000168605
-8.98252e-05
0.000161239
-0.000102693
0.000154302
-0.000117164
0.00014786
-0.000133076
0.000142141
-0.000148303
0.000134883
-0.000157458
0.000120838
-0.000158954
9.84841e-05
-0.000158161
7.47167e-05
-0.000156908
5.21454e-05
-0.000155183
3.11197e-05
-0.000152876
1.22199e-05
-0.000149515
-4.64131e-06
-1.96683e-05
-0.000144825
-7.11707e-06
0.000217566
-1.44024e-05
0.000216757
-2.20378e-05
0.000214881
-3.01e-05
0.000212089
-3.87352e-05
0.000208335
-4.79084e-05
0.000203997
-5.77302e-05
0.000198778
-6.80948e-05
0.00019308
-7.92226e-05
0.000186794
-9.0989e-05
0.000180372
-0.000103846
0.000174096
-0.000117789
0.000168246
-0.00013293
0.000163002
-0.000148147
0.000157359
-0.000158185
0.000144922
-0.000160161
0.000122815
-0.000159056
9.73801e-05
-0.000157265
7.29268e-05
-0.000154507
4.9388e-05
-0.000150953
2.75657e-05
-0.000146314
7.58219e-06
-0.000140502
-1.04527e-05
-2.64511e-05
-0.000133719
-8.124e-06
0.000225691
-1.63348e-05
0.000224969
-2.47748e-05
0.000223322
-3.35526e-05
0.000220868
-4.28092e-05
0.000217593
-5.25724e-05
0.000213761
-6.29755e-05
0.000209182
-7.40409e-05
0.000204147
-8.59135e-05
0.000198667
-9.86767e-05
0.000193136
-0.00011249
0.000187911
-0.000127782
0.000183538
-0.000143775
0.000178996
-0.000155561
0.000169146
-0.000158794
0.000148156
-0.000157759
0.000121781
-0.000156142
9.5763e-05
-0.000153154
6.99392e-05
-0.000149125
4.53604e-05
-0.000144018
2.24586e-05
-0.000137906
1.47085e-06
-0.00013114
-1.72181e-05
-3.3945e-05
-0.000123646
-9.63035e-06
0.000235322
-1.93482e-05
0.000234687
-2.92632e-05
0.000233238
-3.94949e-05
0.0002311
-5.01334e-05
0.000228232
-6.12316e-05
0.00022486
-7.28745e-05
0.000220826
-8.51504e-05
0.000216423
-9.81454e-05
0.000211663
-0.000111843
0.000206834
-0.000126533
0.000202602
-0.000141656
0.000198662
-0.000154091
0.000191432
-0.000158498
0.000173553
-0.00015716
0.000146819
-0.000154819
0.00011944
-0.000151071
9.20147e-05
-0.000146109
6.49783e-05
-0.000140381
3.96327e-05
-0.000134
1.60787e-05
-0.000127094
-5.43506e-06
-0.000119618
-2.46934e-05
-4.2002e-05
-0.000111561
-1.03152e-05
0.000245639
-2.07222e-05
0.000245095
-3.13057e-05
0.000243822
-4.21625e-05
0.000241958
-5.33858e-05
0.000239456
-6.5061e-05
0.000236536
-7.73231e-05
0.000233089
-9.02882e-05
0.000229389
-0.000104124
0.0002255
-0.000118785
0.000221496
-0.000134141
0.000217958
-0.000148302
0.000212824
-0.000155466
0.000198597
-0.000155131
0.000173219
-0.000152865
0.000144553
-0.000149437
0.000116013
-0.000144379
8.69572e-05
-0.000138598
5.9198e-05
-0.000132143
3.31789e-05
-0.000125066
9.00176e-06
-0.000117564
-1.29371e-05
-0.000109617
-3.26395e-05
-5.04264e-05
-0.000101192
-1.22422e-05
0.000257882
-2.44671e-05
0.000257321
-3.66892e-05
0.000256045
-4.90749e-05
0.000254345
-6.17482e-05
0.00025213
-7.47346e-05
0.000249523
-8.80537e-05
0.000246409
-0.000101879
0.000243215
-0.000116206
0.000239828
-0.000130795
0.000236086
-0.000144777
0.00023194
-0.000153818
0.000221866
-0.000154975
0.000199754
-0.000151936
0.000170181
-0.000147769
0.000140387
-0.00014179
0.000110034
-0.000135009
8.01772e-05
-0.000127878
5.20669e-05
-0.000120461
2.57628e-05
-0.000112928
1.46888e-06
-0.000105029
-2.08358e-05
-9.70142e-05
-4.06539e-05
-5.88182e-05
-8.86221e-05
-1.24352e-05
0.000270318
-2.4927e-05
0.000269814
-3.75833e-05
0.000268703
-5.05089e-05
0.000267271
-6.37163e-05
0.000265339
-7.72681e-05
0.000263076
-9.12118e-05
0.000260354
-0.000105614
0.000257618
-0.000120451
0.000254666
-0.000135294
0.00025093
-0.000147754
0.000244401
-0.000152317
0.00022643
-0.000150153
0.000197591
-0.000146345
0.000166373
-0.000141012
0.000135054
-0.000134327
0.000103349
-0.000127254
7.31044e-05
-0.000119984
4.47977e-05
-0.000112243
1.80219e-05
-0.000104391
-6.38222e-06
-9.62484e-05
-2.89784e-05
-8.79025e-05
-4.89996e-05
-6.72017e-05
-7.95189e-05
-1.47076e-05
0.000285026
-2.94099e-05
0.000284517
-4.41069e-05
0.0002834
-5.87501e-05
0.000281915
-7.34725e-05
0.000280062
-8.8304e-05
0.000277908
-0.000103182
0.000275232
-0.000118031
0.000272468
-0.000132256
0.000268892
-0.000144848