/*--------------------------------*- C++ -*----------------------------------*\
| =========                 |                                                 |
| \\      /  F ield         | OpenFOAM: The Open Source CFD Toolbox           |
|  \\    /   O peration     | Version:  2012                                  |
|   \\  /    A nd           | Website:  www.openfoam.com                      |
|    \\/     M anipulation  |                                                 |
\*---------------------------------------------------------------------------*/
FoamFile
{
    version     2.0;
    format      ascii;
    class       volVectorField;
    location    "0.86";
    object      U;
}
// * * * * * * * * * * * * * * * * * * * * * * * * * * * * * * * * * * * * * //

dimensions      [0 1 -1 0 0 0 0];


internalField   nonuniform List<vector> 
2268
(
(-0.026987 0.0107859 0)
(-0.0769537 0.00982017 0)
(-0.125297 0.00844998 0)
(-0.16798 0.00649913 0)
(-0.202684 0.00416081 0)
(-0.229552 0.00206337 0)
(-0.24916 0.00124362 0)
(-0.260163 -3.58099e-05 0)
(-0.264863 -0.000407228 0)
(-0.264433 -0.00162719 0)
(-0.258113 -0.00212083 0)
(-0.246701 -0.00383663 0)
(-0.232769 -0.00421823 0)
(-0.213376 -0.00563885 0)
(-0.188965 -0.0074395 0)
(-0.15621 -0.00976099 0)
(-0.11481 -0.0122682 0)
(-0.0653803 -0.0136873 0)
(-0.013864 -0.0145018 0)
(0.0356477 -0.0141792 0)
(0.0687615 -0.00653187 0)
(0.0496948 -0.00858571 0)
(0.0480747 0.00364828 0)
(-0.0272993 0.0383065 0)
(-0.0781184 0.0366893 0)
(-0.127024 0.034468 0)
(-0.169786 0.0301877 0)
(-0.20427 0.0248194 0)
(-0.230378 0.0200331 0)
(-0.249825 0.0131145 0)
(-0.261247 0.00755489 0)
(-0.26641 0.00237453 0)
(-0.26506 -0.00154444 0)
(-0.258668 -0.00623318 0)
(-0.247183 -0.00817973 0)
(-0.233595 -0.0114393 0)
(-0.214877 -0.0151507 0)
(-0.19059 -0.0194247 0)
(-0.157433 -0.0254144 0)
(-0.116061 -0.0304678 0)
(-0.0654886 -0.0341801 0)
(-0.0132498 -0.0330334 0)
(0.0377284 -0.0250065 0)
(0.071206 0.00012077 0)
(0.0539119 0.0183778 0)
(0.0403221 0.0426126 0)
(-0.0282309 0.0605851 0)
(-0.0794385 0.0570634 0)
(-0.128456 0.051666 0)
(-0.172146 0.0431565 0)
(-0.207791 0.0326397 0)
(-0.235609 0.0236803 0)
(-0.25527 0.0157743 0)
(-0.265988 0.00776319 0)
(-0.270512 0.00144377 0)
(-0.267767 -0.00538713 0)
(-0.260751 -0.0104627 0)
(-0.249424 -0.0158598 0)
(-0.237039 -0.019359 0)
(-0.2173 -0.0261815 0)
(-0.19378 -0.0344792 0)
(-0.158986 -0.0452183 0)
(-0.118036 -0.0556164 0)
(-0.0641419 -0.062522 0)
(-0.00897702 -0.0632091 0)
(0.0484353 -0.0543799 0)
(0.0941072 -0.0142672 0)
(0.0718499 0.0056745 0)
(0.0447323 0.0480718 0)
(-0.0292667 0.0891489 0)
(-0.0823784 0.0840439 0)
(-0.13279 0.0781826 0)
(-0.176723 0.0677777 0)
(-0.211777 0.0547317 0)
(-0.238024 0.042665 0)
(-0.258119 0.0272919 0)
(-0.269442 0.0150129 0)
(-0.273619 0.00303572 0)
(-0.269883 -0.00600824 0)
(-0.263007 -0.014974 0)
(-0.251685 -0.0192806 0)
(-0.239265 -0.0265736 0)
(-0.2216 -0.0355491 0)
(-0.19944 -0.0467867 0)
(-0.165126 -0.0612304 0)
(-0.12463 -0.0750047 0)
(-0.0676238 -0.0857928 0)
(-0.00883926 -0.085872 0)
(0.0583643 -0.0737066 0)
(0.110945 -0.0103608 0)
(0.0969539 0.0421106 0)
(0.0507351 0.0979876 0)
(-0.0308896 0.113328 0)
(-0.085202 0.106199 0)
(-0.136984 0.0960976 0)
(-0.183126 0.0806952 0)
(-0.220348 0.0613458 0)
(-0.249531 0.045656 0)
(-0.268976 0.030612 0)
(-0.278301 0.0149107 0)
(-0.280439 0.00183717 0)
(-0.275344 -0.0106211 0)
(-0.266865 -0.0188378 0)
(-0.256188 -0.027407 0)
(-0.246141 -0.0333919 0)
(-0.227304 -0.0453638 0)
(-0.20645 -0.0610977 0)
(-0.169977 -0.080928 0)
(-0.129559 -0.101686 0)
(-0.0670486 -0.117599 0)
(-0.00244838 -0.122827 0)
(0.082541 -0.11144 0)
(0.151623 -0.0329982 0)
(0.132544 0.0333913 0)
(0.0738126 0.117411 0)
(-0.032121 0.143953 0)
(-0.0901867 0.134071 0)
(-0.144378 0.12438 0)
(-0.190782 0.107249 0)
(-0.226804 0.0861191 0)
(-0.253665 0.0658849 0)
(-0.274571 0.0405895 0)
(-0.284617 0.0208798 0)
(-0.28606 0.00122798 0)
(-0.278824 -0.0121239 0)
(-0.270835 -0.0242753 0)
(-0.259392 -0.0287877 0)
(-0.248422 -0.0402587 0)
(-0.235095 -0.0541112 0)
(-0.215909 -0.073651 0)
(-0.181292 -0.0974685 0)
(-0.140343 -0.12326 0)
(-0.075462 -0.145846 0)
(-0.00506409 -0.156043 0)
(0.0994557 -0.146369 0)
(0.172485 -0.0328728 0)
(0.164644 0.0797018 0)
(0.0771959 0.196337 0)
(-0.0347506 0.171112 0)
(-0.0947659 0.159666 0)
(-0.150193 0.143395 0)
(-0.200084 0.119993 0)
(-0.239462 0.0906037 0)
(-0.270599 0.0683943 0)
(-0.289952 0.0453107 0)
(-0.296957 0.0199928 0)
(-0.295023 -0.000438419 0)
(-0.286531 -0.018179 0)
(-0.274792 -0.0275553 0)
(-0.265113 -0.0385367 0)
(-0.259755 -0.0445787 0)
(-0.2462 -0.0612577 0)
(-0.228139 -0.0864718 0)
(-0.1909 -0.117119 0)
(-0.148558 -0.15177 0)
(-0.0793812 -0.181987 0)
(-0.000324143 -0.205708 0)
(0.123586 -0.196064 0)
(0.199418 -0.0648631 0)
(0.205834 0.0771554 0)
(0.126432 0.230381 0)
(-0.0371236 0.205077 0)
(-0.107784 0.188287 0)
(-0.168036 0.174104 0)
(-0.216948 0.149431 0)
(-0.252883 0.119591 0)
(-0.279189 0.0899212 0)
(-0.300859 0.0525465 0)
(-0.307911 0.0239821 0)
(-0.304382 -0.00452923 0)
(-0.290652 -0.021215 0)
(-0.28013 -0.0349859 0)
(-0.268231 -0.0353362 0)
(-0.26207 -0.0493787 0)
(-0.256505 -0.0686785 0)
(-0.238449 -0.0995447 0)
(-0.205748 -0.134857 0)
(-0.165752 -0.175495 0)
(-0.100827 -0.215834 0)
(-0.0148984 -0.251311 0)
(0.112255 -0.240375 0)
(0.189211 -0.0698484 0)
(0.206779 0.115428 0)
(0.119553 0.355614 0)
(-0.4097 0.188047 0)
(-0.948199 0.112127 0)
(-1.3881 0.0601738 0)
(-1.68153 0.0254035 0)
(-1.88098 0.0134705 0)
(-2.03647 -0.00373691 0)
(-2.15109 -0.0406948 0)
(-2.24027 -0.000524524 0)
(-2.27272 0.0392339 0)
(-2.12148 -0.0134333 0)
(-1.07388 -0.152399 0)
(-0.577943 0.0164119 0)
(-0.5521 0.062062 0)
(-0.660894 -0.103248 0)
(-0.760667 -0.136245 0)
(-0.724778 -0.00539049 0)
(-0.597359 0.017049 0)
(-0.490425 -0.057216 0)
(-0.183884 -0.0811074 0)
(-0.301222 0.390356 0)
(-0.818207 0.305221 0)
(-1.25382 0.251787 0)
(-1.50728 0.184664 0)
(-1.70117 0.136959 0)
(-1.9707 0.117108 0)
(-2.17519 0.126152 0)
(-2.212 0.0526389 0)
(-1.94844 -0.0946481 0)
(-1.0751 -0.485705 0)
(-0.330341 -0.5134 0)
(0.0926179 -0.236358 0)
(0.598893 -0.0278366 0)
(0.755998 0.189938 0)
(0.371609 0.168354 0)
(-0.248807 -0.0628127 0)
(-0.38867 -0.116881 0)
(-0.331318 -0.118553 0)
(-0.130698 -0.206123 0)
(-0.302204 0.659194 0)
(-0.739249 0.515596 0)
(-1.06159 0.352913 0)
(-1.23199 0.214931 0)
(-1.38831 0.209603 0)
(-1.51635 0.207839 0)
(-1.5858 0.0727656 0)
(-1.75347 -0.113414 0)
(-0.821453 -0.445193 0)
(-0.436607 -0.697866 0)
(-0.16993 -0.659775 0)
(0.0937823 -0.375613 0)
(0.448546 -0.222833 0)
(0.589506 0.00389404 0)
(0.715565 0.278847 0)
(0.52956 0.311436 0)
(0.0267841 0.0527788 0)
(0.0215451 -0.168132 0)
(-0.0138903 -0.278197 0)
(-0.262485 0.83744 0)
(-0.619095 0.632198 0)
(-0.862202 0.46138 0)
(-0.943647 0.325756 0)
(-0.951529 0.245337 0)
(-0.527603 0.124881 0)
(-0.122829 0.20085 0)
(-0.36223 -0.235274 0)
(-0.296587 -0.631849 0)
(-0.0886411 -0.765567 0)
(-0.146702 -0.741146 0)
(0.0983191 -0.500277 0)
(0.517819 -0.237843 0)
(0.520803 0.0710465 0)
(0.535485 0.199938 0)
(0.58113 0.23936 0)
(0.538083 0.100894 0)
(0.303472 -0.0992602 0)
(0.105232 -0.201811 0)
(-0.259018 1.03033 0)
(-0.541931 0.767542 0)
(-0.725812 0.49164 0)
(-0.70581 0.247799 0)
(-0.368526 0.0632154 0)
(-0.0675025 -0.0170281 0)
(0.130938 0.0269179 0)
(0.312758 -0.10109 0)
(-0.0956474 -0.543703 0)
(-0.0196197 -0.768511 0)
(-0.178258 -0.742017 0)
(-0.0762072 -0.655659 0)
(0.321671 -0.404712 0)
(0.632908 0.00137323 0)
(0.545506 0.250769 0)
(0.538235 0.303294 0)
(0.496581 0.17156 0)
(0.333042 0.0143568 0)
(0.146685 -0.105997 0)
(-0.203865 1.17955 0)
(-0.415543 0.833819 0)
(-0.601548 0.52968 0)
(-0.535481 0.172389 0)
(-0.183002 -0.041296 0)
(0.0128389 -0.143676 0)
(0.0933438 0.0195215 0)
(0.0118705 -0.083546 0)
(-0.0354064 -0.505967 0)
(-0.0990164 -0.728617 0)
(-0.243094 -0.71846 0)
(-0.207923 -0.712754 0)
(-0.0974557 -0.538213 0)
(0.306456 -0.0257542 0)
(0.387093 0.239354 0)
(0.466459 0.262532 0)
(0.410429 0.18802 0)
(0.26484 0.0508265 0)
(0.0898788 0.00362833 0)
(-0.176602 1.29201 0)
(-0.309898 0.933842 0)
(-0.467002 0.544272 0)
(-0.365164 0.074884 0)
(0.0960631 -0.170083 0)
(0.123769 -0.133841 0)
(0.12431 0.0301375 0)
(0.124729 -0.067178 0)
(0.0272572 -0.486307 0)
(-0.221944 -0.682986 0)
(-0.28614 -0.696353 0)
(-0.305512 -0.717828 0)
(-0.287607 -0.627794 0)
(-0.147881 -0.195459 0)
(-0.0600992 0.181208 0)
(0.230863 0.293794 0)
(0.223095 0.257377 0)
(0.111141 0.148969 0)
(0.0623603 0.042877 0)
(-0.10415 1.38707 0)
(-0.173532 0.961011 0)
(-0.0150526 0.546791 0)
(-0.00682122 -0.0638425 0)
(0.328316 -0.253617 0)
(0.188741 -0.155336 0)
(0.193263 0.0189235 0)
(0.129128 -0.0397489 0)
(0.00669035 -0.356617 0)
(-0.29012 -0.592855 0)
(-0.354091 -0.683391 0)
(-0.402166 -0.71171 0)
(-0.440111 -0.604519 0)
(-0.55484 -0.125455 0)
(-0.646681 0.0762161 0)
(-0.316709 0.140493 0)
(-0.146632 0.237253 0)
(-0.120873 0.12077 0)
(-0.0752424 0.0800854 0)
(-0.039088 0.258995 0)
(-0.10635 0.241552 0)
(-0.169263 0.206129 0)
(-0.23065 0.167019 0)
(-0.277274 0.119059 0)
(-0.316896 0.0924499 0)
(-0.332545 0.0627335 0)
(-0.330065 0.0194626 0)
(-0.31663 -0.00941421 0)
(-0.297653 -0.0351629 0)
(-0.273671 -0.0385023 0)
(-0.269453 -0.0550499 0)
(-0.281657 -0.0497839 0)
(-0.274382 -0.0756763 0)
(-0.264646 -0.116529 0)
(-0.232585 -0.161778 0)
(-0.202452 -0.216082 0)
(-0.136748 -0.275139 0)
(-0.0532211 -0.337834 0)
(0.0654796 -0.323618 0)
(0.163073 -0.134459 0)
(0.330995 0.10377 0)
(0.243687 0.395507 0)
(-0.0547469 0.331629 0)
(-0.160553 0.29889 0)
(-0.226455 0.287575 0)
(-0.277041 0.25154 0)
(-0.305393 0.206891 0)
(-0.30935 0.144631 0)
(-0.346826 0.060775 0)
(-0.356146 0.011437 0)
(-0.334038 -0.0378111 0)
(-0.29476 -0.0582767 0)
(-0.288815 -0.0639035 0)
(-0.279404 -0.0186577 0)
(-0.274484 -0.0450481 0)
(-0.317596 -0.0824583 0)
(-0.323771 -0.135168 0)
(-0.314301 -0.187332 0)
(-0.304733 -0.256477 0)
(-0.280012 -0.344733 0)
(-0.240649 -0.42278 0)
(-0.187435 -0.428606 0)
(-0.107755 -0.309453 0)
(0.0167668 0.038149 0)
(0.0921125 0.322835 0)
(-0.0764449 0.475407 0)
(-0.191115 0.417477 0)
(-0.279484 0.321447 0)
(-0.387185 0.248848 0)
(-0.493214 0.148417 0)
(-0.607115 0.137097 0)
(-0.641817 0.110044 0)
(-0.638129 0.00442629 0)
(-0.613855 -0.0666303 0)
(-0.480807 -0.0819972 0)
(-0.331589 -0.0498681 0)
(-0.387837 -0.0730618 0)
(-0.497762 -0.00946922 0)
(-0.480686 -0.0280704 0)
(-0.48906 -0.119407 0)
(-0.478534 -0.182217 0)
(-0.465381 -0.250587 0)
(-0.450743 -0.340756 0)
(-0.414312 -0.430175 0)
(-0.334041 -0.458105 0)
(-0.26839 -0.33893 0)
(-0.129093 -0.102238 0)
(-0.0449282 0.153724 0)
(-0.178309 0.599789 0)
(-0.349301 0.497719 0)
(-0.448519 0.486052 0)
(-0.54572 0.465151 0)
(-0.582344 0.432873 0)
(-0.9686 0.292107 0)
(-1.38816 0.0889901 0)
(-1.42319 -0.00829086 0)
(-1.19772 -0.21002 0)
(-0.970442 -0.338118 0)
(-0.661316 -0.167535 0)
(-0.284873 0.158786 0)
(-0.34005 0.0454614 0)
(-0.597134 -0.0897675 0)
(-0.609717 -0.137544 0)
(-0.59249 -0.210893 0)
(-0.556634 -0.28388 0)
(-0.510731 -0.396013 0)
(-0.410197 -0.539839 0)
(-0.24416 -0.577487 0)
(-0.36952 -0.511512 0)
(-0.391235 -0.187728 0)
(-0.468453 0.175765 0)
(-0.494721 1.02464 0)
(-0.939964 0.706842 0)
(-1.05742 0.511413 0)
(-1.15852 0.392577 0)
(-1.21336 0.551722 0)
(-1.66733 0.924508 0)
(-1.95768 0.568662 0)
(-1.70549 -0.196299 0)
(-1.51484 -0.497379 0)
(-1.33883 -0.638091 0)
(-1.14201 -0.707687 0)
(-0.790781 -0.438299 0)
(-0.117532 0.306101 0)
(-0.133047 0.232814 0)
(0.389244 -0.133601 0)
(0.278962 -0.231917 0)
(0.138521 -0.340743 0)
(-0.109359 -0.477881 0)
(-0.190198 -0.708962 0)
(-0.258736 -0.487976 0)
(-0.523273 -0.189427 0)
(-0.605866 -0.00611603 0)
(-0.683686 0.265612 0)
(-0.877276 2.00001 0)
(-1.3132 1.05068 0)
(-1.48849 0.702163 0)
(-1.50707 0.618762 0)
(-1.57526 0.797696 0)
(-1.95193 1.3163 0)
(-1.73207 -0.0764119 0)
(-1.63764 -0.439659 0)
(-1.51866 -0.593725 0)
(-1.44651 -0.706234 0)
(-1.39807 -0.747373 0)
(-1.37312 -0.797359 0)
(-1.16121 -0.634098 0)
(-0.348737 -0.546993 0)
(-0.4917 -0.502248 0)
(0.0186466 0.0143041 0)
(-0.347348 0.137644 0)
(-0.288781 -0.0785155 0)
(-0.690872 -0.362084 0)
(-0.846848 -0.282755 0)
(-0.640521 -0.145529 0)
(-0.62684 -0.0252208 0)
(-0.677272 0.279443 0)
(-0.862074 3.20543 0)
(-1.23273 1.34 0)
(-1.46738 0.712625 0)
(-1.47406 0.503091 0)
(-1.78776 0.999473 0)
(-1.64638 1.25019 0)
(-1.50855 0.291166 0)
(-1.54683 -0.420816 0)
(-1.48311 -0.685913 0)
(-1.44359 -0.760778 0)
(-1.4155 -0.775433 0)
(-1.4314 -0.731104 0)
(-1.47974 -0.665252 0)
(-1.4402 -0.540949 0)
(-1.40201 -0.535118 0)
(-1.36737 -0.351834 0)
(-0.974395 -0.08206 0)
(-1.07158 -0.110269 0)
(-1.08802 -0.176621 0)
(-1.12127 -0.531438 0)
(-0.786036 -0.439386 0)
(-0.633169 0.0331028 0)
(-0.602162 0.314507 0)
(-0.729306 4.11567 0)
(-0.902929 1.65367 0)
(-1.37613 0.93468 0)
(-1.78001 0.922109 0)
(-2.13182 0.988074 0)
(-1.91903 0.926749 0)
(-1.72396 -0.143737 0)
(-1.71344 -0.448485 0)
(-1.63655 -0.693605 0)
(-1.53673 -0.774891 0)
(-1.42993 -0.76 0)
(-1.42537 -0.724674 0)
(-1.46926 -0.634808 0)
(-1.44641 -0.596653 0)
(-1.42093 -0.553275 0)
(-1.43307 -0.435056 0)
(-1.3051 -0.12323 0)
(-1.26466 0.0262554 0)
(-1.19608 -0.314429 0)
(-1.09637 -0.548215 0)
(-1.20448 -0.604547 0)
(-1.19996 -0.202377 0)
(-0.916938 0.186526 0)
(-0.599832 4.79385 0)
(-0.445372 2.13586 0)
(-1.46447 1.54373 0)
(-1.74587 1.29241 0)
(-2.08725 1.1248 0)
(-1.88807 0.820125 0)
(-1.78572 0.0523897 0)
(-1.7576 -0.52833 0)
(-1.62081 -0.869678 0)
(-1.57678 -0.972595 0)
(-1.50271 -0.888112 0)
(-1.42621 -0.689778 0)
(-1.36947 -0.638079 0)
(-1.35372 -0.589114 0)
(-1.36143 -0.545566 0)
(-1.32784 -0.475636 0)
(-1.29753 -0.265726 0)
(-1.03117 -0.200112 0)
(-0.869676 -0.352027 0)
(-0.871587 -0.50285 0)
(-0.897157 -0.429873 0)
(-0.978083 -0.236401 0)
(-0.813195 -0.411286 0)
(-0.443491 5.15802 0)
(-0.47415 2.57076 0)
(-1.32792 2.18337 0)
(-1.41445 1.56836 0)
(-1.67106 1.1429 0)
(-1.27735 0.60093 0)
(-1.00618 -0.240369 0)
(-0.770946 -0.62125 0)
(-0.78247 -0.856947 0)
(-0.860119 -0.899186 0)
(-1.08174 -0.904731 0)
(-1.19312 -0.857596 0)
(-1.24434 -0.713348 0)
(-1.24314 -0.604268 0)
(-1.19135 -0.578133 0)
(-1.1887 -0.494643 0)
(-1.152 -0.431982 0)
(-1.01707 -0.416353 0)
(-0.883728 -0.48194 0)
(-0.855411 -0.515325 0)
(-0.837199 -0.487318 0)
(-0.736736 -0.279836 0)
(-0.691582 -0.413371 0)
(-0.429992 5.67965 0)
(-0.593175 3.03598 0)
(-1.12633 2.45654 0)
(-0.867882 1.65579 0)
(-0.96165 0.966105 0)
(-0.412871 0.166919 0)
(-0.271219 -0.465064 0)
(-0.168744 -0.75085 0)
(-0.252391 -0.78741 0)
(-0.359386 -0.676994 0)
(-0.519576 -0.557085 0)
(-0.644515 -0.531116 0)
(-0.736434 -0.589646 0)
(-0.823315 -0.63787 0)
(-0.972736 -0.604443 0)
(-1.02884 -0.510238 0)
(-0.984844 -0.433912 0)
(-0.918606 -0.463735 0)
(-0.862636 -0.507388 0)
(-0.810127 -0.550532 0)
(-0.785597 -0.54641 0)
(-0.717383 -0.387507 0)
(-0.659394 -0.468525 0)
(-0.153076 6.18728 0)
(-0.364842 3.30095 0)
(-0.730685 2.43657 0)
(-0.236269 1.42874 0)
(-0.0731821 0.675432 0)
(0.324919 -0.0840996 0)
(0.279859 -0.48656 0)
(0.255119 -0.640542 0)
(0.100131 -0.6591 0)
(0.0151638 -0.627735 0)
(-0.0932356 -0.609112 0)
(-0.160316 -0.634121 0)
(-0.278355 -0.531289 0)
(-0.375281 -0.368353 0)
(-0.44738 -0.37468 0)
(-0.494311 -0.486217 0)
(-0.603487 -0.539847 0)
(-0.780968 -0.53833 0)
(-0.876287 -0.590423 0)
(-0.824734 -0.592738 0)
(-0.746515 -0.580217 0)
(-0.725981 -0.402014 0)
(-0.797534 -0.501374 0)
(0.229011 6.18796 0)
(0.210568 3.63318 0)
(0.0225363 2.3013 0)
(0.551287 1.00645 0)
(0.688698 0.388223 0)
(0.852834 -0.177703 0)
(0.70548 -0.40588 0)
(0.6112 -0.566632 0)
(0.454825 -0.553088 0)
(0.331531 -0.487271 0)
(0.185616 -0.386406 0)
(0.0403223 -0.350943 0)
(-0.119421 -0.373838 0)
(-0.130401 -0.465806 0)
(-0.138243 -0.485114 0)
(-0.162874 -0.349311 0)
(-0.253284 -0.155071 0)
(-0.313795 -0.193697 0)
(-0.389203 -0.469221 0)
(-0.455275 -0.683501 0)
(-0.589905 -0.64483 0)
(-0.629031 -0.343206 0)
(-0.590706 -0.527826 0)
(0.555718 5.72957 0)
(0.830111 3.54063 0)
(1.08239 2.08006 0)
(1.23625 0.784486 0)
(1.21687 0.356182 0)
(1.13588 -0.0848152 0)
(0.959167 -0.250935 0)
(0.786505 -0.381708 0)
(0.591386 -0.377169 0)
(0.431831 -0.351696 0)
(0.295596 -0.312144 0)
(0.205385 -0.322879 0)
(0.125725 -0.358139 0)
(0.0431323 -0.349121 0)
(-0.0769703 -0.339714 0)
(-0.160097 -0.367766 0)
(-0.163022 -0.381779 0)
(-0.0992389 -0.395948 0)
(-0.119264 -0.436651 0)
(-0.2355 -0.396215 0)
(-0.416325 -0.397432 0)
(-0.451485 -0.407207 0)
(-0.382393 -0.488639 0)
(0.896462 4.78873 0)
(1.2697 3.13611 0)
(1.72586 1.87796 0)
(1.54132 0.892809 0)
(1.47019 0.472603 0)
(1.28256 0.0917087 0)
(1.0908 -0.0642258 0)
(0.883427 -0.193476 0)
(0.688328 -0.202171 0)
(0.529623 -0.191411 0)
(0.39587 -0.162843 0)
(0.295775 -0.182946 0)
(0.190435 -0.213209 0)
(0.0963511 -0.262994 0)
(0.0292359 -0.283653 0)
(-0.0360315 -0.26585 0)
(-0.108651 -0.221167 0)
(-0.157927 -0.242896 0)
(-0.231179 -0.335294 0)
(-0.292835 -0.390163 0)
(-0.336121 -0.424127 0)
(-0.383634 -0.3862 0)
(-0.436148 -0.421591 0)
(0.91023 3.54635 0)
(1.29211 2.71002 0)
(1.71262 1.80464 0)
(1.51597 1.04084 0)
(1.45636 0.610571 0)
(1.23211 0.301913 0)
(1.04163 0.147571 0)
(0.819257 0.0271076 0)
(0.635303 -0.0213938 0)
(0.477487 -0.054313 0)
(0.365589 -0.0753234 0)
(0.270665 -0.113326 0)
(0.187724 -0.155756 0)
(0.102976 -0.185166 0)
(0.0163552 -0.203988 0)
(-0.063423 -0.226903 0)
(-0.113067 -0.25502 0)
(-0.135049 -0.270958 0)
(-0.17838 -0.294923 0)
(-0.24392 -0.291536 0)
(-0.318444 -0.300288 0)
(-0.392228 -0.30815 0)
(-0.435644 -0.327352 0)
(0.550473 2.5697 0)
(0.983279 2.29854 0)
(1.35999 1.66931 0)
(1.28975 1.14207 0)
(1.23653 0.757524 0)
(1.04322 0.508859 0)
(0.889348 0.34704 0)
(0.711135 0.215524 0)
(0.569844 0.137768 0)
(0.440762 0.0791124 0)
(0.340541 0.042198 0)
(0.248911 -0.00565827 0)
(0.162239 -0.0469921 0)
(0.0754796 -0.0924023 0)
(-0.000490669 -0.118687 0)
(-0.0660953 -0.138109 0)
(-0.129429 -0.151363 0)
(-0.18807 -0.180473 0)
(-0.246316 -0.227346 0)
(-0.300814 -0.253449 0)
(-0.345457 -0.275442 0)
(-0.387436 -0.272035 0)
(-0.431963 -0.271636 0)
(0.26455 2.00769 0)
(0.632529 1.90154 0)
(0.914735 1.50167 0)
(0.946142 1.16041 0)
(0.924759 0.859667 0)
(0.804981 0.650569 0)
(0.707511 0.481629 0)
(0.577067 0.349685 0)
(0.469877 0.251364 0)
(0.359398 0.178078 0)
(0.273835 0.119036 0)
(0.189264 0.0678405 0)
(0.115526 0.0204112 0)
(0.0397314 -0.0199019 0)
(-0.0302553 -0.0593705 0)
(-0.0933276 -0.0958299 0)
(-0.146609 -0.129536 0)
(-0.189911 -0.15246 0)
(-0.238268 -0.177763 0)
(-0.29132 -0.191442 0)
(-0.343473 -0.209217 0)
(-0.393699 -0.221292 0)
(-0.429929 -0.227431 0)
(0.140551 1.67052 0)
(0.415864 1.63387 0)
(0.612523 1.35988 0)
(0.674336 1.12934 0)
(0.684895 0.89951 0)
(0.624489 0.726684 0)
(0.564981 0.57481 0)
(0.472691 0.453979 0)
(0.389588 0.354523 0)
(0.29805 0.275333 0)
(0.218659 0.211111 0)
(0.1381 0.152198 0)
(0.0652888 0.101356 0)
(-0.0068442 0.0525793 0)
(-0.071926 0.0132394 0)
(-0.13412 -0.0230386 0)
(-0.192795 -0.055748 0)
(-0.246396 -0.0906818 0)
(-0.294566 -0.126587 0)
(-0.338659 -0.150519 0)
(-0.375915 -0.173484 0)
(-0.408425 -0.187348 0)
(-0.437123 -0.194343 0)
(0.0828467 1.45082 0)
(0.28346 1.42866 0)
(0.424051 1.24529 0)
(0.484665 1.08767 0)
(0.503131 0.912163 0)
(0.470212 0.771365 0)
(0.429248 0.635504 0)
(0.359859 0.526824 0)
(0.294657 0.428165 0)
(0.217068 0.351138 0)
(0.149839 0.281285 0)
(0.0780063 0.223372 0)
(0.0143426 0.167822 0)
(-0.0508815 0.119331 0)
(-0.11046 0.0705458 0)
(-0.166942 0.0268279 0)
(-0.217489 -0.0145087 0)
(-0.263675 -0.0492278 0)
(-0.307542 -0.0825388 0)
(-0.348019 -0.108911 0)
(-0.382508 -0.136577 0)
(-0.414188 -0.159307 0)
(-0.436848 -0.176173 0)
(0.0530316 1.30213 0)
(0.195783 1.2871 0)
(0.293511 1.15888 0)
(0.345614 1.04823 0)
(0.364953 0.914001 0)
(0.348713 0.800126 0)
(0.319435 0.685039 0)
(0.267728 0.588557 0)
(0.213192 0.496865 0)
(0.147627 0.420014 0)
(0.0853934 0.349486 0)
(0.01957 0.287284 0)
(-0.0421859 0.229439 0)
(-0.103724 0.176704 0)
(-0.16015 0.128478 0)
(-0.215396 0.0830211 0)
(-0.265836 0.040315 0)
(-0.312049 -0.00190892 0)
(-0.352015 -0.0427428 0)
(-0.386112 -0.0770513 0)
(-0.415342 -0.107802 0)
(-0.437789 -0.134272 0)
(-0.460144 -0.152691 0)
(0.0338072 1.20186 0)
(0.133568 1.18699 0)
(0.198876 1.09618 0)
(0.23846 1.01583 0)
(0.252529 0.910284 0)
(0.241472 0.817235 0)
(0.217016 0.717942 0)
(0.175706 0.634077 0)
(0.129763 0.549954 0)
(0.0744852 0.480363 0)
(0.0198303 0.411228 0)
(-0.0387258 0.352525 0)
(-0.0951111 0.293177 0)
(-0.152225 0.238876 0)
(-0.205587 0.184382 0)
(-0.257374 0.133995 0)
(-0.30437 0.0842621 0)
(-0.348453 0.038243 0)
(-0.388123 -0.00643927 0)
(-0.425407 -0.0445206 0)
(-0.456495 -0.0830155 0)
(-0.48805 -0.113745 0)
(-0.514285 -0.141292 0)
(0.0233464 1.13376 0)
(0.0907293 1.11999 0)
(0.132107 1.05372 0)
(0.15859 0.9936 0)
(0.166733 0.910963 0)
(0.156463 0.835311 0)
(0.134053 0.750834 0)
(0.0978488 0.675673 0)
(0.055007 0.597991 0)
(0.00466715 0.529782 0)
(-0.0480533 0.462435 0)
(-0.103465 0.401925 0)
(-0.157696 0.342529 0)
(-0.211418 0.286675 0)
(-0.262443 0.233139 0)
(-0.31187 0.181122 0)
(-0.35771 0.130976 0)
(-0.400965 0.0810095 0)
(-0.441853 0.0339035 0)
(-0.481358 -0.00963444 0)
(-0.522361 -0.0454318 0)
(-0.562313 -0.077214 0)
(-0.60691 -0.0995699 0)
(0.0128713 1.08754 0)
(0.0574421 1.07747 0)
(0.0802254 1.02851 0)
(0.0949385 0.980894 0)
(0.0946927 0.912938 0)
(0.0822271 0.850098 0)
(0.0595401 0.777434 0)
(0.0269979 0.713754 0)
(-0.0120645 0.644324 0)
(-0.0576541 0.584382 0)
(-0.106668 0.520788 0)
(-0.158256 0.46331 0)
(-0.210217 0.402758 0)
(-0.262399 0.344871 0)
(-0.313184 0.286547 0)
(-0.362816 0.230476 0)
(-0.410522 0.174959 0)
(-0.457856 0.123498 0)
(-0.506269 0.0754052 0)
(-0.559198 0.0370871 0)
(-0.614319 -0.000693784 0)
(-0.671988 -0.0284494 0)
(-0.707934 -0.0682494 0)
(0.00296973 1.06317 0)
(0.0288082 1.05206 0)
(0.038147 1.01624 0)
(0.0438521 0.97888 0)
(0.0365832 0.923859 0)
(0.0200947 0.870436 0)
(-0.00560494 0.806307 0)
(-0.0400057 0.7473 0)
(-0.0796608 0.682846 0)
(-0.126022 0.624374 0)
(-0.173833 0.563143 0)
(-0.224702 0.505343 0)
(-0.275172 0.446596 0)
(-0.32694 0.389323 0)
(-0.378158 0.333401 0)
(-0.430501 0.278061 0)
(-0.483087 0.225976 0)
(-0.540444 0.176345 0)
(-0.601888 0.135484 0)
(-0.667879 0.0979707 0)
(-0.728237 0.0676155 0)
(-0.762288 0.0163888 0)
(-0.769227 -0.0524838 0)
(-0.0019944 1.05554 0)
(0.00710619 1.04182 0)
(0.00371648 1.01346 0)
(0.000501101 0.982217 0)
(-0.0132669 0.936939 0)
(-0.0327514 0.892357 0)
(-0.0601438 0.838078 0)
(-0.0943019 0.788195 0)
(-0.133849 0.731152 0)
(-0.178946 0.679206 0)
(-0.226429 0.620495 0)
(-0.276981 0.565524 0)
(-0.32842 0.506268 0)
(-0.382403 0.44891 0)
(-0.437799 0.391458 0)
(-0.497167 0.336472 0)
(-0.560798 0.286119 0)
(-0.630301 0.243428 0)
(-0.704927 0.203826 0)
(-0.769479 0.164572 0)
(-0.799522 0.0947772 0)
(-0.80159 0.0127321 0)
(-0.795779 -0.0662851 0)
(-0.00462156 1.05827 0)
(-0.00872436 1.04648 0)
(-0.022477 1.02315 0)
(-0.035558 0.996037 0)
(-0.0570923 0.957569 0)
(-0.0828042 0.917554 0)
(-0.115244 0.868379 0)
(-0.153594 0.821255 0)
(-0.195445 0.768001 0)
(-0.242728 0.717156 0)
(-0.290424 0.661586 0)
(-0.343702 0.607367 0)
(-0.39647 0.552231 0)
(-0.455599 0.498594 0)
(-0.516169 0.448404 0)
(-0.585586 0.401048 0)
(-0.6592 0.3597 0)
(-0.739528 0.320494 0)
(-0.803876 0.27554 0)
(-0.825963 0.192558 0)
(-0.823431 0.0997075 0)
(-0.815325 0.0124717 0)
(-0.808675 -0.0632721 0)
(-0.00838488 1.0687 0)
(-0.0218779 1.05944 0)
(-0.0432428 1.04031 0)
(-0.0639688 1.01663 0)
(-0.0910472 0.984322 0)
(-0.120696 0.950481 0)
(-0.156236 0.909204 0)
(-0.196418 0.868603 0)
(-0.24032 0.820827 0)
(-0.288722 0.774649 0)
(-0.339236 0.722273 0)
(-0.394876 0.672333 0)
(-0.452531 0.619271 0)
(-0.517559 0.569584 0)
(-0.587383 0.522639 0)
(-0.66754 0.480513 0)
(-0.751738 0.440955 0)
(-0.821509 0.389143 0)
(-0.841825 0.290835 0)
(-0.839313 0.184134 0)
(-0.833164 0.084463 0)
(-0.825263 -0.00236207 0)
(-0.821308 -0.0728842 0)
(-0.0123768 1.08903 0)
(-0.0345392 1.08179 0)
(-0.0629993 1.06588 0)
(-0.0915501 1.04438 0)
(-0.125912 1.01506 0)
(-0.162444 0.983299 0)
(-0.203869 0.94491 0)
(-0.24897 0.90586 0)
(-0.296706 0.861073 0)
(-0.35013 0.816446 0)
(-0.404759 0.768354 0)
(-0.467913 0.720853 0)
(-0.532271 0.675381 0)
(-0.606922 0.633666 0)
(-0.685611 0.599068 0)
(-0.770709 0.565842 0)
(-0.839043 0.514748 0)
(-0.856449 0.410804 0)
(-0.849522 0.293515 0)
(-0.843727 0.183972 0)
(-0.831819 0.0856864 0)
(-0.825943 0.000706121 0)
(-0.815743 -0.0699425 0)
(-0.0156588 1.11546 0)
(-0.0451038 1.10986 0)
(-0.0787042 1.09724 0)
(-0.112563 1.07932 0)
(-0.150957 1.05523 0)
(-0.191382 1.02833 0)
(-0.236004 0.995935 0)
(-0.283745 0.961572 0)
(-0.334708 0.922443 0)
(-0.390096 0.88318 0)
(-0.449118 0.840817 0)
(-0.515191 0.800673 0)
(-0.587393 0.759372 0)
(-0.670361 0.72386 0)
(-0.758354 0.687473 0)
(-0.833647 0.634649 0)
(-0.856646 0.52724 0)
(-0.849751 0.399347 0)
(-0.848032 0.278165 0)
(-0.836296 0.165839 0)
(-0.829521 0.0665509 0)
(-0.811447 -0.0190894 0)
(-0.793486 -0.0961817 0)
(-0.0194763 1.15065 0)
(-0.0569547 1.14571 0)
(-0.0977112 1.13431 0)
(-0.13889 1.11752 0)
(-0.184338 1.09491 0)
(-0.231525 1.06919 0)
(-0.282904 1.03825 0)
(-0.336878 1.00524 0)
(-0.394255 0.968286 0)
(-0.456252 0.93131 0)
(-0.520616 0.894223 0)
(-0.594218 0.859431 0)
(-0.670298 0.831323 0)
(-0.756679 0.805187 0)
(-0.833789 0.763243 0)
(-0.864139 0.664769 0)
(-0.855322 0.530907 0)
(-0.851918 0.402682 0)
(-0.836381 0.28027 0)
(-0.822062 0.165879 0)
(-0.798388 0.0612161 0)
(-0.772108 -0.0350214 0)
(-0.736119 -0.120096 0)
(-0.0220515 1.19162 0)
(-0.0651941 1.18783 0)
(-0.110198 1.17901 0)
(-0.155777 1.1657 0)
(-0.20448 1.14787 0)
(-0.255103 1.12686 0)
(-0.309349 1.10158 0)
(-0.366717 1.0732 0)
(-0.428211 1.04242 0)
(-0.494058 1.01022 0)
(-0.565349 0.979634 0)
(-0.642128 0.951483 0)
(-0.729715 0.922923 0)
(-0.813703 0.888056 0)
(-0.856081 0.796012 0)
(-0.848659 0.655651 0)
(-0.844739 0.515226 0)
(-0.831416 0.37933 0)
(-0.812574 0.247849 0)
(-0.78818 0.126685 0)
(-0.757752 0.0158047 0)
(-0.722513 -0.0825418 0)
(-0.685167 -0.170011 0)
(-0.0260527 1.23909 0)
(-0.0773633 1.23507 0)
(-0.130366 1.2261 0)
(-0.18377 1.21289 0)
(-0.240257 1.19533 0)
(-0.297917 1.17496 0)
(-0.359465 1.15076 0)
(-0.42282 1.12476 0)
(-0.491321 1.09636 0)
(-0.562233 1.06883 0)
(-0.638398 1.04304 0)
(-0.719903 1.02389 0)
(-0.800786 1.00353 0)
(-0.853171 0.932375 0)
(-0.848391 0.79785 0)
(-0.838513 0.654045 0)
(-0.823472 0.513776 0)
(-0.798095 0.371313 0)
(-0.770351 0.237605 0)
(-0.736466 0.111779 0)
(-0.701975 -0.00382311 0)
(-0.662208 -0.107104 0)
(-0.621815 -0.200143 0)
(-0.0277525 1.29478 0)
(-0.0830168 1.29198 0)
(-0.139444 1.28537 0)
(-0.196614 1.27559 0)
(-0.256014 1.26232 0)
(-0.317071 1.2464 0)
(-0.381366 1.2272 0)
(-0.44868 1.20577 0)
(-0.520548 1.18293 0)
(-0.597185 1.15843 0)
(-0.677911 1.13866 0)
(-0.762035 1.11535 0)
(-0.829907 1.05766 0)
(-0.838918 0.935697 0)
(-0.826371 0.781732 0)
(-0.814477 0.629855 0)
(-0.789673 0.474119 0)
(-0.760078 0.324724 0)
(-0.727686 0.184965 0)
(-0.690731 0.0566187 0)
(-0.651752 -0.059827 0)
(-0.61015 -0.164317 0)
(-0.566491 -0.257972 0)
(-0.0330549 1.35105 0)
(-0.0984076 1.34795 0)
(-0.164244 1.34075 0)
(-0.229587 1.33034 0)
(-0.297231 1.31651 0)
(-0.365587 1.30084 0)
(-0.43668 1.28275 0)
(-0.508489 1.26423 0)
(-0.58517 1.24499 0)
(-0.662148 1.2263 0)
(-0.741932 1.20778 0)
(-0.812119 1.17572 0)
(-0.838981 1.08013 0)
(-0.824552 0.928571 0)
(-0.806378 0.773511 0)
(-0.779769 0.617737 0)
(-0.742267 0.460171 0)
(-0.70689 0.310214 0)
(-0.665813 0.169294 0)
(-0.627175 0.0368295 0)
(-0.58505 -0.0834826 0)
(-0.542277 -0.191558 0)
(-0.499096 -0.289845 0)
(-0.0334369 1.42659 0)
(-0.1001 1.42368 0)
(-0.167479 1.41721 0)
(-0.235941 1.4094 0)
(-0.306236 1.39948 0)
(-0.377711 1.38713 0)
(-0.451702 1.37173 0)
(-0.527399 1.35582 0)
(-0.606255 1.33865 0)
(-0.686693 1.31692 0)
(-0.765625 1.2908 0)
(-0.820268 1.21418 0)
(-0.814856 1.07085 0)
(-0.796873 0.903067 0)
(-0.774015 0.736397 0)
(-0.739623 0.564423 0)
(-0.702257 0.399714 0)
(-0.663658 0.24628 0)
(-0.624284 0.103375 0)
(-0.580489 -0.0262614 0)
(-0.540058 -0.146533 0)
(-0.493052 -0.252271 0)
(-0.45048 -0.349905 0)
(-0.0396727 1.48488 0)
(-0.118261 1.48231 0)
(-0.197437 1.47671 0)
(-0.275994 1.46896 0)
(-0.354649 1.45788 0)
(-0.433986 1.44578 0)
(-0.513877 1.43175 0)
(-0.593637 1.41819 0)
(-0.673354 1.40342 0)
(-0.74618 1.38502 0)
(-0.80872 1.34063 0)
(-0.818133 1.22353 0)
(-0.798961 1.05629 0)
(-0.768368 0.887544 0)
(-0.733452 0.716644 0)
(-0.68692 0.546816 0)
(-0.64802 0.385384 0)
(-0.600688 0.233511 0)
(-0.561228 0.0875719 0)
(-0.513576 -0.0461195 0)
(-0.473776 -0.169663 0)
(-0.428083 -0.279948 0)
(-0.386389 -0.37873 0)
(-0.0393884 1.58672 0)
(-0.116983 1.58383 0)
(-0.195913 1.57748 0)
(-0.274361 1.56932 0)
(-0.35458 1.56057 0)
(-0.435546 1.54945 0)
(-0.51739 1.5346 0)
(-0.600016 1.51821 0)
(-0.679176 1.49444 0)
(-0.753904 1.45451 0)
(-0.800961 1.36511 0)
(-0.787489 1.20574 0)
(-0.765157 1.02089 0)
(-0.732007 0.836909 0)
(-0.692638 0.653475 0)
(-0.649293 0.477031 0)
(-0.608913 0.311233 0)
(-0.564295 0.15702 0)
(-0.522162 0.0137961 0)
(-0.476993 -0.116137 0)
(-0.433352 -0.234353 0)
(-0.389648 -0.342 0)
(-0.348689 -0.439238 0)
(-0.046351 1.63887 0)
(-0.13843 1.63652 0)
(-0.230393 1.63157 0)
(-0.321381 1.62494 0)
(-0.411184 1.61605 0)
(-0.499448 1.60577 0)
(-0.586188 1.59347 0)
(-0.668945 1.57786 0)
(-0.741476 1.55485 0)
(-0.794904 1.50575 0)
(-0.802819 1.37223 0)
(-0.774141 1.18679 0)
(-0.73678 1.0009 0)
(-0.693205 0.815311 0)
(-0.645739 0.635125 0)
(-0.598439 0.464388 0)
(-0.551593 0.302215 0)
(-0.503375 0.148488 0)
(-0.457906 0.00217401 0)
(-0.414762 -0.133278 0)
(-0.374726 -0.255234 0)
(-0.332654 -0.362995 0)
(-0.296234 -0.462182 0)
(-0.0452422 1.77811 0)
(-0.134509 1.77469 0)
(-0.224512 1.7672 0)
(-0.312998 1.75702 0)
(-0.403041 1.7457 0)
(-0.491622 1.73104 0)
(-0.578751 1.71015 0)
(-0.660903 1.67862 0)
(-0.73539 1.62475 0)
(-0.779393 1.51853 0)
(-0.762621 1.34592 0)
(-0.738412 1.13934 0)
(-0.701203 0.938891 0)
(-0.659772 0.743955 0)
(-0.614181 0.556314 0)
(-0.567569 0.380047 0)
(-0.520969 0.213179 0)
(-0.474691 0.0602482 0)
(-0.42923 -0.0777663 0)
(-0.384531 -0.20226 0)
(-0.34734 -0.319298 0)
(-0.306544 -0.423404 0)
(-0.273034 -0.520671 0)
(-0.0527484 1.80987 0)
(-0.157929 1.80722 0)
(-0.262166 1.80154 0)