/*--------------------------------*- C++ -*----------------------------------*\
| =========                 |                                                 |
| \\      /  F ield         | OpenFOAM: The Open Source CFD Toolbox           |
|  \\    /   O peration     | Version:  2012                                  |
|   \\  /    A nd           | Website:  www.openfoam.com                      |
|    \\/     M anipulation  |                                                 |
\*---------------------------------------------------------------------------*/
FoamFile
{
    version     2.0;
    format      ascii;
    class       volVectorField;
    location    "0.86";
    object      Uc;
}
// * * * * * * * * * * * * * * * * * * * * * * * * * * * * * * * * * * * * * //

dimensions      [0 1 -1 0 0 0 0];


internalField   nonuniform List<vector> 
2268
(
(-0.0259571 0.0122671 0)
(-0.0765127 0.0116251 0)
(-0.123807 0.0107258 0)
(-0.16591 0.00917185 0)
(-0.200646 0.00724401 0)
(-0.227663 0.00552417 0)
(-0.246962 0.00359606 0)
(-0.258541 0.00187626 0)
(-0.263569 0.000500082 0)
(-0.262941 -0.000797002 0)
(-0.256846 -0.00208345 0)
(-0.246066 -0.00301084 0)
(-0.231416 -0.00391276 0)
(-0.212125 -0.0052042 0)
(-0.186897 -0.00671829 0)
(-0.154063 -0.00879873 0)
(-0.11283 -0.0106875 0)
(-0.0648871 -0.0119701 0)
(-0.0143988 -0.0118903 0)
(0.0315088 -0.00980525 0)
(0.0556919 -0.00162348 0)
(0.0540007 0.00242272 0)
(0.0244372 0.0115488 0)
(-0.0263243 0.0369749 0)
(-0.0776041 0.0350441 0)
(-0.125411 0.0322511 0)
(-0.16764 0.027501 0)
(-0.202097 0.021615 0)
(-0.228636 0.0164635 0)
(-0.247773 0.010821 0)
(-0.259635 0.00572952 0)
(-0.264771 0.00145059 0)
(-0.263781 -0.0025125 0)
(-0.257401 -0.00626328 0)
(-0.246654 -0.00900455 0)
(-0.232325 -0.0116144 0)
(-0.213489 -0.0155211 0)
(-0.188389 -0.020186 0)
(-0.155394 -0.0264412 0)
(-0.113788 -0.0321939 0)
(-0.0651007 -0.0361305 0)
(-0.0135983 -0.0359299 0)
(0.033312 -0.0296306 0)
(0.0584845 -0.00512315 0)
(0.0547817 0.00847155 0)
(0.0235545 0.0342294 0)
(-0.0268872 0.0621223 0)
(-0.078852 0.0586895 0)
(-0.127042 0.0539734 0)
(-0.170053 0.0460624 0)
(-0.205747 0.0362066 0)
(-0.233494 0.0275267 0)
(-0.252984 0.0180127 0)
(-0.264395 0.00953656 0)
(-0.268686 0.00209909 0)
(-0.266681 -0.00457673 0)
(-0.259683 -0.0105213 0)
(-0.249156 -0.0148007 0)
(-0.235214 -0.0191786 0)
(-0.216356 -0.025771 0)
(-0.190979 -0.0337909 0)
(-0.157459 -0.0442708 0)
(-0.114829 -0.0541739 0)
(-0.0638519 -0.0612508 0)
(-0.0084504 -0.0613316 0)
(0.0454581 -0.0518751 0)
(0.077098 -0.00972778 0)
(0.070568 0.0179122 0)
(0.0291323 0.0591288 0)
(-0.027874 0.088002 0)
(-0.0816619 0.0827877 0)
(-0.131081 0.0760045 0)
(-0.174414 0.0648372 0)
(-0.209486 0.0508753 0)
(-0.236398 0.0386892 0)
(-0.255882 0.0252688 0)
(-0.267608 0.0132151 0)
(-0.271635 0.00235183 0)
(-0.269083 -0.00698349 0)
(-0.261907 -0.0148132 0)
(-0.251409 -0.0204448 0)
(-0.237965 -0.0264764 0)
(-0.22048 -0.035649 0)
(-0.196415 -0.0472788 0)
(-0.163594 -0.062135 0)
(-0.120529 -0.0768092 0)
(-0.0672078 -0.0879056 0)
(-0.00676826 -0.0894224 0)
(0.0546617 -0.0782924 0)
(0.0942616 -0.0169779 0)
(0.0888261 0.0308172 0)
(0.0369113 0.0903406 0)
(-0.028987 0.114874 0)
(-0.0845206 0.10758 0)
(-0.135474 0.0986472 0)
(-0.180797 0.0840929 0)
(-0.218233 0.0658864 0)
(-0.247014 0.049998 0)
(-0.266391 0.0323252 0)
(-0.276464 0.0164609 0)
(-0.278631 0.00203334 0)
(-0.274485 -0.00983086 0)
(-0.266331 -0.0192102 0)
(-0.256343 -0.0257293 0)
(-0.24396 -0.0333975 0)
(-0.226797 -0.0451022 0)
(-0.202562 -0.0606522 0)
(-0.168999 -0.0801338 0)
(-0.124065 -0.100398 0)
(-0.0665528 -0.116695 0)
(0.00260938 -0.121881 0)
(0.0785223 -0.110741 0)
(0.129542 -0.0273557 0)
(0.122533 0.0470759 0)
(0.0515667 0.132155 0)
(-0.0305255 0.142999 0)
(-0.0891651 0.133412 0)
(-0.142317 0.122014 0)
(-0.188074 0.10377 0)
(-0.224403 0.0810703 0)
(-0.252068 0.0614897 0)
(-0.271817 0.0393239 0)
(-0.282418 0.019233 0)
(-0.283897 0.000984192 0)
(-0.278629 -0.0132309 0)
(-0.269991 -0.0237456 0)
(-0.259514 -0.0308655 0)
(-0.247843 -0.0396289 0)
(-0.233633 -0.053697 0)
(-0.212059 -0.0737068 0)
(-0.17972 -0.0982238 0)
(-0.134385 -0.124969 0)
(-0.0741107 -0.14779 0)
(0.00343352 -0.160119 0)
(0.0915358 -0.150015 0)
(0.152201 -0.0408625 0)
(0.144628 0.067474 0)
(0.0604326 0.185085 0)
(-0.0323344 0.172706 0)
(-0.0935518 0.160349 0)
(-0.148676 0.146249 0)
(-0.197325 0.124151 0)
(-0.237266 0.0967336 0)
(-0.267558 0.0732167 0)
(-0.286802 0.0460241 0)
(-0.294691 0.0212715 0)
(-0.293401 -0.000965252 0)
(-0.285716 -0.0174029 0)
(-0.275334 -0.0285623 0)
(-0.266193 -0.03532 0)
(-0.257725 -0.0446919 0)
(-0.245064 -0.0613332 0)
(-0.223357 -0.0865247 0)
(-0.189626 -0.11663 0)
(-0.141881 -0.150552 0)
(-0.0769378 -0.181384 0)
(0.0108488 -0.20466 0)
(0.111544 -0.194699 0)
(0.181979 -0.0581358 0)
(0.184213 0.0872707 0)
(0.0830431 0.25289 0)
(-0.0361513 0.205072 0)
(-0.10511 0.189503 0)
(-0.165048 0.171472 0)
(-0.213554 0.144842 0)
(-0.250327 0.112297 0)
(-0.277891 0.0849954 0)
(-0.297178 0.0524547 0)
(-0.305219 0.0223697 0)
(-0.301862 -0.00425981 0)
(-0.291461 -0.0226557 0)
(-0.279819 -0.033718 0)
(-0.269679 -0.0392762 0)
(-0.262224 -0.0482605 0)
(-0.253383 -0.0679268 0)
(-0.234785 -0.0989784 0)
(-0.203931 -0.134699 0)
(-0.159545 -0.176024 0)
(-0.0956007 -0.216822 0)
(-0.00462628 -0.253702 0)
(0.0996847 -0.242541 0)
(0.174254 -0.0788213 0)
(0.180355 0.104018 0)
(0.081523 0.330663 0)
(-0.338993 0.144189 0)
(-0.923002 0.104144 0)
(-1.35164 0.0779015 0)
(-1.65857 0.0523928 0)
(-1.87033 0.0376186 0)
(-2.02636 0.0287517 0)
(-2.14476 0.0216383 0)
(-2.226 0.0130074 0)
(-2.22524 -0.0130006 0)
(-1.89844 -0.12427 0)
(-1.21278 -0.166764 0)
(-0.69401 -0.0547232 0)
(-0.585651 0.00863443 0)
(-0.658503 0.0223153 0)
(-0.726954 0.00681054 0)
(-0.701907 -0.0174392 0)
(-0.60244 -0.0248449 0)
(-0.440685 -0.0439321 0)
(-0.168683 -0.0717437 0)
(-0.279309 0.407187 0)
(-0.797289 0.309669 0)
(-1.20852 0.229023 0)
(-1.49292 0.152333 0)
(-1.72024 0.124296 0)
(-1.95466 0.108213 0)
(-2.13351 0.0688896 0)
(-2.13585 0.00173513 0)
(-1.79397 -0.146665 0)
(-1.10913 -0.418559 0)
(-0.4127 -0.459591 0)
(0.114301 -0.207697 0)
(0.512485 -0.0537246 0)
(0.620509 0.0702259 0)
(0.311468 0.120118 0)
(-0.128394 0.0460043 0)
(-0.339285 -0.0406857 0)
(-0.295739 -0.115305 0)
(-0.115583 -0.192648 0)
(-0.259912 0.636633 0)
(-0.710113 0.491954 0)
(-1.02379 0.354596 0)
(-1.22894 0.234691 0)
(-1.38178 0.203683 0)
(-1.49918 0.178766 0)
(-1.60792 0.121148 0)
(-1.47583 -0.105137 0)
(-0.964076 -0.402121 0)
(-0.476738 -0.660737 0)
(-0.171818 -0.643105 0)
(0.117204 -0.371531 0)
(0.395204 -0.177373 0)
(0.585661 0.0675258 0)
(0.637505 0.233063 0)
(0.450708 0.200257 0)
(0.151241 0.0226747 0)
(0.0136884 -0.138377 0)
(0.00180087 -0.241036 0)
(-0.220071 0.8409 0)
(-0.590258 0.636678 0)
(-0.821945 0.441599 0)
(-0.924697 0.278617 0)
(-0.845431 0.191412 0)
(-0.541632 0.112303 0)
(-0.290679 0.127666 0)
(-0.284499 -0.169966 0)
(-0.262164 -0.56385 0)
(-0.15856 -0.749774 0)
(-0.0709184 -0.720925 0)
(0.142388 -0.507556 0)
(0.413997 -0.275189 0)
(0.523663 0.0377497 0)
(0.542662 0.232945 0)
(0.55911 0.273238 0)
(0.490354 0.106768 0)
(0.312396 -0.0879838 0)
(0.10211 -0.196824 0)
(-0.199888 1.01961 0)
(-0.516773 0.750281 0)
(-0.674906 0.493728 0)
(-0.627044 0.249892 0)
(-0.378017 0.0808222 0)
(-0.093771 -0.0267685 0)
(0.128265 0.0660896 0)
(0.16532 -0.126208 0)
(0.0235261 -0.556119 0)
(-0.0784409 -0.757706 0)
(-0.112975 -0.735596 0)
(-0.00183836 -0.630901 0)
(0.300791 -0.39596 0)
(0.533233 0.013254 0)
(0.564787 0.236136 0)
(0.529552 0.278056 0)
(0.466073 0.158298 0)
(0.327317 -0.00473084 0)
(0.119899 -0.10238 0)
(-0.154597 1.1705 0)
(-0.408671 0.842377 0)
(-0.538362 0.524099 0)
(-0.464347 0.167991 0)
(-0.222688 -0.0456072 0)
(-0.0163742 -0.108791 0)
(0.0520144 0.024941 0)
(0.0211379 -0.0870999 0)
(-0.0382025 -0.508743 0)
(-0.11905 -0.726661 0)
(-0.197994 -0.718414 0)
(-0.18888 -0.699169 0)
(-0.0229303 -0.526572 0)
(0.225598 -0.0601589 0)
(0.385619 0.228422 0)
(0.432549 0.280853 0)
(0.387865 0.201504 0)
(0.25746 0.0665547 0)
(0.0886985 -0.0136459 0)
(-0.121264 1.28792 0)
(-0.315293 0.915682 0)
(-0.400445 0.54257 0)
(-0.27711 0.0663829 0)
(-0.0157797 -0.157431 0)
(0.116606 -0.14092 0)
(0.123764 0.0250887 0)
(0.100188 -0.0635917 0)
(-0.0102361 -0.458853 0)
(-0.17531 -0.671088 0)
(-0.274655 -0.698118 0)
(-0.295853 -0.714338 0)
(-0.256594 -0.598483 0)
(-0.161319 -0.134093 0)
(-0.01007 0.170327 0)
(0.156021 0.248713 0)
(0.196693 0.235558 0)
(0.126915 0.117659 0)
(0.0434326 0.0425628 0)
(-0.0692352 1.36902 0)
(-0.114529 0.936482 0)
(-0.0518566 0.531823 0)
(0.0692852 -0.0260696 0)
(0.206565 -0.234099 0)
(0.225684 -0.128512 0)
(0.175463 0.0310887 0)
(0.114447 -0.0333499 0)
(-0.0365585 -0.377209 0)
(-0.231411 -0.599123 0)
(-0.349816 -0.677392 0)
(-0.399298 -0.705006 0)
(-0.459074 -0.599226 0)
(-0.550122 -0.135062 0)
(-0.542125 0.104 0)
(-0.356701 0.16614 0)
(-0.183132 0.22765 0)
(-0.116068 0.126979 0)
(-0.0489443 0.0402613 0)
(-0.036319 0.258666 0)
(-0.105151 0.237691 0)
(-0.168677 0.215469 0)
(-0.226759 0.182155 0)
(-0.275315 0.141173 0)
(-0.310801 0.104816 0)
(-0.327912 0.0589491 0)
(-0.327337 0.0190976 0)
(-0.315306 -0.0146678 0)
(-0.29642 -0.0361474 0)
(-0.278657 -0.0435847 0)
(-0.273558 -0.0393266 0)
(-0.276822 -0.0484519 0)
(-0.27373 -0.0750219 0)
(-0.259073 -0.115406 0)
(-0.233054 -0.159008 0)
(-0.193602 -0.212349 0)
(-0.132313 -0.272326 0)
(-0.0444584 -0.329505 0)
(0.0602676 -0.321305 0)
(0.180354 -0.156001 0)
(0.266871 0.0913906 0)
(0.293154 0.363614 0)
(-0.0536423 0.349097 0)
(-0.150456 0.313771 0)
(-0.222339 0.275504 0)
(-0.271205 0.229626 0)
(-0.298998 0.17045 0)
(-0.317436 0.129745 0)
(-0.339881 0.073783 0)
(-0.34824 0.0120878 0)
(-0.329889 -0.0381943 0)
(-0.303162 -0.0584414 0)
(-0.288031 -0.0543104 0)
(-0.280583 -0.0411692 0)
(-0.286447 -0.0374038 0)
(-0.308365 -0.0671335 0)
(-0.319801 -0.126517 0)
(-0.314286 -0.179585 0)
(-0.300965 -0.244817 0)
(-0.276333 -0.326228 0)
(-0.23712 -0.403356 0)
(-0.180786 -0.409675 0)
(-0.0971973 -0.272891 0)
(0.00383315 0.0196284 0)
(0.113675 0.298669 0)
(-0.0668868 0.470375 0)
(-0.18426 0.408022 0)
(-0.283778 0.353732 0)
(-0.386234 0.303572 0)
(-0.494674 0.23339 0)
(-0.587162 0.177802 0)
(-0.631891 0.0923714 0)
(-0.633503 0.00261328 0)
(-0.587256 -0.0943209 0)
(-0.476923 -0.140435 0)
(-0.383103 -0.0816907 0)
(-0.401252 -0.00257446 0)
(-0.466173 -0.00448524 0)
(-0.48684 -0.0569702 0)
(-0.484292 -0.127725 0)
(-0.477862 -0.19056 0)
(-0.465029 -0.260548 0)
(-0.445325 -0.355852 0)
(-0.403451 -0.45661 0)
(-0.337894 -0.480611 0)
(-0.250825 -0.374416 0)
(-0.143553 -0.0882378 0)
(-0.0498482 0.202057 0)
(-0.131228 0.671161 0)
(-0.330989 0.529228 0)
(-0.446633 0.451486 0)
(-0.529792 0.393762 0)
(-0.668604 0.393476 0)
(-0.975672 0.420313 0)
(-1.29297 0.21142 0)
(-1.35804 -0.0532149 0)
(-1.19914 -0.246151 0)
(-0.950153 -0.348641 0)
(-0.645104 -0.27319 0)
(-0.393878 -0.0433302 0)
(-0.389365 0.0986073 0)
(-0.536078 0.00811802 0)
(-0.60221 -0.129487 0)
(-0.58809 -0.210047 0)
(-0.554066 -0.288804 0)
(-0.498288 -0.404331 0)
(-0.395155 -0.555194 0)
(-0.317357 -0.527487 0)
(-0.344855 -0.387625 0)
(-0.405635 -0.120933 0)
(-0.457026 0.19275 0)
(-0.356812 1.16674 0)
(-0.854829 0.742096 0)
(-1.05108 0.555185 0)
(-1.14585 0.469332 0)
(-1.27581 0.587907 0)
(-1.62904 0.890988 0)
(-1.85991 0.291664 0)
(-1.71946 -0.209824 0)
(-1.51836 -0.450385 0)
(-1.3344 -0.579242 0)
(-1.10141 -0.582767 0)
(-0.710189 -0.376832 0)
(-0.290547 0.00782578 0)
(0.00407099 -0.0496801 0)
(0.22727 -0.229974 0)
(0.267734 -0.164795 0)
(0.109193 -0.209073 0)
(-0.0718844 -0.358138 0)
(-0.194443 -0.581774 0)
(-0.311984 -0.460854 0)
(-0.476391 -0.25957 0)
(-0.604832 -0.0563859 0)
(-0.670411 0.246517 0)
(-0.542181 2.07503 0)
(-1.24139 1.04366 0)
(-1.4477 0.659646 0)
(-1.51955 0.531587 0)
(-1.65159 0.787797 0)
(-1.80315 1.19892 0)
(-1.76609 0.182436 0)
(-1.63229 -0.370915 0)
(-1.53022 -0.592077 0)
(-1.45243 -0.702722 0)
(-1.40466 -0.743173 0)
(-1.32135 -0.694329 0)
(-1.0139 -0.405595 0)
(-0.596223 -0.351586 0)
(-0.329184 -0.420597 0)
(-0.206315 -0.138259 0)
(-0.245358 -0.036911 0)
(-0.406635 -0.18607 0)
(-0.632431 -0.403581 0)
(-0.759503 -0.392968 0)
(-0.693053 -0.226627 0)
(-0.643593 -0.00609279 0)
(-0.664399 0.284699 0)
(-0.518347 3.14484 0)
(-1.19285 1.36077 0)
(-1.40766 0.768287 0)
(-1.54842 0.637527 0)
(-1.67702 0.944852 0)
(-1.64608 1.16377 0)
(-1.54873 0.0851433 0)
(-1.52184 -0.431672 0)
(-1.48915 -0.665472 0)
(-1.44646 -0.751412 0)
(-1.42629 -0.76603 0)
(-1.44045 -0.745212 0)
(-1.45912 -0.648137 0)
(-1.44085 -0.547591 0)
(-1.40539 -0.527739 0)
(-1.27908 -0.281351 0)
(-1.09869 -0.035797 0)
(-1.05657 -0.0673229 0)
(-1.09503 -0.256615 0)
(-1.03419 -0.473263 0)
(-0.83713 -0.410371 0)
(-0.666173 -0.040736 0)
(-0.595769 0.273861 0)
(-0.392146 4.06423 0)
(-0.969678 1.70574 0)
(-1.36087 1.03474 0)
(-1.76097 0.915591 0)
(-1.99026 1.02677 0)
(-1.92078 0.981042 0)
(-1.76623 0.0148064 0)
(-1.69343 -0.461142 0)
(-1.62761 -0.733904 0)
(-1.53294 -0.821169 0)
(-1.45541 -0.796436 0)
(-1.43889 -0.718497 0)
(-1.4536 -0.642382 0)
(-1.44633 -0.579394 0)
(-1.43212 -0.546018 0)
(-1.40037 -0.422031 0)
(-1.32826 -0.148322 0)
(-1.26103 -0.0646348 0)
(-1.19107 -0.290849 0)
(-1.15645 -0.53475 0)
(-1.18061 -0.522384 0)
(-1.12905 -0.151101 0)
(-0.882356 0.0698581 0)
(-0.254927 4.71697 0)
(-0.73881 2.12283 0)
(-1.28017 1.55572 0)
(-1.75372 1.2729 0)
(-1.9517 1.09894 0)
(-1.90903 0.796145 0)
(-1.80101 -0.0642457 0)
(-1.7285 -0.528191 0)
(-1.64165 -0.820345 0)
(-1.56779 -0.904179 0)
(-1.49987 -0.859525 0)
(-1.43205 -0.738987 0)
(-1.38144 -0.65517 0)
(-1.35982 -0.59478 0)
(-1.35159 -0.555008 0)
(-1.33049 -0.467918 0)
(-1.23986 -0.266418 0)
(-1.0575 -0.196679 0)
(-0.910765 -0.375416 0)
(-0.877731 -0.516452 0)
(-0.910294 -0.482436 0)
(-0.916934 -0.235467 0)
(-0.747586 -0.261316 0)
(-0.225702 5.2011 0)
(-0.679426 2.58222 0)
(-1.13482 2.09831 0)
(-1.45337 1.52654 0)
(-1.50682 1.09804 0)
(-1.30509 0.551382 0)
(-1.01363 -0.221062 0)
(-0.830692 -0.628177 0)
(-0.797461 -0.841074 0)
(-0.894441 -0.860229 0)
(-1.05346 -0.811908 0)
(-1.17716 -0.730138 0)
(-1.22937 -0.660781 0)
(-1.23047 -0.608302 0)
(-1.20432 -0.575944 0)
(-1.18047 -0.494082 0)
(-1.12824 -0.386059 0)
(-1.01781 -0.371114 0)
(-0.909926 -0.454644 0)
(-0.857851 -0.520437 0)
(-0.817423 -0.486302 0)
(-0.751145 -0.291104 0)
(-0.698532 -0.425881 0)
(-0.253229 5.68283 0)
(-0.685976 2.99189 0)
(-0.927305 2.38901 0)
(-0.953084 1.58195 0)
(-0.799789 0.942241 0)
(-0.512308 0.215395 0)
(-0.280117 -0.411477 0)
(-0.213461 -0.688672 0)
(-0.256759 -0.770467 0)
(-0.371179 -0.718338 0)
(-0.50948 -0.654935 0)
(-0.635363 -0.63622 0)
(-0.733923 -0.603097 0)
(-0.837561 -0.559862 0)
(-0.947845 -0.538899 0)
(-1.00383 -0.499171 0)
(-0.980444 -0.457712 0)
(-0.921442 -0.469006 0)
(-0.863475 -0.522375 0)
(-0.81705 -0.552879 0)
(-0.774892 -0.540631 0)
(-0.720265 -0.359737 0)
(-0.666675 -0.461689 0)
(-0.126627 6.06475 0)
(-0.403125 3.32304 0)
(-0.515288 2.41324 0)
(-0.317304 1.38461 0)
(-0.0133466 0.679931 0)
(0.215716 -0.0415412 0)
(0.285759 -0.45836 0)
(0.224293 -0.647009 0)
(0.118717 -0.662476 0)
(0.0107651 -0.60279 0)
(-0.0817527 -0.538457 0)
(-0.171862 -0.535578 0)
(-0.271772 -0.504224 0)
(-0.368 -0.457807 0)
(-0.440144 -0.457555 0)
(-0.509235 -0.454692 0)
(-0.619221 -0.414604 0)
(-0.757973 -0.430717 0)
(-0.837807 -0.538754 0)
(-0.817301 -0.605785 0)
(-0.761574 -0.589002 0)
(-0.748585 -0.380774 0)
(-0.744248 -0.497671 0)
(0.113757 6.07771 0)
(0.169298 3.53225 0)
(0.201732 2.28422 0)
(0.454131 1.06091 0)
(0.695847 0.455114 0)
(0.77662 -0.128178 0)
(0.71935 -0.384566 0)
(0.597333 -0.536364 0)
(0.464127 -0.533091 0)
(0.327238 -0.486051 0)
(0.186895 -0.421111 0)
(0.0377844 -0.412446 0)
(-0.0812426 -0.407268 0)
(-0.128564 -0.410452 0)
(-0.141477 -0.419394 0)
(-0.178359 -0.386307 0)
(-0.244597 -0.305824 0)
(-0.31579 -0.328441 0)
(-0.385988 -0.490205 0)
(-0.471651 -0.588856 0)
(-0.566496 -0.566686 0)
(-0.609938 -0.372539 0)
(-0.609988 -0.509657 0)
(0.349892 5.61161 0)
(0.825778 3.46413 0)
(1.05785 2.08649 0)
(1.19326 0.868836 0)
(1.20158 0.39586 0)
(1.11339 -0.0614503 0)
(0.960842 -0.240369 0)
(0.782289 -0.378415 0)
(0.601164 -0.375058 0)
(0.438875 -0.343334 0)
(0.308086 -0.291271 0)
(0.209059 -0.292843 0)
(0.12599 -0.323708 0)
(0.0346983 -0.354664 0)
(-0.06686 -0.360102 0)
(-0.139135 -0.335858 0)
(-0.145387 -0.283391 0)
(-0.119027 -0.305789 0)
(-0.142648 -0.41853 0)
(-0.25097 -0.465516 0)
(-0.380061 -0.464907 0)
(-0.425586 -0.384871 0)
(-0.442307 -0.48045 0)
(0.542892 4.71411 0)
(1.29224 3.12995 0)
(1.56634 1.91188 0)
(1.56941 0.904292 0)
(1.44163 0.480533 0)
(1.28236 0.102653 0)
(1.0876 -0.0553248 0)
(0.887562 -0.182871 0)
(0.698273 -0.198239 0)
(0.536895 -0.194783 0)
(0.405184 -0.17594 0)
(0.295396 -0.198258 0)
(0.194094 -0.232946 0)
(0.10397 -0.263051 0)
(0.0305071 -0.275767 0)
(-0.0370051 -0.279662 0)
(-0.102047 -0.267907 0)
(-0.163037 -0.286447 0)
(-0.227777 -0.349034 0)
(-0.287776 -0.365797 0)
(-0.337049 -0.385318 0)
(-0.384897 -0.370585 0)
(-0.448918 -0.413557 0)
(0.549771 3.61575 0)
(1.30386 2.71707 0)
(1.55996 1.79186 0)
(1.54938 1.03192 0)
(1.416 0.615479 0)
(1.241 0.303749 0)
(1.03438 0.147085 0)
(0.829686 0.0215907 0)
(0.642604 -0.024348 0)
(0.489854 -0.0528913 0)
(0.370615 -0.0655575 0)
(0.274495 -0.101645 0)
(0.188042 -0.14081 0)
(0.103289 -0.179385 0)
(0.0187882 -0.200632 0)
(-0.0551399 -0.212605 0)
(-0.105507 -0.218939 0)
(-0.139706 -0.239716 0)
(-0.183498 -0.286654 0)
(-0.245774 -0.305249 0)
(-0.318083 -0.323635 0)
(-0.384657 -0.317235 0)
(-0.451361 -0.335483 0)
(0.383371 2.67776 0)
(0.970384 2.30701 0)
(1.24898 1.66449 0)
(1.29407 1.12465 0)
(1.20219 0.749219 0)
(1.05348 0.495444 0)
(0.883907 0.333576 0)
(0.721032 0.204612 0)
(0.57359 0.128921 0)
(0.448716 0.0729293 0)
(0.343394 0.0343701 0)
(0.250878 -0.0119389 0)
(0.162897 -0.0551575 0)
(0.0788765 -0.0953692 0)
(0.00273738 -0.123156 0)
(-0.0648749 -0.147789 0)
(-0.127712 -0.169947 0)
(-0.18741 -0.194308 0)
(-0.245003 -0.230135 0)
(-0.298027 -0.245852 0)
(-0.344621 -0.263496 0)
(-0.388041 -0.266793 0)
(-0.433766 -0.272894 0)
(0.223709 2.06751 0)
(0.61166 1.93721 0)
(0.852901 1.51176 0)
(0.933065 1.15151 0)
(0.900729 0.84725 0)
(0.810965 0.637158 0)
(0.699829 0.474058 0)
(0.583441 0.34487 0)
(0.469663 0.251264 0)
(0.366267 0.180064 0)
(0.274702 0.125165 0)
(0.192615 0.0727945 0)
(0.115616 0.0259636 0)
(0.0417979 -0.0178146 0)
(-0.0279667 -0.0540324 0)
(-0.0903141 -0.0862614 0)
(-0.143643 -0.114688 0)
(-0.190713 -0.142228 0)
(-0.239114 -0.175655 0)
(-0.290823 -0.19504 0)
(-0.342815 -0.215195 0)
(-0.390172 -0.22383 0)
(-0.431312 -0.228525 0)
(0.138944 1.70297 0)
(0.396509 1.65288 0)
(0.579266 1.3699 0)
(0.661849 1.12979 0)
(0.667601 0.895711 0)
(0.625091 0.721683 0)
(0.557288 0.569426 0)
(0.475481 0.448749 0)
(0.388022 0.349689 0)
(0.301639 0.272424 0)
(0.218918 0.208015 0)
(0.140598 0.151203 0)
(0.0659924 0.0999645 0)
(-0.00454215 0.053304 0)
(-0.0707116 0.0115053 0)
(-0.132756 -0.0267456 0)
(-0.191116 -0.0619196 0)
(-0.244648 -0.0938567 0)
(-0.293255 -0.126499 0)
(-0.336712 -0.148521 0)
(-0.374578 -0.171376 0)
(-0.40741 -0.18703 0)
(-0.43497 -0.196254 0)
(0.091411 1.47142 0)
(0.268672 1.44735 0)
(0.404428 1.25527 0)
(0.474385 1.0911 0)
(0.490678 0.912259 0)
(0.468548 0.770129 0)
(0.422577 0.635364 0)
(0.361337 0.526621 0)
(0.292034 0.429412 0)
(0.22014 0.351817 0)
(0.149173 0.283125 0)
(0.0805397 0.223825 0)
(0.014424 0.168811 0)
(-0.0489996 0.119127 0)
(-0.109255 0.0727791 0)
(-0.165035 0.0304321 0)
(-0.216042 -0.00914826 0)
(-0.262759 -0.0458432 0)
(-0.306438 -0.0817323 0)
(-0.346315 -0.109506 0)
(-0.381659 -0.136787 0)
(-0.411872 -0.158231 0)
(-0.436074 -0.173009 0)
(0.0621376 1.31707 0)
(0.184677 1.30034 0)
(0.28235 1.16765 0)
(0.337671 1.05281 0)
(0.356376 0.915386 0)
(0.345772 0.799921 0)
(0.314206 0.683527 0)
(0.267402 0.58708 0)
(0.210851 0.495477 0)
(0.148881 0.420328 0)
(0.0849224 0.350257 0)
(0.0210166 0.289937 0)
(-0.0417167 0.232233 0)
(-0.102036 0.180106 0)
(-0.159476 0.130122 0)
(-0.213833 0.0838128 0)
(-0.264463 0.0396489 0)
(-0.3102 -0.0016915 0)
(-0.350319 -0.0416362 0)
(-0.384711 -0.0749347 0)
(-0.413519 -0.10686 0)
(-0.437693 -0.133475 0)
(-0.457229 -0.153787 0)
(0.0418022 1.2126 0)
(0.12507 1.19794 0)
(0.19264 1.10394 0)
(0.232285 1.02106 0)
(0.246517 0.914039 0)
(0.238402 0.820097 0)
(0.213126 0.720502 0)
(0.174881 0.63561 0)
(0.127791 0.551141 0)
(0.0750079 0.480028 0)
(0.0192294 0.41093 0)
(-0.0378087 0.350851 0)
(-0.0949298 0.291811 0)
(-0.15093 0.237467 0)
(-0.204863 0.184727 0)
(-0.25586 0.135124 0)
(-0.303367 0.086998 0)
(-0.347098 0.0409062 0)
(-0.387327 -0.00345533 0)
(-0.423696 -0.0419746 0)
(-0.45649 -0.0778841 0)
(-0.486658 -0.107815 0)
(-0.514538 -0.131774 0)
(0.0285035 1.14193 0)
(0.0843199 1.12881 0)
(0.12853 1.06072 0)
(0.154182 0.998653 0)
(0.162354 0.913934 0)
(0.153674 0.837097 0)
(0.130883 0.751831 0)
(0.0964826 0.677317 0)
(0.0534458 0.600043 0)
(0.00439265 0.533505 0)
(-0.0484009 0.466604 0)
(-0.102843 0.40725 0)
(-0.157251 0.347533 0)
(-0.210434 0.291508 0)
(-0.261754 0.236498 0)
(-0.310703 0.183831 0)
(-0.35682 0.132415 0)
(-0.400159 0.083025 0)
(-0.441327 0.0362588 0)
(-0.481591 -0.00464468 0)
(-0.522002 -0.041617 0)
(-0.563398 -0.0721343 0)
(-0.602453 -0.10016 0)
(0.0175768 1.09561 0)
(0.05207 1.08435 0)
(0.0783273 1.03435 0)
(0.0913494 0.986158 0)
(0.0918269 0.917744 0)
(0.0798839 0.854028 0)
(0.0573145 0.780507 0)
(0.0256223 0.715089 0)
(-0.0134253 0.644794 0)
(-0.0582317 0.583114 0)
(-0.107028 0.519125 0)
(-0.158067 0.460771 0)
(-0.209996 0.400914 0)
(-0.261781 0.343653 0)
(-0.312645 0.287082 0)
(-0.362097 0.232174 0)
(-0.41022 0.178817 0)
(-0.457935 0.128163 0)
(-0.507249 0.0820855 0)
(-0.559624 0.0426603 0)
(-0.614851 0.00722455 0)
(-0.666518 -0.0274164 0)
(-0.701818 -0.0701234 0)
(0.00794844 1.06996 0)
(0.024747 1.05846 0)
(0.0373357 1.02121 0)
(0.040738 0.982801 0)
(0.0344377 0.926964 0)
(0.0179752 0.873371 0)
(-0.00757556 0.809545 0)
(-0.0410993 0.751617 0)
(-0.0811035 0.68774 0)
(-0.126144 0.630494 0)
(-0.174353 0.569266 0)
(-0.224357 0.512211 0)
(-0.275257 0.452851 0)
(-0.326571 0.395364 0)
(-0.37822 0.33843 0)
(-0.430363 0.282961 0)
(-0.484096 0.23043 0)
(-0.541315 0.182041 0)
(-0.602888 0.139682 0)
(-0.666355 0.101519 0)
(-0.721599 0.0594247 0)
(-0.755453 0.00636086 0)
(-0.766028 -0.0577761 0)
(0.00128935 1.06068 0)
(0.0040386 1.0481 0)
(0.00383941 1.01912 0)
(-0.00202459 0.98737 0)
(-0.0145619 0.94134 0)
(-0.034571 0.895667 0)
(-0.0616607 0.840174 0)
(-0.0954596 0.788672 0)
(-0.135035 0.73069 0)
(-0.179335 0.67736 0)
(-0.226986 0.61877 0)
(-0.276993 0.56325 0)
(-0.328851 0.505116 0)
(-0.382556 0.448678 0)
(-0.438606 0.393389 0)
(-0.498058 0.34019 0)
(-0.562118 0.291619 0)
(-0.631438 0.248058 0)
(-0.702291 0.206793 0)
(-0.760778 0.157011 0)
(-0.792453 0.0913168 0)
(-0.799576 0.0156675 0)
(-0.796025 -0.0600135 0)
(-0.00332677 1.06273 0)
(-0.0110865 1.05109 0)
(-0.0222427 1.02756 0)
(-0.037578 1.00026 0)
(-0.0580222 0.961614 0)
(-0.0843523 0.921983 0)
(-0.116572 0.873486 0)
(-0.154308 0.827278 0)
(-0.196631 0.774419 0)
(-0.242654 0.724433 0)
(-0.291638 0.668847 0)
(-0.343393 0.615477 0)
(-0.397883 0.559803 0)
(-0.455791 0.506197 0)
(-0.518224 0.45498 0)
(-0.586499 0.407001 0)
(-0.66074 0.363839 0)
(-0.735416 0.320595 0)
(-0.793229 0.263605 0)
(-0.819722 0.185633 0)
(-0.821986 0.0968189 0)
(-0.815653 0.0109682 0)
(-0.81026 -0.0642962 0)
(-0.00755828 1.07368 0)
(-0.0238056 1.06429 0)
(-0.0430259 1.0449 0)
(-0.0654763 1.0209 0)
(-0.0915947 0.987786 0)
(-0.122054 0.952907 0)
(-0.15727 0.910359 0)
(-0.197209 0.868496 0)
(-0.2413 0.820076 0)
(-0.289099 0.773098 0)
(-0.340365 0.720966 0)
(-0.395228 0.670542 0)
(-0.454227 0.618829 0)
(-0.518618 0.570117 0)
(-0.589838 0.525418 0)
(-0.668417 0.484193 0)
(-0.748021 0.441305 0)
(-0.809067 0.37957 0)
(-0.83603 0.289858 0)
(-0.838342 0.188343 0)
(-0.832685 0.0907044 0)
(-0.826221 0.0042286 0)
(-0.821572 -0.0676432 0)
(-0.0117215 1.09306 0)
(-0.0360795 1.08573 0)
(-0.0629765 1.06983 0)
(-0.0929358 1.04867 0)
(-0.126375 1.0199 0)
(-0.163572 0.988816 0)
(-0.204682 0.951182 0)
(-0.249513 0.912894 0)
(-0.298004 0.868752 0)
(-0.350305 0.825054 0)
(-0.406761 0.777304 0)
(-0.468085 0.731008 0)
(-0.534724 0.684666 0)
(-0.607818 0.64249 0)
(-0.687105 0.604345 0)
(-0.766416 0.563992 0)
(-0.826226 0.501658 0)
(-0.850283 0.404774 0)
(-0.849743 0.291222 0)
(-0.842151 0.18168 0)
(-0.833294 0.0827847 0)
(-0.824844 -0.00283457 0)
(-0.815071 -0.0750698 0)
(-0.0151817 1.12011 0)
(-0.0461119 1.11427 0)
(-0.0787307 1.10113 0)
(-0.113641 1.08259 0)
(-0.151399 1.05756 0)
(-0.192351 1.02972 0)
(-0.236697 0.996184 0)
(-0.284453 0.960972 0)
(-0.335714 0.920956 0)
(-0.390897 0.880905 0)
(-0.450777 0.838407 0)
(-0.516622 0.797747 0)
(-0.589985 0.758668 0)
(-0.671517 0.723929 0)
(-0.75508 0.686615 0)
(-0.820508 0.627228 0)
(-0.84909 0.527284 0)
(-0.850978 0.405236 0)
(-0.845486 0.284703 0)
(-0.837495 0.172542 0)
(-0.826674 0.0721492 0)
(-0.811463 -0.0159758 0)
(-0.78986 -0.0934616 0)
(-0.0190986 1.15457 0)
(-0.0577473 1.14975 0)
(-0.0977871 1.13869 0)
(-0.139912 1.12247 0)
(-0.184719 1.10067 0)
(-0.232508 1.07582 0)
(-0.283481 1.04592 0)
(-0.337651 1.01371 0)
(-0.395326 0.977734 0)
(-0.456762 0.941365 0)
(-0.522838 0.904569 0)
(-0.594755 0.870073 0)
(-0.672803 0.838551 0)
(-0.754269 0.807903 0)
(-0.822039 0.754774 0)
(-0.854278 0.657255 0)
(-0.856616 0.528345 0)
(-0.848846 0.398269 0)
(-0.836641 0.273887 0)
(-0.819701 0.158304 0)
(-0.797715 0.0534161 0)
(-0.769672 -0.0407162 0)
(-0.735872 -0.124407 0)
(-0.0218007 1.19569 0)
(-0.065635 1.19156 0)
(-0.110317 1.18206 0)
(-0.156521 1.1679 0)
(-0.204917 1.14894 0)
(-0.255956 1.1269 0)
(-0.310072 1.10048 0)
(-0.367683 1.07152 0)
(-0.429237 1.03978 0)
(-0.495347 1.00754 0)
(-0.566666 0.976517 0)
(-0.64477 0.948938 0)
(-0.728723 0.922542 0)
(-0.803268 0.880747 0)
(-0.84357 0.790577 0)
(-0.84947 0.659798 0)
(-0.842353 0.521004 0)
(-0.829993 0.385382 0)
(-0.811164 0.255584 0)
(-0.786648 0.134941 0)
(-0.756541 0.0244206 0)
(-0.721983 -0.0746421 0)
(-0.683716 -0.162919 0)
(-0.025843 1.24359 0)
(-0.0777639 1.23992 0)
(-0.130449 1.23157 0)
(-0.184512 1.21919 0)
(-0.240517 1.20261 0)
(-0.298847 1.18318 0)
(-0.359873 1.15995 0)
(-0.424059 1.13449 0)
(-0.491873 1.10687 0)
(-0.563503 1.07892 0)
(-0.639681 1.05341 0)
(-0.719684 1.03099 0)
(-0.793634 0.999232 0)
(-0.83883 0.924432 0)
(-0.847067 0.795694 0)
(-0.837197 0.650695 0)
(-0.820855 0.506531 0)
(-0.797481 0.363941 0)
(-0.768795 0.229269 0)
(-0.736301 0.103955 0)
(-0.700646 -0.0106935 0)
(-0.662051 -0.113056 0)
(-0.620368 -0.204867 0)
(-0.0276807 1.29739 0)
(-0.0832885 1.29422 0)
(-0.139616 1.28687 0)
(-0.197151 1.27608 0)
(-0.256403 1.26159 0)
(-0.317851 1.24462 0)
(-0.382087 1.22444 0)
(-0.449784 1.20258 0)
(-0.521705 1.17925 0)
(-0.598177 1.15542 0)
(-0.678725 1.13446 0)
(-0.757934 1.10999 0)
(-0.815161 1.05211 0)
(-0.833485 0.935419 0)
(-0.826504 0.785977 0)
(-0.811224 0.635137 0)
(-0.788452 0.482778 0)
(-0.759366 0.334966 0)
(-0.726532 0.19641 0)
(-0.69022 0.0676547 0)
(-0.651095 -0.049559 0)
(-0.609638 -0.154656 0)
(-0.565706 -0.249326 0)
(-0.0328519 1.35825 0)
(-0.0985091 1.35527 0)
(-0.164112 1.34839 0)
(-0.230147 1.33878 0)
(-0.297393 1.32606 0)
(-0.366251 1.31115 0)
(-0.436842 1.29345 0)
(-0.509683 1.27485 0)
(-0.58523 1.25522 0)
(-0.662826 1.23433 0)
(-0.739495 1.2136 0)
(-0.801276 1.17258 0)
(-0.828642 1.07455 0)
(-0.823593 0.926321 0)
(-0.804258 0.768627 0)
(-0.777031 0.609762 0)
(-0.742788 0.450846 0)
(-0.705455 0.300137 0)
(-0.666416 0.158995 0)
(-0.626298 0.0282446 0)
(-0.584886 -0.0911025 0)
(-0.542181 -0.197709 0)
(-0.498154 -0.294688 0)
(-0.0333697 1.42482 0)
(-0.100261 1.42195 0)
(-0.167746 1.41551 0)
(-0.236395 1.40706 0)
(-0.306523 1.39587 0)
(-0.378331 1.38274 0)
(-0.452115 1.36699 0)
(-0.52818 1.351 0)
(-0.606645 1.3339 0)
(-0.686293 1.31373 0)
(-0.75956 1.28493 0)
(-0.80524 1.20928 0)
(-0.811678 1.07184 0)
(-0.795653 0.907855 0)
(-0.771122 0.743004 0)
(-0.73887 0.575602 0)
(-0.70195 0.413478 0)
(-0.66346 0.261293 0)
(-0.623179 0.118109 0)
(-0.581336 -0.0132537 0)
(-0.538416 -0.134374 0)
(-0.494168 -0.241841 0)
(-0.449274 -0.339939 0)
(-0.0394679 1.49804 0)
(-0.118389 1.49531 0)
(-0.197282 1.4893 0)
(-0.276016 1.48143 0)
(-0.354819 1.47122 0)
(-0.434126 1.45931 0)
(-0.513851 1.44474 0)
(-0.593622 1.42991 0)
(-0.671642 1.4123 0)
(-0.743606 1.38774 0)
(-0.795414 1.33666 0)
(-0.811008 1.21916 0)
(-0.796113 1.05347 0)
(-0.767281 0.881139 0)
(-0.730555 0.708149 0)
(-0.688828 0.536096 0)
(-0.645914 0.372738 0)
(-0.602658 0.219864 0)
(-0.559179 0.0753444 0)
(-0.515542 -0.0564125 0)
(-0.472309 -0.177816 0)
(-0.429089 -0.286321 0)
(-0.385465 -0.384436 0)
(-0.0390758 1.577 0)
(-0.1173 1.57433 0)
(-0.195794 1.5685 0)
(-0.274816 1.56082 0)
(-0.354776 1.55143 0)
(-0.435773 1.54025 0)
(-0.517586 1.5262 0)
(-0.599174 1.51067 0)
(-0.67806 1.48928 0)
(-0.746998 1.45241 0)
(-0.785858 1.36314 0)
(-0.785244 1.20774 0)
(-0.762469 1.02703 0)
(-0.730464 0.846432 0)
(-0.691651 0.66693 0)
(-0.650045 0.493553 0)
(-0.607858 0.329741 0)
(-0.564926 0.176225 0)
(-0.521412 0.0315402 0)
(-0.477385 -0.100729 0)
(-0.433344 -0.221227 0)
(-0.390345 -0.329578 0)
(-0.34789 -0.427707 0)
(-0.0461768 1.6627 0)
(-0.138387 1.65996 0)
(-0.230157 1.65403 0)
(-0.321089 1.64614 0)
(-0.410815 1.6367 0)
(-0.499091 1.62515 0)
(-0.585219 1.61012 0)
(-0.666407 1.59038 0)
(-0.73673 1.55957 0)
(-0.783541 1.49848 0)
(-0.793697 1.36635 0)
(-0.771999 1.18211 0)
(-0.735236 0.992816 0)
(-0.692252 0.805271 0)
(-0.645795 0.622382 0)
(-0.598568 0.448809 0)
(-0.55126 0.284525 0)
(-0.50407 0.130851 0)
(-0.458497 -0.012636 0)
(-0.415548 -0.143982 0)
(-0.374226 -0.263782 0)
(-0.334078 -0.370605 0)
(-0.294813 -0.468828 0)
(-0.0449181 1.75428 0)
(-0.134674 1.75131 0)
(-0.224144 1.74488 0)
(-0.313415 1.73645 0)
(-0.402699 1.72634 0)
(-0.491273 1.71329 0)
(-0.577537 1.69529 0)
(-0.658994 1.66872 0)
(-0.727814 1.62111 0)
(-0.764211 1.52059 0)
(-0.760761 1.35099 0)
(-0.735207 1.14998 0)
(-0.700176 0.952783 0)
(-0.65876 0.760469 0)
(-0.613944 0.575439 0)
(-0.567595 0.40169 0)
(-0.521068 0.237322 0)
(-0.474913 0.0842243 0)
(-0.429438 -0.057533 0)
(-0.386423 -0.185498 0)
(-0.346449 -0.303988 0)
(-0.30838 -0.409026 0)
(-0.271457 -0.506993 0)
(-0.0526463 1.85236 0)