# vtk DataFile Version 2.0
gauge_2
ASCII
DATASET POLYDATA
POINTS 43 double
0.2 0.0359992 0.005
0.2 0.0419991 0.005
0.2 0.047999 0.005
0.2 0.0607609 0.005
0.2 0.0735228 0.005
0.2 0.0862847 0.005
0.2 0.0990467 0.005
0.2 0.111809 0.005
0.2 0.124571 0.005
0.2 0.137332 0.005
0.2 0.150094 0.005
0.2 0.162856 0.005
0.2 0.175618 0.005
0.2 0.18838 0.005
0.2 0.201142 0.005
0.2 0.213904 0.005
0.2 0.226666 0.005
0.2 0.239428 0.005
0.2 0.25219 0.005
0.2 0.264952 0.005
0.2 0.277714 0.005
0.2 0.290476 0.005
0.2 0.303238 0.005
0.2 0.315999 0.005
0.2 0.328761 0.005
0.2 0.341523 0.005
0.2 0.354285 0.005
0.2 0.367047 0.005
0.2 0.379809 0.005
0.2 0.392571 0.005
0.2 0.405333 0.005
0.2 0.418095 0.005
0.2 0.430857 0.005
0.2 0.443619 0.005
0.2 0.456381 0.005
0.2 0.469143 0.005
0.2 0.481905 0.005
0.2 0.494666 0.005
0.2 0.507428 0.005
0.2 0.52019 0.005
0.2 0.532952 0.005
0.2 0.545714 0.005
0.2 0.558476 0.005
POINT_DATA 43
 FIELD attributes 1
alpha.water 1 43 float
1 1 1 1 0.823597 0.338607 0.0150108 4.82425e-05 8.52311e-05 3.77394e-05 1.68192e-10 9.21181e-11 6.39209e-09 6.37164e-09 7.39925e-12 2.96335e-12 6.10484e-13 1.01496e-13 2.08269e-14 1.01442e-15 1.13292e-16 2.01998e-17 3.53315e-18 4.66346e-19 4.88179e-20 5.32398e-21 5.07006e-22 4.87416e-23 8.62066e-24 1.64324e-24 3.01443e-25 5.07131e-26 7.60384e-27 1.02183e-27 1.24279e-28 1.3625e-29 1.31318e-30 1.05211e-31 6.38604e-33 2.61697e-34 6.41314e-36 7.47634e-38 2.73627e-40
