/*--------------------------------*- C++ -*----------------------------------*\
| =========                 |                                                 |
| \\      /  F ield         | OpenFOAM: The Open Source CFD Toolbox           |
|  \\    /   O peration     | Version:  3.0.1                                 |
|   \\  /    A nd           | Web:      www.OpenFOAM.org                      |
|    \\/     M anipulation  |                                                 |
\*---------------------------------------------------------------------------*/
FoamFile
{
    version     2.0;
    format      ascii;
    class       volScalarField;
    location    "0.0002";
    object      p;
}
// * * * * * * * * * * * * * * * * * * * * * * * * * * * * * * * * * * * * * //

dimensions      [1 -1 -2 0 0 0 0];

internalField   nonuniform List<scalar> 
1000
(
68970
68970
68970
68970
68970
68970
68970
68970
68970
68970
68970
68970
68970
68970
68970
68970
68970
68970
68970
68970
68970
68970
68970
68969.9
68968.3
68937.8
68659.4
67770
66577.3
65550.6
64811.3
64329
64042.3
63888.4
63814.2
63782.3
63770
63765.7
63764.5
63763.8
63763.2
63762.5
63762
63761.2
63760.2
63759.4
63758.5
63757.8
63757
63755.9
63754.9
63754
63753.2
63752.4
63751.3
63750.2
63749.3
63748.5
63747.9
63746.7
63745.4
63744.3
63743.9
63743.4
63742.5
63739.5
63730.8
63705.9
63643.1
63497.5
63188.9
62590.9
61567.1
60214.7
59240.5
58991.9
58971
58970
58970
58970
58970
58970
58970
58970
58970
58970
58970
58970
58970
58970
58970
58970
58970
58970
58970
58970
58970
58970
58970
58970
68970
68970
68970
68970
68970
68970
68970
68970
68970
68970
68970
68970
68970
68970
68970
68970
68970
68970
68970
68970
68970
68970
68970
68969.9
68968.3
68938.3
68662
67774.2
66579.3
65550.5
64810.4
64328.3
64042.1
63888.8
63815
63783.2
63770.8
63766.9
63765.2
63764
63763.1
63762.2
63761.4
63760.6
63759.5
63758.8
63757.9
63757.4
63756.6
63755.7
63754.8
63754.1
63753.5
63752.8
63751.9
63750.8
63750
63749.3
63748.5
63747.3
63745.8
63744.5
63743.5
63742.5
63741.2
63738.5
63729.8
63705.4
63643.4
63499
63191.3
62592.3
61564.9
60208.9
59237.6
58991.5
58971
58970
58970
58970
58970
58970
58970
58970
58970
58970
58970
58970
58970
58970
58970
58970
58970
58970
58970
58970
58970
58970
58970
58970
68970
68970
68970
68970
68970
68970
68970
68970
68970
68970
68970
68970
68970
68970
68970
68970
68970
68970
68970
68970
68970
68970
68970
68969.9
68968.2
68936.8
68653.4
67760.2
66572
65552.4
64818.1
64338.4
64052.2
63897.3
63821.3
63787.2
63772.5
63766.1
63763.2
63761.7
63760.8
63760.2
63759.7
63759
63758.3
63757.7
63757.2
63756.8
63756.2
63755.4
63754.7
63754.2
63753.7
63753.1
63752.4
63751.5
63751.1
63750.5
63749.9
63749.1
63747.8
63746.8
63745.8
63744.4
63741.8
63736.5
63725.1
63698
63633.4
63487.2
63180.3
62587.2
61571.9
60225.9
59246.5
58992.6
58971
58970
58970
58970
58970
58970
58970
58970
58970
58970
58970
58970
58970
58970
58970
58970
58970
58970
58970
58970
58970
58970
58970
58970
68970
68970
68970
68970
68970
68970
68970
68970
68970
68970
68970
68970
68970
68970
68970
68970
68970
68970
68970
68970
68970
68970
68970
68969.9
68968.2
68935.7
68647.3
67749.4
66564.7
65551.9
64822.1
64344
64057.8
63901.9
63824.6
63788.9
63773.1
63766.3
63763
63761.2
63760.2
63759.6
63759.1
63758.6
63757.9
63757.4
63757
63756.6
63756.1
63755.3
63754.7
63754.2
63753.8
63753.2
63752.5
63751.5
63751.2
63750.7
63750.3
63749.4
63748.2
63747.1
63746.1
63744.5
63741.6
63735.7
63723.2
63694.3
63627.9
63480.5
63174.1
62585.6
61578.3
60238.9
59254.2
58993.5
58971.1
58970
58970
58970
58970
58970
58970
58970
58970
58970
58970
58970
58970
58970
58970
58970
58970
58970
58970
58970
58970
58970
58970
58970
68970
68970
68970
68970
68970
68970
68970
68970
68970
68970
68970
68970
68970
68970
68970
68970
68970
68970
68970
68970
68970
68970
68970
68969.9
68968.2
68935.9
68650.8
67764.9
66583.6
65560.4
64824.2
64342.5
64054.7
63898.7
63821.5
63786.1
63770.5
63763.8
63761
63759.5
63758.7
63758.3
63757.9
63757.5
63757
63756.7
63756.3
63756.2
63755.8
63755.2
63754.7
63754.3
63754.1
63753.7
63753.1
63752.4
63752.1
63751.8
63751.4
63750.7
63749.6
63748.7
63747.9
63746.7
63744.2
63738.5
63726.3
63698.1
63631.8
63482.8
63170.2
62568.9
61558
60231.7
59253.9
58993.4
58971
58970
58970
58970
58970
58970
58970
58970
58970
58970
58970
58970
58970
58970
58970
58970
58970
58970
58970
58970
58970
58970
58970
58970
68970
68970
68970
68970
68970
68970
68970
68970
68970
68970
68970
68970
68970
68970
68970
68970
68970
68970
68970
68970
68970
68970
68970
68969.9
68968.2
68936.4
68655.4
67783.4
66606.4
65566.3
64820.3
64334.8
64045.9
63890.2
63814.5
63781.4
63767.9
63763
63761.2
63760
63759.3
63758.7
63758.3
63757.8
63757.2
63756.8
63756.4
63756.2
63755.8
63755.2
63754.6
63754.3
63754
63753.7
63753.1
63752.4
63751.9
63751.6
63751.2
63750.2
63748.9
63747.9
63747.3
63746.4
63744.3
63741.1
63731.7
63706.5
63641.9
63492.1
63173.1
62555.5
61538.6
60222
59250.8
58993.2
58971
58970
58970
58970
58970
58970
58970
58970
58970
58970
58970
58970
58970
58970
58970
58970
58970
58970
58970
58970
58970
58970
58970
58970
68970
68970
68970
68970
68970
68970
68970
68970
68970
68970
68970
68970
68970
68970
68970
68970
68970
68970
68970
68970
68970
68970
68970
68969.9
68968.2
68937.5
68660.9
67789.1
66608.6
65570
64822.9
64335.5
64045.3
63887.3
63810.6
63778.7
63765.6
63761
63759.4
63758.5
63758
63757.6
63757.4
63757
63756.6
63756.4
63756
63756
63755.6
63755.1
63754.6
63754.3
63754.1
63753.8
63753.3
63752.6
63752.4
63752.2
63752.1
63751.3
63750.2
63749.5
63749.4
63748.7
63747
63743.5
63734.6
63710.1
63644.8
63492.6
63173.4
62557.9
61534.5
60207.8
59243.4
58992.5
58971
58970
58970
58970
58970
58970
58970
58970
58970
58970
58970
58970
58970
58970
58970
58970
58970
58970
58970
58970
58970
58970
58970
58970
68970
68970
68970
68970
68970
68970
68970
68970
68970
68970
68970
68970
68970
68970
68970
68970
68970
68970
68970
68970
68970
68970
68970
68969.9
68968.4
68939.3
68670.8
67799.5
66610.4
65573.4
64824.3
64334.5
64041.9
63884.9
63809
63775.3
63763.1
63759.6
63758.4
63757.8
63757.4
63757.3
63757
63756.7
63756.3
63756.1
63755.9
63755.7
63755.5
63755
63754.7
63754.4
63754.1
63753.9
63753.5
63752.8
63752.6
63752.4
63752.2
63751.7
63750.9
63750.2
63749.8
63749.3
63749.1
63746.9
63738.4
63711.9
63646.9
63497.1
63178.5
62564.8
61530.5
60185.4
59230.8
58990.9
58970.9
58970
58970
58970
58970
58970
58970
58970
58970
58970
58970
58970
58970
58970
58970
58970
58970
58970
58970
58970
58970
58970
58970
58970
68970
68970
68970
68970
68970
68970
68970
68970
68970
68970
68970
68970
68970
68970
68970
68970
68970
68970
68970
68970
68970
68970
68970
68969.9
68968.5
68940.9
68679.7
67813.4
66618.5
65576.4
64823.1
64330.8
64037.8
63880.7
63805.4
63773
63761.1
63757.7
63756.7
63756.5
63756.7
63757.1
63757.2
63757
63756.7
63756.4
63756.2
63755.9
63755.6
63755.1
63754.7
63754.4
63754.1
63753.8
63753.3
63752.6
63752.3
63752
63751.7
63751.3
63751
63751
63750.9
63750.7
63750.6
63749
63740.7
63716.1
63652.7
63503.2
63184.2
62566.7
61520.7
60164.3
59220
58989.6
58970.9
58970
58970
58970
58970
58970
58970
58970
58970
58970
58970
58970
58970
58970
58970
58970
58970
58970
58970
58970
58970
58970
58970
58970
68970
68970
68970
68970
68970
68970
68970
68970
68970
68970
68970
68970
68970
68970
68970
68970
68970
68970
68970
68970
68970
68970
68970
68969.9
68968.4
68940.4
68676.6
67806.6
66614.3
65577.5
64826.8
64334.9
64041.1
63882.6
63805.8
63772.4
63759.7
63755.7
63754.3
63754.4
63754.9
63755.3
63755.8
63756
63755.9
63755.8
63755.8
63755.6
63755.4
63755
63754.7
63754.5
63754.2
63753.9
63753.5
63753
63752.8
63752.6
63752.7
63752.6
63752.7
63752.9
63753.1
63753.2
63752.4
63750.1
63741
63715.1
63649.7
63498.6
63179.8
62566
61524.9
60170.4
59222.6
58989.9
58970.9
58970
58970
58970
58970
58970
58970
58970
58970
58970
58970
58970
58970
58970
58970
58970
58970
58970
58970
58970
58970
58970
58970
58970
)
;

boundaryField
{
    sides1
    {
        type            zeroGradient;
    }
    sides2
    {
        type            slip;
    }
    empty
    {
        type            empty;
    }
}


// ************************************************************************* //
