/*--------------------------------*- C++ -*----------------------------------*\
| =========                 |                                                 |
| \\      /  F ield         | OpenFOAM: The Open Source CFD Toolbox           |
|  \\    /   O peration     | Version:  3.0.1                                 |
|   \\  /    A nd           | Web:      www.OpenFOAM.org                      |
|    \\/     M anipulation  |                                                 |
\*---------------------------------------------------------------------------*/
FoamFile
{
    version     2.0;
    format      ascii;
    class       volScalarField;
    location    "0.0002";
    object      rho;
}
// * * * * * * * * * * * * * * * * * * * * * * * * * * * * * * * * * * * * * //

dimensions      [1 -3 0 0 0 0 0];

internalField   nonuniform List<scalar> 
1000
(
0.83124
0.83124
0.83124
0.83124
0.83124
0.83124
0.83124
0.83124
0.83124
0.83124
0.83124
0.83124
0.83124
0.83124
0.83124
0.83124
0.83124
0.83124
0.83124
0.83124
0.83124
0.83124
0.83124
0.831239
0.831224
0.830959
0.828545
0.820732
0.810257
0.801331
0.794944
0.790789
0.788322
0.786999
0.786369
0.786108
0.786008
0.785962
0.785935
0.785907
0.785891
0.785899
0.785958
0.786066
0.786158
0.786185
0.786086
0.785552
0.783826
0.779985
0.77373
0.766135
0.759211
0.754493
0.75213
0.751299
0.751123
0.751116
0.751162
0.75125
0.751326
0.751348
0.751344
0.751328
0.751304
0.751264
0.751189
0.750999
0.750499
0.749316
0.74679
0.741841
0.733204
0.721517
0.713049
0.71091
0.710727
0.710718
0.710718
0.710718
0.710718
0.710718
0.710718
0.710718
0.710718
0.710718
0.710718
0.710718
0.710718
0.710718
0.710718
0.710718
0.710718
0.710718
0.710718
0.710718
0.710718
0.710718
0.710718
0.710718
0.83124
0.83124
0.83124
0.83124
0.83124
0.83124
0.83124
0.83124
0.83124
0.83124
0.83124
0.83124
0.83124
0.83124
0.83124
0.83124
0.83124
0.83124
0.83124
0.83124
0.83124
0.83124
0.83124
0.831239
0.831224
0.830964
0.828573
0.82078
0.810287
0.801338
0.794937
0.790778
0.788311
0.786992
0.786366
0.786109
0.786012
0.785973
0.785942
0.785912
0.785893
0.785899
0.785955
0.786062
0.786153
0.786181
0.786082
0.785549
0.783825
0.779987
0.773736
0.766142
0.759217
0.754499
0.752136
0.751305
0.75113
0.751122
0.751166
0.751253
0.751325
0.751348
0.751338
0.75132
0.751293
0.75126
0.751189
0.751004
0.750511
0.749335
0.746809
0.741844
0.733167
0.721452
0.71302
0.710906
0.710727
0.710718
0.710718
0.710718
0.710718
0.710718
0.710718
0.710718
0.710718
0.710718
0.710718
0.710718
0.710718
0.710718
0.710718
0.710718
0.710718
0.710718
0.710718
0.710718
0.710718
0.710718
0.710718
0.710718
0.83124
0.83124
0.83124
0.83124
0.83124
0.83124
0.83124
0.83124
0.83124
0.83124
0.83124
0.83124
0.83124
0.83124
0.83124
0.83124
0.83124
0.83124
0.83124
0.83124
0.83124
0.83124
0.83124
0.831239
0.831224
0.830951
0.828493
0.820644
0.81021
0.801347
0.795003
0.79087
0.788406
0.787074
0.786428
0.786149
0.786033
0.78597
0.785925
0.785891
0.785872
0.78588
0.78594
0.78605
0.786143
0.786172
0.786077
0.785546
0.783826
0.779993
0.773746
0.766152
0.759226
0.754505
0.752143
0.751312
0.751139
0.751134
0.751178
0.751268
0.751344
0.75137
0.751361
0.751337
0.751296
0.751238
0.751146
0.750938
0.750422
0.749234
0.746721
0.741811
0.733245
0.721615
0.713101
0.710916
0.710727
0.710718
0.710718
0.710718
0.710718
0.710718
0.710718
0.710718
0.710718
0.710718
0.710718
0.710718
0.710718
0.710718
0.710718
0.710718
0.710718
0.710718
0.710718
0.710718
0.710718
0.710718
0.710718
0.710718
0.83124
0.83124
0.83124
0.83124
0.83124
0.83124
0.83124
0.83124
0.83124
0.83124
0.83124
0.83124
0.83124
0.83124
0.83124
0.83124
0.83124
0.83124
0.83124
0.83124
0.83124
0.83124
0.83124
0.831239
0.831223
0.83094
0.828437
0.820542
0.810132
0.801327
0.795026
0.790911
0.788452
0.787116
0.786459
0.786168
0.786043
0.785977
0.785929
0.785892
0.785871
0.785878
0.785938
0.786048
0.786142
0.786171
0.786077
0.785546
0.783828
0.779997
0.773751
0.766157
0.759229
0.754506
0.752142
0.75131
0.751139
0.751133
0.751178
0.751268
0.751344
0.751369
0.75136
0.751333
0.75129
0.751228
0.751128
0.750908
0.750382
0.749189
0.746685
0.741819
0.733315
0.721735
0.71317
0.710924
0.710728
0.710718
0.710718
0.710718
0.710718
0.710718
0.710718
0.710718
0.710718
0.710718
0.710718
0.710718
0.710718
0.710718
0.710718
0.710718
0.710718
0.710718
0.710718
0.710718
0.710718
0.710718
0.710718
0.710718
0.83124
0.83124
0.83124
0.83124
0.83124
0.83124
0.83124
0.83124
0.83124
0.83124
0.83124
0.83124
0.83124
0.83124
0.83124
0.83124
0.83124
0.83124
0.83124
0.83124
0.83124
0.83124
0.83124
0.831239
0.831223
0.830942
0.828468
0.820689
0.810322
0.801419
0.795059
0.790909
0.788432
0.787089
0.786432
0.786141
0.786016
0.78595
0.785905
0.785871
0.785852
0.785863
0.785924
0.786035
0.786131
0.786162
0.786069
0.78554
0.783823
0.779993
0.773748
0.766155
0.75923
0.754509
0.752148
0.751318
0.751148
0.751144
0.751191
0.751283
0.751359
0.751386
0.75138
0.751357
0.751317
0.751255
0.751154
0.750937
0.750406
0.749194
0.746632
0.741643
0.733115
0.721672
0.713171
0.710924
0.710728
0.710718
0.710718
0.710718
0.710718
0.710718
0.710718
0.710718
0.710718
0.710718
0.710718
0.710718
0.710718
0.710718
0.710718
0.710718
0.710718
0.710718
0.710718
0.710718
0.710718
0.710718
0.710718
0.710718
0.83124
0.83124
0.83124
0.83124
0.83124
0.83124
0.83124
0.83124
0.83124
0.83124
0.83124
0.83124
0.83124
0.83124
0.83124
0.83124
0.83124
0.83124
0.83124
0.83124
0.83124
0.83124
0.83124
0.831239
0.831223
0.830946
0.828503
0.820858
0.810546
0.801476
0.795023
0.790835
0.788344
0.787004
0.786361
0.786092
0.785987
0.785939
0.785907
0.785876
0.785859
0.785868
0.785929
0.786039
0.786133
0.786164
0.78607
0.78554
0.783821
0.779987
0.773739
0.766145
0.75922
0.754502
0.752142
0.751315
0.751143
0.75114
0.751186
0.751276
0.751351
0.751376
0.751371
0.751353
0.751319
0.751281
0.751205
0.751013
0.750497
0.749276
0.746653
0.741498
0.732933
0.721598
0.713145
0.710922
0.710728
0.710718
0.710718
0.710718
0.710718
0.710718
0.710718
0.710718
0.710718
0.710718
0.710718
0.710718
0.710718
0.710718
0.710718
0.710718
0.710718
0.710718
0.710718
0.710718
0.710718
0.710718
0.710718
0.710718
0.83124
0.83124
0.83124
0.83124
0.83124
0.83124
0.83124
0.83124
0.83124
0.83124
0.83124
0.83124
0.83124
0.83124
0.83124
0.83124
0.83124
0.83124
0.83124
0.83124
0.83124
0.83124
0.83124
0.831239
0.831224
0.830955
0.828551
0.820897
0.810543
0.801494
0.79504
0.790841
0.788346
0.786987
0.786335
0.786078
0.785971
0.785922
0.78589
0.785861
0.785845
0.785856
0.785918
0.786029
0.786126
0.786159
0.786065
0.785536
0.783814
0.779977
0.773726
0.766133
0.759211
0.754498
0.752141
0.751316
0.751147
0.751145
0.751195
0.751288
0.751364
0.75139
0.751388
0.751372
0.75134
0.751294
0.751219
0.751035
0.750516
0.749278
0.746664
0.741547
0.73292
0.721476
0.713082
0.710916
0.710728
0.710718
0.710718
0.710718
0.710718
0.710718
0.710718
0.710718
0.710718
0.710718
0.710718
0.710718
0.710718
0.710718
0.710718
0.710718
0.710718
0.710718
0.710718
0.710718
0.710718
0.710718
0.710718
0.710718
0.83124
0.83124
0.83124
0.83124
0.83124
0.83124
0.83124
0.83124
0.83124
0.83124
0.83124
0.83124
0.83124
0.83124
0.83124
0.83124
0.83124
0.83124
0.83124
0.83124
0.83124
0.83124
0.83124
0.831239
0.831225
0.830971
0.828642
0.820988
0.810546
0.801524
0.795052
0.790833
0.788314
0.786966
0.786322
0.786046
0.785948
0.785911
0.785883
0.785856
0.785843
0.785855
0.785916
0.786027
0.786123
0.786156
0.786065
0.785532
0.783809
0.779968
0.773716
0.766124
0.759206
0.754495
0.75214
0.751316
0.751147
0.751145
0.751195
0.751288
0.751367
0.751393
0.751388
0.751371
0.751353
0.751323
0.751252
0.751046
0.75053
0.749316
0.746708
0.741622
0.732893
0.72127
0.712969
0.710902
0.710727
0.710718
0.710718
0.710718
0.710718
0.710718
0.710718
0.710718
0.710718
0.710718
0.710718
0.710718
0.710718
0.710718
0.710718
0.710718
0.710718
0.710718
0.710718
0.710718
0.710718
0.710718
0.710718
0.710718
0.83124
0.83124
0.83124
0.83124
0.83124
0.83124
0.83124
0.83124
0.83124
0.83124
0.83124
0.83124
0.83124
0.83124
0.83124
0.83124
0.83124
0.83124
0.83124
0.83124
0.83124
0.83124
0.83124
0.831239
0.831226
0.830986
0.828726
0.821126
0.810632
0.801561
0.795043
0.790795
0.78827
0.78692
0.786282
0.786021
0.785928
0.785893
0.785868
0.785845
0.785837
0.785855
0.78592
0.786032
0.786129
0.78616
0.786069
0.785534
0.783809
0.779965
0.773711
0.76612
0.759203
0.754493
0.752137
0.751312
0.751142
0.751139
0.751188
0.751282
0.751365
0.751397
0.751397
0.751383
0.751367
0.751344
0.751276
0.751091
0.750588
0.749372
0.746752
0.741626
0.732787
0.721065
0.712868
0.71089
0.710726
0.710718
0.710718
0.710718
0.710718
0.710718
0.710718
0.710718
0.710718
0.710718
0.710718
0.710718
0.710718
0.710718
0.710718
0.710718
0.710718
0.710718
0.710718
0.710718
0.710718
0.710718
0.710718
0.710718
0.83124
0.83124
0.83124
0.83124
0.83124
0.83124
0.83124
0.83124
0.83124
0.83124
0.83124
0.83124
0.83124
0.83124
0.83124
0.83124
0.83124
0.83124
0.83124
0.83124
0.83124
0.83124
0.83124
0.831239
0.831226
0.830981
0.828695
0.821053
0.810578
0.80156
0.795076
0.790839
0.788311
0.786949
0.786295
0.786022
0.785919
0.785876
0.785845
0.785824
0.785818
0.785836
0.785904
0.786019
0.786119
0.786153
0.786063
0.78553
0.783805
0.779962
0.773709
0.766119
0.759204
0.754495
0.752141
0.751317
0.751148
0.751148
0.7512
0.751297
0.751382
0.751417
0.751419
0.751406
0.751382
0.75135
0.751271
0.751072
0.750552
0.749325
0.746716
0.741636
0.732846
0.721133
0.712895
0.710893
0.710726
0.710718
0.710718
0.710718
0.710718
0.710718
0.710718
0.710718
0.710718
0.710718
0.710718
0.710718
0.710718
0.710718
0.710718
0.710718
0.710718
0.710718
0.710718
0.710718
0.710718
0.710718
0.710718
0.710718
)
;

boundaryField
{
    sides1
    {
        type            calculated;
        value           nonuniform List<scalar> 
20
(
0.710718
0.710718
0.710718
0.710718
0.710718
0.710718
0.710718
0.710718
0.710718
0.710718
0.83124
0.83124
0.83124
0.83124
0.83124
0.83124
0.83124
0.83124
0.83124
0.83124
)
;
    }
    sides2
    {
        type            calculated;
        value           nonuniform List<scalar> 
200
(
0.83124
0.83124
0.83124
0.83124
0.83124
0.83124
0.83124
0.83124
0.83124
0.83124
0.83124
0.83124
0.83124
0.83124
0.83124
0.83124
0.83124
0.83124
0.83124
0.83124
0.83124
0.83124
0.83124
0.831239
0.831224
0.830959
0.828545
0.820732
0.810257
0.801331
0.794944
0.790789
0.788322
0.786999
0.786369
0.786108
0.786008
0.785962
0.785935
0.785907
0.785891
0.785899
0.785958
0.786066
0.786158
0.786185
0.786086
0.785552
0.783826
0.779985
0.77373
0.766135
0.759211
0.754493
0.75213
0.751299
0.751123
0.751116
0.751162
0.75125
0.751326
0.751348
0.751344
0.751328
0.751304
0.751264
0.751189
0.750999
0.750499
0.749316
0.74679
0.741841
0.733204
0.721517
0.713049
0.71091
0.710727
0.710718
0.710718
0.710718
0.710718
0.710718
0.710718
0.710718
0.710718
0.710718
0.710718
0.710718
0.710718
0.710718
0.710718
0.710718
0.710718
0.710718
0.710718
0.710718
0.710718
0.710718
0.710718
0.710718
0.83124
0.83124
0.83124
0.83124
0.83124
0.83124
0.83124
0.83124
0.83124
0.83124
0.83124
0.83124
0.83124
0.83124
0.83124
0.83124
0.83124
0.83124
0.83124
0.83124
0.83124
0.83124
0.83124
0.831239
0.831226
0.830981
0.828695
0.821053
0.810578
0.80156
0.795076
0.790839
0.788311
0.786949
0.786295
0.786022
0.785919
0.785876
0.785845
0.785824
0.785818
0.785836
0.785904
0.786019
0.786119
0.786153
0.786063
0.78553
0.783805
0.779962
0.773709
0.766119
0.759204
0.754495
0.752141
0.751317
0.751148
0.751148
0.7512
0.751297
0.751382
0.751417
0.751419
0.751406
0.751382
0.75135
0.751271
0.751072
0.750552
0.749325
0.746716
0.741636
0.732846
0.721133
0.712895
0.710893
0.710726
0.710718
0.710718
0.710718
0.710718
0.710718
0.710718
0.710718
0.710718
0.710718
0.710718
0.710718
0.710718
0.710718
0.710718
0.710718
0.710718
0.710718
0.710718
0.710718
0.710718
0.710718
0.710718
0.710718
)
;
    }
    empty
    {
        type            empty;
    }
}


// ************************************************************************* //
