/*--------------------------------*- C++ -*----------------------------------*\
| =========                 |                                                 |
| \\      /  F ield         | OpenFOAM: The Open Source CFD Toolbox           |
|  \\    /   O peration     | Version:  3.0.1                                 |
|   \\  /    A nd           | Web:      www.OpenFOAM.org                      |
|    \\/     M anipulation  |                                                 |
\*---------------------------------------------------------------------------*/
FoamFile
{
    version     2.0;
    format      ascii;
    class       volScalarField;
    location    "0.0002";
    object      T;
}
// * * * * * * * * * * * * * * * * * * * * * * * * * * * * * * * * * * * * * //

dimensions      [0 0 0 1 0 0 0];

internalField   nonuniform List<scalar> 
1000
(
289
289
289
289
289
289
289
289
289
289
289
289
289
289
289
289
289
289
289
289
289
289
289
289
288.998
288.963
288.634
287.608
286.198
284.924
283.973
283.341
282.962
282.756
282.654
282.606
282.588
282.585
282.59
282.597
282.6
282.594
282.57
282.528
282.491
282.477
282.509
282.698
283.316
284.707
287.004
289.845
292.485
294.31
295.23
295.551
295.616
295.615
295.594
295.554
295.519
295.505
295.504
295.508
295.514
295.515
295.504
295.464
295.369
295.159
294.718
293.876
292.475
290.683
289.377
289.029
289.001
289
289
289
289
289
289
289
289
289
289
289
289
289
289
289
289
289
289
289
289
289
289
289
289
289
289
289
289
289
289
289
289
289
289
289
289
289
289
289
289
289
289
289
289
289
289
289
288.998
288.963
288.636
287.608
286.197
284.921
283.972
283.342
282.964
282.76
282.659
282.61
282.59
282.587
282.59
282.596
282.599
282.593
282.569
282.526
282.489
282.476
282.508
282.697
283.315
284.705
287.002
289.843
292.484
294.31
295.23
295.552
295.617
295.617
295.596
295.556
295.52
295.506
295.504
295.508
295.512
295.512
295.5
295.46
295.366
295.158
294.722
293.882
292.479
290.682
289.374
289.029
289.001
289
289
289
289
289
289
289
289
289
289
289
289
289
289
289
289
289
289
289
289
289
289
289
289
289
289
289
289
289
289
289
289
289
289
289
289
289
289
289
289
289
289
289
289
289
289
289
288.998
288.962
288.627
287.596
286.192
284.926
283.983
283.354
282.975
282.768
282.664
282.613
282.59
282.584
282.588
282.593
282.596
282.59
282.567
282.524
282.487
282.475
282.506
282.696
283.313
284.702
286.998
289.84
292.481
294.309
295.23
295.552
295.618
295.618
295.598
295.558
295.523
295.508
295.506
295.509
295.513
295.512
295.495
295.451
295.354
295.143
294.705
293.871
292.481
290.698
289.385
289.03
289.001
289
289
289
289
289
289
289
289
289
289
289
289
289
289
289
289
289
289
289
289
289
289
289
289
289
289
289
289
289
289
289
289
289
289
289
289
289
289
289
289
289
289
289
289
289
289
289
288.998
288.96
288.621
287.587
286.188
284.931
283.992
283.364
282.983
282.774
282.667
282.614
282.589
282.582
282.585
282.591
282.594
282.589
282.565
282.523
282.486
282.474
282.505
282.695
283.312
284.7
286.996
289.838
292.48
294.309
295.23
295.553
295.619
295.619
295.599
295.56
295.525
295.509
295.508
295.511
295.515
295.512
295.493
295.446
295.345
295.13
294.69
293.86
292.483
290.712
289.394
289.031
289.001
289
289
289
289
289
289
289
289
289
289
289
289
289
289
289
289
289
289
289
289
289
289
289
289
289
289
289
289
289
289
289
289
289
289
289
289
289
289
289
289
289
289
289
289
289
289
289
288.998
288.961
288.625
287.601
286.203
284.935
283.989
283.358
282.977
282.769
282.664
282.612
282.587
282.581
282.585
282.59
282.594
282.588
282.565
282.523
282.486
282.474
282.505
282.695
283.312
284.701
286.996
289.839
292.482
294.31
295.231
295.554
295.619
295.619
295.599
295.56
295.525
295.51
295.509
295.512
295.516
295.514
295.497
295.452
295.353
295.139
294.693
293.851
292.467
290.703
289.393
289.031
289.001
289
289
289
289
289
289
289
289
289
289
289
289
289
289
289
289
289
289
289
289
289
289
289
289
289
289
289
289
289
289
289
289
289
289
289
289
289
289
289
289
289
289
289
289
289
289
289
288.998
288.961
288.632
287.62
286.221
284.941
283.985
283.351
282.969
282.762
282.658
282.608
282.586
282.582
282.585
282.591
282.594
282.588
282.565
282.523
282.486
282.473
282.505
282.695
283.313
284.703
287
289.843
292.485
294.312
295.233
295.555
295.62
295.62
295.6
295.56
295.525
295.51
295.51
295.512
295.516
295.516
295.503
295.461
295.364
295.15
294.698
293.846
292.447
290.686
289.388
289.031
289.001
289
289
289
289
289
289
289
289
289
289
289
289
289
289
289
289
289
289
289
289
289
289
289
289
289
289
289
289
289
289
289
289
289
289
289
289
289
289
289
289
289
289
289
289
289
289
289
288.998
288.963
288.639
287.63
286.232
284.95
283.99
283.351
282.966
282.755
282.65
282.601
282.582
282.579
282.583
282.59
282.593
282.588
282.564
282.523
282.486
282.473
282.505
282.696
283.315
284.706
287.004
289.847
292.489
294.315
295.235
295.556
295.621
295.621
295.601
295.561
295.526
295.512
295.512
295.516
295.52
295.522
295.51
295.469
295.37
295.151
294.695
293.838
292.433
290.666
289.378
289.03
289.001
289
289
289
289
289
289
289
289
289
289
289
289
289
289
289
289
289
289
289
289
289
289
289
289
289
289
289
289
289
289
289
289
289
289
289
289
289
289
289
289
289
289
289
289
289
289
289
288.998
288.965
288.648
287.643
286.239
284.954
283.992
283.35
282.963
282.752
282.648
282.598
282.579
282.577
282.581
282.588
282.592
282.586
282.563
282.522
282.486
282.473
282.505
282.696
283.316
284.709
287.008
289.851
292.491
294.316
295.236
295.557
295.622
295.622
295.602
295.562
295.528
295.514
295.514
295.519
295.525
295.526
295.515
295.473
295.375
295.157
294.702
293.84
292.425
290.641
289.362
289.028
289.001
289
289
289
289
289
289
289
289
289
289
289
289
289
289
289
289
289
289
289
289
289
289
289
289
289
289
289
289
289
289
289
289
289
289
289
289
289
289
289
289
289
289
289
289
289
289
289
288.998
288.966
288.657
287.653
286.243
284.954
283.99
283.347
282.96
282.75
282.646
282.597
282.577
282.575
282.579
282.586
282.59
282.585
282.563
282.522
282.485
282.473
282.505
282.696
283.317
284.711
287.01
289.853
292.492
294.317
295.236
295.558
295.623
295.622
295.602
295.563
295.529
295.516
295.516
295.52
295.526
295.528
295.516
295.475
295.379
295.163
294.711
293.848
292.42
290.622
289.35
289.026
289.001
289
289
289
289
289
289
289
289
289
289
289
289
289
289
289
289
289
289
289
289
289
289
289
289
289
289
289
289
289
289
289
289
289
289
289
289
289
289
289
289
289
289
289
289
289
289
289
288.998
288.966
288.654
287.65
286.244
284.959
283.994
283.35
282.96
282.748
282.643
282.593
282.574
282.572
282.577
282.585
282.589
282.585
282.562
282.522
282.486
282.473
282.505
282.696
283.317
284.711
287.011
289.854
292.492
294.316
295.236
295.557
295.623
295.622
295.602
295.563
295.53
295.517
295.518
295.523
295.529
295.531
295.52
295.478
295.379
295.16
294.705
293.84
292.417
290.624
289.352
289.026
289.001
289
289
289
289
289
289
289
289
289
289
289
289
289
289
289
289
289
289
289
289
289
289
289
)
;

boundaryField
{
    sides1
    {
        type            zeroGradient;
    }
    sides2
    {
        type            slip;
    }
    empty
    {
        type            empty;
    }
}


// ************************************************************************* //
