/*--------------------------------*- C++ -*----------------------------------*\
| =========                 |                                                 |
| \\      /  F ield         | OpenFOAM: The Open Source CFD Toolbox           |
|  \\    /   O peration     | Version:  2012                                  |
|   \\  /    A nd           | Website:  www.openfoam.com                      |
|    \\/     M anipulation  |                                                 |
\*---------------------------------------------------------------------------*/
FoamFile
{
    version     2.0;
    format      ascii;
    class       surfaceScalarField;
    location    "0.24";
    object      phi;
}
// * * * * * * * * * * * * * * * * * * * * * * * * * * * * * * * * * * * * * //

dimensions      [0 3 -1 0 0 0 0];
oriented        oriented;


internalField   nonuniform List<scalar> 
4432
(
4.35779e-06
-4.35778e-06
8.69793e-06
-4.34014e-06
1.30596e-05
-4.3617e-06
1.74814e-05
-4.42173e-06
2.18218e-05
-4.34039e-06
2.62144e-05
-4.39262e-06
3.06151e-05
-4.40074e-06
3.50071e-05
-4.39193e-06
3.92648e-05
-4.25775e-06
4.34716e-05
-4.20679e-06
4.73902e-05
-3.91861e-06
5.12172e-05
-3.82699e-06
5.47426e-05
-3.52532e-06
5.70903e-05
-2.34775e-06
5.91438e-05
-2.05346e-06
6.01746e-05
-1.03078e-06
5.94242e-05
7.50375e-07
5.68319e-05
2.5923e-06
5.1871e-05
4.96091e-06
4.37601e-05
8.11087e-06
3.24565e-05
1.13036e-05
1.7325e-05
1.51315e-05
1.73261e-05
4.35348e-06
-8.71126e-06
8.69895e-06
-8.6856e-06
1.30582e-05
-8.7209e-06
1.74784e-05
-8.84194e-06
2.18221e-05
-8.68416e-06
2.62153e-05
-8.78575e-06
3.06184e-05
-8.80386e-06
3.50193e-05
-8.79277e-06
3.92915e-05
-8.53003e-06
4.34978e-05
-8.413e-06
4.74355e-05
-7.8564e-06
5.13333e-05
-7.72469e-06
5.47806e-05
-6.97264e-06
5.73006e-05
-4.86772e-06
5.94172e-05
-4.17012e-06
6.0396e-05
-2.00951e-06
5.98172e-05
1.32916e-06
5.71986e-05
5.21093e-06
5.21362e-05
1.00233e-05
4.36631e-05
1.65839e-05
3.18041e-05
2.31627e-05
1.63845e-05
3.0551e-05
3.37118e-05
4.34895e-06
-1.30602e-05
8.70315e-06
-1.30398e-05
1.30574e-05
-1.30751e-05
1.74771e-05
-1.32617e-05
2.18302e-05
-1.30373e-05
2.6228e-05
-1.31835e-05
3.06401e-05
-1.3216e-05
3.50601e-05
-1.32128e-05
3.93634e-05
-1.28333e-05
4.35951e-05
-1.26447e-05
4.75986e-05
-1.18598e-05
5.15626e-05
-1.16887e-05
5.50247e-05
-1.04348e-05
5.78201e-05
-7.66308e-06
6.01249e-05
-6.47494e-06
6.12129e-05
-3.0975e-06
6.10239e-05
1.51817e-06
5.89165e-05
7.31836e-06
5.4611e-05
1.43288e-05
4.72116e-05
2.39834e-05
3.61646e-05
3.42097e-05
2.02348e-05
4.64808e-05
5.39479e-05
4.34323e-06
-1.74034e-05
8.70109e-06
-1.73977e-05
1.30436e-05
-1.74176e-05
1.746e-05
-1.76781e-05
2.18245e-05
-1.74017e-05
2.62267e-05
-1.75857e-05
3.06469e-05
-1.76363e-05
3.5082e-05
-1.76478e-05
3.942e-05
-1.71713e-05
4.37024e-05
-1.6927e-05
4.77785e-05
-1.5936e-05
5.17772e-05
-1.56874e-05
5.5277e-05
-1.39345e-05
5.82163e-05
-1.06024e-05
6.0796e-05
-9.05466e-06
6.20543e-05
-4.35579e-06
6.19062e-05
1.66626e-06
5.97576e-05
9.46691e-06
5.52518e-05
1.88347e-05
4.747e-05
3.17651e-05
3.62455e-05
4.54342e-05
2.01406e-05
6.25857e-05
7.409e-05
4.33935e-06
-2.17428e-05
8.69968e-06
-2.1758e-05
1.30328e-05
-2.17508e-05
1.74494e-05
-2.20946e-05
2.18317e-05
-2.1784e-05
2.62473e-05
-2.20014e-05
3.06858e-05
-2.20748e-05
3.51468e-05
-2.21088e-05
3.95397e-05
-2.15642e-05
4.38996e-05
-2.1287e-05
4.809e-05
-2.01264e-05
5.21977e-05
-1.97951e-05
5.58181e-05
-1.7555e-05
5.91158e-05
-1.39e-05
6.1935e-05
-1.18739e-05
6.35563e-05
-5.97707e-06
6.41418e-05
1.08075e-06
6.28975e-05
1.07112e-05
5.94847e-05
2.22476e-05
5.28427e-05
3.84071e-05
4.22963e-05
5.59806e-05
2.53327e-05
7.95493e-05
9.94241e-05
4.32891e-06
-2.60717e-05
8.68439e-06
-2.61135e-05
1.30053e-05
-2.60717e-05
1.74147e-05
-2.6504e-05
2.18078e-05
-2.61771e-05
2.62332e-05
-2.64268e-05
3.0684e-05
-2.65255e-05
3.51623e-05
-2.65871e-05
3.96078e-05
-2.60096e-05
4.40282e-05
-2.57074e-05
4.83213e-05
-2.44194e-05
5.25562e-05
-2.403e-05
5.63171e-05
-2.13159e-05
5.99397e-05
-1.75226e-05
6.29374e-05
-1.48716e-05
6.46972e-05
-7.73691e-06
6.56995e-05
7.84607e-08
6.47588e-05
1.16519e-05
6.14569e-05
2.55494e-05
5.45279e-05
4.53362e-05
4.38224e-05
6.66861e-05
2.56542e-05
9.77175e-05
0.000125079
4.32156e-06
-3.03932e-05
8.67343e-06
-3.04653e-05
1.29905e-05
-3.03888e-05
1.73992e-05
-3.09127e-05
2.18081e-05
-3.05859e-05
2.62526e-05
-3.08713e-05
3.07278e-05
-3.10008e-05
3.5242e-05
-3.11013e-05
3.97616e-05
-3.05292e-05
4.42711e-05
-3.0217e-05
4.87138e-05
-2.88621e-05
5.31378e-05
-2.8454e-05
5.71247e-05
-2.53027e-05
6.1174e-05
-2.15719e-05
6.45054e-05
-1.8203e-05
6.69181e-05
-1.01497e-05
6.87591e-05
-1.76252e-06
6.89285e-05
1.14826e-05
6.72126e-05
2.72653e-05
6.19735e-05
5.05753e-05
5.3142e-05
7.55176e-05
3.48948e-05
0.000115965
0.000159974
4.30604e-06
-3.46993e-05
8.64233e-06
-3.48016e-05
1.29523e-05
-3.46988e-05
1.73501e-05
-3.53105e-05
2.17606e-05
-3.49964e-05
2.62114e-05
-3.53221e-05
3.07015e-05
-3.54908e-05
3.52414e-05
-3.56413e-05
3.98237e-05
-3.51114e-05
4.44083e-05
-3.48016e-05
4.89846e-05
-3.34384e-05
5.35336e-05
-3.3003e-05
5.77356e-05
-2.95047e-05
6.21524e-05
-2.59887e-05
6.58069e-05
-2.18574e-05
6.87697e-05
-1.31125e-05
7.11577e-05
-4.15057e-06
7.16282e-05
1.10122e-05
7.07497e-05
2.81437e-05
6.602e-05
5.53051e-05
5.73231e-05
8.42145e-05
3.81626e-05
0.000135125
0.000198136
-5.85856e-06
5.87403e-06
-1.46669e-05
8.82374e-06
-1.85968e-05
3.94513e-06
-2.17088e-05
3.12702e-06
-2.06624e-05
-1.03138e-06
-1.9651e-05
-9.96801e-07
-1.66876e-05
-2.94866e-06
-1.38464e-05
-2.82691e-06
-1.03538e-05
-3.47821e-06
-7.25211e-06
-3.08771e-06
-4.40379e-06
-2.8343e-06
-2.08575e-06
-2.30425e-06
-4.01892e-07
-1.67009e-06
7.47046e-07
-1.13535e-06
1.28857e-06
-5.27956e-07
1.39871e-06
-9.66835e-08
1.12819e-06
2.83944e-07
6.26548e-07
5.15037e-07
6.39926e-07
-7.58149e-06
1.3471e-05
-1.61068e-05
1.73645e-05
-1.90669e-05
6.92053e-06
-2.1637e-05
5.71212e-06
-2.05388e-05
-2.11461e-06
-1.94563e-05
-2.06471e-06
-1.66094e-05
-5.7808e-06
-1.37592e-05
-5.66286e-06
-1.02824e-05
-6.94066e-06
-7.14808e-06
-6.20806e-06
-4.2865e-06
-5.68188e-06
-1.95733e-06
-4.61963e-06
-2.78365e-07
-3.33529e-06
8.54568e-07
-2.25471e-06
1.383e-06
-1.04284e-06
1.48063e-06
-1.80862e-07
1.19044e-06
5.87556e-07
6.59254e-07
1.05959e-06
1.31255e-06
-6.019e-06
1.95055e-05
-1.64946e-05
2.78554e-05
-2.07595e-05
1.12007e-05
-2.34435e-05
8.41112e-06
-2.18098e-05
-3.73327e-06
-2.05242e-05
-3.33578e-06
-1.72605e-05
-9.02977e-06
-1.41443e-05
-8.76477e-06
-1.04616e-05
-1.06091e-05
-7.16083e-06
-9.49486e-06
-4.21996e-06
-8.60876e-06
-1.82178e-06
-7.00406e-06
-1.16263e-07
-5.02708e-06
1.01621e-06
-3.37363e-06
1.51916e-06
-1.53227e-06
1.57267e-06
-2.20939e-07
1.24234e-06
9.3129e-07
6.83715e-07
1.63157e-06
2.00961e-06
-8.58296e-06
2.81039e-05
-1.8202e-05
3.74898e-05
-2.06132e-05
1.36273e-05
-2.2767e-05
1.05799e-05
-2.14808e-05
-5.00448e-06
-2.00375e-05
-4.76455e-06
-1.7018e-05
-1.20346e-05
-1.38009e-05
-1.19677e-05
-1.01129e-05
-1.42828e-05
-6.72704e-06
-1.28667e-05
-3.76098e-06
-1.15609e-05
-1.36294e-06
-9.38837e-06
3.01044e-07
-6.67736e-06
1.37635e-06
-4.43541e-06
1.82728e-06
-1.96971e-06
1.83014e-06
-2.10393e-07
1.42998e-06
1.34482e-06
7.80168e-07
2.2947e-06
2.8031e-06
-6.22604e-06
3.43454e-05
-2.09884e-05
5.22676e-05
-2.59091e-05
1.85632e-05
-2.69512e-05
1.16369e-05
-2.37628e-05
-8.17785e-06
-2.20424e-05
-6.47041e-06
-1.8277e-05
-1.57855e-05
-1.45409e-05
-1.56896e-05
-1.05008e-05
-1.83087e-05
-6.79037e-06
-1.65632e-05
-3.6717e-06
-1.46656e-05
-1.12379e-06
-1.19226e-05
5.97049e-07
-8.38456e-06
1.67999e-06
-5.50487e-06
2.07992e-06
-2.35619e-06
2.00511e-06
-1.22223e-07
1.5361e-06
1.82716e-06
8.31963e-07
3.01211e-06
3.64834e-06
-1.12388e-05
4.55998e-05
-2.29624e-05
6.40067e-05
-2.43419e-05
1.99581e-05
-2.56782e-05
1.29879e-05
-2.38113e-05
-1.00298e-05
-2.15673e-05
-8.69998e-06
-1.8005e-05
-1.93333e-05
-1.4024e-05
-1.96565e-05
-9.85365e-06
-2.2465e-05
-5.97514e-06
-2.04278e-05
-2.79595e-06
-1.7831e-05
-2.87586e-07
-1.44173e-05
1.35681e-06
-1.00154e-05
2.3273e-06
-6.46192e-06
2.63255e-06
-2.64805e-06
2.45205e-06
7.15794e-08
1.85138e-06
2.4411e-06
9.91406e-07
3.88531e-06
4.65297e-06
-5.81676e-06
5.1432e-05
-2.96306e-05
8.7836e-05
-3.59822e-05
2.63248e-05
-3.35676e-05
1.05881e-05
-2.7434e-05
-1.61483e-05
-2.46138e-05
-1.15059e-05
-1.99749e-05
-2.39576e-05
-1.51308e-05
-2.44866e-05
-1.04824e-05
-2.70992e-05
-6.03593e-06
-2.48605e-05
-2.63462e-06
-2.12185e-05
9.93157e-08
-1.71377e-05
1.8092e-06
-1.17117e-05
2.78183e-06
-7.42116e-06
2.99574e-06
-2.84863e-06
2.70912e-06
3.71431e-07
2.01751e-06
3.14593e-06
1.07421e-06
4.84178e-06
5.74033e-06
-1.55338e-05
6.69811e-05
-3.15237e-05
0.000103842
-3.15769e-05
2.63934e-05
-3.11993e-05
1.0225e-05
-2.85825e-05
-1.87501e-05
-2.49918e-05
-1.50824e-05
-2.0095e-05
-2.88402e-05
-1.48362e-05
-2.97314e-05
-9.73583e-06
-3.21857e-05
-4.96801e-06
-2.96145e-05
-1.40954e-06
-2.47633e-05
1.29165e-06
-1.98254e-05
2.92616e-06
-1.33328e-05
3.75498e-06
-8.23667e-06
3.83517e-06
-2.91557e-06
3.35771e-06
8.62057e-07
2.45523e-06
4.06155e-06
1.29482e-06
6.01528e-06
7.04823e-06
9.12658e-06
-4.38258e-05
1.83169e-05
-4.39919e-05
2.74842e-05
-4.38661e-05
3.68239e-05
-4.46502e-05
4.62382e-05
-4.44107e-05
5.57704e-05
-4.48543e-05
6.54208e-05
-4.51412e-05
7.52394e-05
-4.54598e-05
8.52577e-05
-4.51298e-05
9.5395e-05
-4.49388e-05
0.00010571
-4.37538e-05
0.000116055
-4.33474e-05
0.000126156
-3.96059e-05
0.000136994
-3.68268e-05
0.000146198
-3.10612e-05
0.000155855
-2.27698e-05
0.000163507
-1.18025e-05
0.00016971
4.80909e-06
0.000174748
2.31061e-05
0.000181781
4.82722e-05
0.000189341
7.66541e-05
0.00020593
0.000118536
0.000183677
0.00022039
9.02117e-06
-5.2847e-05
1.81028e-05
-5.30735e-05
2.72071e-05
-5.29704e-05
3.647e-05
-5.3913e-05
4.58694e-05
-5.38101e-05
5.54378e-05
-5.44228e-05
6.51828e-05
-5.48862e-05
7.51697e-05
-5.54467e-05
8.54851e-05
-5.54451e-05
9.60516e-05
-5.55053e-05
0.000106965
-5.4667e-05
0.000118051
-5.44339e-05
0.000129717
-5.12719e-05
0.000141829
-4.89387e-05
0.000153521
-4.27531e-05
0.000166218
-3.54669e-05
0.000176129
-2.17129e-05
0.000185988
-5.05049e-06
0.000193314
1.57802e-05
0.000200409
4.11774e-05
0.000206858
7.02051e-05
0.000224557
0.000100837
0.000152321
0.000255913
8.91962e-06
-6.17666e-05
1.78937e-05
-6.20476e-05
2.69398e-05
-6.20165e-05
3.61363e-05
-6.31094e-05
4.55261e-05
-6.31999e-05
5.514e-05
-6.40367e-05
6.49884e-05
-6.47345e-05
7.51645e-05
-6.56228e-05
8.58094e-05
-6.609e-05
9.69456e-05
-6.66415e-05
0.000108586
-6.6307e-05
0.000120966
-6.68146e-05
0.000134469
-6.47742e-05
0.000148611
-6.30813e-05
0.00016395
-5.80925e-05
0.000179068
-5.05841e-05
0.000193009
-3.56541e-05
0.000208459
-2.05005e-05
0.000221836
2.41436e-06
0.000236298
2.67147e-05
0.000250356
5.61474e-05
0.000268674
8.25193e-05
0.000125894
0.000295101
8.72632e-06
-7.04929e-05
1.74983e-05
-7.08196e-05
2.63825e-05
-7.09007e-05
3.54073e-05
-7.21343e-05
4.46782e-05
-7.24708e-05
5.42318e-05
-7.35903e-05
6.41126e-05
-7.46153e-05
7.4388e-05
-7.58981e-05
8.52737e-05
-7.69757e-05
9.67779e-05
-7.81457e-05
0.000108883
-7.84125e-05
0.000121963
-7.98946e-05
0.000136644
-7.94545e-05
0.000153357
-7.97942e-05
0.000172065
-7.68004e-05
0.000190666
-6.91851e-05
0.000210086
-5.50738e-05
0.00022746
-3.78736e-05
0.000243618
-1.37378e-05
0.000256509
1.38232e-05
0.000264917
4.77372e-05
0.000277223
7.23452e-05
0.000107013
0.000296111
8.53839e-06
-7.90313e-05
1.71245e-05
-7.94056e-05
2.58769e-05
-7.96532e-05
3.47513e-05
-8.10087e-05
4.39404e-05
-8.16599e-05
5.34374e-05
-8.30873e-05
6.33088e-05
-8.44867e-05
7.35978e-05
-8.61872e-05
8.45068e-05
-8.78847e-05
9.64346e-05
-9.00734e-05
0.000109455
-9.1433e-05
0.000124058
-9.44978e-05
0.000140429
-9.58253e-05
0.000158821
-9.81898e-05
0.000178847
-9.68646e-05
0.000197275
-8.76781e-05
0.000212573
-7.03813e-05
0.000227393
-5.26327e-05
0.000241792
-2.8067e-05
0.000254812
1.00035e-06
0.000270651
3.21414e-05
0.00028508
5.80644e-05
9.30068e-05
0.000299118
8.32505e-06
-8.73563e-05
1.66764e-05
-8.7757e-05
2.52242e-05
-8.82009e-05
3.38225e-05
-8.9607e-05
4.27633e-05
-9.06007e-05
5.20345e-05
-9.23584e-05
6.1778e-05
-9.42302e-05
7.22122e-05
-9.66214e-05
8.34391e-05
-9.91116e-05
9.57411e-05
-0.000102375
0.00010888
-0.000104574
0.000122654
-0.000108308
0.000137195
-0.000110518
0.000151437
-0.000112539
0.000166041
-0.000111295
0.000190063
-0.000111508
0.000232808
-0.000113104
0.000274715
-9.4512e-05
0.000305417
-5.87434e-05
0.000302103
4.40793e-06
0.000281894
5.25066e-05
0.000284458
5.57467e-05
8.00142e-05
0.000297733
8.1011e-06
-9.54575e-05
1.62006e-05
-9.58566e-05
2.46023e-05
-9.66026e-05
3.30698e-05
-9.80746e-05
4.19793e-05
-9.95103e-05
5.12599e-05
-0.000101639
6.10179e-05
-0.000103989
7.11423e-05
-0.000106754
8.14897e-05
-0.000109521
9.23417e-05
-0.000113416
0.00010408
-0.000116622
0.000118389
-0.000122759
0.000133774
-0.000125695
0.000127272
-0.000105976
0.000131717
-0.000115712
0.000171117
-0.000150873
0.000220935
-0.000162885
0.000272057
-0.000145595
0.000315745
-0.000102392
0.0003361
-1.59148e-05
0.000338539
5.00987e-05
0.000330882
6.34364e-05
8.82778e-05
0.000322676
7.97709e-06
-0.00010346
1.58912e-05
-0.000103802
2.41772e-05
-0.000104937
3.24677e-05
-0.00010645
4.10341e-05
-0.000108226
4.97561e-05
-0.00011061
5.86912e-05
-0.000113308
6.83527e-05
-0.000116842
7.98669e-05
-0.000121301
0.000101451
-0.000135011
0.000129086
-0.000140037
0.000150604
-0.000144255
0.00014934
-0.000124401
0.000136115
-9.27212e-05
0.000148074
-0.000127637
0.000172946
-0.000175717
0.000189458
-0.000179361
0.000202486
-0.000158591
0.000211367
-0.000111236
0.000242035
-4.65521e-05
0.000292778
-6.14687e-07
0.000332415
2.38293e-05
5.47559e-05
0.000365966
7.73775e-06
-0.000111707
1.53285e-05
-0.00011188
2.33985e-05
-0.00011345
3.16318e-05
-0.000115042
4.07616e-05
-0.000117603
5.23664e-05
-0.000122325
7.38494e-05
-0.000134753
0.000102345
-0.000145303
0.000135315
-0.000154247
0.000171629
-0.000171298
0.000204625
-0.000173003
0.000221136
-0.000160738
0.000219029
-0.000122266
0.000208869
-8.25315e-05
0.000192008
-0.00011075
0.000176693
-0.000160379
0.000173373
-0.00017601
0.000168557
-0.00015374
0.000166916
-0.000109567
0.000188988
-6.85952e-05
0.000231788
-4.33853e-05
0.000288769
-3.31216e-05
-1.43158e-05
0.00035787
1.04148e-05
-0.000122099
2.15301e-05
-0.000122973
3.46026e-05
-0.000126499
4.98135e-05
-0.000130229
6.75045e-05
-0.000135269
8.90616e-05
-0.000143855
0.000113102
-0.000158765
0.000143079
-0.000175251
0.000177503
-0.000188641
0.000209867
-0.000203635
0.000234755
-0.000197863
0.000250855
-0.00017681
0.000263886
-0.000135267
0.000262183
-8.07997e-05
0.000236447
-8.49864e-05
0.000201295
-0.000125197
0.000175609
-0.000150296
0.000162026
-0.000140128
0.000168495
-0.000116008
0.000198508
-9.858e-05
0.000242287
-8.71353e-05
0.000291263
-8.20689e-05
-7.1307e-05
0.000348282
1.2861e-05
-0.000134932
2.62724e-05
-0.000136356
4.09068e-05
-0.000141106
5.74285e-05
-0.000146723
7.60823e-05
-0.000153895
9.73949e-05
-0.000165139
0.00011594
-0.000177283
0.000136658
-0.000195942
0.000164414
-0.00021637
0.000195476
-0.000234669
0.000223518
-0.000225878
0.000246123
-0.000199387
0.000256695
-0.000145811
0.000259233
-8.33086e-05
0.000254106
-7.98307e-05
0.000226015
-9.70781e-05
0.000192158
-0.00011641
0.000178471
-0.000126413
0.000185681
-0.00012319
0.00020929
-0.000122161
0.000242257
-0.000120074
0.000286639
-0.000126422
-0.000124794
0.000340154
1.16376e-05
-0.000146542
2.33407e-05
-0.000148032
3.45359e-05
-0.000152273
4.61844e-05
-0.000158344
5.78505e-05
-0.000165533
7.13806e-05
-0.000178642
8.79552e-05
-0.00019383
0.000108817
-0.000216777
0.000135761
-0.000243286
0.000158778
-0.000257658
0.000176909
-0.000243981
0.000190414
-0.000212863
0.000199789
-0.000155158
0.000206271
-8.97614e-05
0.000204157
-7.76883e-05
0.000190656
-8.3549e-05
0.000174043
-9.97697e-05
0.000171162
-0.000123504
0.000184769
-0.000136769
0.000210814
-0.000148179
0.000244225
-0.000153458
0.000287898
-0.000170067
-0.000176715
0.000339845
8.2639e-06
-0.000154778
1.70926e-05
-0.000156833
2.56957e-05
-0.000160849
3.48755e-05
-0.000167496
4.4206e-05
-0.000174836
5.42899e-05
-0.000188698
6.48231e-05
-0.000204335
7.69052e-05
-0.000228831
8.64855e-05
-0.000252838
8.78248e-05
-0.00025897
8.44822e-05
-0.00024061
8.0386e-05
-0.000208739
8.31063e-05
-0.00015785
9.64833e-05
-0.00010311
0.000106778
-8.79546e-05
0.00011457
-9.13131e-05
0.000127625
-0.000112797
0.000145335
-0.000141187
0.000170784
-0.00016219
0.000205126
-0.000182493
0.000244741
-0.000193045
0.000294909
-0.000220208
-0.000236737
0.000354958
6.26019e-06
-0.000161011
1.27859e-05
-0.000163331
1.86974e-05
-0.000166733
2.45343e-05
-0.000173305
3.00168e-05
-0.000180291
3.48678e-05
-0.000193521
3.94789e-05
-0.000208919
4.05824e-05
-0.000229907
3.41532e-05
-0.000246382
2.19193e-05
-0.000246708
7.10593e-06
-0.000225769
-4.52584e-06
-0.00019708
-2.25081e-06
-0.000160098
1.38641e-05
-0.000119197
3.5592e-05
-0.000109655
6.3344e-05
-0.000119038
9.30186e-05
-0.000142444
0.000122315
-0.000170456
0.000152759
-0.000192606
0.000190444
-0.000220152
0.000235578
-0.000238152
0.000290847
-0.000275451
-0.000306472
0.000360608
4.786e-06
-0.00016577
9.28344e-06
-0.000167801
1.31772e-05
-0.000170599
1.63739e-05
-0.000176474
1.87217e-05
-0.000182612
1.91506e-05
-0.000193922
1.65848e-05
-0.000206326
8.88466e-06
-0.000222179
-5.03993e-06
-0.00023243
-2.17853e-05
-0.000229936
-3.6526e-05
-0.000211002
-4.45431e-05
-0.000189035
-4.00649e-05
-0.000164549
-1.94598e-05
-0.000139775
1.08694e-05
-0.000139957
4.42683e-05
-0.000152409
7.41002e-05
-0.000172249
0.000102127
-0.000198457
0.000130624
-0.000221077
0.000165447
-0.000254948
0.000211654
-0.000284333
0.000272597
-0.000336367
-0.000390399
0.000356549
3.08201e-06
-0.000168825
5.67175e-06
-0.000170364
7.64838e-06
-0.000172549
8.74637e-06
-0.000177545
8.64912e-06
-0.000182488
5.92464e-06
-0.000191171
-4.47745e-07
-0.000199927
-1.16268e-05
-0.000210973
-2.69129e-05
-0.000217117
-4.19415e-05
-0.000214881
-5.17916e-05
-0.000201125
-5.44731e-05
-0.000186327
-4.62035e-05
-0.000172792
-2.36245e-05
-0.000162328
4.10236e-06
-0.000167658
2.95797e-05
-0.00017786
5.25621e-05
-0.000195205
7.44609e-05
-0.000220329
9.87231e-05
-0.000245313
0.000126449
-0.000282649
0.000166552
-0.000324411
0.00022292
-0.00039271
-0.000472227
0.000304771
1.59459e-06
-0.000170393
2.74753e-06
-0.00017149
3.52811e-06
-0.000173303
3.35932e-06
-0.00017735
1.9826e-06
-0.000181084
-1.84849e-06
-0.000187313
-8.78645e-06
-0.000192962
-1.99078e-05
-0.000199826
-3.40094e-05
-0.000202989
-4.60071e-05
-0.000202857
-5.1576e-05
-0.00019553
-4.96636e-05
-0.000188214
-3.91645e-05
-0.000183265
-2.2194e-05
-0.000179272
-4.5111e-06
-0.000185314
1.27749e-05
-0.00019512
3.0198e-05
-0.000212603
4.62099e-05
-0.000236316
6.54107e-05
-0.000264488
8.47109e-05
-0.000301924
0.000114003
-0.000353678
0.000146594
-0.000425277
-0.000520006
0.000194397
2.48566e-07
-0.000170615
4.91007e-07
-0.000171707
3.95893e-07
-0.000173182
-6.39059e-07
-0.000176289
-2.65898e-06
-0.000179038
-6.49282e-06
-0.000183454
-1.25199e-05
-0.000186909
-2.09358e-05
-0.000191384
-3.0746e-05
-0.000193153
-3.88726e-05
-0.000194704
-4.21748e-05
-0.000192202
-4.04666e-05
-0.000189896
-3.44332e-05
-0.000189273
-2.46308e-05
-0.000189049
-1.35171e-05
-0.000196403
-2.70882e-06
-0.000205903
7.76939e-06
-0.000223056
1.69158e-05
-0.000245437
2.66282e-05
-0.000274176
3.45004e-05
-0.000309771
4.24102e-05
-0.000361564
4.18279e-05
-0.000424671
-0.000516556
3.84001e-05
-4.60689e-07
-0.000170129
-9.43449e-07
-0.000171198
-1.7842e-06
-0.000172316
-3.34767e-06
-0.0001747
-5.56454e-06
-0.000176796
-8.89208e-06
-0.000180101
-1.34686e-05
-0.000182307
-1.94373e-05
-0.00018539
-2.60805e-05
-0.000186485
-3.17823e-05
-0.000188977
-3.5146e-05
-0.000188813
-3.57311e-05
-0.000189286
-3.34087e-05
-0.00019157
-2.86715e-05
-0.000193761
-2.37417e-05
-0.000201308
-1.94324e-05
-0.000210187
-1.53027e-05
-0.00022716
-1.33816e-05
-0.000247333
-1.28077e-05
-0.000274725
-1.53042e-05
-0.000307251
-2.29833e-05
-0.000353861
-4.15966e-05
-0.000406034
-0.000485331
-7.27992e-05
-7.93012e-07
-0.000169311
-2.07408e-06
-0.000169892
-3.64557e-06
-0.000170719
-5.72973e-06
-0.000172591
-8.32714e-06
-0.000174174
-1.15858e-05
-0.000176817
-1.55591e-05
-0.000178309
-2.00454e-05
-0.000180878
-2.494e-05
-0.000181565
-2.97556e-05
-0.000184137
-3.31615e-05
-0.000185382
-3.46968e-05
-0.000187726
-3.46936e-05
-0.000191549
-3.43918e-05
-0.000194038
-3.46816e-05
-0.000200993
-3.50992e-05
-0.000209745
-3.66416e-05
-0.000225594
-4.14416e-05
-0.000242509
-4.94023e-05
-0.00026674
-6.26739e-05
-0.000293955
-8.25943e-05
-0.000333917
-0.000113463
-0.000375142
-0.000436617
-0.000162152
-1.70077e-06
-0.000167586
-3.5639e-06
-0.000168005
-5.6082e-06
-0.000168651
-8.01409e-06
-0.000170161
-1.08509e-05
-0.000171313
-1.41971e-05
-0.000173447
-1.80415e-05
-0.000174441
-2.2094e-05
-0.000176802
-2.61803e-05
-0.000177455
-3.0077e-05
-0.000180216
-3.32901e-05
-0.000182145
-3.62481e-05
-0.000184744
-3.90816e-05
-0.000188691
-4.18846e-05
-0.000191211
-4.49069e-05
-0.000197947
-4.86259e-05
-0.000206003
-5.43021e-05
-0.000219894
-6.31565e-05
-0.000233631
-7.66793e-05
-0.000253194
-9.69624e-05
-0.000273648
-0.000127275
-0.000303581
-0.000169081
-0.000333313
-0.000373535
-0.000232141
-2.35727e-06
-0.000165205
-4.66221e-06
-0.000165677
-7.07038e-06
-0.000166219
-9.77229e-06
-0.000167435
-1.28017e-05
-0.00016826
-1.61925e-05
-0.000170032
-1.9866e-05
-0.000170744
-2.36831e-05
-0.000172961
-2.73687e-05
-0.000173746
-3.12936e-05
-0.000176268
-3.54334e-05
-0.000177982
-3.99135e-05
-0.00018024
-4.47765e-05
-0.000183805
-4.9498e-05
-0.000186466
-5.48732e-05
-0.000192549
-6.18208e-05
-0.000199032
-7.11971e-05
-0.000210495
-8.35854e-05
-0.00022122
-0.000100552
-0.000236204
-0.000123948
-0.000250229
-0.0001576
-0.000269905
-0.000204767
-0.00028612
-0.000305846
-0.000272429
-2.26388e-06
-0.000162919
-4.6746e-06
-0.000163243
-7.26345e-06
-0.000163607
-1.01167e-05
-0.000164559
-1.32323e-05
-0.000165121
-1.6658e-05
-0.000166584
-2.03176e-05
-0.000167061
-2.42663e-05
-0.00016899
-2.84167e-05
-0.000169573
-3.30581e-05
-0.000171604
-3.79772e-05
-0.00017304
-4.31443e-05
-0.000175051
-4.86726e-05
-0.000178254
-5.45819e-05
-0.000180535
-6.16715e-05
-0.000185437
-7.05937e-05
-0.000190087
-8.23574e-05
-0.000198709
-9.73167e-05
-0.000206238
-0.000116739
-0.00021676
-0.000141396
-0.000225549
-0.000173749
-0.000237529
-0.000215108
-0.000244738
-0.000250501
-0.000270431
-2.54088e-06
-0.000160356
-5.17262e-06
-0.000160589
-7.95068e-06
-0.000160807
-1.0953e-05
-0.000161535
-1.41988e-05
-0.000161854
-1.77483e-05
-0.000163013
-2.157e-05
-0.000163218
-2.58081e-05
-0.00016473
-3.03144e-05
-0.000165044
-3.5227e-05
-0.000166669
-4.02892e-05
-0.000167956
-4.58776e-05
-0.000169441
-5.22624e-05
-0.000171848
-5.92403e-05
-0.000173535
-6.74369e-05
-0.000177219
-7.72483e-05
-0.000180255
-8.97997e-05
-0.000186136
-0.000105505
-0.000190511
-0.00012566
-0.000196583
-0.000150948
-0.00020024
-0.000183085
-0.000205369
-0.000222416
-0.000205383
-0.000202618
-0.000270274
-2.79251e-06
-0.000157542
-5.63701e-06
-0.000157724
-8.59153e-06
-0.000157832
-1.17359e-05
-0.00015837
-1.51081e-05
-0.00015846
-1.87799e-05
-0.00015932
-2.27068e-05
-0.00015927
-2.69992e-05
-0.000160416
-3.14435e-05
-0.000160579
-3.6401e-05
-0.000161691
-4.19107e-05
-0.000162426
-4.80667e-05
-0.000163264
-5.50571e-05
-0.000164837
-6.28433e-05
-0.000165728
-7.1976e-05
-0.000168065
-8.26177e-05
-0.000169592
-9.56811e-05
-0.000173051
-0.000111366
-0.000174806
-0.000130451
-0.000177477
-0.000153182
-0.000177488
-0.000180995
-0.000177536
-0.000214167
-0.00017219
-0.00016336
-0.000253403
-2.91014e-06
-0.000154612
-5.87667e-06
-0.000154737
-8.93889e-06
-0.000154749
-1.21701e-05
-0.000155118
-1.55834e-05
-0.000155027
-1.92711e-05
-0.000155612
-2.31669e-05
-0.000155354
-2.74658e-05
-0.000156097
-3.20607e-05
-0.000155964
-3.7212e-05
-0.000156519
-4.28794e-05
-0.000156738
-4.90957e-05
-0.000157028
-5.61579e-05
-0.000157755
-6.405e-05
-0.000157816
-7.32664e-05
-0.000158829
-8.39953e-05
-0.000158844
-9.69901e-05
-0.000160037
-0.0001124
-0.000159376
-0.000130704
-0.000159154
-0.000151907
-0.000156265
-0.000176742
-0.00015268
-0.00020479
-0.000144121
-0.00013227
-0.000235858
-2.91004e-06
-0.000151683
-5.87694e-06
-0.000151751
-8.945e-06
-0.000151662
-1.21888e-05
-0.000151855
-1.56154e-05
-0.000151581
-1.93334e-05
-0.000151875
-2.32865e-05
-0.000151382
-2.76769e-05
-0.000151688
-3.24283e-05
-0.000151194
-3.7676e-05
-0.000151253
-4.34453e-05
-0.00015095
-4.9854e-05
-0.0001506
-5.71268e-05
-0.000150463
-6.52113e-05
-0.000149713
-7.44839e-05
-0.000149538
-8.49994e-05
-0.000148309
-9.73246e-05
-0.000147693
-0.00011148
-0.000145202
-0.000127823
-0.000142791
-0.000146355
-0.000137714
-0.00016753
-0.000131487
-0.000190834
-0.000120798
-0.000107316
-0.000215769
-2.9152e-06
-0.000148749
-5.8853e-06
-0.000148762
-8.95056e-06
-0.000148578
-1.21853e-05
-0.000148602
-1.55961e-05
-0.000148152
-1.9296e-05
-0.000148157
-2.32261e-05
-0.000147433
-2.75558e-05
-0.00014734
-3.2206e-05
-0.000146525
-3.73352e-05
-0.000146105
-4.30093e-05
-0.000145258
-4.92723e-05
-0.000144319
-5.63273e-05
-0.00014339
-6.41695e-05
-0.000141853
-7.3126e-05
-0.000140564
-8.32234e-05
-0.000138194
-9.48449e-05
-0.000136054
-0.000107944
-0.000132085
-0.000122752
-0.000127965
-0.000139125
-0.000121324
-0.000157184
-0.000113411
-0.000176327
-0.000101637
-8.76359e-05
-0.000195989
-2.89133e-06
-0.00014584
-5.83175e-06
-0.000145805
-8.85751e-06
-0.000145535
-1.20353e-05
-0.000145407
-1.53753e-05
-0.000144795
-1.89817e-05
-0.000144533
-2.2813e-05
-0.000143585
-2.70233e-05
-0.000143113
-3.15879e-05
-0.000141944
-3.6636e-05
-0.00014104
-4.2212e-05
-0.000139665
-4.83503e-05
-0.000138164
-5.52168e-05
-0.000136507
-6.27876e-05
-0.000134265
-7.13075e-05
-0.000132027
-8.07535e-05
-0.000128731
-9.13931e-05
-0.000125398
-0.00010314
-0.000120322
-0.000116168
-0.000114921
-0.000130297
-0.000107178
-0.000145484
-9.82072e-05
-0.000161205
-8.58997e-05
-7.18672e-05
-0.000176957
-2.7635e-06
-0.000143061
-5.57518e-06
-0.000142977
-8.46971e-06
-0.000142625
-1.15144e-05
-0.000142346
-1.47208e-05
-0.000141572
-1.81912e-05
-0.000141047
-2.18935e-05
-0.000139867
-2.59711e-05
-0.000139019
-3.03969e-05
-0.000137502
-3.52566e-05
-0.000136165
-4.05908e-05
-0.000134315
-4.64381e-05
-0.000132301
-5.29286e-05
-0.000130001
-6.00572e-05
-0.000127121
-6.80075e-05
-0.000124061
-7.67332e-05
-0.00011999
-8.64173e-05
-0.000115698
-9.69342e-05
-0.00010979
-0.000108387
-0.000103453
-0.000120561
-9.49887e-05
-0.000133303
-8.545e-05
-0.000146143
-7.30449e-05
-5.92952e-05
-0.0001587
-2.62296e-06
-0.000140423
-5.29716e-06
-0.000140288
-8.06076e-06
-0.000139846
-1.09762e-05
-0.000139416
-1.4053e-05
-0.000138481
-1.73753e-05
-0.000137709
-2.09189e-05
-0.000136308
-2.47939e-05
-0.000135129
-2.89781e-05
-0.000133303
-3.35593e-05
-0.000131569
-3.8587e-05
-0.000129273
-4.41002e-05
-0.000126773
-5.01987e-05
-0.000123888
-5.68521e-05
-0.000120453
-6.41839e-05
-0.000116715
-7.21353e-05
-0.000112025
-8.08324e-05
-0.000106987
-9.01288e-05
-0.00010048
-0.000100086
-9.34812e-05
-0.000110489
-8.4572e-05
-0.00012117
-7.47556e-05
-0.000131727
-6.24739e-05
-4.9165e-05
-0.000141844
-2.43021e-06
-0.000137979
-4.91026e-06
-0.000137794
-7.47547e-06
-0.000137267
-1.0184e-05
-0.000136694
-1.30406e-05
-0.00013561
-1.61224e-05
-0.000134614
-1.94155e-05
-0.000133001
-2.30205e-05
-0.000131511
-2.69374e-05
-0.000129372
-3.12396e-05
-0.000127253
-3.59482e-05
-0.00012455
-4.10844e-05
-0.000121623
-4.6711e-05
-0.000118248
-5.28032e-05
-0.000114348
-5.94632e-05
-0.000110042
-6.66255e-05
-0.000104849
-7.43698e-05
-9.92298e-05
-8.2539e-05
-9.22975e-05
-9.11606e-05
-8.48469e-05
-0.000100022
-7.56983e-05
-0.000108969
-6.57961e-05
-0.000117644
-5.37866e-05
-4.09897e-05
-0.000125807
-2.16272e-06
-0.000135803
-4.38298e-06
-0.000135561
-6.70104e-06
-0.000134936
-9.1754e-06
-0.000134207
-1.18107e-05
-0.000132962
-1.46754e-05
-0.000131737
-1.77551e-05
-0.000129909
-2.11247e-05
-0.000128128
-2.47718e-05
-0.000125713
-2.87389e-05
-0.000123274
-3.30423e-05
-0.000120235
-3.77159e-05
-0.000116937
-4.28335e-05
-0.000113118
-4.83728e-05
-0.000108796
-5.43836e-05
-0.000104019
-6.07895e-05
-9.84313e-05
-6.76367e-05
-9.23708e-05
-7.47742e-05
-8.51483e-05
-8.22155e-05
-7.73941e-05
-8.97509e-05
-6.81514e-05
-9.72571e-05
-5.82786e-05
-0.000104424
-4.66087e-05
-3.43358e-05
-0.000111067
-1.89003e-06
-0.000133902
-3.83812e-06
-0.000133601
-5.88189e-06
-0.000132881
-8.07484e-06
-0.000132002
-1.04203e-05
-0.000130605
-1.29816e-05
-0.000129164
-1.57464e-05
-0.000127133
-1.87686e-05
-0.000125095
-2.20471e-05
-0.000122423
-2.56426e-05
-0.000119667
-2.95676e-05
-0.000116299
-3.38275e-05
-0.000112667
-3.84519e-05
-0.000108483
-4.34095e-05
-0.000103828
-4.87476e-05
-9.86703e-05
-5.43953e-05
-9.27729e-05
-6.03851e-05
-8.63704e-05
-6.65796e-05
-7.89435e-05
-7.2972e-05
-7.09913e-05
-7.93603e-05
-6.1753e-05
-8.56584e-05
-5.19705e-05
-9.15904e-05
-4.0667e-05
-2.88859e-05
-9.70307e-05
-1.52634e-06
-0.000132366
-3.11111e-06
-0.000132007
-4.79008e-06
-0.000131192
-6.61667e-06
-0.000130166
-8.60342e-06
-0.000128609
-1.08179e-05
-0.00012694
-1.32651e-05
-0.000124676
-1.59964e-05
-0.000122354
-1.89968e-05
-0.000119413
-2.22838e-05
-0.00011637
-2.58412e-05
-0.000112731
-2.96576e-05
-0.000108841
-3.37666e-05
-0.000104364
-3.81666e-05
-9.94184e-05
-4.28866e-05
-9.39407e-05
-4.78513e-05
-8.77988e-05
-5.30737e-05
-8.11386e-05
-5.84281e-05
-7.35798e-05
-6.39009e-05
-6.55094e-05
-6.93141e-05
-5.63308e-05
-7.46064e-05
-4.66695e-05
-7.95321e-05
-3.57326e-05
-2.44014e-05
-8.40081e-05
-1.21265e-06
-0.000131144
-2.46711e-06
-0.000130743
-3.79209e-06
-0.000129858
-5.23887e-06
-0.00012871
-6.82812e-06
-0.000127011
-8.62446e-06
-0.000125134
-1.06403e-05
-0.000122651
-1.29312e-05
-0.000120054
-1.54904e-05
-0.000116845
-1.8343e-05
-0.000113509
-2.14892e-05
-0.000109577
-2.49149e-05
-0.000105406
-2.86057e-05
-0.000100665
-3.25097e-05
-9.5506e-05
-3.66467e-05
-8.97955e-05
-4.0957e-05
-8.34803e-05
-4.54551e-05
-7.66325e-05
-5.00363e-05
-6.89907e-05
-5.46903e-05
-6.08475e-05
-5.92604e-05
-5.1753e-05
-6.37022e-05
-4.22201e-05
-6.78024e-05
-3.1625e-05
-2.06881e-05
-7.15084e-05
-8.4867e-07
-0.000130288
-1.72965e-06
-0.000129855
-2.66696e-06