/*--------------------------------*- C++ -*----------------------------------*\
| =========                 |                                                 |
| \\      /  F ield         | OpenFOAM: The Open Source CFD Toolbox           |
|  \\    /   O peration     | Version:  2012                                  |
|   \\  /    A nd           | Website:  www.openfoam.com                      |
|    \\/     M anipulation  |                                                 |
\*---------------------------------------------------------------------------*/
FoamFile
{
    version     2.0;
    format      ascii;
    class       volVectorField;
    location    "0.24";
    object      Uc;
}
// * * * * * * * * * * * * * * * * * * * * * * * * * * * * * * * * * * * * * //

dimensions      [0 1 -1 0 0 0 0];


internalField   nonuniform List<vector> 
2268
(
(0.0248738 -0.0117551 0)
(0.0745206 -0.0117075 0)
(0.12419 -0.0117657 0)
(0.174325 -0.0119276 0)
(0.224338 -0.0117082 0)
(0.274185 -0.0118491 0)
(0.324377 -0.011871 0)
(0.374564 -0.0118472 0)
(0.423936 -0.0114853 0)
(0.47225 -0.0113478 0)
(0.518629 -0.0105705 0)
(0.56284 -0.0103233 0)
(0.604806 -0.00950957 0)
(0.638329 -0.00633306 0)
(0.663451 -0.00553922 0)
(0.681056 -0.00278052 0)
(0.682656 0.00202414 0)
(0.663577 0.00699273 0)
(0.620464 0.0133821 0)
(0.545852 0.0218791 0)
(0.435036 0.0304916 0)
(0.284147 0.0408172 0)
(0.0988894 0.0467373 0)
(0.0248492 -0.0352538 0)
(0.0745018 -0.035137 0)
(0.124187 -0.0352904 0)
(0.174299 -0.0357788 0)
(0.224323 -0.0351338 0)
(0.274192 -0.0355487 0)
(0.3244 -0.0356195 0)
(0.374652 -0.0355658 0)
(0.424158 -0.0344951 0)
(0.472552 -0.0340419 0)
(0.519037 -0.0317632 0)
(0.563761 -0.0311607 0)
(0.605686 -0.0283183 0)
(0.639746 -0.0194637 0)
(0.666212 -0.0167881 0)
(0.68388 -0.00820118 0)
(0.686163 0.00560955 0)
(0.667912 0.0210492 0)
(0.62407 0.04042 0)
(0.546811 0.0666144 0)
(0.430758 0.0929731 0)
(0.275055 0.123229 0)
(0.0935208 0.137675 0)
(0.0248233 -0.0587286 0)
(0.0744999 -0.0586043 0)
(0.124207 -0.0587948 0)
(0.174287 -0.0596245 0)
(0.224362 -0.0585937 0)
(0.274311 -0.0592621 0)
(0.324596 -0.0593987 0)
(0.375009 -0.05936 0)
(0.424801 -0.0576277 0)
(0.473518 -0.0568032 0)
(0.520523 -0.0531847 0)
(0.566 -0.0523677 0)
(0.608388 -0.0469566 0)
(0.644105 -0.0338019 0)
(0.673217 -0.0287151 0)
(0.692583 -0.0137762 0)
(0.697714 0.00768067 0)
(0.684606 0.0337978 0)
(0.648002 0.06569 0)
(0.581191 0.10943 0)
(0.475901 0.154762 0)
(0.321921 0.207794 0)
(0.115498 0.236463 0)
(0.0247906 -0.0821758 0)
(0.0744555 -0.0821051 0)
(0.124116 -0.0822543 0)
(0.174111 -0.08346 0)
(0.224231 -0.0821094 0)
(0.27427 -0.0829999 0)
(0.324628 -0.0832241 0)
(0.375174 -0.0832466 0)
(0.425249 -0.0809376 0)
(0.474453 -0.0797699 0)
(0.522162 -0.0749794 0)
(0.568253 -0.0738472 0)
(0.611053 -0.0657363 0)
(0.647806 -0.0492711 0)
(0.679308 -0.0418912 0)
(0.701215 -0.0201053 0)
(0.707552 0.00858999 0)
(0.694443 0.0452783 0)
(0.656461 0.0894589 0)
(0.586324 0.150382 0)
(0.477838 0.21484 0)
(0.321846 0.294207 0)
(0.11496 0.345383 0)
(0.0247685 -0.105597 0)
(0.0744253 -0.105623 0)
(0.124047 -0.105657 0)
(0.173989 -0.107287 0)
(0.224212 -0.105704 0)
(0.274429 -0.106786 0)
(0.324968 -0.107121 0)
(0.375765 -0.107244 0)
(0.426302 -0.104489 0)
(0.476262 -0.103082 0)
(0.525066 -0.0972784 0)
(0.572431 -0.0957143 0)
(0.616542 -0.084943 0)
(0.65603 -0.0660952 0)
(0.690944 -0.056455 0)
(0.716291 -0.0278729 0)
(0.728887 0.00741005 0)
(0.725126 0.0544307 0)
(0.698544 0.11082 0)
(0.641152 0.18929 0)
(0.543043 0.273567 0)
(0.386019 0.38341 0)
(0.144596 0.468055 0)
(0.0247089 -0.12898 0)
(0.0742784 -0.129133 0)
(0.123803 -0.129001 0)
(0.173634 -0.131095 0)
(0.223878 -0.129375 0)
(0.274213 -0.130635 0)
(0.324877 -0.131099 0)
(0.375843 -0.131357 0)
(0.426779 -0.128331 0)
(0.477385 -0.126768 0)
(0.52712 -0.120162 0)
(0.575797 -0.118218 0)
(0.621436 -0.104854 0)
(0.66358 -0.0847625 0)
(0.701368 -0.0721464 0)
(0.728524 -0.0369935 0)
(0.74429 0.00312696 0)
(0.744641 0.0603248 0)
(0.720425 0.128933 0)
(0.662028 0.225898 0)
(0.561372 0.330894 0)
(0.396564 0.478178 0)
(0.146431 0.605597 0)
(0.024667 -0.152314 0)
(0.074174 -0.152621 0)
(0.123655 -0.152302 0)
(0.173461 -0.154882 0)
(0.223791 -0.153118 0)
(0.274325 -0.154562 0)
(0.325238 -0.155177 0)
(0.376549 -0.155615 0)
(0.428112 -0.152514 0)
(0.479649 -0.150856 0)
(0.530747 -0.143727 0)
(0.581358 -0.141576 0)
(0.629366 -0.125754 0)
(0.675236 -0.105458 0)
(0.717364 -0.0892189 0)
(0.75015 -0.0482491 0)
(0.77443 -0.00454274 0)
(0.785905 0.0624055 0)
(0.777078 0.142468 0)
(0.73738 0.258722 0)
(0.657067 0.383595 0)
(0.502504 0.576409 0)
(0.199176 0.76893 0)
(0.0245784 -0.175587 0)
(0.0739078 -0.176058 0)
(0.12326 -0.175574 0)
(0.172963 -0.178637 0)
(0.223239 -0.176908 0)
(0.273819 -0.178557 0)
(0.324852 -0.179361 0)
(0.376395 -0.180038 0)
(0.428463 -0.177066 0)
(0.480786 -0.175388 0)
(0.533076 -0.168056 0)
(0.585162 -0.165781 0)
(0.635112 -0.147843 0)
(0.684307 -0.128295 0)
(0.730377 -0.108063 0)
(0.768148 -0.0627497 0)
(0.79869 -0.0159506 0)
(0.815006 0.0606797 0)
(0.812677 0.149466 0)
(0.780666 0.285613 0)
(0.704028 0.430878 0)
(0.545021 0.677316 0)
(0.217828 0.966003 0)
(-0.03344 0.0142617 0)
(-0.117157 0.0214234 0)
(-0.189865 0.00957848 0)
(-0.23006 0.00759216 0)
(-0.24185 -0.00250411 0)
(-0.230104 -0.00242016 0)
(-0.207416 -0.00715913 0)
(-0.174285 -0.00686352 0)
(-0.138132 -0.00844482 0)
(-0.100493 -0.00749672 0)
(-0.0665305 -0.00688148 0)
(-0.0370415 -0.00559454 0)
(-0.0141992 -0.00405484 0)
(0.0019701 -0.00275654 0)
(0.0116191 -0.00128184 0)
(0.0153387 -0.00023474 0)
(0.0144232 0.000689396 0)
(0.0100158 0.00125047 0)
(0.00357627 0.00155369 0)
(-0.0432743 0.0469683 0)
(-0.13521 0.0635829 0)
(-0.200768 0.026381 0)
(-0.232334 0.0214608 0)
(-0.240735 -0.00763822 0)
(-0.228287 -0.00743312 0)
(-0.205859 -0.0211945 0)
(-0.173341 -0.0206125 0)
(-0.137227 -0.0252962 0)
(-0.0994914 -0.0225694 0)
(-0.0652673 -0.0206767 0)
(-0.0356391 -0.0168107 0)
(-0.0127611 -0.0121527 0)
(0.0032889 -0.00823081 0)
(0.0127718 -0.00381378 0)
(0.0163453 -0.00067386 0)
(0.0152462 0.00211594 0)
(0.0105578 0.00382308 0)
(0.00376295 0.00474046 0)
(-0.0343558 0.0800644 0)
(-0.128505 0.10979 0)
(-0.212642 0.043997 0)
(-0.252306 0.0342902 0)
(-0.258301 -0.0141982 0)
(-0.241637 -0.013112 0)
(-0.215671 -0.0359589 0)
(-0.179255 -0.0350292 0)
(-0.140448 -0.0426094 0)
(-0.100587 -0.0381255 0)
(-0.0649603 -0.0346966 0)
(-0.0344856 -0.0282214 0)
(-0.0110621 -0.0203032 0)
(0.00513678 -0.0136652 0)
(0.0144716 -0.00625219 0)
(0.0176478 -0.000975542 0)
(0.0160678 0.00368764 0)
(0.0109937 0.00653394 0)
(0.00390257 0.00806595 0)
(-0.0489905 0.115592 0)
(-0.152885 0.158653 0)
(-0.221552 0.0602804 0)
(-0.247609 0.0461087 0)
(-0.252562 -0.0212146 0)
(-0.236982 -0.019667 0)
(-0.211509 -0.0511428 0)
(-0.175911 -0.0503369 0)
(-0.136497 -0.0604357 0)
(-0.0961203 -0.0542922 0)
(-0.0598644 -0.0489704 0)
(-0.0292467 -0.0397996 0)
(-0.00606118 -0.0284175 0)
(0.00957439 -0.0189598 0)
(0.018286 -0.00850255 0)
(0.0208761 -0.00104724 0)
(0.0186084 0.00552622 0)
(0.0126153 0.00953267 0)
(0.00445311 0.0116849 0)
(-0.0355376 0.151622 0)
(-0.155337 0.217924 0)
(-0.267686 0.0781559 0)
(-0.301721 0.0539406 0)
(-0.28947 -0.0320057 0)
(-0.261451 -0.0272776 0)
(-0.230139 -0.0675452 0)
(-0.18732 -0.0671499 0)
(-0.142935 -0.0791299 0)
(-0.0986958 -0.0714535 0)
(-0.0597163 -0.063676 0)
(-0.0273721 -0.0517415 0)
(-0.00300657 -0.0365692 0)
(0.0129971 -0.0241343 0)
(0.0214612 -0.010503 0)
(0.0233169 -0.000807568 0)
(0.0202128 0.00770132 0)
(0.0135166 0.0128845 0)
(0.00474875 0.0156636 0)
(-0.0641498 0.194101 0)
(-0.195217 0.282305 0)
(-0.270008 0.0935266 0)
(-0.285509 0.059787 0)
(-0.28248 -0.0442067 0)
(-0.259016 -0.0368325 0)
(-0.225875 -0.0852658 0)
(-0.182818 -0.0858178 0)
(-0.136291 -0.0989954 0)
(-0.090349 -0.0898113 0)
(-0.0500644 -0.0788994 0)
(-0.0176005 -0.0639514 0)
(0.00610299 -0.0446736 0)
(0.0210284 -0.0290545 0)
(0.0283102 -0.0121499 0)
(0.0290223 -0.00012296 0)
(0.0245635 0.010363 0)
(0.0162263 0.0167464 0)
(0.00565883 0.0201549 0)
(-0.0332014 0.235586 0)
(-0.202329 0.368663 0)
(-0.37451 0.112371 0)
(-0.396982 0.0572406 0)
(-0.34819 -0.0635584 0)
(-0.297083 -0.0490582 0)
(-0.254507 -0.105107 0)
(-0.200379 -0.107176 0)
(-0.146197 -0.120338 0)
(-0.0942848 -0.109957 0)
(-0.0494905 -0.0948093 0)
(-0.0144712 -0.0766133 0)
(0.0108936 -0.0527517 0)
(0.0262051 -0.0337071 0)
(0.0329777 -0.0133455 0)
(0.0325627 0.0010756 0)
(0.0269791 0.0135649 0)
(0.0176472 0.0211887 0)
(0.00613146 0.0252341 0)
(-0.0886653 0.287498 0)
(-0.268599 0.46538 0)
(-0.360171 0.127996 0)
(-0.358319 0.0505325 0)
(-0.341228 -0.0847308 0)
(-0.305796 -0.0645542 0)
(-0.25735 -0.128189 0)
(-0.199383 -0.131637 0)
(-0.140254 -0.143939 0)
(-0.0839278 -0.132261 0)
(-0.0364023 -0.11164 0)
(-0.000672898 -0.0897436 0)
(0.0240748 -0.0608063 0)
(0.0381352 -0.038016 0)
(0.0433237 -0.0139951 0)
(0.0410562 0.00299482 0)
(0.0331796 0.0174992 0)
(0.0214048 0.0263601 0)
(0.00739066 0.0310497 0)
(0.0244911 -0.211822 0)
(0.0736445 -0.212546 0)
(0.122907 -0.211929 0)
(0.172571 -0.215694 0)
(0.222897 -0.214201 0)
(0.27374 -0.216276 0)
(0.325216 -0.217505 0)
(0.377461 -0.21877 0)
(0.430693 -0.216451 0)
(0.484781 -0.2151 0)
(0.539665 -0.208226 0)
(0.595106 -0.205956 0)
(0.649972 -0.186426 0)
(0.706162 -0.169445 0)
(0.759944 -0.142748 0)
(0.810558 -0.0967926 0)
(0.857008 -0.0430333 0)
(0.894187 0.0426779 0)
(0.924352 0.138246 0)
(0.956743 0.2794 0)
(0.995904 0.433944 0)
(1.06071 0.684253 0)
(1.14403 1.02994 0)
(0.0242083 -0.260775 0)
(0.072787 -0.261835 0)
(0.121589 -0.261217 0)
(0.170877 -0.265875 0)
(0.220957 -0.264951 0)
(0.271857 -0.2678 0)
(0.323685 -0.269824 0)
(0.376635 -0.272196 0)
(0.431116 -0.271301 0)
(0.487153 -0.270948 0)
(0.544794 -0.265491 0)
(0.60383 -0.263766 0)
(0.664886 -0.245143 0)
(0.728694 -0.231353 0)
(0.792571 -0.199115 0)
(0.858019 -0.157094 0)
(0.918686 -0.0904079 0)
(0.971739 -0.000651163 0)
(1.01786 0.104896 0)
(1.05655 0.241291 0)
(1.0929 0.396153 0)
(1.1577 0.59176 0)
(1.28934 0.906356 0)
(0.0239357 -0.309171 0)
(0.0719533 -0.31054 0)
(0.12031 -0.310178 0)
(0.169264 -0.315669 0)
(0.219141 -0.315635 0)
(0.270137 -0.319545 0)
(0.322364 -0.322677 0)
(0.3761 -0.326585 0)
(0.431973 -0.327841 0)
(0.490422 -0.329492 0)
(0.551542 -0.326328 0)
(0.616001 -0.327068 0)
(0.685458 -0.313035 0)
(0.759643 -0.302174 0)
(0.838757 -0.272031 0)
(0.920487 -0.232123 0)
(0.998465 -0.154748 0)
(1.07734 -0.0689238 0)
(1.15469 0.0490798 0)
(1.2294 0.183139 0)
(1.30594 0.340836 0)
(1.39282 0.494605 0)
(1.51289 0.750486 0)
(0.023417 -0.356771 0)
(0.0703736 -0.35841 0)
(0.117754 -0.358545 0)
(0.165813 -0.364821 0)
(0.214909 -0.365972 0)
(0.265425 -0.371249 0)
(0.317577 -0.375897 0)
(0.371666 -0.381753 0)
(0.428451 -0.38592 0)
(0.488535 -0.390564 0)
(0.551891 -0.390381 0)
(0.619476 -0.395749 0)
(0.693971 -0.389057 0)
(0.778215 -0.385407 0)
(0.873267 -0.363874 0)
(0.973386 -0.323078 0)
(1.07542 -0.244739 0)
(1.17415 -0.157464 0)
(1.26414 -0.030545 0)
(1.34209 0.109351 0)
(1.39924 0.280229 0)
(1.45483 0.417748 0)
(1.53854 0.628267 0)
(0.0229127 -0.403342 0)
(0.0688662 -0.405233 0)
(0.115394 -0.40612 0)
(0.162696 -0.413104 0)
(0.211169 -0.415768 0)
(0.261313 -0.422638 0)
(0.313288 -0.429178 0)
(0.367388 -0.437226 0)
(0.424273 -0.444712 0)
(0.485555 -0.453772 0)
(0.552504 -0.458159 0)
(0.626632 -0.470424 0)
(0.709751 -0.472818 0)
(0.803036 -0.480113 0)
(0.90613 -0.468462 0)
(1.00932 -0.423139 0)
(1.09983 -0.338416 0)
(1.18065 -0.244141 0)
(1.25906 -0.112769 0)
(1.33263 0.0399866 0)
(1.41008 0.215473 0)
(1.4913 0.351781 0)
(1.56769 0.539554 0)
(0.0223402 -0.448831 0)
(0.0670914 -0.450922 0)
(0.11244 -0.452787 0)
(0.158451 -0.460237 0)
(0.205518 -0.464674 0)
(0.25439 -0.473266 0)
(0.305415 -0.482089 0)
(0.359562 -0.493127 0)
(0.417689 -0.504424 0)
(0.480829 -0.519132 0)
(0.549101 -0.528729 0)
(0.62132 -0.54707 0)
(0.697303 -0.556611 0)
(0.774543 -0.568442 0)
(0.851952 -0.561512 0)
(0.955603 -0.537306 0)
(1.13477 -0.494951 0)
(1.36193 -0.396923 0)
(1.55678 -0.234171 0)
(1.63028 0.0145889 0)
(1.56715 0.228338 0)
(1.5198 0.307006 0)
(1.56231 0.466725 0)
(0.0217393 -0.493141 0)
(0.0652134 -0.495298 0)
(0.109494 -0.498508 0)
(0.154763 -0.506272 0)
(0.201394 -0.512825 0)
(0.250207 -0.523309 0)
(0.301297 -0.534698 0)
(0.354651 -0.548605 0)
(0.409587 -0.562786 0)
(0.466476 -0.5821 0)
(0.527096 -0.596677 0)
(0.596992 -0.623305 0)
(0.676678 -0.637184 0)
(0.700517 -0.589446 0)
(0.694995 -0.612352 0)
(0.812654 -0.707774 0)
(1.05207 -0.74448 0)
(1.32294 -0.647689 0)
(1.57736 -0.434662 0)
(1.74922 -0.0310399 0)
(1.81039 0.276778 0)
(1.79639 0.321497 0)
(1.75382 0.453968 0)
(0.0214065 -0.53658 0)
(0.0640506 -0.53858 0)
(0.107524 -0.543655 0)
(0.152006 -0.551707 0)
(0.197242 -0.56037 0)
(0.243635 -0.572544 0)
(0.291018 -0.586161 0)
(0.340922 -0.60315 0)
(0.397747 -0.622642 0)
(0.486566 -0.670135 0)
(0.618646 -0.692338 0)
(0.750548 -0.720273 0)
(0.804899 -0.674635 0)
(0.766016 -0.535988 0)
(0.762618 -0.656434 0)
(0.861456 -0.880977 0)
(0.972512 -0.92321 0)
(1.05178 -0.820542 0)
(1.11057 -0.576261 0)
(1.2167 -0.168505 0)
(1.43517 0.133483 0)
(1.6777 0.235399 0)
(1.8741 0.385834 0)
(0.0207642 -0.580412 0)
(0.0618981 -0.581805 0)
(0.103924 -0.5891 0)
(0.147674 -0.597478 0)
(0.194268 -0.609176 0)
(0.249909 -0.628345 0)
(0.3387 -0.669147 0)
(0.472817 -0.707137 0)
(0.637759 -0.743293 0)
(0.823682 -0.826271 0)
(1.00968 -0.844427 0)
(1.14253 -0.82272 0)
(1.18118 -0.665385 0)
(1.14826 -0.472745 0)
(1.07575 -0.64305 0)
(0.989407 -0.90662 0)
(0.939399 -0.958614 0)
(0.917566 -0.842515 0)
(0.90024 -0.595615 0)
(0.955068 -0.31061 0)
(1.12915 -0.11869 0)
(1.39691 -0.025066 0)
(1.73525 0.109087 0)
(0.0279479 -0.630693 0)
(0.0857237 -0.633518 0)
(0.150632 -0.647264 0)
(0.22653 -0.661621 0)
(0.314822 -0.682122 0)
(0.420144 -0.718022 0)
(0.542506 -0.791766 0)
(0.687462 -0.864697 0)
(0.86028 -0.924943 0)
(1.0395 -1.01138 0)
(1.19314 -1.00041 0)
(1.30313 -0.910536 0)
(1.38131 -0.694697 0)
(1.4117 -0.440587 0)
(1.33807 -0.528 0)
(1.17468 -0.770342 0)
(1.01142 -0.88021 0)
(0.906041 -0.792712 0)
(0.88695 -0.608488 0)
(0.984852 -0.450956 0)
(1.18287 -0.35208 0)
(1.43178 -0.310727 0)
(1.71622 -0.230968 0)
(0.0345123 -0.693344 0)
(0.105014 -0.699543 0)
(0.180275 -0.721866 0)
(0.263882 -0.74708 0)
(0.358276 -0.78002 0)
(0.465525 -0.833514 0)
(0.572483 -0.90649 0)
(0.677846 -1.0013 0)
(0.807926 -1.09252 0)
(0.965763 -1.18233 0)
(1.12437 -1.14304 0)
(1.26028 -1.01479 0)
(1.34931 -0.758211 0)
(1.38449 -0.442683 0)
(1.37754 -0.444595 0)
(1.2884 -0.599588 0)
(1.12217 -0.719441 0)
(0.994581 -0.718998 0)
(0.977202 -0.645237 0)
(1.0599 -0.595449 0)
(1.21173 -0.558948 0)
(1.41929 -0.562405 0)
(1.682 -0.528983 0)
(0.0312295 -0.759278 0)
(0.0938643 -0.767139 0)
(0.155312 -0.791391 0)
(0.216613 -0.822919 0)
(0.279177 -0.861659 0)
(0.346791 -0.927351 0)
(0.427577 -1.00108 0)
(0.528037 -1.11331 0)
(0.656323 -1.23992 0)
(0.790394 -1.32805 0)
(0.900815 -1.26744 0)
(0.98571 -1.11205 0)
(1.04711 -0.811865 0)
(1.08966 -0.466857 0)
(1.10138 -0.424908 0)
(1.05948 -0.487242 0)
(0.978669 -0.583146 0)
(0.926357 -0.674154 0)
(0.955138 -0.701239 0)
(1.06154 -0.729242 0)
(1.2211 -0.737852 0)
(1.42795 -0.799779 0)
(1.68455 -0.813321 0)
(0.0221761 -0.812814 0)
(0.0680441 -0.822374 0)
(0.114822 -0.844649 0)
(0.162542 -0.878953 0)
(0.212215 -0.918148 0)
(0.264313 -0.990899 0)
(0.319639 -1.07405 0)
(0.380327 -1.20203 0)
(0.438458 -1.3383 0)
(0.467761 -1.39361 0)
(0.462385 -1.30719 0)
(0.442423 -1.13727 0)
(0.438731 -0.84434 0)
(0.481928 -0.520273 0)
(0.54545 -0.446822 0)
(0.593984 -0.471691 0)
(0.649927 -0.573399 0)
(0.732486 -0.714006 0)
(0.848304 -0.806441 0)
(1.00875 -0.891989 0)
(1.20721 -0.934692 0)
(1.44815 -1.05277 0)
(1.74391 -1.11529 0)
(0.0167992 -0.851844 0)
(0.05111 -0.863644 0)
(0.0844854 -0.883653 0)
(0.116012 -0.919311 0)
(0.146388 -0.957958 0)
(0.174117 -1.03104 0)
(0.199509 -1.11476 0)
(0.214844 -1.23745 0)
(0.200553 -1.34665 0)
(0.15047 -1.36407 0)
(0.0778892 -1.25806 0)
(0.00692366 -1.0947 0)
(-0.0181851 -0.857667 0)
(0.0311643 -0.599676 0)
(0.132715 -0.533053 0)
(0.265494 -0.567422 0)
(0.419598 -0.688513 0)
(0.577847 -0.84066 0)
(0.738159 -0.957062 0)
(0.920982 -1.08614 0)
(1.14323 -1.16316 0)
(1.41266 -1.33704 0)
(1.74818 -1.46531 0)
(0.0128432 -0.881493 0)
(0.0377553 -0.893231 0)
(0.0602729 -0.909955 0)
(0.0793001 -0.943531 0)
(0.0941788 -0.978932 0)
(0.10163 -1.04513 0)
(0.095896 -1.12012 0)
(0.0683473 -1.2195 0)
(0.0103173 -1.2916 0)
(-0.0719853 -1.28575 0)
(-0.156478 -1.17819 0)
(-0.217548 -1.04155 0)
(-0.227045 -0.875737 0)
(-0.159734 -0.69858 0)
(-0.0230523 -0.67333 0)
(0.147962 -0.732229 0)
(0.317641 -0.848886 0)
(0.472905 -0.995145 0)
(0.624587 -1.11591 0)
(0.794506 -1.28158 0)
(1.01195 -1.40941 0)
(1.29948 -1.65038 0)
(1.68831 -1.87981 0)
(0.00827057 -0.902571 0)
(0.0234907 -0.912202 0)
(0.0357445 -0.925644 0)
(0.0439952 -0.954969 0)
(0.0466807 -0.984857 0)
(0.0391086 -1.03879 0)
(0.0146972 -1.09587 0)
(-0.0324021 -1.16843 0)
(-0.103421 -1.21265 0)
(-0.18477 -1.19989 0)
(-0.251532 -1.11171 0)
(-0.285161 -1.01254 0)
(-0.270165 -0.909979 0)
(-0.187383 -0.814923 0)
(-0.0523876 -0.829792 0)
(0.0903856 -0.890904 0)
(0.220427 -0.99121 0)
(0.340865 -1.12968 0)
(0.464738 -1.25809 0)
(0.604248 -1.45017 0)
(0.786267 -1.64209 0)
(1.04515 -1.96669 0)
(1.41606 -2.32694 0)
(0.00427908 -0.915041 0)
(0.0116521 -0.922153 0)
(0.0168407 -0.932937 0)
(0.0184824 -0.957332 0)
(0.014335 -0.980737 0)
(0.000359872 -1.02096 0)
(-0.0285388 -1.05982 0)
(-0.0770009 -1.10813 0)
(-0.144686 -1.13324 0)
(-0.214724 -1.12685 0)
(-0.261864 -1.06998 0)
(-0.271676 -1.01033 0)
(-0.23837 -0.960465 0)
(-0.164655 -0.921466 0)
(-0.071663 -0.952144 0)
(0.0221759 -1.00612 0)
(0.115317 -1.10006 0)
(0.20504 -1.2318 0)
(0.299533 -1.37519 0)
(0.402851 -1.57689 0)
(0.533248 -1.82915 0)
(0.699311 -2.20652 0)
(0.915046 -2.67655 0)
(0.000667027 -0.919872 0)
(0.00198464 -0.925775 0)
(0.00237999 -0.934645 0)
(-0.000652535 -0.953943 0)
(-0.00885028 -0.971433 0)
(-0.0245588 -1.00015 0)
(-0.0510205 -1.02471 0)
(-0.0897783 -1.05529 0)
(-0.138688 -1.0686 0)
(-0.186821 -1.07242 0)
(-0.21749 -1.04591 0)
(-0.221768 -1.01995 0)
(-0.200993 -1.00492 0)
(-0.158498 -0.993546 0)
(-0.10237 -1.02968 0)
(-0.0435421 -1.08176 0)
(0.01358 -1.17519 0)
(0.0662425 -1.29953 0)
(0.11685 -1.45305 0)
(0.164038 -1.65005 0)
(0.206389 -1.92937 0)
(0.226053 -2.29274 0)
(0.215291 -2.79613 0)
(-0.00123626 -0.91916 0)
(-0.003768 -0.924988 0)
(-0.00731963 -0.931981 0)
(-0.0137713 -0.946794 0)
(-0.0239159 -0.959865 0)
(-0.0387943 -0.980689 0)
(-0.0600047 -0.995963 0)
(-0.0883026 -1.01635 0)
(-0.122147 -1.02407 0)
(-0.155275 -1.03498 0)
(-0.179602 -1.02779 0)
(-0.190199 -1.02284 0)
(-0.185537 -1.02732 0)
(-0.166592 -1.03263 0)
(-0.140651 -1.07283 0)
(-0.115857 -1.12241 0)
(-0.0932114 -1.21446 0)
(-0.0769741 -1.32925 0)
(-0.0702789 -1.48066 0)
(-0.0754384 -1.66442 0)
(-0.102744 -1.92986 0)
(-0.1733 -2.24083 0)
(-0.306981 -2.7026 0)
(-0.00212804 -0.915642 0)
(-0.00769383 -0.920094 0)
(-0.0153487 -0.925338 0)
(-0.0251586 -0.936819 0)
(-0.0377215 -0.946743 0)
(-0.0534362 -0.962787 0)
(-0.072843 -0.972765 0)
(-0.0955443 -0.988009 0)
(-0.120718 -0.992816 0)
(-0.146775 -1.00648 0)
(-0.168838 -1.00939 0)
(-0.182097 -1.01699 0)
(-0.186209 -1.03346 0)
(-0.18539 -1.04609 0)
(-0.185358 -1.08521 0)
(-0.187256 -1.13277 0)
(-0.192516 -1.22131 0)
(-0.209536 -1.32135 0)
(-0.243779 -1.46061 0)
(-0.300756 -1.62175 0)
(-0.389827 -1.85528 0)
(-0.526117 -2.10723 0)
(-0.73961 -2.48696 0)
(-0.00456402 -0.908783 0)
(-0.0141277 -0.91148 0)
(-0.0246133 -0.915452 0)
(-0.0365553 -0.924575 0)
(-0.050624 -0.931951 0)
(-0.067216 -0.944838 0)
(-0.0865121 -0.951544 0)
(-0.107703 -0.964844 0)
(-0.129544 -0.968458 0)
(-0.150966 -0.982842 0)
(-0.170045 -0.991406 0)
(-0.186606 -1.00474 0)
(-0.202147 -1.0257 0)
(-0.217272 -1.03921 0)
(-0.232904 -1.07614 0)
(-0.250995 -1.12148 0)
(-0.276207 -1.20171 0)
(-0.315199 -1.28439 0)
(-0.375249 -1.40253 0)
(-0.465967 -1.53111 0)
(-0.60174 -1.71965 0)
(-0.79527 -1.91106 0)
(-1.07668 -2.18539 0)
(-0.00632573 -0.897707 0)
(-0.0188368 -0.900108 0)
(-0.0314844 -0.903312 0)
(-0.0451972 -0.910667 0)
(-0.0605771 -0.915999 0)
(-0.0778058 -0.926536 0)
(-0.0967628 -0.931136 0)
(-0.116864 -0.943487 0)
(-0.136997 -0.947364 0)
(-0.15742 -0.961616 0)
(-0.179062 -0.971444 0)
(-0.202193 -0.984546 0)
(-0.227265 -1.00481 0)
(-0.252985 -1.01879 0)
(-0.28008 -1.05337 0)
(-0.313148 -1.09258 0)
(-0.356953 -1.16098 0)
(-0.415358 -1.22696 0)
(-0.494133 -1.32015 0)
(-0.602445 -1.41316 0)
(-0.755532 -1.54698 0)
(-0.972409 -1.67092 0)
(-1.28055 -1.83263 0)
(-0.00607511 -0.885116 0)
(-0.0186194 -0.887262 0)
(-0.0320357 -0.889708 0)
(-0.0466396 -0.895557 0)
(-0.062657 -0.899298 0)
(-0.0802103 -0.908024 0)
(-0.0992236 -0.91123 0)
(-0.11964 -0.922414 0)
(-0.141374 -0.926102 0)
(-0.164967 -0.938384 0)
(-0.190623 -0.946883 0)
(-0.217689 -0.958399 0)
(-0.24639 -0.976656 0)
(-0.277083 -0.989987 0)
(-0.311966 -1.01962 0)
(-0.354933 -1.04965 0)
(-0.410443 -1.10383 0)
(-0.482154 -1.15307 0)
(-0.574416 -1.22187 0)
(-0.692702 -1.28341 0)
(-0.845689 -1.3688 0)
(-1.0435 -1.43199 0)
(-1.30294 -1.50075 0)
(-0.00681843 -0.872035 0)
(-0.0206991 -0.873539 0)
(-0.0352163 -0.87511 0)
(-0.050728 -0.879641 0)
(-0.0674949 -0.882017 0)
(-0.0857298 -0.889088 0)
(-0.10551 -0.890929 0)
(-0.127139 -0.90021 0)
(-0.150604 -0.902631 0)
(-0.17588 -0.912492 0)
(-0.202647 -0.919839 0)
(-0.231228 -0.929267 0)
(-0.263358 -0.944402 0)
(-0.299217 -0.955105 0)
(-0.339938 -0.978266 0)
(-0.388262 -0.998999 0)
(-0.448273 -1.03812 0)
(-0.5241 -1.07023 0)
(-0.620332 -1.11499 0)
(-0.742276 -1.14857 0)
(-0.896374 -1.19472 0)
(-1.08816 -1.2142 0)
(-1.32213 -1.22229 0)
(-0.0074937 -0.857531 0)
(-0.0226206 -0.858651 0)
(-0.0381822 -0.85953 0)
(-0.0545485 -0.862944 0)
(-0.0720355 -0.864049 0)
(-0.0909383 -0.869492 0)
(-0.111329 -0.869911 0)
(-0.133386 -0.877083 0)
(-0.156831 -0.878371 0)
(-0.18206 -0.885752 0)
(-0.210149 -0.891206 0)
(-0.241454 -0.897472 0)
(-0.276732 -0.908208 0)
(-0.316385 -0.915164 0)
(-0.361787 -0.931406 0)
(-0.414852 -0.943713 0)
(-0.478464 -0.968909 0)
(-0.555609 -0.985443 0)
(-0.648913 -1.00903 0)
(-0.761127 -1.01892 0)
(-0.896761 -1.03289 0)
(-1.06041 -1.0185 0)
(-1.25472 -0.987226 0)
(-0.00780935 -0.842037 0)
(-0.0235794 -0.842864 0)
(-0.0397575 -0.843188 0)
(-0.0566457 -0.845635 0)
(-0.0744763 -0.845633 0)
(-0.0935318 -0.849529 0)
(-0.113882 -0.848698 0)
(-0.135873 -0.853797 0)
(-0.159739 -0.853877 0)
(-0.185893 -0.858373 0)
(-0.214925 -0.860946 0)
(-0.246815 -0.863987 0)
(-0.282448 -0.870191 0)
(-0.322577 -0.872762 0)
(-0.368488 -0.8818 0)
(-0.422011 -0.885956 0)
(-0.485673 -0.898507 0)
(-0.561898 -0.901455 0)
(-0.652368 -0.908061 0)
(-0.758384 -0.9003 0)
(-0.881928 -0.890759 0)
(-1.02384 -0.85325 0)
(-1.18248 -0.797464 0)
(-0.00780907 -0.82623 0)
(-0.0235798 -0.826752 0)
(-0.0397746 -0.826545 0)
(-0.0567125 -0.828062 0)
(-0.0746125 -0.827076 0)
(-0.0937849 -0.829446 0)
(-0.11437 -0.82742 0)
(-0.13676 -0.830252 0)
(-0.161292 -0.82856 0)
(-0.188125 -0.830216 0)
(-0.217689 -0.82999 0)
(-0.250368 -0.829826 0)
(-0.287082 -0.831418 0)
(-0.328294 -0.829561 0)
(-0.374871 -0.831822 0)
(-0.427973 -0.828546 0)
(-0.489266 -0.830103 0)
(-0.560325 -0.821599 0)
(-0.642168 -0.814497 0)
(-0.735756 -0.793009 0)
(-0.842308 -0.766542 0)
(-0.961667 -0.71462 0)
(-1.09112 -0.646285 0)
(-0.00782294 -0.810415 0)
(-0.0236161 -0.810635 0)
(-0.039812 -0.809899 0)
(-0.0567179 -0.810485 0)
(-0.0745512 -0.808531 0)
(-0.0936328 -0.809335 0)
(-0.114108 -0.806054 0)
(-0.136273 -0.806629 0)
(-0.160371 -0.803098 0)
(-0.186614 -0.802125 0)
(-0.215604 -0.799022 0)
(-0.247637 -0.795545 0)
(-0.283376 -0.79267 0)
(-0.323353 -0.786499 0)
(-0.368432 -0.782551 0)
(-0.419563 -0.772844 0)
(-0.477845 -0.765409 0)
(-0.544183 -0.747983 0)
(-0.619072 -0.730367 0)
(-0.702747 -0.698755 0)
(-0.795143 -0.660612 0)
(-0.894974 -0.600018 0)
(-0.999109 -0.525883 0)
(-0.00775887 -0.794656 0)
(-0.0234083 -0.794596 0)
(-0.0394185 -0.793373 0)
(-0.0560658 -0.793091 0)
(-0.0735563 -0.790225 0)
(-0.0921969 -0.789531 0)
(-0.112156 -0.785023 0)
(-0.133736 -0.783497 0)
(-0.157283 -0.778146 0)
(-0.183079 -0.774577 0)
(-0.211588 -0.768581 0)
(-0.243023 -0.761998 0)
(-0.277922 -0.755023 0)
(-0.316664 -0.744829 0)
(-0.359843 -0.735315 0)
(-0.408055 -0.720033 0)
(-0.461955 -0.705267 0)
(-0.522028 -0.68087 0)
(-0.58851 -0.655186 0)
(-0.661387 -0.616384 0)
(-0.740057 -0.57084 0)
(-0.822998 -0.50588 0)
(-0.907456 -0.43026 0)
(-0.00741584 -0.779312 0)
(-0.0223768 -0.77899 0)
(-0.0376894 -0.777313 0)
(-0.0536274 -0.776216 0)
(-0.0704023 -0.772477 0)
(-0.0883193 -0.770352 0)
(-0.107567 -0.764612 0)
(-0.128445 -0.761051 0)
(-0.151263 -0.753806 0)
(-0.176181 -0.747762 0)
(-0.203536 -0.739062 0)
(-0.233542 -0.729579 0)
(-0.26665 -0.718905 0)
(-0.303197 -0.705091 0)
(-0.343661 -0.6908 0)
(-0.388411 -0.670928 0)
(-0.437814 -0.650358 0)
(-0.492023 -0.620729 0)
(-0.550978 -0.589064 0)
(-0.614381 -0.545346 0)
(-0.681244 -0.495416 0)
(-0.749894 -0.428754 0)
(-0.818046 -0.353811 0)
(-0.0070387 -0.764698 0)
(-0.0212536 -0.764107 0)
(-0.0358459 -0.761966 0)
(-0.0510855 -0.760055 0)
(-0.0671657 -0.755444 0)
(-0.0843378 -0.751945 0)
(-0.102762 -0.744982 0)
(-0.12267 -0.739516 0)
(-0.144297 -0.730498 0)
(-0.167819 -0.722213 0)
(-0.193604 -0.711028 0)
(-0.221891 -0.698853 0)
(-0.253051 -0.684864 0)
(-0.28727 -0.667833 0)
(-0.324799 -0.649496 0)
(-0.365812 -0.625861 0)
(-0.410488 -0.600695 0)
(-0.458773 -0.567203 0)
(-0.510441 -0.531231 0)
(-0.565078 -0.484366 0)
(-0.621656 -0.432155 0)
(-0.678648 -0.365562 0)
(-0.734126 -0.292572 0)
(-0.00652145 -0.75099 0)
(-0.0196981 -0.750126 0)
(-0.033237 -0.747514 0)
(-0.0473891 -0.744807 0)
(-0.0623231 -0.739361 0)
(-0.0782587 -0.734593 0)
(-0.0953657 -0.726463 0)
(-0.113877 -0.719262 0)
(-0.134062 -0.708568 0)
(-0.156118 -0.698174 0)
(-0.180298 -0.684689 0)
(-0.206717 -0.67005 0)
(-0.235599 -0.653161 0)
(-0.267046 -0.633377 0)
(-0.301266 -0.611678 0)
(-0.338359 -0.585018 0)
(-0.37836 -0.556271 0)
(-0.421064 -0.520017 0)
(-0.466122 -0.481041 0)
(-0.513037 -0.43233 0)
(-0.560825 -0.379139 0)
(-0.608114 -0.313613 0)
(-0.653299 -0.243193 0)
(-0.00580366 -0.738529 0)
(-0.0175654 -0.737376 0)
(-0.0297439 -0.73427 0)
(-0.0426043 -0.730755 0)
(-0.0563161 -0.724475 0)
(-0.0710753 -0.718482 0)
(-0.0870269 -0.709201 0)
(-0.104334 -0.700377 0)
(-0.123163 -0.688094 0)
(-0.143596 -0.675797 0)
(-0.16579 -0.660309 0)
(-0.189879 -0.643519 0)
(-0.216154 -0.62411 0)
(-0.244752 -0.601932 0)
(-0.275746 -0.577431 0)
(-0.309066 -0.54835 0)
(-0.344631 -0.516843 0)
(-0.382159 -0.478661 0)
(-0.421281 -0.437646 0)
(-0.461471 -0.388035 0)
(-0.501835 -0.334692 0)
(-0.54121 -0.270817 0)
(-0.578268 -0.203191 0)
(-0.00507188 -0.727532 0)
(-0.0153714 -0.726067 0)
(-0.0260836 -0.722439 0)
(-0.0374528 -0.7181 0)
(-0.0496317 -0.710975 0)
(-0.0627989 -0.703781 0)
(-0.0770915 -0.693371 0)
(-0.092621 -0.683071 0)
(-0.109529 -0.669348 0)
(-0.127975 -0.655334 0)
(-0.148156 -0.63805 0)
(-0.170121 -0.619358 0)
(-0.193961 -0.597768 0)
(-0.219675 -0.573555 0)
(-0.247303 -0.546756 0)
(-0.276783 -0.515774 0)
(-0.308013 -0.482155 0)
(-0.340709 -0.442638 0)
(-0.374486 -0.40027 0)
(-0.408783 -0.350418 0)
(-0.442827 -0.297398 0)
(-0.475646 -0.235427 0)
(-0.506164 -0.170541 0)
(-0.00409592 -0.718258 0)
(-0.0124446 -0.716479 0)
(-0.0212028 -0.712339 0)
(-0.03061 -0.707199 0)
(-0.040843 -0.699231 0)
(-0.0521171 -0.690841 0)
(-0.0646266 -0.679255 0)
(-0.0785229 -0.667494 0)
(-0.0939041 -0.652354 0)
(-0.110776 -0.636712 0)
(-0.129143 -0.617809 0)
(-0.148931 -0.597516 0)
(-0.170198 -0.574155 0)
(-0.193032 -0.548258 0)
(-0.217506 -0.519569 0)
(-0.243495 -0.487093 0)
(-0.270832 -0.451856 0)
(-0.299214 -0.411432 0)
(-0.328269 -0.368211 0)
(-0.357482 -0.318531 0)
(-0.38621 -0.266082 0)
(-0.41363 -0.206088 0)
(-0.43886 -0.143743 0)
(-0.00325415 -0.710818 0)
(-0.00987464 -0.708769 0)
(-0.0167965 -0.704185 0)
(-0.0242345 -0.698318 0)
(-0.0323817 -0.689534 0)
(-0.0414669 -0.679971 0)
(-0.0516968 -0.667165 0)
(-0.063254 -0.653896 0)
(-0.0762694 -0.637306 0)
(-0.0907919 -0.620101 0)
(-0.10689 -0.599676 0)
(-0.124525 -0.577932 0)
(-0.143622 -0.553065 0)
(-0.164003 -0.525809 0)
(-0.185581 -0.495629 0)
(-0.208249 -0.462026 0)
(-0.231886 -0.425588 0)
(-0.256251 -0.384585 0)
(-0.281033 -0.340848 0)
(-0.305786 -0.291556 0)
(-0.329969 -0.23978 0)
(-0.352892 -0.181697 0)
(-0.37384 -0.121629 0)
(-0.0022774 -0.705214 0)
(-0.00691891 -0.702964 0)
(-0.0117983 -0.698038 0)
(-0.017115 -0.691556 0)
(-0.0230616 -0.682041 0)
(-0.0298538 -0.671415 0)
(-0.0376951 -0.657468 0)
(-0.0467916 -0.642745 0)
(-0.0573509 -0.624673 0)
(-0.0695129 -0.605824 0)
(-0.0833326 -0.583794 0)
(-0.0987073 -0.560547 0)
(-0.115508 -0.53428 0)
(-0.133504 -0.505934 0)
(-0.152515 -0.474621 0)
(-0.172351 -0.440225 0)
(-0.192835 -0.402956 0)
(-0.213735 -0.361637 0)
(-0.234802 -0.317628 0)
(-0.255682 -0.268827 0)
(-0.275962 -0.217738 0)
(-0.295089 -0.161395 0)
(-0.312496 -0.103302 0)
(-0.00161246 -0.701266 0)
(-0.0048721 -0.698895 0)
(-0.00826112 -0.693722 0)
(-0.0119651 -0.68673 0)
(-0.0161618 -0.676596 0)
(-0.0210214 -0.665074 0)
(-0.026694 -0.650151 0)
(-0.0333375 -0.634166 0)
(-0.0411101 -0.614751 0)
(-0.0501382 -0.594373 0)
(-0.0605682 -0.570797 0)
(-0.0724992 -0.546024 0)
(-0.0859989 -0.518274 0)
(-0.10096 -0.488741 0)
(-0.117156 -0.456353 0)
(-0.134248 -0.421304 0)
(-0.151914 -0.383461 0)
(-0.169817 -0.34206 0)
(-0.18769 -0.297995 0)
(-0.205259 -0.249746 0)
(-0.222229 -0.199311 0)
(-0.238199 -0.144479 0)
(-0.252738 -0.0880452 0)
(-0.000937395 -0.698673 0)
(-0.00289154 -0.696186 0)
(-0.00504097 -0.690802 0)
(-0.00748296 -0.683411 0)
(-0.0102975 -0.672807 0)
(-0.013564 -0.660634 0)
(-0.0173562 -0.645015 0)
(-0.0217719 -0.628125 0)
(-0.0269423 -0.607722 0)
(-0.0330342 -0.586143 0)
(-0.0402489 -0.56123 0)
(-0.0487211 -0.535022 0)
(-0.0585307 -0.505787 0)
(-0.0696992 -0.474905 0)
(-0.082229 -0.441256 0)
(-0.0959724 -0.405347 0)
(-0.110664 -0.366836 0)
(-0.125886 -0.325332 0)
(-0.141183 -0.281325 0)
(-0.156113 -0.233694 0)
(-0.170344 -0.183947 0)
(-0.183564 -0.130449 0)
(-0.195528 -0.0753847 0)
(-0.000631113 -0.697072 0)
(-0.00197674 -0.694422 0)
(-0.00349767 -0.688828 0)
(-0.0052185 -0.681152 0)
(-0.00715494 -0.670242 0)