/*--------------------------------*- C++ -*----------------------------------*\
| =========                 |                                                 |
| \\      /  F ield         | OpenFOAM: The Open Source CFD Toolbox           |
|  \\    /   O peration     | Version:  2012                                  |
|   \\  /    A nd           | Website:  www.openfoam.com                      |
|    \\/     M anipulation  |                                                 |
\*---------------------------------------------------------------------------*/
FoamFile
{
    version     2.0;
    format      ascii;
    class       volScalarField;
    location    "0.24";
    object      volumeFraction1;
}
// * * * * * * * * * * * * * * * * * * * * * * * * * * * * * * * * * * * * * //

dimensions      [0 0 0 0 0 0 0];


internalField   nonuniform List<scalar> 
2268
(
1
1
1
1
1
1
1
1
1
1
1
1
1
1
1
1
1
1
1
1
1
1
0.99371
1
1
1
1
1
1
1
1
1
1
1
1
1
1
1
1
1
1
1
1
1
1
0.992948
1
1
1
1
1
1
1
1
1
1
1
1
1
1
1
1
1
1
1
1
1
1
0.992593
1
1
1
1
1
1
1
1
1
1
1
1
1
1
1
1
1
1
1
1
1
1
0.992544
1
1
1
1
1
1
1
1
1
1
1
1
1
1
1
1
1
1
1
1
1
1
0.992544
1
1
1
1
1
1
1
1
1
1
1
1
1
1
1
1
1
1
1
1
1
1
0.997183
1
1
1
1
1
1
1
1
1
1
1
1
1
1
1
1
1
1
1
1
1
1
0.999998
1
1
1
1
1
1
1
1
1
1
1
1
1
1
1
1
1
1
1
1
1
1
1
4.7419e-25
8.11911e-25
1.6967e-24
3.0788e-24
6.14283e-24
3.16596e-24
2.22115e-25
5.1461e-27
7.78542e-29
4.56549e-31
1.77177e-33
3.18136e-36
3.76848e-39
6.07751e-42
1.64887e-44
4.00362e-47
1.00656e-49
2.07977e-52
4.6577e-55
2.23245e-23
8.07709e-23
2.60511e-22
4.35492e-22
7.36637e-22
3.62692e-22
2.60879e-23
5.78883e-25
1.04698e-26
8.39453e-29
4.36196e-31
1.10658e-33
1.90675e-36
3.93911e-39
1.10769e-41
2.58478e-44
6.1585e-47
1.21226e-49
1.31289e-52
8.20175e-22
5.35191e-21
2.18475e-20
3.30055e-20
4.50921e-20
2.92654e-20
2.15757e-21
3.46018e-23
7.3711e-25
7.94475e-27
5.50239e-29
1.92977e-31
4.89075e-34
1.34638e-36
4.08381e-39
9.48131e-42
2.18575e-44
4.08665e-47
4.20932e-50
2.18344e-20
2.08673e-19
1.14385e-18
1.79058e-18
1.82036e-18
2.20779e-18
1.50837e-19
1.50759e-21
3.4733e-23
4.96364e-25
4.55314e-27
2.1856e-29
8.15677e-32
3.13409e-34
1.06403e-36
2.72864e-39
6.84766e-42
1.35959e-44
1.46895e-47
1.17809e-18
2.30805e-17
1.60093e-16
2.39156e-16
7.34217e-17
1.44452e-16
8.29485e-18
6.04683e-20
1.20345e-21
2.24558e-23
2.72148e-25
1.79177e-27
9.74734e-30
4.95254e-32
1.92206e-34
5.31403e-37
1.39463e-39
2.79775e-42
3.01129e-45
1.16631e-16
2.15414e-15
1.80332e-14
3.03327e-14
2.98398e-15
7.66586e-15
3.16553e-16
2.68176e-18
3.15271e-20
7.6336e-22
1.22458e-23
1.11385e-25
8.65551e-28
5.90761e-30
2.76912e-32
9.56929e-35
2.99618e-37
6.92125e-40
8.3808e-43
1.12094e-14
2.31618e-13
1.82124e-12
3.19438e-12
1.46439e-13
2.95204e-13
8.38682e-15
1.22734e-16
6.41957e-19
1.99109e-20
4.26249e-22
5.44719e-24
6.00236e-26
5.05433e-28
2.77731e-30
1.0885e-32
3.71321e-35
9.12152e-38
1.15503e-40
1.20061e-13
1.8314e-12
3.50861e-11
9.42955e-11
5.1927e-12
7.88135e-12
1.58407e-13
4.56062e-15
1.16203e-17
4.02349e-19
1.16015e-20
2.117e-22
3.30186e-24
3.5226e-26
2.41468e-28
1.23205e-30
5.23357e-33
1.55171e-35
2.32331e-38
1
1
1
1
1
1
1
1
1
1
1
1
1
1
1
1
1
1
1
1
1
1
0.999945
1
1
1
1
1
1
1
1
1
1
1
1
1
1
1
1
1
1
1
1
1
0.999998
0.999864
1
1
1
1
1
1
1
1
1
1
1
1
1
1
1
0.999998
0.999989
0.999947
1
1
1
1
0.999914
1
1
1
1
1
1
1
1
1
1
1
1
0.999998
0.999928
0.998531
0.992846
0.979969
0.950362
0.916722
0.93129
0.983937
1
1
1
1
1
1
1
1
1
1
1
0.999999
0.999982
0.999532
0.994877
0.973209
0.853676
0.664006
0.451188
0.29412
0.243307
0.205902
0.242285
0.355592
0.569157
1
1
1
1
1
1
0.999998
0.999969
0.999541
0.996464
0.984771
0.913974
0.734389
0.434999
0.140521
1.21656e-09
1.21655e-09
1.21656e-09
1.21655e-09
3.49909e-06
0.000928803
0.00484005
0.0291923
0.999959
0.999941
0.999878
0.999663
0.998994
0.996939
0.991215
0.973626
0.90144
0.75968
0.530571
0.263405
0.0352971
3.2492e-21
3.03843e-21
0.000499898
0.00157529
0.00169203
0.000807195
1.00251e-06
7.59252e-08
1.20122e-06
4.54555e-05
0.954301
0.946556
0.927507
0.891186
0.833396
0.744491
0.617931
0.425226
0.237182
0.0804288
-1.42164e-21
2.39173e-28
-1.14455e-29
-1.39438e-27
0.000488845
0.00330796
0.00331175
0.00272845
0.000333927
1.13122e-06
1.23845e-10
1.20535e-10
4.07369e-10
0.33689
0.316834
0.275471
0.216834
0.150544
0.0817498
0.0176135
2.99398e-21
-4.8279e-29
-4.19945e-24
1.09081e-09
2.54713e-10
1.08098e-10
2.08036e-25
0.000925243
0.00320378
0.00211819
0.000151681
4.83797e-06
2.63865e-07
6.25314e-10
1.20538e-10
1.7776e-10
1.04499e-39
-2.50316e-37
1.24531e-35
4.10754e-33
4.89986e-33
7.53198e-31
1.17293e-30
6.50868e-11
7.34119e-11
-6.91343e-28
4.659e-09
3.23757e-08
1.6834e-07
1.25009e-06
2.21738e-05
1.48968e-08
1.48956e-08
1.47829e-08
1.47804e-08
1.47792e-08
5.53346e-09
8.01952e-10
3.81348e-10
1.41881e-20
1.50449e-18
1.14731e-16
5.49842e-15
1.53713e-13
3.54045e-12
1.84467e-12
2.53004e-10
3.4593e-10
2.30506e-10
6.14136e-12
1.66847e-06
1.28601e-05
3.72298e-05
6.83241e-06
1.98519e-07
5.77042e-07
7.36392e-07
4.41163e-07
5.72857e-09
1.6869e-10
5.95254e-10
2.12271e-09
1.13982e-19
1.34012e-17
9.10005e-16
3.81386e-14
9.49122e-13
1.81565e-11
2.06005e-11
1.72792e-10
5.66379e-09
5.26977e-09
6.27277e-12
1.8128e-05
4.71464e-05
4.06606e-05
4.37823e-06
1.98488e-07
1.98788e-07
1.69258e-07
2.36645e-08
2.58122e-09
1.68688e-10
6.24452e-10
3.83935e-09
4.37268e-19
5.6733e-17
3.84889e-15
1.57692e-13
3.74619e-12
5.88773e-11
1.41325e-10
3.18706e-12
2.64828e-07
1.47618e-07
1.94443e-10
2.29001e-05
4.70813e-05
3.93791e-05
6.79144e-06
3.9686e-07
8.67839e-08
3.17624e-16
3.17624e-16
3.17624e-16
4.34977e-12
1.64335e-10
2.08757e-09
1.33033e-18
1.87697e-16
1.28341e-14
5.21354e-13
1.18511e-11
1.55288e-10
3.73777e-10
3.19799e-12
6.81927e-07
6.40272e-07
1.49664e-06
3.17624e-16
1.49854e-05
2.1761e-06
2.6788e-08
3.17624e-16
3.17624e-16
3.42661e-15
3.15039e-14
1.91444e-12
7.96066e-12
2.60437e-14
5.1445e-10
3.70239e-18
5.28904e-16
3.36483e-14
1.1799e-12
2.32103e-11
2.39035e-10
3.69043e-10
6.87939e-08
1.08691e-06
1.9269e-06
6.11897e-09
3.17624e-16
3.17624e-16
3.17624e-16
3.17624e-16
1.59851e-15
3.91344e-15
1.73007e-14
6.30516e-14
2.5366e-13
5.53925e-12
2.57426e-14
3.73243e-10
7.55998e-18
9.30135e-16
5.06049e-14
1.58253e-12
2.86027e-11
2.68413e-10
1.86422e-09
1.30016e-07
2.21845e-06
2.57594e-06
2.00038e-07
3.17624e-16
2.15513e-11
1.40505e-11
4.65342e-13
2.58045e-15
1.53773e-15
3.34137e-15
8.98045e-15
1.82015e-14
4.02002e-14
2.4727e-14
1.77602e-10
9.64999e-18
1.08868e-15
5.51187e-14
1.6217e-12
2.67375e-11
1.87586e-10
6.36697e-10
1.57377e-07
2.52601e-06
2.57364e-06
7.49266e-07
3.17624e-16
1.63512e-10
8.3863e-11
8.80874e-13
1.11258e-16
2.87402e-16
8.1385e-16
2.46571e-15
6.40613e-15
2.47279e-14
2.47276e-14
3.48136e-10
9.02997e-18
9.01198e-16
3.98462e-14
9.2524e-13
1.09804e-11
6.04304e-11
3.13409e-10
4.64094e-08
5.635e-07
2.11837e-06
5.92901e-07
3.17624e-16
1.01011e-09
3.2982e-10
4.31998e-13
5.95561e-19
4.91678e-17
1.67972e-16
5.74445e-16
2.31801e-15
1.93526e-14
3.09906e-13
3.0977e-13
3.10936e-18
2.50548e-16
9.60741e-15
2.08855e-13
2.70535e-12
2.48019e-11
2.7697e-10
8.96203e-10
3.45958e-13
3.45908e-13
1.25942e-08
8.55931e-09
5.15432e-09
8.5854e-10
1.42352e-24
5.95565e-19
7.56465e-18
2.93764e-17
1.23479e-16
8.83968e-16
1.7837e-14
7.5192e-13
2.23736e-09
3.31574e-19
3.10935e-17
1.31854e-15
3.54837e-14
7.29472e-13
1.33686e-11
1.01685e-10
4.37253e-14
4.30088e-13
1.83288e-12
4.83686e-12
1.94368e-08
8.62819e-09
1.19466e-09
1.61071e-24
1.75898e-19
1.02654e-18
4.07645e-18
1.61689e-17
8.40989e-17
7.88759e-16
7.02035e-15
2.63571e-15
8.87475e-21
1.593e-18
1.22769e-16
5.22202e-15
1.29453e-13
1.72011e-12
4.83704e-12
1.33937e-13
1.90381e-12
2.25893e-11
2.69932e-10
2.8062e-09
5.03816e-09
1.19283e-09
5.98243e-13
1.61324e-24
1.05718e-19
5.2808e-19
3.77343e-18
4.98065e-17
8.78798e-16
1.23954e-14
1.24342e-13
3.07106e-23
2.33478e-21
8.75666e-20
2.12113e-18
1.89743e-17
1.89743e-17
1.38769e-16
1.03934e-13
1.29023e-12
1.02303e-11
3.38472e-11
1.10752e-14
2.53799e-10
2.24016e-10
2.32184e-11
1.42715e-24
8.50087e-21
5.60078e-20
5.787e-19
8.54414e-18
1.26702e-16
1.53392e-15
1.33199e-14
5.34451e-24
4.89499e-22
2.35255e-20
7.94009e-19
2.17316e-17
2.92226e-16
2.77773e-15
1.54333e-14
9.48729e-14
2.92895e-13
2.51824e-13
1.10746e-14
1.81298e-23
1.81306e-23
1.7639e-12
1.61324e-24
6.88391e-22
4.63391e-21
6.45264e-20
1.08705e-18
1.69885e-17
2.21198e-16
2.31754e-15
3.65095e-25
3.81401e-23
1.85902e-21
5.56377e-20
1.13707e-18
1.65778e-17
1.78402e-16
1.40917e-15
8.27718e-15
2.48991e-14
3.41806e-14
3.99504e-14
7.79041e-15
1.81298e-23
1.81306e-23
3.16816e-22
4.73341e-23
2.44084e-22
4.01409e-21
7.63743e-20
1.34366e-18
1.98699e-17
2.39449e-16
2.17814e-30
1.52821e-28
4.90864e-27
9.42385e-26
1.20272e-24
5.23768e-24
1.64483e-24
9.71983e-25
9.71959e-25
9.71983e-25
9.71959e-25
6.27297e-23
6.27293e-23
4.31029e-22
3.25669e-22
7.94577e-23
2.04017e-24
9.86674e-24
1.78665e-22
3.60358e-21
6.74185e-20
1.08104e-18
1.44674e-17
1.45713e-34
1.30576e-32
5.65589e-31
1.59197e-29
3.33143e-28
5.59723e-27
8.00621e-26
1.00781e-24
6.11193e-24
2.71785e-23
7.02952e-23
9.20936e-23
8.80882e-23
4.94228e-23
1.1701e-23
1.27306e-24
5.86708e-26
2.6698e-25
5.20217e-24
1.13568e-22
2.32391e-21
4.12087e-20
6.19074e-19
8.99329e-38
7.87613e-36
3.25416e-34
8.38934e-33
1.50846e-31
1.9888e-30
1.99442e-29
1.52691e-28
9.07854e-28
4.14536e-27
1.59431e-26
4.37471e-26
4.26392e-26
2.39479e-26
1.34717e-26
5.34086e-27
1.69088e-27
5.62416e-27
1.16508e-25
2.70442e-24
5.97602e-23
1.16237e-21
1.94702e-20
2.17084e-43
2.38454e-41
1.2593e-39
4.24449e-38
1.02356e-36
1.87282e-35
2.70992e-34
3.16576e-33
3.06075e-32
2.46313e-31
1.66997e-30
9.43647e-30
4.37498e-29
1.15096e-28
1.47703e-28
1.09335e-28
3.35685e-29
8.85166e-29
1.94433e-27
4.85929e-26
1.17662e-24
2.54086e-23
4.78765e-22
7.23544e-47
8.46209e-45
4.74341e-43
1.69633e-41
4.35721e-40
8.58694e-39
1.36581e-37
1.81414e-36
2.07988e-35
2.07154e-34
1.78178e-33
1.27575e-32
7.2965e-32
2.79585e-31
4.34705e-31
3.91442e-31
2.0749e-31
1.16328e-30
2.66903e-29
7.18147e-28
1.90425e-26
4.56428e-25
9.6601e-24
2.91661e-53
3.6187e-51
2.28725e-49
1.01312e-47
3.61357e-46
1.09747e-44
2.85148e-43
6.21753e-42
1.11643e-40
1.61733e-39
1.86024e-38
1.65325e-37
1.09612e-36
5.14022e-36
1.68689e-35
6.54479e-35
7.12478e-34
1.22053e-32
2.91036e-31
8.50277e-30
2.49623e-28
6.71388e-27
1.61171e-25
7.58301e-59
1.57732e-56
1.64304e-54
1.13911e-52
5.86822e-51
2.37211e-49
7.74065e-48
2.06759e-46
4.5531e-45
8.27441e-44
1.24681e-42
1.57415e-41
1.74407e-40
1.89538e-39
2.34535e-38
3.40347e-37
5.46936e-36
1.04376e-34
2.69255e-33
8.58346e-32
2.79501e-30
8.44361e-29
2.30047e-27
2.38769e-63
7.65985e-61
1.18666e-58
1.17572e-56
8.31525e-55
4.45266e-53
1.86888e-51
6.29505e-50
1.73431e-48
3.98607e-47
7.91265e-46
1.43725e-44
2.59328e-43
4.9e-42
9.51643e-41
1.81242e-39
3.42321e-38
7.2855e-37
2.04767e-35
7.18201e-34
2.61944e-32
8.96933e-31
2.79433e-29
4.42199e-68
1.80395e-65
3.62783e-63
4.75892e-61
4.54538e-59
3.36237e-57
2.00417e-55
9.94565e-54
4.23482e-52
1.59498e-50
5.47291e-49
1.74317e-47
5.17679e-46
1.419e-44
3.55133e-43
8.13657e-42
1.78771e-40
4.30255e-39
1.33539e-37
5.19018e-36
2.13011e-34
8.29545e-33
2.96033e-31
7.31674e-72
3.62043e-69
8.78172e-67
1.38579e-64
1.59357e-62
1.42706e-60
1.04038e-58
6.41258e-57
3.45411e-55
1.67088e-53
7.38557e-52
2.99366e-50
1.10675e-48
3.69391e-47
1.10728e-45
3.00301e-44
7.70201e-43
2.10621e-41
7.22949e-40
3.1249e-38
1.4553e-36
6.51229e-35
2.68802e-33
4.26952e-76
2.76991e-73
8.82192e-71
1.83623e-68
2.80547e-66
3.37152e-64
3.33294e-62
2.80618e-60
2.06222e-58
1.34338e-56
7.80975e-55
4.05056e-53
1.87017e-51
7.65845e-50
2.78274e-48
9.06044e-47
2.75172e-45
8.66565e-44
3.32142e-42
1.60656e-40
8.55166e-39
4.43571e-37
2.13846e-35
1.42905e-80
1.2184e-77
5.17215e-75
1.46017e-72
3.08094e-70
5.1935e-68
7.26449e-66
8.64232e-64
8.85431e-62
7.86493e-60
6.07345e-58
4.07946e-56
2.38736e-54
1.21949e-52
5.46663e-51
2.17397e-49
7.93383e-48
2.90347e-46
1.24309e-44
6.7185e-43
4.11463e-41
2.50461e-39
1.42974e-37
1.48705e-85
1.91197e-82
1.23988e-79
5.39759e-77
1.75777e-74
4.53809e-72
9.55971e-70
1.67389e-67
2.45739e-65
3.0425e-63
3.19007e-61
2.84614e-59
2.17409e-57
1.42968e-55
8.15466e-54
4.07488e-52
1.8326e-50
7.95881e-49
3.84386e-47
2.3176e-45
1.63873e-43
1.18471e-41
8.13224e-40
8.89345e-91
1.70491e-87
1.66145e-84
1.09068e-81
5.33493e-79
2.05072e-76
6.35902e-74
1.62009e-71
3.42223e-69
6.03977e-67
8.95335e-65
1.11923e-62
1.18418e-60
1.06308e-58
8.13996e-57
5.35682e-55
3.09212e-53
1.64888e-51
9.15431e-50
6.13887e-48
5.0175e-46
4.38877e-44
3.72809e-42
9.96011e-97
3.32586e-93
5.51019e-90
5.98673e-87
4.73218e-84
2.88422e-81
1.39867e-78
5.52167e-76
1.79606e-73
4.8545e-71
1.09382e-68
2.0576e-66
3.23817e-64
4.27008e-62
4.72881e-60
4.40912e-58
3.50131e-56
2.44528e-54
1.63805e-52
1.22836e-50
1.1426e-48
1.21626e-46
1.31024e-44
3.42574e-103
1.93689e-99
5.25286e-96
9.08717e-93
1.12333e-89
1.0593e-86
7.91114e-84
4.80483e-81
2.41273e-78
1.01399e-75
3.5941e-73
1.07824e-70
2.73599e-68
5.83888e-66
1.04207e-63
1.54686e-61
1.91019e-59
1.98428e-57
1.81454e-55
1.63847e-53
1.73463e-51
2.26087e-49
3.22855e-47
2.38084e-110
2.20164e-106
9.54258e-103
2.58244e-99
4.92707e-96
7.10749e-93
8.08691e-90
7.49617e-87
5.79984e-84
3.82194e-81
2.1748e-78
1.07458e-75
4.60428e-73
1.69933e-70
5.35311e-68
1.42155e-65
3.1456e-63
5.75124e-61
8.74029e-59
1.15269e-56
1.49789e-54
2.3267e-52
4.55729e-50
2.70489e-118
4.36036e-114
3.08927e-110
1.29379e-106
3.66227e-103
7.61357e-100
1.22651e-96
1.59553e-93
1.73227e-90
1.61601e-87
1.33128e-84
9.90311e-82
6.74906e-79
4.21261e-76
2.38371e-73
1.20459e-70
5.34717e-68
2.04984e-65
6.68885e-63
1.8392e-60
4.29951e-58
9.18122e-56
2.23154e-53
0.999883
0.999933
0.861019
3.7096e-16
0.999883
0.999933
0.995812
0.892632
0.999948
0.999933
0.999596
0.999073
1
1
1
1
0.734014
0.84759
0.975567
1
0.0694664
0.120828
0.194665
0.288674
0.000221602
0.000767076
0.00219593
0.0051638
3.47078e-09
3.43897e-08
3.12022e-07
4.78185e-07
2.90552e-10
5.5163e-10
1.24831e-09
2.63118e-09
2.82833e-10
2.19174e-10
2.192e-10
3.7059e-09
3.04696e-09
2.76694e-09
1.15233e-09
1.15772e-10
7.90913e-09
7.97398e-09
5.22124e-09
1.1007e-10
6.53174e-09
7.97377e-09
4.90202e-09
1.15772e-10
2.16633e-09
3.6544e-09
2.94064e-09
1.1007e-10
5.00097e-10
1.81708e-13
3.36526e-07
1.38103e-07
6.26421e-09
1.81394e-13
1.30667e-05
9.03009e-05
7.15326e-08
1.81708e-13
0.000158607
0.000424985
5.74308e-08
1.81672e-05
0.000246952
0.000424555
6.03186e-07
7.41632e-07
1.4234e-10
2.94357e-06
2.63737e-15
2.63571e-15
1.42646e-10
1.31138e-05
5.58445e-13
1.41344e-12
3.18446e-10
1.02981e-06
5.62701e-14
8.71752e-14
1.00895e-13
9.24007e-14
1.47503e-14
5.62794e-14
1.76084e-13
4.23512e-13
1.77516e-15
7.83934e-15
2.91359e-14
9.57324e-14
1.21519e-16
6.11775e-16
2.64063e-15
1.02746e-14
5.93224e-18
3.41904e-17
1.70867e-16
7.72648e-16
2.11157e-19
1.38534e-18
8.00099e-18
4.22785e-17
5.91112e-21
4.43165e-20
2.95958e-19
1.82312e-18
1.35192e-22
1.15182e-21
8.83691e-21
6.31424e-20
2.57664e-24
2.50883e-23
2.21489e-22
1.83108e-21
4.20586e-26
4.69152e-25
4.77412e-24
4.5583e-23
5.87955e-28
7.56978e-27
8.9692e-26
1.00281e-24
7.16855e-30
1.06458e-28
1.46766e-27
1.92383e-26
7.54976e-32
1.30105e-30
2.09531e-29
3.23123e-28
7.045e-34
1.42681e-32
2.71396e-31
4.93733e-30
5.60047e-36
1.35335e-34
3.09726e-33
6.81637e-32
3.84738e-38
1.12508e-36
3.12694e-35
8.35391e-34
2.20215e-40
8.08109e-39
2.83117e-37
8.98709e-36
9.97915e-43
4.76504e-41
2.18923e-39
8.43979e-38
3.36844e-45
2.22143e-43
1.389e-41
6.746e-40
7.26751e-48
7.65079e-46
6.78868e-44
4.39849e-42
5.99481e-51
1.46672e-48
2.17166e-46
2.03723e-44
3.70399e-16
3.71022e-16
2.1029e-09
2.20813e-09
2.19898e-10
2.27244e-10
1.05784e-12
1.78846e-13
5.04247e-16
9.71528e-18
3.788e-19
1.02318e-20
2.0768e-22
2.83852e-24
2.35694e-26
1.41143e-28
6.93724e-31
2.36155e-33
4.01374e-36
0.480487
0.00282416
2.10289e-09
3.36417e-09
2.1933e-09
7.80883e-09
1.05785e-12
4.66516e-12
5.18715e-14
2.20086e-16
1.13693e-17
4.62261e-19
1.27892e-20
2.43064e-22
3.08649e-24
3.20218e-26
2.53563e-28
1.31804e-30
3.32969e-33
0.988747
0.699651
0.122596
6.15666e-10
6.15665e-10
2.19392e-08
2.59186e-10
9.94423e-11
4.87642e-12
4.0379e-15
2.34332e-16
1.22015e-17
4.34295e-19
1.04811e-20
1.66587e-22
2.14222e-24
2.04272e-26
1.25675e-28
3.70116e-31
0.999512
1
0.837208
0.34886
0.00355439
2.59182e-10
2.59187e-10
4.11157e-08
4.99083e-10
6.06054e-14
3.48808e-15
2.23689e-16
1.07601e-17
3.69574e-19
9.52361e-21
1.86817e-22
2.5872e-24
2.23894e-26
9.10267e-29
1
1
1
0.919576
0.409238
0.0157197
4.67641e-05
2.59608e-06
3.1411e-08
2.11031e-12
3.10189e-14
2.11427e-15
1.29241e-16
5.57441e-18
1.81339e-19
4.30757e-21
7.0006e-23
6.97962e-25
3.21938e-27
0.538542
0.958394
1
1
0.919664
0.337172
0.0150639
0.000163983
2.08757e-07
2.99013e-12
9.33198e-14
1.25854e-14
1.16183e-15
7.58489e-17
3.5021e-18
1.12157e-19
2.38605e-21
3.04952e-23
1.78246e-25
0.0128325
0.174403
0.617099
0.991484
0.991484
0.793643
0.164823
0.00344443
3.21503e-06
1.6281e-11
1.40226e-13
3.86111e-14
4.75844e-15
3.71591e-16
1.92531e-17
6.76865e-19
1.55082e-20
2.11661e-22
1.31005e-24
0.000135906
6.02129e-09
0.0428474
0.512152
0.98638
0.98705
0.473322
0.0225513
5.25306e-05
2.7517e-10
1.73779e-13
8.56661e-14
1.64128e-14
1.75243e-15
1.17773e-16
5.16439e-18
1.44859e-19
2.38607e-21
1.77189e-23
8.88018e-09
6.02128e-09
1.00192e-10
0.064664
0.721474
0.987047
0.721968
0.10213
0.000379829
2.26692e-09
1.44143e-13
8.20867e-14
1.74133e-14
2.02154e-15
1.46206e-16
6.81888e-18
2.01392e-19
3.4634e-21
2.66649e-23
3.8479e-09
4.2944e-09
1.00192e-10
1.00192e-10
0.314491
0.934065
0.722148
0.11301
0.00040683
2.45809e-09
1.77272e-13
1.1683e-13
2.82806e-14
3.42796e-15
2.63424e-16
1.30667e-17
4.10998e-19
7.53209e-21
6.19593e-23
1.72691e-07
1.91016e-07
1.06061e-07
1.00192e-10
0.119177
0.860477
0.681025
0.101198
0.000316665
1.44459e-09
2.71172e-13
1.97705e-13
5.1357e-14
6.20681e-15
4.80722e-16
2.40599e-17
7.62811e-19
1.40711e-20
1.16322e-22
1.41567e-07
1.27429e-07
5.21361e-08
1.00192e-10
0.152349
0.860478
0.662612
0.0822284
0.000191733
4.9043e-10
3.38299e-13
2.30345e-13
5.54175e-14
6.7187e-15
5.2128e-16
2.6194e-17
8.35466e-19
1.55015e-20
1.28834e-22
1.0077e-06
8.81648e-07
1.96455e-07
1.00192e-10
0.218844
0.835592
0.587477
0.0554704
8.52766e-05
1.01102e-10
3.85189e-13
2.33438e-13
5.16259e-14
6.22818e-15
4.76009e-16
2.3603e-17
7.4409e-19
1.36632e-20
1.12444e-22
2.34324e-06
4.60647e-06
1.114e-06
1.00192e-10
0.174728
0.403325
0.264232
0.0268413
3.97119e-05
3.10717e-11
3.961e-13
2.10767e-13
4.27796e-14
4.9424e-15
3.62599e-16
1.73112e-17
5.26564e-19
9.33345e-21
7.41818e-23
1.51295e-06
4.60156e-06
1.04231e-06
1.00192e-10
0.0113691
0.0147349
0.0102376
0.00436062
0.000143994
2.66828e-10
4.07321e-13
1.71903e-13
3.05474e-14
3.27708e-15
2.25353e-16
1.00417e-17
2.84272e-19
4.69178e-21
3.47774e-23
3.22902e-05
1.93972e-06
6.39336e-07
0.00328415
0.00912777
0.00458988
0.000103411
4.37861e-05
3.36537e-05
6.71442e-07
3.15695e-11
4.59456e-13
4.07917e-14
2.64848e-15
1.35227e-16
5.0407e-18
1.25491e-19
1.86607e-21
1.26281e-23
0.000107478
2.07189e-09
0.00603578
0.323732
0.285475
0.0458348
0.000239413
2.95286e-08
2.03167e-07
9.3439e-08
9.51703e-10
8.64135e-12
2.1604e-13
4.84943e-15
1.10099e-16
2.51021e-18
4.7785e-20
6.04481e-22
3.62827e-24
3.79129e-05
1.00192e-10
0.198505
0.485439
0.486518
0.135862
0.000622185
1.40244e-08
4.118e-10
1.82724e-09
2.27325e-10
5.76561e-12
1.28474e-13
2.49726e-15
4.46404e-17
8.02979e-19
1.30625e-20
1.45742e-22
7.82923e-25
1.56863e-05
2.07189e-09
0.19322
0.486518
0.477173
0.111511
0.000531127
6.35518e-09
5.35494e-11
1.45624e-10
2.75973e-11
9.74128e-13
2.1681e-14
4.30053e-16
8.57925e-18
1.65112e-19
2.56228e-21
2.6126e-23
1.27524e-25
0.000208044
1.00192e-10
0.0492145
0.227026
0.155405
0.0368073
0.000496876
4.18465e-09
2.22124e-11
2.27609e-11
2.92457e-12
9.86078e-14
2.43396e-15
5.72972e-17
1.30473e-18
2.56225e-20
3.74422e-22
3.50516e-24
1.56693e-26
0.000112166
0.000600944
0.0011867
0.00323174
0.00195298
0.00158078
0.000282991
8.05577e-08
6.76784e-12
3.01227e-12
2.60824e-13
9.00567e-15
2.56765e-16
6.94737e-18
1.65152e-19
3.11752e-21
4.23154e-23
3.6607e-25
1.52183e-27
9.21838e-14
9.24007e-14
6.7111e-08
2.79676e-07
1.9239e-07
2.8156e-06
3.51669e-05
5.08253e-13
1.64845e-12
3.72276e-13
2.35849e-14
8.41879e-16
2.60607e-17
7.26732e-19
1.68346e-20
2.99081e-22
3.78077e-24
3.05284e-26
1.1879e-28
1.42981e-12
4.43798e-12
7.12234e-12
9.34398e-12
2.41747e-11
2.22849e-10
1.01867e-09
5.08242e-13
3.6429e-13
4.68142e-14
2.43604e-15
8.96817e-17
2.77745e-18
7.26688e-20
1.5397e-21
2.49479e-23
2.89215e-25
2.16467e-27
7.89887e-30
3.957e-13
1.79938e-12
5.43307e-12
7.97497e-12
8.87802e-12
6.473e-12
2.88688e-12
4.22064e-13
6.97897e-14
6.06571e-15
2.73983e-16
9.7727e-18
2.8444e-19
6.7971e-21
1.30871e-22
1.9431e-24
2.07939e-26
1.45239e-28
4.99396e-31
5.33446e-14
3.25142e-13
1.65997e-12
4.66175e-12
6.19718e-12
5.81273e-12
2.60771e-12
2.26581e-13
1.14105e-14
7.59399e-16
3.02606e-17
1.00116e-18
2.67837e-20
5.83706e-22
1.0262e-23
1.40769e-25
1.40101e-27
9.19188e-30
2.99469e-32
4.74573e-15
3.4861e-14
2.1912e-13
9.09501e-13
1.77477e-12
2.15986e-12
1.10185e-12
5.33186e-14
1.55116e-15
8.56107e-17
3.05248e-18
9.26562e-20
2.28025e-21
4.57118e-23
7.40376e-25
9.46598e-27
8.82745e-29
5.47392e-31
1.69826e-33
3.12094e-16
2.8098e-15
2.18217e-14
1.12363e-13
2.74704e-13
3.61912e-13
2.19557e-13
8.61229e-15
1.75379e-16
8.41554e-18
2.73076e-19
7.64515e-21
1.74583e-22
3.25556e-24
4.90663e-26
5.89763e-28
5.19157e-30
3.06089e-32
9.08428e-35
1.6049e-17
1.76354e-16
1.61255e-15
9.92634e-15
3.07144e-14
4.44448e-14
3.15649e-14
1.04107e-15
1.65787e-17
7.1437e-19
2.14927e-20
5.61375e-22
1.20262e-23
2.10963e-25
2.98777e-27
3.40293e-29
2.84683e-31
1.60415e-33
4.57171e-36
6.59995e-19
8.7883e-18
9.2795e-17
6.61508e-16
2.58917e-15
4.1534e-15
3.39746e-15
9.90517e-17
1.32653e-18
5.2554e-20
1.49084e-21
3.67798e-23
7.47039e-25
1.24561e-26
1.67289e-28
1.81841e-30
1.45459e-32
7.86952e-35
2.16087e-37
2.2563e-20
3.60638e-19
4.33919e-18
3.51256e-17
1.70063e-16
3.06215e-16
2.83838e-16
7.65e-18
9.09262e-20
3.37597e-21
9.16305e-23
2.1605e-24
4.20052e-26
6.71889e-28
8.62717e-30
9.0065e-32
6.92623e-34
3.6117e-36
9.58282e-39
6.56012e-22
1.24442e-20
1.69984e-19
1.56837e-18
8.9333e-18
1.8467e-17
1.90183e-17
4.9171e-19
5.4065e-21
1.91107e-22
5.02273e-24
1.14388e-25
2.14664e-27
3.32072e-29
4.10621e-31
4.14025e-33
3.07576e-35
1.55103e-37
3.98654e-40
1.70663e-23
3.67703e-22
5.67351e-21
5.93322e-20
3.87923e-19
9.33063e-19
1.05343e-18
2.68354e-20
2.822e-22
9.62459e-24
2.47347e-25
5.49193e-27
1.00184e-28
1.50938e-30
1.80862e-32
1.76987e-34
1.27537e-36
6.23817e-39
1.55647e-41
3.89181e-25
9.44312e-24
1.64023e-22
1.93249e-21
1.43168e-20
4.02017e-20
4.95307e-20
1.26538e-21
1.30737e-23
4.35101e-25
1.10192e-26
2.40498e-28
4.28994e-30
6.3337e-32
7.39378e-34
7.05246e-36
4.94677e-38
2.35349e-40
5.71038e-43
7.79855e-27
2.13486e-25
4.16798e-24
5.50752e-23
4.58303e-22
1.50323e-21
2.01885e-21
5.23566e-23
5.43406e-25
1.78148e-26
4.47384e-28
9.66627e-30
1.69427e-31
2.46434e-33
2.81513e-35
2.62704e-37
1.79885e-39
8.34505e-42
1.97189e-44
1.38789e-28
4.29847e-27
9.43414e-26
1.39399e-24
1.29377e-23
4.95678e-23
7.2571e-23
1.92674e-24
2.04606e-26
6.65981e-28
1.66688e-29
3.58691e-31
6.20297e-33
8.92995e-35
1.00196e-36
9.17777e-39
6.15013e-41
2.78816e-43
6.42429e-46
2.20049e-30
7.76443e-29
1.92131e-27
3.17262e-26
3.26607e-25
1.46216e-24
2.33581e-24
6.38684e-26
7.04574e-28
2.29175e-29
5.7408e-31
1.23648e-32
2.11678e-34
3.02814e-36
3.3473e-38
3.01799e-40
1.98317e-42
8.80269e-45
1.97984e-47
3.12934e-32
1.26868e-30
3.55641e-29
6.57063e-28
7.46971e-27
3.90812e-26
6.8193e-26
1.92843e-27
2.23793e-29
7.31346e-31
1.84017e-32
3.98321e-34
6.77001e-36
9.65596e-38
1.05417e-39
9.37865e-42
6.05346e-44
2.63511e-46
5.79052e-49
3.97756e-34
1.8793e-32
6.02174e-31
1.25142e-29
1.57681e-28
9.56108e-28
1.82787e-27
5.36194e-29
6.61248e-31
2.18074e-32
5.52824e-34
1.20645e-35
2.04084e-37
2.91e-39
3.14396e-41
2.76579e-43
1.75588e-45
7.50657e-48
1.61284e-50
4.51585e-36
2.53327e-34
9.39379e-33
2.21405e-31
3.11453e-30
2.16345e-29
4.54645e-29
1.38646e-30
1.83167e-32
6.11917e-34
1.56699e-35
3.45636e-37
5.83211e-39
8.33162e-41
8.92312e-43
7.77538e-45
4.8606e-47
2.0432e-49
4.29501e-52
4.51529e-38
3.09271e-36
1.35204e-34
3.65928e-33
5.79223e-32
4.57343e-31
1.06013e-30
3.36675e-32
4.79403e-34
1.62744e-35
4.21875e-37
9.42287e-39
1.58901e-40
2.27801e-42
2.42196e-44
2.09334e-46
1.28973e-48
5.33631e-51
1.09809e-53
3.89332e-40
3.39836e-38
1.79834e-36
5.6825e-35
1.02125e-33
9.11958e-33
2.33863e-32
7.74634e-34
1.19422e-35
4.13079e-37
1.08582e-38
2.45942e-40
4.15178e-42
5.98023e-44
6.31955e-46
5.42377e-48
3.29592e-50
1.34338e-52
2.70727e-55
2.62822e-42
3.17916e-40
2.13742e-38
8.11705e-37
1.68187e-35
1.6957e-34
4.83281e-34
1.67118e-35
2.79247e-37
9.85834e-39
2.62967e-40
6.04364e-42
1.02244e-43
1.48057e-45
1.55662e-47
1.3277e-49
7.96437e-52
3.20063e-54
6.32163e-57
)
;

boundaryField
{
    leftWall
    {
        type            zeroGradient;
    }
    rightWall
    {
        type            zeroGradient;
    }
    lowerWall
    {
        type            zeroGradient;
    }
    atmosphere
    {
        type            inletOutlet;
        inletValue      uniform 0;
        value           nonuniform List<scalar> 
46
(
0
0
0
0
0
0
0
0
0
0
0
0
0
0
0
0
0
0
0
0
0
0
0
0
1.46672e-48
2.17166e-46
2.03723e-44
2.62822e-42
3.17916e-40
2.13742e-38
8.11705e-37
1.68187e-35
1.6957e-34
4.83281e-34
1.67118e-35
2.79247e-37
9.85834e-39
2.62967e-40
6.04364e-42
1.02244e-43
1.48057e-45
1.55662e-47
1.3277e-49
7.96437e-52
3.20063e-54
6.32163e-57
)
;
    }
    defaultFaces
    {
        type            empty;
    }
}


// ************************************************************************* //
