/*--------------------------------*- C++ -*----------------------------------*\
| =========                 |                                                 |
| \\      /  F ield         | OpenFOAM: The Open Source CFD Toolbox           |
|  \\    /   O peration     | Version:  3.0.1                                 |
|   \\  /    A nd           | Web:      www.OpenFOAM.org                      |
|    \\/     M anipulation  |                                                 |
\*---------------------------------------------------------------------------*/
FoamFile
{
    version     2.0;
    format      ascii;
    class       volVectorField;
    location    "0.11";
    object      U;
}
// * * * * * * * * * * * * * * * * * * * * * * * * * * * * * * * * * * * * * //

dimensions      [0 1 -1 0 0 0 0];

internalField   nonuniform List<vector> 
50
(
(89.6238 -0.00155461 0)
(93.2142 -0.00155477 0)
(96.1059 -0.00155427 0)
(98.9141 -0.00155206 -9.91956e-15)
(102.123 -0.00155556 -1.01738e-14)
(105.512 -0.00156581 -1.05104e-14)
(109.121 -0.00154241 0)
(113.008 -0.00153589 0)
(117.193 -0.00160715 -1.1559e-14)
(121.712 -0.00154109 -1.19574e-14)
(126.612 -0.00146719 0)
(131.946 -0.00169458 -1.28397e-14)
(137.778 -0.00150794 0)
(144.185 -0.00138359 0)
(151.265 -0.0019117 -1.44249e-14)
(159.141 -0.00127379 0)
(167.969 -0.00149978 -1.57023e-14)
(177.957 -0.00199946 0)
(189.388 -0.000657877 0)
(202.663 -0.00155157 0)
(218.386 -0.00856244 0)
(237.551 -0.00594111 0)
(261.995 0.13317 0)
(295.775 -0.140568 0)
(350.491 -1.48023 0)
(451.354 5.01322 0)
(522.246 2.41875 0)
(562.851 -7.38843 0)
(588.256 -3.31006 0)
(609.217 -1.32536 0)
(626.508 1.14976 0)
(641.869 5.05512 0)
(653.975 2.72173 0)
(665.616 1.90741 9.29111e-15)
(676.093 -0.32139 0)
(684.847 -3.20731 7.92409e-15)
(697.352 -2.31388 0)
(696.557 -1.36072 0)
(435.638 2.00002 9.87575e-15)
(238.577 -15.1254 0)
(218.194 10.5889 1.20859e-14)
(206.835 10.106 1.13432e-14)
(197.098 3.47649 0)
(189.236 -4.9293 0)
(180.424 -6.7401 1.0188e-14)
(173.063 -3.00978 0)
(167.08 1.94234 9.60732e-15)
(161.652 3.23568 0)
(158.958 0.544503 0)
(152.621 -0.28965 0)
)
;

boundaryField
{
    inlet
    {
        type            zeroGradient;
    }
    outlet
    {
        type            zeroGradient;
    }
    upperWall
    {
        type            slip;
    }
    lowerWall
    {
        type            slip;
    }
    frontAndBack
    {
        type            empty;
    }
}


// ************************************************************************* //
