/*--------------------------------*- C++ -*----------------------------------*\
| =========                 |                                                 |
| \\      /  F ield         | OpenFOAM: The Open Source CFD Toolbox           |
|  \\    /   O peration     | Version:  3.0.1                                 |
|   \\  /    A nd           | Web:      www.OpenFOAM.org                      |
|    \\/     M anipulation  |                                                 |
\*---------------------------------------------------------------------------*/
FoamFile
{
    version     2.0;
    format      ascii;
    class       surfaceScalarField;
    location    "0.0002";
    object      phi;
}
// * * * * * * * * * * * * * * * * * * * * * * * * * * * * * * * * * * * * * //

dimensions      [1 0 -1 0 0 0 0];

internalField   nonuniform List<scalar> 
1890
(
-3.90313e-15
-9.48894e-16
-3.11903e-15
-5.70724e-16
-2.76515e-15
-6.74807e-16
-2.38698e-15
-3.41741e-16
-1.89779e-15
-4.19803e-16
-1.37737e-15
-4.0766e-16
-1.15186e-15
-2.41127e-16
-1.01308e-15
-1.45717e-16
-4.68375e-16
-4.82253e-16
-8.36137e-16
2.75821e-16
-3.29597e-16
-1.99493e-16
-3.36536e-16
7.80626e-17
-3.33067e-16
1.83881e-16
-2.498e-16
1.35308e-16
-2.42861e-17
5.72459e-17
3.53884e-16
-1.70003e-16
1.38778e-17
-4.44089e-16
-2.46331e-16
3.29597e-17
-4.02456e-16
1.38778e-16
-5.55112e-16
-1.52656e-16
-3.7817e-16
-4.18068e-16
1.24206e-15
5.20417e-17
6.90434e-13
-9.03791e-16
3.53025e-10
-9.70057e-15
1.49586e-07
-2.56167e-12
2.05563e-05
-1.9616e-10
0.000303813
-1.18764e-09
0.000843982
-6.98482e-10
0.00124869
1.89512e-10
0.00150363
3.86435e-10
0.00165297
2.90084e-10
0.00173321
2.11552e-10
0.00177177
-2.67741e-12
0.00178804
-4.76793e-12
0.00179414
-4.36897e-11
0.00179611
-7.68037e-11
0.00179649
-1.75498e-11
0.00179671
-1.32003e-10
0.00179673
-7.96594e-11
0.00179649
-9.72641e-11
0.00179611
-1.20848e-10
0.00179595
-1.41475e-10
0.00179604
-2.02579e-10
0.00179642
-2.9343e-10
0.00179674
-3.3592e-10
0.00179706
-3.69418e-10
0.00179719
-2.82704e-10
0.00179681
-2.42312e-11
0.00179409
-8.99994e-12
0.00178627
2.72346e-10
0.00177189
4.29343e-10
0.00175335
3.7226e-10
0.00173621
3.73027e-10
0.0017248
2.69183e-10
0.0017194
3.92612e-11
0.00171749
-1.33388e-10
0.00171686
-2.56305e-10
0.00171665
-2.47225e-10
0.00171672
-2.82826e-10
0.00171694
-2.42371e-10
0.00171709
-1.81691e-10
0.00171724
-1.54314e-10
0.00171741
-1.53453e-10
0.00171733
-1.14595e-10
0.00171683
-1.02785e-10
0.00171653
-8.39516e-11
0.00171552
-1.24709e-10
0.00171175
-1.13081e-10
0.00169993
-1.61659e-10
0.00166667
-1.85694e-10
0.00158376
-1.87385e-10
0.00139636
-1.25694e-10
0.00101614
7.96703e-11
0.000405759
-9.78771e-11
3.10971e-05
-5.11358e-11
2.34859e-07
-7.68354e-11
5.22441e-10
-6.47129e-13
9.55109e-13
-3.33934e-15
1.18482e-15
1.39645e-16
-5.56846e-16
4.38885e-16
7.45931e-17
-2.22045e-16
8.23994e-16
-1.26635e-16
9.15934e-16
-2.27249e-16
8.06646e-16
4.31079e-16
1.42421e-15
-2.63678e-16
1.35308e-16
2.81025e-16
1.7035e-15
-7.37257e-17
1.68268e-15
5.22152e-16
2.22912e-15
-4.78784e-16
2.38524e-15
-1.24033e-16
2.55004e-15
-1.64799e-16
2.89005e-15
-1.77809e-16
2.97158e-15
-9.71445e-17
3.4972e-15
-7.28584e-16
3.28036e-15
9.88792e-17
4.35416e-15
-8.16187e-16
5.42448e-15
-5.79398e-16
6.17562e-15
-1.14232e-15
6.71858e-15
-8.47412e-16
-1.52656e-15
2.87964e-16
-3.55618e-16
-1.17961e-16
-1.16226e-16
-5.44703e-16
-3.81639e-17
-8.39606e-16
-1.63064e-16
-1.33574e-15
1.07553e-16
-1.76248e-15
8.67362e-18
-1.2837e-15
-2.2031e-16
-1.95677e-15
-4.87457e-16
-1.92207e-15
-1.17961e-16
-9.54098e-16
-1.40513e-16
-3.36536e-16
-2.72352e-16
-9.05526e-16
6.59195e-17
-2.04697e-16
-2.8276e-16
1.9082e-16
-8.1532e-17
1.88738e-15
-2.08167e-16
3.46945e-18
1.96024e-16
-3.53884e-16
-1.8735e-16
3.46945e-18
-4.04191e-16
3.64292e-16
-3.17454e-16
3.57353e-16
-2.22045e-16
-1.74166e-15
-2.08167e-17
4.03497e-15
-2.30718e-16
6.86291e-13
1.62544e-15
3.52882e-10
8.25728e-16
1.49554e-07
3.72006e-13
2.05552e-05
2.43434e-11
0.000303811
7.86861e-11
0.000843984
3.42948e-10
0.00124869
3.68177e-10
0.00150363
2.01637e-10
0.00165297
3.07096e-10
0.00173321
2.27326e-10
0.00177177
1.16479e-10
0.00178804
-8.68177e-12
0.00179414
-7.27717e-11
0.00179611
-6.45832e-11
0.00179649
-1.1923e-10
0.00179671
-1.34264e-10
0.00179673
-2.20586e-10
0.00179649
-2.27929e-10
0.00179611
-2.76929e-10
0.00179595
-2.8576e-10
0.00179604
-2.9741e-10
0.00179642
-3.29788e-10
0.00179674
-3.69285e-10
0.00179706
-3.6616e-10
0.00179719
-2.7299e-10
0.00179681
8.86389e-11
0.00179409
-3.6393e-10
0.00178627
4.15812e-11
0.00177189
2.98054e-10
0.00175336
1.05527e-10
0.00173621
1.57163e-11
0.0017248
4.04366e-12
0.0017194
-6.48187e-11
0.00171749
-1.09412e-10
0.00171686
-1.41884e-10
0.00171665
-2.01369e-10
0.00171672
-1.79521e-10
0.00171695
-1.92456e-10
0.00171709
-1.81992e-10
0.00171724
-1.79455e-10
0.00171741
-1.74519e-10
0.00171733
-1.307e-10
0.00171683
-1.53148e-10
0.00171653
-1.0807e-10
0.00171552
-1.67273e-10
0.00171175
-1.45734e-10
0.00169993
-2.22341e-10
0.00166667
-2.31333e-10
0.00158376
-2.22499e-10
0.00139636
-5.15607e-10
0.00101614
-6.44771e-10
0.000405759
-5.65378e-10
3.1097e-05
-9.06014e-11
2.34874e-07
7.53073e-11
5.22488e-10
5.7371e-13
9.5491e-13
2.98806e-15
1.8336e-15
-1.01481e-16
1.09288e-15
4.25007e-17
6.12357e-16
2.28983e-16
3.64292e-17
5.00468e-16
3.81639e-16
-4.51028e-17
9.87058e-16
-6.76542e-17
6.45317e-16
2.45463e-16
1.00267e-15
8.58688e-17
1.51615e-15
-4.77049e-17
2.52229e-15
-9.54098e-17
2.42167e-15
1.92554e-16
2.15626e-15
-5.81132e-17
2.15626e-15
-1.18829e-16
2.17014e-15
-2.81893e-16
2.44423e-15
-3.03577e-16
2.52055e-15
-5.29958e-16
3.01495e-15
-5.34295e-16
3.0774e-15
-1.10155e-15
2.57086e-15
-2.51535e-16
1.7035e-15
-3.90313e-16
1.21778e-15
-4.94396e-16
-1.55258e-16
-6.42542e-15
-1.85268e-15
-5.44356e-15
-1.32533e-15
-3.97946e-15
-1.42421e-15
-3.15373e-15
-8.43076e-16
-1.6688e-15
-1.05298e-15
-8.63892e-16
-4.33681e-16
-4.92661e-16
-2.86229e-16
-1.30798e-15
1.59595e-16
-6.38378e-16
-5.20417e-16
-7.04298e-16
8.84709e-17
-4.78784e-16
-2.58474e-16
-1.2837e-16
-2.498e-16
-5.27356e-16
-1.45717e-16
-7.49401e-16
-2.89699e-16
-6.97359e-16
-9.54098e-17
2.84495e-16
-8.89913e-16
-1.28716e-15
2.72352e-16
-3.08781e-16
-8.18789e-16
-8.25728e-16
5.11743e-16
-2.08167e-17
-1.00267e-15
2.81025e-16
-9.19403e-17
1.83534e-15
-2.48065e-16
6.93265e-13
-2.65413e-16
3.52926e-10
1.02696e-15
1.49564e-07
1.30854e-13
2.05555e-05
6.97328e-12
0.000303812
-6.30917e-11
0.000843984
8.73948e-11
0.00124869
-1.87805e-10
0.00150363
2.22525e-10
0.00165297
3.33089e-10
0.00173321
2.46868e-10
0.00177177
6.68106e-11
0.00178804
4.58569e-11
0.00179414
-2.12051e-11
0.00179611
-6.16388e-11
0.00179649
-2.39392e-10
0.00179671
-2.16484e-10
0.00179673
-2.49606e-10
0.0017965
-2.66807e-10
0.00179611
-2.9559e-10
0.00179595
-2.97029e-10
0.00179604
-2.88279e-10
0.00179642
-3.06037e-10
0.00179674
-3.32614e-10
0.00179706
-3.55529e-10
0.00179719
-2.05727e-10
0.00179681
-1.98038e-10
0.00179409
-3.8676e-10
0.00178627
-1.02805e-10
0.00177189
-9.72118e-11
0.00175336
-1.24296e-10
0.00173621
-1.47789e-10
0.0017248
-1.60746e-10
0.0017194
-1.87657e-10
0.00171749
-1.97105e-10
0.00171686
-1.91441e-10
0.00171665
-2.33058e-10
0.00171672
-1.99551e-10
0.00171695
-1.77821e-10
0.00171709
-1.45818e-10
0.00171724
-1.38285e-10
0.00171741
-1.53531e-10
0.00171733
-1.33229e-10
0.00171683
-1.15996e-10
0.00171653
-1.1084e-10
0.00171551
-1.01151e-10
0.00171175
-4.73326e-11
0.00169993
-1.0503e-10
0.00166667
-1.62636e-10
0.00158376
-2.8819e-10
0.00139636
-4.82881e-10
0.00101614
-6.66941e-10
0.000405761
-5.11975e-10
3.10972e-05
-5.47494e-10
2.34856e-07
-1.3602e-10
5.22443e-10
-1.1606e-12
9.53949e-13
-1.11803e-15
1.02522e-15
-1.15186e-15
-5.79398e-16
3.14852e-16
-1.63064e-16
-3.17454e-16
7.14706e-16
1.30972e-16
9.08995e-16
-2.05565e-16
5.46438e-16
2.55872e-16
7.59809e-16
2.61943e-16
1.59421e-15
-6.17562e-16
1.17614e-15
3.24393e-16
1.45023e-15
-5.41234e-16
1.69482e-15
3.1225e-17
2.43208e-15
-8.76903e-16
2.24647e-15
-8.58688e-17
2.73392e-15
-7.78891e-16
3.13118e-15
-6.43582e-16
3.47292e-15
-6.88685e-16
3.79037e-15
-8.01442e-16
4.26048e-15
-1.2091e-15
5.93102e-15
-1.62283e-15
6.94757e-15
-1.41206e-15
8.13238e-15
-1.53263e-15
-1.73819e-15
4.10783e-15
1.02522e-15
2.32106e-15
3.93782e-16
6.93889e-16
6.33174e-16
-1.94289e-16
4.66641e-16
-2.11636e-16
-1.05298e-15
-9.81853e-16
2.60209e-16
-4.30211e-16
2.77556e-17
1.11022e-16
-2.28983e-16
3.46945e-17
-3.86843e-16
-2.81025e-16
6.08888e-16
7.73687e-16
-7.66748e-16
3.22659e-16
-5.96745e-16
-3.19189e-16
6.76542e-17
3.71231e-16
-8.13585e-16
4.26742e-16
1.42247e-16
7.28584e-17
-4.87457e-16
-1.66533e-16
3.36536e-16
-4.51028e-17
-1.14665e-15
-1.17961e-16
6.05418e-16
-1.04083e-17
-9.81853e-16
-1.70003e-16
6.31439e-16
-4.16334e-16
-7.99708e-16
6.89861e-13
6.40113e-16
3.5296e-10
-8.32841e-15
1.4957e-07
-1.4874e-12
2.05557e-05
-1.15247e-10
0.000303812
-7.18689e-10
0.000843984
-3.41226e-10
0.00124869
-7.26492e-11
0.00150363
2.20643e-10
0.00165297
2.58513e-10
0.00173321
3.83394e-10
0.00177177
3.21208e-10
0.00178804
2.17671e-10
0.00179414
1.77984e-10
0.00179611
1.1119e-10
0.00179649
-1.22843e-11
0.00179671
-5.03341e-12
0.00179673
-8.56173e-11
0.0017965
-8.07906e-11
0.00179611
-9.79902e-11
0.00179595
-1.03739e-10
0.00179604
-1.16439e-10
0.00179642
-1.42342e-10
0.00179674
-1.58165e-10
0.00179706
-1.72828e-10
0.00179719
-1.41499e-10
0.00179681
-1.81556e-10
0.00179409
-1.36535e-10
0.00178627
-1.35248e-10
0.00177189
-1.67934e-10
0.00175336
-2.15921e-10
0.00173621
-2.58235e-10
0.0017248
-2.88836e-10
0.0017194
-2.9456e-10
0.00171749
-2.72482e-10
0.00171686
-2.67486e-10
0.00171665
-2.45995e-10
0.00171672
-2.10018e-10
0.00171695
-1.82962e-10
0.00171709
-1.48323e-10
0.00171724
-1.29217e-10
0.00171741
-1.35879e-10
0.00171733
-1.19046e-10
0.00171683
-1.18979e-10
0.00171653
-7.85282e-11
0.00171551
3.25739e-11
0.00171175
1.14385e-10
0.00169993
4.14337e-11
0.00166667
9.24549e-11
0.00158376
-7.37392e-11
0.00139636
-1.38167e-10
0.00101615
2.47527e-11
0.000405762
1.72684e-10
3.10979e-05
-1.57688e-10
2.34882e-07
2.45535e-11
5.22498e-10
3.12016e-14
9.59646e-13
-8.04044e-16
-1.11022e-16
4.62304e-16
1.49186e-16
-3.70363e-16
-5.15213e-16
-1.7087e-16
1.5439e-16
1.39645e-16
5.9848e-16
1.2117e-15
1.56472e-15
-6.04551e-16
9.78384e-16
9.20271e-16
1.33053e-15
-6.30572e-16
1.18135e-15
4.46691e-16
1.0842e-15
-3.44343e-16
1.56646e-15
-3.7817e-16
1.42074e-15
-6.92155e-16
1.30104e-15
-1.63931e-16
1.43982e-15
-7.06032e-16
1.33747e-15
-5.15213e-16
1.51962e-15
-7.49401e-16
1.51094e-15
-4.69243e-16
1.36696e-15
-1.07553e-15
3.17454e-16
-8.38739e-16
4.64906e-16
-1.39298e-15
3.43475e-16
-1.2039e-15
-1.73559e-15
-5.0307e-15
-2.498e-16
-4.2466e-15
-4.21538e-16
-2.94556e-15
2.60209e-17
-2.30371e-15
-7.11237e-17
-2.22392e-15
6.93889e-18
-1.71391e-15
-4.09395e-16
-1.03736e-15
-5.30825e-16
-9.78384e-16
-1.30104e-16
-1.13104e-15
-1.96024e-16
-5.44703e-16
1.30104e-16
-8.50015e-16
-2.32453e-16
-1.75554e-15
4.71845e-16
-8.91648e-16
-6.29705e-16
-5.51642e-16
-3.66027e-16
-3.71231e-16
-3.29597e-16
-4.33681e-16
2.35922e-16
6.34909e-16
-4.80518e-16
-4.64906e-16
8.50015e-17
-1.70003e-16
1.26635e-15
-5.58581e-16
-5.48173e-16
2.74086e-16
-1.89085e-16
5.23886e-16
-2.46331e-16
6.9399e-13
-4.68375e-17
3.52867e-10
1.13624e-15
1.49551e-07
4.88526e-13
2.05551e-05
3.31867e-11
0.000303811
1.55771e-10
0.000843984
1.49241e-10
0.00124869
2.12705e-10
0.00150364
9.08857e-11
0.00165297
1.45372e-10
0.00173321
2.54218e-10
0.00177177
2.60052e-10
0.00178804
2.71832e-10
0.00179414
3.89486e-10
0.00179611
4.13746e-10
0.00179649
2.99274e-10
0.00179671
2.66463e-10
0.00179673
1.44455e-10
0.0017965
8.69737e-11
0.00179611
5.48124e-11
0.00179595
1.74493e-11
0.00179604
-1.39174e-11
0.00179642
-5.62626e-11
0.00179674
-9.29033e-11
0.00179706
-1.05845e-10
0.00179719
-1.57951e-10
0.00179681
-1.03153e-10
0.00179409
-9.43915e-11
0.00178627
-9.66603e-11
0.00177189
-1.10464e-10
0.00175336
-1.49092e-10
0.00173621
-1.90959e-10
0.0017248
-2.14295e-10
0.0017194
-2.08905e-10
0.00171749
-2.03966e-10
0.00171686
-1.724e-10
0.00171665
-1.32351e-10
0.00171672
-9.83647e-11
0.00171695
-1.22308e-10
0.00171709
-1.39128e-10
0.00171724
-1.30886e-10
0.00171741
-8.23388e-11
0.00171733
-5.01363e-11
0.00171683
-2.65593e-11
0.00171653
-3.90711e-11
0.00171551
1.62889e-10
0.00171175
9.47513e-11
0.00169993
1.25512e-10
0.00166667
1.93833e-10
0.00158376
2.60102e-10
0.00139636
3.58018e-10
0.00101615
6.5725e-10
0.000405762
2.6766e-10
3.1098e-05
1.10447e-10
2.34875e-07
-9.1114e-11
5.22495e-10
-1.75568e-12
9.56821e-13
-5.35336e-15
9.71445e-16
3.64292e-17
9.02056e-17
-2.07299e-16
-1.99493e-16
3.72966e-17
8.17055e-16
-7.74554e-16
3.43475e-16
4.18068e-16
5.34295e-16
-7.87564e-16
-1.93942e-15
4.66641e-16
1.419e-15
-7.61544e-16
1.76942e-15
4.05925e-16
1.88564e-15
-6.1149e-16
1.18308e-15
3.10516e-16
1.47451e-15
-6.40113e-16
1.49013e-15
-2.1684e-17
1.56125e-15
-6.35776e-16
1.34961e-15
-7.71952e-17
1.39819e-15
-6.7394e-16
1.87177e-15
-5.75928e-16
2.00187e-15
-1.10502e-15
2.09034e-15
-7.38992e-16
2.1632e-15
-1.2117e-15
2.17361e-15
-6.74807e-16
-1.55865e-15
2.63678e-16
9.57567e-16
-3.22659e-16
5.44703e-16
-9.22873e-16
6.245e-16
-1.15186e-15
4.35416e-16
-1.51615e-15
7.25114e-16
-9.57567e-16
-1.56125e-17
-1.31839e-15
-2.94903e-17
-1.72432e-15
-2.93168e-16
-3.85109e-16
-4.28477e-16
5.20417e-17
1.78677e-16
-3.50414e-16
5.30825e-16
4.47559e-16
-1.38778e-16
2.94903e-16
-3.10516e-16
2.11636e-16
1.09288e-16
-1.83881e-16
-1.97932e-15
-5.20417e-16
7.75421e-16
-4.16334e-17
-4.51028e-16
-4.12864e-16
3.20924e-16
1.14492e-16
-3.86843e-16
-5.6552e-16
2.68882e-16
-8.88178e-16
4.59702e-16
-7.56339e-16
3.26128e-16
6.9161e-13
2.09902e-16
3.52917e-10
9.24608e-16
1.49561e-07
1.39101e-13
2.05553e-05
6.30911e-12
0.000303811
-1.04256e-10
0.000843985
-1.5046e-10
0.00124869
-2.17016e-10
0.00150364
1.37799e-10
0.00165297
1.52581e-10
0.00173321
2.7761e-10
0.00177177
3.34626e-10
0.00178804
3.88336e-10
0.00179414
4.5222e-10
0.00179611
4.28194e-10
0.00179649
4.32488e-10
0.00179671
3.02486e-10
0.00179673
2.23502e-10
0.0017965
1.6495e-10
0.00179611
1.6838e-10
0.00179595
1.34924e-10
0.00179604
1.11486e-10
0.00179642
8.00865e-11
0.00179674
3.98294e-11
0.00179706
3.40469e-11
0.00179719
2.6335e-11
0.00179681
5.53783e-11
0.00179409
4.44642e-11
0.00178627
1.65695e-11
0.00177189
-1.72021e-11
0.00175336
-6.17662e-11
0.00173621
-1.05364e-10
0.0017248
-1.41048e-10
0.0017194
-1.44748e-10
0.00171749
-1.43463e-10
0.00171686
-1.45468e-10
0.00171665
-1.46862e-10
0.00171672
-1.13808e-10
0.00171695
-1.25063e-10
0.00171709
-1.33264e-10
0.00171724
-1.02487e-10
0.00171741
-1.29637e-10
0.00171733
-5.87539e-11
0.00171683
-2.39526e-11
0.00171653
-4.58867e-11
0.00171551
-1.87253e-12
0.00171175
-3.92754e-11
0.00169993
5.89714e-12
0.00166667
3.99122e-11
0.00158376
2.43621e-10
0.00139636
4.32502e-10
0.00101614
5.18274e-10
0.000405761
6.06313e-10
3.10977e-05
7.29615e-11
2.34892e-07
2.31241e-11
5.22585e-10
-8.47265e-14
9.58143e-13
-2.15279e-15
1.80411e-16
1.3765e-15
6.08888e-16
-7.16441e-16
2.67147e-16
5.96745e-16
3.26128e-16
-5.06539e-16
5.86337e-16
6.03684e-16
7.38992e-16
-6.54858e-16
1.07206e-15
2.55872e-16
4.49293e-16
-1.25767e-16
9.85323e-16
6.245e-17
6.47052e-16
-1.49186e-16
1.44329e-15
-1.13624e-16
1.33747e-15
3.98986e-17
1.26982e-15
7.54605e-17
6.12357e-16
-9.48894e-16
8.10116e-16
-1.94289e-16
1.01308e-15
-1.09374e-15
3.76435e-16
-1.36176e-16
9.85323e-16
-1.27155e-15
1.16747e-15
-5.38632e-16
1.66013e-15
-1.35135e-15
2.17014e-15
-8.39606e-16
-8.34402e-16
-2.28983e-15
1.96197e-15
-1.67227e-15
7.80626e-17
-1.34268e-15
-1.73472e-16
-1.23165e-15
-2.96638e-16
-1.31145e-15
6.245e-16
-1.48145e-15
4.14599e-16
-9.22873e-16
-2.08167e-17
-1.22125e-15
-4.51028e-17
-1.09635e-15
3.72966e-16
-2.35922e-16
-7.45931e-17
-3.36536e-16
6.19296e-16
-8.1532e-16
9.88792e-17
-1.60288e-15
4.71845e-16
-1.36696e-15
8.84709e-17
-2.02963e-15
4.63171e-16
8.67362e-17
-1.45717e-16
2.94903e-16
-5.08274e-16
-5.27356e-16
8.29198e-16
-5.89806e-16
-3.1572e-16
-9.22873e-16
6.40113e-16
3.60822e-16
-6.14092e-16
1.81799e-15
8.67362e-18
6.92797e-13
5.74193e-16
3.52943e-10
-3.37924e-15
1.49567e-07
-1.5175e-12
2.05555e-05
-1.18386e-10
0.000303811
-7.38685e-10
0.000843984
-4.55901e-10
0.00124869
1.75338e-10
0.00150364
2.60072e-10
0.00165297
2.00171e-10
0.00173321
3.32868e-10
0.00177177
4.30354e-10
0.00178804
4.82729e-10
0.00179414
5.04568e-10
0.00179611
5.09569e-10
0.00179649
5.22811e-10
0.00179671
4.23536e-10
0.00179673
3.85677e-10
0.00179649
3.08611e-10
0.00179611
3.2996e-10
0.00179595
2.78102e-10
0.00179604
2.35672e-10
0.00179642
2.06773e-10
0.00179674
1.96522e-10
0.00179706
2.01814e-10
0.00179719
1.8599e-10
0.00179681
1.80543e-10
0.00179409
1.44018e-10
0.00178627
9.64429e-11
0.00177189
8.60225e-11
0.00175336
7.22779e-11
0.00173621
2.09689e-11
0.0017248
-4.74269e-11
0.0017194
-9.08415e-11
0.00171749
-1.2884e-10
0.00171686
-1.3839e-10
0.00171665
-1.60915e-10
0.00171672
-1.30973e-10
0.00171695
-1.43038e-10
0.00171709
-1.32099e-10
0.00171724
-1.20037e-10
0.00171741
-1.23774e-10
0.00171733
-1.11072e-10
0.00171683
-8.98564e-11
0.00171653
-7.44105e-11
0.00171551
-1.03893e-10
0.00171175
-2.19911e-11
0.00169993
-5.39274e-11
0.00166667
8.52662e-11
0.00158376
2.96273e-10
0.00139636
3.74831e-10
0.00101614
5.69426e-10
0.000405759
7.09503e-10
3.10976e-05
7.09716e-10
2.34878e-07
2.57669e-11
5.2259e-10
6.34261e-13
9.5292e-13
4.77049e-16
2.76862e-15
4.19803e-16
1.25074e-15
-6.12357e-16
8.34402e-16
5.84602e-16
1.09288e-16
1.32706e-16
-8.10116e-16
-1.45717e-16
5.48173e-16
6.07153e-17
1.2837e-15
7.45931e-17
9.85323e-16
2.59341e-16
9.7318e-16
-2.27249e-16
6.52256e-16
2.18575e-16
6.50521e-16
6.85216e-17
-1.7885e-15
2.59341e-16
1.16747e-15
-6.47919e-16
1.12757e-15
-2.1684e-17
1.25421e-15
-1.50054e-16
5.67255e-16
-5.15213e-16
6.17562e-16
3.03577e-17
3.00107e-16
-3.30465e-16
1.38778e-17
-2.34188e-17
-1.09288e-16
-6.2797e-16
-1.11022e-15
3.84241e-16
7.84095e-16
-3.25087e-15
-3.64292e-16
-3.03577e-15
3.27863e-16
-2.31412e-15
-3.53884e-16
-2.67147e-15
2.04697e-16
-1.61329e-15
-4.89192e-16
-1.40166e-15
1.05818e-16
-5.89806e-16
-1.43982e-16
-1.01655e-15
4.68375e-16
-8.56953e-16
-5.89806e-17
-5.06539e-16
-1.249e-16
-2.22045e-16
3.43475e-16
-1.38778e-17
-4.75314e-16
2.28983e-16
2.25514e-16
4.78784e-16
2.7929e-16
9.05526e-16
1.30104e-16
9.05526e-16
1.11022e-16
4.89192e-16
-8.84709e-17
-2.25514e-16
3.90313e-16
-7.56339e-16
7.80626e-17
-4.68375e-16
6.76542e-17
-9.12465e-16
-1.75207e-16
-1.35308e-16
3.85109e-16
6.93331e-13
-1.8284e-15
3.52863e-10
2.70617e-16
1.49547e-07
6.14378e-13
2.05548e-05
4.77999e-11
0.00030381
3.14726e-10
0.000843985
2.97253e-10
0.00124869
4.71599e-10
0.00150364
1.46405e-10
0.00165297
6.95868e-11
0.00173321
1.55976e-10
0.00177177
2.28734e-10
0.00178804
3.99578e-10
0.00179414
3.72569e-10
0.00179611
4.46539e-10
0.00179649
3.38336e-10
0.00179671
3.60115e-10
0.00179673
3.51231e-10
0.00179649
2.83739e-10
0.00179611
4.0619e-10
0.00179595
3.51831e-10
0.00179604
2.98799e-10
0.00179642
2.78124e-10
0.00179674
2.92629e-10
0.00179706
3.10423e-10
0.00179719
3.19777e-10
0.00179681
1.58035e-10
0.00179409
2.23289e-10
0.00178627
2.29122e-10
0.00177189
1.93513e-10
0.00175336
1.56137e-10
0.00173621
1.15957e-10
0.0017248
7.10635e-11
0.0017194
2.61645e-11
0.00171749
-3.37937e-11
0.00171686
-6.40438e-11
0.00171665
-1.2615e-10
0.00171672
-1.24273e-10
0.00171695
-1.24605e-10
0.00171709
-1.71696e-10
0.00171724
-1.48118e-10
0.00171741
-1.56295e-10
0.00171733
-1.73692e-10
0.00171683
-1.18764e-10
0.00171653
-1.23573e-10
0.00171552
-9.21304e-11
0.00171175
4.36829e-12
0.00169993
1.16249e-10
0.00166667
1.69734e-10
0.00158376
3.43836e-11
0.00139636
-7.50676e-11
0.00101614
7.77564e-10
0.000405759
9.23365e-10
3.10967e-05
5.51073e-11
2.34861e-07
5.63908e-11
5.22514e-10
8.16788e-13
9.52374e-13
1.72605e-15
3.07913e-15
-3.95517e-16
3.55618e-16
1.21431e-16
7.44196e-16
-1.59595e-16
8.06646e-16
-1.10155e-16
5.3603e-16
7.71952e-17
6.245e-16
-6.07153e-17
8.25728e-16
-5.63785e-17
1.11716e-15
8.0231e-16
1.01655e-15
-2.59341e-16
8.8124e-16
1.39645e-16
1.33921e-15
-5.94143e-16
1.57686e-15
-1.32706e-16
1.19696e-16
1.37043e-16
6.40113e-16
-5.23019e-16
1.10849e-15
-4.23273e-16
8.17055e-16
-3.29597e-16
7.12971e-16
1.82146e-16
1.50401e-15
-8.16187e-16
2.40953e-15
-5.97612e-16
2.8727e-15
-1.06425e-15
4.55365e-15
-1.05471e-15
-1.45023e-15
-3.16761e-15
-5.23886e-16
-2.20657e-15
-2.498e-16
-2.60902e-15
6.93889e-18
-2.64372e-15
2.68882e-16
-1.9186e-15
-1.43115e-15
-1.39472e-15
-2.28983e-16
-1.57166e-15
-1.70003e-16
-7.59809e-16
3.1225e-17
-5.37764e-16
4.42354e-16
-5.75928e-16
7.09502e-16
-5.58581e-16
9.54098e-17
-1.21084e-15
-1.83881e-16
-8.98587e-16
3.29597e-17
5.20417e-17
6.76542e-17
2.19963e-15
5.72459e-17
9.36751e-17
-1.73472e-17
-6.66134e-16
6.38378e-16
5.72459e-16
-4.30211e-16
8.60423e-16
-3.26128e-16
-4.12517e-15
3.747e-16
-6.59195e-17
2.1684e-16
3.62557e-15
9.88792e-17
6.86243e-13
9.31547e-16
3.52913e-10
1.66187e-15
1.49561e-07
3.30182e-13
2.05554e-05
2.9777e-11
0.000303811
2.9961e-10
0.000843985
6.1469e-10
0.00124869
7.15093e-10
0.00150364
3.6761e-10
0.00165297
2.27876e-10
0.00173321
1.33622e-10
0.00177177
1.1854e-10
0.00178804
1.55184e-10
0.00179414
7.60026e-11
0.00179611
1.25576e-10
0.00179649
1.91011e-10
0.00179671
1.67026e-10
0.00179673
2.20884e-10
0.00179649
2.9886e-10
0.00179611
2.92644e-10
0.00179595
2.65712e-10
0.00179604
1.48173e-10
0.00179642
2.25354e-10
0.00179674
2.49428e-10
0.00179706
2.49681e-10
0.00179719
2.41438e-10
0.00179681
2.0413e-10
0.00179409
1.70381e-10
0.00178627
1.50902e-10
0.00177189
1.46074e-10
0.00175336
1.39972e-10
0.00173621
9.30362e-11
0.0017248
9.33318e-11
0.0017194
3.53281e-11
0.00171749
-3.00351e-11
0.00171686
-6.87921e-11
0.00171665
-1.0833e-10
0.00171672
-1.18128e-10
0.00171695
-1.3503e-10
0.00171709
-2.01917e-10
0.00171724
-1.41288e-10
0.00171741
-1.39866e-10
0.00171733
-1.30152e-10
0.00171683
-1.04309e-10
0.00171653
-7.3799e-11
0.00171552
-8.36908e-11
0.00171175
-5.83002e-11
0.00169993
2.31475e-11
0.00166667
8.94815e-11
0.00158376
1.30797e-10
0.00139636
4.07982e-11
0.00101614
1.08261e-10
0.000405758
-9.33168e-10
3.10961e-05
-1.50514e-09
2.34837e-07
-2.81866e-10
5.22427e-10
-3.91682e-12
9.51792e-13
-9.7292e-15
3.42087e-15
-1.33313e-15
1.35482e-15
7.37257e-17
8.03177e-16
9.09862e-16
6.69603e-16
3.00107e-16
4.04191e-16
1.63931e-16
7.06032e-16
-2.25514e-16
7.91034e-16
6.85216e-17
9.31547e-16
-1.82146e-16
5.9501e-16
4.68375e-17
8.95117e-16
-3.1225e-16
5.67255e-16
-4.81386e-16
2.06432e-16
3.96384e-16
3.83374e-16
-4.58834e-16
1.38951e-15
-3.33934e-16
1.75207e-16
-3.40006e-16
-4.82253e-16
2.1684e-16
2.498e-16
-2.56739e-16
-1.05298e-15
1.28456e-15
-1.46237e-15
2.17708e-16
-1.72258e-15
-1.88738e-15
-2.48239e-15
-7.80626e-17
1.00614e-16
-1.88044e-15
-1.77983e-15
-1.53696e-15
-1.15533e-15
-1.56125e-15
-1.38084e-15
-1.50227e-15
-1.3288e-15
-2.08167e-16
-6.69603e-16
-3.1225e-16
-5.34295e-16
-2.77556e-16
1.49186e-16
3.29597e-16
5.68989e-16
4.12864e-16
5.89806e-17
2.08167e-17
2.22045e-16
4.68375e-16
1.49533e-15
6.9144e-13
3.52959e-10
1.49571e-07
2.05558e-05
0.000303813
0.000843985
0.00124869
0.00150364
0.00165297
0.00173321
0.00177177
0.00178804
0.00179414
0.00179611
0.00179649
0.00179671
0.00179673
0.00179649
0.00179611
0.00179595
0.00179604
0.00179642
0.00179674
0.00179706
0.00179719
0.00179681
0.00179409
0.00178627
0.00177189
0.00175336
0.00173621
0.0017248
0.0017194
0.00171749
0.00171686
0.00171665
0.00171672
0.00171695
0.00171709
0.00171724
0.00171742
0.00171733
0.00171683
0.00171653
0.00171552
0.00171175
0.00169993
0.00166667
0.00158376
0.00139636
0.00101614
0.00040576
3.10977e-05
2.34887e-07
5.22629e-10
9.5582e-13
2.72352e-15
-2.06432e-16
1.78677e-16
1.85615e-16
6.12357e-16
5.29091e-16
-1.97412e-15
4.33681e-16
8.27463e-16
-3.72966e-16
6.40113e-16
1.16226e-15
1.80411e-16
1.94289e-16
-1.00614e-16
3.17454e-16
9.19403e-17
7.11237e-16
1.30972e-15
1.5387e-15
1.90646e-15
)
;

boundaryField
{
    sides1
    {
        type            calculated;
        value           nonuniform List<scalar> 
20
(
8.01269e-15
-1.56125e-16
9.67976e-15
3.64292e-16
2.30198e-15
2.00014e-15
-2.77209e-15
6.77063e-15
-3.42261e-15
2.07993e-15
4.68028e-15
-1.0443e-15
8.12198e-15
-6.71685e-15
6.5295e-15
-1.24553e-15
1.93595e-15
5.7003e-15
3.29597e-15
1.68268e-15
)
;
    }
    sides2
    {
        type            calculated;
        value           uniform 0;
    }
    empty
    {
        type            empty;
        value           nonuniform 0();
    }
}


// ************************************************************************* //
