/*--------------------------------*- C++ -*----------------------------------*\
| =========                 |                                                 |
| \\      /  F ield         | OpenFOAM: The Open Source CFD Toolbox           |
|  \\    /   O peration     | Version:  2012                                  |
|   \\  /    A nd           | Website:  www.openfoam.com                      |
|    \\/     M anipulation  |                                                 |
\*---------------------------------------------------------------------------*/
FoamFile
{
    version     2.0;
    format      ascii;
    class       volScalarField;
    location    "0.85";
    object      maxKappa;
}
// * * * * * * * * * * * * * * * * * * * * * * * * * * * * * * * * * * * * * //

dimensions      [0 0 0 0 0 0 0];


internalField   nonuniform List<scalar> 
2268
(
3.48183e-06
6.58691e-06
9.44959e-06
1.18475e-05
1.37052e-05
1.50706e-05
1.59723e-05
1.64323e-05
1.65343e-05
1.65343e-05
1.63125e-05
1.57549e-05
1.49406e-05
1.39041e-05
1.25816e-05
1.09104e-05
8.78136e-06
6.19572e-06
3.36604e-06
2.33022e-06
2.9391e-06
2.9391e-06
2.65734e-06
4.30679e-06
7.03251e-06
9.75891e-06
1.20704e-05
1.38601e-05
1.51626e-05
1.60328e-05
1.6507e-05
1.66055e-05
1.66055e-05
1.6357e-05
1.57922e-05
1.49887e-05
1.3985e-05
1.27055e-05
1.10649e-05
8.99057e-06
6.49811e-06
3.90284e-06
2.70091e-06
3.14516e-06
3.14516e-06
3.02676e-06
5.39279e-06
7.68473e-06
1.01873e-05
1.23948e-05
1.41608e-05
1.54725e-05
1.63356e-05
1.67687e-05
1.68093e-05
1.68093e-05
1.65185e-05
1.59427e-05
1.51772e-05
1.42007e-05
1.29475e-05
1.13547e-05
9.39693e-06
7.12229e-06
4.93039e-06
4.21933e-06
4.31103e-06
4.31103e-06
3.72845e-06
6.8666e-06
8.78701e-06
1.1029e-05
1.30253e-05
1.46075e-05
1.57645e-05
1.65492e-05
1.69717e-05
1.69894e-05
1.69894e-05
1.66653e-05
1.60898e-05
1.5335e-05
1.44216e-05
1.3316e-05
1.1881e-05
1.01199e-05
8.08029e-06
6.13231e-06
5.38644e-06
5.68845e-06
5.82611e-06
5.82611e-06
8.29562e-06
9.88353e-06
1.18627e-05
1.36961e-05
1.52355e-05
1.63951e-05
1.71336e-05
1.74372e-05
1.74372e-05
1.73539e-05
1.69851e-05
1.63952e-05
1.5713e-05
1.48642e-05
1.38171e-05
1.24865e-05
1.09371e-05
9.24091e-06
7.7635e-06
7.85898e-06
7.901e-06
7.901e-06
7.59543e-06
1.01225e-05
1.14528e-05
1.31787e-05
1.47402e-05
1.59944e-05
1.68946e-05
1.75027e-05
1.78038e-05
1.78038e-05
1.768e-05
1.72321e-05
1.66141e-05
1.58948e-05
1.51668e-05
1.44012e-05
1.33286e-05
1.20478e-05
1.06769e-05
9.53177e-06
9.70089e-06
9.86143e-06
1.08822e-05
1.08822e-05
1.18096e-05
1.28539e-05
1.42683e-05
1.56165e-05
1.68282e-05
1.776e-05
1.83196e-05
1.84277e-05
1.84277e-05
1.81698e-05
1.76739e-05
1.70232e-05
1.64541e-05
1.58953e-05
1.52258e-05
1.42759e-05
1.32188e-05
1.22457e-05
1.23963e-05
1.23963e-05
1.23654e-05
1.34652e-05
1.34652e-05
1.40828e-05
1.50332e-05
1.63194e-05
1.73902e-05
1.81727e-05
1.86259e-05
1.89216e-05
1.90445e-05
1.90445e-05
1.86935e-05
1.80164e-05
1.72628e-05
1.65846e-05
1.62188e-05
1.59082e-05
1.52788e-05
1.46101e-05
1.41557e-05
1.50426e-05
1.50426e-05
1.56581e-05
1.82637e-05
1.70079e-05
0.000119976
0.000309409
0.000637222
0.000637222
0.000542307
0.000574546
0.00069944
0.00116844
0.00157424
0.00170857
0.00170857
0.00122141
0.000505769
0.000293789
0.000222453
0.000153242
9.54899e-05
6.97534e-05
4.29724e-05
0.000150212
0.000466191
0.000577367
0.000577367
0.000597554
0.00164579
0.00272154
0.00311367
0.00311367
0.0030638
0.00197532
0.000524773
0.000683977
0.000714393
0.000714393
0.000314611
0.000205363
9.74601e-05
3.15038e-05
0.000162627
0.000407889
0.000573377
0.00067892
0.00104388
0.00202591
0.00273347
0.00273347
0.002504
0.00169656
0.000687858
0.000139441
9.31664e-05
0.000379935
0.00083189
0.00083189
0.000524357
0.000120764
2.94214e-05
0.000139134
0.0001435
0.000210112
0.000748949
0.00122126
0.00122126
0.000994883
0.000820946
0.000911576
0.000911576
0.000223767
0.000105293
0.000117762
0.000118592
0.000190536
0.000365823
0.000365823
0.000163555
3.60633e-05
0.000155616
0.000155616
0.000274096
0.000335204
0.000335204
0.000201121
0.000638135
0.000668654
0.000668654
0.000572546
0.000184382
0.000479598
0.000585585
0.000585585
0.00036325
7.99019e-05
4.61088e-05
3.51935e-05
2.06551e-05
0.000172334
0.000260237
0.000706737
0.000706737
0.000427134
8.61402e-05
0.000136248
0.000305338
0.000305338
0.000162182
0.000244505
0.000672464
0.000672464
0.000560716
0.000445275
0.000375908
0.000103491
3.4983e-05
1.65688e-05
0.000224036
0.000625963
0.000881777
0.000881777
0.000518627
0.000217447
5.87865e-05
0.000327357
0.000327357
0.000156984
0.000145424
0.000160706
0.000344404
0.000344404
0.00026407
0.000273917
0.000273917
0.000103084
1.97239e-05
0.000234608
0.000639358
0.000639358
0.000597009
0.00047969
0.00046973
9.18588e-05
0.000105366
0.000105366
0.000138853
0.000138853
0.000101622
0.000316603
0.000639082
0.000639082
0.000566118
0.000374
8.43723e-05
4.74979e-05
2.02343e-05
2.03324e-05
2.09702e-05
2.12204e-05
2.14073e-05
2.10642e-05
2.05424e-05
2.31545e-05
2.60269e-05
2.5304e-05
2.36347e-05
2.07575e-05
2.00019e-05
2.16092e-05
2.28956e-05
2.2156e-05
2.13039e-05
2.20329e-05
2.62588e-05
6.28285e-05
0.000161248
9.9033e-05
4.43512e-05
5.79791e-05
5.65907e-05
5.46789e-05
5.02914e-05
5.01141e-05
6.11308e-05
7.58516e-05
0.000113692
0.000165523
0.000182817
0.000142113
0.000100535
9.92767e-05
9.45176e-05
8.32848e-05
7.01884e-05
5.56072e-05
5.71999e-05
8.27618e-05
0.000312251
0.000429666
0.000157698
0.000158733
0.000588231
0.000614709
0.000548859
0.000456842
0.000466183
0.00054158
0.000725213
0.000809648
0.000929277
0.000910169
0.000738536
0.000452018
0.000381637
0.000389076
0.000373856
0.000365638
0.000375609
0.000425286
0.000518709
0.000679953
0.000713641
0.000366371
0.000126454
0.00204846
0.00173421
0.00121422
0.00107344
0.00107684
0.00137826
0.00186024
0.00165314
0.00179175
0.00157906
0.00141212
0.00113402
0.000515663
0.0006138
0.00076586
0.000803347
0.000823183
0.000868023
0.000875224
0.000875224
0.000889825
0.000679201
0.000322424
0.00402058
0.00264793
0.0017154
0.00157315
0.00160152
0.00225191
0.00295638
0.00277731
0.00250052
0.001839
0.00161336
0.00157735
0.00126861
0.000715689
0.00059947
0.000625514
0.000579062
0.000628469
0.000762869
0.000759657
0.000938711
0.000688223
0.000227772
0.00575805
0.00374633
0.00227665
0.00228973
0.00248628
0.00283735
0.00295638
0.00278067
0.0019652
0.00146484
0.00137146
0.00159272
0.00164815
0.00152982
0.0013896
0.000907825
0.00072828
0.000567077
0.000823183
0.000936575
0.00100844
0.000840557
0.000488922
0.00713903
0.00465804
0.00259639
0.00238495
0.0024364
0.00267182
0.00277914
0.00230357
0.00215981
0.001932
0.00156392
0.0015751
0.00172121
0.00210637
0.00210637
0.00174985
0.00142477
0.0011519
0.00127836
0.00130114
0.00131133
0.00117134
0.00106355
0.00793544
0.00539347
0.0025574
0.00232276
0.002628
0.00267182
0.00251815
0.00216517
0.00212268
0.00207119
0.00194422
0.00199772
0.00199772
0.00188186
0.0019207
0.00195377
0.00195377
0.00154825
0.00146048
0.00147377
0.00147377
0.00146529
0.00140351
0.00793544
0.00571343
0.00255981
0.00214563
0.002413
0.00250039
0.00215604
0.00210459
0.00216059
0.00216059
0.00209653
0.00194376
0.00198639
0.00190608
0.00169654
0.00171191
0.00184795
0.00175159
0.00147858
0.0013473
0.00137671
0.00136335
0.00133267
0.00775449
0.0057238
0.00301137
0.00202832
0.00192904
0.00174048
0.00147478
0.00148193
0.00166633
0.00178398
0.00183317
0.0018007
0.0018136
0.00168997
0.00163776
0.00156286
0.00157076
0.00154479
0.00138402
0.00119123
0.0011886
0.00122856
0.00117251
0.00727218
0.00548545
0.00321671
0.00198871
0.00123666
0.000726994
0.00072738
0.000853206
0.000999086
0.00109435
0.00117657
0.00131707
0.00140141
0.0014234
0.00150786
0.00144384
0.00142435
0.00141824
0.00112297
0.00111804
0.00104715
0.00108491
0.00108564
0.00653812
0.00516351
0.00346292
0.00231414
0.00159371
0.00129017
0.00112902
0.000982939
0.000835044
0.000721614
0.000684443
0.000803427
0.000881452
0.00087704
0.000990227
0.00110411
0.00119825
0.00119947
0.00125887
0.0012913
0.0012913
0.00119476
0.00119476
0.00562241
0.00451349
0.00341611
0.00254433
0.00197492
0.00163164
0.00136576
0.00117342
0.00099973
0.000824074
0.000638199
0.000570749
0.000552452
0.000531577
0.000586128
0.000633981
0.000657309
0.000778561
0.000940146
0.00112201
0.00109197
0.00102594
0.00100013
0.00451239
0.00370809
0.00317285
0.00255591
0.0020727
0.00173539
0.00145283
0.0012144
0.000993725
0.000792995
0.000617919
0.000497315
0.000442244
0.000447443
0.000461883
0.000434957
0.000442031
0.000442031
0.000542439
0.000720752
0.000795648
0.000829609
0.000806008
0.00345117
0.00318862
0.00273082
0.00235291
0.00198891
0.00168723
0.00141733
0.00117912
0.000967108
0.000786306
0.000630322
0.000507657
0.000408731
0.000353204
0.000337532
0.000352196
0.000347903
0.000353058
0.000452733
0.000538467
0.000578639
0.00064655
0.000663222
0.00266667
0.00261766
0.00235405
0.00202178
0.00176264
0.00151741
0.00128278
0.00105832
0.000857088
0.000689858
0.000553307
0.000441808
0.000348698
0.00028025
0.000261365
0.000253896
0.000281973
0.000310607
0.000357823
0.000449964
0.000491686
0.000550949
0.000587024
0.0021605
0.00214872
0.00195771
0.00175081
0.00153275
0.00131384
0.00112699
0.000944521
0.000777864
0.000634068
0.000509845
0.000397
0.000290246
0.000196629
0.000161044
0.000175107
0.000219086
0.000278412
0.000354988
0.000416691
0.000459179
0.000493376
0.000536759
0.00182839
0.00182646
0.00166905
0.00151878
0.0013423
0.00118496
0.00102879
0.00087107
0.000721725
0.000585543
0.000464226
0.000352481
0.000246986
0.000146116
6.8288e-05
0.000126265
0.000191556
0.000247826
0.000305025
0.000367185
0.000418141
0.000468181
0.000501573
0.00159767
0.00159443
0.00147246
0.00135973
0.00121982
0.00109072
0.000959266
0.000825018
0.000694832
0.000571259
0.000456761
0.000348004
0.000245416
0.000151853
0.000109089
0.000143927
0.000211459
0.00027692
0.000336809
0.000388237
0.000429434
0.000463101
0.000486684
0.00143547
0.00142914
0.00133253
0.00124508
0.00114015
0.00103166
0.000918105
0.000800535
0.000685006
0.00057385
0.000470223
0.000373823
0.000286719
0.000218313
0.000192299
0.00020522
0.000241035
0.000287967
0.000334976
0.000382333
0.00042416
0.000459648
0.00048488
0.00131945
0.00131074
0.00123462
0.00116482
0.00108052
0.000989577
0.000892529
0.000790709
0.00068887
0.000589057
0.000495142
0.000408581
0.000340161
0.000296432
0.000275283
0.000280547
0.000304411
0.000340209
0.00037971
0.000420374
0.000456715
0.00048937
0.000517576
0.00123867
0.0012276
0.00116685
0.0011116
0.0010459
0.000968157
0.00088425
0.000796232
0.000708479
0.000623054
0.000543071
0.000470185
0.000412928
0.000376189
0.000357003
0.000356897
0.000372419
0.000399321
0.000432992
0.000471346
0.000509957
0.000548349
0.000586629
0.00118397
0.00117224
0.00112516
0.00108099
0.00102574
0.000960069
0.000887813
0.000810722
0.00073271
0.00065603
0.000586965
0.000533361
0.000487683
0.000455605
0.000438767
0.000436644
0.000448754
0.000471817
0.000504642
0.000545805
0.000591857
0.000642443
0.000689169
0.0011476
0.00113746
0.00110553
0.00106916
0.00102153
0.000964924
0.000902915
0.000837904
0.000772585
0.000708845
0.000650008
0.000604238
0.00056531
0.000537766
0.000523481
0.000522474
0.000535572
0.000562267
0.000601772
0.000653252
0.000709874
0.000761361
0.000793328
0.00113016
0.0011188
0.00109634
0.00106681
0.00102745
0.000979618
0.00092556
0.000867837
0.000812087
0.000764251
0.000716216
0.000677254
0.000644281
0.000622438
0.000613217
0.000618016
0.000638643
0.000675186
0.000726837
0.000785821
0.000832341
0.000855259
0.000860299
0.00113461
0.00112317
0.00110204
0.0010762
0.00104249
0.00100262
0.000957993
0.000913431
0.000867314
0.000827234
0.000786695
0.000754847
0.000728579
0.000714455
0.000713137
0.000728305
0.000760315
0.000809815
0.000865147
0.000900941
0.000908172
0.00090121
0.000891348
0.00115011
0.00114108
0.00112394
0.00110106
0.0010712
0.00103891
0.00100151
0.00096573
0.000927087
0.000893627
0.000860499
0.000836183
0.000818213
0.000814283
0.000824137
0.000852761
0.000897602
0.000948819
0.000970984
0.000960567
0.00093805
0.0009198
0.000910106
0.00117431
0.00116742
0.00115372
0.00113428
0.00110954
0.00108265
0.00105232
0.001023
0.000991835
0.000965506
0.000940757
0.000925648
0.00091858
0.000927497
0.000951354
0.000993122
0.00103646
0.00104587
0.00101374
0.00098262
0.000952342
0.000928539
0.000920467
0.00120628
0.00120121
0.00119065
0.00117491
0.00115515
0.00113328
0.0011092
0.00108553
0.00106173
0.00104249
0.00102709
0.00102181
0.00102652
0.00104878
0.0010853
0.00112493
0.00112452
0.00108472
0.00104302
0.000993601
0.000954027
0.000928594
0.000920467
0.00124587
0.0012421
0.00123401
0.00122165
0.00120649
0.00118966
0.00117173
0.00115423
0.00113813
0.00112683
0.00112128
0.00112676
0.00114405
0.00117785
0.00121353
0.00120949
0.00115514
0.00110022
0.00103653
0.000984332
0.000947154
0.000924415
0.000917215
0.00129299
0.00129039
0.00128459
0.00127562
0.00126483
0.00125291
0.00124093
0.00122961
0.00122139
0.00121764
0.00122224
0.00123766
0.00126689
0.00130357
0.0013018
0.00125055
0.0011859
0.00110412
0.00103211
0.000971716
0.000927828
0.000904595
0.000889317
0.00134668
0.00134496
0.00134106
0.00133523
0.00132856
0.00132156
0.00131559
0.00131094
0.00131075
0.00131516
0.00132907
0.00135443
0.00138914
0.00139521
0.0013369
0.00126623
0.00116779
0.00107861
0.000998139
0.000933624
0.000892291
0.000865307
0.000845335
0.00140847
0.00140767
0.00140556
0.00140274
0.00139984
0.00139743
0.0013968
0.00139846
0.00140535
0.00141697
0.00143878
0.00146913
0.00148467
0.00143267
0.00136779
0.00125817
0.00115097
0.0010473
0.000955048
0.000883643
0.000841715
0.000812917
0.000799033
0.00147512
0.00147541
0.00147519
0.00147528
0.00147613
0.00147836
0.00148306
0.00149067
0.00150426
0.00152198
0.00154842
0.00156996
0.00153145
0.0014629
0.00134888
0.00122483
0.00110421
0.000989918
0.000895795
0.000826946
0.000786836
0.000763495
0.000756933
0.00155256
0.00155324
0.00155397
0.00155633
0.00156038
0.00156622
0.00157461
0.00158649
0.00160409
0.00162415
0.00164789
0.00163371
0.00157187
0.00146641
0.00132896
0.00119267
0.00105558
0.000931144
0.000829052
0.000763437
0.000727476
0.000713366
0.000718036
0.00163128
0.00163279
0.00163556
0.00164093
0.00164808
0.00165782
0.00167006
0.00168603
0.00170629
0.00172538
0.00173137
0.0016682
0.00157845
0.00143291
0.00128046
0.00112799
0.000982573
0.000859801
0.00076506
0.000702369
0.000677068
0.000672923
0.000691892
0.00172473
0.00172654
0.00172992
0.00173571
0.00174457
0.00175641
0.00177008
0.00178674
0.00180308
0.0018111
0.00177496
0.00170514
0.001568
0.00140295
0.00123737
0.00107169
0.000920504
0.000791906
0.000693573
0.00064139
0.000630396
0.00064016
0.000673951
0.00181465
0.00181707
0.0018215
0.00182912
0.00184075
0.00185488
0.00187067
0.00188674
0.00189665
0.00188318
0.00180927
0.00169475
0.0015222
0.00134037
0.0011601
0.000989423
0.000841511
0.000722273
0.000636844
0.000593094
0.000605316
0.000650821
0.000675582
0.00192504
0.00192753
0.00193187
0.00193905
0.00194972
0.00196257
0.00197586
0.00198366
0.00197688
0.00192492
0.00184619
0.00168331
0.00148995
0.0012969
0.00110842
0.000934578
0.000781842
0.000655484
0.000572295
0.000550311
0.000571103
0.000631577
0.000691651
0.0020242
0.00202692
0.00203162
0.00203952
0.0020513
0.00206461
0.00207561
0.00207714
0.00204843
0.00196051
0.00182251
0.00162555
0.00141646
0.00121355
0.00102229
0.000850101
0.000705001
0.00059584
0.000531831
0.000542777
0.000599381
0.000670867
0.000711464
0.00215394
0.00215677
0.00216164
0.00216919
0.00217828
0.00218594
0.00218644
0.00216725
0.00209745
0.00200701
0.00182612
0.00160739
0.00138875
0.00117737
0.000980042
0.000802565
0.000650697
0.000534821
0.000488524
0.000512606
0.000581799
0.000662521
0.000738829
0.00226783
0.00226907
0.00227098
0.00227267
0.00227267
0.00227176
0.00226292
0.00223329
0.00214987
0.00198138
0.0017552
0.00151923
0.00129312
0.00108171
0.00088934
0.000720928
0.000585643
0.000495417
0.000487415
0.00054924
0.000630658
0.000718799
0.000738829
0.000207831
8.00377e-05
5.1449e-05
7.20033e-05
0.000207831
8.00377e-05
8.12786e-05
0.000142264
0.000143975
0.000111558
0.000151477
0.000186539
0.000124577
0.000152971
0.000175662
0.000229229
0.000131947
0.000152971
0.000175662
0.000455594
0.000183462
0.000183494
0.000234877
0.000622192
0.000724364
0.000601863
0.000647872
0.000742119
0.000994886
0.000866058
0.000647872
0.000742119
0.000994886
0.000866058
0.000691931
0.000516235
0.000799839
0.000739916
0.000789661
0.00074964
0.0008508
0.000762787
0.000789661
0.00074964
0.00108852
0.00106321
0.000953254
0.000905057
0.00108852
0.0010673
0.00108642
0.00106922
0.000928765
0.0010673
0.00108642
0.00106922
0.000722163
0.000800382
0.000868753
0.00094338
0.000648316
0.000696633
0.000732155
0.000780443
0.000569816
0.000600792
0.000620363
0.000653536
0.00052087
0.000537284
0.000541181
0.000552786
0.000500645
0.000510922
0.000510866
0.000514758
0.000496158
0.000501515
0.000501355
0.000500738
0.00053318
0.000540792
0.000544749
0.000546932
0.000610218
0.000621727
0.00063154
0.000637092
0.000711687
0.000722813
0.000731077
0.00073667
0.000804119
0.000809057
0.000812657
0.000815493
0.00086078
0.00086214
0.000864184
0.000868215
0.000891164
0.000893773
0.000897458
0.000903682
0.000911661
0.000915365
0.000918677
0.000923979
0.000921707
0.000923144
0.000923335
0.000924361
0.000921707
0.000923144
0.000923335
0.000924361
0.000911665
0.000909269
0.000904516
0.000901527
0.000878244
0.000872378
0.000865809
0.000860959
0.000834546
0.00082923
0.000824045
0.000821292
0.000791288
0.000789979
0.00078768
0.000789384
0.000756335
0.000759229
0.000762156
0.000768465
0.000726558
0.00073561
0.000744444
0.000759288
0.000710017
0.000725717
0.000744836
0.000769165
0.00070792
0.000735158
0.00076042
0.000789474
0.000720496
0.000752298
0.000781103
0.000813686
0.000742678
0.000777929
0.000809694
0.000844684
0.000767092
0.000804617
0.00083857
0.00087507
0.000798526
0.000837901
0.000873858
0.000911658
0.000798526
0.000837901
0.000873858
0.000911658
0.000234459
0.000642558
0.000782887
0.000782887
0.000777139
0.000589688
0.000243773
6.20634e-05
7.90275e-05
0.000107633
0.000107633
0.000126762
0.000488493
0.000744921
0.000744921
0.000518148
0.000483301
0.000391563
0.000266966
0.00030255
0.000771616
0.000567614
0.000824608
0.000755431
0.000335432
0.000301999
0.000161917
0.000118511
8.96324e-05
0.000120298
0.000304906
0.000906815
0.000940337
0.000849153
0.00064583
0.000635857
0.00042167
0.000181428
0.000596385
0.000948316
0.000982156
0.00129521
0.00129521
0.000833841
0.000257682
0.000102243
0.000102115
0.000261358
0.000432827
0.00061752
0.00120165
0.00120165
0.00107104
0.000861747
0.00060252
0.000198642
0.000239297
0.000980718
0.00137292
0.00137292
0.00129291
0.000741797
0.000550888
0.000337713
0.000167136
0.00043499
0.00101516
0.00117987
0.00117987
0.000956184
0.000864134
0.000759548
0.000595271
0.000368975
0.000875332
0.000790265
0.00118181
0.00131223
0.00132307
0.000862956
0.00044858
0.000368664
0.000264381
0.000376069
0.000593995
0.0008781
0.000833234
0.0013662
0.0013662
0.00105062
0.000574433
0.000941526
0.00167048
0.00176349
0.00194855
0.000966697
0.00123405
0.00163974
0.00127068
0.000890835
0.000519682
0.000356417
0.000213431
0.000677698
0.00109987
0.00109987
0.00094866
0.000977
0.00117431
0.00178437
0.00283438
0.00284417
0.00284417
0.00280924
0.000893484
0.00154152
0.00201222
0.00136294
0.000858889
0.000858889
0.000767772
0.000544542
0.000495252
0.000629934
0.00074232
0.000949848
0.000949848
0.000668892
0.00163397
0.00229845
0.00277476
0.00316977
0.00316977
0.0010381
0.00187815
0.00215464
0.00127069
0.000966976
0.000966976
0.000786913
0.000485075
0.000592976
0.000646412
0.000567228
0.000666994
0.000724832
0.00113725
0.00131119
0.00135911
0.00173332
0.00326061
0.00326061
0.00130535
0.00189403
0.00215464
0.00171735
0.00105385
0.000903136
0.000872698
0.000493618
0.000636539
0.000701893
0.000727036
0.000556862
0.00110452
0.00160728
0.00158573
0.000893181
0.00207029
0.00309732
0.00313471
0.00127176
0.00189295
0.00189295
0.00160954
0.000881211
0.000726915
0.000748823
0.000791042
0.000907932
0.00123765
0.00146452
0.00135045
0.0016834
0.0016834
0.0011618
0.000742684
0.00150449
0.00271963
0.00311271
0.000945148
0.0012496
0.00162143
0.001377
0.00063119
0.000662084
0.000992261
0.00146608
0.00180008
0.00211053
0.0021368
0.0021368
0.00202829
0.00159822
0.00068835
0.000811682
0.00143817
0.00256734
0.00301846
0.000767246
0.000620574
0.000964716
0.000853546
0.000488256
0.0010467
0.00165541
0.0018325
0.00185953
0.00197422
0.00197422
0.00192656
0.00155497
0.0010039
0.000676461
0.000958382
0.00139613
0.00238645
0.00278635
0.00103179
0.000803108
0.000864142
0.000719142
0.000845578
0.00156835
0.00180063
0.00180063
0.00167471
0.00154076
0.00155382
0.00135749
0.00100297
0.000814864
0.000940619
0.00113773
0.00145266
0.00223258
0.00256011
0.00129096
0.00129096
0.00118232
0.00127813
0.0014674
0.00151603
0.00156398
0.00156054
0.00132407
0.00107049
0.000962119
0.000894191
0.000831018
0.00100718
0.00115354
0.0012488
0.00142384
0.00193567
0.00222476
0.0010982
0.00126569
0.00143189
0.00149758
0.00149758
0.00146005
0.00137695
0.00126067
0.000894481
0.000555091
0.000631026
0.000810841
0.000990767
0.0011446
0.00125039
0.00129447
0.00135676
0.00170073
0.00189637
0.000935322
0.00102863
0.00108372
0.00120614
0.00115643
0.00112959
0.00102587
0.00081445
0.00050205
0.000789452
0.00095799
0.00107278
0.0011884
0.00126038
0.00129377
0.00129377
0.00128003
0.00150416
0.00165402
0.000681369
0.000748713
0.000767834
0.000770006
0.000692877
0.000677698
0.000624447
0.000699054
0.000957207
0.00108749
0.00117578
0.00124035
0.00129424
0.00129707
0.00129707
0.00127391
0.00120898
0.00130573
0.00143221
0.000561216
0.000561216
0.000499948
0.000436691
0.000322829
0.000361739
0.000628059
0.00090317
0.00112578
0.00123942
0.001305
0.00133458
0.00133458
0.00133199
0.001275
0.001192
0.00107791
0.00111787
0.00122981
0.000503554
0.000503554
0.000427397
0.000290487
0.000131828
0.00036502
0.000641502
0.000916473
0.00112052
0.00123432
0.00130113
0.00131586
0.00131586
0.00127708
0.00118306
0.00106732
0.000941934
0.000941478
0.00104272
0.000507193
0.000507193
0.000436236
0.000328674
0.000243009
0.000389861
0.000611706
0.000868408
0.00106105
0.00118329
0.0012532
0.0012532
0.00124721
0.00118849
0.00107886
0.000951156
0.000816229
0.000770234
0.000866479
0.000543356
0.000531868
0.000486172
0.000424507
0.000404972
0.000471977
0.000645623
0.00084961
0.00101216
0.00112328
0.00118129
0.00118129
0.00117492
0.00111706
0.00100149
0.000860575
0.000713168
0.000611336
0.000698835
0.000644383
0.000644383
0.000618735
0.000589757
0.000580484
0.000627328
0.000728295
0.000874891
0.000996363
0.00108943
0.00113136
0.00113136
0.00111311
0.00105147
0.000936694
0.000791268
0.000632553
0.000479665
0.000536859
0.000763867
0.000763867
0.000755288
0.000743671
0.000767938
0.000815313
0.000888869
0.000988219
0.00106253
0.00110714
0.00110839
0.00110839
0.00105604
0.000971113
0.000852485
0.000710028
0.000552865
0.000386602
0.00037895
0.000874775
0.000878588
0.000890499
0.000912827
0.000963832
0.00102688
0.00109962
0.00117791
0.00121602
0.00122398
0.00122398
0.00118448
0.00108673
0.000948722
0.000793276
0.000645788
0.000499625
0.000344356
0.000233435
0.000945973
0.000962687
0.000985977
0.00102481
0.00109604
0.0011862
0.00127786
0.00135464
0.00138572
0.00138572
0.00138051
0.0013075
0.00116383
0.000974268
0.000765986
0.000604554
0.000489843
0.000378015
0.000208371
0.00100325
0.00102129
0.00104612
0.00108922
0.00118059
0.0013036
0.00142188
0.00151186
0.00155678
0.00156097
0.00156097
0.00147129
0.00128921
0.00104702
0.000777479
0.000585099
0.000503988
0.00045135
0.000311025
0.00102802
0.00103884
0.0010565
0.00110668
0.00122185
0.00137472
0.00152118
0.0016355
0.0017081
0.00173455
0.00173455
0.00164632
0.00143821
0.00114566
0.00081512
0.000584433
0.000540539
0.000544985
0.000444688
0.00103166
0.00103166
0.00103983
0.00109917
0.00124007
0.00141986
0.00159367
0.00173789
0.00183955
0.00189448
0.00189448
0.00182878
0.00161471
0.00127655
0.000882923
0.000610387
0.000653841
0.000674381
0.00059426
0.000999887
0.000999887
0.000998557
0.00106825
0.00122326
0.00142283
0.00163058
0.0018108
0.00194307
0.00203567
0.00203567
0.00200609
0.00179742
0.0014271
0.000977302
0.000655348
0.000781222
0.000817037
0.000757693
0.000961739
0.000961739
0.000975345
0.00105748
0.00122212
0.00142567
0.00164896
0.00186381
0.00203029
0.00216499
0.00217498
0.00217498
0.00198004
0.00159113
0.00108597
0.000733342
0.000923389
0.000974846
0.000933836
0.00091625
0.000917822
0.000949273
0.00104237
0.00122031
0.00143095
0.00166003
0.00189891
0.00209983
0.00227781
0.00233168
0.00233168
0.00215993
0.00176342
0.00121593
0.000828488
0.00108159
0.00114978
0.00112876
0.000895082
0.000909706
0.000951484
0.00105044
0.00124025
0.00146362
0.00169434
0.00194443
0.00217299
0.00238887
0.00248334
0.00248334
0.00234005
0.00193774
0.00134178
0.000937103
0.00125846
0.00134261
0.00134261
0.000873378
0.000901431
0.000954214
0.00105168
0.00124522
0.00148611
0.00172488
0.0019823
0.0022336
0.00248613
0.00262386
0.00262386
0.00251688
0.00212313
0.0014915
0.00105699
0.00145016
0.00157644
0.00157644
0.000884212
0.000926941
0.000991598
0.00108935
0.00127785
0.00152741
0.00177538
0.00203895
0.00230555
0.00258562
0.00276381
0.00276381
0.00269238
0.00230605
0.00163222
0.00118569
0.00166272
0.00183519
0.00183519
0.000884251
0.000940251
0.00101613
0.00111577
0.00129857
0.00155393
0.00181343
0.00208464
0.00236432
0.00267209
0.00289227
0.00289227
0.00286033
0.00248961
0.00177912
0.00131222
0.0018798
0.00210426
0.00210426
0.000922319
0.000987246
0.00106979
0.00117286
0.00135042
0.00160359
0.00187006
0.00214917
0.00243643
0.0027619
0.00301418
0.00301777
0.00301777
0.00266432
0.00191967
0.00144392
0.00211843
0.00239704
0.00239704
0.000936587
0.00101134
0.00109975
0.00120739
0.00138293
0.00163337
0.00190612
0.00219578
0.00249459
0.0028388
0.00312172
0.00316254
0.00316254
0.00284059
0.0020641
0.00155196
0.00234703
0.00267894
0.00267894
0.0009907
0.00107106
0.00116165
0.00126994
0.00144441
0.00169169
0.00196371
0.00225745
0.00256142
0.00291629
0.00321914
0.00328866
0.00328866
0.00299315
0.0021637
0.0016562
0.00258986
0.00297343
0.00297343
0.00100805
0.00109516
0.00118977
0.00130037
0.00147537
0.00172137
0.00199505
0.00229583
0.00260774
0.00297473
0.0032989
0.00339974
0.00339974
0.00313797
0.00227286
0.00170407
0.0027581
0.00318515
0.00318515
0.00107289
0.00116258
0.00125855
0.00136893
0.00154179
0.00178573
0.00205697
0.00235711
0.00266953
0.00303838
0.00337098
0.00348642
0.00348642
0.00324435
0.00231678
0.00180615
0.00295588
0.00341803
0.00341803
0.00108412
0.00117743
0.00127633
0.00138827
0.0015614
0.00180615
0.00207731
0.00238065
0.0026972
0.00307008
0.00341347
0.00354348
0.00354348
0.00332744
0.00238508
0.00182233
0.00306341
0.00353938
0.00353938
0.00116241
0.00125754
0.00135738
0.00146999
0.00164106
0.0018836
0.00215152
0.00245144
0.00276491
0.00313102
0.00347243
0.00359733
0.00359733
0.00338718
0.00237559
0.00193902
0.00320975
0.0037077
0.0037077
)
;

boundaryField
{
    leftWall
    {
        type            calculated;
        value           uniform 0;
    }
    rightWall
    {
        type            calculated;
        value           uniform 0;
    }
    lowerWall
    {
        type            calculated;
        value           uniform 0;
    }
    atmosphere
    {
        type            calculated;
        value           uniform 0;
    }
    defaultFaces
    {
        type            empty;
    }
}


// ************************************************************************* //
