/*--------------------------------*- C++ -*----------------------------------*\
| =========                 |                                                 |
| \\      /  F ield         | OpenFOAM: The Open Source CFD Toolbox           |
|  \\    /   O peration     | Version:  2012                                  |
|   \\  /    A nd           | Website:  www.openfoam.com                      |
|    \\/     M anipulation  |                                                 |
\*---------------------------------------------------------------------------*/
FoamFile
{
    version     2.0;
    format      ascii;
    class       volScalarField;
    location    "0.85";
    object      p;
}
// * * * * * * * * * * * * * * * * * * * * * * * * * * * * * * * * * * * * * //

dimensions      [1 -1 -2 0 0 0 0];


internalField   nonuniform List<scalar> 
2268
(
102583
102575
102553
102532
102498
102474
102440
102418
102391
102372
102351
102334
102317
102305
102290
102283
102265
102259
102232
102221
102191
102185
102179
102526
102518
102496
102475
102440
102416
102382
102360
102333
102314
102292
102276
102258
102247
102232
102225
102207
102200
102174
102163
102134
102127
102120
102466
102458
102434
102414
102377
102353
102319
102298
102271
102251
102231
102213
102196
102185
102169
102164
102145
102139
102110
102099
102066
102059
102054
102413
102405
102381
102360
102322
102299
102261
102241
102215
102195
102173
102157
102138
102127
102112
102106
102089
102081
102055
102041
102010
102002
101996
102351
102343
102316
102295
102254
102231
102194
102177
102148
102130
102109
102090
102073
102062
102047
102042
102022
102017
101985
101972
101929
101922
101917
102302
102295
102267
102246
102202
102180
102136
102120
102093
102074
102052
102035
102015
102005
101991
101984
101968
101960
101931
101911
101871
101864
101859
102237
102230
102197
102175
102127
102106
102066
102054
102023
102007
101986
101964
101948
101937
101922
101917
101898
101893
101855
101832
101767
101765
101750
102192
102188
102153
102134
102078
102059
102003
101996
101969
101950
101927
101911
101888
101880
101866
101860
101844
101835
101801
101768
101704
101700
101697
103267
102810
102417
102153
102081
101955
101872
101853
101849
101893
102209
102669
102397
102121
101974
102013
102043
102174
102304
103190
102716
102329
102080
102015
101874
101827
101821
101826
101844
102172
102615
102187
102054
102031
102013
101970
102104
102233
102933
102528
102197
101980
101918
101866
101821
101818
101818
101834
102034
102362
102129
102017
101910
101917
101938
102036
102162
102738
102386
102046
101903
101888
101840
101818
101818
101818
101819
101965
102198
101911
101797
101877
101939
101926
102035
102156
102485
102151
101875
101805
101840
101838
101819
101819
101819
101821
101907
101993
101806
101693
101707
101794
101890
102016
102108
102272
101977
101741
101745
101769
101798
101806
101817
101818
101832
101880
101946
101742
101603
101662
101736
101840
101993
102099
102079
101824
101717
101733
101728
101771
101789
101815
101812
101856
101834
101864
101677
101590
101620
101686
101790
101966
102031
101937
101756
101713
101734
101723
101739
101769
101820
101879
101875
101814
101793
101618
101552
101614
101675
101742
101911
102046
102082
102077
102034
102006
101950
101927
101895
101889
101856
101846
101827
101791
101780
101769
101754
101750
101730
101727
101676
101631
101518
101526
101431
101995
102012
101965
101955
101846
101851
101714
101763
101748
101721
101691
101691
101646
101650
101635
101628
101615
101602
101555
101486
101420
101435
101427
101848
101853
101774
101720
101642
101594
101632
101658
101618
101640
101636
101514
101529
101509
101487
101470
101456
101448
101430
101402
101370
101348
101275
101754
101862
101802
101763
101571
101669
101416
101564
101624
101577
101538
101570
101453
101423
101398
101390
101388
101386
101385
101386
101348
101354
101265
101634
101687
101590
101497
101395
101387
101384
101464
101503
101545
101567
101411
101391
101382
101379
101380
101379
101380
101379
101380
101377
101366
101318
101481
101431
101353
101328
101321
101324
101335
101350
101418
101402
101435
101431
101401
101387
101381
101380
101380
101380
101379
101380
101380
101383
101387
101372
101339
101325
101322
101322
101321
101323
101320
101326
101340
101353
101354
101365
101379
101378
101380
101379
101379
101379
101380
101379
101380
101381
101334
101324
101322
101321
101321
101321
101323
101322
101323
101322
101324
101329
101318
101362
101369
101378
101379
101379
101378
101379
101380
101383
101382
101324
101319
101321
101319
101320
101319
101320
101320
101322
101322
101323
101323
101324
101328
101335
101364
101372
101378
101378
101379
101378
101381
101379
101319
101316
101318
101318
101318
101318
101319
101320
101322
101322
101324
101324
101325
101325
101330
101335
101342
101344
101362
101364
101365
101376
101370
101319
101316
101317
101317
101318
101318
101319
101320
101321
101322
101323
101323
101324
101324
101325
101325
101327
101331
101342
101343
101336
101344
101331
101320
101318
101318
101318
101318
101319
101320
101321
101322
101323
101323
101324
101324
101324
101325
101325
101325
101325
101325
101327
101330
101328
101326
101323
101322
101320
101320
101320
101320
101321
101322
101322
101323
101323
101324
101324
101324
101324
101324
101324
101325
101325
101325
101325
101325
101325
101325
101324
101322
101322
101321
101322
101322
101322
101323
101323
101323
101324
101324
101324
101324
101325
101325
101325
101325
101325
101325
101325
101325
101325
101325
101324
101323
101323
101323
101323
101323
101323
101323
101323
101324
101324
101324
101324
101324
101324
101324
101324
101325
101325
101325
101325
101325
101325
101324
101324
101323
101323
101323
101323
101323
101324
101324
101324
101324
101324
101324
101324
101324
101324
101324
101325
101325
101325
101325
101325
101325
101324
101324
101324
101324
101323
101324
101323
101324
101324
101324
101324
101324
101324
101324
101324
101324
101324
101324
101324
101324
101324
101325
101325
101324
101324
101324
101324
101324
101324
101324
101324
101324
101324
101324
101324
101324
101324
101324
101324
101324
101324
101324
101324
101324
101324
101324
101324
101324
101324
101324
101324
101324
101324
101324
101324
101324
101324
101324
101324
101324
101324
101324
101324
101324
101324
101324
101324
101324
101324
101324
101324
101324
101324
101324
101324
101324
101324
101324
101324
101324
101324
101324
101324
101324
101324
101324
101324
101324
101324
101324
101324
101324
101324
101324
101324
101324
101323
101323
101323
101323
101323
101323
101323
101324
101324
101324
101324
101324
101324
101324
101324
101324
101324
101324
101324
101323
101323
101323
101323
101323
101323
101323
101323
101323
101323
101323
101323
101323
101323
101324
101324
101324
101324
101324
101324
101324
101323
101323
101323
101323
101323
101323
101323
101323
101323
101323
101323
101323
101323
101323
101323
101323
101323
101323
101323
101323
101323
101323
101324
101323
101323
101323
101323
101323
101323
101323
101323
101323
101323
101323
101323
101323
101323
101323
101323
101323
101323
101323
101323
101323
101323
101323
101323
101323
101323
101323
101323
101323
101323
101323
101323
101323
101323
101323
101323
101323
101323
101323
101323
101323
101323
101323
101323
101323
101323
101323
101323
101323
101323
101323
101323
101323
101323
101323
101323
101323
101323
101323
101323
101323
101323
101323
101323
101323
101323
101323
101323
101323
101322
101322
101322
101322
101322
101322
101322
101322
101322
101322
101322
101322
101322
101322
101322
101322
101322
101322
101322
101322
101322
101322
101323
101322
101322
101322
101322
101322
101322
101322
101322
101322
101322
101322
101322
101322
101322
101322
101322
101322
101322
101322
101322
101322
101322
101322
101322
101322
101322
101322
101322
101322
101322
101322
101322
101322
101322
101322
101322
101322
101322
101322
101322
101322
101322
101322
101322
101322
101322
101322
101322
101322
101322
101322
101322
101322
101322
101322
101322
101322
101322
101322
101322
101322
101322
101322
101322
101321
101321
101321
101322
101322
101321
101321
101321
101321
101321
101321
101321
101321
101321
101321
101321
101321
101321
101321
101321
101321
101321
101321
101321
101321
101321
101321
101321
101321
101321
101321
101321
101321
101321
101321
101321
101321
101321
101321
101321
101321
101321
101321
101321
101321
101321
101321
101321
101321
101321
101321
101321
101321
101321
101321
101321
101321
101321
101321
101321
101321
101321
101321
101321
101321
101321
101321
101321
101321
101321
101321
101321
101321
101321
101321
101321
101321
101321
101321
101321
101321
101321
101321
101320
101320
101320
101320
101320
101320
101320
101320
101320
101320
101320
101320
101320
101320
101320
101320
101320
101320
101320
101320
101320
101320
101320
101320
101320
101320
101320
101320
101320
101320
101320
101320
101320
101320
101320
101320
101320
101320
101320
101320
101320
101320
101320
101320
101320
101320
101320
101320
101320
101320
101320
101320
101320
101320
101319
101319
101319
101319
101320
101320
101320
101320
101320
101320
101320
101320
101320
101320
101319
101319
101319
101319
101319
101319
101319
101319
101319
101319
101319
101319
101319
101319
101319
101319
101319
101319
101319
101319
101319
101319
101319
101319
101319
101319
101319
101319
101319
101319
101319
101319
101319
101319
101319
101319
101319
101319
101319
101319
101319
101319
101319
101319
101319
101319
101319
101319
101319
101319
101319
101319
101319
101319
101319
101319
101319
101319
101319
101319
101319
101319
101319
101319
101319
101319
101319
101319
101319
101319
101319
101318
101318
101318
101318
101318
101318
101318
101318
101318
101318
101318
101318
101318
101318
101318
101318
101318
101318
101318
101318
101318
101318
101318
101318
101318
101318
101318
101318
101318
101318
101318
101318
101318
101318
101318
101318
101318
101318
101318
101318
101318
101318
101318
101318
101318
101318
101318
101318
101318
101318
101318
101318
101318
101318
101318
101318
101318
101318
101318
101469
101399
101557
101347
101522
101464
101533
101491
101291
101289
101309
101342
101314
101337
101370
101433
101326
101367
101396
101449
101426
101444
101442
101450
101391
101389
101374
101362
101390
101403
101389
101376
101393
101365
101353
101350
101374
101369
101366
101365
101339
101323
101327
101325
101331
101340
101343
101336
101325
101325
101325
101325
101325
101325
101325
101325
101325
101325
101325
101325
101325
101325
101325
101325
101325
101325
101325
101325
101325
101325
101325
101325
101324
101324
101324
101324
101324
101324
101324
101324
101324
101324
101324
101324
101324
101324
101324
101324
101324
101324
101324
101324
101323
101323
101323
101323
101323
101323
101323
101323
101323
101323
101323
101323
101323
101323
101323
101323
101322
101322
101322
101322
101322
101322
101322
101322
101322
101322
101322
101322
101321
101321
101321
101321
101321
101321
101321
101321
101321
101321
101321
101321
101320
101320
101320
101320
101320
101320
101320
101320
101320
101320
101320
101320
101319
101319
101319
101319
101319
101319
101319
101319
101319
101319
101319
101319
101318
101318
101318
101318
101318
101318
101318
101318
101318
101318
101318
101318
101786
101726
101718
101726
101706
101726
101732
101836
101875
101882
101744
101712
101523
101565
101561
101649
101726
101904
101950
101684
101680
101712
101691
101719
101681
101707
101788
101828
101773
101638
101589
101482
101506
101526
101564
101612
101748
101865
101610
101625
101711
101682
101695
101701
101639
101679
101614
101574
101506
101493
101447
101518
101504
101515
101511
101622
101652
101607
101596
101644
101637
101677
101658
101800
101562
101478
101338
101342
101367
101379
101432
101458
101471
101498
101443
101682
101457
101526
101492
101459
101522
101587
101581
101520
101419
101332
101349
101338
101339
101354
101368
101361
101379
101584
101505
101385
101451
101337
101341
101365
101414
101445
101409
101372
101338
101334
101333
101335
101334
101336
101333
101340
101358
101505
101365
101367
101335
101326
101331
101349
101349
101335
101330
101331
101318
101335
101327
101332
101330
101327
101331
101346
101367
101341
101342
101328
101323
101329
101325
101329
101328
101329
101329
101329
101330
101330
101330
101331
101328
101323
101327
101334
101346
101340
101334
101327
101331
101326
101328
101327
101327
101326
101326
101326
101327
101327
101329
101327
101328
101326
101327
101335
101333
101334
101327
101333
101323
101328
101326
101328
101326
101325
101325
101327
101328
101328
101328
101326
101327
101327
101333
101336
101335
101333
101335
101326
101327
101327
101327
101326
101326
101326
101326
101327
101328
101327
101327
101327
101327
101334
101328
101332
101326
101328
101326
101327
101326
101326
101326
101326
101326
101327
101328
101327
101328
101327
101327
101327
101324
101324
101324
101326
101327
101325
101326
101325
101326
101325
101326
101326
101326
101327
101327
101327
101327
101327
101327
101325
101325
101324
101327
101326
101326
101326
101325
101325
101325
101325
101326
101326
101327
101327
101327
101327
101327
101327
101325
101325
101325
101325
101326
101325
101326
101325
101325
101325
101325
101325
101326
101326
101326
101327
101327
101327
101327
101325
101325
101325
101326
101326
101326
101325
101325
101325
101325
101325
101325
101326
101326
101326
101326
101327
101327
101327
101325
101325
101325
101325
101326
101325
101325
101325
101325
101325
101325
101325
101326
101326
101326
101326
101326
101327
101327
101325
101325
101325
101325
101325
101325
101325
101325
101325
101325
101325
101325
101326
101326
101326
101326
101326
101326
101327
101325
101325
101325
101325
101325
101325
101325
101325
101325
101325
101325
101325
101326
101326
101326
101326
101326
101326
101326
101324
101325
101325
101325
101325
101325
101325
101325
101325
101325
101325
101325
101325
101326
101326
101326
101326
101326
101326
101324
101324
101325
101325
101325
101325
101325
101325
101325
101325
101325
101325
101325
101325
101326
101326
101326
101326
101326
101324
101324
101324
101325
101325
101325
101325
101325
101325
101325
101325
101325
101325
101325
101325
101326
101326
101326
101326
101324
101324
101324
101324
101324
101325
101325
101325
101325
101325
101325
101325
101325
101325
101325
101325
101325
101326
101326
101324
101324
101324
101324
101324
101324
101324
101325
101325
101325
101325
101325
101325
101325
101325
101325
101325
101325
101325
101323
101323
101324
101324
101324
101324
101324
101324
101324
101324
101324
101324
101325
101325
101325
101325
101325
101325
101325
101323
101323
101323
101323
101323
101324
101324
101324
101324
101324
101324
101324
101324
101324
101325
101325
101325
101325
101325
101323
101323
101323
101323
101323
101323
101323
101324
101324
101324
101324
101324
101324
101324
101324
101325
101325
101325
101325
101322
101322
101322
101323
101323
101323
101323
101323
101323
101324
101324
101324
101324
101324
101324
101324
101324
101325
101325
101322
101322
101322
101322
101322
101322
101323
101323
101323
101323
101323
101324
101324
101324
101324
101324
101324
101324
101324
101322
101322
101322
101322
101322
101322
101322
101322
101323
101323
101323
101323
101324
101324
101324
101324
101324
101324
101324
101321
101321
101321
101322
101322
101322
101322
101322
101322
101322
101323
101323
101323
101323
101324
101324
101324
101324
101324
101321
101321
101321
101321
101321
101321
101321
101322
101322
101322
101322
101323
101323
101323
101323
101323
101323
101324
101324
101321
101321
101321
101321
101321
101321
101321
101321
101321
101322
101322
101322
101322
101323
101323
101323
101323
101323
101323
101320
101320
101320
101320
101320
101321
101321
101321
101321
101321
101321
101322
101322
101322
101322
101323
101323
101323
101323
101320
101320
101320
101320
101320
101320
101320
101320
101321
101321
101321
101321
101321
101322
101322
101322
101322
101322
101322
101320
101320
101320
101320
101320
101320
101320
101320
101320
101320
101320
101321
101321
101321
101321
101321
101321
101322
101322
101319
101319
101319
101319
101320
101320
101320
101320
101320
101320
101320
101320
101320
101320
101320
101320
101321
101321
101321
101319
101319
101319
101319
101319
101319
101319
101319
101319
101319
101320
101320
101320
101320
101320
101320
101320
101320
101320
101319
101319
101319
101319
101319
101319
101319
101319
101319
101319
101319
101319
101319
101319
101319
101319
101319
101319
101319
101318
101318
101318
101318
101318
101318
101318
101318
101318
101319
101319
101319
101319
101318
101318
101318
101319
101319
101319
101318
101318
101318
101318
101318
101318
101318
101318
101318
101318
101318
101318
101318
101318
101318
101317
101318
101318
101318
101318
101318
101318
101318
101318
101318
101318
101318
101318
101318
101318
101317
101318
101317
101318
101317
101318
101318
101318
)
;

boundaryField
{
    leftWall
    {
        type            zeroGradient;
    }
    rightWall
    {
        type            zeroGradient;
    }
    lowerWall
    {
        type            zeroGradient;
    }
    atmosphere
    {
        type            fixedValue;
        value           uniform 101325;
    }
    defaultFaces
    {
        type            empty;
    }
}


// ************************************************************************* //
