/*--------------------------------*- C++ -*----------------------------------*\
| =========                 |                                                 |
| \\      /  F ield         | OpenFOAM: The Open Source CFD Toolbox           |
|  \\    /   O peration     | Version:  2012                                  |
|   \\  /    A nd           | Website:  www.openfoam.com                      |
|    \\/     M anipulation  |                                                 |
\*---------------------------------------------------------------------------*/
FoamFile
{
    version     2.0;
    format      ascii;
    class       volScalarField;
    location    "0.85";
    object      p_rgh;
}
// * * * * * * * * * * * * * * * * * * * * * * * * * * * * * * * * * * * * * //

dimensions      [1 -1 -2 0 0 0 0];


internalField   nonuniform List<scalar> 
2268
(
102613
102605
102582
102562
102527
102503
102469
102447
102421
102401
102380
102363
102346
102335
102319
102313
102294
102288
102261
102251
102221
102214
102209
102615
102607
102584
102563
102528
102504
102470
102448
102422
102402
102381
102364
102346
102335
102320
102313
102295
102288
102263
102251
102222
102215
102209
102613
102605
102581
102561
102524
102501
102466
102445
102418
102399
102378
102360
102343
102332
102317
102311
102292
102286
102258
102247
102213
102206
102201
102619
102611
102587
102566
102528
102505
102467
102447
102421
102401
102379
102363
102344
102333
102318
102312
102295
102287
102261
102247
102216
102208
102202
102616
102608
102581
102560
102519
102496
102459
102442
102413
102395
102374
102355
102338
102327
102312
102306
102287
102282
102250
102237
102194
102187
102182
102626
102619
102590
102570
102526
102504
102460
102444
102417
102397
102375
102359
102339
102329
102314
102308
102291
102283
102254
102235
102195
102188
102182
102620
102612
102580
102558
102510
102489
102449
102436
102406
102390
102369
102347
102331
102320
102305
102300
102280
102275
102238
102215
102150
102148
102133
102634
102629
102595
102576
102519
102500
102444
102437
102411
102392
102369
102352
102330
102322
102307
102301
102286
102277
102242
102209
102142
102141
102138
103295
102836
102439
102175
102106
101980
101897
101875
101867
101909
102223
102684
102420
102145
102000
102040
102071
102202
102332
103273
102784
102394
102149
102090
101930
101849
101831
101833
101850
102188
102669
102228
102069
102046
102051
102034
102186
102320
103072
102649
102305
102084
102010
101909
101823
101819
101819
101839
102142
102502
102268
102142
101966
101946
101967
102142
102306
102932
102580
102240
102050
101935
101841
101819
101818
101819
101827
102160
102392
102090
101982
102061
102067
102067
102221
102356
102734
102400
102110
101984
102018
102012
101823
101819
101819
101939
102157
102179
101899
101808
101914
102056
102153
102278
102371
102576
102273
101899
101814
101946
102048
101928
101825
101820
102124
102173
102112
101817
101676
101763
101960
102154
102313
102420
102439
102115
101726
101739
101781
101983
102132
101902
101881
102204
102174
102224
101963
101676
101706
101775
102051
102312
102411
102352
102073
101721
101741
101747
101879
102165
102117
102207
102276
102206
102225
102007
101652
101714
101774
101880
102311
102428
102615
102611
102567
102540
102484
102460
102428
102423
102389
102379
102361
102324
102313
102303
102288
102284
102263
102260
102209
102155
101950
101928
101964
102653
102670
102623
102613
102504
102510
102373
102408
102372
102333
102307
102322
102283
102285
102269
102269
102267
102258
102204
101998
101682
101707
101787
102398
102400
102331
102329
102270
102147
102070
102020
101973
101993
101993
101911
101960
102030
102112
102121
102098
102058
101972
101719
101544
101676
101886
101867
102028
102071
102084
101807
101888
101670
101971
101894
101674
101635
101672
101710
101774
101635
101539
101506
101484
101477
101492
101464
101623
101950
101639
101774
101990
101946
101843
101571
101387
101490
101620
101831
101795
101476
101398
101388
101381
101382
101381
101381
101380
101381
101399
101797
102237
101486
101510
101571
101512
101386
101347
101338
101389
101781
101898
101931
101861
101472
101389
101383
101381
101381
101381
101381
101381
101384
101563
102200
101377
101363
101333
101324
101324
101323
101325
101326
101387
101670
101848
101849
101772
101420
101394
101381
101381
101381
101381
101382
101381
101384
101511
101340
101330
101325
101323
101322
101322
101325
101324
101325
101324
101325
101439
101490
101611
101591
101399
101386
101381
101380
101381
101382
101385
101388
101327
101324
101323
101321
101322
101321
101322
101322
101324
101324
101325
101325
101327
101532
101668
101696
101501
101386
101382
101398
101407
101387
101392
101321
101320
101321
101320
101320
101320
101321
101322
101324
101324
101326
101326
101327
101327
101485
101674
101681
101624
101497
101689
101713
101495
101462
101322
101319
101320
101319
101320
101320
101322
101322
101324
101324
101325
101326
101326
101327
101327
101327
101404
101498
101822
101841
101835
101675
101514
101322
101321
101321
101320
101321
101321
101323
101323
101324
101325
101326
101326
101327
101327
101327
101327
101328
101328
101328
101403
101501
101414
101361
101326
101324
101323
101323
101323
101323
101324
101324
101325
101325
101326
101326
101326
101327
101327
101327
101327
101327
101327
101327
101328
101327
101327
101327
101327
101325
101325
101324
101324
101325
101325
101326
101326
101326
101327
101327
101327
101327
101327
101327
101327
101327
101328
101327
101328
101328
101328
101328
101326
101326
101326
101326
101326
101326
101326
101326
101326
101327
101327
101327
101327
101327
101327
101327
101327
101327
101328
101328
101328
101328
101328
101327
101327
101327
101326
101326
101326
101327
101327
101327
101327
101327
101327
101327
101327
101327
101328
101328
101328
101328
101328
101328
101328
101328
101328
101327
101327
101327
101327
101327
101327
101327
101327
101327
101327
101327
101327
101327
101327
101327
101328
101328
101328
101328
101328
101328
101328
101328
101328
101327
101327
101327
101327
101327
101327
101327
101327
101327
101327
101327
101327
101328
101328
101328
101328
101328
101328
101328
101328
101328
101328
101328
101327
101327
101327
101327
101327
101327
101327
101327
101327
101327
101327
101327
101327
101328
101328
101328
101328
101328
101328
101328
101328
101328
101328
101327
101327
101327
101327
101327
101327
101327
101327
101327
101327
101328
101328
101328
101328
101328
101328
101328
101328
101328
101328
101328
101328
101328
101328
101327
101327
101327
101327
101327
101327
101327
101327
101327
101327
101328
101328
101328
101328
101328
101328
101328
101328
101328
101328
101328
101328
101327
101327
101327
101327
101327
101327
101327
101327
101327
101328
101328
101328
101328
101328
101328
101328
101328
101328
101328
101328
101328
101328
101328
101327
101327
101327
101327
101327
101327
101327
101327
101327
101327
101327
101328
101328
101328
101328
101328
101328
101328
101328
101327
101327
101327
101327
101327
101327
101327
101327
101327
101327
101327
101327
101327
101327
101327
101328
101328
101328
101328
101328
101328
101328
101328
101327
101327
101327
101327
101327
101327
101327
101327
101327
101327
101327
101327
101327
101327
101327
101327
101327
101327
101328
101328
101328
101328
101328
101327
101327
101327
101327
101327
101327
101327
101327
101327
101327
101327
101327
101327
101327
101327
101327
101327
101327
101327
101327
101327
101328
101328
101327
101327
101327
101327
101327
101327
101327
101327
101327
101327
101327
101327
101327
101327
101327
101327
101327
101327
101327
101327
101327
101327
101327
101327
101327
101327
101327
101327
101327
101327
101327
101327
101327
101327
101327
101327
101327
101327
101327
101327
101327
101327
101327
101327
101327
101327
101327
101327
101327
101327
101327
101327
101327
101327
101327
101327
101327
101327
101327
101327
101327
101327
101327
101327
101327
101327
101327
101327
101327
101327
101327
101327
101327
101327
101327
101327
101327
101327
101327
101327
101327
101327
101327
101327
101327
101327
101327
101327
101327
101327
101327
101327
101327
101327
101327
101327
101327
101327
101327
101327
101327
101327
101327
101327
101327
101327
101327
101327
101327
101327
101327
101327
101327
101327
101327
101327
101327
101327
101327
101327
101327
101327
101327
101327
101327
101327
101327
101327
101327
101327
101327
101327
101327
101327
101327
101327
101327
101327
101327
101327
101327
101327
101327
101327
101327
101327
101327
101327
101327
101327
101327
101327
101326
101326
101326
101326
101326
101326
101326
101326
101326
101327
101327
101327
101327
101327
101327
101327
101327
101327
101327
101326
101326
101326
101326
101326
101326
101326
101326
101326
101326
101326
101326
101326
101326
101326
101326
101326
101326
101326
101326
101326
101326
101326
101326
101326
101326
101326
101326
101326
101326
101326
101326
101326
101326
101326
101326
101326
101326
101326
101326
101326
101326
101326
101326
101326
101326
101326
101326
101326
101326
101326
101326
101326
101326
101326
101326
101326
101326
101326
101326
101326
101326
101326
101326
101326
101326
101326
101326
101326
101326
101326
101326
101326
101326
101326
101326
101326
101326
101326
101326
101326
101326
101326
101326
101326
101326
101326
101326
101326
101326
101326
101326
101326
101326
101326
101326
101326
101326
101326
101326
101326
101326
101326
101326
101326
101326
101326
101326
101326
101326
101326
101326
101326
101326
101326
101326
101326
101326
101326
101326
101326
101325
101325
101325
101326
101326
101326
101326
101326
101326
101326
101326
101326
101326
101326
101326
101326
101326
101325
101325
101325
101325
101325
101325
101325
101325
101325
101325
101325
101325
101325
101325
101325
101325
101325
101325
101325
101325
101325
101325
101325
101325
101325
101325
101325
101325
101325
101325
101325
101325
101325
101325
101325
101325
101326
101326
101326
101326
101326
101326
101325
101325
101325
101325
101325
101325
101325
101325
101325
101325
101325
101325
101325
101325
101325
101325
101325
101824
101733
101982
101841
101881
101885
102130
102102
101929
101998
102037
102070
102158
102180
102214
102277
102286
102327
102356
102295
102503
102521
102500
102198
102012
102178
102102
101872
101415
101449
101438
101421
101459
101441
101368
101354
101963
101983
101579
101469
102002
101986
101989
101988
101505
101812
101921
101677
101327
101328
101327
101327
101328
101328
101328
101328
101328
101328
101328
101328
101328
101328
101328
101328
101328
101328
101328
101328
101328
101328
101328
101328
101328
101328
101328
101328
101328
101328
101328
101328
101328
101328
101328
101328
101328
101328
101328
101328
101328
101328
101328
101328
101328
101328
101328
101328
101328
101328
101328
101328
101328
101328
101328
101328
101327
101327
101327
101328
101327
101327
101327
101327
101327
101327
101327
101327
101327
101327
101327
101327
101327
101327
101327
101327
101327
101327
101327
101327
101326
101326
101327
101327
101326
101326
101326
101326
101326
101326
101326
101326
101326
101326
101326
101326
101326
101326
101326
101326
101326
101326
101326
101326
101326
101326
101326
101326
101325
101325
101325
101325
101325
101325
101325
101325
101325
101325
101325
101325
102287
102047
101728
101762
101727
101812
102048
102310
102363
102370
102251
102234
101941
101736
101708
101970
102047
102219
102248
102290
101871
101794
101825
101730
101706
102026
102338
102401
102408
102273
102200
101793
101706
101799
101932
101921
102230
102410
102249
101763
101820
101714
101773
102161
102346
102429
102365
102284
102205
102119
101699
101655
101641
101652
101817
102272
102302
102180
101705
101752
101910
102206
102206
102470
102357
102151
101612
101560
101709
101826
101878
101671
101718
101880
101919
102148
101911
101673
101616
102059
102249
102314
102309
101978
101800
101428
101351
101362
101554
101727
101997
101989
101733
101615
101551
101852
101757
101419
101552
101808
102183
102243
102137
101870
101424
101336
101334
101336
101336
101338
101334
101342
101384
101589
101747
101626
101420
101328
101332
101623
101687
101482
101375
101377
101332
101355
101344
101335
101332
101329
101333
101386
101500
101408
101389
101396
101325
101330
101470
101331
101330
101331
101403
101421
101422
101375
101332
101333
101330
101326
101335
101457
101348
101342
101341
101330
101333
101482
101356
101329
101329
101328
101335
101357
101339
101329
101331
101329
101330
101329
101329
101383
101335
101336
101329
101396
101490
101372
101328
101330
101328
101327
101328
101330
101331
101330
101330
101328
101329
101329
101542
101339
101337
101341
101639
101426
101335
101329
101329
101328
101328
101328
101329
101330
101330
101330
101330
101330
101330
101620
101523
101383
101389
101389
101329
101330
101328
101329
101328
101328
101329
101329
101330
101330
101330
101329
101330
101330
101327
101327
101357
101361
101330
101328
101329
101328
101328
101328
101328
101329
101329
101329
101330
101330
101330
101330
101330
101327
101328
101328
101331
101330
101329
101329
101328
101328
101328
101328
101329
101329
101329
101329
101330
101330
101330
101330
101328
101328
101328
101329
101330
101329
101329
101328
101328
101328
101328
101328
101329
101329
101329
101330
101330
101330
101330
101328
101328
101328
101329
101330
101330
101329
101328
101328
101328
101328
101329
101329
101329
101329
101330
101330
101330
101330
101328
101328
101329
101329
101329
101329
101329
101328
101328
101328
101329
101329
101329
101329
101329
101330
101330
101330
101330
101328
101328
101329
101329
101329
101329
101329
101329
101329
101329
101329
101329
101329
101329
101329
101330
101330
101330
101330
101328
101328
101329
101329
101329
101329
101329
101329
101329
101329
101329
101329
101329
101329
101329
101330
101330
101330
101330
101328
101328
101329
101329
101329
101329
101329
101329
101329
101329
101329
101329
101329
101329
101330
101330
101330
101330
101330
101328
101328
101328
101329
101329
101329
101329
101329
101329
101329
101329
101329
101329
101329
101329
101330
101330
101330
101330
101328
101328
101328
101329
101329
101329
101329
101329
101329
101329
101329
101329
101329
101329
101329
101330
101330
101330
101330
101328
101328
101328
101328
101329
101329
101329
101329
101329
101329
101329
101329
101329
101329
101329
101330
101330
101330
101330
101328
101328
101328
101328
101329
101329
101329
101329
101329
101329
101329
101329
101329
101329
101329
101330
101330
101330
101330
101328
101328
101328
101328
101328
101328
101329
101329
101329
101329
101329
101329
101329
101329
101329
101329
101330
101330
101330
101328
101328
101328
101328
101328
101328
101329
101329
101329
101329
101329
101329
101329
101329
101329
101329
101330
101330
101330
101328
101328
101328
101328
101328
101328
101328
101328
101329
101329
101329
101329
101329
101329
101329
101329
101330
101330
101330
101327
101327
101328
101328
101328
101328
101328
101328
101328
101329
101329
101329
101329
101329
101329
101329
101330
101330
101330
101327
101327
101327
101327
101328
101328
101328
101328
101328
101328
101329
101329
101329
101329
101329
101329
101329
101330
101330
101327
101327
101327
101327
101327
101327
101328
101328
101328
101328
101328
101329
101329
101329
101329
101329
101329
101329
101330
101327
101327
101327
101327
101327
101327
101327
101328
101328
101328
101328
101329
101329
101329
101329
101329
101329
101329
101329
101327
101327
101327
101327
101327
101327
101327
101327
101328
101328
101328
101328
101329
101329
101329
101329
101329
101329
101329
101327
101327
101327
101327
101327
101327
101327
101327
101327
101328
101328
101328
101328
101329
101329
101329
101329
101329
101329
101326
101326
101326
101326
101327
101327
101327
101327
101327
101327
101327
101328
101328
101328
101328
101329
101329
101329
101329
101326
101326
101326
101326
101326
101326
101327
101327
101327
101327
101327
101327
101328
101328
101328
101328
101328
101328
101329
101326
101326
101326
101326
101326
101326
101326
101326
101327
101327
101327
101327
101327
101327
101328
101328
101328
101328
101328
101326
101326
101326
101326
101326
101326
101326
101326
101326
101326
101327
101327
101327
101327
101327
101327
101327
101327
101328
101326
101326
101326
101326
101326
101326
101326
101326
101326
101326
101326
101326
101326
101326
101327
101327
101327
101327
101327
101326
101326
101326
101326
101326
101326
101326
101326
101326
101326
101326
101326
101326
101326
101326
101326
101326
101326
101326
101325
101325
101325
101325
101325
101325
101325
101325
101325
101326
101326
101326
101326
101325
101325
101326
101326
101326
101326
101325
101325
101325
101325
101325
101325
101325
101325
101325
101325
101325
101325
101325
101325
101325
101325
101325
101325
101325
101325
101325
101325
101325
101325
101325
101325
101325
101325
101325
101325
101325
101325
101325
101325
101325
101325
101325
101325
)
;

boundaryField
{
    leftWall
    {
        type            zeroGradient;
    }
    rightWall
    {
        type            zeroGradient;
    }
    lowerWall
    {
        type            zeroGradient;
    }
    atmosphere
    {
        type            fixedValue;
        value           uniform 101325;
    }
    defaultFaces
    {
        type            empty;
    }
}


// ************************************************************************* //
