/*--------------------------------*- C++ -*----------------------------------*\
| =========                 |                                                 |
| \\      /  F ield         | OpenFOAM: The Open Source CFD Toolbox           |
|  \\    /   O peration     | Version:  2012                                  |
|   \\  /    A nd           | Website:  www.openfoam.com                      |
|    \\/     M anipulation  |                                                 |
\*---------------------------------------------------------------------------*/
FoamFile
{
    version     2.0;
    format      ascii;
    class       surfaceScalarField;
    location    "0.85";
    object      phi;
}
// * * * * * * * * * * * * * * * * * * * * * * * * * * * * * * * * * * * * * //

dimensions      [0 3 -1 0 0 0 0];
oriented        oriented;


internalField   nonuniform List<scalar> 
4432
(
-5.11999e-06
5.11998e-06
-9.91956e-06
4.79956e-06
-1.42884e-05
4.36885e-06
-1.7927e-05
3.63859e-06
-2.07558e-05
2.82876e-06
-2.28194e-05
2.06363e-06
-2.41934e-05
1.37393e-06
-2.48856e-05
6.9224e-07
-2.50443e-05
1.58723e-07
-2.47061e-05
-3.38237e-07
-2.38626e-05
-8.43467e-07
-2.26264e-05
-1.23619e-06
-2.10579e-05
-1.5685e-06
-1.90472e-05
-2.01074e-06
-1.65144e-05
-2.53275e-06
-1.32658e-05
-3.24866e-06
-9.32553e-06
-3.94026e-06
-4.92097e-06
-4.40455e-06
-4.37255e-07
-4.48372e-06
3.33363e-06
-3.77088e-06
4.39718e-06
-1.06355e-06
3.97785e-06
4.19334e-07
3.97785e-06
-5.19797e-06
1.03179e-05
-1.00626e-05
9.66417e-06
-1.44635e-05
8.76973e-06
-1.81023e-05
7.2774e-06
-2.09016e-05
5.62805e-06
-2.29136e-05
4.07567e-06
-2.42674e-05
2.72771e-06
-2.49951e-05
1.4199e-06
-2.51514e-05
3.1506e-07
-2.47694e-05
-7.20268e-07
-2.39086e-05
-1.70427e-06
-2.26792e-05
-2.46559e-06
-2.11445e-05
-3.10319e-06
-1.91721e-05
-3.98316e-06
-1.66347e-05
-5.07015e-06
-1.33719e-05
-6.5114e-06
-9.38954e-06
-7.92265e-06
-4.91172e-06
-8.88237e-06
-3.36159e-07
-9.05928e-06
3.52559e-06
-7.63263e-06
4.66884e-06
-2.20681e-06
3.76642e-06
1.32176e-06
7.74428e-06
-5.32763e-06
1.56456e-05
-1.02451e-05
1.45816e-05
-1.46915e-05
1.32162e-05
-1.83937e-05
1.09796e-05
-2.12781e-05
8.51245e-06
-2.3356e-05
6.15351e-06
-2.47187e-05
4.09048e-06
-2.5389e-05
2.09016e-06
-2.54587e-05
3.84803e-07
-2.50064e-05
-1.17262e-06
-2.41153e-05
-2.59536e-06
-2.29274e-05
-3.65354e-06
-2.14084e-05
-4.62218e-06
-1.94207e-05
-5.9708e-06
-1.68382e-05
-7.65272e-06
-1.35189e-05
-9.83064e-06
-9.42463e-06
-1.2017e-05
-4.70607e-06
-1.36009e-05
2.33645e-07
-1.3999e-05
4.88805e-06
-1.2287e-05
6.4257e-06
-3.74446e-06
4.80013e-06
2.94733e-06
1.25444e-05
-5.54735e-06
2.11929e-05
-1.06279e-05
1.96622e-05
-1.51696e-05
1.77579e-05
-1.88772e-05
1.46872e-05
-2.16872e-05
1.13224e-05
-2.36616e-05
8.1279e-06
-2.4991e-05
5.41988e-06
-2.56867e-05
2.78588e-06
-2.57293e-05
4.27452e-07
-2.52159e-05
-1.68602e-06
-2.43098e-05
-3.50148e-06
-2.31134e-05
-4.85e-06
-2.16435e-05
-6.09206e-06
-1.98021e-05
-7.81216e-06
-1.73178e-05
-1.0137e-05
-1.40529e-05
-1.30956e-05
-9.87485e-06
-1.6195e-05
-4.89369e-06
-1.85821e-05
6.00881e-07
-1.94936e-05
6.01874e-06
-1.77049e-05
8.27939e-06
-6.0051e-06
6.19774e-06
5.02898e-06
1.87422e-05
-5.80378e-06
2.69967e-05
-1.1063e-05
2.49214e-05
-1.57528e-05
2.24476e-05
-1.95811e-05
1.85155e-05
-2.25338e-05
1.42751e-05
-2.45891e-05
1.01832e-05
-2.58685e-05
6.69929e-06
-2.63878e-05
3.3052e-06
-2.62776e-05
3.17186e-07
-2.56819e-05
-2.2817e-06
-2.47276e-05
-4.45576e-06
-2.36156e-05
-5.96202e-06
-2.221e-05
-7.49767e-06
-2.03657e-05
-9.65646e-06
-1.78321e-05
-1.26705e-05
-1.4479e-05
-1.64488e-05
-1.00906e-05
-2.05833e-05
-4.66927e-06
-2.40034e-05
1.70921e-06
-2.5872e-05
8.59767e-06
-2.45933e-05
1.15606e-05
-8.968e-06
8.74532e-06
7.84423e-06
2.74875e-05
-6.16853e-06
3.31652e-05
-1.17239e-05
3.04768e-05
-1.65795e-05
2.73031e-05
-2.04173e-05
2.23533e-05
-2.32395e-05
1.70972e-05
-2.51215e-05
1.20652e-05
-2.63541e-05
7.93188e-06
-2.69327e-05
3.88379e-06
-2.67672e-05
1.51714e-07
-2.60339e-05
-3.01503e-06
-2.50227e-05
-5.46696e-06
-2.38242e-05
-7.16055e-06
-2.25311e-05
-8.79071e-06
-2.10004e-05
-1.11872e-05
-1.86621e-05
-1.50089e-05
-1.53944e-05
-1.97164e-05
-1.09386e-05
-2.50392e-05
-5.24141e-06
-2.97006e-05
2.15756e-06
-3.3271e-05
1.02252e-05
-3.2661e-05
1.40422e-05
-1.2785e-05
1.0509e-05
1.13774e-05
3.79965e-05
-6.60485e-06
3.977e-05
-1.24516e-05
3.63235e-05
-1.74647e-05
3.23163e-05
-2.14444e-05
2.63329e-05
-2.44548e-05
2.01076e-05
-2.64455e-05
1.40559e-05
-2.75907e-05
9.07709e-06
-2.78721e-05
4.16517e-06
-2.74974e-05
-2.22991e-07
-2.66654e-05
-3.84701e-06
-2.55624e-05
-6.57001e-06
-2.4573e-05
-8.14997e-06
-2.35395e-05
-9.82415e-06
-2.20618e-05
-1.26649e-05
-1.96456e-05
-1.74251e-05
-1.61823e-05
-2.31798e-05
-1.14677e-05
-2.97537e-05
-5.33221e-06
-3.58361e-05
3.108e-06
-4.17112e-05
1.22319e-05
-4.17848e-05
1.68856e-05
-1.74387e-05
1.42634e-05
1.39995e-05
5.22599e-05
-7.35827e-06
4.71283e-05
-1.39139e-05
4.28792e-05
-1.92721e-05
3.76745e-05
-2.32075e-05
3.02684e-05
-2.58994e-05
2.27995e-05
-2.74579e-05
1.56143e-05
-2.84274e-05
1.00466e-05
-2.88027e-05
4.54052e-06
-2.82828e-05
-7.42959e-07
-2.71494e-05
-4.98036e-06
-2.58979e-05
-7.82149e-06
-2.4735e-05
-9.31296e-06
-2.39087e-05
-1.06504e-05
-2.28161e-05
-1.37576e-05
-2.06267e-05
-1.96145e-05
-1.74111e-05
-2.63953e-05
-1.29959e-05
-3.4169e-05
-6.74647e-06
-4.20856e-05
2.23127e-06
-5.06889e-05
1.15814e-05
-5.1135e-05
1.67249e-05
-2.2582e-05
1.40369e-05
1.66876e-05
6.62968e-05
-6.02469e-05
6.0243e-05
-0.000102398
4.21201e-05
-0.000132332
2.9837e-05
-0.00014972
1.73801e-05
-0.000161329
1.15999e-05
-0.000173049
1.17272e-05
-0.000183054
1.00157e-05
-0.000189933
6.90355e-06
-0.00019398
4.09195e-06
-0.000181279
-1.25709e-05
-0.000130166
-5.09241e-05
-8.07084e-05
-4.94439e-05
-6.96969e-05
-1.10257e-05
-7.07841e-05
1.09825e-06
-6.9137e-05
-1.61956e-06
-5.93599e-05
-9.76468e-06
-4.6177e-05
-1.31722e-05
-2.77619e-05
-1.8405e-05
-2.77552e-05
-5.07893e-05
0.000111031
-9.1188e-05
8.2458e-05
-0.000118511
5.70754e-05
-0.000132936
3.18079e-05
-0.000145485
2.41383e-05
-0.000167143
3.34085e-05
-0.000187978
3.09056e-05
-0.000196139
1.51552e-05
-0.000186574
-5.36877e-06
-0.000115991
-8.29028e-05
-2.95139e-05
-0.000137704
1.91772e-05
-9.80566e-05
5.48557e-05
-4.65545e-05
4.62255e-05
1.00199e-05
1.94433e-06
4.29069e-05
-2.64641e-05
1.87315e-05
-2.95456e-05
-1.0034e-05
-1.92451e-05
-2.8693e-05
-4.69977e-05
-4.87577e-05
0.000159804
-8.2214e-05
0.000115888
-0.000101926
7.67386e-05
-0.000110771
4.06617e-05
-0.00011757
3.09579e-05
-0.000134684
5.05816e-05
-0.00016127
5.75878e-05
-0.000147482
1.44949e-06
-8.52093e-05
-6.75503e-05
-3.0276e-05
-0.000137761
-3.11163e-06
-0.000164903
1.72443e-05
-0.000118407
4.01039e-05
-6.94001e-05
5.91857e-05
-9.01661e-06
6.15702e-05
4.07219e-05
3.39693e-05
4.64901e-05
8.42435e-06
1.56635e-05
1.4983e-06
-2.17235e-05
-4.54957e-05
-4.04095e-05
0.000200225
-6.65567e-05
0.000142026
-8.04747e-05
9.06496e-05
-8.37422e-05
4.39163e-05
-7.70719e-05
2.43775e-05
-4.91412e-05
2.28084e-05
-4.09528e-05
4.94853e-05
-3.25369e-05
-6.89297e-06
-9.28682e-06
-9.07187e-05
-4.37378e-06
-0.000142512
2.64179e-06
-0.00017193
2.19416e-05
-0.000137714
4.006e-05
-8.75091e-05
4.73232e-05
-1.6256e-05
5.35339e-05
3.45287e-05
5.35723e-05
4.64901e-05
3.98395e-05
2.94438e-05
1.93264e-05
-1.2033e-06
-2.61655e-05
-3.4903e-05
0.000235151
-5.55991e-05
0.000162727
-6.51287e-05
0.000100182
-5.24425e-05
3.12631e-05
-2.43264e-05
-3.72407e-06
8.02648e-06
-9.48044e-06
3.67261e-05
2.08931e-05
2.81165e-05
1.79718e-06
7.46827e-06
-6.99912e-05
2.89204e-06
-0.000137733
-1.48749e-06
-0.000167553
1.5642e-05
-0.00015485
4.14514e-05
-0.000113264
5.21041e-05
-2.68406e-05
5.16271e-05
3.50295e-05
4.81615e-05
4.9956e-05
3.82707e-05
3.93353e-05
2.24172e-05
1.4651e-05
-3.74711e-06
-2.53067e-05
0.000260476
-4.35012e-05
0.000180923
-5.33968e-05
0.000110168
-3.56731e-05
1.36586e-05
-8.45782e-06
-3.09088e-05
6.28619e-06
-2.41964e-05
8.70909e-06
1.85109e-05
2.20766e-06
8.38995e-06
2.27686e-06
-6.99461e-05
-2.41166e-06
-0.000133027
-1.41383e-05
-0.000155827
-8.99248e-06
-0.000159897
1.12929e-05
-0.000133335
3.13109e-05
-4.67289e-05
4.14417e-05
2.499e-05
4.24624e-05
4.89563e-05
3.2954e-05
4.88444e-05
1.78028e-05
2.98027e-05
1.40566e-05
-1.78356e-05
0.000278328
-2.8707e-05
0.000191812
-4.01114e-05
0.00012171
-1.5111e-05
-1.12599e-05
1.13614e-05
-5.73518e-05
1.25695e-05
-2.53715e-05
1.27894e-05
1.82958e-05
9.39237e-06
1.18785e-05
3.78173e-07
-6.06951e-05
-1.16407e-05
-0.00012099
-2.11459e-05
-0.000146311
-2.30205e-05
-0.000158015
-1.34362e-05
-0.000142868
-4.09083e-06
-5.59966e-05
7.88319e-06
1.31011e-05
1.97149e-05
3.72296e-05
1.60655e-05
5.25144e-05
9.21807e-06
3.66568e-05
2.32756e-05
-8.01931e-06
0.000286358
1.09472e-06
0.000182722
-2.21758e-07
0.000123083
9.82426e-06
-2.12307e-05
2.34929e-05
-7.09928e-05
2.02782e-05
-2.21285e-05
1.79865e-05
2.05887e-05
1.15007e-05
1.83816e-05
-4.73219e-06
-4.44322e-05
-2.08194e-05
-0.000104885
-2.8266e-05
-0.000138848
-3.32026e-05
-0.000153076
-3.55101e-05
-0.000140563
-4.31664e-05
-4.82007e-05
-4.00508e-05
1.00987e-05
-2.1836e-05
1.91339e-05
-1.00726e-05
4.08857e-05
-5.96068e-06
3.25491e-05
1.7326e-05
-1.64357e-05
6.35639e-05
-3.09598e-05
5.74032e-05
-4.31605e-05
4.98752e-05
-5.27224e-05
3.98303e-05
-5.97577e-05
2.98348e-05
-6.39275e-05
1.97842e-05
-6.5503e-05
1.16221e-05
-6.44125e-05
3.45003e-06
-6.20433e-05
-3.11221e-06
-5.86474e-05
-8.37631e-06
-5.51698e-05
-1.12991e-05
-5.44497e-05
-1.0033e-05
-5.43825e-05
-1.07175e-05
-5.25694e-05
-1.55707e-05
-4.83702e-05
-2.38137e-05
-4.21217e-05
-3.26438e-05
-3.32739e-05
-4.30168e-05
-1.96229e-05
-5.57365e-05
-8.40903e-07
-6.94709e-05
1.98956e-05
-7.18712e-05
4.43758e-05
-4.70667e-05
5.34528e-05
7.6348e-06
6.31855e-05
5.65641e-05
-2.44073e-05
8.79712e-05
-4.37229e-05
7.67188e-05
-5.63806e-05
6.25329e-05
-6.35027e-05
4.69523e-05
-6.61327e-05
3.24648e-05
-6.4943e-05
1.85944e-05
-6.63926e-05
1.30717e-05
-6.86616e-05
5.71078e-06
-6.50702e-05
-6.70115e-06
-5.95087e-05
-1.39502e-05
-5.62668e-05
-1.45367e-05
-5.36861e-05
-1.26153e-05
-5.55382e-05
-8.8638e-06
-5.94992e-05
-1.16105e-05
-5.92068e-05
-2.41043e-05
-5.6315e-05
-3.55352e-05
-5.29005e-05
-4.64309e-05
-4.66336e-05
-6.20034e-05
-3.91057e-05
-7.69987e-05
-2.72172e-05
-8.38127e-05
-8.48508e-06
-6.58158e-05
9.52135e-06
-1.03798e-05
3.96614e-05
3.30784e-05
-3.53007e-05
0.000123078
-6.10752e-05
0.000102319
-7.93175e-05
8.07198e-05
-9.33618e-05
6.09859e-05
-0.000106857
4.592e-05
-0.000119397
3.11519e-05
-0.000124848
1.83182e-05
-0.000120135
8.95749e-07
-0.000113596
-1.33752e-05
-9.81049e-05
-2.95891e-05
-8.21538e-05
-3.06185e-05
-8.77402e-05
-7.03795e-06
-9.50305e-05
-1.56827e-06
-9.39787e-05
-1.26249e-05
-9.17138e-05
-2.63768e-05
-8.86692e-05
-3.86059e-05
-8.60755e-05
-4.90698e-05
-8.31772e-05
-6.49834e-05
-7.81261e-05
-8.22177e-05
-7.06292e-05
-9.15401e-05
-5.21945e-05
-8.42732e-05
-2.80938e-05
-3.4434e-05
2.24955e-05
-1.09328e-05
-0.000119256
0.000242177
-0.000155126
0.000138081
-0.000161343
8.68904e-05
-0.000159684
5.9157e-05
-0.000157907
4.43639e-05
-0.000173046
4.65291e-05
-0.000225096
7.05773e-05
-0.000258169
3.34858e-05
-0.000235612
-3.63546e-05
-0.000190819
-7.44375e-05
-0.000133624
-8.75602e-05
-8.52126e-05
-5.54791e-05
-9.7316e-05
1.06913e-05
-0.000121444
1.14264e-05
-0.000123243
-2.47381e-05
-0.000115406
-4.65407e-05
-0.000107899
-5.6669e-05
-0.000101803
-7.11553e-05
-9.19045e-05
-9.21917e-05
-8.42894e-05
-9.9285e-05
-8.37756e-05
-8.47659e-05
-8.87872e-05
-2.92365e-05
2.99187e-05
-9.61036e-05
-0.000260532
0.000502626
-0.000296679
0.000174408
-0.000297934
8.78669e-05
-0.000293468
5.45101e-05
-0.000291134
4.16111e-05
-0.000314825
6.96749e-05
-0.000379332
0.000135101
-0.000352616
7.31338e-06
-0.000306142
-8.22302e-05
-0.000263133
-0.000117352
-0.000218034
-0.000133014
-0.000134639
-0.000138478
-5.00136e-05
-7.38735e-05
1.2946e-05
-5.14615e-05
5.5093e-05
-6.68745e-05
3.57486e-05
-2.7189e-05
-3.56267e-06
-1.73492e-05
-3.56389e-05
-3.90723e-05
-5.80143e-05
-6.98079e-05
-7.96022e-05
-7.76838e-05
-0.000109074
-5.50737e-05
-0.000121211
-1.66814e-05
3.5934e-05
-0.000127219
-0.000260367
0.000763328
-0.000316713
0.000231052
-0.000334415
0.000105856
-0.000337156
5.71398e-05
-0.000336356
4.09943e-05
-0.000375657
0.00010908
-0.000373777
0.000133284
-0.000317535
-4.8008e-05
-0.000291561
-0.000108151
-0.000274767
-0.000134158
-0.00026375
-0.000144065
-0.000250126
-0.000152693
-0.000175493
-0.000148216
-0.000100075
-0.00012685
-5.80883e-05
-0.000108851
-4.12864e-05
-4.39813e-05
-4.39741e-05
-1.46553e-05
-6.08868e-05
-2.21516e-05
-9.6088e-05
-3.46003e-05
-0.000117036
-5.67251e-05
-0.000118933
-5.30669e-05
-0.000115189
-1.9956e-05
3.86449e-05
-0.000117728
-0.000205347
0.000969135
-0.000285915
0.000311753
-0.000320505
0.000140614
-0.000343538
8.02874e-05
-0.000368706
6.61998e-05
-0.000362069
0.000102461
-0.00031106
8.23128e-05
-0.000289013
-6.9981e-05
-0.000280786
-0.000115881
-0.000270616
-0.000144268
-0.000263055
-0.000152107
-0.000259998
-0.000156138
-0.000262293
-0.000146796
-0.000262271
-0.000126699
-0.000257682
-0.000113293
-0.000213438
-8.82101e-05
-0.00016022
-6.78617e-05
-0.000160538
-2.18251e-05
-0.000179616
-1.55134e-05
-0.000172274
-6.40624e-05
-0.000144636
-8.06998e-05
-0.000114976
-4.95302e-05
2.59631e-05
-0.000101543
-0.000145673
0.00111498
-0.000229644
0.000395766
-0.000303416
0.000214381
-0.000371495
0.000148362
-0.000422871
0.000117574
-0.000402919
8.25138e-05
-0.000344383
2.37735e-05
-0.000323818
-9.055e-05
-0.000303027
-0.000136674
-0.000275077
-0.000172229
-0.000256525
-0.000170443
-0.000251463
-0.000161308
-0.000254274
-0.000143916
-0.000257845
-0.000123205
-0.000260262
-0.000111182
-0.000251744
-9.64724e-05
-0.000239188
-8.0375e-05
-0.000236966
-2.40435e-05
-0.000237368
-1.51042e-05
-0.00022504
-7.63751e-05
-0.00021372
-9.20033e-05
-0.000191594
-7.16504e-05
-2.31393e-05
-0.000142427
-7.09626e-05
0.00118604
-0.000170291
0.00049511
-0.000260985
0.000305074
-0.000319296
0.000206676
-0.000351726
0.000150006
-0.00034735
7.81405e-05
-0.000330775
7.20468e-06
-0.000329257
-9.20697e-05
-0.000313556
-0.00015237
-0.000293768
-0.000192017
-0.000273412
-0.000190799
-0.000256523
-0.000178197
-0.000250865
-0.000149229
-0.00024983
-0.000124114
-0.000249309
-0.000111734
-0.000246561
-9.94823e-05
-0.000238919
-8.82087e-05
-0.000201976
-6.08324e-05
-0.000167396
-4.96294e-05
-0.000159963
-8.35971e-05
-0.000162166
-8.96004e-05
-0.000165167
-6.86016e-05
-5.89239e-05
-0.000129274
1.27318e-05
0.00117334
-9.15548e-05
0.000599422
-0.000160806
0.000374327
-0.000190993
0.000236867
-0.000196432
0.000155447
-0.000170858
5.2569e-05
-0.000131872
-3.1781e-05
-0.000114868
-0.000109075
-0.00012359
-0.00014365
-0.000156837
-0.000158771
-0.000197011
-0.000150622
-0.000226693
-0.000148512
-0.00023783
-0.000138088
-0.000235998
-0.000125764
-0.000226981
-0.000120455
-0.000223139
-0.00010359
-0.000220473
-9.10853e-05
-0.000197111
-8.45283e-05
-0.000166563
-7.95836e-05
-0.000158889
-9.10561e-05
-0.000154059
-9.45015e-05
-0.000139344
-8.32041e-05
-6.85428e-05
-0.000129053
9.13346e-05
0.00108202
3.60069e-05
0.000654764
-1.68575e-06
0.000412024
-6.65129e-06
0.000241839
9.90749e-06
0.000138891
3.38735e-05
2.86071e-05
4.93463e-05
-4.7251e-05
3.87523e-05
-9.84778e-05
9.66768e-06
-0.000114562
-3.49231e-05
-0.000114177
-8.10646e-05
-0.000104482
-0.000117178
-0.000112399
-0.00014248
-0.000112784
-0.000169585
-9.86571e-05
-0.000195273
-9.47661e-05
-0.00019843
-0.000100361
-0.000183188
-0.000106279
-0.000172041
-9.53072e-05
-0.000161349
-9.05586e-05
-0.000152579
-0.00010013
-0.000147799
-9.95217e-05
-0.000135047
-9.64094e-05
-8.00279e-05
-0.000123136
0.000156041
0.000925981
0.000177835
0.000632975
0.000178703
0.000411161
0.000180049
0.000240502
0.000182138
0.000136806
0.000168924
4.18259e-05
0.000141492
-1.98164e-05
0.000103078
-6.00609e-05
6.3962e-05
-7.54448e-05
2.97422e-05
-7.99558e-05
3.7719e-06
-7.85096e-05
-2.07587e-05
-8.78664e-05
-4.55352e-05
-8.80065e-05
-6.8786e-05
-7.54043e-05
-8.68385e-05
-7.6711e-05
-0.00010305
-8.41458e-05
-0.000133801
-7.55245e-05
-0.000167036
-6.20717e-05
-0.00017232
-8.52122e-05
-0.000155661
-0.000116695
-0.000139163
-0.000116333
-0.0001366
-9.91835e-05
-7.41101e-05
-0.000142414
0.000188737
0.000737246
0.00025134
0.000570379
0.000271099
0.000391408
0.000264143
0.000247465
0.000251292
0.000149662
0.000224324
6.87993e-05
0.000192516
1.19943e-05
0.000156994
-2.45365e-05
0.000122331
-4.078e-05
8.76045e-05
-4.52267e-05
5.4189e-05
-4.50924e-05
1.78638e-05
-5.15391e-05
-8.23288e-06
-6.19079e-05
-1.29956e-05
-7.06397e-05
-1.39974e-05
-7.57074e-05
-2.89064e-05
-6.92349e-05
-5.38515e-05
-5.05772e-05
-7.16004e-05
-4.43205e-05
-8.43279e-05
-7.24812e-05
-9.96685e-05
-0.000101353
-0.000116762
-9.92393e-05
-0.000129184
-8.67598e-05
-7.30359e-05
-0.000130256
0.000174407
0.00056284
0.000253407
0.000491387
0.000279504
0.000365319
0.000274686
0.000252291
0.000260851
0.000163503
0.000234047
9.56075e-05
0.000201158
4.48858e-05
0.000164534
1.20904e-05
0.000129316
-5.55947e-06
9.74991e-05
-1.34077e-05
7.21678e-05
-1.97595e-05
5.11595e-05
-3.05289e-05
3.29752e-05
-4.37221e-05
1.24494e-05
-5.01119e-05
-9.81991e-06
-5.34362e-05
-2.31254e-05
-5.59274e-05
-1.96861e-05
-5.40143e-05
-1.00374e-05
-5.39671e-05
-1.84756e-05
-6.40405e-05
-4.69377e-05
-7.28888e-05
-7.59292e-05
-7.02448e-05
-8.77599e-05
-7.49268e-05
-7.4723e-05
-8.60699e-05
0.000126124
0.000436717
0.000208936
0.000408576
0.000247983
0.000326276
0.000253416
0.000246861
0.000243542
0.000173381
0.000220102
0.000119052
0.000191061
7.39299e-05
0.000159677
4.34772e-05
0.000130576
2.35433e-05
0.000104665
1.25056e-05
8.3094e-05
1.81337e-06
6.28024e-05
-1.02353e-05
4.21123e-05
-2.30301e-05
2.51186e-05
-3.31162e-05
1.12084e-05
-3.9524e-05
-3.06224e-06
-4.16549e-05
-1.65979e-05
-4.04765e-05
-2.80118e-05
-4.25511e-05
-3.98192e-05
-5.22307e-05
-5.07224e-05
-6.19834e-05
-5.84466e-05
-6.25179e-05
-6.74375e-05
-6.59337e-05
-6.24998e-05
-7.96579e-05
8.14545e-05
0.000355264
0.000148606
0.000341427
0.000189233
0.000285652
0.000203288
0.000232809
0.000199148
0.000177524
0.000182595
0.000135608
0.000159447
9.70802e-05
0.000133957
6.89697e-05
0.000110471
4.70322e-05
9.02303e-05
3.27481e-05
7.3027e-05
1.90186e-05
5.64922e-05
6.30161e-06
4.00472e-05
-6.58322e-06
2.32505e-05
-1.63175e-05
6.8485e-06
-2.312e-05
-6.48487e-06
-2.83195e-05
-1.41616e-05
-3.27976e-05
-1.91358e-05
-3.75749e-05
-2.83021e-05
-4.30621e-05
-4.17059e-05
-4.85773e-05
-5.53716e-05
-4.88495e-05
-6.89317e-05
-5.23712e-05
-5.10462e-05
-8.03825e-05
5.41279e-05
0.000301138
0.000101722
0.000293835
0.000132887
0.00025449
0.000147922
0.000217777
0.000148993
0.000176455
0.000140943
0.00014366
0.000127048
0.000110977
0.000110117
8.5903e-05
9.31112e-05
6.40402e-05
7.72061e-05
4.86554e-05
6.22283e-05
3.39983e-05
4.71435e-05
2.13885e-05
3.14399e-05
9.12228e-06
1.62788e-05
-1.15436e-06
2.68229e-06
-9.52153e-06
-9.54941e-06
-1.60858e-05
-2.11664e-05
-2.11785e-05
-3.18307e-05
-2.69085e-05
-4.16857e-05
-3.32048e-05
-5.08632e-05
-3.93976e-05
-5.80589e-05
-4.16514e-05
-6.54729e-05
-4.4955e-05
-4.38829e-05
-7.26336e-05
3.77853e-05
0.000263354
7.29478e-05
0.000258674
9.65814e-05
0.000230858
0.000109299
0.000205061
0.000112153
0.000173603
0.000108338
0.000147478
9.91368e-05
0.000120181
8.68164e-05
9.82255e-05
7.33386e-05
7.75201e-05
6.01733e-05
6.18228e-05
4.74033e-05
4.67702e-05
3.45594e-05
3.42344e-05
2.15537e-05
2.213e-05
8.47574e-06
1.19255e-05
-3.79441e-06
2.7506e-06
-1.45136e-05
-5.36456e-06
-2.33855e-05
-1.23045e-05
-3.13974e-05
-1.88945e-05
-4.00899e-05
-2.45101e-05
-4.97547e-05
-2.97306e-05
-5.87344e-05
-3.26693e-05
-6.70562e-05
-3.66308e-05
-3.7549e-05
-7.33875e-05
2.66252e-05
0.000236731
5.20249e-05
0.000233276
6.98078e-05
0.000213077
8.05162e-05
0.000194355
8.40405e-05
0.000170081
8.25413e-05
0.000148979
7.66141e-05
0.00012611
6.77964e-05
0.000107045
5.71297e-05
8.81888e-05
4.57701e-05
7.31845e-05
3.3958e-05
5.85842e-05
2.19804e-05
4.62139e-05
9.92804e-06
3.41843e-05
-1.81196e-06
2.36675e-05
-1.3012e-05
1.39527e-05
-2.3675e-05
5.30037e-06
-3.36735e-05
-2.304e-06
-4.27261e-05
-9.83981e-06
-5.07205e-05
-1.65135e-05
-5.78425e-05
-2.26065e-05
-6.35253e-05
-2.69842e-05
-6.85669e-05
-3.15869e-05
-3.40063e-05
-7.21073e-05
1.91144e-05
0.000217618
3.75704e-05
0.000214822
5.06876e-05
0.000199962
5.89991e-05
0.000186045
6.2051e-05
0.000167031
6.11776e-05
0.000149854
5.66127e-05
0.000130677
4.96011e-05
0.000114059
4.07142e-05
9.70775e-05
3.10337e-05
8.28669e-05
2.0831e-05
6.87887e-05
1.03815e-05
5.66652e-05
-1.61087e-07
4.47288e-05
-1.06375e-05
3.41458e-05
-2.07168e-05
2.40339e-05
-3.00669e-05
1.46524e-05
-3.8538e-05
6.16908e-06
-4.634e-05
-2.03581e-06
-5.35479e-05
-9.30334e-06
-6.011e-05
-1.60423e-05
-6.5583e-05
-2.15089e-05
-7.01032e-05
-2.70644e-05
-3.09798e-05
-7.31272e-05
1.3253e-05
0.000204367
2.6249e-05
0.000201828
3.55475e-05
0.000190665
4.16647e-05
0.00017993
4.39602e-05
0.000164737
4.32224e-05
0.000150594
3.95099e-05
0.000134391
3.36453e-05
0.000119925
2.59599e-05
0.000104765
1.72587e-05
9.157e-05
7.80621e-06
7.8243e-05
-1.99127e-06
6.64646e-05
-1.19438e-05
5.46832e-05
-2.16564e-05
4.38602e-05
-3.10712e-05
3.34505e-05
-4.00384e-05
2.36216e-05
-4.82991e-05
1.44318e-05
-5.56873e-05
5.35435e-06
-6.19061e-05
-3.08254e-06
-6.70962e-05
-1.08501e-05
-7.09976e-05
-1.76054e-05
-7.41171e-05
-2.39427e-05
-2.89626e-05
-7.61319e-05
9.05575e-06
0.000195313
1.78514e-05
0.000193034
2.40506e-05
0.000184468
2.80454e-05
0.000175937
2.91698e-05
0.000163614
2.79492e-05
0.000151817
2.43942e-05
0.000137948
1.91133e-05
0.000125208
1.23165e-05
0.000111563
4.57389e-06
9.93143e-05
-3.93104e-06
8.67496e-05
-1.28164e-05
7.53517e-05
-2.19676e-05
6.38361e-05
-3.10255e-05
5.29199e-05
-3.98582e-05
4.2285e-05
-4.81984e-05
3.19637e-05
-5.59214e-05
2.21567e-05
-6.2985e-05
1.24199e-05
-6.93597e-05
3.29423e-06
-7.49254e-05
-5.28235e-06
-7.96217e-05
-1.29069e-05
-8.361e-05
-1.99523e-05
-2.55386e-05
-8.7032e-05
5.94212e-06
0.000189372
1.14195e-05
0.000187558
1.49389e-05
0.00018095
1.69388e-05
0.000173939
1.68247e-05
0.00016373
1.49148e-05
0.000153728
1.11172e-05
0.000141747
5.77999e-06
0.000130547
-8.89715e-07
0.000118235
-8.51524e-06
0.000106942
-1.68469e-05
9.5083e-05
-2.54784e-05
8.39849e-05
-3.42263e-05
7.25857e-05
-4.28087e-05
6.1504e-05
-5.11753e-05
5.06535e-05
-5.91398e-05
3.99301e-05
-6.65834e-05
2.96022e-05
-7.35068e-05
1.93452e-05
-7.99374e-05
9.72702e-06
-8.61364e-05
9.18399e-07
-9.20283e-05
-7.01308e-06
-9.81998e-05
-1.37788e-05
-1.9922e-05
-0.000103814
2.91779e-06
0.000186456
5.93212e-06
0.000184545
7.43669e-06
0.000179447
7.77066e-06
0.000173606
6.4405e-06
0.000165062
3.78924e-06
0.000156381
-3.19779e-07
0.000145858
-5.60119e-06
0.00013583
-1.20168e-05
0.000124652
-1.92892e-05
0.000114215
-2.72168e-05
0.000103012
-3.54928e-05
9.22626e-05
-4.40257e-05
8.11202e-05
-5.25607e-05
7.00407e-05
-6.1003e-05
5.90976e-05
-6.91879e-05
4.81168e-05
-7.71532e-05
3.75694e-05
-8.50204e-05
2.72143e-05
-9.31433e-05
1.78517e-05
-0.000101608
9.38514e-06
-0.000110695
2.07524e-06
-0.000119073
-5.39848e-06
-1.49895e-05
-0.000124003
4.14309e-07
0.000186043
1.08274e-06
0.000183878
8.18333e-07
0.000179713
-2.7359e-07
0.0001747
-2.76796e-06
0.000167558
-6.39555e-06
0.00016001
-1.13249e-05
0.000150789
-1.72737e-05
0.00014178
-2.42019e-05
0.000131582
-3.18029e-05
0.000121818
-3.98689e-05
0.00011108
-4.82105e-05
0.000100606
-5.6728e-05
8.96394e-05
-6.5347e-05
7.86615e-05
-7.40887e-05
6.78411e-05
-8.29414e-05
5.69715e-05
-9.21224e-05
4.6752e-05
-0.000101907
3.70007e-05
-0.000112381
2.83273e-05
-0.000123268
2.02741e-05
-0.000132257
1.10665e-05
-0.000136892
-7.61953e-07
-1.46383e-05
-0.000137241
-1.1555e-06
0.0001872
-2.56515e-06
0.000185289
-4.57767e-06
0.000181727
-7.09043e-06
0.000177214
-1.05582e-05
0.000171027
-1.48384e-05
0.000164292
-2.01661e-05
0.000156118
-2.63484e-05
0.000147964
-3.34006e-05
0.000138635
-4.10661e-05
0.000129485
-4.92976e-05
0.000119313
-5.78985e-05
0.000109208
-6.69059e-05
9.86484e-05
-7.6272e-05
8.80294e-05
-8.6137e-05
7.77078e-05
-9.66753e-05
6.75111e-05
-0.000107992
5.80706e-05
-0.000120265
4.92748e-05
-0.000132711
4.07758e-05
-0.00014219
2.97546e-05
-0.000146287
1.51655e-05
-0.000145969
-1.07859e-06
-1.69273e-05
-0.000143678
-2.61031e-06
0.000189812
-5.58333e-06
0.000188264
-9.13226e-06
0.000185277
-1.3154e-05
0.000181237
-1.79746e-05
0.000175849
-2.34999e-05
0.000169818
-2.99365e-05
0.000162556
-3.70093e-05
0.000155038
-4.47723e-05
0.0001464
-5.2983e-05
0.000137697
-6.17351e-05
0.000128067
-7.09123e-05
0.000118387
-8.06301e-05
0.000108368
-9.10483e-05
9.84491e-05
-0.000102295
8.89563e-05
-0.000114647
7.98646e-05
-0.000128127
7.15517e-05
-0.00014144
6.25905e-05
-0.000150441
4.9778e-05
-0.000153229
3.25444e-05
-0.000152101
1.40386e-05
-0.000149365
-3.81231e-06
-1.96283e-05
-0.000146662
-3.94731e-06
0.00019376
-8.19224e-06
0.00019251
-1.28914e-05
0.000189978
-1.79767e-05
0.000186324
-2.36479e-05
0.000181522
-2.9874e-05
0.000176046
-3.68512e-05
0.000169534
-4.44124e-05
0.000162601
-5.26596e-05
0.000154648
-6.14423e-05
0.000146481
-7.09031e-05
0.000137529
-8.09938e-05
0.00012848
-9.19407e-05
0.000119316
-0.000103912
0.000110421
-0.000117137
0.000102183
-0.000131625
9.43548e-05
-0.000145819
8.57468e-05
-0.000155164
7.1938e-05
-0.000157772
5.23866e-05
-0.00015674
3.15148e-05
-0.000154359
1.16584e-05
-0.000151758
-6.41105e-06
-2.17079e-05
-0.000149677
-5.33914e-06
0.000199101
-1.09162e-05
0.000198088
-1.68941e-05
0.000195957
-2.32979e-05
0.000192729
-3.02711e-05
0.000188496
-3.77401e-05
0.000183516
-4.58364e-05
0.000177632
-5.43873e-05
0.000171153
-6.36105e-05
0.000163873
-7.33868e-05
0.000156259
-8.4038e-05
0.000148182
-9.55615e-05
0.000140004
-0.000108134
0.00013189
-0.00012196
0.000124248
-0.000136827
0.000117052
-0.000151153
0.000108683
-0.000159903
9.44992e-05
-0.000161442
7.34783e-05
-0.000159913
5.0859e-05
-0.00015728
2.88834e-05
-0.000154408
8.78771e-06
-0.000151939
-8.87828e-06
-2.41706e-05
-0.000149475
-6.47959e-06
0.000205582
-1.30985e-05
0.000204709
-1.99789e-05
0.000202839
-2.71981e-05
0.00019995
-3.48874e-05
0.000196187
-4.30488e-05
0.000191679
-5.17826e-05
0.000186367
-6.10237e-05
0.000180396
-7.09134e-05
0.000173764
-8.14462e-05
0.000166793
-9.28798e-05
0.000159617
-0.000105429
0.000152555
-0.000119444
0.000145906
-0.000134914
0.00013972
-0.000150137
0.000132276
-0.000160012
0.000118559
-0.000162139
9.66279e-05
-0.000161136
7.24761e-05
-0.000159098
4.88222e-05
-0.000156537
2.63245e-05
-0.000153675
5.92656e-06
-0.000150196
-1.2355e-05
-2.8467e-05
-0.000145899
-7.86227e-06
0.000213445
-1.58441e-05
0.000212692
-2.40627e-05
0.000211058
-3.26281e-05
0.000208516
-4.16354e-05
0.000205195
-5.11062e-05
0.000201151
-6.11432e-05
0.000196405
-7.17106e-05
0.000190965
-8.29983e-05
0.000185053
-9.48703e-05
0.000178667
-0.000107669
0.000172417
-0.000121436
0.000166323
-0.000136322
0.000160793
-0.000151398
0.000154798
-0.000161736
0.000142615
-0.000164072
0.000120896
-0.000162845
9.54017e-05
-0.000160561
7.0194e-05
-0.000157213
4.54753e-05
-0.000153265
2.23784e-05
-0.000148564
1.22637e-06
-0.000142922
-1.79956e-05
-3.50704e-05
-0.000136317
-8.8012e-06
0.000222248
-1.76632e-05
0.000221555
-2.66762e-05
0.000220073
-3.59662e-05
0.000217807
-4.56273e-05
0.000214858
-5.5726e-05
0.000211251
-6.63802e-05
0.000207061
-7.76736e-05
0.000202259
-8.97348e-05
0.000197115
-0.000102657
0.00019159
-0.000116497
0.000186257
-0.00013169
0.000181518
-0.000147609
0.000176712
-0.000159569
0.000166761
-0.00016293
0.000145977
-0.00016181
0.000119778
-0.000159911
9.35039e-05
-0.000156388
6.66715e-05
-0.000152019
4.11082e-05
-0.0001468
1.71606e-05
-0.000140639
-4.93349e-06
-0.000133906
-2.47274e-05
-4.24706e-05
-0.000126505
-1.03001e-05
0.000232549
-2.06733e-05
0.000231929
-3.11848e-05
0.000230585
-4.19638e-05
0.000228587
-5.30602e-05
0.000225955
-6.45525e-05
0.000222744
-7.65003e-05
0.00021901
-8.90394e-05
0.000214799
-0.000102259
0.000210336
-0.000116151
0.000205483
-0.000130886
0.000200993
-0.000145936
0.000196569
-0.00015836
0.000189138
-0.000162796
0.000171198
-0.000161456
0.000144638
-0.000158966
0.000117289
-0.000154828
8.93667e-05
-0.000149598
6.14423e-05
-0.000143722
3.52341e-05
-0.000137253
1.06925e-05
-0.000130343
-1.18424e-05
-0.000122941
-3.21281e-05
-5.03382e-05
-0.000115072
-1.09682e-05
0.000243518
-2.20252e-05
0.000242987
-3.32199e-05
0.000241781
-4.46491e-05
0.000240018
-5.63827e-05
0.00023769
-6.85075e-05
0.00023487
-8.11141e-05
0.000231618
-9.4314e-05
0.000228
-0.000108295
0.000224319
-0.000123093
0.000220282
-0.000138552
0.000216454
-0.000152774
0.000210793
-0.000159867
0.000196233
-0.00015945
0.000170782
-0.000157206
0.000142394
-0.000153553
0.000113637
-0.000148095
8.39103e-05
-0.000142077
5.54255e-05
-0.000135474
2.86314e-05
-0.000128311
3.53082e-06
-0.000120808
-1.93451e-05
-0.000112959
-3.99751e-05
-5.86386e-05
-0.000104658
-1.28535e-05
0.000256373
-2.56968e-05
0.000255832
-3.85443e-05
0.00025463
-5.15395e-05
0.000253014
-6.47696e-05
0.000250921
-7.82583e-05
0.00024836
-9.19688e-05
0.000245329
-0.000106017
0.00024205
-0.000120381
0.000238684
-0.00013495
0.000234852
-0.000149064
0.00023057
-0.000158204
0.000219934
-0.000159279
0.000197309
-0.000156263
0.000167767
-0.000152029
0.000138161
-0.000145739
0.000107347
-0.000138714
7.68869e-05
-0.000131437
4.81488e-05
-0.000123889
2.10844e-05
-0.000116361
-3.99602e-06
-0.000108492
-2.72133e-05
-0.000100538
-4.79283e-05
-6.69278e-05
-9.22478e-05
-1.30695e-05
0.000269444
-2.61881e-05
0.000268952
-3.947e-05
0.000267913
-5.30001e-05
0.000266545
-6.67661e-05
0.000264688
-8.08333e-05
0.000262428
-9.52082e-05
0.000259705
-0.000109916
0.000256759
-0.000124901
0.00025367
-0.000139799
0.000249751
-0.000152204
0.000242977
-0.000156599
0.000224329
-0.000154424
0.000195135
-0.00015064
0.000163984
-0.000145078
0.0001326
-0.000138125
0.000100395
-0.000130856
6.96192e-05
-0.000123466
4.07592e-05
-0.000115617
1.32364e-05
-0.000107714
-1.18981e-05
-9.96273e-05
-3.52993e-05
-9.13384e-05
-5.62165e-05
-7.52766e-05
-8.29889e-05
-1.53666e-05
0.000284811
-3.07088e-05
0.000284295
-4.60012e-05
0.000283206
-6.11744e-05
0.00028172
-7.63864e-05
0.000279901
-9.16938e-05
0.000277737
-0.000106988
0.000275
-0.000122151
0.000271923
-0.000136536
0.000268057
-0.000149139
0.000262355
-0.000155696