/*--------------------------------*- C++ -*----------------------------------*\
| =========                 |                                                 |
| \\      /  F ield         | OpenFOAM: The Open Source CFD Toolbox           |
|  \\    /   O peration     | Version:  2012                                  |
|   \\  /    A nd           | Website:  www.openfoam.com                      |
|    \\/     M anipulation  |                                                 |
\*---------------------------------------------------------------------------*/
FoamFile
{
    version     2.0;
    format      ascii;
    class       volScalarField;
    location    "0.85";
    object      rhogh;
}
// * * * * * * * * * * * * * * * * * * * * * * * * * * * * * * * * * * * * * //

dimensions      [1 -1 -2 0 0 0 0];


internalField   nonuniform List<scalar> 
2268
(
-29.4294
-29.4294
-29.4294
-29.4294
-29.4294
-29.4294
-29.4294
-29.4294
-29.4294
-29.4294
-29.4294
-29.4294
-29.4294
-29.4294
-29.4294
-29.4294
-29.4294
-29.4294
-29.4294
-29.4294
-29.4294
-29.429
-29.4241
-88.2881
-88.2881
-88.2881
-88.2881
-88.2881
-88.2881
-88.2881
-88.2881
-88.2881
-88.2881
-88.2881
-88.2881
-88.2881
-88.2881
-88.2881
-88.2881
-88.2881
-88.2881
-88.2881
-88.2881
-88.2881
-88.2842
-88.2629
-147.147
-147.147
-147.147
-147.147
-147.147
-147.147
-147.147
-147.147
-147.147
-147.147
-147.147
-147.147
-147.147
-147.147
-147.147
-147.147
-147.147
-147.147
-147.147
-147.147
-147.147
-147.145
-147.105
-206.006
-206.006
-206.006
-206.006
-206.006
-206.006
-206.006
-206.006
-206.006
-206.006
-206.006
-206.006
-206.006
-206.006
-206.006
-206.006
-206.006
-206.006
-206.006
-206.006
-206.006
-206.006
-205.947
-264.864
-264.864
-264.864
-264.864
-264.864
-264.864
-264.864
-264.864
-264.864
-264.864
-264.864
-264.864
-264.864
-264.864
-264.864
-264.864
-264.864
-264.864
-264.864
-264.864
-264.864
-264.864
-264.837
-323.723
-323.723
-323.723
-323.723
-323.723
-323.723
-323.723
-323.723
-323.723
-323.723
-323.723
-323.723
-323.723
-323.723
-323.723
-323.723
-323.723
-323.723
-323.721
-323.723
-323.723
-323.723
-323.723
-382.582
-382.582
-382.582
-382.582
-382.582
-382.582
-382.582
-382.582
-382.582
-382.582
-382.582
-382.582
-382.582
-382.582
-382.582
-382.582
-382.582
-382.582
-382.571
-382.524
-382.548
-382.581
-382.582
-441.44
-441.44
-441.44
-441.44
-441.44
-441.44
-441.44
-441.44
-441.44
-441.44
-441.44
-441.44
-441.44
-441.44
-441.44
-441.44
-441.44
-441.44
-441.399
-440.498
-437.989
-441.44
-441.328
-27.6083
-26.8542
-22.3188
-22.3416
-24.9739
-24.9738
-24.8045
-21.7617
-17.9193
-15.0874
-13.3588
-15.5774
-22.3246
-24.3964
-26.1112
-27.4255
-28.088
-28.088
-28.0878
-82.8247
-68.5709
-64.3508
-69.1892
-74.8806
-55.5124
-21.9525
-10.6861
-7.31359
-5.57453
-15.5536
-53.2175
-40.5885
-14.9718
-14.9638
-38.1091
-64.3251
-82.423
-86.614
-138.269
-121.153
-107.247
-104.268
-92.1929
-43.6802
-2.37882
-0.173139
-0.403149
-4.06837
-108.111
-139.151
-139.127
-124.969
-56.0302
-29.125
-29.1042
-105.499
-143.923
-193.605
-193.631
-193.631
-147.268
-46.6263
-1.21842
-0.242395
-0.242396
-0.120936
-7.85153
-194.811
-194.778
-179.346
-185.146
-184.462
-127.8
-140.605
-186.394
-200.211
-248.953
-248.953
-234.131
-178.956
-177.304
-173.469
-3.47094
-0.166116
-0.155489
-118.039
-250.429
-185.213
-92.5711
-115.55
-207.109
-262.437
-262.437
-262.479
-262.479
-304.275
-296.171
-158.013
-68.3924
-176.688
-249.767
-121.977
-7.50767
-0.739253
-292.122
-292.474
-165.934
-75.2799
-72.808
-99.8694
-223.418
-314.061
-320.808
-320.808
-359.597
-291.44
-8.60923
-5.41736
-53.2762
-212.058
-342.936
-86.6659
-68.6898
-347.738
-339.017
-359.199
-285.904
-86.0474
-86.0503
-88.3931
-260.864
-346.62
-379.137
-414.919
-316.91
-6.7641
-6.24948
-23.2577
-139.326
-395.698
-297.06
-328.514
-400.969
-391.188
-431.884
-388.473
-99.2879
-99.2897
-99.2931
-138.163
-399.812
-381.924
-533.467
-533.467
-533.467
-533.467
-533.467
-533.467
-533.467
-533.467
-533.451
-533.41
-533.396
-533.425
-533.443
-533.435
-533.395
-533.337
-533.31
-533.361
-533.112
-523.53
-431.668
-401.075
-533.332
-658.662
-658.662
-658.662
-658.662
-658.662
-658.662
-658.662
-645.754
-623.363
-612.31
-616.073
-631.036
-636.166
-634.307
-633.871
-640.438
-652.183
-656.251
-648.826
-511.506
-262.029
-271.974
-358.849
-549.352
-546.872
-556.984
-608.969
-627.745
-552.301
-437.439
-362.1
-354.284
-351.698
-356.35
-396.398
-430.067
-521.001
-625.38
-650.962
-641.907
-609.895
-541.497
-315.738
-173.147
-327.733
-610.913
-112.09
-165.314
-267.875
-320.384
-235.392
-217.48
-253.133
-406.134
-269.082
-95.8432
-95.8378
-100.484
-256.997
-350.105
-236.253
-148.109
-116.752
-96.1958
-90.4811
-105.679
-114.499
-268.846
-684.137
-3.29467
-85.1241
-398.887
-447.674
-447.648
-183.08
-1.66534
-24.8911
-116.005
-285.334
-226.942
-63.0747
-5.44779
-5.44777
-3.47905e-05
-3.47905e-05
-3.47905e-05
-3.47905e-05
-3.47905e-05
-3.47905e-05
-20.8426
-430.284
-918.632
-3.69136
-78.1471
-216.606
-182.433
-64.0288
-21.6085
-1.86669
-37.6335
-362.007
-495.328
-495.545
-429.341
-69.393
-0.0388313
-0.0388316
-0.0163318
-0.00026823
-0.000582726
-4.58598e-05
-0.00312072
-2.85929
-179.125
-813.046
-4.24083
-22.0909
-5.63216
-0.944006
-0.252477
-0.154672
-0.330072
-3.78786
-59.5404
-328.926
-494.018
-494.111
-405.232
-39.5628
-14.6526
-0.012234
-0.0122343
-0.00121238
-5.08114e-05
-0.00228415
-0.0725202
-2.4199
-128.572
-3.31554
-4.23008
-0.64263
-0.00235739
-0.0102916
-0.0560019
-0.107238
-0.0177693
-3.68398e-06
-3.68407e-06
-3.68398e-06
-107.558
-170.728
-248.418
-221.156
-19.3644
-5.51121
-0.00133054
-0.0081937
-0.026433
-0.082841
-0.42084
-4.49571
-0.948326
-2.78048
-0.00256673
-0.00256635
-0.0118013
-0.0244737
-0.00882741
-2.10781e-07
-9.6353e-05
-0.000158676
-5.09483e-06
-4.01112e-06
-1.07733
-202.231
-331.301
-331.343
-127.323
-5.71771
-1.99942
-17.4834
-26.2366
-4.42907
-10.727
-0.168878
-1.18973
-0.0628728
-0.00277607
-0.00443639
-0.00939705
-0.00246386
-2.27971e-07
-0.000337017
-0.000630353
-0.000319079
-4.33837e-06
-4.33827e-06
-4.33837e-06
-152.353
-336.76
-336.802
-277.251
-132.217
-322.556
-346.099
-116.829
-89.9214
-0.0467053
-0.00396768
-0.107417
-0.0191001
-0.000339142
-2.75877e-05
-2.45162e-07
-2.45163e-07
-2.45162e-07
-0.000630462
-0.000629673
-0.000285288
-0.00101453
-0.000416211
-2.38936e-07
-2.38216e-07
-74.5715
-165.56
-478.131
-496.33
-497.029
-328.789
-181.009
-0.000285964
-1.44268e-08
-0.0538211
-0.0178586
-0.00136874
-4.14139e-06
-2.62468e-07
-2.62802e-07
-6.87299e-07
-6.87296e-07
-6.87276e-07
-3.2427e-05
-0.00250688
-0.0025651
-2.5492e-07
-7.3853e-07
-2.5492e-07
-2.62561e-07
-2.5492e-07
-73.8481
-169.099
-83.6007
-31.9677
-1.50503e-07
-1.54014e-08
-3.06685e-05
-0.00108182
-0.000404148
-5.94473e-05
-1.84031e-06
-4.5542e-07
-8.64521e-07
-2.03059e-06
-1.53812e-06
-7.45589e-07
-0.00238187
-0.00273947
-0.000986243
-7.86929e-07
-2.03354e-05
-5.90616e-05
-3.13036e-05
-2.71618e-07
-2.71507e-07
-2.71618e-07
-2.71507e-07
-2.0543e-08
-1.63782e-08
-1.93182e-08
-2.37351e-07
-1.99438e-06
-4.57323e-06
-1.09925e-06
-6.68632e-07
-1.89848e-06
-2.81251e-06
-1.44606e-06
-7.91405e-07
-0.00188956
-0.00290793
-0.00124805
-8.35259e-07
-3.80328e-06
-4.32715e-06
-2.6774e-06
-4.51839e-05
-9.23829e-05
-0.000481735
-0.000552589
-8.81311e-09
-1.44043e-08
-3.31657e-08
-8.6086e-08
-2.13232e-07
-4.29629e-07
-5.02767e-07
-9.39975e-07
-2.36909e-06
-2.96519e-06
-1.3935e-06
-8.37291e-07
-0.00141352
-0.00167983
-0.000209842
-8.65537e-06
-4.05813e-06
-4.11033e-06
-2.83064e-06
-2.37651e-07
-2.37418e-07
-2.37418e-07
-9.15189e-07
-3.44223e-09
-1.51164e-08
-5.89974e-08
-1.44755e-07
-2.56887e-07
-3.45275e-07
-5.01236e-07
-1.09053e-06
-2.40689e-06
-2.0117e-06
-1.39976e-06
-7.10641e-05
-0.000206053
-2.90686e-05
-8.89419e-06
-4.53756e-06
-4.21826e-06
-4.25782e-06
-3.2429e-06
-1.39661e-06
-3.60905e-07
-2.50419e-07
-2.104e-07
-1.44897e-09
-1.27725e-08
-5.91563e-08
-1.45809e-07
-2.2245e-07
-2.65141e-07
-4.67231e-07
-1.17443e-06
-1.66019e-06
-1.56697e-06
-4.28691e-06
-2.45963e-05
-9.33758e-06
-2.71637e-07
-4.45971e-07
-1.50952e-06
-2.12433e-06
-1.80909e-06
-1.18918e-06
-8.45792e-07
-7.00786e-07
-5.14448e-07
-3.89346e-07
-4.86895e-10
-5.55731e-09
-3.5713e-08
-8.67506e-08
-1.12243e-07
-1.36477e-07
-3.56211e-07
-8.99925e-07
-9.69537e-07
-1.64485e-06
-5.38169e-06
-4.11926e-06
-7.90675e-07
-2.85044e-07
-4.25291e-07
-6.6903e-07
-8.63415e-07
-6.95328e-07
-4.81567e-07
-3.57932e-07
-2.67896e-07
-2.01633e-07
-1.79041e-07
-1.26969e-10
-1.40444e-09
-1.13241e-08
-2.7495e-08
-3.97029e-08
-6.14989e-08
-2.01895e-07
-4.59663e-07
-7.39241e-07
-1.70695e-06
-3.13362e-06
-1.22124e-06
-2.75307e-07
-1.97461e-07
-2.42073e-07
-3.16194e-07
-3.30815e-07
-2.29335e-07
-1.55052e-07
-1.09386e-07
-7.63039e-08
-5.61628e-08
-4.98243e-08
-2.76023e-11
-3.12584e-10
-3.0527e-09
-7.86758e-09
-1.37834e-08
-2.92696e-08
-1.07123e-07
-2.93659e-07
-6.50229e-07
-1.39871e-06
-1.09736e-06
-3.79148e-07
-1.45051e-07
-1.12856e-07
-1.18214e-07
-1.33728e-07
-1.14002e-07
-7.01031e-08
-4.18075e-08
-2.54452e-08
-1.79782e-08
-1.88673e-08
-3.03433e-08
-5.3693e-12
-6.51555e-11
-7.41366e-10
-2.17181e-09
-4.93653e-09
-1.44769e-08
-5.81994e-08
-2.0324e-07
-5.28192e-07
-6.71438e-07
-3.78723e-07
-1.41988e-07
-7.07009e-08
-5.40549e-08
-5.11813e-08
-5.00912e-08
-3.26489e-08
-1.60235e-08
-7.90251e-09
-6.28286e-09
-1.19365e-08
-5.27289e-08
-2.07672e-07
-9.94625e-13
-1.34472e-11
-1.69081e-10
-6.01336e-10
-1.8457e-09
-7.07199e-09
-3.0986e-08
-1.25215e-07
-3.01073e-07
-2.54317e-07
-1.29142e-07
-5.72117e-08
-3.08076e-08
-2.27177e-08
-1.95486e-08
-1.60354e-08
-7.7082e-09
-3.41655e-09
-3.53756e-09
-1.49559e-08
-1.1059e-07
-5.61309e-07
-2.57559e-06
-1.84465e-13
-2.87569e-12
-3.80081e-11
-1.72359e-10
-7.05176e-10
-3.2915e-09
-1.5495e-08
-6.70844e-08
-1.25364e-07
-9.12323e-08
-4.44096e-08
-2.17759e-08
-1.19312e-08
-8.46158e-09
-6.20401e-09
-3.80801e-09
-2.54447e-09
-3.78531e-09
-2.64944e-08
-1.98115e-07
-1.23537e-06
-7.72975e-06
-5.20837e-05
-3.54199e-14
-6.50948e-13
-8.81597e-12
-5.14167e-11
-2.66563e-10
-1.44781e-09
-7.47384e-09
-3.15943e-08
-4.75632e-08
-3.13103e-08
-1.5167e-08
-7.73537e-09
-4.20929e-09
-2.68299e-09
-1.97147e-09
-1.97676e-09
-8.16071e-09
-6.86629e-08
-4.71646e-07
-2.50647e-06
-1.84151e-05
-0.000135109
-0.000410423
-7.22468e-15
-1.56901e-13
-2.19887e-12
-1.62805e-11
-1.04549e-10
-6.54288e-10
-3.6698e-09
-1.31002e-08
-1.6789e-08
-1.02331e-08
-4.95378e-09
-2.50873e-09
-1.36223e-09
-1.18955e-09
-4.3277e-09
-2.46983e-08
-5.07554e-08
-3.24469e-08
-3.24429e-08
-9.97097e-05
-0.000361372
-0.000384801
-0.000268137
-1.65155e-15
-4.23752e-14
-6.30184e-13
-5.73362e-12
-4.36491e-11
-2.97965e-10
-1.69002e-09
-4.9276e-09
-5.64611e-09
-3.26157e-09
-1.51024e-09
-7.02928e-10
-5.11172e-10
-9.88749e-10
-3.7596e-09
-7.96839e-09
-7.96826e-09
-5.54883e-05
-0.000510109
-0.000561842
-0.000441455
-4.94061e-08
-4.94081e-08
-4.32872e-16
-1.29386e-14
-2.09665e-13
-2.24579e-12
-1.93019e-11
-1.36708e-10
-7.39986e-10
-1.73622e-09
-1.78537e-09
-8.168e-10
-4.05593e-10
-2.80632e-10
-2.80632e-10
-4.09266e-10
-3.8941e-10
-3.89342e-10
-0.000135146
-0.000558999
-0.000580749
-0.000337943
-6.14661e-08
-6.14654e-08
-1.21033e-07
-1.33113e-16
-4.50892e-15
-8.02068e-14
-9.57032e-13
-8.65921e-12
-5.96222e-11
-2.89986e-10
-5.47104e-10
-4.9789e-10
-3.77303e-10
-3.93276e-10
-2.92232e-09
-3.79348e-08
-3.96465e-07
-1.45082e-05
-0.000614898
-0.00132348
-0.000720308
-3.80769e-07
-1.40036e-05
-8.76973e-08
-1.41128e-07
-1.31273e-07
-4.60631e-17
-1.75261e-15
-3.25557e-14
-3.96379e-13
-3.47467e-12
-2.19395e-11
-9.27483e-11
-1.93206e-10
-2.81166e-10
-3.97515e-10
-5.69874e-10
-1.87022e-09
-7.20853e-09
-5.68377e-10
-5.68244e-10
-0.000747174
-0.00136584
-0.000142067
-6.42011e-08
-2.41154e-07
-1.21943e-07
-5.9393e-08
-2.24719e-08
-1.72191e-17
-6.74974e-16
-1.37779e-14
-1.88259e-13
-1.88466e-12
-1.41823e-11
-7.92914e-11
-3.10094e-10
-9.98578e-10
-1.50801e-09
-1.34496e-09
-5.85858e-10
-5.85995e-10
-0.000322928
-0.00149308
-0.000972359
-1.89083e-05
-1.26361e-05
-6.61975e-08
-6.7827e-08
-2.2121e-08
-6.39745e-09
-2.10516e-09
-1.75232e-17
-6.12967e-16
-1.52091e-14
-2.58e-13
-3.42399e-12
-3.73914e-11
-3.31411e-10
-2.13624e-09
-7.76246e-09
-2.12657e-08
-1.8613e-07
-8.71715e-06
-0.000900692
-0.0029629
-0.00296288
-0.000171927
-7.73754e-08
-5.54478e-07
-6.81859e-08
-1.27701e-08
-2.19502e-09
-6.40951e-10
-2.30696e-10
-3.25675e-17
-1.73138e-15
-5.00918e-14
-1.0048e-12
-1.64965e-11
-2.44994e-10
-3.28965e-09
-3.66411e-08
-1.99795e-07
-2.6254e-07
-3.40721e-08
-3.40679e-08
-0.000828469
-0.00304936
-0.00172599
-1.62872e-08
-7.96337e-08
-1.07879e-07
-2.23875e-08
-1.53489e-09
-2.49616e-10
-7.69545e-11
-2.74422e-11
-2.36949e-16
-1.24468e-14
-3.16745e-13
-5.34262e-12
-7.14293e-11
-8.64125e-10
-9.78083e-09
-9.75157e-08
-6.77525e-07
-2.02933e-06
-3.50341e-08
-0.000691371
-0.00249045
-0.000592856
-0.000127793
-1.67496e-08
-5.20939e-08
-2.13378e-08
-2.99153e-09
-1.72667e-10
-3.20496e-11
-8.95598e-12
-2.94706e-12
-1.59656e-15
-7.91938e-14
-1.85107e-12
-2.70355e-11
-2.80397e-10
-2.2974e-09
-1.63345e-08
-9.73966e-08
-4.73744e-07
-1.4677e-05
-0.00178807
-0.00626641
-0.00347034
-6.25793e-09
-2.5852e-06
-1.73121e-08
-2.18948e-08
-3.74525e-09
-3.17299e-10
-1.94159e-11
-3.76622e-12
-9.18972e-13
-2.73685e-13
-1.03347e-14
-4.75499e-13
-1.03521e-11
-1.39399e-10
-1.27316e-09
-8.16862e-09
-3.70983e-08
-1.01314e-07
-1.53271e-07
-1.53266e-07
-0.00229321
-0.00643527
-0.00251334
-6.4264e-09
-1.91873e-07
-1.14721e-08
-4.81591e-09
-5.68619e-10
-3.05123e-11
-2.18426e-12
-4.08873e-13
-8.54762e-14
-2.25685e-14
-4.52807e-14
-1.94771e-12
-3.99272e-11
-5.09408e-10
-4.42191e-09
-2.68511e-08
-1.15183e-07
-4.17766e-07
-1.12229e-05
-0.00115038
-0.00593339
-0.00271846
-0.000106703
-6.59383e-09
-2.61733e-08
-4.83071e-09
-9.7943e-10
-7.38285e-11
-2.60444e-12
-2.18165e-13
-3.62105e-14
-6.56333e-15
-1.56398e-15
-1.95182e-13
-7.47898e-12
-1.36008e-10
-1.54587e-09
-1.20997e-08
-6.69541e-08
-2.1435e-07
-3.2257e-07
-3.22571e-07
-0.0014044
-0.00608453
-0.000688237
-5.56558e-08
-1.23825e-07
-6.06401e-09
-1.67299e-09
-1.90848e-10
-8.25656e-12
-1.95312e-13
-1.9742e-14
-2.87375e-15
-4.50797e-16
-9.60277e-17
-6.41177e-13
-2.23911e-11
-3.65183e-10
-3.70117e-09
-2.63512e-08
-1.429e-07
-5.40612e-07
-1.09263e-05
-0.00091665
-0.00687797
-0.00280557
-1.38724e-09
-5.70427e-08
-1.50735e-07
-2.33812e-09
-4.83015e-10
-3.23426e-11
-7.02777e-13
-1.02566e-14
-1.20828e-15
-1.57411e-16
-2.22191e-17
-4.4969e-18
-2.112e-12
-6.76281e-11
-9.89076e-10
-8.63409e-09
-4.90346e-08
-1.84531e-07
-3.45912e-07
-3.45908e-07
-0.00210797
-0.00704961
-0.000423676
-1.42106e-09
-3.55718e-08
-7.53378e-08
-8.67144e-10
-1.19204e-10
-4.68425e-12
-4.33374e-14
-5.2103e-16
-5.83906e-17
-6.74659e-18
-8.59674e-19
-1.63193e-19
-5.55743e-12
-1.69401e-10
-2.33108e-09
-1.85355e-08
-8.84724e-08
-2.60923e-07
-6.55303e-06
-0.000880929
-0.00775858
-0.00478452
-7.5387e-10
-2.92558e-09
-1.28573e-08
-1.61182e-08
-2.73502e-10
-2.44233e-11
-5.72934e-13
-1.72063e-15
-1.43085e-17
-1.33864e-18
-1.34977e-19
-1.63535e-20
-3.4612e-21
-1.38829e-11
-4.01421e-10
-5.34499e-09
-4.41226e-08
-2.63487e-07
-5.00539e-07
-5.00565e-07
-0.00247655
-0.00793792
-0.00182984
-7.71296e-10
-1.82044e-09
-3.75716e-09
-2.76963e-09
-7.77965e-11
-5.0305e-12
-8.04291e-14
-4.99606e-17
-1.9959e-19
-1.25749e-20
-9.18574e-22
-1.0516e-22
-3.21767e-23
-4.68658e-11
-1.15746e-09
-1.29637e-08
-8.60724e-08
-3.66809e-07
-1.10089e-05
-0.00190187
-0.00742439
-0.00460789
-7.88722e-10
-7.88722e-10
-9.45411e-10
-1.05963e-09
-4.05533e-10
-2.20808e-11
-1.3083e-12
-8.37094e-15
1.24137e-42
-4.52331e-24
-7.58689e-28
-1.14851e-29
-3.82294e-30
-1.40996e-30
-354.785
-333.683
-425.242
-494.169
-358.848
-420.551
-596.463
-611.336
-637.876
-709.706
-727.535
-727.539
-843.732
-843.734
-843.739
-843.741
-959.925
-959.931
-959.933
-844.907
-1076.12
-1076.12
-1057.59
-747.416
-619.494
-788.384
-727.247
-508.732
-23.209
-43.457
-47.2674
-43.0421
-63.1755
-74.5141
-12.7341
-2.41293
-587.07
-613.177
-211.083
-101.197
-661.102
-661.121
-661.102
-661.121
-171.789
-470.248
-576.356
-338.956
-2.71618e-07
-2.71507e-07
-2.71618e-07
-2.71507e-07
-0.000274924
-3.38896e-05
-0.000209979
-0.000214853
-1.99476e-07
-0.000252727
-0.000503213
-0.000503148
-2.10401e-07
-1.94715e-07
-1.94716e-07
-1.94715e-07
-3.15464e-07
-2.45724e-07
-2.04826e-07
-2.1524e-07
-1.81931e-07
-1.94712e-07
-2.06767e-07
-2.15854e-07
-5.3688e-08
-6.29787e-08
-7.39989e-08
-8.43162e-08
-6.19129e-08
-1.01541e-07
-1.54407e-07
-2.41603e-07
-5.03085e-07
-8.99036e-07
-1.63651e-06
-2.8569e-06
-9.94529e-06
-2.79278e-05
-6.00387e-05
-8.16264e-05
-0.000205288
-0.000349328
-0.000349114
-0.000334099
-0.000411198
-0.000411118
-0.000168879
-4.57426e-08
-4.74206e-08
-4.74544e-08
-4.74206e-08
-4.81497e-08
-5.74262e-08
-7.83842e-08
-9.00705e-08
-9.83949e-08
-1.38983e-07
-1.36194e-07
-1.22502e-07
-1.05521e-07
-8.1528e-08
-5.22585e-08
-3.58908e-08
-2.68798e-08
-9.77443e-09
-6.59274e-09
-4.73214e-09
-3.72272e-09
-1.01118e-09
-7.28578e-10
-5.55539e-10
-4.53804e-10
-1.21577e-10
-9.14509e-11
-7.17939e-11
-5.91509e-11
-1.45811e-11
-1.11114e-11
-8.86035e-12
-7.41832e-12
-1.53821e-12
-1.17911e-12
-9.48886e-13
-8.02831e-13
-1.40155e-13
-1.08135e-13
-8.78432e-14
-7.50742e-14
-1.12971e-14
-8.78255e-15
-7.21848e-15
-6.24362e-15
-7.75752e-16
-6.08136e-16
-5.06609e-16
-4.45824e-16
-4.68202e-17
-3.66325e-17
-3.03614e-17
-2.66489e-17
-2.25403e-18
-1.79865e-18
-1.51183e-18
-1.33097e-18
-8.15461e-20
-6.56323e-20
-5.60324e-20
-4.98111e-20
-1.91653e-21
-1.59466e-21
-1.38355e-21
-1.22958e-21
-2.1035e-23
-1.7779e-23
-1.57012e-23
-1.43516e-23
-6.26272e-31
-3.87108e-31
-2.41263e-31
-1.5312e-31
-501.415
-319.88
-9.28329
-35.487
-20.5388
-84.9812
-315.264
-473.936
-488.223
-488.221
-506.804
-521.919
-417.803
-170.113
-146.08
-320.762
-320.779
-314.743
-298.366
-605.789
-191.055
-82.1535
-133.42
-10.2673
-24.0712
-318.251
-549.665
-572.28
-634.805
-634.757
-610.726
-311.163
-199.114
-272.988
-367.22
-308.353
-481.947
-544.282
-638.829
-136.689
-108.862
-30.9969
-77.4715
-459.659
-706.821
-750.274
-750.275
-709.034
-698.168
-626.054
-251.46
-135.987
-135.988
-135.987
-305.019
-649.422
-649.48
-573.052
-107.967
-107.573
-272.475
-528.464
-546.89
-670.533
-795.043
-673.137
-272.922
-216.867
-340.645
-446.49
-446.215
-212.023
-246.21
-381.818
-475.155
-465.506
-452.958
-145.546
-122.723
-599.117
-727.199
-727.107
-727.131
-457.902
-379.943
-95.2202
-0.0343963
-22.8962
-213.673
-372.277
-627.688
-627.433
-353.287
-29.6864
-44.4887
-466.863
-304.679
-80.6866
-210.227
-442.38
-767.931
-798.21
-727.795
-497.2
-84.5947
-0.0385677
-0.0112448
-0.0112448
-0.0112448
-0.0112448
-0.0112448
-1.046
-24.087
-83.0419
-380.505
-258.189
-83.3233
-0.00935159
-0.00935038
-272.816
-336.578
-146.213
-43.592
-43.9183
-12.7274
-18.1595
-16.1126
-1.08754
-0.012459
-0.0418559
-0.626359
-38.364
-131.143
-65.1516
-44.5921
-65.8104
-0.256927
-0.010263
-143.58
-0.00317852
-0.00317865
-0.00317852
-72.7901
-90.6775
-90.7912
-43.0037
-0.165855
-0.0136732
-0.206266
-1.34611
-6.14532
-121.785
-0.0750498
-0.0750631
-5.06363
-0.227596
-0.0111729
-154.467
-26.2889
-0.0394084
-0.161216
-0.0008989
-6.98512
-28.8813
-10.7767
-0.095902
-0.0984906
-0.587428
-0.432675
-0.845734
-0.0734652
-45.7688
-3.59952e-08
-0.000375102
-8.90871e-05
-61.2764
-164.844
-42.2194
-0.0297942
-0.000710778
-0.000972153
-0.000972213
-0.636552
-0.63006
-0.106547
-0.0488922
-0.00696492
-1.30167e-08
-0.231028
-0.0795357
-206.436
-3.87036e-08
-3.87095e-08
-5.60425
-302.3
-98.014
-5.53846
-0.00182217
-0.00587002
-0.0187329
-0.0212736
-0.021273
-0.042104
-0.0596303
-1.39983e-08
-1.39983e-08
-1.39983e-08
-0.232915
-0.0873067
-284.039
-193.424
-48.3724
-60.4782
-58.7717
-0.152962
-0.789023
-0.00195004
-0.00194995
-0.00467497
-0.0159329
-0.0235839
-0.0269176
-0.0163479
-1.49798e-08
-1.32971e-06
-1.49798e-08
-0.510101
-0.17209
-2.71618e-07
-0.199901
-30.5689
-32.2771
-0.162985
-0.162965
-6.55989e-05
-0.00207774
-0.00486037
-0.0492313
-0.0644951
-0.0644951
-0.0644951
-0.064495
-0.00115254
-1.00196e-05
-1.59614e-08
-0.543312
-0.201626
-0.000370758
-0.146797
-0.723129
-1.22498
-1.03416
-0.088303
-4.85288e-05
-0.000935264
-0.00228198
-0.0211411
-0.0534131
-0.0684613
-0.0684613
-0.0352082
-0.00537692
-4.2679e-05
-1.6943e-08
-0.200022
-0.0579794
-0.000243024
-0.000996371
-0.184783
-1.2391
-1.40586
-0.934953
-5.13403e-05
-5.16087e-05
-0.000136488
-0.000132135
-0.000131279
-0.0101104
-0.0281555
-1.37025e-06
-0.00034787
-9.67366e-05
-3.19385e-06
-5.29723e-07
-5.14029e-07
-1.95038e-07
-0.000114934
-0.0251844
-0.479988
-1.19402
-0.833268
-5.41517e-05
-5.41518e-05
-0.00214977
-0.00140757
-0.000558988
-6.77205e-08
-6.72783e-08
-1.44471e-06
-1.37506e-07
-2.73217e-05
-1.23922e-05
-2.16671e-06
-2.16579e-06
-8.24089e-07
-9.34208e-05
-0.00144857
-0.00826235
-0.0457456
-0.0588273
-0.04129
-0.0120002
-0.00680918
-0.00343269
-0.00272817
-0.00195994
-0.00101208
-4.46907e-05
-4.41316e-07
-3.83949e-06
-5.50998e-06
-0.000113395
-7.33515e-05
-2.30917e-07
-4.81181e-07
-2.3636e-06
-2.40266e-06
-7.51234e-07
-5.79523e-08
-0.00280963
-0.00324655
-0.00205803
-0.000816998
-0.00088849
-0.00192477
-0.0013434
-0.000107161
-7.28132e-07
-2.54321e-07
-2.5436e-07
-0.000950627
-0.000503653
-1.03188e-07
-1.57327e-07
-2.14612e-07
-2.21979e-07
-2.82711e-07
-6.0266e-08
-0.000108621
-8.30218e-08
-8.30523e-08
-8.30218e-08
-8.30523e-08
-8.30218e-08
-8.30523e-08
-8.30218e-08
-8.30523e-08
-4.72746e-06
-2.64143e-06
-0.00110752
-0.000663364
-4.59228e-07
-1.06499e-06
-2.0088e-06
-2.90212e-06
-5.09594e-06
-6.45424e-06
-2.78992e-07
-2.79092e-07
-1.59132e-06
-3.26966e-06
-3.11533e-06
-1.63614e-06
-7.75623e-07
-6.12552e-07
-1.59405e-07
-8.58435e-06
-2.76001e-06
-0.000950981
-0.000171774
-6.5853e-06
-2.11055e-05
-2.92652e-05
-2.81356e-05
-2.24847e-05
-1.6416e-05
-1.0296e-05
-7.82189e-06
-6.6217e-06
-7.09859e-06
-1.68847e-05
-7.52555e-06
-2.36037e-06
-1.24722e-06
-1.83613e-07
-8.35883e-06
-2.23713e-05
-1.99432e-05
-1.99434e-05
-9.50748e-05
-9.38722e-05
-8.00219e-05
-4.23638e-05
-2.27211e-05
-1.25191e-05
-9.09257e-06
-6.36302e-06
-3.99065e-06
-2.90293e-06
-2.58189e-05
-6.91182e-05
-6.73286e-05
-1.73892e-05
-2.84778e-06
-1.11968e-06
-0.00014313
-4.27303e-05
-2.44351e-05
-0.000153748
-5.92539e-05
-1.69282e-05
-5.74248e-06
-2.27547e-06
-1.47219e-06
-1.18989e-06
-7.15238e-07
-3.10523e-07
-9.52974e-10
-9.53294e-10
-0.000804257
-0.0013575
-0.000675382
-5.08093e-05
-1.16668e-06
-0.000212451
-0.000289393
-7.56229e-05
-4.57824e-08
-4.57426e-08
-4.57824e-08
-4.57426e-08
-1.25117e-07
-3.496e-07
-2.44541e-07
-1.0167e-07
-1.84768e-08
-1.1681e-09
-9.89263e-10
-0.00115707
-0.00201127
-0.00201269
-0.000466009
-2.238e-06
-8.26838e-05
-0.000874618
-0.000344731
-5.13569e-08
-7.61698e-08
-1.58363e-07
-3.05857e-07
-3.8204e-07
-3.43019e-07
-1.67005e-07
-9.24126e-08
-3.83167e-08
-2.82518e-09
-1.02589e-09
-1.10327e-05
-0.00143255
-0.00208505
-0.00147578
-7.51818e-05
-1.26515e-05
-0.00106209
-0.000718389
-1.10367e-07
-1.36927e-07
-2.05958e-07
-2.89162e-07
-2.93344e-07
-1.62438e-07
-7.95152e-08
-5.05789e-08
-2.06144e-08
-5.51893e-09
-1.14799e-07
-3.01746e-05
-2.69708e-05
-0.00201057
-0.0020679
-0.000338321
-1.3141e-05
-0.00109957
-0.000998094
-8.9128e-08
-7.72595e-08
-9.29056e-08
-1.10142e-07
-8.76158e-08
-4.10084e-08
-2.28207e-08
-1.45239e-08
-6.36169e-09
-5.06983e-09
-5.67257e-07
-0.000145632
-0.000103784
-0.000566363
-0.0021383
-0.000882616
-1.35469e-05
-0.000429388
-0.00375488
-2.0608e-08
-1.73674e-08
-2.20116e-08
-2.42019e-08
-1.69981e-08
-8.46131e-09
-5.24524e-09
-3.2502e-09
-1.30376e-09
-2.38237e-09
-1.94927e-07
-0.000125952
-0.00145282
-0.000405971
-0.00170967
-0.00103957
-1.44675e-05
-0.000298013
-0.00467069
-3.04166e-09
-2.71336e-09
-3.32179e-09
-3.47553e-09
-2.47034e-09
-1.45264e-09
-9.81266e-10
-5.60292e-10
-1.94215e-10
-2.58848e-10
-1.26779e-08
-1.57051e-05
-0.00264419
-0.000664075
-0.000529806
-0.000961335
-0.000226413
-5.18194e-05
-0.00481985
-3.72087e-10
-3.17427e-10
-3.31895e-10
-3.47965e-10
-2.82873e-10
-2.01679e-10
-1.54648e-10
-8.0519e-11
-2.55316e-11
-6.49092e-12
-1.85009e-11
-3.72845e-15
-0.00225483
-0.00135681
-0.000546229
-0.000546227
-0.000266957
-3.6024e-05
-0.00282154
-4.73268e-11
-3.75661e-11
-3.50812e-11
-3.51342e-11
-3.04075e-11
-2.29804e-11
-1.89193e-11
-1.00144e-11
-3.32603e-12
-9.53797e-13
-1.47349e-13
-3.84056e-15
2.03111e-34
-0.00373075
-0.00145958
-0.000161975
-0.000154276
-3.71088e-05
-6.13994e-05
-6.07897e-12
-4.96976e-12
-4.63926e-12
-4.4387e-12
-3.3117e-12
-2.17095e-12
-1.79013e-12
-1.09026e-12
-3.65953e-13
-1.31682e-13
-2.51712e-14
-3.62624e-15
8.59154e-34
-0.00555186
-0.00536416
-0.000970541
-5.05982e-05
-1.64384e-05
-7.24668e-06
-6.6963e-13
-5.6116e-13
-5.23902e-13
-4.70124e-13
-3.15235e-13
-1.72231e-13
-1.38514e-13
-1.07281e-13
-3.45098e-14
-1.31202e-14
-3.17866e-15
-7.05643e-16
1.76468e-34
-0.016358
-0.0129369
-0.00424318
-0.000101682
-2.12375e-06
-2.12376e-06
-6.36527e-14
-5.47954e-14
-5.28593e-14
-4.40866e-14
-2.83075e-14
-1.24598e-14
-9.14936e-15
-9.14698e-15
-2.78063e-15
-9.57977e-16
-2.64076e-16
-7.06585e-17
6.01105e-36
-0.0254945
-0.0291468
-0.0115992
-0.000262168
-2.26285e-07
-0.0108289
-5.36815e-15
-4.68057e-15
-4.55692e-15
-3.69226e-15
-2.39694e-15
-8.45336e-16
-5.13504e-16
-6.56544e-16
-1.95443e-16
-5.77369e-17
-1.52169e-17
-4.40714e-18
-4.62623e-35
-0.00565828
-0.0979119
-0.0342808
-0.000970475
-2.3109e-07
-0.0696342
-3.9263e-16
-3.49084e-16
-3.36684e-16
-2.71428e-16
-1.82317e-16
-5.53529e-17
-2.74104e-17
-3.79329e-17
-1.18857e-17
-2.882e-18
-6.42197e-19
-1.83733e-19
-2.08312e-20
8.05371e-22
-0.303591
-0.131123
-0.00196736
-0.00291985
-0.081038
-2.3764e-17
-2.16152e-17
-2.0698e-17
-1.70645e-17
-1.22001e-17
-3.3919e-18
-1.41004e-18
-1.77579e-18
-6.05208e-19
-1.21405e-19
-2.18254e-20
-5.16566e-21
-7.64055e-22
8.4856e-21
-0.311351
-0.282749
-0.022572
-0.0392655
-0.0831022
-1.17969e-18
-1.06519e-18
-1.03729e-18
-8.79277e-19
-6.6e-19
-1.77933e-19
-6.56708e-20
-6.97956e-20
-2.36756e-20
-3.9799e-21
-5.70062e-22
-1.01972e-22
-1.43197e-23
1.13873e-20
-0.291912
-0.368044
-0.0420315
-0.0465629
-0.0851662
-4.36524e-20
-3.82573e-20
-3.87848e-20
-3.4519e-20
-2.81233e-20
-7.50141e-21
-2.52372e-21
-2.10407e-21
-7.24234e-22
-1.09465e-22
-1.3176e-23
-1.89618e-24
-2.89857e-25
9.53624e-21
-0.185755
-0.533123
-0.0771543
-0.0128576
-0.0872304
-1.08435e-21
-9.81545e-22
-1.03022e-21
-9.49628e-22
-7.89595e-22
-2.18623e-22
-6.67181e-23
-4.58224e-23
-1.3956e-23
-1.861e-24
-1.84722e-25
-2.09935e-26
-2.73105e-27
4.63893e-21
-0.190742
-0.544867
-0.119694
-0.000814504
-0.0696457
-1.31491e-23
-1.23332e-23
-1.34459e-23
-1.29289e-23
-1.13132e-23
-3.55367e-24
-9.39239e-25
-5.07625e-25
-1.38463e-25
-1.82593e-26
-1.64282e-27
-1.52999e-28
-6.04408e-29
1.06354e-21
-0.0645863
-0.558353
-0.186941
-0.000460583
-0.00624413
-7.97983e-32
-2.68687e-32
-8.22916e-33
-1.48637e-33
-1.14478e-34
-3.45259e-36
-1.12217e-37
-4.53642e-41
1.64646e-40
1.2552e-40
6.17859e-41
6.35239e-41
4.29642e-41
6.55108e-41
5.55894e-42
-0.381392
-0.165873
-0.000168479
-7.16061e-06
)
;

boundaryField
{
    leftWall
    {
        type            calculated;
        value           nonuniform List<scalar> 
50
(
-29.4294
-88.2881
-147.147
-206.006
-264.864
-323.723
-382.582
-441.44
-533.467
-658.662
-549.352
-112.09
-3.29467
-3.69136
-4.24083
-3.31554
-0.948326
-0.168878
-0.0467053
-0.000285964
-1.50503e-07
-2.0543e-08
-8.81311e-09
-3.44223e-09
-1.44897e-09
-4.86895e-10
-1.26969e-10
-2.76023e-11
-5.3693e-12
-9.94625e-13
-1.84465e-13
-3.54199e-14
-7.22468e-15
-1.65155e-15
-4.32872e-16
-1.33113e-16
-4.60631e-17
-1.72191e-17
-1.75232e-17
-3.25675e-17
-2.36949e-16
-1.59656e-15
-1.03347e-14
-4.52807e-14
-1.95182e-13
-6.41177e-13
-2.112e-12
-5.55743e-12
-1.38829e-11
-4.68658e-11
)
;
    }
    rightWall
    {
        type            calculated;
        value           nonuniform List<scalar> 
50
(
-28.0878
-86.614
-143.923
-200.211
-262.479
-320.808
-379.137
-381.924
-298.366
-544.282
-649.48
-465.506
-44.4887
-83.0419
-131.143
-121.785
-0.0734652
-0.0795357
-0.0873067
-0.17209
-0.201626
-0.0579794
-5.14029e-07
-2.16579e-06
-7.33515e-05
-0.000503653
-0.000663364
-0.000171774
-1.99434e-05
-2.44351e-05
-7.56229e-05
-0.000344731
-0.000718389
-0.000998094
-0.00375488
-0.00467069
-0.00481985
-0.00282154
-6.13994e-05
-7.24668e-06
-2.12376e-06
-0.0108289
-0.0696342
-0.081038
-0.0831022
-0.0851662
-0.0872304
-0.0696457
-0.00624413
-7.16061e-06
)
;
    }
    lowerWall
    {
        type            calculated;
        value           nonuniform List<scalar> 
62
(
0
0
0
0
0
0
0
0
0
0
0
0
0
0
0
0
0
0
0
0
0
0
0
-29.4241
-88.2629
-147.105
-205.947
-264.837
-323.723
-382.582
-441.328
-313.155
-294.528
-375.344
-436.183
-27.6083
-82.8247
-138.269
-193.605
-248.953
-304.275
-359.597
-414.919
0
0
0
0
0
0
0
0
0
0
0
0
0
0
0
0
0
0
0
)
;
    }
    atmosphere
    {
        type            calculated;
        value           nonuniform List<scalar> 
46
(
-4.73835e-11
-1.17025e-09
-1.31069e-08
-8.70233e-08
-3.70862e-07
-1.11306e-05
-0.00192288
-0.0075064
-0.00465879
-7.97435e-10
-7.97435e-10
-9.55855e-10
-1.07133e-09
-4.10013e-10
-2.23247e-11
-1.32276e-12
-8.46341e-15
-0
-0
-0
-0
-0
-0
-0
-0
-0
-0
-0
-0
-0
-0
-0
-0
-0
-0
-0
-0
-0
-0
-0
-0
-0
-0.385605
-0.167705
-0.000170341
-7.23972e-06
)
;
    }
    defaultFaces
    {
        type            empty;
    }
}


// ************************************************************************* //
