/*--------------------------------*- C++ -*----------------------------------*\
| =========                 |                                                 |
| \\      /  F ield         | OpenFOAM: The Open Source CFD Toolbox           |
|  \\    /   O peration     | Version:  2012                                  |
|   \\  /    A nd           | Website:  www.openfoam.com                      |
|    \\/     M anipulation  |                                                 |
\*---------------------------------------------------------------------------*/
FoamFile
{
    version     2.0;
    format      ascii;
    class       volScalarField;
    location    "0.59";
    object      maxKappa;
}
// * * * * * * * * * * * * * * * * * * * * * * * * * * * * * * * * * * * * * //

dimensions      [0 0 0 0 0 0 0];


internalField   nonuniform List<scalar> 
2268
(
7.27377e-07
1.46172e-06
2.11722e-06
2.65447e-06
3.12343e-06
3.67002e-06
4.10841e-06
4.33918e-06
4.52364e-06
4.58833e-06
4.58833e-06
4.51316e-06
4.35043e-06
4.16261e-06
3.96542e-06
3.71323e-06
3.3988e-06
3.05893e-06
2.72021e-06
2.37938e-06
2.0061e-06
1.58441e-06
1.18886e-06
8.74531e-07
1.52939e-06
2.1598e-06
2.69765e-06
3.17282e-06
3.70992e-06
4.13001e-06
4.35679e-06
4.56652e-06
4.61936e-06
4.61936e-06
4.52492e-06
4.38618e-06
4.18931e-06
3.96551e-06
3.70081e-06
3.39221e-06
3.07191e-06
2.73634e-06
2.36417e-06
1.91905e-06
1.37315e-06
8.70506e-07
1.14987e-06
1.7036e-06
2.27188e-06
2.7935e-06
3.27425e-06
3.78778e-06
4.16086e-06
4.38399e-06
4.58194e-06
4.62471e-06
4.62471e-06
4.55152e-06
4.43903e-06
4.25551e-06
4.02099e-06
3.74257e-06
3.43684e-06
3.14479e-06
2.85888e-06
2.54373e-06
2.1524e-06
1.65292e-06
1.15863e-06
1.40282e-06
1.89662e-06
2.39883e-06
2.9048e-06
3.39967e-06
3.89325e-06
4.2304e-06
4.47607e-06
4.67763e-06
4.71499e-06
4.71499e-06
4.64554e-06
4.50122e-06
4.2679e-06
3.9864e-06
3.69912e-06
3.41322e-06
3.14733e-06
2.85819e-06
2.56191e-06
2.24091e-06
1.93746e-06
1.61979e-06
1.75677e-06
2.1805e-06
2.5992e-06
3.07034e-06
3.57368e-06
4.03259e-06
4.31159e-06
4.55831e-06
4.73025e-06
4.74159e-06
4.74159e-06
4.69559e-06
4.57829e-06
4.37192e-06
4.11293e-06
3.81391e-06
3.49654e-06
3.23863e-06
2.99253e-06
2.73817e-06
2.43748e-06
2.15224e-06
1.85782e-06
2.04792e-06
2.42221e-06
2.7822e-06
3.23258e-06
3.75197e-06
4.18762e-06
4.45207e-06
4.74558e-06
4.92171e-06
4.92171e-06
4.90303e-06
4.83683e-06
4.66994e-06
4.3781e-06
4.05685e-06
3.75321e-06
3.44951e-06
3.21964e-06
2.99767e-06
2.81135e-06
2.60969e-06
2.51136e-06
2.50535e-06
2.44265e-06
2.75359e-06
3.05676e-06
3.47794e-06
3.99567e-06
4.38513e-06
4.61435e-06
4.89221e-06
4.99322e-06
4.99322e-06
4.9442e-06
4.90694e-06
4.7926e-06
4.56463e-06
4.27754e-06
3.93812e-06
3.54542e-06
3.28813e-06
3.10934e-06
2.99446e-06
2.82602e-06
2.87411e-06
2.87411e-06
4.07329e-06
4.38599e-06
4.54943e-06
4.83313e-06
5.2111e-06
5.53182e-06
5.36343e-06
5.37682e-06
5.26552e-06
5.26552e-06
5.23135e-06
5.14671e-06
4.9179e-06
4.57972e-06
4.21897e-06
3.88764e-06
3.50573e-06
3.26309e-06
3.12464e-06
3.1e-06
3.13318e-06
3.70237e-06
3.70237e-06
0.00102022
0.00117036
0.00125411
0.00125411
0.00115493
0.00081243
0.000595437
0.000586851
0.000647999
0.000677583
0.000677583
0.000652448
0.000640989
0.000639233
0.000632374
0.000619194
0.000602995
0.000543923
0.000379872
0.00131836
0.00220169
0.00241944
0.00241944
0.00175095
0.000914493
0.000451724
0.000733149
0.00111282
0.00111282
0.000979471
0.000766848
0.000761612
0.000835846
0.000835846
0.000827999
0.000714144
0.000482409
0.000345549
0.00140798
0.00149931
0.00168099
0.00168099
0.000820815
0.000199799
0.000441044
0.000744409
0.000756485
0.000896215
0.00141354
0.00185526
0.00197765
0.00206911
0.00209864
0.00209864
0.00180415
0.0010228
0.000376723
0.00274282
0.00274282
0.00259979
0.00114963
0.000581759
0.000309004
9.67877e-05
0.000585628
0.00154406
0.00225492
0.00225492
0.00142268
0.00167684
0.0023637
0.00259909
0.00259909
0.00222209
0.00146376
0.00049241
0.00199154
0.00199154
0.00193166
0.00136329
0.000911524
0.000477876
7.88253e-05
9.63051e-05
0.000549649
0.0018197
0.00260446
0.00260446
0.00198122
0.00166668
0.00172459
0.00172459
0.00167744
0.00165546
0.000599279
0.00175052
0.00175052
0.00114529
0.00110477
0.00110477
0.000379325
7.29503e-05
0.000119045
0.000724793
0.00157309
0.00210568
0.00210568
0.00210056
0.00130726
0.000615027
0.000950512
0.00153748
0.00153748
0.0008018
0.00161734
0.00161734
0.00149591
0.00116362
0.000956562
0.00014816
9.03063e-05
0.000619841
0.00131693
0.00165966
0.00192618
0.00215926
0.00215926
0.00147749
0.000446018
0.000564703
0.00125816
0.00125816
0.00117532
0.00166548
0.00167293
0.00167293
0.00116002
0.000609066
8.98704e-05
0.000118477
0.000929349
0.00147263
0.00166553
0.00197914
0.00219622
0.00219622
0.00160702
0.000623485
0.000480866
0.00117373
0.00117373
0.000895549
5.75237e-05
5.64519e-05
5.64702e-05
5.66788e-05
5.6776e-05
5.53666e-05
5.24786e-05
5.09455e-05
4.36617e-05
3.43672e-05
2.10011e-05
1.36784e-05
1.02341e-05
7.16617e-06
4.79146e-06
4.31903e-06
3.7311e-06
3.41656e-06
3.68322e-06
4.1063e-06
4.84124e-06
5.89077e-06
6.40028e-06
9.61823e-05
9.61823e-05
9.39831e-05
9.4502e-05
9.4525e-05
9.61331e-05
0.000101984
0.000110186
0.000138624
0.000162542
0.000216486
0.000102126
4.94252e-05
2.7719e-05
1.01187e-05
8.33347e-06
6.03705e-06
4.02983e-06
3.54979e-06
3.79935e-06
4.55462e-06
5.7082e-06
6.68169e-06
8.53611e-05
8.2476e-05
8.58856e-05
8.57304e-05
8.56339e-05
8.9584e-05
0.000106627
0.000144649
0.000199084
0.000283393
0.000283393
0.000267152
0.000126861
0.000177091
9.61243e-05
6.72036e-05
4.88637e-05
8.34311e-06
4.53262e-06
6.49912e-06
8.058e-06
7.96339e-06
7.99193e-06
7.69619e-05
7.28779e-05
7.49367e-05
7.2114e-05
6.49321e-05
6.1742e-05
7.10222e-05
0.000106459
0.000146666
0.000196322
0.000234469
0.000250155
0.000250155
0.000241318
0.000222007
0.000133742
0.000245913
0.000192049
9.59432e-05
8.22446e-05
4.34658e-05
1.682e-05
1.60017e-05
7.22722e-05
7.23527e-05
7.45941e-05
7.65216e-05
7.65216e-05
7.60146e-05
7.23381e-05
7.23688e-05
6.62463e-05
0.000103486
0.000115029
0.000194637
0.000217129
0.000215543
0.000179738
0.000272156
0.000374253
0.000374253
0.000284932
0.00020672
0.000241419
0.000238463
0.000248846
6.12141e-05
6.02506e-05
5.98134e-05
6.05738e-05
6.0273e-05
6.15487e-05
6.38157e-05
7.5813e-05
7.84018e-05
8.12057e-05
9.44436e-05
9.29413e-05
0.000130509
0.000107458
0.000110877
0.000173748
0.00025155
0.000270527
0.000219413
0.000314774
0.000418125
0.000441088
0.000441088
5.5612e-05
5.5612e-05
5.4711e-05
5.3644e-05
5.15575e-05
4.75227e-05
4.51578e-05
4.89083e-05
4.18195e-05
4.4744e-05
5.55734e-05
7.17002e-05
6.38096e-05
5.00009e-05
5.89361e-05
0.000126819
0.000113199
0.000140407
0.000135172
0.000189303
0.000281427
0.000311691
0.000364089
4.65402e-05
4.55116e-05
4.38035e-05
4.23175e-05
3.95218e-05
3.71862e-05
3.28092e-05
3.61421e-05
3.69903e-05
3.69903e-05
3.66356e-05
4.26314e-05
5.56259e-05
3.94306e-05
6.93238e-05
7.26511e-05
8.16282e-05
0.00011017
0.000129989
0.00013451
0.00014714
0.000149073
0.000217227
4.46695e-05
4.46695e-05
4.29097e-05
4.05891e-05
3.64297e-05
3.12631e-05
2.4762e-05
2.35356e-05
1.93466e-05
2.31489e-05
3.01618e-05
3.69266e-05
4.14814e-05
4.14814e-05
5.41904e-05
7.21505e-05
6.47501e-05
0.000108184
0.000155806
0.000195352
0.000225773
0.000253564
0.00028668
3.8264e-05
3.71889e-05
3.46481e-05
3.20957e-05
2.69582e-05
2.29822e-05
1.70246e-05
1.45987e-05
1.59894e-05
1.82103e-05
2.25782e-05
2.60047e-05
3.85268e-05
4.12143e-05
5.4348e-05
6.62939e-05
7.92452e-05
9.36014e-05
0.000127875
0.000154089
0.00019979
0.000255518
0.000324983
3.98069e-05
3.98069e-05
3.78232e-05
3.52572e-05
3.10357e-05
2.60762e-05
2.03538e-05
1.44119e-05
1.32391e-05
1.90312e-05
2.70161e-05
3.57762e-05
4.46161e-05
5.17221e-05
6.37119e-05
7.76396e-05
9.4895e-05
0.000125365
0.000161581
0.000205251
0.000253973
0.000313811
0.000355533
3.58527e-05
3.516e-05
3.24756e-05
3.05922e-05
2.59361e-05
2.27361e-05
1.80498e-05
1.53399e-05
1.36292e-05
1.89552e-05
2.49605e-05
3.16316e-05
4.21233e-05
5.07904e-05
6.40893e-05
7.68103e-05
9.6703e-05
0.000117014
0.00014947
0.000189801
0.000243443
0.000313632
0.000376969
4.01064e-05
4.01064e-05
3.84843e-05
3.65131e-05
3.35393e-05
3.01917e-05
2.70497e-05
2.45297e-05
2.54468e-05
2.9944e-05
3.59401e-05
4.39906e-05
5.37318e-05
6.51299e-05
7.93639e-05
9.65319e-05
0.000117602
0.000145385
0.000179024
0.000223157
0.000278322
0.00035087
0.000399621
4.07413e-05
4.0525e-05
3.84891e-05
3.75462e-05
3.45722e-05
3.29732e-05
3.06555e-05
3.09968e-05
3.02493e-05
3.60256e-05
3.88792e-05
4.87693e-05
5.62262e-05
6.90757e-05
8.17574e-05
9.96106e-05
0.000121429
0.000149291
0.000184193
0.000228783
0.000284505
0.000357313
0.000405003
4.53044e-05
4.53406e-05
4.41668e-05
4.31487e-05
4.14089e-05
4.02743e-05
3.91156e-05
4.0322e-05
4.11263e-05
4.65243e-05
5.15973e-05
5.99547e-05
7.03998e-05
8.33237e-05
9.87009e-05
0.000117809
0.000140995
0.000169711
0.00020455
0.00024827
0.000300859
0.000367477
0.00040674
5.01184e-05
5.03151e-05
4.89517e-05
4.87944e-05
4.76126e-05
4.72946e-05
4.73236e-05
4.89271e-05
5.00136e-05
5.63288e-05
5.90614e-05
7.07138e-05
7.65793e-05
9.3207e-05
0.000105826
0.000126099
0.000149595
0.00017877
0.000214019
0.000256973
0.000308711
0.000370976
0.000408169
5.65866e-05
5.69836e-05
5.58804e-05
5.60635e-05
5.56057e-05
5.58666e-05
5.69625e-05
5.89227e-05
6.13174e-05
6.75781e-05
7.24023e-05
8.31904e-05
9.2673e-05
0.000107218
0.000123111
0.000143415
0.00016769
0.000196999
0.000231893
0.000273446
0.000322409
0.000379651
0.000413479
6.35304e-05
6.40168e-05
6.31307e-05
6.34074e-05
6.35577e-05
6.41398e-05
6.61397e-05
6.83568e-05
7.20498e-05
7.83846e-05
8.34547e-05
9.53418e-05
0.000102783
0.000120835
0.000134594
0.000156971
0.000180208
0.000209716
0.000244647
0.000285714
0.000333887
0.000388873
0.000422723
7.13147e-05
7.18064e-05
7.10894e-05
7.14171e-05
7.1937e-05
7.27816e-05
7.54163e-05
7.78031e-05
8.28534e-05
8.90332e-05
9.65776e-05
0.000107661
0.000119291
0.000135013
0.00015206
0.00017329
0.000198362
0.000227905
0.000262363
0.000302557
0.000348831
0.00040173
0.000435573
7.92768e-05
7.95401e-05
7.91048e-05
7.92947e-05
7.99861e-05
8.08579e-05
8.37396e-05
8.61871e-05
9.20574e-05
9.80541e-05
0.000106701
0.000118059
0.00013115
0.000147332
0.000166547
0.000188461
0.000214722
0.000244844
0.00027918
0.000319102
0.000364098
0.000415498
0.000450403
8.71057e-05
8.69544e-05
8.68608e-05
8.6759e-05
8.73651e-05
8.80798e-05
9.08493e-05
9.40626e-05
9.99086e-05
0.000107429
0.000117559
0.00012929
0.000144217
0.000160919
0.00018172
0.000204433
0.000231865
0.000262636
0.000297565
0.000337565
0.000381658
0.000431481
0.00046916
9.41664e-05
9.36471e-05
9.39618e-05
9.35856e-05
9.42085e-05
9.47704e-05
9.72454e-05
9.92735e-05
0.000105079
0.000111567
0.00012239
0.000135447
0.000151647
0.000170428
0.00019308
0.000218048
0.000247837
0.000280268
0.000317446
0.000358941
0.000403655
0.000453164
0.000490062
0.000100222
9.94784e-05
0.000100021
9.93789e-05
9.99403e-05
0.00010029
0.000102287
0.000105826
0.000110623
0.000117603
0.000127123
0.000139411
0.000155103
0.000174347
0.000197666
0.000224211
0.000256179
0.000290637
0.00033085
0.00037436
0.000421164
0.000472372
0.000514003
0.000104783
0.00010404
0.00010471
0.000104094
0.000104854
0.000105199
0.000107171
0.00010868
0.000113269
0.000117065
0.000125919
0.000138466
0.0001548
0.000175374
0.000200024
0.000229133
0.000263389
0.000301066
0.000345436
0.000392157
0.0004433
0.000498387
0.000533288
0.000108093
0.00010745
0.00010813
0.000107871
0.000108728
0.00011017
0.000112132
0.00011527
0.000119318
0.000125194
0.000133019
0.000143483
0.000157288
0.000175127
0.000197196
0.000224667
0.000257596
0.000295904
0.000341876
0.000390628
0.000446738
0.000506752
0.000549383
0.000109818
0.000109315
0.000110065
0.000109905
0.000111292
0.0001122
0.000114888
0.000117096
0.000122089
0.000126289
0.000134728
0.000142569
0.000155908
0.000172748
0.000195353
0.000223792
0.000257731
0.000298433
0.000346006
0.000397701
0.000459581
0.000525088
0.000557111
0.000110817
0.000111099
0.000111689
0.000112751
0.000114419
0.000116851
0.000120016
0.000124397
0.000129792
0.000136839
0.000145511
0.000156264
0.000169375
0.000185437
0.000205025
0.00022955
0.000259138
0.000295879
0.000339224
0.00038943
0.000451648
0.000517755
0.000561907
0.000110259
0.000109874
0.00011071
0.000110917
0.000113175
0.000115266
0.000119719
0.00012374
0.000130909
0.000137397
0.000147983
0.000157985
0.000172986
0.000188058
0.000209198
0.000231263
0.000263034
0.000302095
0.000347242
0.000400783
0.000464696
0.000531824
0.00057087
0.000109477
0.000109896
0.000110954
0.000112911
0.000115747
0.000119727
0.000124821
0.000131433
0.00013946
0.00014935
0.000161141
0.000175195
0.000191706
0.000211062
0.00023325
0.000258757
0.000288052
0.000323126
0.000363665
0.00041334
0.000471844
0.00053469
0.000589251
0.000107373
0.000107197
0.000108342
0.000109235
0.000112345
0.000115115
0.000120665
0.00012749
0.000136429
0.00014639
0.000160107
0.000173904
0.00019307
0.000212293
0.000237817
0.000264527
0.000299103
0.000335153
0.000380697
0.000434944
0.000497261
0.000565383
0.000620562
0.000104517
0.000104476
0.000105935
0.000108671
0.000112585
0.000118084
0.000125097
0.000134051
0.000144928
0.000158151
0.000173836
0.000192322
0.000213878
0.000238917
0.000267896
0.000301328
0.000338753
0.000379931
0.000424691
0.000475287
0.000530973
0.000594857
0.000656939
0.000100369
0.00010031
0.000101817
0.000103233
0.000107444
0.0001113
0.00011883
0.000127813
0.000139283
0.00015321
0.000169631
0.000188936
0.000211282
0.000237111
0.000268247
0.000302811
0.00034691
0.000393236
0.00044962
0.000506046
0.000568896
0.00063572
0.00069856
9.57147e-05
9.56996e-05
9.73394e-05
0.000100432
0.000105081
0.000111668
0.00012017
0.000131096
0.000144447
0.000160832
0.000180397
0.000203781
0.000231284
0.000263673
0.000301629
0.000345859
0.00039677
0.000453622
0.000513726
0.000573733
0.000632949
0.000690636
0.000762564
8.99227e-05
8.99485e-05
9.17003e-05
9.34393e-05
9.82896e-05
0.000102899
0.000111741
0.000121974
0.000135815
0.000152893
0.00017342
0.000198238
0.000227701
0.000262935
0.000304376
0.000352958
0.000408762
0.00047509
0.000554836
0.000635378
0.000722216
0.000809153
0.000903516
8.38831e-05
8.38816e-05
8.55743e-05
8.82236e-05
9.299e-05
9.99295e-05
0.000109204
0.000121445
0.000136815
0.000155909
0.00017928
0.000207959
0.000242822
0.000285277
0.000336638
0.000398483
0.000471552
0.000556307
0.000652197
0.000751713
0.000858671
0.000975703
0.00109384
7.71297e-05
7.70988e-05
7.86932e-05
8.03403e-05
8.51148e-05
8.9853e-05
9.89718e-05
0.000109197
0.000124731
0.000144355
0.000168457
0.00019839
0.000235491
0.000281895
0.000339475
0.000410259
0.000495575
0.000596168
0.000727432
0.000865334
0.000996029
0.00113329
0.00127404
7.04203e-05
7.02246e-05
7.15066e-05
7.27541e-05
7.70169e-05
8.22234e-05
9.047e-05
0.000101815
0.000116922
0.000137079
0.000163604
0.000197877
0.000242106
0.000298235
0.000369544
0.000460567
0.000575477
0.000716493
0.000869834
0.0010085
0.00114215
0.00128384
0.00143286
6.37674e-05
6.33571e-05
6.426e-05
6.50949e-05
6.8899e-05
7.2806e-05
8.10433e-05
9.20718e-05
0.000108474
0.000129825
0.000157764
0.000193745
0.000240569
0.000301176
0.000379343
0.000481623
0.000616753
0.000771793
0.000916985
0.00105879
0.00123031
0.00141198
0.00156561
5.74168e-05
5.67128e-05
5.69981e-05
5.69529e-05
5.95844e-05
6.21556e-05
6.87929e-05
7.63683e-05
8.9339e-05
0.000105317
0.000128589
0.000163052
0.000211861
0.000280754
0.000374654
0.000498952
0.000654437
0.000839207
0.00101904
0.00116926
0.00134189
0.00153163
0.00166881
5.18105e-05
5.08517e-05
5.06178e-05
4.98776e-05
5.16462e-05
5.35338e-05
6.13207e-05
7.36622e-05
9.14496e-05
0.00011589
0.000149362
0.000194836
0.00025575
0.00033671
0.000439931
0.000572951
0.000742488
0.000950454
0.00110643
0.00118397
0.0013947
0.00161113
0.00173897
4.65855e-05
4.53408e-05
4.44414e-05
4.27169e-05
4.30703e-05
4.32566e-05
4.72456e-05
5.32132e-05
6.47996e-05
8.2921e-05
0.000110259
0.000150679
0.000208259
0.000295745
0.000428647
0.000640949
0.000938917
0.00117525
0.00124374
0.00127389
0.00145395
0.00166562
0.00178388
4.2525e-05
4.11562e-05
4.00763e-05
3.82504e-05
3.97539e-05
4.57039e-05
5.58461e-05
7.05468e-05
9.13071e-05
0.000119737
0.00015952
0.000216536
0.000302068
0.000434759
0.000647654
0.000937961
0.00119075
0.00127505
0.00127505
0.00126223
0.00147198
0.00169074
0.00178388
7.84996e-06
7.17956e-06
8.46749e-06
3.18982e-05
8.61008e-06
8.69104e-06
1.04153e-05
1.00819e-05
9.40568e-06
9.94405e-06
1.13095e-05
1.18109e-05
1.94872e-05
2.28788e-05
2.67804e-05
2.99172e-05
0.000257035
0.000277582
0.000280856
0.000251775
0.000410077
0.000469593
0.000507252
0.000531575
0.000410077
0.000469593
0.000507252
0.000555825
0.000301066
0.000350033
0.000415741
0.000503996
0.000313814
0.000335752
0.000349523
0.000395839
0.000380996
0.00042384
0.000468036
0.000538704
0.000425878
0.000481827
0.000546174
0.000645011
0.000456482
0.000518308
0.000598777
0.000720742
0.000475434
0.000537341
0.000608338
0.000720742
0.000475434
0.000537341
0.000608338
0.000716612
0.000471483
0.000527277
0.000578452
0.000651739
0.000466883
0.000514567
0.000557291
0.000612158
0.000465287
0.000504706
0.000544297
0.000588975
0.000471211
0.000502628
0.000538197
0.000575083
0.000480598
0.000509287
0.000542795
0.00057422
0.000493288
0.000519901
0.000550935
0.000580159
0.000511045
0.00053636
0.000565815
0.000592985
0.000532117
0.000556845
0.000585557
0.000611169
0.000557847
0.000583026
0.000612231
0.0006374
0.000580586
0.00060746
0.000638591
0.000665036
0.000601656
0.000631252
0.000665448
0.000694448
0.000614222
0.000646718
0.000684581
0.000717346
0.000622252
0.000657862
0.00069974
0.000737063
0.000632431
0.000671376
0.000715842
0.000756825
0.000653989
0.000696693
0.000741577
0.000785771
0.0006871
0.000729526
0.000773188
0.000820519
0.000719944
0.000759606
0.000803854
0.000852553
0.000749134
0.000786083
0.000824647
0.000867236
0.000813874
0.000847296
0.000874837
0.000905554
0.000965077
0.000991529
0.00101432
0.00103479
0.00116064
0.00118709
0.00121214
0.00122984
0.00135216
0.00138756
0.00141592
0.00143539
0.00152316
0.00156414
0.00159505
0.0016165
0.00166785
0.00171318
0.00174859
0.00177172
0.00178254
0.00183085
0.00187025
0.00189396
0.00185986
0.00191063
0.00195259
0.00197773
0.00190617
0.00195987
0.00200277
0.00202932
0.00190617
0.00195987
0.00200277
0.00202932
0.000673948
0.00112103
0.000933676
0.000685439
0.000194568
6.45726e-05
0.000395843
0.00106636
0.0011336
0.00118469
0.00189647
0.00240683
0.00235076
0.00160426
0.000601231
0.000469117
0.000946125
0.00122082
0.000541547
6.50129e-05
0.000268391
0.000145187
7.2141e-05
4.17621e-05
8.90183e-05
0.000703889
0.000973857
0.000973857
0.00093131
0.001975
0.00272051
0.00249192
0.0015028
0.000463446
0.000389549
0.000954662
0.00136465
0.000541089
1.72266e-05
2.28984e-05
2.18755e-05
2.504e-05
2.97868e-05
9.66464e-05
0.000820794
0.000933565
0.000918246
0.00110866
0.00247989
0.00280194
0.00253575
0.00134178
0.000369676
0.000390645
0.000922484
0.00136465
0.000499582
3.00274e-05
3.14276e-05
2.69346e-05
1.93217e-05
2.64281e-05
0.00014645
0.000913982
0.00103593
0.00091844
0.00179467
0.00275532
0.00280194
0.00231815
0.00103767
0.000301539
0.000452692
0.000896696
0.00124306
0.000457633
0.000227844
0.000140872
0.000117055
7.22248e-05
2.69565e-05
0.000211568
0.000929199
0.00103593
0.00112833
0.00205171
0.00260673
0.00260673
0.00200328
0.000702732
0.000385662
0.000455277
0.000866245
0.00115812
0.000418689
0.000559609
0.000431113
0.000339027
0.000196182
7.45305e-05
0.000117534
0.000773248
0.00108256
0.00138503
0.00202035
0.00233289
0.00233289
0.00157017
0.000630039
0.000491768
0.000498913
0.000849149
0.00107842
0.000375947
0.000888575
0.000888575
0.000762611
0.000536698
0.000287763
0.000107557
0.000692101
0.00110281
0.00127997
0.00171034
0.00199957
0.00191254
0.00129999
0.00072364
0.000611445
0.000491147
0.000786482
0.000970142
0.000293239
0.000655039
0.000872286
0.000872286
0.000753709
0.00054685
0.00025445
0.000426016
0.00108116
0.00127849
0.00144786
0.0016519
0.00126075
0.000909814
0.000886991
0.000788086
0.00056043
0.000656805
0.000755048
0.000170532
0.000429551
0.000655007
0.000842168
0.000921231
0.000734475
0.000464005
0.000246022
0.000641637
0.000995489
0.00107529
0.00117095
0.000928103
0.000821508
0.00075124
0.000689
0.000600022
0.000600022
0.000488523
9.26484e-05
0.000696879
0.000951971
0.00123288
0.00127664
0.0012235
0.000898596
0.000451168
0.000276213
0.000580712
0.000841607
0.000652603
0.000629961
0.000542075
0.000487983
0.00052781
0.000634683
0.000634683
0.000288986
5.21766e-05
0.00100062
0.00124002
0.00139301
0.00146739
0.00146739
0.00135344
0.000931787
0.000350375
0.000243462
0.000409591
0.000247419
0.000250303
0.000239569
0.000312955
0.000369032
0.000394232
0.000253902
0.000150341
4.78477e-05
0.00111866
0.00126691
0.00143984
0.0015902
0.00130683
0.000979415
0.000867216
0.000715749
0.000450099
0.000195256
0.000163545
0.000288829
0.000359831
0.000367966
0.000335996
0.000397532
0.000397532
0.000324238
7.24099e-05
0.00108467
0.00110648
0.00142445
0.00169804
0.00169804
0.00119177
0.000704399
0.000494053
0.000408091
0.000340447
0.000324516
0.000551053
0.000561684
0.000561684
0.000439956
0.000268335
0.000208325
0.000112473
1.87783e-05
0.00108235
0.00108235
0.000979989
0.00111998
0.00119655
0.00114994
0.00112568
0.00104159
0.000796753
0.000620652
0.000485882
0.000256458
0.000217115
0.000303136
0.000234256
0.00013965
5.37179e-05
1.79624e-05
1.08509e-05
0.000896237
0.00101715
0.000954507
0.00061552
0.000721076
0.000955023
0.00113887
0.00123153
0.00129958
0.00119394
0.0010494
0.000886722
0.000606112
0.000284218
0.000152079
6.47982e-05
2.44871e-05
9.9065e-06
1.0722e-05
0.000819309
0.000891933
0.000891933
0.000721369
0.000496492
0.000980588
0.00135691
0.00157963
0.00160391
0.00160391
0.00145751
0.00123348
0.00104005
0.000864499
0.000719937
0.000454522
7.09457e-05
1.81928e-05
1.0722e-05
0.000771977
0.000873341
0.00089698
0.00089698
0.000783648
0.000723858
0.00089743
0.00113227
0.00125226
0.00125821
0.00120025
0.00115271
0.00105866
0.000907497
0.000795101
0.000755451
0.000327083
4.98073e-05
1.27959e-05
0.000744731
0.0008386
0.000913939
0.000979446
0.000979446
0.000945532
0.000765729
0.000590211
0.000599839
0.000842818
0.000888098
0.000882894
0.000940337
0.000940337
0.000916768
0.000916432
0.000644519
8.96909e-05
1.66638e-05
0.000742257
0.000829768
0.000916115
0.00101578
0.00108176
0.00108176
0.00105133
0.000904065
0.000742664
0.000620159
0.000596872
0.000591827
0.000828729
0.000989177
0.000989177
0.000991751
0.000850032
0.000349034
6.11727e-05
0.000740814
0.00082443
0.000907849
0.00100916
0.00110234
0.00114108
0.00114108
0.00109124
0.00096159
0.000759091
0.000543199
0.000385846
0.000561598
0.000886031
0.00114432
0.00122961
0.00122961
0.000940425
0.000497307
0.000743962
0.000819308
0.000892292
0.000972147
0.00104398
0.00109343
0.00109343
0.00107517
0.000977492
0.000807353
0.000604669
0.000401771
0.000301976
0.000489921
0.000857432
0.00109656
0.00109656
0.00106976
0.0009306
0.000758766
0.000832346
0.000900573
0.00097179
0.00102073
0.00104579
0.00104579
0.00103175
0.000950389
0.000800613
0.00061425
0.000403328
0.000206719
0.000279169
0.000615364
0.000873661
0.00101232
0.00111357
0.00106148
0.000773152
0.000841357
0.000901694
0.000961758
0.00100442
0.0010167
0.0010167
0.000990002
0.000913997
0.000788441
0.000634623
0.000462216
0.000284475
0.000198184
0.000539564
0.000909007
0.00108578
0.00111357
0.00107954
0.000809314
0.000876331
0.000932815
0.00098287
0.00101505
0.00101876
0.00101876
0.00098905
0.00091949
0.000806751
0.000674497
0.00052897
0.000378024
0.000434163
0.000599098
0.000989515
0.00117162
0.0011633
0.0010674
0.000838352
0.000907359
0.000963789
0.00101171
0.00104422
0.00105135
0.00105135
0.00102787
0.000972932
0.000881618
0.000773648
0.000662671
0.000579783
0.000703584
0.00086979
0.00139245
0.00151754
0.00151754
0.00127964
0.000888777
0.000963642
0.00102297
0.00106759
0.00109498
0.00110172
0.00110172
0.00108211
0.00104318
0.000972737
0.000898238
0.000822883
0.000840724
0.000840724
0.00089517
0.00139478
0.00139478
0.00130761
0.0010993
0.000916331
0.00100551
0.00107852
0.00113277
0.00116686
0.00118331
0.00118331
0.00117081
0.00114376
0.00108895
0.00104304
0.00100183
0.00108122
0.000998067
0.000959997
0.00128366
0.00124448
0.00124448
0.00105259
0.00096561
0.00106735
0.00115495
0.0012217
0.00126096
0.00128116
0.00128116
0.00127454
0.00125989
0.00122015
0.00119794
0.00123001
0.00131422
0.00116762
0.00106907
0.00143193
0.00143193
0.00130364
0.00109223
0.000985808
0.00110414
0.00121519
0.00130807
0.00137068
0.00140783
0.00140882
0.00140882
0.0013982
0.00136617
0.0013583
0.0014499
0.0014952
0.00134404
0.00100509
0.00135728
0.00139738
0.00139738
0.00124308
0.00104953
0.00118201
0.00130436
0.00141198
0.00149213
0.00154152
0.00155129
0.00155129
0.00154808
0.00152275
0.00152041
0.00161195
0.00162757
0.00150968
0.000831914
0.00125967
0.00142398
0.00142398
0.00120508
0.00108438
0.00123683
0.00139
0.00153111
0.00163775
0.00170775
0.00172446
0.00172446
0.00171936
0.00169051
0.00169072
0.00177266
0.00177266
0.00168595
0.000819532
0.00131127
0.00145127
0.00145127
0.00097314
0.00114301
0.00131934
0.00151044
0.00169306
0.00182475
0.00189521
0.00190553
0.00190553
0.00189421
0.00185874
0.00183776
0.00190137
0.00190137
0.00183521
0.000999709
0.00136846
0.00153076
0.00151601
0.000948267
0.00108129
0.00123286
0.00145685
0.0017434
0.0020045
0.00215215
0.00216596
0.00216596
0.00212373
0.00205826
0.00200865
0.00204235
0.00204235
0.00199357
0.00128023
0.00130229
0.00162305
0.00162305
0.000973319
0.00111205
0.00118772
0.00134242
0.00160753
0.00193903
0.00221671
0.00233961
0.00233961
0.00233307
0.00224854
0.00216117
0.00214825
0.00214825
0.0021111
0.00150458
0.0011958
0.00170611
0.00170611
0.0010121
0.00127829
0.00128201
0.00129161
0.00146424
0.00175432
0.00212836
0.00237874
0.00247308
0.00247308
0.00244224
0.00233828
0.00227007
0.00227007
0.00224445
0.00175394
0.0010922
0.00176898
0.00176898
0.00118501
0.00152799
0.00152799
0.00147911
0.0013558
0.00142139
0.00187336
0.00223748
0.00242673
0.00247987
0.00247987
0.00243238
0.00236916
0.00235074
0.0023283
0.00192703
0.00105994
0.00171129
0.00171129
0.00123512
0.00171756
0.00171756
0.00161773
0.0013805
0.00098244
0.00145581
0.00202431
0.00233716
0.00247083
0.0024718
0.0024718
0.0024476
0.00243508
0.00241286
0.00205073
0.00113989
0.00160042
0.00160042
0.00120294
0.00190839
0.00190839
0.00180875
0.00157228
0.00117549
0.000842491
0.00163755
0.0020795
0.0023241
0.00240132
0.00242284
0.00243762
0.00243762
0.00243235
0.00213226
0.00126504
0.00144375
0.0015386
0.00114373
0.00205438
0.00205438
0.00195416
0.00172088
0.00135931
0.000809914
0.00137123
0.00187065
0.00219873
0.0023421
0.00241153
0.00244937
0.00244937
0.00243606
0.00214353
0.00136512
0.00133775
0.00149086
0.00106381
0.00217574
0.00217574
0.00208138
0.00187485
0.00157196
0.00106108
0.00100333
0.00150639
0.0019332
0.00215633
0.00228864
0.00237621
0.0023909
0.0023909
0.00214795
0.00135145
0.00115206
0.00153834
0.000872011
0.00224231
0.00224231
0.0021476
0.00194295
0.00165156
0.00121371
0.000936772
0.00136701
0.00181844
0.00208238
0.0022563
0.0023738
0.00238774
0.00238774
0.00218369
0.00159101
0.00144774
0.00178403
0.00116078
0.00229272
0.00229272
0.00220079
0.00200041
0.00173427
0.00130703
0.000840978
0.00101296
0.00146207
0.0017889
0.00203772
0.00221258
0.00227771
0.00227771
0.00200647
0.00143698
0.00171307
0.00178403
0.00174663
)
;

boundaryField
{
    leftWall
    {
        type            calculated;
        value           uniform 0;
    }
    rightWall
    {
        type            calculated;
        value           uniform 0;
    }
    lowerWall
    {
        type            calculated;
        value           uniform 0;
    }
    atmosphere
    {
        type            calculated;
        value           uniform 0;
    }
    defaultFaces
    {
        type            empty;
    }
}


// ************************************************************************* //
