/*--------------------------------*- C++ -*----------------------------------*\
| =========                 |                                                 |
| \\      /  F ield         | OpenFOAM: The Open Source CFD Toolbox           |
|  \\    /   O peration     | Version:  2012                                  |
|   \\  /    A nd           | Website:  www.openfoam.com                      |
|    \\/     M anipulation  |                                                 |
\*---------------------------------------------------------------------------*/
FoamFile
{
    version     2.0;
    format      ascii;
    class       volScalarField;
    location    "0.59";
    object      minKappa;
}
// * * * * * * * * * * * * * * * * * * * * * * * * * * * * * * * * * * * * * //

dimensions      [0 0 0 0 0 0 0];


internalField   nonuniform List<scalar> 
2268
(
2.1026e-07
5.46794e-07
8.66807e-07
1.15454e-06
1.37493e-06
1.60076e-06
1.88713e-06
2.00652e-06
2.10339e-06
2.19284e-06
2.15894e-06
2.11267e-06
2.01645e-06
1.93085e-06
1.81747e-06
1.68653e-06
1.523e-06
1.37451e-06
1.20431e-06
1.03753e-06
8.17516e-07
5.80225e-07
3.94044e-07
2.1026e-07
5.46794e-07
8.66807e-07
1.15454e-06
1.37493e-06
1.60076e-06
1.88713e-06
2.00652e-06
2.10339e-06
2.19284e-06
2.15894e-06
2.11267e-06
2.01645e-06
1.93085e-06
1.81747e-06
1.68653e-06
1.523e-06
1.37451e-06
1.20431e-06
1.03753e-06
8.17516e-07
5.80225e-07
3.7715e-07
3.35502e-07
6.21217e-07
9.06685e-07
1.18775e-06
1.40741e-06
1.63954e-06
1.90399e-06
2.01444e-06
2.11664e-06
2.20714e-06
2.16183e-06
2.1279e-06
2.04309e-06
1.94811e-06
1.82595e-06
1.6911e-06
1.53611e-06
1.40198e-06
1.24238e-06
1.07713e-06
8.47052e-07
5.83068e-07
3.7715e-07
4.7503e-07
7.31348e-07
9.70097e-07
1.23729e-06
1.45576e-06
1.6984e-06
1.93177e-06
2.0341e-06
2.15335e-06
2.22294e-06
2.19123e-06
2.15551e-06
2.06985e-06
1.95848e-06
1.82595e-06
1.6911e-06
1.54632e-06
1.4274e-06
1.27454e-06
1.13841e-06
9.37871e-07
7.58931e-07
5.55987e-07
6.24658e-07
8.68524e-07
1.05829e-06
1.30377e-06
1.52011e-06
1.77556e-06
1.97029e-06
2.06681e-06
2.20303e-06
2.24335e-06
2.22606e-06
2.18877e-06
2.10239e-06
1.98095e-06
1.84693e-06
1.70383e-06
1.5618e-06
1.45626e-06
1.30884e-06
1.196e-06
1.01501e-06
9.17765e-07
7.27075e-07
7.84473e-07
1.01357e-06
1.16163e-06
1.38161e-06
1.59717e-06
1.86499e-06
2.01998e-06
2.12188e-06
2.27534e-06
2.28641e-06
2.27188e-06
2.23337e-06
2.13754e-06
1.99789e-06
1.86328e-06
1.71304e-06
1.56974e-06
1.48249e-06
1.34852e-06
1.2742e-06
1.1111e-06
1.09289e-06
9.69093e-07
9.58936e-07
1.16322e-06
1.28279e-06
1.47666e-06
1.69473e-06
1.96686e-06
2.08472e-06
2.20022e-06
2.3548e-06
2.33123e-06
2.32281e-06
2.28232e-06
2.18987e-06
2.03662e-06
1.90233e-06
1.73269e-06
1.57319e-06
1.50244e-06
1.38378e-06
1.36007e-06
1.20886e-06
1.29359e-06
1.24868e-06
1.17367e-06
1.34835e-06
1.44964e-06
1.6193e-06
1.84216e-06
2.10012e-06
2.18501e-06
2.32131e-06
2.44803e-06
2.39878e-06
2.41045e-06
2.34115e-06
2.24824e-06
2.07354e-06
1.94203e-06
1.75651e-06
1.57592e-06
1.52023e-06
1.42599e-06
1.45428e-06
1.31757e-06
1.47875e-06
1.62921e-06
0.000431857
0.000517869
0.000673759
0.000609299
0.000427234
0.00023365
0.000186038
0.000209375
0.000288702
0.000315081
0.000301046
0.000275566
0.000274483
0.000278374
0.000277194
0.000269448
0.000250929
0.00018675
0.000122476
0.000431857
0.000515599
0.000673759
0.000609299
0.000410804
8.61379e-05
0.000137532
0.000209375
0.000288702
0.000315081
0.000301046
0.000275566
0.000274483
0.000278374
0.000277194
0.000269448
0.000250929
0.000180806
0.000122476
0.000668965
0.000515599
0.0008663
0.00031302
0.000199799
4.71187e-05
3.33851e-05
0.000185629
0.000391706
0.000414774
0.000394705
0.000433599
0.000462543
0.000524437
0.000574813
0.000539704
0.000373596
0.000180806
0.00012822
0.000736288
0.000922478
0.000733038
0.00031302
0.000269778
4.71187e-05
1.70367e-05
4.12898e-05
0.000163956
0.00063763
0.000709466
0.000504179
0.000493521
0.000771357
0.000925958
0.000846493
0.000742952
0.000341818
0.000144609
0.000624047
0.0010194
0.000379
0.000335874
0.000320444
7.80576e-05
1.70367e-05
2.53154e-05
9.63051e-05
0.00050701
0.000960614
0.000738915
0.000493521
0.000504505
0.000469161
0.000478015
0.000674108
0.000529131
0.000168334
0.00059579
0.000950062
0.000229976
0.000519502
0.000308125
4.01081e-05
1.95045e-05
2.53154e-05
0.0001116
0.00050701
0.000806093
0.000986841
0.000601316
0.000355206
9.57545e-05
0.000195678
0.000451326
0.000680063
0.000200558
0.000571938
0.000882685
0.000229976
0.000503052
0.00014816
2.35486e-05
2.01617e-05
4.29876e-05
0.000294293
0.00057103
0.000753787
0.000931995
0.000825047
0.000355206
6.44565e-05
0.000134152
0.000310301
0.000771775
0.00031033
0.000571938
0.000882685
0.000475565
0.000503052
8.98704e-05
2.35486e-05
2.08681e-05
0.000118477
0.000526334
0.000665805
0.000753787
0.000931995
0.000917187
0.000389859
6.44565e-05
0.000134152
0.000310301
0.000793857
0.000345291
4.07329e-06
4.38599e-06
4.54943e-06
4.83313e-06
5.2111e-06
5.53182e-06
5.36343e-06
5.37682e-06
5.08846e-06
4.50169e-06
4.20903e-06
3.85314e-06
3.64977e-06
3.34731e-06
3.13913e-06
2.81016e-06
2.47733e-06
2.40162e-06
2.35412e-06
2.50286e-06
2.49281e-06
2.94473e-06
3.56085e-06
5.75237e-05
5.64519e-05
5.64702e-05
5.66788e-05
5.6776e-05
5.53666e-05
5.24786e-05
5.09455e-05
4.36617e-05
3.43672e-05
2.10011e-05
1.36784e-05
1.02341e-05
7.14425e-06
4.5153e-06
3.67072e-06
3.10447e-06
3.00734e-06
3.00734e-06
3.16364e-06
3.63383e-06
4.55462e-06
5.3951e-06
7.69619e-05
7.28779e-05
7.49367e-05
7.2114e-05
6.49321e-05
6.1742e-05
7.10222e-05
0.000105763
0.000138624
0.000162542
0.000216486
0.000102126
4.30043e-05
2.7719e-05
1.01187e-05
8.33347e-06
6.03705e-06
4.02983e-06
3.54979e-06
3.79935e-06
4.29974e-06
5.14425e-06
6.31084e-06
6.91717e-05
6.46864e-05
6.11072e-05
5.23681e-05
4.28659e-05
4.25001e-05
4.25001e-05
6.924e-05
6.62463e-05
0.000103486
0.000115029
0.000194637
0.000126861
0.000177091
9.61243e-05
6.72036e-05
4.88637e-05
8.34311e-06
4.22131e-06
6.49912e-06
8.058e-06
7.96339e-06
7.02716e-06
6.12141e-05
6.02506e-05
5.98134e-05
6.05738e-05
6.0273e-05
5.75679e-05
5.78685e-05
3.14546e-05
2.67856e-05
2.67856e-05
7.24141e-05
9.29413e-05
0.000130509
0.000107458
0.000110877
0.000133742
0.000245913
0.000192049
9.59432e-05
8.22446e-05
4.34658e-05
1.32256e-05
1.60017e-05
4.94978e-05
4.71077e-05
4.51838e-05
4.37073e-05
4.37073e-05
4.51798e-05
4.51578e-05
4.89083e-05
4.18195e-05
4.4744e-05
5.55734e-05
6.27379e-05
4.77574e-05
4.12095e-05
3.63073e-05
0.000103419
0.000113199
0.000140407
0.000135172
0.000189303
0.000241419
0.000238463
0.000248846
4.65402e-05
4.55116e-05
4.38035e-05
4.23175e-05
3.95218e-05
3.71862e-05
2.97543e-05
1.44333e-05
7.70182e-06
7.70182e-06
1.85827e-05
3.84755e-05
5.00009e-05
2.09873e-05
3.63073e-05
5.89361e-05
7.57936e-05
7.29324e-05
7.29324e-05
0.000103382
0.000123654
0.000117924
0.000217227
3.59765e-05
3.4152e-05
3.2039e-05
2.98628e-05
2.87904e-05
2.87904e-05
2.4762e-05
2.35356e-05
1.93466e-05
2.31489e-05
3.01618e-05
3.2209e-05
2.62519e-05
2.09873e-05
3.94306e-05
6.93238e-05
5.76122e-05
8.16282e-05
9.60759e-05
8.47658e-05
6.87842e-05
6.87842e-05
0.000102614
3.8264e-05
3.71889e-05
3.46481e-05
3.20957e-05
2.69582e-05
2.29822e-05
1.55662e-05
6.5144e-06
5.2815e-06
5.2815e-06
1.63969e-05
2.47293e-05
3.69266e-05
2.90252e-05
4.1182e-05
5.41904e-05
5.76122e-05
6.47501e-05
0.000108184
0.00013451
0.00014714
0.000149073
0.000204617
3.0402e-05
2.8563e-05
2.58153e-05
2.23226e-05
1.84213e-05
1.57003e-05
1.38969e-05
1.25917e-05
8.63176e-06
1.27505e-05
1.82103e-05
1.99192e-05
2.60047e-05
3.26573e-05
4.12143e-05
5.4348e-05
6.42111e-05
7.56971e-05
9.36014e-05
0.000118936
0.00014679
0.000190916
0.000242115
3.57492e-05
3.48172e-05
3.19077e-05
2.94771e-05
2.41549e-05
2.03024e-05
1.37521e-05
9.4662e-06
6.82809e-06
1.19606e-05
1.90312e-05
2.46002e-05
3.57762e-05
4.01697e-05
5.17221e-05
6.37119e-05
7.76396e-05
9.22162e-05
0.000125365
0.000154089
0.00019979
0.00024746
0.000289491
3.05466e-05
2.88079e-05
2.62336e-05
2.27001e-05
1.82307e-05
1.35257e-05
8.6864e-06
4.91753e-06
4.91753e-06
6.96663e-06
1.37427e-05
2.03587e-05
2.93849e-05
3.87081e-05
4.91695e-05
6.08345e-05
7.61269e-05
9.30529e-05
0.000117014
0.00014947
0.000189801
0.000243443
0.000301275
3.58527e-05
3.516e-05
3.24756e-05
3.05922e-05
2.59361e-05
2.27361e-05
1.80498e-05
1.53399e-05
1.36292e-05
1.89552e-05
2.49605e-05
3.16316e-05
4.21233e-05
5.07904e-05
6.40893e-05
7.68103e-05
9.65319e-05
0.000114981
0.000145385
0.000179024
0.000223157
0.000278322
0.000330338
3.56668e-05
3.44463e-05
3.26859e-05
3.03402e-05
2.754e-05
2.4872e-05
2.33709e-05
2.24567e-05
2.24567e-05
2.4798e-05
2.92807e-05
3.559e-05
4.44918e-05
5.42522e-05
6.67344e-05
8.09991e-05
9.96106e-05
0.000121429
0.000149291
0.000184193
0.000228783
0.000284505
0.000331146
4.07413e-05
4.0525e-05
3.84891e-05
3.75462e-05
3.45722e-05
3.29732e-05
3.06555e-05
3.09968e-05
3.02493e-05
3.60256e-05
3.88792e-05
4.87693e-05
5.62262e-05
6.90757e-05
8.17574e-05
9.87009e-05
0.000117809
0.000140995
0.000169711
0.00020455
0.00024827
0.000300859
0.000329171
4.49978e-05
4.42871e-05
4.33091e-05
4.23167e-05
4.10088e-05
4.02743e-05
3.91156e-05
4.0322e-05
4.04894e-05
4.54243e-05
4.90136e-05
5.66762e-05
6.54129e-05
7.62108e-05
8.98729e-05
0.000105826
0.000125918
0.000149595
0.00017877
0.000214019
0.000256973
0.000308711
0.000327331
5.01184e-05
5.03151e-05
4.89517e-05
4.87944e-05
4.76126e-05
4.72946e-05
4.73236e-05
4.89271e-05
5.00136e-05
5.63288e-05
5.90614e-05
7.07138e-05
7.65793e-05
9.2673e-05
0.00010404
0.000123111
0.000143415
0.00016769
0.000196999
0.000231893
0.000273446
0.000322409
0.000327052
5.65866e-05
5.69836e-05
5.58804e-05
5.60635e-05
5.56057e-05
5.58666e-05
5.69625e-05
5.89227e-05
6.13174e-05
6.75781e-05
7.12918e-05
8.12408e-05
8.9298e-05
0.000102783
0.00011703
0.000134594
0.000155467
0.000180208
0.000209716
0.000244647
0.000285714
0.000333887
0.000330607
6.35304e-05
6.40168e-05
6.31307e-05
6.34074e-05
6.35577e-05
6.41398e-05
6.61397e-05
6.83568e-05
7.20498e-05
7.83846e-05
8.34547e-05
9.53418e-05
0.000102463
0.000119291
0.000131248
0.00015206
0.000173104
0.000198362
0.000227905
0.000262363
0.000302557
0.000348831
0.000337095
7.13147e-05
7.18064e-05
7.10894e-05
7.14171e-05
7.1937e-05
7.27816e-05
7.54163e-05
7.78031e-05
8.28534e-05
8.90332e-05
9.60076e-05
0.000105974
0.000116832
0.00013115
0.000146861
0.000166547
0.000188461
0.000214722
0.000244844
0.00027918
0.000319102
0.000364098
0.000345791
7.92768e-05
7.95401e-05
7.91048e-05
7.92947e-05
7.99861e-05
8.08579e-05
8.37396e-05
8.61871e-05
9.20574e-05
9.80541e-05
0.000106701
0.000117559
0.00012929
0.000144217
0.000160919
0.00018172
0.000204433
0.000231865
0.000262636
0.000297565
0.000337565
0.000381658
0.000356493
8.71057e-05
8.69544e-05
8.68608e-05
8.6759e-05
8.73651e-05
8.80798e-05
9.07556e-05
9.31561e-05
9.74742e-05
0.000103457
0.000111567
0.00012239
0.000135447
0.000151647
0.000170428
0.00019308
0.000218048
0.000247837
0.000280268
0.000317446
0.000358941
0.000403655
0.000372066
9.41664e-05
9.36471e-05
9.39618e-05
9.35856e-05
9.42085e-05
9.47704e-05
9.72454e-05
9.92735e-05
0.000105079
0.000110122
0.000117603
0.000127123
0.000139411
0.000155103
0.000174347
0.000197666
0.000224211
0.000256179
0.000290637
0.00033085
0.00037436
0.000421164
0.00038705
0.000100222
9.94784e-05
0.000100021
9.93789e-05
9.99403e-05
0.000100227
0.00010115
0.000102645
0.000105568
0.000109853
0.000116509
0.000125919
0.000138466
0.0001548
0.000175374
0.000200024
0.000229133
0.000263389
0.000301066
0.000345436
0.000392157
0.0004433
0.000408665
0.000104783
0.00010404
0.00010471
0.000104094
0.000104854
0.000105199
0.000107171
0.00010868
0.000113269
0.000117065
0.000125194
0.000133019
0.000143483
0.000157288
0.000175127
0.000197196
0.000224667
0.000257596
0.000295904
0.000341876
0.000390628
0.000446738
0.000418462
0.000107258
0.00010722
0.000107218
0.000107218
0.000107375
0.00010799
0.000109135
0.00011084
0.000113623
0.000117373
0.000122898
0.000130418
0.000140729
0.000154628
0.000172748
0.000195353
0.000223792
0.000257731
0.000298433
0.000346006
0.000397701
0.000459581
0.000436927
0.000109818
0.000109315
0.000110065
0.000109905
0.000111292
0.0001122
0.000114888
0.000117096
0.000122089
0.000126289
0.000134728
0.000142569
0.000155908
0.000169375
0.000185437
0.000205025
0.00022955
0.000259138
0.000295879
0.000339224
0.00038943
0.000451648
0.000434357
0.000108253
0.000108253
0.000108419
0.000108868
0.0001099
0.000111591
0.000114126
0.00011747
0.000122
0.000127571
0.000134678
0.000143381
0.000154212
0.000167629
0.000184307
0.000205051
0.000231263
0.000263034
0.000302095
0.000347242
0.000400783
0.000464696
0.000447307
0.000107373
0.000107197
0.000108342
0.000109235
0.000112345
0.000115115
0.000119719
0.00012374
0.000130909
0.000137397
0.000147983
0.000157985
0.000172986
0.000188058
0.000209198
0.000231213
0.000258757
0.000288052
0.000323126
0.000363665
0.00041334
0.000471844
0.000448969
0.000104162
0.000104162
0.000104599
0.000105568
0.000107594
0.00011061
0.000114913
0.000120421
0.00012749
0.000136036
0.00014639
0.000158603
0.000172952
0.000189645
0.000209182
0.000232239
0.000259837
0.000292727
0.000332757
0.000379356
0.000434944
0.000497261
0.000477721
0.000100369
0.00010031
0.000101817
0.000103233
0.000107444
0.0001113
0.000118084
0.000125097
0.000134051
0.000144928
0.000158151
0.000173836
0.000192322
0.000212293
0.000237817
0.000264527
0.000299103
0.000335153
0.000379931
0.000424691
0.000475287
0.000530973
0.000497086
9.57147e-05
9.56996e-05
9.66646e-05
9.81125e-05
0.000100975
0.000105087
0.00011092
0.000118346
0.000127813
0.000139283
0.00015321
0.000169631
0.000188936
0.000211282
0.000237111
0.000266841
0.000301018
0.000340282
0.000385906
0.000438313
0.000497274
0.000562228
0.000528172
8.99227e-05
8.99485e-05
9.17003e-05
9.34393e-05
9.82896e-05
0.000102899
0.000111668
0.00012017
0.000131096
0.000144447
0.000160832
0.000180397
0.000203781
0.000231284
0.000263673
0.000301629
0.000345859
0.000393236
0.00044962
0.000506046
0.000568896
0.000630569
0.000546779
8.38831e-05
8.38816e-05
8.53289e-05
8.70519e-05
9.03473e-05
9.51104e-05
0.000101905
0.000110687
0.000121974
0.000135815
0.000152893
0.00017342
0.000198238
0.000227701
0.000262935
0.000304376
0.000352958
0.000407997
0.000468693
0.000532408
0.000599605
0.000675595
0.000624377
7.71297e-05
7.70988e-05
7.86932e-05
8.03403e-05
8.51148e-05
8.9853e-05
9.89718e-05
0.000108392
0.000121445
0.000136815
0.000155909
0.00017928
0.000207959
0.000242822
0.000285277
0.000336638
0.000398483
0.000471552
0.000554836
0.000635378
0.000722216
0.000809153
0.000764175
7.04203e-05
7.02246e-05
7.15066e-05
7.27541e-05
7.64027e-05
8.10977e-05
8.79417e-05
9.71085e-05
0.000109197
0.000124731
0.000144355
0.000168457
0.00019839
0.000235491
0.000281895
0.000339475
0.000410259
0.000495575
0.000596168
0.000712503
0.000839975
0.000975679
0.000908227
6.37674e-05
6.33571e-05
6.426e-05
6.50949e-05
6.8899e-05
7.2806e-05
8.10433e-05
9.01079e-05
0.000101815
0.000116922
0.000137079
0.000163604
0.000197877
0.000242106
0.000298235
0.000369544
0.000460567
0.000575477
0.000716493
0.000865334
0.000996029
0.00113329
0.00104053
5.74168e-05
5.67128e-05
5.69981e-05
5.69529e-05
5.95844e-05
6.21556e-05
6.87929e-05
7.63683e-05
8.9339e-05
0.000105317
0.000128589
0.000157764
0.000193745
0.000240569
0.000301176
0.000379343
0.000481623
0.000616753
0.000771793
0.000916985
0.00105879
0.00123031
0.00115293
5.18105e-05
5.08517e-05
5.06178e-05
4.98776e-05
5.16462e-05
5.35338e-05
5.94319e-05
6.46033e-05
7.27596e-05
8.51387e-05
0.000102808
0.000127929
0.000163052
0.000211861
0.000280754
0.000374654
0.000498952
0.000654437
0.000839207
0.00101904
0.00116926
0.00134189
0.00124678
4.61423e-05
4.53408e-05
4.44414e-05
4.27169e-05
4.30703e-05
4.32566e-05
4.72456e-05
5.32132e-05
6.47996e-05
8.20697e-05
0.000107272
0.000143506
0.000193713
0.00025575
0.00033671
0.000439931
0.000572951
0.000742488
0.000913492
0.00104365
0.00118397
0.0013947
0.00131528
4.2525e-05
4.11562e-05
4.00763e-05
3.82504e-05
3.77302e-05
3.70118e-05
3.70118e-05
3.86069e-05
4.37178e-05
5.46231e-05
7.2419e-05
0.000100045
0.000140536
0.000199374
0.000286076
0.000416987
0.000634615
0.000912551
0.00110643
0.00116403
0.00127389
0.00145395
0.00135644
3.79387e-05
3.70019e-05
3.62741e-05
3.62741e-05
3.68834e-05
3.92813e-05
4.38686e-05
5.10859e-05
6.37907e-05
8.2921e-05
0.000110259
0.000150679
0.000208259
0.000295745
0.000428647
0.000640949
0.000937961
0.00117525
0.00121628
0.00120025
0.00126223
0.00147198
0.00138254
3.40432e-06
3.29561e-06
3.29561e-06
4.2314e-06
3.66121e-06
3.66121e-06
4.06123e-06
4.30922e-06
4.4722e-06
4.4722e-06
4.92118e-06
5.32672e-06
4.77704e-06
4.77704e-06
5.23369e-06
5.71995e-06
1.94872e-05
2.28788e-05
2.67804e-05
2.99172e-05
0.000211371
0.000211371
0.000196429
0.000196429
0.000201819
0.000201819
0.000242142
0.000291393
0.000104149
0.000104149
0.000117645
0.000140636
0.000134329
0.000134329
0.000134577
0.000141209
0.000170867
0.000170867
0.000187447
0.000209253
0.000207354
0.000207354
0.000231702
0.000263776
0.00021933
0.00021933
0.000251515
0.00029585
0.000239159
0.000239159
0.0002739
0.000324532
0.000237496
0.000237496
0.000265361
0.000299273
0.000232747
0.000232747
0.000255321
0.000280127
0.000229299
0.000229299
0.000249344
0.000270542
0.00022672
0.00022672
0.000244359
0.000262854
0.00022757
0.00022757
0.000243808
0.000260487
0.000230423
0.000230423
0.000245705
0.000261573
0.000234974
0.000234974
0.000248945
0.00026362
0.000241241
0.000241241
0.000254371
0.000268028
0.000250917
0.000250917
0.000263526
0.000276485
0.00026062
0.00026062
0.000273115
0.000285682
0.00027515
0.00027515
0.000288194
0.000301167
0.000282607
0.000282607
0.000296791
0.000310851
0.000296053
0.000296053
0.000311798
0.000327396
0.000295592
0.000295592
0.000312838
0.000330366
0.000305069
0.000305069
0.000324039
0.000343575
0.000306903
0.000306903
0.000326925
0.00034731
0.000327316
0.000327316
0.000348244
0.000369473
0.000338206
0.000338206
0.000357522
0.000378799
0.000357357
0.000357357
0.00037728
0.000399439
0.000365126
0.000365126
0.00038056
0.00039633
0.000417728
0.000417728
0.000430901
0.000442384
0.000504181
0.000504181
0.000514944
0.000523941
0.000601745
0.000601745
0.000616464
0.000628074
0.000689741
0.000689741
0.000705609
0.000717067
0.000765355
0.000765355
0.000783918
0.000797646
0.000827778
0.000827778
0.000847782
0.000862107
0.000874417
0.000874417
0.00089624
0.000912077
0.000901457
0.000901457
0.000923796
0.000939961
0.000919383
0.000919383
0.000943018
0.00095994
3.18982e-05
0.000268391
0.000145187
7.2141e-05
4.17621e-05
3.08443e-05
4.19459e-05
0.000395843
0.000877071
0.000813428
0.00105411
0.00154031
0.00148648
0.000601231
0.00017814
0.000198062
0.000436219
0.000541547
0.000345291
9.23543e-06
2.28984e-05
2.18755e-05
2.26743e-05
2.73627e-05
3.2234e-05
8.90183e-05
0.000703889
0.000794156
0.000492718
0.00093131
0.001975
0.0015028
0.000463446
8.9481e-05
0.000231533
0.000389549
0.000541089
0.000322869
9.6609e-06
1.64753e-05
1.73276e-05
1.86102e-05
2.08369e-05
2.97868e-05
9.66464e-05
0.000820794
0.000659387
0.000492718
0.00110866
0.00247989
0.00134178
0.000369676
8.9481e-05
0.000160071
0.000390645
0.000499582
0.000296404
1.02275e-05
1.64753e-05
1.73276e-05
1.85577e-05
1.49224e-05
2.64281e-05
0.00014645
0.000910895
0.000623745
0.000675778
0.00179467
0.00231815
0.00103767
0.000233558
0.000108441
0.000277689
0.000452692
0.000457633
0.000267863
3.00274e-05
3.14276e-05
2.69346e-05
1.93217e-05
1.49224e-05
2.69565e-05
0.000211568
0.000918925
0.000623745
0.00112833
0.00205171
0.00200328
0.000702732
0.000233558
0.000242354
0.000321679
0.000455277
0.000418689
0.000238305
0.000222383
6.96231e-05
6.65527e-05
2.56809e-05
1.49277e-05
3.09458e-05
0.000117534
0.000773248
0.000798978
0.00136601
0.00199957
0.00157017
0.000630039
0.000234361
0.000385662
0.000330732
0.000498913
0.000375947
0.00019188
0.000555825
0.000431113
0.000339027
0.000196182
6.04617e-05
3.92788e-05
0.000107557
0.000692101
0.00104737
0.00119844
0.0016519
0.0012097
0.00072364
0.000462962
0.000490785
0.000340172
0.000491147
0.000293239
0.000118525
0.000281736
0.000622606
0.000681115
0.000493421
0.00025445
6.96579e-05
0.00017464
0.000426016
0.00098578
0.00107529
0.00117095
0.000803916
0.000763753
0.000672151
0.00056043
0.000355856
0.000518494
0.000170532
5.66261e-05
0.000243484
0.000429551
0.000655007
0.000637879
0.000427137
0.000212283
0.00017464
0.000246022
0.000568492
0.000841607
0.000652603
0.000629961
0.000542075
0.000487983
0.000478532
0.000423281
0.000488523
9.26484e-05
3.61921e-05
0.000379315
0.000626537
0.000842168
0.000921231
0.000734475
0.000451168
0.000192833
0.000223233
0.000243462
0.000409591
0.000247419
0.000250303
0.000231261
0.00024953
0.000314906
0.000394232
0.000244221
5.21766e-05
2.27408e-05
0.00050761
0.000914431
0.00111329
0.00127664
0.00107697
0.000856531
0.000350375
0.000223233
0.000186476
0.000113311
8.97163e-05
0.000123004
0.000172468
0.000230348
0.000297867
0.000253902
0.000150341
4.78477e-05
2.25987e-05
0.000596444
0.00103885
0.00111555
0.00130683
0.000979415
0.000837285
0.00056928
0.000336128
0.000192355
0.000102143
8.97163e-05
0.000108173
0.000172468
0.000230348
0.000277429
0.000268335
0.000196395
7.24099e-05
1.87783e-05
0.000648854
0.00103885
0.000838353
0.00111998
0.00112521
0.000704399
0.000494053
0.000404348
0.000287323
0.000195256
0.000163545
0.000219418
0.000217115
0.000303136
0.000226026
0.000115555
3.28154e-05
1.22162e-05
1.08509e-05
0.000571546
0.000979989
0.000729559
0.00050093
0.000721076
0.000847681
0.000608015
0.000487059
0.000379171
0.000315722
0.000233108
0.000185398
0.000185398
0.000186225
8.95396e-05
3.53052e-05
1.79624e-05
1.68422e-06
6.46322e-06
0.000512259
0.000863747
0.00061552
0.000393695
0.000304362
0.000638719
0.000955023
0.000987744
0.000796753
0.000620652
0.000485882
0.000256458
0.000204474
0.000120193
4.15492e-05
2.44871e-05
9.9065e-06
1.68422e-06
6.72991e-06
0.000488486
0.000784963
0.000721369
0.000391764
0.000304362
0.000496492
0.00089743
0.00113227
0.00125226
0.00119394
0.0010494
0.000832282
0.000606112
0.000273934
0.000152079
6.47982e-05
1.81928e-05
3.89102e-06
8.25168e-06
0.000470649
0.00073666
0.000810758
0.00065225
0.000409235
0.000646163
0.000656655
0.000590211
0.000599839
0.000842818
0.000888098
0.000877824
0.000878699
0.000715045
0.000655514
0.000327083
4.42822e-05
1.00435e-05
6.66602e-06
0.000463984
0.000712845
0.000796012
0.000826074
0.000767664
0.000691032
0.000487948
0.000259805
0.000259805
0.000425828
0.000596872
0.000591827
0.00073836
0.000791778
0.00075262
0.000644519
8.96909e-05
1.66638e-05
6.66602e-06
0.000465455
0.000707365
0.000789164
0.00085899
0.000945378
0.000887948
0.000755506
0.000503592
0.000405373
0.000534383
0.000456331
0.000360793
0.000509277
0.000745488
0.0008559
0.000801952
0.000349034
4.38789e-05
1.06202e-05
0.000467483
0.000706219
0.000781303
0.000847775
0.000945418
0.000997333
0.000979545
0.000824075
0.000715375
0.000534383
0.000385846
0.000272134
0.000301976
0.000441972
0.000802866
0.000991751
0.000850032
0.000323006
6.11727e-05
0.000473201
0.000706219
0.000781303
0.000840864
0.000919014
0.000950338
0.000987132
0.000921591
0.000807353
0.000599199
0.000401771
0.000256746
0.00016581
0.000189762
0.000489921
0.000829187
0.000921691
0.000785756
0.000497307
0.000486006
0.000713023
0.000782086
0.000840781
0.000910094
0.000923711
0.000944258
0.00088702
0.000800613
0.00061425
0.000403328
0.000206719
0.000131813
0.000117098
0.000279169
0.000615364
0.000873661
0.000978042
0.000838222
0.000500258
0.000724399
0.000791111
0.000840781
0.000910094
0.000918643
0.000924689
0.000867547
0.000788441
0.000634623
0.000462216
0.000284475
0.000154147
0.000117098
0.000198184
0.000539564
0.000885697
0.00103735
0.000876002
0.000526556
0.000745279
0.00081048
0.00085099
0.000910201
0.000918643
0.000924689
0.000867547
0.000792672
0.000651674
0.00052897
0.000363769
0.000235452
0.000196818
0.000308828
0.000599098
0.000989515
0.00103735
0.000897176
0.000544452
0.000774941
0.000841059
0.000877066
0.000929647
0.000935397
0.000939199
0.00088701
0.000826055
0.000702051
0.000608056
0.000469776
0.000369578
0.000434163
0.000437975
0.000864844
0.00117162
0.00112291
0.000921739
0.000574722
0.00081324
0.000882344
0.000917895
0.000965887
0.000971751
0.000977948
0.000932253
0.000892338
0.000785438
0.000726464
0.000616553
0.000579783
0.000649526
0.000427571
0.00089517
0.00113593
0.0010993
0.000779866
0.000583554
0.000854167
0.000930938
0.000973796
0.00102007
0.00102889
0.00104032
0.000999063
0.000979758
0.000885082
0.000869805
0.000770587
0.000832474
0.000705943
0.000427571
0.000959997
0.0011357
0.00105259
0.000773051
0.00060939
0.000896078
0.000983648
0.00104132
0.00109271
0.00110697
0.0011249
0.00108859
0.00108606
0.0010021
0.00102316
0.000932788
0.00108122
0.00081937
0.000546878
0.00106907
0.0011357
0.00109223
0.000773051
0.000617544
0.000933616
0.00103634
0.00111332
0.00118029
0.00120454
0.0012309
0.00119802
0.00120661
0.00113181
0.00117788
0.00110321
0.00131422
0.000818652
0.000446636
0.00100509
0.0012316
0.00120276
0.000852708
0.0006566
0.000978148
0.00109666
0.00118942
0.00127757
0.00131743
0.00135422
0.00132531
0.00133988
0.00127176
0.00132778
0.00126647
0.0014952
0.000831914
0.000253969
0.000747555
0.00125967
0.00120508
0.000736882
0.000673398
0.00103099
0.00116479
0.00128125
0.00138928
0.00144876
0.00149509
0.00147029
0.00148525
0.00141921
0.0014734
0.00142498
0.00162757
0.000819532
0.000219535
0.000629945
0.00131127
0.00097314
0.000661094
0.000708477
0.00107397
0.00123884
0.00139543
0.00153185
0.00160921
0.00165587
0.00163038
0.00163803
0.00156968
0.00161029
0.00157396
0.00173967
0.000999709
0.000219535
0.000699943
0.00136846
0.000948267
0.000620243
0.000692371
0.00103201
0.00116051
0.0013763
0.00166361
0.00180724
0.00186098
0.00182485
0.00180891
0.00173062
0.00174276
0.00171756
0.00183908
0.00128023
0.000464898
0.000654456
0.00130229
0.000973319
0.000580337
0.000758158
0.00103201
0.00113521
0.00126193
0.00149158
0.00184216
0.00204395
0.00203415
0.00199553
0.00189537
0.00186934
0.00184867
0.0019305
0.00150458
0.000750439
0.000431885
0.0011958
0.0010121
0.000578412
0.000889259
0.00109746
0.00113521
0.00122212
0.00125619
0.00162361
0.00199671
0.00217378
0.00216932
0.00206604
0.00199466
0.0019674
0.00201636
0.00175394
0.000835307
0.00036717
0.0010922
0.00118501
0.000578412
0.00106669
0.00127646
0.00121543
0.00118553
0.00084966
0.00122851
0.00180031
0.0020714
0.00222729
0.00219399
0.00211017
0.00207235
0.0020933
0.00192703
0.000993325
0.00036717
0.00105994
0.00123512
0.000634138
0.00121383
0.00146594
0.00132614
0.00098244
0.000712586
0.000621813
0.00145082
0.00186333
0.00211893
0.002203
0.00218445
0.00215709
0.00215571
0.00205073
0.00113989
0.000472649
0.00102997
0.00120294
0.000590243
0.00135077
0.00163171
0.00145709
0.00117549
0.000606443
0.000364195
0.000842491
0.00160535
0.00195439
0.0021205
0.00215219
0.00219979
0.00219054
0.00213226
0.00126504
0.000589828
0.000956177
0.00114373
0.000518321
0.00145781
0.00178256
0.00161072
0.00135931
0.000809914
0.000364195
0.000783491
0.0013048
0.00173757
0.00198407
0.00206645
0.0021662
0.00217873
0.00214353
0.00136512
0.0007129
0.000864159
0.00106381
0.000379412
0.00154286
0.00190318
0.00173784
0.0015127
0.00106108
0.000543037
0.000710985
0.00100333
0.00150639
0.00184091
0.00197523
0.00211713
0.00215869
0.00214297
0.00135145
0.00075318
0.000812446
0.000872011
0.000312594
0.00158973
0.00198938
0.00182762
0.00162031
0.00121371
0.000761696
0.000650457
0.000839454
0.00130662
0.00164737
0.001837
0.0020283
0.00209872
0.00210066
0.00159101
0.000891805
0.000812446
0.00116078
0.000312594
0.00162415
0.00204368
0.00188143
0.00167983
0.00130703
0.000840978
0.000650457
0.000708329
0.00101296
0.00146207
0.0017889
0.0020283
0.00209872
0.00200647
0.00143698
0.00105397
0.00107774
0.00171307
0.00092867
)
;

boundaryField
{
    leftWall
    {
        type            calculated;
        value           uniform 0;
    }
    rightWall
    {
        type            calculated;
        value           uniform 0;
    }
    lowerWall
    {
        type            calculated;
        value           uniform 0;
    }
    atmosphere
    {
        type            calculated;
        value           uniform 0;
    }
    defaultFaces
    {
        type            empty;
    }
}


// ************************************************************************* //
