/*--------------------------------*- C++ -*----------------------------------*\
| =========                 |                                                 |
| \\      /  F ield         | OpenFOAM: The Open Source CFD Toolbox           |
|  \\    /   O peration     | Version:  2012                                  |
|   \\  /    A nd           | Website:  www.openfoam.com                      |
|    \\/     M anipulation  |                                                 |
\*---------------------------------------------------------------------------*/
FoamFile
{
    version     2.0;
    format      ascii;
    class       volScalarField;
    location    "0.59";
    object      p_rgh;
}
// * * * * * * * * * * * * * * * * * * * * * * * * * * * * * * * * * * * * * //

dimensions      [1 -1 -2 0 0 0 0];


internalField   nonuniform List<scalar> 
2268
(
101901
101903
101906
101911
101918
101927
101938
101951
101966
101984
102003
102026
102048
102074
102096
102124
102145
102172
102188
102213
102223
102240
102243
101901
101902
101906
101911
101917
101926
101937
101950
101966
101984
102003
102026
102047
102074
102096
102124
102145
102172
102189
102213
102224
102239
102243
101900
101901
101904
101909
101916
101925
101936
101949
101964
101983
102002
102025
102047
102074
102096
102125
102145
102174
102190
102216
102227
102245
102248
101898
101900
101903
101908
101915
101924
101935
101948
101963
101982
102001
102024
102046
102073
102096
102125
102146
102174
102191
102216
102227
102244
102248
101896
101898
101901
101906
101913
101921
101932
101945
101960
101979
101999
102023
102045
102073
102096
102125
102147
102177
102194
102222
102233
102255
102259
101894
101896
101899
101904
101911
101919
101930
101943
101959
101977
101997
102020
102044
102072
102096
102125
102148
102177
102195
102222
102233
102254
102258
101891
101892
101896
101900
101907
101915
101926
101939
101955
101974
101994
102019
102042
102071
102096
102127
102150
102181
102199
102230
102242
102270
102274
101887
101888
101891
101896
101903
101912
101923
101936
101952
101970
101991
102015
102040
102070
102096
102127
102151
102181
102201
102230
102243
102270
102274
102501
101852
101836
101799
101926
102299
102575
102326
102050
102005
101798
101712
101691
101683
101685
101732
101845
102305
102954
102195
101759
101802
101760
101882
102322
102691
102328
102005
101930
101767
101691
101679
101668
101665
101693
101780
102186
102771
101880
101746
101791
101749
101854
102247
102571
102289
101981
101975
101725
101619
101609
101603
101602
101611
101662
101988
102609
101847
101745
101795
101749
101813
102135
102651
102336
102038
101890
101678
101602
101598
101594
101593
101594
101607
101784
102409
101923
101747
101792
101748
101805
102064
102514
102313
102041
101898
101621
101598
101597
101594
101593
101593
101597
101661
102227
101970
101740
101793
101748
101847
102132
102455
102222
101929
101711
101595
101597
101595
101593
101593
101593
101594
101617
102072
102010
101745
101796
101749
101961
102178
102353
102065
101715
101619
101591
101593
101594
101593
101593
101592
101592
101603
101898
102051
101748
101806
101750
102070
102217
102296
101899
101612
101592
101588
101591
101593
101593
101593
101592
101592
101595
101925
101712
101715
101726
101741
101763
101787
101821
101855
101896
101939
101975
102009
102038
102069
102096
102128
102154
102189
102209
102245
102258
102302
102307
101340
101343
101347
101353
101364
101379
101402
101430
101473
101534
101625
101749
101885
102013
102098
102130
102158
102192
102215
102249
102266
102313
102313
101329
101329
101329
101329
101329
101329
101329
101329
101329
101329
101330
101347
101392
101480
101634
101827
102025
102195
102229
102260
102280
102315
102326
101329
101329
101329
101329
101329
101329
101329
101329
101329
101329
101329
101329
101329
101331
101343
101384
101451
101595
101811
102031
102208
102287
102328
101328
101329
101329
101329
101329
101329
101329
101329
101329
101329
101329
101329
101329
101329
101329
101329
101329
101337
101360
101374
101442
101544
101679
101328
101328
101328
101328
101328
101329
101329
101329
101329
101329
101329
101329
101329
101329
101329
101329
101329
101329
101329
101330
101330
101330
101330
101328
101328
101328
101328
101328
101328
101329
101329
101329
101329
101329
101329
101329
101329
101329
101329
101329
101329
101329
101329
101330
101330
101330
101328
101328
101328
101328
101328
101328
101328
101329
101329
101329
101329
101329
101329
101329
101329
101329
101329
101329
101329
101329
101330
101330
101330
101328
101328
101328
101328
101328
101328
101328
101328
101328
101329
101329
101329
101329
101329
101329
101329
101329
101329
101329
101329
101329
101330
101330
101328
101328
101328
101328
101328
101328
101328
101328
101328
101328
101329
101329
101329
101329
101329
101329
101329
101329
101329
101329
101329
101330
101330
101328
101328
101328
101328
101328
101328
101328
101328
101328
101328
101328
101329
101329
101329
101329
101329
101329
101329
101329
101329
101329
101329
101329
101328
101328
101328
101328
101328
101328
101328
101328
101328
101328
101328
101328
101329
101329
101329
101329
101329
101329
101329
101329
101329
101329
101329
101328
101328
101328
101328
101328
101328
101328
101328
101328
101328
101328
101328
101328
101328
101329
101329
101329
101329
101329
101329
101329
101329
101329
101328
101328
101328
101328
101328
101328
101328
101328
101328
101328
101328
101328
101328
101328
101328
101329
101329
101329
101329
101329
101329
101329
101329
101328
101328
101328
101328
101328
101328
101328
101328
101328
101328
101328
101328
101328
101328
101328
101328
101328
101328
101329
101329
101329
101329
101328
101328
101328
101328
101328
101328
101328
101328
101328
101328
101328
101328
101328
101328
101328
101328
101328
101328
101328
101328
101328
101328
101328
101328
101328
101328
101328
101328
101328
101328
101328
101328
101328
101328
101328
101328
101328
101328
101328
101328
101328
101328
101328
101328
101328
101328
101328
101328
101328
101328
101328
101328
101328
101328
101328
101328
101328
101328
101328
101328
101328
101328
101328
101328
101328
101328
101328
101328
101328
101328
101328
101328
101328
101328
101328
101328
101328
101328
101328
101328
101328
101328
101328
101328
101328
101328
101328
101328
101328
101328
101328
101328
101328
101328
101328
101328
101328
101328
101328
101328
101328
101328
101328
101328
101328
101328
101328
101328
101328
101328
101328
101328
101328
101328
101328
101328
101328
101328
101328
101328
101328
101328
101328
101328
101328
101328
101328
101328
101328
101328
101328
101328
101328
101328
101328
101328
101328
101328
101328
101328
101328
101328
101328
101328
101328
101328
101328
101328
101328
101328
101328
101328
101328
101328
101328
101328
101328
101328
101328
101328
101328
101328
101327
101327
101327
101327
101327
101327
101327
101328
101328
101328
101328
101328
101328
101328
101328
101328
101328
101328
101328
101328
101328
101328
101328
101327
101327
101327
101327
101327
101327
101327
101327
101327
101328
101328
101328
101328
101328
101328
101328
101328
101328
101328
101328
101328
101328
101328
101327
101327
101327
101327
101327
101327
101327
101327
101327
101327
101327
101327
101327
101328
101328
101328
101328
101328
101328
101328
101328
101328
101328
101327
101327
101327
101327
101327
101327
101327
101327
101327
101327
101327
101327
101327
101327
101327
101328
101328
101328
101328
101328
101328
101328
101328
101327
101327
101327
101327
101327
101327
101327
101327
101327
101327
101327
101327
101327
101327
101327
101327
101327
101327
101328
101328
101328
101327
101327
101327
101327
101327
101327
101327
101327
101327
101327
101327
101327
101327
101327
101327
101327
101327
101327
101327
101327
101327
101327
101327
101327
101327
101327
101327
101327
101327
101327
101327
101327
101327
101327
101327
101327
101327
101327
101327
101327
101327
101327
101327
101327
101327
101327
101327
101327
101327
101327
101327
101327
101327
101327
101327
101327
101327
101327
101327
101327
101327
101327
101327
101327
101327
101327
101327
101327
101327
101327
101327
101327
101327
101327
101327
101327
101327
101327
101327
101327
101327
101327
101327
101327
101327
101327
101327
101327
101327
101327
101327
101327
101327
101327
101327
101327
101327
101327
101327
101327
101327
101327
101327
101327
101327
101327
101327
101327
101327
101327
101327
101327
101327
101327
101327
101327
101327
101326
101326
101326
101326
101326
101326
101326
101326
101327
101327
101327
101327
101327
101327
101327
101327
101327
101327
101327
101327
101327
101327
101327
101326
101326
101326
101326
101326
101326
101326
101326
101326
101326
101327
101327
101327
101327
101327
101327
101327
101327
101327
101327
101327
101327
101327
101326
101326
101326
101326
101326
101326
101326
101326
101326
101326
101326
101326
101326
101327
101327
101327
101327
101327
101327
101327
101327
101327
101327
101326
101326
101326
101326
101326
101326
101326
101326
101326
101326
101326
101326
101326
101327
101327
101327
101327
101327
101327
101327
101327
101327
101327
101326
101326
101326
101326
101326
101326
101326
101326
101326
101326
101326
101326
101326
101326
101326
101326
101327
101327
101327
101327
101327
101327
101327
101326
101326
101326
101326
101326
101326
101326
101326
101326
101326
101326
101326
101326
101326
101326
101326
101327
101327
101327
101327
101327
101326
101326
101326
101326
101326
101326
101326
101326
101326
101326
101326
101326
101326
101326
101326
101326
101326
101326
101326
101326
101326
101326
101326
101326
101326
101325
101325
101325
101325
101325
101325
101325
101326
101326
101326
101326
101326
101326
101326
101326
101326
101326
101326
101326
101326
101326
101326
101326
101325
101325
101325
101325
101325
101325
101325
101325
101325
101325
101325
101325
101325
101325
101325
101326
101326
101326
101326
101326
101325
101326
101325
101325
101325
101325
101325
101325
101325
101325
101325
101325
101325
101325
101325
101325
101325
101325
101325
101326
101326
101325
101325
101325
101325
101325
102348
102362
102382
102379
102393
102376
102440
102396
102355
102355
102378
102371
102364
102364
102389
102383
101789
101843
101880
101914
101331
101331
101331
101331
101330
101330
101330
101330
101330
101330
101330
101331
101330
101330
101330
101330
101330
101330
101330
101330
101330
101330
101330
101330
101329
101329
101329
101329
101329
101329
101329
101329
101329
101329
101328
101328
101328
101328
101328
101328
101328
101328
101328
101328
101328
101328
101328
101328
101328
101328
101328
101328
101328
101328
101328
101328
101328
101328
101328
101328
101328
101328
101328
101328
101328
101328
101328
101328
101328
101328
101328
101327
101328
101328
101327
101327
101328
101327
101327
101327
101327
101327
101327
101327
101327
101327
101327
101327
101327
101327
101327
101327
101327
101327
101327
101327
101327
101327
101327
101327
101327
101327
101327
101327
101327
101327
101327
101327
101327
101327
101327
101327
101327
101327
101327
101326
101327
101327
101326
101326
101327
101326
101326
101326
101326
101326
101326
101326
101326
101326
101326
101325
101326
101326
101325
101325
101326
101325
101325
101325
101325
101325
101325
101325
101325
101325
101325
101325
102046
101798
101851
101952
102282
102266
102210
101728
101593
101588
101588
101589
101593
101593
101593
101592
101593
101592
102032
102540
102297
102404
102369
102403
102347
102006
101607
101587
101588
101587
101590
101592
101592
101592
101592
101592
101597
102144
102414
102386
102430
102432
102481
102440
101819
101592
101588
101588
101588
101589
101592
101591
101592
101592
101592
101642
102254
102444
102403
102452
102472
102537
102510
101730
101589
101587
101587
101588
101589
101591
101591
101592
101591
101592
101677
102368
102056
102106
102178
102333
102566
102543
101727
101590
101588
101588
101590
101589
101590
101591
101591
101591
101592
101695
102483
101332
101354
101427
101675
102350
102602
101861
101591
101590
101590
101590
101590
101590
101590
101591
101591
101592
101705
102603
101331
101331
101332
101357
101888
102620
101998
101593
101591
101591
101591
101591
101591
101591
101592
101591
101592
101761
102767
101331
101330
101332
101333
101455
102198
102486
101599
101592
101593
101592
101592
101591
101591
101592
101591
101592
102066
102996
101331
101331
101333
101332
101340
101745
102511
102269
101593
101592
101593
101593
101592
101591
101592
101592
101592
102560
103208
101331
101330
101334
101337
101338
101391
102180
102547
102247
101593
101591
101595
101665
101591
101591
101591
101950
103038
103366
101331
101330
101333
101385
101487
101523
101668
102599
102626
102417
102321
102547
102566
102545
102423
102547
102958
103131
103427
101329
101329
101329
101397
102002
102180
102191
102220
102565
102900
102782
102456
102076
102114
102325
102208
102084
102121
103305
101328
101328
101325
101342
101670
102313
102646
102827
102886
102926
102937
102242
102015
101746
101753
101815
102061
102674
103512
101328
101327
101325
101326
101326
101326
101326
101770
102408
102610
102786
103191
103193
102903
103010
103296
103487
103509
103650
101328
101327
101326
101326
101327
101326
101327
101326
101326
101326
101355
101917
102503
103180
103525
103682
103693
103690
103683
101328
101327
101327
101327
101327
101327
101326
101326
101326
101326
101327
101327
101327
101328
101880
102922
103759
103783
103752
101328
101327
101327
101327
101327
101327
101326
101326
101326
101326
101327
101327
101327
101327
101328
101669
103499
103818
103845
101328
101327
101327
101327
101327
101326
101326
101325
101326
101326
101327
101327
101327
101328
101330
101340
102495
103961
103977
101328
101327
101327
101327
101327
101326
101326
101326
101326
101326
101327
101327
101327
101327
101327
101333
101688
103504
104062
101327
101327
101327
101327
101327
101327
101326
101326
101326
101327
101327
101327
101328
101328
101328
101330
101369
101906
102647
101327
101327
101327
101327
101327
101327
101327
101327
101327
101327
101327
101327
101328
101328
101328
101329
101329
101330
101714
101327
101327
101327
101327
101327
101327
101327
101327
101327
101327
101327
101327
101328
101328
101328
101328
101328
101347
101697
101327
101327
101327
101327
101327
101327
101327
101327
101327
101327
101327
101327
101328
101328
101328
101328
101329
101341
101888
101327
101327
101327
101327
101327
101327
101327
101327
101327
101327
101327
101327
101328
101327
101328
101328
101328
101329
101697
101327
101327
101327
101327
101327
101327
101327
101327
101327
101327
101327
101327
101327
101327
101328
101333
101338
101403
101392
101327
101327
101327
101327
101327
101327
101327
101327
101327
101327
101327
101327
101327
101326
101329
101419
101698
102046
101678
101327
101327
101327
101327
101327
101327
101327
101327
101327
101326
101326
101326
101326
101326
101328
101486
102210
102207
102208
101327
101327
101327
101327
101327
101327
101326
101326
101326
101326
101326
101326
101326
101325
101328
101440
101727
102238
102250
101327
101327
101327
101327
101327
101326
101326
101326
101326
101326
101326
101326
101325
101325
101328
101328
101323
101786
101956
101327
101327
101327
101326
101326
101326
101326
101326
101326
101326
101326
101325
101325
101324
101327
101323
101323
101324
102338
101327
101327
101326
101326
101326
101326
101326
101326
101326
101325
101325
101325
101324
101324
101325
101324
101323
101323
103154
101327
101326
101326
101326
101326
101325
101325
101325
101325
101325
101325
101325
101324
101324
101324
101324
101323
101324
103207
101327
101326
101326
101325
101325
101325
101325
101325
101325
101325
101325
101325
101324
101324
101324
101324
101323
101324
103260
101326
101326
101325
101325
101324
101324
101324
101324
101324
101324
101324
101324
101324
101324
101323
101324
101323
101324
103265
101326
101325
101325
101325
101324
101323
101323
101324
101324
101324
101324
101324
101324
101324
101323
101323
101323
101324
102610
101326
101325
101324
101324
101323
101322
101322
101323
101323
101324
101324
101324
101324
101324
101323
101323
101323
101324
102302
101325
101325
101324
101323
101322
101322
101322
101322
101323
101324
101324
101324
101324
101324
101324
101324
101323
101324
102209
101325
101324
101323
101323
101322
101321
101321
101322
101323
101323
101324
101324
101324
101324
101324
101324
101324
101324
102084
101325
101324
101324
101323
101323
101322
101322
101323
101323
101324
101324
101324
101324
101324
101324
101324
101324
101324
102021
101325
101324
101324
101323
101323
101323
101323
101323
101323
101324
101324
101324
101324
101324
101325
101325
101325
101325
102033
101325
101325
101324
101324
101324
101324
101324
101324
101324
101324
101325
101325
101325
101325
101324
101325
101324
101325
101653
101325
101325
101325
101324
101324
101324
101324
101324
101324
101324
101324
101325
101325
101325
101325
101325
101324
101326
101354
)
;

boundaryField
{
    leftWall
    {
        type            zeroGradient;
    }
    rightWall
    {
        type            zeroGradient;
    }
    lowerWall
    {
        type            zeroGradient;
    }
    atmosphere
    {
        type            fixedValue;
        value           uniform 101325;
    }
    defaultFaces
    {
        type            empty;
    }
}


// ************************************************************************* //
