/*--------------------------------*- C++ -*----------------------------------*\
| =========                 |                                                 |
| \\      /  F ield         | OpenFOAM: The Open Source CFD Toolbox           |
|  \\    /   O peration     | Version:  2012                                  |
|   \\  /    A nd           | Website:  www.openfoam.com                      |
|    \\/     M anipulation  |                                                 |
\*---------------------------------------------------------------------------*/
FoamFile
{
    version     2.0;
    format      ascii;
    class       volScalarField;
    location    "0.59";
    object      rho;
}
// * * * * * * * * * * * * * * * * * * * * * * * * * * * * * * * * * * * * * //

dimensions      [1 -3 0 0 0 0 0];


internalField   nonuniform List<scalar> 
2268
(
1000.05
1000.05
1000.05
1000.05
1000.05
1000.05
1000.05
1000.05
1000.05
1000.05
1000.05
1000.05
1000.05
1000.05
1000.05
1000.05
1000.05
1000.05
1000.05
1000.05
1000.05
1000.05
999.829
1000.05
1000.05
1000.05
1000.05
1000.05
1000.05
1000.05
1000.05
1000.05
1000.05
1000.05
1000.05
1000.05
1000.05
1000.05
1000.05
1000.05
1000.05
1000.05
1000.05
1000.05
1000.05
999.764
1000.05
1000.05
1000.05
1000.05
1000.05
1000.05
1000.05
1000.05
1000.05
1000.05
1000.05
1000.05
1000.05
1000.05
1000.05
1000.05
1000.05
1000.05
1000.05
1000.05
1000.05
1000.05
999.764
1000.05
1000.05
1000.05
1000.05
1000.05
1000.05
1000.05
1000.05
1000.05
1000.05
1000.05
1000.05
1000.05
1000.05
1000.05
1000.05
1000.05
1000.05
1000.05
1000.05
1000.05
1000.05
999.764
1000.05
1000.05
1000.05
1000.05
1000.05
1000.05
1000.05
1000.05
1000.05
1000.05
1000.05
1000.05
1000.05
1000.05
1000.05
1000.05
1000.05
1000.05
1000.05
1000.05
1000.05
1000.05
999.947
1000.05
1000.05
1000.05
1000.05
1000.05
1000.05
1000.05
1000.05
1000.05
1000.05
1000.05
1000.05
1000.05
1000.05
1000.05
1000.05
1000.05
1000.05
1000.05
1000.05
1000.05
1000.05
1000.05
1000.05
1000.05
1000.05
1000.05
1000.05
1000.05
1000.05
1000.05
1000.05
1000.05
1000.05
1000.05
1000.05
1000.05
1000.05
1000.05
1000.05
1000.05
1000.05
1000.05
1000.05
1000.05
1000.05
995.684
995.64
996.25
997.018
997.796
998.371
999.117
999.574
999.868
1000.01
1000.05
1000.05
1000.05
1000.05
1000.05
1000.05
1000.05
1000.05
1000.05
1000.05
1000.05
1000.05
1000.05
514.299
514.29
533.166
533.188
597.073
699.335
722.391
722.39
722.389
717.466
713.309
742.891
746.346
746.347
746.346
746.347
746.347
746.345
743.396
410.789
73.2074
61.6277
58.5073
168.706
427.434
605.321
558.307
364.278
349.711
561.424
647.735
644.831
592.962
567.311
589.343
684.119
746.607
746.606
98.0596
2.34942
1.6358
2.39278
224.365
846.839
638.347
178.634
62.6907
62.6939
116.778
92.879
62.627
50.3243
51.1121
87.9161
203.294
543.129
776.202
2.02432
2.02121
1.3168
1.32585
85.0724
840.529
976.861
794.719
509.833
123.701
6.10983
2.49611
1.31024
1.35853
1.62353
2.39036
15.964
261.287
776.202
95.1291
5.44827
1.29752
1.2971
40.0236
730.303
989.351
989.411
891.009
345.871
10.2409
1.30012
1.2957
1.29567
1.29582
1.29606
3.07445
96.0622
776.201
258.92
12.7096
1.33543
1.29732
176.243
871.951
989.409
989.409
738.259
245.985
10.196
1.29894
1.29563
1.29571
1.29574
1.29617
1.42003
43.2369
706.529
258.917
31.2365
1.38374
1.29797
435.842
978.128
995.514
764.542
229.536
55.4133
7.39434
1.30115
1.29556
1.29571
1.29576
1.29573
1.30579
18.2486
513.059
137.949
23.0183
2.42896
1.2984
691.619
995.053
995.512
511.378
37.3006
4.31124
3.50312
1.44236
1.29552
1.29572
1.29579
1.29573
1.29567
7.29718
684.87
639.927
643.947
661.105
685.133
717.032
751.789
801.249
848.068
900.188
950.517
980.66
994.94
1000.05
1000.05
1000.05
1000.05
1000.05
1000.05
1000.05
1000.05
1000.05
1000.05
1000.05
17.0222
21.3743
27.2195
35.8096
51.0613
71.763
103.338
142.266
201.905
285.412
412.347
578.724
757.008
914.763
1000.05
1000.05
1000.05
1000.05
1000.05
1000.05
1000.05
1000.05
1000.05
1.29329
1.29329
1.29329
1.29329
1.2933
1.29331
1.29332
1.29334
1.29336
1.29336
3.54095
23.0605
76.2696
180.004
361.035
582.295
808.83
990.213
1000.05
1000.05
1000.05
1000.05
1000.05
1.29325
1.29325
1.29325
1.29325
1.29325
1.29326
1.29326
1.29327
1.29329
1.2933
1.29328
1.29329
1.29334
4.08059
15.4121
57.6834
126.201
274.572
494.926
719.183
896.32
962.075
990.448
1.29324
1.29324
1.29324
1.29324
1.29324
1.29324
1.29324
1.29324
1.29324
1.29325
1.29325
1.29336
1.29328
1.29327
1.29325
1.37423
1.58666
8.31362
29.5444
41.7423
103.742
196.194
319.252
1.29323
1.29323
1.29323
1.29323
1.29323
1.29323
1.29323
1.29323
1.29323
1.29323
1.29328
1.29443
1.29461
1.29533
1.29518
1.29386
1.29333
1.29325
1.29326
1.29329
1.29331
1.2933
1.29332
1.29323
1.29323
1.29323
1.29323
1.29323
1.29323
1.29323
1.29323
1.29323
1.29323
1.29323
1.29426
1.29533
1.29533
1.29419
1.29336
1.29325
1.29324
1.29324
1.29332
1.2951
1.29379
1.29326
1.29323
1.29323
1.29323
1.29323
1.29323
1.29323
1.29323
1.29323
1.29323
1.29323
1.29327
1.29324
1.29344
1.29324
1.29323
1.29324
1.29326
1.29327
1.29325
1.29326
1.29347
1.29329
1.29338
1.29323
1.29323
1.29323
1.29323
1.29323
1.29323
1.29323
1.29323
1.29323
1.29323
1.29323
1.29323
1.29323
1.29323
1.29323
1.29323
1.29325
1.29327
1.29327
1.29325
1.29323
1.29324
1.29324
1.29322
1.29322
1.29322
1.29322
1.29322
1.29322
1.29322
1.29322
1.29323
1.29323
1.29323
1.29323
1.29323
1.29323
1.29323
1.29323
1.29323
1.29324
1.29324
1.29324
1.29323
1.29324
1.29325
1.29322
1.29322
1.29322
1.29322
1.29322
1.29322
1.29322
1.29322
1.29322
1.29322
1.29322
1.29322
1.29322
1.29323
1.29323
1.29323
1.29323
1.29323
1.29323
1.29323
1.29323
1.29323
1.29324
1.29322
1.29322
1.29322
1.29322
1.29322
1.29322
1.29322
1.29322
1.29322
1.29322
1.29322
1.29322
1.29322
1.29322
1.29322
1.29322
1.29322
1.29323
1.29323
1.29323
1.29323
1.29323
1.29323
1.29322
1.29322
1.29322
1.29322
1.29322
1.29322
1.29322
1.29322
1.29322
1.29322
1.29322
1.29322
1.29322
1.29322
1.29322
1.29322
1.29322
1.29322
1.29322
1.29322
1.29322
1.29322
1.29322
1.29321
1.29321
1.29321
1.29321
1.29321
1.29321
1.29321
1.29322
1.29322
1.29322
1.29322
1.29322
1.29322
1.29322
1.29322
1.29322
1.29322
1.29322
1.29322
1.29322
1.29322
1.29322
1.29322
1.29321
1.29321
1.29321
1.29321
1.29321
1.29321
1.29321
1.29321
1.29321
1.29321
1.29321
1.29321
1.29321
1.29321
1.29322
1.29322
1.29322
1.29322
1.29322
1.29322
1.29322
1.29322
1.29322
1.29321
1.29321
1.29321
1.29321
1.29321
1.29321
1.29321
1.29321
1.29321
1.29321
1.29321
1.29321
1.29321
1.29321
1.29321
1.29321
1.29321
1.29321
1.29321
1.29321
1.29321
1.29321
1.29321
1.2932
1.2932
1.2932
1.2932
1.2932
1.2932
1.29321
1.29321
1.29321
1.29321
1.29321
1.29321
1.29321
1.29321
1.29321
1.29321
1.29321
1.29321
1.29321
1.29321
1.29321
1.29321
1.29321
1.2932
1.2932
1.2932
1.2932
1.2932
1.2932
1.2932
1.2932
1.2932
1.2932
1.2932
1.2932
1.2932
1.29321
1.29321
1.29321
1.29321
1.29321
1.29321
1.29321
1.29321
1.29321
1.29321
1.29319
1.29319
1.29319
1.29319
1.29319
1.29319
1.29319
1.2932
1.2932
1.2932
1.2932
1.2932
1.2932
1.2932
1.2932
1.2932
1.2932
1.2932
1.2932
1.29321
1.2932
1.2932
1.2932
1.29318
1.29318
1.29318
1.29318
1.29318
1.29318
1.29318
1.29319
1.29319
1.29319
1.29319
1.29319
1.29319
1.2932
1.2932
1.2932
1.2932
1.2932
1.2932
1.2932
1.2932
1.2932
1.2932
1.29316
1.29316
1.29316
1.29317
1.29317
1.29317
1.29317
1.29317
1.29317
1.29318
1.29318
1.29318
1.29318
1.29319
1.29319
1.29319
1.29319
1.29319
1.2932
1.2932
1.2932
1.2932
1.2932
1.29314
1.29315
1.29315
1.29315
1.29315
1.29315
1.29315
1.29315
1.29315
1.29316
1.29316
1.29316
1.29317
1.29317
1.29317
1.29318
1.29318
1.29318
1.29319
1.29319
1.29319
1.29319
1.29319
1.29313
1.29313
1.29313
1.29313
1.29313
1.29313
1.29313
1.29313
1.29314
1.29314
1.29314
1.29314
1.29315
1.29315
1.29315
1.29316
1.29316
1.29317
1.29317
1.29318
1.29318
1.29319
1.29319
1.29312
1.29312
1.29312
1.29312
1.29312
1.29312
1.29312
1.29312
1.29312
1.29312
1.29312
1.29313
1.29313
1.29313
1.29313
1.29314
1.29314
1.29314
1.29315
1.29316
1.29316
1.29317
1.29318
1.29311
1.29311
1.29311
1.29311
1.29311
1.29311
1.29311
1.29311
1.29311
1.29311
1.29311
1.29311
1.29311
1.29312
1.29312
1.29312
1.29312
1.29313
1.29313
1.29313
1.29314
1.29315
1.29315
1.2931
1.2931
1.2931
1.2931
1.2931
1.2931
1.2931
1.2931
1.2931
1.2931
1.2931
1.2931
1.2931
1.29311
1.29311
1.29311
1.29311
1.29311
1.29312
1.29312
1.29312
1.29313
1.29313
1.29309
1.29309
1.29309
1.29309
1.29309
1.29309
1.29309
1.2931
1.2931
1.2931
1.2931
1.2931
1.2931
1.2931
1.2931
1.2931
1.2931
1.29311
1.29311
1.29311
1.29311
1.29311
1.29312
1.29309
1.29309
1.29309
1.29309
1.29309
1.29309
1.29309
1.29309
1.29309
1.29309
1.29309
1.29309
1.2931
1.2931
1.2931
1.2931
1.2931
1.2931
1.2931
1.29311
1.29311
1.29311
1.29311
1.29309
1.29309
1.29309
1.29309
1.29309
1.29309
1.29309
1.29309
1.29309
1.29309
1.29309
1.29309
1.29309
1.29309
1.2931
1.2931
1.2931
1.2931
1.2931
1.29311
1.29311
1.29311
1.29311
1.29309
1.29309
1.29309
1.29309
1.29309
1.29309
1.29309
1.29309
1.29309
1.29309
1.29309
1.29309
1.29309
1.2931
1.2931
1.2931
1.2931
1.29311
1.29311
1.29311
1.29311
1.29312
1.29312
1.29309
1.29309
1.29309
1.29309
1.29309
1.29309
1.29309
1.29309
1.29309
1.29309
1.29309
1.2931
1.2931
1.2931
1.2931
1.2931
1.29311
1.29311
1.29311
1.29312
1.29312
1.29313
1.29314
1.29309
1.29309
1.29309
1.29309
1.29309
1.29309
1.29309
1.29309
1.2931
1.2931
1.2931
1.2931
1.2931
1.2931
1.29311
1.29311
1.29311
1.29312
1.29312
1.29313
1.29314
1.29315
1.29315
1.29309
1.29309
1.29309
1.29309
1.2931
1.2931
1.2931
1.2931
1.2931
1.2931
1.2931
1.2931
1.2931
1.2931
1.29311
1.29311
1.29311
1.29312
1.29313
1.29314
1.29316
1.29316
1.29316
1.2931
1.2931
1.2931
1.2931
1.2931
1.2931
1.2931
1.2931
1.2931
1.2931
1.2931
1.2931
1.2931
1.29311
1.29311
1.29311
1.29312
1.29313
1.29314
1.29316
1.29317
1.29331
1.29515
1.2931
1.2931
1.2931
1.2931
1.2931
1.2931
1.2931
1.2931
1.2931
1.2931
1.2931
1.2931
1.2931
1.2931
1.29311
1.29311
1.29312
1.29314
1.29315
1.29316
1.29334
1.29683
1.30082
1.2931
1.2931
1.2931
1.2931
1.2931
1.2931
1.2931
1.2931
1.2931
1.2931
1.2931
1.2931
1.2931
1.29311
1.29311
1.29312
1.29313
1.29315
1.29315
1.29321
1.29623
1.3008
1.30078
1.2931
1.2931
1.2931
1.2931
1.2931
1.2931
1.2931
1.2931
1.2931
1.2931
1.2931
1.2931
1.2931
1.29311
1.29311
1.29312
1.29314
1.29315
1.29314
1.29385
1.29982
1.30074
1.29561
1.2931
1.2931
1.2931
1.2931
1.2931
1.2931
1.2931
1.2931
1.2931
1.2931
1.2931
1.2931
1.29311
1.29311
1.29311
1.29313
1.29314
1.29315
1.29312
1.29426
1.29846
1.29571
1.29301
1.2931
1.2931
1.2931
1.2931
1.2931
1.2931
1.2931
1.2931
1.2931
1.2931
1.29311
1.29311
1.29311
1.29311
1.29312
1.29313
1.29314
1.29314
1.29323
1.29355
1.29293
1.29294
1.29301
1.29311
1.29311
1.29311
1.29311
1.29311
1.29311
1.29311
1.29311
1.29311
1.29311
1.29311
1.29312
1.29312
1.29312
1.29313
1.29314
1.29315
1.29314
1.29306
1.29294
1.29289
1.29293
1.293
1.29312
1.29312
1.29312
1.29312
1.29312
1.29312
1.29312
1.29312
1.29312
1.29312
1.29312
1.29313
1.29313
1.29314
1.29315
1.29315
1.29315
1.29308
1.29295
1.29287
1.29285
1.29292
1.293
1.29312
1.29312
1.29312
1.29313
1.29313
1.29313
1.29313
1.29313
1.29313
1.29313
1.29314
1.29314
1.29315
1.29316
1.29318
1.29319
1.29316
1.29307
1.29299
1.29288
1.29284
1.29291
1.29299
1000.05
999.987
1000.02
966.879
1000.05
1000.05
1000.04
999.598
1000.05
1000.05
1000.05
1000.04
997.155
996.677
997.224
996.153
418.99
468.359
501.898
533.023
1.29335
1.29337
1.29338
1.29339
1.29329
1.29332
1.29333
1.29334
1.2935
1.29347
1.29325
1.29327
1.29327
1.29445
1.29885
1.29885
1.29327
1.29362
1.29416
1.29417
1.29324
1.29324
1.29325
1.29544
1.29323
1.29323
1.2935
1.30015
1.29322
1.29322
1.2934
1.29549
1.29322
1.29322
1.29325
1.29326
1.29322
1.29322
1.29321
1.29321
1.29321
1.29321
1.29321
1.29321
1.29321
1.29321
1.29321
1.29321
1.29321
1.29321
1.2932
1.2932
1.2932
1.2932
1.2932
1.2932
1.2932
1.2932
1.2932
1.2932
1.2932
1.2932
1.2932
1.2932
1.29319
1.29319
1.29319
1.29319
1.29319
1.29319
1.29319
1.29319
1.29318
1.29318
1.29318
1.29318
1.29316
1.29316
1.29317
1.29317
1.29314
1.29314
1.29314
1.29315
1.29312
1.29312
1.29312
1.29313
1.29311
1.29312
1.29312
1.29312
1.29311
1.29311
1.29311
1.29312
1.29312
1.29312
1.29312
1.29312
1.29314
1.29314
1.29314
1.29314
1.29315
1.29315
1.29315
1.29315
1.29315
1.29328
1.29321
1.29315
1.29528
1.29363
1.29322
1.29317
1.2983
1.29311
1.29315
1.29325
1.2954
1.29309
1.29314
1.29324
1.29306
1.29308
1.29313
1.29311
1.29305
1.29307
1.29308
1.29308
1.29304
1.29306
1.29307
1.29308
1.29304
1.29305
1.29307
1.29307
1.29303
1.29305
1.29306
1.29307
1.29303
1.29304
1.29306
1.29307
363.741
88.7539
96.0243
410.932
944.407
1000.05
880.601
228.488
8.07515
1.37609
1.56173
1.43443
1.29678
1.2958
1.2958
1.29571
1.29567
1.29522
821.117
963.617
918.28
974.786
1000.05
1000.05
1000.05
580.653
27.9387
1.40944
1.29654
1.31177
1.43443
1.29565
1.29586
1.2958
1.2957
1.29566
9.70588
839.755
1000.04
1000.04
1000.05
1000.05
1000.05
1000.05
291.399
4.16446
1.29599
1.29568
1.31363
1.43002
1.29584
1.29586
1.2958
1.29569
1.29563
64.8677
842.836
998.637
997.257
997.278
998.024
1000.05
971.886
157.449
1.296
1.29568
1.29561
1.31493
1.36015
1.29589
1.29584
1.29577
1.29569
1.29553
95.4618
849.032
661.85
704.519
754.134
848.152
984.894
915.458
134.092
1.29585
1.29558
1.29597
1.30047
1.29578
1.29589
1.29582
1.29575
1.29569
1.29533
101.449
854.403
1.66922
22.4227
79.2899
275.076
796.046
916.572
234.536
1.29579
1.2956
1.29558
1.29558
1.29573
1.29585
1.2958
1.29572
1.29567
1.29503
99.8586
861.7
1.29334
1.29334
1.60563
20.7885
417.114
916.577
317.724
1.29569
1.29559
1.2956
1.29558
1.29576
1.2958
1.29577
1.29571
1.2957
1.29474
133.071
894.213
1.29329
1.29332
1.29333
2.05802
86.7132
612.134
637.736
5.87684
1.29552
1.29572
1.29562
1.29578
1.29577
1.29571
1.29564
1.29639
1.29423
338.018
952.199
1.29709
1.29808
1.32644
1.32645
5.63638
271.274
710.839
445.321
1.29658
1.29568
1.29569
1.29568
1.30746
1.29793
1.29529
1.29608
1.294
630.485
981.471
1.29514
1.29869
1.98328
4.48011
4.47981
42.7793
481.608
636.947
406.596
1.63138
1.29458
2.94128
46.6612
1.29499
1.29491
1.29506
217.857
844.473
981.471
1.30387
1.31303
1.43098
31.0998
87.5288
95.91
202.974
630.555
629.233
480.284
423.814
554.516
564.751
556.514
483.388
556.363
780.417
851.378
960.675
1.30395
1.30366
1.34255
36.6813
356.903
471.711
431.056
431.045
551.951
706.957
639.459
480.344
290.855
314.75
394.911
325.26
257.828
280.007
876.529
1.29729
1.29339
1.30789
9.52726
165.239
471.712
644.786
703.543
706.957
706.828
706.275
363.725
252.247
118.207
118.205
149.361
269.173
571.557
965.999
1.29321
1.29318
1.29956
1.2931
1.29315
1.2932
1.2932
200.986
487.934
578.443
654.357
831.115
831.114
687.636
713.811
835.078
918.192
925.71
985.913
1.29321
1.2932
1.29358
1.31538
1.31922
1.29861
1.29319
1.29317
1.29315
1.29312
13.0474
252.264
501.551
788.178
923.194
990.006
990.006
989.845
979.176
1.29321
1.2932
1.29317
1.29892
1.30541
1.32173
1.29407
1.29317
1.29404
1.29446
1.29309
1.293
1.29288
1.29278
224.776
653.677
990.006
988.449
966.828
1.2932
1.2932
1.29319
1.29319
1.29421
1.32878
1.3352
1.31689
1.30277
1.30273
1.29648
1.29356
1.29319
1.29346
1.29329
134.88
855.254
967.877
969.467
1.2932
1.2932
1.29319
1.29318
1.29314
1.30207
1.33521
1.33518
1.32708
1.30259
1.29963
1.29452
1.29563
1.31069
2.23114
5.96525
441.131
978.319
978.313
1.2932
1.2932
1.2932
1.29319
1.29317
1.29315
1.30163
1.32125
1.31088
1.29387
1.29317
1.29318
1.29723
1.30233
1.29418
3.42072
130.592
776.499
962.627
1.2932
1.2932
1.29319
1.29319
1.29319
1.29317
1.29328
1.29403
1.29335
1.29317
1.29318
1.29318
1.2932
1.29319
1.29423
1.871
15.0479
195.38
436.007
1.2932
1.2932
1.29319
1.29319
1.29319
1.29318
1.29318
1.29317
1.29317
1.29318
1.29318
1.29319
1.2932
1.29319
1.30548
1.57649
1.48429
1.48425
120.337
1.29319
1.29319
1.29319
1.29319
1.29319
1.29319
1.29318
1.29318
1.29318
1.29318
1.29319
1.29319
1.2932
1.2932
1.30788
1.32706
1.29698
7.33375
115.545
1.29319
1.29319
1.29319
1.29319
1.29319
1.29319
1.29319
1.29318
1.29319
1.29319
1.29319
1.29319
1.29319
1.2932
1.2974
1.30602
1.29697
5.04056
170.85
1.29319
1.29319
1.29319
1.29319
1.29319
1.29318
1.29318
1.29318
1.29318
1.29318
1.29319
1.29319
1.29319
1.29326
1.29571
1.29881
1.29749
1.30417
109.339
1.29318
1.29318
1.29318
1.29318
1.29318
1.29318
1.29318
1.29318
1.29318
1.29318
1.29319
1.29318
1.29319
1.29382
1.36695
3.02508
3.85354
23.0077
20.3244
1.29316
1.29316
1.29317
1.29318
1.29318
1.29318
1.29318
1.29318
1.29318
1.29318
1.29318
1.29318
1.2932
1.29367
1.84049
27.0206
103.613
201.43
100.324
1.29313
1.29314
1.29315
1.29316
1.29317
1.29317
1.29318
1.29318
1.29318
1.29318
1.29318
1.29317
1.29321
1.29363
2.01404
43.4212
235.903
235.903
235.903
1.29312
1.29312
1.29313
1.29314
1.29316
1.29317
1.29317
1.29317
1.29317
1.29317
1.29317
1.29317
1.29326
1.2936
2.16187
30.73
103.273
235.903
235.903
1.29312
1.29312
1.29312
1.29313
1.29314
1.29315
1.29316
1.29317
1.29317
1.29317
1.29317
1.29318
1.29326
1.29447
2.49511
2.12291
1.30274
114.595
157.524
1.29312
1.29312
1.29312
1.29312
1.29313
1.29314
1.29315
1.29316
1.29316
1.29316
1.29316
1.29319
1.29315
1.29518
2.13639
1.29312
1.30247
1.29345
245.126
1.29314
1.29314
1.29314
1.29314
1.29313
1.29313
1.29314
1.29315
1.29316
1.29316
1.29315
1.29318
1.29315
1.29314
1.74785
1.29303
1.30024
1.29329
428.042
1.29315
1.29316
1.29315
1.29314
1.29314
1.29314
1.29314
1.29314
1.29315
1.29315
1.29315
1.29316
1.29314
1.29313
1.54563
1.29406
1.29323
1.2931
428.033
1.29313
1.29315
1.29387
1.29331
1.29313
1.29313
1.29313
1.29314
1.29314
1.29315
1.29315
1.29315
1.29314
1.29313
1.42044
1.29742
1.29332
1.29289
427.992
1.29319
1.29312
1.29858
1.31492
1.29781
1.29311
1.29312
1.29313
1.29313
1.29314
1.29314
1.29314
1.29313
1.29313
1.31098
1.29522
1.29366
1.29269
417.577
1.29326
1.29312
1.29311
1.43696
1.45012
1.32033
1.2931
1.29313
1.29313
1.29313
1.29314
1.29314
1.29313
1.29454
1.29882
1.29412
1.2929
1.29259
270.014
1.29325
1.29311
1.29935
1.47718
1.47716
1.45511
1.32311
1.29319
1.29312
1.29313
1.29313
1.29313
1.29313
1.30865
1.30301
1.29411
1.29294
1.29256
200.539
1.29314
1.29351
1.29589
1.44706
1.47715
1.47714
1.33626
1.29313
1.29311
1.29312
1.29313
1.29313
1.29313
1.31021
1.30928
1.29625
1.29359
1.29255
176.921
1.29309
1.29312
1.29638
1.34825
1.47714
1.40088
1.30559
1.2931
1.2931
1.29312
1.29313
1.29314
1.29312
1.3102
1.30154
1.2974
1.29389
1.29256
148.342
1.29309
1.2931
1.29335
1.329
1.47716
1.37432
1.29328
1.29329
1.29317
1.29312
1.29312
1.29314
1.29312
1.29814
1.29604
1.2996
1.29396
1.29258
133.032
1.29308
1.29309
1.29318
1.29893
1.36209
1.40785
1.32674
1.2931
1.29322
1.29311
1.29312
1.29313
1.29312
1.29312
1.29596
1.30395
1.29362
1.29261
131.212
1.29308
1.29309
1.2932
1.29344
1.29729
1.35354
1.3472
1.29311
1.29322
1.29328
1.29318
1.29313
1.29313
1.29313
1.30422
1.30405
1.2937
1.29266
60.8067
1.29308
1.29309
1.29311
1.29308
1.29307
1.29307
1.30462
1.29403
1.2931
1.29341
1.29319
1.29319
1.29312
1.29532
1.30611
1.29875
1.29286
1.29265
6.86175
)
;

boundaryField
{
    leftWall
    {
        type            calculated;
        value           nonuniform List<scalar> 
50
(
1000.05
1000.05
1000.05
1000.05
1000.05
1000.05
1000.05
995.684
639.927
17.0222
1.29329
1.29325
1.29324
1.29323
1.29323
1.29323
1.29323
1.29322
1.29322
1.29322
1.29322
1.29321
1.29321
1.29321
1.2932
1.2932
1.29319
1.29318
1.29316
1.29314
1.29313
1.29312
1.29311
1.2931
1.29309
1.29309
1.29309
1.29309
1.29309
1.29309
1.29309
1.2931
1.2931
1.2931
1.2931
1.2931
1.2931
1.29311
1.29312
1.29312
)
;
    }
    rightWall
    {
        type            calculated;
        value           nonuniform List<scalar> 
50
(
743.396
746.606
776.202
776.202
776.201
706.529
513.059
684.87
821.117
839.755
842.836
849.032
854.403
861.7
894.213
952.199
981.471
981.471
960.675
876.529
965.999
985.913
979.176
966.828
969.467
978.313
962.627
436.007
120.337
115.545
170.85
109.339
20.3244
100.324
235.903
235.903
157.524
245.126
428.042
428.033
427.992
417.577
270.014
200.539
176.921
148.342
133.032
131.212
60.8067
6.86175
)
;
    }
    lowerWall
    {
        type            calculated;
        value           nonuniform List<scalar> 
62
(
1000.05
1000.05
1000.05
1000.05
1000.05
1000.05
1000.05
1000.05
1000.05
1000.05
1000.05
1000.05
1000.05
1000.05
1000.05
1000.05
1000.05
1000.05
1000.05
1000.05
1000.05
1000.05
999.829
999.829
999.764
999.764
999.764
999.947
1000.05
1000.05
1000.05
1000.05
999.987
1000.02
966.879
514.299
410.789
98.0596
2.02432
95.1291
258.92
258.917
137.949
514.299
514.29
533.166
533.188
597.073
699.335
722.391
722.39
722.389
717.466
713.309
742.891
746.346
746.347
746.346
746.347
746.347
746.345
743.396
)
;
    }
    atmosphere
    {
        type            calculated;
        value           nonuniform List<scalar> 
46
(
1.29322
1.29322
1.29322
1.29322
1.29322
1.29322
1.29322
1.29322
1.29322
1.29322
1.29323
1.29323
1.29324
1.29325
1.29327
1.29328
1.29325
1.29315
1.29308
1.29291
1.29293
1.29301
1.29308
1.29312
1.29314
1.29315
1.29316
1.29317
1.29318
1.29318
1.29318
1.29318
1.29318
1.30473
1.29413
1.29321
1.29352
1.29329
1.29329
1.29322
1.29542
1.30621
1.29884
1.29294
1.29274
6.86187
)
;
    }
    defaultFaces
    {
        type            empty;
    }
}


// ************************************************************************* //
