/*--------------------------------*- C++ -*----------------------------------*\
| =========                 |                                                 |
| \\      /  F ield         | OpenFOAM: The Open Source CFD Toolbox           |
|  \\    /   O peration     | Version:  3.0.1                                 |
|   \\  /    A nd           | Web:      www.OpenFOAM.org                      |
|    \\/     M anipulation  |                                                 |
\*---------------------------------------------------------------------------*/
FoamFile
{
    version     2.0;
    format      ascii;
    class       volScalarField;
    location    "0.00015";
    object      p;
}
// * * * * * * * * * * * * * * * * * * * * * * * * * * * * * * * * * * * * * //

dimensions      [1 -1 -2 0 0 0 0];

internalField   nonuniform List<scalar> 
1000
(
68970
68970
68970
68970
68970
68970
68970
68970
68970
68970
68970
68970
68969.9
68969.9
68969.8
68969.5
68969.1
68968.4
68967.2
68965
68961.3
68955
68944.6
68927.5
68900.4
68858.1
68793.9
68698.8
68562.2
68372.2
68116.9
67786.7
67377.5
66893.4
66350
65775.8
65210.2
64698.6
64283.6
63993.4
63831.4
63772.9
63772.2
63784.6
63790.4
63792
63791.8
63788.4
63783.4
63777.7
63776.2
63781
63790.4
63791.8
63791.2
63791.5
63792.9
63803.5
63830.1
63860.4
63855.2
63760.1
63529.5
63147.2
62635.5
62046.3
61441.5
60875.6
60384.6
59984.5
59675.2
59446.4
59283.7
59171.7
59096.9
59048.3
59017.4
58998.2
58986.5
58979.5
58975.4
58973
58971.7
58970.9
58970.5
58970.3
58970.1
58970.1
58970
58970
58970
58970
58970
58970
58970
58970
58970
58970
58970
58970
68970
68970
68970
68970
68970
68970
68970
68970
68970
68970
68970
68970
68969.9
68969.9
68969.8
68969.5
68969.1
68968.4
68967.2
68965
68961.3
68955
68944.6
68927.5
68900.4
68858.1
68793.9
68698.8
68562.3
68372.2
68116.9
67786.7
67377.5
66893.4
66350
65775.8
65210.1
64698.5
64283.5
63993.3
63831.3
63772.9
63772.3
63784.7
63790.5
63792.1
63791.8
63788.5
63783.5
63777.7
63776.1
63781.1
63790.5
63791.8
63791.2
63791.4
63792.8
63803.4
63829.9
63860.3
63855.2
63760.1
63529.5
63147.2
62635.6
62046.3
61441.5
60875.6
60384.7
59984.5
59675.2
59446.4
59283.7
59171.7
59096.9
59048.3
59017.4
58998.2
58986.5
58979.5
58975.4
58973
58971.7
58970.9
58970.5
58970.3
58970.1
58970.1
58970
58970
58970
58970
58970
58970
58970
58970
58970
58970
58970
58970
68970
68970
68970
68970
68970
68970
68970
68970
68970
68970
68970
68970
68969.9
68969.9
68969.8
68969.5
68969.1
68968.4
68967.2
68965
68961.3
68955
68944.6
68927.5
68900.4
68858.1
68793.9
68698.8
68562.3
68372.2
68116.9
67786.7
67377.5
66893.3
66350
65775.7
65210
64698.3
64283.4
63993.2
63831.3
63773
63772.4
63784.9
63790.7
63792.2
63792
63788.7
63783.6
63777.9
63776.4
63781.1
63790.5
63791.8
63791.1
63791.2
63792.6
63803.1
63829.7
63860.1
63855.1
63760.2
63529.6
63147.3
62635.7
62046.3
61441.6
60875.6
60384.7
59984.5
59675.2
59446.4
59283.7
59171.7
59096.9
59048.3
59017.4
58998.2
58986.5
58979.5
58975.4
58973
58971.7
58970.9
58970.5
58970.3
58970.1
58970.1
58970
58970
58970
58970
58970
58970
58970
58970
58970
58970
58970
58970
68970
68970
68970
68970
68970
68970
68970
68970
68970
68970
68970
68970
68969.9
68969.9
68969.8
68969.5
68969.1
68968.4
68967.2
68965
68961.3
68955
68944.6
68927.5
68900.4
68858.2
68793.9
68698.9
68562.3
68372.2
68116.9
67786.7
67377.5
66893.3
66349.9
65775.6
65209.9
64698.2
64283.2
63993.1
63831.2
63773.1
63772.6
63785.2
63790.8
63792.3
63792
63788.7
63783.7
63777.9
63776.2
63781.2
63790.6
63791.9
63791.2
63791.2
63792.4
63802.9
63829.5
63860
63855.1
63760.2
63529.7
63147.4
62635.8
62046.4
61441.6
60875.7
60384.7
59984.5
59675.2
59446.4
59283.7
59171.7
59096.9
59048.3
59017.4
58998.2
58986.5
58979.5
58975.4
58973
58971.7
58970.9
58970.5
58970.3
58970.1
58970.1
58970
58970
58970
58970
58970
58970
58970
58970
58970
58970
58970
58970
68970
68970
68970
68970
68970
68970
68970
68970
68970
68970
68970
68970
68969.9
68969.9
68969.8
68969.5
68969.1
68968.4
68967.2
68965
68961.3
68955
68944.6
68927.5
68900.4
68858.2
68793.9
68698.9
68562.3
68372.2
68116.9
67786.8
67377.5
66893.3
66349.9
65775.6
65209.8
64698.1
64283.1
63993
63831.2
63773.1
63772.7
63785.3
63791
63792.4
63792.1
63788.8
63783.7
63777.9
63776.2
63781.2
63790.6
63791.9
63791.2
63791.1
63792.3
63802.8
63829.4
63859.9
63855.1
63760.2
63529.8
63147.5
62635.8
62046.4
61441.6
60875.7
60384.7
59984.5
59675.2
59446.4
59283.7
59171.7
59096.9
59048.3
59017.4
58998.2
58986.5
58979.5
58975.4
58973
58971.7
58970.9
58970.5
58970.3
58970.1
58970.1
58970
58970
58970
58970
58970
58970
58970
58970
58970
58970
58970
58970
68970
68970
68970
68970
68970
68970
68970
68970
68970
68970
68970
68970
68969.9
68969.9
68969.8
68969.5
68969.1
68968.4
68967.2
68965
68961.3
68955
68944.6
68927.5
68900.4
68858.2
68793.9
68698.9
68562.3
68372.3
68116.9
67786.8
67377.5
66893.4
66350
65775.6
65209.8
64698.1
64283
63992.9
63831.1
63773
63772.6
63785.2
63790.9
63792.3
63792.1
63788.7
63783.7
63777.9
63776.2
63781.2
63790.5
63791.9
63791.1
63791.1
63792.3
63802.8
63829.4
63860
63855.1
63760.3
63529.8
63147.5
62635.8
62046.5
61441.6
60875.7
60384.6
59984.5
59675.2
59446.4
59283.7
59171.7
59096.9
59048.3
59017.4
58998.2
58986.5
58979.5
58975.4
58973
58971.7
58970.9
58970.5
58970.3
58970.1
58970.1
58970
58970
58970
58970
58970
58970
58970
58970
58970
58970
58970
58970
68970
68970
68970
68970
68970
68970
68970
68970
68970
68970
68970
68970
68969.9
68969.9
68969.8
68969.5
68969.1
68968.4
68967.2
68965
68961.3
68955
68944.6
68927.5
68900.4
68858.2
68793.9
68698.9
68562.3
68372.3
68116.9
67786.8
67377.5
66893.4
66350
65775.7
65209.9
64698.1
64283
63992.9
63830.9
63772.8
63772.4
63785
63790.7
63792.3
63792
63788.7
63783.6
63777.9
63776.1
63781.1
63790.4
63791.8
63791
63791.1
63792.4
63802.9
63829.6
63860.1
63855.3
63760.4
63529.9
63147.6
62635.8
62046.4
61441.6
60875.6
60384.6
59984.5
59675.1
59446.4
59283.7
59171.7
59096.9
59048.3
59017.4
58998.2
58986.5
58979.5
58975.4
58973
58971.7
58970.9
58970.5
58970.3
58970.1
58970.1
58970
58970
58970
58970
58970
58970
58970
58970
58970
58970
58970
58970
68970
68970
68970
68970
68970
68970
68970
68970
68970
68970
68970
68970
68969.9
68969.9
68969.8
68969.5
68969.1
68968.4
68967.2
68965
68961.3
68955
68944.6
68927.5
68900.4
68858.2
68793.9
68698.9
68562.3
68372.3
68117
67786.8
67377.6
66893.5
66350.1
65775.7
65210
64698.2
64283.1
63992.9
63830.9
63772.6
63772.2
63784.8
63790.6
63792.2
63792
63788.7
63783.6
63777.9
63776.4
63781
63790.4
63791.6
63791
63791.1
63792.4
63803
63829.7
63860.3
63855.4
63760.4
63529.9
63147.5
62635.8
62046.4
61441.6
60875.6
60384.6
59984.5
59675.1
59446.4
59283.7
59171.7
59096.9
59048.3
59017.4
58998.2
58986.5
58979.5
58975.4
58973
58971.7
58970.9
58970.5
58970.3
58970.1
58970.1
58970
58970
58970
58970
58970
58970
58970
58970
58970
58970
58970
58970
68970
68970
68970
68970
68970
68970
68970
68970
68970
68970
68970
68970
68969.9
68969.9
68969.8
68969.5
68969.1
68968.4
68967.2
68965
68961.3
68955
68944.6
68927.5
68900.4
68858.2
68793.9
68698.9
68562.3
68372.3
68117
67786.8
67377.6
66893.5
66350.1
65775.8
65210
64698.3
64283.3
63993
63831
63772.7
63772.1
63784.6
63790.4
63792
63791.8
63788.5
63783.5
63777.8
63776
63781
63790.4
63791.7
63791
63791.2
63792.6
63803.2
63829.8
63860.3
63855.4
63760.4
63529.8
63147.5
62635.7
62046.4
61441.5
60875.6
60384.6
59984.5
59675.1
59446.4
59283.7
59171.7
59096.9
59048.3
59017.4
58998.2
58986.5
58979.5
58975.4
58973
58971.7
58970.9
58970.5
58970.3
58970.1
58970.1
58970
58970
58970
58970
58970
58970
58970
58970
58970
58970
58970
58970
68970
68970
68970
68970
68970
68970
68970
68970
68970
68970
68970
68970
68969.9
68969.9
68969.8
68969.5
68969.1
68968.4
68967.2
68965
68961.3
68955
68944.6
68927.5
68900.4
68858.2
68793.9
68698.9
68562.3
68372.3
68117
67786.8
67377.6
66893.5
66350.1
65775.8
65210.1
64698.4
64283.4
63993.1
63831.1
63772.8
63772.2
63784.6
63790.3
63791.8
63791.7
63788.4
63783.4
63777.7
63776.1
63781
63790.4
63791.7
63791.1
63791.3
63792.7
63803.2
63829.8
63860.3
63855.3
63760.4
63529.8
63147.4
62635.7
62046.3
61441.5
60875.6
60384.6
59984.5
59675.1
59446.4
59283.7
59171.7
59096.9
59048.3
59017.4
58998.2
58986.5
58979.5
58975.4
58973
58971.7
58970.9
58970.5
58970.3
58970.1
58970.1
58970
58970
58970
58970
58970
58970
58970
58970
58970
58970
58970
58970
)
;

boundaryField
{
    sides1
    {
        type            zeroGradient;
    }
    sides2
    {
        type            slip;
    }
    empty
    {
        type            empty;
    }
}


// ************************************************************************* //
