/*--------------------------------*- C++ -*----------------------------------*\
| =========                 |                                                 |
| \\      /  F ield         | OpenFOAM: The Open Source CFD Toolbox           |
|  \\    /   O peration     | Version:  2012                                  |
|   \\  /    A nd           | Website:  www.openfoam.com                      |
|    \\/     M anipulation  |                                                 |
\*---------------------------------------------------------------------------*/
FoamFile
{
    version     2.0;
    format      ascii;
    class       volScalarField;
    location    "0.53";
    object      maxKappa;
}
// * * * * * * * * * * * * * * * * * * * * * * * * * * * * * * * * * * * * * //

dimensions      [0 0 0 0 0 0 0];


internalField   nonuniform List<scalar> 
2268
(
1.62926e-06
3.23451e-06
4.71606e-06
6.07409e-06
7.39635e-06
8.83497e-06
1.00362e-05
1.10039e-05
1.19142e-05
1.25764e-05
1.30247e-05
1.33011e-05
1.34824e-05
1.34824e-05
1.34716e-05
1.31759e-05
1.26713e-05
1.19461e-05
1.10275e-05
9.85168e-06
8.23673e-06
6.25916e-06
3.84065e-06
2.00218e-06
3.40949e-06
4.83189e-06
6.17588e-06
7.49555e-06
8.9091e-06
1.0081e-05
1.10529e-05
1.19866e-05
1.26068e-05
1.30607e-05
1.33849e-05
1.35187e-05
1.35187e-05
1.34762e-05
1.31835e-05
1.27009e-05
1.20127e-05
1.10835e-05
9.86234e-06
8.1725e-06
6.16223e-06
3.9476e-06
2.53517e-06
3.7414e-06
5.05463e-06
6.36411e-06
7.67544e-06
9.0344e-06
1.01468e-05
1.11386e-05
1.20606e-05
1.26858e-05
1.31787e-05
1.35373e-05
1.36553e-05
1.36553e-05
1.35821e-05
1.33267e-05
1.29109e-05
1.23026e-05
1.14979e-05
1.04234e-05
8.90832e-06
7.03564e-06
4.91486e-06
3.16578e-06
4.20553e-06
5.38142e-06
6.63713e-06
7.94026e-06
9.24033e-06
1.02932e-05
1.13139e-05
1.22185e-05
1.28332e-05
1.33374e-05
1.36429e-05
1.37068e-05
1.37068e-05
1.35987e-05
1.33485e-05
1.29624e-05
1.2388e-05
1.15739e-05
1.05927e-05
9.311e-06
8.13386e-06
6.86837e-06
3.84432e-06
4.74887e-06
5.77823e-06
6.97187e-06
8.25897e-06
9.47931e-06
1.04659e-05
1.15125e-05
1.23887e-05
1.30027e-05
1.35446e-05
1.38725e-05
1.39672e-05
1.39672e-05
1.39019e-05
1.36649e-05
1.33114e-05
1.28357e-05
1.21949e-05
1.13799e-05
1.02696e-05
9.19356e-06
7.81715e-06
4.55791e-06
5.34322e-06
6.24738e-06
7.37708e-06
8.64611e-06
9.80205e-06
1.07634e-05
1.18422e-05
1.2668e-05
1.32395e-05
1.37845e-05
1.40464e-05
1.40612e-05
1.40612e-05
1.39411e-05
1.36854e-05
1.33567e-05
1.29434e-05
1.23588e-05
1.17345e-05
1.09154e-05
1.07001e-05
1.0654e-05
5.29785e-06
5.98296e-06
6.77967e-06
7.84821e-06
9.08151e-06
1.01512e-05
1.10821e-05
1.21486e-05
1.29026e-05
1.35084e-05
1.40915e-05
1.44034e-05
1.44933e-05
1.44933e-05
1.44303e-05
1.41536e-05
1.38006e-05
1.34727e-05
1.3097e-05
1.27221e-05
1.2188e-05
1.21546e-05
1.18064e-05
6.07799e-06
6.67043e-06
7.38934e-06
8.40104e-06
9.58167e-06
1.05908e-05
1.15439e-05
1.25813e-05
1.32643e-05
1.39152e-05
1.44554e-05
1.46687e-05
1.46874e-05
1.46874e-05
1.45166e-05
1.42035e-05
1.38679e-05
1.3631e-05
1.33515e-05
1.31885e-05
1.39001e-05
1.57811e-05
1.57811e-05
0.00190057
0.00357276
0.0039446
0.0039446
0.0031678
0.00298362
0.00286497
0.00273785
0.00238548
0.00180203
0.00159073
0.00157845
0.00156599
0.00128689
0.00113327
0.00106026
0.000957771
0.000816219
0.000547932
0.000969555
0.00139708
0.00160168
0.00160168
0.00102682
0.000925466
0.000925466
0.00158228
0.00289497
0.00318552
0.00318552
0.00266176
0.00207198
0.00183297
0.0017045
0.00156229
0.00126142
0.000811584
0.000557716
0.000804958
0.000804958
0.000781051
0.00147302
0.00208827
0.00208827
0.00183182
0.00174819
0.00348605
0.00387343
0.00387343
0.00373922
0.0034313
0.00322874
0.00312708
0.00337964
0.00337964
0.00231466
0.00117518
0.000767276
0.000918584
0.00118816
0.00183975
0.00274314
0.00306986
0.00306986
0.00251832
0.0028679
0.00324456
0.00376764
0.00415182
0.00425324
0.00429333
0.00443586
0.00443586
0.00434694
0.00285616
0.00115087
0.000551758
0.000551758
0.000936215
0.00139374
0.00160329
0.00258606
0.00338289
0.00338289
0.00313182
0.00221788
0.00261408
0.00286006
0.00286006
0.00284533
0.00285417
0.00285417
0.00272391
0.00251966
0.00101851
0.00052381
0.000751706
0.00110143
0.00144712
0.00144712
0.00188799
0.00335679
0.00419588
0.00419588
0.00289097
0.00166068
0.00173316
0.00173316
0.00139781
0.000946295
0.00151551
0.00248588
0.00248588
0.00115645
0.000340348
0.000737846
0.00111188
0.00111188
0.000802182
0.00104672
0.00219392
0.00408673
0.00408673
0.00364077
0.00194447
0.00134076
0.00112905
0.000935393
0.000708476
0.00108396
0.00208694
0.00208694
0.0012315
0.000367363
0.000739641
0.000739641
0.00071722
0.000245569
0.000911714
0.00168877
0.00371578
0.0042091
0.0042091
0.00235576
0.0010995
0.000610207
0.000522833
0.00061568
0.00106596
0.00201763
0.00201763
0.00144017
6.82284e-05
6.97412e-05
7.14582e-05
7.47838e-05
7.7516e-05
7.85399e-05
7.33452e-05
6.42986e-05
5.06801e-05
4.2877e-05
3.7997e-05
3.18247e-05
2.71413e-05
2.09265e-05
1.64809e-05
1.51493e-05
1.48132e-05
1.48069e-05
1.54086e-05
1.69113e-05
1.9603e-05
2.50493e-05
2.7455e-05
0.000193084
0.000187556
0.000193893
0.000199794
0.000209501
0.000214744
0.000219332
0.000219332
0.00021554
0.000198875
0.000174391
0.000165154
0.000155416
0.000108477
4.6733e-05
3.3193e-05
2.35745e-05
1.58447e-05
1.56638e-05
1.5786e-05
1.77218e-05
2.17221e-05
2.7455e-05
0.000211204
0.00020484
0.000203244
0.000203244
0.000202386
0.000197697
0.000196758
0.00018641
0.000170769
0.000151312
0.000224276
0.000270863
0.000293242
0.000293242
0.000268357
0.000206957
0.000101227
3.28597e-05
3.0261e-05
2.29168e-05
1.85375e-05
2.15932e-05
2.48014e-05
0.000215089
0.000206858
0.000203721
0.000199488
0.000181306
0.000169292
0.000144413
0.000133143
0.000120527
0.000230147
0.000252712
0.000252712
0.000202916
0.000269521
0.00015029
0.000147895
0.000198592
0.000198592
0.000170989
9.2471e-05
3.83382e-05
3.808e-05
3.90246e-05
0.000216664
0.000216664
0.000212211
0.000209016
0.000202273
0.000192674
0.000179731
0.000168137
0.000159936
0.000165239
0.000199415
0.000126741
0.000187781
0.000220733
0.000277141
0.000218098
0.000187761
0.000121248
0.000176228
0.000200178
0.000217441
0.000217441
0.000206866
0.000215249
0.000212787
0.000205451
0.000202138
0.000187611
0.000181015
0.000160557
0.000159248
0.000141529
0.000166304
0.000174844
0.000174844
0.000236737
0.000305672
0.000305672
0.000264241
0.000296126
0.000285678
0.000330417
0.000296537
0.000284742
0.000290716
0.00034724
0.000219429
0.000219429
0.000215157
0.000210535
0.000203415
0.000194871
0.000183127
0.00017743
0.000163348
0.000168063
0.000153615
0.000156986
0.000137983
0.000227111
0.000241527
0.000248747
0.000342551
0.000388645
0.000421684
0.00043846
0.000441967
0.000483845
0.000471778
0.000224168
0.000222322
0.000217672
0.000215685
0.000205947
0.000203313
0.000190622
0.00019017
0.000179814
0.000182315
0.000188189
0.000188189
0.000200711
0.000209834
0.000209834
0.000189149
0.000252948
0.000298553
0.000337832
0.000406315
0.000493267
0.00052391
0.00052391
0.000232975
0.000231919
0.00022811
0.000226743
0.000218675
0.000217281
0.000207049
0.000206805
0.00019726
0.000198734
0.000189337
0.000195501
0.000187511
0.000199452
0.000205935
0.00020407
0.000221161
0.000226138
0.000248861
0.000289686
0.000342013
0.000412685
0.000430434
0.000242154
0.000241599
0.000238099
0.000237259
0.000230417
0.000229678
0.000221968
0.000221642
0.000215677
0.000216973
0.000213765
0.000218774
0.000219946
0.000225574
0.000225798
0.000225365
0.000232521
0.000237578
0.000252904
0.000263223
0.000263223
0.000270849
0.00029259
0.000254597
0.000254221
0.000251297
0.000250901
0.000245156
0.000244985
0.000238823
0.000238456
0.000233362
0.000234768
0.000229939
0.000235919
0.000233251
0.000241765
0.000242996
0.000246705
0.000249599
0.000247361
0.000245081
0.000238982
0.00023884
0.000230111
0.000215941
0.000267328
0.00026711
0.000264698
0.000264755
0.000260291
0.000260415
0.000256147
0.000255638
0.000252687
0.000253845
0.00025103
0.000255552
0.000254053
0.000259478
0.000258212
0.000260397
0.000259091
0.000258672
0.000258152
0.000256779
0.000249377
0.0002344
0.000208
0.000282737
0.000282751
0.000280731
0.000281133
0.000277413
0.000277655
0.000274354
0.000273747
0.000271337
0.000272224
0.000269401
0.000272745
0.000269838
0.000274471
0.000271372
0.000274378
0.000269383
0.000267414
0.000258637
0.00024854
0.000231153
0.000208533
0.00017728
0.000298762
0.000298974
0.000297346
0.000297955
0.000295087
0.000295265
0.000293198
0.000292472
0.00029136
0.000291944
0.000290288
0.000293078
0.000290543
0.000294541
0.000290418
0.000293469
0.000286525
0.000286205
0.000276452
0.000268549
0.00025619
0.00023842
0.000214424
0.000316745
0.000317127
0.000315565
0.00031635
0.000314004
0.000314201
0.000312862
0.000312159
0.000311667
0.000312041
0.000310945
0.000313122
0.000311113
0.000314366
0.000310485
0.000313771
0.000306533
0.000307731
0.000296242
0.000291725
0.000274838
0.000262484
0.00024123
0.00033598
0.000336475
0.000335091
0.000335941
0.000334291
0.000334486
0.000334096
0.000333424
0.000333913
0.000334142
0.000334029
0.000336069
0.000334966
0.000338081
0.000335031
0.000338786
0.000332129
0.000335785
0.000324673
0.000326043
0.000311164
0.000309393
0.000295396
0.000356536
0.000357141
0.000355864
0.000356742
0.00035558
0.000355816
0.000356053
0.000355475
0.000356664
0.000356909
0.000357703
0.000359665
0.000359613
0.000362593
0.000361019
0.000365083
0.000360313
0.000365564
0.000356634
0.000362597
0.00035142
0.000358677
0.000351734
0.000378818
0.000379521
0.000378263
0.000379082
0.000378409
0.000378725
0.000379662
0.000379262
0.000381412
0.000381937
0.000383938
0.000386265
0.000387489
0.000390866
0.000391143
0.0003958
0.000393567
0.000400557
0.000394864
0.000405329
0.000398242
0.000413821
0.000412949
0.000401841
0.000402601
0.000401405
0.000402153
0.000401881
0.000402328
0.000403765
0.000403669
0.000406662
0.000407512
0.000410741
0.000413554
0.000416263
0.000420395
0.000422883
0.000428352
0.00042936
0.000437592
0.000436286
0.000449811
0.000447906
0.000469734
0.000475072
0.000426091
0.000426806
0.000425801
0.000426419
0.000426554
0.000427105
0.000429004
0.000429288
0.000433177
0.000434513
0.000439188
0.000442809
0.00044727
0.000452718
0.000457629
0.000464587
0.000469016
0.000478943
0.000482274
0.000498297
0.000501601
0.000527769
0.000538054
0.000450392
0.000450859
0.00045015
0.000450609
0.000450974
0.000451633
0.000453858
0.000454566
0.000459155
0.000460997
0.000467117
0.00047153
0.000477947
0.000484904
0.000492452
0.00050131
0.000509524
0.000521633
0.000530328
0.000548781
0.000558041
0.000587692
0.000602655
0.000474608
0.000474626
0.000474526
0.000474786
0.000475454
0.000476277
0.000478842
0.000479988
0.000485093
0.000487341
0.00049459
0.000499634
0.000507907
0.000516404
0.000526667
0.000537978
0.000550292
0.000565805
0.000580261
0.000602092
0.000617907
0.000651011
0.000670729
0.000497659
0.000497214
0.000497689
0.000497657
0.00049856
0.000499464
0.000502151
0.000503578
0.000508797
0.000511216
0.000519222
0.000524723
0.000534829
0.000544881
0.000558075
0.000572084
0.000588846
0.000607974
0.000628184
0.000653726
0.000676519
0.000713382
0.00073858
0.000519231
0.00051855
0.000519484
0.000519327
0.000520619
0.000521708
0.000524647
0.000526474
0.000531915
0.000534768
0.000543393
0.000549307
0.000560879
0.000571951
0.000587265
0.000603184
0.000623319
0.000645442
0.000670805
0.000700351
0.00073081
0.000772309
0.000804481
0.000538874
0.000538171
0.000539253
0.000539078
0.000540652
0.000541853
0.000544958
0.000547119
0.000552784
0.000556168
0.000565162
0.000571289
0.000583696
0.000594977
0.0006116
0.000628662
0.00065171
0.000676605
0.000706976
0.000740896
0.000779306
0.000825667
0.00086531
0.000556505
0.000555916
0.000557044
0.000557096
0.000559056
0.000560624
0.000564249
0.000567115
0.00057342
0.000577772
0.000587518
0.000594513
0.000607922
0.000619598
0.000637262
0.000655024
0.000679918
0.00070609
0.000739619
0.000778817
0.000824494
0.000871036
0.000918796
0.000572106
0.000571636
0.000572764
0.000573107
0.000575415
0.00057739
0.000581587
0.000585188
0.000592214
0.000597596
0.000608093
0.000616054
0.000630248
0.00064218
0.000660399
0.000678696
0.000703669
0.00073302
0.000767981
0.000809169
0.00085702
0.000907134
0.000959797
0.000585753
0.000585389
0.000586563
0.00058724
0.000589995
0.000592522
0.000597535
0.00060215
0.000610318
0.000617244
0.000629106
0.000638824
0.000654528
0.000667857
0.000687579
0.000706047
0.000731844
0.000757375
0.000792868
0.000833384
0.000885394
0.000943182
0.000996314
0.000597627
0.000597332
0.000598561
0.000599541
0.00060279
0.00060592
0.00061185
0.000617532
0.000626909
0.000635354
0.000648599
0.000660112
0.000677224
0.000692994
0.000713064
0.000735364
0.000760894
0.000790826
0.000825855
0.000867538
0.000915475
0.000972384
0.00102401
0.000607812
0.000607578
0.000608927
0.000610205
0.000614013
0.000617743
0.000624644
0.000631393
0.00064208
0.000652148
0.000666984
0.000680583
0.000699546
0.000716617
0.000739834
0.000761064
0.000789404
0.000816666
0.000852652
0.000887809
0.000936099
0.000992449
0.00105704
0.000616537
0.000616343
0.000617841
0.000619363
0.000623738
0.000628005
0.000635897
0.000643609
0.00065564
0.000668645
0.000684408
0.000702388
0.000722258
0.000744389
0.000768644
0.000795496
0.000825067
0.000857664
0.000893164
0.000933703
0.000978861
0.00103636
0.00108008
0.000623844
0.000623708
0.000625392
0.000627134
0.000632035
0.000636749
0.000645522
0.00065399
0.000667216
0.00067989
0.000697777
0.000714799
0.000737068
0.000758037
0.000784538
0.000809463
0.000840675
0.000870286
0.000907012
0.000943254
0.00098941
0.00103802
0.00111201
0.000629832
0.000629751
0.000631596
0.000633504
0.000638837
0.000644284
0.000653586
0.000665243
0.000679133
0.000695501
0.000714206
0.000735254
0.000758486
0.000783991
0.000811765
0.000842144
0.000875134
0.000911027
0.000950239
0.000993269
0.00104078
0.0011008
0.00112725
0.000634513
0.0006345
0.000636472
0.000638515
0.000644137
0.000649401
0.00065938
0.00066868
0.000683553
0.000698422
0.00071733
0.000737149
0.00076017
0.000783717
0.000810979
0.000837811
0.000870153
0.000899817
0.000937491
0.000971414
0.00101588
0.0010679
0.00116626
0.000637834
0.00063784
0.000639856
0.000642004
0.000647778
0.000655793
0.000665863
0.000678476
0.000693385
0.000710968
0.000730832
0.000753103
0.000777329
0.000803774
0.000832247
0.000863239
0.000896327
0.000932221
0.000970873
0.00101411
0.00106805
0.00115665
0.00121069
0.00064
0.000640027
0.000642054
0.000644179
0.000649917
0.000655569
0.000665382
0.000676785
0.000690733
0.000707158
0.000725527
0.000745934
0.000767744
0.000791241
0.000815994
0.000842499
0.000872217
0.000899812
0.000936864
0.000967998
0.0010138
0.00111989
0.00127059
0.000640835
0.000640831
0.000642765
0.000646422
0.000652137
0.000660114
0.00067009
0.000682585
0.000697234
0.000714377
0.000733431
0.000754441
0.000776648
0.000800307
0.000824741
0.000850537
0.000876423
0.000903692
0.000933676
0.000975395
0.00105851
0.00122419
0.0013412
0.000641069
0.000640913
0.000642765
0.000644772
0.000650352
0.000655764
0.000665355
0.000675537
0.000688909
0.000703154
0.000720934
0.000736957
0.000759307
0.000776716
0.000800727
0.000817946
0.000842567
0.000857422
0.000881338
0.000902663
0.00099745
0.0012093
0.0014231
0.000641069
0.000640913
0.000642638
0.000645486
0.000650679
0.000658018
0.000667149
0.000678516
0.000691691
0.000706809
0.000723184
0.000740459
0.000757505
0.000774107
0.000788165
0.000799141
0.000812673
0.000814803
0.000820929
0.000826004
0.000975482
0.00129087
0.0014231
0.000640144
0.000639862
0.000641364
0.000642833
0.000647765
0.000652032
0.000660977
0.000668503
0.000681484
0.00069211
0.000708286
0.000720583
0.000737479
0.000747855
0.000762158
0.000764585
0.000768986
0.000752718
0.000733363
0.000711021
0.000773765
0.00109076
0.00162909
0.00063869
0.000638306
0.00063958
0.000640813
0.000645202
0.000651045
0.000658597
0.000667953
0.000678634
0.000690527
0.000702802
0.000714749
0.00072461
0.000731756
0.000738297
0.000732336
0.000725027
0.00069731
0.000646853
0.000653365
0.00100777
0.00160039
0.0020702
0.000636651
0.000636156
0.000637193
0.000637995
0.000641947
0.000645026
0.000652347
0.000658047
0.000668503
0.000676338
0.000688618
0.000696519
0.000707468
0.000710294
0.000715101
0.000702914
0.000687489
0.00063819
0.000571409
0.0007527
0.00136324
0.00195468
0.0020702
2.73173e-05
2.45907e-05
2.51495e-05
2.56358e-05
2.73173e-05
2.84144e-05
3.02534e-05
3.11547e-05
2.72541e-05
2.84144e-05
3.02534e-05
3.11547e-05
3.57322e-05
3.51025e-05
3.56343e-05
3.62476e-05
0.000189756
0.000171057
0.000157364
0.000134488
0.000358737
0.000341674
0.000336075
0.000340889
0.000400143
0.000363251
0.000336075
0.000314613
0.000414878
0.000430135
0.00042475
0.000433374
0.000414878
0.000430135
0.00042475
0.000433374
0.00030185
0.000324842
0.000342338
0.000374301
0.000205247
0.000204679
0.000203283
0.000207402
0.000173341
0.000161832
0.000155639
0.000150572
0.000143932
0.000121143
9.8184e-05
7.9398e-05
0.00018133
0.00016568
0.00015179
0.000139287
0.000228278
0.000219857
0.000215102
0.000213129
0.000296097
0.000294079
0.000299699
0.000303963
0.000363043
0.000365688
0.000379118
0.000387835
0.000432065
0.000437666
0.000455786
0.000466398
0.000499964
0.000508443
0.000530024
0.000542529
0.000566483
0.000577028
0.000600803
0.000614547
0.00063339
0.000645462
0.000670573
0.000685212
0.00070322
0.000716657
0.000742491
0.000757716
0.00077385
0.000789089
0.000815848
0.000831763
0.000844022
0.000862002
0.000890627
0.000908194
0.000909952
0.000931075
0.000962479
0.000982865
0.000969679
0.000994754
0.00102964
0.00105451
0.00101794
0.00104707
0.00108644
0.00111705
0.00105936
0.00109111
0.00113593
0.00117161
0.00108834
0.00112295
0.00117382
0.00121307
0.00111807
0.00115658
0.0012108
0.00125343
0.00114014
0.00118652
0.00124524
0.00130097
0.00117572
0.00123339
0.00130439
0.00138849
0.00120581
0.00128707
0.00138286
0.00149922
0.0012806
0.00138888
0.00148968
0.00158587
0.00135909
0.0014494
0.00149053
0.00158587
0.00141498
0.00146992
0.00152352
0.00158532
0.00150166
0.00157975
0.00171774
0.00186375
0.00170803
0.00185648
0.00202776
0.0021943
0.00180994
0.00202242
0.00222173
0.00241138
0.00203492
0.0022369
0.00240413
0.00255568
0.0023337
0.00239254
0.002455
0.00255568
0.0023337
0.00239254
0.002455
0.0025213
0.000530743
0.000763208
0.000763208
0.000377993
0.000114503
0.000822245
0.0011782
0.00297797
0.0045161
0.0045161
0.00342218
0.0015419
0.00103674
0.00083111
0.000953636
0.00119786
0.00168659
0.00178318
0.00136933
0.000124215
0.000174636
0.000105041
6.51965e-05
9.78487e-05
0.000695903
0.00105877
0.00220957
0.00409762
0.00409762
0.00371808
0.00260225
0.00172196
0.00119941
0.000966786
0.00104292
0.00155
0.00178318
0.00122135
4.08656e-05
4.15215e-05
4.33958e-05
4.42945e-05
8.49665e-05
0.000622873
0.000971622
0.00158047
0.00334997
0.00364862
0.00346618
0.00265675
0.00195626
0.00145502
0.00119759
0.00106182
0.00135984
0.00166151
0.000837956
3.69554e-05
3.78779e-05
3.81313e-05
3.81313e-05
5.99345e-05
0.000456121
0.000836472
0.00133518
0.00264165
0.00319519
0.0029718
0.00250929
0.00200246
0.00149321
0.00116114
0.000833498
0.00119831
0.00152592
0.000661747
0.000121804
9.65693e-05
6.90122e-05
4.44665e-05
3.22583e-05
0.00016416
0.000585623
0.000760194
0.00158023
0.00246447
0.00223111
0.00210615
0.00175975
0.0013348
0.000981541
0.000650805
0.00121714
0.00149945
0.000530884
0.000470452
0.000470452
0.000367479
0.000196331
5.46323e-05
2.48391e-05
0.000315844
0.00073979
0.00143924
0.00189656
0.00177976
0.00164491
0.00151081
0.00120562
0.000950766
0.000520893
0.00101877
0.00142548
0.000341439
0.000431507
0.000456878
0.000586999
0.000636882
0.000299859
5.044e-05
4.44096e-05
0.000546891
0.000851346
0.00133665
0.00166216
0.00166216
0.00145189
0.00122694
0.000939378
0.000701395
0.000955925
0.00101413
0.000203147
0.000421343
0.000527655
0.000924328
0.000924328
0.000610046
0.00032666
6.35234e-05
0.000203044
0.000874962
0.00095484
0.00106726
0.00102263
0.00117342
0.00117342
0.00109102
0.00106875
0.00101035
0.000704651
0.00012725
0.00069169
0.00069169
0.000584947
0.000763943
0.000763943
0.000713936
0.000401405
0.000126992
0.000199847
0.000816606
0.000772687
0.000772687
0.000940885
0.00116876
0.00135688
0.00135688
0.00120398
0.000380539
6.59256e-05
0.000429472
0.000551108
0.000652826
0.000652826
0.000571447
0.000560496
0.000466793
0.000411318
0.000339364
0.000288924
0.000350813
0.000608167
0.000810403
0.000861616
0.000945245
0.000557626
0.000165815
5.89233e-05
3.14829e-05
0.000216452
0.000306764
0.000427848
0.000549839
0.000690656
0.000791749
0.000745569
0.000898097
0.000861063
0.000522269
0.000340818
0.00026044
0.000319602
0.000376361
0.000403211
0.000339562
0.00026909
9.36938e-05
3.07447e-05
0.000169269
0.00018073
0.000301156
0.000489448
0.000914976
0.00152325
0.00185614
0.00214987
0.00157467
0.00109493
0.000600664
0.000492968
0.000800726
0.00102633
0.00102633
0.00100983
0.000793991
0.000365581
5.82996e-05
0.000173459
0.000353908
0.000581458
0.0010488
0.00184281
0.00249099
0.00272187
0.00272187
0.00257272
0.00144436
0.000836057
0.000697038
0.000697038
0.000693491
0.000650599
0.000628628
0.000442597
0.000179315
4.8065e-05
0.000151545
0.000267504
0.000554257
0.0010546
0.00148655
0.00178139
0.00201478
0.00223604
0.00194806
0.00159428
0.000809214
0.00032553
0.000232821
0.0003125
0.000337552
0.000335151
0.000135058
4.42631e-05
5.60275e-05
0.000243452
0.000394023
0.00066338
0.0010444
0.00138167
0.00142285
0.00138542
0.00156911
0.00160402
0.0015709
0.00156743
0.00137885
0.000767776
0.000293199
8.84123e-05
5.24776e-05
2.01983e-05
3.90962e-05
6.38204e-05
0.000362153
0.000481456
0.00071171
0.00105388
0.00134193
0.00135926
0.0013135
0.00161417
0.00192029
0.00198728
0.00198728
0.00194296
0.00162192
0.00120627
0.000686674
0.000250144
5.13089e-05
3.5072e-05
6.38204e-05
0.000460149
0.000581369
0.00077499
0.00105679
0.00139597
0.00155359
0.00155359
0.00124625
0.00134865
0.00196001
0.00224928
0.00224928
0.0021059
0.0016157
0.00113256
0.00078791
0.000297412
9.31307e-05
5.25371e-05
0.000571675
0.000687034
0.000857459
0.00109331
0.00138457
0.00167677
0.00172161
0.00172161
0.00139715
0.00102834
0.0012236
0.00168394
0.00168266
0.00168136
0.00139879
0.00125361
0.000711679
0.00018957
4.30243e-05
0.000638858
0.000743549
0.000887271
0.00106603
0.00127761
0.00151678
0.00166798
0.00166798
0.00162916
0.00146119
0.00128305
0.00099353
0.00122733
0.00131737
0.00133656
0.00133656
0.000975656
0.000360406
4.80428e-05
0.000742637
0.000844708
0.000978313
0.00113832
0.00130961
0.00149147
0.00163947
0.00168327
0.00168327
0.0015906
0.00138408
0.00105964
0.000719178
0.00093007
0.00137716
0.00137716
0.00136985
0.000915544
0.000400676
0.000796906
0.000887075
0.000998903
0.0011251
0.00125683
0.00138974
0.00149679
0.0015623
0.0015623
0.00154769
0.0014463
0.00124731
0.000957131
0.000640311
0.000816635
0.00118028
0.00118094
0.00107889
0.000633087
0.000895863
0.000985132
0.00109098
0.00120429
0.00131118
0.00140829
0.00146891
0.00149889
0.00149889
0.00148074
0.00139514
0.00123111
0.00103237
0.000761983
0.00058129
0.000916442
0.00118094
0.00109439
0.000760046
0.000952473
0.00103187
0.00112472
0.00122329
0.00131561
0.00139877
0.0014465
0.00146286
0.00146286
0.00144725
0.00138812
0.0012782
0.00112643
0.000928687
0.000703909
0.000509782
0.000976499
0.000989921
0.000831952
0.00105389
0.00113089
0.00121768
0.00130814
0.00138793
0.00145478
0.00148135
0.00148135
0.001477
0.00144159
0.00136977
0.00126722
0.00114873
0.00101149
0.000857972
0.000628036
0.000924765
0.000989921
0.000880229
0.00112326
0.00119686
0.00127771
0.00136252
0.00143658
0.00149705
0.00151739
0.00151739
0.00150515
0.00146058
0.00138658
0.00128251
0.00116265
0.00101584
0.00084778
0.000631546
0.000714523
0.000851766
0.000755404
0.00122922
0.0013079
0.00139045
0.00147305
0.00153955
0.00158743
0.00159063
0.00159063
0.00156177
0.00149667
0.00141019
0.0013065
0.00119234
0.00107073
0.000853688
0.000569942
0.00065253
0.000713552
0.000682591
0.00130226
0.0013919
0.00148346
0.00157124
0.00164059
0.00169094
0.00169291
0.00169291
0.00165478
0.00157258
0.00147252
0.00136407
0.00125589
0.00116288
0.000970052
0.000674941
0.000615268
0.000653715
0.000650002
0.00139864
0.00151068
0.00161907
0.00171839
0.00179341
0.00184316
0.00184316
0.00184195
0.00179953
0.0017071
0.00161313
0.00152307
0.00152989
0.00161573
0.00127779
0.000924042
0.000880061
0.000681657
0.000571021
0.00146553
0.00160375
0.00174296
0.00187589
0.00197211
0.00202989
0.00203026
0.00203026
0.00198769
0.00188724
0.0018052
0.001799
0.00202298
0.00229408
0.00196949
0.00130521
0.00120454
0.0011922
0.000675695
0.00155658
0.0017452
0.00194181
0.00210993
0.00221786
0.00227475
0.00227475
0.00226898
0.00223211
0.0021422
0.00215148
0.00234181
0.00274666
0.00274666
0.00211046
0.00120751
0.00126269
0.00126269
0.000806528
0.00165424
0.00190583
0.00213973
0.00231441
0.00242645
0.00250045
0.00252066
0.00252338
0.00252338
0.00251587
0.00261144
0.00294005
0.00318243
0.00312741
0.0018077
0.00125002
0.00125002
0.00117819
0.000809964
0.00181928
0.00210058
0.00230787
0.00245054
0.00253967
0.00261092
0.00267727
0.00275331
0.00278038
0.00288164
0.00307233
0.00346692
0.00359506
0.00334601
0.00170638
0.00145953
0.00145953
0.00122232
0.00103748
0.00195482
0.00212835
0.00224398
0.00235637
0.00245813
0.0025912
0.00274745
0.00296127
0.0031059
0.00327456
0.00351434
0.00389905
0.00391892
0.00358856
0.00172088
0.00151914
0.00169286
0.00131663
0.000934428
0.00190651
0.00193772
0.00198522
0.00207953
0.00221858
0.00241879
0.0026749
0.00301011
0.00329639
0.00355167
0.00382486
0.00422437
0.00422437
0.00380398
0.00186295
0.00183514
0.00203897
0.00164945
0.000751652
0.00173036
0.00173036
0.00165411
0.00155086
0.0017113
0.00216469
0.00263347
0.00309142
0.00348244
0.0037876
0.00408214
0.0044721
0.0044721
0.00403218
0.00196594
0.00213355
0.00218142
0.00169868
0.000616271
0.00168345
0.00175807
0.00166236
0.00128622
0.000901376
0.00184481
0.00261386
0.00310964
0.00350175
0.00385647
0.00413889
0.00445562
0.00445562
0.00409959
0.0020158
0.00231778
0.00231778
0.00165962
0.000532159
0.00214603
0.00224414
0.00226626
0.00210338
0.00159301
0.00187495
0.0026509
0.00316748
0.00356557
0.00388808
0.00409515
0.00430668
0.00430668
0.00394769
0.0021454
0.00217852
0.00217852
0.00162521
0.000529759
0.00260644
0.00281711
0.00284724
0.00282965
0.00259914
0.00234974
0.00271286
0.00305576
0.00340859
0.00368189
0.00384053
0.00397603
0.00397603
0.00359697
0.00199708
0.0017879
0.00184844
0.00144807
0.000544342
0.00309533
0.00332493
0.00340226
0.00340226
0.00321927
0.00292803
0.00285873
0.00308564
0.00332901
0.00350675
0.00359343
0.00363557
0.00363557
0.00322421
0.0018883
0.00150862
0.00150862
0.00127638
0.00057078
0.00314491
0.00341324
0.00354219
0.00354219
0.00346098
0.00315118
0.00288679
0.00285373
0.00298849
0.00310383
0.00315591
0.00318572
0.00318572
0.00272449
0.0015507
0.00126812
0.00120111
0.0015579
0.000514218
0.00316316
0.00323876
0.00323912
0.00323912
0.00311858
0.00293203
0.0027946
0.00282247
0.00293907
0.00303673
0.00308147
0.00308147
0.00303108
0.00241869
0.00124205
0.00116177
0.00182841
0.00250737
0.00158388
0.0027406
0.00280934
0.00280934
0.00276229
0.00254852
0.00228507
0.00221871
0.00228097
0.00244161
0.00256056
0.00260004
0.00260004
0.00231192
0.00158755
0.000967081
0.00184228
0.00261271
0.00297551
0.00297551
)
;

boundaryField
{
    leftWall
    {
        type            calculated;
        value           uniform 0;
    }
    rightWall
    {
        type            calculated;
        value           uniform 0;
    }
    lowerWall
    {
        type            calculated;
        value           uniform 0;
    }
    atmosphere
    {
        type            calculated;
        value           uniform 0;
    }
    defaultFaces
    {
        type            empty;
    }
}


// ************************************************************************* //
