/*--------------------------------*- C++ -*----------------------------------*\
| =========                 |                                                 |
| \\      /  F ield         | OpenFOAM: The Open Source CFD Toolbox           |
|  \\    /   O peration     | Version:  2012                                  |
|   \\  /    A nd           | Website:  www.openfoam.com                      |
|    \\/     M anipulation  |                                                 |
\*---------------------------------------------------------------------------*/
FoamFile
{
    version     2.0;
    format      ascii;
    class       volScalarField;
    location    "0.53";
    object      minKappa;
}
// * * * * * * * * * * * * * * * * * * * * * * * * * * * * * * * * * * * * * //

dimensions      [0 0 0 0 0 0 0];


internalField   nonuniform List<scalar> 
2268
(
4.97176e-07
1.21903e-06
1.92095e-06
2.59153e-06
3.19804e-06
3.84025e-06
4.54619e-06
4.96197e-06
5.46302e-06
5.83365e-06
6.06924e-06
6.26012e-06
6.3532e-06
6.40908e-06
6.32801e-06
6.13086e-06
5.86133e-06
5.46269e-06
4.98784e-06
4.32968e-06
3.42573e-06
2.44477e-06
1.24e-06
4.97176e-07
1.21903e-06
1.92095e-06
2.59153e-06
3.19804e-06
3.84025e-06
4.54619e-06
4.96197e-06
5.46302e-06
5.83365e-06
6.06924e-06
6.26012e-06
6.3532e-06
6.40908e-06
6.32801e-06
6.13086e-06
5.86133e-06
5.46269e-06
4.98784e-06
4.32968e-06
3.42573e-06
2.44477e-06
1.24e-06
7.73505e-07
1.37082e-06
2.0087e-06
2.66376e-06
3.26284e-06
3.90731e-06
4.57333e-06
4.98707e-06
5.50156e-06
5.86428e-06
6.09032e-06
6.31185e-06
6.41313e-06
6.43084e-06
6.35844e-06
6.17172e-06
5.93371e-06
5.55884e-06
5.11406e-06
4.47371e-06
3.59912e-06
2.63835e-06
1.55584e-06
1.09209e-06
1.60212e-06
2.15358e-06
2.77856e-06
3.366e-06
4.01429e-06
4.62286e-06
5.03777e-06
5.57422e-06
5.90119e-06
6.16039e-06
6.37254e-06
6.47437e-06
6.45851e-06
6.38865e-06
6.21948e-06
6.00948e-06
5.66041e-06
5.24421e-06
4.68864e-06
3.92214e-06
3.24701e-06
2.32928e-06
1.42595e-06
1.88693e-06
2.34487e-06
2.92921e-06
3.50254e-06
4.15349e-06
4.69388e-06
5.11753e-06
5.67115e-06
5.95928e-06
6.25207e-06
6.45377e-06
6.55155e-06
6.52879e-06
6.46954e-06
6.29843e-06
6.11986e-06
5.80204e-06
5.43203e-06
4.95289e-06
4.30129e-06
3.88773e-06
3.05356e-06
1.7734e-06
2.19734e-06
2.57208e-06
3.11122e-06
3.6702e-06
4.31939e-06
4.79341e-06
5.24017e-06
5.79813e-06
6.04469e-06
6.35866e-06
6.55849e-06
6.63754e-06
6.61035e-06
6.54987e-06
6.37733e-06
6.22729e-06
5.95706e-06
5.64791e-06
5.27659e-06
4.73578e-06
4.66591e-06
4.06309e-06
2.1369e-06
2.52072e-06
2.83187e-06
3.32466e-06
3.87087e-06
4.50742e-06
4.92289e-06
5.40188e-06
5.93703e-06
6.14868e-06
6.49366e-06
6.68202e-06
6.76499e-06
6.73157e-06
6.67844e-06
6.47979e-06
6.35611e-06
6.12932e-06
5.90206e-06
5.65689e-06
5.2622e-06
5.53895e-06
5.07534e-06
2.51717e-06
2.85295e-06
3.12088e-06
3.57004e-06
4.10496e-06
4.71167e-06
5.08924e-06
5.60314e-06
6.08453e-06
6.28281e-06
6.67881e-06
6.81395e-06
6.92723e-06
6.86533e-06
6.8167e-06
6.5864e-06
6.49114e-06
6.31929e-06
6.18128e-06
6.06486e-06
5.79829e-06
6.51503e-06
6.52183e-06
0.000338398
0.000890035
0.001333
0.0010448
0.000788054
0.000787068
0.000810102
0.000724076
0.000891455
0.000844082
0.000799574
0.000749815
0.000682915
0.0005451
0.000498205
0.000452326
0.000385768
0.000294242
0.000176693
0.000317813
0.000436324
0.000473023
0.00049252
0.000573423
0.000645788
0.000538143
0.000290086
0.000891455
0.000844082
0.000799574
0.000749815
0.000682915
0.0005451
0.000498205
0.000452326
0.000385768
0.000294242
0.000176693
0.000277272
0.000390997
0.000319856
0.00049252
0.000573423
0.000645788
0.000538143
0.000290086
0.001177
0.00153913
0.00148433
0.00125177
0.00103715
0.00101593
0.000940128
0.00102096
0.000769926
0.000368867
0.000260186
0.000230833
0.000329873
0.000293531
0.00051879
0.000764598
0.00109073
0.000921526
0.000599102
0.0010927
0.00104465
0.00124857
0.00148472
0.00151956
0.00152252
0.00152859
0.0015932
0.00139983
0.000755538
0.00031785
0.000188524
0.000268784
0.000283926
0.000584655
0.000574771
0.000646935
0.00120123
0.0012374
0.0010927
0.000762613
0.000821689
0.00100454
0.000958784
0.000854698
0.000757565
0.000812202
0.00107752
0.000906765
0.00031785
0.000161217
0.000206193
0.000283926
0.000540131
0.000431805
0.000522443
0.000725659
0.00167198
0.00140136
0.000762613
0.000597537
0.000681911
0.000539042
0.000455386
0.000249295
0.000352046
0.000758641
0.00102121
0.000326071
0.000116541
0.000184511
0.000428222
0.000330509
0.000129027
0.000389502
0.000431058
0.00124244
0.00185746
0.000914955
0.000581852
0.000456614
0.000284333
0.000307791
0.000216085
0.00029726
0.000616002
0.00120937
0.000350857
0.000116541
0.000184511
0.000444204
0.000215457
5.34276e-05
0.000245569
0.000431058
0.00124244
0.00209154
0.00123999
0.000581852
0.000456614
0.000284333
0.000307791
0.000216085
0.00029726
0.000616002
0.00123629
0.00039161
5.96302e-06
6.49665e-06
6.8813e-06
7.56949e-06
8.39578e-06
9.23563e-06
9.53057e-06
1.01579e-05
1.04222e-05
1.04988e-05
1.10336e-05
1.10186e-05
1.11796e-05
1.09891e-05
1.09363e-05
1.05035e-05
1.04124e-05
1.01635e-05
1.02574e-05
1.02837e-05
1.06903e-05
1.25473e-05
1.51542e-05
6.82284e-05
6.97412e-05
7.14582e-05
7.47838e-05
7.7516e-05
7.85399e-05
7.33452e-05
6.42986e-05
5.06801e-05
4.2877e-05
3.7997e-05
3.18247e-05
2.71413e-05
2.09265e-05
1.59689e-05
1.47047e-05
1.46065e-05
1.44887e-05
1.46614e-05
1.47172e-05
1.5786e-05
1.74871e-05
1.96447e-05
0.000193084
0.000187556
0.000193893
0.00019669
0.000181306
0.000164432
0.000144413
0.000122484
0.000105716
0.000113072
0.000121484
0.000165154
0.000155416
0.000108477
4.6733e-05
3.3193e-05
2.35745e-05
1.58447e-05
1.56638e-05
1.55879e-05
1.70963e-05
1.85375e-05
1.91078e-05
0.000203299
0.000196423
0.00019228
0.000176338
0.000155876
0.000130685
0.000106291
9.25072e-05
9.25072e-05
0.000120527
0.000199415
0.000116182
0.000159315
0.000138832
6.12245e-05
6.12245e-05
0.000101227
3.28597e-05
3.0261e-05
2.29168e-05
1.85238e-05
1.93728e-05
1.76282e-05
0.000214527
0.000206858
0.000203721
0.000199488
0.000180937
0.000169292
0.000142642
0.000133143
0.000116672
0.000132712
6.1374e-05
6.1374e-05
0.000126741
0.00016978
0.000142248
0.000132759
5.78253e-05
5.78253e-05
6.41834e-05
9.2471e-05
3.83382e-05
3.808e-05
3.90246e-05
0.000206596
0.000201105
0.000195124
0.000184477
0.000171987
0.000156789
0.000145011
0.000138259
0.000138259
0.000141313
0.000137656
9.97333e-05
0.000121698
0.000220733
0.000241527
0.000207688
0.000187761
0.000108037
0.000176228
0.00013885
0.00013885
0.000159872
0.000206866
0.000215249
0.000212787
0.000205451
0.000202138
0.000187611
0.000181015
0.000160557
0.000159248
0.000141529
0.000138224
0.000120841
0.000105944
0.000105944
0.000110127
0.000160397
0.00018383
0.000248747
0.000285678
0.000330417
0.000296537
0.000284742
0.000290716
0.000272178
0.000215233
0.000211537
0.000207813
0.000201771
0.000195074
0.000187351
0.000178608
0.00017743
0.000163348
0.000168063
0.000153615
0.000156986
0.000137983
0.000174421
0.000189149
0.000183328
0.000185619
0.00020583
0.000244128
0.000289686
0.000342013
0.000412685
0.000347494
0.000224168
0.000222322
0.000217672
0.000215685
0.000205947
0.000203313
0.000190622
0.00019008
0.000179814
0.000175332
0.000169107
0.000165521
0.000164997
0.000164997
0.000179057
0.000183328
0.000202067
0.000217645
0.000217392
0.000217392
0.000223248
0.000256995
0.000267178
0.000232975
0.00023148
0.00022811
0.000225442
0.000218675
0.000217281
0.000207049
0.000206805
0.00019726
0.000198734
0.000189337
0.000195501
0.000187511
0.000199452
0.000205935
0.00020407
0.000220881
0.000226138
0.000235448
0.000237403
0.00023884
0.000230111
0.000170533
0.000242154
0.000241599
0.000238099
0.000237259
0.000230417
0.000229678
0.000221968
0.000221642
0.000215677
0.000216178
0.000212161
0.000214955
0.000215169
0.000218478
0.000224784
0.000225365
0.000232521
0.00023161
0.000222396
0.000212019
0.000203672
0.000197608
0.000135146
0.000254597
0.000254221
0.000251297
0.000250901
0.000245156
0.000244985
0.000238823
0.000238456
0.000233362
0.000234768
0.000229939
0.000235919
0.000233251
0.000241765
0.000242996
0.000246705
0.000249599
0.000247361
0.000245081
0.000236725
0.0002272
0.000206567
0.000128732
0.000267328
0.00026711
0.000264698
0.000264755
0.000260291
0.000260415
0.000256147
0.000255638
0.000252687
0.000253845
0.00025103
0.000255286
0.000252942
0.000255681
0.000256704
0.000256438
0.000252549
0.000246711
0.000235827
0.000220846
0.000198831
0.000169259
9.19024e-05
0.000282737
0.000282751
0.000280731
0.000281133
0.000277413
0.000277655
0.000274354
0.000273747
0.000271337
0.000272224
0.000269401
0.000272745
0.000269838
0.000274471
0.000271372
0.000274378
0.000269383
0.000267414
0.000258637
0.00024854
0.000231153
0.000208533
0.000134561
0.000298762
0.000298974
0.000297346
0.000297955
0.000295087
0.000295265
0.000293198
0.000292472
0.00029136
0.000291944
0.000290288
0.000293078
0.000290543
0.000294541
0.000290418
0.000292461
0.000286525
0.000282057
0.000271939
0.000258646
0.000240465
0.00021837
0.000141298
0.000316745
0.000317127
0.000315565
0.00031635
0.000314004
0.000314201
0.000312862
0.000312159
0.000311667
0.000312041
0.000310945
0.000313122
0.000311113
0.000314366
0.000310485
0.000313771
0.000306533
0.000307731
0.000296242
0.000291725
0.000274838
0.000262484
0.000199081
0.00033598
0.000336475
0.000335091
0.000335941
0.000334291
0.000334486
0.000334096
0.000333424
0.000333913
0.000334142
0.000334029
0.000336069
0.000334966
0.000338081
0.000335031
0.000338786
0.000332129
0.000335785
0.000324673
0.000326043
0.000311164
0.000309393
0.000234162
0.000356536
0.000357141
0.000355864
0.000356742
0.00035558
0.000355816
0.000356053
0.000355475
0.000356664
0.000356909
0.000357703
0.000359665
0.000359613
0.000362593
0.000361019
0.000365083
0.000360313
0.000365564
0.000356634
0.000362597
0.00035142
0.000358677
0.000292069
0.000378818
0.000379521
0.000378263
0.000379082
0.000378409
0.000378725
0.000379662
0.000379262
0.000381412
0.000381937
0.000383938
0.000386265
0.000387489
0.000390866
0.000391143
0.0003958
0.000393567
0.000400557
0.000394864
0.000405329
0.000398242
0.000413821
0.000331461
0.000401841
0.000402601
0.000401405
0.000402153
0.000401881
0.000402328
0.000403765
0.000403669
0.000406662
0.000407512
0.000410741
0.000413554
0.000416263
0.000420395
0.000422883
0.000428352
0.00042936
0.000437592
0.000436286
0.000449811
0.000447906
0.000469734
0.000388628
0.000426091
0.000426806
0.000425801
0.000426419
0.000426554
0.000427105
0.000429004
0.000429288
0.000433177
0.000434513
0.000439188
0.000442809
0.00044727
0.000452718
0.000457629
0.000464587
0.000469016
0.000478943
0.000482274
0.000498297
0.000501601
0.000527769
0.000427004
0.000450392
0.000450859
0.00045015
0.000450609
0.000450974
0.000451633
0.000453858
0.000454566
0.000459155
0.000460997
0.000467117
0.00047153
0.000477947
0.000484904
0.000492452
0.00050131
0.000509524
0.000521633
0.000530328
0.000548781
0.000558041
0.000587692
0.000485263
0.000474608
0.000474626
0.000474526
0.000474786
0.000475454
0.000476277
0.000478842
0.000479988
0.000485093
0.000487341
0.00049459
0.000499634
0.000507907
0.000516404
0.000526667
0.000537978
0.000550292
0.000565805
0.000580261
0.000602092
0.000617907
0.000651011
0.000528112
0.000497659
0.000497214
0.000497689
0.000497657
0.00049856
0.000499464
0.000502151
0.000503578
0.000508797
0.000511216
0.000519222
0.000524723
0.000534829
0.000544881
0.000558075
0.000572084
0.000588846
0.000607974
0.000628184
0.000653726
0.000676519
0.000713382
0.000587051
0.000519231
0.00051855
0.000519484
0.000519327
0.000520619
0.000521708
0.000524647
0.000526474
0.000531915
0.000534768
0.000543393
0.000549307
0.000560879
0.000571951
0.000587265
0.000603184
0.000623319
0.000645442
0.000670805
0.000699939
0.00073081
0.000770159
0.000628625
0.000538874
0.000538171
0.000539253
0.000539078
0.000540652
0.000541853
0.000544958
0.000547119
0.000552784
0.000556168
0.000565162
0.000571289
0.000583696
0.000594977
0.000610677
0.000628195
0.000649408
0.000674979
0.000704706
0.000739354
0.000778817
0.000824494
0.00068105
0.000556505
0.000555916
0.000557044
0.000557096
0.000559056
0.000560624
0.000564249
0.000567115
0.00057342
0.000577772
0.000587518
0.000594513
0.000607922
0.000619598
0.000637262
0.000655024
0.000678696
0.000703669
0.00073302
0.000767981
0.000809169
0.00085702
0.000713112
0.000572106
0.000571636
0.000572764
0.000573107
0.000575415
0.00057739
0.000581587
0.000585188
0.000592214
0.000597596
0.000607651
0.000616054
0.00062819
0.000641263
0.00065638
0.000674352
0.000695744
0.000721061
0.00075156
0.000788592
0.000833384
0.000885394
0.000748373
0.000585753
0.000585389
0.000586563
0.00058724
0.000589995
0.000592522
0.000597535
0.00060215
0.000610318
0.000617244
0.000629106
0.000638824
0.000654528
0.000667857
0.000687579
0.000706047
0.000731844
0.000757375
0.000790826
0.000825855
0.000867538
0.000915475
0.000771742
0.000597627
0.000597332
0.000598561
0.000599541
0.00060279
0.00060592
0.00061159
0.000617503
0.000625147
0.000634232
0.000645221
0.000657744
0.000672151
0.000688112
0.000706029
0.000725936
0.000748313
0.00077393
0.000804074
0.00083909
0.000881211
0.000930298
0.000790592
0.000607812
0.000607578
0.000608927
0.000610205
0.000614013
0.000617743
0.000624644
0.000631393
0.00064208
0.000652148
0.000666984
0.000680583
0.000699546
0.000716617
0.000739834
0.000761064
0.000789404
0.000816666
0.000852652
0.000887809
0.000933703
0.000978861
0.000817467
0.000616537
0.000616343
0.000617841
0.000619363
0.000622666
0.000626968
0.000633079
0.000640948
0.000650901
0.000662812
0.00067689
0.000692961
0.000711052
0.000730886
0.000752652
0.000776078
0.000801574
0.000829099
0.000859175
0.000892482
0.000931287
0.000976417
0.000824069
0.000623844
0.000623708
0.000625392
0.000627134
0.000631698
0.000636749
0.000644284
0.000653586
0.000665243
0.000679133
0.000695501
0.000714206
0.000735254
0.000758037
0.000783991
0.000809463
0.000840675
0.000870286
0.000907012
0.000943254
0.00098941
0.00103662
0.000868924
0.000629744
0.000629744
0.000630548
0.000632306
0.00063582
0.000640893
0.000648071
0.000657192
0.00066868
0.000682323
0.000698422
0.000716696
0.000737149
0.000759485
0.000783717
0.000809781
0.000837811
0.000867478
0.000898743
0.000931486
0.000966404
0.00100656
0.000862288
0.000634509
0.0006345
0.000635649
0.000637884
0.000642004
0.000647778
0.000655793
0.000665863
0.000678476
0.000693385
0.000710968
0.000730832
0.000753103
0.000777329
0.000803774
0.000832247
0.000863239
0.000896327
0.000932221
0.000967998
0.0010138
0.0010658
0.000963356
0.000636391
0.000636391
0.000637261
0.00063914
0.000642852
0.00064812
0.000655569
0.000664954
0.000676785
0.000690733
0.000707158
0.000725527
0.000745934
0.000767744
0.000791241
0.000815994
0.000842499
0.000869883
0.000898536
0.000927939
0.00096148
0.00101187
0.000962777
0.000638858
0.000638858
0.000640033
0.000642293
0.000646422
0.000652137
0.000660114
0.00067009
0.000682585
0.000697234
0.000714377
0.000733431
0.000754441
0.000776648
0.000800307
0.000817946
0.000842567
0.000857422
0.000881338
0.000902663
0.000961723
0.00105851
0.00104656
0.000638027
0.000638027
0.000638776
0.000640446
0.000643885
0.000648773
0.000655764
0.00066453
0.000675537
0.00068834
0.000703154
0.00071929
0.000736577
0.000754043
0.000771699
0.000788383
0.000804284
0.000814803
0.000820929
0.000824378
0.000881812
0.00099745
0.0010791
0.000639175
0.000639175
0.00063999
0.000641816
0.000645486
0.000650679
0.000658018
0.000667149
0.000678516
0.000691691
0.000706809
0.000720583
0.000737479
0.000747855
0.000762158
0.000764585
0.000768986
0.000752718
0.000733363
0.000711021
0.0007715
0.000975482
0.00128522
0.000636055
0.000636055
0.000636454
0.000637589
0.000640301
0.000644282
0.000650118
0.000657413
0.000666498
0.000676866
0.000688473
0.00070049
0.000712316
0.000722445
0.00073041
0.00072867
0.000712078
0.000679543
0.000642122
0.000599432
0.000648787
0.000773765
0.00109076
0.000636165
0.000636156
0.000636649
0.000637924
0.000640813
0.000644994
0.000651045
0.000658047
0.000667953
0.000676338
0.000688618
0.000696519
0.000707468
0.000710294
0.000715101
0.000702914
0.000687489
0.00063819
0.000571409
0.000536686
0.000653365
0.00100777
0.00160039
0.00063188
0.00063188
0.00063193
0.000632484
0.000634329
0.000637154
0.000641468
0.000646894
0.00065364
0.000661189
0.000669339
0.000677168
0.000683986
0.000687815
0.000680471
0.000661889
0.000622809
0.000557262
0.000510298
0.000510298
0.0007527
0.00136324
0.00167934
1.11973e-05
9.43394e-06
7.7765e-06
7.7765e-06
1.32036e-05
1.32036e-05
1.39468e-05
1.46164e-05
1.29832e-05
1.29832e-05
1.3641e-05
1.42376e-05
1.20834e-05
1.20834e-05
1.28763e-05
1.36319e-05
3.57322e-05
3.35235e-05
3.03573e-05
3.03573e-05
0.000189756
0.000171057
0.000157364
0.000134488
0.000146169
0.000123112
0.000105756
0.000105756
0.000212647
0.000200891
0.000183468
0.000183468
0.000184316
0.000184316
0.000201171
0.000220205
0.000110211
0.000110211
0.000112832
0.000117074
8.25026e-05
7.89687e-05
7.60067e-05
7.60067e-05
7.50723e-05
7.02878e-05
6.79653e-05
6.79653e-05
4.62274e-05
3.12767e-05
1.55311e-05
1.55311e-05
7.83621e-05
6.97412e-05
6.09724e-05
6.09724e-05
8.47327e-05
7.94838e-05
7.58591e-05
7.58591e-05
0.000125894
0.00012497
0.00012497
0.000125453
0.00015147
0.00015147
0.000154114
0.000158305
0.000190973
0.000190973
0.000195914
0.000202164
0.000217665
0.000217665
0.000223902
0.000231187
0.000256041
0.000256041
0.000263958
0.00027272
0.000281024
0.000281024
0.000289256
0.00029815
0.000319474
0.000319474
0.000328729
0.000338532
0.000347084
0.000347084
0.000356288
0.00036579
0.00038645
0.00038645
0.000396976
0.000407531
0.000414088
0.000414088
0.000425386
0.00043653
0.00044977
0.00044977
0.000462991
0.000476059
0.000472028
0.000472028
0.000486788
0.000501597
0.000497048
0.000497048
0.000514249
0.000532087
0.000512345
0.000512345
0.000530868
0.000550581
0.000525867
0.000525867
0.00054724
0.000569569
0.000542536
0.000542536
0.000564464
0.000587317
0.000550788
0.000550788
0.000577994
0.000608608
0.000582022
0.000582022
0.000615078
0.000657091
0.000591004
0.000591004
0.000641105
0.000698703
0.000666344
0.000666344
0.000714704
0.000749777
0.000657534
0.000657534
0.000667981
0.000667981
0.000701657
0.000701657
0.000738937
0.000796217
0.000747296
0.000747296
0.000811158
0.000887124
0.000925131
0.000925131
0.0010111
0.00109351
0.000871565
0.000871565
0.000978157
0.00107767
0.00112803
0.00112803
0.00119316
0.00124264
0.00108685
0.00107559
0.00107559
0.00108478
2.56358e-05
0.000174636
0.000105041
6.51965e-05
4.75766e-05
0.000114503
0.000742384
0.000764083
0.00297797
0.00239702
0.0011732
0.00047531
0.000368288
0.00038727
0.000438725
0.000522964
0.000949651
0.00136933
0.000781016
2.92101e-05
4.15215e-05
3.79556e-05
4.13002e-05
4.29482e-05
9.78487e-05
0.000695903
0.000353861
0.00220957
0.00364862
0.00260225
0.00114314
0.00103674
0.000779865
0.000846754
0.000867941
0.000965502
0.00122135
0.000777983
2.44124e-05
3.38183e-05
3.66073e-05
3.71609e-05
3.57163e-05
8.49665e-05
0.000622873
0.000353861
0.00158047
0.00319519
0.00261807
0.00192431
0.00141171
0.000995851
0.000964937
0.000721197
0.000783929
0.000837956
0.000533653
2.39133e-05
3.38183e-05
3.49963e-05
3.24363e-05
2.88047e-05
5.99345e-05
0.000456121
0.000417353
0.00133518
0.00246447
0.00223111
0.00194601
0.00146317
0.00110018
0.000833498
0.000502821
0.000679614
0.000661747
0.00037412
3.69554e-05
3.61017e-05
3.49963e-05
3.14271e-05
2.63595e-05
2.48391e-05
0.00016416
0.000523869
0.000760194
0.00158023
0.00172414
0.00164491
0.00131651
0.000981541
0.000650805
0.000295161
0.000629518
0.000530884
0.00023698
0.000121804
9.65693e-05
6.90122e-05
4.44665e-05
2.42748e-05
1.82351e-05
2.38919e-05
0.000315844
0.00073979
0.00127126
0.00154398
0.00142153
0.00120562
0.00094176
0.000520893
0.000254319
0.000415255
0.000341439
0.000125408
0.000192644
0.000303142
0.000320136
0.000196331
5.044e-05
1.82351e-05
1.98002e-05
4.44096e-05
0.000546891
0.000851346
0.00106726
0.00102263
0.00117147
0.000939378
0.000609734
0.000254319
0.000701395
0.000203147
7.75133e-05
0.000242868
0.000242868
0.000527655
0.000610046
0.000207387
4.60899e-05
2.20488e-05
4.4124e-05
0.000148445
0.000816606
0.000645964
0.000640963
0.000925641
0.000985845
0.000836968
0.000607085
0.000704651
0.00012725
5.14297e-05
0.000406224
0.000424939
0.000466615
0.000492147
0.000543385
0.00032666
6.35234e-05
7.51491e-05
0.000101241
0.000199847
0.000350813
0.000514568
0.000717397
0.000861616
0.000945245
0.000551755
0.000165815
5.89233e-05
2.92109e-05
0.000209932
0.000306764
0.000427848
0.000488741
0.000433926
0.000433926
0.00030468
0.000126992
0.000129367
0.000240384
0.000237645
0.00026044
0.000319602
0.000376361
0.000388855
0.000134135
5.43409e-05
3.14829e-05
1.60689e-05
0.000121029
0.000167258
0.00023621
0.000339947
0.000457291
0.000489524
0.000244804
0.000244804
0.000339364
0.000240384
0.000226576
0.000178328
0.000234876
0.000275453
0.00029202
0.000210603
8.03979e-05
3.07447e-05
1.60689e-05
0.000117882
0.000167258
0.000179096
0.000279235
0.000489448
0.000791749
0.000745569
0.000898097
0.000861063
0.000522269
0.000271895
0.000178328
0.000271157
0.000374608
0.000403211
0.000339562
0.00026909
5.82996e-05
2.25942e-05
3.06943e-05
0.000173459
0.000301156
0.00047783
0.000914976
0.00152325
0.00185614
0.00214987
0.00144436
0.000745116
0.000460638
0.000274817
0.000232821
0.00028205
0.000337552
0.000306641
0.000135058
4.42631e-05
3.38194e-05
8.84561e-05
0.000151545
0.000267504
0.000554257
0.0010546
0.00142285
0.00136188
0.00155533
0.00159428
0.000809214
0.000282857
0.000209177
0.000208528
0.000173004
8.24561e-05
5.24776e-05
1.57732e-05
2.27774e-05
3.94132e-05
0.000128393
0.000223468
0.000374822
0.00066338
0.0010444
0.00133429
0.00110734
0.00130006
0.00150593
0.00124863
0.000633862
0.00032553
0.00022983
7.14823e-05
3.78595e-05
2.01983e-05
1.42633e-05
1.63149e-05
3.90962e-05
0.00021511
0.00031815
0.000473343
0.00071171
0.00105388
0.0013135
0.00110734
0.00105343
0.00128072
0.0015709
0.00156743
0.00137885
0.000761443
0.000282656
8.84123e-05
4.47101e-05
1.42633e-05
1.74223e-05
3.5072e-05
0.000277096
0.000411381
0.00054946
0.00077499
0.00105679
0.00135926
0.00122947
0.000966328
0.000961505
0.00102834
0.0012236
0.00168394
0.00146252
0.00109196
0.000564144
0.000250144
4.70765e-05
1.8315e-05
4.02899e-05
0.000353186
0.000504341
0.000642666
0.000832863
0.00108571
0.00132046
0.00151595
0.00116521
0.00084935
0.000515773
0.000515773
0.000965422
0.00122733
0.00129894
0.00103748
0.000711679
0.00018957
3.45604e-05
3.45604e-05
0.000403061
0.000582679
0.00071141
0.000866325
0.00106603
0.00125425
0.00146697
0.00149829
0.0012392
0.000852236
0.00078395
0.000726669
0.000674015
0.000865701
0.00122006
0.000975656
0.000360406
4.80428e-05
3.50372e-05
0.000474726
0.000657652
0.000779537
0.000908177
0.00108561
0.00122299
0.00138433
0.00145433
0.00147334
0.00129132
0.00105964
0.000719178
0.000590169
0.000479614
0.000801013
0.0011256
0.000867301
0.000255521
4.65508e-05
0.000517119
0.000727145
0.000840422
0.000948961
0.00109916
0.00120735
0.00132557
0.0013595
0.00141319
0.00133042
0.00120686
0.000884416
0.000634333
0.000469661
0.000467263
0.000796688
0.00107889
0.000633087
0.000316635
0.000586102
0.000794735
0.000900464
0.000991523
0.00111706
0.00120735
0.00131812
0.00132181
0.00136082
0.00129157
0.00123003
0.00100196
0.000761983
0.000469661
0.000467263
0.000323218
0.000916442
0.000760046
0.000520505
0.000630797
0.000863798
0.000963062
0.00104346
0.00115469
0.00122359
0.00131812
0.00131916
0.00134368
0.00127311
0.00122506
0.00104365
0.000911785
0.000619495
0.00033645
0.000244604
0.000509782
0.000831952
0.000587826
0.000702022
0.000933873
0.00102558
0.0010963
0.00119656
0.00125192
0.00133251
0.00131916
0.00134368
0.00127167
0.00122454
0.00108081
0.000979545
0.000777256
0.000628036
0.000244604
0.000623586
0.000851766
0.000615434
0.000751369
0.00101114
0.00109841
0.00116271
0.00125693
0.00130177
0.00137216
0.00134409
0.001357
0.00127167
0.00122454
0.00108452
0.00100785
0.000827289
0.000631546
0.000404958
0.000522168
0.000713552
0.000587079
0.000820836
0.00109205
0.00117863
0.00123982
0.00133002
0.00136676
0.0014278
0.00138776
0.00139004
0.0012882
0.00124394
0.00109982
0.00103095
0.000853688
0.000569942
0.000404958
0.000484522
0.00065253
0.000565282
0.000866634
0.00117716
0.00127114
0.00133467
0.0014252
0.00145721
0.00151352
0.00146129
0.00145189
0.00132725
0.0012818
0.00113457
0.00107907
0.000940106
0.000674941
0.000417893
0.000492534
0.000576893
0.000558407
0.000922351
0.00126195
0.00137123
0.00144296
0.00154043
0.00157306
0.0016301
0.00157267
0.00155564
0.00141332
0.00137816
0.0012325
0.00123053
0.00113989
0.000850266
0.000595997
0.000563809
0.000571021
0.000448139
0.000956238
0.00134819
0.0014783
0.0015726
0.00168848
0.00172689
0.00178441
0.00172434
0.00170514
0.00154764
0.00154308
0.00142041
0.00152989
0.00161573
0.00127779
0.000728555
0.000880061
0.000675695
0.000404914
0.000994103
0.00143649
0.00160355
0.0017421
0.0018763
0.0019259
0.00197792
0.00191812
0.00190247
0.00174243
0.00178907
0.00172154
0.00200952
0.00211046
0.000920981
0.000860071
0.00114836
0.000806528
0.000404914
0.00103028
0.00154552
0.00176859
0.00193893
0.00208029
0.00213622
0.00219526
0.00214486
0.00215931
0.00201867
0.00215148
0.00212574
0.00262835
0.0018077
0.000557799
0.000946367
0.00114836
0.000809964
0.000423816
0.00108907
0.00169401
0.00194156
0.00209852
0.00223172
0.00227829
0.00235839
0.00235083
0.0024229
0.00232867
0.00254008
0.00257882
0.00318243
0.00170638
0.000459528
0.000988841
0.00121479
0.000961895
0.000663044
0.00119145
0.00180257
0.00188134
0.00195596
0.00207291
0.00217192
0.00236781
0.00249287
0.00267266
0.00263974
0.0029077
0.00302186
0.00358856
0.00172088
0.000459528
0.000924699
0.00131663
0.000934428
0.000558871
0.00126183
0.00163053
0.00161841
0.00155086
0.00167199
0.00189147
0.00225661
0.0025328
0.00285519
0.00291741
0.00322821
0.00337459
0.00380398
0.00186295
0.000491736
0.00109196
0.00164945
0.000751652
0.000418224
0.0012736
0.00152912
0.00142925
0.00109983
0.000876309
0.00146027
0.00214601
0.0025328
0.00296505
0.00313937
0.00346114
0.00364604
0.00403218
0.00196594
0.000515938
0.00123875
0.00169868
0.000616271
0.000328859
0.00113096
0.00152912
0.00128622
0.000727172
0.000706603
0.000901376
0.00184481
0.00254067
0.00302479
0.00326311
0.00360494
0.0037513
0.00409959
0.0020158
0.000515938
0.00136203
0.00165962
0.000532159
0.000245278
0.00141707
0.00175807
0.00166236
0.00127523
0.000706603
0.00129404
0.00187495
0.0026509
0.00299976
0.00327234
0.00352852
0.00359601
0.00383523
0.0021454
0.00062792
0.00146789
0.00162521
0.000529759
0.000167955
0.00160936
0.00224414
0.00226626
0.00210338
0.00159301
0.00166722
0.00215361
0.00261719
0.00292893
0.00314024
0.00332638
0.00335492
0.00347917
0.00199708
0.000789874
0.00132128
0.00144807
0.000544342
0.000128749
0.0019585
0.00272385
0.00284724
0.00280333
0.00243742
0.00226357
0.00237449
0.00258738
0.00278067
0.00291593
0.00303527
0.00303193
0.00309438
0.0018883
0.00085013
0.00126329
0.00118168
0.00057078
0.000128749
0.00195576
0.00297095
0.00307032
0.00308539
0.00289038
0.00259434
0.00252173
0.00250645
0.00261714
0.00271907
0.00280293
0.00280353
0.00272449
0.0015507
0.000678144
0.00107732
0.000949648
0.000514218
0.000203345
0.0021464
0.00272892
0.00274786
0.00268867
0.00245518
0.00228403
0.00221871
0.00225302
0.00236499
0.00249437
0.002556
0.00255973
0.00224504
0.00124205
0.000562769
0.000937343
0.000961029
0.00150962
0.000328107
0.00185502
0.00272892
0.00274786
0.00254852
0.00228507
0.00216791
0.00216791
0.00218344
0.00228097
0.00244161
0.002556
0.00231192
0.00158755
0.000890359
0.000562769
0.000967081
0.00152244
0.00250737
0.00158388
)
;

boundaryField
{
    leftWall
    {
        type            calculated;
        value           uniform 0;
    }
    rightWall
    {
        type            calculated;
        value           uniform 0;
    }
    lowerWall
    {
        type            calculated;
        value           uniform 0;
    }
    atmosphere
    {
        type            calculated;
        value           uniform 0;
    }
    defaultFaces
    {
        type            empty;
    }
}


// ************************************************************************* //
