/*--------------------------------*- C++ -*----------------------------------*\
| =========                 |                                                 |
| \\      /  F ield         | OpenFOAM: The Open Source CFD Toolbox           |
|  \\    /   O peration     | Version:  2012                                  |
|   \\  /    A nd           | Website:  www.openfoam.com                      |
|    \\/     M anipulation  |                                                 |
\*---------------------------------------------------------------------------*/
FoamFile
{
    version     2.0;
    format      ascii;
    class       volScalarField;
    location    "0.53";
    object      p_rgh;
}
// * * * * * * * * * * * * * * * * * * * * * * * * * * * * * * * * * * * * * //

dimensions      [1 -1 -2 0 0 0 0];


internalField   nonuniform List<scalar> 
2268
(
101962
101963
101965
101968
101973
101980
101987
101997
102009
102022
102038
102056
102077
102098
102123
102147
102174
102198
102226
102246
102270
102284
102295
101961
101963
101965
101968
101973
101979
101987
101996
102008
102021
102038
102055
102076
102098
102122
102147
102174
102199
102226
102247
102272
102285
102298
101960
101961
101963
101967
101971
101978
101986
101995
102007
102020
102037
102055
102075
102098
102122
102147
102174
102198
102226
102247
102271
102285
102296
101959
101960
101962
101966
101970
101977
101984
101994
102005
102019
102035
102053
102074
102096
102121
102146
102174
102199
102228
102250
102276
102291
102305
101957
101958
101960
101963
101968
101974
101982
101991
102003
102017
102033
102051
102072
102095
102120
102145
102173
102198
102227
102248
102274
102287
102302
101955
101956
101958
101961
101966
101972
101979
101989
102000
102014
102030
102048
102069
102093
102118
102145
102174
102200
102231
102255
102283
102301
102317
101951
101952
101954
101957
101962
101968
101976
101985
101997
102011
102027
102046
102067
102091
102116
102143
102173
102198
102229
102250
102279
102289
102309
101948
101949
101952
101955
101959
101965
101973
101981
101993
102006
102022
102041
102063
102087
102114
102142
102173
102201
102234
102259
102291
102310
102335
101860
101859
101851
101867
101873
101871
101868
101870
101869
101869
101876
101882
101891
101899
101907
101940
102057
102471
103099
101858
101855
101851
101851
101850
101850
101848
101850
101847
101840
101847
101871
101883
101884
101883
101888
101969
102364
102996
101857
101857
101852
101854
101852
101851
101849
101851
101844
101836
101835
101834
101834
101832
101830
101832
101868
102198
102806
101856
101855
101852
101852
101850
101850
101847
101849
101840
101833
101830
101829
101829
101829
101829
101830
101844
102023
102697
101856
101856
101854
101854
101852
101850
101847
101847
101838
101832
101829
101828
101829
101829
101830
101829
101835
101925
102533
101856
101855
101853
101855
101859
101850
101845
101844
101835
101832
101829
101828
101829
101829
101829
101829
101832
101856
102388
101856
101856
101854
101939
102040
101911
101848
101842
101832
101831
101829
101828
101829
101829
101830
101829
101830
101840
102272
101855
101855
101854
102114
102249
102029
101843
101836
101830
101831
101828
101828
101828
101829
101829
101829
101830
101832
102169
101892
101893
101899
101906
101915
101926
101941
101957
101976
101994
102014
102035
102058
102084
102110
102138
102171
102198
102231
102249
102283
102274
102300
101477
101480
101486
101495
101508
101525
101553
101583
101631
101694
101770
101850
101939
102027
102096
102135
102172
102205
102240
102273
102306
102324
102365
101328
101328
101328
101328
101328
101328
101328
101328
101328
101328
101336
101364
101412
101489
101618
101820
102087
102207
102241
102273
102303
102324
102366
101328
101328
101328
101328
101328
101328
101328
101328
101328
101328
101328
101328
101328
101329
101335
101361
101435
101608
101879
102193
102320
102346
102381
101328
101328
101328
101328
101328
101328
101328
101328
101328
101328
101328
101328
101328
101328
101328
101328
101328
101337
101379
101457
101600
101785
102080
101328
101328
101328
101328
101328
101328
101328
101328
101328
101328
101328
101328
101328
101328
101328
101328
101328
101328
101328
101328
101332
101343
101376
101328
101328
101328
101328
101328
101328
101328
101328
101328
101328
101328
101328
101328
101328
101328
101328
101328
101328
101328
101328
101328
101329
101329
101328
101328
101328
101328
101328
101328
101328
101328
101328
101328
101328
101328
101328
101328
101328
101328
101328
101328
101328
101328
101329
101329
101329
101328
101328
101328
101328
101328
101328
101328
101328
101328
101328
101328
101328
101328
101328
101328
101328
101328
101328
101328
101328
101328
101329
101329
101328
101328
101328
101328
101328
101328
101328
101328
101328
101328
101328
101328
101328
101328
101328
101328
101328
101328
101328
101328
101328
101329
101329
101328
101328
101328
101328
101328
101328
101328
101328
101328
101328
101328
101328
101328
101328
101328
101328
101328
101328
101328
101328
101328
101328
101329
101328
101328
101328
101328
101328
101328
101328
101328
101328
101328
101328
101328
101328
101328
101328
101328
101328
101328
101328
101328
101328
101328
101329
101328
101328
101328
101328
101328
101328
101328
101328
101328
101328
101328
101328
101328
101328
101328
101328
101328
101328
101328
101328
101328
101328
101328
101328
101328
101328
101328
101328
101328
101328
101328
101328
101328
101328
101328
101328
101328
101328
101328
101328
101328
101328
101328
101328
101328
101328
101327
101327
101327
101327
101328
101328
101328
101328
101328
101328
101328
101328
101328
101328
101328
101328
101328
101328
101328
101328
101328
101328
101328
101327
101327
101327
101327
101327
101327
101327
101327
101328
101328
101328
101328
101328
101328
101328
101328
101328
101328
101328
101328
101328
101328
101328
101327
101327
101327
101327
101327
101327
101327
101327
101327
101327
101327
101328
101328
101328
101328
101328
101328
101328
101328
101328
101328
101328
101328
101327
101327
101327
101327
101327
101327
101327
101327
101327
101327
101327
101327
101327
101328
101328
101328
101328
101328
101328
101328
101328
101328
101328
101327
101327
101327
101327
101327
101327
101327
101327
101327
101327
101327
101327
101327
101327
101327
101327
101328
101328
101328
101328
101328
101328
101328
101327
101327
101327
101327
101327
101327
101327
101327
101327
101327
101327
101327
101327
101327
101327
101327
101327
101327
101327
101328
101328
101328
101328
101327
101327
101327
101327
101327
101327
101327
101327
101327
101327
101327
101327
101327
101327
101327
101327
101327
101327
101327
101327
101327
101327
101327
101327
101327
101327
101327
101327
101327
101327
101327
101327
101327
101327
101327
101327
101327
101327
101327
101327
101327
101327
101327
101327
101327
101327
101327
101327
101327
101327
101327
101327
101327
101327
101327
101327
101327
101327
101327
101327
101327
101327
101327
101327
101327
101327
101327
101327
101327
101327
101327
101327
101327
101327
101327
101327
101327
101327
101327
101327
101327
101327
101327
101327
101327
101327
101327
101327
101327
101327
101327
101327
101327
101327
101327
101327
101327
101327
101327
101327
101327
101327
101327
101327
101327
101327
101327
101327
101327
101327
101327
101327
101327
101327
101327
101327
101327
101327
101327
101327
101327
101327
101327
101327
101327
101327
101327
101327
101327
101327
101327
101327
101327
101327
101327
101327
101327
101327
101327
101327
101327
101327
101327
101327
101327
101327
101327
101327
101327
101327
101327
101327
101327
101327
101327
101327
101327
101327
101327
101327
101327
101326
101326
101326
101326
101326
101327
101327
101327
101327
101327
101327
101327
101327
101327
101327
101327
101327
101327
101327
101327
101327
101326
101326
101326
101326
101326
101326
101326
101326
101326
101326
101326
101326
101326
101326
101326
101326
101326
101326
101326
101326
101326
101326
101326
101326
101326
101326
101326
101326
101326
101326
101326
101326
101326
101326
101326
101326
101326
101326
101326
101326
101326
101326
101326
101326
101326
101326
101326
101326
101326
101326
101326
101326
101326
101326
101326
101326
101326
101326
101326
101326
101326
101326
101326
101326
101326
101326
101326
101326
101326
101326
101326
101326
101326
101326
101326
101326
101326
101326
101326
101326
101326
101326
101326
101326
101326
101326
101326
101326
101326
101326
101326
101326
101326
101326
101326
101326
101326
101326
101326
101326
101326
101326
101326
101326
101326
101326
101326
101326
101326
101326
101326
101326
101326
101326
101326
101326
101326
101326
101326
101326
101326
101326
101326
101326
101326
101326
101326
101326
101326
101326
101326
101326
101326
101326
101326
101326
101326
101326
101326
101326
101326
101326
101326
101326
101326
101326
101326
101326
101326
101326
101326
101326
101326
101326
101326
101326
101326
101326
101326
101326
101326
101326
101325
101326
101326
101326
101326
101326
101326
101326
101326
101326
101326
101326
101326
101326
101326
101326
101326
101326
101326
101326
101326
101326
101326
101326
101326
101326
101326
101326
101326
101326
101326
101326
101326
101326
101326
101326
101326
101326
101326
101326
101326
101326
101326
101326
101326
101326
101326
101325
101325
101325
101325
101325
101325
101326
101326
101326
101326
101326
101326
101326
101326
101326
101326
101326
101326
101326
101326
101326
101326
101326
101325
101325
101325
101325
101325
101325
101325
101325
101325
101325
101325
101325
101325
101325
101325
101325
101325
101325
101325
101326
101326
101326
101326
101325
101325
101325
101325
101325
101325
101325
101325
101325
101325
101325
101325
101325
101325
101325
101325
101326
101326
101326
101326
101326
101326
101326
101325
101325
101325
101325
101325
101325
101325
101325
101325
101325
101325
101325
101325
101325
101325
101325
101325
101325
101325
101325
101325
101326
101325
101325
101325
101325
101325
101325
101325
101325
101325
101325
101325
101325
101325
101325
101325
101325
101325
101325
101325
101325
101326
101326
101326
101326
102206
102317
102302
102355
102349
102366
102368
102385
102358
102383
102388
102409
102388
102399
102409
102419
102276
102338
102367
102390
101404
101432
101472
101524
101329
101329
101329
101329
101329
101329
101329
101329
101329
101329
101329
101329
101329
101329
101329
101329
101329
101329
101329
101329
101329
101329
101329
101329
101329
101329
101329
101329
101328
101328
101329
101329
101328
101328
101328
101328
101328
101328
101328
101328
101328
101328
101328
101328
101328
101328
101328
101328
101328
101328
101328
101328
101328
101328
101328
101328
101327
101327
101328
101327
101327
101327
101327
101327
101327
101327
101327
101327
101327
101327
101327
101327
101327
101327
101327
101327
101327
101327
101327
101327
101327
101327
101327
101326
101326
101326
101326
101326
101326
101326
101326
101326
101326
101326
101326
101326
101326
101326
101326
101326
101326
101326
101325
101325
101325
101325
101325
101325
101325
101325
101325
101325
101325
101325
101325
101325
101325
101325
101325
101325
101325
101325
101325
101325
101326
101326
101325
101325
101325
101325
101325
101325
101326
101326
101326
101326
101325
101325
101325
101325
101326
101325
101325
101325
102014
101904
101999
102286
102364
102142
101846
101830
101829
101830
101827
101827
101829
101829
101830
101829
101830
101829
102153
102377
102415
102436
102441
102460
102264
101857
101825
101829
101828
101828
101828
101829
101829
101830
101829
101830
101830
102257
102430
102461
102484
102518
102556
102324
101854
101824
101828
101828
101830
101828
101830
101829
101830
101830
101831
101830
102436
102441
102473
102511
102555
102632
102451
101867
101825
101830
101828
101830
101829
101830
101829
101830
101830
101831
101830
102591
102416
102468
102518
102589
102666
102718
101982
101826
101830
101828
101831
101829
101831
101830
101831
101830
101831
101877
102759
101630
101858
102168
102448
102671
102820
102447
101828
101831
101828
101830
101829
101830
101830
101831
101830
101831
102097
102960
101329
101330
101331
101521
102265
102770
102974
102119
101829
101828
101831
101829
101831
101830
101831
101830
101831
102407
103184
101329
101329
101330
101330
101393
102073
102870
102960
102209
101828
101829
101830
101830
101830
101830
101830
101831
102822
103388
101329
101329
101330
101329
101331
101342
101965
102856
103054
102470
101966
101830
101830
101830
101831
101830
102293
103324
103609
101329
101329
101330
101330
101330
101331
101330
101814
102607
102895
103028
102748
102458
102429
102622
103077
103494
103614
103767
101329
101329
101329
101329
101330
101329
101329
101340
101628
102424
102853
103143
103154
103134
103136
103214
103389
103623
103786
101329
101329
101329
101329
101329
101330
101331
101336
101370
101553
101927
102099
102089
102055
102030
101989
102233
103233
103760
101329
101329
101329
101329
101329
101328
101328
101341
101812
102623
102928
102690
102385
101937
101777
101821
102383
103448
103742
101329
101329
101329
101329
101329
101328
101327
101328
101369
101964
102962
103355
103401
103278
102849
102766
103450
103741
103771
101328
101329
101329
101329
101328
101328
101327
101327
101327
101326
101361
101928
102830
103454
103734
103789
103805
103797
103736
101328
101328
101328
101328
101328
101328
101327
101327
101327
101326
101327
101326
101328
101784
102938
103626
103848
103859
103809
101328
101328
101328
101328
101328
101327
101327
101326
101326
101326
101326
101326
101328
101327
101329
102313
103408
103568
103888
101328
101328
101328
101328
101328
101327
101327
101326
101326
101326
101326
101326
101328
101328
101337
101565
102933
103652
103990
101328
101328
101328
101328
101328
101327
101327
101327
101327
101326
101327
101327
101328
101328
101329
101426
102397
103489
104089
101328
101328
101328
101327
101327
101327
101327
101327
101327
101327
101327
101327
101328
101328
101329
101353
101551
102114
102523
101328
101327
101327
101327
101327
101327
101327
101327
101327
101327
101327
101327
101328
101328
101329
101328
101337
101595
101921
101327
101327
101327
101327
101327
101327
101327
101327
101327
101327
101328
101327
101328
101328
101329
101328
101332
101396
101831
101327
101327
101327
101327
101327
101327
101327
101327
101327
101327
101328
101328
101328
101328
101329
101329
101329
101330
101987
101327
101327
101327
101327
101327
101327
101327
101327
101327
101327
101328
101328
101328
101328
101329
101329
101329
101330
102016
101327
101327
101327
101327
101327
101327
101327
101327
101327
101327
101328
101328
101328
101328
101329
101329
101330
101329
102042
101327
101327
101327
101326
101327
101326
101327
101327
101327
101327
101328
101328
101328
101328
101329
101329
101330
101329
101967
101326
101326
101326
101326
101326
101326
101326
101327
101327
101327
101328
101328
101328
101328
101330
101329
101330
101329
101730
101326
101326
101326
101326
101326
101326
101326
101326
101327
101327
101327
101327
101328
101328
101329
101330
101330
101329
101713
101326
101326
101326
101326
101326
101326
101326
101326
101326
101326
101327
101327
101328
101328
101329
101331
101338
101367
102162
101326
101326
101325
101325
101325
101325
101325
101325
101326
101326
101326
101327
101327
101326
101329
101382
101607
101774
102269
101325
101325
101325
101325
101324
101324
101325
101325
101325
101325
101326
101326
101326
101325
101326
101430
101876
102333
102178
101325
101325
101324
101324
101323
101323
101324
101324
101324
101325
101325
101325
101324
101324
101324
101361
101528
102372
101815
101325
101324
101323
101323
101322
101322
101323
101323
101323
101324
101324
101324
101323
101323
101322
101323
101322
102365
102121
101324
101324
101323
101322
101321
101321
101321
101322
101322
101323
101323
101324
101323
101323
101321
101323
101322
101822
103479
101324
101323
101322
101321
101320
101320
101321
101321
101322
101323
101323
101323
101322
101322
101320
101322
101322
101682
103533
101324
101323
101321
101320
101319
101320
101320
101321
101321
101322
101322
101323
101322
101322
101320
101322
101322
101580
103556
101324
101323
101322
101321
101320
101320
101320
101322
101321
101322
101323
101323
101323
101323
101322
101323
101322
101375
103423
101325
101323
101322
101321
101321
101321
101321
101321
101322
101323
101323
101323
101323
101323
101323
101323
101323
101325
103330
101324
101324
101323
101322
101322
101322
101322
101322
101323
101323
101324
101324
101324
101325
101324
101325
101324
101325
102953
101325
101324
101324
101323
101323
101323
101323
101323
101323
101324
101324
101324
101324
101325
101324
101325
101325
101325
102994
101325
101324
101324
101324
101324
101324
101324
101324
101325
101325
101325
101325
101325
101326
101325
101325
101325
101326
102723
101325
101325
101325
101325
101324
101325
101325
101324
101324
101324
101324
101324
101324
101325
101325
101325
101323
101326
101753
)
;

boundaryField
{
    leftWall
    {
        type            zeroGradient;
    }
    rightWall
    {
        type            zeroGradient;
    }
    lowerWall
    {
        type            zeroGradient;
    }
    atmosphere
    {
        type            fixedValue;
        value           uniform 101325;
    }
    defaultFaces
    {
        type            empty;
    }
}


// ************************************************************************* //
