/*--------------------------------*- C++ -*----------------------------------*\
| =========                 |                                                 |
| \\      /  F ield         | OpenFOAM: The Open Source CFD Toolbox           |
|  \\    /   O peration     | Version:  2012                                  |
|   \\  /    A nd           | Website:  www.openfoam.com                      |
|    \\/     M anipulation  |                                                 |
\*---------------------------------------------------------------------------*/
FoamFile
{
    version     2.0;
    format      ascii;
    class       volScalarField;
    location    "0.53";
    object      rho;
}
// * * * * * * * * * * * * * * * * * * * * * * * * * * * * * * * * * * * * * //

dimensions      [1 -3 0 0 0 0 0];


internalField   nonuniform List<scalar> 
2268
(
1000.05
1000.05
1000.05
1000.05
1000.05
1000.05
1000.05
1000.05
1000.05
1000.05
1000.05
1000.05
1000.05
1000.05
1000.05
1000.05
1000.05
1000.05
1000.05
1000.05
1000.05
1000.05
999.77
1000.05
1000.05
1000.05
1000.05
1000.05
1000.05
1000.05
1000.05
1000.05
1000.05
1000.05
1000.05
1000.05
1000.05
1000.05
1000.05
1000.05
1000.05
1000.05
1000.05
1000.05
1000.05
999.73
1000.05
1000.05
1000.05
1000.05
1000.05
1000.05
1000.05
1000.05
1000.05
1000.05
1000.05
1000.05
1000.05
1000.05
1000.05
1000.05
1000.05
1000.05
1000.05
1000.05
1000.05
1000.05
999.73
1000.05
1000.05
1000.05
1000.05
1000.05
1000.05
1000.05
1000.05
1000.05
1000.05
1000.05
1000.05
1000.05
1000.05
1000.05
1000.05
1000.05
1000.05
1000.05
1000.05
1000.05
1000.05
999.805
1000.05
1000.05
1000.05
1000.05
1000.05
1000.05
1000.05
1000.05
1000.05
1000.05
1000.05
1000.05
1000.05
1000.05
1000.05
1000.05
1000.05
1000.05
1000.05
1000.05
1000.05
1000.05
1000.03
1000.05
1000.05
1000.05
1000.05
1000.05
1000.05
1000.05
1000.05
1000.05
1000.05
1000.05
1000.05
1000.05
1000.05
1000.05
1000.05
1000.05
1000.05
1000.05
1000.05
1000.05
1000.05
1000.05
1000.05
1000.05
1000.05
1000.05
1000.05
1000.05
1000.05
1000.05
1000.05
1000.05
1000.05
1000.05
1000.05
1000.05
1000.05
1000.05
1000.05
1000.05
1000.05
1000.05
1000.05
1000.05
1000.05
999.879
999.875
999.907
999.939
999.97
999.994
1000.02
1000.04
1000.05
1000.05
1000.05
1000.05
1000.05
1000.05
1000.05
1000.05
1000.05
1000.05
1000.05
1000.05
1000.05
1000.05
1000.05
1.2981
1.31526
20.3289
231.832
347.613
347.543
327.714
322.206
429.28
560.74
584.103
582.135
604.19
704.235
719.76
719.761
719.781
719.783
719.786
1.29808
1.32077
2.06574
1.89311
1.29773
1.29756
1.29776
1.2977
1.54254
26.2544
135.2
333.006
447.877
469.459
456.301
469.026
590.463
701.545
719.735
1.29807
1.29982
1.302
1.29809
1.29808
1.30389
1.41844
1.38908
2.29183
21.4912
32.6808
32.8877
29.3188
12.9578
1.29911
1.44271
69.4719
308.015
472.619
1.29806
1.29805
1.29804
1.29858
1.29877
1.29851
1.29836
1.5273
2.00563
2.95556
1.29767
1.29796
1.29813
1.29805
1.29866
2.08583
8.22416
170.207
630.76
1.29806
1.29807
1.29817
1.30224
1.32393
1.30207
1.29872
1.40082
1.60619
1.31371
1.29774
1.29778
1.29779
1.29772
1.29741
1.29727
2.94739
165.455
743.011
1.29805
1.29809
1.29838
8.05592
27.6856
6.73888
1.64506
1.31997
1.30323
1.29821
1.29781
1.29787
1.29791
1.2979
1.29788
1.29805
1.7644
56.6665
743.009
1.29806
1.29809
1.29898
221.451
515.072
177.737
12.2754
1.34663
1.29813
1.29799
1.29786
1.29794
1.298
1.29796
1.29793
1.29788
1.31297
18.179
743.01
1.29805
1.3112
1.29895
601.695
928.896
433.226
20.6806
1.34739
1.29807
1.29799
1.29794
1.29817
1.2981
1.298
1.29794
1.29788
1.2978
6.2423
658.761
897.236
897.916
905.052
913.58
924.13
935.428
952.071
965.299
979.997
988.839
993.552
997.147
999.112
1000.05
1000.05
1000.05
1000.05
1000.05
1000.05
1000.05
1000.05
1000.05
1000.05
208.043
211.547
220.848
232.929
251.556
274.986
312.551
354.602
421.847
508.974
611.705
714.944
826.241
927.341
991.04
1000.05
1000.05
1000.05
1000.05
1000.05
1000.05
1000.05
1000.05
1.29332
1.29332
1.29332
1.29332
1.29332
1.29332
1.29333
1.29334
1.29337
1.29336
10.6092
44.1681
99.9765
191.621
343.043
578.166
883.919
1000.05
1000.05
1000.05
1000.05
1000.05
1000.05
1.29326
1.29326
1.29326
1.29326
1.29326
1.29326
1.29327
1.29327
1.29328
1.29328
1.2933
1.29331
1.29333
1.72695
8.07937
34.9439
110.703
288.413
564.248
879.743
995.829
999.626
999.977
1.29323
1.29323
1.29323
1.29323
1.29323
1.29323
1.29324
1.29324
1.29324
1.29324
1.29327
1.29331
1.29328
1.29343
1.29325
1.29326
1.2933
9.19706
47.3152
118.33
248.835
416.68
682.097
1.29323
1.29323
1.29323
1.29323
1.29323
1.29323
1.29323
1.29323
1.29323
1.29323
1.29325
1.29435
1.29521
1.29548
1.29518
1.29344
1.29326
1.30011
1.29328
1.29329
4.1078
13.3086
40.5617
1.29322
1.29322
1.29322
1.29322
1.29322
1.29322
1.29322
1.29322
1.29322
1.29322
1.29322
1.29481
1.29548
1.29548
1.29437
1.29331
1.29324
1.29324
1.29324
1.29329
1.29729
1.29324
1.29326
1.29322
1.29322
1.29322
1.29322
1.29322
1.29322
1.29322
1.29322
1.29322
1.29322
1.29329
1.29322
1.29348
1.29322
1.29323
1.29324
1.29326
1.29326
1.29324
1.29325
1.29327
1.29337
1.29351
1.29322
1.29322
1.29322
1.29322
1.29322
1.29322
1.29322
1.29322
1.29322
1.29323
1.29322
1.29322
1.29322
1.29322
1.29322
1.29322
1.29326
1.29326
1.29325
1.29325
1.29323
1.29323
1.29323
1.29322
1.29322
1.29322
1.29322
1.29322
1.29322
1.29322
1.29322
1.29322
1.29322
1.29322
1.29322
1.29322
1.29322
1.29322
1.29322
1.29322
1.29324
1.29324
1.29323
1.29322
1.29322
1.29326
1.29322
1.29322
1.29322
1.29322
1.29322
1.29322
1.29322
1.29322
1.29322
1.29322
1.29322
1.29322
1.29322
1.29322
1.29322
1.29322
1.29322
1.29322
1.29322
1.29322
1.29322
1.29322
1.29322
1.29321
1.29321
1.29321
1.29321
1.29321
1.29321
1.29321
1.29321
1.29322
1.29322
1.29322
1.29322
1.29322
1.29322
1.29322
1.29322
1.29322
1.29322
1.29322
1.29322
1.29322
1.29322
1.29322
1.29321
1.29321
1.29321
1.29321
1.29321
1.29321
1.29321
1.29321
1.29321
1.29321
1.29321
1.29321
1.29321
1.29321
1.29321
1.29322
1.29322
1.29322
1.29322
1.29322
1.29322
1.29322
1.29322
1.29321
1.29321
1.29321
1.29321
1.29321
1.29321
1.29321
1.29321
1.29321
1.29321
1.29321
1.29321
1.29321
1.29321
1.29321
1.29321
1.29321
1.29321
1.29321
1.29321
1.29322
1.29322
1.29322
1.29321
1.29321
1.29321
1.29321
1.29321
1.29321
1.29321
1.29321
1.29321
1.29321
1.29321
1.29321
1.29321
1.29321
1.29321
1.29321
1.29321
1.29321
1.29321
1.29321
1.29321
1.29321
1.29321
1.2932
1.2932
1.2932
1.2932
1.2932
1.2932
1.2932
1.2932
1.2932
1.29321
1.29321
1.29321
1.29321
1.29321
1.29321
1.29321
1.29321
1.29321
1.29321
1.29321
1.29321
1.29321
1.29321
1.2932
1.2932
1.2932
1.2932
1.2932
1.2932
1.2932
1.2932
1.2932
1.2932
1.2932
1.2932
1.2932
1.2932
1.2932
1.29321
1.29321
1.29321
1.29321
1.29321
1.29321
1.29321
1.29321
1.2932
1.2932
1.2932
1.2932
1.2932
1.2932
1.2932
1.2932
1.2932
1.2932
1.2932
1.2932
1.2932
1.2932
1.2932
1.2932
1.2932
1.2932
1.2932
1.2932
1.2932
1.29321
1.29321
1.29319
1.29319
1.29319
1.29319
1.29319
1.29319
1.29319
1.29319
1.29319
1.29319
1.2932
1.2932
1.2932
1.2932
1.2932
1.2932
1.2932
1.2932
1.2932
1.2932
1.2932
1.2932
1.2932
1.29318
1.29318
1.29318
1.29318
1.29318
1.29319
1.29319
1.29319
1.29319
1.29319
1.29319
1.29319
1.29319
1.29319
1.29319
1.29319
1.2932
1.2932
1.2932
1.2932
1.2932
1.2932
1.2932
1.29317
1.29317
1.29317
1.29317
1.29317
1.29318
1.29318
1.29318
1.29318
1.29318
1.29318
1.29318
1.29318
1.29319
1.29319
1.29319
1.29319
1.29319
1.29319
1.29319
1.29319
1.2932
1.2932
1.29316
1.29316
1.29316
1.29316
1.29316
1.29316
1.29316
1.29316
1.29317
1.29317
1.29317
1.29317
1.29317
1.29318
1.29318
1.29318
1.29318
1.29318
1.29319
1.29319
1.29319
1.29319
1.29319
1.29314
1.29314
1.29314
1.29314
1.29314
1.29314
1.29314
1.29315
1.29315
1.29315
1.29315
1.29316
1.29316
1.29316
1.29317
1.29317
1.29317
1.29317
1.29318
1.29318
1.29318
1.29318
1.29319
1.29312
1.29312
1.29312
1.29312
1.29312
1.29313
1.29313
1.29313
1.29313
1.29313
1.29313
1.29314
1.29314
1.29314
1.29315
1.29315
1.29315
1.29316
1.29316
1.29317
1.29317
1.29318
1.29318
1.29311
1.29311
1.29311
1.29311
1.29311
1.29311
1.29311
1.29311
1.29311
1.29312
1.29312
1.29312
1.29312
1.29312
1.29313
1.29313
1.29313
1.29314
1.29314
1.29315
1.29315
1.29316
1.29317
1.2931
1.2931
1.2931
1.2931
1.2931
1.2931
1.2931
1.2931
1.2931
1.2931
1.2931
1.29311
1.29311
1.29311
1.29311
1.29311
1.29312
1.29312
1.29312
1.29313
1.29313
1.29314
1.29315
1.29309
1.29309
1.29309
1.29309
1.29309
1.29309
1.29309
1.29309
1.29309
1.29309
1.2931
1.2931
1.2931
1.2931
1.2931
1.2931
1.2931
1.29311
1.29311
1.29311
1.29312
1.29312
1.29313
1.29309
1.29309
1.29309
1.29309
1.29309
1.29309
1.29309
1.29309
1.29309
1.29309
1.29309
1.29309
1.29309
1.29309
1.29309
1.29309
1.2931
1.2931
1.2931
1.2931
1.29311
1.29311
1.29312
1.29308
1.29308
1.29308
1.29308
1.29308
1.29308
1.29308
1.29308
1.29308
1.29308
1.29308
1.29309
1.29309
1.29309
1.29309
1.29309
1.29309
1.29309
1.2931
1.2931
1.2931
1.29311
1.29311
1.29308
1.29308
1.29308
1.29308
1.29308
1.29308
1.29308
1.29308
1.29308
1.29308
1.29308
1.29308
1.29308
1.29308
1.29309
1.29309
1.29309
1.29309
1.29309
1.2931
1.2931
1.2931
1.29311
1.29308
1.29308
1.29308
1.29308
1.29308
1.29308
1.29308
1.29308
1.29308
1.29308
1.29308
1.29308
1.29308
1.29308
1.29308
1.29309
1.29309
1.29309
1.29309
1.29309
1.2931
1.2931
1.29311
1.29308
1.29308
1.29308
1.29308
1.29308
1.29308
1.29308
1.29308
1.29308
1.29308
1.29308
1.29308
1.29308
1.29308
1.29309
1.29309
1.29309
1.29309
1.29309
1.2931
1.2931
1.2931
1.29311
1.29308
1.29308
1.29308
1.29308
1.29308
1.29308
1.29308
1.29308
1.29308
1.29308
1.29309
1.29309
1.29309
1.29309
1.29309
1.29309
1.29309
1.29309
1.2931
1.2931
1.2931
1.29311
1.29312
1.29309
1.29309
1.29309
1.29309
1.29309
1.29309
1.29309
1.29309
1.29309
1.29309
1.29309
1.29309
1.29309
1.29309
1.29309
1.29309
1.2931
1.2931
1.2931
1.29311
1.29311
1.29312
1.29313
1.29309
1.29309
1.29309
1.29309
1.29309
1.29309
1.29309
1.29309
1.29309
1.29309
1.29309
1.29309
1.29309
1.29309
1.29309
1.29309
1.2931
1.2931
1.29311
1.29311
1.29312
1.29313
1.29314
1.29309
1.29309
1.29309
1.29309
1.29309
1.29309
1.29309
1.29309
1.29309
1.29309
1.29309
1.29309
1.29309
1.29309
1.29309
1.2931
1.2931
1.2931
1.29311
1.29312
1.29313
1.29314
1.29315
1.29309
1.29309
1.29309
1.29309
1.29309
1.29309
1.29309
1.29309
1.29309
1.29309
1.29309
1.29309
1.29309
1.29309
1.29309
1.2931
1.2931
1.2931
1.29311
1.29312
1.29314
1.29315
1.29315
1.29309
1.29309
1.29309
1.29309
1.29309
1.29309
1.29309
1.29309
1.29309
1.29309
1.29309
1.29309
1.29309
1.29309
1.2931
1.2931
1.2931
1.29311
1.29312
1.29314
1.29315
1.29316
1.29314
1.29309
1.29309
1.29309
1.29309
1.29309
1.29309
1.29309
1.29309
1.29309
1.29309
1.29309
1.29309
1.29309
1.29309
1.29309
1.2931
1.2931
1.29311
1.29312
1.29314
1.29316
1.29316
1.29313
1.29309
1.29309
1.29309
1.29309
1.29309
1.29309
1.29309
1.29309
1.29309
1.29309
1.29309
1.29309
1.29309
1.29309
1.2931
1.2931
1.29311
1.29312
1.29313
1.29315
1.29317
1.29317
1.29314
1.29309
1.29309
1.29309
1.29309
1.29309
1.29309
1.29309
1.29309
1.29309
1.29309
1.29309
1.29309
1.29309
1.29309
1.29309
1.2931
1.2931
1.29311
1.29313
1.29316
1.29318
1.29317
1.29312
1.29309
1.29309
1.29309
1.29309
1.29309
1.29309
1.29309
1.29309
1.29309
1.29309
1.29309
1.29309
1.29309
1.29309
1.29309
1.2931
1.29311
1.29312
1.29314
1.29318
1.29321
1.29318
1.29333
999.903
999.724
999.901
999.901
999.847
999.682
999.802
999.901
1000.02
999.941
999.859
999.901
999.961
1000.01
1000.03
1000.03
859.951
914.078
934.738
949.143
62.8979
85.4978
118.004
160.882
1.29327
1.29329
1.29331
1.29333
1.29351
1.29349
1.29339
1.29326
1.29341
1.29935
1.30048
1.30049
1.29326
1.29339
1.29365
1.29354
1.29322
1.29322
1.29322
1.29323
1.29322
1.29322
1.29322
1.29322
1.29322
1.29322
1.29322
1.29322
1.29322
1.29322
1.29322
1.29322
1.29321
1.29322
1.29322
1.29322
1.29321
1.29321
1.29321
1.29321
1.29321
1.29321
1.29321
1.29321
1.29321
1.29321
1.29321
1.29321
1.2932
1.2932
1.2932
1.2932
1.2932
1.2932
1.2932
1.2932
1.2932
1.2932
1.2932
1.2932
1.29319
1.29319
1.29319
1.29319
1.29319
1.29319
1.29319
1.29319
1.29318
1.29318
1.29318
1.29318
1.29317
1.29317
1.29317
1.29318
1.29315
1.29316
1.29316
1.29316
1.29314
1.29314
1.29314
1.29315
1.29312
1.29313
1.29313
1.29313
1.29312
1.29312
1.29312
1.29312
1.29311
1.29311
1.29312
1.29312
1.29311
1.29311
1.29312
1.29312
1.29312
1.29312
1.29313
1.29314
1.29313
1.29314
1.29314
1.29315
1.29314
1.29315
1.29315
1.29315
1.29315
1.29315
1.29314
1.29316
1.29315
1.29314
1.29315
1.29316
1.29315
1.2932
1.2932
1.29311
1.29323
1.29349
1.29328
1.29311
1.29332
1.29369
1.29369
1.2934
1.29312
1.29325
1.29366
1.29424
1.2931
1.29321
1.29325
1.29357
1.29439
1.29436
1.29434
1.29335
336.032
104.275
317.327
882.143
1000.05
591.473
30.8328
1.34293
1.29787
1.29793
1.29797
1.29816
1.29816
1.29803
1.29795
1.29787
1.29781
1.29816
604.457
948.568
955.763
1000.05
1000.05
1000.05
673.742
44.4382
1.34068
1.29776
1.29787
1.29799
1.29811
1.2981
1.29797
1.29789
1.29783
1.29781
1.29821
648.718
1000.05
1000.05
1000.05
1000.05
1000.05
650.668
34.3361
1.31289
1.29782
1.29788
1.29802
1.29806
1.29802
1.2979
1.29786
1.29781
1.29783
1.2979
773.855
1000.04
1000.03
1000.03
1000.05
1000.05
711.964
42.611
1.29802
1.29792
1.29792
1.29802
1.29798
1.29792
1.29784
1.29783
1.2978
1.29785
1.29744
836.759
960.585
984.166
994.956
999.163
1000.05
928.86
149.282
1.29848
1.29791
1.29792
1.29795
1.29789
1.29785
1.29782
1.29782
1.29781
1.29789
46.7273
886.553
247.446
433.853
686.901
888.754
988.774
998.596
536.945
2.72111
1.29801
1.29789
1.29788
1.29783
1.29781
1.29779
1.2978
1.29795
1.29781
231.057
941.261
1.29335
1.29336
2.25814
146.371
690.184
991.869
982.997
236.361
1.29756
1.29779
1.2978
1.29774
1.29773
1.29769
1.2977
1.29779
1.29661
449.953
978.932
1.29327
1.29331
1.29333
1.29332
44.4306
506.531
972.279
887.645
272.513
1.29662
1.29726
1.29718
1.29721
1.29721
1.29715
1.32304
1.29518
693.545
990.728
1.29882
1.29348
1.29485
1.29688
1.2957
9.06163
400.707
903.919
903.917
437.33
91.837
1.29459
1.29528
1.29572
1.29527
1.29599
304.996
924.72
994.923
1.29355
1.30169
1.32912
1.32514
1.29566
1.29328
1.2933
290.079
708.784
777.236
777.22
575.628
394.108
375.778
496.452
778.403
982.497
994.923
994.923
1.29863
1.32825
1.32912
1.31256
1.29367
1.29324
1.29325
6.58927
159.438
530.613
683.866
799.819
799.976
799.975
799.979
821.348
902.446
971.734
994.06
1.29351
1.30025
1.30064
1.29334
1.29323
1.29323
1.39351
4.81035
18.4497
89.0294
186.247
245.365
234.02
221.568
199.09
173.03
267.074
774.297
994.353
1.29322
1.29322
1.29322
1.29322
1.29318
1.29318
1.3174
6.6782
232.016
584.33
662.663
513.899
369.329
170.664
91.5908
91.592
368.769
874.74
994.353
1.29322
1.29322
1.29322
1.29322
1.29318
1.29317
1.29837
1.94305
20.389
287.77
734.501
892.015
892.04
814.403
583.376
536.816
836.62
980.405
978.793
1.29322
1.29322
1.29322
1.29322
1.29318
1.29314
1.29737
1.46546
1.52318
1.29322
16.1876
256.925
642.246
892.957
990.12
990.12
990.12
990.218
955.69
1.29321
1.29321
1.29321
1.29321
1.2932
1.29315
1.30093
1.37988
1.33411
1.29321
1.29321
1.29319
1.29317
185.38
650.85
911.574
980.215
990.215
955.691
1.29321
1.29321
1.29321
1.29321
1.29321
1.29317
1.29416
1.3293
1.34795
1.30244
1.31268
1.30128
1.29317
1.29308
1.29288
385.099
800.814
864.682
974.283
1.29321
1.29321
1.29321
1.29321
1.2932
1.29319
1.2932
1.29439
1.29826
1.29471
1.35899
1.33819
1.29318
1.29468
4.5225
89.4374
599.627
865.685
978.309
1.2932
1.2932
1.2932
1.2932
1.2932
1.2932
1.29319
1.29318
1.29317
1.29317
1.30946
1.32752
1.30015
1.29391
1.61907
36.2186
383.065
775.97
978.319
1.2932
1.2932
1.2932
1.2932
1.2932
1.29319
1.29319
1.29319
1.29318
1.29318
1.29334
1.29319
1.29323
1.29322
1.40372
9.8918
77.1491
269.09
395.162
1.2932
1.2932
1.2932
1.2932
1.2932
1.29319
1.29319
1.29319
1.29319
1.29319
1.29319
1.29319
1.2932
1.2932
1.29407
1.29404
3.96497
87.9958
190.935
1.29319
1.29319
1.29319
1.29319
1.29319
1.29319
1.29319
1.29319
1.29319
1.29319
1.2932
1.29319
1.2932
1.2932
1.29321
1.34386
2.26587
22.5247
156.248
1.29319
1.29319
1.29319
1.29319
1.29319
1.29319
1.29319
1.29319
1.29319
1.29319
1.29319
1.29319
1.2932
1.2932
1.29321
1.4708
1.29738
1.69431
200.875
1.29318
1.29318
1.29319
1.29319
1.29319
1.29318
1.29319
1.29319
1.29319
1.29319
1.29319
1.29321
1.29331
1.29323
1.29321
1.36815
1.29736
1.67551
202.476
1.29318
1.29318
1.29318
1.29318
1.29318
1.29318
1.29318
1.29318
1.29319
1.29318
1.2932
1.29331
1.29333
1.29327
1.29321
1.2932
1.29321
1.2932
202.46
1.29317
1.29317
1.29318
1.29318
1.29318
1.29318
1.29318
1.29318
1.29318
1.29318
1.29323
1.29331
1.29332
1.29322
1.29321
1.2932
1.29321
1.2932
175.248
1.29316
1.29316
1.29317
1.29317
1.29317
1.29317
1.29318
1.29318
1.29318
1.29318
1.29322
1.29327
1.29322
1.29319
1.29322
1.2932
1.29321
1.29319
106.702
1.29314
1.29315
1.29316
1.29316
1.29317
1.29317
1.29317
1.29317
1.29317
1.29318
1.2932
1.29318
1.29319
1.29321
1.2932
1.29324
1.29523
1.29313
99.391
1.29313
1.29314
1.29316
1.29316
1.29316
1.29316
1.29316
1.29317
1.29317
1.29318
1.29318
1.29317
1.29318
1.29364
1.31068
1.68051
3.02712
11.0001
207.551
1.29313
1.29314
1.29315
1.29315
1.29315
1.29315
1.29316
1.29316
1.29316
1.29317
1.29317
1.29316
1.29358
1.29397
1.52741
14.504
68.593
111.361
225.588
1.29314
1.29315
1.29315
1.29315
1.29314
1.29314
1.29318
1.29323
1.29319
1.29316
1.29316
1.2933
1.29611
1.29448
1.64274
25.6094
129.897
237.966
198.391
1.29315
1.29315
1.29315
1.29314
1.29313
1.29313
1.2932
1.29322
1.29322
1.29315
1.29314
1.29608
1.2966
1.29446
1.70807
9.90257
47.3339
237.972
106.893
1.29315
1.29316
1.29315
1.29313
1.29311
1.29311
1.29312
1.29315
1.29315
1.29313
1.29313
1.29749
1.2958
1.30984
1.42861
1.29326
1.29331
230.834
175.702
1.29317
1.29315
1.29313
1.2931
1.29308
1.29308
1.29308
1.29309
1.2931
1.29312
1.29315
1.29749
1.29528
1.30982
1.30348
1.29335
1.29314
108.105
461.28
1.29315
1.2931
1.29326
1.29482
1.29305
1.29305
1.33589
1.2989
1.29664
1.29322
1.29318
1.29703
1.29486
1.30982
1.2938
1.29381
1.29306
76.5482
461.285
1.29312
1.29308
1.2959
1.34998
1.41927
1.4345
1.47601
1.44625
1.31159
1.29317
1.29327
1.29368
1.29423
1.30981
1.29497
1.29357
1.29299
53.9459
455.005
1.2931
1.29308
1.30659
1.45265
1.47599
1.476
1.476
1.47603
1.30338
1.2931
1.29321
1.29311
1.29374
1.30195
1.29438
1.29324
1.29336
11.2999
417.706
1.2931
1.29309
1.2957
1.36132
1.47601
1.47601
1.47601
1.39431
1.29308
1.2931
1.29311
1.29311
1.29326
1.29316
1.2932
1.29358
1.31445
1.29306
389.734
1.29322
1.29312
1.2931
1.2931
1.31535
1.34372
1.32595
1.29623
1.29309
1.29311
1.29311
1.29312
1.29312
1.29312
1.29452
1.29424
1.29332
1.2928
309.05
1.29632
1.29861
1.29848
1.29469
1.29322
1.29322
1.29342
1.29436
1.29489
1.29524
1.29675
1.29933
1.29613
1.2954
1.29325
1.2926
1.29255
1.29268
309.023
1.29722
1.30317
1.30322
1.30326
1.29679
1.29323
1.29323
1.30447
1.31621
1.31621
1.3164
1.3164
1.3076
1.2971
1.29276
1.29255
1.29252
1.29258
254.243
1.29296
1.29297
1.29302
1.29461
1.30005
1.30252
1.3012
1.29946
1.30862
1.31641
1.31423
1.30481
1.29774
1.294
1.29255
1.29251
1.29249
1.29255
77.9583
)
;

boundaryField
{
    leftWall
    {
        type            calculated;
        value           nonuniform List<scalar> 
50
(
1000.05
1000.05
1000.05
1000.05
1000.05
1000.05
1000.05
999.879
897.236
208.043
1.29332
1.29326
1.29323
1.29323
1.29322
1.29322
1.29322
1.29322
1.29322
1.29321
1.29321
1.29321
1.29321
1.2932
1.2932
1.2932
1.29319
1.29318
1.29317
1.29316
1.29314
1.29312
1.29311
1.2931
1.29309
1.29309
1.29308
1.29308
1.29308
1.29308
1.29308
1.29309
1.29309
1.29309
1.29309
1.29309
1.29309
1.29309
1.29309
1.29309
)
;
    }
    rightWall
    {
        type            calculated;
        value           nonuniform List<scalar> 
50
(
719.786
719.735
472.619
630.76
743.011
743.009
743.01
658.761
604.457
648.718
773.855
836.759
886.553
941.261
978.932
990.728
994.923
994.923
994.06
994.353
994.353
978.793
955.69
955.691
974.283
978.309
978.319
395.162
190.935
156.248
200.875
202.476
202.46
175.248
106.702
99.391
207.551
225.588
198.391
106.893
175.702
461.28
461.285
455.005
417.706
389.734
309.05
309.023
254.243
77.9583
)
;
    }
    lowerWall
    {
        type            calculated;
        value           nonuniform List<scalar> 
62
(
1000.05
1000.05
1000.05
1000.05
1000.05
1000.05
1000.05
1000.05
1000.05
1000.05
1000.05
1000.05
1000.05
1000.05
1000.05
1000.05
1000.05
1000.05
1000.05
1000.05
1000.05
1000.05
999.77
999.77
999.73
999.73
999.805
1000.03
1000.05
1000.05
1000.05
999.903
999.724
999.901
999.901
1.2981
1.29808
1.29807
1.29806
1.29806
1.29805
1.29806
1.29805
1.2981
1.31526
20.3289
231.832
347.613
347.543
327.714
322.206
429.28
560.74
584.103
582.135
604.19
704.235
719.76
719.761
719.782
719.783
719.786
)
;
    }
    atmosphere
    {
        type            calculated;
        value           nonuniform List<scalar> 
46
(
1.29318
1.29318
1.29318
1.29318
1.29318
1.29318
1.29318
1.29318
1.29318
1.29318
1.29318
1.29318
1.29318
1.29318
1.29318
1.29319
1.2932
1.29321
1.29323
1.29327
1.29329
1.29327
1.29341
1.29448
1.29445
1.29443
1.29305
1.29305
1.29306
1.2931
1.29314
1.29318
1.2932
1.3013
1.29956
1.30873
1.31651
1.31433
1.30491
1.29785
1.2941
1.29264
1.2926
1.2926
1.29263
77.9585
)
;
    }
    defaultFaces
    {
        type            empty;
    }
}


// ************************************************************************* //
