/*--------------------------------*- C++ -*----------------------------------*\
| =========                 |                                                 |
| \\      /  F ield         | OpenFOAM: The Open Source CFD Toolbox           |
|  \\    /   O peration     | Version:  2012                                  |
|   \\  /    A nd           | Website:  www.openfoam.com                      |
|    \\/     M anipulation  |                                                 |
\*---------------------------------------------------------------------------*/
FoamFile
{
    version     2.0;
    format      ascii;
    class       volScalarField;
    location    "0.53";
    object      rhogh;
}
// * * * * * * * * * * * * * * * * * * * * * * * * * * * * * * * * * * * * * //

dimensions      [1 -1 -2 0 0 0 0];


internalField   nonuniform List<scalar> 
2268
(
-29.4294
-29.4294
-29.4294
-29.4294
-29.4294
-29.4294
-29.4294
-29.4294
-29.4294
-29.4294
-29.4294
-29.4294
-29.4294
-29.4294
-29.4294
-29.4294
-29.4294
-29.4294
-29.4294
-29.4294
-29.4294
-29.4294
-29.421
-88.2881
-88.2881
-88.2881
-88.2881
-88.2881
-88.2881
-88.2881
-88.2881
-88.2881
-88.2881
-88.2881
-88.2881
-88.2881
-88.2881
-88.2881
-88.2881
-88.2881
-88.2881
-88.2881
-88.2881
-88.2881
-88.2881
-88.2594
-147.147
-147.147
-147.147
-147.147
-147.147
-147.147
-147.147
-147.147
-147.147
-147.147
-147.147
-147.147
-147.147
-147.147
-147.147
-147.147
-147.147
-147.147
-147.147
-147.147
-147.147
-147.147
-147.099
-206.006
-206.006
-206.006
-206.006
-206.006
-206.006
-206.006
-206.006
-206.006
-206.006
-206.006
-206.006
-206.006
-206.006
-206.006
-206.006
-206.006
-206.006
-206.006
-206.006
-206.006
-206.006
-205.954
-264.864
-264.864
-264.864
-264.864
-264.864
-264.864
-264.864
-264.864
-264.864
-264.864
-264.864
-264.864
-264.864
-264.864
-264.864
-264.864
-264.864
-264.864
-264.864
-264.864
-264.864
-264.864
-264.859
-323.723
-323.723
-323.723
-323.723
-323.723
-323.723
-323.723
-323.723
-323.723
-323.723
-323.723
-323.723
-323.723
-323.723
-323.723
-323.723
-323.723
-323.723
-323.723
-323.723
-323.723
-323.723
-323.723
-382.582
-382.582
-382.582
-382.582
-382.582
-382.582
-382.582
-382.582
-382.582
-382.582
-382.582
-382.582
-382.582
-382.582
-382.582
-382.582
-382.582
-382.582
-382.582
-382.582
-382.582
-382.582
-382.582
-441.363
-441.362
-441.376
-441.39
-441.403
-441.414
-441.427
-441.434
-441.438
-441.44
-441.44
-441.44
-441.44
-441.44
-441.44
-441.44
-441.44
-441.44
-441.44
-441.44
-441.44
-441.44
-441.44
-1.2128e-10
-0.000500666
-0.560732
-6.79289
-10.2045
-10.2024
-9.61815
-9.45585
-12.6109
-16.4845
-17.1729
-17.1149
-17.7648
-20.7127
-21.1702
-21.1702
-21.1708
-21.1708
-21.1708
-3.73492e-10
-0.0020068
-0.0678221
-0.0525366
-6.58076e-08
-6.58076e-08
-6.58076e-08
-6.58076e-08
-0.0216667
-2.20606
-11.8367
-29.3223
-39.4767
-41.3845
-40.2213
-41.3462
-52.0809
-61.9003
-63.508
-5.4202e-12
-0.000259294
-0.000582691
-1.09679e-07
-1.09679e-07
-0.000859734
-0.0176985
-0.0134325
-0.146416
-2.97496
-4.62358
-4.65407
-4.12824
-1.71776
-0.000146125
-0.0212869
-10.0439
-45.1881
-69.4387
-7.58828e-12
-4.86421e-07
-6.35538e-07
-4.48871e-07
-4.44638e-07
-1.2593e-05
-2.1006e-05
-0.0472648
-0.145865
-0.341795
-1.53552e-07
-1.53551e-07
-1.53552e-07
-1.53551e-07
-0.000204701
-0.162561
-1.42852
-34.8392
-129.833
-9.75637e-12
-5.76851e-09
-1.20407e-11
-0.00070838
-0.00643195
-0.000772802
-2.70423e-05
-0.0272134
-0.0816391
-0.00418378
-1.97423e-07
-2.10349e-06
-1.62718e-06
-5.98289e-06
-1.19697e-05
-1.19707e-05
-0.437385
-43.533
-196.697
-6.15153e-10
-8.55542e-09
-1.47164e-11
-2.18951
-8.55202
-1.76296
-0.11225
-0.00703926
-0.00164023
-9.24931e-05
-4.52864e-06
-4.58204e-06
-3.98959e-06
-1.25601e-06
-2.53533e-06
-8.15439e-05
-0.151118
-17.9458
-240.408
-1.05052e-09
-1.73921e-11
-1.73921e-11
-84.3306
-196.805
-67.5858
-4.20436
-0.018462
-6.43888e-06
-6.43899e-06
-4.55541e-06
-7.72662e-07
-6.8466e-08
-6.83624e-08
-6.83622e-08
-6.83624e-08
-0.00578147
-6.4657
-284.119
-1.87824e-10
-0.00578177
-2.00678e-11
-265.369
-409.989
-190.908
-8.56648
-0.021752
-7.72092e-06
-1.70903e-06
-2.25637e-06
-2.34228e-07
-1.56636e-07
-1.32303e-07
-7.88793e-08
-8.31263e-08
-8.31251e-08
-2.18485
-290.592
-478.549
-478.913
-482.724
-487.279
-492.914
-498.949
-507.838
-514.904
-522.754
-527.477
-529.994
-531.914
-532.964
-533.467
-533.467
-533.467
-533.467
-533.467
-533.467
-533.467
-533.467
-533.467
-533.467
-136.347
-138.658
-144.791
-152.759
-165.043
-180.494
-205.268
-233
-277.346
-334.804
-402.554
-470.638
-544.035
-610.709
-652.717
-658.662
-658.662
-658.662
-658.662
-658.662
-658.662
-658.662
-658.662
2.41056e-35
3.68263e-33
-4.63634e-32
-1.30503e-30
5.62847e-30
1.77412e-28
3.19655e-29
-5.58777e-29
-3.24063e-29
-3.43443e-29
-7.31136
-33.6493
-77.4493
-149.374
-268.215
-452.746
-692.711
-783.856
-783.856
-783.856
-783.856
-783.856
-783.856
-1.15425e-15
-5.75601e-14
-1.70304e-12
-3.03134e-11
-3.4246e-10
-3.11026e-09
-5.02821e-09
-3.47151e-09
-1.59788e-09
-3.28989e-11
1.57392e-24
-2.55897e-24
4.38824e-20
-0.394654
-6.17652
-30.628
-99.582
-261.33
-512.389
-799.546
-905.205
-908.662
-908.981
-4.13578e-15
-2.13564e-13
-6.46391e-12
-1.16464e-10
-1.45903e-09
-1.45393e-08
-2.5881e-08
-3.51007e-08
-2.49323e-08
-1.54001e-11
-2.40635e-05
-6.81552e-05
-1.40261e-05
-0.000172926
5.30232e-22
-3.17537e-25
2.05398e-25
-8.18453
-47.6569
-121.195
-256.337
-430.145
-704.991
-5.54026e-15
-2.95609e-13
-8.95706e-12
-1.6048e-10
-2.06857e-09
-2.09439e-08
-3.63264e-08
-8.39653e-08
-1.12067e-07
-1.72633e-11
-2.23425e-05
-0.00130568
-0.00229264
-0.00261282
-0.00226067
-0.000245796
-3.27738e-05
-0.00796702
-1.08117e-05
-1.08117e-05
-3.26728
-13.9483
-45.5859
-5.7613e-15
-3.05173e-13
-9.04141e-12
-1.54024e-10
-1.81994e-09
-2.01894e-08
-2.85586e-08
-1.19868e-07
-4.05676e-07
-1.17027e-07
-1.17126e-07
-0.00203713
-0.00289495
-0.00289476
-0.00147194
-0.000102709
-1.34362e-05
-1.19791e-05
-1.19791e-05
-7.10489e-05
-0.00521746
-1.53784e-09
-1.53784e-09
-4.56945e-15
-2.27196e-13
-6.34318e-12
-9.94251e-11
-1.05295e-09
-1.25174e-08
-1.18339e-08
-1.44878e-07
-9.84955e-07
-1.86191e-06
-9.16885e-05
-1.01517e-07
-0.000360792
-1.8428e-08
-1.84248e-08
-1.67336e-05
-5.00035e-05
-4.50837e-05
-1.44081e-05
-2.91965e-05
-6.36209e-05
-0.000205443
-0.000392376
-2.34024e-15
-1.10503e-13
-2.95425e-12
-4.47504e-11
-4.42622e-10
-5.24782e-09
-3.16839e-09
-1.37924e-07
-1.43191e-06
-6.58099e-06
-1.69464e-06
-1.10529e-07
-5.07051e-08
-1.01218e-07
-2.01241e-08
-2.37329e-06
-5.06699e-05
-5.86258e-05
-3.92893e-05
-3.29419e-05
-1.10961e-05
-3.94666e-08
-3.95212e-08
-9.86323e-16
-4.49182e-14
-1.16781e-12
-1.72409e-11
-1.63281e-10
-1.87681e-09
-7.25444e-10
-1.30948e-07
-1.08112e-06
-4.99137e-06
-2.51062e-06
-5.42444e-07
-2.15885e-07
-5.30455e-07
-7.58197e-07
-7.09801e-07
-2.649e-06
-2.77624e-05
-2.37808e-05
-5.95446e-06
-1.57568e-07
-6.04969e-08
-6.1807e-05
-3.43009e-16
-1.50242e-14
-3.80038e-13
-5.46344e-12
-5.06449e-11
-5.41789e-10
-5.29556e-10
-7.45543e-08
-4.11315e-07
-3.37026e-07
-4.12719e-07
-2.79106e-07
-2.50616e-07
-5.62762e-07
-9.49392e-07
-9.19545e-07
-2.88089e-07
-2.64464e-07
-2.64428e-07
-8.59995e-07
-9.39162e-07
-3.08633e-07
-2.68439e-08
-9.79739e-17
-4.16679e-15
-1.03342e-13
-1.4607e-12
-1.36016e-11
-1.19358e-10
-4.42095e-10
-1.9221e-08
-8.18723e-08
-7.79193e-08
-9.2535e-08
-9.33372e-08
-9.86732e-08
-1.40705e-07
-3.94933e-07
-5.74086e-07
-5.76154e-07
-4.07412e-07
-3.36895e-07
-3.33603e-07
-3.20554e-07
-2.58169e-07
-1.452e-07
-2.27931e-17
-9.37329e-16
-2.27558e-14
-3.17189e-13
-3.00874e-12
-2.34695e-11
-1.81271e-10
-3.96804e-09
-1.01472e-08
-1.92993e-08
-2.44146e-08
-2.36863e-08
-2.44228e-08
-3.03857e-08
-4.82739e-08
-9.358e-08
-1.88243e-07
-3.10269e-07
-3.46033e-07
-3.4571e-07
-3.06171e-07
-2.07931e-07
-1.2896e-07
-4.278e-18
-1.72738e-16
-4.1583e-15
-5.80798e-14
-5.69577e-13
-4.35618e-12
-5.5628e-11
-4.9532e-10
-1.58821e-09
-3.22307e-09
-3.99751e-09
-3.95898e-09
-4.19508e-09
-5.24653e-09
-8.11039e-09
-1.43167e-08
-2.6401e-08
-4.5868e-08
-6.14538e-08
-5.96824e-08
-5.70273e-08
-4.92657e-08
-3.82359e-08
-6.37998e-19
-2.54169e-17
-6.12351e-16
-8.70874e-15
-8.96862e-14
-7.07903e-13
-1.2298e-11
-5.29686e-11
-1.49965e-10
-2.9048e-10
-3.60598e-10
-3.94566e-10
-4.8534e-10
-7.57679e-10
-1.37845e-09
-2.3827e-09
-3.576e-09
-4.60124e-09
-5.66481e-09
-6.49624e-09
-7.45502e-09
-7.58357e-09
-7.12161e-09
-7.39897e-20
-2.95734e-18
-7.2562e-17
-1.07079e-15
-1.17056e-14
-9.58555e-14
-1.76366e-12
-5.94644e-12
-1.16298e-11
-1.39884e-11
-1.62854e-11
-2.26178e-11
-4.4893e-11
-1.02635e-10
-2.15545e-10
-3.69376e-10
-5.06663e-10
-6.1743e-10
-7.26854e-10
-8.14615e-10
-9.37326e-10
-1.01137e-09
-1.07908e-09
-6.47868e-21
-2.65224e-19
-6.76919e-18
-1.05785e-16
-1.23664e-15
-1.03472e-14
-1.57588e-13
-5.93843e-13
-1.06986e-12
-1.17799e-12
-1.33655e-12
-2.13578e-12
-5.19644e-12
-1.31839e-11
-2.84256e-11
-4.80947e-11
-6.43577e-11
-7.76611e-11
-8.9955e-11
-9.82457e-11
-1.10041e-10
-1.14894e-10
-1.29412e-10
-4.10423e-22
-1.7805e-20
-4.86163e-19
-8.18844e-18
-1.01964e-16
-8.55287e-16
-8.32573e-15
-3.19864e-14
-6.87022e-14
-8.91062e-14
-1.16695e-13
-2.09316e-13
-5.08805e-13
-1.22778e-12
-2.51057e-12
-4.05818e-12
-5.29348e-12
-6.3703e-12
-7.3222e-12
-7.99102e-12
-9.16383e-12
-9.87537e-12
-1.19368e-11
-1.76345e-23
-8.43293e-22
-2.53382e-20
-4.63522e-19
-6.05895e-18
-5.03411e-17
-3.17216e-16
-9.89773e-16
-1.84221e-15
-2.87209e-15
-5.17862e-15
-1.26694e-14
-3.32455e-14
-7.60825e-14
-1.42278e-13
-2.09347e-13
-2.62534e-13
-3.15594e-13
-3.66814e-13
-4.1111e-13
-5.03186e-13
-5.95244e-13
-8.68364e-13
-4.70104e-25
-2.63713e-23
-8.98745e-22
-1.78788e-20
-2.41856e-19
-1.95926e-18
-1.04362e-17
-2.82788e-17
-5.5469e-17
-1.06982e-16
-2.53881e-16
-6.9438e-16
-1.74116e-15
-3.52581e-15
-5.29896e-15
-6.55583e-15
-7.81919e-15
-9.2989e-15
-1.10878e-14
-1.31748e-14
-1.68827e-14
-2.46645e-14
-5.54896e-14
-7.14726e-27
-4.53496e-25
-1.70094e-23
-3.56449e-22
-4.89406e-21
-3.86458e-20
-1.70093e-19
-5.10846e-19
-1.35053e-18
-3.76763e-18
-1.09287e-17
-3.0071e-17
-6.91017e-17
-1.16459e-16
-1.39723e-16
-1.56914e-16
-1.76365e-16
-2.05283e-16
-2.5094e-16
-3.01144e-16
-3.89628e-16
-9.65007e-16
-1.04304e-14
-9.9409e-29
-4.32941e-27
-1.20583e-25
-2.20363e-24
-3.33323e-23
-3.48918e-22
-2.08982e-21
-9.43457e-21
-3.70915e-20
-1.30199e-19
-3.8534e-19
-9.78059e-19
-2.04537e-18
-3.18448e-18
-3.81426e-18
-4.19068e-18
-4.43459e-18
-4.73354e-18
-5.03485e-18
-5.50678e-18
-1.11616e-17
-2.52342e-16
-7.33566e-15
-3.1488e-30
-1.42255e-28
-3.98092e-27
-7.13064e-26
-1.02784e-24
-1.05462e-23
-6.43278e-23
-2.933e-22
-1.12107e-21
-3.71392e-21
-1.00277e-20
-2.3074e-20
-4.49992e-20
-7.00786e-20
-8.56089e-20
-9.36823e-20
-9.47715e-20
-8.71799e-20
-6.23104e-20
-8.49701e-20
-3.11494e-18
-1.74995e-16
-5.26457e-15
-4.86827e-32
-2.27981e-30
-6.29435e-29
-1.05542e-27
-1.27859e-26
-1.11017e-25
-7.54573e-25
-4.01012e-24
-1.67437e-23
-5.62468e-23
-1.47745e-22
-3.32742e-22
-6.5863e-22
-1.11458e-21
-1.45143e-21
-1.62835e-21
-1.65488e-21
-1.40868e-21
-1.46277e-21
-1.33599e-20
-1.38931e-18
-7.96068e-17
-2.32555e-15
-1.55913e-37
-5.0946e-36
-9.54238e-35
-1.0741e-33
-8.13306e-33
-3.1172e-32
-9.1938e-32
-4.69412e-31
-2.70607e-30
-1.22817e-29
-4.12282e-29
-1.14084e-28
-2.70986e-28
-4.40544e-28
-5.76418e-28
-2.10722e-27
-7.01122e-26
-2.52097e-24
-7.84848e-23
-4.35325e-21
-4.75918e-19
-2.62016e-17
-7.15817e-16
-8.56648e-42
-3.86254e-40
-1.03984e-38
-1.86059e-37
-2.64991e-36
-3.4589e-35
-7.99059e-34
-1.17508e-32
-8.49232e-32
-4.03639e-31
-1.35094e-30
-3.68539e-30
-8.54672e-30
-1.29116e-29
-2.03037e-29
-3.41215e-28
-1.66928e-26
-7.15536e-25
-2.94452e-23
-1.80198e-21
-1.51316e-19
-7.2193e-18
-1.81074e-16
-3.56803e-45
-1.60838e-43
-4.10707e-42
-6.62923e-41
-7.63913e-40
-6.58078e-39
-4.40037e-38
-2.38077e-37
-1.02993e-36
-3.87009e-36
-1.25598e-35
-5.93198e-35
-2.75975e-34
-1.1228e-32
-1.30388e-30
-1.45039e-28
-1.62959e-26
-1.8344e-24
-1.87856e-22
-1.16775e-20
-4.89919e-19
-1.25546e-17
-2.41964e-16
-8.21923e-51
-4.97431e-49
-1.70162e-47
-3.77011e-46
-6.05209e-45
-7.4973e-44
-7.3527e-43
-6.03839e-42
-4.00885e-41
-2.38866e-40
-2.59029e-39
-3.84754e-37
-1.13729e-34
-2.93998e-32
-7.35068e-30
-1.55153e-27
-3.0433e-25
-4.37171e-23
-4.85229e-21
-3.10027e-19
-1.29274e-17
-3.26328e-16
-6.33747e-15
-2.18478e-54
-1.47944e-52
-5.58304e-51
-1.38028e-49
-2.48854e-48
-3.55985e-47
-4.11988e-46
-4.34789e-45
-1.12842e-43
-3.53307e-41
-1.69254e-38
-6.25497e-36
-2.09092e-33
-5.77225e-31
-1.53041e-28
-3.40378e-26
-6.8891e-24
-1.01262e-21
-1.11619e-19
-7.13975e-18
-2.99628e-16
-7.76139e-15
-1.54222e-13
-7.54016e-61
-6.60231e-59
-3.51115e-57
-1.37294e-55
-6.21243e-54
-1.87547e-51
-1.97783e-48
-1.70702e-45
-1.26825e-42
-6.95885e-40
-3.25196e-37
-1.19552e-34
-4.04964e-32
-1.15203e-29
-3.12822e-27
-7.15258e-25
-1.45455e-22
-2.12262e-20
-2.25617e-18
-1.40389e-16
-5.7653e-15
-1.47554e-13
-2.86787e-12
-4.44816e-66
-1.97124e-63
-4.9512e-60
-1.29303e-56
-2.56649e-53
-3.72951e-50
-4.19374e-47
-3.5431e-44
-2.47145e-41
-1.32678e-38
-6.14355e-36
-2.28171e-33
-7.83701e-31
-2.28206e-28
-6.26696e-26
-1.44738e-23
-2.88626e-21
-4.06274e-19
-4.0568e-17
-2.39195e-15
-9.34478e-14
-2.2759e-12
-4.15202e-11
-5.53767e-66
-2.94012e-62
-1.19722e-58
-3.10014e-55
-5.84149e-52
-8.02454e-49
-8.70495e-46
-7.15931e-43
-4.86467e-40
-2.57636e-37
-1.18255e-34
-4.43455e-32
-1.53782e-29
-4.53287e-27
-1.24196e-24
-2.8428e-22
-5.43053e-20
-7.19455e-18
-6.60732e-16
-3.60988e-14
-1.30467e-12
-2.91356e-11
-4.78319e-10
-9.15248e-65
-7.33887e-61
-2.88821e-57
-7.28185e-54
-1.32821e-50
-1.7682e-47
-1.85356e-44
-1.48385e-41
-9.81323e-39
-5.1234e-36
-2.3275e-33
-8.77655e-31
-3.04654e-28
-8.97294e-26
-2.42205e-23
-5.38799e-21
-9.64808e-19
-1.17794e-16
-9.76766e-15
-4.84598e-13
-1.57234e-11
-3.10072e-10
-4.38336e-09
-2.39377e-63
-1.82589e-59
-6.98738e-56
-1.71953e-52
-3.0471e-49
-3.94581e-46
-4.00795e-43
-3.12969e-40
-2.01638e-37
-1.03781e-34
-4.65529e-32
-1.75536e-29
-6.04087e-27
-1.76042e-24
-4.63512e-22
-9.8425e-20
-1.62233e-17
-1.79663e-15
-1.32781e-13
-5.89303e-12
-1.66594e-10
-2.79615e-09
-3.23028e-08
-6.01223e-62
-4.48188e-58
-1.66902e-54
-4.01706e-51
-6.93997e-48
-8.77638e-45
-8.66826e-42
-6.62071e-39
-4.162e-36
-2.11204e-33
-9.33262e-31
-3.50086e-28
-1.18496e-25
-3.40378e-23
-8.66087e-21
-1.72673e-18
-2.57645e-16
-2.55106e-14
-1.66097e-12
-6.4721e-11
-1.53685e-09
-2.09733e-08
-1.8682e-07
-1.47223e-60
-1.07414e-56
-3.90369e-53
-9.21455e-50
-1.55703e-46
-1.92997e-43
-1.86016e-40
-1.39378e-37
-8.56673e-35
-4.28991e-32
-1.86601e-29
-6.9455e-27
-2.30472e-24
-6.55442e-22
-1.59463e-19
-2.94393e-17
-3.92173e-15
-3.43646e-13
-1.95782e-11
-6.53251e-10
-1.25073e-08
-1.30725e-07
-8.76798e-07
-3.51368e-59
-2.51556e-55
-8.98208e-52
-2.08693e-48
-3.45684e-45
-4.21076e-42
-3.97036e-39
-2.92478e-36
-1.76068e-33
-8.71366e-31
-3.73498e-28
-1.37941e-25
-4.51419e-23
-1.28024e-20
-2.93483e-18
-4.95764e-16
-5.82454e-14
-4.42611e-12
-2.06432e-10
-5.49654e-09
-7.99099e-08
-5.81191e-07
-3.23651e-06
-8.26002e-58
-5.85168e-54
-2.07619e-50
-4.76505e-47
-7.74724e-44
-9.2883e-41
-8.57941e-38
-6.22305e-35
-3.67571e-32
-1.80316e-29
-7.64368e-27
-2.8082e-24
-8.84222e-22
-2.23125e-19
-4.26686e-17
-5.8952e-15
-5.62202e-13
-3.50813e-11
-1.35598e-09
-2.98441e-08
-3.41425e-07
-1.66554e-06
-7.26749e-06
-1.95147e-56
-1.34213e-52
-4.54283e-49
-9.81086e-46
-1.49638e-42
-1.68431e-39
-1.45321e-36
-9.78759e-34
-5.29804e-31
-2.34436e-28
-8.74817e-26
-2.77924e-23
-7.54332e-21
-1.62792e-18
-2.63676e-16
-3.10622e-14
-2.55411e-12
-1.40198e-10
-4.91705e-09
-9.97949e-08
-1.06456e-06
-4.76198e-06
-1.40373e-05
-3.69914e-55
-2.41716e-51
-7.69e-48
-1.55093e-44
-2.19519e-41
-2.2844e-38
-1.80293e-35
-1.09692e-32
-5.24058e-30
-1.98667e-27
-6.08162e-25
-1.51717e-22
-3.11448e-20
-5.26697e-18
-7.22969e-16
-7.73806e-14
-6.0722e-12
-3.27031e-10
-1.12632e-08
-2.30388e-07
-2.77623e-06
-1.84479e-05
-3.61875e-05
-2.63616e-54
-1.60444e-50
-4.71141e-47
-8.72255e-44
-1.12852e-40
-1.0666e-37
-7.58106e-35
-4.09766e-32
-1.71031e-29
-5.54817e-27
-1.42456e-24
-2.94534e-22
-5.05914e-20
-7.39912e-18
-9.27195e-16
-9.7015e-14
-8.06652e-12
-4.9382e-10
-2.01093e-08
-4.96838e-07
-7.49976e-06
-5.61359e-05
-9.13762e-05
-1.30788e-53
-7.71441e-50
-2.17951e-46
-3.85416e-43
-4.72284e-40
-4.2057e-37
-2.80191e-34
-1.41879e-31
-5.53629e-29
-1.68013e-26
-4.00852e-24
-7.58752e-22
-1.14901e-19
-1.39877e-17
-1.36314e-15
-1.05267e-13
-6.27816e-12
-2.84963e-10
-9.36924e-09
-1.99859e-07
-1.98726e-06
-1.51805e-05
-0.00134602
-533.387
-533.291
-533.385
-533.386
-658.525
-658.417
-658.496
-658.561
-783.826
-783.768
-783.704
-783.737
-908.966
-909.008
-909.027
-909.033
-889.165
-945.215
-966.609
-981.526
-71.5154
-97.7511
-135.487
-185.263
-1.53784e-09
-1.53784e-09
-1.53784e-09
-1.53784e-09
-0.000392393
-0.000361769
-0.000212581
-1.79746e-05
-0.000283193
-0.0094021
-0.0111444
-0.0111489
-5.42202e-05
-0.000275307
-0.000702635
-0.000526552
-2.13732e-09
-2.13732e-09
-2.13732e-09
-2.13732e-09
-5.17609e-08
-1.03869e-08
-2.87112e-09
-2.28719e-09
-7.90522e-08
-4.31636e-08
-2.04473e-08
-5.57614e-08
-3.07742e-08
-2.59785e-08
-2.07024e-08
-1.84864e-08
-6.30839e-09
-5.72646e-09
-6.4136e-09
-6.11728e-09
-1.09161e-09
-1.06387e-09
-1.12232e-09
-1.21393e-09
-1.44792e-10
-1.53362e-10
-1.6728e-10
-1.92153e-10
-1.45551e-11
-1.6998e-11
-2.02154e-11
-2.51333e-11
-1.20516e-12
-1.55792e-12
-2.06967e-12
-2.88683e-12
-9.89678e-14
-1.53516e-13
-2.47352e-13
-4.14827e-13
-2.69006e-14
-5.18289e-14
-1.00797e-13
-1.95163e-13
-1.98926e-14
-3.93387e-14
-7.8319e-14
-1.54302e-13
-1.43898e-14
-2.87449e-14
-5.79828e-14
-1.16022e-13
-6.41601e-15
-1.30742e-14
-2.71899e-14
-5.65004e-14
-1.96378e-15
-3.98925e-15
-8.29822e-15
-1.75155e-14
-4.87157e-16
-9.78477e-16
-2.05875e-15
-4.54573e-15
-7.08632e-16
-1.85508e-15
-6.69244e-15
-2.38996e-14
-2.15185e-14
-6.77192e-14
-2.85255e-13
-1.12781e-12
-5.86152e-13
-2.04221e-12
-8.97718e-12
-3.6509e-11
-1.20518e-11
-4.52249e-11
-1.98704e-10
-7.78516e-10
-1.90781e-10
-7.54114e-10
-3.23851e-09
-1.05177e-08
-2.3622e-09
-9.61795e-09
-4.09039e-08
-4.08634e-08
-2.28842e-08
-9.33739e-08
-3.37054e-07
-4.20236e-08
-1.76735e-07
-6.75533e-07
-1.33761e-06
-1.36397e-05
-1.13275e-06
-4.39501e-06
-7.39076e-06
-0.000184928
-8.72641e-06
-4.63037e-05
-0.000162413
-0.000217449
-9.6305e-05
-0.000402283
-0.000467114
-1.43705e-05
-0.00055911
-0.00196417
-0.000866333
-2.17438e-06
-0.00112901
-0.00310136
-0.00310522
-0.0015639
-6.57049e-05
-0.000800108
-0.00303832
-0.00624039
-0.000156996
-0.000800503
-0.00113061
-0.00297435
-0.00774126
-0.00774126
-0.00773419
-0.00218363
-178.792
-55.0021
-168.8
-470.487
-533.467
-315.231
-15.7751
-0.0242441
-1.14726e-05
-8.70709e-07
-7.002e-07
-2.5262e-07
-1.08181e-07
-9.77899e-08
-8.63082e-08
-1.95369e-07
-4.42425e-06
-1.80455e-24
-322.166
-624.708
-629.453
-658.662
-658.662
-658.662
-443.465
-28.4494
-0.0284806
-1.00682e-05
-4.45413e-07
-3.24341e-07
-1.86822e-07
-7.68988e-08
-4.92108e-08
-2.8011e-08
-1.01879e-06
-9.12164e-06
4.21861e-25
-426.962
-783.855
-783.855
-783.855
-783.856
-783.856
-509.646
-25.9279
-0.0117433
-3.9894e-06
-1.53929e-07
-1.36987e-07
-8.81435e-08
-4.22961e-08
-3.34006e-08
-3.33358e-08
-4.41638e-06
-1.08525e-05
2.38993e-24
-606.328
-909.037
-909.03
-909.032
-909.046
-909.051
-646.835
-37.6005
-2.51102e-13
-9.06945e-07
-1.71513e-07
-7.03118e-08
-5.02211e-08
-4.75091e-08
-3.87352e-08
-6.86818e-07
-8.05524e-06
-4.54717e-06
-3.4296e-17
-760.422
-993.375
-1017.79
-1028.97
-1033.32
-1034.25
-960.522
-153.24
-2.85676e-13
-1.29503e-07
-1.36546e-07
-1.22445e-07
-1.02023e-07
-1.40547e-07
-2.31924e-07
-3.41516e-07
-7.47787e-06
-3.01191e-13
-47.0429
-916.711
-285.753
-502.149
-795.908
-1030.23
-1146.35
-1157.75
-621.823
-1.64983
-6.62915e-09
-2.71406e-07
-3.08335e-07
-2.79298e-07
-4.40333e-07
-7.25997e-07
-8.15352e-07
-1.77171e-06
-3.38046e-13
-266.723
-1091.19
-1.53784e-09
-1.53784e-09
-1.2409
-186.602
-886.071
-1274.11
-1262.69
-302.345
-7.34388e-09
-2.51095e-07
-2.75356e-07
-2.94857e-07
-5.91666e-07
-8.33098e-07
-7.81466e-07
-1.03211e-07
-3.74048e-13
-577.075
-1257.47
-1.68771e-09
-1.17082e-08
-1.68771e-09
-1.68771e-09
-60.8917
-713.183
-1370.62
-1251.15
-382.842
-3.90275e-13
-3.90255e-13
-7.30555e-08
-3.62017e-07
-4.03576e-07
-4.74643e-08
-0.0373602
-4.10982e-13
-977.165
-1396.66
-0.0085733
-0.000346756
-0.00243061
-0.00554994
-0.0037003
-11.9393
-613.871
-1387.27
-1387.27
-670.154
-139.153
-4.23113e-13
-4.23025e-13
-4.23091e-13
-4.23039e-13
-4.23139e-13
-466.764
-1419.24
-1527.14
-0.000526675
-0.0140529
-0.0596412
-0.0530149
-0.00400193
-5.07791e-07
-5.07791e-07
-480.042
-1176.05
-1289.83
-1289.8
-954.702
-652.965
-622.495
-823.088
-1291.77
-1631.03
-1651.69
-1651.69
-0.00965676
-0.0625957
-0.06414
-0.034546
-0.000760745
-6.55988e-07
-5.46083e-07
-9.46726
-282.704
-946.225
-1220.18
-1427.47
-1427.75
-1427.75
-1427.75
-1465.95
-1610.92
-1734.79
-1774.7
-0.000538972
-0.0134397
-0.0141745
-0.000201309
-1.28034e-06
-3.43376e-06
-0.191842
-6.72829
-32.82
-167.837
-353.809
-466.898
-445.196
-421.376
-378.376
-328.523
-508.427
-1478.74
-1899.7
-1.42632e-08
-1.42632e-08
-1.42632e-08
-1.42632e-08
-1.36425e-06
-0.000152945
-0.0496189
-10.9767
-470.289
-1188.42
-1348.09
-1044.85
-750.173
-345.227
-184.05
-184.052
-749.031
-1780.37
-2024.18
-1.5183e-08
-8.79655e-08
-1.7934e-06
-3.68527e-06
-3.13273e-06
-0.000122936
-0.0114679
-1.4063
-41.3173
-619.843
-1586.42
-1927.24
-1927.29
-1759.31
-1259.44
-1158.7
-1807.38
-2118.48
-2115
-4.89776e-09
-3.65907e-08
-1.14052e-06
-4.38404e-06
-4.85734e-06
-4.72581e-05
-0.00977067
-0.394417
-0.526407
-8.78078e-07
-34.0937
-585.147
-1467.16
-2041.04
-2263.45
-2263.45
-2263.45
-2263.68
-2184.64
-1.18416e-09
-3.56264e-09
-2.02609e-07
-2.82568e-06
-4.85253e-06
-1.18893e-05
-0.0188785
-0.209368
-0.0987596
-9.26162e-07
-9.26162e-07
-9.26162e-07
-9.26162e-07
-444.454
-1568.28
-2197.76
-2363.49
-2387.63
-2304.28
-2.42228e-10
-5.35691e-10
-2.55399e-08
-6.91525e-07
-3.12803e-06
-3.93504e-07
-0.0026119
-0.0918377
-0.139117
-0.0235326
-0.0495334
-0.0205818
-9.74247e-07
-9.74247e-07
-9.74247e-07
-974.763
-2030.56
-2192.77
-2471.13
-4.15018e-11
-1.13508e-10
-3.00709e-09
-1.27205e-07
-9.64262e-07
-4.12935e-07
-9.85616e-05
-0.00331218
-0.0136144
-0.00414618
-0.175401
-0.119968
-1.02233e-06
-0.00418936
-8.60719
-234.913
-1594.61
-2303.67
-2603.82
-8.08433e-12
-5.05947e-11
-5.91563e-10
-2.08968e-08
-2.35463e-07
-4.3235e-07
-2.33458e-06
-3.09001e-06
-1.15042e-06
-5.01228e-07
-0.0454371
-0.0958184
-0.0194053
-0.00207738
-0.909753
-97.4583
-1065.31
-2161.68
-2726.32
-6.22848e-12
-4.99912e-11
-6.72538e-10
-5.7001e-09
-7.09833e-08
-2.56151e-07
-5.28065e-07
-5.23753e-07
-5.23744e-07
-5.23753e-07
-0.000438282
-1.6035e-06
-9.66057e-05
-8.07727e-05
-0.322364
-25.072
-221.181
-780.839
-1148.44
-3.33199e-11
-1.34698e-10
-1.84876e-09
-1.04091e-08
-5.7032e-08
-2.03107e-07
-5.16275e-07
-8.11009e-07
-1.17556e-06
-1.52675e-06
-2.01574e-06
-1.67243e-06
-7.19932e-07
-7.19932e-07
-0.00262816
-0.0026281
-8.12554
-263.676
-576.728
-2.5484e-11
-1.97777e-10
-1.90124e-09
-1.44597e-08
-6.87231e-08
-2.152e-07
-5.29905e-07
-1.32914e-06
-2.87113e-06
-3.21476e-06
-2.39296e-06
-9.76902e-07
-7.49606e-07
-7.49606e-07
-7.49606e-07
-0.160406
-3.07984
-67.2295
-490.662
-1.42971e-11
-1.78278e-10
-1.2534e-09
-1.1372e-08
-6.50521e-08
-2.34174e-07
-5.77317e-07
-1.4024e-06
-3.05115e-06
-3.29776e-06
-2.17695e-06
-7.7928e-07
-7.7928e-07
-3.55581e-06
-4.98425e-06
-0.584624
-0.0136532
-1.32029
-656.99
-4.31308e-12
-9.53003e-11
-5.59793e-10
-4.38696e-09
-3.52774e-08
-1.98073e-07
-6.94164e-07
-1.64395e-06
-2.45498e-06
-1.75251e-06
-1.7128e-06
-7.46976e-05
-0.000393504
-0.000131391
-4.611e-06
-0.256128
-0.0141725
-1.30642
-687.479
-1.53385e-12
-3.73283e-11
-2.52464e-10
-1.58628e-09
-9.3515e-09
-1.09667e-07
-5.38158e-07
-1.52522e-06
-1.39426e-06
-5.56211e-07
-2.92296e-05
-0.000437273
-0.000481777
-0.000262368
-4.78042e-06
-1.84223e-05
5.52688e-24
5.62476e-27
-712.641
-1.97433e-12
-5.4497e-11
-3.19203e-10
-1.38417e-09
-9.14122e-09
-6.08221e-08
-2.25512e-07
-1.12104e-06
-1.09904e-06
-4.72693e-07
-0.000167142
-0.000474267
-0.000474273
-0.000102797
-1.53219e-05
-9.79593e-06
-2.30362e-06
1.2599e-25
-638.046
-6.83559e-12
-1.48762e-10
-1.17667e-09
-2.92986e-09
-4.41936e-08
-2.34951e-07
-3.27752e-07
-4.96017e-07
-4.88847e-07
-4.88848e-07
-0.000156842
-0.000328881
-0.000114076
-3.63212e-05
-5.79526e-05
-6.72426e-06
-5.35212e-07
-6.3867e-27
-399.84
-5.05409e-11
-4.07624e-10
-2.634e-09
-7.83009e-09
-3.01737e-08
-1.70422e-07
-3.39228e-07
-3.39225e-07
-4.65683e-06
-3.19342e-05
-6.73362e-05
-3.2519e-05
-1.23477e-05
-0.000116899
-1.67647e-05
-0.00016652
-0.00805843
9.70511e-18
-384.404
-7.58133e-10
-4.38166e-09
-1.94833e-08
-7.48728e-08
-9.67599e-08
-1.09009e-07
-2.4923e-07
-1.5717e-06
-1.50509e-05
-4.00457e-05
-2.9873e-05
-1.27427e-05
-1.27426e-05
-0.00185855
-0.0707164
-1.56644
-7.01235
-39.2548
-834.091
-9.72709e-09
-6.59921e-08
-2.21316e-07
-4.12892e-07
-7.16834e-07
-2.51404e-07
-1.03766e-07
-1.0415e-07
-1.03766e-07
-2.67042e-05
-1.44962e-05
-1.31376e-05
-0.00174278
-0.00340725
-0.976724
-55.08
-280.592
-458.905
-935.149
-1.10782e-07
-8.44704e-07
-2.75216e-06
-2.35361e-06
-9.79798e-07
-2.58962e-07
-0.00014006
-0.000339665
-0.000189941
-2.68215e-05
-1.25327e-05
-0.000627377
-0.0127304
-0.00576286
-1.50158
-104.429
-552.303
-1016.42
-846.462
-1.51534e-06
-1.19833e-05
-3.74612e-05
-2.36183e-05
-1.67972e-05
-3.9072e-05
-0.000319549
-0.00037616
-0.000361834
-3.89733e-05
-1.28966e-05
-0.0129718
-0.0153273
-0.00593099
-1.83415
-38.0528
-203.498
-1046.11
-466.749
-3.40634e-05
-0.000114129
-0.00014305
-0.000111444
-4.69416e-05
-3.77483e-05
-6.7939e-05
-0.000164848
-0.000113411
-2.35993e-05
-1.32643e-05
-0.0198248
-0.0121896
-0.0760235
-0.615844
-1.48629e-07
-1.48629e-07
-1043.34
-792.744
-0.000189105
-0.000189153
-0.000157137
-9.3535e-05
-3.47384e-05
-1.38474e-05
-1.36663e-05
-1.36464e-05
-1.36663e-05
-2.69021e-05
-0.000129897
-0.0203772
-0.0101423
-0.0780992
-0.0484679
-0.000936551
-1.52728e-07
-498.883
-2148.45
-0.000206276
-4.722e-05
-0.000885097
-0.00848349
-1.40126e-05
-1.4033e-05
-0.205433
-0.0279557
-0.017024
-0.000541319
-0.000336509
-0.0187638
-0.00839742
-0.0802299
-0.00345587
-0.00337319
-1.56827e-07
-360.925
-2206.13
-0.000119739
-5.93823e-06
-0.013969
-0.280227
-0.621288
-0.696234
-0.900469
-0.753914
-0.0911302
-0.000348119
-0.000834798
-0.00278783
-0.00556744
-0.0822792
-0.00938583
-0.00240514
-1.60925e-07
-259.124
-2232.89
-2.12168e-06
-5.34437e-06
-0.068262
-0.805517
-0.923404
-0.923404
-0.923404
-0.923404
-0.0519964
-6.93271e-07
-0.000523725
-5.92748e-06
-0.00319184
-0.0446816
-0.00656266
-0.000860512
-0.00213374
-50.5011
-2101.52
-2.17441e-06
-3.63474e-05
-0.0135615
-0.353081
-0.94634
-0.94634
-0.94634
-0.523685
-1.88436e-07
-7.11442e-07
-2.02365e-05
-6.38611e-07
-0.00079569
-0.000297183
-0.000526461
-0.00297492
-0.111905
-4.46646e-21
-2009.05
-0.000675393
-0.000136623
-9.5591e-05
-9.57038e-05
-0.118044
-0.268332
-0.174208
-0.016674
-1.93003e-07
-1.93003e-07
-1.93003e-07
-1.93003e-07
-1.93003e-07
-1.93003e-07
-0.00760112
-0.00760389
-0.00353239
1.35527e-21
-1630.32
-0.0175128
-0.029949
-0.029234
-0.00862952
-0.000691116
-0.000691091
-0.0018069
-0.00690504
-0.00970118
-0.0115936
-0.0197654
-0.033699
-0.0163559
-0.0123947
-0.00197511
-4.92765e-05
-2.04396e-23
1.35154e-24
-1668.75
-0.0232696
-0.0563417
-0.0564315
-0.0564538
-0.020435
-0.000623099
-0.000623215
-0.0629656
-0.128098
-0.128105
-0.129116
-0.129118
-0.0802799
-0.0223043
-0.000439229
-7.06607e-05
-2.00559e-05
-2.66764e-24
-1403.4
2.77044e-23
-1.69379e-22
-9.9456e-05
-0.00888476
-0.0395774
-0.0534529
-0.0458786
-0.0360207
-0.0879948
-0.132153
-0.119811
-0.0664052
-0.0265219
-0.00669196
-5.46735e-05
-3.00633e-24
1.03278e-25
1.61563e-21
-434.961
)
;

boundaryField
{
    leftWall
    {
        type            calculated;
        value           nonuniform List<scalar> 
50
(
-29.4294
-88.2881
-147.147
-206.006
-264.864
-323.723
-382.582
-441.363
-478.549
-136.347
2.41056e-35
-1.15425e-15
-4.13578e-15
-5.54026e-15
-5.7613e-15
-4.56945e-15
-2.34024e-15
-9.86323e-16
-3.43009e-16
-9.79739e-17
-2.27931e-17
-4.278e-18
-6.37998e-19
-7.39897e-20
-6.47868e-21
-4.10423e-22
-1.76345e-23
-4.70104e-25
-7.14726e-27
-9.9409e-29
-3.1488e-30
-4.86827e-32
-1.55913e-37
-8.56648e-42
-3.56803e-45
-8.21923e-51
-2.18478e-54
-7.54016e-61
-4.44816e-66
-5.53767e-66
-9.15248e-65
-2.39377e-63
-6.01223e-62
-1.47223e-60
-3.51368e-59
-8.26002e-58
-1.95147e-56
-3.69914e-55
-2.63616e-54
-1.30788e-53
)
;
    }
    rightWall
    {
        type            calculated;
        value           nonuniform List<scalar> 
50
(
-21.1708
-63.508
-69.4387
-129.833
-196.697
-240.408
-284.119
-290.592
-322.166
-426.962
-606.328
-760.422
-916.711
-1091.19
-1257.47
-1396.66
-1527.14
-1651.69
-1774.7
-1899.7
-2024.18
-2115
-2184.64
-2304.28
-2471.13
-2603.82
-2726.32
-1148.44
-576.728
-490.662
-656.99
-687.479
-712.641
-638.046
-399.84
-384.404
-834.091
-935.149
-846.462
-466.749
-792.744
-2148.45
-2206.13
-2232.89
-2101.52
-2009.05
-1630.32
-1668.75
-1403.4
-434.961
)
;
    }
    lowerWall
    {
        type            calculated;
        value           nonuniform List<scalar> 
62
(
0
0
0
0
0
0
0
0
0
0
0
0
0
0
0
0
0
0
0
0
0
0
0
-29.421
-88.2594
-147.099
-205.954
-264.859
-323.723
-382.582
-441.44
-470.799
-470.714
-470.798
-470.798
-1.2128e-10
-3.73492e-10
-5.4202e-12
-7.58828e-12
-9.75637e-12
-6.15153e-10
-1.05052e-09
-1.87824e-10
0
0
0
0
0
0
0
0
0
0
0
0
0
0
0
0
0
0
0
)
;
    }
    atmosphere
    {
        type            calculated;
        value           nonuniform List<scalar> 
46
(
-0
-0
-0
-0
-0
-0
-0
-0
-0
-0
-0
-0
-0
-0
-0
-0
-0
-0
-0
-0
-2.00921e-06
-1.53482e-05
-0.00136089
-0.00782677
-0.00782677
-0.00781963
-0
-0
-0
-0
-0
-0
-0
-0.0463855
-0.0364186
-0.0889669
-0.133613
-0.121135
-0.0671388
-0.0268149
-0.00676588
-0
-0
-0
-0
-439.766
)
;
    }
    defaultFaces
    {
        type            empty;
    }
}


// ************************************************************************* //
