/*--------------------------------*- C++ -*----------------------------------*\
| =========                 |                                                 |
| \\      /  F ield         | OpenFOAM: The Open Source CFD Toolbox           |
|  \\    /   O peration     | Version:  3.0.1                                 |
|   \\  /    A nd           | Web:      www.OpenFOAM.org                      |
|    \\/     M anipulation  |                                                 |
\*---------------------------------------------------------------------------*/
FoamFile
{
    version     2.0;
    format      ascii;
    class       volScalarField;
    location    "0.00025";
    object      minKappa;
}
// * * * * * * * * * * * * * * * * * * * * * * * * * * * * * * * * * * * * * //

dimensions      [0 0 0 0 0 0 0];

internalField   nonuniform List<scalar> 
1000
(
0.894825
0.894825
0.894825
0.894825
0.894825
0.894825
0.894825
0.894825
0.894825
0.894825
0.894826
0.894827
0.894829
0.894833
0.894839
0.894851
0.894873
0.894876
0.89493
0.89504
0.895145
0.895394
0.895653
0.896115
0.896669
0.897339
0.898141
0.899052
0.900019
0.900956
0.901854
0.9027
0.903383
0.903902
0.904234
0.904452
0.904612
0.904708
0.904783
0.904824
0.904802
0.904781
0.90475
0.90473
0.904705
0.904657
0.904571
0.904182
0.903041
0.900535
0.896584
0.892012
0.888129
0.885745
0.884744
0.884501
0.884497
0.884497
0.884587
0.884769
0.88488
0.884858
0.88484
0.88484
0.884848
0.884933
0.885062
0.885203
0.885377
0.885718
0.886272
0.887094
0.88812
0.889256
0.890441
0.891526
0.892429
0.893191
0.893683
0.894145
0.894363
0.894602
0.894696
0.894706
0.894776
0.894802
0.894809
0.894815
0.89482
0.894822
0.894824
0.894824
0.894825
0.894825
0.894825
0.894825
0.894825
0.894825
0.894825
0.894825
0.894825
0.894825
0.894825
0.894825
0.894825
0.894825
0.894825
0.894825
0.894825
0.894825
0.894826
0.894827
0.894829
0.894833
0.894839
0.89485
0.894872
0.894888
0.894932
0.895033
0.895145
0.89537
0.895639
0.896102
0.896651
0.897309
0.898113
0.899039
0.900028
0.900965
0.901852
0.90275
0.903429
0.903945
0.904269
0.904417
0.904588
0.904681
0.904769
0.904803
0.904803
0.904791
0.904776
0.904741
0.904699
0.904636
0.904489
0.904059
0.902864
0.90041
0.896564
0.892119
0.888278
0.885862
0.884804
0.88453
0.884521
0.884521
0.884589
0.884756
0.884874
0.884869
0.884856
0.884856
0.884859
0.884932
0.885052
0.88517
0.885375
0.885698
0.886263
0.887072
0.888095
0.889212
0.890422
0.891532
0.892447
0.893191
0.893711
0.894129
0.894372
0.89457
0.894668
0.894708
0.894776
0.894806
0.894811
0.894814
0.89482
0.894823
0.894823
0.894824
0.894825
0.894825
0.894825
0.894825
0.894825
0.894825
0.894825
0.894825
0.894825
0.894825
0.894825
0.894825
0.894825
0.894825
0.894825
0.894825
0.894825
0.894826
0.894826
0.894827
0.894829
0.894833
0.894839
0.894851
0.894871
0.894899
0.894949
0.895023
0.895153
0.895366
0.895638
0.896112
0.896614
0.89728
0.898132
0.899045
0.900013
0.900962
0.901861
0.902788
0.903454
0.90395
0.904259
0.904439
0.90458
0.904663
0.904745
0.904788
0.904802
0.904821
0.904808
0.904781
0.904707
0.904585
0.904343
0.903761
0.90251
0.900101
0.896519
0.892322
0.888601
0.886128
0.884957
0.884612
0.884594
0.884594
0.884614
0.88472
0.88484
0.884885
0.884886
0.884886
0.884915
0.884991
0.885071
0.88519
0.885406
0.885763
0.886306
0.887046
0.888012
0.889182
0.890398
0.891559
0.892444
0.893166
0.893753
0.894103
0.89436
0.894537
0.894645
0.894701
0.894772
0.894804
0.89481
0.894814
0.894819
0.894823
0.894824
0.894824
0.894824
0.894825
0.894825
0.894825
0.894825
0.894825
0.894825
0.894825
0.894825
0.894825
0.894825
0.894825
0.894825
0.894825
0.894825
0.894825
0.894825
0.894826
0.894826
0.894827
0.894829
0.894833
0.894839
0.894851
0.894874
0.894911
0.894944
0.894994
0.895168
0.89539
0.895628
0.89608
0.896626
0.897323
0.898131
0.899035
0.899958
0.900931
0.901947
0.902823
0.903458
0.903922
0.904229
0.904446
0.904628
0.904702
0.904766
0.904796
0.904817
0.904843
0.904854
0.904815
0.904739
0.904568
0.904246
0.903561
0.902201
0.899828
0.896418
0.892442
0.88883
0.886342
0.8851
0.884711
0.884655
0.884655
0.884659
0.884715
0.884801
0.884854
0.884884
0.884915
0.884953
0.885035
0.885136
0.885246
0.885466
0.885806
0.886376
0.887042
0.888015
0.889176
0.890429
0.891595
0.892421
0.893097
0.893723
0.894065
0.894367
0.894536
0.894633
0.894693
0.894772
0.89481
0.89481
0.894813
0.894819
0.894822
0.894823
0.894824
0.894824
0.894825
0.894825
0.894825
0.894825
0.894825
0.894825
0.894825
0.894825
0.894825
0.894825
0.894825
0.894825
0.894825
0.894825
0.894825
0.894825
0.894826
0.894826
0.894827
0.894829
0.894833
0.89484
0.89485
0.894871
0.894899
0.894946
0.895037
0.895171
0.895369
0.895626
0.896057
0.89665
0.897344
0.898057
0.898974
0.899899
0.900946
0.902017
0.902897
0.90352
0.903902
0.904196
0.904432
0.904639
0.904738
0.904781
0.904822
0.904839
0.904858
0.904883
0.904862
0.904772
0.904616
0.904265
0.903542
0.902127
0.899743
0.896341
0.892426
0.888871
0.886397
0.885151
0.884754
0.884695
0.884695
0.884696
0.884731
0.884788
0.884845
0.884904
0.884945
0.884996
0.885064
0.885146
0.885245
0.885438
0.885862
0.886335
0.887066
0.888118
0.889263
0.890435
0.89151
0.892357
0.893065
0.893679
0.894043
0.894341
0.89452
0.894644
0.894707
0.894771
0.8948
0.894806
0.894814
0.89482
0.894822
0.894823
0.894824
0.894824
0.894825
0.894825
0.894825
0.894825
0.894825
0.894825
0.894825
0.894825
0.894825
0.894825
0.894825
0.894825
0.894825
0.894825
0.894825
0.894825
0.894826
0.894826
0.894827
0.894829
0.894833
0.894841
0.89485
0.89487
0.894895
0.894949
0.89505
0.895168
0.895374
0.895645
0.896071
0.896623
0.897284
0.898098
0.898957
0.899917
0.900985
0.902038
0.902834
0.903483
0.903835
0.904095
0.904416
0.904642
0.904728
0.904786
0.90482
0.904828
0.90484
0.904881
0.904888
0.904848
0.904698
0.904392
0.903664
0.902251
0.899789
0.896279
0.892283
0.888732
0.886312
0.885111
0.884752
0.884707
0.884707
0.884709
0.88475
0.884819
0.884843
0.88489
0.884938
0.884981
0.885055
0.885086
0.885156
0.885384
0.885849
0.886357
0.887151
0.888229
0.88941
0.890484
0.891409
0.892292
0.893063
0.893631
0.894037
0.89435
0.894527
0.894632
0.894707
0.894757
0.894788
0.894806
0.894814
0.89482
0.894822
0.894823
0.894824
0.894824
0.894825
0.894825
0.894825
0.894825
0.894825
0.894825
0.894825
0.894825
0.894825
0.894825
0.894825
0.894825
0.894825
0.894825
0.894825
0.894825
0.894826
0.894826
0.894827
0.89483
0.894834
0.894839
0.894847
0.894867
0.894888
0.894955
0.895063
0.895162
0.895381
0.895651
0.896034
0.89662
0.897118
0.897928
0.898996
0.899918
0.900929
0.901919
0.9028
0.903503
0.90393
0.904103
0.90439
0.904615
0.904688
0.904761
0.904773
0.904789
0.904826
0.904845
0.904903
0.904914
0.904832
0.904555
0.903919
0.902462
0.899907
0.896211
0.892074
0.888482
0.886129
0.885027
0.884712
0.884687
0.884687
0.884693
0.884761
0.884824
0.884853
0.884873
0.884897
0.884935
0.885016
0.885024
0.885024
0.885212
0.885678
0.886276
0.887188
0.888312
0.889428
0.890587
0.891412
0.89232
0.893127
0.893685
0.894092
0.894313
0.894523
0.894655
0.894726
0.894765
0.894795
0.894807
0.894814
0.89482
0.894822
0.894823
0.894824
0.894824
0.894825
0.894825
0.894825
0.894825
0.894825
0.894825
0.894825
0.894825
0.894825
0.894825
0.894825
0.894825
0.894825
0.894825
0.894825
0.894825
0.894826
0.894826
0.894827
0.894829
0.894833
0.894838
0.894848
0.894865
0.894894
0.894948
0.895037
0.895151
0.895351
0.895595
0.896
0.896476
0.89706
0.897933
0.898889
0.899916
0.900956
0.902001
0.902834
0.903598
0.904026
0.904307
0.904499
0.904576
0.904661
0.904718
0.904733
0.904741
0.904758
0.90481
0.904906
0.904968
0.904916
0.904709
0.904056
0.902625
0.899988
0.896204
0.891956
0.888326
0.886002
0.884946
0.884652
0.884638
0.884638
0.88466
0.884748
0.884815
0.884837
0.88485
0.884872
0.884919
0.884968
0.884994
0.885033
0.885232
0.885674
0.886287
0.887166
0.88824
0.889412
0.890507
0.891543
0.892434
0.893171
0.893668
0.894088
0.894312
0.894528
0.894707
0.894744
0.894768
0.894792
0.894806
0.894815
0.89482
0.894822
0.894824
0.894824
0.894824
0.894825
0.894825
0.894825
0.894825
0.894825
0.894825
0.894825
0.894825
0.894825
0.894825
0.894825
0.894825
0.894825
0.894825
0.894825
0.894825
0.894825
0.894826
0.894827
0.894829
0.894831
0.894837
0.894847
0.894862
0.894894
0.894936
0.895018
0.895125
0.895306
0.895561
0.895927
0.896433
0.897068
0.897907
0.898845
0.899913
0.900978
0.902005
0.902868
0.903571
0.904027
0.904319
0.904493
0.9046
0.904671
0.9047
0.904703
0.904703
0.904707
0.904787
0.904913
0.90499
0.904963
0.904739
0.904103
0.902654
0.900021
0.896216
0.891956
0.888305
0.885973
0.884911
0.88461
0.884595
0.884595
0.884611
0.884711
0.884795
0.884817
0.884821
0.884825
0.884847
0.884924
0.884987
0.885056
0.885272
0.885636
0.88625
0.887107
0.888152
0.889328
0.890495
0.891571
0.892468
0.893214
0.893731
0.894111
0.894371
0.894557
0.894671
0.894739
0.894774
0.894795
0.894808
0.894816
0.89482
0.894822
0.894824
0.894824
0.894825
0.894825
0.894825
0.894825
0.894825
0.894825
0.894825
0.894825
0.894825
0.894825
0.894825
0.894825
0.894825
0.894825
0.894825
0.894825
0.894825
0.894825
0.894826
0.894827
0.894829
0.894831
0.894837
0.894846
0.894861
0.894891
0.894934
0.895018
0.895128
0.895313
0.895558
0.895928
0.896427
0.897068
0.897896
0.898832
0.89989
0.900969
0.901985
0.902879
0.903569
0.904057
0.904346
0.904512
0.904622
0.904679
0.904696
0.904692
0.904692
0.904699
0.904778
0.904914
0.904994
0.904965
0.904745
0.9041
0.902652
0.900021
0.896229
0.89197
0.888318
0.885983
0.884908
0.884597
0.884575
0.884575
0.884584
0.884673
0.884768
0.884805
0.884808
0.884811
0.88484
0.884906
0.884985
0.885083
0.885288
0.885662
0.886259
0.887118
0.888154
0.889321
0.890507
0.891574
0.892484
0.893214
0.893747
0.894122
0.894382
0.894554
0.894663
0.894733
0.89477
0.894796
0.894808
0.894816
0.89482
0.894822
0.894824
0.894824
0.894825
0.894825
0.894825
0.894825
0.894825
0.894825
0.894825
0.894825
)
;

boundaryField
{
    sides1
    {
        type            calculated;
        value           uniform 0;
    }
    sides2
    {
        type            calculated;
        value           uniform 0;
    }
    empty
    {
        type            empty;
    }
}


// ************************************************************************* //
