/*--------------------------------*- C++ -*----------------------------------*\
| =========                 |                                                 |
| \\      /  F ield         | OpenFOAM: The Open Source CFD Toolbox           |
|  \\    /   O peration     | Version:  3.0.1                                 |
|   \\  /    A nd           | Web:      www.OpenFOAM.org                      |
|    \\/     M anipulation  |                                                 |
\*---------------------------------------------------------------------------*/
FoamFile
{
    version     2.0;
    format      ascii;
    class       volScalarField;
    location    "0.00025";
    object      p;
}
// * * * * * * * * * * * * * * * * * * * * * * * * * * * * * * * * * * * * * //

dimensions      [1 -1 -2 0 0 0 0];

internalField   nonuniform List<scalar> 
1000
(
68970
68970
68970
68970
68970
68969.9
68969.9
68969.7
68969.4
68968.9
68968
68966.3
68963.4
68958.6
68950.2
68937.4
68914.5
68883.2
68806.8
68729.8
68575.6
68402.8
68129.8
67802.9
67412.5
66982.5
66512
66017.6
65551.6
65089.3
64727
64410.6
64213.3
64057.9
63955
63900.8
63860.5
63826.2
63806.8
63800
63800.6
63802.1
63803.1
63808.4
63816.2
63828.5
63837.3
63845.9
63849.3
63847.7
63842.1
63834.5
63828.5
63822.6
63819.1
63813.9
63808.4
63801.2
63791.4
63784.2
63778.4
63774.3
63764.2
63751.7
63732.8
63708.7
63682.5
63631.6
63549.4
63399.4
63162.9
62818.1
62368.2
61848.8
61295.4
60764.9
60308.2
59912.3
59637.5
59395.1
59261.3
59131.3
59072.6
59032
59006.7
58992.3
58982.5
58976.8
58973.7
58972
58971.1
58970.6
58970.3
58970.1
58970.1
58970
58970
58970
58970
58970
68970
68970
68970
68970
68970
68969.9
68969.9
68969.7
68969.5
68968.9
68968
68966.4
68963.5
68958.8
68950.6
68937.9
68914.3
68881.7
68809.8
68731.4
68584.4
68411.4
68141.7
67799.9
67423.2
66992.6
66529.4
66016.9
65561.1
65088.7
64699
64388.2
64168.8
64018.5
63937.9
63906.6
63856.8
63831.7
63809.7
63803.5
63802.5
63800.5
63799.8
63803.5
63813.3
63822.8
63835.5
63844.1
63850
63851.9
63848.9
63843.2
63836.5
63829.6
63823.6
63817.9
63810.2
63802.5
63791
63782
63773.9
63766.8
63757.8
63743.7
63726.7
63704
63678.6
63635.2
63549.5
63407
63175.4
62830.1
62377.4
61857.8
61284.4
60762.4
60297.6
59910.3
59625.8
59393
59252.1
59138.4
59074.9
59036.2
59005.2
58991.8
58982
58976.9
58973.5
58972
58971
58970.5
58970.3
58970.1
58970.1
58970
58970
58970
58970
58970
68970
68970
68970
68970
68970
68969.9
68969.8
68969.7
68969.4
68968.9
68968
68966.1
68963.2
68958.2
68950.7
68936.5
68912
68875.6
68804.5
68725.7
68589.9
68410.9
68141
67802.5
67444.2
67009.1
66527.8
66016.9
65572.3
65079.7
64709.5
64360.6
64178.4
64010.4
63944.9
63906.4
63876.2
63840
63825.8
63813
63805.6
63801.4
63798.9
63798.7
63803.4
63818.2
63827.4
63844.7
63850.5
63855.4
63857.2
63854.1
63847.4
63840.5
63831.3
63821.7
63812.1
63802.2
63792.8
63780.3
63768.6
63756.3
63742.6
63723.3
63698
63678.8
63651
63607.7
63524.9
63387.7
63185.8
62857.1
62390.6
61855.6
61261.6
60786.8
60315.2
59940.3
59625.5
59411.7
59254.5
59149.3
59083.5
59046
59006.6
58992.2
58982.1
58977.5
58973.6
58972.2
58971.1
58970.6
58970.3
58970.2
58970.1
58970
58970
58970
58970
58970
68970
68970
68970
68970
68970
68969.9
68969.8
68969.7
68969.4
68968.9
68967.9
68965.9
68962.6
68957.8
68950.5
68935.9
68909.9
68872.2
68799.9
68719.5
68578.2
68404.8
68159.5
67817.3
67438
67027.7
66541.1
66043.9
65564.3
65064.6
64677.6
64332.9
64167.6
64029.1
63954.3
63908.4
63874.2
63853.4
63828.4
63817.1
63806.4
63798.2
63792.3
63792.8
63797.3
63809.7
63824.1
63836.9
63845.7
63850.7
63854.4
63854.2
63851.5
63844.8
63835.7
63825.5
63812.2
63799.7
63788.8
63777.7
63763.4
63750
63731.3
63710.4
63688.8
63660.2
63631.9
63593.5
63513.8
63390.1
63210.6
62866.5
62402.7
61796.1
61252.4
60790.8
60339.6
59966.8
59646.4
59431.5
59256.7
59156.2
59089.3
59052.3
59006.6
58992.2
58982.7
58978.1
58974.2
58972.4
58971.3
58970.7
58970.3
58970.2
58970.1
58970
58970
58970
58970
58970
68970
68970
68970
68970
68970
68969.9
68969.8
68969.7
68969.4
68968.8
68967.8
68965.9
68962.9
68957.7
68949.7
68935.8
68909.9
68871.4
68799.6
68712.5
68572.3
68400
68184.3
67799.3
67432.4
67044.3
66586.2
66070.9
65573.5
65046.8
64657.7
64313.1
64151.4
64045.5
63973.7
63914.3
63880.6
63855.3
63830.6
63806.2
63796.1
63789.5
63784.4
63784.3
63792.2
63797.9
63813.1
63820.9
63834
63849.9
63859.4
63863.7
63861.4
63855.4
63844.2
63831.2
63816.1
63802.9
63793.3
63780.8
63763.4
63742.6
63720.3
63703.3
63679.9
63656.5
63634.7
63593.9
63512.4
63403
63180.3
62832
62356.8
61777.6
61284.7
60808.9
60321.9
59970.8
59688.3
59445.8
59264.6
59163.8
59087.6
59046.6
59008.4
58993.6
58983.5
58978.3
58974.2
58972.5
58971.3
58970.7
58970.3
58970.2
58970.1
58970
58970
58970
58970
58970
68970
68970
68970
68970
68970
68969.9
68969.8
68969.7
68969.4
68968.9
68967.8
68965.8
68963
68957.7
68949.5
68935.1
68909.9
68873.8
68805.4
68714.4
68580.8
68406.1
68157.9
67821.9
67440
67051.4
66607.7
66076
65554.5
65059.6
64644.9
64342.6
64140.9
64054
63985.5
63933.8
63890
63859.4
63831.5
63811.3
63796
63785.3
63779.2
63779.6
63783.2
63795.1
63799.9
63811.6
63821.5
63836.7
63848.8
63854.8
63856.9
63850.2
63840.1
63827.6
63812.6
63800.9
63792.8
63784.3
63773.9
63755
63721.6
63702
63680.3
63683.4
63669.4
63628.9
63522.3
63377.6
63136
62764.8
62321.3
61783.5
61297
60828.3
60361.1
59967.7
59675.5
59442.1
59269.1
59162.1
59091
59044.3
59011.8
58994.9
58984.4
58978.3
58974.4
58972.4
58971.3
58970.7
58970.3
58970.2
58970.1
58970.1
58970
58970
58970
58970
68970
68970
68970
68970
68970
68969.9
68969.8
68969.7
68969.4
68968.9
68967.8
68966
68962.9
68957.9
68949.2
68935.7
68910.6
68875.8
68805.1
68709.6
68585.1
68418.8
68155.8
67852.5
67450.2
67073.8
66614.1
66092.9
65557.8
65083.1
64660.1
64351
64131
64022.4
63982.2
63928.3
63885.9
63861.5
63831.5
63809.4
63791.2
63781.7
63780.1
63776.9
63782.4
63787.1
63801
63805.2
63819
63827.2
63839.6
63847.1
63850.5
63848.2
63838.8
63830.6
63819
63810.5
63801.5
63796.5
63785.7
63766.8
63736.3
63707.4
63699.6
63703.3
63711.3
63673.9
63558.8
63385.4
63117.5
62738.4
62279.4
61779.1
61281.6
60822.3
60379.5
59965
59654.7
59448.8
59271.7
59152.6
59088.6
59040.6
59010.2
58993.7
58984.1
58978.2
58974.4
58972.4
58971.3
58970.7
58970.4
58970.2
58970.1
58970
58970
58970
58970
58970
68970
68970
68970
68970
68970
68969.9
68969.9
68969.7
68969.4
68968.9
68968
68966.5
68963.5
68958.9
68950.1
68937.5
68913.2
68879.8
68816.1
68734
68604.2
68436.3
68195.2
67883.9
67525.2
67075.2
66582.5
66077.1
65530.8
65076.5
64644.9
64353.5
64115.9
64005.5
63938.8
63907.5
63882.9
63857.2
63829
63811.9
63800.1
63789.1
63780.5
63780.9
63779.3
63783.8
63789.5
63803.1
63810.3
63823.2
63830.2
63838.3
63840.3
63838
63833.2
63825.5
63817.9
63810.8
63804.3
63801.7
63792.4
63779.2
63755.1
63726.8
63708.2
63718.7
63712
63675.2
63574.2
63408.2
63148
62765.1
62309.8
61797.7
61292.2
60775.9
60314.2
59935.4
59643.5
59428.4
59268.7
59139.4
59080.9
59035.8
59009
58992.5
58983
58977.4
58973.9
58972.2
58971.1
58970.6
58970.3
58970.2
58970.1
58970
58970
58970
58970
58970
68970
68970
68970
68970
68970
68969.9
68969.9
68969.7
68969.5
68969
68968.2
68966.8
68964.2
68960.2
68951.8
68940.2
68916.6
68885.2
68829
68749.8
68633.1
68459.1
68240.5
67926.4
67565.3
67101.5
66602.9
66065
65533.5
65054.2
64643.3
64338.3
64120.1
63995.4
63926.2
63888.1
63867.6
63848.9
63826.9
63804.2
63797.1
63793
63787.5
63782.8
63783.1
63785.1
63793.6
63801.5
63809.5
63815.7
63822.1
63827
63829.5
63830.1
63826.9
63824.8
63820.3
63815.5
63810.9
63807.4
63803.6
63794
63777.5
63756.6
63739.7
63729.3
63716.6
63676.6
63591
63437.4
63184.8
62816
62355.6
61822.1
61264.6
60746
60280.8
59903.5
59613.2
59397
59246.4
59137.3
59075.3
59031
59006.9
58990.6
58982
58976.5
58973.6
58971.9
58971
58970.5
58970.3
58970.1
58970.1
58970
58970
58970
58970
58970
68970
68970
68970
68970
68970
68969.9
68969.9
68969.7
68969.5
68969
68968.2
68966.8
68964.3
68960.2
68952
68940.4
68917
68885.7
68828.7
68751.7
68630.7
68464
68238.2
67932.5
67564.1
67103.9
66606.2
66062.1
65540.3
65052.6
64649.8
64338.9
64123.3
63996.8
63923.1
63892.1
63866
63848.4
63828.7
63811.8
63800.8
63793.8
63789.4
63783.5
63781.3
63782.6
63788.9
63795.7
63801.5
63806.6
63811.3
63813.7
63816
63816.4
63817.6
63818.2
63818.7
63818.5
63818.2
63818.6
63815.6
63808
63794.9
63777.2
63756.8
63738.4
63719
63675.1
63587.3
63435.6
63182.8
62823
62358.8
61830.9
61271.3
60747.5
60283.3
59903.1
59610.7
59397
59245.4
59142.3
59075.9
59032.3
59007.3
58990.7
58982.1
58976.5
58973.7
58971.9
58971.1
58970.5
58970.3
58970.1
58970.1
58970
58970
58970
58970
58970
)
;

boundaryField
{
    sides1
    {
        type            zeroGradient;
    }
    sides2
    {
        type            slip;
    }
    empty
    {
        type            empty;
    }
}


// ************************************************************************* //
