/*--------------------------------*- C++ -*----------------------------------*\
| =========                 |                                                 |
| \\      /  F ield         | OpenFOAM: The Open Source CFD Toolbox           |
|  \\    /   O peration     | Version:  3.0.1                                 |
|   \\  /    A nd           | Web:      www.OpenFOAM.org                      |
|    \\/     M anipulation  |                                                 |
\*---------------------------------------------------------------------------*/
FoamFile
{
    version     2.0;
    format      ascii;
    class       volScalarField;
    location    "0.00025";
    object      rho;
}
// * * * * * * * * * * * * * * * * * * * * * * * * * * * * * * * * * * * * * //

dimensions      [1 -3 0 0 0 0 0];

internalField   nonuniform List<scalar> 
1000
(
0.83124
0.83124
0.83124
0.83124
0.83124
0.831239
0.831238
0.831237
0.831234
0.831228
0.831219
0.831201
0.831172
0.831122
0.83104
0.830908
0.830673
0.830279
0.829637
0.828781
0.827373
0.825657
0.823066
0.820052
0.816417
0.812564
0.808372
0.80407
0.800067
0.79605
0.793133
0.790634
0.789218
0.788095
0.787268
0.786951
0.786672
0.78639
0.786264
0.786218
0.786194
0.786181
0.786148
0.786164
0.786232
0.786303
0.786318
0.786006
0.784746
0.781559
0.775891
0.76842
0.761073
0.75565
0.752741
0.75164
0.751371
0.751365
0.751488
0.751663
0.751693
0.751611
0.75146
0.751293
0.751168
0.75105
0.750995
0.750628
0.750116
0.749081
0.747469
0.744923
0.741414
0.737119
0.732447
0.72768
0.723573
0.719871
0.717226
0.715004
0.713575
0.712475
0.711732
0.711346
0.711104
0.710957
0.710847
0.71079
0.710756
0.710739
0.710729
0.710724
0.710721
0.71072
0.710719
0.710718
0.710718
0.710718
0.710718
0.710718
0.83124
0.83124
0.83124
0.83124
0.83124
0.831239
0.831238
0.831237
0.831234
0.831229
0.831219
0.831202
0.831174
0.831124
0.831044
0.830913
0.830679
0.830302
0.829642
0.828818
0.827428
0.825741
0.823167
0.820006
0.816481
0.812656
0.808518
0.804086
0.800179
0.796075
0.792782
0.790502
0.788699
0.78771
0.787068
0.786938
0.786613
0.786393
0.786295
0.786217
0.78621
0.786167
0.786141
0.786139
0.786189
0.78622
0.786191
0.785823
0.784472
0.781365
0.775837
0.76861
0.761389
0.755961
0.752946
0.751762
0.751438
0.7514
0.751476
0.751618
0.751635
0.751542
0.7514
0.751229
0.751081
0.75102
0.750881
0.750668
0.750077
0.749164
0.747577
0.745037
0.741462
0.737167
0.732315
0.727666
0.723475
0.719844
0.717144
0.71493
0.713515
0.71245
0.711759
0.711372
0.711099
0.710955
0.710843
0.710788
0.710756
0.710738
0.710729
0.710724
0.710721
0.710719
0.710719
0.710718
0.710718
0.710718
0.710718
0.710718
0.83124
0.83124
0.83124
0.83124
0.83124
0.831239
0.831238
0.831237
0.831234
0.831228
0.831219
0.8312
0.831169
0.831119
0.831044
0.830902
0.830654
0.830279
0.829557
0.828754
0.827498
0.825719
0.82318
0.82002
0.816636
0.812887
0.808503
0.804096
0.800269
0.796003
0.792909
0.790261
0.788814
0.787633
0.787131
0.787
0.786788
0.786493
0.786433
0.786322
0.786251
0.786236
0.786182
0.786147
0.786113
0.786116
0.785936
0.785412
0.783944
0.780793
0.77566
0.76887
0.761985
0.756599
0.753396
0.752007
0.751589
0.751482
0.751485
0.751535
0.751541
0.75143
0.751265
0.751056
0.750868
0.750759
0.750607
0.750358
0.749909
0.748978
0.747787
0.745164
0.741616
0.737026
0.732092
0.727962
0.723676
0.720173
0.717223
0.715055
0.713573
0.712492
0.711858
0.711465
0.711123
0.710954
0.710846
0.710792
0.710759
0.710742
0.71073
0.710724
0.710721
0.71072
0.710719
0.710718
0.710718
0.710718
0.710718
0.710718
0.83124
0.83124
0.83124
0.83124
0.831239
0.831239
0.831238
0.831236
0.831233
0.831228
0.831218
0.831197
0.831162
0.831114
0.831043
0.830896
0.830642
0.830256
0.829453
0.828664
0.827409
0.825654
0.823367
0.820159
0.816649
0.813123
0.808661
0.80438
0.800064
0.795872
0.792683
0.789891
0.788713
0.787771
0.787235
0.787057
0.786857
0.786695
0.786501
0.786382
0.786307
0.78623
0.786176
0.786134
0.786101
0.786025
0.785788
0.785071
0.78342
0.780241
0.775287
0.768907
0.762332
0.757035
0.753753
0.752252
0.751733
0.751546
0.751472
0.751465
0.751419
0.751326
0.751157
0.750972
0.750798
0.750662
0.750456
0.75033
0.749808
0.749173
0.748082
0.745307
0.741735
0.736343
0.732035
0.728042
0.72388
0.7204
0.717442
0.715225
0.713643
0.712549
0.711924
0.71152
0.711146
0.710962
0.710851
0.710801
0.710763
0.710743
0.710732
0.710725
0.710721
0.71072
0.710719
0.710718
0.710718
0.710718
0.710718
0.710718
0.83124
0.83124
0.83124
0.83124
0.83124
0.831239
0.831238
0.831236
0.831233
0.831228
0.831217
0.831197
0.831165
0.831114
0.831033
0.830891
0.830632
0.830223
0.829505
0.828642
0.827283
0.825602
0.823625
0.819937
0.81665
0.813274
0.809038
0.804671
0.800029
0.795847
0.792477
0.789831
0.78854
0.787926
0.787429
0.787134
0.786968
0.786782
0.786537
0.786307
0.786193
0.786172
0.786121
0.786109
0.78609
0.785965
0.785702
0.784882
0.783182
0.780101
0.775205
0.768934
0.762478
0.757245
0.753943
0.7524
0.75185
0.751652
0.751568
0.751512
0.751389
0.751253
0.751072
0.750942
0.750778
0.750619
0.750534
0.750247
0.749879
0.749327
0.747643
0.745109
0.741249
0.736313
0.732256
0.728187
0.723548
0.720438
0.717854
0.715399
0.713674
0.712641
0.711919
0.711478
0.71114
0.710964
0.71086
0.710803
0.710764
0.710743
0.710731
0.710725
0.710721
0.71072
0.710719
0.710718
0.710718
0.710718
0.710718
0.710718
0.83124
0.83124
0.83124
0.83124
0.831239
0.831239
0.831238
0.831236
0.831233
0.831228
0.831217
0.831196
0.831166
0.831114
0.83103
0.830882
0.830628
0.830243
0.829602
0.828671
0.827381
0.82571
0.823321
0.820226
0.816631
0.813333
0.809415
0.804596
0.800014
0.795886
0.792449
0.789933
0.788446
0.787795
0.787519
0.787342
0.787095
0.78681
0.786574
0.786351
0.786176
0.786087
0.786073
0.786074
0.78609
0.786046
0.78574
0.784967
0.783255
0.780087
0.77506
0.76865
0.762175
0.756996
0.753791
0.75232
0.751818
0.751648
0.751591
0.751586
0.751553
0.75135
0.7511
0.750884
0.75079
0.750878
0.750806
0.750534
0.749962
0.749014
0.747232
0.744456
0.741044
0.736571
0.732358
0.728242
0.723997
0.720369
0.717624
0.71539
0.713719
0.712636
0.711932
0.711464
0.711139
0.710974
0.710869
0.710805
0.710765
0.710744
0.710732
0.710725
0.710722
0.71072
0.710719
0.710718
0.710718
0.710718
0.710718
0.710718
0.83124
0.83124
0.83124
0.83124
0.83124
0.831239
0.831238
0.831237
0.831233
0.831228
0.831217
0.831198
0.831168
0.831117
0.831021
0.830886
0.830627
0.830254
0.829633
0.828612
0.827431
0.825885
0.823272
0.820506
0.816728
0.813036
0.809632
0.804687
0.800155
0.795882
0.79259
0.789971
0.788443
0.787543
0.787372
0.787304
0.786961
0.786785
0.78651
0.786237
0.786091
0.786
0.786042
0.786089
0.786156
0.786145
0.785977
0.785289
0.783605
0.78027
0.774987
0.768312
0.761708
0.756593
0.753547
0.752256
0.751839
0.751729
0.751688
0.751754
0.751694
0.751514
0.75119
0.750906
0.75089
0.751071
0.751118
0.750825
0.750084
0.748903
0.746962
0.744274
0.740629
0.736554
0.732372
0.728032
0.724443
0.720337
0.717522
0.715482
0.713692
0.712557
0.711929
0.711446
0.711126
0.710969
0.710863
0.710804
0.710765
0.710743
0.710731
0.710725
0.710722
0.71072
0.710719
0.710718
0.710718
0.710718
0.710718
0.710718
0.83124
0.83124
0.83124
0.83124
0.83124
0.831239
0.831238
0.831237
0.831234
0.831229
0.831219
0.831203
0.831173
0.831124
0.831037
0.830901
0.830665
0.830312
0.829719
0.828869
0.827643
0.825991
0.823677
0.820772
0.817331
0.813225
0.808951
0.804496
0.799777
0.795943
0.792491
0.790077
0.788474
0.78751
0.787252
0.787024
0.786873
0.786684
0.7864
0.786205
0.786084
0.785995
0.786038
0.78617
0.786219
0.786216
0.786078
0.785474
0.783794
0.780406
0.774952
0.768092
0.761349
0.756227
0.753304
0.752077
0.751731
0.751661
0.751683
0.751794
0.751755
0.751625
0.75137
0.751093
0.750966
0.75115
0.75112
0.750852
0.750302
0.749115
0.747424
0.744379
0.741025
0.736657
0.732495
0.727808
0.723659
0.720092
0.717284
0.715287
0.713614
0.712467
0.7119
0.711398
0.711118
0.710949
0.710851
0.710794
0.71076
0.710741
0.71073
0.710724
0.710721
0.71072
0.710719
0.710718
0.710718
0.710718
0.710718
0.710718
0.83124
0.83124
0.83124
0.83124
0.83124
0.831239
0.831238
0.831237
0.831234
0.83123
0.831221
0.831207
0.831181
0.831135
0.831056
0.830929
0.830701
0.83038
0.829826
0.829045
0.827888
0.826227
0.824102
0.821186
0.817772
0.813576
0.809072
0.804359
0.799779
0.795757
0.792428
0.790005
0.788405
0.787461
0.787057
0.786802
0.78672
0.786573
0.786331
0.786055
0.78596
0.785991
0.786096
0.786228
0.7863
0.786305
0.786177
0.785542
0.783832
0.780388
0.774878
0.767977
0.761196
0.756092
0.753176
0.752005
0.751688
0.751635
0.751694
0.751808
0.751856
0.751759
0.75157
0.751344
0.751226
0.751247
0.751173
0.750966
0.750444
0.749438
0.747738
0.744916
0.74136
0.736916
0.732144
0.727537
0.723288
0.719811
0.716999
0.714948
0.713458
0.712411
0.711788
0.711349
0.711096
0.71093
0.710841
0.710786
0.710756
0.710738
0.710729
0.710724
0.710721
0.710719
0.710719
0.710718
0.710718
0.710718
0.710718
0.710718
0.83124
0.83124
0.83124
0.83124
0.83124
0.831239
0.831238
0.831237
0.831234
0.83123
0.831221
0.831207
0.831181
0.831136
0.831057
0.830928
0.830705
0.830377
0.829828
0.82906
0.827883
0.826276
0.824083
0.821246
0.817759
0.813595
0.809084
0.804305
0.799813
0.795744
0.792457
0.790074
0.788414
0.787572
0.787031
0.7869
0.786722
0.786572
0.786349
0.786127
0.785993
0.785978
0.78612
0.786238
0.786287
0.786277
0.78613
0.785467
0.783735
0.780266
0.774765
0.767838
0.761059
0.755949
0.753073
0.751913
0.751642
0.751634
0.751719
0.751889
0.751961
0.751906
0.751753
0.751571
0.751411
0.751328
0.751237
0.750973
0.75044
0.749451
0.747713
0.745039
0.741364
0.737047
0.732226
0.727569
0.723343
0.7198
0.71701
0.714947
0.713468
0.71245
0.71179
0.711355
0.711098
0.710934
0.710842
0.710786
0.710756
0.710738
0.710729
0.710724
0.710721
0.710719
0.710719
0.710718
0.710718
0.710718
0.710718
0.710718
)
;

boundaryField
{
    sides1
    {
        type            calculated;
        value           nonuniform List<scalar> 
20
(
0.710718
0.710718
0.710718
0.710718
0.710718
0.710718
0.710718
0.710718
0.710718
0.710718
0.83124
0.83124
0.83124
0.83124
0.83124
0.83124
0.83124
0.83124
0.83124
0.83124
)
;
    }
    sides2
    {
        type            calculated;
        value           nonuniform List<scalar> 
200
(
0.83124
0.83124
0.83124
0.83124
0.83124
0.831239
0.831238
0.831237
0.831234
0.831228
0.831219
0.831201
0.831172
0.831122
0.83104
0.830908
0.830673
0.830279
0.829637
0.828781
0.827373
0.825657
0.823066
0.820052
0.816417
0.812564
0.808372
0.80407
0.800067
0.79605
0.793133
0.790634
0.789218
0.788095
0.787268
0.786951
0.786672
0.78639
0.786264
0.786218
0.786194
0.786181
0.786148
0.786164
0.786232
0.786303
0.786318
0.786006
0.784746
0.781559
0.775891
0.76842
0.761073
0.75565
0.752741
0.75164
0.751371
0.751365
0.751488
0.751663
0.751693
0.751611
0.75146
0.751293
0.751168
0.75105
0.750995
0.750628
0.750116
0.749081
0.747469
0.744923
0.741414
0.737119
0.732447
0.72768
0.723573
0.719871
0.717226
0.715004
0.713575
0.712475
0.711732
0.711346
0.711104
0.710957
0.710847
0.71079
0.710756
0.710739
0.710729
0.710724
0.710721
0.71072
0.710719
0.710718
0.710718
0.710718
0.710718
0.710718
0.83124
0.83124
0.83124
0.83124
0.83124
0.831239
0.831238
0.831237
0.831234
0.83123
0.831221
0.831207
0.831181
0.831136
0.831057
0.830928
0.830705
0.830377
0.829828
0.82906
0.827883
0.826276
0.824083
0.821246
0.817759
0.813595
0.809084
0.804305
0.799813
0.795744
0.792457
0.790074
0.788414
0.787572
0.787031
0.7869
0.786722
0.786572
0.786349
0.786127
0.785993
0.785978
0.78612
0.786238
0.786287
0.786277
0.78613
0.785467
0.783735
0.780266
0.774765
0.767838
0.761059
0.755949
0.753073
0.751913
0.751642
0.751634
0.751719
0.751889
0.751961
0.751906
0.751753
0.751571
0.751411
0.751328
0.751237
0.750973
0.75044
0.749451
0.747713
0.745039
0.741364
0.737047
0.732226
0.727569
0.723343
0.7198
0.71701
0.714947
0.713468
0.71245
0.71179
0.711355
0.711098
0.710934
0.710842
0.710786
0.710756
0.710738
0.710729
0.710724
0.710721
0.710719
0.710719
0.710718
0.710718
0.710718
0.710718
0.710718
)
;
    }
    empty
    {
        type            empty;
    }
}


// ************************************************************************* //
