/*--------------------------------*- C++ -*----------------------------------*\
| =========                 |                                                 |
| \\      /  F ield         | OpenFOAM: The Open Source CFD Toolbox           |
|  \\    /   O peration     | Version:  3.0.1                                 |
|   \\  /    A nd           | Web:      www.OpenFOAM.org                      |
|    \\/     M anipulation  |                                                 |
\*---------------------------------------------------------------------------*/
FoamFile
{
    version     2.0;
    format      ascii;
    class       volScalarField;
    location    "0.00025";
    object      T;
}
// * * * * * * * * * * * * * * * * * * * * * * * * * * * * * * * * * * * * * //

dimensions      [0 0 0 1 0 0 0];

internalField   nonuniform List<scalar> 
1000
(
289
289
289
289
289
289
289
289
289
288.999
288.999
288.998
288.996
288.993
288.987
288.979
288.964
288.97
288.873
288.848
288.69
288.561
288.315
287.986
287.602
287.123
286.584
285.976
285.378
284.796
284.252
283.757
283.395
283.112
282.954
282.828
282.75
282.699
282.659
282.645
282.657
282.668
282.684
282.702
282.712
282.741
282.774
282.925
283.394
284.543
286.596
289.348
292.114
294.183
295.304
295.712
295.792
295.762
295.668
295.566
295.527
295.54
295.553
295.56
295.522
295.457
295.357
295.265
295.085
294.795
294.329
293.722
292.999
292.252
291.484
290.854
290.307
289.885
289.619
289.338
289.265
289.076
289.09
289.048
289.023
289.012
289.009
289.004
289.003
289.001
289.001
289
289
289
289
289
289
289
289
289
289
289
289
289
289
289
289
289
289
288.999
288.999
288.998
288.996
288.993
288.987
288.979
288.962
288.956
288.884
288.842
288.708
288.568
288.329
287.989
287.625
287.133
286.608
285.967
285.38
284.784
284.255
283.705
283.385
283.076
282.951
282.859
282.755
282.723
282.661
282.661
282.659
282.666
282.672
282.689
282.714
282.745
282.812
282.983
283.496
284.632
286.647
289.316
292.029
294.094
295.244
295.683
295.775
295.754
295.671
295.573
295.529
295.532
295.547
295.549
295.528
295.447
295.383
295.266
295.101
294.798
294.345
293.734
293.023
292.276
291.485
290.849
290.296
289.886
289.596
289.358
289.244
289.12
289.091
289.058
289.017
289.011
289.008
289.005
289.002
289.001
289.001
289
289
289
289
289
289
289
289
289
289
289
289
289
289
289
289
289
289
288.999
288.999
288.998
288.996
288.993
288.987
288.977
288.961
288.939
288.891
288.84
288.707
288.574
288.322
287.995
287.66
287.123
286.606
285.964
285.396
284.77
284.256
283.67
283.386
283.068
282.959
282.835
282.778
282.724
282.682
282.666
282.658
282.645
282.654
282.665
282.698
282.762
282.868
283.133
283.69
284.856
286.749
289.268
291.851
293.897
295.103
295.604
295.724
295.72
295.676
295.598
295.541
295.528
295.529
295.522
295.479
295.433
295.363
295.26
295.053
294.781
294.311
293.81
293.025
292.321
291.465
290.847
290.3
289.898
289.562
289.399
289.232
289.157
289.093
289.068
289.015
289.013
289.007
289.007
289.001
289.001
289.001
289
289
289
289
289
289
289
289
289
289
289
289
289
289
289
289
289
289
288.999
288.999
288.998
288.996
288.993
288.987
288.976
288.956
288.932
288.908
288.845
288.689
288.571
288.335
288.009
287.629
287.119
286.608
285.98
285.435
284.751
284.196
283.681
283.375
283.101
282.963
282.824
282.744
282.71
282.67
282.662
282.642
282.633
282.626
282.644
282.675
282.757
282.907
283.222
283.858
285.037
286.875
289.254
291.737
293.747
294.984
295.525
295.668
295.683
295.662
295.613
295.565
295.54
295.52
295.495
295.463
295.385
295.334
295.205
295.041
294.716
294.31
293.797
293.034
292.311
291.444
290.835
290.335
289.935
289.575
289.426
289.215
289.168
289.094
289.077
289.006
289.01
289.008
289.006
289.002
289.002
289.001
289
289
289
289
289
289
289
289
289
289
289
289
289
289
289
289
289
289
288.999
288.999
288.998
288.996
288.992
288.987
288.978
288.959
288.94
288.889
288.824
288.708
288.569
288.349
288.011
287.605
287.137
286.668
285.993
285.487
284.682
284.183
283.615
283.365
283.118
282.979
282.822
282.732
282.687
282.666
282.641
282.637
282.615
282.611
282.615
282.657
282.727
282.889
283.219
283.892
285.084
286.927
289.287
291.726
293.715
294.949
295.494
295.64
295.657
295.645
295.609
295.577
295.534
295.502
295.474
295.43
295.384
295.317
295.24
295.006
294.715
294.341
293.714
293.011
292.235
291.51
290.863
290.383
289.939
289.613
289.425
289.241
289.168
289.088
289.066
289.017
289.016
289.008
289.006
289.002
289.002
289.001
289
289
289
289
289
289
289
289
289
289
289
289
289
289
289
289
289
289
288.999
288.999
288.998
288.996
288.992
288.987
288.978
288.961
288.943
288.879
288.821
288.71
288.557
288.344
288.005
287.644
287.146
286.627
286.042
285.41
284.724
284.136
283.709
283.353
283.203
282.999
282.834
282.729
282.695
282.657
282.648
282.643
282.627
282.605
282.607
282.617
282.686
282.817
283.147
283.81
285.031
286.934
289.354
291.821
293.787
294.989
295.509
295.636
295.649
295.634
295.596
295.561
295.553
295.497
295.491
295.427
295.407
295.37
295.289
295.02
294.72
294.297
293.658
292.925
292.161
291.528
290.934
290.392
289.952
289.643
289.411
289.245
289.161
289.099
289.06
289.034
289.018
289.009
289.005
289.002
289.002
289.001
289
289
289
289
289
289
289
289
289
289
289
289
289
289
289
289
289
289
288.999
288.999
288.998
288.995
288.992
288.989
288.98
288.964
288.948
288.868
288.822
288.71
288.549
288.352
288.037
287.654
287.347
286.578
286.083
285.374
284.829
284.153
283.732
283.31
283.153
283.037
282.823
282.758
282.714
282.68
282.68
282.652
282.642
282.62
282.589
282.59
282.614
282.736
283.003
283.672
284.921
286.919
289.446
291.971
293.935
295.079
295.548
295.658
295.662
295.636
295.587
295.56
295.543
295.53
295.508
295.477
295.423
295.442
295.384
295.141
294.8
294.317
293.606
292.892
292.147
291.449
290.989
290.301
289.952
289.583
289.407
289.268
289.147
289.088
289.05
289.031
289.014
289.01
289.005
289.003
289.001
289.001
289
289
289
289
289
289
289
289
289
289
289
289
289
289
289
289
289
289
288.999
288.999
288.998
288.996
288.994
288.987
288.981
288.962
288.944
288.884
288.835
288.717
288.586
288.377
288.076
287.761
287.287
286.683
286.083
285.391
284.778
284.122
283.705
283.232
283.09
282.888
282.832
282.777
282.731
282.708
282.703
282.694
282.677
282.624
282.578
282.553
282.574
282.649
282.926
283.565
284.854
286.89
289.489
292.062
294.03
295.148
295.594
295.695
295.689
295.651
295.595
295.567
295.557
295.546
295.524
295.488
295.464
295.445
295.379
295.127
294.823
294.277
293.689
292.878
292.194
291.45
290.856
290.301
289.907
289.625
289.386
289.285
289.119
289.063
289.046
289.029
289.016
289.009
289.005
289.002
289.001
289
289
289
289
289
289
289
289
289
289
289
289
289
289
289
289
289
289
289
288.999
288.999
288.998
288.996
288.995
288.988
288.983
288.963
288.944
288.901
288.84
288.753
288.599
288.42
288.112
287.777
287.275
286.728
286.079
285.402
284.747
284.137
283.664
283.275
283.063
282.902
282.825
282.764
282.734
282.724
282.722
282.725
282.696
282.633
282.565
282.541
282.548
282.631
282.895
283.548
284.827
286.881
289.481
292.072
294.045
295.17
295.619
295.723
295.722
295.677
295.616
295.58
295.573
295.571
295.563
295.531
295.475
295.445
295.341
295.149
294.831
294.325
293.716
292.961
292.207
291.459
290.822
290.29
289.866
289.593
289.37
289.239
289.131
289.08
289.042
289.027
289.014
289.009
289.004
289.003
289.001
289.001
289
289
289
289
289
289
289
289
289
289
289
289
289
289
289
289
289
289
288.999
288.999
288.998
288.996
288.995
288.988
288.984
288.964
288.947
288.899
288.843
288.744
288.603
288.417
288.117
287.776
287.279
286.738
286.086
285.419
284.744
284.155
283.641
283.286
283.03
282.898
282.808
282.756
282.732
282.725
282.73
282.73
282.704
282.633
282.565
282.537
282.547
282.627
282.897
283.547
284.831
286.874
289.473
292.062
294.039
295.167
295.625
295.734
295.736
295.701
295.636
295.594
295.581
295.58
295.569
295.538
295.485
295.431
295.331
295.133
294.818
294.325
293.7
292.975
292.196
291.458
290.816
290.28
289.869
289.576
289.37
289.231
289.139
289.083
289.046
289.028
289.014
289.009
289.004
289.003
289.001
289.001
289
289
289
289
289
289
289
289
289
)
;

boundaryField
{
    sides1
    {
        type            zeroGradient;
    }
    sides2
    {
        type            slip;
    }
    empty
    {
        type            empty;
    }
}


// ************************************************************************* //
