/*--------------------------------*- C++ -*----------------------------------*\
| =========                 |                                                 |
| \\      /  F ield         | OpenFOAM: The Open Source CFD Toolbox           |
|  \\    /   O peration     | Version:  2012                                  |
|   \\  /    A nd           | Website:  www.openfoam.com                      |
|    \\/     M anipulation  |                                                 |
\*---------------------------------------------------------------------------*/
FoamFile
{
    version     2.0;
    format      ascii;
    class       volVectorField;
    location    "1020";
    object      U;
}
// * * * * * * * * * * * * * * * * * * * * * * * * * * * * * * * * * * * * * //

dimensions      [0 1 -1 0 0 0 0];


internalField   nonuniform List<vector> 
20400
(
(3.53035e-06 -3.45473e-06 0)
(5.18402e-06 -1.17133e-06 0)
(-4.66718e-06 3.70725e-06 0)
(-2.50001e-05 6.36602e-06 0)
(-5.82737e-05 7.81528e-06 0)
(-9.85222e-05 7.16085e-06 0)
(-0.000144701 6.40051e-06 0)
(-0.000193572 5.48207e-06 0)
(-0.000243226 4.71489e-06 0)
(-0.000294027 4.2134e-06 0)
(-0.000343558 4.2676e-06 0)
(-0.000393505 4.19629e-06 0)
(-0.000442669 4.02002e-06 0)
(-0.000491651 3.62606e-06 0)
(-0.000540334 3.05888e-06 0)
(-0.000588834 2.27105e-06 0)
(-0.000637192 1.23943e-06 0)
(-0.000685442 2.26975e-08 0)
(-0.000733602 -1.33348e-06 0)
(-0.000781584 -2.50971e-06 0)
(-0.000829287 -3.72038e-06 0)
(-0.000876716 -4.91956e-06 0)
(-0.000923901 -6.0237e-06 0)
(-0.000970829 -6.96014e-06 0)
(-0.00101748 -7.6528e-06 0)
(-0.00106385 -8.04049e-06 0)
(-0.00110992 -8.05007e-06 0)
(-0.0011557 -7.64454e-06 0)
(-0.0012012 -6.76186e-06 0)
(-0.00124646 -5.38362e-06 0)
(-0.0012915 -3.45654e-06 0)
(-0.0013363 -9.18532e-07 0)
(-0.00138063 2.66498e-06 0)
(-0.00142398 7.53793e-06 0)
(-0.0014663 9.99078e-06 0)
(-0.00151 1.28715e-05 0)
(-0.00155289 1.64902e-05 0)
(-0.00159571 2.01303e-05 0)
(-0.00163793 2.3574e-05 0)
(-0.00167976 2.66397e-05 0)
(-0.00172122 2.92238e-05 0)
(-0.00176237 3.12592e-05 0)
(-0.00180325 3.27253e-05 0)
(-0.0018439 3.36391e-05 0)
(-0.00188438 3.40505e-05 0)
(-0.0019247 3.40204e-05 0)
(-0.00196486 3.3608e-05 0)
(-0.00200488 3.28541e-05 0)
(-0.00204473 3.1776e-05 0)
(-0.00208443 3.03621e-05 0)
(-0.00212398 2.85731e-05 0)
(-0.0021634 2.6347e-05 0)
(-0.00220271 2.35839e-05 0)
(-0.0022419 2.02117e-05 0)
(-0.00228115 1.61603e-05 0)
(-0.00232016 1.14512e-05 0)
(-0.00235911 6.90465e-06 0)
(-0.00239726 -5.45235e-07 0)
(-0.00243778 -6.86303e-06 0)
(-0.00247664 -1.29992e-05 0)
(-0.00251687 -1.79203e-05 0)
(-0.00255621 -2.19708e-05 0)
(-0.00259628 -2.4669e-05 0)
(-0.00263585 -2.65185e-05 0)
(-0.00267572 -2.7382e-05 0)
(-0.00271534 -2.7717e-05 0)
(-0.00275506 -2.74227e-05 0)
(-0.00279474 -2.68656e-05 0)
(-0.00283451 -2.59137e-05 0)
(-0.00287434 -2.48155e-05 0)
(-0.00291425 -2.34841e-05 0)
(-0.00295439 -2.20028e-05 0)
(-0.00299448 -2.04045e-05 0)
(-0.00303505 -1.85967e-05 0)
(-0.00307537 -1.67288e-05 0)
(-0.00311642 -1.45848e-05 0)
(-0.00315706 -1.24022e-05 0)
(-0.00319866 -9.86347e-06 0)
(-0.00323967 -7.27656e-06 0)
(-0.00328195 -4.24349e-06 0)
(-0.0033234 -1.05457e-06 0)
(-0.00336621 2.58384e-06 0)
(-0.00340758 7.63505e-06 0)
(-0.00344945 9.92857e-06 0)
(-0.00349184 1.30054e-05 0)
(-0.00353397 1.46902e-05 0)
(-0.00357604 1.59181e-05 0)
(-0.0036188 1.55902e-05 0)
(-0.00366098 1.44974e-05 0)
(-0.0037045 1.25941e-05 0)
(-0.00374688 1.01287e-05 0)
(-0.00379011 7.77652e-06 0)
(-0.00383187 3.11392e-06 0)
(-0.00387568 -7.99248e-07 0)
(-0.00391732 -5.3975e-06 0)
(-0.00396081 -1.02378e-05 0)
(-0.00400215 -1.53486e-05 0)
(-0.00404488 -2.06875e-05 0)
(-0.00408537 -2.56518e-05 0)
(-0.00412695 -3.08481e-05 0)
(-0.0041663 -3.46391e-05 0)
(-0.00420629 -3.81428e-05 0)
(-0.00424391 -3.85367e-05 0)
(-0.00428253 -3.71544e-05 0)
(-0.00431779 -3.09354e-05 0)
(-0.00435514 -1.96807e-05 0)
(-0.00438624 -3.45623e-06 0)
(-0.00441817 2.02537e-05 0)
(-0.00443757 4.1341e-05 0)
(-0.00446627 6.47927e-05 0)
(-0.00447946 8.17674e-05 0)
(-0.00450183 0.000102289 0)
(-0.00450965 0.000114596 0)
(-0.00452369 0.000135015 0)
(-0.00452468 0.000144444 0)
(-0.00453 0.0001655 0)
(-0.00452303 0.000172373 0)
(-0.00451726 0.000193571 0)
(-0.00449996 0.000195507 0)
(-0.00448247 0.000213501 0)
(-0.0044525 0.000207956 0)
(-0.00441882 0.000215358 0)
(-0.00437153 0.000193744 0)
(-0.00432034 0.0001779 0)
(-0.00425131 0.000125438 0)
(-0.00418164 6.41539e-05 0)
(-0.00410285 -2.19558e-05 0)
(-0.004034 -0.000111792 0)
(-0.00396085 -0.000185613 0)
(-0.0038877 -0.000253558 0)
(-0.0038009 -0.000295337 0)
(-0.00370659 -0.000340019 0)
(-0.00360532 -0.000361382 0)
(-0.003493 -0.000389878 0)
(-0.0033801 -0.000396363 0)
(-0.00325551 -0.000405492 0)
(-0.0031343 -0.000389556 0)
(-0.00300381 -0.000362614 0)
(-0.00287122 -0.000304366 0)
(-0.00272969 -0.000208843 0)
(-0.00257689 -9.82874e-05 0)
(-0.00242741 3.62956e-05 0)
(-0.00223309 0.000182136 0)
(-0.00204378 0.000253687 0)
(-0.0018343 0.000312994 0)
(-0.00164091 0.000323526 0)
(-0.00141644 0.000320562 0)
(-0.00121356 0.000270262 0)
(-0.000932933 0.000180268 0)
(-0.000782953 3.87302e-06 0)
(-0.000640472 -4.19761e-05 0)
(-0.00046283 -7.94046e-05 0)
(-0.000272051 -8.96973e-05 0)
(-9.30032e-05 -9.28513e-05 0)
(0.000113018 -8.52352e-05 0)
(0.000288806 -7.52698e-05 0)
(0.000500057 -6.63466e-05 0)
(0.000670464 -5.64638e-05 0)
(0.000876287 -5.03609e-05 0)
(0.00104162 -4.26912e-05 0)
(0.00123895 -3.97678e-05 0)
(0.00139854 -3.36389e-05 0)
(0.00158469 -3.2709e-05 0)
(0.00173799 -2.75994e-05 0)
(0.00191106 -2.77575e-05 0)
(0.00205751 -2.34877e-05 0)
(0.00221635 -2.39948e-05 0)
(0.00235531 -2.05465e-05 0)
(0.00249965 -2.08517e-05 0)
(0.00263023 -1.83499e-05 0)
(0.00275983 -1.83241e-05 0)
(0.00288093 -1.5817e-05 0)
(0.00299711 -1.65457e-05 0)
(0.00310785 -1.4122e-05 0)
(0.00321131 -1.38883e-05 0)
(0.00330952 -1.31013e-05 0)
(0.00340166 -1.22423e-05 0)
(0.00348794 -1.12545e-05 0)
(0.00356859 -1.02773e-05 0)
(0.00364369 -9.36575e-06 0)
(0.00371333 -8.56935e-06 0)
(0.00377763 -7.89145e-06 0)
(0.00383672 -7.27198e-06 0)
(0.00389072 -6.6697e-06 0)
(0.00393989 -6.14371e-06 0)
(0.00398415 -5.51631e-06 0)
(0.00402421 -5.03706e-06 0)
(0.00405941 -4.42703e-06 0)
(0.00409106 -3.99812e-06 0)
(0.00411796 -3.41943e-06 0)
(0.00414182 -3.02562e-06 0)
(0.00416117 -2.41483e-06 0)
(0.00417789 -1.9058e-06 0)
(0.00419064 -1.25123e-06 0)
(0.00420096 -8.28433e-07 0)
(0.00420786 -1.75083e-07 0)
(0.0042124 1.00825e-07 0)
(0.0042144 8.13059e-07 0)
(0.00421378 8.02361e-07 0)
(0.00421083 1.44276e-06 0)
(0.00420579 1.81077e-06 0)
(0.00419874 1.98261e-06 0)
(0.00418977 2.02582e-06 0)
(0.00417902 2.03992e-06 0)
(0.00416664 2.03563e-06 0)
(0.00415279 2.02267e-06 0)
(0.0041376 2.01441e-06 0)
(0.00412116 2.03739e-06 0)
(0.00410365 2.17657e-06 0)
(0.0040852 2.37277e-06 0)
(0.00406593 2.5879e-06 0)
(0.00404592 2.80405e-06 0)
(0.00402525 3.01213e-06 0)
(0.00400405 3.19863e-06 0)
(0.00398214 3.38628e-06 0)
(0.00396034 3.52464e-06 0)
(0.00393727 3.46708e-06 0)
(0.00391525 3.75868e-06 0)
(0.00389128 3.57773e-06 0)
(0.00386925 3.79105e-06 0)
(0.0038448 3.6279e-06 0)
(0.00382286 3.71136e-06 0)
(0.00379822 3.54675e-06 0)
(0.00377641 3.58873e-06 0)
(0.00375192 3.44153e-06 0)
(0.0037303 3.4516e-06 0)
(0.00370623 3.34822e-06 0)
(0.00368483 3.32741e-06 0)
(0.00366146 3.26782e-06 0)
(0.00364029 3.2138e-06 0)
(0.00361782 3.15631e-06 0)
(0.00359691 3.06262e-06 0)
(0.00357555 2.98185e-06 0)
(0.003555 2.92328e-06 0)
(0.00353461 2.70733e-06 0)
(0.00351468 2.64698e-06 0)
(0.00349515 2.39766e-06 0)
(0.00347598 2.35859e-06 0)
(0.00345735 2.10472e-06 0)
(0.00343897 2.0643e-06 0)
(0.00342125 1.73157e-06 0)
(0.00340371 1.69929e-06 0)
(0.00338696 1.35536e-06 0)
(0.00337032 1.3537e-06 0)
(0.00335456 1.02161e-06 0)
(0.00333885 1.06141e-06 0)
(0.00332409 7.44019e-07 0)
(0.00330933 8.28553e-07 0)
(0.00329555 5.17981e-07 0)
(0.00328174 6.49219e-07 0)
(0.00326894 3.29834e-07 0)
(0.00325607 5.077e-07 0)
(0.00324426 1.72328e-07 0)
(0.00323231 3.9164e-07 0)
(0.00322146 3.82119e-08 0)
(0.00321042 2.92959e-07 0)
(0.00320052 -7.74569e-08 0)
(0.00319037 2.06492e-07 0)
(0.00318139 -1.7778e-07 0)
(0.00317212 1.28734e-07 0)
(0.00316404 -2.64783e-07 0)
(0.00315562 5.71836e-08 0)
(0.00314842 -3.3958e-07 0)
(0.00314083 -9.21312e-09 0)
(0.00313447 -4.03534e-07 0)
(0.00312768 -7.14834e-08 0)
(0.00312213 -4.57414e-07 0)
(0.00311613 -1.27125e-07 0)
(0.00311136 -4.97071e-07 0)
(0.00310611 -1.69656e-07 0)
(0.00310208 -5.18512e-07 0)
(0.00309755 -1.92229e-07 0)
(0.00309424 -5.11921e-07 0)
(0.0030904 -1.8352e-07 0)
(0.00308776 -4.62415e-07 0)
(0.00308459 -1.30567e-07 0)
(0.0030826 -3.58619e-07 0)
(0.00308008 -3.31744e-08 0)
(0.00307871 -2.28851e-07 0)
(0.00307681 2.03164e-08 0)
(0.00307597 -1.90273e-07 0)
(0.00307467 -4.13046e-08 0)
(0.00307429 -2.65754e-07 0)
(0.00307359 -1.37669e-07 0)
(0.00307361 -3.58899e-07 0)
(0.00307346 -1.95369e-07 0)
(0.00307398 -4.34339e-07 0)
(0.0030743 -2.62523e-07 0)
(0.00307526 -5.0859e-07 0)
(0.00307603 -3.364e-07 0)
(0.00307741 -5.70376e-07 0)
(0.00307863 -4.54307e-07 0)
(0.00308045 -6.19805e-07 0)
(0.00308214 -5.29904e-07 0)
(0.00308418 -5.97476e-07 0)
(0.00308629 -5.48567e-07 0)
(0.00308861 -5.52165e-07 0)
(0.0030911 -5.21098e-07 0)
(0.00309376 -5.08812e-07 0)
(0.00309656 -4.96901e-07 0)
(0.00309944 -4.87333e-07 0)
(0.00310259 -4.77465e-07 0)
(0.0031056 -4.8138e-07 0)
(0.00310913 -4.46026e-07 0)
(0.00311223 -5.13089e-07 0)
(0.00311614 -4.33904e-07 0)
(0.00311933 -5.06433e-07 0)
(0.00312353 -4.24904e-07 0)
(0.00312683 -4.97096e-07 0)
(0.00313126 -4.09618e-07 0)
(0.0031347 -4.87184e-07 0)
(0.00313931 -3.93373e-07 0)
(0.00314287 -4.73446e-07 0)
(0.00314766 -3.83997e-07 0)
(0.00315133 -4.61048e-07 0)
(0.00315625 -3.79625e-07 0)
(0.00316003 -4.50473e-07 0)
(0.00316505 -3.76311e-07 0)
(0.00316893 -4.41848e-07 0)
(0.00317402 -3.72676e-07 0)
(0.00317799 -4.36519e-07 0)
(0.00318315 -3.7012e-07 0)
(0.00318719 -4.30581e-07 0)
(0.0031924 -3.67328e-07 0)
(0.00319649 -4.22661e-07 0)
(0.00320175 -3.63657e-07 0)
(0.00320588 -4.13235e-07 0)
(0.00321115 -3.59372e-07 0)
(0.00321532 -4.03192e-07 0)
(0.0032206 -3.5456e-07 0)
(0.00322479 -3.93046e-07 0)
(0.00323007 -3.48931e-07 0)
(0.00323428 -3.82793e-07 0)
(0.00323953 -3.42277e-07 0)
(0.00324375 -3.71436e-07 0)
(0.00324897 -3.35526e-07 0)
(0.00325319 -3.59098e-07 0)
(0.00325838 -3.30081e-07 0)
(0.00326259 -3.45509e-07 0)
(0.00326772 -3.26267e-07 0)
(0.00327194 -3.3611e-07 0)
(0.00327699 -3.20035e-07 0)
(0.00328121 -3.26097e-07 0)
(0.00328617 -3.14119e-07 0)
(0.0032904 -3.16671e-07 0)
(0.00329526 -3.08182e-07 0)
(0.00329948 -3.08263e-07 0)
(0.00330424 -3.01638e-07 0)
(0.00330845 -2.99122e-07 0)
(0.0033131 -2.94661e-07 0)
(0.00331731 -2.89678e-07 0)
(0.00332184 -2.87697e-07 0)
(0.00332603 -2.80308e-07 0)
(0.00333045 -2.80672e-07 0)
(0.00333462 -2.7094e-07 0)
(0.00333891 -2.72598e-07 0)
(0.00334306 -2.67157e-07 0)
(0.00334724 -2.64432e-07 0)
(0.00335134 -2.61616e-07 0)
(0.00335543 -2.57832e-07 0)
(0.00335947 -2.55407e-07 0)
(0.00336347 -2.52875e-07 0)
(0.00336743 -2.5127e-07 0)
(0.00337135 -2.49905e-07 0)
(0.00337523 -2.49495e-07 0)
(0.00337907 -2.497e-07 0)
(0.00338287 -2.50877e-07 0)
(0.00338663 -2.52942e-07 0)
(0.00339034 -2.56012e-07 0)
(0.00339401 -2.59969e-07 0)
(0.00339764 -2.6485e-07 0)
(0.00340123 -2.70522e-07 0)
(0.00340477 -2.76986e-07 0)
(0.00340828 -2.84141e-07 0)
(0.00341174 -2.92015e-07 0)
(0.00341515 -3.00795e-07 0)
(0.00341853 -3.10359e-07 0)
(0.00342186 -3.21345e-07 0)
(0.00342515 -3.34303e-07 0)
(0.00342841 -3.48541e-07 0)
(0.00343162 -3.643e-07 0)
(0.00343478 -3.80364e-07 0)
(0.00343791 -3.94543e-07 0)
(0.00344099 -4.04484e-07 0)
(0.00344403 -4.10855e-07 0)
(0.00344703 -4.14593e-07 0)
(0.00345 -4.16484e-07 0)
(0.00345293 -4.17045e-07 0)
(0.00345581 -4.16611e-07 0)
(0.00345866 -4.154e-07 0)
(0.00346148 -4.13582e-07 0)
(0.00346425 -4.11238e-07 0)
(0.00346699 -4.08443e-07 0)
(0.00346969 -4.05281e-07 0)
(0.00347235 -4.01826e-07 0)
(0.00347498 -3.98141e-07 0)
(0.00347757 -3.9428e-07 0)
(0.00348013 -3.90288e-07 0)
(0.00348266 -3.862e-07 0)
(0.00348514 -3.82047e-07 0)
(0.0034876 -3.77855e-07 0)
(0.00349002 -3.73643e-07 0)
(0.00349241 -3.69429e-07 0)
(0.00349476 -3.65225e-07 0)
(0.00349709 -3.61042e-07 0)
(0.00349938 -3.56888e-07 0)
(0.00350164 -3.52767e-07 0)
(0.00350387 -3.48685e-07 0)
(0.00350607 -3.44644e-07 0)
(0.00350824 -3.40646e-07 0)
(0.00351038 -3.36692e-07 0)
(0.00351249 -3.32783e-07 0)
(0.00351457 -3.2892e-07 0)
(0.00351662 -3.25103e-07 0)
(0.00351864 -3.2133e-07 0)
(0.00352064 -3.17601e-07 0)
(0.00352261 -3.13915e-07 0)
(0.00352455 -3.10271e-07 0)
(0.00352646 -3.06666e-07 0)
(0.00352834 -3.03098e-07 0)
(0.0035302 -2.99564e-07 0)
(0.00353204 -2.96063e-07 0)
(0.00353384 -2.9259e-07 0)
(0.00353563 -2.89142e-07 0)
(0.00353738 -2.85716e-07 0)
(0.00353911 -2.82309e-07 0)
(0.00354082 -2.78916e-07 0)
(0.00354249 -2.7553e-07 0)
(0.00354415 -2.72144e-07 0)
(0.00354578 -2.68727e-07 0)
(0.00354738 -2.65326e-07 0)
(0.00354896 -2.6198e-07 0)
(0.00355052 -2.58682e-07 0)
(0.00355205 -2.55421e-07 0)
(0.00355356 -2.52189e-07 0)
(0.00355504 -2.48983e-07 0)
(0.0035565 -2.45802e-07 0)
(0.00355794 -2.42648e-07 0)
(0.00355935 -2.39524e-07 0)
(0.00356074 -2.3643e-07 0)
(0.00356211 -2.33366e-07 0)
(0.00356346 -2.30333e-07 0)
(0.00356478 -2.27333e-07 0)
(0.00356608 -2.24369e-07 0)
(0.00356736 -2.21451e-07 0)
(0.00356861 -2.18586e-07 0)
(0.00356985 -2.15796e-07 0)
(0.00357106 -2.13037e-07 0)
(0.00357226 -2.10284e-07 0)
(0.00357343 -2.0753e-07 0)
(0.00357459 -2.04772e-07 0)
(0.00357572 -2.01995e-07 0)
(0.00357683 -1.99207e-07 0)
(0.00357793 -1.96434e-07 0)
(0.003579 -1.93677e-07 0)
(0.00358005 -1.90962e-07 0)
(0.00358109 -1.88302e-07 0)
(0.00358211 -1.85704e-07 0)
(0.00358311 -1.83163e-07 0)
(0.00358409 -1.80678e-07 0)
(0.00358505 -1.78236e-07 0)
(0.003586 -1.7584e-07 0)
(0.00358693 -1.73476e-07 0)
(0.00358784 -1.71143e-07 0)
(0.00358873 -1.68837e-07 0)
(0.00358961 -1.66553e-07 0)
(0.00359046 -1.64297e-07 0)
(0.00359131 -1.62041e-07 0)
(0.00359213 -1.59816e-07 0)
(0.00359294 -1.57573e-07 0)
(0.00359373 -1.55367e-07 0)
(0.00359451 -1.53136e-07 0)
(0.00359527 -1.5095e-07 0)
(0.00359601 -1.48738e-07 0)
(0.00359673 -1.46577e-07 0)
(0.00359744 -1.44372e-07 0)
(0.00359813 -1.42236e-07 0)
(0.00359881 -1.39797e-07 0)
(0.00359947 -1.38393e-07 0)
(0.00360011 -1.34199e-07 0)
(0.00360074 -1.36893e-07 0)
(0.00360135 -1.27528e-07 0)
(0.00360195 -1.3295e-07 0)
(0.00360251 -1.2063e-07 0)
(0.00360309 -1.27839e-07 0)
(0.00360359 -1.13901e-07 0)
(0.00360416 -1.22419e-07 0)
(0.00360459 -1.06129e-07 0)
(0.00360518 -1.17674e-07 0)
(0.00360551 -9.57708e-08 0)
(0.00360615 -1.13655e-07 0)
(0.00360631 -7.93491e-08 0)
(0.00360706 -1.09456e-07 0)
(0.00360698 -5.47807e-08 0)
(0.003608 -1.12208e-07 0)
(0.00360724 -2.44872e-08 0)
(0.003609 -9.29886e-08 0)
(0.0036069 4.14364e-08 0)
(0.00361009 -1.74039e-07 0)
(0.00360563 -3.22357e-07 0)
(1.08756e-06 -5.27197e-06 0)
(-1.30965e-05 1.24095e-05 0)
(-5.73241e-05 4.04926e-05 0)
(-0.000130464 6.41107e-05 0)
(-0.000228738 8.26405e-05 0)
(-0.000344165 9.25218e-05 0)
(-0.000472189 9.83698e-05 0)
(-0.000607001 0.000100029 0)
(-0.000745628 9.99154e-05 0)
(-0.000886194 9.8468e-05 0)
(-0.00102621 9.67771e-05 0)
(-0.00116688 9.52307e-05 0)
(-0.0013063 9.40664e-05 0)
(-0.00144485 9.34204e-05 0)
(-0.00158225 9.31912e-05 0)
(-0.00171867 9.33487e-05 0)
(-0.00185414 9.38667e-05 0)
(-0.00198865 9.46846e-05 0)
(-0.00212232 9.55335e-05 0)
(-0.00225482 9.60477e-05 0)
(-0.00238591 9.65996e-05 0)
(-0.00251566 9.72361e-05 0)
(-0.0026441 9.77918e-05 0)
(-0.00277125 9.81556e-05 0)
(-0.00289708 9.82396e-05 0)
(-0.00302159 9.79634e-05 0)
(-0.00314479 9.73158e-05 0)
(-0.00326675 9.622e-05 0)
(-0.00338749 9.47188e-05 0)
(-0.00350713 9.27362e-05 0)
(-0.00362565 9.02588e-05 0)
(-0.00374313 8.694e-05 0)
(-0.0038594 8.17628e-05 0)
(-0.00397445 7.39226e-05 0)
(-0.00408931 7.18052e-05 0)
(-0.0042035 6.96055e-05 0)
(-0.00431686 6.47455e-05 0)
(-0.00442971 5.97984e-05 0)
(-0.00454183 5.52282e-05 0)
(-0.00465318 5.11962e-05 0)
(-0.00476368 4.77903e-05 0)
(-0.00487331 4.50703e-05 0)
(-0.00498204 4.30582e-05 0)
(-0.00508988 4.17236e-05 0)
(-0.00519683 4.09796e-05 0)
(-0.00530294 4.07127e-05 0)
(-0.00540827 4.084e-05 0)
(-0.00551288 4.13079e-05 0)
(-0.00561686 4.20994e-05 0)
(-0.00572031 4.32327e-05 0)
(-0.00582332 4.47519e-05 0)
(-0.005926 4.67777e-05 0)
(-0.00602842 4.92586e-05 0)
(-0.00613056 5.26264e-05 0)
(-0.00623252 5.64629e-05 0)
(-0.00633399 6.10612e-05 0)
(-0.00643514 6.43597e-05 0)
(-0.0065352 7.32794e-05 0)
(-0.00663395 8.04481e-05 0)
(-0.00673095 8.61426e-05 0)
(-0.00682706 9.15112e-05 0)
(-0.00692269 9.53556e-05 0)
(-0.00701814 9.824e-05 0)
(-0.00711399 9.98309e-05 0)
(-0.00720976 0.00010063 0)
(-0.00730605 0.000100721 0)
(-0.00740206 0.000100407 0)
(-0.00749856 9.97307e-05 0)
(-0.00759471 9.88631e-05 0)
(-0.00769125 9.77917e-05 0)
(-0.00778746 9.65989e-05 0)
(-0.00788397 9.53036e-05 0)
(-0.00798018 9.38529e-05 0)
(-0.00807667 9.238e-05 0)
(-0.00817285 9.06864e-05 0)
(-0.00826931 8.90022e-05 0)
(-0.00836543 8.70457e-05 0)
(-0.00846188 8.50984e-05 0)
(-0.0085579 8.28516e-05 0)
(-0.00865434 8.05556e-05 0)
(-0.00875018 7.77842e-05 0)
(-0.00884673 7.41542e-05 0)
(-0.00894238 6.83565e-05 0)
(-0.00903997 6.71699e-05 0)
(-0.00913548 6.42639e-05 0)
(-0.00923444 6.20682e-05 0)
(-0.00933012 6.13605e-05 0)
(-0.00942785 6.17336e-05 0)
(-0.00952248 6.32777e-05 0)
(-0.00961773 6.52162e-05 0)
(-0.00971063 6.74398e-05 0)
(-0.00980322 6.83508e-05 0)
(-0.00989361 7.34593e-05 0)
(-0.00998265 7.6326e-05 0)
(-0.01007 8.04765e-05 0)
(-0.0101559 8.39007e-05 0)
(-0.0102384 8.83635e-05 0)
(-0.0103192 9.11625e-05 0)
(-0.0103953 9.54985e-05 0)
(-0.0104693 9.75622e-05 0)
(-0.0105365 0.000100963 0)
(-0.0106006 0.000100384 0)
(-0.0106556 0.000101576 0)
(-0.010707 9.60414e-05 0)
(-0.0107471 9.17664e-05 0)
(-0.0107828 7.64173e-05 0)
(-0.0108084 6.28582e-05 0)
(-0.0108309 2.38586e-05 0)
(-0.0108595 1.17847e-05 0)
(-0.0108767 -2.23752e-05 0)
(-0.0108924 -3.26239e-05 0)
(-0.0108901 -6.24167e-05 0)
(-0.0108827 -7.06452e-05 0)
(-0.0108591 -9.99664e-05 0)
(-0.0108297 -0.000106692 0)
(-0.0107822 -0.000135546 0)
(-0.0107313 -0.000142179 0)
(-0.0106576 -0.00016862 0)
(-0.0105853 -0.000176631 0)
(-0.0104851 -0.000198863 0)
(-0.0103918 -0.000206423 0)
(-0.010266 -0.000220616 0)
(-0.0101523 -0.00022254 0)
(-0.0100016 -0.000212996 0)
(-0.00986474 -0.000203194 0)
(-0.00968298 -0.000155055 0)
(-0.00950431 -0.000108098 0)
(-0.00926104 -3.32009e-05 0)
(-0.00900072 3.92729e-06 0)
(-0.00871436 4.50915e-05 0)
(-0.00841997 4.38685e-05 0)
(-0.00811224 6.3945e-05 0)
(-0.00779052 5.40762e-05 0)
(-0.00745476 6.10427e-05 0)
(-0.00710023 4.96518e-05 0)
(-0.00672908 4.53393e-05 0)
(-0.00632732 3.02136e-05 0)
(-0.00592425 7.18404e-06 0)
(-0.00543216 -3.04081e-05 0)
(-0.00500969 -9.53137e-05 0)
(-0.00450678 -0.000157347 0)
(-0.00407662 -0.000251121 0)
(-0.0037113 -0.000335196 0)
(-0.0033481 -0.000377966 0)
(-0.0029129 -0.00040224 0)
(-0.00251194 -0.000414882 0)
(-0.00205767 -0.00043063 0)
(-0.00165169 -0.000448552 0)
(-0.00122875 -0.000483008 0)
(-0.000740352 -0.000529406 0)
(-0.00014665 -0.00051752 0)
(0.000333545 -0.000514499 0)
(0.00087172 -0.000488652 0)
(0.00133864 -0.000481538 0)
(0.00186223 -0.000459661 0)
(0.00231501 -0.000435042 0)
(0.00281264 -0.0004186 0)
(0.00325385 -0.000399723 0)
(0.00373722 -0.000392282 0)
(0.00416652 -0.000373633 0)
(0.00463188 -0.000367031 0)
(0.00504666 -0.00034772 0)
(0.00548948 -0.000341453 0)
(0.00588761 -0.000322107 0)
(0.00630409 -0.000315459 0)
(0.00668383 -0.000297137 0)
(0.00707106 -0.000289101 0)
(0.00743063 -0.000273318 0)
(0.00778802 -0.000263321 0)
(0.00812422 -0.000248632 0)
(0.00845279 -0.000238547 0)
(0.00876284 -0.000223894 0)
(0.00906269 -0.000214853 0)
(0.00934557 -0.000200621 0)
(0.00961648 -0.000189744 0)
(0.0098721 -0.000178357 0)
(0.0101145 -0.00016715 0)
(0.0103428 -0.000156337 0)
(0.0105573 -0.00014578 0)
(0.0107582 -0.00013544 0)
(0.0109459 -0.000125245 0)
(0.0111206 -0.000115197 0)
(0.0112827 -0.000105427 0)
(0.0114323 -9.59678e-05 0)
(0.01157 -8.68998e-05 0)
(0.0116956 -7.81416e-05 0)
(0.0118103 -6.98457e-05 0)
(0.0119134 -6.18192e-05 0)
(0.0120066 -5.42008e-05 0)
(0.0120886 -4.68329e-05 0)
(0.0121618 -3.98597e-05 0)
(0.0122245 -3.3222e-05 0)
(0.0122792 -2.74122e-05 0)
(0.0123242 -2.14345e-05 0)
(0.0123621 -1.6381e-05 0)
(0.012391 -1.08154e-05 0)
(0.0124136 -6.65431e-06 0)
(0.012428 -1.2832e-06 0)
(0.0124372 1.79335e-06 0)
(0.0124393 6.64283e-06 0)
(0.0124349 1.02338e-05 0)
(0.0124252 1.40063e-05 0)
(0.0124101 1.77038e-05 0)
(0.0123901 2.11169e-05 0)
(0.0123654 2.42282e-05 0)
(0.0123365 2.70643e-05 0)
(0.0123036 2.96573e-05 0)
(0.0122672 3.20158e-05 0)
(0.0122275 3.38909e-05 0)
(0.0121848 3.54396e-05 0)
(0.0121393 3.67882e-05 0)
(0.0120912 3.79741e-05 0)
(0.012041 3.90094e-05 0)
(0.0119887 3.99251e-05 0)
(0.0119345 4.07303e-05 0)
(0.011879 4.14289e-05 0)
(0.0118216 4.17718e-05 0)
(0.0117641 4.26255e-05 0)
(0.011704 4.24541e-05 0)
(0.0116451 4.33473e-05 0)
(0.0115833 4.27529e-05 0)
(0.0115235 4.36293e-05 0)
(0.0114608 4.29555e-05 0)
(0.0114006 4.34985e-05 0)
(0.0113375 4.28135e-05 0)
(0.0112773 4.30275e-05 0)
(0.0112145 4.2353e-05 0)
(0.0111546 4.22252e-05 0)
(0.0110926 4.15801e-05 0)
(0.0110331 4.11923e-05 0)
(0.0109725 4.05723e-05 0)
(0.0109137 4.0028e-05 0)
(0.0108549 3.93323e-05 0)
(0.010797 3.8847e-05 0)
(0.01074 3.80233e-05 0)
(0.0106837 3.7624e-05 0)
(0.0106285 3.6742e-05 0)
(0.0105741 3.62779e-05 0)
(0.0105208 3.53273e-05 0)
(0.0104682 3.49062e-05 0)
(0.0104171 3.39586e-05 0)
(0.0103666 3.3489e-05 0)
(0.0103177 3.24553e-05 0)
(0.0102695 3.19526e-05 0)
(0.010223 3.08466e-05 0)
(0.010177 3.0327e-05 0)
(0.010133 2.91523e-05 0)
(0.0100894 2.86305e-05 0)
(0.0100479 2.73943e-05 0)
(0.0100067 2.68865e-05 0)
(0.0099676 2.55957e-05 0)
(0.00992882 2.51164e-05 0)
(0.00989225 2.37834e-05 0)
(0.00985589 2.33397e-05 0)
(0.0098218 2.19763e-05 0)
(0.00978785 2.15719e-05 0)
(0.00975621 2.01895e-05 0)
(0.00972465 1.98255e-05 0)
(0.00969543 1.84328e-05 0)
(0.00966623 1.81084e-05 0)
(0.00963938 1.67127e-05 0)
(0.0096125 1.64276e-05 0)
(0.00958796 1.50353e-05 0)
(0.00956337 1.47898e-05 0)
(0.00954108 1.34066e-05 0)
(0.0095187 1.32006e-05 0)
(0.00949861 1.18308e-05 0)
(0.00947838 1.16615e-05 0)
(0.00946041 1.03072e-05 0)
(0.00944227 1.01684e-05 0)
(0.00942635 8.83213e-06 0)
(0.00941023 8.71419e-06 0)
(0.00939627 7.39509e-06 0)
(0.0093821 7.28465e-06 0)
(0.00937003 5.97749e-06 0)
(0.00935774 5.85973e-06 0)
(0.00934746 4.56059e-06 0)
(0.00933697 4.4289e-06 0)
(0.00932837 3.16672e-06 0)
(0.00931957 3.16207e-06 0)
(0.00931254 1.98347e-06 0)
(0.00930535 2.12799e-06 0)
(0.00929984 1.01653e-06 0)
(0.00929422 1.17213e-06 0)
(0.00929014 5.11561e-08 0)
(0.00928601 3.30105e-07 0)
(0.00928331 -8.27006e-07 0)
(0.00928059 -5.08271e-07 0)
(0.00927921 -1.68317e-06 0)
(0.00927783 -1.39705e-06 0)
(0.00927754 -2.41685e-06 0)
(0.0092776 -2.27787e-06 0)
(0.00927854 -3.18752e-06 0)
(0.00927973 -3.01497e-06 0)
(0.00928165 -3.73892e-06 0)
(0.00928395 -3.82669e-06 0)
(0.00928685 -4.33168e-06 0)
(0.0092902 -4.68572e-06 0)
(0.00929402 -5.00691e-06 0)
(0.00929827 -5.27885e-06 0)
(0.00930293 -5.56764e-06 0)
(0.00930806 -5.8205e-06 0)
(0.00931338 -6.0809e-06 0)
(0.00931943 -6.25583e-06 0)
(0.00932533 -6.60332e-06 0)
(0.00933228 -6.6527e-06 0)
(0.00933874 -7.01103e-06 0)
(0.00934642 -7.06011e-06 0)
(0.0093534 -7.38564e-06 0)
(0.00936169 -7.42093e-06 0)
(0.00936918 -7.72793e-06 0)
(0.00937803 -7.73085e-06 0)
(0.00938599 -8.04716e-06 0)
(0.00939536 -8.01711e-06 0)
(0.00940374 -8.30646e-06 0)
(0.00941355 -8.25621e-06 0)
(0.00942232 -8.51938e-06 0)
(0.00943249 -8.45642e-06 0)
(0.00944161 -8.69867e-06 0)
(0.00945209 -8.62023e-06 0)
(0.00946151 -8.85241e-06 0)
(0.00947228 -8.75569e-06 0)
(0.00948196 -8.97025e-06 0)
(0.00949297 -8.86831e-06 0)
(0.00950287 -9.05916e-06 0)
(0.00951407 -8.95537e-06 0)
(0.00952416 -9.12007e-06 0)
(0.00953551 -9.01775e-06 0)
(0.00954575 -9.15656e-06 0)
(0.00955721 -9.05621e-06 0)
(0.00956757 -9.17196e-06 0)
(0.00957911 -9.07204e-06 0)
(0.00958956 -9.17051e-06 0)
(0.00960115 -9.06885e-06 0)
(0.00961167 -9.15198e-06 0)
(0.00962328 -9.05045e-06 0)
(0.00963383 -9.11335e-06 0)
(0.00964544 -9.01704e-06 0)
(0.009656 -9.05344e-06 0)
(0.00966758 -8.96678e-06 0)
(0.00967814 -8.98046e-06 0)
(0.00968964 -8.90112e-06 0)
(0.00970021 -8.89949e-06 0)
(0.00971159 -8.81947e-06 0)
(0.00972215 -8.80597e-06 0)
(0.0097334 -8.72506e-06 0)
(0.00974393 -8.70014e-06 0)
(0.00975503 -8.62182e-06 0)
(0.00976552 -8.58467e-06 0)
(0.00977645 -8.50986e-06 0)
(0.00978689 -8.46235e-06 0)
(0.00979764 -8.39017e-06 0)
(0.00980801 -8.33241e-06 0)
(0.00981856 -8.26239e-06 0)
(0.00982886 -8.19544e-06 0)
(0.0098392 -8.12685e-06 0)
(0.0098494 -8.0576e-06 0)
(0.00985955 -7.98386e-06 0)
(0.00986961 -7.91337e-06 0)
(0.0098796 -7.83548e-06 0)
(0.00988949 -7.76018e-06 0)
(0.00989931 -7.68092e-06 0)
(0.00990903 -7.60225e-06 0)
(0.00991866 -7.52101e-06 0)
(0.0099282 -7.43925e-06 0)
(0.00993765 -7.35523e-06 0)
(0.009947 -7.27001e-06 0)
(0.00995625 -7.18299e-06 0)
(0.00996541 -7.09481e-06 0)
(0.00997447 -7.00532e-06 0)
(0.00998344 -6.91487e-06 0)
(0.0099923 -6.82353e-06 0)
(0.0100011 -6.73152e-06 0)
(0.0100097 -6.63881e-06 0)
(0.0100183 -6.54537e-06 0)
(0.0100268 -6.45042e-06 0)
(0.0100351 -6.35529e-06 0)
(0.0100434 -6.25921e-06 0)
(0.0100515 -6.16282e-06 0)
(0.0100596 -6.06659e-06 0)
(0.0100676 -5.96368e-06 0)
(0.0100754 -5.85892e-06 0)
(0.0100832 -5.75933e-06 0)
(0.0100908 -5.66761e-06 0)
(0.0100984 -5.58175e-06 0)
(0.0101059 -5.49978e-06 0)
(0.0101133 -5.42033e-06 0)
(0.0101206 -5.34269e-06 0)
(0.0101277 -5.26654e-06 0)
(0.0101348 -5.19174e-06 0)
(0.0101418 -5.11821e-06 0)
(0.0101488 -5.04591e-06 0)
(0.0101556 -4.97481e-06 0)
(0.0101623 -4.90486e-06 0)
(0.0101689 -4.83603e-06 0)
(0.0101755 -4.7683e-06 0)
(0.010182 -4.70163e-06 0)
(0.0101883 -4.63598e-06 0)
(0.0101946 -4.57131e-06 0)
(0.0102008 -4.50761e-06 0)
(0.010207 -4.44482e-06 0)
(0.010213 -4.38293e-06 0)
(0.0102189 -4.3219e-06 0)
(0.0102248 -4.26173e-06 0)
(0.0102306 -4.20237e-06 0)
(0.0102363 -4.14381e-06 0)
(0.010242 -4.08604e-06 0)
(0.0102475 -4.02902e-06 0)
(0.010253 -3.97275e-06 0)
(0.0102584 -3.91721e-06 0)
(0.0102637 -3.86236e-06 0)
(0.010269 -3.80819e-06 0)
(0.0102742 -3.75469e-06 0)
(0.0102793 -3.70181e-06 0)
(0.0102843 -3.64955e-06 0)
(0.0102893 -3.59788e-06 0)
(0.0102942 -3.54677e-06 0)
(0.010299 -3.4962e-06 0)
(0.0103037 -3.44614e-06 0)
(0.0103084 -3.39657e-06 0)
(0.010313 -3.34747e-06 0)
(0.0103176 -3.29881e-06 0)
(0.0103221 -3.25057e-06 0)
(0.0103265 -3.20273e-06 0)
(0.0103308 -3.15527e-06 0)
(0.0103351 -3.10817e-06 0)
(0.0103393 -3.06142e-06 0)
(0.0103435 -3.01503e-06 0)
(0.0103475 -2.969e-06 0)
(0.0103516 -2.92344e-06 0)
(0.0103555 -2.8782e-06 0)
(0.0103594 -2.83316e-06 0)
(0.0103632 -2.78832e-06 0)
(0.010367 -2.74374e-06 0)
(0.0103707 -2.69945e-06 0)
(0.0103743 -2.65551e-06 0)
(0.0103779 -2.61193e-06 0)
(0.0103814 -2.56875e-06 0)
(0.0103849 -2.52599e-06 0)
(0.0103883 -2.48365e-06 0)
(0.0103916 -2.44175e-06 0)
(0.0103949 -2.4003e-06 0)
(0.0103981 -2.35932e-06 0)
(0.0104013 -2.31882e-06 0)
(0.0104044 -2.27879e-06 0)
(0.0104075 -2.23922e-06 0)
(0.0104105 -2.20001e-06 0)
(0.0104134 -2.16137e-06 0)
(0.0104163 -2.12328e-06 0)
(0.0104191 -2.08565e-06 0)
(0.0104219 -2.04851e-06 0)
(0.0104247 -2.01197e-06 0)
(0.0104274 -1.97581e-06 0)
(0.01043 -1.94003e-06 0)
(0.0104326 -1.90472e-06 0)
(0.0104351 -1.86985e-06 0)
(0.0104376 -1.83543e-06 0)
(0.01044 -1.80139e-06 0)
(0.0104424 -1.76781e-06 0)
(0.0104448 -1.73465e-06 0)
(0.0104471 -1.70192e-06 0)
(0.0104493 -1.66953e-06 0)
(0.0104516 -1.63743e-06 0)
(0.0104537 -1.60552e-06 0)
(0.0104558 -1.57377e-06 0)
(0.0104579 -1.54222e-06 0)
(0.0104599 -1.51082e-06 0)
(0.0104619 -1.47971e-06 0)
(0.0104639 -1.44869e-06 0)
(0.0104658 -1.41799e-06 0)
(0.0104676 -1.38729e-06 0)
(0.0104694 -1.35689e-06 0)
(0.0104712 -1.3264e-06 0)
(0.0104729 -1.29615e-06 0)
(0.0104746 -1.26575e-06 0)
(0.0104763 -1.2355e-06 0)
(0.0104779 -1.20514e-06 0)
(0.0104794 -1.17448e-06 0)
(0.0104809 -1.14513e-06 0)
(0.0104824 -1.11209e-06 0)
(0.0104838 -1.08673e-06 0)
(0.0104852 -1.04763e-06 0)
(0.0104866 -1.02718e-06 0)
(0.0104878 -9.82195e-07 0)
(0.0104891 -9.67367e-07 0)
(0.0104903 -9.16868e-07 0)
(0.0104915 -9.03915e-07 0)
(0.0104925 -8.51955e-07 0)
(0.0104937 -8.41994e-07 0)
(0.0104945 -7.82225e-07 0)
(0.0104957 -7.80319e-07 0)
(0.0104963 -6.93037e-07 0)
(0.0104976 -7.11647e-07 0)
(0.0104978 -5.51874e-07 0)
(0.0104993 -5.57864e-07 0)
(0.0104987 -3.98872e-07 0)
(0.0105009 -3.17131e-07 0)
(0.0104986 -7.86911e-08 0)
(0.0105022 -1.07204e-08 0)
(0.0104969 5.16642e-07 0)
(-4.42836e-06 5.86631e-06 0)
(-4.63336e-05 5.89531e-05 0)
(-0.000133647 0.000123868 0)
(-0.000262813 0.000181851 0)
(-0.000426268 0.000227334 0)
(-0.000614153 0.000256615 0)
(-0.00081911 0.000274995 0)
(-0.00103405 0.000283487 0)
(-0.00125443 0.000286864 0)
(-0.00147719 0.00028664 0)
(-0.00169967 0.000285032 0)
(-0.00192141 0.000282178 0)
(-0.00214097 0.000278951 0)
(-0.00235849 0.000275871 0)
(-0.00257377 0.000272877 0)
(-0.00278673 0.00026981 0)
(-0.00299741 0.000266496 0)
(-0.00320565 0.000263412 0)
(-0.00341102 0.000259759 0)
(-0.00361401 0.000255381 0)
(-0.00381529 0.000250853 0)
(-0.00401453 0.000246369 0)
(-0.00421189 0.000242038 0)
(-0.00440717 0.000237886 0)
(-0.00460036 0.000234058 0)
(-0.00479143 0.000230585 0)
(-0.00498034 0.000227768 0)
(-0.00516717 0.00022549 0)
(-0.00535183 0.000224088 0)
(-0.00553446 0.000223316 0)
(-0.00571495 0.000223398 0)
(-0.00589345 0.000223929 0)
(-0.0060701 0.000224943 0)
(-0.00624557 0.000228571 0)
(-0.00641941 0.000231193 0)
(-0.00658939 0.000233663 0)
(-0.00675663 0.000237068 0)
(-0.00692209 0.000240181 0)
(-0.00708555 0.000242853 0)
(-0.00724702 0.000244956 0)
(-0.00740656 0.000246408 0)
(-0.0075643 0.000247126 0)
(-0.00772045 0.000247121 0)
(-0.0078752 0.000246431 0)
(-0.00802871 0.000245175 0)
(-0.00818108 0.000243454 0)
(-0.00833226 0.000241393 0)
(-0.00848223 0.00023908 0)
(-0.00863095 0.000236574 0)
(-0.0087784 0.000233891 0)
(-0.00892455 0.00023101 0)
(-0.00906939 0.000227881 0)
(-0.00921297 0.000224159 0)
(-0.009355 0.000220112 0)
(-0.0094962 0.000214732 0)
(-0.00963581 0.000208835 0)
(-0.00977617 0.000201644 0)