/*--------------------------------*- C++ -*----------------------------------*\
| =========                 |                                                 |
| \\      /  F ield         | OpenFOAM: The Open Source CFD Toolbox           |
|  \\    /   O peration     | Version:  3.0.1                                 |
|   \\  /    A nd           | Web:      www.OpenFOAM.org                      |
|    \\/     M anipulation  |                                                 |
\*---------------------------------------------------------------------------*/
FoamFile
{
    version     2.0;
    format      ascii;
    class       volVectorField;
    location    "0.0002";
    object      U;
}
// * * * * * * * * * * * * * * * * * * * * * * * * * * * * * * * * * * * * * //

dimensions      [0 1 -1 0 0 0 0];

internalField   nonuniform List<vector> 
1000
(
(-4.97131e-14 -7.89822e-14 0)
(1.04765e-13 -1.49296e-13 0)
(-6.37891e-13 -2.23068e-13 0)
(-7.02686e-13 -1.16599e-13 0)
(-3.94948e-13 -2.4573e-13 0)
(2.06352e-13 -7.39818e-13 0)
(-3.06633e-13 -1.18521e-12 0)
(-8.3961e-13 -1.0691e-12 0)
(-3.14506e-13 -9.8882e-13 0)
(-2.46917e-13 -8.36369e-13 0)
(-4.07305e-13 -7.08752e-13 0)
(-6.68075e-13 -6.73126e-13 0)
(-9.88357e-13 -5.28066e-13 0)
(-4.21179e-13 -4.59034e-13 0)
(4.36576e-13 -5.3831e-13 0)
(-4.79214e-13 -8.14885e-13 0)
(2.87942e-16 -9.30671e-13 0)
(2.18965e-15 -1.03176e-12 0)
(-5.35844e-13 -1.20786e-12 0)
(-8.88635e-13 -8.34236e-13 0)
(-3.9008e-13 -5.7463e-13 0)
(2.66603e-12 -3.84488e-13 0)
(1.669e-09 1.66609e-13 0)
(1.14689e-06 6.00427e-11 0)
(0.000650136 2.44918e-08 0)
(0.0842366 2.98679e-06 0)
(1.59383 6.78828e-05 0)
(6.26969 0.000695889 0)
(11.0246 0.00267965 0)
(14.4062 0.00517525 0)
(16.5726 0.00732548 0)
(17.8447 0.00844054 0)
(18.5152 0.00846079 0)
(18.8266 0.00768029 0)
(18.9509 0.00637109 0)
(18.9987 0.00548013 0)
(19.004 0.00355096 0)
(19.0085 0.00378427 0)
(19.0077 0.00106835 0)
(19.0066 0.00057062 0)
(19.0033 -0.00108377 0)
(19.0014 -0.00247395 0)
(19.0029 -0.00315726 0)
(19.0061 -0.00378646 0)
(19.0081 -0.00397131 0)
(19.009 -0.00360741 0)
(19.0095 -0.00343687 0)
(19.0102 -0.00328942 0)
(19.0122 -0.00329132 0)
(19.0139 -0.00337547 0)
(19.0154 -0.00340782 0)
(19.0176 -0.00334952 0)
(19.0195 -0.00321051 0)
(19.0203 -0.00293373 0)
(19.0207 -0.0026407 0)
(19.0204 -0.00228884 0)
(19.0196 -0.00190763 0)
(19.0188 -0.00141894 0)
(19.0182 -0.000927233 0)
(19.0175 -0.000691887 0)
(19.0151 -0.000481529 0)
(19.013 -0.000292834 0)
(19.0138 -0.000228225 0)
(19.0141 -0.000191645 0)
(19.0112 -0.00043295 0)
(19.0052 -0.000388775 0)
(19.0019 -0.000719883 0)
(18.9732 -0.000916701 0)
(18.8862 -0.00117219 0)
(18.6378 -0.00120233 0)
(18.0078 -0.000850004 0)
(16.5708 -0.000262339 0)
(13.6164 0.000323518 0)
(8.39569 0.000529173 0)
(2.29269 0.000212933 0)
(0.121777 1.23427e-05 0)
(0.000867235 9.56332e-08 0)
(1.35036e-06 2.82501e-10 0)
(1.80949e-09 9.31218e-13 0)
(2.75306e-12 3.57692e-14 0)
(1.6199e-13 -9.01571e-15 0)
(1.85668e-13 1.48646e-13 0)
(4.3813e-13 9.76495e-14 0)
(4.60042e-13 2.24053e-14 0)
(1.99647e-13 7.59059e-14 0)
(2.17367e-13 2.40182e-13 0)
(1.45736e-13 2.14388e-14 0)
(-4.1569e-16 4.3229e-14 0)
(-7.91001e-14 -1.40653e-14 0)
(3.10127e-14 -1.24224e-13 0)
(-3.04408e-13 -7.45488e-14 0)
(2.70151e-13 -3.20452e-13 0)
(2.52557e-13 -4.30231e-13 0)
(-6.97529e-14 -5.48922e-13 0)
(4.40405e-13 -3.02669e-13 0)
(9.75653e-14 -7.11539e-13 0)
(6.02684e-13 -7.54102e-13 0)
(1.40153e-13 -1.28906e-12 0)
(5.53382e-13 -1.51389e-12 0)
(9.2218e-13 -1.59626e-12 0)
(-1.29308e-13 1.72171e-13 0)
(-2.80433e-13 -2.90618e-14 0)
(-5.72791e-13 -1.09083e-13 0)
(-6.64505e-13 3.27913e-14 0)
(-7.96574e-13 2.63422e-13 0)
(-1.17592e-12 -3.4636e-14 0)
(-1.32834e-12 2.56645e-14 0)
(-7.89689e-13 -3.43939e-13 0)
(-3.17198e-13 -3.58367e-13 0)
(-3.23532e-13 -2.60316e-13 0)
(-3.03769e-13 -2.35289e-13 0)
(-3.7257e-13 -1.85407e-13 0)
(-5.85629e-13 -1.8199e-14 0)
(-4.57334e-13 3.15322e-13 0)
(-1.97502e-13 2.32194e-13 0)
(-4.35413e-13 -7.6513e-14 0)
(7.22867e-15 -4.05026e-13 0)
(-4.0745e-13 -6.37465e-13 0)
(-3.76897e-13 -7.48668e-13 0)
(-3.29066e-13 -4.3458e-13 0)
(-4.39058e-13 2.291e-14 0)
(2.63238e-12 -1.82694e-14 0)
(1.67468e-09 3.18934e-12 0)
(1.15072e-06 1.68448e-09 0)
(0.00065208 6.26027e-07 0)
(0.0843821 7.42382e-05 0)
(1.5947 0.00150178 0)
(6.26898 0.00622307 0)
(11.0213 0.0111424 0)
(14.4006 0.0143381 0)
(16.566 0.0141153 0)
(17.8386 0.0120947 0)
(18.5106 0.00915765 0)
(18.8236 0.00614339 0)
(18.9494 0.00339892 0)
(18.9984 0.00230548 0)
(19.0054 -0.00133438 0)
(19.0107 -0.000623718 0)
(19.0115 -0.00315379 0)
(19.0107 -0.00295104 0)
(19.0078 -0.00442157 0)
(19.0059 -0.00536923 0)
(19.0069 -0.00585537 0)
(19.0095 -0.00616217 0)
(19.011 -0.00600472 0)
(19.0115 -0.00526575 0)
(19.0117 -0.00493624 0)
(19.0122 -0.00439051 0)
(19.0142 -0.00428193 0)
(19.0157 -0.00437248 0)
(19.0171 -0.0045502 0)
(19.0192 -0.00461537 0)
(19.021 -0.00454109 0)
(19.022 -0.00460848 0)
(19.0225 -0.00441953 0)
(19.0222 -0.0041524 0)
(19.0216 -0.00384685 0)
(19.0212 -0.00333582 0)
(19.0209 -0.00209813 0)
(19.0202 -0.00162049 0)
(19.0176 -0.000904184 0)
(19.0153 -0.000129175 0)
(19.0159 0.000567913 0)
(19.0159 0.000896196 0)
(19.0125 0.00104959 0)
(19.0058 0.00130225 0)
(19.0016 0.000693025 0)
(18.972 0.000413724 0)
(18.8839 -0.000153311 0)
(18.6341 -0.000702433 0)
(18.0025 -0.00124411 0)
(16.5639 -0.00181093 0)
(13.6084 -0.0019669 0)
(8.38756 -0.00140963 0)
(2.28842 -0.000430108 0)
(0.121431 -2.42555e-05 0)
(0.00086436 -2.0511e-07 0)
(1.34551e-06 -5.50686e-10 0)
(1.8015e-09 -9.12535e-13 0)
(2.60971e-12 -9.03432e-14 0)
(2.78909e-13 1.75652e-13 0)
(2.29215e-13 4.4949e-14 0)
(2.17716e-13 4.24479e-14 0)
(3.06498e-13 -2.11562e-13 0)
(2.82606e-13 -4.55954e-13 0)
(-6.52748e-14 -3.82182e-13 0)
(1.71717e-13 -1.99569e-13 0)
(2.36614e-13 -4.35731e-14 0)
(-2.55265e-13 -4.22907e-14 0)
(-8.64591e-14 2.0685e-13 0)
(-3.98302e-13 1.58161e-13 0)
(-3.6293e-13 2.80647e-13 0)
(-1.16778e-13 1.67712e-13 0)
(2.19863e-13 2.63431e-13 0)
(4.65896e-13 1.02507e-13 0)
(-5.12989e-14 -1.87909e-13 0)
(4.9719e-13 -4.89877e-13 0)
(8.13994e-14 -7.12299e-13 0)
(4.34498e-13 -7.67772e-13 0)
(8.81535e-13 -6.40297e-13 0)
(-1.4341e-13 -6.38943e-13 0)
(-2.63601e-13 -6.12727e-13 0)
(-4.00503e-13 -6.71515e-13 0)
(-6.66111e-14 -7.52518e-13 0)
(-4.46455e-13 -6.01211e-13 0)
(-4.97649e-13 -5.02331e-13 0)
(-7.61296e-13 -1.23505e-13 0)
(-1.03832e-12 4.49817e-14 0)
(-4.67544e-13 1.28919e-13 0)
(-7.20564e-13 1.59142e-13 0)
(-8.46831e-13 -9.33605e-14 0)
(-6.88523e-13 -3.10092e-13 0)
(-8.23239e-13 -6.30319e-13 0)
(-3.12884e-13 -7.77248e-13 0)
(-2.26548e-13 -8.65679e-13 0)
(-7.2287e-13 -7.00989e-13 0)
(-5.07887e-13 -7.77152e-13 0)
(-3.12726e-13 -8.46025e-13 0)
(1.26257e-13 -6.75234e-13 0)
(4.66674e-13 -5.21425e-13 0)
(1.92781e-13 -2.35653e-13 0)
(1.65109e-12 6.17633e-13 0)
(1.70551e-09 9.29922e-12 0)
(1.17449e-06 5.71416e-09 0)
(0.000663933 2.03152e-06 0)
(0.0854357 0.000232502 0)
(1.60571 0.00431196 0)
(6.29165 0.0159754 0)
(11.0414 0.0251882 0)
(14.4127 0.0267571 0)
(16.5728 0.0232921 0)
(17.8432 0.0176994 0)
(18.5148 0.0118243 0)
(18.8286 0.00670877 0)
(18.9561 0.00282991 0)
(19.0066 0.00158972 0)
(19.0159 -0.00108087 0)
(19.0209 0.000508982 0)
(19.0225 -0.00131114 0)
(19.0215 -0.00111698 0)
(19.0181 -0.00318476 0)
(19.0156 -0.00465244 0)
(19.0155 -0.00586024 0)
(19.017 -0.00670198 0)
(19.0176 -0.00709029 0)
(19.0172 -0.00699765 0)
(19.0168 -0.00688546 0)
(19.017 -0.00656331 0)
(19.0185 -0.00644889 0)
(19.0197 -0.00648705 0)
(19.0209 -0.00654278 0)
(19.0228 -0.00644314 0)
(19.0244 -0.00606816 0)
(19.0254 -0.00587688 0)
(19.0258 -0.00545158 0)
(19.0257 -0.00500768 0)
(19.0252 -0.00448992 0)
(19.0252 -0.00353527 0)
(19.0253 -0.00293405 0)
(19.0249 -0.00218321 0)
(19.0223 -0.00142029 0)
(19.0201 -0.000459022 0)
(19.0208 0.000439742 0)
(19.0211 0.000923023 0)
(19.0179 0.00195668 0)
(19.0115 0.00256997 0)
(19.0074 0.00343948 0)
(18.9782 0.00386342 0)
(18.8907 0.00414364 0)
(18.641 0.00370939 0)
(18.0092 0.00125049 0)
(16.5723 -0.00473899 0)
(13.6213 -0.00933167 0)
(8.40601 -0.00900127 0)
(2.30109 -0.00323221 0)
(0.122681 -0.000196114 0)
(0.000876914 -1.66068e-06 0)
(1.3681e-06 -4.49713e-09 0)
(1.83218e-09 -9.54697e-12 0)
(4.28012e-12 -7.91717e-13 0)
(1.01181e-14 -2.47156e-13 0)
(2.71233e-14 -4.58596e-13 0)
(1.97641e-14 -3.98462e-13 0)
(-4.01004e-13 -4.42384e-13 0)
(7.88922e-14 -6.77899e-13 0)
(6.4089e-13 -5.67873e-13 0)
(5.76689e-13 -6.07159e-13 0)
(1.64264e-13 -5.6021e-13 0)
(1.16168e-13 -6.13886e-13 0)
(3.55818e-13 -4.80373e-13 0)
(2.90332e-14 -3.90198e-13 0)
(4.28224e-13 -4.88742e-14 0)
(4.65616e-13 3.59987e-14 0)
(-4.18681e-14 8.15214e-14 0)
(-2.76031e-13 -2.91122e-13 0)
(-5.52629e-13 -1.99195e-13 0)
(-3.46484e-14 -3.92611e-14 0)
(3.02986e-13 -3.78618e-13 0)
(5.77138e-13 -6.91776e-13 0)
(1.01108e-12 -7.21147e-13 0)
(2.57507e-13 -1.03898e-12 0)
(-2.96679e-13 -8.77184e-13 0)
(-6.85245e-13 -8.38559e-13 0)
(-5.06315e-13 -7.83712e-13 0)
(-4.06094e-13 -9.89194e-13 0)
(-1.20739e-13 -7.95306e-13 0)
(-2.39295e-13 -8.13961e-13 0)
(-6.44661e-13 -6.34183e-13 0)
(-5.25578e-13 -6.93109e-13 0)
(-8.16084e-13 -1.08547e-12 0)
(-1.01544e-12 -1.25552e-12 0)
(-1.18455e-12 -1.33745e-12 0)
(-1.20903e-12 -1.27864e-12 0)
(-8.58488e-13 -1.19528e-12 0)
(4.02049e-15 -1.28167e-12 0)
(-1.97957e-14 -1.11753e-12 0)
(-2.50965e-13 -9.9922e-13 0)
(-9.08375e-14 -9.84616e-13 0)
(4.06993e-13 -9.65951e-13 0)
(7.33848e-13 -1.0806e-12 0)
(9.15021e-13 -1.02154e-12 0)
(3.63391e-12 -6.09447e-13 0)
(1.75044e-09 1.04007e-11 0)
(1.21282e-06 5.97695e-09 0)
(0.000682907 2.10377e-06 0)
(0.087095 0.000232431 0)
(1.62219 0.00403415 0)
(6.31822 0.0138176 0)
(11.0603 0.0208103 0)
(14.4238 0.0224105 0)
(16.5799 0.020969 0)
(17.8487 0.0164329 0)
(18.5212 0.0118573 0)
(18.8368 0.00789097 0)
(18.9666 0.00466313 0)
(19.0188 0.00340783 0)
(19.0295 0.000179457 0)
(19.0344 0.000951259 0)
(19.0363 -0.00136452 0)
(19.0347 -0.001307 0)
(19.0311 -0.00354994 0)
(19.0275 -0.0043217 0)
(19.026 -0.00519192 0)
(19.0263 -0.00604345 0)
(19.0254 -0.00665331 0)
(19.0238 -0.00714366 0)
(19.0227 -0.00747 0)
(19.0222 -0.00758099 0)
(19.0229 -0.00763676 0)
(19.0234 -0.00775019 0)
(19.024 -0.00812215 0)
(19.0253 -0.00808311 0)
(19.0266 -0.0077378 0)
(19.0273 -0.00746772 0)
(19.0277 -0.00688368 0)
(19.0276 -0.0062977 0)
(19.0272 -0.00572938 0)
(19.0274 -0.00484955 0)
(19.0277 -0.00430881 0)
(19.0275 -0.00364886 0)
(19.0251 -0.00304349 0)
(19.0229 -0.00224168 0)
(19.0239 -0.00144364 0)
(19.0246 -0.00105504 0)
(19.0218 7.16381e-05 0)
(19.0159 0.000409728 0)
(19.0124 0.00155087 0)
(18.9846 0.00259611 0)
(18.8986 0.00419009 0)
(18.65 0.00550342 0)
(18.0187 0.00148097 0)
(16.5805 -0.00101445 0)
(13.632 -0.00384382 0)
(8.4219 -0.00413289 0)
(2.31259 -0.00150037 0)
(0.123868 -9.18217e-05 0)
(0.000889295 -7.81791e-07 0)
(1.39031e-06 -2.09165e-09 0)
(1.86152e-09 -5.39445e-12 0)
(5.72126e-12 -5.87049e-13 0)
(-4.02614e-13 -5.01047e-13 0)
(-4.233e-14 -4.22305e-13 0)
(1.76183e-13 -4.15838e-13 0)
(-3.88334e-13 -3.13352e-13 0)
(3.51092e-14 -3.23292e-13 0)
(4.47717e-14 -2.27499e-13 0)
(1.26896e-13 -5.29675e-13 0)
(5.06664e-13 -3.18497e-13 0)
(-2.26794e-13 -6.71246e-13 0)
(2.84071e-13 -7.2738e-13 0)
(5.49443e-13 -5.62455e-13 0)
(4.866e-13 -6.38034e-13 0)
(2.92489e-13 -6.87058e-13 0)
(-1.03735e-13 -7.48315e-13 0)
(-1.70795e-13 -5.72298e-13 0)
(1.68935e-13 -5.82787e-13 0)
(9.19352e-15 -4.23036e-13 0)
(-6.75479e-13 -6.33645e-13 0)
(2.67049e-13 -9.13015e-13 0)
(5.19441e-13 -1.04705e-12 0)
(6.79901e-13 -7.42777e-13 0)
(3.602e-13 -6.49714e-13 0)
(-2.64128e-13 -4.72449e-13 0)
(-4.37507e-13 -4.26417e-13 0)
(-4.46011e-13 -3.86117e-13 0)
(-5.84608e-14 -3.21125e-13 0)
(-6.33247e-13 -3.77707e-13 0)
(-9.29609e-13 -3.02667e-13 0)
(-8.7775e-13 -5.61146e-13 0)
(-1.57486e-12 -4.00858e-13 0)
(-1.14214e-12 -6.01453e-13 0)
(-7.4323e-13 -6.3785e-13 0)
(-6.99934e-13 -6.37855e-13 0)
(-2.05037e-13 -7.11045e-13 2.10286e-33)
(3.15918e-13 -6.70959e-13 0)
(-1.32874e-13 -6.72209e-13 0)
(-3.80148e-13 -6.02722e-13 0)
(-5.67975e-13 -5.84646e-13 0)
(-4.07606e-13 -7.23688e-13 0)
(2.68986e-13 -9.93339e-13 0)
(1.12535e-12 -7.4038e-13 0)
(4.76869e-12 -7.48979e-13 0)
(1.78785e-09 5.50968e-12 0)
(1.23942e-06 2.19723e-09 0)
(0.000695916 7.8306e-07 0)
(0.0882018 8.84116e-05 0)
(1.63262 0.00161713 0)
(6.33321 0.00606681 0)
(11.0695 0.0105346 0)
(14.4273 0.0138799 0)
(16.5794 0.0135333 0)
(17.8483 0.0129104 2.08492e-33)
(18.5221 0.00949278 0)
(18.8391 0.00690078 0)
(18.9702 0.00510404 0)
(19.0234 0.00469098 0)
(19.0354 0.0032957 -2.08484e-33)
(19.0407 0.00384142 0)
(19.0433 0.00228737 0)
(19.0414 0.00231501 2.07619e-33)
(19.0381 0.000328516 0)
(19.0349 -0.000691083 0)
(19.0331 -0.00282002 0)
(19.0321 -0.00339821 -2.08417e-33)
(19.0303 -0.0046267 0)
(19.0278 -0.00592019 0)
(19.026 -0.00745124 0)
(19.0249 -0.00854711 0)
(19.025 -0.00916988 0)
(19.0249 -0.00940071 0)
(19.0249 -0.00934239 0)
(19.0257 -0.00909965 0)
(19.0267 -0.00850947 0)
(19.0271 -0.00784251 0)
(19.0275 -0.00735464 0)
(19.0273 -0.00684815 -1.08248e-33)
(19.0265 -0.00632074 1.08355e-33)
(19.0266 -0.00553366 0)
(19.0268 -0.00515301 0)
(19.0264 -0.00468118 -1.08493e-33)
(19.0238 -0.00435683 0)
(19.0214 -0.00396108 0)
(19.0221 -0.00361311 0)
(19.0223 -0.00350637 0)
(19.0192 -0.00266099 0)
(19.0135 -0.00277571 0)
(19.0109 -0.000142878 0)
(18.9843 0.00200003 0)
(18.8987 0.00607522 0)
(18.65 0.0115602 0)
(18.0199 0.0155887 0)
(16.5834 0.00619393 1.08514e-33)
(13.6356 0.00149888 0)
(8.42662 0.000230473 0)
(2.31592 -1.25612e-05 0)
(0.124215 -2.45634e-06 0)
(0.000892957 -2.4725e-08 0)
(1.39697e-06 -7.62521e-11 0)
(1.87236e-09 -2.9682e-13 0)
(5.30197e-12 1.51399e-13 0)
(-1.36805e-13 -7.10243e-13 0)
(3.70188e-13 1.0077e-13 0)
(2.73971e-13 -4.12842e-14 0)
(-2.21181e-13 -2.55685e-13 0)
(1.83077e-13 -2.66087e-13 0)
(3.25019e-13 -3.48036e-13 0)
(1.18852e-13 -1.5169e-13 0)
(3.18755e-14 -1.80431e-13 0)
(-2.22238e-13 7.5722e-14 0)
(6.1966e-13 9.88649e-14 0)
(1.2479e-13 1.54845e-13 0)
(1.13535e-13 -2.83056e-13 -1.05703e-33)
(3.37052e-13 -2.03678e-13 0)
(2.94749e-13 -1.11152e-13 -1.05703e-33)
(1.7832e-13 -1.12216e-13 0)
(-4.04696e-13 -1.96828e-13 0)
(-2.81713e-13 -7.10466e-13 0)
(-4.91802e-13 -4.56368e-13 0)
(-1.18332e-13 -3.97087e-13 0)
(1.06568e-13 -7.29437e-13 0)
(4.55602e-13 -4.0195e-13 0)
(2.18697e-13 -5.48961e-13 0)
(-3.46454e-13 -5.22788e-13 0)
(-3.91046e-13 -4.01682e-13 0)
(-1.53655e-13 -3.35475e-13 0)
(-6.63257e-14 -3.93348e-13 0)
(-4.64426e-13 -4.29901e-13 0)
(-8.48305e-13 -1.99982e-13 0)
(-7.26728e-13 -1.00338e-13 0)
(-1.03532e-12 2.61016e-13 0)
(-1.26022e-12 4.27753e-13 0)
(-1.01119e-12 4.95134e-13 0)
(-1.09841e-12 5.38305e-13 0)
(-8.8722e-13 5.51467e-13 -2.11507e-33)
(-3.87649e-13 2.47157e-13 0)
(-1.97794e-13 3.01439e-13 0)
(-3.96864e-13 2.27621e-13 0)
(-4.97757e-13 2.56675e-13 0)
(-6.28255e-13 2.82161e-13 0)
(1.82865e-13 1.45176e-13 0)
(1.60191e-12 -1.09132e-13 0)
(5.17959e-12 -4.26533e-13 0)
(1.80034e-09 -3.74472e-13 0)
(1.24566e-06 -2.10334e-10 0)
(0.000699015 -7.30264e-08 0)
(0.0884678 -8.36133e-06 0)
(1.63521 -0.000156256 0)
(6.33711 -0.000573226 0)
(11.0709 -0.00091264 0)
(14.4269 -0.000879888 0)
(16.5789 0.00107902 0)
(17.8471 0.00160082 -2.08711e-33)
(18.5208 0.00315647 0)
(18.8391 0.00386184 0)
(18.9708 0.00450582 0)
(19.0237 0.00449588 0)
(19.0359 0.00513211 2.08447e-33)
(19.041 0.00565371 0)
(19.0437 0.00708553 0)
(19.0421 0.00742462 -2.07577e-33)
(19.0383 0.00760976 0)
(19.0342 0.00677375 0)
(19.033 0.00579091 0)
(19.0339 0.00401776 2.06576e-33)
(19.0325 0.00190714 0)
(19.0292 -0.000530157 0)
(19.0263 -0.00255637 0)
(19.0251 -0.00492772 0)
(19.0253 -0.00598258 0)
(19.0252 -0.0068975 0)
(19.0251 -0.00735767 0)
(19.0259 -0.00740306 0)
(19.0267 -0.00700511 0)
(19.0267 -0.00665903 0)
(19.0266 -0.00607672 0)
(19.0259 -0.00557528 1.08494e-33)
(19.0247 -0.00504381 -1.08738e-33)
(19.0244 -0.00452852 0)
(19.0243 -0.0042127 0)
(19.0237 -0.00404065 1.08656e-33)
(19.0208 -0.00376963 0)
(19.0182 -0.00340185 0)
(19.0186 -0.00306869 0)
(19.0182 -0.00293695 0)
(19.0148 -0.00169355 0)
(19.0093 -0.0016623 0)
(19.0078 0.000914479 0)
(18.9822 0.0017445 0)
(18.8972 0.00348384 0)
(18.6492 0.00572146 0)
(18.0205 0.00684554 0)
(16.584 0.00678778 -1.08495e-33)
(13.6355 0.00578414 0)
(8.42519 0.00350894 0)
(2.31461 0.000974676 0)
(0.124063 5.21451e-05 0)
(0.000891247 4.20605e-07 0)
(1.39395e-06 1.06546e-09 0)
(1.86929e-09 2.80112e-12 0)
(3.02947e-12 2.85684e-13 0)
(2.99165e-13 1.74154e-13 0)
(5.59426e-13 2.94507e-13 0)
(-5.73964e-14 2.86359e-13 0)
(-5.92584e-13 1.19088e-13 0)
(-3.1752e-13 3.45869e-13 0)
(2.15053e-14 -2.27157e-13 0)
(6.83659e-13 -1.44498e-13 0)
(7.44537e-13 -3.19329e-13 0)
(4.07905e-13 1.71355e-13 0)
(3.81502e-13 1.19804e-13 0)
(-2.08905e-13 -4.36288e-14 0)
(-3.53863e-14 8.44705e-14 1.05523e-33)
(5.63092e-13 -1.31535e-13 0)
(1.02869e-14 -1.50034e-13 1.05775e-33)
(-2.20157e-13 -3.37448e-13 0)
(-7.39107e-13 -1.50435e-13 0)
(-5.42586e-13 -1.40342e-13 0)
(3.39147e-14 1.42816e-13 0)
(-6.49689e-13 1.04923e-13 0)
(-5.70752e-13 5.17978e-14 0)
(1.05413e-13 6.83898e-13 0)
(-5.06252e-14 6.44779e-13 0)
(-1.09391e-13 7.56455e-13 0)
(-1.22383e-13 5.81917e-13 0)
(-2.45595e-13 6.86954e-13 0)
(-1.67607e-13 3.9328e-13 0)
(-2.17793e-14 5.55364e-13 0)
(-6.04263e-13 6.31017e-13 0)
(-3.57004e-13 9.96453e-13 0)
(-9.02708e-13 1.0271e-12 0)
(-1.05069e-12 1.18899e-12 0)
(-6.5043e-13 1.4786e-12 0)
(-8.20875e-13 1.49332e-12 0)
(-7.52698e-13 1.52902e-12 0)
(-4.75958e-13 1.46164e-12 0)
(-1.59125e-13 1.45011e-12 0)
(-3.44621e-13 1.51038e-12 0)
(-1.81758e-13 1.6204e-12 0)
(-3.80267e-13 1.6675e-12 0)
(-3.53379e-13 1.57434e-12 0)
(1.99409e-13 1.1862e-12 0)
(5.36553e-12 8.36424e-13 0)
(1.78341e-09 -6.49274e-12 0)
(1.23309e-06 -3.59948e-09 0)
(0.000692857 -1.26197e-06 0)
(0.0879384 -0.000138792 0)
(1.63012 -0.00239679 0)
(6.32952 -0.00819447 0)
(11.0666 -0.012255 0)
(14.4253 -0.012925 0)
(16.5778 -0.0116043 0)
(17.8446 -0.00827254 0)
(18.5168 -0.00446458 0)
(18.8337 -0.00116168 0)
(18.965 0.00144999 0)
(19.0179 0.00321519 0)
(19.0298 0.00671963 0)
(19.0345 0.00722559 0)
(19.0373 0.00878623 0)
(19.0362 0.00910971 0)
(19.0334 0.00923385 0)
(19.031 0.00952064 0)
(19.031 0.00948466 0)
(19.0318 0.00836659 0)
(19.0311 0.00674176 0)
(19.0283 0.00418525 0)
(19.0257 0.0015471 0)
(19.0244 -0.00233548 0)
(19.0245 -0.00358629 0)
(19.0243 -0.00457421 0)
(19.0241 -0.00543285 0)
(19.0248 -0.0058147 0)
(19.0254 -0.00589864 0)
(19.0252 -0.00575183 0)
(19.025 -0.00544644 0)
(19.0239 -0.00509523 0)
(19.0226 -0.00462359 0)
(19.0219 -0.00414714 0)
(19.0215 -0.00395803 0)
(19.021 -0.00395544 0)
(19.0184 -0.00371021 0)
(19.016 -0.00329553 0)
(19.0166 -0.00269942 0)
(19.0167 -0.00236411 0)
(19.0139 -0.000553369 0)
(19.009 -8.90888e-05 0)
(19.0077 0.00136259 0)
(18.9826 0.00128211 0)
(18.8983 0.00126786 0)
(18.6507 0.000312437 0)
(18.0206 0.000366044 0)
(16.5824 0.0075605 0)
(13.6306 0.0110414 0)
(8.41606 0.00899915 0)
(2.30744 0.00295707 0)
(0.123285 0.000173618 0)
(0.000882802 1.46007e-06 0)
(1.37869e-06 3.85046e-09 0)
(1.84757e-09 8.03402e-12 0)
(4.33672e-12 5.33701e-13 0)
(5.707e-13 5.57804e-13 0)
(2.01294e-13 6.80765e-13 0)
(-2.9889e-13 5.26743e-13 0)
(-2.66582e-13 5.93027e-13 0)
(-2.81727e-13 6.48757e-13 0)
(-4.10075e-13 6.75346e-13 0)
(1.85776e-13 4.32701e-13 0)
(6.96267e-13 3.60416e-13 0)
(5.85022e-13 2.06304e-13 0)
(2.71948e-13 3.48051e-13 0)
(8.74691e-14 3.28344e-13 0)
(-3.40433e-13 6.01784e-13 0)
(-1.02638e-13 4.29419e-13 0)
(-2.20322e-14 2.23535e-13 0)
(1.53463e-14 3.48447e-13 0)
(-1.52025e-13 2.24549e-13 0)
(-2.35187e-14 5.86904e-13 0)
(-1.12925e-13 5.93016e-13 0)
(-5.12919e-13 6.17284e-13 0)
(-1.59748e-13 7.79193e-13 0)
(-1.44429e-13 5.63056e-13 0)
(9.37182e-14 6.80995e-13 0)
(-3.197e-13 8.79124e-13 0)
(-4.07434e-13 6.45638e-13 0)
(-5.49419e-13 5.46301e-13 0)
(-6.63611e-13 5.1426e-13 0)
(-9.58141e-14 3.27335e-13 0)
(-4.50435e-13 1.69605e-13 0)
(3.77653e-13 4.77362e-13 0)
(-3.60926e-13 7.34343e-13 0)
(-5.54342e-13 9.8605e-13 0)
(-5.88287e-13 1.14405e-12 0)
(-8.6754e-13 1.03099e-12 0)
(-9.95483e-13 7.71007e-13 0)
(-5.1067e-13 9.7203e-13 0)
(1.00772e-13 1.22104e-12 0)
(4.10576e-13 1.30787e-12 0)
(-1.45664e-13 1.20308e-12 0)
(-4.71934e-13 1.05249e-12 0)
(-5.3225e-13 1.04859e-12 0)
(-3.36521e-13 1.14969e-12 0)
(3.13857e-12 9.68457e-13 0)
(1.74188e-09 -1.11177e-11 0)
(1.20217e-06 -6.02101e-09 0)
(0.000677717 -2.0688e-06 0)
(0.0866223 -0.000226767 0)
(1.61727 -0.00384868 0)
(6.30961 -0.0124765 0)
(11.0517 -0.0169703 0)
(14.414 -0.0159994 0)
(16.568 -0.0122881 0)
(17.8354 -0.0070114 0)
(18.5066 -0.00178941 0)
(18.8217 0.00260372 0)
(18.9517 0.00593653 0)
(19.0038 0.00721777 0)
(19.0159 0.00918779 0)
(19.0215 0.00874103 0)
(19.0252 0.00962226 0)
(19.0254 0.00966329 0)
(19.0242 0.00965179 0)
(19.0234 0.00973051 0)
(19.0245 0.00929371 0)
(19.0264 0.00801599 0)
(19.0271 0.00603151 0)
(19.0261 0.00430145 0)
(19.0244 0.00231895 0)
(19.0237 -0.000555774 0)
(19.0237 -0.00204934 0)
(19.0234 -0.00353881 0)
(19.0232 -0.00494361 0)
(19.0237 -0.00556347 0)
(19.0241 -0.00566846 0)
(19.0237 -0.0053779 0)
(19.0234 -0.0047537 0)
(19.0222 -0.00448875 0)
(19.0208 -0.00430111 0)
(19.0201 -0.00404175 0)
(19.0196 -0.00399458 0)
(19.0194 -0.00372339 0)
(19.0172 -0.00346245 0)
(19.0151 -0.00286668 0)
(19.0161 -0.00240662 0)
(19.0167 -0.00207925 0)
(19.0139 -0.000790653 0)
(19.0084 -0.000858333 0)
(19.0063 -0.000894194 0)
(18.9799 -0.00164045 0)
(18.8946 -0.00253756 0)
(18.6456 -0.00367719 0)
(18.0127 -0.000210802 0)
(16.572 0.00841772 0)
(13.6154 0.0138979 0)
(8.39336 0.0125232 0)
(2.29108 0.0043289 0)
(0.121593 0.000257174 0)
(0.000865058 2.15729e-06 0)
(1.34686e-06 5.8062e-09 0)
(1.80504e-09 1.31803e-11 0)
(2.87437e-12 1.0832e-12 0)
(5.45531e-13 7.65561e-13 0)
(3.71665e-13 7.27826e-13 0)
(-3.3342e-13 5.40934e-13 0)
(-3.89268e-13 5.11815e-13 0)
(-1.02514e-13 4.65682e-13 0)
(-3.69552e-13 4.8939e-13 0)
(-9.84302e-14 4.74673e-13 0)
(4.39616e-13 4.36427e-13 0)
(5.7698e-13 3.23056e-13 0)
(5.14011e-13 4.21099e-13 0)
(3.88347e-13 4.50338e-13 0)
(3.34974e-13 4.62016e-13 0)
(-2.61024e-13 5.01537e-13 0)
(-2.15264e-13 4.52585e-13 0)
(-1.95858e-13 3.61467e-13 0)
(-2.62974e-13 3.3314e-13 0)
(2.46339e-13 4.11897e-13 0)
(8.0241e-14 4.70293e-13 0)
(-1.92105e-13 7.52463e-13 0)
(1.11222e-14 9.35948e-13 0)
(1.34214e-14 -9.29766e-14 0)
(-5.47742e-14 -2.23418e-13 0)
(-4.84268e-13 -7.13268e-13 0)
(-6.83149e-13 -2.31473e-13 0)
(-6.23382e-13 -2.24204e-13 0)
(-7.84696e-13 1.90316e-13 0)
(-9.21265e-13 3.34907e-13 0)
(-5.94835e-13 3.15329e-13 0)
(5.93366e-13 2.24639e-13 0)
(5.37773e-14 -3.47183e-14 0)
(-3.49078e-13 -1.29578e-13 0)
(-8.73312e-13 -3.99958e-13 0)
(-1.061e-12 -2.17501e-13 0)
(-5.05514e-13 1.27351e-13 0)
(4.08027e-13 1.73349e-13 0)
(6.35735e-13 1.18105e-13 0)
(-1.70267e-14 1.47458e-13 0)
(-4.61352e-13 -4.49351e-14 0)
(-3.93551e-13 1.22052e-13 0)
(-3.02305e-13 2.77043e-13 0)
(-2.19539e-13 5.21493e-13 0)
(2.75902e-12 4.20291e-13 0)
(1.7024e-09 -3.5181e-12 0)
(1.17324e-06 -1.05881e-09 0)
(0.000663484 -3.71214e-07 0)
(0.0853239 -4.28007e-05 0)
(1.60376 -0.000815016 0)
(6.28674 -0.00325291 0)
(11.0331 -0.00597036 0)
(14.4006 -0.0076167 0)
(16.5584 -0.00726857 0)
(17.8281 -0.00614864 0)
(18.5003 -0.00424924 0)
(18.8155 -0.00201875 0)
(18.9446 0.000301227 0)
(18.9958 0.00177041 0)
(19.0068 0.0045496 0)
(19.0129 0.00635879 0)
(19.0164 0.00796605 0)
(19.0172 0.00811111 0)
(19.0168 0.00830253 0)
(19.0167 0.00819894 0)
(19.0187 0.00769878 0)
(19.0216 0.00674427 0)
(19.0233 0.00575883 0)
(19.0235 0.0044077 0)
(19.0227 0.00350941 0)
(19.0225 0.000464031 0)
(19.0228 -0.000444616 0)
(19.0227 -0.00142014 0)
(19.0225 -0.00203218 0)
(19.0232 -0.00218192 0)
(19.0236 -0.00221949 0)
(19.0231 -0.00231343 0)
(19.0225 -0.00231356 0)
(19.0211 -0.00230873 0)
(19.0196 -0.00234519 0)
(19.0189 -0.00226167 0)
(19.0187 -0.00214741 0)
(19.0186 -0.00237257 0)
(19.017 -0.00207629 0)
(19.0152 -0.00181941 0)
(19.0161 -0.00100854 0)
(19.0167 -0.000838397 0)
(19.0138 -0.000204015 0)
(19.0078 4.19484e-06 0)
(19.005 0.000968236 0)
(18.9769 0.00105601 0)
(18.8897 0.000829062 0)
(18.639 0.000161941 0)
(18.0045 0.000795528 0)
(16.5614 0.00250189 0)
(13.5989 0.00307076 0)
(8.36993 0.00216122 0)
(2.27522 0.000642182 0)
(0.120038 3.42992e-05 0)
(0.000849472 2.68891e-07 0)
(1.31899e-06 6.87542e-10 0)
(1.7651e-09 2.2703e-12 0)
(3.15156e-12 7.64919e-13 0)
(6.38554e-13 9.29304e-13 0)
(-6.36294e-14 8.35721e-13 0)
(-9.76209e-13 4.98334e-13 0)
(-4.52618e-13 5.07736e-13 0)
(-3.21186e-13 3.92922e-13 0)
(-4.61713e-13 1.30205e-14 0)
(1.00166e-13 2.78979e-13 0)
(3.79478e-13 3.5489e-13 0)
(5.24527e-13 9.97881e-14 0)
(4.99398e-13 2.10912e-14 0)
(3.70752e-13 -1.51357e-13 0)
(1.64052e-13 -1.74986e-13 0)
(-1.29993e-13 -1.19227e-13 0)
(-3.69676e-13 1.19473e-13 0)
(-2.74251e-13 1.05367e-13 0)
(-2.52992e-14 1.77582e-13 0)
(3.31297e-13 4.69862e-14 0)
(4.67635e-13 2.65275e-14 0)
(4.31354e-13 -1.49695e-13 0)
(3.11381e-13 -1.49233e-14 0)
(-6.11279e-14 -2.07632e-13 0)
(-5.75626e-13 -2.581e-13 0)
(-4.23776e-13 -2.97631e-13 0)
(-7.77303e-14 3.10605e-14 0)
(-3.61345e-13 3.9238e-13 0)
(-2.27536e-14 8.91532e-13 0)
(-5.11103e-13 1.10867e-12 0)
(-6.27295e-13 9.4139e-13 0)
(-7.4835e-14 8.60385e-13 0)
(-6.18035e-13 4.72149e-13 0)
(-5.01644e-13 4.109e-13 0)
(-4.95625e-14 5.00976e-13 0)
(2.22027e-13 5.87288e-13 0)
(3.11171e-16 6.50538e-13 0)
(-1.06558e-13 5.07257e-13 0)
(1.2696e-13 1.963e-13 0)
(5.34327e-14 2.33961e-13 0)
(-3.14755e-13 3.50017e-13 0)
(-3.62675e-13 3.52824e-13 0)
(-2.94194e-13 3.59568e-13 0)
(-4.47235e-14 3.84671e-13 0)
(2.92594e-12 4.33903e-13 0)
(1.69987e-09 -2.43917e-13 0)
(1.17444e-06 -4.63887e-12 0)
(0.000664116 -1.45211e-08 0)
(0.0854217 -2.23734e-06 0)
(1.60526 -7.46616e-05 0)
(6.29033 -0.000491895 0)
(11.0377 -0.00132251 0)
(14.4058 -0.00248759 0)
(16.5634 -0.00357122 0)
(17.8324 -0.00401866 0)
(18.5037 -0.00393205 0)
(18.8177 -0.00334923 0)
(18.9457 -0.00229334 0)
(18.9959 -0.00137677 0)
(19.0071 0.000830124 0)
(19.0119 0.00071067 0)
(19.0144 0.00257078 0)
(19.0152 0.00302222 0)
(19.0143 0.00359088 0)
(19.0142 0.00399041 0)
(19.0161 0.0041269 0)
(19.0195 0.00404044 0)
(19.0215 0.00387447 0)
(19.0223 0.00274025 0)
(19.0219 0.00229295 0)
(19.022 0.000379998 0)
(19.0225 -0.000297552 0)
(19.0225 -0.00103959 0)
(19.0224 -0.00155011 0)
(19.023 -0.00183974 0)
(19.0234 -0.0019735 0)
(19.0228 -0.00200854 0)
(19.022 -0.00194777 0)
(19.0204 -0.00181735 0)
(19.0189 -0.00169089 0)
(19.0182 -0.00134982 0)
(19.0183 -0.00102788 0)
(19.0184 -0.000813016 0)
(19.017 -0.00059233 0)
(19.0153 -0.000284422 0)
(19.0164 0.000121644 0)
(19.0172 0.00033793 0)
(19.0146 0.000989393 0)
(19.009 0.00125769 0)
(19.0066 0.0018798 0)
(18.979 0.00186945 0)
(18.8925 0.00141997 0)
(18.6427 0.000479031 0)
(18.0096 8.03897e-05 0)
(16.5677 0.000149466 0)
(13.606 -0.000108408 0)
(8.37684 -0.000292303 0)
(2.27878 -0.000142875 0)
(0.120322 -9.34599e-06 0)
(0.000851924 -8.46193e-08 0)
(1.32358e-06 -2.80507e-10 0)
(1.77223e-09 -2.71532e-13 0)
(3.81012e-12 3.30411e-13 0)
(3.53613e-13 5.22961e-13 0)
(-2.96809e-13 4.0596e-13 0)
(-6.69116e-13 4.56337e-13 0)
(-8.69963e-13 4.75059e-13 0)
(-8.71119e-13 3.56523e-13 0)
(-5.43092e-13 2.61557e-13 0)
(5.26354e-13 3.307e-13 0)
(-4.02317e-14 4.16009e-13 0)
(-6.69305e-14 1.12213e-13 0)
(3.70224e-13 3.33286e-14 0)
(2.69007e-13 -7.69762e-14 0)
(2.86499e-13 -1.30016e-13 0)
(3.14058e-13 -3.00191e-14 0)
(1.59549e-13 1.54089e-13 0)
(-2.89689e-13 2.78358e-13 0)
(-3.07055e-13 2.12122e-13 0)
(5.05726e-14 8.0237e-14 0)
(-3.15142e-13 1.40987e-13 0)
(2.62951e-13 -4.0686e-13 0)
(6.51858e-13 -2.72887e-13 0)
)
;

boundaryField
{
    sides1
    {
        type            zeroGradient;
    }
    sides2
    {
        type            slip;
    }
    empty
    {
        type            empty;
    }
}


// ************************************************************************* //
