/*--------------------------------*- C++ -*----------------------------------*\
| =========                 |                                                 |
| \\      /  F ield         | OpenFOAM: The Open Source CFD Toolbox           |
|  \\    /   O peration     | Version:  3.0.1                                 |
|   \\  /    A nd           | Web:      www.OpenFOAM.org                      |
|    \\/     M anipulation  |                                                 |
\*---------------------------------------------------------------------------*/
FoamFile
{
    version     2.0;
    format      ascii;
    class       volScalarField;
    location    "0.0001";
    object      p;
}
// * * * * * * * * * * * * * * * * * * * * * * * * * * * * * * * * * * * * * //

dimensions      [1 -1 -2 0 0 0 0];

internalField   nonuniform List<scalar> 
1000
(
68970
68970
68970
68970
68970
68970
68970
68970
68970
68970
68970
68970
68970
68970
68970
68970
68970
68970
68970
68970
68970
68970
68970
68970
68970
68970
68970
68970
68970
68969.9
68969.6
68968.3
68963.6
68947
68891.6
68721
68246.8
67102.8
64837
61311
56949.1
52322.6
47745.6
43388.5
39311.4
35563.7
32157.5
29101.8
26408.4
24183.3
22851.5
22511.1
22485.8
22235.9
21661.1
22013.8
21970.9
21860.9
21847.9
21779.5
21777.5
21646.8
21343.9
20265.3
17302.8
12045.9
8045.08
7087.61
6927.59
6901.87
6897.77
6897.12
6897.02
6897
6897
6897
6897
6897
6897
6897
6897
6897
6897
6897
6897
6897
6897
6897
6897
6897
6897
6897
6897
6897
6897
6897
6897
6897
6897
6897
68970
68970
68970
68970
68970
68970
68970
68970
68970
68970
68970
68970
68970
68970
68970
68970
68970
68970
68970
68970
68970
68970
68970
68970
68970
68970
68970
68970
68970
68969.9
68969.6
68968.3
68963.6
68947
68891.6
68721.1
68246.9
67103
64837.5
61311.5
56949.2
52322
47744.4
43386.9
39309.6
35562.1
32155.4
29101.9
26409.1
24181.2
22861.5
22514.9
22489
22238.6
21672.1
22018.4
21977.7
21869.2
21853.3
21788.4
21782
21650.2
21345.1
20265.4
17301.6
12045
8045.03
7087.63
6927.6
6901.87
6897.77
6897.12
6897.02
6897
6897
6897
6897
6897
6897
6897
6897
6897
6897
6897
6897
6897
6897
6897
6897
6897
6897
6897
6897
6897
6897
6897
6897
6897
6897
6897
68970
68970
68970
68970
68970
68970
68970
68970
68970
68970
68970
68970
68970
68970
68970
68970
68970
68970
68970
68970
68970
68970
68970
68970
68970
68970
68970
68970
68970
68969.9
68969.6
68968.3
68963.6
68947
68891.6
68721.2
68247.1
67103.4
64838
61311.8
56948.9
52321.2
47742.9
43384.9
39307.6
35560.5
32154.3
29102.1
26407.6
24179.6
22859.5
22513.2
22487.5
22238.3
21667.1
22017.1
21973.2
21860.2
21848.2
21779.3
21777
21646.4
21344.5
20266.9
17306.9
12051.1
8046.85
7087.9
6927.64
6901.88
6897.77
6897.12
6897.02
6897
6897
6897
6897
6897
6897
6897
6897
6897
6897
6897
6897
6897
6897
6897
6897
6897
6897
6897
6897
6897
6897
6897
6897
6897
6897
6897
68970
68970
68970
68970
68970
68970
68970
68970
68970
68970
68970
68970
68970
68970
68970
68970
68970
68970
68970
68970
68970
68970
68970
68970
68970
68970
68970
68970
68970
68969.9
68969.6
68968.3
68963.6
68947
68891.7
68721.2
68247.2
67103.7
64838.5
61312.4
56949.2
52321.1
47742.3
43383.6
39305.6
35558.1
32151.7
29099.8
26404.8
24180.4
22855
22512.5
22489
22240.3
21667.2
22018.6
21975.2
21865.4
21851.1
21780.3
21777.6
21646.2
21343.9
20267.5
17310
12056.2
8048.71
7088.21
6927.68
6901.89
6897.77
6897.12
6897.02
6897
6897
6897
6897
6897
6897
6897
6897
6897
6897
6897
6897
6897
6897
6897
6897
6897
6897
6897
6897
6897
6897
6897
6897
6897
6897
6897
68970
68970
68970
68970
68970
68970
68970
68970
68970
68970
68970
68970
68970
68970
68970
68970
68970
68970
68970
68970
68970
68970
68970
68970
68970
68970
68970
68970
68970
68969.9
68969.6
68968.3
68963.6
68947
68891.7
68721.3
68247.3
67103.9
64838.9
61312.9
56949.6
52321.2
47742.2
43383.4
39305
35556.9
32149.9
29096.8
26402.1
24177.1
22853
22511
22488.3
22240.4
21669.8
22019.2
21976.3
21865.3
21851.8
21780.9
21778
21646.3
21344
20268.2
17311.9
12059
8049.71
7088.39
6927.71
6901.89
6897.78
6897.12
6897.02
6897
6897
6897
6897
6897
6897
6897
6897
6897
6897
6897
6897
6897
6897
6897
6897
6897
6897
6897
6897
6897
6897
6897
6897
6897
6897
6897
68970
68970
68970
68970
68970
68970
68970
68970
68970
68970
68970
68970
68970
68970
68970
68970
68970
68970
68970
68970
68970
68970
68970
68970
68970
68970
68970
68970
68970
68969.9
68969.6
68968.3
68963.6
68947
68891.7
68721.3
68247.4
67104
64839.1
61313.1
56949.9
52321.6
47742.5
43383.5
39305.1
35556.8
32149.6
29095.7
26400.8
24174.7
22850.3
22508.3
22485.8
22238.6
21669.2
22017.8
21975.3
21865.3
21851.9
21781.2
21778.5
21646.9
21344.8
20269.2
17313.1
12060
8050.07
7088.45
6927.72
6901.89
6897.78
6897.12
6897.02
6897
6897
6897
6897
6897
6897
6897
6897
6897
6897
6897
6897
6897
6897
6897
6897
6897
6897
6897
6897
6897
6897
6897
6897
6897
6897
6897
68970
68970
68970
68970
68970
68970
68970
68970
68970
68970
68970
68970
68970
68970
68970
68970
68970
68970
68970
68970
68970
68970
68970
68970
68970
68970
68970
68970
68970
68969.9
68969.6
68968.3
68963.6
68947
68891.7
68721.3
68247.4
67104.1
64839.1
61313.2
56950.1
52321.8
47742.7
43383.7
39305.2
35556.9
32149.6
29095.6
26400.6
24173.8
22849.3
22506.6
22483.8
22236.6
21668.4
22016.7
21974.7
21864.8
21851.6
21781
21778.4
21647
21344.9
20269.4
17313.3
12060.2
8050.13
7088.46
6927.73
6901.89
6897.78
6897.12
6897.02
6897
6897
6897
6897
6897
6897
6897
6897
6897
6897
6897
6897
6897
6897
6897
6897
6897
6897
6897
6897
6897
6897
6897
6897
6897
6897
6897
68970
68970
68970
68970
68970
68970
68970
68970
68970
68970
68970
68970
68970
68970
68970
68970
68970
68970
68970
68970
68970
68970
68970
68970
68970
68970
68970
68970
68970
68969.9
68969.6
68968.3
68963.6
68947
68891.7
68721.3
68247.4
67104.1
64839.1
61313.2
56950.1
52321.9
47742.8
43383.8
39305.3
35557
32149.7
29095.7
26400.7
24173.7
22849.2
22506.1
22483.1
22235.7
21667.4
22015.8
21973.7
21864
21850.9
21780.5
21778.1
21646.8
21344.8
20269.3
17313.2
12060.2
8050.13
7088.46
6927.73
6901.89
6897.78
6897.12
6897.02
6897
6897
6897
6897
6897
6897
6897
6897
6897
6897
6897
6897
6897
6897
6897
6897
6897
6897
6897
6897
6897
6897
6897
6897
6897
6897
6897
68970
68970
68970
68970
68970
68970
68970
68970
68970
68970
68970
68970
68970
68970
68970
68970
68970
68970
68970
68970
68970
68970
68970
68970
68970
68970
68970
68970
68970
68969.9
68969.6
68968.3
68963.6
68947
68891.7
68721.3
68247.4
67104.1
64839.1
61313.3
56950.1
52321.9
47742.8
43383.9
39305.4
35557
32149.7
29095.7
26400.7
24173.7
22849.2
22506.1
22483
22235.5
21667
22015.4
21973.3
21863.7
21850.6
21780.2
21777.8
21646.6
21344.7
20269.2
17313.2
12060.2
8050.13
7088.46
6927.73
6901.89
6897.78
6897.12
6897.02
6897
6897
6897
6897
6897
6897
6897
6897
6897
6897
6897
6897
6897
6897
6897
6897
6897
6897
6897
6897
6897
6897
6897
6897
6897
6897
6897
68970
68970
68970
68970
68970
68970
68970
68970
68970
68970
68970
68970
68970
68970
68970
68970
68970
68970
68970
68970
68970
68970
68970
68970
68970
68970
68970
68970
68970
68969.9
68969.6
68968.3
68963.6
68947
68891.7
68721.3
68247.4
67104.1
64839.1
61313.3
56950.1
52321.9
47742.8
43383.9
39305.4
35557
32149.8
29095.7
26400.7
24173.7
22849.2
22506.1
22483
22235.5
21666.9
22015.3
21973.2
21863.6
21850.5
21780.1
21777.7
21646.6
21344.6
20269.2
17313.2
12060.1
8050.12
7088.46
6927.73
6901.89
6897.78
6897.12
6897.02
6897
6897
6897
6897
6897
6897
6897
6897
6897
6897
6897
6897
6897
6897
6897
6897
6897
6897
6897
6897
6897
6897
6897
6897
6897
6897
6897
)
;

boundaryField
{
    sides1
    {
        type            zeroGradient;
    }
    sides2
    {
        type            slip;
    }
    empty
    {
        type            empty;
    }
}


// ************************************************************************* //
