/*--------------------------------*- C++ -*----------------------------------*\
| =========                 |                                                 |
| \\      /  F ield         | OpenFOAM: The Open Source CFD Toolbox           |
|  \\    /   O peration     | Version:  3.0.1                                 |
|   \\  /    A nd           | Web:      www.OpenFOAM.org                      |
|    \\/     M anipulation  |                                                 |
\*---------------------------------------------------------------------------*/
FoamFile
{
    version     2.0;
    format      ascii;
    class       surfaceScalarField;
    location    "0.0001";
    object      phi;
}
// * * * * * * * * * * * * * * * * * * * * * * * * * * * * * * * * * * * * * //

dimensions      [1 0 -1 0 0 0 0];

internalField   nonuniform List<scalar> 
1890
(
8.32667e-17
5.0307e-17
8.32667e-17
1.38778e-17
6.59195e-17
1.56125e-17
5.20417e-17
1.56125e-17
3.81639e-17
1.9082e-17
3.81639e-17
0
3.1225e-17
0
2.77556e-17
0
2.42861e-17
-1.38778e-17
1.38778e-17
-6.93889e-18
1.38778e-17
-1.9082e-17
2.42861e-17
5.20417e-18
2.08167e-17
-1.73472e-18
-6.93889e-18
3.46945e-18
1.73472e-17
-1.21431e-17
2.77556e-17
3.46945e-18
1.66533e-16
-6.93889e-18
6.245e-16
1.73472e-18
3.05311e-15
-5.20417e-18
1.58762e-14
6.93889e-18
8.06022e-14
-2.08167e-17
4.02258e-13
-2.25514e-17
1.9721e-12
-5.89806e-17
9.49013e-12
-1.71738e-16
4.47578e-11
-9.47159e-16
2.06556e-10
-4.62651e-15
9.31099e-10
-2.15591e-14
4.09109e-09
-9.90024e-14
1.74787e-08
-4.40802e-13
7.2402e-08
-1.90892e-12
2.89762e-07
-7.9956e-12
1.11558e-06
-3.22748e-11
4.10903e-06
-1.24891e-10
1.43748e-05
-4.60113e-10
4.7288e-05
-1.59856e-09
0.000144166
-5.16013e-09
0.000398215
-1.50501e-08
0.000962948
-3.75401e-08
0.00195886
-7.35893e-08
0.0032963
-1.04823e-07
0.00472596
-1.05891e-07
0.0060795
-1.92568e-08
0.00728779
4.19126e-08
0.00832627
1.39658e-07
0.00919121
2.01874e-07
0.00988488
5.89576e-07
0.0104214
-4.71532e-07
0.0108177
1.97478e-06
0.0111068
7.00548e-07
0.0113025
-3.1297e-06
0.0114289
2.29685e-06
0.0114318
5.32316e-07
0.0114254
-1.21712e-07
0.0112693
-7.98045e-07
0.010904
-2.4189e-06
0.0102146
-6.39543e-07
0.00934269
-3.63117e-08
0.00848844
4.73693e-07
0.00781214
1.0339e-06
0.00740137
1.90136e-07
0.00724375
-4.8442e-08
0.00712
-1.07373e-07
0.00689342
6.36614e-08
0.00615477
-6.58809e-08
0.00399532
5.55553e-08
0.00109599
8.54198e-08
0.000187202
-3.83463e-09
3.02019e-05
-1.27083e-09
4.82823e-06
-4.63033e-10
7.682e-07
-1.0675e-10
1.21612e-07
-2.07192e-11
1.91426e-08
-3.67263e-12
2.99415e-09
-6.15542e-13
4.65108e-10
-9.93001e-14
7.17221e-11
-1.55824e-14
1.09757e-11
-2.39468e-15
1.66647e-12
-3.58329e-16
2.51016e-13
-5.42101e-17
3.75097e-14
-7.91468e-18
5.54873e-15
-7.58942e-19
8.13802e-16
-8.67362e-19
1.22732e-16
-5.42101e-19
1.6263e-17
8.67362e-19
3.25261e-18
7.58942e-19
2.1684e-19
9.75782e-19
1.0842e-18
2.1684e-19
-8.67362e-19
1.0842e-18
4.33681e-19
9.75782e-19
4.33681e-19
2.60209e-18
2.1684e-19
-1.19262e-18
-4.33681e-18
1.6263e-18
2.1684e-19
-2.60209e-18
-4.33681e-19
1.84314e-18
-4.98733e-18
1.0842e-18
-2.38524e-18
1.0842e-19
2.1684e-19
1.0842e-18
-1.51788e-18
1.30104e-18
0
7.58942e-19
2.60209e-18
-7.58942e-19
-2.1684e-19
3.46945e-17
4.33681e-17
3.46945e-18
3.29597e-17
-6.93889e-18
3.1225e-17
3.1225e-17
-1.56125e-17
5.89806e-17
3.46945e-18
5.55112e-17
3.46945e-18
2.42861e-17
0
1.73472e-17
-1.56125e-17
3.46945e-17
8.67362e-18
2.08167e-17
3.46945e-18
1.04083e-17
6.93889e-18
1.38778e-17
5.20417e-18
-1.04083e-17
-1.04083e-17
-2.08167e-17
3.46945e-18
-2.08167e-17
-1.73472e-18
-6.93889e-18
8.67362e-18
1.11022e-16
-5.20417e-18
5.44703e-16
-8.67362e-18
2.98719e-15
-6.93889e-18
1.59352e-14
-3.81639e-17
8.06091e-14
5.20417e-18
4.02199e-13
-3.1225e-17
1.97173e-12
-1.73472e-17
9.48857e-12
-3.64292e-16
4.47499e-11
-1.48839e-15
2.06518e-10
-7.17655e-15
9.30928e-10
-3.34663e-14
4.09033e-09
-1.5235e-13
1.74754e-08
-6.74016e-13
7.23881e-08
-2.89449e-12
2.89706e-07
-1.20193e-11
1.11537e-06
-4.80605e-11
4.10822e-06
-1.84044e-10
1.43719e-05
-6.70127e-10
4.72787e-05
-2.29646e-09
0.000144138
-7.28769e-09
0.000398141
-2.08015e-08
0.00096279
-5.07392e-08
0.00195862
-9.88715e-08
0.0032961
-1.48089e-07
0.00472595
-1.95881e-07
0.00607962
-8.75149e-08
0.0072881
-7.76929e-09
0.0083267
1.30976e-07
0.00919169
2.62378e-07
0.00988561
6.8955e-07
0.0104213
-2.43444e-07
0.0108189
2.49524e-06
0.0111086
-3.98096e-07
0.0112994
-3.26746e-09
0.0114303
-4.89891e-07
0.0114329
2.00164e-06
0.0114255
1.84791e-06
0.0112673
1.4939e-06
0.0108933
2.39438e-06
0.0102015
1.3984e-06
0.0093286
1.28537e-06
0.0084767
6.30449e-07
0.00780465
-8.81399e-07
0.00739572
-3.68621e-07
0.00723939
-1.01075e-06
0.00711629
-1.12385e-06
0.00689083
-1.30288e-06
0.00615272
-1.15939e-06
0.0039938
-1.06137e-06
0.00109572
-7.6903e-07
0.000187194
-2.06613e-07
3.02055e-05
-2.80589e-08
4.82932e-06
-3.80723e-09
7.68428e-07
-5.31865e-10
1.21653e-07
-7.60364e-11
1.91497e-08
-1.10147e-11
2.9953e-09
-1.60559e-12
4.6529e-10
-2.34409e-13
7.17503e-11
-3.41601e-14
1.098e-11
-4.96261e-15
1.66712e-12
-7.1926e-16
2.51103e-13
-1.04409e-16
3.75234e-14
-1.47451e-17
5.55892e-15
-2.1684e-19
8.16404e-16
1.19262e-18
1.21647e-16
-1.40946e-18
1.43115e-17
3.25261e-19
3.46945e-18
-3.25261e-19
-4.33681e-19
8.67362e-19
6.50521e-19
-6.50521e-19
2.1684e-18
4.33681e-19
5.63785e-18
-4.01155e-18
6.50521e-19
2.05998e-18
6.50521e-19
-4.33681e-19
-8.67362e-19
1.73472e-18
-3.03577e-18
3.25261e-19
-7.37257e-18
1.19262e-18
0
4.33681e-19
-2.1684e-18
1.0842e-18
-5.20417e-18
3.14419e-18
-4.77049e-18
8.67362e-19
-8.67362e-18
3.90313e-18
-1.56125e-17
3.90313e-18
4.66207e-18
2.77556e-17
1.38778e-17
2.77556e-17
-1.04083e-17
2.08167e-17
1.21431e-17
-2.42861e-17
1.38778e-17
-2.08167e-17
2.42861e-17
5.55112e-17
-1.04083e-17
1.38778e-17
3.46945e-18
2.08167e-17
-1.21431e-17
5.20417e-17
-5.20417e-18
5.20417e-17
-1.21431e-17
3.81639e-17
5.20417e-18
3.81639e-17
-1.73472e-17
0
3.46945e-18
3.46945e-18
-1.04083e-17
1.04083e-17
-8.67362e-18
5.89806e-17
-1.56125e-17
1.35308e-16
5.20417e-18
5.96745e-16
1.73472e-18
3.07046e-15
-6.93889e-18
1.58935e-14
-2.08167e-17
8.05293e-14
3.29597e-17
4.02085e-13
-7.97973e-17
1.97119e-12
-1.73472e-17
9.48546e-12
-2.81025e-16
4.47359e-11
-1.50747e-15
2.06454e-10
-6.84001e-15
9.30637e-10
-3.17142e-14
4.08905e-09
-1.42842e-13
1.747e-08
-6.25874e-13
7.23657e-08
-2.66044e-12
2.89617e-07
-1.09298e-11
1.11503e-06
-4.32155e-11
4.107e-06
-1.63513e-10
1.43678e-05
-5.8762e-10
4.72656e-05
-1.98445e-09
0.000144101
-6.19625e-09
0.00039805
-1.74233e-08
0.00096262
-4.23617e-08
0.00195842
-8.47907e-08
0.00329601
-1.35465e-07
0.00472599
-1.71215e-07
0.00607986
-1.50134e-07
0.00728848
-1.11317e-07
0.00832716
-2.83308e-08
0.00919217
8.43597e-08
0.00988615
3.73663e-07
0.0104215
-8.93332e-10
0.0108199
1.9777e-06
0.0111094
-9.09794e-07
0.0113001
2.12366e-06
0.0114297
2.32489e-07
0.0114338
1.6356e-06
0.0114282
1.65774e-06
0.0112727
1.65443e-06
0.0109069
1.48436e-06
0.0102187
1.09716e-06
0.00934817
8.78684e-07
0.00849376
1.94656e-06
0.00781726
-3.06272e-07
0.00740442
-2.11145e-07
0.00724506
-5.26399e-07
0.00712039
-7.04257e-07
0.0068935
-1.02625e-06
0.00615552
-1.16423e-06
0.00399819
-1.16481e-06
0.00109766
-7.0032e-07
0.000187495
-1.66697e-07
3.02491e-05
-2.61501e-08
4.83568e-06
-3.96195e-09
7.69369e-07
-5.91137e-10
1.21793e-07
-8.75643e-11
1.91706e-08
-1.29027e-11
2.99842e-09
-1.89274e-12
4.65753e-10
-2.76406e-13
7.18187e-11
-4.01803e-14
1.099e-11
-5.80157e-15
1.66858e-12
-8.2974e-16
2.51324e-13
-1.20021e-16
3.7547e-14
-9.1073e-18
5.56217e-15
-4.44523e-18
8.22909e-16
-2.38524e-18
1.20997e-16
5.42101e-19
2.0383e-17
-2.38524e-18
5.42101e-18
-5.42101e-19
1.30104e-18
-7.58942e-19
-2.1684e-19
-8.67362e-19
1.73472e-18
-1.30104e-18
-3.90313e-18
3.25261e-19
-1.51788e-18
-4.33681e-19
-2.1684e-19
-1.84314e-18
0
-4.33681e-19
-2.1684e-19
-8.67362e-19
2.1684e-18
-1.30104e-18
1.30104e-18
7.58942e-19
-4.33681e-19
1.6263e-18
1.73472e-18
1.30104e-18
3.03577e-18
-4.33681e-19
5.42101e-18
1.51788e-18
7.15573e-18
-1.0842e-19
1.51788e-18
1.73472e-17
1.21431e-17
-6.93889e-18
2.25514e-17
3.46945e-18
6.93889e-18
1.73472e-17
-8.67362e-18
1.38778e-17
1.21431e-17
-1.38778e-17
1.04083e-17
-1.38778e-17
1.21431e-17
3.81639e-17
-5.20417e-18
4.51028e-17
1.21431e-17
2.77556e-17
-1.04083e-17
-6.93889e-18
5.20417e-18
-1.73472e-17
-8.67362e-18
-1.73472e-17
8.67362e-18
-1.38778e-17
-1.56125e-17
-3.46945e-18
1.73472e-18
1.73472e-17
-8.67362e-18
3.1225e-17
-6.93889e-18
6.17562e-16
-8.67362e-18
3.0774e-15
2.42861e-17
1.57964e-14
-2.60209e-17
8.05779e-14
-3.98986e-17
4.01873e-13
3.64292e-17
1.97068e-12
-1.37043e-16
9.48251e-12
-1.45717e-16
4.47217e-11
-1.04604e-15
2.06389e-10
-4.79478e-15
9.30346e-10
-2.18211e-14
4.08779e-09
-9.68253e-14
1.74647e-08
-4.1832e-13
7.2344e-08
-1.75181e-12
2.89532e-07
-7.08944e-12
1.11471e-06
-2.7593e-11
4.10587e-06
-1.02696e-10
1.4364e-05
-3.62684e-10
4.72539e-05
-1.20239e-09
0.000144068
-3.68301e-09
0.000397971
-1.01764e-08
0.000962468
-2.45208e-08
0.00195821
-4.96734e-08
0.00329581
-8.30709e-08
0.00472591
-1.17359e-07
0.00607988
-1.43723e-07
0.00728862
-1.47896e-07
0.00832737
-9.38154e-08
0.00919244
-5.95799e-08
0.0098864
3.79212e-08
0.0104219
-1.5598e-08
0.0108204
7.68673e-07
0.0111085
-2.12213e-07
0.0113021
1.33429e-06
0.0114302
3.5731e-07
0.0114344
1.33541e-06
0.0114293
1.42484e-06
0.0112741
1.42634e-06
0.0109084
7.60625e-07
0.0102199
9.97201e-07
0.00934852
9.456e-07
0.00849523
5.99495e-07
0.00781845
1.96917e-07
0.00740534
1.91766e-08
0.00724618
-2.75148e-07
0.00712144
-4.21003e-07
0.00689456
-5.96953e-07
0.00615695
-6.61174e-07
0.00400118
-4.71315e-07
0.00109941
-3.03654e-07
0.00018781
-7.65256e-08
3.02986e-05
-1.28334e-08
4.84324e-06
-2.08671e-09
7.70513e-07
-3.32572e-10
1.21965e-07
-5.22156e-11
1.91964e-08
-8.08659e-12
3.00225e-09
-1.23656e-12
4.66321e-10
-1.86866e-13
7.19023e-11
-2.7918e-14
1.10023e-11
-4.13103e-15
1.67036e-12
-6.14851e-16
2.51567e-13
-8.65193e-17
3.75908e-14
-1.57209e-17
5.57518e-15
-4.11997e-18
8.25945e-16
-5.42101e-19
1.16877e-16
1.19262e-18
1.64799e-17
1.30104e-18
2.1684e-19
1.0842e-18
1.51788e-18
-2.05998e-18
-3.90313e-18
0
-1.0842e-18
-1.51788e-18
-1.0842e-18
-1.0842e-18
-2.60209e-18
9.75782e-19
-2.38524e-18
7.58942e-19
-8.67362e-19
-1.6263e-18
-1.0842e-18
2.1684e-19
-8.67362e-19
-2.1684e-19
2.1684e-19
-4.33681e-19
4.55365e-18
-9.75782e-19
4.33681e-18
8.67362e-19
-3.68629e-18
1.40946e-18
-1.0842e-18
0
-3.03577e-18
6.50521e-19
-1.6263e-18
-1.04083e-17
5.20417e-18
2.08167e-17
-3.46945e-18
3.1225e-17
1.9082e-17
6.93889e-18
1.21431e-17
3.46945e-18
3.46945e-18
-3.46945e-18
-6.93889e-18
0
1.38778e-17
0
-3.46945e-18
4.16334e-17
-6.93889e-18
2.08167e-17
-6.93889e-18
6.93889e-18
-6.93889e-18
-6.93889e-18
1.73472e-18
-2.77556e-17
-1.9082e-17
-1.38778e-17
-3.46945e-18
6.93889e-18
-1.73472e-17
2.42861e-17
-1.73472e-18
9.36751e-17
-1.73472e-17
5.79398e-16
3.46945e-18
3.09128e-15
-3.29597e-17
1.5845e-14
-1.9082e-17
8.04912e-14
1.38778e-17
4.0188e-13
-2.42861e-17
1.97e-12
-2.94903e-17
9.48036e-12
-1.38778e-16
4.47113e-11
-5.3256e-16
2.06342e-10
-2.43382e-15
9.30139e-10
-1.10849e-14
4.0869e-09
-4.8201e-14
1.7461e-08
-2.0599e-13
7.23292e-08
-8.50571e-13
2.89475e-07
-3.38878e-12
1.1145e-06
-1.29656e-11
4.10513e-06
-4.7355e-11
1.43616e-05
-1.63825e-10
4.72465e-05
-5.31058e-10
0.000144048
-1.58791e-09
0.000397923
-4.27952e-09
0.000962374
-1.0083e-08
0.00195808
-2.02501e-08
0.00329567
-3.49211e-08
0.00472582
-5.41703e-08
0.00607986
-7.8149e-08
0.00728861
-1.00911e-07
0.00832741
-1.01518e-07
0.00919252
-6.32219e-08
0.00988647
-5.06448e-08
0.0104221
-4.31583e-08
0.0108203
1.02864e-07
0.0111087
-1.0631e-07
0.0113019
6.70753e-07
0.0114305
7.06841e-08
0.0114347
7.88298e-07
0.0114296
9.13822e-07
0.0112744
1.05515e-06
0.0109074
5.78404e-07
0.0102189
7.9114e-07
0.00934776
6.60537e-07
0.00849394
4.41452e-07
0.00781776
2.90414e-07
0.00740488
1.73094e-07
0.0072458
-6.79514e-09
0.00712109
-1.0016e-07
0.0068943
-1.60967e-07
0.00615721
-1.96739e-07
0.00400259
-1.35368e-07
0.0011003
-9.16171e-08
0.000187979
-2.48176e-08
3.03266e-05
-4.23421e-09
4.84777e-06
-7.0626e-10
7.71232e-07
-1.17286e-10
1.22078e-07
-1.92812e-11
1.92139e-08
-3.12652e-12
3.00494e-09
-4.99619e-13
4.6673e-10
-7.86002e-14
7.19639e-11
-1.22325e-14
1.10114e-11
-1.8825e-15
1.67172e-12
-2.83194e-16
2.51779e-13
-4.51028e-17
3.76129e-14
-4.44523e-18
5.56933e-15
-3.46945e-18
8.15971e-16
-1.19262e-18
1.19045e-16
2.49366e-18
2.29851e-17
-4.33681e-19
7.80626e-18
2.1684e-19
2.38524e-18
-5.42101e-19
4.33681e-19
1.40946e-18
3.03577e-18
-1.0842e-18
1.51788e-18
1.19262e-18
3.46945e-18
6.50521e-19
3.25261e-18
1.0842e-19
8.67362e-19
7.58942e-19
1.30104e-18
4.33681e-19
1.95156e-18
-6.50521e-19
6.50521e-19
-1.30104e-18
-1.30104e-18
2.1684e-19
2.60209e-18
-1.30104e-18
1.30104e-18
1.0842e-19
2.1684e-18
-4.33681e-19
1.30104e-18
2.1684e-19
-1.51788e-18
1.73472e-17
3.98986e-17
-2.08167e-17
2.08167e-17
-3.1225e-17
1.38778e-17
-3.46945e-18
8.67362e-18
0
3.46945e-18
-1.73472e-17
1.04083e-17
3.46945e-18
-1.73472e-18
-2.08167e-17
0
-1.38778e-17
-1.21431e-17
-3.46945e-18
0
2.08167e-17
-3.46945e-17
-1.38778e-17
6.93889e-18
-3.46945e-18
-2.08167e-17
-1.38778e-17
1.04083e-17
-1.04083e-17
-1.9082e-17
1.73472e-17
6.93889e-18
7.28584e-17
-1.9082e-17
6.07153e-16
0
3.09128e-15
-1.9082e-17
1.58346e-14
1.73472e-17
8.05189e-14
-1.73472e-17
4.0179e-13
-1.56125e-17
1.96981e-12
1.04083e-17
9.4791e-12
-9.19403e-17
4.47058e-11
-2.06432e-16
2.06317e-10
-9.48894e-16
9.3003e-10
-4.21885e-15
4.08644e-09
-1.86986e-14
1.74591e-08
-7.81129e-14
7.23217e-08
-3.16814e-13
2.89446e-07
-1.2377e-12
1.11439e-06
-4.63256e-12
4.10478e-06
-1.65218e-11
1.43604e-05
-5.56938e-11
4.72431e-05
-1.7554e-10
0.000144039
-5.09297e-10
0.000397901
-1.32964e-09
0.000962333
-3.03418e-09
0.00195801
-5.92637e-09
0.0032956
-1.00923e-08
0.00472575
-1.59958e-08
0.00607981
-2.48597e-08
0.00728861
-3.79639e-08
0.00832742
-5.40179e-08
0.00919254
-6.29264e-08
0.00988649
-5.85524e-08
0.0104222
-3.31376e-08
0.0108201
-1.26862e-08
0.0111088
-3.51806e-08
0.0113018
1.12527e-07
0.0114303
-3.52976e-08
0.0114343
2.5471e-07
0.0114291
3.27844e-07
0.0112741
4.27435e-07
0.0109067
4.89374e-07
0.0102182
4.6997e-07
0.00934691
5.61575e-07
0.00849306
2.77276e-07
0.00781704
2.47506e-07
0.00740437
1.90954e-07
0.00724549
9.3308e-08
0.00712096
4.27026e-08
0.00689443
9.64702e-09
0.00615761
-2.12937e-08
0.00400321
-4.24601e-08
0.00110062
-1.06253e-08
0.000188038
-4.11056e-09
3.03366e-05
-8.07232e-10
4.84943e-06
-1.44611e-10
7.71509e-07
-2.5776e-11
1.22124e-07
-4.57159e-12
1.92213e-08
-8.02887e-13
3.00613e-09
-1.38673e-13
4.66917e-10
-2.38856e-14
7.19932e-11
-4.03822e-15
1.1016e-11
-6.69603e-16
1.67241e-12
-1.06794e-16
2.51873e-13
-1.6263e-17
3.76431e-14
-6.61363e-18
5.58386e-15
-4.33681e-19
8.11634e-16
2.92735e-18
1.35308e-16
-1.84314e-18
1.53957e-17
4.33681e-19
2.60209e-18
0
-6.50521e-19
-2.1684e-19
-2.60209e-18
7.58942e-19
-2.1684e-18
-4.33681e-19
2.60209e-18
-2.1684e-19
3.25261e-18
3.25261e-19
-2.1684e-19
0
6.50521e-19
-1.0842e-19
8.67362e-19
-1.95156e-18
8.67362e-19
7.58942e-19
-2.38524e-18
3.25261e-19
6.50521e-19
-7.58942e-19
1.30104e-18
-1.40946e-18
1.0842e-18
-8.67362e-19
1.73472e-18
-3.03577e-18
5.20417e-18
-3.46945e-18
-5.52943e-18
-2.42861e-17
2.94903e-17
2.77556e-17
3.46945e-18
1.73472e-17
1.56125e-17
-2.08167e-17
2.25514e-17
-1.73472e-17
-5.20417e-18
-2.08167e-17
1.04083e-17
-3.46945e-18
-2.08167e-17
-6.93889e-18
3.46945e-18
3.46945e-18
-1.73472e-17
3.46945e-18
-3.46945e-18
-6.93889e-17
-5.20417e-18
-2.77556e-17
-2.60209e-17
-1.38778e-17
-2.77556e-17
3.46945e-18
-1.04083e-17
-2.77556e-17
1.73472e-18
3.1225e-17
-2.94903e-17
1.11022e-16
-1.73472e-17
5.72459e-16
1.56125e-17
3.06699e-15
-5.20417e-18
1.58727e-14
-1.38778e-17
8.04946e-14
0
4.01724e-13
-1.04083e-17
1.96971e-12
-3.29597e-17
9.47852e-12
-1.73472e-18
4.47034e-11
-1.9082e-17
2.06307e-10
-3.4521e-16
9.29986e-10
-1.39472e-15
4.08626e-09
-5.63959e-15
1.74583e-08
-2.34274e-14
7.23188e-08
-9.3453e-14
2.89435e-07
-3.56899e-13
1.11436e-06
-1.30564e-12
4.10465e-06
-4.53654e-12
1.436e-05
-1.48639e-11
4.72419e-05
-4.54233e-11
0.000144036
-1.27477e-10
0.000397895
-3.21336e-10
0.00096232
-7.0727e-10
0.00195799
-1.33155e-09
0.00329558
-2.18295e-09
0.00472572
-3.33078e-09
0.00607979
-5.05854e-09
0.0072886
-7.88649e-09
0.00832743
-1.2704e-08
0.00919256
-2.00208e-08
0.0098865
-2.79559e-08
0.0104223
-2.77477e-08
0.0108201
-1.13698e-08
0.0111089
-1.41739e-08
0.0113017
9.05468e-09
0.0114302
-1.91434e-08
0.0114341
4.29777e-08
0.0114287
6.21052e-08
0.0112735
9.42832e-08
0.0109061
1.91519e-07
0.0102177
1.89521e-07
0.00934655
2.13568e-07
0.00849261
1.3086e-07
0.0078166
1.1977e-07
0.00740404
1.10242e-07
0.00724526
7.97049e-08
0.00712083
5.74222e-08
0.0068944
3.70268e-08
0.00615766
1.91856e-08
0.00400328
5.97354e-09
0.00110066
1.64612e-09
0.000188048
3.89936e-11
3.03386e-05
-3.58162e-11
4.84979e-06
-7.40044e-12
7.71573e-07
-2.20371e-12
1.22135e-07
-5.35733e-13
1.92233e-08
-1.08798e-13
3.00648e-09
-2.19369e-14
4.66977e-10
-4.25137e-15
7.20032e-11
-7.76072e-16
1.10176e-11
-1.28803e-16
1.67267e-12
-2.7864e-17
2.5192e-13
1.0842e-19
3.76439e-14
-2.05998e-18
5.57453e-15
1.0842e-19
8.21392e-16
-2.1684e-19
1.24466e-16
-6.50521e-19
1.66967e-17
1.19262e-18
4.55365e-18
-9.75782e-19
2.1684e-19
2.92735e-18
2.1684e-18
5.42101e-19
8.67362e-19
1.84314e-18
2.1684e-19
-3.25261e-19
1.51788e-18
-6.50521e-19
2.1684e-18
-3.25261e-19
2.1684e-19
-7.58942e-19
-1.51788e-18
5.42101e-19
-4.33681e-19
2.1684e-19
4.33681e-18
-1.73472e-18
2.1684e-18
0
-8.67362e-19
2.1684e-19
-6.50521e-19
-1.84314e-18
-4.11997e-18
-1.19262e-18
-5.42101e-18
-5.42101e-19
-9.75782e-19
-4.16334e-17
1.56125e-17
-5.55112e-17
1.04083e-17
-4.51028e-17
0
-6.93889e-18
-3.46945e-18
-3.1225e-17
-3.46945e-18
-2.42861e-17
5.20417e-18
-3.46945e-17
-1.56125e-17
0
0
-3.46945e-17
-3.46945e-18
-1.38778e-17
-3.46945e-18
2.77556e-17
-8.67362e-18
2.77556e-17
-1.38778e-17
-6.93889e-18
1.73472e-17
0
-3.46945e-17
1.04083e-17
6.93889e-18
3.46945e-18
-1.73472e-18
0
1.73472e-18
6.41848e-16
-2.60209e-17
3.11556e-15
1.21431e-17
1.58831e-14
-5.20417e-18
8.05155e-14
-2.60209e-17
4.017e-13
1.73472e-18
1.96968e-12
-4.33681e-17
9.47835e-12
3.64292e-17
4.47028e-11
-7.97973e-17
2.06303e-10
-1.56125e-17
9.29972e-10
-3.67761e-16
4.0862e-09
-1.51788e-15
1.74581e-08
-5.94143e-15
7.23179e-08
-2.33858e-14
2.89432e-07
-8.80233e-14
1.11434e-06
-3.15381e-13
4.10461e-06
-1.07518e-12
1.43599e-05
-3.44672e-12
4.72416e-05
-1.02814e-11
0.000144035
-2.80638e-11
0.000397893
-6.85301e-11
0.000962317
-1.45563e-10
0.00195799
-2.6339e-10
0.00329557
-4.09725e-10
0.00472572
-5.76961e-10
0.00607978
-7.92952e-10
0.00728859
-1.13415e-09
0.00832743
-1.75398e-09
0.00919257
-2.91353e-09
0.00988652
-5.00488e-09
0.0104223
-8.06567e-09
0.0108201
-7.86989e-09
0.0111089
-4.0021e-09
0.0113016
-1.02157e-09
0.0114303
-5.67721e-09
0.011434
4.5044e-09
0.0114286
7.29875e-09
0.0112733
1.21227e-08
0.0109059
3.48375e-08
0.0102174
4.27504e-08
0.00934621
5.32206e-08
0.00849228
7.34581e-08
0.00781628
6.57926e-08
0.0074038
2.93832e-08
0.00724508
2.65781e-08
0.00712071
2.71228e-08
0.00689433
2.02563e-08
0.00615761
1.4651e-08
0.00400326
8.7145e-09
0.00110066
3.55305e-09
0.000188048
7.3283e-10
3.03386e-05
1.12409e-10
4.84981e-06
1.33663e-11
7.71578e-07
1.38548e-12
1.22137e-07
9.11718e-14
1.92236e-08
3.72922e-15
3.00653e-09
-9.70903e-16
4.66988e-10
-4.22297e-16
7.20053e-11
-9.55182e-17
1.1018e-11
-2.81893e-17
1.67273e-12
-4.87891e-18
2.51936e-13
-1.84314e-18
3.76461e-14
-1.95156e-18
5.57757e-15
-9.75782e-19
8.16404e-16
-1.95156e-18
1.19696e-16
1.84314e-18
1.71304e-17
-3.25261e-19
1.30104e-18
5.42101e-19
-8.67362e-19
1.84314e-18
6.50521e-19
-1.6263e-18
1.73472e-18
1.0842e-19
2.60209e-18
2.1684e-19
-8.67362e-19
0
-1.0842e-18
-9.75782e-19
8.67362e-19
-3.25261e-19
1.30104e-18
4.33681e-19
2.81893e-18
-6.50521e-19
2.1684e-19
4.33681e-19
-1.30104e-18
-1.0842e-19
-1.51788e-18
-1.51788e-18
-2.60209e-18
1.0842e-19
-3.03577e-18
1.0842e-19
-1.30104e-18
-1.0842e-18
8.67362e-19
-7.63278e-17
-3.46945e-17
-5.55112e-17
-6.93889e-18
-3.46945e-17
-8.67362e-18
-5.55112e-17
3.46945e-18
-5.55112e-17
-1.21431e-17
-2.42861e-17
5.20417e-18
-1.04083e-17
-5.20417e-18
-2.77556e-17
6.93889e-18
-1.38778e-17
5.20417e-18
-2.08167e-17
-8.67362e-18
0
8.67362e-18
1.73472e-17
-3.46945e-18
4.85723e-17
-5.20417e-18
-3.46945e-18
0
1.38778e-17
-5.20417e-18
4.16334e-17
-1.38778e-17
1.21431e-16
3.46945e-18
6.00214e-16
5.20417e-18
3.03577e-15
-8.67362e-18
1.58866e-14
-5.20417e-18
8.05432e-14
1.38778e-17
4.01682e-13
-1.9082e-17
1.96957e-12
3.46945e-18
9.4784e-12
-4.33681e-17
4.47024e-11
2.60209e-17
2.06302e-10
-9.19403e-17
9.29968e-10
-8.84709e-17
4.08618e-09
-3.95517e-16
1.7458e-08
-1.58554e-15
7.23177e-08
-5.45224e-15
2.89431e-07
-1.9337e-14
1.11434e-06
-6.6492e-14
4.1046e-06
-2.19687e-13
1.43599e-05
-6.93955e-13
4.72415e-05
-2.06177e-12
0.000144035
-5.67354e-12
0.000397893
-1.40798e-11
0.000962317
-3.02981e-11
0.00195799
-5.39791e-11
0.00329557
-7.7659e-11
0.00472572
-9.33804e-11
0.00607978
-1.06447e-10
0.00728859
-1.34445e-10
0.00832743
-1.88834e-10
0.00919257
-2.93825e-10
0.00988653
-4.92658e-10
0.0104223
-8.69371e-10
0.0108201
-1.26922e-09
0.0111089
-1.47737e-09
0.0113017
-7.41428e-10
0.0114303
-8.88353e-10
0.011434
2.5071e-10
0.0114285
6.05432e-10
0.0112732
1.23389e-09
0.0109058
4.06342e-09
0.0102173
5.50364e-09
0.00934606
8.49137e-09
0.00849218
1.68931e-08
0.00781618
1.25625e-08
0.0074037
1.46416e-08
0.00724499
1.21051e-08
0.00712064
5.60625e-09
0.00689427
4.31205e-09
0.00615757
3.7199e-09
0.00400324
2.8756e-09
0.00110065
1.57507e-09
0.000188047
3.9861e-10
3.03385e-05
6.6384e-11
4.84979e-06
1.03429e-11
7.71576e-07
1.57502e-12
1.22136e-07
2.43358e-13
1.92236e-08
3.4209e-14
3.00654e-09
3.64162e-15
4.66989e-10
2.704e-16
7.20056e-11
-7.80626e-18
1.10181e-11
-3.68629e-18
1.67275e-12
1.0842e-19
2.51941e-13
-2.81893e-18
3.76446e-14
1.30104e-18
5.57605e-15
-2.05998e-18
8.17055e-16
1.6263e-18
1.24683e-16
1.19262e-18
2.08167e-17
-1.19262e-18
4.33681e-18
-4.33681e-19
2.1684e-18
1.0842e-19
-6.50521e-19
1.19262e-18
-1.73472e-18
4.33681e-19
8.67362e-19
8.67362e-19
8.67362e-19
-5.42101e-19
4.33681e-19
3.25261e-19
8.67362e-19
-1.19262e-18
8.67362e-19
4.33681e-19
-1.73472e-18
7.58942e-19
-1.30104e-18
3.25261e-19
-3.68629e-18
0
-5.63785e-18
3.25261e-19
-4.33681e-18
-5.42101e-19
-3.46945e-18
1.51788e-18
-4.33681e-18
2.05998e-18
4.33681e-18
-3.46945e-17
-1.73472e-17
-2.77556e-17
0
-2.77556e-17
-6.93889e-18
-3.46945e-18
6.93889e-18
1.38778e-17
-1.04083e-17
3.81639e-17
1.38778e-17
-3.46945e-18
3.46945e-18
0
6.93889e-18
1.11022e-16
5.82867e-16
3.06352e-15
1.58137e-14
8.05397e-14
4.01731e-13
1.96967e-12
9.47832e-12
4.47025e-11
2.06302e-10
9.29967e-10
4.08618e-09
1.7458e-08
7.23176e-08
2.89431e-07
1.11434e-06
4.1046e-06
1.43599e-05
4.72415e-05
0.000144035
0.000397892
0.000962316
0.00195799
0.00329557
0.00472572
0.00607978
0.00728859
0.00832743
0.00919257
0.00988653
0.0104223
0.0108201
0.0111089
0.0113017
0.0114303
0.011434
0.0114285
0.0112732
0.0109058
0.0102173
0.00934604
0.00849214
0.00781614
0.00740368
0.00724496
0.00712061
0.00689425
0.00615756
0.00400322
0.00110065
0.000188046
3.03384e-05
4.84978e-06
7.71574e-07
1.22136e-07
1.92235e-08
3.00653e-09
4.66989e-10
7.20056e-11
1.10181e-11
1.67276e-12
2.51935e-13
3.76444e-14
5.57735e-15
8.2421e-16
1.24466e-16
1.77809e-17
7.80626e-18
5.42101e-18
2.1684e-18
2.1684e-18
1.73472e-18
-1.30104e-18
2.1684e-19
1.73472e-18
-1.73472e-18
1.73472e-18
-4.33681e-19
-1.51788e-18
0
-2.38524e-18
-2.1684e-19
2.60209e-18
)
;

boundaryField
{
    sides1
    {
        type            calculated;
        value           nonuniform List<scalar> 
20
(
2.1684e-18
-1.84314e-17
9.75782e-18
-2.1684e-18
1.51788e-18
8.0231e-18
-9.54098e-18
-4.33681e-18
-6.93889e-18
5.85469e-18
-1.07553e-16
-4.85723e-17
-1.04083e-17
-2.77556e-17
1.04083e-17
-2.08167e-17
3.81639e-17
5.20417e-17
1.38778e-16
6.93889e-18
)
;
    }
    sides2
    {
        type            calculated;
        value           uniform 0;
    }
    empty
    {
        type            empty;
        value           nonuniform 0();
    }
}


// ************************************************************************* //
