/*--------------------------------*- C++ -*----------------------------------*\
| =========                 |                                                 |
| \\      /  F ield         | OpenFOAM: The Open Source CFD Toolbox           |
|  \\    /   O peration     | Version:  3.0.1                                 |
|   \\  /    A nd           | Web:      www.OpenFOAM.org                      |
|    \\/     M anipulation  |                                                 |
\*---------------------------------------------------------------------------*/
FoamFile
{
    version     2.0;
    format      ascii;
    class       volScalarField;
    location    "0.0001";
    object      T;
}
// * * * * * * * * * * * * * * * * * * * * * * * * * * * * * * * * * * * * * //

dimensions      [0 0 0 1 0 0 0];

internalField   nonuniform List<scalar> 
1000
(
288.89
288.89
288.89
288.89
288.89
288.89
288.89
288.89
288.89
288.89
288.89
288.89
288.89
288.89
288.89
288.89
288.89
288.89
288.89
288.89
288.89
288.89
288.89
288.89
288.89
288.89
288.89
288.89
288.89
288.89
288.89
288.889
288.886
288.876
288.841
288.724
288.375
287.44
285.309
281.388
275.741
269.06
261.826
254.356
246.808
239.374
232.158
225.23
218.61
212.382
207.004
205.081
205.284
206.246
210.322
221.53
239.414
262.953
288.051
307.931
319.603
322.007
320.584
311.369
287.486
254.336
234.726
231.664
231.19
231.114
231.102
231.1
231.1
231.1
231.1
231.1
231.1
231.1
231.1
231.1
231.1
231.1
231.1
231.1
231.1
231.1
231.1
231.1
231.1
231.1
231.1
231.1
231.1
231.1
231.1
231.1
231.1
231.1
231.1
231.1
288.89
288.89
288.89
288.89
288.89
288.89
288.89
288.89
288.89
288.89
288.89
288.89
288.89
288.89
288.89
288.89
288.89
288.89
288.89
288.89
288.89
288.89
288.89
288.89
288.89
288.89
288.89
288.89
288.89
288.89
288.89
288.889
288.886
288.876
288.841
288.724
288.375
287.44
285.309
281.389
275.741
269.06
261.824
254.353
246.804
239.37
232.154
225.229
218.607
212.386
207.033
205.086
205.286
206.247
210.347
221.581
239.522
263.092
288.156
308.019
319.624
322.017
320.58
311.358
287.469
254.328
234.726
231.664
231.19
231.114
231.102
231.1
231.1
231.1
231.1
231.1
231.1
231.1
231.1
231.1
231.1
231.1
231.1
231.1
231.1
231.1
231.1
231.1
231.1
231.1
231.1
231.1
231.1
231.1
231.1
231.1
231.1
231.1
231.1
231.1
288.89
288.89
288.89
288.89
288.89
288.89
288.89
288.89
288.89
288.89
288.89
288.89
288.89
288.89
288.89
288.89
288.89
288.89
288.89
288.89
288.89
288.89
288.89
288.89
288.89
288.89
288.89
288.89
288.89
288.89
288.89
288.889
288.886
288.876
288.841
288.724
288.375
287.441
285.31
281.389
275.741
269.059
261.822
254.349
246.8
239.366
232.151
225.228
218.604
212.377
207.036
205.078
205.273
206.225
210.287
221.464
239.308
262.799
287.886
307.788
319.526
321.967
320.571
311.381
287.519
254.366
234.733
231.665
231.19
231.114
231.102
231.1
231.1
231.1
231.1
231.1
231.1
231.1
231.1
231.1
231.1
231.1
231.1
231.1
231.1
231.1
231.1
231.1
231.1
231.1
231.1
231.1
231.1
231.1
231.1
231.1
231.1
231.1
231.1
231.1
288.89
288.89
288.89
288.89
288.89
288.89
288.89
288.89
288.89
288.89
288.89
288.89
288.89
288.89
288.89
288.89
288.89
288.89
288.89
288.89
288.89
288.89
288.89
288.89
288.89
288.89
288.89
288.89
288.89
288.89
288.89
288.889
288.886
288.876
288.841
288.724
288.375
287.441
285.311
281.39
275.742
269.059
261.821
254.347
246.797
239.361
232.145
225.221
218.599
212.377
207.026
205.075
205.273
206.224
210.28
221.456
239.3
262.799
287.882
307.774
319.513
321.951
320.563
311.39
287.549
254.396
234.739
231.666
231.19
231.114
231.102
231.1
231.1
231.1
231.1
231.1
231.1
231.1
231.1
231.1
231.1
231.1
231.1
231.1
231.1
231.1
231.1
231.1
231.1
231.1
231.1
231.1
231.1
231.1
231.1
231.1
231.1
231.1
231.1
231.1
288.89
288.89
288.89
288.89
288.89
288.89
288.89
288.89
288.89
288.89
288.89
288.89
288.89
288.89
288.89
288.89
288.89
288.89
288.89
288.89
288.89
288.89
288.89
288.89
288.89
288.89
288.89
288.89
288.89
288.89
288.89
288.889
288.886
288.876
288.841
288.724
288.375
287.441
285.311
281.391
275.743
269.059
261.821
254.347
246.796
239.359
232.141
225.215
218.591
212.37
207.021
205.07
205.269
206.223
210.285
221.462
239.313
262.813
287.897
307.782
319.515
321.95
320.561
311.393
287.56
254.411
234.743
231.667
231.19
231.114
231.102
231.1
231.1
231.1
231.1
231.1
231.1
231.1
231.1
231.1
231.1
231.1
231.1
231.1
231.1
231.1
231.1
231.1
231.1
231.1
231.1
231.1
231.1
231.1
231.1
231.1
231.1
231.1
231.1
231.1
288.89
288.89
288.89
288.89
288.89
288.89
288.89
288.89
288.89
288.89
288.89
288.89
288.89
288.89
288.89
288.89
288.89
288.89
288.89
288.89
288.89
288.89
288.89
288.89
288.89
288.89
288.89
288.89
288.89
288.89
288.89
288.889
288.886
288.876
288.841
288.724
288.375
287.441
285.311
281.391
275.743
269.06
261.822
254.347
246.796
239.359
232.141
225.213
218.588
212.364
207.013
205.063
205.262
206.218
210.283
221.459
239.312
262.816
287.902
307.787
319.517
321.951
320.562
311.395
287.565
254.415
234.744
231.667
231.19
231.114
231.102
231.1
231.1
231.1
231.1
231.1
231.1
231.1
231.1
231.1
231.1
231.1
231.1
231.1
231.1
231.1
231.1
231.1
231.1
231.1
231.1
231.1
231.1
231.1
231.1
231.1
231.1
231.1
231.1
231.1
288.89
288.89
288.89
288.89
288.89
288.89
288.89
288.89
288.89
288.89
288.89
288.89
288.89
288.89
288.89
288.89
288.89
288.89
288.89
288.89
288.89
288.89
288.89
288.89
288.89
288.89
288.89
288.89
288.89
288.89
288.89
288.889
288.886
288.876
288.841
288.724
288.375
287.441
285.311
281.391
275.743
269.06
261.822
254.348
246.796
239.359
232.141
225.213
218.588
212.362
207.01
205.059
205.258
206.214
210.28
221.456
239.31
262.816
287.903
307.788
319.517
321.95
320.561
311.395
287.565
254.416
234.744
231.667
231.19
231.114
231.102
231.1
231.1
231.1
231.1
231.1
231.1
231.1
231.1
231.1
231.1
231.1
231.1
231.1
231.1
231.1
231.1
231.1
231.1
231.1
231.1
231.1
231.1
231.1
231.1
231.1
231.1
231.1
231.1
231.1
288.89
288.89
288.89
288.89
288.89
288.89
288.89
288.89
288.89
288.89
288.89
288.89
288.89
288.89
288.89
288.89
288.89
288.89
288.89
288.89
288.89
288.89
288.89
288.89
288.89
288.89
288.89
288.89
288.89
288.89
288.89
288.889
288.886
288.876
288.841
288.724
288.375
287.441
285.311
281.391
275.743
269.06
261.822
254.348
246.797
239.36
232.141
225.213
218.588
212.362
207.01
205.058
205.257
206.212
210.277
221.453
239.308
262.814
287.9
307.787
319.516
321.95
320.56
311.395
287.565
254.416
234.744
231.667
231.19
231.114
231.102
231.1
231.1
231.1
231.1
231.1
231.1
231.1
231.1
231.1
231.1
231.1
231.1
231.1
231.1
231.1
231.1
231.1
231.1
231.1
231.1
231.1
231.1
231.1
231.1
231.1
231.1
231.1
231.1
231.1
288.89
288.89
288.89
288.89
288.89
288.89
288.89
288.89
288.89
288.89
288.89
288.89
288.89
288.89
288.89
288.89
288.89
288.89
288.89
288.89
288.89
288.89
288.89
288.89
288.89
288.89
288.89
288.89
288.89
288.89
288.89
288.889
288.886
288.876
288.841
288.724
288.375
287.441
285.311
281.391
275.743
269.06
261.822
254.348
246.797
239.36
232.141
225.213
218.588
212.362
207.01
205.058
205.256
206.211
210.276
221.452
239.307
262.813
287.9
307.786
319.515
321.949
320.56
311.394
287.564
254.416
234.744
231.667
231.19
231.114
231.102
231.1
231.1
231.1
231.1
231.1
231.1
231.1
231.1
231.1
231.1
231.1
231.1
231.1
231.1
231.1
231.1
231.1
231.1
231.1
231.1
231.1
231.1
231.1
231.1
231.1
231.1
231.1
231.1
231.1
288.89
288.89
288.89
288.89
288.89
288.89
288.89
288.89
288.89
288.89
288.89
288.89
288.89
288.89
288.89
288.89
288.89
288.89
288.89
288.89
288.89
288.89
288.89
288.89
288.89
288.89
288.89
288.89
288.89
288.89
288.89
288.889
288.886
288.876
288.841
288.724
288.375
287.441
285.311
281.391
275.743
269.06
261.822
254.348
246.797
239.36
232.141
225.213
218.588
212.362
207.01
205.058
205.256
206.211
210.276
221.452
239.307
262.813
287.899
307.786
319.515
321.949
320.56
311.394
287.564
254.416
234.744
231.667
231.19
231.114
231.102
231.1
231.1
231.1
231.1
231.1
231.1
231.1
231.1
231.1
231.1
231.1
231.1
231.1
231.1
231.1
231.1
231.1
231.1
231.1
231.1
231.1
231.1
231.1
231.1
231.1
231.1
231.1
231.1
231.1
)
;

boundaryField
{
    sides1
    {
        type            zeroGradient;
    }
    sides2
    {
        type            slip;
    }
    empty
    {
        type            empty;
    }
}


// ************************************************************************* //
