# vtk DataFile Version 2.0
gauge_2
ASCII
DATASET POLYDATA
POINTS 43 double
0.2 0.0359992 0.005
0.2 0.0419991 0.005
0.2 0.047999 0.005
0.2 0.0607609 0.005
0.2 0.0735228 0.005
0.2 0.0862847 0.005
0.2 0.0990467 0.005
0.2 0.111809 0.005
0.2 0.124571 0.005
0.2 0.137332 0.005
0.2 0.150094 0.005
0.2 0.162856 0.005
0.2 0.175618 0.005
0.2 0.18838 0.005
0.2 0.201142 0.005
0.2 0.213904 0.005
0.2 0.226666 0.005
0.2 0.239428 0.005
0.2 0.25219 0.005
0.2 0.264952 0.005
0.2 0.277714 0.005
0.2 0.290476 0.005
0.2 0.303238 0.005
0.2 0.315999 0.005
0.2 0.328761 0.005
0.2 0.341523 0.005
0.2 0.354285 0.005
0.2 0.367047 0.005
0.2 0.379809 0.005
0.2 0.392571 0.005
0.2 0.405333 0.005
0.2 0.418095 0.005
0.2 0.430857 0.005
0.2 0.443619 0.005
0.2 0.456381 0.005
0.2 0.469143 0.005
0.2 0.481905 0.005
0.2 0.494666 0.005
0.2 0.507428 0.005
0.2 0.52019 0.005
0.2 0.532952 0.005
0.2 0.545714 0.005
0.2 0.558476 0.005
POINT_DATA 43
 FIELD attributes 1
alpha.water 1 43 float
1 1 0.999998 0.880712 0.449379 0.082051 0.0220096 0.0479327 0.128175 0.158364 0.0695017 5.06379e-06 9.2781e-06 3.11973e-05 0.000125483 0.00022959 0.000179063 5.24297e-05 9.04668e-07 6.52015e-09 4.77126e-10 1.44477e-10 1.28185e-10 1.07066e-10 6.74018e-11 3.04766e-11 9.48051e-12 1.91029e-12 2.30802e-13 1.8041e-14 1.15153e-15 7.02799e-17 4.14479e-18 2.3056e-19 1.20346e-20 5.90104e-22 2.71042e-23 1.16867e-24 4.76953e-26 1.84186e-27 6.71697e-29 2.31783e-30 7.60025e-32
