/*--------------------------------*- C++ -*----------------------------------*\
| =========                 |                                                 |
| \\      /  F ield         | OpenFOAM: The Open Source CFD Toolbox           |
|  \\    /   O peration     | Version:  2012                                  |
|   \\  /    A nd           | Website:  www.openfoam.com                      |
|    \\/     M anipulation  |                                                 |
\*---------------------------------------------------------------------------*/
FoamFile
{
    version     2.0;
    format      ascii;
    class       volScalarField;
    location    "0.56";
    object      minKappa;
}
// * * * * * * * * * * * * * * * * * * * * * * * * * * * * * * * * * * * * * //

dimensions      [0 0 0 0 0 0 0];


internalField   nonuniform List<scalar> 
2268
(
3.73471e-07
9.37192e-07
1.48179e-06
1.98946e-06
2.42176e-06
2.87363e-06
3.40261e-06
3.67823e-06
3.98223e-06
4.22344e-06
4.31275e-06
4.37195e-06
4.35269e-06
4.31041e-06
4.20858e-06
4.01333e-06
3.7919e-06
3.4893e-06
3.16747e-06
2.74535e-06
2.16931e-06
1.58207e-06
8.35469e-07
3.73471e-07
9.37192e-07
1.48179e-06
1.98946e-06
2.42176e-06
2.87363e-06
3.40261e-06
3.67823e-06
3.98223e-06
4.22344e-06
4.31275e-06
4.37195e-06
4.35269e-06
4.31041e-06
4.20858e-06
4.01333e-06
3.7919e-06
3.4893e-06
3.16747e-06
2.74535e-06
2.16931e-06
1.58207e-06
8.35469e-07
5.87098e-07
1.05859e-06
1.54983e-06
2.0456e-06
2.47364e-06
2.93153e-06
3.42648e-06
3.69408e-06
4.00873e-06
4.24724e-06
4.32249e-06
4.4049e-06
4.39987e-06
4.33555e-06
4.2278e-06
4.03278e-06
3.83296e-06
3.55219e-06
3.25478e-06
2.84046e-06
2.27091e-06
1.67512e-06
9.71188e-07
8.29516e-07
1.24069e-06
1.65985e-06
2.13219e-06
2.55384e-06
3.02174e-06
3.4683e-06
3.72979e-06
4.06711e-06
4.27397e-06
4.37326e-06
4.45152e-06
4.4475e-06
4.35758e-06
4.23875e-06
4.04964e-06
3.87132e-06
3.61398e-06
3.3353e-06
2.98285e-06
2.47959e-06
2.09028e-06
1.45523e-06
1.08607e-06
1.4662e-06
1.80871e-06
2.24737e-06
2.66053e-06
3.1392e-06
3.5269e-06
3.78701e-06
4.14471e-06
4.31401e-06
4.43836e-06
4.51155e-06
4.50575e-06
4.40397e-06
4.29022e-06
4.09182e-06
3.93224e-06
3.69807e-06
3.45004e-06
3.14685e-06
2.71495e-06
2.50681e-06
1.9088e-06
1.35554e-06
1.70846e-06
1.98409e-06
2.38427e-06
2.79006e-06
3.27694e-06
3.60594e-06
3.87981e-06
4.25268e-06
4.3806e-06
4.51721e-06
4.59136e-06
4.56936e-06
4.45092e-06
4.3373e-06
4.12762e-06
3.98293e-06
3.78213e-06
3.57459e-06
3.34966e-06
2.98227e-06
3.01022e-06
2.53162e-06
1.64232e-06
1.95994e-06
2.18709e-06
2.54792e-06
2.94885e-06
3.4329e-06
3.70835e-06
4.00549e-06
4.37129e-06
4.45415e-06
4.61437e-06
4.68252e-06
4.66227e-06
4.53102e-06
4.42349e-06
4.18317e-06
4.04319e-06
3.87147e-06
3.72293e-06
3.58446e-06
3.31396e-06
3.57726e-06
3.18616e-06
1.95846e-06
2.23255e-06
2.42754e-06
2.7514e-06
3.14998e-06
3.61098e-06
3.84636e-06
4.17502e-06
4.49945e-06
4.55565e-06
4.76006e-06
4.78282e-06
4.77661e-06
4.6164e-06
4.51244e-06
4.23787e-06
4.09976e-06
3.96188e-06
3.87915e-06
3.82931e-06
3.64363e-06
4.1953e-06
4.08032e-06
0.00103364
0.000901335
0.00105645
0.000755088
0.000613792
0.000617112
0.000462714
0.000581964
0.00052864
0.000500264
0.000490769
0.000473554
0.000456534
0.0004245
0.000401031
0.000375914
0.000347809
0.000248189
0.000154678
0.00103364
0.000784784
0.000686153
0.000390714
0.000601571
0.000617112
0.000462714
0.000581964
0.00052864
0.000500264
0.000490769
0.000473554
0.000456534
0.0004245
0.000401031
0.000375914
0.000347809
0.000244798
0.000154678
0.00123864
0.000636574
0.000437458
0.000390714
0.000592337
0.000452016
0.0013127
0.000637398
0.000609818
0.00082762
0.000739538
0.000839234
0.00103905
0.000893248
0.000648916
0.00055438
0.000479804
0.000244798
0.000174272
0.00148441
0.000384304
0.000333215
0.000396775
0.000357256
0.000107059
0.000550137
0.00160287
0.00111232
0.000848423
0.000718146
0.000852086
0.00110501
0.00108133
0.00115394
0.00120298
0.000858352
0.000522852
0.000206407
0.00138815
0.000384304
0.000278966
0.000523328
0.000185089
3.7433e-05
0.00019671
0.000924108
0.00198979
0.00162907
0.000718146
0.000614349
0.000613325
0.000539219
0.000590846
0.000663795
0.00099267
0.000824192
0.000320783
0.00138815
0.000409901
0.000278966
0.000531238
0.000107439
3.37366e-05
0.000123774
0.000598452
0.00116645
0.00203225
0.00098578
0.000614349
0.000322687
0.00024877
0.000196693
0.000255417
0.000653163
0.00103541
0.000350025
0.00143841
0.000796398
0.000434555
0.000400178
5.12991e-05
3.34663e-05
0.000122671
0.00055519
0.000853613
0.00166571
0.00151049
0.000619384
0.000287756
0.000168146
0.000107253
0.000159245
0.000470322
0.00101549
0.000294731
0.00166493
0.00106422
0.000531319
0.000172837
4.64355e-05
3.34663e-05
0.000149034
0.00055519
0.000853613
0.00166571
0.00169903
0.000815964
0.000287756
0.000168146
0.000107253
0.000159245
0.000470322
0.00100911
0.000294731
5.67684e-06
6.15047e-06
6.46512e-06
7.01247e-06
7.68643e-06
8.33234e-06
8.36024e-06
8.66017e-06
8.55495e-06
8.0703e-06
8.07521e-06
7.83011e-06
7.73162e-06
7.40369e-06
7.24922e-06
6.7499e-06
6.53067e-06
6.34198e-06
6.43013e-06
6.51038e-06
6.83118e-06
8.15448e-06
9.74599e-06
7.7485e-05
7.80207e-05
7.99547e-05
8.32185e-05
8.57666e-05
8.58788e-05
8.12982e-05
7.88843e-05
6.84085e-05
4.77849e-05
3.49769e-05
2.63303e-05
2.07505e-05
1.51918e-05
1.00443e-05
9.04502e-06
8.70621e-06
8.70621e-06
8.74916e-06
8.89947e-06
9.87011e-06
1.133e-05
1.33187e-05
0.000154591
0.000143021
0.00014374
0.000137303
0.000120909
9.9484e-05
7.81077e-05
7.12332e-05
0.000104809
0.000155224
0.000197193
9.05754e-05
8.20788e-05
6.76664e-05
2.48373e-05
2.01688e-05
1.57811e-05
1.00478e-05
9.67621e-06
9.71307e-06
1.09502e-05
1.20854e-05
1.31207e-05
0.000140976
0.00013437
0.000127748
0.000112261
8.69871e-05
5.44043e-05
3.35579e-05
3.35579e-05
4.31139e-05
9.75653e-05
0.00012764
0.000246303
0.000144232
0.000202021
5.86832e-05
2.72144e-05
2.72144e-05
1.48208e-05
1.66355e-05
1.56005e-05
1.44706e-05
1.43189e-05
1.33289e-05
0.000145187
0.000141243
0.000136377
0.000131535
0.000120097
0.000101482
7.44274e-05
6.51016e-05
6.09709e-05
7.73374e-05
0.000140571
0.000112866
0.00015931
0.000145189
0.000109695
4.25323e-05
0.00012157
0.000195664
9.2128e-05
7.02564e-05
3.68243e-05
2.9068e-05
3.0734e-05
0.00013114
0.000125887
0.000118517
0.00010777
9.25871e-05
7.54049e-05
5.87541e-05
4.68655e-05
4.29167e-05
4.29167e-05
6.53955e-05
0.000102925
5.56668e-05
0.000141202
0.000126284
0.000132439
0.000217264
0.000192255
0.000165317
0.000125693
0.000150227
0.000205719
0.000175188
0.000139424
0.000136984
0.000131661
0.000126247
0.000113873
0.000102335
8.43472e-05
7.46117e-05
6.33821e-05
6.4766e-05
7.44964e-05
4.94733e-05
4.94733e-05
5.37318e-05
8.18507e-05
8.07345e-05
0.000165461
0.000225282
0.000192794
0.000206026
0.000219723
0.000224047
0.000142058
0.000128925
0.000125164
0.000119886
0.000112631
0.000103089
9.29996e-05
8.26554e-05
7.60461e-05
7.41054e-05
7.41054e-05
7.7035e-05
8.01343e-05
6.32987e-05
9.32906e-05
7.98371e-05
7.98371e-05
8.26726e-05
0.000111229
0.000117748
0.00012413
0.000140231
0.000205672
0.000158607
0.000139116
0.000136936
0.000132438
0.000128395
0.000119187
0.000112573
0.000101195
9.49913e-05
8.84795e-05
8.73052e-05
8.79896e-05
8.26302e-05
8.00083e-05
8.0275e-05
8.74264e-05
8.0956e-05
0.000104419
0.000103186
7.46548e-05
5.64474e-05
5.64474e-05
7.56223e-05
8.80396e-05
0.000136898
0.000134465
0.00013095
0.000126107
0.000120463
0.000114882
0.000109419
0.00010522
0.000102784
0.000102419
9.78154e-05
0.000101255
8.97325e-05
0.000101702
9.76958e-05
9.59376e-05
0.000100116
0.000101387
9.21022e-05
8.43447e-05
5.88825e-05
4.67175e-05
4.31813e-05
0.000146501
0.000145547
0.000141829
0.000139574
0.000132659
0.000129551
0.000122176
0.000119313
0.000113802
0.000114504
0.000109289
0.000116819
0.000109077
0.000117537
0.000112149
0.000111361
0.000109081
9.89857e-05
7.55545e-05
4.63112e-05
2.4403e-05
2.4403e-05
3.6835e-05
0.000151608
0.000149982
0.000147934
0.000145017
0.000141704
0.000138613
0.000134649
0.00013237
0.000127424
0.00012856
0.000122739
0.000128205
0.000121815
0.000129735
0.000124269
0.000125779
0.000118673
0.000108759
9.43253e-05
7.70196e-05
4.61506e-05
2.9277e-05
4.56739e-05
0.000160877
0.000160446
0.000157695
0.00015688
0.000152128
0.000150748
0.000146152
0.000144457
0.000140194
0.000141456
0.000136162
0.000141314
0.000134477
0.000139933
0.000133082
0.000132888
0.000125336
0.000115421
0.00010166
8.87365e-05
7.31279e-05
5.93901e-05
8.12019e-05
0.000171129
0.000171031
0.000168617
0.000168398
0.000164278
0.000163458
0.000159585
0.000158427
0.000154535
0.000155818
0.000150506
0.00015451
0.000147728
0.000152731
0.000144784
0.000147042
0.000137114
0.000133964
0.000120056
0.00011224
0.000102321
0.000104771
0.000132529
0.000181308
0.000181406
0.000179372
0.000179374
0.000176174
0.00017536
0.000172721
0.00017152
0.000168696
0.000169945
0.000165351
0.000169653
0.000163071
0.000168823
0.000160299
0.000164591
0.000154715
0.000155855
0.000145799
0.000146214
0.000144107
0.000156758
0.000177338
0.000194107
0.000194418
0.000192477
0.000192784
0.000190145
0.000189618
0.000187709
0.000186783
0.000184769
0.000185899
0.000182212
0.000186116
0.000180517
0.000186444
0.000178845
0.000185227
0.000176669
0.000182482
0.000175773
0.000183424
0.000187011
0.000207958
0.000210544
0.000207344
0.000207777
0.000206102
0.000206475
0.00020463
0.000204143
0.000203304
0.000202416
0.000201565
0.000202663
0.000200195
0.000204387
0.000199987
0.000206936
0.000200401
0.000209669
0.000202225
0.000213532
0.000209209
0.000225086
0.000231923
0.000261183
0.000258463
0.000222504
0.000223083
0.000221533
0.000222006
0.000220688
0.000220422
0.000220321
0.000219648
0.000219872
0.000220995
0.000220117
0.000224316
0.000221856
0.000229296
0.000224939
0.000236415
0.000231187
0.000247189
0.000245253
0.000268315
0.000277433
0.000315058
0.00029244
0.000238602
0.000239263
0.000237832
0.000238245
0.000237494
0.000237369
0.000238121
0.000237666
0.000239224
0.000240619
0.000241535
0.000246151
0.000245858
0.000253994
0.000252279
0.000265617
0.000263
0.000282879
0.000283242
0.000311896
0.000322687
0.000366028
0.000334038
0.000255666
0.00025636
0.000255069
0.00025545
0.000255123
0.000255236
0.000256567
0.000256494
0.000259275
0.000260907
0.000263834
0.000268784
0.000271244
0.000279935
0.00028196
0.000296473
0.000297894
0.000320478
0.000324501
0.000357121
0.000370736
0.00041611
0.000370307
0.00027336
0.000273871
0.000272909
0.000273144
0.000273193
0.00027342
0.000275223
0.00027552
0.000279365
0.00028136
0.00028628
0.000291864
0.000297141
0.000306771
0.00031281
0.000328372
0.000334433
0.000358817
0.000367023
0.000402054
0.000418662
0.000463635
0.000406569
0.000290944
0.000291031
0.000290538
0.000290554
0.000290769
0.000291099
0.000293159
0.000293857
0.000298455
0.000300826
0.000307595
0.000313663
0.000321853
0.000332394
0.000342766
0.000359335
0.000371138
0.000396956
0.000411045
0.000448783
0.000469788
0.000518703
0.000449426
0.000307976
0.000307582
0.000307741
0.000307506
0.000308017
0.00030846
0.000310718
0.000311733
0.000316646
0.000319192
0.000326952
0.000333211
0.000343549
0.000354901
0.000369177
0.000386961
0.000404751
0.000431483
0.000453329
0.000490253
0.000519713
0.000565071
0.000486286
0.000323708
0.000322933
0.000323548
0.000323021
0.000323697
0.000324124
0.00032632
0.00032745
0.000332261
0.000334784
0.000343008
0.000349355
0.000360919
0.000373696
0.000390129
0.000409905
0.000433284
0.000461705
0.000492495
0.000531336
0.000567719
0.000618865
0.000534026
0.000337815
0.00033696
0.00033787
0.000337321
0.000338388
0.000339006
0.000341447
0.000342944
0.000347905
0.000350831
0.000359371
0.00036586
0.000378703
0.000391269
0.000407489
0.000426326
0.000449678
0.000478278
0.000511715
0.000552897
0.000596671
0.000650244
0.000563949
0.000350225
0.000349443
0.000350385
0.000349903
0.000351209
0.000351931
0.00035454
0.000356317
0.000361057
0.000364693
0.000371305
0.000379024
0.000389131
0.000402225
0.000418701
0.000439127
0.000464991
0.000496494
0.000534577
0.000580003
0.00063036
0.000692408
0.000607122
0.000360662
0.000360004
0.000360969
0.000360787
0.000362501
0.000363654
0.000366893
0.000369479
0.000375364
0.000379795
0.000389256
0.000396834
0.000410718
0.000423563
0.000443537
0.000463298
0.00048703
0.000515524
0.000550625
0.000592678
0.000642658
0.000705513
0.000622133
0.000369552
0.000369021
0.000369978
0.000370056
0.000372043
0.000373725
0.000376359
0.000379928
0.000384912
0.000391053
0.000398993
0.000408557
0.000420286
0.000434351
0.000451353
0.000472018
0.000497616
0.000528259
0.000566188
0.0006111
0.000665984
0.000731972
0.000651449
0.000376639
0.000376195
0.00037723
0.000377636
0.000380175
0.000382349
0.000387132
0.000391534
0.000399488
0.000406598
0.000418459
0.000429135
0.000445531
0.000460862
0.000482821
0.00050449
0.000534804
0.000565356
0.000601845
0.000642548
0.000692835
0.000751505
0.000664262
0.000382142
0.000382009
0.000382366
0.000383035
0.000384753
0.000387548
0.000391728
0.000397291
0.000404604
0.000413553
0.00042453
0.000437442
0.000452595
0.000469962
0.000490122
0.00051348
0.000540949
0.000573248
0.000612507
0.000658818
0.000715474
0.000779372
0.000700268
0.0003867
0.00038639
0.000387574
0.000388487
0.000392048
0.000395323
0.00040196
0.000408347
0.000418862
0.000429003
0.000444046
0.000458656
0.000478762
0.000498474
0.000524697
0.000551187
0.000585787
0.000621253
0.000667242
0.000713624
0.000767648
0.000824723
0.000726395
0.000388331
0.000388331
0.000388657
0.000389646
0.000392078
0.000395802
0.000401278
0.000408474
0.000417775
0.000429178
0.000442968
0.000459217
0.000478064
0.00049964
0.000524251
0.000552273
0.000584306
0.000620987
0.000663679
0.000713591
0.000773541
0.000843345
0.000763336
0.000391663
0.00039152
0.000392484
0.000394123
0.000397309
0.000401928
0.000408495
0.000416984
0.000427878
0.000441179
0.000457328
0.000476402
0.000498737
0.000524578
0.000554465
0.000588985
0.000629447
0.000672569
0.000726284
0.000783414
0.000852214
0.000924334
0.000813389
0.000389732
0.000389732
0.000390188
0.000391382
0.000394119
0.000398193
0.000404215
0.000412017
0.000422134
0.000434477
0.00044956
0.000467337
0.000488263
0.000512489
0.000540696
0.000573606
0.000612186
0.000657099
0.000708733
0.000767516
0.00083357
0.000915325
0.000846947
0.000391037
0.000390777
0.000392183
0.000393345
0.00039699
0.000401456
0.000408071
0.000416562
0.000427571
0.000440953
0.000457256
0.000476458
0.000499183
0.000525568
0.000556894
0.000594094
0.000639487
0.000694029
0.000760623
0.000840123
0.000932785
0.0010388
0.000944051
0.000387039
0.000387039
0.000387394
0.000388374
0.00039077
0.000394322
0.000399689
0.000406695
0.000415961
0.000427341
0.000441262
0.000457502
0.000476685
0.000499125
0.000526406
0.000559789
0.000602039
0.000654997
0.00072218
0.0008063
0.000913675
0.00104259
0.000994432
0.000386599
0.000386101
0.000387019
0.000387558
0.000391129
0.000393729
0.000400605
0.00040599
0.000416601
0.000425239
0.000439968
0.000452293
0.00047142
0.000488814
0.000516773
0.00054634
0.000596086
0.000659497
0.000746363
0.000863622
0.00103216
0.00124033
0.00125805
0.000381686
0.000381608
0.000381608
0.0003819
0.000383371
0.000385712
0.00038951
0.00039445
0.000400948
0.000408661
0.000417824
0.000428334
0.000440574
0.000454947
0.000473235
0.000497052
0.000531739
0.000585524
0.00067115
0.000820735
0.00103682
0.00128703
0.00134298
0.00038058
0.000379745
0.000380011
0.000379619
0.000381866
0.000382808
0.000387416
0.000389971
0.000396724
0.000400538
0.000408507
0.000412384
0.000420135
0.000423102
0.000433623
0.000445076
0.000483036
0.000554605
0.000650205
0.00082022
0.00111137
0.00147375
0.00150177
0.000375255
0.000374709
0.000374184
0.000374184
0.000374441
0.000375156
0.000376799
0.000378961
0.000381829
0.000384889
0.000387996
0.000389547
0.00039019
0.000383668
0.000381058
0.000377559
0.000406407
0.0004779
0.00059411
0.000807172
0.00110272
0.00143188
0.00151881
0.000373995
0.000372854
0.000372458
0.000371102
0.000371915
0.000371069
0.000373229
0.000372858
0.000375667
0.000374703
0.00037624
0.00037195
0.000368742
0.000357154
0.000349556
0.000342714
0.000359699
0.000428177
0.00066327
0.00110423
0.00150432
0.00177101
0.00161737
0.000368899
0.000367848
0.00036652
0.000365614
0.00036478
0.00036441
0.000364075
0.000363856
0.000363155
0.000361694
0.000358513
0.000353229
0.000344697
0.000335795
0.000332668
0.000332668
0.000371697
0.000551138
0.000975907
0.0014783
0.00177572
0.00183147
0.00163018
7.50424e-06
6.36287e-06
5.1061e-06
5.1061e-06
9.01981e-06
9.01981e-06
9.68202e-06
1.02854e-05
9.01233e-06
9.01233e-06
9.60709e-06
1.02173e-05
9.12413e-06
9.12413e-06
9.83757e-06
1.05528e-05
3.36542e-05
3.61985e-05
3.91206e-05
4.09863e-05
0.000127173
0.000127173
0.000130227
0.000130227
6.07394e-05
6.07394e-05
8.26159e-05
0.000158513
0.000100297
0.000100297
9.97905e-05
9.97905e-05
5.33569e-05
5.33569e-05
5.86957e-05
6.91243e-05
3.40789e-05
3.40789e-05
3.73945e-05
3.77545e-05
4.26154e-05
4.26154e-05
5.26448e-05
6.1074e-05
5.40196e-05
5.40196e-05
7.23528e-05
9.37499e-05
7.95568e-05
7.95568e-05
9.81252e-05
0.000120387
9.87932e-05
9.87932e-05
0.000114109
0.000132897
0.000127675
0.000127675
0.000143862
0.000163381
0.000147819
0.000147819
0.00016245
0.000179355
0.000179271
0.000179271
0.000195032
0.00021245
0.000200546
0.000200546
0.000215304
0.000231244
0.000227589
0.000227589
0.000242678
0.000258732
0.000250367
0.000250367
0.000264772
0.0002801
0.000273214
0.000273214
0.00028697
0.000301512
0.000300471
0.000300471
0.000313726
0.00032765
0.000324
0.000324
0.00033675
0.000349854
0.000355567
0.000355567
0.000369007
0.000382586
0.00037584
0.00037584
0.000390212
0.000404646
0.000405617
0.000405617
0.000422083
0.000438506
0.000417003
0.000417003
0.000435669
0.000454261
0.000438656
0.000438656
0.000460191
0.000481464
0.000447658
0.000447658
0.000469163
0.00049114
0.000471643
0.000471643
0.000494082
0.000518686
0.000486384
0.000486384
0.000509248
0.000534776
0.00051451
0.00051451
0.00054371
0.00057394
0.000547631
0.000547631
0.000577851
0.000609716
0.000576398
0.000576398
0.00061089
0.000643443
0.000626979
0.000626979
0.000643853
0.00065287
0.000675651
0.000675651
0.000709984
0.000738054
0.000854111
0.000854111
0.000887128
0.000908711
0.000921037
0.000921037
0.00096955
0.00100884
0.00101716
0.00101716
0.00106074
0.00109509
0.00104223
0.00104223
0.00109097
0.00112998
0.00109514
0.00109514
0.00113947
0.00117528
0.00110938
0.00110938
0.00115777
0.00119469
1.29831e-05
6.0085e-05
9.31711e-05
6.83948e-05
4.64355e-05
5.13825e-05
0.000181767
0.000924921
0.00105593
0.00209721
0.00276778
0.00154245
0.000530326
0.000218929
0.000162666
0.00033848
0.000711193
0.000890805
0.000471519
1.87547e-05
2.69042e-05
3.15784e-05
3.59595e-05
4.07492e-05
6.51139e-05
0.000350596
0.0010972
0.000905806
0.00185833
0.0036192
0.00210454
0.000652206
0.000221376
0.00036807
0.000681777
0.000822918
0.000919783
0.000589677
1.79711e-05
2.65102e-05
2.94211e-05
3.1188e-05
3.24888e-05
5.99439e-05
0.000405898
0.00115786
0.000565547
0.00195636
0.00365741
0.00217499
0.000953674
0.000346575
0.000628465
0.000702163
0.000763155
0.000733637
0.000413189
1.86928e-05
2.65102e-05
2.94211e-05
2.93271e-05
2.46613e-05
4.38451e-05
0.000324047
0.000915257
0.000547428
0.0016957
0.00329425
0.00212265
0.00112546
0.000643007
0.000755519
0.000601626
0.000676101
0.000573784
0.000278145
4.24419e-05
4.34113e-05
3.89016e-05
2.86271e-05
2.31055e-05
2.30655e-05
0.000127119
0.00100376
0.000547428
0.00187664
0.00263095
0.00201663
0.00130911
0.00085119
0.000761286
0.000428941
0.000611361
0.00041985
0.000195104
0.000195312
0.000216808
0.000192424
7.2584e-05
2.31055e-05
1.00121e-05
4.17155e-05
0.000576727
0.000931926
0.00160984
0.00203178
0.00159078
0.00125626
0.000873107
0.000529268
0.000282837
0.000485554
0.000318374
0.000144056
0.000331658
0.000483467
0.0004782
0.000230481
2.24387e-05
6.20819e-06
1.2715e-05
0.000269755
0.00108427
0.00117068
0.00165642
0.00122189
0.00115321
0.000864235
0.000574642
0.000282837
0.000522827
0.000249974
0.000102854
0.000138989
0.000245113
0.000372915
0.000579238
0.000276058
6.20819e-06
1.86486e-05
7.88404e-05
0.000661776
0.0010792
0.00116832
0.00081388
0.000771917
0.00083442
0.000707972
0.000400362
0.000731302
0.000184188
6.21494e-05
0.000147586
0.000173233
9.08518e-05
0.000221551
0.000552956
0.000217058
3.85667e-05
0.000113819
0.000214078
0.000858148
0.000655651
0.00053842
0.000539827
0.000730911
0.000725105
0.000744642
0.000644702
8.44553e-05
3.42043e-05
5.21314e-05
6.05307e-05
7.70546e-05
7.70546e-05
0.000191115
0.000492858
0.000147694
0.000130664
0.000192904
0.000238267
0.000244466
0.00024587
0.00029009
0.000393725
0.000524361
0.000352614
9.51605e-05
3.40069e-05
1.77652e-05
9.53777e-05
0.000111068
0.000122846
0.000249395
0.000428695
0.000706317
0.000568649
0.000232887
0.000220029
0.000195423
0.000118569
0.000138917
0.000216066
0.000281649
0.000294175
0.000188048
0.000111529
3.55821e-05
1.77652e-05
0.000196132
0.000317105
0.000429266
0.000951202
0.00115044
0.00137365
0.00133505
0.000797153
0.000429841
0.000223025
0.000118558
0.000118558
0.00023847
0.000360747
0.000385172
0.000274887
0.000184111
6.37322e-05
1.93756e-05
0.000250916
0.000562909
0.000900607
0.00130213
0.00142654
0.00184964
0.00094321
0.00070597
0.000537826
0.000362394
0.000223674
0.000234346
0.000214298
0.00032934
0.000220562
0.00019459
7.91053e-05
3.8257e-05
2.52276e-05
0.000259271
0.000537714
0.000837473
0.00116771
0.000916131
0.000983004
0.00117594
0.000835812
0.000641339
0.000477154
0.000254341
0.000201412
0.000201412
0.000167808
7.56081e-05
4.53756e-05
1.26958e-05
1.28227e-05
2.22674e-05
0.000312145
0.000615216
0.000870889
0.00102924
0.000712842
0.000579784
0.000856839
0.00125767
0.00117862
0.000790236
0.00054121
0.00029196
0.000216939
6.12744e-05
3.5733e-05
2.04984e-05
1.14661e-05
8.67211e-06
2.21196e-05
0.000332547
0.00061458
0.000814769
0.00107083
0.000824942
0.000579784
0.000926463
0.00133937
0.00158632
0.00162996
0.00149499
0.00113224
0.000682315
0.000242215
9.38749e-05
5.26505e-05
1.7179e-05
8.53052e-06
2.03589e-05
0.000388902
0.000664996
0.000855118
0.00108877
0.00108083
0.000781646
0.00095228
0.000929572
0.000876217
0.001048
0.00130932
0.00142701
0.00121171
0.00101
0.000630985
0.000296671
4.75326e-05
8.53052e-06
2.38966e-05
0.000416907
0.000690943
0.000856849
0.00104328
0.00124911
0.00114969
0.000970201
0.000582584
0.000396981
0.000396981
0.000720302
0.000838442
0.00100141
0.0011265
0.0010073
0.000695191
0.000109083
1.73161e-05
1.467e-05
0.000463035
0.000712864
0.000869861
0.00103111
0.00120316
0.00131767
0.0012439
0.000942263
0.000657568
0.000608306
0.000704717
0.000477697
0.000576041
0.000849143
0.00119688
0.00104504
0.000363389
3.39697e-05
1.467e-05
0.000497153
0.000751411
0.000890943
0.00102099
0.00116485
0.00125578
0.00136524
0.00123523
0.00111452
0.000889981
0.000638103
0.000457456
0.000432861
0.000424236
0.00092229
0.00107383
0.000836322
0.000262477
2.68436e-05
0.000531404
0.000782617
0.000903526
0.00102099
0.00113992
0.00118985
0.00128304
0.00122931
0.00117611
0.000982817
0.000766515
0.000488928
0.000390656
0.000184116
0.00046976
0.000925077
0.00105958
0.00077209
0.000298288
0.000574186
0.000821857
0.000928951
0.00102157
0.00113992
0.00116542
0.0012257
0.00116736
0.0011179
0.000953042
0.000762064
0.000556609
0.000314794
0.000184116
0.000210928
0.00056486
0.000960501
0.0010867
0.000708129
0.000609486
0.000862663
0.000960471
0.00103532
0.00114162
0.00116291
0.00120654
0.00113726
0.00108378
0.000931851
0.000789704
0.000584527
0.000428331
0.000192952
0.000231964
0.000288504
0.000686272
0.00107407
0.000844878
0.000664712
0.000912576
0.00100111
0.00105907
0.00115081
0.00116291
0.00120654
0.00113726
0.00108378
0.000931851
0.000794308
0.000612726
0.000443864
0.000272263
0.000170217
0.000246519
0.000598521
0.000992252
0.000865038
0.000702747
0.000971297
0.00105486
0.0011033
0.00118378
0.00118952
0.00122493
0.00115543
0.00110057
0.000950272
0.000845398
0.000642015
0.000492513
0.000259886
0.000170217
0.000234536
0.000640546
0.000897858
0.000870161
0.000762444
0.001039
0.00112046
0.00116374
0.00123299
0.00123789
0.00126447
0.00119739
0.00114694
0.000999937
0.000906652
0.00071175
0.00060496
0.000440868
0.000228433
0.000466304
0.000875302
0.000897858
0.000891993
0.000792686
0.00111008
0.00119723
0.00124383
0.00130854
0.00131522
0.00133654
0.00126832
0.00122566
0.00107615
0.00100527
0.000824019
0.000768781
0.000751926
0.000591793
0.000696813
0.00112375
0.000972347
0.000754429
0.000843564
0.00118211
0.00128252
0.00134059
0.00140798
0.00141742
0.00143936
0.00137031
0.0013391
0.00119246
0.00115568
0.00100762
0.00105881
0.00119335
0.000545305
0.00101204
0.00131564
0.00107257
0.000674352
0.000862253
0.00124902
0.0013709
0.00144863
0.00153086
0.00154741
0.00157626
0.00150787
0.0014929
0.00135183
0.00137117
0.00125654
0.00145967
0.00109425
0.000456158
0.000929169
0.00128896
0.00104023
0.000674352
0.000912487
0.0013209
0.00146613
0.00157106
0.00167564
0.00170659
0.00174529
0.00168197
0.00168319
0.00155068
0.00162601
0.00153782
0.00187982
0.00117591
0.000456158
0.00108358
0.00128896
0.00114773
0.000736176
0.000940278
0.00140392
0.00157785
0.0017232
0.00185355
0.00190583
0.00195256
0.00189244
0.00190272
0.0017793
0.00188757
0.00183213
0.00226782
0.00120536
0.000394622
0.00110775
0.00135456
0.00119597
0.000897474
0.00101743
0.00152712
0.00174151
0.00192756
0.00208243
0.00215686
0.00221176
0.00214736
0.00215324
0.00202744
0.00214239
0.00210977
0.00254582
0.00121643
0.000235459
0.000894305
0.00154138
0.00125455
0.000727755
0.00108481
0.00162998
0.00182451
0.00209126
0.00228253
0.00239083
0.00247597
0.00243524
0.00244227
0.00231053
0.00241334
0.00238668
0.00281877
0.00130557
0.000235459
0.000830297
0.00175999
0.00102461
0.000604948
0.00112575
0.00146104
0.00157034
0.00176637
0.00208572
0.00237276
0.00260493
0.00263146
0.00269212
0.00258041
0.00266585
0.0026485
0.00304979
0.00152203
0.000269151
0.00101065
0.00187335
0.000921352
0.000542546
0.00109371
0.00146104
0.00149838
0.00133438
0.00153855
0.00205219
0.0024681
0.00266463
0.00284775
0.00280663
0.00288826
0.0028868
0.00322802
0.00182379
0.000499951
0.00111141
0.00198879
0.000955766
0.000499313
0.00127148
0.00150757
0.00149838
0.00120541
0.000680796
0.00156702
0.00221448
0.00253751
0.00284997
0.00293833
0.00305044
0.00309347
0.00337392
0.00204857
0.000722853
0.00109247
0.00191643
0.00109627
0.00048991
0.00154626
0.00183659
0.00177857
0.000778814
0.000505271
0.000825085
0.00188119
0.00231595
0.00272763
0.00294062
0.00311013
0.00322999
0.00344019
0.00232068
0.000959856
0.00109308
0.00182064
0.00114351
0.000438424
0.00173375
0.00215595
0.00205191
0.00147306
0.000505271
0.00101964
0.00147153
0.0021281
0.00257633
0.0028495
0.00305091
0.00324072
0.0033804
0.00236872
0.00116468
0.00103322
0.00165388
0.0011274
0.000389064
0.00187231
0.00239011
0.00229466
0.00190633
0.00121098
0.00110662
0.00162139
0.00197106
0.00238337
0.0026881
0.00291985
0.00313149
0.00325236
0.00238529
0.0012607
0.000921922
0.00146599
0.00112671
0.000239131
0.00193821
0.00251678
0.00242561
0.00211116
0.0016833
0.0013222
0.00155421
0.00181467
0.00222121
0.00252696
0.00277792
0.00298902
0.00311502
0.00221876
0.00113717
0.000921922
0.00126845
0.000957941
0.000153515
0.00200564
0.00258369
0.00245894
0.00213134
0.00190945
0.00152531
0.00154209
0.00170307
0.00202647
0.00232969
0.00256908
0.00279925
0.00292096
0.0021267
0.000774317
0.00106144
0.00143107
0.00150345
0.000153515
0.00203886
0.00262434
0.00245894
0.00213134
0.00187998
0.00161397
0.00154209
0.00167427
0.00189193
0.00222284
0.00252728
0.00279925
0.00283189
0.00146499
0.000774317
0.000908668
0.00179815
0.00257469
0.00127515
)
;

boundaryField
{
    leftWall
    {
        type            calculated;
        value           uniform 0;
    }
    rightWall
    {
        type            calculated;
        value           uniform 0;
    }
    lowerWall
    {
        type            calculated;
        value           uniform 0;
    }
    atmosphere
    {
        type            calculated;
        value           uniform 0;
    }
    defaultFaces
    {
        type            empty;
    }
}


// ************************************************************************* //
