/*--------------------------------*- C++ -*----------------------------------*\
| =========                 |                                                 |
| \\      /  F ield         | OpenFOAM: The Open Source CFD Toolbox           |
|  \\    /   O peration     | Version:  2012                                  |
|   \\  /    A nd           | Website:  www.openfoam.com                      |
|    \\/     M anipulation  |                                                 |
\*---------------------------------------------------------------------------*/
FoamFile
{
    version     2.0;
    format      ascii;
    class       volScalarField;
    location    "0.56";
    object      pcorr;
}
// * * * * * * * * * * * * * * * * * * * * * * * * * * * * * * * * * * * * * //

dimensions      [1 -1 -2 0 0 0 0];


internalField   nonuniform List<scalar> 
2268
(
101301
101300
101300
101299
101298
101297
101295
101292
101287
101282
101274
101264
101251
101234
101213
101187
101155
101118
101076
101030
100986
100949
100927
101301
101300
101300
101299
101298
101297
101295
101292
101288
101282
101275
101265
101252
101235
101214
101188
101156
101119
101076
101030
100985
100946
100922
101301
101301
101300
101299
101299
101297
101295
101292
101288
101283
101276
101266
101253
101237
101216
101190
101159
101121
101078
101030
100982
100939
100912
101301
101301
101300
101300
101299
101298
101296
101293
101289
101284
101277
101268
101256
101240
101220
101194
101163
101125
101080
101030
100977
100928
100896
101301
101301
101301
101300
101299
101298
101296
101294
101291
101286
101280
101271
101259
101244
101224
101199
101168
101130
101084
101030
100972
100914
100873
101301
101301
101301
101300
101300
101299
101297
101295
101292
101288
101282
101274
101263
101249
101230
101205
101175
101136
101089
101032
100966
100896
100840
101301
101301
101301
101301
101300
101299
101298
101297
101294
101291
101286
101278
101268
101255
101237
101213
101183
101145
101097
101036
100962
100876
100795
101302
101302
101301
101301
101301
101300
101299
101298
101296
101294
101289
101283
101274
101262
101245
101223
101194
101156
101107
101043
100960
100853
100732
98507.2
98585
98586
98587.3
98590.2
98596.4
98587.3
98627.6
98723.8
98767.3
98776.8
98778.9
98777
98768.2
98764.4
98769.5
98782.3
98781.9
98678.8
98580.5
98585.7
98586.6
98587.7
98590.6
98596.7
98607.7
98678.5
98762.2
98788.3
98791.6
98792.8
98791.8
98785.9
98782.3
98782.8
98786.1
98774.6
98678
98584.4
98586.3
98586.9
98587.6
98589.8
98597.2
98621.1
98700.5
98778.4
98788.8
98791.9
98793.2
98793.7
98794.1
98794.2
98793.9
98793
98776
98689.8
98587.1
98586.9
98587.1
98587.5
98587.7
98597
98628.6
98728.8
98781.1
98789.6
98792.3
98793.5
98794.2
98794.6
98794.6
98794.3
98793.4
98790.2
98702.5
98588
98587.4
98587.3
98587.3
98586.3
98611.7
98652.7
98754.1
98784
98790.6
98792.8
98793.9
98794.6
98794.9
98794.9
98794.6
98793.8
98789.5
98733.2
98588.5
98587.9
98587.5
98587.2
98586.8
98640.4
98687.9
98777
98787.4
98791.7
98793.5
98794.5
98795
98795.3
98795.2
98795
98794.4
98791.6
98749.6
98589
98588.3
98587.7
98587
98605.6
98672
98724.7
98786.9
98790.5
98792.9
98794.2
98795
98795.5
98795.7
98795.6
98795.3
98794.9
98793.6
98773.4
98589.7
98588.7
98587.9
98587.3
98650.2
98706.9
98754.9
98790.8
98792.8
98794.1
98795.1
98795.7
98796
98796.1
98796
98795.8
98795.4
98795.1
98790.6
101302
101302
101302
101302
101302
101302
101301
101301
101300
101298
101296
101291
101284
101274
101260
101240
101213
101177
101128
101060
100964
100824
100592
101304
101304
101304
101304
101304
101304
101303
101303
101303
101303
101303
101301
101298
101294
101285
101270
101248
101218
101176
101111
101017
100875
100653
101304
101304
101304
101304
101304
101304
101303
101303
101303
101303
101303
101302
101302
101301
101300
101296
101288
101272
101249
101191
101117
101008
100845
101304
101304
101304
101304
101304
101304
101303
101303
101303
101303
101303
101302
101302
101301
101301
101300
101299
101297
101291
101278
101249
101195
101104
101304
101304
101304
101304
101304
101304
101304
101303
101303
101303
101303
101302
101302
101301
101301
101300
101299
101299
101297
101296
101294
101293
101291
101304
101304
101304
101304
101304
101304
101304
101303
101303
101303
101303
101302
101302
101301
101301
101300
101299
101298
101297
101296
101295
101293
101292
101304
101304
101304
101304
101304
101304
101304
101304
101303
101303
101303
101302
101302
101301
101301
101300
101299
101298
101297
101296
101295
101294
101292
101305
101305
101305
101304
101304
101304
101304
101304
101303
101303
101303
101302
101302
101301
101301
101300
101299
101299
101298
101296
101295
101294
101293
101305
101305
101305
101305
101305
101304
101304
101304
101304
101303
101303
101303
101302
101302
101301
101300
101300
101299
101298
101297
101296
101295
101293
101305
101305
101305
101305
101305
101305
101304
101304
101304
101304
101303
101303
101302
101302
101301
101301
101300
101299
101298
101297
101296
101295
101294
101305
101305
101305
101305
101305
101305
101305
101304
101304
101304
101304
101303
101303
101302
101302
101301
101300
101300
101299
101298
101297
101296
101295
101306
101306
101306
101306
101305
101305
101305
101305
101305
101304
101304
101304
101303
101303
101302
101301
101301
101300
101299
101299
101298
101297
101296
101306
101306
101306
101306
101306
101306
101305
101305
101305
101305
101304
101304
101303
101303
101303
101302
101301
101301
101300
101299
101299
101298
101297
101306
101306
101306
101306
101306
101306
101306
101306
101305
101305
101305
101304
101304
101304
101303
101303
101302
101301
101301
101300
101299
101299
101298
101307
101307
101307
101307
101307
101306
101306
101306
101306
101305
101305
101305
101304
101304
101304
101303
101303
101302
101301
101301
101300
101300
101299
101307
101307
101307
101307
101307
101307
101307
101306
101306
101306
101306
101305
101305
101305
101304
101304
101303
101303
101302
101302
101301
101300
101300
101308
101308
101308
101308
101307
101307
101307
101307
101307
101306
101306
101306
101306
101305
101305
101304
101304
101303
101303
101302
101302
101301
101301
101308
101308
101308
101308
101308
101308
101308
101307
101307
101307
101307
101306
101306
101306
101305
101305
101305
101304
101304
101303
101303
101302
101302
101309
101309
101309
101309
101308
101308
101308
101308
101308
101308
101307
101307
101307
101306
101306
101306
101305
101305
101305
101304
101304
101303
101303
101309
101309
101309
101309
101309
101309
101309
101309
101308
101308
101308
101308
101307
101307
101307
101306
101306
101306
101305
101305
101305
101304
101304
101310
101310
101310
101310
101310
101309
101309
101309
101309
101309
101309
101308
101308
101308
101308
101307
101307
101307
101306
101306
101306
101305
101305
101310
101310
101310
101310
101310
101310
101310
101310
101310
101309
101309
101309
101309
101309
101308
101308
101308
101307
101307
101307
101306
101306
101306
101311
101311
101311
101311
101311
101311
101311
101310
101310
101310
101310
101310
101309
101309
101309
101309
101308
101308
101308
101308
101307
101307
101307
101312
101312
101311
101311
101311
101311
101311
101311
101311
101311
101311
101310
101310
101310
101310
101310
101309
101309
101309
101309
101308
101308
101308
101312
101312
101312
101312
101312
101312
101312
101312
101312
101311
101311
101311
101311
101311
101311
101310
101310
101310
101310
101309
101309
101309
101309
101313
101313
101313
101313
101313
101313
101313
101312
101312
101312
101312
101312
101312
101312
101311
101311
101311
101311
101310
101310
101310
101310
101310
101313
101313
101313
101313
101313
101313
101313
101313
101313
101313
101313
101313
101312
101312
101312
101312
101312
101312
101311
101311
101311
101311
101311
101314
101314
101314
101314
101314
101314
101314
101314
101314
101314
101313
101313
101313
101313
101313
101313
101313
101312
101312
101312
101312
101312
101311
101315
101315
101315
101315
101315
101315
101315
101315
101314
101314
101314
101314
101314
101314
101314
101314
101313
101313
101313
101313
101313
101313
101312
101316
101316
101316
101316
101315
101315
101315
101315
101315
101315
101315
101315
101315
101315
101315
101314
101314
101314
101314
101314
101314
101314
101313
101316
101316
101316
101316
101316
101316
101316
101316
101316
101316
101316
101316
101316
101315
101315
101315
101315
101315
101315
101315
101315
101314
101314
101317
101317
101317
101317
101317
101317
101317
101317
101317
101317
101317
101316
101316
101316
101316
101316
101316
101316
101316
101316
101315
101315
101315
101318
101318
101318
101318
101318
101318
101318
101318
101317
101317
101317
101317
101317
101317
101317
101317
101317
101317
101317
101316
101316
101316
101316
101318
101318
101318
101318
101318
101318
101318
101318
101318
101318
101318
101318
101318
101318
101318
101318
101318
101318
101317
101317
101317
101317
101317
101319
101319
101319
101319
101319
101319
101319
101319
101319
101319
101319
101319
101319
101319
101319
101319
101319
101318
101318
101318
101318
101318
101318
101320
101320
101320
101320
101320
101320
101320
101320
101320
101320
101320
101320
101320
101320
101319
101319
101319
101319
101319
101319
101319
101319
101319
101321
101321
101321
101321
101321
101321
101321
101321
101321
101321
101321
101320
101320
101320
101320
101320
101320
101320
101320
101320
101320
101320
101320
101322
101322
101322
101322
101321
101321
101321
101321
101321
101321
101321
101321
101321
101321
101321
101321
101321
101321
101321
101321
101321
101321
101321
101322
101322
101322
101322
101322
101322
101322
101322
101322
101322
101322
101322
101322
101322
101322
101322
101322
101322
101322
101322
101322
101322
101322
101323
101323
101323
101323
101323
101323
101323
101323
101323
101323
101323
101323
101323
101323
101323
101323
101323
101323
101323
101323
101323
101323
101323
101324
101324
101324
101324
101324
101324
101324
101324
101324
101324
101324
101324
101324
101324
101324
101324
101324
101324
101324
101324
101324
101324
101324
101325
101325
101325
101325
101325
101325
101325
101325
101325
101325
101325
101325
101325
101325
101325
101325
101325
101325
101325
101325
101325
101325
101325
100236
99972.8
99658.6
99272.3
100395
100204
99985.9
99745.3
100674
100551
100417
100275
101013
100948
100879
100804
101290
101289
101288
101272
101291
101290
101290
101289
101291
101290
101290
101289
101292
101291
101290
101289
101292
101292
101291
101290
101293
101293
101292
101291
101294
101294
101293
101292
101295
101295
101294
101294
101296
101296
101295
101295
101297
101297
101296
101296
101298
101298
101298
101297
101299
101299
101299
101299
101300
101300
101300
101300
101302
101301
101301
101301
101303
101302
101302
101302
101304
101303
101303
101303
101305
101304
101304
101304
101306
101305
101305
101305
101307
101306
101306
101306
101308
101307
101307
101307
101308
101308
101308
101308
101309
101309
101309
101309
101310
101310
101310
101310
101311
101311
101311
101311
101312
101312
101312
101312
101313
101313
101313
101313
101314
101314
101314
101314
101315
101315
101315
101315
101316
101316
101316
101316
101317
101317
101317
101317
101318
101318
101318
101318
101319
101319
101319
101319
101320
101320
101320
101320
101321
101321
101321
101321
101322
101322
101322
101322
101323
101323
101323
101323
101324
101324
101324
101324
101325
101325
101325
101325
98591.7
98589.5
98588.1
98651.6
98744.1
98761.8
98785.1
98794.9
98795.5
98796
98796.5
98796.8
98796.9
98796.9
98796.7
98796.5
98796.2
98796.1
98795.7
99322.4
99068.8
98968
99000.7
98946.1
98823.3
98797.1
98799
98798.5
98798.4
98798.4
98798.4
98798.3
98798.1
98797.8
98797.4
98797.1
98796.7
98796.4
100038
99807.1
99632.6
99463.4
99207.9
98871.2
98801.8
98802
98801.2
98800.8
98800.4
98800.1
98799.7
98799.3
98798.8
98798.4
98797.9
98797.3
98797
100673
100499
100292
99996.9
99552.4
98943.9
98805.5
98804.6
98803.8
98803.1
98802.4
98801.8
98801.1
98800.5
98799.9
98799.4
98798.8
98797.6
98793.4
101226
101147
100980
100643
100046
99188.7
98809.1
98807.2
98806.3
98805.3
98804.4
98803.4
98802.6
98801.8
98801
98800.4
98799.7
98798.8
98789.4
101286
101282
101279
101231
100728
99717.9
98813
98809.9
98808.8
98807.6
98806.3
98805.1
98804
98803
98802.1
98801.3
98800.6
98799.5
98790
101287
101285
101282
101278
101258
100511
98902.3
98813.9
98811.5
98809.9
98808.2
98806.6
98805.3
98804.1
98803
98802.1
98801.3
98800.2
98795
101288
101286
101283
101280
101275
101249
100101
98822.9
98814.6
98812.2
98810
98808
98806.4
98805.1
98803.9
98802.9
98801.9
98800.9
98808.9
101289
101287
101284
101282
101279
101275
101192
99881.8
98818.1
98814.3
98811.5
98809.1
98807.3
98806
98804.7
98803.5
98802.3
98797.3
98846.9
101290
101288
101286
101284
101280
101276
101264
101096
99714.9
98820.2
98814.1
98810.2
98808.3
98807.4
98806.1
98804
98801.1
98890.1
98938.4
101291
101290
101288
101286
101283
101278
101269
101227
100627
99698.9
99122.3
99005.3
98939
98842.2
98833.7
98935.3
99045.3
99052.7
99071.3
101293
101291
101290
101289
101287
101284
101273
101192
100886
100374
99856.7
99589.2
99438.3
99377.6
99327.4
99288.1
99227.4
99180.9
99223.9
101294
101293
101292
101291
101291
101294
101297
101276
101036
100746
100383
100015
99742.6
99592.2
99494.1
99425.7
99369.8
99359.4
99440.6
101295
101295
101294
101294
101294
101295
101296
101296
101295
101292
101265
100727
100281
99885.6
99699.1
99593.9
99598.5
99679.8
99745
101297
101296
101296
101295
101296
101296
101296
101296
101296
101295
101293
101291
101287
100914
100524
100247
100139
100107
100103
101298
101298
101297
101297
101297
101297
101297
101297
101296
101296
101295
101294
101293
101291
101286
100958
100676
100523
100459
101299
101299
101299
101298
101298
101298
101298
101298
101297
101297
101296
101295
101295
101294
101292
101288
101063
100859
100767
101301
101300
101300
101300
101299
101299
101299
101299
101298
101298
101297
101297
101296
101296
101295
101296
101240
101095
101005
101302
101301
101301
101301
101301
101300
101300
101300
101300
101299
101299
101298
101298
101298
101299
101300
101300
101243
101172
101303
101302
101302
101302
101302
101301
101301
101301
101301
101300
101300
101300
101300
101300
101300
101301
101301
101300
101250
101304
101304
101303
101303
101303
101303
101302
101302
101302
101302
101301
101301
101301
101301
101301
101302
101302
101302
101284
101305
101305
101304
101304
101304
101304
101303
101303
101303
101303
101303
101303
101303
101303
101303
101303
101303
101304
101305
101306
101306
101305
101305
101305
101305
101305
101304
101304
101304
101304
101304
101304
101304
101304
101304
101304
101305
101304
101307
101307
101306
101306
101306
101306
101306
101305
101305
101305
101305
101305
101305
101305
101305
101305
101305
101306
101305
101308
101308
101308
101307
101307
101307
101307
101307
101306
101306
101306
101306
101306
101306
101306
101306
101306
101306
101305
101309
101309
101309
101308
101308
101308
101308
101308
101308
101307
101307
101307
101307
101307
101307
101307
101307
101307
101308
101310
101310
101310
101309
101309
101309
101309
101309
101309
101309
101308
101308
101308
101308
101308
101308
101309
101309
101312
101311
101311
101311
101310
101310
101310
101310
101310
101310
101310
101310
101310
101309
101309
101309
101309
101311
101316
101315
101312
101312
101312
101311
101311
101311
101311
101311
101311
101311
101311
101311
101311
101311
101310
101311
101309
101313
101313
101313
101313
101313
101312
101312
101312
101312
101312
101312
101312
101312
101312
101312
101312
101312
101312
101311
101312
101318
101314
101314
101314
101313
101313
101313
101313
101313
101313
101313
101313
101313
101313
101313
101313
101313
101313
101311
101343
101315
101315
101315
101314
101314
101314
101314
101314
101314
101314
101314
101314
101314
101314
101314
101314
101314
101314
101374
101316
101316
101316
101315
101315
101315
101315
101315
101315
101315
101315
101315
101315
101315
101315
101315
101315
101315
101314
101317
101317
101317
101316
101316
101316
101316
101316
101316
101316
101316
101316
101316
101316
101316
101316
101316
101316
101310
101318
101318
101318
101317
101317
101317
101317
101317
101317
101317
101317
101317
101317
101317
101317
101317
101316
101316
101315
101319
101319
101319
101318
101318
101318
101318
101318
101318
101318
101318
101318
101318
101318
101318
101317
101317
101317
101315
101320
101320
101320
101319
101319
101319
101319
101319
101319
101319
101319
101319
101319
101319
101319
101318
101318
101318
101316
101321
101321
101321
101321
101320
101320
101320
101320
101320
101320
101320
101320
101320
101320
101320
101319
101319
101319
101317
101322
101322
101322
101322
101322
101321
101321
101321
101321
101321
101321
101321
101321
101321
101321
101321
101320
101320
101319
101323
101323
101323
101323
101323
101323
101322
101322
101322
101322
101322
101322
101322
101322
101322
101322
101321
101321
101320
101324
101324
101324
101324
101324
101324
101323
101323
101323
101323
101323
101323
101323
101323
101323
101323
101323
101322
101320
101325
101325
101325
101325
101325
101325
101324
101324
101324
101324
101324
101324
101324
101324
101324
101324
101324
101324
101326
)
;

boundaryField
{
    leftWall
    {
        type            zeroGradient;
    }
    rightWall
    {
        type            zeroGradient;
    }
    lowerWall
    {
        type            zeroGradient;
    }
    atmosphere
    {
        type            fixedValue;
        value           uniform 101325;
    }
    defaultFaces
    {
        type            empty;
    }
}


// ************************************************************************* //
