/*--------------------------------*- C++ -*----------------------------------*\
| =========                 |                                                 |
| \\      /  F ield         | OpenFOAM: The Open Source CFD Toolbox           |
|  \\    /   O peration     | Version:  2012                                  |
|   \\  /    A nd           | Website:  www.openfoam.com                      |
|    \\/     M anipulation  |                                                 |
\*---------------------------------------------------------------------------*/
FoamFile
{
    version     2.0;
    format      ascii;
    class       volScalarField;
    location    "0.56";
    object      rho;
}
// * * * * * * * * * * * * * * * * * * * * * * * * * * * * * * * * * * * * * //

dimensions      [1 -3 0 0 0 0 0];


internalField   nonuniform List<scalar> 
2268
(
1000.05
1000.05
1000.05
1000.05
1000.05
1000.05
1000.05
1000.05
1000.05
1000.05
1000.05
1000.05
1000.05
1000.05
1000.05
1000.05
1000.05
1000.05
1000.05
1000.05
1000.05
1000.05
999.804
1000.05
1000.05
1000.05
1000.05
1000.05
1000.05
1000.05
1000.05
1000.05
1000.05
1000.05
1000.05
1000.05
1000.05
1000.05
1000.05
1000.05
1000.05
1000.05
1000.05
1000.05
1000.05
999.754
1000.05
1000.05
1000.05
1000.05
1000.05
1000.05
1000.05
1000.05
1000.05
1000.05
1000.05
1000.05
1000.05
1000.05
1000.05
1000.05
1000.05
1000.05
1000.05
1000.05
1000.05
1000.05
999.754
1000.05
1000.05
1000.05
1000.05
1000.05
1000.05
1000.05
1000.05
1000.05
1000.05
1000.05
1000.05
1000.05
1000.05
1000.05
1000.05
1000.05
1000.05
1000.05
1000.05
1000.05
1000.05
999.762
1000.05
1000.05
1000.05
1000.05
1000.05
1000.05
1000.05
1000.05
1000.05
1000.05
1000.05
1000.05
1000.05
1000.05
1000.05
1000.05
1000.05
1000.05
1000.05
1000.05
1000.05
1000.05
999.994
1000.05
1000.05
1000.05
1000.05
1000.05
1000.05
1000.05
1000.05
1000.05
1000.05
1000.05
1000.05
1000.05
1000.05
1000.05
1000.05
1000.05
1000.05
1000.05
1000.05
1000.05
1000.05
1000.05
1000.05
1000.05
1000.05
1000.05
1000.05
1000.05
1000.05
1000.05
1000.05
1000.05
1000.05
1000.05
1000.05
1000.05
1000.05
1000.05
1000.05
1000.05
1000.05
1000.05
1000.05
1000.05
1000.05
998.709
998.692
998.893
999.128
999.359
999.537
999.773
999.906
999.998
1000.04
1000.05
1000.05
1000.05
1000.05
1000.05
1000.05
1000.05
1000.05
1000.05
1000.05
1000.05
1000.05
1000.05
304.362
284.021
217.991
265.282
465.423
548.415
561.14
573.557
677.542
720.332
720.332
720.234
720.234
719.22
716.479
733.657
741.788
741.852
726.063
304.159
1.30642
1.44898
1.30602
1.3068
1.30563
77.1691
335.461
424.815
389.73
311.224
291.485
339.64
505.604
631.828
670.176
677.877
742.169
742.17
233.955
1.30551
1.3058
1.37555
6.1693
6.2117
6.21093
35.7527
49.6054
1.9082
1.30061
1.301
8.91127
55.19
108.485
134.357
154.723
457.663
744.255
36.9196
1.3054
1.30571
1.3059
254.814
361.995
67.2391
13.6982
13.6968
5.13787
1.30071
1.32939
1.31931
1.29935
1.29908
1.29908
1.29996
152.485
727.254
1.37803
1.30528
1.30579
1.30605
656.866
958.882
400.998
46.2039
2.39559
2.38312
1.44843
1.31351
1.30062
1.29961
1.29955
1.30929
3.43472
55.986
377.563
1.3058
1.30519
1.30576
1.30765
813.495
987.611
713.587
108.39
2.47978
1.49231
1.49205
1.3068
1.29968
1.29973
1.2997
1.30013
1.53189
36.3395
443.467
1.30527
1.3052
1.30592
150.874
902.762
987.63
749.096
109.775
2.29022
1.35764
1.44665
1.31357
1.29978
1.29979
1.29973
1.29968
1.31451
32.6877
775.147
1.30593
1.30621
1.30656
436.294
976.687
987.611
568.313
41.1071
1.62975
1.309
1.32337
1.30871
1.29989
1.29982
1.29975
1.29967
1.29961
8.84284
775.192
769.881
772.154
784.307
800.382
821.254
843.729
876.725
905.62
939.473
969.642
986.669
994.337
998.864
1000.05
1000.05
1000.05
1000.05
1000.05
1000.05
1000.05
1000.05
1000.05
1000.05
82.884
87.3548
94.4969
104.597
121.58
143.548
177.299
216.249
276.637
360.288
482.211
628.598
776.171
908.376
998.255
1000.05
1000.05
1000.05
1000.05
1000.05
1000.05
1000.05
1000.05
1.29333
1.29334
1.29333
1.29333
1.29334
1.29334
1.29335
1.29337
1.29339
1.29339
1.2934
19.9212
68.695
161.274
314.93
540.836
828.95
996.111
1000.05
1000.05
1000.05
1000.05
1000.05
1.29328
1.29328
1.29328
1.29328
1.29328
1.29329
1.29329
1.2933
1.29331
1.29331
1.29332
1.29332
1.29337
2.44137
9.91689
39.5854
107.814
267.261
522.671
802.904
960.78
986.552
997.285
1.29326
1.29326
1.29326
1.29326
1.29326
1.29326
1.29327
1.29327
1.29327
1.29327
1.29329
1.29339
1.29331
1.29351
1.29341
1.29483
1.29337
9.74517
43.3327
77.2788
165.7
279.981
463.933
1.29326
1.29326
1.29326
1.29326
1.29326
1.29326
1.29326
1.29326
1.29326
1.29326
1.29327
1.29439
1.29504
1.29539
1.29539
1.29371
1.2933
1.29328
1.2933
1.29332
1.29336
1.29334
1.29337
1.29325
1.29325
1.29325
1.29325
1.29325
1.29325
1.29326
1.29326
1.29326
1.29326
1.29326
1.29441
1.29538
1.29538
1.29432
1.29339
1.29328
1.29327
1.29327
1.29331
1.29564
1.29376
1.2933
1.29325
1.29325
1.29325
1.29325
1.29325
1.29325
1.29325
1.29325
1.29326
1.29326
1.29331
1.29326
1.29342
1.29326
1.29326
1.29327
1.2933
1.2933
1.29328
1.29329
1.29334
1.29331
1.29345
1.29325
1.29325
1.29325
1.29325
1.29325
1.29325
1.29325
1.29325
1.29325
1.29326
1.29326
1.29326
1.29326
1.29326
1.29326
1.29326
1.29329
1.2933
1.2933
1.29329
1.29327
1.29327
1.29327
1.29325
1.29325
1.29325
1.29325
1.29325
1.29325
1.29325
1.29325
1.29325
1.29325
1.29325
1.29325
1.29325
1.29326
1.29326
1.29326
1.29326
1.29327
1.29327
1.29327
1.29327
1.29327
1.29329
1.29325
1.29325
1.29325
1.29325
1.29325
1.29325
1.29325
1.29325
1.29325
1.29325
1.29325
1.29325
1.29325
1.29325
1.29325
1.29326
1.29326
1.29326
1.29326
1.29326
1.29326
1.29327
1.29327
1.29324
1.29324
1.29324
1.29324
1.29324
1.29324
1.29324
1.29324
1.29325
1.29325
1.29325
1.29325
1.29325
1.29325
1.29325
1.29325
1.29325
1.29326
1.29326
1.29326
1.29326
1.29326
1.29326
1.29324
1.29324
1.29324
1.29324
1.29324
1.29324
1.29324
1.29324
1.29324
1.29324
1.29324
1.29324
1.29325
1.29325
1.29325
1.29325
1.29325
1.29325
1.29325
1.29325
1.29326
1.29326
1.29326
1.29324
1.29324
1.29324
1.29324
1.29324
1.29324
1.29324
1.29324
1.29324
1.29324
1.29324
1.29324
1.29324
1.29324
1.29324
1.29325
1.29325
1.29325
1.29325
1.29325
1.29325
1.29325
1.29326
1.29323
1.29323
1.29323
1.29323
1.29323
1.29323
1.29324
1.29324
1.29324
1.29324
1.29324
1.29324
1.29324
1.29324
1.29324
1.29324
1.29324
1.29324
1.29325
1.29325
1.29325
1.29325
1.29325
1.29323
1.29323
1.29323
1.29323
1.29323
1.29323
1.29323
1.29323
1.29323
1.29323
1.29323
1.29324
1.29324
1.29324
1.29324
1.29324
1.29324
1.29324
1.29324
1.29324
1.29324
1.29325
1.29325
1.29323
1.29323
1.29323
1.29323
1.29323
1.29323
1.29323
1.29323
1.29323
1.29323
1.29323
1.29323
1.29323
1.29323
1.29323
1.29324
1.29324
1.29324
1.29324
1.29324
1.29324
1.29324
1.29324
1.29322
1.29322
1.29322
1.29322
1.29322
1.29322
1.29322
1.29322
1.29322
1.29323
1.29323
1.29323
1.29323
1.29323
1.29323
1.29323
1.29323
1.29323
1.29323
1.29324
1.29324
1.29324
1.29324
1.29321
1.29321
1.29321
1.29321
1.29321
1.29322
1.29322
1.29322
1.29322
1.29322
1.29322
1.29322
1.29322
1.29322
1.29323
1.29323
1.29323
1.29323
1.29323
1.29323
1.29323
1.29323
1.29323
1.2932
1.2932
1.2932
1.2932
1.2932
1.29321
1.29321
1.29321
1.29321
1.29321
1.29321
1.29321
1.29322
1.29322
1.29322
1.29322
1.29322
1.29322
1.29323
1.29323
1.29323
1.29323
1.29323
1.29319
1.29319
1.29319
1.29319
1.29319
1.29319
1.29319
1.2932
1.2932
1.2932
1.2932
1.2932
1.29321
1.29321
1.29321
1.29321
1.29322
1.29322
1.29322
1.29322
1.29322
1.29322
1.29322
1.29317
1.29317
1.29317
1.29317
1.29317
1.29317
1.29318
1.29318
1.29318
1.29318
1.29319
1.29319
1.29319
1.2932
1.2932
1.2932
1.29321
1.29321
1.29321
1.29321
1.29322
1.29322
1.29322
1.29315
1.29315
1.29315
1.29315
1.29315
1.29315
1.29316
1.29316
1.29316
1.29316
1.29316
1.29317
1.29317
1.29317
1.29318
1.29318
1.29319
1.29319
1.2932
1.2932
1.29321
1.29321
1.29321
1.29314
1.29314
1.29314
1.29314
1.29314
1.29314
1.29314
1.29314
1.29314
1.29314
1.29315
1.29315
1.29315
1.29315
1.29316
1.29316
1.29317
1.29317
1.29318
1.29318
1.29319
1.2932
1.2932
1.29312
1.29312
1.29312
1.29312
1.29312
1.29313
1.29313
1.29313
1.29313
1.29313
1.29313
1.29313
1.29313
1.29314
1.29314
1.29314
1.29315
1.29315
1.29315
1.29316
1.29317
1.29317
1.29318
1.29311
1.29311
1.29312
1.29312
1.29312
1.29312
1.29312
1.29312
1.29312
1.29312
1.29312
1.29312
1.29312
1.29312
1.29313
1.29313
1.29313
1.29313
1.29314
1.29314
1.29315
1.29315
1.29316
1.29311
1.29311
1.29311
1.29311
1.29311
1.29311
1.29311
1.29311
1.29311
1.29311
1.29311
1.29311
1.29311
1.29312
1.29312
1.29312
1.29312
1.29312
1.29313
1.29313
1.29313
1.29314
1.29314
1.2931
1.2931
1.2931
1.2931
1.2931
1.2931
1.2931
1.2931
1.29311
1.29311
1.29311
1.29311
1.29311
1.29311
1.29311
1.29311
1.29311
1.29312
1.29312
1.29312
1.29312
1.29313
1.29313
1.2931
1.2931
1.2931
1.2931
1.2931
1.2931
1.2931
1.2931
1.2931
1.2931
1.2931
1.2931
1.2931
1.29311
1.29311
1.29311
1.29311
1.29311
1.29311
1.29312
1.29312
1.29312
1.29313
1.2931
1.2931
1.2931
1.2931
1.2931
1.2931
1.2931
1.2931
1.2931
1.2931
1.2931
1.2931
1.2931
1.2931
1.2931
1.29311
1.29311
1.29311
1.29311
1.29312
1.29312
1.29312
1.29312
1.29309
1.29309
1.29309
1.29309
1.2931
1.2931
1.2931
1.2931
1.2931
1.2931
1.2931
1.2931
1.2931
1.2931
1.29311
1.29311
1.29311
1.29311
1.29311
1.29312
1.29312
1.29312
1.29313
1.2931
1.2931
1.2931
1.2931
1.2931
1.2931
1.2931
1.2931
1.2931
1.2931
1.2931
1.2931
1.29311
1.29311
1.29311
1.29311
1.29311
1.29312
1.29312
1.29312
1.29313
1.29313
1.29314
1.2931
1.2931
1.2931
1.2931
1.2931
1.2931
1.2931
1.2931
1.2931
1.2931
1.2931
1.2931
1.29311
1.29311
1.29311
1.29311
1.29311
1.29312
1.29312
1.29313
1.29314
1.29315
1.29316
1.2931
1.2931
1.2931
1.2931
1.2931
1.2931
1.2931
1.2931
1.2931
1.2931
1.2931
1.29311
1.29311
1.29311
1.29311
1.29311
1.29312
1.29312
1.29313
1.29314
1.29315
1.29316
1.29316
1.2931
1.2931
1.2931
1.2931
1.2931
1.2931
1.2931
1.2931
1.2931
1.2931
1.2931
1.2931
1.29311
1.29311
1.29311
1.29311
1.29312
1.29312
1.29313
1.29315
1.29316
1.29317
1.29316
1.2931
1.2931
1.2931
1.2931
1.2931
1.2931
1.2931
1.2931
1.2931
1.2931
1.2931
1.2931
1.29311
1.29311
1.29311
1.29311
1.29312
1.29313
1.29314
1.29316
1.29317
1.29324
1.29324
1.2931
1.2931
1.2931
1.2931
1.2931
1.2931
1.2931
1.2931
1.2931
1.2931
1.2931
1.2931
1.2931
1.2931
1.29311
1.29311
1.29312
1.29313
1.29315
1.29316
1.29316
1.29327
1.29371
1.2931
1.2931
1.2931
1.2931
1.2931
1.2931
1.2931
1.2931
1.2931
1.2931
1.2931
1.2931
1.2931
1.29311
1.29311
1.29311
1.29312
1.29314
1.29316
1.29316
1.29315
1.29319
1.29662
1.2931
1.2931
1.2931
1.2931
1.2931
1.2931
1.2931
1.2931
1.2931
1.2931
1.2931
1.2931
1.2931
1.2931
1.29311
1.29311
1.29312
1.29314
1.29316
1.29316
1.29313
1.29322
1.29899
1.2931
1.2931
1.2931
1.2931
1.2931
1.2931
1.2931
1.2931
1.2931
1.2931
1.2931
1.2931
1.29311
1.29311
1.29311
1.29312
1.29313
1.29315
1.29316
1.29316
1.29312
1.29305
1.29491
1.2931
1.2931
1.2931
1.2931
1.2931
1.2931
1.2931
1.2931
1.2931
1.2931
1.2931
1.29311
1.29311
1.29311
1.29312
1.29313
1.29314
1.29316
1.29317
1.29313
1.29302
1.29294
1.29289
1.2931
1.2931
1.2931
1.2931
1.2931
1.2931
1.2931
1.2931
1.2931
1.29311
1.29311
1.29311
1.29311
1.29312
1.29313
1.29314
1.29316
1.2932
1.29319
1.2932
1.2933
1.29313
1.29286
1000.05
999.902
999.898
999.92
1000.05
999.95
999.92
999.92
1000.05
1000.05
1000.01
999.895
997.99
998.442
998.566
998.743
604.604
685.985
716.77
751.836
1.29337
1.29339
1.29341
12.6557
1.29332
1.29333
1.29336
1.29338
1.29357
1.29358
1.29353
1.29335
1.29328
1.2933
1.29923
1.30003
1.2933
1.29337
1.29343
1.29363
1.29327
1.29327
1.29327
1.29327
1.29327
1.29327
1.29327
1.29329
1.29326
1.29326
1.29326
1.29327
1.29326
1.29326
1.29326
1.29326
1.29325
1.29325
1.29325
1.29325
1.29325
1.29325
1.29325
1.29325
1.29324
1.29324
1.29324
1.29324
1.29324
1.29324
1.29324
1.29324
1.29323
1.29323
1.29323
1.29323
1.29323
1.29323
1.29323
1.29323
1.29323
1.29323
1.29323
1.29323
1.29322
1.29322
1.29322
1.29322
1.29321
1.29321
1.29321
1.29321
1.2932
1.2932
1.29321
1.29321
1.29319
1.29319
1.29319
1.2932
1.29316
1.29317
1.29317
1.29318
1.29315
1.29315
1.29315
1.29316
1.29313
1.29314
1.29314
1.29314
1.29313
1.29313
1.29313
1.29313
1.29313
1.29313
1.29313
1.29313
1.29313
1.29313
1.29314
1.29314
1.29315
1.29315
1.29315
1.29316
1.29316
1.29316
1.29316
1.29316
1.29316
1.29316
1.29315
1.29315
1.29315
1.29314
1.29314
1.29313
1.29321
1.2933
1.29321
1.29315
1.29693
1.2992
1.297
1.29428
1.30133
1.30133
1.30133
1.30134
1.30126
1.30126
1.30127
1.30038
1.30118
1.29935
1.29391
1.29301
1.2929
1.29293
1.29296
1.29299
1.29289
1.29292
1.29295
1.29298
589.684
210.365
324.878
805.514
997.929
986.591
386.219
13.524
1.32466
1.2998
1.29928
1.29996
1.29994
1.29983
1.29974
1.29965
1.29962
1.29954
762.228
989.652
1000.05
1000.05
1000.05
1000.05
938.208
222.04
3.69414
1.30165
1.29923
1.29934
1.29976
1.29989
1.29984
1.29974
1.29963
1.29962
1.2994
739.627
1000.05
1000.05
1000.05
1000.05
1000.05
895.126
120.254
1.48825
1.29997
1.29957
1.29959
1.2998
1.29984
1.29981
1.29974
1.29962
1.29962
1.29961
798.918
999.031
999.156
999.551
999.963
1000.05
914.009
94.3609
1.30018
1.29969
1.2998
1.29976
1.2998
1.2998
1.29977
1.2997
1.29961
1.2996
35.098
871.892
787.804
818.933
883.964
972.805
999.703
970.468
189.213
1.30014
1.29968
1.29983
1.29979
1.29979
1.29977
1.29974
1.29966
1.29962
1.29951
157.739
914.511
45.9925
89.9862
202.925
523.096
923.739
980.438
488.971
1.30014
1.29969
1.29977
1.29976
1.29976
1.29974
1.29969
1.29961
1.29966
1.29908
247.258
941.446
1.29339
1.29341
1.29342
15.9488
376.345
964.953
847.438
14.1066
1.29941
1.2997
1.29972
1.29972
1.29969
1.29963
1.29957
1.29958
1.2984
302.623
957.75
1.29332
1.29336
1.29336
1.29336
4.90068
478.546
925.399
533.393
1.29806
1.2995
1.29964
1.29963
1.29957
1.2995
1.29943
1.30343
1.29811
392.011
972.852
1.30004
1.2946
1.2967
1.30243
1.33667
26.5221
650.294
778.181
486.66
1.29962
1.29946
1.29895
1.29878
1.29887
1.29875
1.29818
56.3534
703.011
989.188
1.29406
1.29525
1.32624
1.32625
1.29789
1.2979
24.7096
661.061
704.223
457.381
122.74
121.271
87.4845
18.1364
15.7393
115.648
655.909
994.646
994.798
1.29875
1.32761
1.32761
1.30678
1.31238
2.15861
8.28593
173.173
630.541
701.111
696.641
726.932
726.935
677.736
685.28
821.217
890.634
935.219
988.103
1.29576
1.3013
1.29635
1.29331
1.34103
20.3151
112.135
165.607
229.197
438.088
534.531
413.899
328.316
350.783
363.418
298.2
236.91
501.717
973.372
1.29327
1.29327
1.29325
1.29319
1.32429
29.9781
416.327
698.264
704.217
704.196
704.205
413.869
285.676
117.477
91.5934
91.5931
236.908
687.964
988.948
1.29326
1.29326
1.29324
1.29318
1.453
1.61336
1.29411
14.5104
339.847
622.891
749.162
875.601
875.586
627.956
524.286
561.848
814.288
947.488
991.607
1.29325
1.29325
1.29324
1.29389
1.3243
1.31712
1.29412
1.29325
1.29325
1.29323
7.45394
326.993
653.022
913.028
989.996
989.996
989.996
989.996
971.85
1.29325
1.29325
1.29324
1.29328
1.29448
1.31444
1.34032
1.30212
1.29323
1.29351
1.29319
1.29314
1.29307
162.761
532.438
853.084
985.628
989.994
960.03
1.29324
1.29324
1.29324
1.29323
1.29318
1.29992
1.34039
1.34045
1.32397
1.30191
1.31094
1.29911
1.2931
1.29289
1.29267
324.897
859.965
933.15
966.706
1.29324
1.29324
1.29324
1.29323
1.29321
1.29317
1.30536
1.33111
1.31959
1.30836
1.31994
1.3166
1.29319
1.29869
5.55207
75.9325
607.529
960.87
978.319
1.29323
1.29323
1.29323
1.29323
1.29322
1.2932
1.29342
1.29617
1.29496
1.29319
1.29527
1.29321
1.29468
1.30747
1.72967
6.90383
177.413
818.912
978.31
1.29323
1.29323
1.29323
1.29323
1.29322
1.29322
1.29321
1.2932
1.2932
1.2932
1.29321
1.29321
1.29323
1.30489
1.29429
1.29316
1.29278
279.37
585.673
1.29323
1.29322
1.29322
1.29322
1.29322
1.29322
1.29322
1.29321
1.29321
1.29321
1.29322
1.29322
1.29323
1.29322
1.29323
1.30548
5.34404
55.0803
225.206
1.29322
1.29322
1.29322
1.29322
1.29322
1.29322
1.29322
1.29321
1.29322
1.29321
1.29322
1.29322
1.29323
1.29322
1.29337
1.36417
1.5652
9.19745
135.778
1.29322
1.29322
1.29322
1.29322
1.29321
1.29321
1.29321
1.29321
1.29322
1.29321
1.29322
1.29322
1.29323
1.29322
1.29323
1.3936
1.29978
5.10352
202.508
1.29321
1.29321
1.29321
1.29321
1.29321
1.29321
1.29321
1.29321
1.29321
1.29321
1.29322
1.29321
1.29322
1.29322
1.29323
1.33788
1.29977
1.40819
202.508
1.2932
1.2932
1.29321
1.29321
1.29321
1.29321
1.29321
1.29321
1.29321
1.29321
1.29321
1.29321
1.29327
1.29329
1.29324
1.29322
1.29323
1.29322
180.351
1.29318
1.29319
1.2932
1.2932
1.2932
1.2932
1.2932
1.2932
1.2932
1.2932
1.29321
1.29321
1.29334
1.29329
1.29322
1.29322
1.2932
1.29318
43.0757
1.29316
1.29317
1.29318
1.29319
1.29319
1.2932
1.2932
1.2932
1.2932
1.2932
1.2932
1.29328
1.29334
1.29343
1.30575
1.55895
1.64281
3.40539
53.3296
1.29315
1.29315
1.29317
1.29318
1.29318
1.29319
1.29319
1.29319
1.29319
1.29319
1.2932
1.2933
1.29331
1.29348
1.63458
13.8735
52.1996
96.0366
213.525
1.29314
1.29314
1.29315
1.29316
1.29318
1.29318
1.29319
1.29319
1.29319
1.29319
1.29319
1.29323
1.29323
1.29345
1.71312
30.6578
174.728
235.938
235.934
1.29314
1.29314
1.29315
1.29316
1.29317
1.29317
1.29318
1.29318
1.29318
1.29318
1.29319
1.29318
1.29319
1.2934
1.8359
26.4853
129.227
235.934
206.081
1.29315
1.29315
1.29316
1.29316
1.29316
1.29317
1.29317
1.29317
1.29317
1.29317
1.29318
1.29317
1.29317
1.29315
2.1665
3.27816
1.29996
230.702
178.733
1.29316
1.29316
1.29316
1.29316
1.29316
1.29316
1.29316
1.29316
1.29316
1.29317
1.29317
1.29316
1.29315
1.32211
1.77012
1.29318
1.2997
67.09
214.119
1.29316
1.29316
1.29315
1.29316
1.29316
1.29316
1.29315
1.29315
1.29315
1.29317
1.29316
1.29316
1.29315
1.33883
1.40444
1.2931
1.29297
6.29752
451.401
1.29314
1.29325
1.29323
1.29315
1.29311
1.29312
1.29313
1.29313
1.29317
1.29318
1.29317
1.29315
1.29314
1.32672
1.30195
1.29323
1.29289
8.60924
451.453
1.29312
1.29455
1.32056
1.33793
1.30027
1.29366
1.29311
1.29312
1.29315
1.29318
1.29317
1.29314
1.29313
1.29642
1.29378
1.29372
1.29616
1.29324
445.386
1.29313
1.30108
1.40672
1.47645
1.4195
1.29768
1.29309
1.2931
1.29311
1.29313
1.29314
1.29313
1.29312
1.29344
1.29467
1.29413
1.29608
1.29295
354.115
1.29336
1.30189
1.39197
1.47645
1.47643
1.32539
1.29307
1.29309
1.29318
1.29319
1.29313
1.29313
1.29312
1.30486
1.30168
1.29445
1.29416
1.29273
301.117
1.29616
1.2936
1.29614
1.42903
1.47643
1.46687
1.31918
1.29604
1.29475
1.29354
1.29312
1.29312
1.29366
1.30992
1.3098
1.29471
1.29264
1.29261
262.949
1.29629
1.29359
1.29361
1.31481
1.47332
1.47626
1.47598
1.35121
1.29309
1.2936
1.29312
1.2949
1.29707
1.30992
1.30668
1.29379
1.29259
1.29255
204.711
1.29312
1.29362
1.29365
1.29365
1.30487
1.39827
1.4263
1.33853
1.29309
1.29341
1.29311
1.29551
1.29704
1.30992
1.29939
1.29299
1.29256
1.29252
215.193
1.29302
1.29311
1.2936
1.2941
1.29479
1.29702
1.30252
1.2992
1.2931
1.29311
1.29312
1.29371
1.29456
1.30249
1.29434
1.29293
1.29255
1.29251
148.152
1.29302
1.29306
1.29309
1.2931
1.29597
1.30194
1.30478
1.29515
1.29378
1.29361
1.29348
1.29345
1.29351
1.29355
1.29311
1.29262
1.29252
1.29251
29.4352
)
;

boundaryField
{
    leftWall
    {
        type            calculated;
        value           nonuniform List<scalar> 
50
(
1000.05
1000.05
1000.05
1000.05
1000.05
1000.05
1000.05
998.709
769.881
82.884
1.29333
1.29328
1.29326
1.29326
1.29325
1.29325
1.29325
1.29325
1.29325
1.29324
1.29324
1.29324
1.29323
1.29323
1.29323
1.29322
1.29321
1.2932
1.29319
1.29317
1.29315
1.29314
1.29312
1.29311
1.29311
1.2931
1.2931
1.2931
1.29309
1.2931
1.2931
1.2931
1.2931
1.2931
1.2931
1.2931
1.2931
1.2931
1.2931
1.2931
)
;
    }
    rightWall
    {
        type            calculated;
        value           nonuniform List<scalar> 
50
(
726.063
742.17
744.255
727.254
377.563
443.467
775.147
775.192
762.228
739.627
798.918
871.892
914.511
941.446
957.75
972.852
989.188
994.798
988.103
973.372
988.948
991.607
971.85
960.03
966.706
978.319
978.31
585.673
225.206
135.778
202.508
202.508
180.351
43.0757
53.3296
213.525
235.934
206.081
178.733
214.119
451.401
451.453
445.386
354.115
301.117
262.949
204.711
215.193
148.152
29.4352
)
;
    }
    lowerWall
    {
        type            calculated;
        value           nonuniform List<scalar> 
62
(
1000.05
1000.05
1000.05
1000.05
1000.05
1000.05
1000.05
1000.05
1000.05
1000.05
1000.05
1000.05
1000.05
1000.05
1000.05
1000.05
1000.05
1000.05
1000.05
1000.05
1000.05
1000.05
999.804
999.804
999.754
999.754
999.762
999.994
1000.05
1000.05
1000.05
1000.05
999.903
999.898
999.92
304.362
304.159
233.955
36.9196
1.37803
1.3058
1.30527
1.30593
304.362
284.021
217.991
265.282
465.423
548.415
561.14
573.557
677.543
720.332
720.332
720.234
720.234
719.22
716.479
733.657
741.789
741.852
726.063
)
;
    }
    atmosphere
    {
        type            calculated;
        value           nonuniform List<scalar> 
46
(
1.2932
1.2932
1.2932
1.2932
1.2932
1.2932
1.2932
1.2932
1.2932
1.2932
1.2932
1.2932
1.2932
1.29321
1.29321
1.29323
1.29325
1.29328
1.29328
1.29328
1.29339
1.29296
1.29295
1.29298
1.29301
1.29304
1.29307
1.29311
1.29316
1.29319
1.2932
1.29321
1.29321
1.30488
1.29525
1.29389
1.29371
1.29359
1.29355
1.29361
1.29365
1.29321
1.29271
1.29263
1.29259
29.4354
)
;
    }
    defaultFaces
    {
        type            empty;
    }
}


// ************************************************************************* //
