/*--------------------------------*- C++ -*----------------------------------*\
| =========                 |                                                 |
| \\      /  F ield         | OpenFOAM: The Open Source CFD Toolbox           |
|  \\    /   O peration     | Version:  2012                                  |
|   \\  /    A nd           | Website:  www.openfoam.com                      |
|    \\/     M anipulation  |                                                 |
\*---------------------------------------------------------------------------*/
FoamFile
{
    version     2.0;
    format      ascii;
    class       volScalarField;
    location    "0.56";
    object      rhogh;
}
// * * * * * * * * * * * * * * * * * * * * * * * * * * * * * * * * * * * * * //

dimensions      [1 -1 -2 0 0 0 0];


internalField   nonuniform List<scalar> 
2268
(
-29.4294
-29.4294
-29.4294
-29.4294
-29.4294
-29.4294
-29.4294
-29.4294
-29.4294
-29.4294
-29.4294
-29.4294
-29.4294
-29.4294
-29.4294
-29.4294
-29.4294
-29.4294
-29.4294
-29.4294
-29.4294
-29.4294
-29.422
-88.2881
-88.2881
-88.2881
-88.2881
-88.2881
-88.2881
-88.2881
-88.2881
-88.2881
-88.2881
-88.2881
-88.2881
-88.2881
-88.2881
-88.2881
-88.2881
-88.2881
-88.2881
-88.2881
-88.2881
-88.2881
-88.2881
-88.2616
-147.147
-147.147
-147.147
-147.147
-147.147
-147.147
-147.147
-147.147
-147.147
-147.147
-147.147
-147.147
-147.147
-147.147
-147.147
-147.147
-147.147
-147.147
-147.147
-147.147
-147.147
-147.147
-147.103
-206.006
-206.006
-206.006
-206.006
-206.006
-206.006
-206.006
-206.006
-206.006
-206.006
-206.006
-206.006
-206.006
-206.006
-206.006
-206.006
-206.006
-206.006
-206.006
-206.006
-206.006
-206.006
-205.945
-264.864
-264.864
-264.864
-264.864
-264.864
-264.864
-264.864
-264.864
-264.864
-264.864
-264.864
-264.864
-264.864
-264.864
-264.864
-264.864
-264.864
-264.864
-264.864
-264.864
-264.864
-264.864
-264.848
-323.723
-323.723
-323.723
-323.723
-323.723
-323.723
-323.723
-323.723
-323.723
-323.723
-323.723
-323.723
-323.723
-323.723
-323.723
-323.723
-323.723
-323.723
-323.723
-323.723
-323.723
-323.723
-323.723
-382.582
-382.582
-382.582
-382.582
-382.582
-382.582
-382.582
-382.582
-382.582
-382.582
-382.582
-382.582
-382.582
-382.582
-382.582
-382.582
-382.582
-382.582
-382.582
-382.582
-382.582
-382.582
-382.582
-440.846
-440.839
-440.927
-441.031
-441.134
-441.212
-441.316
-441.375
-441.416
-441.435
-441.439
-441.44
-441.44
-441.44
-441.44
-441.44
-441.44
-441.44
-441.44
-441.44
-441.44
-441.44
-441.44
-8.92975
-8.33048
-6.38482
-7.77832
-13.6757
-16.1212
-16.4961
-16.8621
-19.9262
-21.187
-21.187
-21.1842
-21.1842
-21.1543
-21.0735
-21.5797
-21.8193
-21.8211
-21.3558
-26.7715
-2.33191e-18
-0.0126365
-4.01195e-12
-4.30187e-18
-4.01195e-12
-6.70593
-29.539
-37.4379
-34.3365
-27.3966
-25.6517
-29.9086
-44.5795
-55.7375
-59.1274
-59.8081
-65.4914
-65.4913
-34.2761
1.65285e-36
-2.51159e-21
-0.0102068
-0.715962
-0.722361
-0.722445
-5.07538
-7.11669
-0.0895271
-0.000120011
-0.000120005
-1.12122
-7.93943
-15.7914
-19.6032
-22.6037
-67.2358
-109.459
-7.34517
1.43547e-30
-4.56194e-11
-4.36241e-28
-52.2889
-74.3966
-13.5989
-2.55673
-2.55674
-0.791474
-0.000168008
-0.00608584
-0.00403228
-3.2492e-08
-3.2492e-08
-3.2492e-08
-3.2492e-08
-31.1834
-149.736
-0.0186957
5.46145e-25
-5.68639e-10
-3.29471e-28
-173.852
-253.946
-105.996
-11.9073
-0.290273
-0.287147
-0.0394129
-0.00368671
-0.000268814
-4.17754e-08
-2.50295e-07
-0.00256574
-0.565906
-14.5019
-99.7817
-5.08526e-08
-4.02767e-07
-1.55069e-08
-4.89228e-17
-263.253
-319.69
-230.871
-34.71
-0.382125
-0.0623257
-0.0623285
-0.00234549
-4.19194e-08
-6.35731e-08
-1.68777e-06
-0.000151739
-0.0750876
-11.3566
-143.317
-1.25781e-09
-1.90613e-06
-1.73865e-11
-57.2924
-345.313
-377.823
-286.45
-41.5517
-0.379207
-0.0222046
-0.0563166
-0.00535798
-4.95417e-08
-4.95429e-08
-4.37538e-08
-4.37532e-08
-0.00564191
-12.0227
-296.429
-2.00616e-11
-2.00613e-11
-2.00616e-11
-192.261
-431.112
-435.941
-250.614
-17.5936
-0.145889
-0.00431928
-0.0105973
-0.00403005
-4.76352e-06
-4.67088e-08
-4.67093e-08
-1.42346e-07
-1.42352e-07
-3.33367
-342.053
-410.525
-411.739
-418.23
-426.817
-437.965
-449.97
-467.593
-483.027
-501.109
-517.223
-526.318
-530.413
-532.831
-533.467
-533.467
-533.467
-533.467
-533.467
-533.467
-533.467
-533.467
-533.467
-533.467
-53.8072
-56.7557
-61.4657
-68.1268
-79.3268
-93.8141
-116.072
-141.759
-181.583
-236.749
-317.155
-413.694
-511.016
-598.202
-657.476
-658.662
-658.662
-658.662
-658.662
-658.662
-658.662
-658.662
-658.662
-6.90122e-35
5.27849e-33
-4.63624e-32
-1.30501e-30
5.37407e-30
1.52447e-28
-3.60216e-28
-5.83857e-29
8.42915e-30
8.30955e-31
2.14842e-19
-14.6196
-52.8987
-125.558
-246.151
-423.449
-649.569
-780.762
-783.856
-783.856
-783.856
-783.856
-783.856
-2.03179e-15
-9.66785e-14
-2.84135e-12
-4.99515e-11
-5.61607e-10
-4.95704e-09
-7.74304e-09
-5.70622e-09
-2.53396e-09
-5.1169e-11
-1.41602e-06
-1.12896e-18
-2.22189e-18
-1.04488
-7.84895
-34.8526
-96.9524
-242.078
-474.547
-729.609
-873.304
-896.762
-906.531
-5.5161e-15
-2.76413e-13
-8.20848e-12
-1.44959e-10
-1.78893e-09
-1.59751e-08
-2.75705e-08
-4.33752e-08
-3.30309e-08
-4.2431e-11
-1.54919e-05
-0.000119001
-1.28445e-18
-0.00021903
-0.000135341
-0.00158803
-2.44058e-05
-8.75207
-43.5329
-78.685
-170.247
-288.589
-479.077
-6.07929e-15
-3.19016e-13
-9.59769e-12
-1.70905e-10
-2.221e-09
-2.07798e-08
-3.60727e-08
-9.03416e-08
-1.36702e-07
-6.56673e-09
-4.25735e-06
-0.0013099
-0.00205846
-0.00246586
-0.00246587
-0.000514205
-2.73602e-05
-1.38796e-09
-1.38796e-09
-1.38796e-09
-1.38796e-09
-1.38796e-09
-1.38796e-09
-5.54992e-15
-2.89239e-13
-8.31767e-12
-1.36441e-10
-1.55023e-09
-1.7715e-08
-2.36228e-08
-1.1363e-07
-4.65039e-07
-2.94745e-07
-2.94772e-07
-0.00147998
-0.00273181
-0.0027318
-0.00135538
-0.000166198
-1.8616e-05
-1.12439e-05
-6.96569e-06
-4.42162e-05
-0.00303752
-0.000610674
-8.99207e-06
-3.72579e-15
-1.81124e-13
-4.98904e-12
-7.73375e-11
-8.17203e-10
-9.81715e-09
-9.13074e-09
-1.30636e-07
-9.33323e-07
-2.73083e-06
-7.01603e-05
-2.6653e-07
-0.000221653
-1.84248e-08
-1.8428e-08
-8.90236e-06
-4.47978e-05
-4.89618e-05
-1.87364e-05
-2.72175e-05
-0.00010227
-4.47902e-05
-0.000237292
-1.79655e-15
-8.28422e-14
-2.18693e-12
-3.26241e-11
-3.20859e-10
-3.85684e-09
-2.35853e-09
-1.06916e-07
-1.25493e-06
-5.50856e-06
-2.69165e-06
-2.90194e-07
-1.06274e-07
-1.40865e-07
-9.40973e-08
-9.20351e-08
-3.75197e-05
-5.3306e-05
-4.76508e-05
-2.97926e-05
-4.52821e-06
-1.18264e-07
-2.94867e-07
-7.23121e-16
-3.20395e-14
-8.22478e-13
-1.19617e-11
-1.13338e-10
-1.31537e-09
-6.38771e-10
-9.84703e-08
-7.5474e-07
-3.76699e-06
-2.27835e-06
-6.60488e-07
-2.30537e-07
-4.43373e-07
-7.40403e-07
-7.19259e-07
-3.79748e-07
-1.96653e-05
-2.02619e-05
-7.58716e-06
-4.29687e-07
-1.27793e-07
-3.79887e-05
-2.39822e-16
-1.01468e-14
-2.52299e-13
-3.55658e-12
-3.29273e-11
-3.49372e-10
-4.59494e-10
-4.52232e-08
-2.69969e-07
-1.9972e-07
-2.92664e-07
-2.4476e-07
-2.2803e-07
-4.19257e-07
-8.07792e-07
-8.62126e-07
-4.08605e-07
-2.64428e-07
-2.64432e-07
-5.42183e-07
-8.5445e-07
-3.71558e-07
-2.13732e-09
-6.52359e-17
-2.6741e-15
-6.51369e-14
-9.02955e-13
-8.40708e-12
-7.16772e-11
-3.112e-10
-1.11442e-08
-5.06884e-08
-5.54901e-08
-6.77623e-08
-7.2066e-08
-7.77813e-08
-1.0225e-07
-2.54668e-07
-4.75405e-07
-5.19947e-07
-4.36443e-07
-3.41845e-07
-3.30414e-07
-3.25267e-07
-2.70046e-07
-1.50748e-07
-1.44161e-17
-5.67605e-16
-1.3474e-14
-1.83562e-13
-1.73463e-12
-1.32967e-11
-1.08831e-10
-2.07626e-09
-5.98621e-09
-1.22214e-08
-1.71653e-08
-1.74894e-08
-1.84313e-08
-2.21314e-08
-3.38373e-08
-6.41173e-08
-1.40669e-07
-2.52111e-07
-3.22839e-07
-3.34659e-07
-3.11635e-07
-2.25578e-07
-1.35596e-07
-2.56458e-18
-9.90174e-17
-2.33059e-15
-3.1841e-14
-3.10879e-13
-2.3524e-12
-3.03416e-11
-2.52037e-10
-8.54436e-10
-1.88776e-09
-2.63412e-09
-2.75408e-09
-2.99381e-09
-3.68075e-09
-5.60192e-09
-9.83211e-09
-1.86775e-08
-3.43027e-08
-5.59288e-08
-6.3485e-08
-7.04002e-08
-6.51326e-08
-5.4708e-08
-3.61364e-19
-1.36854e-17
-3.21429e-16
-4.46204e-15
-4.55887e-14
-3.55789e-13
-5.99836e-12
-2.6611e-11
-7.71171e-11
-1.60331e-10
-2.211e-10
-2.5443e-10
-3.17881e-10
-4.83791e-10
-8.88881e-10
-1.61517e-09
-2.66982e-09
-3.78094e-09
-5.31881e-09
-7.06665e-09
-9.73817e-09
-1.15247e-08
-1.23953e-08
-3.94802e-20
-1.49686e-18
-3.57714e-17
-5.1466e-16
-5.5617e-15
-4.49143e-14
-7.8324e-13
-2.87038e-12
-6.25649e-12
-8.1566e-12
-9.86428e-12
-1.33317e-11
-2.49415e-11
-5.6765e-11
-1.26887e-10
-2.39675e-10
-3.79262e-10
-5.09167e-10
-6.85828e-10
-9.09811e-10
-1.32486e-09
-1.80863e-09
-2.37828e-09
-3.24713e-21
-1.25591e-19
-3.11458e-18
-4.7335e-17
-5.44491e-16
-4.48696e-15
-6.41962e-14
-2.58856e-13
-5.49312e-13
-6.65432e-13
-7.82187e-13
-1.15645e-12
-2.595e-12
-6.66569e-12
-1.55712e-11
-2.97011e-11
-4.65665e-11
-6.25854e-11
-8.48759e-11
-1.1366e-10
-1.70582e-10
-2.5032e-10
-3.78702e-10
-1.92622e-22
-7.86063e-21
-2.07907e-19
-3.3931e-18
-4.13506e-17
-3.41335e-16
-3.17108e-15
-1.27896e-14
-3.06354e-14
-4.45492e-14
-6.04153e-14
-1.01242e-13
-2.32792e-13
-5.76265e-13
-1.2849e-12
-2.37425e-12
-3.63995e-12
-4.92704e-12
-6.92769e-12
-9.99215e-12
-1.68223e-11
-2.77584e-11
-4.85061e-11
-7.74018e-24
-3.47226e-22
-1.00783e-20
-1.78065e-19
-2.26884e-18
-1.85481e-17
-1.15179e-16
-3.8009e-16
-7.78885e-16
-1.29893e-15
-2.29527e-15
-5.27109e-15
-1.38157e-14
-3.35833e-14
-6.96429e-14
-1.19428e-13
-1.732e-13
-2.30749e-13
-3.39809e-13
-5.56471e-13
-1.15611e-12
-2.30816e-12
-4.87001e-12
-1.931e-25
-1.01005e-23
-3.30649e-22
-6.32417e-21
-8.30457e-20
-6.62185e-19
-3.51416e-18
-1.02342e-17
-2.14781e-17
-4.23821e-17
-9.64118e-17
-2.56884e-16
-6.66164e-16
-1.4778e-15
-2.6411e-15
-3.77416e-15
-4.96723e-15
-6.39802e-15
-9.52054e-15
-1.82593e-14
-5.10715e-14
-1.35336e-13
-3.72603e-13
-2.77382e-27
-1.6295e-25
-5.83345e-24
-1.17215e-22
-1.56008e-21
-1.21604e-20
-5.44157e-20
-1.70177e-19
-4.58333e-19
-1.27199e-18
-3.64223e-18
-1.01753e-17
-2.48133e-17
-4.96668e-17
-7.19489e-17
-8.93382e-17
-1.08235e-16
-1.33446e-16
-1.84011e-16
-3.70166e-16
-1.3707e-15
-5.40847e-15
-2.30858e-14
-3.73378e-29
-1.51989e-27
-4.05085e-26
-7.09852e-25
-1.0314e-23
-1.04853e-22
-6.24666e-22
-2.8241e-21
-1.09959e-20
-3.87297e-20
-1.16638e-19
-3.07581e-19
-6.87917e-19
-1.27267e-18
-1.81034e-18
-2.23307e-18
-2.58915e-18
-2.99872e-18
-3.50758e-18
-5.43654e-18
-2.21626e-17
-1.86605e-16
-2.49199e-15
-1.09961e-30
-4.66095e-29
-1.24786e-27
-2.14717e-26
-2.9714e-25
-2.95354e-24
-1.78519e-23
-8.14157e-23
-3.09404e-22
-1.03321e-21
-2.86071e-21
-6.87063e-21
-1.42194e-20
-2.5331e-20
-3.65909e-20
-4.57607e-20
-5.22442e-20
-5.58499e-20
-5.21639e-20
-5.93247e-20
-7.68266e-19
-3.56025e-17
-1.06109e-15
-1.58514e-32
-7.00306e-31
-1.85367e-29
-3.0005e-28
-3.51157e-27
-2.96668e-26
-1.96337e-25
-1.02867e-24
-4.25319e-24
-1.44335e-23
-3.89029e-23
-9.0701e-23
-1.86321e-22
-3.41963e-22
-5.28671e-22
-6.90714e-22
-8.03258e-22
-8.23599e-22
-8.91798e-22
-3.14596e-21
-2.20762e-19
-1.23917e-17
-3.90909e-16
-4.85349e-38
-1.50447e-36
-2.71211e-35
-2.96423e-34
-2.18481e-33
-8.42427e-33
-2.49988e-32
-1.20116e-31
-6.6498e-31
-3.00277e-30
-1.01626e-29
-2.86387e-29
-6.91867e-29
-1.29861e-28
-2.18209e-28
-2.25245e-27
-2.05398e-25
-1.31168e-23
-5.95104e-22
-1.28158e-20
-2.21289e-19
-4.23548e-18
-1.00902e-16
-2.56515e-42
-1.10504e-40
-2.87186e-39
-4.98727e-38
-6.8645e-37
-8.65808e-36
-1.8966e-34
-2.69884e-33
-1.91554e-32
-9.07115e-32
-3.04614e-31
-8.39727e-31
-1.98983e-30
-6.33695e-30
-4.91515e-28
-7.20191e-26
-8.23884e-24
-5.63034e-22
-2.68912e-20
-6.26689e-19
-9.53244e-18
-6.46835e-17
-2.39444e-16
-1.03119e-45
-4.45946e-44
-1.1026e-42
-1.73163e-41
-1.93526e-40
-1.62312e-39
-1.05387e-38
-5.56228e-38
-2.34422e-37
-8.75004e-37
-6.01982e-36
-1.10529e-33
-3.72074e-31
-9.39205e-29
-1.9244e-26
-2.70996e-24
-2.96499e-22
-2.01657e-20
-9.61418e-19
-2.3996e-17
-3.97507e-16
-3.20906e-15
-1.56911e-14
-2.30781e-51
-1.35038e-49
-4.49424e-48
-9.71566e-47
-1.51414e-45
-1.82379e-44
-1.7443e-43
-2.09744e-42
-4.0535e-40
-2.35107e-37
-1.22828e-34
-4.7501e-32
-1.53369e-29
-3.5948e-27
-6.82539e-25
-9.03598e-23
-9.21422e-21
-6.02206e-19
-2.7643e-17
-7.0486e-16
-1.20566e-14
-1.10878e-13
-6.37427e-13
-5.97789e-55
-3.92527e-53
-1.44389e-51
-3.48882e-50
-6.5763e-49
-3.43705e-47
-2.73106e-44
-2.45546e-41
-1.85921e-38
-1.0762e-35
-5.23858e-33
-1.91376e-30
-5.75213e-28
-1.25706e-25
-2.18963e-23
-2.67444e-21
-2.48964e-19
-1.51732e-17
-6.50475e-16
-1.62885e-14
-2.80744e-13
-2.85356e-12
-1.67919e-11
-2.36927e-61
-7.91816e-59
-2.04132e-55
-4.74706e-52
-8.54842e-49
-1.18955e-45
-1.33656e-42
-1.15888e-39
-8.368e-37
-4.62484e-34
-2.11492e-31
-7.24587e-29
-2.00917e-26
-4.04979e-24
-6.39807e-22
-7.1026e-20
-5.93386e-18
-3.28861e-16
-1.28186e-14
-3.05105e-13
-5.31407e-12
-5.78768e-11
-3.06612e-10
-5.22969e-61
-2.89526e-57
-1.03011e-53
-2.42557e-50
-4.33957e-47
-5.84558e-44
-6.36207e-41
-5.31634e-38
-3.64387e-35
-1.90491e-32
-8.11002e-30
-2.5806e-27
-6.53951e-25
-1.20233e-22
-1.70273e-20
-1.6919e-18
-1.24656e-16
-6.14029e-15
-2.12813e-13
-4.71938e-12
-8.63608e-11
-9.4936e-10
-4.02673e-09
-2.13499e-59
-1.47315e-55
-5.26787e-52
-1.24215e-48
-2.19033e-45
-2.88273e-42
-3.01242e-39
-2.40536e-36
-1.55071e-33
-7.60227e-31
-2.98565e-28
-8.7397e-26
-2.00388e-23
-3.32335e-21
-4.17149e-19
-3.66136e-17
-2.3445e-15
-1.00705e-13
-3.04699e-12
-6.25209e-11
-1.28885e-09
-1.25847e-08
-3.83201e-08
-1.14568e-57
-7.94514e-54
-2.84931e-50
-6.68188e-47
-1.14947e-43
-1.46451e-40
-1.45477e-37
-1.10075e-34
-6.60683e-32
-3.00843e-29
-1.07721e-26
-2.8675e-24
-5.86827e-22
-8.65476e-20
-9.47678e-18
-7.22359e-16
-3.94882e-14
-1.45051e-12
-3.7713e-11
-7.26022e-10
-1.83822e-08
-1.29572e-07
-2.60761e-07
-6.76817e-56
-4.73929e-52
-1.6936e-48
-3.91456e-45
-6.4987e-42
-7.94647e-39
-7.43345e-36
-5.28856e-33
-2.92398e-30
-1.22462e-27
-3.94568e-25
-9.43514e-23
-1.69584e-20
-2.1892e-18
-2.05038e-16
-1.33025e-14
-6.07944e-13
-1.88022e-11
-4.18466e-10
-7.97218e-09
-2.65378e-07
-1.08923e-06
-1.32821e-06
-3.89259e-54
-2.73399e-50
-9.63077e-47
-2.17007e-43
-3.4579e-40
-4.0293e-37
-3.55325e-34
-2.37417e-31
-1.21605e-28
-4.69045e-26
-1.36699e-23
-2.93817e-21
-4.65074e-19
-5.24768e-17
-4.19669e-15
-2.30361e-13
-8.68601e-12
-2.22642e-10
-4.27293e-09
-9.04492e-08
-4.11803e-06
-2.16301e-05
-1.76456e-05
-2.10427e-52
-1.47014e-48
-5.05417e-45
-1.09612e-41
-1.64991e-38
-1.79883e-35
-1.46382e-32
-8.97911e-30
-4.17348e-27
-1.45335e-24
-3.76799e-22
-7.15075e-20
-9.84017e-18
-9.58122e-16
-6.51284e-14
-3.01483e-12
-9.45639e-11
-2.02303e-09
-3.24653e-08
-5.16958e-07
-2.60192e-05
-0.000411941
-0.000517974
-5.5851e-51
-3.75019e-47
-1.23602e-43
-2.56117e-40
-3.65531e-37
-3.74964e-34
-2.85416e-31
-1.63079e-28
-7.04405e-26
-2.27508e-23
-5.44052e-21
-9.41795e-19
-1.16481e-16
-1.0046e-14
-5.9456e-13
-2.3517e-11
-6.10744e-10
-1.01815e-08
-1.08929e-07
-7.98414e-07
-1.72063e-05
-0.000706085
-0.00300416
-1.65816e-49
-1.06138e-45
-3.28793e-42
-6.33994e-39
-8.30156e-36
-7.71997e-33
-5.25534e-30
-2.65868e-27
-1.00591e-24
-2.83027e-22
-5.87442e-20
-8.83586e-18
-9.48184e-16
-7.0875e-14
-3.60509e-12
-1.20888e-10
-2.61059e-09
-3.5137e-08
-2.91451e-07
-1.59084e-06
-1.3725e-05
-0.000398144
-0.0182431
-1.1285e-48
-6.08103e-45
-1.69521e-41
-3.16635e-38
-4.00312e-35
-3.53579e-32
-2.24863e-29
-1.07062e-26
-3.87748e-24
-1.05801e-21
-2.15559e-19
-3.21513e-17
-3.43889e-15
-2.55298e-13
-1.26439e-11
-3.95932e-10
-7.88241e-09
-9.70648e-08
-6.73477e-07
-2.31767e-06
-4.37288e-06
-0.000745946
-0.0315681
-2.11819e-47
-1.00007e-43
-2.26525e-40
-3.21776e-37
-3.19194e-34
-2.31608e-31
-1.25944e-28
-5.18088e-26
-1.62076e-23
-3.8493e-21
-6.91778e-19
-9.32343e-17
-9.31135e-15
-6.76336e-13
-3.45276e-11
-1.20322e-09
-2.65718e-08
-3.47565e-07
-2.63179e-06
-6.34333e-06
-6.40748e-06
-0.000129999
-0.010563
-5.71059e-47
-2.24049e-43
-4.17839e-40
-4.85133e-37
-3.90618e-34
-2.29441e-31
-1.02225e-28
-3.51024e-26
-9.48018e-24
-2.04004e-21
-3.55868e-19
-5.05483e-17
-5.81409e-15
-5.27707e-13
-3.62239e-11
-1.74283e-09
-5.57546e-08
-1.13589e-06
-6.29454e-06
-6.29457e-06
-6.29459e-06
-5.84782e-05
9.86247e-24
-6.34444e-46
-2.37476e-42
-4.19088e-39
-4.56605e-36
-3.40337e-33
-1.82243e-30
-7.20244e-28
-2.13035e-25
-4.75294e-23
-8.0224e-21
-1.02425e-18
-9.87547e-17
-7.15593e-15
-3.88974e-13
-1.60118e-11
-5.14863e-10
-1.23575e-08
-1.96898e-07
-5.86061e-06
-0.000583457
-0.00203444
-0.00148678
1.91519e-25
-533.467
-533.386
-533.384
-533.395
-658.662
-658.593
-658.573
-658.573
-783.856
-783.856
-783.824
-783.731
-907.172
-907.584
-907.697
-907.857
-624.745
-709.018
-740.897
-777.209
-1.38796e-09
-1.38796e-09
-1.38796e-09
-13.1903
-9.17499e-06
-2.09355e-06
-1.20008e-08
-1.53783e-09
-0.000411945
-0.000411945
-0.000338894
-7.31103e-05
-2.99961e-07
-3.32407e-05
-0.00914572
-0.0103743
-5.30013e-05
-0.000157337
-0.000260229
-0.000593181
-2.13732e-09
-2.13732e-09
-2.13732e-09
-2.13732e-09
-4.79455e-08
-1.17456e-08
-5.57015e-08
-3.38716e-05
-7.38104e-08
-5.21194e-08
-5.64355e-07
-6.87503e-06
-4.34521e-08
-3.24869e-08
-6.19129e-08
-2.80773e-07
-1.20003e-08
-1.16177e-08
-1.256e-08
-2.47199e-08
-2.71307e-09
-2.87947e-09
-3.24941e-09
-4.20529e-09
-4.9717e-10
-5.83376e-10
-7.02541e-10
-8.77519e-10
-7.17864e-11
-9.31792e-11
-1.21867e-10
-1.61359e-10
-8.12047e-12
-1.16428e-11
-1.67174e-11
-2.40148e-11
-7.11662e-13
-1.13646e-12
-1.8137e-12
-2.87033e-12
-5.24476e-14
-9.54071e-14
-1.73129e-13
-3.09386e-13
-6.75423e-15
-1.36736e-14
-2.77544e-14
-5.52806e-14
-2.93548e-15
-5.97578e-15
-1.23363e-14
-2.51619e-14
-1.09613e-15
-2.27373e-15
-4.82639e-15
-1.02155e-14
-2.82107e-16
-5.9395e-16
-1.29307e-15
-2.82885e-15
-3.32754e-16
-3.17508e-16
-3.60724e-16
-5.81781e-16
-2.64506e-14
-3.17838e-14
-3.8042e-14
-2.83438e-14
-1.21981e-12
-1.80192e-12
-2.94599e-12
-3.83367e-12
-3.41263e-11
-5.64393e-11
-1.12986e-10
-1.73051e-10
-6.3664e-10
-1.15817e-09
-2.7663e-09
-4.29727e-09
-8.51355e-09
-1.72629e-08
-4.68523e-08
-6.93512e-08
-8.57069e-08
-1.93279e-07
-5.61388e-07
-7.92709e-07
-6.84497e-07
-1.60345e-06
-5.04377e-06
-6.65643e-06
-4.92033e-06
-8.50838e-06
-1.94474e-05
-2.04337e-05
-4.2182e-05
-2.65037e-05
-3.04641e-05
-2.75775e-05
-0.000422716
-0.000906931
-0.000476758
-0.000170948
-0.0193074
-0.0307431
-0.019643
-0.0059094
-0.0426864
-0.0426864
-0.0426864
-0.0426864
-0.0437209
-0.0437209
-0.0437209
-0.0389098
-0.0446451
-0.0346385
-0.005033
-8.14857e-28
8.65346e-23
2.92202e-22
6.2805e-22
5.89921e-22
7.57269e-25
9.87633e-25
3.39728e-25
7.67464e-26
-314.273
-111.664
-172.83
-429.556
-532.332
-526.276
-205.597
-6.52832
-0.0133762
-0.000412716
-7.08495e-06
-0.000145185
-5.47047e-07
-6.6934e-08
-3.74902e-08
-6.09771e-07
-3.18728e-06
3.72537e-25
-406.437
-651.801
-658.662
-658.662
-658.662
-658.662
-617.875
-145.573
-1.57807
-0.00118577
-2.95574e-05
-5.8774e-07
-5.87788e-07
-3.65516e-07
-1.05415e-07
-3.60413e-08
-1.3527e-06
-3.93638e-06
1.36142e-25
-486.914
-783.856
-783.856
-783.856
-783.856
-783.856
-701.505
-93.3573
-0.147493
-0.000163786
-4.55302e-06
-7.39166e-07
-6.49704e-07
-6.36277e-07
-2.10863e-07
-5.45852e-08
-1.89369e-06
-2.44301e-06
-2.21372e-18
-625.998
-908.12
-908.234
-908.593
-908.968
-909.051
-830.734
-84.7005
-2.49828e-13
-4.09594e-05
-2.28595e-06
-1.20245e-06
-1.11692e-06
-6.84105e-07
-1.7205e-07
-1.98134e-07
-2.22565e-06
-2.56024e-13
-30.7616
-792.4
-814.455
-846.689
-914.03
-1006.03
-1033.88
-1003.61
-194.589
-2.84024e-13
-1.05991e-06
-1.95617e-06
-1.4418e-06
-1.13929e-06
-4.51249e-07
-1.46386e-07
-1.25895e-07
-2.01347e-06
-2.91052e-13
-161.998
-945.662
-51.8902
-102.962
-234.069
-605.75
-1070.85
-1136.67
-566.13
-3.18633e-13
-5.8679e-07
-1.5694e-06
-1.2631e-06
-6.78454e-07
-2.62762e-07
-2.15468e-07
-4.01425e-07
-9.77371e-07
-3.26518e-13
-285.529
-1091.4
-1.53783e-09
-1.53783e-09
-1.53783e-09
-18.8502
-482.402
-1239.49
-1088.33
-16.471
-1.11071e-07
-8.04386e-07
-7.48709e-07
-3.99999e-07
-2.76159e-07
-4.11864e-07
-6.39295e-07
-6.46076e-07
-3.61499e-13
-387.573
-1230.22
-1.6877e-09
-8.64353e-06
-8.35943e-06
-8.35971e-06
-5.09195
-673.679
-1304.45
-751.095
-1.21896e-07
-1.70642e-07
-2.9611e-07
-2.22931e-07
-2.50472e-07
-2.60431e-07
-7.28801e-07
-0.00597243
-3.97033e-13
-551.523
-1371.43
-0.0103735
-0.00198858
-0.00519227
-0.0139943
-0.0665821
-38.7747
-997.468
-1194.02
-745.967
-4.20851e-13
-4.20959e-13
-4.20851e-13
-4.20959e-13
-4.20851e-13
-4.20959e-13
-4.20857e-13
-84.6144
-1078.49
-1518.32
-0.00128449
-0.00325286
-0.0547554
-0.0547538
-0.00757753
-0.00757761
-38.9242
-1096.72
-1168.46
-758.138
-201.867
-199.426
-143.265
-27.9881
-24.0035
-190.081
-1088.15
-1651.23
-1651.48
-0.00979153
-0.061354
-0.0613543
-0.0240872
-0.0340746
-1.54683
-12.5002
-307.257
-1124.86
-1251.01
-1243.02
-1297.17
-1297.17
-1209.22
-1222.71
-1465.72
-1589.81
-1669.51
-1764.05
-0.00475236
-0.0153514
-0.00587527
-8.17994e-05
-0.0914277
-36.3885
-212.039
-314.329
-435.973
-835.574
-1020.07
-789.299
-625.581
-668.559
-692.729
-567.968
-450.72
-957.293
-1859.56
-1.75562e-05
-1.15178e-05
-1.6655e-05
-7.70173e-06
-0.0635623
-58.4695
-845.976
-1420.65
-1432.79
-1432.74
-1432.76
-840.958
-579.658
-236.811
-184.052
-184.05
-480.251
-1399.66
-2013.16
-1.20004e-07
-5.53343e-07
-7.13146e-07
-8.11038e-06
-0.345938
-0.692853
-0.00194213
-28.5976
-732.522
-1344.94
-1618.15
-1891.72
-1891.69
-1355.89
-1131.58
-1212.85
-1759.06
-2047.26
-2142.72
-3.53125e-08
-4.31996e-07
-1.36982e-06
-0.0016153
-0.0713438
-0.0548867
-0.00205406
-8.78078e-07
-8.78078e-07
-8.78078e-07
-14.102
-745.536
-1491.83
-2086.99
-2263.17
-2263.17
-2263.17
-2263.17
-2221.63
-6.73975e-09
-1.67665e-07
-1.25194e-06
-0.000186307
-0.00321533
-0.0513674
-0.113721
-0.0214682
-3.03787e-05
-0.00076266
-9.26162e-07
-9.26162e-07
-9.26162e-07
-389.844
-1282.38
-2056.54
-2376.56
-2387.1
-2314.75
-1.36129e-09
-2.94156e-08
-7.76239e-07
-5.75464e-06
-5.60733e-06
-0.0171903
-0.119858
-0.119974
-0.0781256
-0.0221268
-0.0450455
-0.0150681
-9.74247e-07
-9.74247e-07
-9.74247e-07
-821.868
-2180.79
-2366.66
-2451.89
-2.69368e-10
-3.90433e-09
-1.61509e-07
-1.20456e-06
-5.88503e-06
-4.94775e-07
-0.0324824
-0.101114
-0.0703827
-0.0404366
-0.071235
-0.062341
-1.02233e-06
-0.0149415
-11.3511
-198.921
-1615.67
-2557.35
-2603.85
-4.67926e-11
-4.54392e-10
-2.4955e-08
-4.42002e-07
-1.18754e-06
-5.19759e-07
-0.0006469
-0.00835534
-0.00496995
-1.75145e-06
-0.00577645
-6.60583e-07
-0.00407549
-0.0398499
-1.21816
-15.6569
-491.453
-2281.51
-2726.3
-7.23966e-12
-5.76454e-11
-3.11272e-09
-8.08584e-08
-3.5798e-07
-7.2845e-07
-2.54384e-06
-1.84364e-06
-1.45541e-06
-1.83013e-06
-6.90257e-07
-6.90257e-07
-2.0359e-06
-0.0340283
-0.00316668
-0.000148141
-0.000145798
-810.811
-1703.92
-4.73748e-12
-3.04255e-11
-5.48274e-10
-1.27516e-08
-1.06454e-07
-3.16249e-07
-2.46141e-07
-2.46142e-07
-3.09605e-07
-5.77004e-07
-1.06182e-06
-1.48784e-06
-1.19111e-06
-7.19931e-07
-7.19931e-07
-0.0373764
-12.3195
-163.575
-680.947
-4.2614e-12
-3.76186e-11
-3.58681e-10
-3.50847e-09
-2.71304e-08
-8.58222e-08
-1.7127e-07
-2.99065e-07
-5.1296e-07
-1.00935e-06
-1.8384e-06
-1.91294e-06
-1.14291e-06
-7.49606e-07
-0.000453471
-0.224639
-0.861173
-25.0287
-425.842
-2.87187e-12
-3.57345e-11
-3.11583e-10
-2.3944e-09
-1.43995e-08
-5.4263e-08
-1.50275e-07
-3.41139e-07
-8.1155e-07
-1.95817e-06
-2.42723e-06
-2.06005e-06
-7.84004e-07
-7.7928e-07
-3.36842e-06
-0.330403
-0.0215233
-12.5428
-662.366
-9.22587e-13
-2.28539e-11
-2.00047e-10
-1.60478e-09
-1.00622e-08
-4.36242e-08
-1.39963e-07
-3.77193e-07
-1.07013e-06
-2.17899e-06
-2.33333e-06
-1.40557e-06
-6.13854e-06
-2.3764e-05
-3.49668e-06
-0.152599
-0.0223431
-0.392837
-687.588
-2.20399e-13
-7.52891e-12
-7.03e-11
-6.49146e-10
-5.0992e-09
-3.02045e-08
-1.2064e-07
-3.77868e-07
-1.1071e-06
-1.99449e-06
-1.30481e-06
-9.77869e-07
-0.000179916
-0.000281158
-5.20777e-05
-1.00805e-24
2.45805e-23
1.57324e-19
-634.318
-1.16292e-13
-4.34727e-12
-3.68776e-11
-2.48963e-10
-1.80218e-09
-1.30183e-08
-7.56737e-08
-3.2873e-07
-1.09487e-06
-1.31264e-06
-4.60839e-07
-1.30397e-05
-0.00046344
-0.000297653
-7.82443e-06
-1.20447e-05
-4.43225e-05
-1.82914e-18
-153.253
-2.78968e-13
-7.15073e-12
-5.6175e-11
-2.65454e-10
-1.69906e-09
-1.18554e-08
-5.77728e-08
-2.6621e-07
-8.56377e-07
-6.65237e-07
-4.76209e-07
-0.000286397
-0.00051385
-0.000847075
-0.0475471
-1.00817
-1.32649
-8.01255
-197.386
-7.77061e-12
-2.59961e-11
-1.30984e-10
-4.86833e-10
-2.19144e-09
-1.2768e-08
-5.63926e-08
-2.08309e-07
-5.45703e-07
-4.91943e-07
-4.91941e-07
-0.000402371
-0.000435943
-0.00115117
-1.33777
-49.2971
-199.481
-371.261
-831.645
-6.50553e-10
-7.05574e-10
-1.27407e-09
-2.99653e-09
-6.90811e-09
-1.86942e-08
-5.81364e-08
-1.58271e-07
-3.64966e-07
-3.64964e-07
-1.03942e-05
-0.000186524
-0.000195412
-0.00111952
-1.69834
-118.748
-701.359
-948.889
-948.872
-1.78625e-08
-4.21168e-08
-3.51612e-08
-3.3485e-08
-5.25404e-08
-9.27805e-08
-1.14408e-07
-1.59186e-07
-1.41383e-07
-1.91714e-06
-2.40558e-05
-2.70488e-05
-5.48288e-05
-0.000985661
-2.26284
-105.032
-533.393
-978.284
-853.819
-3.0005e-07
-6.91272e-07
-1.27885e-06
-5.10575e-07
-5.41196e-08
-5.41155e-08
-1.21959e-07
-1.68393e-07
-1.37163e-07
-8.36923e-07
-2.48123e-05
-1.5735e-05
-1.85235e-05
-1.85233e-05
-3.75055
-8.52417
-0.028503
-985.225
-762.04
-3.88452e-06
-5.46903e-06
-1.24166e-05
-2.20565e-05
-1.71048e-05
-3.24138e-06
-9.09265e-07
-2.7848e-07
-1.41254e-07
-1.41022e-07
-1.14253e-05
-1.145e-05
-1.145e-05
-0.128051
-2.108
-1.4453e-07
-0.0292953
-290.82
-940.686
-2.32658e-05
-3.53107e-05
-4.89312e-05
-0.000108103
-0.000108112
-7.33002e-05
-1.5656e-05
-2.23214e-06
-1.45022e-07
-6.68713e-05
-2.80237e-05
-1.17747e-05
-1.17746e-05
-0.207716
-0.505802
-1.48629e-07
-1.48629e-07
-22.7456
-2045.89
-3.18908e-05
-0.000616888
-0.0005634
-0.000230761
-4.07973e-05
-4.07948e-05
-4.07902e-05
-7.05095e-06
-0.000153777
-0.000180497
-0.000125606
-1.50602e-05
-1.21109e-05
-0.156867
-0.0411747
-0.000761168
-1.61179e-07
-34.1705
-2102.55
-2.75774e-05
-0.00690774
-0.131743
-0.215133
-0.0345234
-0.00276779
-5.14616e-05
-1.15232e-05
-0.000120853
-0.000185681
-0.000135799
-1.71178e-05
-1.2436e-05
-0.0157919
-0.00323376
-0.00323869
-0.0160045
1.50097e-21
-2129.88
-0.000118374
-0.0392802
-0.559245
-0.902535
-0.622309
-0.0227612
-6.93014e-05
-1.16066e-05
-6.74674e-06
-6.67346e-06
-5.28064e-05
-1.49296e-05
-1.2761e-05
-0.00158236
-0.00774672
-0.00537624
-0.0164401
1.3775e-22
-1736.37
-0.00128945
-0.0443935
-0.499052
-0.925523
-0.925523
-0.163224
-3.84522e-06
-3.84522e-06
-0.000378705
-0.000339199
-4.87227e-05
-1.30983e-05
-1.30983e-05
-0.0592563
-0.0433317
-0.00710398
-0.00741465
-1.10826e-22
-1513.13
-0.0158708
-0.00260001
-0.0158205
-0.703211
-0.948511
-0.899036
-0.135076
-0.015334
-0.00857514
-0.00222182
-2.42707e-05
-1.34236e-05
-0.00281935
-0.0869045
-0.0863705
-0.00882442
-1.02751e-21
6.1295e-25
-1353.31
-0.0171125
-0.00266327
-0.00274223
-0.115094
-0.954893
-0.970514
-0.968977
-0.307937
-1.93003e-07
-0.00263768
-1.93003e-07
-0.00941031
-0.0209111
-0.0890061
-0.0719191
-0.00449307
-5.20249e-06
1.4805e-25
-1077.59
-0.000443548
-0.00294675
-0.00303089
-0.00304013
-0.0639573
-0.570479
-0.722468
-0.246468
-1.9757e-07
-0.00165297
-1.9757e-07
-0.0129866
-0.0212986
-0.0911169
-0.0341176
-0.000773612
-6.57102e-06
-9.68679e-07
-1159.93
1.35182e-22
-0.000236359
-0.002794
-0.00551091
-0.0093986
-0.021776
-0.052334
-0.0338634
-2.02137e-07
-2.02137e-07
-2.02137e-07
-0.00326723
-0.00795191
-0.051981
-0.00703307
-0.000786318
-5.69523e-06
-8.9936e-25
-814.792
-0
1.39231e-24
1.09913e-24
-2.07859e-06
-0.0162727
-0.050097
-0.0662343
-0.0115954
-0.00384941
-0.00283322
-0.00211179
-0.00186684
-0.00222374
-0.00245454
-0.00155014
-4.24551e-05
-2.57647e-07
-8.05781e-31
-159.667
)
;

boundaryField
{
    leftWall
    {
        type            calculated;
        value           nonuniform List<scalar> 
50
(
-29.4294
-88.2881
-147.147
-206.006
-264.864
-323.723
-382.582
-440.846
-410.525
-53.8072
-6.90122e-35
-2.03179e-15
-5.5161e-15
-6.07929e-15
-5.54992e-15
-3.72579e-15
-1.79655e-15
-7.23121e-16
-2.39822e-16
-6.52359e-17
-1.44161e-17
-2.56458e-18
-3.61364e-19
-3.94802e-20
-3.24713e-21
-1.92622e-22
-7.74018e-24
-1.931e-25
-2.77382e-27
-3.73378e-29
-1.09961e-30
-1.58514e-32
-4.85349e-38
-2.56515e-42
-1.03119e-45
-2.30781e-51
-5.97789e-55
-2.36927e-61
-5.22969e-61
-2.13499e-59
-1.14568e-57
-6.76817e-56
-3.89259e-54
-2.10427e-52
-5.5851e-51
-1.65816e-49
-1.1285e-48
-2.11819e-47
-5.71059e-47
-6.34444e-46
)
;
    }
    rightWall
    {
        type            calculated;
        value           nonuniform List<scalar> 
50
(
-21.3558
-65.4913
-109.459
-149.736
-99.7817
-143.317
-296.429
-342.053
-406.437
-486.914
-625.998
-792.4
-945.662
-1091.4
-1230.22
-1371.43
-1518.32
-1651.48
-1764.05
-1859.56
-2013.16
-2142.72
-2221.63
-2314.75
-2451.89
-2603.85
-2726.3
-1703.92
-680.947
-425.842
-662.366
-687.588
-634.318
-153.253
-197.386
-831.645
-948.872
-853.819
-762.04
-940.686
-2045.89
-2102.55
-2129.88
-1736.37
-1513.13
-1353.31
-1077.59
-1159.93
-814.792
-159.667
)
;
    }
    lowerWall
    {
        type            calculated;
        value           nonuniform List<scalar> 
62
(
0
0
0
0
0
0
0
0
0
0
0
0
0
0
0
0
0
0
0
0
0
0
0
-29.422
-88.2616
-147.103
-205.945
-264.848
-323.723
-382.582
-441.44
-470.87
-470.798
-470.796
-470.807
-8.92975
-26.7715
-34.2761
-7.34517
-0.0186957
-5.08526e-08
-1.25781e-09
-2.00616e-11
0
0
0
0
0
0
0
0
0
0
0
0
0
0
0
0
0
0
0
)
;
    }
    atmosphere
    {
        type            calculated;
        value           nonuniform List<scalar> 
46
(
-0
-0
-0
-0
-0
-0
-0
-0
-0
-0
-0
-0
-0
-0
-0
-0
-1.24941e-08
-1.99073e-07
-5.92535e-06
-0.000589903
-0.00205691
-0
-0
-0
-0
-0
-0
-0
-0
-0
-0
-0
-0
-0.066966
-0.0117235
-0.00389193
-0.00286452
-0.00213512
-0.00188746
-0.0022483
-0.00248165
-0.00156726
-0
-0
-0
-161.431
)
;
    }
    defaultFaces
    {
        type            empty;
    }
}


// ************************************************************************* //
