/*--------------------------------*- C++ -*----------------------------------*\
| =========                 |                                                 |
| \\      /  F ield         | OpenFOAM: The Open Source CFD Toolbox           |
|  \\    /   O peration     | Version:  2012                                  |
|   \\  /    A nd           | Website:  www.openfoam.com                      |
|    \\/     M anipulation  |                                                 |
\*---------------------------------------------------------------------------*/
FoamFile
{
    version     2.0;
    format      ascii;
    class       volScalarField;
    location    "0.02";
    object      maxKappa;
}
// * * * * * * * * * * * * * * * * * * * * * * * * * * * * * * * * * * * * * //

dimensions      [0 0 0 0 0 0 0];


internalField   nonuniform List<scalar> 
2268
(
1.01925e-07
2.00198e-07
3.02826e-07
4.13048e-07
5.27886e-07
6.6304e-07
7.98926e-07
9.90788e-07
1.17329e-06
1.49223e-06
1.88206e-06
6.66898e-06
6.55486e-05
9.01946e-05
9.01946e-05
7.35883e-05
4.56758e-05
3.38611e-05
2.55346e-05
1.97392e-05
1.47838e-05
1.00731e-05
5.32494e-06
1.24213e-07
2.11256e-07
3.09965e-07
4.18097e-07
5.3158e-07
6.65347e-07
7.9986e-07
9.89158e-07
1.16547e-06
1.47646e-06
1.79932e-06
6.45461e-06
5.94323e-05
7.19724e-05
7.19724e-05
6.07275e-05
4.23577e-05
3.29103e-05
2.53309e-05
1.98211e-05
1.50656e-05
1.061e-05
6.49002e-06
1.5661e-07
2.31332e-07
3.23601e-07
4.27909e-07
5.38829e-07
6.69941e-07
8.02112e-07
9.86571e-07
1.15676e-06
1.45114e-06
1.7263e-06
6.14336e-06
5.29035e-05
5.74767e-05
5.74767e-05
5.06638e-05
3.94238e-05
3.17383e-05
2.50721e-05
1.99987e-05
1.55968e-05
1.15787e-05
8.17577e-06
1.9363e-07
2.5782e-07
3.42683e-07
4.41975e-07
5.49349e-07
6.76683e-07
8.05602e-07
9.83223e-07
1.14674e-06
1.41913e-06
1.66208e-06
5.7904e-06
4.77602e-05
4.78778e-05
4.78778e-05
4.37446e-05
3.71232e-05
3.06327e-05
2.48657e-05
2.02815e-05
1.63406e-05
1.28906e-05
1.02528e-05
2.32848e-07
2.88496e-07
3.65994e-07
4.59615e-07
5.62725e-07
6.85411e-07
8.10444e-07
9.80178e-07
1.13644e-06
1.38605e-06
1.60295e-06
5.45629e-06
4.36107e-05
4.36107e-05
4.12661e-05
3.90265e-05
3.5271e-05
2.95875e-05
2.4706e-05
2.06401e-05
1.722e-05
1.43585e-05
1.23066e-05
2.73045e-07
3.21825e-07
3.92479e-07
4.8021e-07
5.78611e-07
6.96035e-07
8.16757e-07
9.77647e-07
1.12641e-06
1.3543e-06
1.55026e-06
5.17904e-06
4.02619e-05
4.02619e-05
3.70042e-05
3.60237e-05
3.36056e-05
2.86797e-05
2.45653e-05
2.10448e-05
1.82033e-05
1.61208e-05
1.50982e-05
3.1331e-07
3.56529e-07
4.21004e-07
5.02881e-07
5.96278e-07
7.07983e-07
8.23868e-07
9.75468e-07
1.11638e-06
1.32399e-06
1.50135e-06
4.94407e-06
3.73063e-05
3.73063e-05
3.39141e-05
3.39141e-05
3.21136e-05
2.78704e-05
2.44155e-05
2.14369e-05
1.91673e-05
1.76941e-05
1.69623e-05
3.53428e-07
3.92094e-07
4.51092e-07
5.27382e-07
6.15749e-07
7.21622e-07
8.32488e-07
9.74881e-07
1.10802e-06
1.29703e-06
1.45786e-06
4.73866e-06
3.47157e-05
3.47157e-05
3.22778e-05
3.22778e-05
3.07784e-05
2.71626e-05
2.42615e-05
2.18027e-05
2.01333e-05
2.15461e-05
2.15461e-05
1.81715e-06
3.09731e-06
3.88819e-06
4.28001e-06
4.3791e-06
4.3791e-06
4.28955e-06
4.08048e-06
3.79959e-06
3.47789e-06
3.13446e-06
2.78115e-06
2.42485e-06
2.06954e-06
1.71722e-06
1.36868e-06
1.02403e-06
6.83194e-07
3.48887e-07
2.16479e-06
3.25454e-06
3.97872e-06
4.33652e-06
4.41546e-06
4.41546e-06
4.31339e-06
4.09694e-06
3.81189e-06
3.48797e-06
3.14353e-06
2.79007e-06
2.43427e-06
2.08008e-06
1.72964e-06
1.38413e-06
1.04471e-06
7.14685e-07
4.13627e-07
2.69469e-06
3.5568e-06
4.16047e-06
4.45006e-06
4.48804e-06
4.48804e-06
4.36096e-06
4.12984e-06
3.83639e-06
3.50804e-06
3.16159e-06
2.80781e-06
2.45298e-06
2.10099e-06
1.75418e-06
1.41445e-06
1.08473e-06
7.73035e-07
5.10564e-07
3.43842e-06
3.99801e-06
4.42271e-06
4.61412e-06
4.61412e-06
4.59337e-06
4.4303e-06
4.17817e-06
3.87254e-06
3.53774e-06
3.18839e-06
2.83416e-06
2.48075e-06
2.13192e-06
1.79029e-06
1.45863e-06
1.14181e-06
8.5195e-07
6.23733e-07
4.17927e-06
4.55432e-06
4.77765e-06
4.83646e-06
4.83646e-06
4.73459e-06
4.52197e-06
4.24183e-06
3.92008e-06
3.57686e-06
3.22371e-06
2.86887e-06
2.51726e-06
2.17242e-06
1.83723e-06
1.51533e-06
1.2133e-06
9.45805e-07
7.46122e-07
5.45586e-06
5.45586e-06
5.28068e-06
5.18828e-06
5.08925e-06
4.89707e-06
4.62932e-06
4.31767e-06
3.97738e-06
3.62445e-06
3.26694e-06
2.91146e-06
2.562e-06
2.22184e-06
1.89406e-06
1.58304e-06
1.29658e-06
1.05035e-06
8.74038e-07
6.20892e-06
6.20892e-06
6.12212e-06
5.73751e-06
5.41882e-06
5.10187e-06
4.7593e-06
4.40795e-06
4.04518e-06
3.68071e-06
3.31801e-06
2.96171e-06
2.6146e-06
2.27959e-06
1.95985e-06
1.66026e-06
1.38931e-06
1.16248e-06
1.00527e-06
8.96154e-06
8.96154e-06
7.18626e-06
6.23386e-06
5.70894e-06
5.29308e-06
4.88902e-06
4.50246e-06
4.11873e-06
3.74314e-06
3.3755e-06
3.01861e-06
2.67421e-06
2.34479e-06
2.03351e-06
1.74552e-06
1.48951e-06
1.28005e-06
1.13855e-06
4.46758e-07
4.67515e-07
5.07391e-07
5.67949e-07
6.48545e-07
7.45219e-07
8.47702e-07
9.76023e-07
1.09684e-06
1.26056e-06
1.39937e-06
4.49821e-06
3.42872e-05
3.16796e-05
3.03052e-05
3.03052e-05
2.89705e-05
2.6098e-05
2.39163e-05
2.21475e-05
2.22652e-05
2.66858e-05
2.66858e-05
5.25579e-07
5.42688e-07
5.76012e-07
6.23906e-07
6.94384e-07
7.78996e-07
8.70015e-07
9.81061e-07
1.08689e-06
1.22367e-06
1.35978e-06
4.27893e-06
3.42872e-05
2.80392e-05
2.90535e-05
2.95913e-05
2.68428e-05
2.46614e-05
2.29645e-05
2.14641e-05
2.10433e-05
2.14402e-05
2.66254e-05
5.97931e-07
6.12322e-07
6.40557e-07
6.81456e-07
7.39723e-07
8.13311e-07
8.93347e-07
9.88978e-07
1.08126e-06
1.19594e-06
1.30494e-06
4.10168e-06
3.29987e-05
2.4649e-05
2.71307e-05
2.71813e-05
2.49427e-05
2.3309e-05
2.193e-05
2.07213e-05
2.01125e-05
1.93447e-05
2.11073e-05
6.63812e-07
6.76071e-07
7.00216e-07
7.35462e-07
7.8378e-07
8.47672e-07
9.17787e-07
1.00018e-06
1.08076e-06
1.17759e-06
1.26443e-06
3.96741e-06
3.19586e-05
2.17188e-05
2.53447e-05
2.50977e-05
2.33444e-05
2.20728e-05
2.08432e-05
1.9746e-05
1.9096e-05
1.82006e-05
1.81955e-05
7.2319e-07
7.33718e-07
7.54498e-07
7.84975e-07
8.24993e-07
8.80396e-07
9.41631e-07
1.01258e-06
1.08298e-06
1.16509e-06
1.24015e-06
3.86218e-06
3.11507e-05
1.94503e-05
2.37238e-05
2.33008e-05
2.19534e-05
2.08636e-05
1.97878e-05
1.87492e-05
1.7935e-05
1.69372e-05
1.62491e-05
7.76334e-07
7.85428e-07
8.03399e-07
8.29837e-07
8.64323e-07
9.11215e-07
9.64682e-07
1.02589e-06
1.08752e-06
1.15746e-06
1.22345e-06
3.77861e-06
3.05074e-05
1.79974e-05
2.22565e-05
2.1754e-05
2.07011e-05
1.97444e-05
1.87848e-05
1.78117e-05
1.69394e-05
1.59468e-05
1.50316e-05
8.2355e-07
8.31442e-07
8.47048e-07
8.70052e-07
9.00044e-07
9.39565e-07
9.86274e-07
1.03919e-06
1.09326e-06
1.15311e-06
1.21145e-06
3.71045e-06
2.99846e-05
1.74468e-05
2.09666e-05
2.04393e-05
1.95963e-05
1.87375e-05
1.78646e-05
1.69444e-05
1.60565e-05
1.51076e-05
1.41525e-05
8.65185e-07
8.72064e-07
8.8567e-07
9.05753e-07
9.31919e-07
9.65439e-07
1.00633e-06
1.05222e-06
1.09978e-06
1.15123e-06
1.20299e-06
3.65316e-06
2.95454e-05
1.75595e-05
1.98576e-05
1.93296e-05
1.86379e-05
1.78571e-05
1.70564e-05
1.61894e-05
1.53311e-05
1.4453e-05
1.35379e-05
9.01739e-07
9.07765e-07
9.19687e-07
9.373e-07
9.60232e-07
9.88578e-07
1.02447e-06
1.06444e-06
1.10644e-06
1.15091e-06
1.19707e-06
3.60291e-06
2.91599e-05
1.79605e-05
1.89322e-05
1.84138e-05
1.78291e-05
1.71093e-05
1.63652e-05
1.55731e-05
1.47644e-05
1.39228e-05
1.30508e-05
9.3329e-07
9.38594e-07
9.4909e-07
9.64608e-07
9.84801e-07
1.00954e-06
1.04119e-06
1.07617e-06
1.11336e-06
1.15195e-06
1.19313e-06
3.55717e-06
2.88045e-05
1.83723e-05
1.81469e-05
1.76509e-05
1.71483e-05
1.64817e-05
1.57846e-05
1.50612e-05
1.42879e-05
1.34817e-05
1.26503e-05
9.61083e-07
9.65792e-07
9.75108e-07
9.88891e-07
1.00682e-06
1.02866e-06
1.05517e-06
1.08602e-06
1.11924e-06
1.15313e-06
1.19034e-06
3.51223e-06
2.84541e-05
1.87596e-05
1.75253e-05
1.70656e-05
1.66176e-05
1.6019e-05
1.53851e-05
1.46837e-05
1.39251e-05
1.31374e-05
1.23323e-05
9.83144e-07
9.87355e-07
9.95687e-07
1.00802e-06
1.02406e-06
1.04474e-06
1.06981e-06
1.09717e-06
1.12676e-06
1.15633e-06
1.18924e-06
3.46908e-06
2.80997e-05
1.89215e-05
1.69614e-05
1.65764e-05
1.61857e-05
1.56138e-05
1.5025e-05
1.43513e-05
1.36138e-05
1.28455e-05
1.20632e-05
1.00542e-06
1.00922e-06
1.01676e-06
1.02793e-06
1.04246e-06
1.06023e-06
1.08058e-06
1.10375e-06
1.12885e-06
1.1559e-06
1.18722e-06
3.41887e-06
2.77054e-05
1.90737e-05
1.66002e-05
1.63543e-05
1.60357e-05
1.55529e-05
1.49292e-05
1.42087e-05
1.34388e-05
1.26505e-05
1.18631e-05
1.0156e-06
1.021e-06
1.02991e-06
1.04215e-06
1.05753e-06
1.07566e-06
1.0963e-06
1.11857e-06
1.1426e-06
1.16567e-06
1.19031e-06
3.39652e-06
2.74008e-05
1.8985e-05
1.63762e-05
1.63728e-05
1.59616e-05
1.53488e-05
1.47299e-05
1.4022e-05
1.32519e-05
1.24612e-05
1.16746e-05
1.04051e-06
1.04376e-06
1.0502e-06
1.05977e-06
1.07222e-06
1.08757e-06
1.10508e-06
1.12547e-06
1.14598e-06
1.17038e-06
1.18838e-06
3.32771e-06
2.83239e-05
1.8519e-05
1.68416e-05
1.68416e-05
1.64775e-05
1.58463e-05
1.50477e-05
1.41544e-05
1.32591e-05
1.23853e-05
1.15528e-05
1.06586e-06
1.07059e-06
1.07839e-06
1.08912e-06
1.10266e-06
1.1186e-06
1.13685e-06
1.15622e-06
1.17643e-06
1.19436e-06
1.20376e-06
3.66568e-06
2.83239e-05
2.04668e-05
1.92062e-05
1.82484e-05
1.72845e-05
1.60896e-05
1.49989e-05
1.40886e-05
1.31585e-05
1.22551e-05
1.13995e-05
1.07398e-06
1.07698e-06
1.08293e-06
1.09181e-06
1.10337e-06
1.11794e-06
1.13437e-06
1.1553e-06
1.17509e-06
1.20857e-06
1.22808e-06
3.30909e-06
3.69387e-05
1.88941e-05
2.1224e-05
2.12102e-05
1.90534e-05
1.74552e-05
1.58624e-05
1.44954e-05
1.32899e-05
1.22284e-05
1.12923e-05
1.4837e-06
1.48877e-06
1.49883e-06
1.51388e-06
1.53351e-06
1.55814e-06
1.58584e-06
1.61983e-06
1.65136e-06
1.6975e-06
1.76185e-06
6.83274e-06
4.2187e-05
3.53966e-05
2.70947e-05
2.47568e-05
1.99531e-05
1.7541e-05
1.59829e-05
1.45126e-05
1.32238e-05
1.20943e-05
1.11158e-05
1.01824e-05
1.0236e-05
1.03409e-05
1.05084e-05
1.07192e-05
1.10276e-05
1.13495e-05
1.18445e-05
1.23796e-05
1.31172e-05
1.61741e-05
2.80728e-05
6.20049e-05
5.87298e-05
4.38922e-05
3.18913e-05
2.55743e-05
1.99164e-05
1.69075e-05
1.47807e-05
1.31905e-05
1.19292e-05
1.0899e-05
2.39527e-05
2.41201e-05
2.44124e-05
2.48179e-05
2.53888e-05
2.60846e-05
2.7013e-05
2.82357e-05
2.97283e-05
3.43498e-05
4.94354e-05
7.45715e-05
7.50451e-05
7.50451e-05
5.73601e-05
4.31427e-05
2.91314e-05
2.22115e-05
1.77737e-05
1.50319e-05
1.31156e-05
1.17111e-05
1.06278e-05
2.00686e-05
2.01683e-05
2.03525e-05
2.06756e-05
2.10236e-05
2.16686e-05
2.20949e-05
2.32629e-05
2.37145e-05
2.54805e-05
2.89877e-05
4.16234e-05
7.07141e-05
5.79303e-05
4.21799e-05
2.89448e-05
2.24761e-05
1.81844e-05
1.56063e-05
1.37302e-05
1.22603e-05
1.10922e-05
1.01393e-05
1.90483e-05
1.91517e-05
1.93482e-05
1.96007e-05
2.00183e-05
2.04605e-05
2.12451e-05
2.20716e-05
2.34567e-05
2.55177e-05
2.78102e-05
3.15647e-05
4.34051e-05
4.24501e-05
2.78277e-05
2.32339e-05
2.01233e-05
1.71388e-05
1.48904e-05
1.31045e-05
1.17001e-05
1.05821e-05
9.67832e-06
1.7376e-05
1.74421e-05
1.75502e-05
1.7775e-05
1.79603e-05
1.84604e-05
1.86234e-05
1.96767e-05
1.97546e-05
2.16427e-05
2.27244e-05
2.47833e-05
3.01714e-05
2.80927e-05
2.28849e-05
2.01274e-05
1.71815e-05
1.49797e-05
1.3243e-05
1.18478e-05
1.07413e-05
9.83306e-06
9.0716e-06
1.57159e-05
1.577e-05
1.58786e-05
1.60089e-05
1.624e-05
1.65034e-05
1.68683e-05
1.73456e-05
1.77772e-05
1.84844e-05
1.87411e-05
1.96734e-05
2.29345e-05
2.19081e-05
1.88313e-05
1.68753e-05
1.49288e-05
1.32859e-05
1.19871e-05
1.08762e-05
9.94486e-06
9.163e-06
8.50313e-06
1.4936e-05
1.49704e-05
1.50202e-05
1.51401e-05
1.52142e-05
1.54891e-05
1.55114e-05
1.60857e-05
1.59671e-05
1.68702e-05
1.68815e-05
1.73808e-05
1.80737e-05
1.71613e-05
1.57577e-05
1.44207e-05
1.31334e-05
1.18739e-05
1.08656e-05
9.93654e-06
9.17469e-06
8.50959e-06
7.9499e-06
1.37385e-05
1.37584e-05
1.37834e-05
1.38535e-05
1.38811e-05
1.40438e-05
1.40101e-05
1.43479e-05
1.41754e-05
1.46818e-05
1.45412e-05
1.47654e-05
1.5124e-05
1.44243e-05
1.35329e-05
1.2453e-05
1.15337e-05
1.05497e-05
9.77096e-06
9.02358e-06
8.40545e-06
7.85379e-06
7.38571e-06
1.28387e-05
1.28467e-05
1.28521e-05
1.28831e-05
1.28782e-05
1.29603e-05
1.29004e-05
1.30832e-05
1.29085e-05
1.31659e-05
1.29297e-05
1.29562e-05
1.2781e-05
1.22516e-05
1.16137e-05
1.08337e-05
1.01497e-05
9.39502e-06
8.77995e-06
8.1788e-06
7.67455e-06
7.21946e-06
6.83118e-06
1.18901e-05
1.18874e-05
1.18747e-05
1.18701e-05
1.18326e-05
1.18406e-05
1.17463e-05
1.1791e-05
1.16005e-05
1.16613e-05
1.14078e-05
1.13121e-05
1.10868e-05
1.06312e-05
1.01317e-05
9.50654e-06
8.96062e-06
8.36355e-06
7.86748e-06
7.38425e-06
6.97484e-06
6.6047e-06
6.28809e-06
1.10635e-05
1.10523e-05
1.10255e-05
1.0994e-05
1.09324e-05
1.08889e-05
1.07719e-05
1.07287e-05
1.05287e-05
1.04678e-05
1.01912e-05
1.0011e-05
9.69171e-06
9.29942e-06
8.86448e-06
8.3692e-06
7.9196e-06
7.44521e-06
7.03957e-06
6.6502e-06
6.31756e-06
6.01897e-06
5.7644e-06
1.02864e-05
1.02681e-05
1.02287e-05
1.01747e-05
1.00907e-05
1.00048e-05
9.86337e-06
9.75169e-06
9.53724e-06
9.39074e-06
9.11034e-06
8.87962e-06
8.56178e-06
8.20095e-06
7.81651e-06
7.39833e-06
7.01371e-06
6.62392e-06
6.28585e-06
5.9695e-06
5.69968e-06
5.46175e-06
5.26147e-06
9.59139e-06
9.5675e-06
9.51814e-06
9.44708e-06
9.34559e-06
9.22995e-06
9.0697e-06
8.91372e-06
8.687e-06
8.4876e-06
8.1994e-06
7.93503e-06
7.6067e-06
7.26679e-06
6.91137e-06
6.54808e-06
6.21076e-06
5.88326e-06
5.5977e-06
5.33868e-06
5.12041e-06
4.93356e-06
4.78056e-06
8.96232e-06
8.93384e-06
8.87606e-06
8.79117e-06
8.67456e-06
8.53546e-06
8.3577e-06
8.16867e-06
7.92869e-06
7.69277e-06
7.39963e-06
7.11449e-06
6.7906e-06
6.46269e-06
6.12944e-06
5.80082e-06
5.49692e-06
5.213e-06
4.96746e-06
4.75309e-06
4.57742e-06
4.43408e-06
4.32285e-06
8.40566e-06
8.37354e-06
8.30898e-06
8.21335e-06
8.08459e-06
7.92813e-06
7.73613e-06
7.5242e-06
7.27247e-06
7.01229e-06
6.71236e-06
6.41209e-06
6.08709e-06
5.76442e-06
5.44356e-06
5.13646e-06
4.85533e-06
4.60163e-06
4.38629e-06
4.20658e-06
4.06606e-06
3.95986e-06
3.88568e-06
7.90994e-06
7.87485e-06
7.80466e-06
7.70038e-06
7.5614e-06
7.39123e-06
7.18677e-06
6.95736e-06
6.6944e-06
6.41632e-06
6.10933e-06
5.7976e-06
5.4713e-06
5.14966e-06
4.83551e-06
4.54039e-06
4.27383e-06
4.04045e-06
3.84786e-06
3.69567e-06
3.58519e-06
3.51203e-06
3.47209e-06
7.4844e-06
7.44691e-06
7.37212e-06
7.26087e-06
7.11346e-06
6.93246e-06
6.71741e-06
6.47447e-06
6.20107e-06
5.90889e-06
5.5935e-06
5.27088e-06
4.93919e-06
4.61349e-06
4.29895e-06
4.00693e-06
3.74628e-06
3.52373e-06
3.34588e-06
3.21396e-06
3.12814e-06
3.08391e-06
3.07543e-06
7.10627e-06
7.06681e-06
6.9882e-06
6.87127e-06
6.71685e-06
6.5271e-06
6.30303e-06
6.04921e-06
5.76633e-06
5.46258e-06
5.13852e-06
4.80566e-06
4.46675e-06
4.13407e-06
3.81475e-06
3.52005e-06
3.25952e-06
3.04174e-06
2.87393e-06
2.7588e-06
2.69599e-06
2.68023e-06
2.70359e-06
6.80334e-06
6.76224e-06
6.68043e-06
6.55875e-06
6.39831e-06
6.20112e-06
5.96897e-06
5.70566e-06
5.41352e-06
5.09892e-06
4.76493e-06
4.42057e-06
4.0709e-06
3.72658e-06
3.39595e-06
3.09041e-06
2.82077e-06
2.59784e-06
2.43096e-06
2.32531e-06
2.28091e-06
2.29139e-06
2.34598e-06
6.52639e-06
6.48404e-06
6.39975e-06
6.27442e-06
6.10933e-06
5.90647e-06
5.66799e-06
5.39729e-06
5.09746e-06
4.7739e-06
4.43086e-06
4.07588e-06
3.71503e-06
3.35782e-06
3.01322e-06
2.69288e-06
2.40917e-06
2.17582e-06
2.006e-06
1.90873e-06
1.88491e-06
1.9257e-06
2.01561e-06
6.34035e-06
6.29682e-06
6.21019e-06
6.08848e-06
5.93765e-06
5.7465e-06
5.51723e-06
5.25264e-06
4.95598e-06
4.63119e-06
4.28284e-06
3.91632e-06
3.53775e-06
3.15412e-06
2.77362e-06
2.40592e-06
2.06317e-06
1.7971e-06
1.61011e-06
1.51053e-06
1.50376e-06
1.57735e-06
1.70722e-06
6.15021e-06
6.10613e-06
6.01841e-06
5.88796e-06
5.71616e-06
5.50491e-06
5.2566e-06
4.97435e-06
4.66167e-06
4.32294e-06
3.96274e-06
3.59452e-06
3.21534e-06
2.82905e-06
2.44272e-06
2.06482e-06
1.72577e-06
1.43603e-06
1.22208e-06
1.11665e-06
1.13443e-06
1.25184e-06
1.42827e-06
6.1095e-06
6.1095e-06
6.04114e-06
5.928e-06
5.77128e-06
5.5727e-06
5.33444e-06
5.05921e-06
4.75021e-06
4.41117e-06
4.04631e-06
3.66036e-06
3.25845e-06
2.8461e-06
2.42926e-06
2.01451e-06
1.60985e-06
1.22694e-06
8.88734e-07
7.43181e-07
7.92443e-07
9.75238e-07
1.2117e-06
5.92718e-06
5.88258e-06
5.79385e-06
5.66189e-06
5.48812e-06
5.27445e-06
5.02323e-06
4.73735e-06
4.42013e-06
4.07547e-06
3.70762e-06
3.33264e-06
2.95238e-06
2.561e-06
2.16324e-06
1.76385e-06
1.36753e-06
9.79181e-07
6.05848e-07
3.60074e-07
4.96564e-07
8.0218e-07
1.0351e-06
2.3626e-05
1.99072e-05
1.88002e-05
1.80955e-05
2.3626e-05
1.99072e-05
1.88002e-05
1.80955e-05
1.98485e-05
1.80735e-05
1.67912e-05
1.59412e-05
1.69893e-05
1.58943e-05
1.49169e-05
1.4058e-05
1.52882e-05
1.45162e-05
1.37269e-05
1.30024e-05
1.41282e-05
1.349e-05
1.28292e-05
1.2202e-05
1.3305e-05
1.27582e-05
1.21959e-05
1.16521e-05
1.26933e-05
1.22045e-05
1.17083e-05
1.12247e-05
1.22186e-05
1.17745e-05
1.13282e-05
1.08915e-05
1.18409e-05
1.14299e-05
1.10202e-05
1.06188e-05
1.15343e-05
1.11485e-05
1.07661e-05
1.03916e-05
1.12798e-05
1.09127e-05
1.05504e-05
1.01963e-05
1.10674e-05
1.07127e-05
1.03643e-05
1.00248e-05
1.08829e-05
1.05358e-05
1.01967e-05
9.86743e-06
1.07199e-05
1.03752e-05
1.00408e-05
9.7179e-06
1.0564e-05
1.02185e-05
9.88588e-06
9.56679e-06
1.04042e-05
1.00552e-05
9.72264e-06
9.40577e-06
1.02274e-05
9.87414e-06
9.54122e-06
9.22625e-06
1.00097e-05
9.65607e-06
9.32637e-06
9.0161e-06
9.7491e-06
9.39822e-06
9.0748e-06
8.77208e-06
9.41161e-06
9.07732e-06
8.76994e-06
8.48271e-06
9.01414e-06
8.70513e-06
8.4203e-06
8.15409e-06
8.56984e-06
8.29078e-06
8.03262e-06
7.79124e-06
8.08652e-06
7.8418e-06
7.61404e-06
7.40059e-06
7.58869e-06
7.37711e-06
7.17936e-06
6.99381e-06
7.07997e-06
6.90127e-06
6.73359e-06
6.576e-06
6.57589e-06
6.42726e-06
6.28757e-06
6.15631e-06
6.07943e-06
5.95868e-06
5.84522e-06
5.73883e-06
5.59732e-06
5.50163e-06
5.41209e-06
5.32857e-06
5.13173e-06
5.05874e-06
4.99107e-06
4.92867e-06
4.6841e-06
4.63157e-06
4.58382e-06
4.54079e-06
4.25646e-06
4.22262e-06
4.19323e-06
4.16819e-06
3.84658e-06
3.82989e-06
3.81748e-06
3.80918e-06
3.45868e-06
3.45829e-06
3.46209e-06
3.46981e-06
3.08615e-06
3.10124e-06
3.12051e-06
3.14355e-06
2.73882e-06
2.7696e-06
2.80448e-06
2.84289e-06
2.40569e-06
2.4522e-06
2.50268e-06
2.55636e-06
2.10196e-06
2.16515e-06
2.2318e-06
2.30098e-06
1.82318e-06
1.90454e-06
1.98848e-06
2.0739e-06
1.57506e-06
1.67415e-06
1.77422e-06
1.87422e-06
1.39373e-06
1.51192e-06
1.6287e-06
1.74336e-06
1.24036e-06
1.36979e-06
1.49572e-06
1.61786e-06
1.53372e-05
1.46553e-05
9.74633e-06
7.67598e-06
6.42792e-06
5.71327e-06
5.14582e-06
4.68034e-06
4.25381e-06
3.85689e-06
3.47989e-06
3.12155e-06
2.78136e-06
2.46085e-06
2.16283e-06
1.89239e-06
1.65776e-06
1.47136e-06
1.34916e-06
1.53372e-05
1.30069e-05
9.60969e-06
8.0019e-06
6.83666e-06
6.06089e-06
5.42894e-06
4.90847e-06
4.44581e-06
4.02746e-06
3.64083e-06
3.28178e-06
2.94798e-06
2.63976e-06
2.35923e-06
2.11073e-06
1.90104e-06
1.73941e-06
1.63637e-06
1.31956e-05
1.22495e-05
1.00328e-05
8.47013e-06
7.27995e-06
6.41265e-06
5.71389e-06
5.14281e-06
4.64863e-06
4.21226e-06
3.81826e-06
3.45979e-06
3.13285e-06
2.83656e-06
2.57205e-06
2.34255e-06
2.15311e-06
2.01024e-06
1.92084e-06
1.20444e-05
1.19229e-05
1.00587e-05
8.6323e-06
7.5178e-06
6.65191e-06
5.94288e-06
5.35345e-06
4.84564e-06
4.40077e-06
4.00443e-06
3.64895e-06
3.32967e-06
3.04484e-06
2.79472e-06
2.58138e-06
2.40828e-06
2.27983e-06
2.20048e-06
1.15258e-05
1.15258e-05
1.0006e-05
8.73372e-06
7.69728e-06
6.8504e-06
6.14466e-06
5.54951e-06
5.03681e-06
4.58943e-06
4.19437e-06
3.84379e-06
3.53269e-06
3.25873e-06
3.02138e-06
2.82169e-06
2.66184e-06
2.54464e-06
2.4729e-06
1.12635e-05
1.12635e-05
9.93124e-06
8.78063e-06
7.81478e-06
7.00195e-06
6.31346e-06
5.72522e-06
5.21653e-06
4.77272e-06
4.38267e-06
4.03895e-06
3.73668e-06
3.47314e-06
3.24725e-06
3.05925e-06
2.91029e-06
2.80206e-06
2.73626e-06
1.10012e-05
1.10012e-05
9.82731e-06
8.78793e-06
7.89207e-06
7.12028e-06
6.45628e-06
5.88239e-06
5.38353e-06
4.94768e-06
4.56549e-06
4.23024e-06
3.93731e-06
3.68384e-06
3.46835e-06
3.2905e-06
3.15069e-06
3.04979e-06
2.98876e-06
1.07879e-05
1.07879e-05
9.72938e-06
8.77858e-06
7.94337e-06
7.21265e-06
6.5762e-06
6.02111e-06
5.53612e-06
5.11147e-06
4.73939e-06
4.41393e-06
4.13081e-06
3.88718e-06
3.68133e-06
3.51249e-06
3.38055e-06
3.28582e-06
3.22872e-06
1.05953e-05
1.05953e-05
9.62921e-06
8.75313e-06
7.97304e-06
7.28266e-06
6.67533e-06
6.1417e-06
5.67323e-06
5.26207e-06
4.90176e-06
4.58709e-06
4.31418e-06
4.08025e-06
3.88348e-06
3.72284e-06
3.59786e-06
3.50846e-06
3.45473e-06
1.04267e-05
1.04267e-05
9.5335e-06
8.71881e-06
7.98687e-06
7.33406e-06
6.7556e-06
6.24449e-06
5.79404e-06
5.39784e-06
5.05045e-06
4.74732e-06
4.48492e-06
4.26062e-06
4.07255e-06
3.91954e-06
3.80088e-06
3.71623e-06
3.66546e-06
1.02742e-05
1.02742e-05
9.43923e-06
8.67567e-06
7.98615e-06
7.36812e-06
6.81773e-06
6.32946e-06
5.89784e-06
5.51752e-06
5.18383e-06
4.89276e-06
4.64112e-06
4.42641e-06
4.24681e-06
4.10103e-06
3.98825e-06
3.90795e-06
3.85986e-06
1.01325e-05
1.01325e-05
9.34466e-06
8.62407e-06
7.97186e-06
7.38574e-06
6.86218e-06
6.39653e-06
5.98404e-06
5.62011e-06
5.30061e-06
5.02198e-06
4.78128e-06
4.57618e-06
4.40488e-06
4.26609e-06
4.15888e-06
4.08266e-06
4.03707e-06
9.99868e-06
9.99868e-06
9.248e-06
8.56328e-06
7.94389e-06
7.387e-06
6.88897e-06
6.44546e-06
6.05215e-06
5.70487e-06
5.39989e-06
5.13395e-06
4.90435e-06
4.70887e-06
4.5458e-06
4.41384e-06
4.31202e-06
4.23971e-06
4.19649e-06
9.86327e-06
9.86327e-06
9.14409e-06
8.49072e-06
7.90099e-06
7.37133e-06
6.89774e-06
6.47593e-06
6.10173e-06
5.77125e-06
5.481e-06
5.22796e-06
5.00959e-06
4.82379e-06
4.66893e-06
4.54371e-06
4.44718e-06
4.37868e-06
4.33775e-06
9.72615e-06
9.72615e-06
9.03183e-06
8.40532e-06
7.84242e-06
7.33823e-06
6.88816e-06
6.48764e-06
6.13249e-06
5.81891e-06
5.54357e-06
5.3036e-06
5.0966e-06
4.92057e-06
4.77393e-06
4.65543e-06
4.56415e-06
4.49939e-06
4.46072e-06
9.57438e-06
9.57438e-06
8.90381e-06
8.30296e-06
7.76588e-06
7.28651e-06
6.85959e-06
6.48024e-06
6.1442e-06
5.84768e-06
5.58745e-06
5.36074e-06
5.16526e-06
4.9991e-06
4.86074e-06
4.749e-06
4.66295e-06
4.60193e-06
4.5655e-06
9.40873e-06
9.40873e-06
8.75928e-06
8.18261e-06
7.67057e-06
7.21562e-06
6.81174e-06
6.45363e-06
6.13686e-06
5.85763e-06
5.61273e-06
5.3995e-06
5.21572e-06
5.05956e-06
4.92959e-06
4.82465e-06
4.74386e-06
4.68659e-06
4.6524e-06
9.21632e-06
9.21632e-06
8.59096e-06
8.04028e-06
7.55432e-06
7.1245e-06
6.74418e-06
6.40774e-06
6.11062e-06
5.849e-06
5.61974e-06
5.42024e-06
5.24836e-06
5.10237e-06
4.9809e-06
4.88284e-06
4.80738e-06
4.75389e-06
4.72196e-06
8.99558e-06
8.99558e-06
8.39744e-06
7.87492e-06
7.41659e-06
7.013e-06
6.65703e-06
6.34287e-06
6.0659e-06
5.82232e-06
5.60903e-06
5.42354e-06
5.2638e-06
5.12816e-06
5.01532e-06
4.92426e-06
4.85418e-06
4.80451e-06
4.77487e-06
8.7427e-06
8.7427e-06
8.1764e-06
7.68537e-06
7.25685e-06
6.88105e-06
6.55058e-06
6.25955e-06
6.00337e-06
5.7783e-06
5.58139e-06
5.41022e-06
5.26286e-06
5.13777e-06
5.03372e-06
4.94975e-06
4.88513e-06
4.83934e-06
4.81201e-06
8.45112e-06
8.45112e-06
7.9255e-06
7.47104e-06
7.0754e-06
6.72935e-06
6.42565e-06
6.15866e-06
5.92394e-06
5.71793e-06
5.5378e-06
5.38128e-06
5.24655e-06
5.1322e-06
5.03708e-06
4.96033e-06
4.90126e-06
4.8594e-06
4.83441e-06
8.13346e-06
8.13346e-06
7.65081e-06
7.23522e-06
6.87434e-06
6.5595e-06
6.28368e-06
6.04157e-06
5.82894e-06
5.64246e-06
5.47948e-06
5.3379e-06
5.21605e-06
5.11263e-06
5.02659e-06
4.95715e-06
4.90371e-06
4.86583e-06
4.84323e-06
7.78344e-06
7.78344e-06
7.35099e-06
6.97852e-06
6.65501e-06
6.37306e-06
6.12625e-06
5.90982e-06
5.71986e-06
5.55335e-06
5.40785e-06
5.28147e-06
5.1727e-06
5.08035e-06
5.00352e-06
4.94149e-06
4.89374e-06
4.85989e-06
4.83966e-06
7.41734e-06
7.41734e-06
7.03501e-06
6.70627e-06
6.42098e-06
6.1727e-06
5.95558e-06
5.76535e-06
5.59848e-06
5.45226e-06
5.32451e-06
5.21352e-06
5.11797e-06
5.03682e-06
4.96928e-06
4.91472e-06
4.87271e-06
4.84291e-06
4.82512e-06
7.03373e-06
7.03373e-06
6.70412e-06
6.42069e-06
6.17466e-06
5.96075e-06
5.77382e-06
5.61016e-06
5.46667e-06
5.34095e-06
5.2311e-06
5.13563e-06
5.0534e-06
4.98352e-06
4.9253e-06
4.87826e-06
4.84201e-06
4.81628e-06
4.80093e-06
6.64403e-06
6.64403e-06
6.36561e-06
6.12679e-06
5.91982e-06
5.74027e-06
5.58359e-06
5.44659e-06
5.32655e-06
5.2214e-06
5.12949e-06
5.04957e-06
4.98067e-06
4.92206e-06
4.87319e-06
4.83365e-06
4.80316e-06
4.78151e-06
4.76858e-06
6.25022e-06
6.25022e-06
6.02222e-06
5.82747e-06
5.65921e-06
5.51377e-06
5.38719e-06
5.27673e-06
5.18005e-06
5.09538e-06
5.02135e-06
4.95691e-06
4.90128e-06
4.85389e-06
4.8143e-06
4.78223e-06
4.75746e-06
4.73986e-06
4.72934e-06
5.85909e-06
5.85909e-06
5.6792e-06
5.52701e-06
5.39651e-06
5.28454e-06
5.1876e-06
5.10334e-06
5.02974e-06
4.96533e-06
4.90898e-06
4.85985e-06
4.81734e-06
4.78102e-06
4.75061e-06
4.72591e-06
4.70679e-06
4.69319e-06
4.68504e-06
5.47259e-06
5.47259e-06
5.33866e-06
5.22746e-06
5.13359e-06
5.05423e-06
4.98626e-06
4.92766e-06
4.87671e-06
4.83219e-06
4.79319e-06
4.7591e-06
4.72947e-06
4.70405e-06
4.68265e-06
4.66518e-06
4.65161e-06
4.64192e-06
4.6361e-06
5.09622e-06
5.09622e-06
5.00586e-06
4.93392e-06
4.87539e-06
4.82763e-06
4.78783e-06
4.75422e-06
4.72534e-06
4.70021e-06
4.67814e-06
4.65869e-06
4.64162e-06
4.62678e-06
4.61414e-06
4.60371e-06
4.59553e-06
4.58964e-06
4.58609e-06
4.72818e-06
4.72818e-06
4.67902e-06
4.64451e-06
4.61986e-06
4.6025e-06
4.58988e-06
4.5804e-06
4.57285e-06
4.56646e-06
4.56075e-06
4.55547e-06
4.55052e-06
4.54592e-06
4.54175e-06
4.53812e-06
4.53514e-06
4.53293e-06
4.53157e-06
4.37881e-06
4.37881e-06
4.37055e-06
4.37853e-06
4.39048e-06
4.40404e-06
4.4178e-06
4.43076e-06
4.44237e-06
4.45235e-06
4.46064e-06
4.4673e-06
4.4725e-06
4.47641e-06
4.47927e-06
4.48125e-06
4.48254e-06
4.48327e-06
4.48327e-06
4.03464e-06
4.06208e-06
4.0976e-06
4.13656e-06
4.17636e-06
4.21478e-06
4.25061e-06
4.28303e-06
4.31172e-06
4.33658e-06
4.35772e-06
4.37538e-06
4.38984e-06
4.40141e-06
4.4104e-06
4.41709e-06
4.4217e-06
4.4244e-06
4.4244e-06
3.72486e-06
3.7889e-06
3.85773e-06
3.92673e-06
3.99333e-06
4.05553e-06
4.11233e-06
4.16318e-06
4.20796e-06
4.24679e-06
4.27998e-06
4.30791e-06
4.33101e-06
4.34972e-06
4.36442e-06
4.37548e-06
4.38316e-06
4.38769e-06
4.38769e-06
3.40571e-06
3.50382e-06
3.60366e-06
3.70061e-06
3.79211e-06
3.87638e-06
3.95263e-06
4.02055e-06
4.08022e-06
4.13199e-06
4.17633e-06
4.21377e-06
4.24487e-06
4.27018e-06
4.29018e-06
4.30528e-06
4.31582e-06
4.32205e-06
4.32205e-06
3.15157e-06
3.28446e-06
3.41507e-06
3.53907e-06
3.6542e-06
3.75907e-06
3.85324e-06
3.93671e-06
4.00985e-06
4.07323e-06
4.12752e-06
4.17341e-06
4.21161e-06
4.24275e-06
4.2674e-06
4.28606e-06
4.29911e-06
4.30682e-06
4.30682e-06
2.86205e-06
3.02677e-06
3.18556e-06
3.33434e-06
3.47112e-06
3.59489e-06
3.70552e-06
3.8033e-06
3.88886e-06
3.96297e-06
4.02647e-06
4.08021e-06
4.12499e-06
4.16155e-06
4.19055e-06
4.21252e-06
4.2279e-06
4.23701e-06
4.23701e-06
2.6746e-06
2.87019e-06
3.05472e-06
3.22508e-06
3.38004e-06
3.51922e-06
3.64298e-06
3.75198e-06
3.84714e-06
3.92945e-06
3.99993e-06
4.05957e-06
4.10928e-06
4.14988e-06
4.1821e-06
4.20654e-06
4.22365e-06
4.23378e-06
4.23378e-06
2.44878e-06
2.67499e-06
2.88537e-06
3.07768e-06
3.25135e-06
3.40658e-06
3.54412e-06
3.66498e-06
3.77034e-06
3.8614e-06
3.93935e-06
4.0053e-06
4.0603e-06
4.10524e-06
4.14093e-06
4.168e-06
4.18697e-06
4.1982e-06
4.1982e-06
2.30803e-06
2.55281e-06
2.77698e-06
2.97983e-06
3.16174e-06
3.32356e-06
3.46647e-06
3.59179e-06
3.7009e-06
3.79513e-06
3.87578e-06
3.94402e-06
4.00092e-06
4.04742e-06
4.08435e-06
4.11237e-06
4.13201e-06
4.14365e-06
4.14365e-06
2.23171e-06
2.50391e-06
2.75075e-06
2.97267e-06
3.17079e-06
3.3465e-06
3.50134e-06
3.63693e-06
3.75485e-06
3.85662e-06
3.94367e-06
4.01732e-06
4.07873e-06
4.12893e-06
4.1688e-06
4.19906e-06
4.22027e-06
4.23284e-06
4.23284e-06
2.06342e-06
2.32675e-06
2.56406e-06
2.77659e-06
2.96585e-06
3.13341e-06
3.28091e-06
3.40996e-06
3.52211e-06
3.61886e-06
3.70158e-06
3.77154e-06
3.82986e-06
3.87755e-06
3.91542e-06
3.94417e-06
3.96432e-06
3.97626e-06
3.97626e-06
)
;

boundaryField
{
    leftWall
    {
        type            calculated;
        value           uniform 0;
    }
    rightWall
    {
        type            calculated;
        value           uniform 0;
    }
    lowerWall
    {
        type            calculated;
        value           uniform 0;
    }
    atmosphere
    {
        type            calculated;
        value           uniform 0;
    }
    defaultFaces
    {
        type            empty;
    }
}


// ************************************************************************* //
