/*--------------------------------*- C++ -*----------------------------------*\
| =========                 |                                                 |
| \\      /  F ield         | OpenFOAM: The Open Source CFD Toolbox           |
|  \\    /   O peration     | Version:  2012                                  |
|   \\  /    A nd           | Website:  www.openfoam.com                      |
|    \\/     M anipulation  |                                                 |
\*---------------------------------------------------------------------------*/
FoamFile
{
    version     2.0;
    format      ascii;
    class       volScalarField;
    location    "0.02";
    object      minKappa;
}
// * * * * * * * * * * * * * * * * * * * * * * * * * * * * * * * * * * * * * //

dimensions      [0 0 0 0 0 0 0];


internalField   nonuniform List<scalar> 
2268
(
3.29682e-08
7.39033e-08
1.2055e-07
1.69059e-07
2.2375e-07
2.76972e-07
3.50857e-07
4.04778e-07
5.31032e-07
5.74379e-07
8.28834e-07
9.11259e-07
6.66898e-06
4.05963e-05
4.00513e-05
2.35674e-05
1.80719e-05
1.35058e-05
1.05461e-05
8.15783e-06
5.95319e-06
3.82341e-06
1.76067e-06
3.29682e-08
7.39033e-08
1.2055e-07
1.69059e-07
2.2375e-07
2.76972e-07
3.50857e-07
4.04778e-07
5.28543e-07
5.69036e-07
8.14729e-07
8.51683e-07
6.45461e-06
3.30548e-05
3.13179e-05
2.13935e-05
1.72787e-05
1.32905e-05
1.05404e-05
8.15783e-06
5.95319e-06
3.82341e-06
1.76067e-06
4.98194e-08
8.28954e-08
1.26271e-07
1.73154e-07
2.26675e-07
2.79215e-07
3.5187e-07
4.05263e-07
5.24717e-07
5.63991e-07
7.9265e-07
8.08847e-07
6.14336e-06
2.74061e-05
2.48907e-05
1.97576e-05
1.6433e-05
1.30555e-05
1.05404e-05
8.28493e-06
6.20958e-06
4.27813e-06
2.65295e-06
6.95362e-08
9.59834e-08
1.35187e-07
1.79699e-07
2.31413e-07
2.82871e-07
3.53567e-07
4.06273e-07
5.20125e-07
5.58963e-07
7.66884e-07
7.76277e-07
5.7904e-06
2.35939e-05
2.05332e-05
1.85964e-05
1.56261e-05
1.28424e-05
1.05533e-05
8.48831e-06
6.60802e-06
4.95702e-06
3.75185e-06
8.99574e-08
1.11591e-07
1.46594e-07
1.88325e-07
2.37769e-07
2.87805e-07
3.55939e-07
4.07832e-07
5.15284e-07
5.54185e-07
7.40994e-07
7.49288e-07
5.45629e-06
2.07794e-05
1.7817e-05
1.76561e-05
1.49001e-05
1.26425e-05
1.05915e-05
8.75218e-06
7.11061e-06
5.76767e-06
4.89281e-06
1.10459e-07
1.28619e-07
1.59813e-07
1.98637e-07
2.45523e-07
2.93876e-07
3.59008e-07
4.10027e-07
5.10392e-07
5.49581e-07
7.16246e-07
7.25991e-07
5.17904e-06
1.84916e-05
1.62782e-05
1.67748e-05
1.42864e-05
1.24424e-05
1.06476e-05
9.0556e-06
7.68677e-06
6.7174e-06
6.2319e-06
1.30757e-07
1.46345e-07
1.74237e-07
2.10209e-07
2.54396e-07
3.00856e-07
3.6269e-07
4.12682e-07
5.05974e-07
5.45291e-07
6.93451e-07
7.05092e-07
4.94407e-06
1.65058e-05
1.53234e-05
1.59572e-05
1.37659e-05
1.22441e-05
1.0709e-05
9.36996e-06
8.29224e-06
7.688e-06
7.46097e-06
1.50731e-07
1.64357e-07
1.89431e-07
2.22711e-07
2.64184e-07
3.08616e-07
3.67017e-07
4.15782e-07
5.05974e-07
5.45291e-07
6.93451e-07
7.05092e-07
4.73866e-06
1.65058e-05
1.53234e-05
1.59572e-05
1.37659e-05
1.22441e-05
1.07624e-05
9.67377e-06
8.89977e-06
8.87986e-06
9.31374e-06
5.48516e-07
1.14531e-06
1.55671e-06
1.78988e-06
1.87563e-06
1.86562e-06
1.79411e-06
1.68458e-06
1.55333e-06
1.40991e-06
1.2607e-06
1.10924e-06
9.57759e-07
8.07416e-07
6.58801e-07
5.12176e-07
3.67809e-07
2.26804e-07
9.75423e-08
5.48516e-07
1.14531e-06
1.55671e-06
1.78988e-06
1.87563e-06
1.86562e-06
1.79411e-06
1.68458e-06
1.55333e-06
1.40991e-06
1.2607e-06
1.10924e-06
9.57759e-07
8.07416e-07
6.58801e-07
5.12176e-07
3.67809e-07
2.26804e-07
9.75423e-08
7.98012e-07
1.26908e-06
1.62839e-06
1.83401e-06
1.90383e-06
1.88376e-06
1.80634e-06
1.69334e-06
1.56022e-06
1.41584e-06
1.2663e-06
1.11496e-06
9.63992e-07
8.14554e-07
6.67379e-07
5.23064e-07
3.82736e-07
2.50091e-07
1.43026e-07
1.14035e-06
1.46847e-06
1.74524e-06
1.90603e-06
1.94992e-06
1.91337e-06
1.82647e-06
1.70777e-06
1.57159e-06
1.42564e-06
1.27558e-06
1.12444e-06
9.74285e-07
8.26306e-07
6.81423e-07
5.40708e-07
4.06392e-07
2.8482e-07
1.97667e-07
1.5098e-06
1.73049e-06
1.90755e-06
2.00628e-06
2.01406e-06
1.95412e-06
1.85421e-06
1.72766e-06
1.58729e-06
1.4392e-06
1.28843e-06
1.13755e-06
9.88502e-07
8.42465e-07
7.00586e-07
5.64451e-07
4.37338e-07
3.27362e-07
2.5532e-07
2.02482e-06
2.07352e-06
2.11012e-06
2.12938e-06
2.09309e-06
2.0043e-06
1.88869e-06
1.75251e-06
1.60703e-06
1.45634e-06
1.3047e-06
1.15416e-06
1.00645e-06
8.62757e-07
7.24429e-07
5.93519e-07
4.74099e-07
3.7499e-07
3.14161e-07
2.47817e-06
2.48353e-06
2.36707e-06
2.28079e-06
2.18945e-06
2.06419e-06
1.92975e-06
1.7821e-06
1.63064e-06
1.47689e-06
1.32425e-06
1.17409e-06
1.02792e-06
8.86872e-07
7.5247e-07
6.27121e-07
5.1536e-07
4.2589e-07
3.73488e-07
3.44304e-06
3.00957e-06
2.65161e-06
2.44109e-06
2.2928e-06
2.12932e-06
1.97511e-06
1.81535e-06
1.65751e-06
1.50051e-06
1.3468e-06
1.1971e-06
1.05263e-06
9.14454e-07
7.842e-07
6.64501e-07
5.60042e-07
4.78909e-07
4.32979e-07
2.66204e-07
2.85159e-07
3.20697e-07
3.689e-07
4.2964e-07
4.95823e-07
5.81763e-07
6.55706e-07
7.85565e-07
8.46623e-07
1.05298e-06
1.07385e-06
4.49821e-06
2.33166e-05
2.29527e-05
2.38115e-05
2.08176e-05
1.88211e-05
1.68715e-05
1.5513e-05
1.48719e-05
1.56832e-05
1.85814e-05
4.46758e-07
4.67515e-07
5.07391e-07
5.63251e-07
6.23906e-07
6.94384e-07
7.78996e-07
8.70015e-07
9.81061e-07
1.08689e-06
1.22367e-06
1.34003e-06
4.27893e-06
2.02266e-05
2.49422e-05
2.68428e-05
2.46614e-05
2.29645e-05
2.14641e-05
2.05826e-05
1.99984e-05
1.93447e-05
1.61321e-05
5.25579e-07
5.42688e-07
5.76012e-07
6.23682e-07
6.78375e-07
7.39723e-07
8.13311e-07
8.93347e-07
9.88978e-07
1.08126e-06
1.19594e-06
1.29534e-06
4.10168e-06
1.54705e-05
2.15946e-05
2.49427e-05
2.32688e-05
2.193e-05
2.07213e-05
1.9746e-05
1.9096e-05
1.82006e-05
1.35301e-05
5.97931e-07
6.12322e-07
6.40557e-07
6.81456e-07
7.30433e-07
7.8378e-07
8.47672e-07
9.17787e-07
1.00018e-06
1.08076e-06
1.17759e-06
1.2635e-06
3.96741e-06
1.1619e-05
1.87055e-05
2.32585e-05
2.19201e-05
2.07681e-05
1.96602e-05
1.87354e-05
1.78498e-05
1.69372e-05
1.19222e-05
6.63812e-07
6.76071e-07
7.00216e-07
7.35462e-07
7.78637e-07
8.24993e-07
8.80396e-07
9.41631e-07
1.01258e-06
1.08298e-06
1.16509e-06
1.24015e-06
3.86218e-06
8.90384e-06
1.63017e-05
2.1754e-05
2.0683e-05
1.96783e-05
1.86807e-05
1.77607e-05
1.68422e-05
1.59175e-05
1.09244e-05
7.2319e-07
7.33718e-07
7.54498e-07
7.84975e-07
8.22813e-07
8.63133e-07
9.11215e-07
9.64682e-07
1.02589e-06
1.08752e-06
1.15746e-06
1.22345e-06
3.77861e-06
7.67039e-06
1.46216e-05
2.04393e-05
1.95614e-05
1.86576e-05
1.77307e-05
1.68133e-05
1.58751e-05
1.49007e-05
1.0197e-05
7.76334e-07
7.85428e-07
8.03399e-07
8.29837e-07
8.62667e-07
8.97783e-07
9.39565e-07
9.86274e-07
1.03919e-06
1.09326e-06
1.15311e-06
1.21145e-06
3.71045e-06
7.67039e-06
1.38267e-05
1.93296e-05
1.85826e-05
1.77617e-05
1.6903e-05
1.60203e-05
1.51076e-05
1.41525e-05
9.67681e-06
8.2355e-07
8.31442e-07
8.47048e-07
8.70052e-07
8.98373e-07
9.29034e-07
9.65439e-07
1.00633e-06
1.05222e-06
1.09978e-06
1.15123e-06
1.20299e-06
3.65316e-06
7.84598e-06
1.37087e-05
1.84138e-05
1.77321e-05
1.69781e-05
1.61761e-05
1.53311e-05
1.4453e-05
1.35379e-05
9.27129e-06
8.65185e-07
8.72064e-07
8.8567e-07
9.05753e-07
9.29909e-07
9.56756e-07
9.88578e-07
1.02447e-06
1.06444e-06
1.10644e-06
1.15091e-06
1.19707e-06
3.60291e-06
8.87171e-06
1.39352e-05
1.76491e-05
1.70341e-05
1.63303e-05
1.55731e-05
1.47644e-05
1.39228e-05
1.30508e-05
8.95427e-06
9.01739e-07
9.07765e-07
9.19687e-07
9.373e-07
9.57938e-07
9.81574e-07
1.00954e-06
1.04119e-06
1.07617e-06
1.11336e-06
1.15195e-06
1.19313e-06
3.55717e-06
1.01319e-05
1.41879e-05
1.69799e-05
1.64306e-05
1.57764e-05
1.50612e-05
1.42879e-05
1.34817e-05
1.26503e-05
8.69643e-06
9.3329e-07
9.38594e-07
9.4909e-07
9.64608e-07
9.81531e-07
1.00242e-06
1.02711e-06
1.05517e-06
1.08602e-06
1.11924e-06
1.15313e-06
1.19034e-06
3.51223e-06
1.1346e-05
1.453e-05
1.65388e-05
1.6019e-05
1.53851e-05
1.46837e-05
1.39251e-05
1.31374e-05
1.23323e-05
8.48841e-06
9.61083e-07
9.65792e-07
9.75108e-07
9.88891e-07
1.00401e-06
1.02269e-06
1.04474e-06
1.06981e-06
1.09717e-06
1.12676e-06
1.15633e-06
1.18924e-06
3.46908e-06
1.22921e-05
1.45725e-05
1.60635e-05
1.56138e-05
1.5025e-05
1.43513e-05
1.36138e-05
1.28455e-05
1.20632e-05
8.31141e-06
9.83144e-07
9.87355e-07
9.94684e-07
1.00439e-06
1.01772e-06
1.03447e-06
1.05427e-06
1.07692e-06
1.10165e-06
1.12885e-06
1.1559e-06
1.18722e-06
3.41887e-06
1.30221e-05
1.48998e-05
1.60357e-05
1.55529e-05
1.49292e-05
1.42087e-05
1.34388e-05
1.26505e-05
1.18631e-05
8.16989e-06
1.00542e-06
1.00922e-06
1.01676e-06
1.02793e-06
1.04215e-06
1.05753e-06
1.07566e-06
1.0963e-06
1.11857e-06
1.1426e-06
1.16567e-06
1.19031e-06
3.39652e-06
1.32503e-05
1.4505e-05
1.57003e-05
1.53122e-05
1.47299e-05
1.4022e-05
1.32519e-05
1.24612e-05
1.16746e-05
8.03709e-06
1.00782e-06
1.00782e-06
1.01274e-06
1.02086e-06
1.03203e-06
1.04616e-06
1.06292e-06
1.08238e-06
1.10371e-06
1.12818e-06
1.15244e-06
1.18332e-06
3.32771e-06
1.32503e-05
1.49741e-05
1.63728e-05
1.58463e-05
1.50477e-05
1.41544e-05
1.32591e-05
1.23853e-05
1.15528e-05
7.9315e-06
1.02669e-06
1.02972e-06
1.03571e-06
1.04464e-06
1.05625e-06
1.07068e-06
1.08704e-06
1.10672e-06
1.12592e-06
1.15212e-06
1.16973e-06
1.20376e-06
3.66568e-06
1.3552e-05
1.47723e-05
1.60653e-05
1.57595e-05
1.49989e-05
1.40886e-05
1.31585e-05
1.22551e-05
1.13995e-05
7.81172e-06
9.80117e-07
9.80117e-07
9.84363e-07
9.91398e-07
1.0011e-06
1.01347e-06
1.02816e-06
1.04578e-06
1.0651e-06
1.09007e-06
1.11572e-06
1.161e-06
3.30909e-06
1.39544e-05
1.82249e-05
1.82484e-05
1.72845e-05
1.58624e-05
1.44954e-05
1.32899e-05
1.22284e-05
1.12923e-05
7.70249e-06
1.07398e-06
1.07698e-06
1.08293e-06
1.09181e-06
1.10337e-06
1.11794e-06
1.13437e-06
1.1553e-06
1.17509e-06
1.20857e-06
1.22808e-06
1.37669e-06
6.83274e-06
1.60744e-05
1.88908e-05
1.89297e-05
1.73991e-05
1.59829e-05
1.45126e-05
1.32238e-05
1.20943e-05
1.11158e-05
7.55856e-06
1.4837e-06
1.48877e-06
1.49883e-06
1.51388e-06
1.53351e-06
1.55814e-06
1.58584e-06
1.61983e-06
1.65136e-06
1.6975e-06
1.76185e-06
2.62096e-06
1.6496e-05
3.53966e-05
2.70947e-05
2.47568e-05
1.99164e-05
1.69075e-05
1.47807e-05
1.31905e-05
1.19292e-05
1.0899e-05
7.3854e-06
1.01824e-05
1.0236e-05
1.03409e-05
1.05084e-05
1.07192e-05
1.10276e-05
1.13495e-05
1.18445e-05
1.23796e-05
1.31172e-05
1.61741e-05
2.80728e-05
6.20049e-05
5.73601e-05
4.21283e-05
2.89448e-05
2.22115e-05
1.77737e-05
1.50319e-05
1.31156e-05
1.17111e-05
1.06278e-05
7.17658e-06
1.60983e-05
1.60983e-05
1.62125e-05
1.6424e-05
1.66854e-05
1.71013e-05
1.74708e-05
1.81267e-05
1.85148e-05
1.92264e-05
1.9853e-05
2.08578e-05
3.72732e-05
4.21799e-05
2.7579e-05
2.20335e-05
1.81844e-05
1.56063e-05
1.37302e-05
1.22603e-05
1.10922e-05
1.01393e-05
6.87857e-06
1.7376e-05
1.74421e-05
1.75502e-05
1.7775e-05
1.79603e-05
1.84604e-05
1.86234e-05
1.96767e-05
1.97546e-05
2.16427e-05
2.27244e-05
2.47833e-05
3.01714e-05
2.76736e-05
2.2756e-05
2.01233e-05
1.71388e-05
1.48904e-05
1.31045e-05
1.17001e-05
1.05821e-05
9.67832e-06
6.57436e-06
1.56047e-05
1.56047e-05
1.56736e-05
1.58075e-05
1.59619e-05
1.6225e-05
1.64416e-05
1.68655e-05
1.7163e-05
1.77322e-05
1.8622e-05
1.94533e-05
2.29345e-05
2.19081e-05
1.88313e-05
1.68753e-05
1.48534e-05
1.31855e-05
1.18478e-05
1.07413e-05
9.83306e-06
9.0716e-06
6.20432e-06
1.4936e-05
1.49704e-05
1.50202e-05
1.51401e-05
1.52142e-05
1.54891e-05
1.55114e-05
1.60857e-05
1.59671e-05
1.68702e-05
1.68815e-05
1.73808e-05
1.80737e-05
1.71613e-05
1.57577e-05
1.44207e-05
1.31334e-05
1.18739e-05
1.08656e-05
9.93654e-06
9.163e-06
8.49743e-06
5.83873e-06
1.37385e-05
1.37584e-05
1.37834e-05
1.38535e-05
1.38811e-05
1.40438e-05
1.40101e-05
1.43479e-05
1.41754e-05
1.46818e-05
1.45412e-05
1.47654e-05
1.5124e-05
1.44243e-05
1.35329e-05
1.2453e-05
1.15337e-05
1.05497e-05
9.77096e-06
9.02358e-06
8.40545e-06
7.85379e-06
5.44867e-06
1.28387e-05
1.28467e-05
1.28521e-05
1.28831e-05
1.28782e-05
1.29603e-05
1.29004e-05
1.30832e-05
1.29085e-05
1.31659e-05
1.29297e-05
1.29562e-05
1.2781e-05
1.22516e-05
1.16137e-05
1.08337e-05
1.01497e-05
9.39502e-06
8.77995e-06
8.1788e-06
7.67455e-06
7.21946e-06
5.06717e-06
1.18901e-05
1.18874e-05
1.18747e-05
1.18701e-05
1.18326e-05
1.18406e-05
1.17463e-05
1.1791e-05
1.16005e-05
1.16613e-05
1.14078e-05
1.13121e-05
1.10868e-05
1.06312e-05
1.01317e-05
9.50654e-06
8.96062e-06
8.36355e-06
7.86748e-06
7.38425e-06
6.97484e-06
6.6047e-06
4.68633e-06
1.10635e-05
1.10523e-05
1.10255e-05
1.0994e-05
1.09324e-05
1.08889e-05
1.07719e-05
1.07287e-05
1.05287e-05
1.04678e-05
1.01912e-05
1.0011e-05
9.69171e-06
9.29942e-06
8.86448e-06
8.3692e-06
7.9196e-06
7.44521e-06
7.03957e-06
6.6502e-06
6.31756e-06
6.01897e-06
4.31784e-06
1.02864e-05
1.02681e-05
1.02287e-05
1.01747e-05
1.00907e-05
1.00048e-05
9.86337e-06
9.75169e-06
9.53724e-06
9.39074e-06
9.11034e-06
8.87962e-06
8.56178e-06
8.20095e-06
7.81651e-06
7.39833e-06
7.01371e-06
6.62392e-06
6.28585e-06
5.9695e-06
5.69968e-06
5.46175e-06
3.96044e-06
9.59139e-06
9.5675e-06
9.51814e-06
9.44708e-06
9.34559e-06
9.22995e-06
9.0697e-06
8.91372e-06
8.687e-06
8.4876e-06
8.1994e-06
7.93503e-06
7.6067e-06
7.26679e-06
6.91137e-06
6.54808e-06
6.21076e-06
5.88326e-06
5.5977e-06
5.33868e-06
5.12041e-06
4.93356e-06
3.61818e-06
8.96232e-06
8.93384e-06
8.87606e-06
8.79117e-06
8.67456e-06
8.53546e-06
8.3577e-06
8.16867e-06
7.92869e-06
7.69277e-06
7.39963e-06
7.11449e-06
6.7906e-06
6.46269e-06
6.12944e-06
5.80082e-06
5.49692e-06
5.213e-06
4.96746e-06
4.75309e-06
4.57742e-06
4.43408e-06
3.28902e-06
8.40566e-06
8.37354e-06
8.30898e-06
8.21335e-06
8.08459e-06
7.92813e-06
7.73613e-06
7.5242e-06
7.27247e-06
7.01229e-06
6.71236e-06
6.41209e-06
6.08709e-06
5.76442e-06
5.44356e-06
5.13646e-06
4.85533e-06
4.60163e-06
4.38629e-06
4.20658e-06
4.06606e-06
3.95986e-06
2.97758e-06
7.90994e-06
7.87485e-06
7.80466e-06
7.70038e-06
7.5614e-06
7.39123e-06
7.18677e-06
6.95736e-06
6.6944e-06
6.41632e-06
6.10933e-06
5.7976e-06
5.4713e-06
5.14966e-06
4.83551e-06
4.54039e-06
4.27383e-06
4.04045e-06
3.84786e-06
3.69567e-06
3.58519e-06
3.51203e-06
2.67574e-06
7.4844e-06
7.44691e-06
7.37212e-06
7.26087e-06
7.11346e-06
6.93246e-06
6.71741e-06
6.47447e-06
6.20107e-06
5.90889e-06
5.5935e-06
5.27088e-06
4.93919e-06
4.61349e-06
4.29895e-06
4.00693e-06
3.74628e-06
3.52373e-06
3.34588e-06
3.21396e-06
3.12814e-06
3.08391e-06
2.39726e-06
7.10627e-06
7.06681e-06
6.9882e-06
6.87127e-06
6.71685e-06
6.5271e-06
6.30303e-06
6.04921e-06
5.76633e-06
5.46258e-06
5.13852e-06
4.80566e-06
4.46675e-06
4.13407e-06
3.81475e-06
3.52005e-06
3.25952e-06
3.04174e-06
2.87393e-06
2.7588e-06
2.69599e-06
2.68023e-06
2.11867e-06
6.80334e-06
6.76224e-06
6.68043e-06
6.55875e-06
6.39054e-06
6.18072e-06
5.93863e-06
5.66721e-06
5.37083e-06
5.05411e-06
4.72314e-06
4.38504e-06
4.04759e-06
3.72042e-06
3.39595e-06
3.09041e-06
2.82077e-06
2.59784e-06
2.43096e-06
2.32531e-06
2.28091e-06
2.29139e-06
1.87694e-06
6.52639e-06
6.48404e-06
6.39975e-06
6.27442e-06
6.10933e-06
5.90647e-06
5.66799e-06
5.39509e-06
5.08767e-06
4.75898e-06
4.41496e-06
4.0625e-06
3.70942e-06
3.35782e-06
3.01322e-06
2.69288e-06
2.40917e-06
2.17582e-06
2.006e-06
1.90873e-06
1.88491e-06
1.9257e-06
1.61917e-06
6.31037e-06
6.24656e-06
6.14102e-06
5.99489e-06
5.80989e-06
5.58815e-06
5.33243e-06
5.04603e-06
4.73311e-06
4.39848e-06
4.04795e-06
3.68817e-06
3.3268e-06
2.97292e-06
2.63696e-06
2.33137e-06
2.05447e-06
1.7971e-06
1.61011e-06
1.51053e-06
1.50376e-06
1.57735e-06
1.41948e-06
6.15021e-06
6.10613e-06
6.01841e-06
5.88796e-06
5.71616e-06
5.50491e-06
5.25264e-06
4.95598e-06
4.63119e-06
4.28284e-06
3.91632e-06
3.53775e-06
3.15412e-06
2.77362e-06
2.40592e-06
2.06317e-06
1.72577e-06
1.43603e-06
1.22208e-06
1.11665e-06
1.13443e-06
1.25184e-06
1.19686e-06
5.93146e-06
5.86603e-06
5.75775e-06
5.60777e-06
5.41771e-06
5.18965e-06
4.92627e-06
4.63092e-06
4.30751e-06
3.9604e-06
3.59452e-06
3.21534e-06
2.82905e-06
2.44272e-06
2.06482e-06
1.70653e-06
1.38424e-06
1.12413e-06
8.78774e-07
7.43181e-07
7.92443e-07
9.75238e-07
1.04152e-06
5.92718e-06
5.88258e-06
5.79385e-06
5.66189e-06
5.48812e-06
5.27445e-06
5.02323e-06
4.73735e-06
4.41117e-06
4.04631e-06
3.66036e-06
3.25845e-06
2.8461e-06
2.42926e-06
2.01451e-06
1.60985e-06
1.22694e-06
8.88734e-07
5.82426e-07
3.60074e-07
4.84944e-07
7.31401e-07
9.14668e-07
5.64075e-06
5.57641e-06
5.46992e-06
5.32241e-06
5.13545e-06
4.91109e-06
4.65185e-06
4.36072e-06
4.04117e-06
3.69707e-06
3.33264e-06
2.95238e-06
2.561e-06
2.16324e-06
1.76385e-06
1.36753e-06
9.79181e-07
6.05848e-07
2.87609e-07
2.46385e-07
2.46385e-07
4.96564e-07
8.0218e-07
1.07831e-05
9.37855e-06
9.04864e-06
9.04864e-06
9.67493e-06
8.81207e-06
8.29042e-06
8.29042e-06
8.14892e-06
7.57474e-06
7.09401e-06
7.09401e-06
7.30854e-06
6.90833e-06
6.52574e-06
6.52574e-06
6.70245e-06
6.36853e-06
6.03935e-06
6.03935e-06
6.28153e-06
6.00462e-06
5.72818e-06
5.72818e-06
5.97195e-06
5.72729e-06
5.48361e-06
5.48361e-06
5.73407e-06
5.51551e-06
5.2984e-06
5.2984e-06
5.54695e-06
5.34678e-06
5.14865e-06
5.14865e-06
5.39478e-06
5.20899e-06
5.02565e-06
5.02565e-06
5.27071e-06
5.09522e-06
4.92261e-06
4.92261e-06
5.16447e-06
4.99693e-06
4.83261e-06
4.83261e-06
5.07706e-06
4.9139e-06
4.75467e-06
4.75467e-06
4.99468e-06
4.83508e-06
4.67996e-06
4.67996e-06
4.92511e-06
4.76529e-06
4.61124e-06
4.61124e-06
4.84783e-06
4.68868e-06
4.5362e-06
4.5362e-06
4.7733e-06
4.61187e-06
4.45888e-06
4.45888e-06
4.67948e-06
4.51816e-06
4.36643e-06
4.36643e-06
4.56814e-06
4.40808e-06
4.25883e-06
4.25883e-06
4.43542e-06
4.27839e-06
4.13319e-06
4.13319e-06
4.2583e-06
4.1136e-06
3.97921e-06
3.97921e-06
4.07328e-06
3.93877e-06
3.81407e-06
3.81407e-06
3.85435e-06
3.7363e-06
3.62614e-06
3.62614e-06
3.63475e-06
3.53068e-06
3.43342e-06
3.43342e-06
3.40165e-06
3.3133e-06
3.23038e-06
3.23038e-06
3.17173e-06
3.09726e-06
3.02729e-06
3.02729e-06
2.9417e-06
2.88066e-06
2.82328e-06
2.82328e-06
2.71795e-06
2.66892e-06
2.62297e-06
2.62297e-06
2.50012e-06
2.4621e-06
2.42671e-06
2.42671e-06
2.2908e-06
2.26273e-06
2.23699e-06
2.23699e-06
2.08882e-06
2.06978e-06
2.05287e-06
2.05287e-06
1.89748e-06
1.88682e-06
1.87817e-06
1.87817e-06
1.71149e-06
1.70849e-06
1.70743e-06
1.70743e-06
1.54042e-06
1.54042e-06
1.54504e-06
1.55153e-06
1.36849e-06
1.36849e-06
1.38004e-06
1.39345e-06
1.22122e-06
1.22122e-06
1.24056e-06
1.26161e-06
1.06265e-06
1.06265e-06
1.08893e-06
1.11686e-06
9.43481e-07
9.43481e-07
9.78263e-07
1.01421e-06
8.09072e-07
8.09072e-07
8.52014e-07
8.95704e-07
7.18522e-07
7.18522e-07
7.69224e-07
8.19604e-07
6.47559e-07
6.47559e-07
7.07336e-07
7.65776e-07
5.79601e-07
5.79601e-07
6.39888e-07
6.98086e-07
8.47523e-06
5.86746e-06
4.78101e-06
4.12531e-06
3.7751e-06
3.44488e-06
3.16796e-06
2.897e-06
2.63924e-06
2.38826e-06
2.14617e-06
1.91289e-06
1.68982e-06
1.47847e-06
1.2814e-06
1.10284e-06
9.49954e-07
8.34024e-07
7.69948e-07
1.28424e-05
9.60969e-06
7.81964e-06
6.36748e-06
5.63538e-06
5.01854e-06
4.54991e-06
4.12628e-06
3.74525e-06
3.38853e-06
3.05425e-06
2.7394e-06
2.44439e-06
2.1705e-06
1.92091e-06
1.70095e-06
1.51889e-06
1.38604e-06
1.31509e-06
1.09737e-05
9.66116e-06
8.11391e-06
6.79156e-06
5.98208e-06
5.30454e-06
4.77781e-06
4.31674e-06
3.91196e-06
3.5433e-06
3.20558e-06
2.89404e-06
2.60771e-06
2.34706e-06
2.11456e-06
1.91456e-06
1.75342e-06
1.63904e-06
1.57928e-06
1.02227e-05
9.74898e-06
8.35102e-06
7.1244e-06
6.26528e-06
5.55592e-06
4.9913e-06
4.50574e-06
4.08462e-06
3.70832e-06
3.36947e-06
3.0623e-06
2.78475e-06
2.53649e-06
2.31911e-06
2.13579e-06
1.99108e-06
1.89029e-06
1.83838e-06
9.53799e-06
9.61811e-06
8.40661e-06
7.30684e-06
6.46014e-06
5.75691e-06
5.1799e-06
4.685e-06
4.25647e-06
3.87763e-06
3.54038e-06
3.23876e-06
2.97e-06
2.73315e-06
2.52894e-06
2.35943e-06
2.22768e-06
2.13715e-06
2.09096e-06
9.11982e-06
9.47412e-06
8.40308e-06
7.42568e-06
6.60964e-06
5.92385e-06
5.34806e-06
4.85306e-06
4.42386e-06
4.04668e-06
3.71347e-06
3.41846e-06
3.15849e-06
2.93211e-06
2.73935e-06
2.58132e-06
2.45993e-06
2.37733e-06
2.33547e-06
8.77525e-06
9.32874e-06
8.36525e-06
7.49262e-06
6.71859e-06
6.05883e-06
5.49482e-06
5.0073e-06
4.58318e-06
4.21137e-06
3.88445e-06
3.59705e-06
3.34591e-06
3.12925e-06
2.94655e-06
2.79822e-06
2.68527e-06
2.60898e-06
2.57049e-06
8.51378e-06
9.19568e-06
8.31858e-06
7.52815e-06
6.79906e-06
6.16872e-06
5.62244e-06
5.14723e-06
4.73227e-06
4.36866e-06
4.04981e-06
3.77087e-06
3.52861e-06
3.32109e-06
3.14739e-06
3.0074e-06
2.90151e-06
2.83037e-06
2.79461e-06
8.29721e-06
9.07172e-06
8.26487e-06
7.54218e-06
6.85722e-06
6.25721e-06
5.73192e-06
5.27219e-06
4.86927e-06
4.51599e-06
4.20662e-06
3.93683e-06
3.70354e-06
3.50474e-06
3.33926e-06
3.20663e-06
3.1068e-06
3.04e-06
3.00651e-06
8.11717e-06
8.95727e-06
8.20704e-06
7.5296e-06
6.897e-06
6.32702e-06
5.82421e-06
5.38182e-06
4.99284e-06
4.65139e-06
4.35254e-06
4.09245e-06
3.86822e-06
3.67785e-06
3.52004e-06
3.39406e-06
3.29959e-06
3.23656e-06
3.20502e-06
7.96354e-06
8.84859e-06
8.14453e-06
7.5061e-06
6.92116e-06
6.37994e-06
5.89992e-06
5.47582e-06
5.10192e-06
4.77331e-06
4.48572e-06
4.23573e-06
4.02065e-06
3.83854e-06
3.68801e-06
3.5682e-06
3.47859e-06
3.41894e-06
3.38913e-06
7.82739e-06
8.74309e-06
8.07671e-06
7.47196e-06
6.92649e-06
6.41681e-06
5.9593e-06
5.55384e-06
5.19566e-06
4.88054e-06
4.60472e-06
4.36514e-06
4.1593e-06
3.98532e-06
3.84183e-06
3.72785e-06
3.64278e-06
3.58623e-06
3.55799e-06
7.7065e-06
8.63655e-06
8.00152e-06
7.42627e-06
6.90786e-06
6.43802e-06
6.00237e-06
5.61557e-06
5.27342e-06
4.97217e-06
4.70847e-06
4.47951e-06
4.28299e-06
4.11711e-06
3.98049e-06
3.87214e-06
3.79137e-06
3.73774e-06
3.71099e-06
7.58913e-06
8.52542e-06
7.91683e-06
7.36784e-06
6.8743e-06
6.43271e-06
6.02897e-06
5.66067e-06
5.33468e-06
5.04755e-06
4.79621e-06
4.57805e-06
4.39093e-06
4.23313e-06
4.1033e-06
4.00044e-06
3.92385e-06
3.87303e-06
3.84769e-06
7.47766e-06
8.40495e-06
7.81973e-06
7.2949e-06
6.82485e-06
6.40529e-06
6.03161e-06
5.68885e-06
5.37907e-06
5.10623e-06
4.86743e-06
4.66024e-06
4.48261e-06
4.33291e-06
4.20984e-06
4.11242e-06
4.03993e-06
3.99185e-06
3.96789e-06
7.35596e-06
8.27062e-06
7.70732e-06
7.20568e-06
6.75847e-06
6.36062e-06
6.00703e-06
5.69358e-06
5.40638e-06
5.14798e-06
4.92191e-06
4.72582e-06
4.5578e-06
4.41627e-06
4.29998e-06
4.20797e-06
4.13954e-06
4.09418e-06
4.07158e-06
7.22789e-06
8.11803e-06
7.57681e-06
7.09844e-06
6.67421e-06
6.29822e-06
5.96493e-06
5.67001e-06
5.40966e-06
5.17278e-06
4.95962e-06
4.77482e-06
4.61653e-06
4.48325e-06
4.37378e-06
4.28722e-06
4.22285e-06
4.1802e-06
4.15895e-06
7.07689e-06
7.94228e-06
7.42533e-06
6.97159e-06
6.57126e-06
6.2178e-06
5.90532e-06
5.62935e-06
5.38606e-06
5.17239e-06
4.98077e-06
4.80744e-06
4.65904e-06
4.53413e-06
4.43157e-06
4.35049e-06
4.29021e-06
4.25028e-06
4.23039e-06
6.9023e-06
7.74124e-06
7.25161e-06
6.82444e-06
6.44942e-06
6.11945e-06
5.82853e-06
5.57206e-06
5.34628e-06
5.14817e-06
4.97525e-06
4.82414e-06
4.6858e-06
4.56939e-06
4.47384e-06
4.39831e-06
4.34217e-06
4.30498e-06
4.28646e-06
6.70004e-06
7.51186e-06
7.05431e-06
6.65659e-06
6.3088e-06
6.00361e-06
5.73514e-06
5.49885e-06
5.29109e-06
5.10893e-06
4.95003e-06
4.81252e-06
4.69488e-06
4.58971e-06
4.50127e-06
4.43137e-06
4.37943e-06
4.34502e-06
4.32788e-06
6.45852e-06
7.25619e-06
6.83476e-06
6.46912e-06
6.15039e-06
5.87125e-06
5.62616e-06
5.41073e-06
5.22148e-06
5.05568e-06
4.91111e-06
4.78602e-06
4.67903e-06
4.58903e-06
4.51472e-06
4.45054e-06
4.40284e-06
4.37125e-06
4.35551e-06
6.19769e-06
6.97661e-06
6.59483e-06
6.26366e-06
5.97568e-06
5.72377e-06
5.5029e-06
5.30895e-06
5.13871e-06
4.98962e-06
4.85966e-06
4.74722e-06
4.65104e-06
4.57013e-06
4.50371e-06
4.4512e-06
4.41217e-06
4.38465e-06
4.37034e-06
5.90473e-06
6.67706e-06
6.33749e-06
6.04265e-06
5.7867e-06
5.56294e-06
5.367e-06
5.19504e-06
5.04419e-06
4.91212e-06
4.797e-06
4.69739e-06
4.61217e-06
4.54045e-06
4.48155e-06
4.43498e-06
4.40035e-06
4.3774e-06
4.36596e-06
5.60199e-06
6.36292e-06
6.06659e-06
5.80904e-06
5.58587e-06
5.39088e-06
5.22031e-06
5.07072e-06
4.93953e-06
4.82469e-06
4.72458e-06
4.63792e-06
4.56374e-06
4.50129e-06
4.44998e-06
4.40937e-06
4.37917e-06
4.35915e-06
4.34918e-06
5.2838e-06
6.0384e-06
5.78567e-06
5.56585e-06
5.37578e-06
5.20985e-06
5.06489e-06
4.93784e-06
4.82646e-06
4.72896e-06
4.64393e-06
4.57029e-06
4.5072e-06
4.45403e-06
4.41032e-06
4.3757e-06
4.34993e-06
4.33285e-06
4.32434e-06
4.96374e-06
5.70861e-06
5.49868e-06
5.31627e-06
5.15914e-06
5.02221e-06
4.90283e-06
4.79831e-06
4.70674e-06
4.62657e-06
4.55661e-06
4.49596e-06
4.44394e-06
4.40004e-06
4.36391e-06
4.33525e-06
4.31391e-06
4.29974e-06
4.29269e-06
4.64163e-06
5.37735e-06
5.20905e-06
5.06337e-06
4.93868e-06
4.83044e-06
4.73641e-06
4.65424e-06
4.58233e-06
4.51936e-06
4.46435e-06
4.4166e-06
4.37556e-06
4.34085e-06
4.31222e-06
4.28948e-06
4.27252e-06
4.26124e-06
4.25562e-06
4.3241e-06
5.0482e-06
4.91985e-06
4.80982e-06
4.71678e-06
4.63665e-06
4.56753e-06
4.50737e-06
4.45482e-06
4.4088e-06
4.36854e-06
4.33348e-06
4.30326e-06
4.27761e-06
4.25638e-06
4.23946e-06
4.2268e-06
4.21837e-06
4.21416e-06
4.01212e-06
4.72453e-06
4.63438e-06
4.55876e-06
4.49642e-06
4.44369e-06
4.39888e-06
4.36022e-06
4.32662e-06
4.29718e-06
4.27134e-06
4.24872e-06
4.22908e-06
4.21228e-06
4.19827e-06
4.18703e-06
4.17858e-06
4.17293e-06
4.17009e-06
3.70975e-06
4.40798e-06
4.35419e-06
4.31159e-06
4.27886e-06
4.25262e-06
4.23138e-06
4.2136e-06
4.19838e-06
4.18504e-06
4.17321e-06
4.16265e-06
4.15327e-06
4.14505e-06
4.13805e-06
4.13232e-06
4.12794e-06
4.12498e-06
4.12348e-06
3.41558e-06
4.10259e-06
4.0835e-06
4.07261e-06
4.06836e-06
4.06766e-06
4.06914e-06
4.07149e-06
4.074e-06
4.07618e-06
4.07783e-06
4.07888e-06
4.07936e-06
4.0794e-06
4.07912e-06
4.07868e-06
4.07821e-06
4.07783e-06
4.07762e-06
3.13633e-06
3.80698e-06
3.82096e-06
3.84036e-06
3.86337e-06
3.88712e-06
3.91035e-06
3.93194e-06
3.95137e-06
3.96836e-06
3.98286e-06
3.99496e-06
4.00484e-06
4.01272e-06
4.01884e-06
4.02342e-06
4.02667e-06
4.02875e-06
4.02976e-06
2.86275e-06
3.52861e-06
3.57444e-06
3.62294e-06
3.67206e-06
3.71914e-06
3.76305e-06
3.8029e-06
3.83835e-06
3.86932e-06
3.89594e-06
3.91845e-06
3.93716e-06
3.95241e-06
3.96454e-06
3.97384e-06
3.98057e-06
3.98495e-06
3.9871e-06
2.61395e-06
3.26083e-06
3.33714e-06
3.41337e-06
3.48723e-06
3.55634e-06
3.61971e-06
3.67667e-06
3.72711e-06
3.77114e-06
3.80905e-06
3.84124e-06
3.86817e-06
3.89027e-06
3.90797e-06
3.92165e-06
3.93162e-06
3.93812e-06
3.94134e-06
2.36052e-06
3.0179e-06
3.12369e-06
3.22634e-06
3.32354e-06
3.41322e-06
3.49462e-06
3.56736e-06
3.63154e-06
3.68749e-06
3.73569e-06
3.77669e-06
3.81106e-06
3.83936e-06
3.86211e-06
3.87974e-06
3.89264e-06
3.90107e-06
3.90524e-06
2.15201e-06
2.78794e-06
2.92203e-06
3.04972e-06
3.16878e-06
3.27757e-06
3.3756e-06
3.46281e-06
3.53955e-06
3.60636e-06
3.66391e-06
3.71289e-06
3.75402e-06
3.78794e-06
3.81525e-06
3.83647e-06
3.852e-06
3.86217e-06
3.86721e-06
1.92069e-06
2.58744e-06
2.74773e-06
2.89799e-06
3.03642e-06
3.16189e-06
3.27429e-06
3.3739e-06
3.46134e-06
3.53736e-06
3.60282e-06
3.65855e-06
3.70537e-06
3.74402e-06
3.77517e-06
3.79939e-06
3.81714e-06
3.82878e-06
3.83454e-06
1.76113e-06
2.41563e-06
2.60125e-06
2.77287e-06
2.92933e-06
3.07015e-06
3.19566e-06
3.3065e-06
3.40359e-06
3.48788e-06
3.56041e-06
3.62214e-06
3.67401e-06
3.71685e-06
3.7514e-06
3.77827e-06
3.79798e-06
3.81091e-06
3.8173e-06
1.57469e-06
2.26217e-06
2.46754e-06
2.65528e-06
2.82502e-06
2.97695e-06
3.11183e-06
3.23064e-06
3.33452e-06
3.42464e-06
3.50214e-06
3.5681e-06
3.62352e-06
3.66931e-06
3.70624e-06
3.73499e-06
3.75608e-06
3.76991e-06
3.77676e-06
1.45666e-06
2.17564e-06
2.39927e-06
2.60173e-06
2.78354e-06
2.94552e-06
3.08887e-06
3.21488e-06
3.32489e-06
3.42024e-06
3.50214e-06
3.5681e-06
3.62352e-06
3.66931e-06
3.70624e-06
3.73499e-06
3.75608e-06
3.76991e-06
3.77676e-06
1.37841e-06
2.06993e-06
2.30044e-06
2.50791e-06
2.69347e-06
2.85835e-06
3.004e-06
3.13185e-06
3.24338e-06
3.33998e-06
3.42296e-06
3.49355e-06
3.55286e-06
3.60187e-06
3.64141e-06
3.67219e-06
3.69478e-06
3.70961e-06
3.71695e-06
1.26361e-06
2.06342e-06
2.30044e-06
2.50791e-06
2.69347e-06
2.85835e-06
3.004e-06
3.13185e-06
3.24338e-06
3.33998e-06
3.42296e-06
3.49355e-06
3.55286e-06
3.60187e-06
3.64141e-06
3.67219e-06
3.69478e-06
3.70961e-06
3.71695e-06
)
;

boundaryField
{
    leftWall
    {
        type            calculated;
        value           uniform 0;
    }
    rightWall
    {
        type            calculated;
        value           uniform 0;
    }
    lowerWall
    {
        type            calculated;
        value           uniform 0;
    }
    atmosphere
    {
        type            calculated;
        value           uniform 0;
    }
    defaultFaces
    {
        type            empty;
    }
}


// ************************************************************************* //
