/*--------------------------------*- C++ -*----------------------------------*\
| =========                 |                                                 |
| \\      /  F ield         | OpenFOAM: The Open Source CFD Toolbox           |
|  \\    /   O peration     | Version:  2012                                  |
|   \\  /    A nd           | Website:  www.openfoam.com                      |
|    \\/     M anipulation  |                                                 |
\*---------------------------------------------------------------------------*/
FoamFile
{
    version     2.0;
    format      ascii;
    class       surfaceScalarField;
    location    "0.02";
    object      phi;
}
// * * * * * * * * * * * * * * * * * * * * * * * * * * * * * * * * * * * * * //

dimensions      [0 3 -1 0 0 0 0];
oriented        oriented;


internalField   nonuniform List<scalar> 
4432
(
1.40445e-06
-1.40445e-06
2.83303e-06
-1.42859e-06
4.31112e-06
-1.47809e-06
5.87098e-06
-1.55986e-06
7.54601e-06
-1.67504e-06
9.40122e-06
-1.85521e-06
1.14792e-05
-2.07801e-06
1.39746e-05
-2.4954e-06
1.69218e-05
-2.94717e-06
2.103e-05
-4.10817e-06
2.68746e-05
-5.84466e-06
3.64501e-05
-9.57547e-06
5.13057e-05
-1.48443e-05
6.28227e-05
-1.15087e-05
5.13918e-05
1.14313e-05
3.41524e-05
1.72394e-05
2.46949e-05
9.45748e-06
1.88195e-05
5.87528e-06
1.45183e-05
4.30103e-06
1.08654e-05
3.65278e-06
7.38422e-06
3.48107e-06
3.80255e-06
3.58156e-06
3.80245e-06
1.39895e-06
-2.8034e-06
2.82157e-06
-2.85121e-06
4.29263e-06
-2.94916e-06
5.84345e-06
-3.11068e-06
7.50629e-06
-3.33789e-06
9.34272e-06
-3.69163e-06
1.13911e-05
-4.12642e-06
1.38314e-05
-4.93566e-06
1.66561e-05
-5.7719e-06
2.05212e-05
-7.97331e-06
2.52962e-05
-1.06197e-05
3.27229e-05
-1.70021e-05
4.22293e-05
-2.4325e-05
5.00139e-05
-1.92857e-05
4.15379e-05
1.99077e-05
3.0599e-05
2.81783e-05
2.35139e-05
1.65426e-05
1.83793e-05
1.10097e-05
1.43448e-05
8.33551e-06
1.08132e-05
7.18423e-06
7.39514e-06
6.89904e-06
3.83073e-06
7.1459e-06
7.63306e-06
1.38808e-06
-4.19149e-06
2.79888e-06
-4.26201e-06
4.25612e-06
-4.4064e-06
5.78927e-06
-4.64383e-06
7.42855e-06
-4.97718e-06
9.22938e-06
-5.49246e-06
1.12249e-05
-6.1219e-06
1.35678e-05
-7.27865e-06
1.62318e-05
-8.43583e-06
1.97187e-05
-1.14602e-05
2.3591e-05
-1.44919e-05
2.91349e-05
-2.2546e-05
3.43656e-05
-2.95207e-05
3.96463e-05
-2.45592e-05
3.29503e-05
2.66041e-05
2.68997e-05
3.42289e-05
2.19113e-05
2.1531e-05
1.76641e-05
1.52567e-05
1.40372e-05
1.19623e-05
1.07223e-05
1.0499e-05
7.43362e-06
1.01876e-05
3.9031e-06
1.06763e-05
1.1536e-05
1.37206e-06
-5.56356e-06
2.76549e-06
-5.65544e-06
4.20249e-06
-5.8434e-06
5.71001e-06
-6.15135e-06
7.31544e-06
-6.58262e-06
9.06593e-06
-7.24295e-06
1.09885e-05
-8.04452e-06
1.32005e-05
-9.49061e-06
1.56745e-05
-1.09098e-05
1.87132e-05
-1.4499e-05
2.1874e-05
-1.76527e-05
2.58454e-05
-2.65174e-05
2.87499e-05
-3.23866e-05
3.18605e-05
-2.76628e-05
2.67944e-05
3.16705e-05
2.38248e-05
3.71984e-05
2.03156e-05
2.50401e-05
1.68561e-05
1.87162e-05
1.3669e-05
1.51493e-05
1.06204e-05
1.35474e-05
7.50077e-06
1.33072e-05
4.01086e-06
1.41661e-05
1.55468e-05
1.35119e-06
-6.91475e-06
2.72205e-06
-7.0263e-06
4.13292e-06
-7.25428e-06
5.60773e-06
-7.62616e-06
7.1706e-06
-8.14549e-06
8.85951e-06
-8.93186e-06
1.06961e-05
-9.88113e-06
1.2762e-05
-1.15565e-05
1.50329e-05
-1.31808e-05
1.76389e-05
-1.71049e-05
2.02285e-05
-2.02423e-05
2.29744e-05
-2.92633e-05
2.4714e-05
-3.40856e-05
2.58821e-05
-2.88243e-05
2.23358e-05
3.5217e-05
2.129e-05
3.82441e-05
1.87621e-05
2.75681e-05
1.60121e-05
2.1466e-05
1.32824e-05
1.78788e-05
1.05604e-05
1.62693e-05
7.68933e-06
1.61781e-05
4.25083e-06
1.76046e-05
1.97975e-05
1.32591e-06
-8.24065e-06
2.66955e-06
-8.36995e-06
4.04915e-06
-8.63389e-06
5.4853e-06
-9.06231e-06
6.99863e-06
-9.65883e-06
8.61769e-06
-1.05509e-05
1.036e-05
-1.16234e-05
1.22707e-05
-1.34672e-05
1.43346e-05
-1.52446e-05
1.65527e-05
-1.9323e-05
1.86884e-05
-2.2378e-05
2.057e-05
-3.1145e-05
2.16268e-05
-3.50992e-05
2.1633e-05
-2.88243e-05
1.92949e-05
3.75552e-05
1.91386e-05
3.84003e-05
1.7328e-05
2.93786e-05
1.51718e-05
2.36221e-05
1.28804e-05
2.01701e-05
1.04887e-05
1.86609e-05
7.8684e-06
1.87983e-05
4.47353e-06
2.09994e-05
2.4271e-05
1.29652e-06
-9.53718e-06
2.60866e-06
-9.68209e-06
3.95232e-06
-9.97755e-06
5.34462e-06
-1.04546e-05
6.80255e-06
-1.11168e-05
8.34579e-06
-1.20942e-05
9.98784e-06
-1.32655e-05
1.17431e-05
-1.52225e-05
1.36058e-05
-1.71073e-05
1.54885e-05
-2.12057e-05
1.72551e-05
-2.41447e-05
1.85391e-05
-3.24289e-05
1.91148e-05
-3.56292e-05
1.83801e-05
-2.80837e-05
1.70109e-05
3.89245e-05
1.72811e-05
3.813e-05
1.60357e-05
3.06239e-05
1.43916e-05
2.52662e-05
1.25615e-05
2.20002e-05
1.06185e-05
2.06038e-05
8.49628e-06
2.09205e-05
5.19403e-06
2.43016e-05
2.94649e-05
1.26371e-06
-1.08009e-05
2.54085e-06
-1.09592e-05
3.84494e-06
-1.12816e-05
5.18968e-06
-1.17994e-05
6.58859e-06
-1.25157e-05
8.05309e-06
-1.35587e-05
9.59344e-06
-1.48059e-05
1.11981e-05
-1.68272e-05
1.28701e-05
-1.87793e-05
1.44622e-05
-2.27978e-05
1.59221e-05
-2.56045e-05
1.67961e-05
-3.33029e-05
1.70845e-05
-3.58688e-05
1.5885e-05
-2.68789e-05
1.52327e-05
3.95769e-05
1.56687e-05
3.7694e-05
1.48582e-05
3.14343e-05
1.36273e-05
2.64971e-05
1.2179e-05
2.34484e-05
1.05789e-05
2.22038e-05
8.78982e-06
2.27095e-05
5.55786e-06
2.75335e-05
3.50227e-05
1.18466e-06
-1.18472e-06
2.05959e-06
-8.7502e-07
2.58717e-06
-5.27668e-07
2.84928e-06
-2.62183e-07
2.91406e-06
-6.48237e-08
2.85418e-06
5.98292e-08
2.7145e-06
1.39643e-07
2.52742e-06
1.86995e-07
2.31316e-06
2.14182e-07
2.08456e-06
2.28492e-07
1.84943e-06
2.35092e-07
1.61229e-06
2.37072e-07
1.37581e-06
2.36428e-07
1.14125e-06
2.34469e-07
9.09155e-07
2.32049e-07
6.79436e-07
2.29684e-07
4.5173e-07
2.2766e-07
2.25481e-07
2.26147e-07
2.25419e-07
1.22643e-06
-2.41126e-06
2.11567e-06
-1.76434e-06
2.63462e-06
-1.04668e-06
2.88469e-06
-5.12297e-07
2.93791e-06
-1.18064e-07
2.8693e-06
1.28368e-07
2.72357e-06
2.85314e-07
2.53267e-06
3.77765e-07
2.316e-06
4.30796e-07
2.08591e-06
4.58487e-07
1.84989e-06
4.71096e-07
1.61224e-06
4.74624e-07
1.3755e-06
4.73106e-07
1.14084e-06
4.69056e-07
9.08745e-07
4.64132e-07
6.79082e-07
4.59287e-07
4.51461e-07
4.55151e-07
2.25352e-07
4.52209e-07
4.50745e-07
1.31914e-06
-3.73049e-06
2.23617e-06
-2.68142e-06
2.7337e-06
-1.54424e-06
2.95673e-06
-7.35366e-07
2.98545e-06
-1.46806e-07
2.89927e-06
2.14482e-07
2.74151e-06
4.43035e-07
2.54296e-06
5.76217e-07
2.32152e-06
6.52222e-07
2.0885e-06
6.91429e-07
1.85074e-06
7.08835e-07
1.61209e-06
7.13163e-07
1.37485e-06
7.10299e-07
1.14e-06
7.03853e-07
9.07902e-07
6.96199e-07
6.78354e-07
6.88734e-07
4.50941e-07
6.82449e-07
2.25094e-07
6.78059e-07
6.75774e-07
1.45429e-06
-5.18485e-06
2.41295e-06
-3.64011e-06
2.87866e-06
-2.00997e-06
3.0617e-06
-9.18446e-07
3.05446e-06
-1.39592e-07
2.9425e-06
3.26369e-07
2.76733e-06
6.18178e-07
2.55769e-06
7.85793e-07
2.32933e-06
8.8058e-07
2.09209e-06
9.28596e-07
1.85181e-06
9.49071e-07
1.61175e-06
9.53116e-07
1.37381e-06
9.48216e-07
1.13869e-06
9.3893e-07
9.06601e-07
9.28239e-07
6.77248e-07
9.17975e-07
4.50165e-07
9.09484e-07
2.24689e-07
9.03512e-07
9.0035e-07
1.68768e-06
-6.87257e-06
2.69845e-06
-4.65091e-06
3.09292e-06
-2.40448e-06
3.20754e-06
-1.03313e-06
3.14665e-06
-7.87518e-08
2.99867e-06
4.74279e-07
2.80037e-06
8.16453e-07
2.57626e-06
1.00985e-06
2.339e-06
1.11782e-06
2.09637e-06
1.17113e-06
1.85292e-06
1.19247e-06
1.61111e-06
1.19485e-06
1.37229e-06
1.18703e-06
1.13686e-06
1.17432e-06
9.04808e-07
1.16022e-06
6.75752e-07
1.14697e-06
4.49107e-07
1.13611e-06
2.24128e-07
1.12841e-06
1.1244e-06
1.92576e-06
-8.79838e-06
3.01317e-06
-5.73836e-06
3.33562e-06
-2.72699e-06
3.37376e-06
-1.07136e-06
3.25217e-06
4.27606e-08
3.06292e-06
6.63445e-07
2.83808e-06
1.04127e-06
2.59722e-06
1.25065e-06
2.34969e-06
1.36531e-06
2.10086e-06
1.41987e-06
1.85377e-06
1.43951e-06
1.60996e-06
1.43862e-06
1.37016e-06
1.42683e-06
1.13442e-06
1.41002e-06
9.02481e-07
1.39209e-06
6.73831e-07
1.3756e-06
4.4774e-07
1.36216e-06
2.23414e-07
1.35265e-06
1.34782e-06
2.48858e-06
-1.1287e-05
3.60865e-06
-6.85851e-06
3.71249e-06
-2.83091e-06
3.5974e-06
-9.56389e-07
3.38277e-06
2.57304e-07
3.13781e-06
9.08335e-07
2.88051e-06
1.29854e-06
2.62016e-06
1.51093e-06
2.36099e-06
1.62442e-06
2.10523e-06
1.67554e-06
1.85414e-06
1.69056e-06
1.60816e-06
1.68456e-06
1.36733e-06
1.66761e-06
1.13132e-06
1.64596e-06
8.99586e-07
1.62375e-06
6.71453e-07
1.60371e-06
4.46052e-07
1.58747e-06
2.22555e-07
1.57611e-06
1.57037e-06
3.09542e-06
-1.43825e-05
4.03518e-06
-7.79835e-06
4.02059e-06
-2.81641e-06
3.79102e-06
-7.26933e-07
3.50237e-06
5.45892e-07
3.20876e-06
1.20189e-06
2.92118e-06
1.58608e-06
2.64197e-06
1.79006e-06
2.37127e-06
1.89504e-06
2.10858e-06
1.93814e-06
1.85349e-06
1.9456e-06
1.60537e-06
1.93261e-06
1.3636e-06
1.90929e-06
1.12742e-06
1.88202e-06
8.96038e-07
1.85505e-06
6.68563e-07
1.83112e-06
4.44026e-07
1.8119e-06
2.21528e-07
1.79861e-06
1.79179e-06
2.56849e-06
-1.33694e-05
5.15812e-06
-1.35489e-05
7.78966e-06
-1.39132e-05
1.04816e-05
-1.44913e-05
1.32511e-05
-1.52852e-05
1.61012e-05
-1.64087e-05
1.90414e-05
-1.77461e-05
2.19969e-05
-1.97827e-05
2.49848e-05
-2.17673e-05
2.76287e-05
-2.54417e-05
2.99732e-05
-2.7949e-05
3.10267e-05
-3.43564e-05
3.17373e-05
-3.64678e-05
2.79395e-05
-2.30706e-05
2.78233e-05
3.96931e-05
2.88347e-05
3.66824e-05
2.81983e-05
3.20705e-05
2.68526e-05
2.78426e-05
2.53102e-05
2.49906e-05
2.4385e-05
2.31289e-05
2.46601e-05
2.24343e-05
2.91055e-05
2.30879e-05
2.534e-05
3.87882e-05
2.38259e-06
-1.5752e-05
4.77691e-06
-1.59432e-05
7.19381e-06
-1.63301e-05
9.63996e-06
-1.69374e-05
1.212e-05
-1.77653e-05
1.46198e-05
-1.89084e-05
1.71353e-05
-2.02616e-05
1.95724e-05
-2.22199e-05
2.19438e-05
-2.41386e-05
2.39151e-05
-2.7413e-05
2.55877e-05
-2.96217e-05
2.61971e-05
-3.49658e-05
2.65845e-05
-3.67336e-05
2.17289e-05
-1.8206e-05
2.26984e-05
3.87233e-05
2.39751e-05
3.54054e-05
2.41975e-05
3.18479e-05
2.37686e-05
2.82713e-05
2.3128e-05
2.56311e-05
2.27666e-05
2.34902e-05
2.30925e-05
2.21082e-05
2.5872e-05
2.03083e-05
1.94317e-05
3.17803e-05
2.18666e-06
-1.79387e-05
4.37721e-06
-1.81337e-05
6.57441e-06
-1.85273e-05
8.77615e-06
-1.91392e-05
1.09781e-05
-1.99673e-05
1.31566e-05
-2.1087e-05
1.52993e-05
-2.24043e-05
1.73131e-05
-2.42337e-05
1.92049e-05
-2.60303e-05
2.07047e-05
-2.89129e-05
2.19253e-05
-3.08422e-05
2.23035e-05
-3.5344e-05
2.24708e-05
-3.67729e-05
1.70472e-05
-1.27747e-05
1.86762e-05
3.70938e-05
2.01338e-05
3.39476e-05
2.08754e-05
3.1106e-05
2.10842e-05
2.80623e-05
2.11149e-05
2.56002e-05
2.12356e-05
2.33693e-05
2.17717e-05
2.15719e-05
2.27628e-05
1.93171e-05
1.75937e-05
2.46006e-05
1.98697e-06
-1.99256e-05
3.97177e-06
-2.01185e-05
5.95102e-06
-2.05066e-05
7.91672e-06
-2.11049e-05
9.85865e-06
-2.19092e-05
1.17498e-05
-2.29781e-05
1.35733e-05
-2.42278e-05
1.5247e-05
-2.59074e-05
1.67736e-05
-2.75569e-05
1.79458e-05
-3.00851e-05
1.88687e-05
-3.17651e-05
1.91223e-05
-3.55976e-05
1.92242e-05
-3.67431e-05
1.36644e-05
-7.20828e-06
1.55148e-05
3.52429e-05
1.70089e-05
3.24533e-05
1.7977e-05
3.01376e-05
1.84943e-05
2.75448e-05
1.88089e-05
2.52854e-05
1.90638e-05
2.31142e-05
1.94685e-05
2.11671e-05
1.98996e-05
1.88859e-05
1.67991e-05
2.06941e-05
1.79048e-06
-2.17161e-05
3.57443e-06
-2.19025e-05
5.34421e-06
-2.22763e-05
7.08813e-06
-2.28488e-05
8.79263e-06
-2.36137e-05
1.04303e-05
-2.46158e-05
1.19828e-05
-2.57803e-05
1.3381e-05
-2.73056e-05
1.46252e-05
-2.88011e-05
1.55579e-05
-3.10178e-05
1.62724e-05
-3.24796e-05
1.64497e-05
-3.57749e-05
1.65018e-05
-3.66626e-05
1.11341e-05
-1.8349e-06
1.30012e-05
3.33754e-05
1.44559e-05
3.09985e-05
1.55077e-05
2.90855e-05
1.61833e-05
2.6869e-05
1.66476e-05
2.4821e-05
1.69733e-05
2.27884e-05
1.72848e-05
2.08556e-05
1.74374e-05
1.87331e-05
1.66922e-05
1.75442e-05
1.60114e-06
-2.33173e-05
3.19289e-06
-2.34942e-05
4.76496e-06
-2.38484e-05
6.30368e-06
-2.43875e-05
7.79401e-06
-2.5104e-05
9.20996e-06
-2.60318e-05
1.05336e-05
-2.71039e-05
1.17079e-05
-2.84799e-05
1.27327e-05
-2.98259e-05
1.34875e-05
-3.17726e-05
1.40544e-05
-3.30465e-05
1.41823e-05
-3.59028e-05
1.41912e-05
-3.65404e-05
9.25938e-06
3.10178e-06
1.09985e-05
3.1636e-05
1.2342e-05
2.96548e-05
1.33717e-05
2.80555e-05
1.40859e-05
2.61547e-05
1.45898e-05
2.43171e-05
1.49256e-05
2.24525e-05
1.51657e-05
2.06153e-05
1.52254e-05
1.86734e-05
1.67601e-05
1.51575e-05
1.42183e-06
-2.47391e-05
2.83266e-06
-2.49051e-05
4.22076e-06
-2.52365e-05
5.57178e-06
-2.57385e-05
6.87041e-06
-2.64027e-05
8.09294e-06
-2.72543e-05
9.22276e-06
-2.82338e-05
1.02133e-05
-2.94705e-05
1.10647e-05
-3.06773e-05
1.1683e-05
-3.23909e-05
1.21407e-05
-3.35042e-05
1.22347e-05
-3.59968e-05
1.22004e-05
-3.6378e-05
7.8489e-06
7.45752e-06
9.38556e-06
3.00992e-05
1.05844e-05
2.8456e-05
1.15363e-05
2.71035e-05
1.22265e-05
2.54645e-05
1.2721e-05
2.38225e-05
1.30452e-05
2.21283e-05
1.32378e-05
2.04226e-05
1.32532e-05
1.8658e-05
1.6905e-05
1.31081e-05
1.25412e-06
-2.59932e-05
2.49658e-06
-2.61475e-05
3.71518e-06
-2.64551e-05
4.89572e-06
-2.69191e-05
6.02347e-06
-2.75304e-05
7.07727e-06
-2.83081e-05
8.04235e-06
-2.91988e-05
8.88063e-06
-3.03088e-05
9.59282e-06
-3.13895e-05
1.01043e-05
-3.29023e-05
1.04794e-05
-3.38794e-05
1.05495e-05
-3.60669e-05
1.04684e-05
-3.61735e-05
6.75427e-06
1.11753e-05
8.06395e-06
2.87895e-05
9.09999e-06
2.74199e-05
9.94057e-06
2.62628e-05
1.05653e-05
2.48397e-05
1.10164e-05
2.33713e-05
1.13108e-05
2.18338e-05
1.14707e-05
2.02626e-05
1.14761e-05
1.86526e-05
1.70472e-05
1.13339e-05
1.09823e-06
-2.70914e-05
2.18488e-06
-2.72342e-05
3.248e-06
-2.75182e-05
4.27411e-06
-2.79452e-05
5.24961e-06
-2.85059e-05
6.15593e-06
-2.92144e-05
6.98029e-06
-3.00232e-05
7.6914e-06
-3.10199e-05
8.2907e-06
-3.19888e-05
8.71737e-06
-3.3329e-05
9.02879e-06
-3.41908e-05
9.0816e-06
-3.61197e-05
8.9494e-06
-3.59236e-05
5.87617e-06
1.42515e-05
6.97511e-06
2.76906e-05
7.84705e-06
2.6548e-05
8.55937e-06
2.55505e-05
9.09324e-06
2.43058e-05
9.47927e-06
2.29853e-05
9.73082e-06
2.15822e-05
9.8611e-06
2.01323e-05
9.86322e-06
1.86505e-05
1.71703e-05
9.74008e-06
9.55021e-07
-2.80465e-05
1.89899e-06
-2.81781e-05
2.82061e-06
-2.84399e-05
3.7075e-06
-2.88321e-05
4.54738e-06
-2.93458e-05
5.32413e-06
-2.99912e-05
6.02696e-06
-3.0726e-05
6.62989e-06
-3.16229e-05
7.13524e-06
-3.24941e-05
7.49223e-06
-3.3686e-05
7.75255e-06
-3.44511e-05
7.79273e-06
-3.61599e-05
7.60007e-06
-3.56202e-05
5.13348e-06
1.67206e-05
6.04248e-06
2.67816e-05
6.74832e-06
2.58423e-05
7.32525e-06
2.49736e-05
7.75509e-06
2.38759e-05
8.06603e-06
2.26743e-05
8.26952e-06
2.13788e-05
8.37377e-06
2.00281e-05
8.37809e-06
1.86462e-05
1.72652e-05
8.28325e-06
8.2103e-07
-2.88675e-05
1.63209e-06
-2.89892e-05
2.42307e-06
-2.92309e-05
3.18301e-06
-2.9592e-05
3.90124e-06
-3.0064e-05
4.56408e-06
-3.0654e-05
5.16267e-06
-3.13246e-05
5.67539e-06
-3.21356e-05
6.10528e-06
-3.2924e-05
6.40821e-06
-3.39889e-05
6.63108e-06
-3.4674e-05
6.66185e-06
-3.61907e-05
6.40875e-06
-3.52637e-05
4.54125e-06
1.85902e-05
5.30515e-06
2.60178e-05
5.84993e-06
2.52976e-05
6.27482e-06
2.45488e-05
6.57617e-06
2.35746e-05
6.78993e-06
2.24606e-05
6.92925e-06
2.12395e-05
6.99924e-06
1.99581e-05
7.0009e-06
1.86445e-05
1.73345e-05
6.93155e-06
7.01284e-07
-2.95688e-05
1.39355e-06
-2.96815e-05
2.06772e-06
-2.9905e-05
2.71411e-06
-3.02384e-05
3.32352e-06
-3.06734e-05
3.88432e-06
-3.12148e-05
4.38934e-06
-3.18296e-05
4.8205e-06
-3.25667e-05
5.18141e-06
-3.32849e-05
5.43372e-06
-3.42413e-05
5.62071e-06
-3.4861e-05
5.64444e-06
-3.62144e-05
5.30884e-06
-3.48331e-05
4.00821e-06
1.98925e-05
4.62892e-06
2.53973e-05
4.98324e-06
2.49435e-05
5.24989e-06
2.42823e-05
5.41938e-06
2.34052e-05
5.54146e-06
2.23387e-05
5.62618e-06
2.11549e-05
5.67345e-06
1.99109e-05
5.68212e-06
1.86359e-05
1.73717e-05
5.64488e-06
5.82138e-07
-3.01509e-05
1.15675e-06
-3.02561e-05
1.71641e-06
-3.04647e-05
2.2535e-06
-3.07755e-05
2.76092e-06
-3.11809e-05
3.23017e-06
-3.1684e-05
3.65602e-06
-3.22555e-05
4.02492e-06
-3.29357e-05
4.34116e-06
-3.36012e-05
4.57083e-06
-3.44709e-05
4.75262e-06
-3.50428e-05
4.77263e-06
-3.62344e-05
4.49224e-06
-3.44663e-05
3.81296e-06
2.05732e-05
4.33699e-06
2.48736e-05
4.45499e-06
2.48257e-05
4.4794e-06
2.4258e-05
4.45012e-06
2.34346e-05
4.42891e-06
2.236e-05
4.4238e-06
2.116e-05
4.42761e-06
1.99072e-05
4.43192e-06
1.86316e-05
1.73831e-05
4.42053e-06
4.82124e-07
-3.06331e-05
9.5761e-07
-3.07316e-05
1.41992e-06
-3.0927e-05
1.86244e-06
-3.1218e-05
2.27867e-06
-3.15971e-05
2.66168e-06
-3.20671e-05
3.00641e-06
-3.26002e-05
3.30328e-06
-3.32325e-05
3.55247e-06
-3.38503e-05
3.73389e-06
-3.46523e-05
3.86627e-06
-3.51751e-05
3.88233e-06
-3.62505e-05
3.53286e-06
-3.40399e-05
3.79113e-06
2.0316e-05
3.9294e-06
2.47356e-05
3.68293e-06
2.50723e-05
3.45649e-06
2.44846e-05
3.26018e-06
2.36311e-05
3.14809e-06
2.24722e-05
3.10924e-06
2.1199e-05
3.1188e-06
1.98977e-05
3.15647e-06
1.8594e-05
1.7342e-05
3.19761e-06
3.80883e-07
-3.10139e-05
7.56989e-07
-3.11077e-05
1.1235e-06
-3.12935e-05
1.47591e-06
-3.15704e-05
1.81019e-06
-3.19314e-05
2.12378e-06
-3.23807e-05
2.41465e-06
-3.28911e-05
2.68588e-06
-3.35037e-05
2.9379e-06
-3.41024e-05
3.17492e-06
-3.48894e-05
3.39915e-06
-3.53994e-05
3.44914e-06
-3.63005e-05
4.87804e-06
-3.5397e-05
5.283e-06
1.99123e-05
4.7e-06
2.53188e-05
3.83388e-06
2.59386e-05
3.01324e-06
2.53054e-05
2.42858e-06
2.42159e-05
2.08018e-06
2.28207e-05
1.9197e-06
2.13596e-05
1.88799e-06
1.99295e-05
1.93537e-06
1.85466e-05
1.72585e-05
2.01892e-06
2.90582e-07
-3.13045e-05
5.77191e-07
-3.13943e-05
8.55745e-07
-3.1572e-05
1.12225e-06
-3.18369e-05
1.37202e-06
-3.21812e-05
1.6008e-06
-3.26094e-05
1.80087e-06
-3.30912e-05
1.96742e-06
-3.36703e-05
2.08302e-06
-3.4218e-05
2.14802e-06
-3.49544e-05
2.13638e-06
-3.53877e-05
2.12667e-06
-3.62907e-05
2.57318e-06
-3.57792e-05
6.74243e-06
1.57438e-05
4.32124e-06
2.77402e-05
2.46147e-06
2.77986e-05
1.31121e-06
2.64559e-05
6.63856e-07
2.48634e-05
3.7562e-07
2.31092e-05
3.25109e-07
2.14102e-05
4.14497e-07
1.98402e-05
5.81249e-07
1.83799e-05
1.70627e-05
7.77152e-07
1.93202e-07
-3.14977e-05
3.84116e-07
-3.15852e-05
5.70576e-07
-3.17585e-05
7.51518e-07
-3.20179e-05
9.26e-07
-3.23556e-05
1.10018e-06
-3.27836e-05
1.27579e-06
-3.32668e-05
1.50089e-06
-3.38954e-05
1.76615e-06
-3.44832e-05
2.35928e-06
-3.55475e-05
3.05272e-06
-3.60812e-05
5.28983e-06
-3.82925e-05
1.42372e-05
-4.46175e-05
1.27456e-05
1.72401e-05
7.00194e-06
3.34842e-05
3.69906e-06
3.11016e-05
1.12549e-06
2.90297e-05
-2.06082e-07
2.61951e-05
-8.32682e-07
2.37359e-05
-1.00649e-06
2.15841e-05
-9.08447e-07
1.97422e-05
-6.82939e-07
1.81545e-05
1.67809e-05
-4.01111e-07
1.22766e-07
-3.16206e-05
2.43502e-07
-3.1706e-05
3.59995e-07
-3.18751e-05
4.69519e-07
-3.21275e-05
5.68181e-07
-3.24544e-05
6.48411e-07
-3.28639e-05
6.99879e-07
-3.33184e-05
6.8326e-07
-3.38789e-05
5.83725e-07
-3.43838e-05
1.38961e-07
-3.51028e-05
-4.66976e-07
-3.54754e-05
-2.65964e-06
-3.60992e-05
-2.22238e-06
-4.48655e-05
6.39529e-06
8.62283e-06
3.49592e-06
3.63838e-05
-2.5704e-06
3.71681e-05
-3.52501e-06
2.99845e-05
-3.94791e-06
2.66182e-05
-3.68335e-06
2.34715e-05
-3.24241e-06
2.11433e-05
-2.72075e-06
1.92206e-05
-2.19163e-06
1.76254e-05
1.62791e-05
-1.68982e-06
5.62996e-10
-3.1714e-05
1.05812e-09
-3.17998e-05
1.38771e-09
-3.19697e-05
1.55509e-09
-3.22235e-05
1.35439e-09
-3.25519e-05
1.08278e-09
-3.29638e-05
1.73495e-10
-3.34205e-05
1.75785e-09
-3.3987e-05
2.79915e-08
-3.45201e-05
3.89463e-07
-3.55813e-05
4.53421e-06
-3.97638e-05
2.85268e-05
-6.03982e-05
6.51203e-05
-8.12294e-05
3.7712e-05
3.61257e-05
1.0568e-05
6.35285e-05
1.21392e-06
4.65224e-05
-3.63306e-06
3.48317e-05
-4.99105e-06
2.79764e-05
-5.1582e-06
2.36387e-05
-4.75262e-06
2.07378e-05
-4.12337e-06
1.85914e-05
-3.46357e-06
1.69656e-05
1.56407e-05
-2.82511e-06
-1.77512e-06
-2.99472e-05
-3.59218e-06
-2.99911e-05
-5.50521e-06
-3.0065e-05
-7.55162e-06
-3.01855e-05
-9.81788e-06
-3.02942e-05
-1.23416e-05
-3.04487e-05
-1.52632e-05
-3.05076e-05
-1.86988e-05
-3.05602e-05
-2.26911e-05
-3.05367e-05
-2.79302e-05
-3.03514e-05
-3.36619e-05
-3.40421e-05
-4.20876e-05
-5.19854e-05
-5.85475e-05
-6.47671e-05
-5.72234e-05
3.48032e-05
-3.75918e-05
4.38978e-05
-2.36847e-05
3.26156e-05
-1.66634e-05
2.78106e-05
-1.2345e-05
2.36581e-05
-9.56976e-06
2.08636e-05
-7.61555e-06
1.87837e-05
-6.14705e-06
1.71229e-05
-4.989e-06
1.58076e-05
1.46958e-05
-4.0441e-06
-1.7183e-06
-2.82289e-05
-3.46308e-06
-2.82463e-05
-5.27432e-06
-2.82539e-05
-7.14954e-06
-2.83103e-05
-9.17892e-06
-2.82648e-05
-1.12207e-05
-2.84069e-05
-1.36007e-05
-2.81276e-05
-1.56207e-05
-2.85402e-05
-1.84581e-05
-2.76993e-05
-2.01023e-05
-2.87073e-05
-2.64934e-05
-2.76509e-05
-5.05356e-05
-2.79432e-05
-8.63469e-05
-2.89557e-05
-6.08084e-05
9.26508e-06
-3.64676e-05
1.95572e-05
-2.51642e-05
2.13123e-05
-1.81728e-05
2.08194e-05
-1.39384e-05
1.94237e-05
-1.10526e-05
1.79779e-05
-8.94718e-06
1.66783e-05
-7.32747e-06
1.55033e-05
-6.02985e-06
1.451e-05
1.36307e-05
-4.96466e-06
-1.78828e-06
-2.64406e-05
-3.61196e-06
-2.64227e-05
-5.51015e-06
-2.63557e-05
-7.52196e-06
-2.62986e-05
-9.69561e-06
-2.60912e-05
-1.20952e-05
-2.60074e-05
-1.47592e-05
-2.54636e-05
-1.78562e-05
-2.54433e-05
-2.13477e-05
-2.42078e-05
-2.55976e-05
-2.44574e-05
-3.06796e-05
-2.25688e-05
-3.61583e-05
-2.24645e-05
-4.60277e-05
-1.90863e-05
-4.14603e-05
4.6979e-06
-3.25104e-05
1.06074e-05
-2.55598e-05
1.43618e-05
-1.99729e-05
1.52327e-05
-1.58576e-05
1.53084e-05
-1.27374e-05
1.48579e-05
-1.03497e-05
1.42906e-05
-8.48741e-06
1.3641e-05
-7.00017e-06
1.30229e-05
1.24233e-05
-5.79268e-06
-1.72581e-06
-2.47148e-05
-3.47527e-06
-2.46732e-05
-5.27323e-06
-2.45578e-05
-7.14135e-06
-2.44305e-05
-9.11078e-06
-2.41218e-05
-1.11971e-05
-2.39211e-05
-1.34599e-05
-2.32008e-05
-1.59248e-05
-2.29785e-05
-1.87249e-05
-2.14077e-05
-2.21689e-05
-2.10133e-05
-2.65356e-05
-1.8202e-05
-3.32756e-05
-1.57245e-05
-4.03669e-05
-1.19948e-05
-3.51301e-05
-5.388e-07
-2.93619e-05
4.8393e-06
-2.38552e-05
8.85511e-06
-1.9429e-05
1.08066e-05
-1.58631e-05
1.17425e-05
-1.30698e-05
1.20646e-05
-1.08277e-05
1.20486e-05
-9.02626e-06
1.18396e-05
-7.5492e-06
1.15458e-05
1.12015e-05
-6.32745e-06
-1.69731e-06
-2.30176e-05
-3.41991e-06
-2.29507e-05
-5.18878e-06
-2.27889e-05
-7.03856e-06
-2.25807e-05
-8.9758e-06
-2.21846e-05
-1.10712e-05
-2.18258e-05
-1.3267e-05
-2.1005e-05
-1.57326e-05
-2.0513e-05
-1.82442e-05
-1.88962e-05
-2.10747e-05
-1.81828e-05
-2.39234e-05
-1.53534e-05
-2.61779e-05
-1.347e-05
-2.89818e-05
-9.19094e-06
-2.73836e-05
-2.13696e-06
-2.47381e-05
2.19386e-06
-2.1434e-05
5.55103e-06
-1.82976e-05
7.67027e-06
-1.54819e-05
8.92687e-06
-1.30787e-05
9.66147e-06
-1.10429e-05
1.0013e-05
-9.33819e-06
1.01349e-05
-7.90338e-06
1.01111e-05
9.9922e-06
-6.69409e-06
-1.60961e-06
-2.1408e-05
-3.23568e-06
-2.13246e-05
-4.88963e-06
-2.1135e-05
-6.59486e-06
-2.08755e-05
-8.34733e-06
-2.04321e-05
-1.01973e-05
-1.99759e-05
-1.20886e-05
-1.91138e-05
-1.41665e-05
-1.8435e-05
-1.62145e-05
-1.68482e-05
-1.86019e-05
-1.57955e-05
-2.07456e-05
-1.32097e-05
-2.31547e-05
-1.10609e-05
-2.46926e-05
-7.65299e-06
-2.35921e-05
-3.23743e-06
-2.17283e-05
3.30113e-07
-1.9307e-05
3.12973e-06
-1.69062e-05
5.26954e-06
-1.46407e-05
6.66133e-06
-1.26233e-05
7.64419e-06
-1.08491e-05
8.23876e-06
-9.31456e-06
8.60042e-06
-7.98884e-06
8.78547e-06
8.8505e-06
-6.84695e-06
-1.52543e-06
-1.98826e-05
-3.06448e-06
-1.97856e-05
-4.62509e-06
-1.95744e-05
-6.22754e-06
-1.92731e-05
-7.86156e-06
-1.87982e-05
-9.57025e-06
-1.82672e-05
-1.12823e-05
-1.74018e-05
-1.31068e-05
-1.66106e-05
-1.48214e-05
-1.51337e-05
-1.66277e-05
-1.39892e-05
-1.81427e-05
-1.16947e-05
-1.9351e-05
-9.85273e-06
-2.0188e-05
-6.81594e-06
-1.97274e-05
-3.69807e-06
-1.86429e-05
-7.54417e-07
-1.70856e-05
1.57248e-06
-1.53539e-05
3.53786e-06
-1.36168e-05
4.92427e-06
-1.19704e-05
5.99789e-06
-1.0462e-05
6.73033e-06
-9.1089e-06
7.24738e-06
-7.90848e-06
7.58495e-06
7.7935e-06
-6.85163e-06
-1.41897e-06
-1.84636e-05
-2.84559e-06
-1.8359e-05
-4.28265e-06
-1.81374e-05
-5.74222e-06
-1.78135e-05
-7.21154e-06
-1.73289e-05
-8.71927e-06
-1.67595e-05
-1.02045e-05
-1.59166e-05
-1.17504e-05
-1.50647e-05
-1.3172e-05
-1.3712e-05
-1.46595e-05
-1.25018e-05
-1.58222e-05
-1.05322e-05
-1.6898e-05
-8.77691e-06
-1.73749e-05
-6.33911e-06
-1.71237e-05
-3.94928e-06
-1.6342e-05
-1.53606e-06
-1.52149e-05
4.45382e-07
-1.38952e-05
2.21811e-06
-1.2528e-05
3.55713e-06
-1.11826e-05
4.6525e-06
-9.91275e-06
5.46059e-06
-8.74083e-06
6.07557e-06
-7.67639e-06
6.52059e-06
6.83691e-06
-6.71976e-06
-1.31125e-06
-1.71524e-05
-2.62677e-06
-1.70436e-05
-3.9469e-06
-1.68173e-05
-5.2785e-06
-1.6482e-05
-6.60862e-06
-1.59988e-05
-7.95388e-06
-1.54143e-05
-9.26251e-06
-1.4608e-05
-1.05818e-05
-1.37455e-05
-1.17739e-05
-1.252e-05
-1.29364e-05
-1.13393e-05
-1.38312e-05
-9.63739e-06
-1.45377e-05
-8.07045e-06
-1.487e-05
-6.00686e-06
-1.47517e-05
-4.06762e-06
-1.4239e-05
-2.04871e-06
-1.34556e-05
-3.37979e-07
-1.24758e-05
1.23828e-06
-1.14177e-05
2.49906e-06
-1.03328e-05
3.56764e-06
-9.27656e-06
4.40434e-06
-8.27396e-06
5.07296e-06
-7.34222e-06
5.58885e-06
5.98283e-06
-6.48818e-06
-1.19775e-06
-1.59547e-05
-2.39627e-06
-1.58451e-05
-3.59336e-06
-1.56202e-05
-4.79092e-06
-1.52844e-05
-5.97663e-06
-1.48131e-05
-7.15777e-06
-1.42332e-05
-8.29445e-06
-1.34714e-05
-9.41402e-06
-1.2626e-05
-1.04171e-05
-1.1517e-05
-1.13707e-05
-1.03858e-05
-1.20948e-05
-8.91328e-06
-1.26804e-05
-7.48482e-06
-1.29257e-05
-5.76165e-06
-1.28738e-05
-4.1195e-06
-1.25068e-05
-2.41571e-06
-1.19297e-05
-9.1513e-07
-1.11798e-05
4.88449e-07
-1.03463e-05
1.6656e-06
-9.46742e-06
2.6888e-06
-8.59032e-06
3.52725e-06
-7.73864e-06
4.22127e-06
-6.93115e-06
4.78137e-06
5.22943e-06
-6.17771e-06
-1.08569e-06
-1.48691e-05
-2.16989e-06
-1.47609e-05
-3.24907e-06
-1.45411e-05
-4.3219e-06
-1.42116e-05
-5.37727e-06
-1.37577e-05
-6.41579e-06
-1.31947e-05
-7.40712e-06
-1.24801e-05
-8.36167e-06
-1.16714e-05
-9.21136e-06
-1.06673e-05
-9.98663e-06
-9.61055e-06
-1.05777e-05
-8.32223e-06
-1.10254e-05
-7.0372e-06
-1.12286e-05
-5.55835e-06
-1.12141e-05
-4.134e-06
-1.0962e-05
-2.66785e-06
-1.054e-05
-1.33714e-06
-9.9699e-06
-8.16325e-08
-9.31541e-06
1.01112e-06
-8.60644e-06
1.97992e-06
-7.8817e-06
2.80248e-06
-7.16293e-06
3.50248e-06
-6.46861e-06
4.08702e-06
4.57082e-06
-5.81005e-06
-9.74984e-07
-1.38941e-05
-1.94678e-06
-1.37891e-05
-2.91083e-06
-1.3577e-05
-3.86358e-06
-1.32589e-05
-4.79504e-06
-1.28263e-05
-5.70189e-06
-1.22879e-05
-6.56146e-06
-1.16205e-05
-7.37543e-06
-1.08574e-05
-8.09771e-06
-9.94499e-06
-8.7427e-06
-8.96557e-06
-9.23797e-06
-7.827e-06
-9.61003e-06
-6.6652e-06
-9.78601e-06
-5.38238e-06
-9.79461e-06
-4.1254e-06
-9.61716e-06
-2.84535e-06
-9.30097e-06
-1.65328e-06
-8.86105e-06
-5.21532e-07
-8.34235e-06
4.92396e-07
-7.76858e-06
1.40618e-06
-7.16999e-06
2.20392e-06
-6.56567e-06
2.89821e-06
-5.97222e-06
3.49362e-06
3.9996e-06
-5.40103e-06
-8.68463e-07
-1.30257e-05
-1.73276e-06
-1.29248e-05
-2.58782e-06
-1.2722e-05
-3.42887e-06
-1.24178e-05
-4.24704e-06
-1.20081e-05
-5.03691e-06
-1.1498e-05
-5.78133e-06
-1.08761e-05
-6.47674e-06
-1.01621e-05
-7.09207e-06
-9.32969e-06
-7.6304e-06
-8.42725e-06
-8.04728e-06
-7.41009e-06
-8.35383e-06
-6.3587e-06
-8.50996e-06
-5.22626e-06
-8.5324e-06
-4.103e-06
-8.41018e-06
-2.96755e-06
-8.17348e-06
-1.88997e-06
-7.83386e-06
-8.61114e-07
-7.42253e-06
8.11067e-08
-6.95864e-06
9.42229e-07
-6.46552e-06
1.71079e-06
-5.95961e-06
2.39234e-06
-5.45533e-06
2.98946e-06
3.50778e-06
-4.96346e-06
-7.65856e-07
-1.22598e-05
-1.52705e-06
-1.21636e-05
-2.27837e-06
-1.19706e-05
-3.01454e-06
-1.16817e-05
-3.72768e-06
-1.12949e-05
-4.41153e-06
-1.08141e-05
-5.05306e-06
-1.02346e-05
-5.64653e-06
-9.56859e-06
-6.17088e-06
-8.8054e-06
-6.62426e-06
-7.97394e-06
-6.97849e-06
-7.05587e-06
-7.23797e-06
-6.09924e-06
-7.37797e-06
-5.08632e-06
-7.40916e-06
-4.07185e-06
-7.32564e-06
-3.05107e-06
-7.14724e-06
-2.06839e-06
-6.88349e-06
-1.12488e-06
-6.55627e-06
-2.46082e-07
-6.18095e-06
5.66896e-07
-5.77545e-06
1.30525e-06
-5.35362e-06
1.97041e-06
-4.92762e-06
2.56342e-06
3.08727e-06
-4.50711e-06
-6.69092e-07
-1.15907e-05
-1.33334e-06
-1.14992e-05
-1.98761e-06
-1.13163e-05
-2.62657e-06
-1.10427e-05
-3.24328e-06
-1.06782e-05
-3.83148e-06
-1.02259e-05
-4.38106e-06
-9.685e-06
-4.88568e-06
-9.06397e-06
-5.3308e-06
-8.3603e-06
-5.71237e-06
-7.59243e-06
-6.01269e-06
-6.7556e-06
-6.23214e-06
-5.8798e-06
-6.35677e-06
-4.96174e-06
-6.3924e-06
-4.0362e-06
-6.33673e-06
-3.10674e-06
-6.20252e-06
-2.20257e-06
-5.9977e-06
-1.32969e-06
-5.73774e-06
-5.06085e-07
-5.43475e-06
2.63972e-07
-5.10259e-06
9.73166e-07
-4.75272e-06
1.62053e-06
-4.39534e-06
2.20596e-06
2.73071e-06
-4.03876e-06
-5.75746e-07
-1.10149e-05
-1.14696e-06
-1.09279e-05
-1.70885e-06
-1.07544e-05
-2.25642e-06
-1.04951e-05
-2.78366e-06
-1.0151e-05
-3.28473e-06
-9.72487e-06
-3.75164e-06
-9.21814e-06
-4.17833e-06
-8.63734e-06
-4.55446e-06
-7.98418e-06
-4.87543e-06
-7.2715e-06
-5.12985e-06
-6.50123e-06
-5.31642e-06
-5.69325e-06
-5.42686e-06
-4.85134e-06
-5.46443e-06
-3.99861e-06
-5.42868e-06
-3.14249e-06
-5.32809e-06
-2.30315e-06
-5.16918e-06
-1.4886e-06
-4.96309e-06
-7.1224e-07
-4.71949e-06
2.03042e-08
-4.44897e-06
7.02629e-07
-4.16087e-06
1.33238e-06
-3.86366e-06
1.90858e-06
2.43137e-06
-3.56434e-06
-4.8912e-07
-1.05257e-05
-9.73996e-07
-1.0443e-05
-1.45014e-06
-1.02782e-05
-1.91303e-06
-1.00322e-05
-2.35748e-06
-9.70653e-06
-2.7784e-06
-9.30395e-06
-3.1695e-06
-8.82705e-06
-3.52551e-06
-8.28138e-06
-3.839e-06
-7.67072e-06
-4.10563e-06
-7.00488e-06
-4.31801e-06
-6.28886e-06
-4.47439e-06
-5.5369e-06
-4.56988e-06
-4.75579e-06
-4.60638e-06
-3.96208e-06
-4.58427e-06
-3.16452e-06
-4.5093e-06
-2.37805e-06
-4.38671e-06
-1.61114e-06
-4.22447e-06
-8.74379e-07
-4.03025e-06
-1.73939e-07
-3.81207e-06
4.84468e-07
-3.57741e-06
1.09774e-06
-3.33319e-06
1.66427e-06
2.18344e-06
-3.08526e-06
-4.04394e-07
-1.01212e-05
-8.05236e-07
-1.00422e-05
-1.19876e-06
-9.88463e-06
-1.58109e-06
-9.64987e-06
-1.94793e-06
-9.33972e-06
-2.29487e-06
-8.95703e-06
-2.6169e-06
-8.50502e-06
-2.90956e-06
-7.98875e-06
-3.16739e-06
-7.41293e-06
-3.38666e-06
-6.78563e-06
-3.56235e-06
-6.11318e-06
-3.69259e-06
-5.40669e-06
-3.7744e-06
-4.67393e-06
-3.80881e-06
-3.92766e-06
-3.79657e-06
-3.17675e-06
-3.74164e-06
-2.43294e-06
-3.64814e-06
-1.70459e-06
-3.52195e-06
-1.00052e-06
-3.3691e-06
-3.26886e-07
-3.19573e-06
3.11024e-07
-3.00766e-06
9.09696e-07
-2.81044e-06