/*--------------------------------*- C++ -*----------------------------------*\
| =========                 |                                                 |
| \\      /  F ield         | OpenFOAM: The Open Source CFD Toolbox           |
|  \\    /   O peration     | Version:  2012                                  |
|   \\  /    A nd           | Website:  www.openfoam.com                      |
|    \\/     M anipulation  |                                                 |
\*---------------------------------------------------------------------------*/
FoamFile
{
    version     2.0;
    format      ascii;
    class       volVectorField;
    location    "0.02";
    object      Uc;
}
// * * * * * * * * * * * * * * * * * * * * * * * * * * * * * * * * * * * * * //

dimensions      [0 1 -1 0 0 0 0];


internalField   nonuniform List<vector> 
2268
(
(0.00801641 -0.0037885 0)
(0.024187 -0.00385363 0)
(0.040778 -0.00398716 0)
(0.0581183 -0.00420772 0)
(0.0765827 -0.00451843 0)
(0.0967329 -0.00500444 0)
(0.119183 -0.00560545 0)
(0.145288 -0.00673136 0)
(0.176353 -0.00795 0)
(0.216624 -0.0110818 0)
(0.273434 -0.015766 0)
(0.36145 -0.0258299 0)
(0.5009 -0.0400425 0)
(0.651432 -0.0310448 0)
(0.651923 0.030836 0)
(0.488276 0.0465035 0)
(0.335894 0.0255116 0)
(0.248375 0.0158486 0)
(0.190288 0.0116021 0)
(0.144887 0.00985338 0)
(0.104167 0.00939021 0)
(0.0638528 0.00966126 0)
(0.0217045 0.0102571 0)
(0.00798507 -0.0113507 0)
(0.0240903 -0.0115448 0)
(0.0406071 -0.0119425 0)
(0.0578556 -0.0125988 0)
(0.0761988 -0.0135224 0)
(0.0961722 -0.0149626 0)
(0.118346 -0.0167365 0)
(0.143967 -0.0200453 0)
(0.174019 -0.0235197 0)
(0.212204 -0.0325898 0)
(0.261521 -0.0444125 0)
(0.331166 -0.0716931 0)
(0.427819 -0.105659 0)
(0.526514 -0.0830681 0)
(0.522568 0.0845371 0)
(0.41175 0.122515 0)
(0.30887 0.0701353 0)
(0.239122 0.0455473 0)
(0.186785 0.0340871 0)
(0.143599 0.0292329 0)
(0.103931 0.0280004 0)
(0.064076 0.0289374 0)
(0.0218654 0.0308473 0)
(0.00792302 -0.0188688 0)
(0.0238987 -0.019188 0)
(0.0402691 -0.0198416 0)
(0.0573379 -0.0209178 0)
(0.0754458 -0.0224299 0)
(0.0950816 -0.0247741 0)
(0.11675 -0.0276449 0)
(0.141514 -0.0329482 0)
(0.170093 -0.0383254 0)
(0.205201 -0.0524221 0)
(0.247206 -0.0677386 0)
(0.300953 -0.106681 0)
(0.362453 -0.145249 0)
(0.422452 -0.118272 0)
(0.414373 0.125466 0)
(0.341617 0.168344 0)
(0.278608 0.102704 0)
(0.225892 0.0708538 0)
(0.180948 0.0547534 0)
(0.141325 0.0477007 0)
(0.103632 0.0460913 0)
(0.0647087 0.0480755 0)
(0.0222784 0.0517087 0)
(0.00783158 -0.0263143 0)
(0.0236167 -0.0267524 0)
(0.0397724 -0.0276489 0)
(0.0565794 -0.0291201 0)
(0.0743478 -0.0311826 0)
(0.093503 -0.0343538 0)
(0.114469 -0.038214 0)
(0.138068 -0.0452351 0)
(0.164815 -0.052185 0)
(0.196281 -0.070025 0)
(0.231667 -0.0867103 0)
(0.272377 -0.132349 0)
(0.311623 -0.166995 0)
(0.345957 -0.140869 0)
(0.334796 0.157196 0)
(0.288929 0.192675 0)
(0.251949 0.125626 0)
(0.212172 0.091642 0)
(0.174233 0.0731336 0)
(0.138641 0.0648654 0)
(0.103434 0.0633773 0)
(0.0657071 0.0670127 0)
(0.0228936 0.073056 0)
(0.00771242 -0.0336603 0)
(0.0232495 -0.0342091 0)
(0.0391274 -0.0353311 0)
(0.0555985 -0.0371649 0)
(0.0729372 -0.0397292 0)
(0.091498 -0.0436316 0)
(0.111621 -0.0483545 0)
(0.133896 -0.0567747 0)
(0.15865 -0.0649846 0)
(0.186487 -0.0852514 0)
(0.216142 -0.102222 0)
(0.246597 -0.150469 0)
(0.2722 -0.179309 0)
(0.288797 -0.152374 0)
(0.275222 0.180429 0)
(0.249011 0.203506 0)
(0.228613 0.141911 0)
(0.198487 0.108392 0)
(0.167209 0.0890936 0)
(0.136092 0.0804307 0)
(0.104167 0.0795367 0)
(0.0681531 0.0857016 0)
(0.0242632 0.0953414 0)
(0.00756812 -0.0408818 0)
(0.0228056 -0.0415315 0)
(0.0383496 -0.0428584 0)
(0.0544216 -0.0450172 0)
(0.0712569 -0.0480272 0)
(0.0891362 -0.0525549 0)
(0.108322 -0.0580087 0)
(0.129174 -0.0675015 0)
(0.15186 -0.0766777 0)
(0.176301 -0.0982643 0)
(0.201152 -0.114969 0)
(0.224082 -0.162952 0)
(0.240855 -0.186626 0)
(0.246922 -0.155507 0)
(0.233612 0.196303 0)
(0.219374 0.206748 0)
(0.208147 0.153614 0)
(0.185505 0.121626 0)
(0.160118 0.102637 0)
(0.133388 0.0942242 0)
(0.10478 0.0943492 0)
(0.0704464 0.104134 0)
(0.0255344 0.118875 0)
(0.0074004 -0.0479558 0)
(0.0222903 -0.0486955 0)
(0.0374493 -0.0502044 0)
(0.0530659 -0.052647 0)
(0.0693347 -0.0560423 0)
(0.086465 -0.0610852 0)
(0.104646 -0.067138 0)
(0.124038 -0.0773906 0)
(0.144689 -0.0872695 0)
(0.166067 -0.109326 0)
(0.186897 -0.125495 0)
(0.204309 -0.171491 0)
(0.214924 -0.19079 0)
(0.214017 -0.15351 0)
(0.202007 0.206304 0)
(0.195735 0.206441 0)
(0.190168 0.161857 0)
(0.173676 0.131876 0)
(0.153845 0.113755 0)
(0.132308 0.105917 0)
(0.109105 0.107142 0)
(0.0781427 0.122199 0)
(0.0296469 0.144953 0)
(0.00721312 -0.054862 0)
(0.021716 -0.05568 0)
(0.0364493 -0.0573468 0)
(0.0515686 -0.0600302 0)
(0.0672291 -0.0637486 0)
(0.0835731 -0.0691986 0)
(0.100724 -0.0757226 0)
(0.118676 -0.0864542 0)
(0.137379 -0.0968044 0)
(0.15601 -0.118699 0)
(0.173431 -0.134199 0)
(0.186752 -0.177312 0)
(0.193386 -0.192866 0)
(0.188186 -0.148262 0)
(0.177616 0.211758 0)
(0.176381 0.204536 0)
(0.174244 0.167402 0)
(0.162592 0.139632 0)
(0.147299 0.122598 0)
(0.1299 0.115474 0)
(0.110555 0.117692 0)
(0.0818949 0.139825 0)
(0.0317236 0.173956 0)
(0.0067619 -0.00287642 0)
(0.0185178 -0.00212448 0)
(0.0265231 -0.00128114 0)
(0.0310306 -0.000636561 0)
(0.0328965 -0.000157387 0)
(0.0329245 0.000145261 0)
(0.0317854 0.000339042 0)
(0.0299203 0.000454009 0)
(0.0276295 0.000520018 0)
(0.0251017 0.000554761 0)
(0.0224548 0.000570785 0)
(0.0197591 0.000575594 0)
(0.0170557 0.000574029 0)
(0.0143671 0.000569273 0)
(0.0117035 0.000563397 0)
(0.0090675 0.000557655 0)
(0.00645657 0.00055274 0)
(0.00386544 0.000549067 0)
(0.00128702 0.000547301 0)
(0.00700033 -0.00873077 0)
(0.0190763 -0.00640817 0)
(0.0271141 -0.0038224 0)
(0.0315036 -0.00188038 0)
(0.0332348 -0.000444037 0)
(0.0331469 0.000456929 0)
(0.0319234 0.00103176 0)
(0.030002 0.00137119 0)
(0.0276756 0.00156596 0)
(0.0251256 0.00166793 0)
(0.0224651 0.00171457 0)
(0.0197614 0.00172795 0)
(0.0170537 0.0017227 0)
(0.014363 0.0017081 0)
(0.0116988 0.00169027 0)
(0.00906313 0.00167277 0)
(0.00645301 0.00165781 0)
(0.00386317 0.001647 0)
(0.00128628 0.00164168 0)
(0.00752952 -0.0149117 0)
(0.0202933 -0.010794 0)
(0.0283674 -0.00629057 0)
(0.0324803 -0.00302923 0)
(0.0339173 -0.000643085 0)
(0.0335893 0.000832414 0)
(0.0321969 0.00176838 0)
(0.0301631 0.0023162 0)
(0.0277659 0.00262949 0)
(0.0251719 0.00279191 0)
(0.0224847 0.00286478 0)
(0.0197654 0.00288386 0)
(0.0170491 0.00287322 0)
(0.0143545 0.00284773 0)
(0.0116892 0.0028172 0)
(0.00905417 0.00278731 0)
(0.00644589 0.002762 0)
(0.00385873 0.0027442 0)
(0.00128481 0.0027351 0)
(0.00830094 -0.0216458 0)
(0.0220738 -0.0153482 0)
(0.0302039 -0.00862935 0)
(0.0339069 -0.00401533 0)
(0.0349103 -0.000695353 0)
(0.03423 0.00131314 0)
(0.0325911 0.00257654 0)
(0.0303946 0.00330686 0)
(0.0278946 0.00372153 0)
(0.0252369 0.0039333 0)
(0.0225113 0.00402527 0)
(0.0197696 0.0040456 0)
(0.0170412 0.00402675 0)
(0.0143411 0.00398855 0)
(0.0116743 0.00394401 0)
(0.00904043 0.00390097 0)
(0.00643514 0.00386509 0)
(0.00385199 0.00383994 0)
(0.0012825 0.00382671 0)
(0.00963306 -0.0292745 0)
(0.0250355 -0.02013 0)
(0.0330565 -0.0107179 0)
(0.0359623 -0.00473827 0)
(0.036269 -0.000530122 0)
(0.0350768 0.00194391 0)
(0.0331002 0.00348317 0)
(0.0306892 0.00435968 0)
(0.0280557 0.00485197 0)
(0.0253166 0.00509798 0)
(0.0225421 0.0051995 0)
(0.0197723 0.00521511 0)
(0.0170289 0.00518421 0)
(0.0143219 0.00513082 0)
(0.0116536 0.00507063 0)
(0.00902165 0.00501353 0)
(0.00642057 0.00496654 0)
(0.00384275 0.00493335 0)
(0.00127929 0.00491594 0)
(0.010992 -0.0380479 0)
(0.0281909 -0.0252244 0)
(0.0362382 -0.0124588 0)
(0.0382964 -0.00510953 0)
(0.03782 -8.73841e-05 0)
(0.0360458 0.00276231 0)
(0.0336823 0.0045104 0)
(0.0310241 0.00548831 0)
(0.0282364 0.00602887 0)
(0.0254032 0.00629076 0)
(0.0225726 0.00639025 0)
(0.0197706 0.00639387 0)
(0.0170102 0.00634624 0)
(0.0142959 0.00627458 0)
(0.0116264 0.00619683 0)
(0.00899741 0.00612462 0)
(0.0064018 0.00606559 0)
(0.00383087 0.00602382 0)
(0.00127522 0.00600236 0)
(0.0142046 -0.0487658 0)
(0.0348023 -0.0305842 0)
(0.0417882 -0.0134942 0)
(0.041724 -0.00492321 0)
(0.039842 0.000728533 0)
(0.0372187 0.00381616 0)
(0.0343518 0.00568088 0)
(0.0313972 0.00670489 0)
(0.0284318 0.00725885 0)
(0.0254927 0.00751541 0)
(0.0225996 0.00759957 0)
(0.0197624 0.00758283 0)
(0.0169838 0.00751306 0)
(0.014262 0.00741967 0)
(0.0115922 0.00732223 0)
(0.00896731 0.00723355 0)
(0.00637859 0.00716147 0)
(0.00381633 0.00711082 0)
(0.00127032 0.00708515 0)
(0.0176683 -0.0623237 0)
(0.0407006 -0.0355857 0)
(0.0459814 -0.0137113 0)
(0.0445878 -0.00408698 0)
(0.0416299 0.0019501 0)
(0.0383064 0.00512346 0)
(0.034989 0.00700365 0)
(0.0317538 0.00801455 0)
(0.028615 0.00854498 0)
(0.0255705 0.00877372 0)
(0.0226151 0.00882833 0)
(0.0197428 0.00878221 0)
(0.0169466 0.00868445 0)
(0.0142184 0.00856565 0)
(0.0115497 0.00844626 0)
(0.00893057 0.0083395 0)
(0.00635053 0.00825343 0)
(0.0037989 0.00819358 0)
(0.00126446 0.00816309 0)
(0.00689254 -0.0651995 0)
(0.0207343 -0.0661107 0)
(0.0347453 -0.0679632 0)
(0.0490307 -0.0709191 0)
(0.0636865 -0.0749931 0)
(0.0787667 -0.0808371 0)
(0.0943048 -0.0878089 0)
(0.110126 -0.0987553 0)
(0.126075 -0.109375 0)
(0.141188 -0.130126 0)
(0.154574 -0.144461 0)
(0.163693 -0.182511 0)
(0.168427 -0.195128 0)
(0.160143 -0.134739 0)
(0.149639 0.213831 0)
(0.152042 0.20063 0)
(0.153048 0.171305 0)
(0.147729 0.146581 0)
(0.139979 0.130664 0)
(0.133357 0.122285 0)
(0.131612 0.121776 0)
(0.14428 0.136551 0)
(0.182192 0.162829 0)
(0.00639367 -0.0785551 0)
(0.0192125 -0.0795549 0)
(0.0321234 -0.0815814 0)
(0.0451733 -0.084779 0)
(0.0583929 -0.0891541 0)
(0.0717562 -0.0952682 0)
(0.0852146 -0.102526 0)
(0.098505 -0.113302 0)
(0.111409 -0.123831 0)
(0.123062 -0.142576 0)
(0.132841 -0.155297 0)
(0.138964 -0.186997 0)
(0.141639 -0.197461 0)
(0.129649 -0.111344 0)
(0.119221 0.211528 0)
(0.125248 0.194457 0)
(0.129271 0.17242 0)
(0.128717 0.151367 0)
(0.125847 0.136552 0)
(0.123158 0.125755 0)
(0.123063 0.120153 0)
(0.131396 0.117062 0)
(0.15471 0.120772 0)
(0.00586789 -0.0908807 0)
(0.0176141 -0.0919226 0)
(0.0293886 -0.094028 0)
(0.0411931 -0.0973167 0)
(0.0530103 -0.101784 0)
(0.0647653 -0.107888 0)
(0.0763614 -0.115091 0)
(0.0875154 -0.125309 0)
(0.0979959 -0.135331 0)
(0.107097 -0.151939 0)
(0.114397 -0.163101 0)
(0.118688 -0.189661 0)
(0.120152 -0.198284 0)
(0.106046 -0.0835706 0)
(0.0958635 0.204517 0)
(0.104146 0.18708 0)
(0.110048 0.169818 0)
(0.112598 0.15196 0)
(0.113241 0.138197 0)
(0.113647 0.126404 0)
(0.11541 0.117827 0)
(0.119508 0.10689 0)
(0.127099 0.0998761 0)
(0.00533203 -0.102139 0)
(0.0159903 -0.103186 0)
(0.0266278 -0.105294 0)
(0.037214 -0.108558 0)
(0.0477001 -0.112962 0)
(0.0579861 -0.118866 0)
(0.0679542 -0.12579 0)
(0.077339 -0.135256 0)
(0.085927 -0.144552 0)
(0.0931693 -0.159147 0)
(0.0987916 -0.168883 0)
(0.101949 -0.191365 0)
(0.102903 -0.19831 0)
(0.0882562 -0.0539041 0)
(0.0783022 0.195129 0)
(0.0872773 0.179117 0)
(0.0938845 0.165205 0)
(0.0978706 0.15 0)
(0.100103 0.137264 0)
(0.101631 0.125389 0)
(0.103401 0.115289 0)
(0.105644 0.103053 0)
(0.108933 0.0927748 0)
(0.00480475 -0.112329 0)
(0.0143967 -0.113352 0)
(0.0239331 -0.115407 0)
(0.0333621 -0.118565 0)
(0.042616 -0.122798 0)
(0.0515847 -0.128385 0)
(0.0601455 -0.134897 0)
(0.0680637 -0.143542 0)
(0.0751546 -0.152026 0)
(0.0809963 -0.164825 0)
(0.0854166 -0.1733 0)
(0.0878098 -0.192528 0)
(0.0884253 -0.198012 0)
(0.0741607 -0.024394 0)
(0.0647669 0.185098 0)
(0.0736809 0.171161 0)
(0.0804072 0.159754 0)
(0.0850429 0.146781 0)
(0.0881017 0.135162 0)
(0.0902216 0.123822 0)
(0.0919314 0.113356 0)
(0.0931768 0.101477 0)
(0.093873 0.090343 0)
(0.00429665 -0.121478 0)
(0.0128648 -0.122458 0)
(0.0213549 -0.124422 0)
(0.0297026 -0.12742 0)
(0.0378311 -0.131416 0)
(0.0456301 -0.136622 0)
(0.0529817 -0.142656 0)
(0.059685 -0.150482 0)
(0.0655864 -0.158147 0)
(0.0703619 -0.169377 0)
(0.0739084 -0.176757 0)
(0.0757728 -0.193351 0)
(0.0761401 -0.197465 0)
(0.0629295 0.00341742 0)
(0.0543618 0.175368 0)
(0.062634 0.163613 0)
(0.0690026 0.154138 0)
(0.0736824 0.143032 0)
(0.076951 0.13255 0)
(0.0792043 0.122038 0)
(0.0807499 0.111868 0)
(0.0815545 0.100904 0)
(0.0815323 0.0902377 0)
(0.00381547 -0.129632 0)
(0.0114169 -0.130557 0)
(0.0189278 -0.132407 0)
(0.0262782 -0.135215 0)
(0.0333885 -0.138939 0)
(0.0401541 -0.143739 0)
(0.0464666 -0.149274 0)
(0.0521567 -0.156322 0)
(0.0570995 -0.163208 0)
(0.0610432 -0.173081 0)
(0.0639308 -0.179521 0)
(0.0654115 -0.19395 0)
(0.0655717 -0.196698 0)
(0.0538023 0.0284838 0)
(0.0462486 0.166531 0)
(0.0535893 0.156754 0)
(0.0593608 0.148792 0)
(0.0637674 0.139243 0)
(0.0669465 0.129857 0)
(0.0691434 0.120257 0)
(0.0705303 0.1107 0)
(0.0710885 0.100702 0)
(0.0707404 0.0908117 0)
(0.00336542 -0.136851 0)
(0.010065 -0.137715 0)
(0.0166692 -0.139438 0)
(0.0231073 -0.142044 0)
(0.0293016 -0.145485 0)
(0.0351558 -0.14988 0)
(0.0405734 -0.154925 0)
(0.0454127 -0.161255 0)
(0.0495734 -0.167425 0)
(0.0528571 -0.176129 0)
(0.0552364 -0.181767 0)
(0.0564312 -0.194392 0)
(0.0564016 -0.195708 0)
(0.046217 0.0502621 0)
(0.0397646 0.158853 0)
(0.0460594 0.150725 0)
(0.0510952 0.143956 0)
(0.0550275 0.135696 0)
(0.0579145 0.127306 0)
(0.059915 0.118588 0)
(0.0611342 0.109749 0)
(0.0615777 0.100645 0)
(0.0612104 0.0915864 0)
(0.0029471 -0.143196 0)
(0.00881021 -0.143997 0)
(0.0145791 -0.145593 0)
(0.0201855 -0.147997 0)
(0.0255569 -0.151158 0)
(0.0306067 -0.155167 0)
(0.035251 -0.159752 0)
(0.0393714 -0.165434 0)
(0.0428879 -0.170963 0)
(0.0456411 -0.178659 0)
(0.0476217 -0.183619 0)
(0.0485991 -0.194724 0)
(0.0483861 -0.194482 0)
(0.0397844 0.068589 0)
(0.0344863 0.152355 0)
(0.0397752 0.145579 0)
(0.0440265 0.139767 0)
(0.0473707 0.13257 0)
(0.0498392 0.125047 0)
(0.0515502 0.117115 0)
(0.0525748 0.108965 0)
(0.0529301 0.100625 0)
(0.0526054 0.092302 0)
(0.00256279 -0.148735 0)
(0.00765872 -0.149475 0)
(0.012665 -0.150947 0)
(0.0175182 -0.153157 0)
(0.0221519 -0.156055 0)
(0.0264902 -0.159707 0)
(0.0304606 -0.163871 0)
(0.0339646 -0.168979 0)
(0.0369387 -0.173943 0)
(0.0392527 -0.180773 0)
(0.0409093 -0.185162 0)
(0.0417157 -0.194975 0)
(0.0413065 -0.19299 0)
(0.0341704 0.0835476 0)
(0.0299906 0.146939 0)
(0.0343241 0.141323 0)
(0.0377664 0.136289 0)
(0.040468 0.12997 0)
(0.0424559 0.123167 0)
(0.0438364 0.115887 0)
(0.0446622 0.108333 0)
(0.0449535 0.100608 0)
(0.0447106 0.09289 0)
(0.00220323 -0.153526 0)
(0.00658294 -0.154209 0)
(0.010882 -0.155567 0)
(0.0150439 -0.157599 0)
(0.0190106 -0.160258 0)
(0.0227167 -0.163591 0)
(0.0261017 -0.167382 0)
(0.0290839 -0.171989 0)
(0.0316134 -0.176466 0)
(0.0335799 -0.182553 0)
(0.0349909 -0.186465 0)
(0.0356715 -0.195166 0)
(0.0350749 -0.19121 0)
(0.0293843 0.0952511 0)
(0.0264228 0.142427 0)
(0.0299346 0.13795 0)
(0.0325367 0.133587 0)
(0.0344856 0.127998 0)
(0.0358679 0.121752 0)
(0.0368154 0.114963 0)
(0.037377 0.107863 0)
(0.0375693 0.100592 0)
(0.0373877 0.0933328 0)
(0.00188189 -0.157632 0)
(0.00562149 -0.158264 0)
(0.0092883 -0.159519 0)
(0.012832 -0.161393 0)
(0.016202 -0.16384 0)
(0.0193422 -0.166891 0)
(0.0222023 -0.170359 0)
(0.0247146 -0.174535 0)
(0.0268401 -0.178599 0)
(0.0284856 -0.184051 0)
(0.0296645 -0.187571 0)
(0.03023 -0.195313 0)
(0.0293931 -0.189087 0)
(0.0250023 0.103807 0)
(0.0231777 0.138693 0)
(0.0257942 0.135526 0)
(0.0274605 0.131722 0)
(0.0286309 0.126728 0)
(0.0294134 0.120846 0)
(0.0299683 0.114359 0)
(0.0303225 0.107547 0)
(0.0304726 0.100564 0)
(0.030396 0.0936203 0)
(0.00156217 -0.161094 0)
(0.0046663 -0.161682 0)
(0.00771012 -0.162847 0)
(0.0106532 -0.164585 0)
(0.0134562 -0.166852 0)
(0.0160771 -0.16967 0)
(0.018479 -0.17287 0)
(0.0206118 -0.176693 0)
(0.0224504 -0.180425 0)
(0.0239153 -0.185351 0)
(0.0250194 -0.188566 0)
(0.025561 -0.195431 0)
(0.0248622 -0.186936 0)
(0.022287 0.109157 0)
(0.0218704 0.135606 0)
(0.0235932 0.134253 0)
(0.0239754 0.130938 0)
(0.0239623 0.126351 0)
(0.0238268 0.120575 0)
(0.0237562 0.114145 0)
(0.0237527 0.10741 0)
(0.0237745 0.100529 0)
(0.0237555 0.0937515 0)
(0.00129378 -0.163965 0)
(0.00386352 -0.164515 0)
(0.00638008 -0.165604 0)
(0.00880819 -0.167228 0)
(0.0111127 -0.169344 0)
(0.0132574 -0.171969 0)
(0.0152103 -0.174949 0)
(0.016932 -0.178489 0)
(0.0183974 -0.181951 0)
(0.0195529 -0.18646 0)
(0.020395 -0.189413 0)
(0.0207933 -0.195528 0)
(0.0198986 -0.184796 0)
(0.0196539 0.110299 0)
(0.020718 0.133821 0)
(0.0204276 0.1346 0)
(0.0191586 0.131483 0)
(0.0180242 0.12696 0)
(0.0171966 0.120935 0)
(0.0167915 0.114264 0)
(0.0167129 0.107374 0)
(0.0168397 0.100416 0)
(0.0170512 0.0936713 0)
(0.0010221 -0.166293 0)
(0.00305347 -0.166812 0)
(0.00504627 -0.16784 0)
(0.0069755 -0.169372 0)
(0.00881823 -0.171368 0)
(0.0105568 -0.173848 0)
(0.0121789 -0.176663 0)
(0.0136872 -0.180021 0)
(0.0150914 -0.183303 0)
(0.0164037 -0.187589 0)
(0.0176415 -0.190375 0)
(0.0183774 -0.195706 0)
(0.022346 -0.187306 0)
(0.0272671 0.108516 0)
(0.0267893 0.135022 0)
(0.0229006 0.137602 0)
(0.0183742 0.134309 0)
(0.0146031 0.129067 0)
(0.0120992 0.122178 0)
(0.0107336 0.114802 0)
(0.0102179 0.107434 0)
(0.01026 0.100187 0)
(0.0106113 0.0933352 0)
(0.000779776 -0.168104 0)
(0.00232866 -0.168599 0)
(0.00384528 -0.16958 0)
(0.00530793 -0.171042 0)
(0.00669336 -0.172944 0)
(0.00797755 -0.175311 0)
(0.00912835 -0.177987 0)
(0.0101122 -0.181202 0)
(0.0108693 -0.184294 0)
(0.011354 -0.188404 0)
(0.0114972 -0.190948 0)
(0.0114399 -0.195815 0)
(0.012612 -0.191998 0)
(0.0249984 0.0961825 0)
(0.0296893 0.143127 0)
(0.0182014 0.144956 0)
(0.010124 0.139627 0)
(0.00530009 0.132392 0)
(0.00278943 0.123896 0)
(0.0018804 0.115372 0)
(0.00198473 0.107279 0)
(0.00267208 0.0996096 0)
(0.00364526 0.0925815 0)
(0.000518457 -0.169409 0)
(0.00154923 -0.169887 0)
(0.00256191 -0.170834 0)
(0.00354783 -0.172249 0)
(0.00450161 -0.174088 0)
(0.00543723 -0.176398 0)
(0.00637589 -0.179001 0)
(0.00745119 -0.182259 0)
(0.00876708 -0.185322 0)
(0.0110706 -0.190179 0)
(0.0145231 -0.192788 0)
(0.0223872 -0.201189 0)
(0.0524008 -0.216871 0)
(0.0724082 0.0889742 0)
(0.0529924 0.165153 0)
(0.0287161 0.158884 0)
(0.0129467 0.149673 0)
(0.00246722 0.137731 0)
(-0.00278752 0.126365 0)
(-0.0049354 0.115977 0)
(-0.00513872 0.106774 0)
(-0.00427048 0.0985517 0)
(-0.00290904 0.091293 0)
(0.000329443 -0.170262 0)
(0.000982881 -0.170728 0)
(0.00161948 -0.171652 0)
(0.002226 -0.173032 0)
(0.00278466 -0.174825 0)
(0.00326472 -0.177085 0)
(0.00361813 -0.179614 0)
(0.00371165 -0.182821 0)
(0.00339995 -0.185769 0)
(0.00193932 -0.19058 0)
(-0.000880228 -0.193024 0)
(-0.00839025 -0.200672 0)
(-0.0131009 -0.241381 0)
(0.011198 0.0697654 0)
(0.026543 0.188469 0)
(0.00248363 0.184158 0)
(-0.016357 0.159191 0)
(-0.0200536 0.142464 0)
(-0.0204784 0.127342 0)
(-0.0185852 0.115257 0)
(-0.0160021 0.105103 0)
(-0.0131823 0.0965163 0)
(-0.0104159 0.0891793 0)
(1.5108e-06 -0.170845 0)
(4.35027e-06 -0.171307 0)
(6.56338e-06 -0.172222 0)
(7.89699e-06 -0.173587 0)
(7.80757e-06 -0.175355 0)
(6.54012e-06 -0.177571 0)
(3.3712e-06 -0.180028 0)
(5.18275e-06 -0.183069 0)
(7.98323e-05 -0.185869 0)
(0.00112024 -0.190671 0)
(0.0132127 -0.202958 0)
(0.0887191 -0.260302 0)
(0.251302 -0.340141 0)
(0.27595 0.120709 0)
(0.129559 0.269514 0)
(0.0316168 0.225756 0)
(-0.00649174 0.174842 0)
(-0.0231428 0.147269 0)
(-0.0272355 0.12708 0)
(-0.0265957 0.112974 0)
(-0.0238187 0.101998 0)
(-0.0203595 0.0933094 0)
(-0.0168756 0.0861037 0)
(-0.00476351 -0.166331 0)
(-0.0144031 -0.166681 0)
(-0.0244128 -0.167339 0)
(-0.0350379 -0.168348 0)
(-0.046611 -0.169528 0)
(-0.059465 -0.171056 0)
(-0.0740774 -0.172446 0)
(-0.0911369 -0.174116 0)
(-0.11107 -0.175491 0)
(-0.135842 -0.177854 0)
(-0.165282 -0.199092 0)
(-0.203273 -0.303155 0)
(-0.270054 -0.393826 0)
(-0.31067 0.191331 0)
(-0.254436 0.289783 0)
(-0.164435 0.213475 0)
(-0.108274 0.168978 0)
(-0.0778439 0.139284 0)
(-0.058808 0.120045 0)
(-0.0461167 0.106609 0)
(-0.0369319 0.0963395 0)
(-0.0298835 0.0884059 0)
(-0.0242403 0.0818329 0)
(-0.00461106 -0.15693 0)
(-0.0139042 -0.157096 0)
(-0.0234468 -0.157315 0)
(-0.0333394 -0.157793 0)
(-0.0438173 -0.157963 0)
(-0.0547424 -0.158763 0)
(-0.0666083 -0.158169 0)
(-0.0784157 -0.159424 0)
(-0.0914505 -0.157092 0)
(-0.103477 -0.159311 0)
(-0.125039 -0.166417 0)
(-0.206707 -0.215608 0)
(-0.367324 -0.252818 0)
(-0.394891 0.118874 0)
(-0.26104 0.17117 0)
(-0.165389 0.145471 0)
(-0.116295 0.13118 0)
(-0.0861702 0.116213 0)
(-0.0670632 0.104775 0)
(-0.0536693 0.0956589 0)
(-0.043673 0.0880093 0)
(-0.0358443 0.081782 0)
(-0.0295037 0.0764109 0)
(-0.00479885 -0.147471 0)
(-0.0144915 -0.14747 0)
(-0.0244792 -0.14731 0)
(-0.0349716 -0.147308 0)
(-0.0462033 -0.146626 0)
(-0.0584755 -0.146783 0)
(-0.0720636 -0.144562 0)
(-0.0875232 -0.145621 0)
(-0.105203 -0.14002 0)
(-0.125977 -0.143412 0)
(-0.15102 -0.135468 0)
(-0.179359 -0.135975 0)
(-0.220546 -0.129593 0)
(-0.234774 0.0376652 0)
(-0.1985 0.0813691 0)
(-0.155831 0.0962312 0)
(-0.122187 0.0972506 0)
(-0.0961509 0.0936899 0)
(-0.0767345 0.0885747 0)
(-0.0619543 0.0835387 0)
(-0.0505494 0.0786169 0)
(-0.0415608 0.0742702 0)
(-0.0343295 0.0702808 0)
(-0.0046312 -0.137992 0)
(-0.0139571 -0.137831 0)
(-0.0234766 -0.137339 0)
(-0.0333145 -0.136842 0)
(-0.0436125 -0.13545 0)
(-0.054496 -0.134682 0)
(-0.0661669 -0.131272 0)
(-0.0788537 -0.130618 0)
(-0.0929821 -0.123048 0)
(-0.109738 -0.122657 0)
(-0.130698 -0.109979 0)
(-0.160503 -0.103015 0)
(-0.197619 -0.0838414 0)
(-0.202596 0.0112192 0)
(-0.173064 0.0416675 0)
(-0.142808 0.0626278 0)
(-0.116153 0.0702411 0)
(-0.0947063 0.0729699 0)
(-0.0776413 0.0726236 0)
(-0.0641289 0.07105 0)
(-0.0532781 0.068734 0)
(-0.0444802 0.0662741 0)
(-0.0372379 0.0637281 0)
(-0.00455473 -0.128758 0)
(-0.013732 -0.128466 0)
(-0.0231014 -0.127718 0)
(-0.032812 -0.126813 0)
(-0.0429744 -0.124912 0)
(-0.0537959 -0.123403 0)
(-0.0653113 -0.119245 0)
(-0.0778202 -0.117318 0)
(-0.0911764 -0.10872 0)
(-0.105512 -0.105732 0)
(-0.120752 -0.0905159 0)
(-0.134446 -0.0787525 0)
(-0.148021 -0.0571488 0)
(-0.151256 -0.00721787 0)
(-0.139868 0.018972 0)
(-0.123902 0.0388606 0)
(-0.106619 0.0498414 0)
(-0.0906471 0.0557557 0)
(-0.0766422 0.0586063 0)
(-0.0647302 0.0595111 0)
(-0.0546926 0.0592763 0)
(-0.0462677 0.0584196 0)
(-0.0391723 0.0571701 0)
(-0.00431938 -0.119838 0)
(-0.0130023 -0.119433 0)
(-0.0218042 -0.118485 0)
(-0.0308186 -0.117223 0)
(-0.0400973 -0.114959 0)
(-0.0497645 -0.11276 0)
(-0.059804 -0.108221 0)
(-0.0704554 -0.105062 0)
(-0.0815274 -0.0964207 0)
(-0.0934296 -0.0916565 0)
(-0.105589 -0.0770492 0)
(-0.117806 -0.0661724 0)
(-0.128398 -0.0454366 0)
(-0.129572 -0.0144974 0)
(-0.121617 0.00680843 0)
(-0.110118 0.0234164 0)
(-0.0971779 0.0349052 0)
(-0.0846558 0.0420492 0)
(-0.0731628 0.0466821 0)
(-0.0629882 0.0492341 0)
(-0.0541091 0.0505387 0)
(-0.0464336 0.0509736 0)
(-0.0398118 0.0508283 0)
(-0.00409348 -0.111381 0)
(-0.012317 -0.110895 0)
(-0.0206349 -0.109814 0)
(-0.029123 -0.108301 0)
(-0.037808 -0.105824 0)
(-0.0467782 -0.103161 0)
(-0.0559578 -0.0985009 0)
(-0.0654481 -0.0945357 0)
(-0.0749453 -0.0862713 0)
(-0.0843937 -0.0803444 0)
(-0.0933064 -0.0671799 0)
(-0.100614 -0.0564147 0)
(-0.106103 -0.03903 0)
(-0.107113 -0.0187085 0)
(-0.102967 -0.00114456 0)
(-0.0958774 0.0126842 0)
(-0.0870513 0.023758 0)
(-0.0777427 0.0312522 0)
(-0.0686632 0.0367996 0)
(-0.0601972 0.0403792 0)
(-0.0525183 0.0427495 0)
(-0.0456661 0.0441593 0)
(-0.0396087 0.0448972 0)
(-0.0038078 -0.103439 0)
(-0.0114439 -0.102895 0)
(-0.0191286 -0.101728 0)
(-0.0269017 -0.100041 0)
(-0.0347614 -0.0974529 0)
(-0.0427502 -0.0944848 0)
(-0.0507817 -0.0898764 0)
(-0.0589156 -0.0854444 0)
(-0.0668791 -0.0778114 0)
(-0.0746859 -0.0714597 0)
(-0.0817975 -0.0599571 0)
(-0.0878045 -0.0502535 0)
(-0.0919712 -0.0354858 0)
(-0.0925767 -0.0206288 0)
(-0.0898049 -0.00617858 0)
(-0.0846828 0.00544318 0)
(-0.0781169 0.0155268 0)
(-0.0709066 0.0228786 0)
(-0.0636273 0.0287295 0)
(-0.0566092 0.0328851 0)
(-0.0500568 0.0359387 0)
(-0.0440555 0.0380497 0)
(-0.038632 0.0394656 0)
(-0.00351873 -0.0960745 0)
(-0.0105677 -0.0954987 0)
(-0.0176404 -0.0942904 0)
(-0.0247563 -0.0925123 0)
(-0.031899 -0.0899015 0)
(-0.0390784 -0.086789 0)
(-0.0462001 -0.0823403 0)
(-0.0532522 -0.0777158 0)
(-0.0599914 -0.0707612 0)
(-0.0663098 -0.0643114 0)
(-0.0718306 -0.0544074 0)
(-0.0761278 -0.0454458 0)
(-0.0789155 -0.0333033 0)
(-0.0794898 -0.0216256 0)
(-0.0777964 -0.00966992 0)
(-0.0743184 0.00028972 0)
(-0.0695869 0.00932362 0)
(-0.0641181 0.0163366 0)
(-0.0583675 0.0221739 0)
(-0.0526217 0.0266107 0)
(-0.0470967 0.0300732 0)
(-0.041906 0.0326653 0)
(-0.0371138 0.0345813 0)
(-0.00321417 -0.0893067 0)
(-0.00964453 -0.0887173 0)
(-0.0160731 -0.0875004 0)
(-0.0224992 -0.0856899 0)
(-0.0288947 -0.0831151 0)
(-0.0352461 -0.0799742 0)
(-0.0414659 -0.0757443 0)
(-0.0475206 -0.0711372 0)
(-0.0532168 -0.0648399 0)
(-0.0584675 -0.0586034 0)
(-0.0629695 -0.0500405 0)
(-0.0664843 -0.0419604 0)
(-0.0687139 -0.0317456 0)
(-0.0692328 -0.0220848 0)
(-0.0681089 -0.0120428 0)
(-0.0655753 -0.00338027 0)
(-0.0620143 0.00465785 0)
(-0.0577652 0.0112342 0)
(-0.05317 0.0168768 0)
(-0.0484579 0.0213955 0)
(-0.0438187 0.0250712 0)
(-0.0393663 0.0279737 0)
(-0.0351776 0.0302451 0)
(-0.00291345 -0.0831473 0)
(-0.00873635 -0.0825598 0)
(-0.0145418 -0.0813603 0)
(-0.0203166 -0.0795656 0)
(-0.0260277 -0.0770699 0)
(-0.0316466 -0.0739868 0)
(-0.0370937 -0.0700041 0)
(-0.0423155 -0.0655424 0)
(-0.0471571 -0.0598421 0)
(-0.0515177 -0.0539402 0)
(-0.0551844 -0.0464929 0)
(-0.0579718 -0.0391732 0)
(-0.0597184 -0.0305358 0)
(-0.060225 -0.0222639 0)
(-0.0595096 -0.0137129 0)
(-0.0577006 -0.0060755 0)
(-0.0550382 0.00109739 0)
(-0.051752 0.00722046 0)
(-0.0480932 0.0125939 0)
(-0.0442459 0.0170745 0)
(-0.0403722 0.0208349 0)
(-0.0365802 0.0239225 0)
(-0.0329497 0.0264362 0)
(-0.00261636 -0.0775888 0)
(-0.00784054 -0.0770137 0)
(-0.0130354 -0.0758487 0)
(-0.0181791 -0.0741018 0)
(-0.0232353 -0.0717105 0)
(-0.0281685 -0.0687393 0)
(-0.0329087 -0.0650114 0)
(-0.0373996 -0.0607717 0)
(-0.0415221 -0.0556017 0)
(-0.0451912 -0.0501092 0)
(-0.048251 -0.0435626 0)
(-0.0505785 -0.0369623 0)
(-0.0520492 -0.0295127 0)
(-0.0525445 -0.0222798 0)
(-0.0520914 -0.0148719 0)
(-0.0507667 -0.00806667 0)
(-0.0487377 -0.00162704 0)
(-0.0461652 0.00405575 0)
(-0.0432336 0.009134 0)
(-0.0400876 0.0135048 0)
(-0.0368596 0.0172659 0)
(-0.0336453 0.0204488 0)
(-0.03052 0.0231187 0)
(-0.00233052 -0.0726162 0)
(-0.00698038 -0.0720608 0)
(-0.0115943 -0.0709417 0)
(-0.0161458 -0.069263 0)
(-0.0205983 -0.0669909 0)
(-0.0249134 -0.0641625 0)
(-0.0290307 -0.0606847 0)
(-0.0328945 -0.0567001 0)
(-0.0364118 -0.0519935 0)
(-0.0395077 -0.0469172 0)
(-0.042071 -0.0411021 0)
(-0.0440123 -0.035132 0)
(-0.0452539 -0.0286168 0)
(-0.0457331 -0.0221961 0)
(-0.0454653 -0.0156803 0)
(-0.0445022 -0.00955793 0)
(-0.0429556 -0.0037297 0)
(-0.0409404 0.00154703 0)
(-0.0385918 0.00633483 0)
(-0.0360237 0.01056 0)
(-0.0333428 0.0142713 0)
(-0.0306319 0.0174882 0)
(-0.0279588 0.0202512 0)
(-0.00205517 -0.0682076 0)
(-0.006153 -0.0676759 0)
(-0.0102118 -0.0666085 0)
(-0.0142035 -0.0650084 0)
(-0.0180927 -0.06286 0)
(-0.0218415 -0.060187 0)
(-0.0253982 -0.0569461 0)
(-0.0287123 -0.0532235 0)
(-0.031712 -0.0489195 0)
(-0.0343357 -0.0442423 0)
(-0.0365029 -0.039022 0)
(-0.0381498 -0.0336054 0)
(-0.0392218 -0.0278182 0)
(-0.0396812 -0.0220517 0)
(-0.0395408 -0.0162353 0)
(-0.0388379 -0.0106777 0)
(-0.0376514 -0.00535724 0)
(-0.0360655 -0.000445022 0)
(-0.0341803 0.00407087 0)
(-0.0320849 0.00813581 0)
(-0.0298648 0.0117685 0)
(-0.0275897 0.0149789 0)
(-0.0253181 0.0177902 0)
(-0.0017955 -0.0643368 0)
(-0.00537352 -0.0638304 0)
(-0.00891176 -0.0628167 0)
(-0.0123821 -0.0612991 0)
(-0.0157517 -0.0592728 0)
(-0.0189851 -0.0567555 0)
(-0.0220383 -0.0537331 0)
(-0.0248672 -0.0502614 0)
(-0.0274159 -0.0463045 0)
(-0.0296343 -0.0419904 0)
(-0.0314641 -0.0372565 0)
(-0.0328589 -0.0323135 0)
(-0.0337823 -0.0271047 0)
(-0.0342124 -0.0218715 0)
(-0.0341586 -0.0166107 0)
(-0.033649 -0.0115209 0)
(-0.0327392 -0.00662123 0)
(-0.031492 -0.00202898 0)
(-0.0299813 0.00224127 0)
(-0.0282769 0.00614605 0)
(-0.0264467 0.00968656 0)
(-0.0245488 0.0128654 0)
(-0.0226329 0.015694 0)
(-0.00154501 -0.0609786 0)
(-0.00462288 -0.0604973 0)
(-0.00766355 -0.0595357 0)
(-0.0106408 -0.0580983 0)
(-0.013525 -0.056187 0)
(-0.0162845 -0.0538173 0)
(-0.0188821 -0.0509913 0)
(-0.02128 -0.0477494 0)
(-0.0234344 -0.0440893 0)
(-0.025305 -0.0400955 0)
(-0.0268491 -0.0357604 0)
(-0.0280325 -0.0312184 0)
(-0.0288295 -0.0264708 0)
(-0.0292267 -0.0216739 0)
(-0.0292316 -0.0168573 0)
(-0.0288657 -0.0121542 0)
(-0.0281694 -0.00760235 0)
(-0.0271899 -0.00328644 0)
(-0.0259832 0.000766835 0)
(-0.0246035 0.00452046 0)
(-0.0231045 0.00796547 0)
(-0.0215338 0.011099 0)
(-0.019933 0.0139247 0)
(-0.00131255 -0.0581059 0)
(-0.00392626 -0.0576483 0)
(-0.00650517 -0.0567353 0)
(-0.00902505 -0.0553724 0)
(-0.0114599 -0.0535657 0)
(-0.0137821 -0.0513303 0)
(-0.0159612 -0.048677 0)
(-0.017966 -0.0456383 0)
(-0.0197626 -0.0422292 0)
(-0.0213194 -0.0385106 0)
(-0.0226048 -0.0345013 0)
(-0.0235944 -0.0302934 0)
(-0.0242702 -0.0259153 0)
(-0.0246244 -0.021474 0)
(-0.0246631 -0.0170132 0)
(-0.0244026 -0.0126276 0)
(-0.0238724 -0.00836156 0)
(-0.0231081 -0.00427991 0)
(-0.0221515 -0.00041443 0)
(-0.0210448 0.0032022 0)
(-0.0198296 0.00655526 0)
(-0.0185446 0.00963779 0)
(-0.0172239 0.0124485 0)
(-0.00108519 -0.0556952 0)
(-0.00324604 -0.0552589 0)
(-0.00537771 -0.0543892 0)
(-0.0074597 -0.0530924 0)
(-0.00947008 -0.0513773 0)
(-0.0113855 -0.0492591 0)
(-0.0131807 -0.0467533 0)
(-0.0148302 -0.0438887 0)
(-0.0163075 -0.0406882 0)
(-0.0175877 -0.0372 0)
(-0.0186476 -0.0334545 0)
(-0.0194686 -0.0295204 0)
(-0.0200376 -0.0254367 0)
(-0.0203495 -0.0212826 0)
(-0.020409 -0.0171056 0)
(-0.0202288 -0.0129777 0)
(-0.0198305 -0.00894421 0)
(-0.0192409 -0.00505754 0)
(-0.0184921 -0.00135098 0)
(-0.0176167 0.00214584 0)
(-0.0166468 0.00541508 0)
(-0.0156128 0.00844669 0)
(-0.0145426 0.011236 0)
(-0.000874827 -0.0537245 0)
(-0.0026161 -0.0533066 0)
(-0.00433182 -0.0524739 0)
(-0.00600442 -0.0512335 0)
(-0.00761581 -0.0495957 0)
(-0.00914725 -0.047576 0)