/*--------------------------------*- C++ -*----------------------------------*\
| =========                 |                                                 |
| \\      /  F ield         | OpenFOAM: The Open Source CFD Toolbox           |
|  \\    /   O peration     | Version:  2012                                  |
|   \\  /    A nd           | Website:  www.openfoam.com                      |
|    \\/     M anipulation  |                                                 |
\*---------------------------------------------------------------------------*/
FoamFile
{
    version     2.0;
    format      ascii;
    class       volScalarField;
    location    "0.02";
    object      volumeFraction1;
}
// * * * * * * * * * * * * * * * * * * * * * * * * * * * * * * * * * * * * * //

dimensions      [0 0 0 0 0 0 0];


internalField   nonuniform List<scalar> 
2268
(
1
1
1
1
1
1
1
1
1
1
1
1
0.419449
0.00971525
2.9844e-06
8.33065e-13
1.10306e-15
4.71501e-17
1.09108e-18
1.55337e-20
1.39328e-22
7.37387e-25
1.78111e-27
1
1
1
1
1
1
1
1
1
1
1
1
0.33447
0.00506128
8.83432e-07
3.52915e-13
1.16124e-15
4.11124e-17
8.31581e-19
1.06027e-20
8.66852e-23
4.24063e-25
9.58426e-28
1
1
1
1
1
1
1
1
1
1
1
1
0.274025
0.00247813
1.57273e-07
9.54645e-14
8.76192e-16
2.30432e-17
3.78214e-19
4.09382e-21
2.9572e-23
1.32203e-25
2.81744e-28
1
1
1
1
1
1
1
1
1
1
1
1
0.235284
0.00143831
3.61551e-08
2.99549e-14
4.57375e-16
9.32902e-18
1.30069e-19
1.27357e-21
8.70113e-24
3.8147e-26
8.23202e-29
1
1
1
1
1
1
1
1
1
1
1
1
0.206407
0.000921857
1.11235e-08
1.17615e-14
2.07058e-16
3.61229e-18
4.57971e-20
4.28516e-22
2.90448e-24
1.31604e-26
3.05889e-29
1
1
1
1
1
1
1
1
1
1
1
1
0.184201
0.000633382
4.21412e-09
5.54338e-15
9.64975e-17
1.51748e-18
1.81372e-20
1.66275e-22
1.14053e-24
5.42649e-27
1.36995e-29
1
1
1
1
1
1
1
1
1
1
1
1
0.166148
0.00045356
1.80382e-09
2.92032e-15
4.79081e-17
6.97462e-19
8.00381e-21
7.30677e-23
5.20615e-25
2.7527e-27
8.28181e-30
1
1
1
1
1
1
1
1
1
1
1
1
0.150967
0.000334525
8.35826e-10
1.64665e-15
2.50739e-17
3.41711e-19
3.78638e-21
3.44178e-23
2.52177e-25
1.42818e-27
6.4531e-30
6.00662e-61
1.46594e-63
1.3355e-66
1.00626e-69
6.39016e-73
3.66501e-76
1.92907e-79
9.02874e-83
3.67013e-86
1.27174e-89
3.68891e-93
8.79257e-97
1.68738e-100
2.54275e-104
2.9135e-108
2.42883e-112
1.37654e-116
4.69721e-121
1.44459e-125
1.87885e-57
4.9947e-60
4.91805e-63
3.9887e-66
2.71514e-69
1.67237e-72
9.43962e-76
4.73696e-79
2.06601e-82
7.69106e-86
2.40134e-89
6.17611e-93
1.28266e-96
2.09876e-100
2.62094e-104
2.39011e-108
1.48764e-112
5.59785e-117
9.53128e-122
2.72344e-54
7.93492e-57
8.51026e-60
7.48316e-63
5.49332e-66
3.65724e-69
2.22166e-72
1.19704e-75
5.60152e-79
2.23802e-82
7.50704e-86
2.07781e-89
4.65465e-93
8.23819e-97
1.1165e-100
1.109e-104
7.54619e-109
3.11643e-113
5.84775e-118
2.40854e-51
7.72076e-54
9.0816e-57
8.7121e-60
6.9359e-63
5.01983e-66
3.2917e-69
1.90691e-72
9.57388e-76
4.10117e-79
1.47554e-82
4.38488e-86
1.0564e-89
2.01547e-93
2.95265e-97
3.18059e-101
2.35575e-105
1.06293e-109
2.1874e-114
1.44721e-48
5.10929e-51
6.64118e-54
6.99674e-57
6.07806e-60
4.8094e-63
3.41355e-66
2.12759e-69
1.14563e-72
5.25514e-76
2.02394e-79
6.44237e-83
1.66439e-86
3.41107e-90
5.38092e-94
6.25896e-98
5.02241e-102
2.46443e-106
5.53567e-111
6.19995e-46
2.3905e-48
3.44277e-51
4.00006e-54
3.82458e-57
3.31816e-60
2.55417e-63
1.7145e-66
9.90084e-70
4.86028e-73
2.00135e-76
6.81148e-80
1.88314e-83
4.1353e-87
7.00223e-91
8.76401e-95
7.58892e-99
4.03184e-103
9.84185e-108
1.96152e-43
8.16171e-46
1.3201e-48
1.70818e-51
1.84264e-54
1.76035e-57
1.4701e-60
1.06145e-63
6.561e-67
3.43735e-70
1.50865e-73
5.47179e-77
1.61278e-80
3.77998e-84
6.84228e-88
9.17252e-92
8.52887e-96
4.88087e-100
1.28773e-104
4.58072e-41
1.90456e-43
3.41726e-46
4.91996e-49
5.92798e-52
6.21516e-55
5.62955e-58
4.37536e-61
2.89618e-64
1.62003e-67
7.57906e-71
2.92792e-74
9.19347e-78
2.29705e-81
4.43768e-85
6.35999e-89
6.3343e-93
3.89262e-97
1.10613e-101
1
1
1
1
1
1
1
1
1
1
1
1
0.132143
0.000224872
3.10928e-10
7.91945e-16
1.07532e-17
1.34452e-19
1.4346e-21
1.33282e-23
1.10905e-25
8.68994e-28
7.46759e-30
1
1
1
1
1
1
1
1
1
1
1
1
0.111907
0.000135309
8.86556e-11
3.16758e-16
3.77791e-18
4.30944e-20
4.38168e-22
4.02441e-24
3.38719e-26
2.69396e-28
2.28548e-30
1
1
1
1
1
1
1
1
1
1
1
1
0.0954938
8.35175e-05
2.69006e-11
1.35655e-16
1.47085e-18
1.57625e-20
1.55499e-22
1.41719e-24
1.19638e-26
9.51743e-29
7.32473e-31
1
1
1
1
1
1
1
1
1
1
1
1
0.0819917
5.27796e-05
8.82863e-12
6.35543e-17
6.47128e-19
6.61539e-21
6.28866e-23
5.51825e-25
4.44861e-27
3.32244e-29
2.31839e-31
1
1
1
1
1
1
1
1
1
1
1
1
0.0706278
3.36906e-05
3.05545e-12
3.23709e-17
3.18583e-19
3.12232e-21
2.82171e-23
2.3273e-25
1.74361e-27
1.19241e-29
7.45016e-32
1
1
1
1
1
1
1
1
1
1
1
1
0.0609678
2.1633e-05
1.11534e-12
1.80202e-17
1.73522e-19
1.60973e-21
1.34933e-23
1.01707e-25
6.89141e-28
4.21666e-30
2.33123e-32
1
1
1
1
1
1
1
1
1
1
1
1
0.0526726
1.39101e-05
4.297e-13
1.09554e-17
1.02513e-19
8.80083e-22
6.67665e-24
4.49881e-26
2.70541e-28
1.45921e-30
7.06507e-33
1
1
1
1
1
1
1
1
1
1
1
1
0.0455004
8.92318e-06
1.75685e-13
7.21439e-18
6.40187e-20
4.95347e-22
3.32427e-24
1.96411e-26
1.03111e-28
4.8373e-31
2.03144e-33
1
1
1
1
1
1
1
1
1
1
1
1
0.0392628
5.68987e-06
7.69551e-14
5.07868e-18
4.138e-20
2.81689e-22
1.64047e-24
8.36071e-27
3.77575e-29
1.52094e-31
5.47881e-34
1
1
1
1
1
1
1
1
1
1
1
1
0.0338083
3.58896e-06
3.62071e-14
3.73319e-18
2.69567e-20
1.57738e-22
7.82211e-25
3.38091e-27
1.29288e-29
4.40744e-32
1.34421e-34
1
1
1
1
1
1
1
1
1
1
1
1
0.0290315
2.23641e-06
1.84956e-14
2.86983e-18
1.79518e-20
8.897e-23
3.69962e-25
1.33322e-27
4.23886e-30
1.2004e-32
3.04405e-35
1
1
1
1
1
1
1
1
1
1
1
1
0.0248047
1.35893e-06
9.90632e-15
2.21664e-18
1.15993e-20
4.73324e-23
1.60457e-25
4.6886e-28
1.20656e-30
2.76779e-33
5.70278e-36
1
1
1
1
1
1
1
1
1
1
1
1
0.021134
8.41607e-07
6.19452e-15
1.9786e-18
8.91312e-21
3.02457e-23
8.28317e-26
1.91631e-28
3.86126e-31
6.91066e-34
1.11357e-36
1
1
1
1
1
1
1
1
1
1
1
1
0.0177282
4.81398e-07
3.93582e-15
1.79422e-18
6.4728e-21
1.68164e-23
3.40133e-26
5.71089e-29
8.34029e-32
1.09103e-34
1.30427e-37
1
1
1
1
1
1
1
1
1
1
1
1
0.0156925
5.1807e-07
6.50349e-15
3.20455e-18
1.18595e-20
2.68457e-23
4.11152e-26
4.71037e-29
4.44031e-32
3.69221e-35
2.84499e-38
1
1
1
1
1
1
1
1
1
1
1
1
0.0125708
2.32186e-07
5.31391e-15
4.63241e-18
1.16069e-20
1.3625e-23
8.36167e-27
3.45389e-30
1.27954e-33
5.75845e-37
3.21237e-40
1
1
1
1
1
1
1
1
1
1
1
1
0.0252476
4.46002e-06
1.48575e-13
1.32844e-17
5.3493e-20
5.9468e-23
3.74357e-27
4.02149e-32
1.23257e-35
4.3324e-39
1.90954e-42
0.999735
0.999733
0.999729
0.999722
0.999713
0.999702
0.999689
0.999672
0.999655
0.999625
0.999501
0.987711
0.0168295
1.41623e-12
1.41639e-12
7.20658e-15
4.73211e-21
2.19437e-24
1.72743e-28
4.06726e-34
1.00066e-37
2.84038e-41
1.00841e-44
0.858912
0.858527
0.857763
0.856623
0.85513
0.853267
0.85113
0.848537
0.845925
0.841331
0.825059
0.719036
0.119885
0.000673703
5.35126e-09
2.5669e-15
1.50342e-18
3.64189e-26
3.21826e-30
3.69536e-36
6.82251e-40
1.60024e-43
4.66702e-47
6.9247e-37
5.5157e-37
-1.4125e-37
-1.25107e-38
-7.72049e-40
-4.44365e-45
5.97646e-39
-3.24391e-41
7.60091e-39
-1.02808e-32
6.33447e-31
-4.09787e-32
-5.82775e-23
5.11218e-05
-1.41975e-26
8.95698e-17
4.81325e-20
6.60408e-28
4.26946e-32
3.27818e-38
4.01152e-42
7.83628e-46
1.90015e-49
5.94157e-19
5.80331e-19
5.54671e-19
5.21805e-19
4.90086e-19
4.71025e-19
4.83257e-19
8.18547e-19
4.10611e-17
4.34155e-15
3.58903e-13
1.76167e-11
3.35794e-10
1.19199e-09
-2.24588e-37
1.69743e-18
5.2896e-22
1.10147e-29
4.01773e-34
2.78273e-40
1.98534e-44
3.26034e-48
6.69083e-52
5.16898e-47
-1.59854e-59
-2.49002e-63
7.85792e-50
8.67058e-30
2.77464e-27
6.2602e-25
1.02997e-22
1.22219e-20
1.02349e-18
5.68394e-17
1.81076e-15
2.12162e-14
4.74306e-13
2.31783e-39
1.71784e-20
3.86475e-24
1.47011e-31
2.79453e-36
2.21369e-42
8.38367e-47
1.14333e-50
2.01826e-54
4.71563e-45
1.22906e-41
1.48077e-38
1.09071e-35
5.48106e-33
1.99995e-30
5.42835e-28
1.11085e-25
1.72243e-23
2.00341e-21
1.70036e-19
1.00685e-17
3.75404e-16
4.36124e-15
2.33832e-39
1.01936e-22
1.87969e-26
1.39838e-33
1.43381e-38
1.52732e-44
3.09472e-49
3.33999e-53
5.15074e-57
6.07249e-52
1.42603e-48
1.54471e-45
1.02048e-42
4.57234e-40
1.46705e-37
3.45177e-35
6.04829e-33
7.83075e-31
7.43868e-29
4.96284e-27
2.15261e-25
5.04984e-24
3.95122e-23
5.31155e-27
3.28327e-25
5.96083e-29
9.00761e-36
5.48457e-41
8.57799e-47
1.05006e-51
8.13169e-56
1.10342e-59
3.99174e-57
9.87072e-54
1.12955e-50
7.92463e-48
3.79853e-45
1.31666e-42
3.38999e-40
6.60319e-38
9.69178e-36
1.07237e-33
8.62702e-32
4.90079e-30
1.7493e-28
1.59951e-27
1.50213e-29
6.0061e-28
1.24824e-31
3.89925e-38
1.58041e-43
3.75591e-49
3.36004e-54
1.66604e-58
1.9696e-62
3.05271e-62
7.97968e-59
9.65857e-56
7.17499e-53
3.64734e-50
1.34407e-47
3.69135e-45
7.71137e-43
1.22441e-40
1.48371e-38
1.3373e-36
8.70757e-35
3.7387e-33
4.16893e-32
7.50145e-33
5.71057e-31
1.68384e-34
1.12435e-40
3.45886e-46
1.2535e-51
9.84353e-57
2.95729e-61
2.9227e-65
1.2278e-67
3.45056e-64
4.49859e-61
3.60999e-58
1.99101e-55
8.00301e-53
2.4144e-50
5.58247e-48
9.89992e-46
1.35203e-43
1.38458e-41
1.02871e-39
4.90418e-38
6.78472e-37
2.19538e-36
2.54092e-34
1.43722e-37
2.16083e-43
5.79262e-49
3.15494e-54
2.47638e-59
4.74555e-64
3.61259e-68
2.67779e-73
8.13233e-70
1.14694e-66
9.9725e-64
5.97433e-61
2.61628e-58
8.63663e-56
2.19509e-53
4.30872e-51
6.54766e-49
7.51002e-47
6.24966e-45
3.29535e-43
6.49946e-42
2.22017e-40
3.04907e-38
7.30173e-41
2.73054e-46
7.40325e-52
5.95255e-57
5.07079e-62
7.12158e-67
3.76241e-71
4.13554e-79
1.37353e-75
2.1214e-72
2.02412e-69
1.33486e-66
6.45875e-64
2.36779e-61
6.71871e-59
1.48335e-56
2.55516e-54
3.36579e-52
3.28768e-50
2.16263e-48
3.75034e-47
2.54498e-49
9.97952e-47
1.98367e-44
2.2241e-49
7.14244e-55
8.39045e-60
8.19903e-65
9.93474e-70
3.39066e-74
4.43364e-85
1.61395e-81
2.7351e-78
2.86786e-75
2.08321e-72
1.11315e-69
4.5231e-67
1.42758e-64
3.5237e-62
6.81412e-60
1.01401e-57
1.12308e-55
8.42147e-54
1.66325e-52
1.93446e-53
8.92431e-51
2.05301e-48
1.11584e-52
5.08413e-58
8.79986e-63
1.0321e-67
1.23502e-72
2.76526e-77
3.31085e-91
1.30264e-87
2.38683e-84
2.70775e-81
2.13056e-78
1.23469e-75
5.45039e-73
1.87104e-70
5.03055e-68
1.05925e-65
1.7146e-63
2.05464e-61
1.64963e-59
3.42241e-58
7.31452e-63
9.51906e-61
1.78604e-58
3.16978e-56
2.58694e-61
6.83344e-66
1.0057e-70
1.30656e-75
2.14491e-80
5.82601e-97
2.52643e-93
5.09938e-90
6.37003e-87
5.51807e-84
3.51927e-81
1.70912e-78
6.4465e-76
1.90091e-73
4.37014e-71
7.6692e-69
9.81509e-67
8.17874e-65
1.66066e-63
5.34102e-68
2.99097e-65
1.59429e-62
4.11573e-60
9.00389e-65
3.90003e-69
7.56905e-74
1.14091e-78
1.61364e-83
1.02767e-102
4.98925e-99
1.12657e-95
1.57314e-92
1.52223e-89
1.08325e-86
5.861e-84
2.45572e-81
8.00693e-79
2.0174e-76
3.8199e-74
5.10497e-72
4.1072e-70
6.24133e-69
7.71276e-73
5.02079e-70
3.01937e-67
8.61195e-65
2.01114e-68
1.61902e-72
4.39678e-77
8.10201e-82
1.14563e-86
1.41051e-108
7.82623e-105
2.01999e-101
3.22556e-98
3.57147e-95
2.91019e-92
1.80432e-89
8.66589e-87
3.23857e-84
9.33595e-82
2.0138e-79
3.02898e-77
2.64294e-75
3.53421e-74
8.36013e-83
1.39009e-80
7.89891e-78
6.40621e-75
2.5857e-72
4.81693e-76
1.97109e-80
4.6569e-85
7.32573e-90
7.01356e-115
4.5138e-111
1.35175e-107
2.50564e-104
3.2227e-101
3.05267e-98
2.20214e-95
1.23151e-92
5.36244e-90
1.80106e-87
4.52192e-85
7.88409e-83
7.86279e-81
1.07944e-79
5.7314e-88
3.13919e-85
3.08568e-82
3.06075e-79
1.48264e-76
1.00598e-79
6.82304e-84
2.16921e-88
4.07381e-93
3.49493e-121
2.64795e-117
9.33644e-114
2.03829e-110
3.08924e-107
3.45012e-104
2.93597e-101
1.93732e-98
9.95167e-96
3.93758e-93
1.16052e-90
2.35192e-88
2.63338e-86
2.84934e-85
1.69081e-93
1.26421e-90
1.42343e-87
1.44582e-84
6.72974e-82
1.43156e-83
1.82646e-87
8.23019e-92
1.93847e-96
7.84909e-130
6.20621e-126
2.26005e-122
5.02933e-119
7.63895e-116
8.35961e-113
6.75922e-110
4.05376e-107
1.76831e-104
5.29264e-102
9.34311e-100
3.06605e-98
-1.00752e-97
6.4287e-98
1.18266e-99
7.29963e-98
5.82073e-97
9.75182e-94
1.62359e-90
1.32994e-87
3.79482e-91
2.56468e-95
7.87437e-100
-3.21276e-154
-1.23631e-150
-2.01587e-147
-1.77164e-144
-8.7022e-142
-2.00714e-139
1.38003e-145
2.13343e-125
2.74806e-122
2.87171e-119
2.43674e-116
1.66168e-113
9.34165e-111
3.47616e-108
8.47706e-106
7.55198e-104
1.45573e-101
3.26502e-98
7.07155e-95
7.53014e-92
6.16329e-95
6.63986e-99
2.74725e-103
5.6904e-157
4.8306e-153
1.94051e-149
5.0333e-146
1.81189e-142
4.89741e-139
1.0313e-135
1.73386e-132
2.36952e-129
2.64336e-126
2.40377e-123
1.76056e-120
1.00939e-117
4.28788e-115
1.30252e-112
7.01252e-110
1.82223e-106
5.5589e-103
1.61618e-99
2.31342e-96
7.92921e-99
1.45023e-102
8.32608e-107
7.02157e-165
8.08563e-161
4.3792e-157
1.49764e-153
3.66605e-150
6.8756e-147
2.04258e-143
4.90577e-140
9.53727e-137
1.51004e-133
1.94182e-130
1.9995e-127
1.60017e-124
9.6833e-122
6.37836e-119
1.65659e-115
7.57863e-112
3.41542e-108
1.42991e-104
2.97677e-101
8.25064e-103
2.72274e-106
2.22413e-110
1.83167e-174
3.70521e-170
3.53093e-166
2.11262e-162
8.91832e-159
2.81354e-155
6.887e-152
1.34033e-148
2.49911e-145
6.85452e-142
1.55531e-138
2.91173e-135
4.50296e-132
6.31156e-129
1.42938e-125
7.35862e-122
4.96449e-118
3.38386e-114
1.56549e-110
4.54362e-107
7.18539e-107
4.50168e-110
5.33289e-114
1.66024e-189
1.34926e-184
5.15963e-180
1.23874e-175
2.10103e-171
2.68261e-167
2.68044e-163
2.14895e-159
1.39192e-155
7.3412e-152
3.1499e-148
1.69039e-144
1.13588e-140
6.2621e-137
2.71294e-133
8.23496e-130
9.03281e-127
3.12552e-124
1.05337e-119
3.31048e-115
5.45351e-111
6.7184e-114
1.16837e-117
1.09902e-31
2.09468e-33
3.46492e-35
5.07765e-37
2.95129e-32
5.24113e-34
8.1304e-36
1.10325e-37
7.6283e-33
1.10906e-34
1.4438e-36
1.65852e-38
2.09156e-33
2.64873e-35
3.01388e-37
3.04509e-39
5.79542e-34
6.31319e-36
6.19117e-38
5.42355e-40
1.58149e-34
1.50075e-36
1.28292e-38
9.83302e-41
4.16106e-35
3.42652e-37
2.54447e-39
1.69972e-41
1.03487e-35
7.3759e-38
4.74687e-40
2.75576e-42
2.393e-36
1.46436e-38
8.10535e-41
4.05841e-43
4.97778e-37
2.58792e-39
1.21964e-41
5.21501e-44
9.39586e-38
4.08317e-40
1.61311e-42
5.8023e-45
1.43711e-38
5.11982e-41
1.66501e-43
4.95323e-46
2.20855e-39
6.22661e-42
1.61165e-44
3.84048e-47
1.95494e-40
4.21574e-43
8.44937e-46
1.5793e-48
2.82848e-41
4.11133e-44
5.6534e-47
7.39457e-50
2.70098e-43
3.45013e-46
4.27362e-49
5.10152e-52
1.33581e-45
1.48445e-48
1.62378e-51
1.74172e-54
5.92281e-48
5.76321e-51
5.59501e-54
5.41126e-57
2.32665e-50
1.9944e-53
1.72781e-56
1.52059e-59
8.10888e-53
6.15738e-56
4.78555e-59
3.81728e-62
2.47244e-55
1.67484e-58
1.17524e-61
8.53028e-65
6.53425e-58
3.97714e-61
2.53649e-64
1.68167e-67
1.48062e-60
8.16588e-64
4.7678e-67
2.89391e-70
2.85321e-63
1.43814e-66
7.74078e-70
4.32281e-73
4.63853e-66
2.15578e-69
1.07697e-72
5.56202e-76
6.32995e-69
2.7367e-72
1.27664e-75
6.1288e-79
7.22007e-72
2.92843e-75
1.28315e-78
5.76098e-82
6.86928e-75
2.63309e-78
1.08966e-81
4.60255e-85
5.45488e-78
1.9857e-81
7.80093e-85
3.11809e-88
3.63273e-81
1.25477e-84
4.70467e-88
1.78987e-91
2.05605e-84
6.64814e-88
2.38973e-91
8.70202e-95
1.01811e-87
2.9625e-91
1.02363e-94
3.58688e-98
4.6457e-91
1.11856e-94
3.70794e-98
1.25645e-101
2.08589e-94
3.639e-98
1.14056e-101
3.75164e-105
9.56288e-98
1.05745e-101
3.00159e-105
9.59505e-109
4.37539e-101
2.93393e-105
6.84949e-109
2.11628e-112
1.89675e-104
8.47515e-109
1.39103e-112
4.06098e-116
7.49605e-108
2.67031e-112
2.65417e-116
6.87593e-120
2.66055e-111
8.86615e-116
5.23815e-120
1.05288e-123
8.48794e-115
2.90891e-119
1.18542e-123
1.52922e-127
2.45949e-118
9.06668e-123
3.12978e-127
2.31592e-131
6.55601e-122
2.65024e-126
8.94337e-131
4.15536e-135
3.99359e-39
1.41966e-41
3.36431e-44
6.04565e-47
8.65415e-50
1.02593e-52
1.02066e-55
8.57537e-59
6.07821e-62
3.61761e-65
1.79392e-68
7.32997e-72
2.43138e-75
6.41723e-79
1.31052e-82
1.9879e-86
2.09937e-90
1.37111e-94
4.15065e-99
7.90493e-40
2.71225e-42
6.55938e-45
1.2272e-47
1.83881e-50
2.26181e-53
2.30985e-56
1.9703e-59
1.40449e-62
8.34341e-66
4.10459e-69
1.65586e-72
5.40245e-76
1.39813e-79
2.79249e-83
4.13399e-87
4.25275e-91
2.70153e-95
7.94336e-100
1.00273e-40
3.27116e-43
8.21051e-46
1.60917e-48
2.51447e-51
3.18797e-54
3.31864e-57
2.85684e-60
2.03879e-63
1.20456e-66
5.86232e-70
2.32967e-73
7.46113e-77
1.89e-80
3.68632e-84
5.31851e-88
5.32347e-92
3.28579e-96
9.37641e-101
1.63142e-41
4.90504e-44
1.16973e-46
2.224e-49
3.41444e-52
4.27462e-55
4.39781e-58
3.73505e-61
2.62248e-64
1.5197e-67
7.23247e-71
2.80293e-74
8.73334e-78
2.14775e-81
4.05943e-85
5.6667e-89
5.4804e-93
3.26445e-97
8.98119e-102
2.53599e-42
6.94022e-45
1.55136e-47
2.81634e-50
4.17312e-53
5.06844e-56
5.06869e-59
4.18439e-62
2.85288e-65
1.60284e-68
7.38309e-72
2.76467e-75
8.30986e-79
1.96853e-82
3.57927e-86
4.80102e-90
4.45695e-94
2.54625e-98
6.71378e-103
4.04149e-43
9.93341e-46
2.03076e-48
3.42689e-51
4.77578e-54
5.49944e-57
5.24046e-60
4.1337e-63
2.69635e-66
1.44981e-69
6.38976e-73
2.28812e-76
6.57233e-80
1.48675e-83
2.57957e-87
3.29961e-91
2.91933e-95
1.58881e-99
3.98953e-104
6.11303e-44
1.33791e-46
2.47256e-49
3.82352e-52
4.93375e-55
5.30139e-58
4.73956e-61
3.52052e-64
2.16755e-67
1.10167e-70
4.59325e-74
1.55659e-77
4.23177e-81
9.06008e-85
1.48762e-88
1.8005e-92
1.50721e-96
7.76067e-101
1.844e-105
8.64024e-45
1.66802e-47
2.75058e-50
3.83897e-53
4.51398e-56
4.45476e-59
3.68017e-62
2.53764e-65
1.45531e-68
6.90659e-72
2.69354e-75
8.54886e-79
2.1786e-82
4.37527e-86
6.7423e-90
7.662e-94
6.02498e-98
2.91539e-102
6.51333e-107
1.10065e-45
1.85575e-48
2.69919e-51
3.35621e-54
3.5468e-57
3.16998e-60
2.38664e-63
1.50751e-66
7.95196e-70
3.48241e-73
1.25647e-76
3.69691e-80
8.74846e-84
1.63373e-87
2.34373e-91
2.48216e-95
1.82069e-99
8.22617e-104
1.71742e-108
1.21125e-46
1.7635e-49
2.23468e-52
2.44303e-55
2.28924e-58
1.82818e-61
1.23807e-64
7.07447e-68
3.39207e-71
1.35573e-74
4.47929e-78
1.21028e-81
2.63644e-85
4.54151e-89
6.02072e-93
5.90208e-97
4.01301e-101
1.68304e-105
3.26577e-110
1.13749e-47
1.40948e-50
1.5338e-53
1.45332e-56
1.19071e-59
8.38206e-63
5.04039e-66
2.57396e-69
1.10919e-72
4.00374e-76
1.19973e-79
2.95073e-83
5.86955e-87
9.25832e-91
1.12666e-94
1.01598e-98
6.36698e-103
2.46517e-107
4.42328e-112
8.0662e-49
8.38262e-52
7.728e-55
6.26637e-58
4.43607e-61
2.72254e-64
1.43898e-67
6.50619e-71
2.49842e-74
8.08201e-78
2.18113e-81
4.8523e-85
8.76338e-89
1.25912e-92
1.3997e-96
1.15581e-100
6.64703e-105
2.36591e-109
3.90826e-114
5.04146e-50
4.27918e-53
3.26538e-56
2.22022e-59
1.33405e-62
7.0276e-66
3.22058e-69
1.27401e-72
4.31458e-76
1.23953e-79
2.98902e-83
5.97314e-87
9.73452e-91
1.26709e-94
1.28029e-98
9.63656e-103
5.06309e-107
1.64965e-111
2.49757e-116
1.64515e-51
1.1315e-54
7.1294e-58
4.06975e-61
2.08308e-64
9.46603e-68
3.78285e-71
1.31703e-74
3.95647e-78
1.01499e-81
2.19783e-85
3.96231e-89
5.84821e-93
6.91592e-97
6.36472e-101
4.37226e-105
2.09962e-109
6.25913e-114
8.67617e-119
5.50489e-53
2.81963e-56
1.37148e-59
6.23111e-63
2.60444e-66
9.87377e-70
3.3507e-73
1.00524e-76
2.63371e-80
5.95112e-84
1.14424e-87
1.8438e-91
2.44537e-95
2.6096e-99
2.17458e-103
1.35611e-107
5.92364e-112
1.60824e-116
2.03226e-121
3.44815e-55
1.63544e-58
7.39161e-62
3.11713e-65
1.20669e-68
4.22857e-72
1.32465e-75
3.66564e-79
8.85565e-83
1.84504e-86
3.27136e-90
4.86194e-94
5.9482e-98
5.85562e-102
4.50104e-106
2.58846e-110
1.04226e-114
2.60685e-119
3.03195e-124
1.08891e-57
4.97121e-61
2.15074e-64
8.63711e-68
3.16963e-71
1.04918e-74
3.09554e-78
8.04896e-82
1.82364e-85
3.55765e-89
5.89837e-93
8.18712e-97
9.34353e-101
8.5706e-105
6.13115e-109
3.27744e-113
1.22496e-117
2.84025e-122
3.05748e-127
2.97041e-60
1.17025e-63
4.39252e-67
1.6114e-70
5.64157e-74
1.77716e-77
4.97357e-81
1.2233e-84
2.61561e-88
4.80568e-92
7.49029e-96
9.75742e-100
1.04339e-103
8.95353e-108
5.98204e-112
2.98169e-116
1.03733e-120
2.23476e-125
2.23129e-130
7.36389e-63
2.51594e-66
8.23466e-70
2.65407e-73
8.17861e-77
2.27625e-80
5.97877e-84
1.39409e-87
2.82047e-91
4.8927e-95
7.18546e-99
8.80256e-103
8.83551e-107
7.10348e-111
4.43816e-115
2.06465e-119
6.69137e-124
1.34006e-128
1.2412e-133
1.63878e-65
4.88578e-69
1.40223e-72
4.01086e-76
1.09242e-79
2.69767e-83
6.31593e-87
1.31616e-90
2.40101e-94
3.93615e-98
5.45216e-102
6.2863e-106
5.9264e-110
4.46566e-114
2.6096e-118
1.13304e-122
3.41977e-127
6.36433e-132
5.46513e-137
3.26596e-68
8.55125e-72
2.165e-75
5.50018e-79
1.33123e-82
2.9304e-86
6.16564e-90
1.15192e-93
1.89009e-97
2.79325e-101
3.4966e-105
3.66737e-109
3.24683e-113
2.2926e-117
1.25255e-121
5.07294e-126
1.42481e-130
2.46176e-135
1.95785e-140
5.77866e-71
1.33856e-74
3.00936e-78
6.83605e-82
1.47805e-85
2.91384e-89
5.51066e-93
9.26443e-97
1.37705e-100
1.83879e-104
2.08444e-108
1.98377e-112
1.59683e-116
1.02698e-120
5.11995e-125
1.89542e-129
4.9439e-134
7.91975e-139
5.82346e-144
8.99171e-74
1.8587e-77
3.73837e-81
7.6517e-85
1.48607e-88
2.63731e-92
4.50432e-96
6.83942e-100
9.204e-104
1.11357e-107
1.14555e-111
9.94768e-116
7.28778e-120
4.27242e-124
1.94432e-128
6.58046e-133
1.57042e-137
2.30581e-142
1.56115e-147
1.22433e-76
2.27933e-80
4.13412e-84
7.66156e-88
1.3447e-91
2.16028e-95
3.35054e-99
4.61173e-103
5.63983e-107
6.19853e-111
5.7986e-115
4.58635e-119
3.06204e-123
1.63759e-127
6.80559e-132
2.11006e-136
4.61445e-141
6.20866e-146
8.90761e-151
1.44825e-79
2.45266e-83
4.04602e-87
6.84294e-91
1.09218e-94
1.5977e-98
2.25487e-102
2.82417e-106
3.15449e-110
3.1576e-114
2.69194e-118
1.94306e-122
1.18363e-126
5.77921e-131
2.19413e-135
6.22052e-140
1.24406e-144
2.95759e-149
6.31227e-154
1.48001e-82
2.30392e-86
3.48762e-90
5.42562e-94
7.92527e-98
1.06229e-101
1.37053e-105
1.56812e-109
1.60137e-113
1.4639e-117
1.13975e-121
7.53687e-126
4.19397e-130
1.87111e-134
6.4918e-139
1.6826e-143
3.36207e-148
1.43391e-152
2.90478e-157
1.30193e-85
1.883e-89
2.6399e-93
3.80289e-97
5.11737e-101
6.32445e-105
7.49394e-109
7.86382e-113
7.37097e-117
6.1702e-121
4.39666e-125
2.66154e-129
1.35461e-133
5.52562e-138
1.75226e-142
4.17257e-147
2.45278e-151
7.39034e-156
1.24802e-160
9.82165e-89
1.33423e-92
1.74869e-96
2.35176e-100
2.93469e-104
3.36058e-108
3.67279e-112
3.54844e-116
3.06599e-120
2.35643e-124
1.54013e-128
8.55298e-133
3.98579e-137
1.48741e-141
4.31602e-146
1.90053e-150
1.13219e-154
3.92213e-159
6.19772e-164
6.33926e-92
8.17713e-96
1.01146e-99
1.27965e-103
1.49043e-107
1.59133e-111
1.61158e-115
1.43916e-119
1.14829e-123
8.12469e-128
4.88067e-132
2.49392e-136
1.06517e-140
3.63716e-145
1.89604e-149
1.2332e-153
4.61493e-158
1.44579e-162
2.19768e-167
3.49783e-95
4.33096e-99
5.10483e-103
6.11537e-107
6.69057e-111
6.6993e-115
6.3154e-119
5.23285e-123
3.87082e-127
2.52787e-131
1.39842e-135
6.57208e-140
2.57426e-144
1.32247e-148
8.31071e-153
5.5456e-157
2.35543e-161
5.01192e-166
6.85533e-171
1.64884e-98
1.98071e-102
2.2462e-106
2.56673e-110
2.6543e-114
2.5032e-118
2.20633e-122
1.70239e-126
1.172e-130
7.08095e-135
3.6139e-139
1.56465e-143
5.63192e-148
6.26883e-152
4.32054e-156
2.05358e-160
8.4435e-165
2.09956e-169
2.33456e-174
6.64546e-102
7.82592e-106
8.62037e-110
9.45634e-114
9.29791e-118
8.30726e-122
6.87533e-126
4.95776e-130
3.18064e-134
1.78162e-138
8.39934e-143
3.36347e-147
3.60944e-151
2.44173e-155
1.79369e-159
8.40676e-164
2.59963e-168
5.61245e-173
5.83524e-178
2.29497e-105
2.67628e-109
2.88998e-113
3.05981e-117
2.87665e-121
2.44736e-125
1.90955e-129
1.29098e-133
7.74484e-138
4.02916e-142
1.75893e-146
1.3119e-150
1.53298e-154
1.10038e-158
5.82177e-163
2.83111e-167
8.78166e-172
1.40913e-176
1.25983e-181
6.80818e-109
7.93776e-113
8.47497e-117
8.71518e-121
7.87675e-125
6.40342e-129
4.7271e-133
3.00456e-137
1.6903e-141
8.17922e-146
6.62207e-150
7.6846e-154
5.29278e-158
4.15624e-162
2.03979e-166
7.54438e-171
2.1852e-175
3.96289e-180
2.96855e-185
1.74231e-112
2.04932e-116
2.179e-120
2.18913e-124
1.91139e-128
1.49202e-132
1.04547e-136
6.262e-141
3.30177e-145
2.87281e-149
2.44498e-153
2.77387e-157
2.18427e-161
1.19379e-165
6.30484e-170
2.18142e-174
4.72857e-179
7.56802e-184
5.06455e-189
3.86881e-116
4.6287e-120
4.93067e-124
4.86567e-128
4.12138e-132
3.10022e-136
2.06718e-140
1.1684e-144
1.00175e-148
1.00793e-152
1.21005e-156
8.69005e-161
6.978e-165
3.77998e-169
1.47847e-173
5.03929e-178
1.16371e-182
1.50022e-187
8.49564e-193
7.50289e-120
9.19654e-124
9.87624e-128
9.61763e-132
7.93229e-136
5.75838e-140
3.65924e-144
2.55789e-148
3.59241e-152
3.85085e-156
3.62474e-160
3.19875e-164
1.8081e-168
1.00555e-172
3.87007e-177
9.71549e-182
2.03558e-186
2.43583e-191
1.09964e-196
1.2825e-123
1.61955e-127
1.76054e-131
1.69824e-135
1.36752e-139
9.60542e-144
5.83421e-148
1.09606e-151
1.09943e-155
1.40852e-159
9.98008e-164
8.43939e-168
5.22433e-172
2.16835e-176
8.04566e-181
2.19631e-185
3.6058e-190
3.36932e-195
1.28734e-200
1.95626e-127
2.55279e-131
2.81456e-135
2.69627e-139
2.12266e-143
1.44721e-147
2.74306e-151
3.20139e-155
4.2073e-159
3.68592e-163
3.4204e-167
1.9741e-171
1.1831e-175
5.24428e-180
1.48184e-184
3.60588e-189
5.40237e-194
4.18275e-199
1.14416e-204
2.70563e-131
3.64087e-135
4.0772e-139
3.88347e-143
2.99812e-147
5.07873e-151
8.56995e-155
8.67208e-159
1.203e-162
1.00624e-166
7.77798e-171
5.51959e-175
2.41898e-179
9.83743e-184
3.11072e-188
5.88464e-193
6.12211e-198
4.25439e-203
1.52937e-208
3.48946e-135
4.77289e-139
5.41622e-143
5.14278e-147
7.86584e-151
1.85982e-154
2.23253e-158
3.27693e-162
2.92021e-166
2.95525e-170
1.74324e-174
1.13951e-178
5.83321e-183
1.70346e-187
4.55128e-192
7.51502e-197
8.44423e-202
8.21705e-207
6.16223e-212
4.41962e-139
5.87693e-143
6.73432e-147
1.28589e-150
3.2793e-154
4.73357e-158
7.17704e-162
7.93165e-166
8.70661e-170
6.53895e-174
4.94136e-178
2.29804e-182
1.03692e-186
3.2952e-191
6.87782e-196
1.14818e-200
2.40638e-205
4.21997e-210
3.53675e-215
)
;

boundaryField
{
    leftWall
    {
        type            zeroGradient;
    }
    rightWall
    {
        type            zeroGradient;
    }
    lowerWall
    {
        type            zeroGradient;
    }
    atmosphere
    {
        type            inletOutlet;
        inletValue      uniform 0;
        value           nonuniform List<scalar> 
46
(
0
0
0
0
0
0
0
0
0
0
0
0
0
0
0
0
0
0
0
0
5.45351e-111
6.7184e-114
1.16837e-117
6.55601e-122
2.65024e-126
8.94337e-131
4.15536e-135
4.41962e-139
5.87693e-143
6.73432e-147
1.28589e-150
3.2793e-154
4.73357e-158
7.17704e-162
7.93165e-166
8.70661e-170
6.53895e-174
4.94136e-178
2.29804e-182
1.03692e-186
3.2952e-191
6.87782e-196
1.14818e-200
2.40638e-205
4.21997e-210
3.53675e-215
)
;
    }
    defaultFaces
    {
        type            empty;
    }
}


// ************************************************************************* //
