# vtk DataFile Version 2.0
gauge_2
ASCII
DATASET POLYDATA
POINTS 43 double
0.2 0.0359992 0.005
0.2 0.0419991 0.005
0.2 0.047999 0.005
0.2 0.0607609 0.005
0.2 0.0735228 0.005
0.2 0.0862847 0.005
0.2 0.0990467 0.005
0.2 0.111809 0.005
0.2 0.124571 0.005
0.2 0.137332 0.005
0.2 0.150094 0.005
0.2 0.162856 0.005
0.2 0.175618 0.005
0.2 0.18838 0.005
0.2 0.201142 0.005
0.2 0.213904 0.005
0.2 0.226666 0.005
0.2 0.239428 0.005
0.2 0.25219 0.005
0.2 0.264952 0.005
0.2 0.277714 0.005
0.2 0.290476 0.005
0.2 0.303238 0.005
0.2 0.315999 0.005
0.2 0.328761 0.005
0.2 0.341523 0.005
0.2 0.354285 0.005
0.2 0.367047 0.005
0.2 0.379809 0.005
0.2 0.392571 0.005
0.2 0.405333 0.005
0.2 0.418095 0.005
0.2 0.430857 0.005
0.2 0.443619 0.005
0.2 0.456381 0.005
0.2 0.469143 0.005
0.2 0.481905 0.005
0.2 0.494666 0.005
0.2 0.507428 0.005
0.2 0.52019 0.005
0.2 0.532952 0.005
0.2 0.545714 0.005
0.2 0.558476 0.005
POINT_DATA 43
 FIELD attributes 1
alpha.water 1 43 float
1 1 0.999996 0.999927 0.983491 0.871672 0.533755 0.156494 0.0112761 0.000447133 2.33967e-05 1.58804e-06 1.54069e-07 7.09457e-07 2.7468e-05 0.000733042 0.00172866 0.00178856 0.000978497 0.000212374 5.89795e-08 1.52454e-08 8.92695e-09 1.54406e-11 6.27518e-12 6.26282e-14 7.74359e-16 2.88505e-16 3.55447e-16 9.9462e-17 7.69367e-18 3.32776e-20 -2.15505e-22 7.35473e-25 5.36006e-27 5.40232e-30 1.43277e-32 1.15729e-35 8.84963e-40 1.40266e-42 3.62618e-46 2.65724e-50 7.41405e-54
