# vtk DataFile Version 2.0
gauge_2
ASCII
DATASET POLYDATA
POINTS 43 double
0.2 0.0359992 0.005
0.2 0.0419991 0.005
0.2 0.047999 0.005
0.2 0.0607609 0.005
0.2 0.0735228 0.005
0.2 0.0862847 0.005
0.2 0.0990467 0.005
0.2 0.111809 0.005
0.2 0.124571 0.005
0.2 0.137332 0.005
0.2 0.150094 0.005
0.2 0.162856 0.005
0.2 0.175618 0.005
0.2 0.18838 0.005
0.2 0.201142 0.005
0.2 0.213904 0.005
0.2 0.226666 0.005
0.2 0.239428 0.005
0.2 0.25219 0.005
0.2 0.264952 0.005
0.2 0.277714 0.005
0.2 0.290476 0.005
0.2 0.303238 0.005
0.2 0.315999 0.005
0.2 0.328761 0.005
0.2 0.341523 0.005
0.2 0.354285 0.005
0.2 0.367047 0.005
0.2 0.379809 0.005
0.2 0.392571 0.005
0.2 0.405333 0.005
0.2 0.418095 0.005
0.2 0.430857 0.005
0.2 0.443619 0.005
0.2 0.456381 0.005
0.2 0.469143 0.005
0.2 0.481905 0.005
0.2 0.494666 0.005
0.2 0.507428 0.005
0.2 0.52019 0.005
0.2 0.532952 0.005
0.2 0.545714 0.005
0.2 0.558476 0.005
POINT_DATA 43
 FIELD attributes 1
alpha.water 1 43 float
1 1 1 1 0.860768 0.379858 0.0190914 6.59226e-05 0.000118242 5.41516e-05 1.92106e-10 9.30844e-11 4.16809e-09 4.1535e-09 9.24819e-12 4.25403e-12 9.11853e-13 1.50969e-13 3.28048e-14 1.53639e-15 1.60133e-16 2.74543e-17 4.63521e-18 5.7747e-19 5.46603e-20 5.38001e-21 4.68283e-22 3.85543e-23 6.46033e-24 1.20663e-24 2.20486e-25 3.74421e-26 5.70042e-27 7.78418e-28 9.56777e-29 1.05137e-29 1.00711e-30 7.95667e-32 4.72107e-33 1.8682e-34 4.35078e-36 4.45013e-38 7.53155e-41
