/*--------------------------------*- C++ -*----------------------------------*\
| =========                 |                                                 |
| \\      /  F ield         | OpenFOAM: The Open Source CFD Toolbox           |
|  \\    /   O peration     | Version:  2012                                  |
|   \\  /    A nd           | Website:  www.openfoam.com                      |
|    \\/     M anipulation  |                                                 |
\*---------------------------------------------------------------------------*/
FoamFile
{
    version     2.0;
    format      ascii;
    class       volScalarField;
    location    "0.68";
    object      maxKappa;
}
// * * * * * * * * * * * * * * * * * * * * * * * * * * * * * * * * * * * * * //

dimensions      [0 0 0 0 0 0 0];


internalField   nonuniform List<scalar> 
2268
(
7.91642e-08
9.13208e-08
1.80809e-07
4.0135e-07
7.00866e-07
9.42955e-07
1.22121e-06
1.65462e-06
2.08077e-06
2.51252e-06
2.95085e-06
3.3589e-06
3.63968e-06
3.79179e-06
3.84918e-06
3.85263e-06
3.85263e-06
3.7632e-06
3.52894e-06
3.15619e-06
2.52424e-06
1.82166e-06
8.95995e-07
1.05244e-07
1.20929e-07
2.36477e-07
4.54151e-07
7.23679e-07
9.55195e-07
1.24988e-06
1.68377e-06
2.08291e-06
2.51471e-06
2.9681e-06
3.36303e-06
3.64719e-06
3.81745e-06
3.88327e-06
3.88327e-06
3.88199e-06
3.78271e-06
3.55817e-06
3.23485e-06
2.70835e-06
2.21232e-06
1.41355e-06
9.35168e-08
9.35168e-08
2.0183e-07
4.14867e-07
6.68812e-07
9.18261e-07
1.26967e-06
1.73705e-06
2.16024e-06
2.61004e-06
3.04993e-06
3.41573e-06
3.67614e-06
3.84852e-06
3.92221e-06
3.92459e-06
3.92459e-06
3.81246e-06
3.57806e-06
3.25358e-06
2.7384e-06
2.29236e-06
1.55662e-06
1.2812e-07
1.29522e-07
3.09627e-07
5.49089e-07
7.6221e-07
9.87784e-07
1.36378e-06
1.79754e-06
2.17954e-06
2.62273e-06
3.0653e-06
3.45865e-06
3.76327e-06
3.96359e-06
4.02918e-06
4.02918e-06
4.01274e-06
3.89898e-06
3.69501e-06
3.42128e-06
2.96521e-06
2.6148e-06
2.06058e-06
8.66006e-08
8.66006e-08
2.58916e-07
4.92503e-07
6.80792e-07
9.32027e-07
1.38619e-06
1.87287e-06
2.31681e-06
2.8033e-06
3.23065e-06
3.58936e-06
3.84768e-06
4.01853e-06
4.08101e-06
4.09562e-06
4.09562e-06
3.9972e-06
3.82467e-06
3.6005e-06
3.25096e-06
3.04715e-06
2.47974e-06
1.20465e-07
1.40976e-07
3.76848e-07
6.54905e-07
8.56274e-07
1.11565e-06
1.56265e-06
1.96659e-06
2.33696e-06
2.81437e-06
3.26573e-06
3.68596e-06
4.0194e-06
4.20924e-06
4.24144e-06
4.24144e-06
4.23422e-06
4.14203e-06
3.9935e-06
3.80618e-06
3.57496e-06
3.57496e-06
3.0375e-06
1.29289e-07
1.45205e-07
3.21872e-07
5.66933e-07
7.53032e-07
1.04704e-06
1.54981e-06
2.04344e-06
2.55231e-06
3.10028e-06
3.5297e-06
3.89157e-06
4.14512e-06
4.28041e-06
4.30664e-06
4.36593e-06
4.36593e-06
4.31379e-06
4.22097e-06
4.08362e-06
4.32281e-06
4.32281e-06
3.68561e-06
7.22321e-07
6.84387e-07
8.37338e-07
9.23041e-07
1.05356e-06
1.35994e-06
1.825e-06
2.22539e-06
2.64004e-06
3.10719e-06
3.55816e-06
4.04936e-06
4.40742e-06
4.52948e-06
4.52948e-06
4.51818e-06
4.51818e-06
4.48571e-06
4.39577e-06
4.33385e-06
5.08491e-06
5.08491e-06
4.58762e-06
0.000298734
0.000507845
0.000684581
0.00069621
0.00069621
0.000638637
0.000355774
0.000265722
0.000319797
0.000364354
0.000387318
0.000401654
0.000401654
0.000400225
0.000388391
0.000377086
0.000370092
0.000334406
0.000240774
0.00024957
0.000281023
0.000307231
0.000376736
0.000376736
0.000358197
0.000226538
0.000219183
0.000279506
0.00038774
0.000501894
0.000583874
0.000615261
0.000615261
0.000567098
0.000455028
0.000379327
0.000283393
0.000225614
0.000286789
0.000426726
0.000444609
0.000444609
0.000346768
0.00022556
9.35517e-05
0.000246416
0.000529402
0.00068311
0.000938057
0.00127699
0.00151183
0.00151288
0.00151288
0.00139452
0.00123636
0.000811107
0.000387098
0.000414099
0.00076323
0.00117865
0.00119238
0.00119238
0.000735211
0.000169588
6.75726e-05
0.000446153
0.000636834
0.000636834
0.000579331
0.000492407
0.00100627
0.0015068
0.00188036
0.00188036
0.00146898
0.00077774
0.000499492
0.000979513
0.00100053
0.00100053
0.000797424
0.000633011
0.000229113
3.40798e-05
6.37763e-05
0.000229919
0.000536516
0.000980235
0.0013437
0.0013437
0.00119063
0.000806957
0.000890495
0.000890495
0.000840859
0.000531922
0.00112608
0.00112608
0.000875655
0.000485325
0.000373536
9.54787e-05
3.38486e-05
4.39153e-05
5.37069e-05
6.51687e-05
0.000114372
0.000338391
0.000710595
0.00119314
0.00153136
0.00153136
0.00114895
0.000686342
0.000532658
0.00101017
0.00101017
0.000728813
0.000619076
0.00039726
7.15056e-05
3.6879e-05
5.12528e-05
5.8782e-05
5.88264e-05
6.3046e-05
6.63563e-05
7.46228e-05
0.000140332
0.000466128
0.000815155
0.000847723
0.000847723
0.000762279
0.0010665
0.0010665
0.00081195
0.000579992
0.000146018
5.17318e-05
8.0137e-05
0.000283043
0.000448813
0.000448813
0.000440267
0.000345736
0.00029511
0.00023614
0.000191183
0.000248979
0.000614557
0.000614557
1.71673e-05
4.68386e-05
7.46861e-05
0.000114953
0.000108046
6.94285e-05
4.6912e-05
3.4979e-05
2.58334e-05
1.03867e-05
9.32513e-06
8.0521e-06
6.31174e-06
4.64744e-06
4.60603e-06
4.69412e-06
5.13552e-06
4.91967e-06
5.08601e-06
5.09668e-06
6.40891e-06
8.49412e-06
1.18863e-05
7.97869e-05
0.000124739
0.000205709
0.000260266
0.000260266
0.000212828
0.000142025
0.000133521
0.00012232
0.000123353
0.000109645
8.4914e-05
5.82318e-05
2.03491e-05
1.21629e-05
8.54039e-06
6.74917e-06
5.26301e-06
5.37047e-06
6.10016e-06
7.60519e-06
1.0616e-05
1.18863e-05
0.000127119
0.00013709
0.000151096
0.000179371
0.000176603
0.000152408
0.000156992
0.000182661
0.000200819
0.000248628
0.000283999
0.000287124
0.000279719
0.000238751
0.000168427
0.000119407
9.75578e-05
4.43957e-05
1.80664e-05
7.66956e-06
8.11639e-06
6.84784e-06
1.06263e-05
8.6993e-05
8.92264e-05
0.000101997
8.68098e-05
8.63769e-05
0.000141049
0.000184666
0.000221441
0.000265636
0.00032709
0.000376039
0.000404276
0.000426301
0.000459794
0.000481902
0.00047964
0.000457426
0.00039665
0.000346683
0.000336731
0.000280867
0.000106077
3.03871e-05
0.000118154
0.000118255
0.000118255
0.000117391
0.000136605
0.000159025
0.000186893
0.000229872
0.000272874
0.000310289
0.000365572
0.000434747
0.000508261
0.000597766
0.000710432
0.000825023
0.000917157
0.00109102
0.00130792
0.00160736
0.00149517
0.00106413
0.000768373
0.000115239
0.000116263
0.00012183
0.000123891
0.000144426
0.000179338
0.000210181
0.000239865
0.000276655
0.000322009
0.000373954
0.00043596
0.000517497
0.000663041
0.00085508
0.00105566
0.00135576
0.00175696
0.00211757
0.00236375
0.00236375
0.00204671
0.00160682
0.000136106
0.000137786
0.000143483
0.00014954
0.000166231
0.00018721
0.000210507
0.000237783
0.000270427
0.000308042
0.000344779
0.000383056
0.00044057
0.000549504
0.000724292
0.00102816
0.00143316
0.00177993
0.00199582
0.00219964
0.00236145
0.00226103
0.00194118
0.000149213
0.000151113
0.000157293
0.000163339
0.00017912
0.00020148
0.000226251
0.0002539
0.000286546
0.000323771
0.000365672
0.000412337
0.00048146
0.000586635
0.000727851
0.000908241
0.00112667
0.00140976
0.00158652
0.00166116
0.00204438
0.00196062
0.00165077
0.000166538
0.000168226
0.000173499
0.000179602
0.000192605
0.000209009
0.000228468
0.000251605
0.00027993
0.000313344
0.000352919
0.000398422
0.000459119
0.000545334
0.000661226
0.000816248
0.000963504
0.00109728
0.00105065
0.000920437
0.00132759
0.00151564
0.00150133
0.000178904
0.000180714
0.000186194
0.000192547
0.000204996
0.000221479
0.000241291
0.000264104
0.000291399
0.000322431
0.000358247
0.000399194
0.000449761
0.000514095
0.000591132
0.000684477
0.000822998
0.000928533
0.000838069
0.00066585
0.0007618
0.00118637
0.00138569
0.000192126
0.00019383
0.00019882
0.000204579
0.000214507
0.000227439
0.000243663
0.000262892
0.000286573
0.000314505
0.000346663
0.000384072
0.00042819
0.000483422
0.000551614
0.000630455
0.000713392
0.000794153
0.000788283
0.000732471
0.00062905
0.000756533
0.00110987
0.000202521
0.000204216
0.000208647
0.000213821
0.000223709
0.000236136
0.000251687
0.000269629
0.00029095
0.000315752
0.000343891
0.000375735
0.000412427
0.000454451
0.000502437
0.000560696
0.000630496
0.00070642
0.000744312
0.000752259
0.000763878
0.000709922
0.000715621
0.000212189
0.000213593
0.0002174
0.000222015
0.000229289
0.000239196
0.000251814
0.000266605
0.00028423
0.000305128
0.000329256
0.000357347
0.000389872
0.000427202
0.000470361
0.000516944
0.000567296
0.00062659
0.000677415
0.000728683
0.000793496
0.000822526
0.000754503
0.000219909
0.000221036
0.000224176
0.000228222
0.000235924
0.000244943
0.000256379
0.000269587
0.000284889
0.000302626
0.000322922
0.000345914
0.00037252
0.000402069
0.000436106
0.000476594
0.00051771
0.000570897
0.000615055
0.000674049
0.000758728
0.000822526
0.00081373
0.000226548
0.000227474
0.000230122
0.000233629
0.000238004
0.000245043
0.000253525
0.000263733
0.000275622
0.000289791
0.000306324
0.000326554
0.00034762
0.000375672
0.000402264
0.000439242
0.000472488
0.000518667
0.000558916
0.00061021
0.000663503
0.000756094
0.00078799
0.000231919
0.000232566
0.000234624
0.000237628
0.00024289
0.000248592
0.000256008
0.000264501
0.000274313
0.00028572
0.000298838
0.000313401
0.000330547
0.000352429
0.000373657
0.000405371
0.000433604
0.000472853
0.000508506
0.000553559
0.000596028
0.000661331
0.000719858
0.000236495
0.000236904
0.000238513
0.000240805
0.000242583
0.000247442
0.000250552
0.000258953
0.000263973
0.000275422
0.000283338
0.000297986
0.000309131
0.000328635
0.000345117
0.000371359
0.00039564
0.000429759
0.000462775
0.000504479
0.000542029
0.000591599
0.000642044
0.000240471
0.000240582
0.000241691
0.000243274
0.000246015
0.000248649
0.000252398
0.000256278
0.000260509
0.000267257
0.000271155
0.000282234
0.000289401
0.000304547
0.000317489
0.000338749
0.000360002
0.000389472
0.000419785
0.000458315
0.000495069
0.000537961
0.000582795
0.000244226
0.000244079
0.000244742
0.000245649
0.000245291
0.000247455
0.000247054
0.000252499
0.000251702
0.000258215
0.000258528
0.000266121
0.000269375
0.000280196
0.000289583
0.000306519
0.000325273
0.000351971
0.000381141
0.000418446
0.000456711
0.000498881
0.000545671
0.000248464
0.000248137
0.00024823
0.000248327
0.000247251
0.000247336
0.000246874
0.000248651
0.000245972
0.000248832
0.000245671
0.000249444
0.000248869
0.000255396
0.000261256
0.000274316
0.000290685
0.000315126
0.000344171
0.000382837
0.000424223
0.000470148
0.00051276
0.000253245
0.000252906
0.00025226
0.000251663
0.00024935
0.000248088
0.000243696
0.000244376
0.000238605
0.000238777
0.000232323
0.000232084
0.0002274
0.000229726
0.000231599
0.000241423
0.00025586
0.000279424
0.000309014
0.000350121
0.00039657
0.000447792
0.000488325
0.000259765
0.000259513
0.000258109
0.000256901
0.000253696
0.000250778
0.000247043
0.000242901
0.000236984
0.00023007
0.000221689
0.000215144
0.000205555
0.000202931
0.000199884
0.000206246
0.000218937
0.000242582
0.000278237
0.000324112
0.000375334
0.000430868
0.000470757
0.000268192
0.000268024
0.000265983
0.000264263
0.000260253
0.00025607
0.000248717
0.000241899
0.000229768
0.000222127
0.000207974
0.000198273
0.000182872
0.000174041
0.000164365
0.000166051
0.000176696
0.000201577
0.000239326
0.000292273
0.000351688
0.000415449
0.000457297
0.000279364
0.000279244
0.000276892
0.00027497
0.000270597
0.000265791
0.000257973
0.000249664
0.000239728
0.000227866
0.000212605
0.00019439
0.000172871
0.000148963
0.000127627
0.000120496
0.000127184
0.000154644
0.00020523
0.000266058
0.000333267
0.000404575
0.00044769
0.000293517
0.000293383
0.000291065
0.000289116
0.000284714
0.000279729
0.0002719
0.000263101
0.000249887
0.000236186
0.000215649
0.000195197
0.000165928
0.000137189
0.0001037
7.39115e-05
6.56616e-05
0.000100447
0.000161455
0.000230403
0.000304852
0.000383648
0.000434974
0.000310789
0.000310703
0.000308746
0.000307069
0.000303148
0.000298649
0.000291567
0.000283364
0.000271336
0.000258291
0.000239325
0.000219858
0.00019317
0.00016674
0.000133141
0.000103918
7.93279e-05
9.59754e-05
0.000154175
0.00022393
0.00030082
0.00038395
0.000433388
0.000331461
0.000331473
0.000329981
0.000328676
0.000325419
0.000321654
0.000315629
0.000308532
0.000298262
0.000286956
0.000271096
0.000254919
0.000233629
0.000213351
0.000189262
0.000171717
0.00016025
0.000169319
0.000199051
0.000247518
0.000316021
0.000396475
0.000460181
0.000355106
0.000355339
0.000354504
0.000353865
0.000351634
0.00034904
0.000344577
0.000339198
0.000331337
0.000322511
0.000310443
0.000298207
0.000282926
0.000269423
0.000255275
0.000247893
0.000246392
0.000260548
0.000288138
0.00033017
0.000379269
0.000447677
0.000511589
0.000382383
0.000382816
0.000382542
0.000382524
0.000381267
0.000379856
0.000376933
0.000373366
0.00036798
0.000361977
0.000354177
0.000346779
0.000338557
0.000332826
0.000329008
0.000331291
0.000341558
0.000365739
0.000400856
0.000441664
0.000485526
0.00054431
0.000600066
0.000411978
0.000412764
0.000413291
0.000414273
0.000414355
0.000414537
0.000413589
0.000412419
0.000410159
0.000407796
0.000404877
0.000402716
0.000401667
0.000403852
0.000411648
0.000428894
0.000457511
0.000496777
0.000533079
0.00056967
0.00061395
0.000667904
0.000721893
0.000445365
0.000446451
0.000447608
0.000449402
0.000450594
0.000452321
0.000453328
0.00045471
0.000455618
0.000457183
0.000459411
0.000463834
0.000472141
0.000486017
0.000509602
0.000545964
0.000595867
0.000637375
0.000659685
0.00069329
0.000737761
0.000793783
0.000849785
0.000480089
0.000481599
0.000483623
0.000486709
0.000489668
0.000493694
0.000497387
0.000502128
0.000507113
0.000513884
0.00052279
0.00053587
0.000555347
0.000583998
0.000629293
0.000684593
0.000729917
0.000739193
0.000755603
0.0007972
0.000849331
0.000910649
0.000972926
0.000518634
0.00052058
0.000523448
0.000527836
0.000532405
0.00053842
0.000544474
0.000552531
0.000561558
0.000573936
0.00058972
0.000612243
0.000644319
0.000691492
0.000754595
0.000810543
0.000816223
0.000804415
0.000836098
0.000885051
0.000947557
0.00101564
0.00108788
0.000557429
0.000559803
0.000563534
0.00056931
0.000575801
0.000584639
0.000594449
0.00060753
0.000622432
0.000642203
0.000666886
0.000702028
0.000749821
0.000813098
0.000873936
0.000886266
0.00085182
0.000860249
0.000901578
0.000958418
0.0010294
0.00110753
0.00119117
0.000599233
0.000602253
0.000607287
0.000615154
0.000624403
0.000636645
0.000650114
0.00066713
0.000686272
0.000711926
0.000744465
0.00079111
0.000851203
0.000919637
0.000956937
0.000916781
0.000883324
0.00090619
0.000954863
0.00102321
0.00110247
0.00118943
0.0012809
0.000640698
0.000644194
0.000650181
0.000659435
0.00067048
0.000685158
0.000701799
0.000723253
0.000748467
0.000782385
0.000824255
0.000881983
0.00094747
0.00100659
0.000993178
0.000942213
0.00090282
0.000938345
0.000997444
0.00107613
0.00116696
0.00126754
0.0013598
0.000682695
0.000687031
0.000694886
0.000707109
0.00072191
0.000741102
0.000763177
0.000790916
0.000823199
0.000864111
0.000914124
0.000980225
0.00104487
0.00107508
0.00102154
0.000954095
0.000920582
0.000963272
0.00103307
0.00112099
0.00122253
0.00133419
0.00142618
0.000724175
0.000729124
0.000738216
0.000752193
0.000769181
0.00079115
0.000816588
0.000848635
0.00088707
0.000935969
0.000997971
0.00107192
0.00112804
0.00111031
0.00103788
0.000940586
0.000916618
0.00096974
0.00105249
0.0011524
0.00126605
0.00138886
0.00148021
0.000762142
0.000768249
0.000779567
0.000796477
0.000817386
0.000844663
0.000876969
0.000917018
0.000964539
0.00102308
0.00109243
0.00115906
0.00118494
0.00113815
0.00104301
0.000935186
0.000921667
0.000982633
0.0010726
0.00118006
0.0013018
0.00143275
0.00152566
0.000797926
0.000804562
0.000816893
0.00083719
0.000866223
0.000901714
0.000943661
0.000992002
0.00104746
0.00111005
0.00116891
0.00122333
0.00123037
0.00114387
0.00100617
0.000888805
0.000898885
0.000977728
0.00108321
0.00120296
0.00133423
0.00147322
0.0015582
0.000829028
0.00083638
0.000850015
0.000871235
0.000899571
0.000937434
0.000983074
0.00103934
0.00110401
0.00117885
0.00125558
0.00130848
0.00128215
0.0011868
0.0010298
0.000900292
0.000899702
0.000981969
0.00109053
0.00121483
0.00135018
0.00149352
0.00159342
0.00085002
0.000862487
0.000883282
0.00091274
0.000951838
0.00100116
0.00106135
0.00113239
0.00121202
0.00129106
0.0013477
0.0013477
0.00133398
0.00118519
0.000958444
0.000833864
0.000880776
0.000986522
0.00111192
0.00124756
0.00139146
0.00154072
0.00159342
1.04893e-05
3.43702e-05
0.000221946
0.000546589
1.27066e-05
7.85829e-05
0.000227362
0.000558533
1.27066e-05
2.53457e-05
0.000183101
0.0004363
2.13724e-05
2.222e-05
2.26343e-05
5.83616e-05
0.000462184
0.000367498
0.000263974
0.000216962
0.0014299
0.00121858
0.00103311
0.000850613
0.0015642
0.00157637
0.00154919
0.00132002
0.0015642
0.00157637
0.00154919
0.00132002
0.00131196
0.00100044
0.000990449
0.000924455
0.00123505
0.00128779
0.00121155
0.0008789
0.00123106
0.00128779
0.00122442
0.0012501
0.00102133
0.00114515
0.00122442
0.0012501
0.000729619
0.000719136
0.000886658
0.00102783
0.000773555
0.000762947
0.000677826
0.000669973
0.000773555
0.000762947
0.000682431
0.000660892
0.000719292
0.000716423
0.000682431
0.000660892
0.000662015
0.00067359
0.000666557
0.000652793
0.000600963
0.000618104
0.000625131
0.000631913
0.000568077
0.000586074
0.000600861
0.000612722
0.000542863
0.000563116
0.000583959
0.000602292
0.000524664
0.000548106
0.000571983
0.00059577
0.000512814
0.000539735
0.000566963
0.000596151
0.000504672
0.000534993
0.000570047
0.000604046
0.000501165
0.000534993
0.000571036
0.000608498
0.000494353
0.000531713
0.000573854
0.000614461
0.000497065
0.000538087
0.000581449
0.000623071
0.000518267
0.000556972
0.000598684
0.000639255
0.00055888
0.000593008
0.000630936
0.000667152
0.000638481
0.000666555
0.000698863
0.000726786
0.000757107
0.000779651
0.00080695
0.000827608
0.000886366
0.00090796
0.000933897
0.000954522
0.00101529
0.00104108
0.00106894
0.00109505
0.00113795
0.00116969
0.00120166
0.00123405
0.00125092
0.00128972
0.00132788
0.00136666
0.00135222
0.001398
0.00144294
0.001487
0.00144191
0.00149357
0.00154446
0.00159255
0.00151756
0.00157439
0.00163064
0.00168265
0.00157957
0.00164082
0.00170176
0.00175755
0.00163194
0.0016967
0.00176149
0.00182056
0.00167009
0.00173768
0.00180553
0.00186752
0.00170914
0.00177875
0.00184857
0.00191266
0.00170914
0.00177875
0.00184857
0.00191266
0.00106022
0.00106022
0.000737257
0.000524483
0.000259187
7.17519e-05
0.000232682
0.000570198
0.000826691
0.00100886
0.00113596
0.00121866
0.00126436
0.00128678
0.00128678
0.00115955
0.000750717
0.000585453
0.000317843
0.00102829
0.00076
0.000419662
0.000132272
4.51078e-05
0.000143463
0.000695237
0.000734621
0.000734621
0.000743789
0.000896796
0.00102602
0.00114635
0.00120397
0.00120397
0.00115114
0.00130056
0.00103671
0.000432878
0.000633874
0.000263076
5.78615e-05
2.60648e-05
7.97274e-05
0.000625893
0.000732372
0.000793101
0.000801531
0.000932119
0.000897379
0.000868014
0.000994922
0.00110023
0.0012132
0.00146592
0.00171175
0.00131965
0.000465549
8.48097e-05
2.67373e-05
1.95072e-05
7.14579e-05
0.000357428
0.000665088
0.00091607
0.0012119
0.00142832
0.00160474
0.00170013
0.00179441
0.00189583
0.00204041
0.00221887
0.00222102
0.00222102
0.00121152
0.000384435
9.47846e-05
0.0001249
0.000133522
0.000399988
0.00054635
0.00091019
0.00148783
0.00163665
0.00166669
0.00166669
0.00173287
0.00187171
0.00198281
0.00198281
0.00197467
0.00181831
0.00152259
0.00112956
0.000466411
0.000591336
0.000429603
0.000497416
0.000690493
0.00107451
0.00165917
0.00175591
0.00180976
0.00180976
0.00178731
0.00164612
0.00156906
0.00150602
0.00139261
0.00127319
0.000887946
0.000654941
0.00092249
0.000445757
0.000917061
0.00069361
0.00106519
0.00113762
0.00157777
0.00173682
0.00173682
0.00169138
0.00147176
0.00125339
0.00114017
0.00114834
0.00110363
0.00093256
0.000709791
0.000560315
0.000773902
0.000920996
0.000433901
0.00111593
0.00113911
0.00136824
0.00146388
0.00146388
0.00141456
0.00143578
0.00116231
0.000827928
0.000765367
0.000615039
0.000536555
0.000659991
0.000635766
0.000727632
0.000727632
0.000604911
0.000780335
0.000325776
0.000903448
0.00115533
0.00133406
0.00133406
0.00124888
0.00118733
0.00103088
0.000627087
0.000515195
0.000550444
0.000519664
0.000471618
0.000554503
0.000636323
0.00071566
0.00071566
0.000667264
0.00060804
0.000283937
0.000609813
0.000556924
0.000571365
0.000934334
0.000969672
0.000936608
0.000518799
0.000346183
0.000311322
0.000253311
0.000408114
0.000383185
0.000382964
0.000365995
0.000337249
0.000368472
0.000497353
0.000506974
0.000269332
0.001108
0.000765164
0.000461872
0.000382061
0.000427654
0.000511942
0.000298106
0.000208848
0.000246125
0.000285614
0.000307645
0.000359719
0.000252647
0.000108826
6.82916e-05
6.85008e-05
0.000146704
0.000308886
0.000190923
0.00125356
0.00125356
0.00103497
0.000553859
0.000400376
0.000346382
0.000321478
0.000360234
0.000519216
0.000640572
0.000636518
0.000363642
0.000468945
0.00059563
0.000379246
7.98321e-05
5.23865e-05
6.47338e-05
7.05918e-05
0.00118543
0.00118543
0.00114358
0.00105281
0.00100524
0.000814581
0.000779856
0.000799449
0.000853269
0.000866224
0.000866224
0.000835379
0.000990284
0.00099063
0.00100235
0.00031347
7.34149e-05
4.72868e-05
3.5937e-05
0.000589576
0.000751692
0.000753414
0.000747654
0.00074218
0.000894339
0.00100681
0.00101865
0.00101865
0.000996586
0.00108623
0.00119858
0.00137556
0.00139635
0.00151819
0.00100457
0.000146387
6.1225e-05
4.17932e-05
0.000600817
0.000594312
0.000364847
0.000364684
0.000673595
0.000949529
0.00110145
0.00115198
0.00115198
0.00111466
0.00126298
0.00157021
0.00181906
0.00199781
0.00199781
0.0016607
0.00085984
0.000339982
0.000133103
0.000606713
0.000545015
0.000351543
0.000327381
0.000551052
0.000737571
0.000849452
0.000933317
0.00096847
0.0010048
0.00114836
0.00141156
0.00179845
0.00222741
0.00222741
0.00210161
0.00172527
0.00121302
0.000750632
0.000668413
0.000668413
0.000594873
0.000591723
0.00064612
0.000594894
0.000510744
0.000635807
0.00073648
0.000724456
0.000792918
0.000925286
0.0015245
0.00213035
0.00213035
0.00204877
0.00190748
0.00173453
0.00134765
0.000686962
0.000690653
0.000731671
0.000823285
0.000869679
0.000878043
0.000791963
0.000604884
0.000533427
0.000403372
0.000346901
0.000400168
0.0011889
0.00199826
0.00203833
0.00203833
0.00181117
0.00165001
0.00159361
0.000719731
0.000764444
0.000836233
0.000961817
0.0010884
0.00111557
0.00111557
0.00104502
0.000899275
0.000701037
0.000644438
0.00062996
0.000947776
0.0014837
0.00186523
0.00186523
0.0018425
0.00161093
0.00152826
0.000719691
0.00078122
0.000860669
0.000975168
0.00111673
0.00120156
0.00120404
0.00120404
0.00115199
0.00105168
0.000951767
0.000901238
0.00091318
0.00110329
0.00157708
0.00171277
0.00171277
0.00176706
0.00136033
0.00073807
0.000811151
0.000894501
0.000995413
0.0011187
0.00122002
0.0012592
0.0012592
0.00124346
0.00118722
0.00111764
0.00104909
0.000996175
0.000914999
0.0012028
0.00159184
0.00178526
0.00189201
0.0014561
0.000743683
0.000821162
0.000902838
0.000991816
0.00109159
0.00118355
0.00123585
0.00124101
0.00124101
0.00121201
0.00116259
0.00110587
0.00103094
0.000908508
0.000995233
0.00141435
0.00178747
0.0019516
0.00150145
0.000764716
0.000849955
0.000934879
0.00102146
0.0011066
0.00118529
0.0012396
0.00125209
0.00125209
0.00123381
0.00119387
0.00113825
0.00104917
0.00092686
0.000847556
0.00124394
0.00177469
0.0019516
0.00152458
0.000785999
0.000877744
0.000966648
0.00105215
0.0011276
0.00119277
0.00124129
0.00125533
0.00125533
0.00123787
0.00120286
0.00115186
0.00107304
0.000968518
0.000815047
0.00106885
0.00160111
0.00173299
0.00145802
0.00080042
0.000903304
0.00100241
0.00109464
0.00117398
0.00123324
0.00127307
0.00128772
0.00128772
0.00127092
0.00122885
0.0011711
0.00109135
0.00099662
0.000867182
0.000955956
0.00148794
0.00162988
0.00162775
0.000822078
0.00093428
0.00104176
0.00114096
0.00122661
0.00128794
0.00132252
0.00133318
0.00133318
0.00131588
0.00127077
0.0012105
0.00113118
0.00104511
0.000933369
0.000839203
0.00130354
0.00160425
0.00160425
0.000831448
0.000949137
0.00106382
0.00117102
0.00126769
0.00134363
0.00138691
0.00139901
0.00139901
0.00138311
0.0013354
0.00127072
0.00119046
0.00110838
0.00100555
0.000839902
0.00119634
0.00157121
0.00157121
0.000860521
0.000982076
0.00110261
0.00121952
0.00132499
0.00140914
0.00146213
0.00147902
0.00147902
0.00146473
0.00141694
0.00135109
0.00126932
0.0011894
0.00108294
0.00090425
0.000987216
0.00160786
0.00161356
0.000878853
0.000993833
0.00111073
0.0012298
0.00134371
0.0014479
0.00152825
0.00156305
0.00156305
0.00155731
0.00151259
0.00144401
0.00136286
0.00128559
0.00119457
0.00103859
0.000927197
0.00169693
0.00169693
0.00095985
0.00105437
0.00114551
0.00124551
0.00135321
0.0014651
0.00156999
0.00163933
0.00165519
0.00165519
0.0016193
0.00155087
0.00147013
0.00138804
0.00130132
0.00115644
0.000917799
0.00140047
0.0016313
0.00107465
0.00114672
0.00120045
0.00126064
0.00133146
0.00142419
0.00154404
0.0016686
0.0017428
0.0017428
0.00173406
0.0016673
0.00158203
0.00148944
0.00139193
0.00123549
0.000973033
0.00100404
0.00142992
0.00123471
0.00129591
0.00132615
0.00134768
0.00136593
0.00141557
0.00150608
0.00163891
0.00176817
0.00181547
0.00181547
0.00177197
0.00169082
0.00159188
0.00148661
0.00132108
0.00105071
0.000794154
0.00127766
0.00138998
0.00145183
0.00147438
0.00147438
0.0014635
0.00141418
0.0014263
0.0015603
0.0017545
0.00188593
0.00188954
0.00188954
0.00182186
0.00172287
0.00161719
0.00145156
0.00120266
0.000652371
0.00120891
0.00156122
0.00163695
0.00166472
0.00166472
0.00162824
0.00152223
0.00142437
0.00148477
0.00167909
0.001886
0.00196099
0.00196099
0.00191917
0.00182623
0.00172191
0.00157453
0.00136084
0.000758394
0.00115999
0.00171217
0.00179478
0.00182431
0.00182431
0.0017598
0.00160842
0.00145034
0.00138003
0.0015845
0.00186297
0.00203472
0.00204068
0.00204068
0.00195943
0.00186429
0.00172207
0.00154769
0.000992884
0.00113551
0.00185218
0.00194396
0.00198428
0.00198428
0.00191123
0.00175029
0.00158817
0.00140935
0.00150533
0.00178513
0.00202368
0.00209824
0.00209824
0.0020407
0.0019619
0.00184926
0.00172206
0.00127253
0.00103573
0.00196715
0.00206486
0.00211174
0.00211174
0.00203725
0.0018813
0.00172272
0.00148392
0.00133197
0.00172151
0.00201922
0.00215854
0.00215854
0.00213917
0.00206375
0.0019492
0.0017949
0.00139769
0.000930029
0.0020726
0.00217826
0.00223389
0.00223389
0.00217095
0.00203936
0.00190211
0.0016506
0.00124308
0.00148797
0.00190486
0.00211953
0.00214924
0.00214924
0.00210796
0.00201673
0.00187648
0.00151452
0.000840726
0.00215257
0.00226218
0.0023209
0.0023209
0.00226906
0.00215399
0.00203175
0.001757
0.0011752
0.00125557
0.00180725
0.00208979
0.0021603
0.0021603
0.00213988
0.00207101
0.00193232
0.00159424
0.000829547
0.00223009
0.00234472
0.00240893
0.00240893
0.00236954
0.00226805
0.00215823
0.00188248
0.00125768
0.00091943
0.00159608
0.00195479
0.00208547
0.00210721
0.00210721
0.00208322
0.00197991
0.00169237
0.000957755
0.00227303
0.00239069
0.00245648
0.00245648
0.00242288
0.00232869
0.00221847
0.00193699
0.00125053
0.000814424
0.00148379
0.00188249
0.00205724
0.00210636
0.00210636
0.00210388
0.00201394
0.00176575
0.00109481
0.00234382
0.00246588
0.00253689
0.00253689
0.00250949
0.00242358
0.00231187
0.00204778
0.0014154
0.000626746
0.00127782
0.00169353
0.00193696
0.00204715
0.0020872
0.0020872
0.0020467
0.00185184
0.00145404
)
;

boundaryField
{
    leftWall
    {
        type            calculated;
        value           uniform 0;
    }
    rightWall
    {
        type            calculated;
        value           uniform 0;
    }
    lowerWall
    {
        type            calculated;
        value           uniform 0;
    }
    atmosphere
    {
        type            calculated;
        value           uniform 0;
    }
    defaultFaces
    {
        type            empty;
    }
}


// ************************************************************************* //
