/*--------------------------------*- C++ -*----------------------------------*\
| =========                 |                                                 |
| \\      /  F ield         | OpenFOAM: The Open Source CFD Toolbox           |
|  \\    /   O peration     | Version:  2012                                  |
|   \\  /    A nd           | Website:  www.openfoam.com                      |
|    \\/     M anipulation  |                                                 |
\*---------------------------------------------------------------------------*/
FoamFile
{
    version     2.0;
    format      ascii;
    class       volScalarField;
    location    "0.68";
    object      p;
}
// * * * * * * * * * * * * * * * * * * * * * * * * * * * * * * * * * * * * * //

dimensions      [1 -1 -2 0 0 0 0];


internalField   nonuniform List<scalar> 
2268
(
101844
101847
101853
101862
101874
101888
101905
101925
101945
101969
101991
102017
102038
102065
102083
102111
102126
102153
102163
102188
102191
102210
102207
101784
101787
101793
101802
101814
101829
101846
101865
101886
101910
101932
101958
101979
102006
102025
102052
102067
102094
102104
102130
102134
102152
102150
101724
101727
101733
101742
101754
101769
101786
101806
101827
101850
101873
101899
101920
101948
101966
101994
102009
102036
102046
102072
102075
102095
102090
101663
101666
101672
101681
101694
101708
101725
101745
101767
101791
101814
101840
101862
101889
101908
101936
101951
101978
101989
102016
102020
102041
102036
101602
101605
101611
101620
101632
101647
101664
101685
101706
101731
101754
101781
101803
101831
101850
101878
101893
101921
101930
101959
101960
101985
101973
101540
101543
101549
101558
101570
101585
101603
101624
101646
101671
101695
101721
101745
101773
101792
101820
101836
101864
101875
101904
101909
101936
101923
101477
101480
101486
101495
101507
101522
101540
101561
101585
101611
101635
101662
101686
101714
101735
101762
101777
101807
101816
101849
101848
101882
101856
101415
101417
101423
101432
101445
101460
101478
101500
101523
101549
101575
101603
101628
101657
101678
101705
101721
101749
101762
101795
101800
101836
101811
102858
102092
101969
101905
101933
102084
102439
102549
102309
102097
101933
101841
101798
101808
101815
101873
101949
102450
103012
102737
101952
101890
101838
101883
102038
102475
102500
102228
102024
101867
101784
101757
101757
101758
101801
101842
102290
102758
102152
101785
101804
101767
101828
101955
102343
102499
102292
101990
101829
101750
101727
101731
101732
101741
101762
102047
102587
102050
101749
101771
101744
101778
101918
102290
102399
102106
101955
101808
101746
101732
101734
101730
101729
101727
101865
102335
101814
101736
101767
101742
101768
101819
102170
102285
102145
101929
101783
101725
101718
101729
101730
101732
101725
101730
102071
101887
101741
101766
101742
101767
101760
102103
102119
101958
101815
101722
101690
101693
101709
101718
101726
101717
101728
101995
101815
101744
101766
101742
101766
101745
101948
101966
101874
101729
101661
101637
101637
101651
101669
101698
101722
101773
102083
101803
101742
101766
101742
101756
101722
101853
101801
101691
101605
101583
101579
101581
101592
101604
101657
101773
101991
102399
101354
101355
101357
101361
101368
101378
101391
101408
101430
101455
101483
101511
101537
101566
101588
101616
101630
101661
101669
101710
101701
101770
101683
101329
101329
101329
101329
101330
101331
101334
101339
101346
101358
101376
101397
101420
101446
101470
101494
101512
101537
101559
101591
101618
101668
101701
101328
101328
101328
101329
101329
101329
101329
101329
101329
101330
101333
101339
101348
101362
101376
101390
101399
101417
101432
101469
101481
101558
101565
101328
101328
101328
101328
101328
101328
101328
101328
101328
101329
101329
101329
101330
101331
101334
101337
101339
101343
101350
101361
101375
101437
101477
101328
101328
101328
101328
101328
101328
101328
101328
101328
101328
101328
101328
101328
101329
101328
101329
101329
101329
101329
101329
101331
101368
101407
101328
101328
101328
101328
101328
101328
101328
101328
101328
101328
101328
101328
101329
101329
101329
101329
101329
101329
101328
101328
101331
101356
101340
101328
101328
101328
101328
101328
101328
101328
101328
101328
101328
101328
101328
101328
101328
101328
101328
101328
101328
101327
101326
101327
101340
101365
101328
101328
101328
101328
101328
101328
101328
101328
101328
101328
101328
101328
101328
101328
101328
101328
101328
101327
101325
101325
101325
101327
101316
101327
101327
101327
101327
101327
101327
101327
101327
101327
101327
101327
101327
101327
101327
101327
101327
101327
101326
101326
101325
101325
101325
101325
101327
101327
101327
101327
101327
101327
101327
101327
101327
101327
101327
101327
101327
101327
101327
101327
101327
101326
101326
101325
101325
101325
101325
101327
101327
101327
101327
101327
101327
101327
101327
101327
101327
101327
101327
101327
101327
101327
101327
101326
101326
101326
101325
101325
101325
101325
101327
101327
101327
101327
101327
101327
101327
101327
101327
101327
101327
101327
101327
101327
101327
101326
101326
101326
101326
101325
101325
101325
101325
101326
101326
101326
101326
101326
101326
101326
101326
101326
101326
101326
101326
101326
101326
101326
101326
101326
101326
101326
101325
101325
101325
101325
101326
101326
101326
101326
101326
101326
101326
101326
101326
101326
101326
101326
101326
101326
101326
101326
101326
101326
101325
101325
101325
101325
101325
101326
101326
101326
101326
101326
101326
101326
101326
101326
101326
101326
101326
101326
101326
101326
101326
101326
101326
101325
101325
101325
101325
101325
101326
101326
101326
101326
101326
101326
101326
101326
101326
101326
101326
101326
101326
101326
101326
101326
101325
101325
101325
101325
101325
101325
101325
101326
101326
101326
101326
101326
101326
101326
101326
101326
101326
101326
101326
101325
101325
101325
101325
101325
101325
101325
101325
101325
101325
101325
101325
101325
101325
101325
101325
101325
101325
101325
101325
101325
101325
101325
101325
101325
101325
101325
101325
101325
101325
101325
101325
101325
101325
101325
101325
101325
101325
101325
101325
101325
101325
101325
101325
101325
101325
101325
101325
101325
101325
101325
101325
101325
101325
101325
101325
101325
101325
101325
101325
101325
101325
101325
101325
101325
101325
101325
101325
101325
101325
101325
101325
101325
101325
101325
101325
101325
101325
101325
101325
101325
101325
101325
101325
101325
101325
101325
101325
101325
101325
101325
101325
101325
101325
101325
101325
101325
101325
101325
101325
101325
101325
101325
101324
101324
101324
101324
101324
101324
101324
101324
101324
101324
101324
101325
101325
101325
101325
101325
101325
101325
101325
101325
101325
101325
101325
101324
101324
101324
101324
101324
101324
101324
101324
101324
101324
101324
101324
101324
101324
101324
101324
101324
101324
101325
101325
101325
101325
101325
101324
101324
101324
101324
101324
101324
101324
101324
101324
101324
101324
101324
101324
101324
101324
101324
101324
101324
101324
101324
101324
101324
101324
101324
101324
101324
101324
101324
101324
101324
101324
101324
101324
101324
101324
101324
101324
101324
101324
101324
101324
101324
101324
101324
101324
101324
101323
101323
101323
101323
101323
101323
101323
101323
101324
101324
101324
101324
101324
101324
101324
101324
101324
101324
101324
101324
101324
101324
101324
101323
101323
101323
101323
101323
101323
101323
101323
101323
101323
101323
101323
101323
101324
101324
101324
101324
101324
101324
101324
101324
101324
101324
101323
101323
101323
101323
101323
101323
101323
101323
101323
101323
101323
101323
101323
101323
101323
101323
101324
101324
101324
101324
101324
101324
101324
101323
101323
101323
101323
101323
101323
101323
101323
101323
101323
101323
101323
101323
101323
101323
101323
101323
101323
101324
101324
101324
101324
101324
101322
101322
101322
101322
101322
101322
101322
101322
101322
101323
101323
101323
101323
101323
101323
101323
101323
101323
101323
101323
101323
101323
101323
101322
101322
101322
101322
101322
101322
101322
101322
101322
101322
101322
101322
101322
101323
101323
101323
101323
101323
101323
101323
101323
101323
101323
101322
101322
101322
101322
101322
101322
101322
101322
101322
101322
101322
101322
101322
101322
101322
101322
101323
101323
101323
101323
101323
101323
101323
101321
101321
101321
101321
101321
101321
101321
101322
101322
101322
101322
101322
101322
101322
101322
101322
101322
101322
101322
101322
101322
101322
101322
101321
101321
101321
101321
101321
101321
101321
101321
101321
101321
101321
101321
101322
101322
101322
101322
101322
101322
101322
101322
101322
101322
101322
101321
101321
101321
101321
101321
101321
101321
101321
101321
101321
101321
101321
101321
101321
101321
101321
101321
101321
101321
101321
101321
101321
101321
101320
101320
101320
101320
101320
101320
101320
101320
101321
101321
101321
101321
101321
101321
101321
101321
101321
101321
101321
101321
101321
101321
101321
101320
101320
101320
101320
101320
101320
101320
101320
101320
101320
101320
101320
101320
101320
101320
101320
101320
101320
101320
101320
101320
101320
101320
101320
101320
101320
101320
101320
101320
101320
101320
101320
101320
101320
101320
101320
101320
101320
101320
101320
101320
101320
101320
101320
101320
101320
101319
101319
101319
101319
101319
101319
101319
101319
101319
101319
101319
101319
101319
101319
101319
101319
101319
101319
101319
101319
101319
101319
101319
101319
101319
101319
101319
101319
101319
101319
101319
101319
101319
101319
101319
101319
101319
101319
101319
101319
101319
101319
101319
101319
101319
101319
101318
101318
101318
101318
101318
101318
101318
101318
101318
101318
101318
101318
101318
101318
101318
101318
101318
101318
101318
101318
101318
101318
101318
101318
101318
101318
101318
101318
101318
101318
101318
101318
101318
101318
101318
101318
101318
101318
101318
101318
101318
101318
101318
101318
101318
101318
101813
101691
101786
101603
101731
101761
101783
101843
101654
101653
101733
101711
101533
101576
101612
101659
101404
101441
101489
101522
101329
101381
101423
101487
101394
101404
101413
101435
101345
101387
101415
101439
101342
101342
101371
101398
101325
101325
101337
101349
101325
101325
101325
101325
101325
101324
101324
101325
101325
101325
101325
101325
101324
101324
101324
101325
101325
101325
101325
101325
101325
101325
101325
101325
101325
101325
101325
101325
101325
101325
101325
101325
101325
101325
101325
101325
101325
101325
101325
101325
101325
101325
101325
101325
101325
101325
101325
101325
101325
101324
101324
101324
101324
101324
101324
101324
101324
101324
101324
101324
101324
101324
101324
101324
101324
101324
101324
101324
101324
101324
101324
101324
101324
101324
101324
101324
101323
101323
101323
101323
101323
101323
101323
101323
101323
101323
101323
101323
101322
101322
101322
101322
101322
101322
101322
101322
101321
101321
101321
101321
101321
101321
101321
101321
101320
101320
101320
101320
101320
101320
101320
101320
101319
101319
101319
101319
101319
101319
101319
101319
101318
101318
101318
101318
101317
101317
101317
101317
101722
101736
101765
101732
101698
101667
101675
101607
101572
101561
101560
101559
101560
101561
101568
101590
101786
102080
102529
101751
101743
101749
101721
101698
101604
101574
101558
101557
101557
101557
101557
101557
101556
101558
101561
101595
101831
101880
101783
101703
101741
101679
101616
101554
101557
101556
101557
101557
101557
101555
101555
101554
101556
101558
101563
101616
101634
101696
101720
101719
101643
101600
101557
101557
101557
101556
101557
101556
101556
101556
101556
101557
101558
101561
101575
101554
101647
101667
101655
101584
101557
101556
101557
101556
101556
101556
101557
101556
101556
101557
101557
101558
101557
101586
101563
101616
101632
101587
101556
101554
101555
101555
101556
101556
101557
101556
101557
101557
101557
101557
101556
101554
101557
101558
101546
101556
101556
101556
101554
101555
101555
101555
101555
101556
101557
101556
101557
101557
101558
101558
101558
101558
101563
101508
101548
101554
101553
101555
101554
101554
101554
101554
101557
101556
101556
101557
101557
101558
101556
101554
101555
101556
101468
101490
101540
101554
101554
101554
101554
101553
101551
101549
101554
101556
101554
101552
101547
101544
101558
101536
101557
101385
101441
101497
101530
101551
101553
101552
101543
101513
101514
101523
101543
101528
101514
101516
101513
101522
101529
101510
101336
101352
101412
101451
101497
101519
101515
101493
101466
101438
101432
101479
101457
101468
101497
101486
101479
101483
101482
101325
101328
101351
101364
101388
101406
101395
101372
101358
101354
101360
101378
101376
101382
101434
101420
101441
101454
101451
101325
101325
101326
101327
101336
101340
101335
101327
101325
101326
101329
101331
101329
101334
101358
101403
101406
101440
101448
101325
101325
101326
101326
101326
101325
101325
101325
101325
101325
101325
101326
101326
101327
101330
101355
101357
101393
101405
101325
101325
101326
101326
101325
101325
101324
101324
101325
101325
101325
101325
101326
101328
101331
101360
101380
101402
101406
101325
101325
101325
101325
101325
101325
101324
101324
101324
101324
101324
101324
101323
101324
101330
101361
101363
101388
101416
101325
101325
101325
101325
101325
101324
101324
101323
101324
101324
101324
101323
101322
101322
101326
101343
101371
101374
101385
101325
101325
101325
101325
101325
101324
101324
101323
101324
101324
101323
101323
101321
101322
101323
101320
101351
101363
101385
101325
101325
101325
101325
101324
101324
101324
101323
101323
101323
101323
101323
101322
101322
101323
101324
101333
101339
101324
101325
101325
101325
101324
101324
101324
101324
101324
101323
101323
101323
101323
101322
101323
101323
101324
101324
101326
101341
101325
101325
101324
101324
101324
101324
101324
101323
101323
101323
101323
101323
101323
101323
101323
101323
101324
101324
101323
101325
101324
101324
101324
101324
101324
101324
101324
101323
101323
101323
101323
101323
101323
101323
101324
101323
101324
101324
101324
101324
101324
101324
101324
101324
101324
101323
101323
101323
101323
101323
101323
101323
101323
101323
101323
101324
101323
101324
101324
101324
101324
101324
101324
101324
101323
101323
101323
101323
101323
101323
101323
101323
101324
101323
101323
101323
101324
101324
101324
101324
101324
101324
101323
101323
101323
101323
101323
101323
101323
101323
101323
101323
101324
101324
101324
101324
101324
101324
101324
101324
101323
101323
101323
101323
101323
101323
101323
101323
101323
101323
101323
101324
101324
101324
101324
101324
101324
101324
101324
101323
101323
101323
101323
101323
101323
101323
101323
101323
101323
101323
101324
101324
101320
101324
101324
101324
101323
101323
101323
101323
101323
101323
101323
101323
101323
101323
101323
101323
101323
101324
101323
101330
101324
101324
101323
101323
101323
101323
101323
101323
101323
101322
101323
101322
101323
101322
101323
101322
101323
101321
101321
101323
101323
101323
101323
101323
101322
101322
101322
101322
101322
101322
101322
101323
101322
101323
101322
101323
101322
101323
101323
101323
101323
101323
101322
101322
101322
101322
101322
101322
101322
101322
101322
101322
101323
101322
101324
101322
101326
101323
101323
101323
101322
101322
101322
101321
101321
101321
101321
101321
101321
101322
101322
101322
101322
101323
101322
101324
101322
101322
101322
101322
101322
101321
101321
101321
101321
101320
101321
101321
101321
101321
101322
101321
101323
101321
101324
101322
101322
101322
101321
101321
101321
101320
101320
101320
101320
101320
101320
101321
101321
101321
101321
101322
101321
101323
101321
101321
101321
101321
101320
101320
101320
101319
101319
101319
101319
101320
101320
101320
101321
101320
101321
101320
101321
101321
101321
101321
101320
101320
101319
101319
101318
101318
101318
101319
101319
101319
101320
101320
101320
101320
101320
101319
101320
101320
101320
101320
101319
101319
101319
101318
101317
101317
101318
101318
101319
101319
101320
101319
101320
101319
101319
101320
101320
101319
101319
101319
101318
101318
101317
101317
101316
101317
101318
101318
101319
101319
101319
101320
101320
101320
101319
101319
101319
101319
101319
101318
101318
101317
101316
101316
101317
101317
101318
101318
101319
101319
101319
101319
101319
101319
101319
101319
101318
101318
101318
101317
101317
101316
101316
101317
101317
101318
101318
101318
101319
101319
101319
101319
101318
101318
101318
101318
101318
101318
101318
101317
101317
101317
101317
101317
101318
101318
101318
101318
101318
101318
101318
101317
101317
101317
101317
101317
101317
101317
101317
101317
101317
101317
101317
101317
101318
101318
101318
101318
101318
101319
)
;

boundaryField
{
    leftWall
    {
        type            zeroGradient;
    }
    rightWall
    {
        type            zeroGradient;
    }
    lowerWall
    {
        type            zeroGradient;
    }
    atmosphere
    {
        type            fixedValue;
        value           uniform 101325;
    }
    defaultFaces
    {
        type            empty;
    }
}


// ************************************************************************* //
