/*--------------------------------*- C++ -*----------------------------------*\
| =========                 |                                                 |
| \\      /  F ield         | OpenFOAM: The Open Source CFD Toolbox           |
|  \\    /   O peration     | Version:  2012                                  |
|   \\  /    A nd           | Website:  www.openfoam.com                      |
|    \\/     M anipulation  |                                                 |
\*---------------------------------------------------------------------------*/
FoamFile
{
    version     2.0;
    format      ascii;
    class       volScalarField;
    location    "0.68";
    object      rho2;
}
// * * * * * * * * * * * * * * * * * * * * * * * * * * * * * * * * * * * * * //

dimensions      [1 -3 0 0 0 0 0];


internalField   nonuniform List<scalar> 
2268
(
1.29984
1.29988
1.29996
1.30007
1.30022
1.30041
1.30062
1.30087
1.30114
1.30143
1.30172
1.30205
1.30232
1.30266
1.3029
1.30325
1.30344
1.30378
1.30391
1.30423
1.30428
1.30451
1.30447
1.29908
1.29912
1.2992
1.29931
1.29946
1.29965
1.29986
1.30012
1.30038
1.30068
1.30097
1.30129
1.30157
1.30191
1.30215
1.3025
1.30269
1.30304
1.30317
1.30349
1.30354
1.30378
1.30374
1.29831
1.29835
1.29843
1.29854
1.29869
1.29888
1.2991
1.29935
1.29962
1.29992
1.30021
1.30054
1.30082
1.30117
1.3014
1.30176
1.30194
1.3023
1.30242
1.30276
1.30279
1.30304
1.30298
1.29754
1.29758
1.29765
1.29777
1.29792
1.29811
1.29833
1.29858
1.29886
1.29916
1.29946
1.29979
1.30007
1.30042
1.30066
1.30101
1.30121
1.30156
1.3017
1.30204
1.30209
1.30236
1.30229
1.29675
1.29679
1.29687
1.29698
1.29713
1.29732
1.29755
1.29781
1.29809
1.2984
1.2987
1.29903
1.29932
1.29967
1.29992
1.30027
1.30046
1.30082
1.30094
1.30131
1.30133
1.30164
1.30149
1.29597
1.29601
1.29609
1.2962
1.29636
1.29655
1.29677
1.29703
1.29732
1.29763
1.29794
1.29828
1.29858
1.29893
1.29918
1.29953
1.29974
1.30009
1.30024
1.30061
1.30067
1.30102
1.30085
1.29519
1.29523
1.29531
1.29542
1.29557
1.29576
1.29598
1.29625
1.29654
1.29687
1.29718
1.29753
1.29783
1.29819
1.29845
1.2988
1.29899
1.29937
1.29949
1.29991
1.2999
1.30032
1.29999
1.29443
1.29447
1.29454
1.29465
1.29481
1.295
1.29522
1.29549
1.29578
1.2961
1.29643
1.29677
1.29709
1.29746
1.29772
1.29807
1.29828
1.29864
1.2988
1.29922
1.29928
1.29974
1.29941
1.31228
1.30249
1.3009
1.30007
1.30041
1.30232
1.30682
1.3082
1.30512
1.3024
1.30029
1.29907
1.29847
1.29852
1.29855
1.29924
1.30014
1.30649
1.31363
1.31073
1.30071
1.29996
1.29934
1.29993
1.3019
1.30733
1.30755
1.30406
1.3014
1.29933
1.29817
1.29771
1.29764
1.29761
1.29813
1.29866
1.30436
1.31031
1.30325
1.29855
1.29892
1.29858
1.29942
1.30108
1.30607
1.30767
1.30482
1.30089
1.29867
1.2975
1.29711
1.29711
1.29711
1.29727
1.29759
1.30124
1.30809
1.30193
1.29799
1.29834
1.29794
1.29843
1.30039
1.30535
1.30687
1.30273
1.30062
1.29859
1.29779
1.29744
1.29705
1.29704
1.29713
1.2972
1.29891
1.30485
1.29889
1.29773
1.2981
1.29766
1.29803
1.29898
1.30378
1.30544
1.3036
1.3007
1.29865
1.29786
1.29764
1.2974
1.29725
1.29719
1.29706
1.2972
1.30148
1.29981
1.29772
1.29808
1.29729
1.2979
1.29825
1.30294
1.30328
1.30134
1.29951
1.29828
1.29776
1.29762
1.29758
1.29756
1.29741
1.29708
1.29725
1.30052
1.29888
1.2976
1.29779
1.29736
1.29813
1.29823
1.30104
1.30133
1.30021
1.29841
1.29759
1.29726
1.29722
1.2973
1.29735
1.29744
1.29746
1.29801
1.30165
1.29871
1.29745
1.29774
1.29747
1.29803
1.29806
1.29986
1.29917
1.29772
1.29667
1.29647
1.2965
1.29654
1.29666
1.29677
1.29732
1.29856
1.30099
1.30566
1.29368
1.29369
1.29372
1.29377
1.29385
1.29397
1.29414
1.29436
1.29463
1.29494
1.29528
1.29563
1.29595
1.29632
1.29659
1.29694
1.29712
1.29751
1.29761
1.29813
1.29802
1.29889
1.29777
1.29336
1.29337
1.29336
1.29335
1.29336
1.29339
1.29343
1.29349
1.29359
1.29374
1.29397
1.29423
1.29451
1.29483
1.29512
1.29541
1.29563
1.29595
1.29621
1.29662
1.29697
1.29759
1.298
1.29331
1.29331
1.29331
1.2933
1.29329
1.29331
1.29335
1.29336
1.29336
1.29337
1.29341
1.2935
1.29362
1.29379
1.29396
1.29414
1.29424
1.29447
1.29465
1.2951
1.29525
1.29621
1.29629
1.29326
1.29326
1.29326
1.29326
1.29326
1.29327
1.29329
1.29331
1.29332
1.29332
1.29333
1.29334
1.29335
1.29337
1.29342
1.29347
1.29349
1.29353
1.29362
1.29376
1.29394
1.29471
1.29521
1.29325
1.29325
1.29325
1.29325
1.29325
1.29325
1.29326
1.29327
1.29327
1.29328
1.29329
1.2933
1.2933
1.29332
1.29333
1.29333
1.29334
1.29334
1.29335
1.29335
1.29337
1.29383
1.29434
1.29324
1.29324
1.29324
1.29324
1.29324
1.29324
1.29324
1.29325
1.29325
1.29325
1.29326
1.29327
1.29327
1.29328
1.29329
1.2933
1.29332
1.29331
1.29325
1.2932
1.29321
1.29352
1.29337
1.29324
1.29324
1.29324
1.29324
1.29324
1.29324
1.29324
1.29324
1.29324
1.29324
1.29324
1.29325
1.29325
1.29325
1.29326
1.29327
1.29326
1.29321
1.29313
1.29308
1.29308
1.29325
1.29359
1.29323
1.29323
1.29324
1.29324
1.29324
1.29324
1.29324
1.29324
1.29324
1.29324
1.29324
1.29324
1.29324
1.29324
1.29325
1.29325
1.29325
1.29322
1.29314
1.2931
1.29309
1.2931
1.29297
1.29323
1.29323
1.29323
1.29323
1.29323
1.29323
1.29323
1.29323
1.29323
1.29323
1.29324
1.29324
1.29324
1.29324
1.29324
1.29324
1.29324
1.29323
1.2932
1.29315
1.29314
1.29313
1.29313
1.29323
1.29323
1.29323
1.29323
1.29323
1.29323
1.29323
1.29323
1.29323
1.29323
1.29323
1.29323
1.29323
1.29323
1.29323
1.29323
1.29323
1.29323
1.29322
1.2932
1.29317
1.29315
1.29316
1.29323
1.29323
1.29323
1.29323
1.29323
1.29323
1.29323
1.29323
1.29323
1.29323
1.29323
1.29323
1.29323
1.29323
1.29323
1.29323
1.29322
1.29322
1.29322
1.29322
1.2932
1.29316
1.29316
1.29323
1.29323
1.29323
1.29323
1.29323
1.29323
1.29323
1.29323
1.29323
1.29323
1.29323
1.29323
1.29323
1.29323
1.29323
1.29322
1.29322
1.29322
1.29322
1.29322
1.29321
1.29318
1.29316
1.29322
1.29322
1.29322
1.29322
1.29322
1.29322
1.29323
1.29323
1.29323
1.29323
1.29323
1.29323
1.29322
1.29322
1.29322
1.29322
1.29322
1.29322
1.29322
1.29322
1.29321
1.2932
1.29318
1.29322
1.29322
1.29322
1.29322
1.29322
1.29322
1.29322
1.29322
1.29322
1.29322
1.29322
1.29322
1.29322
1.29322
1.29322
1.29322
1.29322
1.29322
1.29322
1.29321
1.29321
1.29321
1.2932
1.29322
1.29322
1.29322
1.29322
1.29322
1.29322
1.29322
1.29322
1.29322
1.29322
1.29322
1.29322
1.29322
1.29322
1.29322
1.29322
1.29322
1.29322
1.29322
1.29321
1.29321
1.29321
1.29321
1.29322
1.29322
1.29322
1.29322
1.29322
1.29322
1.29322
1.29322
1.29322
1.29322
1.29322
1.29322
1.29322
1.29322
1.29322
1.29322
1.29322
1.29321
1.29321
1.29321
1.29321
1.29321
1.29321
1.29321
1.29321
1.29321
1.29321
1.29321
1.29321
1.29321
1.29321
1.29321
1.29321
1.29321
1.29321
1.29321
1.29321
1.29321
1.29321
1.29321
1.29321
1.29321
1.29321
1.29321
1.29321
1.29321
1.29321
1.29321
1.29321
1.29321
1.29321
1.29321
1.29321
1.29321
1.29321
1.29321
1.29321
1.29321
1.29321
1.29321
1.29321
1.29321
1.29321
1.29321
1.29321
1.29321
1.29321
1.29321
1.29321
1.2932
1.2932
1.2932
1.2932
1.2932
1.2932
1.2932
1.29321
1.29321
1.29321
1.29321
1.29321
1.29321
1.29321
1.29321
1.29321
1.29321
1.29321
1.29321
1.29321
1.29321
1.29321
1.29321
1.29319
1.29319
1.29319
1.29319
1.2932
1.2932
1.2932
1.2932
1.2932
1.2932
1.2932
1.2932
1.2932
1.2932
1.29321
1.29321
1.29321
1.29321
1.29321
1.29321
1.29321
1.29321
1.29321
1.29318
1.29318
1.29318
1.29318
1.29318
1.29319
1.29319
1.29319
1.29319
1.29319
1.29319
1.29319
1.2932
1.2932
1.2932
1.2932
1.2932
1.2932
1.2932
1.2932
1.29321
1.29321
1.29321
1.29316
1.29316
1.29317
1.29317
1.29317
1.29317
1.29317
1.29317
1.29317
1.29318
1.29318
1.29318
1.29318
1.29319
1.29319
1.29319
1.29319
1.29319
1.2932
1.2932
1.2932
1.2932
1.2932
1.29315
1.29315
1.29315
1.29315
1.29315
1.29315
1.29315
1.29315
1.29315
1.29316
1.29316
1.29316
1.29316
1.29317
1.29317
1.29317
1.29317
1.29318
1.29318
1.29318
1.29319
1.29319
1.29319
1.29313
1.29313
1.29313
1.29313
1.29313
1.29313
1.29313
1.29313
1.29314
1.29314
1.29314
1.29314
1.29314
1.29314
1.29314
1.29315
1.29315
1.29315
1.29315
1.29316
1.29316
1.29316
1.29316
1.29312
1.29312
1.29312
1.29312
1.29312
1.29312
1.29312
1.29312
1.29312
1.29312
1.29312
1.29312
1.29312
1.29313
1.29313
1.29313
1.29313
1.29313
1.29313
1.29313
1.29313
1.29313
1.29314
1.29311
1.29311
1.29311
1.29311
1.29311
1.29311
1.29311
1.29311
1.29311
1.29311
1.29311
1.29311
1.29311
1.29312
1.29312
1.29312
1.29312
1.29312
1.29312
1.29312
1.29313
1.29313
1.29313
1.2931
1.2931
1.2931
1.2931
1.2931
1.2931
1.2931
1.29311
1.29311
1.29311
1.29311
1.29311
1.29311
1.29311
1.29311
1.29311
1.29312
1.29312
1.29312
1.29312
1.29313
1.29313
1.29314
1.2931
1.2931
1.2931
1.2931
1.2931
1.2931
1.2931
1.2931
1.2931
1.2931
1.2931
1.2931
1.29311
1.29311
1.29311
1.29311
1.29312
1.29312
1.29313
1.29314
1.29314
1.29314
1.29315
1.29309
1.29309
1.2931
1.2931
1.2931
1.2931
1.2931
1.2931
1.2931
1.2931
1.2931
1.2931
1.29311
1.29311
1.29311
1.29312
1.29313
1.29314
1.29314
1.29315
1.29315
1.29314
1.29314
1.29309
1.29309
1.29309
1.29309
1.29309
1.29309
1.29309
1.2931
1.2931
1.2931
1.2931
1.2931
1.29311
1.29311
1.29312
1.29313
1.29314
1.29315
1.29314
1.29313
1.29312
1.29312
1.29313
1.29309
1.29309
1.29309
1.29309
1.29309
1.29309
1.29309
1.29309
1.2931
1.2931
1.2931
1.29311
1.29311
1.29312
1.29313
1.29314
1.29314
1.29314
1.29311
1.29311
1.29311
1.29312
1.29312
1.29309
1.29309
1.29309
1.29309
1.29309
1.29309
1.29309
1.2931
1.2931
1.2931
1.29311
1.29311
1.29312
1.29313
1.29314
1.29314
1.29312
1.2931
1.29309
1.2931
1.29311
1.29311
1.29312
1.29309
1.29309
1.29309
1.29309
1.29309
1.29309
1.2931
1.2931
1.2931
1.2931
1.29311
1.29311
1.29312
1.29313
1.29313
1.29311
1.29308
1.29307
1.29308
1.2931
1.29311
1.29311
1.29311
1.29309
1.29309
1.29309
1.2931
1.2931
1.2931
1.2931
1.2931
1.2931
1.29311
1.29311
1.29312
1.29313
1.29313
1.29311
1.29307
1.29306
1.29306
1.29309
1.2931
1.2931
1.2931
1.2931
1.2931
1.2931
1.2931
1.2931
1.2931
1.2931
1.2931
1.2931
1.2931
1.29311
1.29311
1.29312
1.29312
1.29311
1.29307
1.29304
1.29304
1.29307
1.29308
1.29309
1.29309
1.29309
1.29309
1.2931
1.2931
1.2931
1.2931
1.2931
1.2931
1.2931
1.2931
1.2931
1.2931
1.29311
1.29312
1.29311
1.29308
1.29304
1.29303
1.29304
1.29306
1.29308
1.29308
1.29308
1.29308
1.29308
1.2931
1.2931
1.2931
1.2931
1.2931
1.2931
1.2931
1.2931
1.2931
1.2931
1.29311
1.29311
1.29309
1.29304
1.29301
1.29301
1.29303
1.29306
1.29307
1.29307
1.29307
1.29307
1.29307
1.2931
1.2931
1.2931
1.2931
1.2931
1.2931
1.2931
1.2931
1.2931
1.2931
1.29311
1.2931
1.29307
1.29301
1.29299
1.29299
1.29302
1.29305
1.29306
1.29307
1.29307
1.29307
1.29306
1.2931
1.2931
1.2931
1.2931
1.2931
1.2931
1.2931
1.2931
1.2931
1.2931
1.2931
1.29309
1.29303
1.29298
1.29296
1.29297
1.29301
1.29304
1.29305
1.29306
1.29306
1.29306
1.29306
1.29311
1.29311
1.29311
1.29311
1.29311
1.29311
1.29311
1.2931
1.2931
1.2931
1.2931
1.29307
1.29301
1.29296
1.29294
1.29294
1.29299
1.29302
1.29304
1.29305
1.29306
1.29306
1.29305
1.29311
1.29311
1.29311
1.29311
1.29311
1.29311
1.29311
1.29311
1.29311
1.2931
1.29309
1.29306
1.29298
1.29292
1.29291
1.29292
1.29298
1.29301
1.29304
1.29305
1.29305
1.29305
1.29305
1.29314
1.29314
1.29314
1.29314
1.29314
1.29314
1.29314
1.29314
1.29313
1.29312
1.2931
1.29304
1.29294
1.29288
1.29286
1.29289
1.29296
1.293
1.29303
1.29304
1.29304
1.29304
1.29304
1.29934
1.29737
1.29823
1.29596
1.29824
1.2982
1.29819
1.2989
1.2974
1.29731
1.29803
1.2974
1.2959
1.29643
1.29684
1.29728
1.2943
1.29478
1.29538
1.29577
1.29328
1.29397
1.29452
1.29534
1.29396
1.29408
1.29419
1.29445
1.29333
1.29384
1.29414
1.29437
1.29334
1.29334
1.29369
1.29401
1.29315
1.29313
1.29328
1.29342
1.29316
1.29316
1.29314
1.29313
1.29315
1.29316
1.29316
1.29316
1.29317
1.29316
1.29316
1.29317
1.29319
1.29318
1.29318
1.29318
1.29321
1.29321
1.2932
1.2932
1.29321
1.29321
1.29321
1.29321
1.29321
1.29321
1.29321
1.29321
1.29321
1.29321
1.29321
1.29321
1.29321
1.29321
1.29321
1.29321
1.29321
1.29321
1.29321
1.29321
1.29321
1.29321
1.29321
1.29321
1.2932
1.2932
1.2932
1.2932
1.29319
1.2932
1.2932
1.2932
1.29317
1.29317
1.29317
1.29318
1.29314
1.29314
1.29314
1.29314
1.29313
1.29313
1.29313
1.29313
1.29314
1.29314
1.29314
1.29314
1.29315
1.29315
1.29315
1.29315
1.29314
1.29314
1.29314
1.29314
1.29313
1.29313
1.29313
1.29313
1.29312
1.29312
1.29312
1.29312
1.29312
1.29311
1.29311
1.29311
1.2931
1.2931
1.2931
1.29309
1.29309
1.29309
1.29309
1.29308
1.29308
1.29308
1.29308
1.29307
1.29307
1.29307
1.29307
1.29306
1.29307
1.29306
1.29306
1.29306
1.29306
1.29306
1.29305
1.29305
1.29305
1.29305
1.29305
1.29304
1.29305
1.29304
1.29304
1.29304
1.29304
1.29304
1.29304
1.29303
1.29303
1.29303
1.29303
1.29302
1.29758
1.29706
1.29765
1.29758
1.29761
1.29749
1.29754
1.29661
1.29603
1.29582
1.29585
1.29596
1.2961
1.29614
1.29623
1.29647
1.2988
1.30205
1.30728
1.29776
1.29707
1.29771
1.29797
1.29795
1.2967
1.29595
1.29552
1.29553
1.29547
1.29545
1.29548
1.29558
1.29566
1.29577
1.29589
1.29621
1.29871
1.299
1.29816
1.29731
1.29836
1.29776
1.29692
1.29581
1.29526
1.29539
1.29536
1.29536
1.29538
1.29535
1.29536
1.29541
1.29553
1.2956
1.29558
1.29578
1.29589
1.29747
1.29815
1.29827
1.29729
1.29646
1.29559
1.29536
1.29537
1.29538
1.29537
1.29528
1.29521
1.29518
1.29523
1.29533
1.29536
1.29523
1.29521
1.29497
1.29732
1.29766
1.29747
1.29623
1.2955
1.29535
1.29538
1.29539
1.29541
1.29539
1.29534
1.2952
1.29508
1.29501
1.29497
1.2949
1.29477
1.29505
1.2952
1.29698
1.29711
1.29612
1.29531
1.29524
1.29533
1.29539
1.29543
1.29543
1.29544
1.29541
1.29533
1.29523
1.29511
1.29502
1.29495
1.29494
1.29487
1.29524
1.29578
1.29559
1.29531
1.29502
1.29523
1.29538
1.29543
1.29545
1.29545
1.29546
1.29546
1.29541
1.29535
1.2953
1.29526
1.29523
1.2951
1.29501
1.29538
1.29509
1.29537
1.29532
1.29513
1.29524
1.29537
1.29541
1.29542
1.29546
1.29552
1.29545
1.29545
1.29532
1.29522
1.29524
1.29518
1.29512
1.29508
1.29537
1.29484
1.29495
1.29522
1.29514
1.29493
1.2953
1.29533
1.2953
1.29544
1.2954
1.29539
1.29547
1.29527
1.2951
1.29503
1.29502
1.29543
1.29495
1.29549
1.29386
1.29451
1.29509
1.29525
1.29518
1.29483
1.29531
1.29524
1.29513
1.29515
1.29518
1.29539
1.29506
1.2948
1.29492
1.29495
1.29502
1.29518
1.29508
1.29327
1.29344
1.29412
1.29447
1.29492
1.29513
1.29508
1.29492
1.29466
1.29433
1.29419
1.29471
1.29442
1.29452
1.29491
1.29481
1.29483
1.29491
1.29493
1.29315
1.29318
1.29346
1.29359
1.29387
1.29408
1.29395
1.29366
1.29345
1.29335
1.29338
1.29357
1.29348
1.29351
1.29415
1.294
1.29443
1.29467
1.29463
1.29317
1.29317
1.29317
1.29319
1.29331
1.29334
1.29327
1.29314
1.2931
1.29306
1.29307
1.29303
1.29292
1.29291
1.29318
1.29375
1.29392
1.29449
1.2946
1.29318
1.29318
1.29318
1.29316
1.29316
1.29315
1.29313
1.29312
1.29312
1.29312
1.29309
1.29298
1.29288
1.29284
1.29287
1.29317
1.29327
1.29383
1.29403
1.2932
1.2932
1.2932
1.29316
1.29314
1.29313
1.29315
1.29316
1.29316
1.29315
1.29309
1.29299
1.29296
1.29299
1.29302
1.29336
1.29359
1.2939
1.29399
1.29321
1.29321
1.2932
1.29317
1.29316
1.29316
1.29317
1.29317
1.29317
1.29316
1.2931
1.29303
1.29303
1.29309
1.29317
1.29356
1.29356
1.29381
1.29411
1.29321
1.29321
1.29321
1.29319
1.29316
1.29316
1.29316
1.29316
1.29316
1.29316
1.29311
1.29306
1.29306
1.29314
1.29324
1.2935
1.29382
1.29378
1.29378
1.29321
1.29321
1.29321
1.2932
1.29318
1.29316
1.29316
1.29316
1.29316
1.29316
1.29316
1.2931
1.29309
1.29315
1.29326
1.29327
1.29361
1.29371
1.29379
1.29321
1.29321
1.29321
1.2932
1.29319
1.29317
1.29316
1.29316
1.29316
1.29316
1.29316
1.29316
1.29314
1.29316
1.29325
1.29332
1.29339
1.29344
1.29301
1.29321
1.29321
1.29321
1.2932
1.2932
1.29319
1.29318
1.29317
1.29316
1.29316
1.29316
1.29316
1.29317
1.29317
1.29321
1.29323
1.29318
1.29325
1.29328
1.29321
1.29321
1.2932
1.2932
1.2932
1.2932
1.29319
1.29318
1.29317
1.29317
1.29316
1.29316
1.29317
1.29318
1.2932
1.29316
1.29299
1.29304
1.29308
1.2932
1.2932
1.2932
1.2932
1.2932
1.2932
1.29319
1.29319
1.29319
1.29318
1.29317
1.29317
1.29317
1.29318
1.29319
1.29317
1.29293
1.2929
1.29311
1.2932
1.2932
1.2932
1.2932
1.2932
1.2932
1.2932
1.29319
1.29319
1.29319
1.29318
1.29318
1.29318
1.29318
1.29319
1.29317
1.29293
1.29281
1.29308
1.29318
1.29319
1.29319
1.29319
1.29319
1.29319
1.29319
1.29319
1.29319
1.29319
1.29319
1.29319
1.29319
1.29319
1.29319
1.29318
1.29299
1.29277
1.29304
1.29315
1.29315
1.29316
1.29317
1.29318
1.29319
1.29319
1.29319
1.29319
1.29319
1.29319
1.29319
1.29319
1.29319
1.29319
1.29318
1.29305
1.29278
1.29304
1.29313
1.29313
1.29314
1.29314
1.29315
1.29316
1.29317
1.29318
1.29319
1.29319
1.29319
1.29319
1.29319
1.29319
1.29319
1.29318
1.29309
1.29281
1.29304
1.29314
1.29314
1.29314
1.29314
1.29313
1.29314
1.29314
1.29316
1.29317
1.29318
1.29319
1.29319
1.29319
1.29319
1.29319
1.29319
1.29312
1.29285
1.29302
1.29315
1.29315
1.29315
1.29315
1.29314
1.29314
1.29313
1.29314
1.29315
1.29317
1.29318
1.29318
1.29319
1.29318
1.29319
1.29318
1.29313
1.29291
1.29316
1.29315
1.29315
1.29315
1.29315
1.29315
1.29315
1.29314
1.29314
1.29314
1.29315
1.29316
1.29318
1.29318
1.29318
1.29319
1.29318
1.29314
1.29299
1.293
1.29313
1.29313
1.29313
1.29313
1.29314
1.29314
1.29314
1.29314
1.29314
1.29314
1.29315
1.29316
1.29318
1.29318
1.29319
1.29317
1.29316
1.29305
1.29286
1.29312
1.29312
1.29312
1.29312
1.29312
1.29312
1.29313
1.29314
1.29314
1.29314
1.29314
1.29315
1.29317
1.29317
1.29318
1.29317
1.29317
1.29306
1.29284
1.2931
1.2931
1.2931
1.29309
1.2931
1.2931
1.29311
1.29312
1.29313
1.29313
1.29314
1.29314
1.29316
1.29316
1.29318
1.29317
1.29317
1.29306
1.29283
1.29309
1.29308
1.29308
1.29307
1.29307
1.29308
1.29308
1.29309
1.29311
1.29312
1.29313
1.29313
1.29315
1.29316
1.29317
1.29316
1.29317
1.29306
1.29286
1.29308
1.29307
1.29306
1.29306
1.29305
1.29305
1.29306
1.29307
1.29309
1.29311
1.29312
1.29313
1.29314
1.29315
1.29317
1.29316
1.29316
1.29306
1.2929
1.29307
1.29306
1.29305
1.29304
1.29304
1.29304
1.29304
1.29306
1.29307
1.29309
1.29311
1.29312
1.29313
1.29314
1.29316
1.29315
1.29316
1.29306
1.293
1.29306
1.29305
1.29304
1.29303
1.29302
1.29302
1.29302
1.29304
1.29306
1.29308
1.2931
1.29311
1.29312
1.29313
1.29315
1.29315
1.29315
1.29306
1.29303
1.29305
1.29304
1.29303
1.29302
1.29301
1.293
1.293
1.29302
1.29304
1.29306
1.29308
1.2931
1.29312
1.29313
1.29314
1.29314
1.29314
1.29307
1.293
1.29304
1.29303
1.29302
1.29301
1.29299
1.29298
1.29298
1.293
1.29303
1.29304
1.29307
1.29309
1.29311
1.29312
1.29314
1.29314
1.29314
1.29308
1.293
1.29304
1.29303
1.29302
1.293
1.29298
1.29297
1.29296
1.29298
1.29303
1.29304
1.29306
1.29309
1.2931
1.29312
1.29313
1.29314
1.29313
1.29309
1.29302
1.29303
1.29302
1.29301
1.29299
1.29298
1.29296
1.29295
1.29296
1.29302
1.29304
1.29306
1.29308
1.2931
1.29312
1.29313
1.29314
1.29314
1.2931
1.29305
1.29303
1.29302
1.29301
1.29299
1.29297
1.29296
1.29295
1.29295
1.29299
1.29304
1.29306
1.29308
1.2931
1.29311
1.29313
1.29313
1.29313
1.2931
1.29306
1.29302
1.29301
1.293
1.29298
1.29296
1.29295
1.29294
1.29294
1.29296
1.29301
1.29305
1.29307
1.2931
1.29311
1.29313
1.29314
1.29314
1.29313
1.29312
)
;

boundaryField
{
    leftWall
    {
        type            calculated;
        value           nonuniform List<scalar> 
50
(
1.29984
1.29908
1.29831
1.29754
1.29675
1.29597
1.29519
1.29443
1.29368
1.29336
1.29331
1.29326
1.29325
1.29324
1.29324
1.29323
1.29323
1.29323
1.29323
1.29323
1.29322
1.29322
1.29322
1.29322
1.29321
1.29321
1.2932
1.29319
1.29318
1.29316
1.29315
1.29313
1.29312
1.29311
1.2931
1.2931
1.29309
1.29309
1.29309
1.29309
1.29309
1.29309
1.2931
1.2931
1.2931
1.2931
1.2931
1.29311
1.29311
1.29314
)
;
    }
    rightWall
    {
        type            calculated;
        value           nonuniform List<scalar> 
50
(
1.31363
1.31031
1.30809
1.30485
1.30148
1.30052
1.30165
1.30566
1.30728
1.299
1.29589
1.29497
1.2952
1.29524
1.29538
1.29537
1.29549
1.29508
1.29493
1.29463
1.2946
1.29403
1.29399
1.29411
1.29378
1.29379
1.29301
1.29328
1.29308
1.29311
1.29308
1.29304
1.29304
1.29304
1.29302
1.29316
1.293
1.29286
1.29284
1.29283
1.29286
1.2929
1.293
1.29303
1.293
1.293
1.29302
1.29305
1.29306
1.29312
)
;
    }
    lowerWall
    {
        type            calculated;
        value           nonuniform List<scalar> 
62
(
1.30022
1.30025
1.30033
1.30045
1.3006
1.30078
1.301
1.30125
1.30151
1.30181
1.30209
1.30242
1.30269
1.30304
1.30327
1.30363
1.30381
1.30416
1.30428
1.30461
1.30465
1.30488
1.30485
1.30447
1.30374
1.30298
1.30229
1.30149
1.30085
1.29999
1.29941
1.30014
1.29813
1.29869
1.2963
1.31228
1.31073
1.30325
1.30193
1.29889
1.29981
1.29888
1.29871
1.31258
1.30278
1.30114
1.30032
1.30066
1.30258
1.30714
1.30852
1.30544
1.30271
1.3006
1.29938
1.29878
1.29884
1.29886
1.29955
1.30045
1.30681
1.31394
)
;
    }
    atmosphere
    {
        type            calculated;
        value           nonuniform List<scalar> 
46
(
1.29323
1.29323
1.29323
1.29323
1.29323
1.29323
1.29323
1.29322
1.29322
1.29321
1.29319
1.29313
1.29303
1.29297
1.29295
1.29298
1.29306
1.2931
1.29312
1.29313
1.29314
1.29314
1.29313
1.29313
1.29313
1.29312
1.29312
1.29311
1.2931
1.29309
1.29308
1.29306
1.29305
1.29304
1.29305
1.29307
1.29312
1.29315
1.29317
1.29319
1.29321
1.29322
1.29323
1.29323
1.29322
1.2932
)
;
    }
    defaultFaces
    {
        type            empty;
    }
}


// ************************************************************************* //
