/*--------------------------------*- C++ -*----------------------------------*\
| =========                 |                                                 |
| \\      /  F ield         | OpenFOAM: The Open Source CFD Toolbox           |
|  \\    /   O peration     | Version:  2012                                  |
|   \\  /    A nd           | Website:  www.openfoam.com                      |
|    \\/     M anipulation  |                                                 |
\*---------------------------------------------------------------------------*/
FoamFile
{
    version     2.0;
    format      ascii;
    class       volScalarField;
    location    "0.68";
    object      rhogh;
}
// * * * * * * * * * * * * * * * * * * * * * * * * * * * * * * * * * * * * * //

dimensions      [1 -1 -2 0 0 0 0];


internalField   nonuniform List<scalar> 
2268
(
-29.4294
-29.4294
-29.4294
-29.4294
-29.4294
-29.4294
-29.4294
-29.4294
-29.4294
-29.4294
-29.4294
-29.4294
-29.4294
-29.4294
-29.4294
-29.4294
-29.4294
-29.4294
-29.4294
-29.4294
-29.4294
-29.4293
-29.4231
-88.2881
-88.2881
-88.2881
-88.2881
-88.2881
-88.2881
-88.2881
-88.2881
-88.2881
-88.2881
-88.2881
-88.2881
-88.2881
-88.2881
-88.2881
-88.2881
-88.2881
-88.2881
-88.2881
-88.2881
-88.2881
-88.2861
-88.2626
-147.147
-147.147
-147.147
-147.147
-147.147
-147.147
-147.147
-147.147
-147.147
-147.147
-147.147
-147.147
-147.147
-147.147
-147.147
-147.147
-147.147
-147.147
-147.147
-147.147
-147.147
-147.144
-147.104
-206.006
-206.006
-206.006
-206.006
-206.006
-206.006
-206.006
-206.006
-206.006
-206.006
-206.006
-206.006
-206.006
-206.006
-206.006
-206.006
-206.006
-206.006
-206.006
-206.006
-206.006
-206.003
-205.946
-264.864
-264.864
-264.864
-264.864
-264.864
-264.864
-264.864
-264.864
-264.864
-264.864
-264.864
-264.864
-264.864
-264.864
-264.864
-264.864
-264.864
-264.864
-264.864
-264.864
-264.864
-264.863
-264.847
-323.723
-323.723
-323.723
-323.723
-323.723
-323.723
-323.723
-323.723
-323.723
-323.723
-323.723
-323.723
-323.723
-323.723
-323.723
-323.723
-323.723
-323.723
-323.723
-323.723
-323.723
-323.723
-323.723
-382.573
-382.569
-382.582
-382.582
-382.582
-382.582
-382.582
-382.582
-382.582
-382.582
-382.582
-382.582
-382.582
-382.582
-382.582
-382.582
-382.582
-382.582
-382.582
-382.582
-382.582
-382.582
-382.582
-420.774
-422.484
-429.382
-436.654
-440.691
-441.44
-441.44
-441.44
-441.44
-441.44
-441.44
-441.44
-441.44
-441.44
-441.44
-441.44
-441.44
-441.44
-441.44
-441.44
-441.44
-441.44
-441.44
-23.8826
-22.6378
-19.5542
-19.5542
-19.5542
-20.524
-25.0691
-25.0693
-24.7415
-24.6142
-24.621
-24.5613
-24.5148
-24.5354
-24.5353
-24.5354
-24.5356
-24.5356
-24.5357
-71.6478
-71.6478
-71.6397
-69.5144
-58.6626
-71.3672
-75.2069
-74.2447
-74.2465
-71.2485
-66.2371
-61.6776
-58.8378
-57.8691
-61.8569
-67.7669
-70.9962
-73.6069
-73.6069
-119.413
-88.0786
-82.0246
-87.9538
-107.663
-122.467
-134.11
-91.3406
-33.0244
-33.0036
-41.1094
-29.9264
-11.7063
-8.58058
-10.8455
-25.8639
-44.6299
-84.2804
-110.049
-138.708
-12.867
-9.23707
-7.51038
-23.6849
-84.8395
-187.753
-202.33
-131.828
-78.6907
-39.8557
-0.120979
-0.120979
-0.120979
-0.120979
-0.275687
-3.42819
-46.6799
-110.258
-190.783
-5.26084
7.25002e-18
-0.00139838
-9.89601e-17
-67.2473
-228.045
-264.168
-262.614
-241.067
-198.731
-127.657
-55.9125
-1.4625
-0.155545
-0.155545
-0.155545
-29.4398
-148.389
-243.192
-11.299
1.55674e-24
-0.000108917
-1.04783e-16
-215.759
-317.992
-322.872
-322.872
-322.872
-322.433
-318.672
-287.984
-224.234
-131.37
-36.6199
-2.68857
-32.8748
-185.086
-287.311
-13.0719
8.8583e-21
2.03695e-35
-7.81841
-317.553
-379.13
-381.576
-380.763
-373.255
-381.137
-381.128
-381.137
-381.128
-375.532
-327.285
-216.66
-96.3324
-191.905
-267.495
-13.8447
-0
-5.08434e-17
-194.322
-424.392
-437.458
-432.804
-371.398
-278.541
-280.318
-311.859
-356.893
-375.746
-403.778
-403.778
-403.784
-225.687
-256.116
-213.623
-222.898
-242.328
-273.879
-317.8
-359.724
-408.757
-457.856
-500.899
-533.467
-533.467
-533.467
-533.467
-533.467
-533.467
-533.467
-533.467
-533.467
-533.467
-533.467
-533.467
-533.467
-533.467
-2.34679e-12
-0.000834518
-0.0707715
-1.00559
-7.22487
-26.0446
-55.7746
-105.326
-181.618
-285.847
-413.759
-510.504
-591.757
-652.042
-658.662
-658.662
-658.657
-658.628
-658.659
-658.662
-658.662
-658.662
-658.662
-2.79374e-12
-1.11834e-09
-2.00377e-07
-8.23341e-06
-7.57696e-22
-1.28509e-21
-0.0034178
-0.436273
-3.2666
-13.7785
-46.8828
-118.16
-212.383
-349.141
-498.238
-596.735
-654.503
-742.53
-770.293
-781.68
-781.749
-783.856
-783.856
-5.02388e-14
-1.49888e-11
-3.14705e-10
-3.45159e-10
-2.27323e-09
-3.2656e-07
-0.000100882
-0.0017903
-0.0211264
-0.186226
-1.17015
-4.93732
-14.5843
-34.8657
-74.424
-114.36
-133.984
-194.687
-312.167
-467.603
-587.24
-820.145
-906.936
-1.955e-13
-8.51008e-12
-1.6914e-10
-1.77225e-09
-1.71062e-08
-3.41331e-07
-3.97561e-06
-1.87984e-06
-1.45309e-05
-0.000144643
-0.000995829
-0.00317138
-0.00429586
-2.88488e-24
8.90338e-22
1.98343e-21
2.33345e-21
7.44763e-28
4.87167e-19
-0.647195
-33.7077
-168.795
-308.983
-7.7402e-14
-3.09435e-12
-7.68102e-11
-1.18897e-09
-1.0249e-08
-5.5056e-08
-1.2146e-07
-1.21459e-07
-7.83484e-07
-2.41693e-05
-0.00018511
-0.000494413
-0.00190955
-0.000269454
1.91352e-23
1.5592e-23
-4.38883e-27
-2.182e-09
-0.000474977
-0.634716
-5.16493
-59.9682
-116.149
-9.44157e-14
-4.4337e-12
-9.72495e-11
-1.22825e-09
-8.89582e-09
-3.48689e-08
-8.07782e-08
-1.67542e-07
-2.39101e-07
-6.8476e-06
-0.000985364
-0.00267726
-0.0026774
-0.00119694
-1.83331e-24
-2.7682e-05
-1.01599e-05
-2.41195e-09
-0.00162312
-0.0062163
-1.9596
-127.538
-234.172
-4.15745e-14
-2.066e-12
-4.81249e-11
-6.49544e-10
-5.23958e-09
-2.509e-08
-9.50518e-08
-3.72254e-07
-7.4362e-07
-1.11992e-05
-0.000892435
-0.0026288
-0.00228341
-0.000441099
-2.93444e-23
-3.61725e-05
-0.000296726
-0.000352301
-0.000290491
-0.00029043
-0.420254
-53.7839
-320.043
-1.78791e-14
-8.5762e-13
-1.95723e-11
-2.70402e-10
-2.40633e-09
-1.49096e-08
-9.13131e-08
-5.48788e-07
-2.4657e-06
-1.94837e-05
-0.000158942
-0.000328948
-0.00033164
-4.21208e-05
-4.66003e-06
-2.22072e-05
-0.000343398
-0.000525965
-0.00029284
-0.000690075
-0.00162291
-0.00162549
-1.72161
-5.26329e-15
-2.55163e-13
-6.07586e-12
-9.05823e-11
-9.547e-10
-8.17661e-09
-7.22113e-08
-5.76628e-07
-3.4269e-06
-9.38454e-06
-2.67375e-06
-1.08214e-06
-1.48354e-06
-1.95876e-06
-7.31992e-06
-2.47021e-05
-0.000167438
-0.00056865
-0.000568914
-0.000587891
-0.000989806
-0.0051823
-0.00248357
-1.71941e-15
-8.10086e-14
-1.89716e-12
-2.86742e-11
-3.38222e-10
-3.73548e-09
-4.31986e-08
-4.30246e-07
-1.88136e-06
-2.36783e-06
-7.12062e-07
-2.56024e-07
-2.50259e-07
-7.55629e-07
-4.67292e-06
-2.58039e-05
-5.87247e-05
-0.000176472
-0.000465997
-0.000331228
-0.000279189
-0.013089
-0.0207592
-4.50045e-16
-2.07824e-14
-4.8363e-13
-7.2668e-12
-8.88929e-11
-1.07802e-09
-1.3472e-08
-1.40273e-07
-5.00919e-07
-6.4581e-07
-3.96255e-07
-2.63348e-07
-2.67809e-07
-6.22617e-07
-2.11155e-06
-1.193e-05
-1.31288e-05
-1.14153e-05
-5.92263e-05
-1.34341e-05
-2.52008e-07
-0.00707444
-0.0236918
-1.09886e-16
-4.92683e-15
-1.13206e-13
-1.6666e-12
-2.01503e-11
-2.48027e-10
-3.14953e-09
-3.17094e-08
-1.1559e-07
-1.65501e-07
-1.51319e-07
-1.66927e-07
-2.13678e-07
-4.42233e-07
-9.18295e-07
-2.37567e-06
-3.18476e-06
-3.01705e-06
-1.92789e-06
-6.95229e-07
-2.68407e-07
-0.000613059
-0.00908787
-2.28695e-17
-9.98008e-16
-2.28739e-14
-3.3115e-13
-3.88019e-12
-4.66352e-11
-5.93863e-10
-6.05328e-09
-2.30508e-08
-3.78219e-08
-4.46242e-08
-5.45073e-08
-8.84509e-08
-1.82433e-07
-3.68289e-07
-6.95335e-07
-1.08886e-06
-1.55596e-06
-1.22007e-06
-7.38112e-07
-2.85034e-07
-9.4033e-05
-0.000405451
-4.27078e-18
-1.81679e-16
-4.17306e-15
-5.99739e-14
-6.85971e-13
-7.99838e-12
-1.0071e-10
-1.01977e-09
-3.98716e-09
-7.58818e-09
-1.07651e-08
-1.42368e-08
-2.29474e-08
-4.88771e-08
-1.13217e-07
-2.208e-07
-3.77382e-07
-6.09219e-07
-7.76599e-07
-6.9809e-07
-3.01419e-07
-9.32487e-06
-1.59055e-05
-6.9382e-19
-2.87608e-17
-6.65136e-16
-9.56128e-15
-1.07512e-13
-1.21608e-12
-1.52947e-11
-1.50201e-10
-5.97779e-10
-1.3041e-09
-2.12282e-09
-3.02314e-09
-4.92034e-09
-1.0435e-08
-2.64951e-08
-5.7863e-08
-1.10366e-07
-1.96297e-07
-2.97981e-07
-4.46857e-07
-3.31479e-07
-1.4155e-06
-1.15856e-06
-9.98549e-20
-4.04826e-18
-9.45573e-17
-1.37019e-15
-1.53465e-14
-1.70154e-13
-2.16594e-12
-1.96933e-11
-7.82871e-11
-1.90858e-10
-3.42775e-10
-5.24011e-10
-8.72176e-10
-1.84182e-09
-4.91458e-09
-1.2007e-08
-2.57937e-08
-5.12463e-08
-8.9528e-08
-1.46787e-07
-2.09336e-07
-4.37425e-07
-4.05299e-07
-1.26052e-20
-5.01072e-19
-1.18491e-17
-1.73812e-16
-1.95004e-15
-2.113e-14
-2.75802e-13
-2.2919e-12
-8.9345e-12
-2.36521e-11
-4.53442e-11
-7.40235e-11
-1.26959e-10
-2.7037e-10
-7.39107e-10
-1.97338e-09
-4.73022e-09
-1.04397e-08
-2.06818e-08
-3.6752e-08
-5.9486e-08
-1.12669e-07
-1.27048e-07
-1.41104e-21
-5.53466e-20
-1.3269e-18
-1.97685e-17
-2.23442e-16
-2.37186e-15
-3.14741e-14
-2.39022e-13
-8.97052e-13
-2.49993e-12
-4.97194e-12
-8.60127e-12
-1.5234e-11
-3.31899e-11
-9.18371e-11
-2.60597e-10
-6.826e-10
-1.6436e-09
-3.61629e-09
-6.97132e-09
-1.20809e-08
-2.13457e-08
-2.9482e-08
-1.4071e-22
-5.48769e-21
-1.33384e-19
-2.01998e-18
-2.30375e-17
-2.39929e-16
-3.16676e-15
-2.22596e-14
-7.94202e-14
-2.26402e-13
-4.55427e-13
-8.26242e-13
-1.50497e-12
-3.38587e-12
-9.42e-12
-2.76886e-11
-7.71162e-11
-1.97548e-10
-4.7114e-10
-9.73405e-10
-1.79881e-09
-3.1096e-09
-4.80722e-09
-1.25889e-23
-4.92292e-22
-1.21143e-20
-1.86393e-19
-2.14376e-18
-2.19926e-17
-2.80509e-16
-1.84479e-15
-6.21102e-15
-1.76619e-14
-3.5171e-14
-6.60735e-14
-1.22623e-13
-2.85813e-13
-7.92721e-13
-2.35997e-12
-6.77032e-12
-1.79039e-11
-4.49815e-11
-9.74232e-11
-1.90598e-10
-3.31905e-10
-5.54574e-10
-1.02663e-24
-4.06342e-23
-1.00964e-21
-1.57525e-20
-1.8221e-19
-1.8474e-18
-2.20683e-17
-1.36189e-16
-4.30545e-16
-1.19642e-15
-2.30924e-15
-4.42639e-15
-8.23662e-15
-1.97423e-14
-5.3588e-14
-1.57627e-13
-4.47543e-13
-1.1749e-12
-2.99305e-12
-6.5569e-12
-1.33358e-11
-2.33759e-11
-4.201e-11
-7.72604e-26
-3.11661e-24
-7.79147e-23
-1.22783e-21
-1.42026e-20
-1.41808e-19
-1.55225e-18
-8.97256e-18
-2.65171e-17
-7.07084e-17
-1.29549e-16
-2.48226e-16
-4.53066e-16
-1.09751e-15
-2.8245e-15
-7.94631e-15
-2.11034e-14
-5.18764e-14
-1.25516e-13
-2.57119e-13
-5.19381e-13
-8.94239e-13
-1.73155e-12
-5.45389e-27
-2.25311e-25
-5.64805e-24
-8.94699e-23
-1.02873e-21
-1.00532e-20
-9.92297e-20
-5.33049e-19
-1.46483e-18
-3.68442e-18
-6.28716e-18
-1.17702e-17
-2.04336e-17
-4.82051e-17
-1.11351e-16
-2.82204e-16
-6.22235e-16
-1.31361e-15
-3.31333e-14
-4.40809e-13
-2.01453e-12
-6.80876e-12
-1.32862e-11
-3.67157e-28
-1.55668e-26
-3.89954e-25
-6.1715e-24
-7.00146e-23
-6.62349e-22
-5.84579e-21
-2.89305e-20
-7.33868e-20
-1.71089e-19
-2.66539e-19
-4.72899e-19
-7.44294e-19
-1.59107e-18
-3.03631e-18
-7.66812e-18
-3.41856e-15
-4.66291e-13
-8.49718e-12
-4.20011e-11
-1.22554e-10
-2.89143e-10
-5.75303e-10
-2.3849e-29
-1.03711e-27
-2.58869e-26
-4.06783e-25
-4.52029e-24
-4.0939e-23
-3.22169e-22
-1.45716e-21
-3.385e-21
-6.94282e-21
-9.89066e-21
-2.26231e-20
-3.22808e-19
-1.28861e-17
-5.62696e-16
-2.7775e-14
-2.35338e-12
-5.20297e-11
-4.06445e-10
-1.20534e-09
-2.6091e-09
-4.97782e-09
-1.12286e-08
-1.51963e-30
-6.76387e-29
-1.67622e-27
-2.59578e-26
-2.79048e-25
-2.34195e-24
-1.62617e-23
-7.22598e-23
-4.07336e-22
-1.14618e-20
-4.30648e-19
-1.53327e-17
-4.87318e-16
-1.38462e-14
-3.67122e-13
-1.0141e-11
-2.2001e-10
-2.08208e-09
-8.83302e-09
-1.72257e-08
-2.88409e-08
-5.00818e-08
-1.46389e-07
-9.06028e-32
-4.13629e-30
-1.02764e-28
-1.78421e-27
-3.78314e-26
-1.58326e-24
-7.87393e-23
-3.69124e-21
-1.50743e-19
-5.31367e-18
-1.62865e-16
-4.34417e-15
-1.01203e-13
-2.06657e-12
-3.80364e-11
-6.68292e-10
-7.86083e-09
-4.50901e-08
-1.15035e-07
-2.12984e-07
-1.06465e-06
-6.43855e-06
-2.01964e-05
-3.69579e-32
-4.86185e-30
-7.48851e-28
-8.15209e-26
-6.50813e-24
-4.00315e-22
-1.97322e-20
-8.01104e-19
-2.73349e-17
-7.93827e-16
-1.97918e-14
-4.24087e-13
-7.82059e-12
-1.23886e-10
-1.70879e-09
-2.12316e-08
-1.77271e-07
-1.03691e-06
-1.11391e-05
-7.98774e-05
-0.000534894
-0.00215908
-0.00274298
-2.99974e-30
-9.71164e-28
-1.51264e-25
-1.50279e-23
-1.06939e-21
-5.79918e-20
-2.49299e-18
-8.72229e-17
-2.53135e-15
-6.1678e-14
-1.27286e-12
-2.23125e-11
-3.33567e-10
-4.26897e-09
-4.76856e-08
-4.93092e-07
-5.60211e-06
-9.5407e-05
-0.00153828
-0.00722026
-0.00971754
-0.00961885
-0.00533242
-4.11643e-28
-1.18661e-25
-1.6395e-23
-1.44174e-21
-9.05646e-20
-4.32213e-18
-1.62809e-16
-4.96315e-15
-1.24602e-13
-2.60527e-12
-4.57206e-11
-6.74842e-10
-8.37615e-09
-8.70708e-08
-8.00132e-07
-1.13415e-05
-0.000198248
-0.0033649
-0.0130319
-0.0141762
-0.0136839
-0.00351077
-5.67178e-08
-2.67142e-26
-7.12145e-24
-9.08313e-22
-7.35026e-20
-4.22403e-18
-1.82812e-16
-6.17186e-15
-1.66152e-13
-3.61847e-12
-6.41979e-11
-9.29671e-10
-1.09062e-08
-1.02166e-07
-7.74568e-07
-9.7569e-06
-0.000234038
-0.00527346
-0.0142338
-0.0142381
-0.00747415
-1.52571e-07
-1.54017e-07
-6.75903e-07
-1.06095e-24
-2.52105e-22
-2.84097e-20
-2.01087e-18
-9.98749e-17
-3.68503e-15
-1.04455e-13
-2.31902e-12
-4.07419e-11
-5.67322e-10
-6.23516e-09
-5.34178e-08
-3.53882e-07
-3.37972e-06
-0.000179256
-0.0062615
-0.0146404
-0.0144328
-0.00337808
-2.3151e-07
-3.24349e-07
-1.4097e-06
-2.78758e-06
-9.80987e-24
-2.10685e-21
-2.14386e-19
-1.36847e-17
-6.12067e-16
-2.02946e-14
-5.15024e-13
-1.01682e-11
-1.57275e-10
-1.90061e-09
-1.72744e-08
-1.18276e-07
-1.11222e-06
-9.3097e-05
-0.00364524
-0.0145712
-0.0149684
-0.00303307
-2.43081e-07
-3.56437e-07
-1.11411e-06
-1.72161e-06
-1.74146e-06
-4.93714e-23
-9.75717e-21
-9.06427e-19
-5.22898e-17
-2.08645e-15
-6.07554e-14
-1.33051e-12
-2.22818e-11
-2.85107e-10
-2.71456e-09
-1.87986e-08
-9.54829e-08
-5.50015e-06
-0.00162162
-0.0125008
-0.0149597
-0.00543853
-1.01863e-07
-2.49599e-07
-5.92218e-07
-6.40979e-07
-4.39616e-07
-3.16507e-07
-1.62574e-22
-2.92703e-20
-2.46418e-18
-1.27992e-16
-4.56741e-15
-1.18073e-13
-2.27362e-12
-3.29581e-11
-3.60452e-10
-2.9581e-09
-1.77713e-08
-7.86534e-08
-9.02587e-06
-0.00444186
-0.013244
-0.010749
-2.35452e-08
-1.04523e-07
-2.1738e-07
-2.10768e-07
-1.37615e-07
-8.70884e-08
-7.16553e-08
-3.64679e-22
-6.66508e-20
-5.71721e-18
-3.03237e-16
-1.10542e-14
-2.9206e-13
-5.76748e-12
-8.65701e-11
-9.95773e-10
-8.70815e-09
-5.51839e-08
-2.35461e-07
-3.11262e-05
-0.00463149
-0.00818581
-0.000483863
-2.41448e-08
-6.05727e-08
-6.85754e-08
-4.17495e-08
-2.47075e-08
-1.72409e-08
-1.68426e-08
-1.76019e-21
-3.15886e-19
-2.69589e-17
-1.41568e-15
-5.07209e-14
-1.30602e-12
-2.49119e-11
-3.5935e-10
-4.01376e-09
-3.58235e-08
-2.72788e-07
-8.14609e-06
-0.0007309
-0.00328184
-0.00085946
-1.75048e-08
-2.509e-08
-3.18158e-08
-1.34005e-08
-6.50748e-09
-3.73633e-09
-2.84048e-09
-3.86335e-09
-3.04893e-21
-6.28697e-19
-6.03334e-17
-3.54434e-15
-1.412e-13
-4.00289e-12
-8.26578e-11
-1.25223e-09
-1.38981e-08
-1.12963e-07
-9.75453e-07
-6.48787e-05
-0.00102568
-0.00119718
-1.71753e-08
-1.79289e-08
-3.3137e-08
-1.89315e-08
-2.45281e-09
-7.68896e-10
-4.28202e-10
-3.74371e-10
-7.82681e-10
-9.49445e-21
-1.97998e-18
-1.88681e-16
-1.07732e-14
-4.06838e-13
-1.09581e-11
-2.21393e-10
-3.38587e-09
-3.86735e-08
-3.38513e-07
-4.10422e-06
-0.000158579
-0.000761262
-0.000215986
-1.75816e-08
-4.27958e-08
-7.2199e-08
-1.00014e-08
-4.17628e-10
-6.28822e-11
-3.55438e-11
-3.75238e-11
-1.01376e-10
-6.97907e-21
-1.59788e-18
-1.71316e-16
-1.14119e-14
-5.26749e-13
-1.68407e-11
-3.79353e-10
-6.30976e-09
-7.78606e-08
-7.38817e-07
-1.09939e-05
-0.00018596
-0.000299887
-2.13823e-05
-1.79881e-08
-1.26914e-07
-1.1223e-07
-3.53206e-09
-3.31563e-11
-2.66557e-12
-1.65803e-12
-2.37537e-12
-5.83256e-12
-2.75054e-21
-8.02315e-19
-1.10743e-16
-9.34115e-15
-5.23228e-13
-2.05687e-11
-5.70956e-10
-1.11624e-08
-1.58391e-07
-1.79628e-06
-2.09003e-05
-7.94653e-05
-3.50577e-05
-1.0248e-05
-2.81812e-06
-9.41207e-07
-3.79403e-08
-3.03883e-33
-3.03267e-15
-1.3951e-15
-7.86865e-17
-3.70878e-18
4.2395e-28
-533.416
-504.937
-303.458
-224.339
-658.335
-581.209
-232.935
-95.1508
-783.843
-779.475
-658.882
-359.825
-909.051
-909.051
-909.051
-892.281
-580.563
-702.567
-826.075
-889.298
-126.015
-184.526
-309.489
-381.644
-63.425
-62.8956
-63.425
-224.23
-389.977
-311.644
-127.065
-148.053
-436.79
-799.158
-799.687
-799.55
-0.00248359
-4.82054
-371.894
-860.723
-0.00267085
-0.00267087
-0.00267085
-4.31166
-0.0177908
-0.00287066
-0.0033051
-0.00139853
-0.0184055
-0.0396924
-0.0396924
-0.0109353
-0.00217787
-0.00779727
-0.00365996
-0.0225404
-4.76905e-05
-3.40431e-05
-4.29234e-06
-0.00197069
-7.14113e-07
-1.01548e-06
-4.52631e-06
-4.44541e-06
-3.01691e-07
-4.94583e-07
-8.48608e-07
-3.9264e-07
-1.23377e-07
-1.66381e-07
-1.91473e-07
-1.55651e-07
-3.23238e-08
-3.89967e-08
-3.92291e-08
-5.14902e-08
-5.86017e-09
-6.98623e-09
-7.12542e-09
-1.18686e-08
-7.31659e-10
-8.77336e-10
-9.78192e-10
-1.67739e-09
-5.85401e-11
-7.2173e-11
-8.75656e-11
-1.45984e-10
-2.53478e-12
-3.2956e-12
-4.35705e-12
-7.10114e-12
-2.0067e-11
-3.13299e-11
-5.85488e-11
-1.06679e-10
-8.84226e-10
-1.60796e-09
-3.13826e-09
-6.07176e-09
-1.8466e-08
-4.03798e-08
-7.55731e-08
-1.94393e-07
-8.17076e-07
-2.40149e-06
-4.89554e-06
-2.72627e-05
-0.000336645
-0.000475863
-0.000648466
-0.000713238
-0.00323902
-0.00324013
-0.00189062
-0.000856556
-0.00309531
-0.00110337
-0.000144688
-9.75949e-07
-5.67198e-08
-5.67178e-08
-5.67198e-08
-1.00479e-06
-2.20348e-06
-3.4454e-06
-4.83879e-06
-6.04211e-06
-3.93673e-06
-4.52611e-06
-5.1372e-06
-5.99968e-06
-1.43452e-06
-1.38112e-06
-1.5692e-06
-2.35451e-06
-2.9832e-07
-3.70368e-07
-5.18105e-07
-8.00446e-07
-9.04017e-08
-1.45551e-07
-2.28622e-07
-3.69778e-07
-3.17134e-08
-5.97112e-08
-1.03323e-07
-1.71327e-07
-9.84852e-09
-1.9963e-08
-3.61238e-08
-5.61599e-08
-2.19732e-09
-4.56451e-09
-8.12851e-09
-1.07286e-08
-2.62395e-10
-4.9707e-10
-6.84983e-10
-7.43642e-10
-7.39946e-12
-5.99155e-12
-3.23851e-12
-2.01511e-12
7.35961e-28
7.40627e-28
5.84179e-28
-1.63099e-36
-148.692
-0.0324063
8.29001e-18
-164.841
-461.783
-522.363
-496.6
-287.343
-118.344
-34.3033
-21.7614
-26.0372
-40.0705
-50.8231
-68.775
-133.179
-303.014
-197.203
-408.294
-39.1259
-0.0411174
-190.627
-626.947
-658.662
-643.982
-229.083
-4.67419e-06
-4.67419e-06
-4.67419e-06
-4.67419e-06
-0.00987203
-0.0475724
-0.100123
-0.320308
-2.43691
-34.1318
-111.939
-504.113
-215.473
-443.249
-772.941
-783.856
-783.856
-337.14
-0.0245019
-0.223056
-0.00280126
-0.000573408
-0.0115327
-0.0267791
-0.00591064
-0.000789466
-0.00246402
-0.0460481
-0.943326
-58.5849
-599.931
-841.329
-905.05
-905.051
-867.806
-687.654
-32.2102
-0.0284104
-0.0114887
-0.00201532
-2.7556e-08
-2.7556e-08
-2.52916e-05
-4.32897e-07
-0.000155865
-0.000476725
-0.000994712
-0.0968694
-6.53671
-679.975
-964.223
-882.477
-817.675
-531.688
-68.3064
-0.00337451
-0.00337463
-0.00189065
-3.13511e-08
-3.1351e-08
-3.13753e-08
-3.13754e-08
-4.92503e-07
-2.22639e-06
-6.11799e-06
-0.000492396
-0.490283
-53.5913
-788.617
-466.672
-577.761
-598.525
-68.4155
-0.00228439
-0.00450731
-0.0020983
-9.84076e-08
-9.83037e-08
-1.53962e-07
-1.53851e-07
-1.09376e-07
-1.17032e-07
-2.6454e-07
-4.17182e-06
-5.02053e-05
-2.87927e-13
-62.1243
-884.079
-486.1
-632.16
-212.155
-3.44829e-13
-0.00285525
-0.00705356
-0.00194959
-1.08928e-07
-1.97525e-05
-0.000102536
-8.61336e-06
-7.62496e-06
-9.73227e-06
-1.13066e-05
-3.07371e-05
-1.45442e-05
-3.19735e-13
-55.4995
-970.926
-269.73
-440.006
-4.04201
-3.78138e-13
-0.00674219
-0.00775761
-0.00421341
-0.0741728
-0.98706
-2.88425
-0.281768
-0.00340442
-0.0405906
-0.246697
-1.45964
-0.800035
-3.50113e-13
-57.7687
-1053.13
-799.576
-407.83
-201.277
-58.0504
-0.00735413
-0.00793595
-0.223725
-9.71499
-155.523
-307.011
-63.9262
-6.12612
-31.2887
-95.2915
-246.8
-193.959
-5.0191
-104.447
-1120.51
-1114.56
-1114.55
-1114.5
-614.94
-139.107
-0.0085834
-8.01223
-265.668
-938.131
-1137.06
-709.713
-271.645
-668.2
-1036.33
-1320.91
-1286.43
-566.921
-315.21
-1127.08
-403.654
-1104.8
-1263.44
-1263.44
-1218.86
-989.757
-962.206
-1206.17
-1245
-1245.02
-1213.52
-821.713
-1453.25
-1709.25
-1767.85
-1767.85
-1680.02
-1208.21
-1258.13
-0.00139817
-76.3819
-793.905
-1238.67
-1352.04
-1352.04
-1350.58
-1228
-958.13
-692.614
-621.723
-1248.07
-1247.44
-1179.93
-1620.48
-1891.82
-1891.82
-1872.19
-1817.84
-0.00161336
-0.00142802
-0.00142813
-44.9697
-338.434
-462.129
-329.335
-81.7621
-3.25322
-10.0077
-134.876
-184.36
-61.7524
-37.9611
-537.978
-1884.85
-2015.78
-2015.78
-2015.78
-0.026333
-0.0183672
-0.00151585
-8.29993e-07
-8.29993e-07
-8.29993e-07
-8.29993e-07
-8.29993e-07
-8.29993e-07
-8.29993e-07
-8.29993e-07
-8.29993e-07
-8.29993e-07
-8.29993e-07
-19.627
-1050.89
-2136.11
-2139.74
-2139.74
-0.0034745
-0.00849022
-0.0113751
-0.00506694
-8.78078e-07
-8.78078e-07
-1.30311e-05
-4.67053e-05
-3.74926e-05
-9.15337e-07
-3.64146e-06
-6.65697e-05
-0.00481399
-1.29348
-31.9819
-369.792
-1479.14
-2077.33
-2214.47
-0.000129138
-0.000322531
-0.00014107
-0.00740571
-0.000779117
-0.00795797
-0.0254041
-0.0301017
-0.00274043
-9.26162e-07
-8.08074e-06
-0.000139387
-0.00890197
-2.92264
-75.132
-174.674
-258.654
-640.567
-975.779
-5.89838e-06
-9.6635e-06
-1.7798e-06
-0.00233145
-0.0180413
-0.0182341
-0.0863286
-0.106841
-0.06109
-9.74247e-07
-1.19713e-05
-0.00010145
-0.0124908
-1.92368
-132.851
-230.874
-49.1835
-49.2852
-48.8815
-1.49084e-06
-2.80012e-06
-1.86765e-06
-9.83132e-08
-0.0104731
-2.20042e-05
-0.0891451
-0.112116
-0.112114
-0.0210294
-1.25623e-05
-5.8839e-05
-0.0147252
-0.512471
-51.3945
-241.627
-312.975
-137.595
-51.7177
-6.3036e-07
-1.25016e-06
-1.08229e-06
-1.02937e-07
-0.000467224
-2.30438e-05
-0.0101859
-0.0220819
-0.113616
-0.0740575
-0.0018908
-1.98367e-06
-0.0111851
-0.0376627
-0.0376618
-75.1288
-358.198
-413.352
-519.246
-1.46044e-07
-3.1336e-07
-3.18693e-07
-1.77288e-07
-2.05533e-07
-2.40741e-05
-4.67597e-06
-0.00148247
-0.00755313
-0.00689762
-0.00208085
-2.05108e-06
-0.0100658
-0.000332582
-0.478391
-0.0156245
-0.0156218
-124.065
-1166.83
-1.89482e-08
-4.76247e-08
-5.56245e-08
-5.73773e-08
-8.2869e-09
-7.42533e-06
-4.87695e-06
-1.09399e-05
-1.22791e-05
-1.28568e-05
-3.79522e-05
-2.13953e-06
-0.00211698
-0.000346904
-0.51067
-0.0205238
-0.0314836
-80.6637
-1216.99
-1.44293e-09
-4.15619e-09
-6.09734e-09
-8.44053e-09
-8.62841e-09
-4.32402e-07
-9.94778e-07
-5.71953e-07
-2.89421e-07
-2.17085e-07
-2.06692e-07
-2.22749e-06
-6.67944e-08
-6.68017e-08
-0.34543
-0.16027
-0.0585449
-37.0905
-1267.15
-5.68275e-11
-1.95152e-10
-4.15783e-10
-9.49133e-10
-2.95347e-09
-2.47057e-08
-7.65918e-08
-9.50494e-08
-1.18555e-07
-1.48645e-07
-1.514e-07
-8.21683e-07
-6.27446e-07
-6.94382e-08
-0.465784
-0.797223
-0.106977
-4.01557
-1317.32
-4.36999e-10
-3.76363e-10
-1.81724e-10
-1.20665e-10
-4.16023e-10
-2.15005e-09
-8.0287e-09
-1.96187e-08
-4.12184e-08
-7.55866e-08
-1.14051e-07
-2.29326e-07
-1.97462e-07
-7.18959e-08
-0.549381
-1.22792
-0.238021
3.4268e-21
-1342.77
-2.72512e-08
-2.92542e-08
-1.73973e-08
-4.01956e-09
-7.17789e-10
-4.97609e-10
-1.28022e-09
-4.70656e-09
-1.4115e-08
-3.41513e-08
-6.91966e-08
-1.50668e-07
-1.32801e-07
-7.45417e-08
-0.56836
-1.27236
-0.391824
-2.26686e-20
-866.23
-9.55176e-07
-9.33821e-07
-4.97531e-07
-1.60353e-07
-3.9252e-08
-6.54072e-09
-1.7999e-09
-1.73087e-09
-4.38978e-09
-1.40749e-08
-3.97691e-08
-1.28158e-07
-1.20518e-07
-7.71704e-08
-0.594891
-1.31801
-0.442006
-4.84867e-17
-740.699
-6.11211e-05
-2.30943e-05
-5.07127e-06
-1.73931e-06
-6.28395e-07
-1.7277e-07
-3.84829e-08
-7.75752e-09
-4.22506e-09
-6.13438e-09
-2.11993e-08
-1.08678e-07
-1.10027e-07
-7.96114e-08
-0.387279
-1.33215
-0.309835
-9.19793
-766.086
-0.000431783
-9.09663e-05
-1.6104e-05
-7.47875e-06
-4.14518e-06
-1.61505e-06
-4.8506e-07
-1.27055e-07
-2.89206e-08
-1.0024e-08
-1.38965e-08
-8.75287e-08
-9.91718e-08
-8.22518e-08
-0.155545
-0.828831
-0.158741
-21.8534
-539.796
-0.000274891
-0.000150616
-9.50169e-05
-4.99414e-05
-2.70816e-05
-9.8028e-06
-3.36935e-06
-9.95951e-07
-2.72854e-07
-6.50749e-08
-2.45373e-08
-6.768e-08
-8.85109e-08
-8.48729e-08
-8.48829e-08
-0.393849
-0.163938
-17.6621
-3.32437
-7.49779e-06
-8.72163e-05
-0.000214197
-0.00015423
-6.61864e-05
-3.6447e-05
-1.81864e-05
-4.93033e-06
-1.71071e-06
-6.06073e-07
-1.683e-07
-1.06915e-07
-1.11449e-07
-8.73004e-08
-8.75037e-08
-0.200223
-0.171541
-1.38939
-3.42746
-1.00529e-06
-4.47002e-06
-0.000212122
-0.000164777
-6.81769e-05
-0.000159168
-0.000134973
-5.75094e-05
-1.06635e-05
-8.5871e-07
-8.51255e-08
-5.8725e-08
-8.99375e-08
-8.99358e-08
-8.99249e-08
-0.171751
-0.172118
-1.12682e-19
-218.352
-6.05712e-06
-5.77077e-06
-5.77577e-05
-0.00105744
-0.000245752
-0.000403999
-0.000967311
-0.000633547
-6.44449e-07
-6.50261e-07
-5.8888e-06
-3.85275e-06
-8.58452e-07
-1.46873e-07
-9.27653e-08
-0.0854148
-0.121448
-1.31493e-21
-478.553
-6.89069e-06
-7.00129e-06
-5.71627e-06
-0.00271194
-0.00592255
-0.000642356
-0.00683343
-0.00720079
-0.00514553
-0.000918871
-8.52887e-06
-2.10655e-06
-8.8029e-07
-1.9205e-07
-9.54073e-08
-0.0383673
-0.181611
-1.87801e-19
-492.131
-4.72079e-06
-7.45473e-06
-5.86734e-06
-0.00125432
-0.0106606
-0.00236244
-0.00653194
-0.0453006
-0.0147223
-4.02644e-07
-4.02642e-07
-4.02644e-07
-5.54652e-07
-2.50396e-07
-9.8027e-08
-0.120881
-0.199096
4.08018e-21
-505.611
-1.81473e-06
-5.68926e-06
-6.06787e-06
-2.80682e-06
-0.0104963
-0.0075044
-0.001379
-0.0675062
-0.197424
-0.0467195
-0.00147317
-0.000219695
-3.675e-06
-2.81331e-07
-1.00906e-07
-0.138293
-0.204377
1.63486e-19
-221.315
-7.30434e-07
-2.19251e-06
-6.27785e-06
-2.87992e-06
-0.000591031
-0.00561001
-0.00141506
-1.10316e-07
-0.429886
-0.417274
-0.075648
-0.00140138
-1.45851e-06
-2.16758e-07
-1.03555e-07
-0.0551233
-0.102442
-0.00576441
-0.000316508
-3.13506e-07
-8.33981e-07
-3.50308e-06
-2.95397e-06
-1.58715e-07
-1.58749e-07
-2.50423e-05
-1.13126e-07
-0.479167
-0.959744
-0.306606
-0.0036924
-9.85064e-07
-2.03948e-07
-1.06181e-07
-0.000805905
-0.000242174
-0.000242201
-0.000787476
-8.46449e-08
-1.2781e-07
-2.91692e-07
-5.70434e-07
-1.63881e-07
-3.34968e-07
-3.10251e-05
-1.15935e-07
-0.69894
-0.983557
-0.610788
-0.0136806
-6.99427e-07
-2.09012e-07
-1.18195e-05
-4.50425e-05
-1.69923e-06
-0.0109026
-0.0400473
-1.1646e-08
-9.06281e-09
-1.66069e-09
-1.06975e-08
-3.36783e-07
-6.7496e-06
-0.000101174
-1.18745e-07
-0.822749
-1.00742
-0.686849
-0.0178305
-5.34734e-07
-2.14054e-07
-9.86476e-05
-5.62566e-05
-1.74041e-06
-0.0804364
-0.0739507
-6.89146e-10
-5.48905e-10
-1.70014e-09
-1.73361e-08
-2.11928e-07
-6.48132e-06
-7.53001e-05
-1.21555e-07
-0.570064
-1.03123
-0.723495
-0.0189224
-5.5143e-07
-2.77663e-07
-0.000116604
-9.10043e-05
-1.42837e-05
-0.0898143
-0.0274099
-2.81879e-12
-2.44357e-11
-2.03826e-10
-1.24994e-09
-2.88729e-09
5.13677e-29
-7.14096e-24
-0.000618711
-0.058367
-1.0551
-0.656778
-0.0106291
-5.76379e-07
-2.84075e-07
-0.000109768
-6.93972e-05
-1.19142e-05
-0.0702171
-0.0132311
-9.32318e-18
-5.22561e-16
-2.11659e-14
-7.72798e-13
-2.60771e-11
-3.7705e-10
-6.90762e-25
-0
-0
-0.411038
-0.297048
-0.0127721
-2.56183e-06
-7.5883e-07
-2.88738e-05
-1.62729e-05
-1.36156e-05
-0.00406531
-0.0331405
)
;

boundaryField
{
    leftWall
    {
        type            calculated;
        value           nonuniform List<scalar> 
50
(
-29.4294
-88.2881
-147.147
-206.006
-264.864
-323.723
-382.573
-420.774
-213.623
-2.34679e-12
-2.79374e-12
-5.02388e-14
-1.955e-13
-7.7402e-14
-9.44157e-14
-4.15745e-14
-1.78791e-14
-5.26329e-15
-1.71941e-15
-4.50045e-16
-1.09886e-16
-2.28695e-17
-4.27078e-18
-6.9382e-19
-9.98549e-20
-1.26052e-20
-1.41104e-21
-1.4071e-22
-1.25889e-23
-1.02663e-24
-7.72604e-26
-5.45389e-27
-3.67157e-28
-2.3849e-29
-1.51963e-30
-9.06028e-32
-3.69579e-32
-2.99974e-30
-4.11643e-28
-2.67142e-26
-1.06095e-24
-9.80987e-24
-4.93714e-23
-1.62574e-22
-3.64679e-22
-1.76019e-21
-3.04893e-21
-9.49445e-21
-6.97907e-21
-2.75054e-21
)
;
    }
    rightWall
    {
        type            calculated;
        value           nonuniform List<scalar> 
50
(
-24.5357
-73.6069
-110.049
-110.258
-148.389
-185.086
-191.905
-256.116
-408.294
-504.113
-599.931
-679.975
-788.617
-884.079
-970.926
-1053.13
-1120.51
-1127.08
-1258.13
-1817.84
-2015.78
-2139.74
-2214.47
-975.779
-48.8815
-51.7177
-519.246
-1166.83
-1216.99
-1267.15
-1317.32
-1342.77
-866.23
-740.699
-766.086
-539.796
-3.32437
-3.42746
-218.352
-478.553
-492.131
-505.611
-221.315
-0.000316508
-0.000787476
-0.0400473
-0.0739507
-0.0274099
-0.0132311
-0.0331405
)
;
    }
    lowerWall
    {
        type            calculated;
        value           nonuniform List<scalar> 
62
(
0
0
0
0
0
0
0
0
0
0
0
0
0
0
0
0
0
0
0
0
0
0
0
-29.4231
-88.2626
-147.104
-205.946
-264.847
-323.723
-382.582
-441.44
-470.825
-445.687
-267.85
-198.015
-23.8826
-71.6478
-119.413
-138.708
-190.783
-243.192
-287.311
-267.495
0
0
0
0
0
0
0
0
0
0
0
0
0
0
0
0
0
0
0
)
;
    }
    atmosphere
    {
        type            calculated;
        value           nonuniform List<scalar> 
46
(
-2.78092e-21
-8.11178e-19
-1.11966e-16
-9.44434e-15
-5.29008e-13
-2.07959e-11
-5.77264e-10
-1.12857e-08
-1.60141e-07
-1.81613e-06
-2.11312e-05
-8.03432e-05
-3.5445e-05
-1.03612e-05
-2.84925e-06
-0
-0
-0
-0
-0
-0
-0
-0
-0
-0
-0
-0
-0
-0
-0
-0
-0
-0
-0
-0
-0
-0.415578
-0.30033
-0.0129132
-2.59013e-06
-7.67213e-07
-2.91927e-05
-1.64527e-05
-1.37661e-05
-0.00411022
-0.0335066
)
;
    }
    defaultFaces
    {
        type            empty;
    }
}


// ************************************************************************* //
