/*--------------------------------*- C++ -*----------------------------------*\
| =========                 |                                                 |
| \\      /  F ield         | OpenFOAM: The Open Source CFD Toolbox           |
|  \\    /   O peration     | Version:  2012                                  |
|   \\  /    A nd           | Website:  www.openfoam.com                      |
|    \\/     M anipulation  |                                                 |
\*---------------------------------------------------------------------------*/
FoamFile
{
    version     2.0;
    format      ascii;
    class       volVectorField;
    location    "0.68";
    object      U;
}
// * * * * * * * * * * * * * * * * * * * * * * * * * * * * * * * * * * * * * //

dimensions      [0 1 -1 0 0 0 0];


internalField   nonuniform List<vector> 
2268
(
(-0.0019558 -0.000291008 0)
(-0.00156166 -0.000647458 0)
(-0.0025175 -0.000341703 0)
(-0.00583454 0.000161732 0)
(-0.0127536 0.000367012 0)
(-0.019714 -0.000127549 0)
(-0.0239758 2.73412e-05 0)
(-0.0325923 0.00097713 0)
(-0.0440327 0.00149074 0)
(-0.0523147 0.00198896 0)
(-0.0640154 0.00249486 0)
(-0.0726046 0.00290962 0)
(-0.0829429 0.00221238 0)
(-0.0856634 0.00129038 0)
(-0.0900205 0.00037956 0)
(-0.0883316 -0.000373501 0)
(-0.0901735 -0.00115743 0)
(-0.0841609 -0.00216801 0)
(-0.0792549 -0.00334416 0)
(-0.0667729 -0.00438235 0)
(-0.0497019 -0.00583119 0)
(-0.0333314 -0.00834717 0)
(0.00645609 0.00303162 0)
(-0.00215768 0.00195423 0)
(-0.00173902 0.000915145 0)
(-0.00276557 0.00236339 0)
(-0.00562731 0.00467947 0)
(-0.0122444 0.00619718 0)
(-0.0190469 0.00543401 0)
(-0.0236857 0.00606722 0)
(-0.0323645 0.00849456 0)
(-0.043859 0.00784327 0)
(-0.0514206 0.00743204 0)
(-0.0641683 0.00712538 0)
(-0.0727171 0.00599024 0)
(-0.0827655 0.00402395 0)
(-0.0861078 0.00197109 0)
(-0.0907477 0.000986276 0)
(-0.0891796 0.000322518 0)
(-0.0906911 -0.000662623 0)
(-0.0845213 -0.00315881 0)
(-0.0801524 -0.00467343 0)
(-0.0689086 -0.00977568 0)
(-0.0550344 -0.009752 0)
(-0.0428478 -0.0183261 0)
(-0.010455 -0.0156165 0)
(-0.00245471 0.00154709 0)
(-0.00138408 -0.000364684 0)
(-0.00239197 0.00148798 0)
(-0.00460968 0.00463118 0)
(-0.0107769 0.00669585 0)
(-0.0175271 0.00526397 0)
(-0.0234088 0.00631473 0)
(-0.0329504 0.0104994 0)
(-0.0446815 0.0105118 0)
(-0.0529417 0.0115708 0)
(-0.0655457 0.0125886 0)
(-0.0736584 0.0116522 0)
(-0.0832512 0.00859966 0)
(-0.0864973 0.00498125 0)
(-0.0916621 0.00192483 0)
(-0.0900539 -0.000520129 0)
(-0.0917355 -0.0032377 0)
(-0.0845452 -0.00730099 0)
(-0.0802345 -0.0105907 0)
(-0.0678577 -0.0164556 0)
(-0.054126 -0.018056 0)
(-0.0391985 -0.029646 0)
(-0.00526362 -0.0222558 0)
(-0.00262298 0.00377326 0)
(-0.000998827 0.000894439 0)
(-0.00255073 0.0039003 0)
(-0.00433557 0.00866099 0)
(-0.00981287 0.0123263 0)
(-0.0158744 0.0114281 0)
(-0.0225333 0.0133813 0)
(-0.0319937 0.0185482 0)
(-0.0429515 0.0173017 0)
(-0.0518852 0.0172631 0)
(-0.0646571 0.0169476 0)
(-0.0738135 0.0143145 0)
(-0.0844597 0.0101575 0)
(-0.0891114 0.00586325 0)
(-0.0943101 0.00278176 0)
(-0.0923432 0.000231222 0)
(-0.093538 -0.00308453 0)
(-0.086629 -0.00877654 0)
(-0.0832364 -0.0122773 0)
(-0.070965 -0.0223081 0)
(-0.0586927 -0.0229041 0)
(-0.0407471 -0.0414759 0)
(-0.00813169 -0.0362766 0)
(-0.00150816 0.00325167 0)
(-0.000126039 -0.000409045 0)
(-0.00160962 0.00304606 0)
(-0.00291903 0.0080374 0)
(-0.0075424 0.0121114 0)
(-0.013123 0.0112346 0)
(-0.0218617 0.013904 0)
(-0.0326068 0.0201269 0)
(-0.0441718 0.0199282 0)
(-0.0546957 0.0218228 0)
(-0.0671797 0.0229802 0)
(-0.0758446 0.0209697 0)
(-0.0861723 0.0158834 0)
(-0.0901542 0.00955984 0)
(-0.0954762 0.00353037 0)
(-0.0935492 -0.000995774 0)
(-0.0960403 -0.00585248 0)
(-0.088139 -0.0123103 0)
(-0.0863802 -0.0179373 0)
(-0.0733415 -0.0282864 0)
(-0.0643385 -0.0323762 0)
(-0.0432867 -0.0539379 0)
(0.00091305 -0.0456809 0)
(0.000625089 0.00455239 0)
(0.000240581 0.000956487 0)
(-0.00180699 0.00524279 0)
(-0.00310665 0.0115026 0)
(-0.0066146 0.0172006 0)
(-0.0108713 0.0182525 0)
(-0.0203535 0.0226437 0)
(-0.0302143 0.0291104 0)
(-0.0405824 0.0277505 0)
(-0.052014 0.0280963 0)
(-0.0659881 0.0269656 0)
(-0.0765818 0.0232457 0)
(-0.0891553 0.0169804 0)
(-0.0949385 0.0101814 0)
(-0.099453 0.00450818 0)
(-0.0969743 0.000366021 0)
(-0.0990722 -0.00542359 0)
(-0.0917087 -0.0135433 0)
(-0.0903864 -0.0188807 0)
(-0.077297 -0.0329413 0)
(-0.0718074 -0.0364696 0)
(-0.0448645 -0.0723218 0)
(0.00212081 -0.0555913 0)
(0.00262124 0.00283509 0)
(0.00199714 0.000727572 0)
(0.000145842 0.00459884 0)
(-0.000984386 0.0102645 0)
(-0.00280643 0.0157066 0)
(-0.00685839 0.0176482 0)
(-0.0186267 0.0229756 0)
(-0.0300783 0.0296415 0)
(-0.0428534 0.0302423 0)
(-0.0564396 0.0338425 0)
(-0.0697147 0.0346288 0)
(-0.0795521 0.031892 0)
(-0.0913533 0.0246112 0)
(-0.0963929 0.0143541 0)
(-0.100778 0.00455291 0)
(-0.098663 -0.0012733 0)
(-0.103296 -0.00828923 0)
(-0.0948222 -0.0165492 0)
(-0.0961882 -0.0247672 0)
(-0.0817694 -0.0373396 0)
(-0.0843923 -0.0478767 0)
(-0.0515493 -0.0894854 0)
(0.0112247 -0.0665577 0)
(0.00395614 0.00236787 0)
(0.00349296 0.00213679 0)
(0.00215252 0.00667971 0)
(0.000573718 0.0129584 0)
(0.000171167 0.0200683 0)
(-0.00344437 0.0258378 0)
(-0.0150766 0.0337247 0)
(-0.0248453 0.040618 0)
(-0.0382306 0.0402237 0)
(-0.0529839 0.040727 0)
(-0.0671963 0.0378848 0)
(-0.0811108 0.0334181 0)
(-0.0967278 0.0249863 0)
(-0.103296 0.0145658 0)
(-0.105405 0.00570662 0)
(-0.102323 0.00141551 0)
(-0.106793 -0.00698619 0)
(-0.0993621 -0.01713 0)
(-0.0998836 -0.0245368 0)
(-0.0866766 -0.0387933 0)
(-0.093426 -0.0497553 0)
(-0.0545498 -0.11774 0)
(-0.038546 -0.0732824 0)
(-0.852304 0.295446 0)
(-1.30841 0.0751309 0)
(-1.60891 0.0159332 0)
(-1.65803 -0.0134436 0)
(-1.6644 -0.0261023 0)
(-1.52141 -0.0338426 0)
(-1.3107 -0.0206636 0)
(-1.17512 0.0824918 0)
(-1.2875 0.098875 0)
(-1.52885 0.0322774 0)
(-1.65544 0.00656342 0)
(-1.72287 -0.004172 0)
(-1.74226 -0.0110215 0)
(-1.70629 -0.0115868 0)
(-1.64303 -0.00573184 0)
(-1.60868 -0.00363354 0)
(-1.58249 -0.0349797 0)
(-1.29711 -0.0994223 0)
(-0.734727 -0.244085 0)
(-0.704301 0.625483 0)
(-0.969507 0.251012 0)
(-1.18034 0.130667 0)
(-1.14594 0.0367163 0)
(-1.18642 -0.0322589 0)
(-1.09114 -0.11476 0)
(-0.911992 -0.124214 0)
(-0.850192 -0.0940699 0)
(-1.09903 0.0503113 0)
(-1.28446 0.123595 0)
(-1.39384 0.0756135 0)
(-1.45509 0.0408468 0)
(-1.47254 0.00433313 0)
(-1.43712 -0.0310537 0)
(-1.37238 -0.035866 0)
(-1.34192 -0.0234865 0)
(-1.3239 -0.0965386 0)
(-0.991347 -0.260838 0)
(-0.672701 -0.625677 0)
(-0.650377 0.984732 0)
(-0.705523 0.281689 0)
(-0.890282 0.0885963 0)
(-0.828784 -0.0109752 0)
(-0.851251 -0.0494367 0)
(-0.705894 -0.149894 0)
(-0.341983 -0.131759 0)
(0.0179652 0.164214 0)
(-0.436668 0.301347 0)
(-0.616147 0.159191 0)
(-0.953395 0.0798547 0)
(-1.20502 0.028946 0)
(-1.38231 -0.021008 0)
(-1.42865 -0.0558552 0)
(-1.37534 -0.0460033 0)
(-1.37792 -0.0269829 0)
(-1.40519 -0.181804 0)
(-0.953535 -0.378081 0)
(-0.501703 -0.946735 0)
(-0.566704 1.22241 0)
(-0.201408 0.36028 0)
(-0.963124 0.179654 0)
(-1.14874 0.0203261 0)
(-1.07882 -0.0871371 0)
(-0.512825 -0.326042 0)
(-0.121131 -0.427518 0)
(0.240399 -0.0588094 0)
(0.616692 0.286253 0)
(0.785854 0.343529 0)
(0.605758 0.324851 0)
(0.386747 0.268475 0)
(0.0337441 0.189695 0)
(-0.72225 0.0186816 0)
(-1.14928 -0.049335 0)
(-1.6328 -0.0467391 0)
(-1.70634 -0.287321 0)
(-0.953199 -0.642293 0)
(-0.379746 -1.25053 0)
(-0.625602 1.28376 0)
(0.609103 0.464902 0)
(-1.18472 0.454296 0)
(-0.887861 0.0507467 0)
(-0.741534 -0.365735 0)
(0.11427 -0.563323 0)
(0.149234 -0.457096 0)
(0.350722 -0.148954 0)
(0.622223 0.0953166 0)
(0.93615 0.165929 0)
(1.09744 0.212489 0)
(1.22688 0.241684 0)
(1.30619 0.274568 0)
(1.26168 0.302734 0)
(0.82054 0.327946 0)
(0.5403 0.297478 0)
(-0.393438 -0.382399 0)
(-0.627046 -0.961284 0)
(-0.284621 -1.52158 0)
(-0.633201 1.23293 0)
(0.729851 0.717667 0)
(-1.16089 0.604067 0)
(0.581472 0.0166431 0)
(-0.147382 -0.440241 0)
(0.339636 -0.725763 0)
(0.318179 -0.52784 0)
(0.522155 -0.261635 0)
(0.74675 0.0266676 0)
(0.970286 0.138621 0)
(1.09809 0.200231 0)
(1.19344 0.224452 0)
(1.26517 0.264698 0)
(1.30203 0.279933 0)
(1.34607 0.294445 0)
(1.38582 0.318558 0)
(1.40893 0.126057 0)
(0.146702 -0.668517 0)
(-0.240417 -1.64086 0)
(-0.633453 1.22245 0)
(0.675098 0.777163 0)
(-1.02087 0.250522 0)
(0.5172 -0.0698043 0)
(0.544842 -0.494999 0)
(0.445708 -0.710195 0)
(0.429611 -0.540173 0)
(0.584178 -0.330296 0)
(0.756692 -0.0888913 0)
(0.962271 0.0186753 0)
(1.07704 0.118364 0)
(1.16136 0.170324 0)
(1.22474 0.227408 0)
(1.27443 0.261416 0)
(1.33385 0.284898 0)
(1.36796 0.303124 0)
(1.3898 0.239925 0)
(1.00247 -0.262718 0)
(-0.111507 -1.57001 0)
(-0.618629 1.21446 0)
(0.664253 0.966815 0)
(-0.91232 0.440274 0)
(0.552724 -0.490302 0)
(0.544296 -0.491793 0)
(0.470481 -0.672322 0)
(0.481845 -0.585235 0)
(0.632246 -0.401436 0)
(0.791714 -0.138994 0)
(0.941687 8.87638e-05 0)
(1.02676 0.114215 0)
(1.10204 0.161173 0)
(1.16306 0.216512 0)
(1.22444 0.233624 0)
(1.29871 0.254838 0)
(1.32114 0.294833 0)
(1.30648 0.251563 0)
(1.06426 -0.00966346 0)
(-0.0795139 -1.254 0)
(0.005981 -0.00254338 0)
(0.00664853 0.00111105 0)
(0.00820253 0.00538999 0)
(0.00820219 0.00997836 0)
(0.00761537 0.0159199 0)
(0.00346739 0.02401 0)
(-0.00480225 0.0324671 0)
(-0.0129971 0.0403966 0)
(-0.0283831 0.0454047 0)
(-0.0466063 0.051437 0)
(-0.0663736 0.0536772 0)
(-0.0851306 0.0528568 0)
(-0.100205 0.0408746 0)
(-0.105131 0.0205385 0)
(-0.106254 0.00324263 0)
(-0.103507 -0.0018796 0)
(-0.113433 -0.011177 0)
(-0.104092 -0.0215167 0)
(-0.10558 -0.0344067 0)
(-0.0886081 -0.0417402 0)
(-0.118511 -0.0711207 0)
(-0.0843371 -0.114808 0)
(-0.212294 -0.13421 0)
(-0.036911 -0.00896756 0)
(-0.114133 -0.000442405 0)
(-0.178056 0.00452717 0)
(-0.260409 0.0147067 0)
(-0.25028 0.0266847 0)
(-0.163248 0.0390605 0)
(-0.110644 0.0507419 0)
(-0.0844453 0.064306 0)
(-0.0759676 0.0720023 0)
(-0.0791644 0.074891 0)
(-0.0855892 0.0708429 0)
(-0.0904527 0.0603251 0)
(-0.0916508 0.0394485 0)
(-0.0928336 0.0183631 0)
(-0.100852 0.00518294 0)
(-0.108388 0.00951024 0)
(-0.122636 -0.00438734 0)
(-0.117974 -0.0240192 0)
(-0.11818 -0.0354382 0)
(-0.122763 -0.0258839 0)
(-0.15109 -0.0433956 0)
(-0.193165 -0.0281851 0)
(-0.291605 -0.0550015 0)
(-0.0172512 0.150694 0)
(-0.0483003 0.144095 0)
(-0.0790726 0.156718 0)
(-0.112411 0.0838933 0)
(-0.112994 -0.084424 0)
(-0.134516 -0.11755 0)
(-0.165403 -0.0473088 0)
(-0.179331 0.00619065 0)
(-0.160379 0.040788 0)
(-0.181437 0.0614151 0)
(-0.199385 0.0651177 0)
(-0.199351 0.058974 0)
(-0.200536 0.0433552 0)
(-0.183868 0.0298317 0)
(-0.148394 0.0189347 0)
(-0.109663 0.0200043 0)
(-0.0857441 -0.00151012 0)
(-0.0679184 -0.0260847 0)
(-0.0876196 -0.0297202 0)
(-0.0851442 -0.00880751 0)
(-0.125688 -0.000910081 0)
(-0.117547 0.0261726 0)
(-0.181175 0.0667057 0)
(0.000628839 0.0551167 0)
(0.0106867 0.0591717 0)
(0.0113149 0.0659706 0)
(0.0458397 0.0475502 0)
(0.0091306 0.0540039 0)
(-0.0995041 0.0931035 0)
(-0.1752 0.0980521 0)
(-0.232845 0.059671 0)
(-0.276312 0.0727427 0)
(-0.302899 0.114159 0)
(-0.348106 0.0889409 0)
(-0.378145 0.0612822 0)
(-0.406235 0.0238722 0)
(-0.398328 -0.0342393 0)
(-0.33786 -0.0692092 0)
(-0.296662 -0.0535681 0)
(-0.288227 -0.0460267 0)
(-0.210749 -0.0224264 0)
(-0.130349 -0.0176277 0)
(-0.0702217 0.011328 0)
(-0.0745521 -0.0092569 0)
(-0.0631097 0.0257303 0)
(-0.105015 0.0078206 0)
(-0.0153541 0.140293 0)
(-0.0426536 0.134514 0)
(-0.07018 0.122748 0)
(-0.0962159 0.0874205 0)
(-0.139296 0.0570121 0)
(-0.163391 0.0652293 0)
(-0.18574 0.08463 0)
(-0.218049 0.10626 0)
(-0.285849 0.111815 0)
(-0.318757 0.133018 0)
(-0.370615 0.140279 0)
(-0.462447 0.116083 0)
(-0.556887 0.0613099 0)
(-0.653724 -0.0417711 0)
(-0.771043 -0.0870427 0)
(-0.82363 -0.0348639 0)
(-0.779573 -0.0944349 0)
(-0.709711 -0.188745 0)
(-0.723594 -0.166364 0)
(-0.755911 -0.0596247 0)
(-0.671383 -0.00762317 0)
(-0.388443 0.0559041 0)
(-0.25858 0.148515 0)
(-0.00697227 0.112623 0)
(-0.0129087 0.113501 0)
(-0.0300113 0.118891 0)
(-0.0441435 0.116382 0)
(-0.0884338 0.123344 0)
(-0.132413 0.140851 0)
(-0.177644 0.154228 0)
(-0.212153 0.162238 0)
(-0.252225 0.173719 0)
(-0.292742 0.200977 0)
(-0.341244 0.235726 0)
(-0.407243 0.252714 0)
(-0.516822 0.222807 0)
(-0.647902 0.188754 0)
(-0.905395 0.113759 0)
(-1.13569 -0.032191 0)
(-1.3876 -0.142209 0)
(-1.85802 -0.0661643 0)
(-2.36579 0.0226093 0)
(-2.53786 -0.0499499 0)
(-2.22147 -0.364744 0)
(-1.79362 -0.392668 0)
(-1.42585 -0.314229 0)
(-0.0133711 0.160565 0)
(-0.0362791 0.158051 0)
(-0.0637962 0.154338 0)
(-0.0861632 0.1466 0)
(-0.119127 0.14448 0)
(-0.142674 0.154031 0)
(-0.171864 0.163812 0)
(-0.19582 0.179536 0)
(-0.234154 0.191782 0)
(-0.264171 0.219955 0)
(-0.301118 0.251829 0)
(-0.321544 0.286882 0)
(-0.383242 0.29481 0)
(-0.457785 0.337667 0)
(-0.635716 0.389658 0)
(-0.886927 0.436097 0)
(-1.34564 0.605809 0)
(-1.80882 0.766622 0)
(-2.25081 0.528351 0)
(-2.47086 -0.223831 0)
(-2.27068 -0.732416 0)
(-2.15267 -0.773231 0)
(-1.99596 -0.790455 0)
(-0.00968033 0.162159 0)
(-0.0214285 0.163908 0)
(-0.0431589 0.168674 0)
(-0.0595166 0.171824 0)
(-0.0908774 0.180487 0)
(-0.115177 0.194334 0)
(-0.148001 0.208324 0)
(-0.173758 0.226079 0)
(-0.210138 0.24355 0)
(-0.242357 0.270555 0)
(-0.28367 0.296898 0)
(-0.314276 0.339767 0)
(-0.370326 0.367528 0)
(-0.440099 0.449457 0)
(-0.535685 0.558899 0)
(-0.679212 0.689061 0)
(-0.898168 0.80632 0)
(-1.10114 0.853839 0)
(-1.29924 0.67357 0)
(-1.46388 -0.0260785 0)
(-1.67981 -0.647712 0)
(-1.66727 -0.686229 0)
(-1.69751 -0.686842 0)
(-0.0121957 0.191921 0)
(-0.0291347 0.19177 0)
(-0.0533519 0.192608 0)
(-0.069224 0.194557 0)
(-0.0954366 0.200003 0)
(-0.111765 0.210795 0)
(-0.136885 0.22203 0)
(-0.152903 0.240653 0)
(-0.180607 0.259499 0)
(-0.198877 0.29147 0)
(-0.231484 0.321365 0)
(-0.252199 0.369583 0)
(-0.285961 0.416044 0)
(-0.32314 0.496914 0)
(-0.344658 0.622031 0)
(-0.360098 0.791896 0)
(-0.368838 1.01696 0)
(-0.409072 1.15142 0)
(-0.494893 0.913619 0)
(-0.703484 0.167851 0)
(-1.13953 -0.520892 0)
(-1.44755 -0.757872 0)
(-1.523 -0.666496 0)
(-0.00977579 0.203415 0)
(-0.0195579 0.205075 0)
(-0.0404294 0.20878 0)
(-0.053059 0.214051 0)
(-0.0770856 0.223402 0)
(-0.0916363 0.236301 0)
(-0.115907 0.250198 0)
(-0.131014 0.270788 0)
(-0.156528 0.290844 0)
(-0.171939 0.323192 0)
(-0.197891 0.352788 0)
(-0.214931 0.397327 0)
(-0.236565 0.443243 0)
(-0.254522 0.512995 0)
(-0.25795 0.603418 0)
(-0.231068 0.720633 0)
(-0.164406 0.863607 0)
(-0.0223138 0.990689 0)
(0.0796496 0.954393 0)
(-0.0162207 0.632453 0)
(-0.550213 0.0930688 0)
(-1.13921 -0.337432 0)
(-1.31287 -0.688404 0)
(-0.0101325 0.2215 0)
(-0.0215264 0.222644 0)
(-0.0417879 0.226237 0)
(-0.0531122 0.231286 0)
(-0.0733394 0.2385 0)
(-0.0833151 0.249325 0)
(-0.102527 0.261128 0)
(-0.110749 0.280596 0)
(-0.129404 0.299765 0)
(-0.135612 0.331613 0)
(-0.151478 0.362931 0)
(-0.156426 0.406053 0)
(-0.166974 0.452891 0)
(-0.165345 0.514681 0)
(-0.15852 0.593875 0)
(-0.121441 0.692914 0)
(-0.0643255 0.800246 0)
(0.0440776 0.900122 0)
(0.155579 0.906939 0)
(0.167488 0.812841 0)
(-0.0503432 0.588086 0)
(-0.603747 0.0319809 0)
(-1.08657 -0.384384 0)
(-0.00839671 0.234958 0)
(-0.0162326 0.236657 0)
(-0.0334918 0.240381 0)
(-0.04147 0.245688 0)
(-0.0587871 0.253851 0)
(-0.0662633 0.265742 0)
(-0.0831743 0.278109 0)
(-0.0887766 0.298112 0)
(-0.104054 0.3165 0)
(-0.106328 0.346044 0)
(-0.115738 0.374984 0)
(-0.112394 0.414279 0)
(-0.113872 0.454475 0)
(-0.100761 0.506999 0)
(-0.086322 0.562294 0)
(-0.0427231 0.630037 0)
(0.0143963 0.698592 0)
(0.113135 0.77341 0)
(0.218259 0.824546 0)
(0.292832 0.840581 0)
(0.273975 0.865976 0)
(0.0493014 0.701518 0)
(-0.5337 0.0193917 0)
(-0.00795875 0.246338 0)
(-0.0152495 0.247926 0)
(-0.030691 0.251581 0)
(-0.0373101 0.256599 0)
(-0.0521745 0.26326 0)
(-0.0568283 0.273545 0)
(-0.0702937 0.283479 0)
(-0.0716941 0.301123 0)
(-0.0822092 0.316926 0)
(-0.0790817 0.34265 0)
(-0.0830505 0.36809 0)
(-0.0716735 0.402973 0)
(-0.0660344 0.439498 0)
(-0.0421701 0.485141 0)
(-0.021259 0.533108 0)
(0.0242681 0.589479 0)
(0.0707755 0.64106 0)
(0.148291 0.694891 0)
(0.227425 0.725686 0)
(0.324535 0.764938 0)
(0.390242 0.823683 0)
(0.487383 0.857744 0)
(0.328012 0.747669 0)
(-0.00664651 0.258033 0)
(-0.011617 0.25927 0)
(-0.0244872 0.262397 0)
(-0.0286369 0.267139 0)
(-0.0407654 0.273462 0)
(-0.0429933 0.283873 0)
(-0.0536211 0.293178 0)
(-0.0523097 0.310055 0)
(-0.0593424 0.324214 0)
(-0.0528167 0.347 0)
(-0.0529441 0.368176 0)
(-0.037977 0.397663 0)
(-0.027696 0.425952 0)
(0.000999914 0.462988 0)
(0.0266182 0.496709 0)
(0.076345 0.539037 0)
(0.125375 0.57394 0)
(0.200675 0.61689 0)
(0.276152 0.644756 0)
(0.36548 0.676733 0)
(0.466054 0.702352 0)
(0.609382 0.757901 0)
(0.723448 0.653613 0)
(-0.00589696 0.264769 0)
(-0.0101134 0.265913 0)
(-0.0215354 0.268708 0)
(-0.0250021 0.272924 0)
(-0.0354482 0.277638 0)
(-0.0364273 0.286352 0)
(-0.0447044 0.292751 0)
(-0.0413517 0.306725 0)
(-0.0456011 0.317267 0)
(-0.0359606 0.335984 0)
(-0.0337569 0.352745 0)
(-0.0147545 0.377097 0)
(-0.0027548 0.399474 0)
(0.030095 0.42982 0)
(0.0564237 0.456324 0)
(0.106205 0.489527 0)
(0.150935 0.515438 0)
(0.218427 0.543648 0)
(0.285291 0.560679 0)
(0.368371 0.575867 0)
(0.456313 0.578426 0)
(0.568412 0.6021 0)
(0.704925 0.561131 0)
(-0.0049134 0.273881 0)
(-0.00775751 0.274746 0)
(-0.0170061 0.277172 0)
(-0.0188316 0.280914 0)
(-0.0267504 0.284837 0)
(-0.0259662 0.292968 0)
(-0.0314744 0.29806 0)
(-0.0264335 0.310712 0)
(-0.0280163 0.318769 0)
(-0.0162966 0.334874 0)
(-0.0117835 0.34702 0)
(0.00947082 0.36647 0)
(0.0233437 0.381311 0)
(0.0568366 0.40363 0)
(0.0849797 0.420635 0)
(0.133053 0.444171 0)
(0.17968 0.46097 0)
(0.243322 0.481434 0)
(0.307956 0.49282 0)
(0.38471 0.503792 0)
(0.460925 0.499663 0)
(0.549611 0.504476 0)
(0.654815 0.480526 0)
(-0.00422032 0.277582 0)
(-0.00688041 0.278137 0)
(-0.0147958 0.279891 0)
(-0.0165626 0.282745 0)
(-0.0232311 0.284833 0)
(-0.0224421 0.291114 0)
(-0.0265297 0.293257 0)
(-0.0214258 0.303299 0)
(-0.0213291 0.307106 0)
(-0.00916695 0.319701 0)
(-0.00266881 0.32672 0)
(0.019643 0.341671 0)
(0.0358963 0.351511 0)
(0.0695601 0.36767 0)
(0.0985629 0.379318 0)
(0.144481 0.394216 0)
(0.189012 0.404613 0)
(0.247579 0.414877 0)
(0.307312 0.419506 0)
(0.377538 0.422411 0)
(0.447347 0.414638 0)
(0.521207 0.407566 0)
(0.603116 0.384791 0)
(-0.00362545 0.284796 0)
(-0.00571879 0.285129 0)
(-0.0122789 0.286693 0)
(-0.0133239 0.289157 0)
(-0.0182525 0.290573 0)
(-0.016884 0.29603 0)
(-0.0186408 0.296854 0)
(-0.0132063 0.305181 0)
(-0.0101304 0.306269 0)
(0.00177256 0.31582 0)
(0.0111793 0.31801 0)
(0.031889 0.327528 0)
(0.0504937 0.331208 0)
(0.0820236 0.340496 0)
(0.112679 0.345402 0)
(0.156221 0.352946 0)
(0.200873 0.357221 0)
(0.256318 0.361806 0)
(0.313385 0.361767 0)
(0.378722 0.361825 0)
(0.443401 0.354635 0)
(0.509779 0.346149 0)
(0.579866 0.337467 0)
(-0.00329823 0.287057 0)
(-0.00584182 0.286913 0)
(-0.0118067 0.287601 0)
(-0.0132666 0.288797 0)
(-0.0175867 0.288452 0)
(-0.0166107 0.291537 0)
(-0.0174086 0.289607 0)
(-0.0127435 0.294791 0)
(-0.00840961 0.292081 0)
(0.00221157 0.29831 0)
(0.0136982 0.296365 0)
(0.0328656 0.3021 0)
(0.0534823 0.30095 0)
(0.083138 0.305087 0)
(0.114608 0.304615 0)
(0.156094 0.305532 0)
(0.199721 0.304142 0)
(0.252959 0.301798 0)
(0.308 0.297096 0)
(0.370457 0.291693 0)
(0.433786 0.284041 0)
(0.497906 0.270497 0)
(0.566671 0.268146 0)
(-0.00326319 0.293743 0)
(-0.00668818 0.293439 0)
(-0.012737 0.293947 0)
(-0.0147657 0.294754 0)
(-0.0188416 0.293782 0)
(-0.018248 0.295666 0)
(-0.0182633 0.292844 0)
(-0.0139807 0.29597 0)
(-0.00788369 0.291141 0)
(0.00199373 0.293471 0)
(0.0157571 0.287158 0)
(0.0332381 0.28745 0)
(0.0560523 0.280667 0)
(0.0836153 0.278924 0)
(0.116297 0.272052 0)
(0.155928 0.267107 0)
(0.199322 0.259794 0)
(0.250504 0.252428 0)
(0.304199 0.243558 0)
(0.36422 0.234567 0)
(0.425891 0.226351 0)
(0.488533 0.211583 0)
(0.553262 0.211678 0)
(-0.0032986 0.297147 0)
(-0.0082548 0.296517 0)
(-0.0147005 0.295779 0)
(-0.0176521 0.294948 0)
(-0.0221637 0.291941 0)
(-0.0226254 0.290898 0)
(-0.0230109 0.285241 0)
(-0.019615 0.284226 0)
(-0.0135361 0.275888 0)
(-0.00478463 0.274356 0)
(0.00888961 0.264776 0)
(0.0247489 0.261407 0)
(0.0473308 0.250139 0)
(0.0732355 0.244385 0)
(0.105955 0.231813 0)
(0.14437 0.221988 0)
(0.187646 0.209106 0)
(0.238364 0.196296 0)
(0.292502 0.183057 0)
(0.352895 0.169238 0)
(0.41635 0.159573 0)
(0.482059 0.142364 0)
(0.550193 0.143535 0)
(-0.0040594 0.30512 0)
(-0.0112758 0.304665 0)
(-0.019389 0.303203 0)
(-0.0244254 0.302083 0)
(-0.0305834 0.298695 0)
(-0.0328638 0.296441 0)
(-0.034554 0.289846 0)
(-0.0328804 0.28648 0)
(-0.0279093 0.276353 0)
(-0.0206706 0.271045 0)
(-0.00714566 0.257625 0)
(0.00865494 0.248892 0)
(0.0318886 0.232036 0)
(0.0576383 0.219992 0)
(0.0913189 0.200583 0)
(0.129254 0.184872 0)
(0.173414 0.165294 0)
(0.224159 0.146761 0)
(0.279406 0.128403 0)
(0.340495 0.109655 0)
(0.406018 0.0964773 0)
(0.474245 0.0765657 0)
(0.545293 0.0744957 0)
(-0.0051911 0.312653 0)
(-0.0149565 0.312008 0)
(-0.0252027 0.309049 0)
(-0.0327468 0.306205 0)
(-0.040812 0.300372 0)
(-0.045092 0.294755 0)
(-0.048762 0.285073 0)
(-0.0491043 0.277263 0)
(-0.046279 0.263302 0)
(-0.0411447 0.253095 0)
(-0.0300695 0.234927 0)
(-0.0168803 0.221801 0)
(0.00393702 0.200581 0)
(0.0274052 0.184377 0)
(0.0596825 0.159599 0)
(0.096031 0.139305 0)
(0.140257 0.113582 0)
(0.191276 0.0896413 0)
(0.248306 0.0661124 0)
(0.312391 0.0418548 0)
(0.382843 0.0252414 0)
(0.457429 0.00224155 0)
(0.536391 -0.000687824 0)
(-0.00683224 0.325143 0)
(-0.0194725 0.324561 0)
(-0.0327805 0.320903 0)
(-0.0436742 0.317612 0)
(-0.0550479 0.311036 0)
(-0.063062 0.304394 0)
(-0.0705857 0.293966 0)
(-0.0745602 0.284104 0)
(-0.0756515 0.268588 0)
(-0.0734778 0.255008 0)
(-0.0655588 0.233544 0)
(-0.0547395 0.21499 0)
(-0.0357182 0.187778 0)
(-0.0135849 0.164144 0)
(0.0184678 0.131725 0)
(0.0542046 0.103952 0)
(0.100004 0.0695699 0)
(0.151582 0.0381226 0)
(0.211136 0.00662385 0)
(0.278159 -0.0257268 0)
(0.353348 -0.0493705 0)
(0.433258 -0.0779948 0)
(0.520316 -0.0870819 0)
(-0.00884861 0.339186 0)
(-0.0248205 0.338175 0)
(-0.0418828 0.333433 0)
(-0.0566181 0.328604 0)
(-0.0716792 0.319826 0)
(-0.0835989 0.31026 0)
(-0.0948035 0.296453 0)
(-0.102324 0.282071 0)
(-0.107414 0.261867 0)
(-0.10905 0.242509 0)
(-0.105928 0.215621 0)
(-0.0997602 0.191319 0)
(-0.0863325 0.158742 0)
(-0.0696759 0.129531 0)
(-0.0428471 0.0910983 0)
(-0.012413 0.0571121 0)
(0.0305567 0.0154298 0)
(0.0793586 -0.0221829 0)
(0.140081 -0.0613034 0)
(0.20986 -0.101148 0)
(0.289675 -0.130744 0)
(0.37627 -0.165641 0)
(0.473722 -0.179181 0)
(-0.0106883 0.358762 0)
(-0.0300315 0.357556 0)
(-0.0508035 0.352682 0)
(-0.0694706 0.347404 0)
(-0.0885768 0.338068 0)
(-0.105118 0.327583 0)
(-0.121132 0.312837 0)
(-0.133951 0.296878 0)
(-0.144704 0.275565 0)
(-0.151897 0.253786 0)
(-0.154471 0.224553 0)
(-0.15295 0.195667 0)
(-0.143397 0.157881 0)
(-0.129593 0.120752 0)
(-0.105103 0.0743356 0)
(-0.0772419 0.0303927 0)
(-0.0357597 -0.0226541 0)
(0.00963423 -0.071853 0)
(0.0709054 -0.124653 0)
(0.140011 -0.176115 0)
(0.221905 -0.216763 0)
(0.313078 -0.263089 0)
(0.419775 -0.288251 0)
(-0.0127966 0.38022 0)
(-0.0363139 0.378596 0)
(-0.0613731 0.373145 0)
(-0.0843954 0.366608 0)
(-0.107888 0.355645 0)
(-0.12897 0.342916 0)
(-0.149598 0.325303 0)
(-0.16712 0.305558 0)
(-0.182814 0.279612 0)
(-0.194796 0.251959 0)
(-0.202946 0.216212 0)
(-0.207358 0.179709 0)
(-0.205497 0.134729 0)
(-0.199621 0.0906174 0)
(-0.18381 0.0380587 0)
(-0.16344 -0.0128694 0)
(-0.12711 -0.0722418 0)
(-0.0863112 -0.129518 0)
(-0.0262416 -0.192599 0)
(0.0401579 -0.252879 0)
(0.124087 -0.304845 0)
(0.220695 -0.364537 0)
(0.334991 -0.399952 0)
(-0.0144462 0.407901 0)
(-0.0413891 0.40618 0)
(-0.0699924 0.400832 0)
(-0.096855 0.394009 0)
(-0.124491 0.382775 0)
(-0.150187 0.369447 0)
(-0.175827 0.351191 0)
(-0.198929 0.330325 0)
(-0.220769 0.30352 0)
(-0.239297 0.274238 0)
(-0.254555 0.237458 0)
(-0.265699 0.198601 0)
(-0.27069 0.150451 0)
(-0.270226 0.0993484 0)
(-0.259295 0.0381676 0)
(-0.242712 -0.0262761 0)
(-0.212258 -0.100144 0)
(-0.176157 -0.172989 0)
(-0.119762 -0.251925 0)
(-0.0598329 -0.327216 0)
(0.0210371 -0.398448 0)
(0.113992 -0.47516 0)
(0.228656 -0.52576 0)
(-0.0166398 0.436445 0)
(-0.0481219 0.43453 0)
(-0.0811609 0.428962 0)
(-0.112536 0.421424 0)
(-0.144753 0.409236 0)
(-0.175094 0.394465 0)
(-0.20565 0.374185 0)
(-0.233575 0.350587 0)
(-0.260805 0.319957 0)
(-0.284366 0.285661 0)
(-0.305707 0.242369 0)
(-0.322717 0.195539 0)
(-0.335353 0.138751 0)
(-0.343593 0.0787328 0)
(-0.344428 0.00993483 0)
(-0.339672 -0.060498 0)
(-0.322118 -0.139474 0)
(-0.29871 -0.222737 0)
(-0.263021 -0.309717 0)
(-0.222805 -0.394163 0)
(-0.153163 -0.479536 0)
(-0.0642295 -0.573122 0)
(0.046786 -0.642599 0)
(-0.0179221 0.472812 0)
(-0.0521294 0.470875 0)
(-0.0881103 0.465431 0)
(-0.122833 0.457821 0)
(-0.158983 0.445585 0)
(-0.193724 0.430634 0)
(-0.229405 0.409982 0)
(-0.263025 0.385827 0)
(-0.296925 0.354656 0)
(-0.32796 0.319536 0)
(-0.358021 0.276181 0)
(-0.384349 0.228714 0)
(-0.407243 0.171735 0)
(-0.424882 0.108932 0)
(-0.435939 0.0344876 0)
(-0.439718 -0.0482196 0)
(-0.438764 -0.141306 0)
(-0.439674 -0.231863 0)
(-0.437482 -0.328413 0)
(-0.406785 -0.437819 0)
(-0.335505 -0.558407 0)
(-0.240625 -0.676481 0)
(-0.127905 -0.773076 0)
(-0.0201597 0.506884 0)
(-0.0589962 0.505118 0)
(-0.0995091 0.500037 0)
(-0.138845 0.492652 0)
(-0.179626 0.480433 0)
(-0.219127 0.465172 0)
(-0.260024 0.443707 0)
(-0.299142 0.418319 0)
(-0.339334 0.385017 0)
(-0.376765 0.346891 0)
(-0.414304 0.298743 0)
(-0.4479 0.244741 0)
(-0.480756 0.179031 0)
(-0.510229 0.107136 0)
(-0.540428 0.0243152 0)
(-0.574032 -0.0581464 0)
(-0.610873 -0.139706 0)
(-0.646029 -0.224669 0)
(-0.632845 -0.342921 0)
(-0.569205 -0.496466 0)
(-0.483274 -0.646281 0)
(-0.384394 -0.781537 0)
(-0.273464 -0.894937 0)
(-0.0209675 0.552346 0)
(-0.0615509 0.550625 0)
(-0.104031 0.545673 0)
(-0.14578 0.538353 0)
(-0.1898 0.526285 0)
(-0.233398 0.511503 0)
(-0.279454 0.490453 0)
(-0.324708 0.465664 0)
(-0.372227 0.432748 0)
(-0.418451 0.395065 0)
(-0.466633 0.347785 0)
(-0.513619 0.295774 0)
(-0.562686 0.234583 0)
(-0.610979 0.169407 0)
(-0.662842 0.0989486 0)
(-0.72009 0.0233384 0)
(-0.786282 -0.0692574 0)
(-0.80291 -0.208876 0)
(-0.742022 -0.405916 0)
(-0.670337 -0.588081 0)
(-0.588053 -0.744652 0)
(-0.501914 -0.887743 0)
(-0.401015 -1.0129 0)
(-0.023066 0.589604 0)
(-0.0679916 0.588419 0)
(-0.11489 0.584505 0)
(-0.161344 0.578703 0)
(-0.210469 0.568333 0)
(-0.259519 0.555149 0)
(-0.311385 0.535307 0)
(-0.363191 0.511426 0)
(-0.418211 0.479026 0)
(-0.473096 0.441639 0)
(-0.531517 0.394139 0)
(-0.590432 0.341143 0)
(-0.655065 0.276529 0)
(-0.725392 0.207479 0)
(-0.814845 0.133279 0)
(-0.903635 0.0652564 0)
(-0.94104 -0.0564656 0)
(-0.883523 -0.270009 0)
(-0.822065 -0.476268 0)
(-0.766142 -0.651411 0)
(-0.699086 -0.815596 0)
(-0.618998 -0.969523 0)
(-0.523033 -1.1133 0)
(-0.0234995 0.644264 0)
(-0.0693658 0.643311 0)
(-0.117309 0.639829 0)
(-0.165112 0.634709 0)
(-0.215894 0.62516 0)
(-0.2674 0.613116 0)
(-0.322903 0.594743 0)
(-0.380228 0.573201 0)
(-0.442378 0.543239 0)
(-0.507101 0.509131 0)
(-0.576932 0.465711 0)
(-0.650773 0.420153 0)
(-0.733336 0.370274 0)
(-0.826453 0.330324 0)
(-0.927385 0.278668 0)
(-1.00637 0.150979 0)
(-0.988405 -0.0897368 0)
(-0.931369 -0.327666 0)
(-0.89781 -0.52398 0)
(-0.841301 -0.711571 0)
(-0.77692 -0.892561 0)
(-0.693404 -1.06477 0)
(-0.599359 -1.22558 0)
(-0.0247076 0.682108 0)
(-0.0732682 0.681933 0)
(-0.12421 0.680025 0)
(-0.175893 0.677206 0)
(-0.23166 0.670657 0)
(-0.28985 0.662399 0)
(-0.353348 0.648447 0)
(-0.420159 0.631412 0)
(-0.49225 0.606431 0)
(-0.568568 0.576892 0)
(-0.652133 0.53843 0)
(-0.744479 0.498432 0)
(-0.849316 0.452849 0)
(-0.963437 0.402498 0)
(-1.06283 0.31288 0)
(-1.0768 0.126525 0)
(-1.0208 -0.132923 0)
(-0.995497 -0.360718 0)
(-0.949725 -0.567715 0)
(-0.892843 -0.772685 0)
(-0.825752 -0.964546 0)
(-0.747645 -1.14802 0)
(-0.659235 -1.32196 0)
(-0.0253454 0.744052 0)
(-0.0751618 0.744592 0)
(-0.127404 0.744112 0)
(-0.180354 0.743715 0)
(-0.236857 0.74045 0)
(-0.29523 0.736036 0)
(-0.358313 0.726018 0)
(-0.425036 0.713036 0)
(-0.498201 0.692291 0)
(-0.578219 0.669912 0)
(-0.667771 0.64227 0)
(-0.769386 0.618446 0)
(-0.884617 0.590165 0)
(-1.00517 0.545216 0)
(-1.09538 0.393885 0)
(-1.08446 0.107964 0)
(-1.04542 -0.169535 0)
(-1.02158 -0.399939 0)
(-0.965786 -0.626335 0)
(-0.913119 -0.836368 0)
(-0.845636 -1.03835 0)
(-0.773944 -1.23234 0)
(-0.688311 -1.42137 0)
(-0.0243458 0.781078 0)
(-0.0726341 0.782533 0)
(-0.123651 0.783901 0)
(-0.177126 0.785587 0)
(-0.236102 0.784715 0)
(-0.299742 0.783398 0)
(-0.370467 0.778104 0)
(-0.44823 0.771619 0)
(-0.534931 0.760158 0)
(-0.631086 0.747355 0)
(-0.734816 0.73053 0)
(-0.851528 0.716558 0)
(-0.972798 0.68955 0)
(-1.09 0.614004 0)
(-1.12905 0.391342 0)
(-1.08827 0.0767333 0)
(-1.06957 -0.197242 0)
(-1.02783 -0.440943 0)
(-0.978139 -0.676947 0)
(-0.923777 -0.893606 0)
(-0.859895 -1.10438 0)
(-0.792928 -1.30603 0)
(-0.715414 -1.50498 0)
(-0.0257032 0.844406 0)
(-0.0767324 0.847234 0)
(-0.130471 0.851804 0)
(-0.186145 0.859251 0)
(-0.246526 0.865912 0)
(-0.310898 0.873052 0)
(-0.381868 0.876798 0)
(-0.458569 0.879495 0)
(-0.543463 0.87681 0)
(-0.63865 0.87131 0)
(-0.74585 0.863914 0)
(-0.869902 0.858188 0)
(-0.996094 0.829531 0)
(-1.10161 0.704305 0)
(-1.11279 0.390929 0)
(-1.07364 0.0503033 0)
(-1.05429 -0.231198 0)
(-1.00345 -0.4908 0)
(-0.959135 -0.731534 0)
(-0.903725 -0.955127 0)
(-0.847395 -1.17059 0)
(-0.786217 -1.37807 0)
(-0.718315 -1.58324 0)
(-0.0213898 0.880161 0)
(-0.0641673 0.883999 0)
(-0.110599 0.890134 0)
(-0.160645 0.898632 0)
(-0.217077 0.906631 0)
(-0.28056 0.916222 0)
(-0.354398 0.923611 0)
(-0.439508 0.931685 0)
(-0.537344 0.939184 0)
(-0.648416 0.949581 0)
(-0.777223 0.961799 0)
(-0.916004 0.967259 0)
(-1.04243 0.921212 0)
(-1.11886 0.730287 0)
(-1.10586 0.362627 0)
(-1.07747 0.0182353 0)
(-1.04638 -0.269043 0)
(-0.992826 -0.5355 0)
(-0.948044 -0.777527 0)
(-0.891854 -1.00434 0)
(-0.840727 -1.22171 0)
(-0.7842 -1.43378 0)
(-0.725512 -1.64295 0)