# vtk DataFile Version 2.0
gauge_2
ASCII
DATASET POLYDATA
POINTS 43 double
0.2 0.0359992 0.005
0.2 0.0419991 0.005
0.2 0.047999 0.005
0.2 0.0607609 0.005
0.2 0.0735228 0.005
0.2 0.0862847 0.005
0.2 0.0990467 0.005
0.2 0.111809 0.005
0.2 0.124571 0.005
0.2 0.137332 0.005
0.2 0.150094 0.005
0.2 0.162856 0.005
0.2 0.175618 0.005
0.2 0.18838 0.005
0.2 0.201142 0.005
0.2 0.213904 0.005
0.2 0.226666 0.005
0.2 0.239428 0.005
0.2 0.25219 0.005
0.2 0.264952 0.005
0.2 0.277714 0.005
0.2 0.290476 0.005
0.2 0.303238 0.005
0.2 0.315999 0.005
0.2 0.328761 0.005
0.2 0.341523 0.005
0.2 0.354285 0.005
0.2 0.367047 0.005
0.2 0.379809 0.005
0.2 0.392571 0.005
0.2 0.405333 0.005
0.2 0.418095 0.005
0.2 0.430857 0.005
0.2 0.443619 0.005
0.2 0.456381 0.005
0.2 0.469143 0.005
0.2 0.481905 0.005
0.2 0.494666 0.005
0.2 0.507428 0.005
0.2 0.52019 0.005
0.2 0.532952 0.005
0.2 0.545714 0.005
0.2 0.558476 0.005
POINT_DATA 43
 FIELD attributes 1
alpha.water 1 43 float
1 1 1 1 0.815994 0.33043 0.0144367 4.52302e-05 7.92848e-05 3.48357e-05 1.74099e-10 2.61714e-10 7.07773e-09 6.89212e-09 6.96548e-12 2.72723e-12 5.58727e-13 9.30721e-14 1.88862e-14 9.30139e-16 1.05598e-16 1.90125e-17 3.35737e-18 4.49901e-19 4.82454e-20 5.37808e-21 5.23383e-22 5.2182e-23 9.33677e-24 1.78952e-24 3.28593e-25 5.51106e-26 8.21956e-27 1.09849e-27 1.33136e-28 1.45854e-29 1.40838e-30 1.13327e-31 6.92801e-33 2.87074e-34 7.1557e-36 8.68419e-38 3.70492e-40
