# vtk DataFile Version 2.0
gauge_2
ASCII
DATASET POLYDATA
POINTS 43 double
0.2 0.0359992 0.005
0.2 0.0419991 0.005
0.2 0.047999 0.005
0.2 0.0607609 0.005
0.2 0.0735228 0.005
0.2 0.0862847 0.005
0.2 0.0990467 0.005
0.2 0.111809 0.005
0.2 0.124571 0.005
0.2 0.137332 0.005
0.2 0.150094 0.005
0.2 0.162856 0.005
0.2 0.175618 0.005
0.2 0.18838 0.005
0.2 0.201142 0.005
0.2 0.213904 0.005
0.2 0.226666 0.005
0.2 0.239428 0.005
0.2 0.25219 0.005
0.2 0.264952 0.005
0.2 0.277714 0.005
0.2 0.290476 0.005
0.2 0.303238 0.005
0.2 0.315999 0.005
0.2 0.328761 0.005
0.2 0.341523 0.005
0.2 0.354285 0.005
0.2 0.367047 0.005
0.2 0.379809 0.005
0.2 0.392571 0.005
0.2 0.405333 0.005
0.2 0.418095 0.005
0.2 0.430857 0.005
0.2 0.443619 0.005
0.2 0.456381 0.005
0.2 0.469143 0.005
0.2 0.481905 0.005
0.2 0.494666 0.005
0.2 0.507428 0.005
0.2 0.52019 0.005
0.2 0.532952 0.005
0.2 0.545714 0.005
0.2 0.558476 0.005
POINT_DATA 43
 FIELD attributes 1
alpha.water 1 43 float
1 1 1 1 0.999987 0.984675 0.662544 0.177879 4.22303e-05 3.67469e-05 3.6745e-05 3.79647e-05 7.06894e-05 0.000241903 0.000824686 0.00110838 0.000513313 3.88333e-05 2.26645e-12 1.83276e-12 6.05675e-13 1.33821e-13 3.03351e-14 1.02112e-14 4.54655e-15 2.08246e-15 8.18798e-16 2.71901e-16 8.14743e-17 2.24025e-17 5.43947e-18 1.18048e-18 2.50918e-19 3.631e-20 3.6023e-21 2.57536e-22 1.18545e-23 3.01974e-25 4.61551e-27 4.20032e-29 1.84076e-31 2.76738e-34 5.25618e-38
