# vtk DataFile Version 2.0
gauge_1
ASCII
DATASET POLYDATA
POINTS 5 double
0.02 0.201142 0.005
0.02 0.213904 0.005
0.02 0.226666 0.005
0.02 0.239428 0.005
0.02 0.25219 0.005
POINT_DATA 5
 FIELD attributes 1
alpha.water 1 5 float
1.16963e-13 8.34318e-15 5.87836e-16 3.68693e-17 1.50268e-18
