/*--------------------------------*- C++ -*----------------------------------*\
| =========                 |                                                 |
| \\      /  F ield         | OpenFOAM: The Open Source CFD Toolbox           |
|  \\    /   O peration     | Version:  2012                                  |
|   \\  /    A nd           | Website:  www.openfoam.com                      |
|    \\/     M anipulation  |                                                 |
\*---------------------------------------------------------------------------*/
FoamFile
{
    version     2.0;
    format      ascii;
    class       volVectorField;
    location    "2620";
    object      U;
}
// * * * * * * * * * * * * * * * * * * * * * * * * * * * * * * * * * * * * * //

dimensions      [0 1 -1 0 0 0 0];


internalField   nonuniform List<vector> 
20400
(
(3.52847e-06 -3.45281e-06 0)
(5.17813e-06 -1.16964e-06 0)
(-4.67355e-06 3.7071e-06 0)
(-2.50036e-05 6.36396e-06 0)
(-5.82694e-05 7.8121e-06 0)
(-9.85072e-05 7.15744e-06 0)
(-0.000144672 6.39687e-06 0)
(-0.000193525 5.47914e-06 0)
(-0.000243165 4.70974e-06 0)
(-0.000293936 4.21525e-06 0)
(-0.000343451 4.26822e-06 0)
(-0.000393359 4.19478e-06 0)
(-0.000442496 4.01929e-06 0)
(-0.000491438 3.62755e-06 0)
(-0.000540076 3.06339e-06 0)
(-0.000588524 2.27939e-06 0)
(-0.000636823 1.25026e-06 0)
(-0.000685006 3.51722e-08 0)
(-0.000733089 -1.32878e-06 0)
(-0.000780982 -2.51551e-06 0)
(-0.000828587 -3.74348e-06 0)
(-0.000875904 -4.96855e-06 0)
(-0.000922964 -6.10821e-06 0)
(-0.000969754 -7.09006e-06 0)
(-0.00101626 -7.84068e-06 0)
(-0.00106246 -8.29255e-06 0)
(-0.00110835 -8.38961e-06 0)
(-0.00115393 -8.07534e-06 0)
(-0.00119921 -7.31778e-06 0)
(-0.00124421 -6.07744e-06 0)
(-0.00128896 -4.34773e-06 0)
(-0.00133343 -2.09672e-06 0)
(-0.00137754 7.82562e-07 0)
(-0.00142091 5.36741e-06 0)
(-0.00146342 8.9416e-06 0)
(-0.00150568 1.1378e-05 0)
(-0.00154891 1.51013e-05 0)
(-0.00159095 1.8795e-05 0)
(-0.00163286 2.22753e-05 0)
(-0.00167421 2.54124e-05 0)
(-0.00171517 2.80876e-05 0)
(-0.00175577 3.02235e-05 0)
(-0.00179604 3.18063e-05 0)
(-0.00183606 3.28395e-05 0)
(-0.00187584 3.33747e-05 0)
(-0.00191541 3.34764e-05 0)
(-0.00195479 3.32123e-05 0)
(-0.00199396 3.26379e-05 0)
(-0.00203292 3.17887e-05 0)
(-0.00207166 3.06767e-05 0)
(-0.00211019 2.92882e-05 0)
(-0.0021485 2.75873e-05 0)
(-0.00218662 2.5506e-05 0)
(-0.00222453 2.2983e-05 0)
(-0.00226231 1.98944e-05 0)
(-0.00229989 1.62345e-05 0)
(-0.00233744 1.19236e-05 0)
(-0.00237462 7.56939e-06 0)
(-0.00241143 1.93503e-06 0)
(-0.00244876 -4.91795e-06 0)
(-0.00248617 -1.0587e-05 0)
(-0.00252395 -1.55647e-05 0)
(-0.00256124 -1.92949e-05 0)
(-0.00259861 -2.19912e-05 0)
(-0.00263577 -2.36803e-05 0)
(-0.00267275 -2.45609e-05 0)
(-0.00270955 -2.4802e-05 0)
(-0.00274618 -2.45562e-05 0)
(-0.00278266 -2.39499e-05 0)
(-0.00281901 -2.30713e-05 0)
(-0.00285526 -2.19924e-05 0)
(-0.00289141 -2.07509e-05 0)
(-0.00292749 -1.9386e-05 0)
(-0.00296348 -1.79071e-05 0)
(-0.00299941 -1.63374e-05 0)
(-0.00303526 -1.46741e-05 0)
(-0.00307106 -1.29357e-05 0)
(-0.00310677 -1.11164e-05 0)
(-0.00314243 -9.24028e-06 0)
(-0.003178 -7.29291e-06 0)
(-0.00321353 -5.31277e-06 0)
(-0.00324897 -3.27482e-06 0)
(-0.00328439 -1.22633e-06 0)
(-0.00331968 8.76918e-07 0)
(-0.00335479 3.1055e-06 0)
(-0.00338928 5.85712e-06 0)
(-0.00342327 7.13999e-06 0)
(-0.00345804 7.94855e-06 0)
(-0.00349247 8.3109e-06 0)
(-0.0035267 8.40235e-06 0)
(-0.00356067 7.83509e-06 0)
(-0.00359411 7.04611e-06 0)
(-0.00362705 5.56411e-06 0)
(-0.00365938 2.05674e-06 0)
(-0.00369244 -1.01467e-06 0)
(-0.00372451 -4.37749e-06 0)
(-0.00375677 -8.23979e-06 0)
(-0.00378803 -1.21142e-05 0)
(-0.00381917 -1.65584e-05 0)
(-0.00384923 -2.0768e-05 0)
(-0.00387906 -2.57254e-05 0)
(-0.0039076 -3.01003e-05 0)
(-0.00393582 -3.52889e-05 0)
(-0.00396244 -3.92432e-05 0)
(-0.00398901 -4.39343e-05 0)
(-0.00401348 -4.66769e-05 0)
(-0.00403857 -4.98746e-05 0)
(-0.00406033 -4.89681e-05 0)
(-0.00408468 -4.92688e-05 0)
(-0.00410249 -4.20247e-05 0)
(-0.00412617 -3.5678e-05 0)
(-0.00413914 -1.87163e-05 0)
(-0.00415858 -2.4803e-06 0)
(-0.00416301 2.44169e-05 0)
(-0.00417525 4.57004e-05 0)
(-0.00417651 7.09498e-05 0)
(-0.00418193 8.4659e-05 0)
(-0.0041782 0.00010678 0)
(-0.00417699 0.000115246 0)
(-0.00416839 0.000134861 0)
(-0.00416031 0.000141201 0)
(-0.00414529 0.000158736 0)
(-0.00413022 0.000164609 0)
(-0.00410755 0.000179932 0)
(-0.00408481 0.000185328 0)
(-0.00405339 0.000197134 0)
(-0.00402178 0.000200628 0)
(-0.00397992 0.000205621 0)
(-0.00393745 0.000202578 0)
(-0.0038828 0.000194649 0)
(-0.00382549 0.000173948 0)
(-0.00375886 0.000143877 0)
(-0.00368516 9.3118e-05 0)
(-0.00361139 3.44553e-05 0)
(-0.00353079 -4.41947e-05 0)
(-0.00346036 -0.000118936 0)
(-0.00339238 -0.000180672 0)
(-0.00331566 -0.000234173 0)
(-0.00323455 -0.000264845 0)
(-0.00314351 -0.00029955 0)
(-0.0030521 -0.000314238 0)
(-0.00294943 -0.000335182 0)
(-0.0028504 -0.000340094 0)
(-0.00274073 -0.000346099 0)
(-0.00263707 -0.000336242 0)
(-0.00252446 -0.000318083 0)
(-0.00241904 -0.000273415 0)
(-0.00230094 -0.000214236 0)
(-0.00218657 -0.000113429 0)
(-0.00205363 -1.36158e-05 0)
(-0.00192669 0.000112106 0)
(-0.00174989 0.000178758 0)
(-0.00161203 0.000236393 0)
(-0.00144298 0.000254517 0)
(-0.00130323 0.000265822 0)
(-0.00112336 0.000254753 0)
(-0.000980288 0.000213791 0)
(-0.000758703 0.000139503 0)
(-0.00064759 9.7638e-06 0)
(-0.000546094 -2.86772e-05 0)
(-0.000410565 -5.79962e-05 0)
(-0.000272484 -6.58943e-05 0)
(-0.000136395 -6.87087e-05 0)
(1.25846e-05 -6.6769e-05 0)
(0.000142123 -5.89442e-05 0)
(0.000295028 -5.35209e-05 0)
(0.000420718 -4.52512e-05 0)
(0.000569144 -4.0992e-05 0)
(0.0006906 -3.42136e-05 0)
(0.000833115 -3.21544e-05 0)
(0.000950018 -2.68256e-05 0)
(0.00108524 -2.61907e-05 0)
(0.00119717 -2.17716e-05 0)
(0.00132416 -2.20133e-05 0)
(0.00143076 -1.82028e-05 0)
(0.00154901 -1.89378e-05 0)
(0.00164994 -1.5644e-05 0)
(0.00175917 -1.65752e-05 0)
(0.00185401 -1.35862e-05 0)
(0.00195437 -1.44964e-05 0)
(0.00204262 -1.232e-05 0)
(0.00213422 -1.26073e-05 0)
(0.00221557 -1.11798e-05 0)
(0.00229849 -1.10309e-05 0)
(0.00237293 -1.00867e-05 0)
(0.00244728 -9.71609e-06 0)
(0.00251476 -8.90194e-06 0)
(0.00258114 -8.53874e-06 0)
(0.00264154 -7.82653e-06 0)
(0.00270033 -7.46031e-06 0)
(0.00275387 -6.83473e-06 0)
(0.00280543 -6.47509e-06 0)
(0.00285241 -5.92099e-06 0)
(0.00289713 -5.57835e-06 0)
(0.00293791 -5.0792e-06 0)
(0.00297622 -4.76588e-06 0)
(0.00301119 -4.30222e-06 0)
(0.00304353 -4.03681e-06 0)
(0.00307311 -3.57989e-06 0)
(0.00309992 -3.35169e-06 0)
(0.00312437 -3.02091e-06 0)
(0.00314636 -2.70503e-06 0)
(0.00316602 -2.46e-06 0)
(0.00318352 -2.08214e-06 0)
(0.00319879 -2.00443e-06 0)
(0.00321231 -1.54411e-06 0)
(0.00322362 -1.54717e-06 0)
(0.0032335 -1.08433e-06 0)
(0.00324132 -1.03502e-06 0)
(0.00324792 -6.45096e-07 0)
(0.00325265 -4.80249e-07 0)
(0.0032563 -2.27534e-07 0)
(0.00325855 1.85872e-09 0)
(0.00325963 2.27048e-07 0)
(0.00325975 2.54304e-07 0)
(0.00325826 6.44049e-07 0)
(0.00325627 4.71136e-07 0)
(0.00325278 8.88664e-07 0)
(0.00324912 4.04801e-07 0)
(0.00324386 8.66901e-07 0)
(0.00323884 3.02528e-07 0)
(0.00323212 7.84042e-07 0)
(0.003226 2.47385e-07 0)
(0.00321824 7.2847e-07 0)
(0.00321119 2.21564e-07 0)
(0.00320261 6.80161e-07 0)
(0.00319483 2.15227e-07 0)
(0.00318565 6.40963e-07 0)
(0.00317731 2.20269e-07 0)
(0.00316772 6.04254e-07 0)
(0.00315897 2.26297e-07 0)
(0.00314914 5.72723e-07 0)
(0.00314012 2.33418e-07 0)
(0.00313021 5.43607e-07 0)
(0.00312102 2.6777e-07 0)
(0.00311117 5.11902e-07 0)
(0.00310191 3.13304e-07 0)
(0.00309231 4.78298e-07 0)
(0.00308301 4.19697e-07 0)
(0.00307382 4.94072e-07 0)
(0.00306459 5.20853e-07 0)
(0.00305574 5.51919e-07 0)
(0.00304674 6.5736e-07 0)
(0.00303828 6.65524e-07 0)
(0.00302957 8.19979e-07 0)
(0.00302153 7.64988e-07 0)
(0.00301322 9.32662e-07 0)
(0.00300564 8.02367e-07 0)
(0.00299783 9.58412e-07 0)
(0.00299074 7.77763e-07 0)
(0.00298347 9.3878e-07 0)
(0.0029769 7.29736e-07 0)
(0.00297015 9.02412e-07 0)
(0.00296413 6.74681e-07 0)
(0.00295791 8.55171e-07 0)
(0.00295247 6.13846e-07 0)
(0.00294679 7.99908e-07 0)
(0.00294193 5.48823e-07 0)
(0.00293681 7.37789e-07 0)
(0.00293255 4.77081e-07 0)
(0.00292798 6.49598e-07 0)
(0.0029243 4.02393e-07 0)
(0.0029203 5.53587e-07 0)
(0.0029172 3.2773e-07 0)
(0.00291377 4.56125e-07 0)
(0.00291124 2.45179e-07 0)
(0.00290838 3.56035e-07 0)
(0.0029064 1.49939e-07 0)
(0.0029041 2.55194e-07 0)
(0.00290266 5.85582e-08 0)
(0.00290092 1.56095e-07 0)
(0.00289998 -2.87962e-08 0)
(0.0028988 6.0805e-08 0)
(0.00289832 -1.13594e-07 0)
(0.00289774 -2.15525e-08 0)
(0.00289766 -2.17799e-07 0)
(0.00289758 -7.57217e-08 0)
(0.00289803 -2.78663e-07 0)
(0.00289841 -1.2138e-07 0)
(0.00289929 -3.45272e-07 0)
(0.00290012 -1.86336e-07 0)
(0.00290146 -4.22323e-07 0)
(0.00290272 -2.82372e-07 0)
(0.00290442 -4.34756e-07 0)
(0.00290615 -3.4581e-07 0)
(0.0029082 -3.82107e-07 0)
(0.00291041 -3.56077e-07 0)
(0.00291281 -3.83837e-07 0)
(0.00291537 -3.83668e-07 0)
(0.00291811 -4.13001e-07 0)
(0.00292101 -4.37811e-07 0)
(0.00292408 -4.70498e-07 0)
(0.0029273 -4.98846e-07 0)
(0.00293066 -5.24125e-07 0)
(0.00293423 -5.49277e-07 0)
(0.00293776 -5.50517e-07 0)
(0.00294171 -5.29433e-07 0)
(0.00294539 -5.89009e-07 0)
(0.0029497 -5.07032e-07 0)
(0.0029535 -5.93145e-07 0)
(0.00295812 -5.07571e-07 0)
(0.00296206 -6.03408e-07 0)
(0.00296695 -5.37486e-07 0)
(0.00297103 -6.23243e-07 0)
(0.00297616 -5.764e-07 0)
(0.00298039 -6.61145e-07 0)
(0.00298572 -6.22291e-07 0)
(0.00299008 -7.05241e-07 0)
(0.0029956 -6.68649e-07 0)
(0.0030001 -7.46942e-07 0)
(0.00300578 -7.10898e-07 0)
(0.00301039 -7.8284e-07 0)
(0.0030162 -7.46027e-07 0)
(0.00302093 -8.09636e-07 0)
(0.00302684 -7.68005e-07 0)
(0.00303166 -8.25441e-07 0)
(0.00303767 -7.73647e-07 0)
(0.00304257 -8.31568e-07 0)
(0.00304864 -7.75257e-07 0)
(0.00305361 -8.32614e-07 0)
(0.00305973 -7.85052e-07 0)
(0.00306476 -8.32364e-07 0)
(0.00307092 -7.95607e-07 0)
(0.00307599 -8.3683e-07 0)
(0.00308217 -8.04446e-07 0)
(0.00308728 -8.38652e-07 0)
(0.00309347 -8.07488e-07 0)
(0.0030986 -8.35585e-07 0)
(0.00310478 -8.06122e-07 0)
(0.00310992 -8.2877e-07 0)
(0.00311609 -8.0239e-07 0)
(0.00312124 -8.19944e-07 0)
(0.00312737 -7.97367e-07 0)
(0.00313252 -8.09546e-07 0)
(0.00313862 -7.91531e-07 0)
(0.00314376 -7.96783e-07 0)
(0.00314979 -7.84544e-07 0)
(0.00315495 -7.88732e-07 0)
(0.00316089 -7.74525e-07 0)
(0.00316605 -7.77128e-07 0)
(0.00317191 -7.65207e-07 0)
(0.00317706 -7.64881e-07 0)
(0.00318282 -7.56267e-07 0)
(0.00318797 -7.53348e-07 0)
(0.00319362 -7.46724e-07 0)
(0.00319876 -7.41136e-07 0)
(0.0032043 -7.36517e-07 0)
(0.00320942 -7.28421e-07 0)
(0.00321484 -7.26026e-07 0)
(0.00321995 -7.15403e-07 0)
(0.00322525 -7.14701e-07 0)
(0.00323034 -7.03002e-07 0)
(0.0032355 -7.01473e-07 0)
(0.00324056 -6.96281e-07 0)
(0.00324562 -6.88704e-07 0)
(0.00325063 -6.82929e-07 0)
(0.0032556 -6.76568e-07 0)
(0.00326053 -6.70628e-07 0)
(0.00326541 -6.6433e-07 0)
(0.00327026 -6.58226e-07 0)
(0.00327507 -6.5198e-07 0)
(0.00327983 -6.45841e-07 0)
(0.00328456 -6.39676e-07 0)
(0.00328924 -6.33611e-07 0)
(0.00329388 -6.27531e-07 0)
(0.00329848 -6.21521e-07 0)
(0.00330303 -6.15491e-07 0)
(0.00330754 -6.09511e-07 0)
(0.00331201 -6.0351e-07 0)
(0.00331644 -5.97555e-07 0)
(0.00332083 -5.91605e-07 0)
(0.00332517 -5.85705e-07 0)
(0.00332947 -5.79829e-07 0)
(0.00333373 -5.74003e-07 0)
(0.00333795 -5.68214e-07 0)
(0.00334213 -5.62474e-07 0)
(0.00334626 -5.56776e-07 0)
(0.00335035 -5.51125e-07 0)
(0.0033544 -5.45514e-07 0)
(0.00335841 -5.39947e-07 0)
(0.00336238 -5.34417e-07 0)
(0.0033663 -5.28927e-07 0)
(0.00337019 -5.23475e-07 0)
(0.00337403 -5.18064e-07 0)
(0.00337784 -5.12692e-07 0)
(0.0033816 -5.07362e-07 0)
(0.00338533 -5.02071e-07 0)
(0.00338901 -4.96822e-07 0)
(0.00339265 -4.91614e-07 0)
(0.00339626 -4.8645e-07 0)
(0.00339983 -4.81327e-07 0)
(0.00340335 -4.76248e-07 0)
(0.00340684 -4.71213e-07 0)
(0.00341029 -4.66221e-07 0)
(0.00341371 -4.61274e-07 0)
(0.00341708 -4.56372e-07 0)
(0.00342042 -4.51514e-07 0)
(0.00342372 -4.46703e-07 0)
(0.00342698 -4.41938e-07 0)
(0.00343021 -4.37219e-07 0)
(0.0034334 -4.32548e-07 0)
(0.00343656 -4.27925e-07 0)
(0.00343968 -4.2335e-07 0)
(0.00344277 -4.18823e-07 0)
(0.00344582 -4.14345e-07 0)
(0.00344884 -4.09916e-07 0)
(0.00345182 -4.05536e-07 0)
(0.00345477 -4.01205e-07 0)
(0.00345769 -3.96926e-07 0)
(0.00346057 -3.92699e-07 0)
(0.00346343 -3.88529e-07 0)
(0.00346625 -3.84426e-07 0)
(0.00346903 -3.80397e-07 0)
(0.00347179 -3.76403e-07 0)
(0.00347452 -3.7244e-07 0)
(0.00347722 -3.68513e-07 0)
(0.00347988 -3.64629e-07 0)
(0.00348252 -3.60789e-07 0)
(0.00348513 -3.56995e-07 0)
(0.00348771 -3.53247e-07 0)
(0.00349026 -3.49546e-07 0)
(0.00349278 -3.4589e-07 0)
(0.00349527 -3.4228e-07 0)
(0.00349774 -3.38713e-07 0)
(0.00350018 -3.35191e-07 0)
(0.00350259 -3.31711e-07 0)
(0.00350498 -3.28274e-07 0)
(0.00350734 -3.24879e-07 0)
(0.00350967 -3.21524e-07 0)
(0.00351198 -3.18209e-07 0)
(0.00351426 -3.14933e-07 0)
(0.00351652 -3.11695e-07 0)
(0.00351876 -3.08496e-07 0)
(0.00352097 -3.05333e-07 0)
(0.00352315 -3.02206e-07 0)
(0.00352532 -2.99115e-07 0)
(0.00352745 -2.96058e-07 0)
(0.00352957 -2.93036e-07 0)
(0.00353166 -2.90047e-07 0)
(0.00353373 -2.8709e-07 0)
(0.00353578 -2.84166e-07 0)
(0.00353781 -2.81274e-07 0)
(0.00353981 -2.78413e-07 0)
(0.00354179 -2.75582e-07 0)
(0.00354375 -2.7278e-07 0)
(0.00354569 -2.70009e-07 0)
(0.00354761 -2.67266e-07 0)
(0.00354951 -2.64551e-07 0)
(0.00355139 -2.61864e-07 0)
(0.00355324 -2.59204e-07 0)
(0.00355508 -2.56571e-07 0)
(0.0035569 -2.53963e-07 0)
(0.0035587 -2.51382e-07 0)
(0.00356047 -2.48825e-07 0)
(0.00356223 -2.46293e-07 0)
(0.00356397 -2.43786e-07 0)
(0.00356569 -2.41302e-07 0)
(0.0035674 -2.38841e-07 0)
(0.00356908 -2.36403e-07 0)
(0.00357075 -2.33988e-07 0)
(0.0035724 -2.31594e-07 0)
(0.00357402 -2.2922e-07 0)
(0.00357564 -2.26864e-07 0)
(0.00357723 -2.24522e-07 0)
(0.00357881 -2.22186e-07 0)
(0.00358037 -2.19846e-07 0)
(0.00358191 -2.17482e-07 0)
(0.00358344 -2.15157e-07 0)
(0.00358494 -2.12879e-07 0)
(0.00358644 -2.10641e-07 0)
(0.00358791 -2.08431e-07 0)
(0.00358937 -2.06246e-07 0)
(0.00359081 -2.04081e-07 0)
(0.00359224 -2.0193e-07 0)
(0.00359365 -1.99794e-07 0)
(0.00359504 -1.97617e-07 0)
(0.00359642 -1.95512e-07 0)
(0.00359779 -1.92864e-07 0)
(0.00359913 -1.92643e-07 0)
(0.00360047 -1.8718e-07 0)
(0.00360178 -1.91414e-07 0)
(0.00360308 -1.80909e-07 0)
(0.00360437 -1.88078e-07 0)
(0.00360563 -1.75762e-07 0)
(0.0036069 -1.85349e-07 0)
(0.00360812 -1.70086e-07 0)
(0.00360937 -1.82061e-07 0)
(0.00361053 -1.6417e-07 0)
(0.00361178 -1.78664e-07 0)
(0.00361286 -1.57227e-07 0)
(0.00361415 -1.75536e-07 0)
(0.0036151 -1.47907e-07 0)
(0.00361648 -1.73733e-07 0)
(0.00361724 -1.34364e-07 0)
(0.00361879 -1.78076e-07 0)
(0.00361926 -1.16944e-07 0)
(0.00362115 -2.0836e-07 0)
(0.00362119 -1.05282e-07 0)
(0.00362405 -4.31399e-07 0)
(0.00362308 -9.86707e-07 0)
(1.08613e-06 -5.26612e-06 0)
(-1.30987e-05 1.24126e-05 0)
(-5.73168e-05 4.04857e-05 0)
(-0.000130435 6.40937e-05 0)
(-0.000228677 8.26144e-05 0)
(-0.000344063 9.24897e-05 0)
(-0.000472036 9.83324e-05 0)
(-0.000606795 9.99866e-05 0)
(-0.000745342 9.98683e-05 0)
(-0.000885849 9.84118e-05 0)
(-0.00102577 9.67179e-05 0)
(-0.00116634 9.51611e-05 0)
(-0.00130566 9.39888e-05 0)
(-0.00144408 9.33306e-05 0)
(-0.00158132 9.30862e-05 0)
(-0.00171759 9.32267e-05 0)
(-0.00185287 9.37265e-05 0)
(-0.00198719 9.45256e-05 0)
(-0.00212064 9.53572e-05 0)
(-0.0022529 9.58623e-05 0)
(-0.00238371 9.64088e-05 0)
(-0.00251317 9.70482e-05 0)
(-0.00264128 9.76141e-05 0)
(-0.00276805 9.79989e-05 0)
(-0.00289348 9.81124e-05 0)
(-0.00301755 9.78948e-05 0)
(-0.00314029 9.72859e-05 0)
(-0.00326172 9.62716e-05 0)
(-0.00338193 9.48118e-05 0)
(-0.00350096 9.29222e-05 0)
(-0.00361891 9.05231e-05 0)
(-0.00373573 8.75335e-05 0)
(-0.00385142 8.33801e-05 0)
(-0.00396561 7.67637e-05 0)
(-0.00407823 7.18269e-05 0)
(-0.00419204 6.99752e-05 0)
(-0.00430415 6.55153e-05 0)
(-0.00441591 6.04709e-05 0)
(-0.00452676 5.57732e-05 0)
(-0.00463673 5.15684e-05 0)
(-0.00474575 4.79998e-05 0)
(-0.00485382 4.50489e-05 0)
(-0.00496085 4.28456e-05 0)
(-0.00506689 4.12916e-05 0)
(-0.00517191 4.03282e-05 0)
(-0.00527594 3.98358e-05 0)
(-0.00537901 3.97206e-05 0)
(-0.00548118 3.99129e-05 0)
(-0.00558251 4.03722e-05 0)
(-0.00568308 4.10878e-05 0)
(-0.00578296 4.20738e-05 0)
(-0.00588222 4.33929e-05 0)
(-0.00598096 4.50595e-05 0)
(-0.0060792 4.73266e-05 0)
(-0.00617705 4.99689e-05 0)
(-0.00627433 5.36176e-05 0)
(-0.0063712 5.73162e-05 0)
(-0.00646726 6.09625e-05 0)
(-0.00656251 6.65405e-05 0)
(-0.00665616 7.43038e-05 0)
(-0.00674732 8.02799e-05 0)
(-0.00683816 8.47626e-05 0)
(-0.0069273 8.8373e-05 0)
(-0.00701651 9.07481e-05 0)
(-0.00710537 9.20502e-05 0)
(-0.00719411 9.25098e-05 0)
(-0.00728263 9.23308e-05 0)
(-0.0073709 9.17102e-05 0)
(-0.00745887 9.07593e-05 0)
(-0.00754645 8.95904e-05 0)
(-0.00763364 8.82333e-05 0)
(-0.00772038 8.67671e-05 0)
(-0.00780665 8.51702e-05 0)
(-0.00789242 8.35078e-05 0)
(-0.0079777 8.17341e-05 0)
(-0.00806243 7.9913e-05 0)
(-0.00814664 7.7986e-05 0)
(-0.00823028 7.60355e-05 0)
(-0.00831338 7.39549e-05 0)
(-0.00839586 7.19277e-05 0)
(-0.00847778 6.9764e-05 0)
(-0.00855905 6.7721e-05 0)
(-0.00863971 6.55158e-05 0)
(-0.0087196 6.33114e-05 0)
(-0.00879878 6.02795e-05 0)
(-0.00887715 5.63724e-05 0)
(-0.00895499 5.54316e-05 0)
(-0.00903235 5.53319e-05 0)
(-0.00910905 5.41141e-05 0)
(-0.00918459 5.36174e-05 0)
(-0.00925915 5.32413e-05 0)
(-0.00933199 5.30543e-05 0)
(-0.00940366 5.31126e-05 0)
(-0.00947321 5.67017e-05 0)
(-0.00954109 5.88263e-05 0)
(-0.00960695 6.1628e-05 0)
(-0.00967133 6.36006e-05 0)
(-0.0097329 6.67918e-05 0)
(-0.00979289 6.86888e-05 0)
(-0.00984942 7.21366e-05 0)
(-0.00990434 7.40111e-05 0)
(-0.0099546 7.7527e-05 0)
(-0.0100031 7.87645e-05 0)
(-0.0100456 8.24905e-05 0)
(-0.0100868 8.2374e-05 0)
(-0.0101205 8.59525e-05 0)
(-0.0101519 8.31513e-05 0)
(-0.010175 8.53487e-05 0)
(-0.0101931 7.76185e-05 0)
(-0.0102054 7.533e-05 0)
(-0.0102097 6.09174e-05 0)
(-0.0102075 4.77824e-05 0)
(-0.0101973 2.19399e-05 0)
(-0.0101829 -2.99369e-06 0)
(-0.0101785 -2.86715e-05 0)
(-0.0101632 -5.16789e-05 0)
(-0.0101451 -7.09239e-05 0)
(-0.0101113 -8.94212e-05 0)
(-0.0100762 -0.000104465 0)
(-0.0100227 -0.000120479 0)
(-0.00996954 -0.000134451 0)
(-0.00989642 -0.000149136 0)
(-0.00982497 -0.000162742 0)
(-0.00973237 -0.000176322 0)
(-0.00964324 -0.00018927 0)
(-0.00953085 -0.000201262 0)
(-0.00942536 -0.000212239 0)
(-0.00929358 -0.000221292 0)
(-0.00917337 -0.000227368 0)
(-0.00902385 -0.000229433 0)
(-0.00888893 -0.000223684 0)
(-0.00872173 -0.000206492 0)
(-0.00856586 -0.000185417 0)
(-0.00837459 -0.000138378 0)
(-0.00818764 -9.56841e-05 0)
(-0.00795466 -2.14247e-05 0)
(-0.00770301 -1.76024e-07 0)
(-0.00744132 3.51931e-05 0)
(-0.00717219 3.25986e-05 0)
(-0.0068983 4.90115e-05 0)
(-0.00661522 4.22992e-05 0)
(-0.00632467 4.7668e-05 0)
(-0.00602311 4.00925e-05 0)
(-0.00570959 3.70836e-05 0)
(-0.00538577 2.74728e-05 0)
(-0.00503195 1.27316e-05 0)
(-0.00468768 -1.15023e-05 0)
(-0.00427585 -4.76756e-05 0)
(-0.00393464 -0.000113901 0)
(-0.00352869 -0.00016877 0)
(-0.00323106 -0.000256388 0)
(-0.00295728 -0.000284805 0)
(-0.00262412 -0.000306366 0)
(-0.0023094 -0.000317907 0)
(-0.00195662 -0.000324012 0)
(-0.00163091 -0.000332422 0)
(-0.0012949 -0.000342436 0)
(-0.000982255 -0.000366268 0)
(-0.000605765 -0.000401722 0)
(-0.000151021 -0.000391175 0)
(0.000211184 -0.000386532 0)
(0.000614286 -0.000367478 0)
(0.000963305 -0.000358052 0)
(0.00135222 -0.000347452 0)
(0.00169367 -0.000326534 0)
(0.00206172 -0.000315318 0)
(0.00239094 -0.00029764 0)
(0.00274604 -0.000293462 0)
(0.00306505 -0.000278267 0)
(0.00340736 -0.000274972 0)
(0.0037148 -0.000259714 0)
(0.00404165 -0.000256501 0)
(0.00433624 -0.000241581 0)
(0.00464566 -0.000238186 0)
(0.00492629 -0.000224045 0)
(0.00521694 -0.000220084 0)
(0.00548264 -0.000207081 0)
(0.00575376 -0.000202048 0)
(0.00600374 -0.00019097 0)
(0.00625441 -0.000184473 0)
(0.00648784 -0.000174588 0)
(0.00671882 -0.000167478 0)
(0.00693436 -0.000158557 0)
(0.00714591 -0.00015114 0)
(0.00734335 -0.000142928 0)
(0.00753566 -0.000135548 0)
(0.00771506 -0.00012778 0)
(0.00788855 -0.000120709 0)
(0.00805015 -0.000113363 0)
(0.00820536 -0.000106613 0)
(0.00834968 -9.96803e-05 0)
(0.00848729 -9.3293e-05 0)
(0.00861498 -8.67774e-05 0)
(0.0087358 -8.08005e-05 0)
(0.00884762 -7.46903e-05 0)
(0.00895256 -6.91691e-05 0)
(0.00904937 -6.34232e-05 0)
(0.0091394 -5.84469e-05 0)
(0.0092221 -5.30152e-05 0)
(0.00929819 -4.83094e-05 0)
(0.00936762 -4.36699e-05 0)
(0.00943085 -3.91754e-05 0)
(0.00948804 -3.49618e-05 0)
(0.00953942 -3.07501e-05 0)
(0.0095853 -2.71025e-05 0)
(0.00962577 -2.32029e-05 0)
(0.00966132 -1.99719e-05 0)
(0.00969188 -1.64382e-05 0)
(0.00971805 -1.36885e-05 0)
(0.00973966 -1.04613e-05 0)
(0.00975739 -8.07446e-06 0)
(0.00977113 -5.59789e-06 0)
(0.00978125 -3.26726e-06 0)
(0.00978796 -1.06996e-06 0)
(0.00979163 5.53859e-07 0)
(0.00979222 3.1668e-06 0)
(0.00978907 4.74424e-06 0)
(0.00978408 6.72555e-06 0)
(0.00977599 8.34113e-06 0)
(0.00976634 9.9591e-06 0)
(0.00975397 1.12927e-05 0)
(0.00974041 1.25327e-05 0)
(0.00972444 1.36318e-05 0)
(0.00970761 1.45164e-05 0)
(0.00968867 1.55182e-05 0)
(0.00966915 1.6081e-05 0)
(0.00964785 1.69654e-05 0)
(0.00962614 1.72449e-05 0)
(0.00960303 1.80079e-05 0)
(0.0095796 1.80626e-05 0)
(0.00955518 1.87039e-05 0)
(0.00953051 1.85854e-05 0)
(0.0095051 1.90998e-05 0)
(0.00947966 1.88514e-05 0)
(0.00945363 1.91988e-05 0)
(0.00942773 1.88717e-05 0)
(0.00940151 1.90043e-05 0)
(0.00937545 1.87034e-05 0)
(0.00934932 1.84969e-05 0)
(0.00932357 1.82676e-05 0)
(0.0092976 1.79294e-05 0)
(0.00927237 1.75743e-05 0)
(0.00924685 1.72055e-05 0)
(0.0092223 1.66843e-05 0)
(0.0091974 1.6361e-05 0)
(0.00917368 1.5687e-05 0)
(0.00914966 1.54124e-05 0)
(0.00912693 1.46217e-05 0)
(0.00910401 1.44194e-05 0)
(0.00908243 1.35561e-05 0)
(0.00906075 1.33911e-05 0)
(0.0090404 1.25173e-05 0)
(0.00901999 1.23518e-05 0)
(0.00900096 1.14549e-05 0)
(0.00898188 1.12891e-05 0)
(0.00896425 1.037e-05 0)
(0.00894656 1.0205e-05 0)
(0.00893037 9.2696e-06 0)
(0.00891411 9.10074e-06 0)
(0.0088994 8.16034e-06 0)
(0.0088846 8.03526e-06 0)
(0.00887139 7.05863e-06 0)
(0.00885807 6.97112e-06 0)
(0.00884636 5.96025e-06 0)
(0.00883454 5.91005e-06 0)
(0.00882432 4.89238e-06 0)
(0.00881401 4.86251e-06 0)
(0.00880525 3.86994e-06 0)
(0.00879643 3.8351e-06 0)
(0.00878911 2.86886e-06 0)
(0.00878177 2.82816e-06 0)
(0.00877585 1.89087e-06 0)
(0.00876996 1.85327e-06 0)
(0.00876541 9.33917e-07 0)
(0.00876094 9.44735e-07 0)
(0.00875773 -4.9464e-08 0)
(0.00875463 1.19282e-07 0)
(0.00875273 -9.27925e-07 0)
(0.00875094 -7.66073e-07 0)
(0.00875021 -1.76853e-06 0)
(0.0087497 -1.69081e-06 0)
(0.00875017 -2.52736e-06 0)
(0.00875102 -2.44819e-06 0)
(0.00875254 -3.26447e-06 0)
(0.00875453 -3.33786e-06 0)
(0.00875721 -4.01892e-06 0)
(0.0087603 -4.29907e-06 0)
(0.00876401 -4.65938e-06 0)
(0.00876815 -4.97101e-06 0)
(0.0087728 -5.30859e-06 0)
(0.00877794 -5.57926e-06 0)
(0.00878357 -5.89435e-06 0)
(0.00878966 -6.14591e-06 0)
(0.0087962 -6.4293e-06 0)
(0.00880318 -6.69308e-06 0)
(0.00881048 -6.93387e-06 0)
(0.00881833 -7.16845e-06 0)
(0.00882624 -7.47012e-06 0)
(0.00883495 -7.60503e-06 0)
(0.00884342 -7.93928e-06 0)
(0.00885291 -8.02044e-06 0)
(0.00886193 -8.37608e-06 0)
(0.00887212 -8.36128e-06 0)
(0.00888169 -8.76653e-06 0)
(0.00889251 -8.67767e-06 0)
(0.0089026 -9.07949e-06 0)
(0.008914 -8.96469e-06 0)
(0.00892458 -9.35382e-06 0)
(0.00893652 -9.22678e-06 0)
(0.00894755 -9.60069e-06 0)
(0.00895996 -9.45917e-06 0)
(0.00897141 -9.81276e-06 0)
(0.00898424 -9.65803e-06 0)
(0.00899606 -9.98743e-06 0)
(0.00900923 -9.83564e-06 0)
(0.00902138 -1.01351e-05 0)
(0.00903485 -1.00078e-05 0)
(0.00904728 -1.02628e-05 0)
(0.009061 -1.01519e-05 0)
(0.00907367 -1.03738e-05 0)
(0.00908762 -1.02489e-05 0)
(0.00910049 -1.04625e-05 0)
(0.00911461 -1.03199e-05 0)
(0.00912765 -1.05097e-05 0)
(0.00914192 -1.03679e-05 0)
(0.0091551 -1.05333e-05 0)
(0.00916947 -1.04e-05 0)
(0.00918275 -1.05397e-05 0)
(0.00919719 -1.0415e-05 0)
(0.00921054 -1.05299e-05 0)
(0.00922501 -1.04123e-05 0)
(0.00923841 -1.05029e-05 0)
(0.00925289 -1.0392e-05 0)
(0.00926632 -1.04586e-05 0)
(0.00928078 -1.03564e-05 0)
(0.0092942 -1.03952e-05 0)
(0.00930861 -1.03069e-05 0)
(0.00932203 -1.03177e-05 0)
(0.00933634 -1.02408e-05 0)
(0.00934975 -1.02363e-05 0)
(0.00936394 -1.01573e-05 0)
(0.00937732 -1.01416e-05 0)
(0.00939136 -1.00612e-05 0)
(0.0094047 -1.00324e-05 0)
(0.00941858 -9.95658e-06 0)
(0.00943187 -9.91467e-06 0)
(0.00944556 -9.84241e-06 0)
(0.00945878 -9.78914e-06 0)
(0.00947227 -9.71988e-06 0)
(0.00948543 -9.65545e-06 0)
(0.0094987 -9.58932e-06 0)
(0.00951177 -9.51535e-06 0)
(0.00952482 -9.44955e-06 0)
(0.00953777 -9.38104e-06 0)
(0.00955064 -9.30488e-06 0)
(0.00956342 -9.23154e-06 0)
(0.00957612 -9.15564e-06 0)
(0.00958872 -9.08093e-06 0)
(0.00960124 -9.00452e-06 0)
(0.00961366 -8.92875e-06 0)
(0.00962599 -8.8514e-06 0)
(0.00963822 -8.77446e-06 0)
(0.00965035 -8.6962e-06 0)
(0.00966239 -8.61827e-06 0)
(0.00967433 -8.53956e-06 0)
(0.00968618 -8.46101e-06 0)
(0.00969792 -8.38207e-06 0)
(0.00970956 -8.30318e-06 0)
(0.00972111 -8.22415e-06 0)
(0.00973255 -8.14522e-06 0)
(0.00974389 -8.06626e-06 0)
(0.00975513 -7.98744e-06 0)
(0.00976626 -7.90869e-06 0)
(0.0097773 -7.83011e-06 0)
(0.00978823 -7.75167e-06 0)
(0.00979906 -7.67344e-06 0)
(0.00980979 -7.59542e-06 0)
(0.00982041 -7.51766e-06 0)
(0.00983094 -7.44018e-06 0)
(0.00984136 -7.36301e-06 0)
(0.00985168 -7.28618e-06 0)
(0.0098619 -7.2097e-06 0)
(0.00987201 -7.1336e-06 0)
(0.00988203 -7.0579e-06 0)
(0.00989194 -6.9826e-06 0)
(0.00990175 -6.90772e-06 0)
(0.00991147 -6.83329e-06 0)
(0.00992108 -6.75933e-06 0)
(0.00993059 -6.68583e-06 0)
(0.00994001 -6.61283e-06 0)
(0.00994933 -6.54034e-06 0)
(0.00995854 -6.46837e-06 0)
(0.00996767 -6.39694e-06 0)
(0.00997669 -6.32607e-06 0)
(0.00998562 -6.25576e-06 0)
(0.00999445 -6.18604e-06 0)
(0.0100032 -6.11692e-06 0)
(0.0100118 -6.0484e-06 0)
(0.0100204 -5.98052e-06 0)
(0.0100289 -5.91327e-06 0)
(0.0100372 -5.84668e-06 0)
(0.0100455 -5.78074e-06 0)
(0.0100537 -5.71548e-06 0)
(0.0100618 -5.6509e-06 0)
(0.0100698 -5.587e-06 0)
(0.0100777 -5.52381e-06 0)
(0.0100855 -5.46132e-06 0)
(0.0100933 -5.39953e-06 0)
(0.010101 -5.33846e-06 0)
(0.0101085 -5.27811e-06 0)
(0.010116 -5.21847e-06 0)
(0.0101235 -5.15955e-06 0)
(0.0101308 -5.10135e-06 0)
(0.010138 -5.04386e-06 0)
(0.0101452 -4.98707e-06 0)
(0.0101523 -4.93099e-06 0)
(0.0101593 -4.87561e-06 0)
(0.0101663 -4.82093e-06 0)
(0.0101731 -4.76695e-06 0)
(0.0101799 -4.71364e-06 0)
(0.0101867 -4.66102e-06 0)
(0.0101933 -4.60906e-06 0)
(0.0101999 -4.55777e-06 0)
(0.0102064 -4.50712e-06 0)
(0.0102128 -4.45712e-06 0)
(0.0102192 -4.40775e-06 0)
(0.0102255 -4.359e-06 0)
(0.0102317 -4.31085e-06 0)
(0.0102378 -4.26331e-06 0)
(0.0102439 -4.21636e-06 0)
(0.01025 -4.16999e-06 0)
(0.0102559 -4.12418e-06 0)
(0.0102618 -4.07893e-06 0)
(0.0102676 -4.03423e-06 0)
(0.0102734 -3.99006e-06 0)
(0.0102791 -3.94642e-06 0)
(0.0102848 -3.9033e-06 0)
(0.0102904 -3.86068e-06 0)
(0.0102959 -3.81857e-06 0)
(0.0103013 -3.77694e-06 0)
(0.0103067 -3.73579e-06 0)
(0.0103121 -3.6951e-06 0)
(0.0103174 -3.65488e-06 0)
(0.0103226 -3.61512e-06 0)
(0.0103278 -3.57579e-06 0)
(0.0103329 -3.53691e-06 0)
(0.010338 -3.49845e-06 0)
(0.010343 -3.46041e-06 0)
(0.010348 -3.42278e-06 0)
(0.0103529 -3.38555e-06 0)
(0.0103577 -3.34873e-06 0)
(0.0103625 -3.31229e-06 0)
(0.0103673 -3.27623e-06 0)
(0.010372 -3.24055e-06 0)
(0.0103766 -3.20524e-06 0)
(0.0103812 -3.17028e-06 0)
(0.0103858 -3.13567e-06 0)
(0.0103903 -3.10141e-06 0)
(0.0103947 -3.06748e-06 0)
(0.0103991 -3.03388e-06 0)
(0.0104035 -3.0006e-06 0)
(0.0104078 -2.96764e-06 0)
(0.0104121 -2.93498e-06 0)
(0.0104163 -2.90262e-06 0)
(0.0104205 -2.87057e-06 0)
(0.0104246 -2.83886e-06 0)
(0.0104287 -2.80755e-06 0)
(0.0104327 -2.77648e-06 0)
(0.0104367 -2.7456e-06 0)
(0.0104406 -2.71493e-06 0)
(0.0104445 -2.68447e-06 0)
(0.0104484 -2.65423e-06 0)
(0.0104522 -2.6242e-06 0)
(0.010456 -2.59437e-06 0)
(0.0104597 -2.56473e-06 0)
(0.0104634 -2.53504e-06 0)
(0.0104671 -2.50582e-06 0)
(0.0104707 -2.47427e-06 0)
(0.0104742 -2.45522e-06 0)
(0.0104778 -2.41305e-06 0)
(0.0104812 -2.40162e-06 0)
(0.0104847 -2.35243e-06 0)
(0.0104881 -2.34674e-06 0)
(0.0104914 -2.29332e-06 0)
(0.0104948 -2.29335e-06 0)
(0.010498 -2.23296e-06 0)
(0.0105013 -2.23545e-06 0)
(0.0105044 -2.17476e-06 0)
(0.0105077 -2.17624e-06 0)
(0.0105107 -2.11783e-06 0)
(0.0105139 -2.11628e-06 0)
(0.0105167 -2.06307e-06 0)
(0.01052 -2.05684e-06 0)
(0.0105226 -2.01686e-06 0)
(0.010526 -2.00551e-06 0)
(0.0105281 -2.00442e-06 0)
(0.0105319 -1.99906e-06 0)
(0.0105334 -2.12862e-06 0)
(0.0105379 -2.27191e-06 0)
(0.0105383 -3.2333e-06 0)
(-4.42725e-06 5.87116e-06 0)
(-4.63209e-05 5.89446e-05 0)
(-0.000133605 0.000123835 0)
(-0.000262724 0.000181794 0)
(-0.000426115 0.000227254 0)
(-0.000613922 0.000256518 0)
(-0.000818786 0.00027488 0)
(-0.00103363 0.000283358 0)
(-0.00125389 0.000286717 0)
(-0.0014765 0.000286468 0)
(-0.00169883 0.000284841 0)
(-0.0019204 0.000281961 0)
(-0.00213977 0.000278708 0)
(-0.00235707 0.000275599 0)
(-0.0025721 0.000272575 0)
(-0.00278479 0.000269481 0)
(-0.00299517 0.000266131 0)
(-0.00320307 0.000263019 0)
(-0.00340806 0.000259316 0)
(-0.00361059 0.000254881 0)
(-0.00381139 0.000250283 0)
(-0.0040101 0.000245712 0)
(-0.00420686 0.000241275 0)
(-0.0044015 0.000237003 0)
(-0.00459398 0.000233022 0)
(-0.00478428 0.000229464 0)
(-0.00497239 0.000226398 0)
(-0.0051583 0.000224021 0)
(-0.00534206 0.000222297 0)
(-0.00552365 0.000221403 0)
(-0.00570313 0.000221135 0)
(-0.00588042 0.000221584 0)
(-0.00605573 0.000222156 0)
(-0.00622944 0.000222527 0)
(-0.00640211 0.000227529 0)
(-0.0065711 0.000230197 0)
(-0.00673677 0.000233309 0)
(-0.00690045 0.000236236 0)
(-0.00706201 0.000238754 0)
(-0.00722147 0.000240731 0)
(-0.00737883 0.000242134 0)
(-0.00753428 0.00024272 0)
(-0.00768785 0.000242679 0)
(-0.00783992 0.000241899 0)
(-0.00799053 0.00024052 0)
(-0.00813982 0.000238652 0)
(-0.00828774 0.00023642 0)
(-0.00843428 0.000233928 0)
(-0.0085794 0.000231247 0)
(-0.00872305 0.000228417 0)
(-0.00886521 0.00022544 0)