/*--------------------------------*- C++ -*----------------------------------*\
| =========                 |                                                 |
| \\      /  F ield         | OpenFOAM: The Open Source CFD Toolbox           |
|  \\    /   O peration     | Version:  2012                                  |
|   \\  /    A nd           | Website:  www.openfoam.com                      |
|    \\/     M anipulation  |                                                 |
\*---------------------------------------------------------------------------*/
FoamFile
{
    version     2.0;
    format      ascii;
    class       volScalarField;
    location    "0.4";
    object      maxKappa;
}
// * * * * * * * * * * * * * * * * * * * * * * * * * * * * * * * * * * * * * //

dimensions      [0 0 0 0 0 0 0];


internalField   nonuniform List<scalar> 
20400
(
1.38247e-08
1.0559e-08
1.659e-08
8.49115e-09
1.75537e-08
1.34657e-08
1.96646e-08
1.96298e-08
2.3642e-08
2.49125e-08
2.77466e-08
2.94527e-08
3.16678e-08
3.34083e-08
3.52088e-08
3.68375e-08
3.83767e-08
3.98065e-08
4.11368e-08
4.2372e-08
4.3518e-08
4.45799e-08
4.5563e-08
4.64729e-08
4.73143e-08
4.8092e-08
4.88106e-08
4.94744e-08
5.00873e-08
5.06531e-08
5.11755e-08
5.16576e-08
5.21024e-08
5.25129e-08
5.28917e-08
5.32411e-08
5.35634e-08
5.38608e-08
5.41351e-08
5.43882e-08
5.46217e-08
5.48371e-08
5.50358e-08
5.52192e-08
5.53883e-08
5.55445e-08
5.56885e-08
5.58214e-08
5.59441e-08
5.60573e-08
5.61617e-08
5.62581e-08
5.63471e-08
5.64292e-08
5.65051e-08
5.6575e-08
5.66396e-08
5.66992e-08
5.67543e-08
5.68051e-08
5.6852e-08
5.68953e-08
5.69352e-08
5.69722e-08
5.70062e-08
5.70377e-08
5.70667e-08
5.70935e-08
5.71182e-08
5.71411e-08
5.71622e-08
5.71817e-08
5.71997e-08
5.72163e-08
5.72316e-08
5.72458e-08
5.72588e-08
5.72709e-08
5.7282e-08
5.72924e-08
5.73018e-08
5.73106e-08
5.73186e-08
5.73262e-08
5.7333e-08
5.73395e-08
5.73452e-08
5.73508e-08
5.73557e-08
5.73605e-08
5.73646e-08
5.73687e-08
5.73723e-08
5.73756e-08
5.73788e-08
5.73816e-08
5.73844e-08
5.73867e-08
5.73891e-08
5.73911e-08
5.73931e-08
5.73948e-08
5.73966e-08
5.7398e-08
5.73995e-08
5.74007e-08
5.7402e-08
5.7403e-08
5.74042e-08
5.74051e-08
5.7406e-08
5.74068e-08
5.74076e-08
5.74083e-08
5.7409e-08
5.74095e-08
5.74102e-08
5.74106e-08
5.74112e-08
5.74116e-08
5.7412e-08
5.74124e-08
5.74128e-08
5.74131e-08
5.74135e-08
5.74137e-08
5.74141e-08
5.74142e-08
5.74146e-08
5.74147e-08
5.7415e-08
5.7415e-08
5.74154e-08
5.74153e-08
5.74156e-08
5.74157e-08
5.74158e-08
5.74159e-08
5.74161e-08
5.74162e-08
5.74163e-08
5.74164e-08
5.74164e-08
5.74167e-08
5.74166e-08
5.7417e-08
5.74169e-08
5.74172e-08
5.74171e-08
5.74172e-08
5.74172e-08
5.74172e-08
5.74173e-08
5.74173e-08
5.74173e-08
5.74174e-08
5.74174e-08
5.74175e-08
5.74175e-08
5.74176e-08
5.74176e-08
5.74177e-08
5.74177e-08
5.74178e-08
5.74177e-08
5.74178e-08
5.74177e-08
5.7418e-08
5.74177e-08
5.7418e-08
5.74179e-08
5.7418e-08
5.74178e-08
5.74181e-08
5.74179e-08
5.74181e-08
5.74179e-08
5.7418e-08
5.74179e-08
5.74181e-08
5.74179e-08
5.74181e-08
5.7418e-08
5.74181e-08
5.7418e-08
5.7418e-08
5.74181e-08
5.74182e-08
5.74182e-08
5.74183e-08
5.74182e-08
5.74184e-08
5.74182e-08
5.74184e-08
5.74182e-08
5.74185e-08
5.74183e-08
5.74184e-08
5.74183e-08
5.74184e-08
5.74184e-08
5.74185e-08
5.74183e-08
5.74185e-08
5.74184e-08
5.74184e-08
5.74184e-08
5.74184e-08
5.74186e-08
5.74183e-08
5.74187e-08
5.74184e-08
5.74186e-08
5.74185e-08
5.74185e-08
5.74186e-08
5.74185e-08
5.74186e-08
5.74185e-08
5.74186e-08
5.74185e-08
5.74185e-08
5.74185e-08
5.74186e-08
5.74186e-08
5.74186e-08
5.74186e-08
5.74187e-08
5.74187e-08
5.74187e-08
5.74187e-08
5.74187e-08
5.74187e-08
5.74187e-08
5.74188e-08
5.74187e-08
5.74188e-08
5.74188e-08
5.74188e-08
5.74189e-08
5.74188e-08
5.7419e-08
5.74188e-08
5.74191e-08
5.74188e-08
5.7419e-08
5.74189e-08
5.7419e-08
5.74189e-08
5.74191e-08
5.74189e-08
5.74191e-08
5.74189e-08
5.74192e-08
5.7419e-08
5.74191e-08
5.7419e-08
5.7419e-08
5.74191e-08
5.7419e-08
5.74191e-08
5.7419e-08
5.74192e-08
5.7419e-08
5.74193e-08
5.74191e-08
5.74192e-08
5.74191e-08
5.74192e-08
5.74191e-08
5.74192e-08
5.74191e-08
5.74192e-08
5.74191e-08
5.74192e-08
5.74191e-08
5.74192e-08
5.74193e-08
5.74192e-08
5.74194e-08
5.74191e-08
5.74195e-08
5.74191e-08
5.74195e-08
5.74192e-08
5.74195e-08
5.74192e-08
5.74194e-08
5.74193e-08
5.74194e-08
5.74193e-08
5.74193e-08
5.74194e-08
5.74192e-08
5.74195e-08
5.74193e-08
5.74195e-08
5.74194e-08
5.74196e-08
5.74194e-08
5.74196e-08
5.74194e-08
5.74196e-08
5.74194e-08
5.74195e-08
5.74195e-08
5.74196e-08
5.74194e-08
5.74194e-08
5.74196e-08
5.74194e-08
5.74196e-08
5.74195e-08
5.74196e-08
5.74196e-08
5.74197e-08
5.74197e-08
5.74196e-08
5.74198e-08
5.74195e-08
5.74199e-08
5.74195e-08
5.74199e-08
5.74195e-08
5.74199e-08
5.74195e-08
5.74198e-08
5.74196e-08
5.74199e-08
5.74197e-08
5.74198e-08
5.74196e-08
5.74198e-08
5.74197e-08
5.74199e-08
5.74195e-08
5.74198e-08
5.74196e-08
5.74197e-08
5.74197e-08
5.74197e-08
5.74196e-08
5.74198e-08
5.74197e-08
5.74197e-08
5.74197e-08
5.74197e-08
5.74198e-08
5.74197e-08
5.74196e-08
5.74198e-08
5.74197e-08
5.74201e-08
5.74197e-08
5.74201e-08
5.74198e-08
5.742e-08
5.74198e-08
5.74202e-08
5.74198e-08
5.74202e-08
5.74198e-08
5.74203e-08
5.74198e-08
5.74204e-08
5.74196e-08
5.74205e-08
5.74196e-08
5.74205e-08
5.74197e-08
5.74201e-08
5.742e-08
5.74198e-08
5.74202e-08
5.74196e-08
5.74206e-08
5.74194e-08
5.74208e-08
5.74194e-08
5.74208e-08
5.74195e-08
5.74208e-08
5.74197e-08
5.74207e-08
5.74198e-08
5.74203e-08
5.74201e-08
5.74203e-08
5.74204e-08
5.74201e-08
5.74205e-08
5.74199e-08
5.74205e-08
5.74198e-08
5.74206e-08
5.74198e-08
5.74206e-08
5.74198e-08
5.74206e-08
5.742e-08
5.74202e-08
5.74201e-08
5.74202e-08
5.74201e-08
5.74202e-08
5.74202e-08
5.74203e-08
5.74199e-08
5.74206e-08
5.74199e-08
5.74208e-08
5.74199e-08
5.7421e-08
5.74198e-08
5.74209e-08
5.74199e-08
5.74208e-08
5.74201e-08
5.74207e-08
5.74201e-08
5.74207e-08
5.74201e-08
5.74208e-08
5.74201e-08
5.74206e-08
5.74201e-08
5.74204e-08
5.74203e-08
5.74201e-08
5.74207e-08
5.742e-08
5.74209e-08
5.74199e-08
5.7421e-08
5.74199e-08
5.74209e-08
5.74201e-08
5.74207e-08
5.74203e-08
5.74206e-08
5.74203e-08
5.74204e-08
5.74204e-08
5.74205e-08
5.74205e-08
5.74204e-08
5.74205e-08
5.74203e-08
5.74204e-08
5.74203e-08
5.74204e-08
5.74202e-08
5.74204e-08
5.74203e-08
5.74204e-08
5.74203e-08
5.74204e-08
5.74203e-08
5.74204e-08
5.74203e-08
5.74205e-08
5.74202e-08
5.74204e-08
5.74203e-08
5.74204e-08
5.74203e-08
5.74204e-08
5.74204e-08
5.74205e-08
5.74205e-08
5.74205e-08
5.74205e-08
5.74204e-08
5.74204e-08
5.74204e-08
5.74205e-08
5.74204e-08
5.74204e-08
5.74204e-08
5.74205e-08
5.74203e-08
5.74206e-08
5.742e-08
5.74209e-08
5.74191e-08
5.74222e-08
5.74164e-08
5.74261e-08
5.74097e-08
5.74344e-08
5.73979e-08
5.74465e-08
5.73845e-08
5.7455e-08
5.73825e-08
5.74451e-08
5.73986e-08
5.74043e-08
5.74237e-08
5.73768e-08
1.64004e-08
1.47254e-08
1.95206e-08
1.24714e-08
2.06385e-08
1.83203e-08
2.307e-08
2.46866e-08
2.76301e-08
2.9946e-08
3.2491e-08
3.47003e-08
3.69231e-08
3.89206e-08
4.08517e-08
4.26413e-08
4.43167e-08
4.58757e-08
4.73256e-08
4.86724e-08
4.99222e-08
5.11246e-08
5.2239e-08
5.32708e-08
5.42253e-08
5.51081e-08
5.59241e-08
5.66781e-08
5.73747e-08
5.8018e-08
5.86118e-08
5.91599e-08
5.96659e-08
6.01329e-08
6.05639e-08
6.09617e-08
6.13288e-08
6.16675e-08
6.19801e-08
6.22686e-08
6.25349e-08
6.27805e-08
6.30073e-08
6.32165e-08
6.34096e-08
6.35879e-08
6.37523e-08
6.39041e-08
6.40442e-08
6.41735e-08
6.42928e-08
6.4403e-08
6.45047e-08
6.45985e-08
6.46852e-08
6.47652e-08
6.4839e-08
6.49072e-08
6.49701e-08
6.50282e-08
6.50818e-08
6.51313e-08
6.51771e-08
6.52193e-08
6.52582e-08
6.52942e-08
6.53274e-08
6.53581e-08
6.53863e-08
6.54125e-08
6.54366e-08
6.54589e-08
6.54794e-08
6.54984e-08
6.5516e-08
6.55321e-08
6.55471e-08
6.55609e-08
6.55736e-08
6.55854e-08
6.55962e-08
6.56063e-08
6.56155e-08
6.56241e-08
6.56319e-08
6.56393e-08
6.56459e-08
6.56522e-08
6.56579e-08
6.56632e-08
6.56681e-08
6.56725e-08
6.56768e-08
6.56805e-08
6.56842e-08
6.56874e-08
6.56905e-08
6.56932e-08
6.56959e-08
6.56982e-08
6.57005e-08
6.57024e-08
6.57044e-08
6.5706e-08
6.57077e-08
6.57091e-08
6.57106e-08
6.57117e-08
6.5713e-08
6.5714e-08
6.5715e-08
6.5716e-08
6.57168e-08
6.57176e-08
6.57183e-08
6.57189e-08
6.57196e-08
6.57201e-08
6.57208e-08
6.57211e-08
6.57216e-08
6.5722e-08
6.57225e-08
6.57228e-08
6.57232e-08
6.57234e-08
6.57238e-08
6.57238e-08
6.57242e-08
6.57243e-08
6.57247e-08
6.57248e-08
6.57252e-08
6.57251e-08
6.57255e-08
6.57255e-08
6.57257e-08
6.57257e-08
6.5726e-08
6.5726e-08
6.57261e-08
6.57263e-08
6.57262e-08
6.57265e-08
6.57263e-08
6.57265e-08
6.57264e-08
6.57267e-08
6.57266e-08
6.57268e-08
6.57267e-08
6.57268e-08
6.57269e-08
6.57269e-08
6.5727e-08
6.57268e-08
6.5727e-08
6.57268e-08
6.57271e-08
6.57269e-08
6.57271e-08
6.57269e-08
6.57271e-08
6.57271e-08
6.5727e-08
6.57274e-08
6.5727e-08
6.57275e-08
6.5727e-08
6.57274e-08
6.57271e-08
6.57274e-08
6.57271e-08
6.57274e-08
6.57271e-08
6.57274e-08
6.57272e-08
6.57274e-08
6.57272e-08
6.57273e-08
6.57272e-08
6.57274e-08
6.5727e-08
6.57275e-08
6.57271e-08
6.57274e-08
6.57272e-08
6.57273e-08
6.57273e-08
6.57273e-08
6.57273e-08
6.57273e-08
6.57272e-08
6.57274e-08
6.57273e-08
6.57274e-08
6.57273e-08
6.57273e-08
6.57274e-08
6.57272e-08
6.57275e-08
6.57272e-08
6.57274e-08
6.57273e-08
6.57273e-08
6.57273e-08
6.57274e-08
6.57272e-08
6.57275e-08
6.5727e-08
6.57277e-08
6.57271e-08
6.57277e-08
6.57273e-08
6.57275e-08
6.57273e-08
6.57274e-08
6.57273e-08
6.57274e-08
6.57273e-08
6.57274e-08
6.57272e-08
6.57274e-08
6.57273e-08
6.57273e-08
6.57274e-08
6.57274e-08
6.57274e-08
6.57274e-08
6.57273e-08
6.57274e-08
6.57273e-08
6.57275e-08
6.57274e-08
6.57274e-08
6.57273e-08
6.57275e-08
6.57273e-08
6.57275e-08
6.57273e-08
6.57275e-08
6.57273e-08
6.57274e-08
6.57275e-08
6.57273e-08
6.57274e-08
6.57273e-08
6.57274e-08
6.57273e-08
6.57275e-08
6.57273e-08
6.57275e-08
6.57273e-08
6.57274e-08
6.57274e-08
6.57274e-08
6.57275e-08
6.57274e-08
6.57276e-08
6.57273e-08
6.57275e-08
6.57273e-08
6.57275e-08
6.57273e-08
6.57276e-08
6.57273e-08
6.57275e-08
6.57274e-08
6.57274e-08
6.57274e-08
6.57274e-08
6.57274e-08
6.57274e-08
6.57273e-08
6.57275e-08
6.57274e-08
6.57275e-08
6.57275e-08
6.57274e-08
6.57276e-08
6.57273e-08
6.57277e-08
6.57272e-08
6.57276e-08
6.57273e-08
6.57276e-08
6.57274e-08
6.57274e-08
6.57274e-08
6.57274e-08
6.57275e-08
6.57273e-08
6.57276e-08
6.57274e-08
6.57275e-08
6.57274e-08
6.57275e-08
6.57275e-08
6.57274e-08
6.57274e-08
6.57276e-08
6.57273e-08
6.57275e-08
6.57275e-08
6.57275e-08
6.57275e-08
6.57274e-08
6.57275e-08
6.57273e-08
6.57276e-08
6.57274e-08
6.57274e-08
6.57275e-08
6.57275e-08
6.57275e-08
6.57274e-08
6.57276e-08
6.57274e-08
6.57275e-08
6.57274e-08
6.57276e-08
6.57274e-08
6.57277e-08
6.57273e-08
6.57278e-08
6.57274e-08
6.57276e-08
6.57275e-08
6.57275e-08
6.57274e-08
6.57275e-08
6.57275e-08
6.57275e-08
6.57274e-08
6.57276e-08
6.57273e-08
6.57276e-08
6.57274e-08
6.57276e-08
6.57274e-08
6.57275e-08
6.57273e-08
6.57274e-08
6.57275e-08
6.57274e-08
6.57275e-08
6.57273e-08
6.57275e-08
6.57274e-08
6.57275e-08
6.57276e-08
6.57273e-08
6.57274e-08
6.57276e-08
6.57274e-08
6.57275e-08
6.57274e-08
6.57275e-08
6.57275e-08
6.57275e-08
6.57276e-08
6.57274e-08
6.57277e-08
6.57273e-08
6.57278e-08
6.57271e-08
6.5728e-08
6.57271e-08
6.57279e-08
6.57274e-08
6.57278e-08
6.57276e-08
6.57273e-08
6.57281e-08
6.5727e-08
6.57284e-08
6.57268e-08
6.57284e-08
6.57267e-08
6.57284e-08
6.57268e-08
6.57282e-08
6.5727e-08
6.57281e-08
6.57272e-08
6.57278e-08
6.57275e-08
6.57276e-08
6.57276e-08
6.57275e-08
6.57278e-08
6.57274e-08
6.57279e-08
6.57271e-08
6.57281e-08
6.57271e-08
6.57278e-08
6.57273e-08
6.57278e-08
6.57275e-08
6.57277e-08
6.57277e-08
6.57276e-08
6.57277e-08
6.57276e-08
6.57274e-08
6.57278e-08
6.57273e-08
6.57283e-08
6.57271e-08
6.57284e-08
6.57269e-08
6.57284e-08
6.5727e-08
6.57283e-08
6.57271e-08
6.57281e-08
6.57273e-08
6.57281e-08
6.57272e-08
6.5728e-08
6.57272e-08
6.57281e-08
6.57272e-08
6.5728e-08
6.57273e-08
6.57277e-08
6.57276e-08
6.57275e-08
6.5728e-08
6.57272e-08
6.57281e-08
6.57272e-08
6.57281e-08
6.57271e-08
6.5728e-08
6.57272e-08
6.57279e-08
6.57274e-08
6.57277e-08
6.57275e-08
6.57276e-08
6.57275e-08
6.57276e-08
6.57276e-08
6.57277e-08
6.57276e-08
6.57276e-08
6.57276e-08
6.57276e-08
6.57276e-08
6.57275e-08
6.57277e-08
6.57276e-08
6.57277e-08
6.57275e-08
6.57278e-08
6.57273e-08
6.57278e-08
6.57272e-08
6.57278e-08
6.57274e-08
6.57277e-08
6.57275e-08
6.57276e-08
6.57275e-08
6.57277e-08
6.57275e-08
6.57275e-08
6.57275e-08
6.57275e-08
6.57275e-08
6.57275e-08
6.57275e-08
6.57276e-08
6.57275e-08
6.57276e-08
6.57276e-08
6.57275e-08
6.57277e-08
6.57274e-08
6.57277e-08
6.57271e-08
6.5728e-08
6.57262e-08
6.57293e-08
6.57233e-08
6.57333e-08
6.57164e-08
6.57423e-08
6.57035e-08
6.5756e-08
6.56883e-08
6.57678e-08
6.56824e-08
6.57629e-08
6.56954e-08
6.5728e-08
6.57265e-08
6.57176e-08
1.74325e-08
1.63435e-08
2.11404e-08
1.46825e-08
2.21186e-08
1.97978e-08
2.44349e-08
2.59628e-08
2.887e-08
3.11618e-08
3.36924e-08
3.58927e-08
3.81121e-08
4.01073e-08
4.20392e-08
4.38311e-08
4.55079e-08
4.70692e-08
4.85214e-08
4.987e-08
5.11209e-08
5.22802e-08
5.33539e-08
5.43478e-08
5.52674e-08
5.61174e-08
5.6903e-08
5.76288e-08
5.82993e-08
5.89185e-08
5.94902e-08
6.0018e-08
6.05053e-08
6.09551e-08
6.13704e-08
6.17538e-08
6.21076e-08
6.24342e-08
6.27357e-08
6.30139e-08
6.32708e-08
6.35079e-08
6.37267e-08
6.39287e-08
6.41151e-08
6.42872e-08
6.4446e-08
6.45927e-08
6.47281e-08
6.48531e-08
6.49684e-08
6.5075e-08
6.51758e-08
6.52694e-08
6.53558e-08
6.54355e-08
6.55092e-08
6.55771e-08
6.56399e-08
6.56979e-08
6.57514e-08
6.58008e-08
6.58464e-08
6.58886e-08
6.59274e-08
6.59634e-08
6.59965e-08
6.60271e-08
6.60553e-08
6.60815e-08
6.61055e-08
6.61278e-08
6.61483e-08
6.61672e-08
6.61848e-08
6.62009e-08
6.62159e-08
6.62297e-08
6.62424e-08
6.62541e-08
6.62649e-08
6.6275e-08
6.62842e-08
6.62928e-08
6.63006e-08
6.6308e-08
6.63146e-08
6.63209e-08
6.63266e-08
6.63319e-08
6.63368e-08
6.63412e-08
6.63455e-08
6.63493e-08
6.63529e-08
6.63561e-08
6.63592e-08
6.63619e-08
6.63646e-08
6.63669e-08
6.63692e-08
6.63712e-08
6.63731e-08
6.63748e-08
6.63764e-08
6.63779e-08
6.63793e-08
6.63805e-08
6.63817e-08
6.63828e-08
6.63837e-08
6.63847e-08
6.63855e-08
6.63863e-08
6.6387e-08
6.63877e-08
6.63883e-08
6.63889e-08
6.63894e-08
6.63898e-08
6.63903e-08
6.63908e-08
6.63911e-08
6.63914e-08
6.63918e-08
6.63921e-08
6.63924e-08
6.63925e-08
6.6393e-08
6.63929e-08
6.63934e-08
6.63935e-08
6.63937e-08
6.63938e-08
6.63941e-08
6.63941e-08
6.63943e-08
6.63944e-08
6.63945e-08
6.63947e-08
6.63947e-08
6.63949e-08
6.63948e-08
6.63951e-08
6.63949e-08
6.63951e-08
6.6395e-08
6.63952e-08
6.63951e-08
6.63954e-08
6.63951e-08
6.63956e-08
6.63953e-08
6.63956e-08
6.63954e-08
6.63955e-08
6.63956e-08
6.63955e-08
6.63958e-08
6.63955e-08
6.63958e-08
6.63956e-08
6.63956e-08
6.63958e-08
6.63954e-08
6.63961e-08
6.63953e-08
6.63961e-08
6.63955e-08
6.6396e-08
6.63956e-08
6.63959e-08
6.63957e-08
6.63959e-08
6.63958e-08
6.63958e-08
6.63958e-08
6.63959e-08
6.63959e-08
6.63959e-08
6.63959e-08
6.6396e-08
6.63957e-08
6.63961e-08
6.63957e-08
6.63962e-08
6.63958e-08
6.63961e-08
6.63958e-08
6.6396e-08
6.63959e-08
6.63959e-08
6.63959e-08
6.6396e-08
6.63959e-08
6.63959e-08
6.6396e-08
6.63958e-08
6.63961e-08
6.63958e-08
6.63961e-08
6.63958e-08
6.63961e-08
6.6396e-08
6.6396e-08
6.6396e-08
6.63961e-08
6.63959e-08
6.63962e-08
6.63958e-08
6.63963e-08
6.63957e-08
6.63963e-08
6.63958e-08
6.63962e-08
6.63959e-08
6.63962e-08
6.63959e-08
6.63962e-08
6.63959e-08
6.63962e-08
6.6396e-08
6.63962e-08
6.6396e-08
6.63961e-08
6.6396e-08
6.63961e-08
6.6396e-08
6.63961e-08
6.6396e-08
6.63962e-08
6.6396e-08
6.63962e-08
6.6396e-08
6.63962e-08
6.63961e-08
6.63962e-08
6.63961e-08
6.63961e-08
6.63961e-08
6.63961e-08
6.63961e-08
6.6396e-08
6.63962e-08
6.6396e-08
6.63962e-08
6.6396e-08
6.63963e-08
6.63961e-08
6.63962e-08
6.63961e-08
6.63961e-08
6.63962e-08
6.63962e-08
6.63962e-08
6.63961e-08
6.63962e-08
6.63961e-08
6.63963e-08
6.6396e-08
6.63964e-08
6.63961e-08
6.63963e-08
6.63961e-08
6.63963e-08
6.63961e-08
6.63963e-08
6.63961e-08
6.63962e-08
6.63963e-08
6.63963e-08
6.63963e-08
6.63963e-08
6.63962e-08
6.63963e-08
6.63963e-08
6.63963e-08
6.63962e-08
6.63962e-08
6.63963e-08
6.63961e-08
6.63964e-08
6.63961e-08
6.63964e-08
6.63961e-08
6.63964e-08
6.63963e-08
6.63963e-08
6.63963e-08
6.63962e-08
6.63964e-08
6.63962e-08
6.63963e-08
6.63965e-08
6.63961e-08
6.63964e-08
6.63961e-08
6.63965e-08
6.63961e-08
6.63963e-08
6.63963e-08
6.63962e-08
6.63963e-08
6.63962e-08
6.63963e-08
6.63962e-08
6.63961e-08
6.63965e-08
6.63962e-08
6.63965e-08
6.63962e-08
6.63964e-08
6.63963e-08
6.63964e-08
6.63963e-08
6.63962e-08
6.63965e-08
6.63962e-08
6.63964e-08
6.63962e-08
6.63963e-08
6.63962e-08
6.63964e-08
6.63963e-08
6.63963e-08
6.63963e-08
6.63963e-08
6.63964e-08
6.63962e-08
6.63964e-08
6.63963e-08
6.63964e-08
6.63963e-08
6.63964e-08
6.63964e-08
6.63963e-08
6.63964e-08
6.63962e-08
6.63966e-08
6.63961e-08
6.63966e-08
6.63962e-08
6.63965e-08
6.63965e-08
6.63964e-08
6.63964e-08
6.63963e-08
6.63964e-08
6.63963e-08
6.63967e-08
6.63963e-08
6.63964e-08
6.6396e-08
6.63966e-08
6.63961e-08
6.63965e-08
6.63963e-08
6.63965e-08
6.63962e-08
6.63965e-08
6.63963e-08
6.63964e-08
6.63965e-08
6.63961e-08
6.63968e-08
6.6396e-08
6.63969e-08
6.6396e-08
6.63967e-08
6.63963e-08
6.63965e-08
6.63965e-08
6.63962e-08
6.63969e-08
6.63958e-08
6.63974e-08
6.63955e-08
6.63974e-08
6.63954e-08
6.63974e-08
6.63956e-08
6.63972e-08
6.63957e-08
6.63969e-08
6.63961e-08
6.63969e-08
6.63962e-08
6.63966e-08
6.63963e-08
6.63965e-08
6.63966e-08
6.63964e-08
6.63967e-08
6.63961e-08
6.63968e-08
6.63961e-08
6.63968e-08
6.63961e-08
6.63968e-08
6.63962e-08
6.63968e-08
6.63963e-08
6.63966e-08
6.63965e-08
6.63966e-08
6.63964e-08
6.63966e-08
6.63965e-08
6.63969e-08
6.6396e-08
6.6397e-08
6.6396e-08
6.63971e-08
6.63959e-08
6.63971e-08
6.63959e-08
6.63971e-08
6.63961e-08
6.6397e-08
6.63961e-08
6.63971e-08
6.6396e-08
6.6397e-08
6.63961e-08
6.63969e-08
6.63963e-08
6.63966e-08
6.63967e-08
6.63965e-08
6.63969e-08
6.63961e-08
6.6397e-08
6.6396e-08
6.6397e-08
6.63961e-08
6.63968e-08
6.63962e-08
6.63967e-08
6.63962e-08
6.63967e-08
6.63964e-08
6.63968e-08
6.63963e-08
6.63967e-08
6.63963e-08
6.63968e-08
6.63963e-08
6.63968e-08
6.63964e-08
6.63966e-08
6.63967e-08
6.63966e-08
6.63967e-08
6.63965e-08
6.63968e-08
6.63963e-08
6.63969e-08
6.63962e-08
6.63969e-08
6.63961e-08
6.63969e-08
6.63962e-08
6.63968e-08
6.63963e-08
6.63967e-08
6.63965e-08
6.63966e-08
6.63964e-08
6.63964e-08
6.63964e-08
6.63964e-08
6.63965e-08
6.63965e-08
6.63965e-08
6.63965e-08
6.63964e-08
6.63965e-08
6.63964e-08
6.63964e-08
6.63965e-08
6.63963e-08
6.63965e-08
6.63961e-08
6.63969e-08
6.63951e-08
6.63983e-08
6.63922e-08
6.64026e-08
6.63852e-08
6.64119e-08
6.63723e-08
6.64261e-08
6.63582e-08
6.64393e-08
6.63548e-08
6.64389e-08
6.63606e-08
6.64092e-08
6.63994e-08
6.63822e-08
1.85574e-08
1.8154e-08
2.30065e-08
1.70709e-08
2.39166e-08
2.1418e-08
2.60277e-08
2.71796e-08
3.00223e-08
3.21452e-08
3.45854e-08
3.67026e-08
3.88498e-08
4.07842e-08
4.26587e-08
4.44006e-08
4.60312e-08
4.7551e-08
4.89658e-08
5.02808e-08
5.1502e-08
5.26352e-08
5.36849e-08
5.46564e-08
5.55552e-08
5.63867e-08
5.71557e-08
5.78664e-08
5.8523e-08
5.91295e-08
5.96897e-08
6.0207e-08
6.06848e-08
6.11259e-08
6.15333e-08
6.19093e-08
6.22565e-08
6.2577e-08
6.28729e-08
6.3146e-08
6.33982e-08
6.36309e-08
6.38458e-08
6.40441e-08
6.42272e-08
6.43963e-08
6.45523e-08
6.46963e-08
6.48293e-08
6.49521e-08
6.50655e-08
6.51701e-08
6.52667e-08
6.53559e-08
6.54382e-08
6.55143e-08
6.55844e-08
6.56492e-08
6.5709e-08
6.57642e-08
6.58152e-08
6.58623e-08
6.59057e-08
6.59459e-08
6.59829e-08
6.60171e-08
6.60487e-08
6.60779e-08
6.61048e-08
6.61296e-08
6.61526e-08
6.61738e-08
6.61934e-08
6.62114e-08
6.62281e-08
6.62436e-08
6.62578e-08
6.6271e-08
6.62834e-08
6.6295e-08
6.63056e-08
6.63154e-08
6.63245e-08
6.63329e-08
6.63406e-08
6.63478e-08
6.63543e-08
6.63604e-08
6.63661e-08
6.63712e-08
6.63761e-08
6.63804e-08
6.63846e-08
6.63883e-08
6.63918e-08
6.6395e-08
6.6398e-08
6.64007e-08
6.64033e-08
6.64056e-08
6.64078e-08
6.64098e-08
6.64117e-08
6.64133e-08
6.64149e-08
6.64164e-08
6.64178e-08
6.64189e-08
6.64201e-08
6.64211e-08
6.64222e-08
6.64229e-08
6.64239e-08
6.64246e-08
6.64253e-08
6.6426e-08
6.64266e-08
6.64271e-08
6.64277e-08
6.64281e-08
6.64286e-08
6.6429e-08
6.64293e-08
6.64297e-08
6.643e-08
6.64303e-08
6.64305e-08
6.64308e-08
6.64311e-08
6.64312e-08
6.64315e-08
6.64317e-08
6.64319e-08
6.6432e-08
6.64322e-08
6.64323e-08
6.64324e-08
6.64326e-08
6.64326e-08
6.64328e-08
6.64328e-08
6.6433e-08
6.6433e-08
6.64331e-08
6.64331e-08
6.64333e-08
6.64331e-08
6.64334e-08
6.64331e-08
6.64336e-08
6.64333e-08
6.64336e-08
6.64334e-08
6.64336e-08
6.64336e-08
6.64337e-08
6.64337e-08
6.64337e-08
6.64338e-08
6.64337e-08
6.64338e-08
6.64338e-08
6.64337e-08
6.64339e-08
6.64337e-08
6.64341e-08
6.64336e-08
6.64339e-08
6.64337e-08
6.6434e-08
6.64339e-08
6.64338e-08
6.64341e-08
6.64338e-08
6.64341e-08
6.64339e-08
6.64341e-08
6.6434e-08
6.6434e-08
6.6434e-08
6.64339e-08
6.64341e-08
6.64339e-08
6.64342e-08
6.64338e-08
6.64343e-08
6.64338e-08
6.64342e-08
6.64339e-08
6.64342e-08
6.6434e-08
6.64341e-08
6.64341e-08
6.64341e-08
6.64341e-08
6.64341e-08
6.64341e-08
6.6434e-08
6.64342e-08
6.64341e-08
6.64341e-08
6.64341e-08
6.64341e-08
6.64341e-08
6.64341e-08
6.64341e-08
6.64342e-08
6.64341e-08
6.64343e-08
6.6434e-08
6.64344e-08
6.64339e-08
6.64344e-08
6.64339e-08
6.64344e-08
6.64339e-08
6.64344e-08
6.6434e-08
6.64344e-08
6.6434e-08
6.64343e-08
6.64342e-08
6.64343e-08
6.64343e-08
6.64342e-08
6.64343e-08
6.64342e-08
6.64343e-08
6.64342e-08
6.64342e-08
6.64343e-08
6.64342e-08
6.64343e-08
6.64342e-08
6.64343e-08
6.64343e-08
6.64343e-08
6.64343e-08
6.64342e-08
6.64343e-08
6.64342e-08
6.64343e-08
6.64341e-08
6.64344e-08
6.64341e-08
6.64344e-08
6.64341e-08
6.64344e-08
6.64342e-08
6.64343e-08
6.64343e-08
6.64343e-08
6.64344e-08
6.64342e-08
6.64345e-08
6.64342e-08
6.64345e-08
6.64341e-08
6.64346e-08
6.64341e-08
6.64345e-08
6.64342e-08
6.64345e-08
6.64343e-08
6.64344e-08
6.64343e-08
6.64344e-08
6.64343e-08
6.64344e-08
6.64344e-08
6.64345e-08
6.64344e-08
6.64345e-08
6.64344e-08
6.64345e-08
6.64343e-08
6.64344e-08
6.64344e-08
6.64344e-08
6.64345e-08
6.64343e-08
6.64346e-08
6.64343e-08
6.64346e-08
6.64343e-08
6.64345e-08
6.64344e-08
6.64345e-08
6.64345e-08
6.64345e-08
6.64345e-08
6.64345e-08
6.64344e-08
6.64346e-08
6.64343e-08
6.64347e-08
6.64342e-08
6.64347e-08
6.64343e-08
6.64345e-08
6.64344e-08
6.64346e-08
6.64345e-08
6.64343e-08
6.64346e-08
6.64345e-08
6.64341e-08
6.64347e-08
6.64344e-08
6.64345e-08
6.64345e-08
6.64347e-08
6.64345e-08
6.64344e-08
6.64346e-08
6.64343e-08
6.64347e-08
6.64342e-08
6.64347e-08
6.64344e-08
6.64346e-08
6.64343e-08
6.64346e-08
6.64345e-08
6.64345e-08
6.64344e-08
6.64346e-08
6.64346e-08
6.64346e-08
6.64344e-08
6.64345e-08
6.64344e-08
6.64345e-08
6.64347e-08
6.64346e-08
6.64345e-08
6.64345e-08
6.64345e-08
6.64348e-08
6.64344e-08
6.64347e-08
6.64344e-08
6.64347e-08
6.64345e-08
6.64346e-08
6.64346e-08
6.64346e-08
6.64347e-08
6.64344e-08
6.64348e-08
6.64343e-08
6.64349e-08
6.64344e-08
6.64348e-08
6.64342e-08
6.64348e-08
6.64343e-08
6.64347e-08
6.64343e-08
6.64347e-08
6.64343e-08
6.64347e-08
6.64345e-08
6.64346e-08
6.64347e-08
6.64345e-08
6.64348e-08
6.64344e-08
6.64347e-08
6.64344e-08
6.64346e-08
6.64349e-08
6.64344e-08
6.64351e-08
6.6434e-08
6.64354e-08
6.64337e-08
6.64356e-08
6.64335e-08
6.64356e-08
6.64338e-08
6.64355e-08
6.64339e-08
6.64351e-08
6.64341e-08
6.6435e-08
6.64343e-08
6.64348e-08
6.64345e-08
6.64347e-08
6.64347e-08
6.64345e-08
6.64348e-08
6.64344e-08
6.64349e-08
6.64344e-08
6.64349e-08
6.64342e-08
6.64348e-08
6.64343e-08
6.64349e-08
6.64344e-08
6.64349e-08
6.64344e-08
6.64348e-08
6.64347e-08
6.64348e-08
6.64346e-08
6.64349e-08
6.64344e-08
6.6435e-08
6.64343e-08
6.64352e-08
6.64341e-08
6.64353e-08
6.64341e-08
6.64353e-08
6.64342e-08
6.64352e-08
6.64342e-08
6.64354e-08
6.64341e-08
6.64355e-08
6.64341e-08
6.64353e-08
6.64343e-08
6.6435e-08
6.64347e-08
6.64348e-08
6.64347e-08
6.64346e-08
6.64349e-08
6.64344e-08
6.64349e-08
6.64344e-08
6.64348e-08
6.64345e-08
6.64349e-08
6.64345e-08
6.64348e-08
6.64345e-08
6.64349e-08
6.64344e-08
6.6435e-08
6.64344e-08
6.6435e-08
6.64345e-08
6.6435e-08
6.64345e-08
6.64347e-08
6.64346e-08
6.64349e-08
6.6435e-08
6.64347e-08
6.64349e-08
6.64346e-08
6.64351e-08
6.64344e-08
6.64352e-08
6.64344e-08
6.64351e-08
6.64344e-08
6.64351e-08
6.64343e-08
6.6435e-08
6.64346e-08
6.64349e-08
6.64346e-08
6.64347e-08
6.64347e-08
6.64346e-08
6.64346e-08
6.64346e-08
6.64347e-08
6.64346e-08
6.64346e-08
6.64346e-08
6.64346e-08
6.64346e-08
6.64345e-08
6.64345e-08
6.64346e-08
6.64342e-08
6.6435e-08
6.64333e-08
6.64366e-08
6.64313e-08
6.64412e-08
6.64325e-08
6.64507e-08
6.64334e-08
6.64654e-08
6.64321e-08
6.64797e-08
6.64287e-08
6.64823e-08
6.64344e-08
6.64557e-08
6.64412e-08
6.64227e-08
2.00586e-08
2.06411e-08
2.5335e-08
1.97776e-08
2.61243e-08
2.34997e-08
2.80049e-08
2.87639e-08
3.16713e-08
3.34324e-08
3.57537e-08
3.77644e-08
3.98155e-08
4.16669e-08
4.34627e-08
4.51336e-08
4.66998e-08
4.81608e-08
4.95222e-08
5.07888e-08
5.19655e-08
5.30571e-08
5.40694e-08
5.50075e-08
5.58761e-08
5.66799e-08
5.74235e-08
5.81111e-08
5.87469e-08
5.93345e-08
5.98775e-08
6.03793e-08
6.08428e-08
6.1271e-08
6.16664e-08
6.20316e-08
6.23689e-08
6.26803e-08
6.29679e-08
6.32334e-08
6.34786e-08
6.37051e-08
6.39142e-08
6.41072e-08
6.42855e-08
6.44501e-08
6.46021e-08
6.47424e-08
6.48719e-08
6.49916e-08
6.5102e-08
6.5204e-08
6.52982e-08
6.53851e-08
6.54654e-08
6.55396e-08
6.5608e-08
6.56713e-08
6.57296e-08
6.57835e-08
6.58333e-08
6.58792e-08
6.59216e-08
6.59608e-08
6.59969e-08
6.60303e-08
6.60611e-08
6.60896e-08
6.61159e-08
6.61401e-08
6.61626e-08
6.61832e-08
6.62024e-08
6.622e-08
6.62363e-08
6.62513e-08
6.62652e-08
6.62781e-08
6.62899e-08
6.63009e-08
6.6311e-08
6.63204e-08
6.63292e-08
6.63374e-08
6.63449e-08
6.63518e-08
6.63582e-08
6.63642e-08
6.63696e-08
6.63747e-08
6.63793e-08
6.63836e-08
6.63876e-08
6.63913e-08
6.63947e-08
6.63978e-08
6.64007e-08
6.64034e-08
6.64058e-08
6.64081e-08
6.64102e-08
6.64121e-08
6.6414e-08
6.64156e-08
6.64172e-08
6.64185e-08
6.64199e-08
6.6421e-08
6.64222e-08
6.64231e-08
6.64243e-08
6.64249e-08
6.64259e-08
6.64266e-08
6.64273e-08
6.64279e-08
6.64284e-08
6.64291e-08
6.64295e-08
6.643e-08
6.64304e-08
6.64308e-08
6.64312e-08
6.64315e-08
6.64318e-08
6.64322e-08
6.64323e-08
6.64327e-08
6.64328e-08
6.64331e-08
6.64333e-08
6.64335e-08
6.64336e-08
6.64338e-08
6.64339e-08
6.64341e-08
6.64342e-08
6.64343e-08
6.64344e-08
6.64345e-08
6.64346e-08
6.64347e-08
6.64347e-08
6.64348e-08
6.64348e-08
6.6435e-08
6.64349e-08
6.6435e-08
6.6435e-08
6.64351e-08
6.64353e-08
6.6435e-08
6.64353e-08
6.64352e-08
6.64354e-08
6.64354e-08
6.64353e-08
6.64354e-08
6.64354e-08
6.64355e-08
6.64354e-08
6.64355e-08
6.64354e-08
6.64356e-08
6.64355e-08
6.64356e-08
6.64355e-08
6.64356e-08
6.64356e-08
6.64355e-08
6.64357e-08
6.64355e-08
6.64358e-08
6.64355e-08
6.64358e-08
6.64356e-08
6.64358e-08
6.64358e-08
6.64355e-08
6.64359e-08
6.64355e-08
6.6436e-08
6.64355e-08
6.6436e-08
6.64355e-08
6.6436e-08
6.64355e-08
6.64359e-08
6.64357e-08
6.64358e-08
6.64357e-08
6.64358e-08
6.64358e-08
6.64357e-08
6.64359e-08
6.64358e-08
6.64358e-08
6.64359e-08
6.64357e-08
6.64358e-08
6.64358e-08
6.64359e-08
6.64358e-08
6.64359e-08
6.64358e-08
6.64359e-08
6.64359e-08
6.64358e-08
6.6436e-08
6.64357e-08
6.6436e-08
6.64357e-08
6.6436e-08
6.64357e-08
6.64361e-08
6.64357e-08
6.64361e-08
6.64357e-08
6.64361e-08
6.64358e-08
6.6436e-08
6.64359e-08
6.64359e-08
6.6436e-08
6.64359e-08
6.6436e-08
6.64359e-08
6.6436e-08
6.64359e-08
6.6436e-08
6.6436e-08
6.64359e-08
6.6436e-08
6.64359e-08
6.6436e-08
6.6436e-08
6.64359e-08
6.64361e-08
6.64359e-08
6.6436e-08
6.64359e-08
6.6436e-08
6.64359e-08
6.6436e-08
6.64359e-08
6.64361e-08
6.64359e-08
6.6436e-08
6.6436e-08
6.6436e-08
6.64361e-08
6.64359e-08
6.64361e-08
6.64358e-08
6.64363e-08
6.64357e-08
6.64364e-08
6.64357e-08
6.64364e-08
6.64357e-08
6.64363e-08
6.64359e-08
6.64362e-08
6.6436e-08
6.64361e-08
6.6436e-08
6.64361e-08
6.64361e-08
6.64361e-08
6.64361e-08
6.64361e-08
6.64361e-08
6.64362e-08
6.64361e-08
6.64362e-08
6.64361e-08
6.64361e-08
6.64361e-08
6.64361e-08
6.64362e-08
6.6436e-08
6.64362e-08
6.6436e-08
6.64362e-08
6.64361e-08
6.64362e-08
6.64361e-08
6.64361e-08
6.64362e-08
6.64362e-08
6.64362e-08
6.64362e-08
6.64361e-08
6.64363e-08
6.6436e-08
6.64364e-08
6.6436e-08
6.64363e-08
6.6436e-08
6.64363e-08
6.64359e-08
6.64363e-08
6.64361e-08
6.64361e-08
6.64363e-08
6.64363e-08
6.64359e-08
6.64364e-08
6.6436e-08
6.64364e-08
6.64361e-08
6.64362e-08
6.64362e-08
6.64361e-08
6.64364e-08
6.6436e-08
6.64363e-08
6.6436e-08
6.64363e-08
6.6436e-08
6.64364e-08
6.64362e-08
6.64363e-08
6.64361e-08
6.64364e-08
6.64361e-08
6.64363e-08
6.64362e-08
6.64363e-08
6.64361e-08
6.64363e-08
6.64361e-08
6.64364e-08
6.6436e-08
6.64364e-08
6.64361e-08
6.64367e-08
6.6436e-08
6.64366e-08
6.64359e-08
6.64367e-08
6.6436e-08
6.64367e-08
6.64358e-08
6.64365e-08
6.64361e-08
6.64365e-08
6.64363e-08
6.64362e-08
6.64365e-08
6.6436e-08
6.64365e-08
6.64361e-08
6.64365e-08
6.64361e-08
6.64366e-08
6.6436e-08
6.64366e-08
6.6436e-08
6.64365e-08
6.64359e-08
6.64364e-08
6.6436e-08
6.64365e-08
6.64361e-08
6.64364e-08
6.64362e-08
6.64363e-08
6.64362e-08
6.64364e-08
6.64362e-08
6.64366e-08
6.6436e-08
6.64368e-08
6.64357e-08
6.6437e-08
6.64355e-08
6.64374e-08
6.64354e-08
6.64372e-08
6.64355e-08
6.6437e-08
6.64359e-08
6.64368e-08
6.64359e-08
6.64366e-08
6.64361e-08
6.64364e-08
6.64362e-08
6.64363e-08
6.64362e-08
6.64363e-08
6.64363e-08
6.64364e-08
6.64363e-08
6.64363e-08
6.64365e-08
6.64362e-08
6.64365e-08
6.64361e-08
6.64366e-08
6.64362e-08
6.64365e-08
6.64362e-08
6.64365e-08
6.64364e-08
6.64364e-08
6.64363e-08
6.64365e-08
6.64362e-08
6.64367e-08
6.6436e-08
6.64369e-08
6.6436e-08
6.64369e-08
6.64361e-08
6.64367e-08
6.64359e-08
6.64369e-08
6.64359e-08
6.6437e-08
6.64359e-08
6.64371e-08
6.64358e-08
6.64372e-08
6.64358e-08
6.64371e-08
6.64361e-08
6.64367e-08
6.64361e-08
6.64365e-08
6.64364e-08
6.64364e-08
6.64366e-08
6.64362e-08
6.64365e-08
6.64363e-08
6.64365e-08
6.64364e-08
6.64366e-08
6.64362e-08
6.64366e-08
6.64361e-08
6.64366e-08
6.64361e-08
6.64367e-08
6.64361e-08