/*--------------------------------*- C++ -*----------------------------------*\
| =========                 |                                                 |
| \\      /  F ield         | OpenFOAM: The Open Source CFD Toolbox           |
|  \\    /   O peration     | Version:  3.0.1                                 |
|   \\  /    A nd           | Web:      www.OpenFOAM.org                      |
|    \\/     M anipulation  |                                                 |
\*---------------------------------------------------------------------------*/
FoamFile
{
    version     2.0;
    format      ascii;
    class       volVectorField;
    location    "0.06";
    object      U;
}
// * * * * * * * * * * * * * * * * * * * * * * * * * * * * * * * * * * * * * //

dimensions      [0 1 -1 0 0 0 0];

internalField   nonuniform List<vector> 
50
(
(89.6228 -0.00155562 0)
(93.2132 -0.00155552 0)
(96.105 -0.00155645 0)
(98.9132 -0.0015544 -9.91967e-15)
(102.122 -0.0015499 -1.0174e-14)
(105.511 -0.00156295 -1.05105e-14)
(109.12 -0.00156736 0)
(113.007 -0.00152313 0)
(117.192 -0.0015589 -1.15591e-14)
(121.711 -0.00162532 -1.19575e-14)
(126.612 -0.00146593 0)
(131.946 -0.00154457 -1.28398e-14)
(137.777 -0.00172775 0)
(144.185 -0.00130059 0)
(151.265 -0.0016652 -1.4425e-14)
(159.14 -0.00180559 0)
(167.968 -0.00101863 -1.57024e-14)
(177.956 -0.00200494 0)
(189.387 -0.00152671 0)
(202.662 -0.00263193 0)
(218.386 0.00528691 0)
(237.551 0.00990333 0)
(261.994 -0.136912 0)
(295.775 0.0422913 0)
(350.5 1.63016 0)
(451.285 -4.19504 0)
(522.327 -4.10896 0)
(562.798 6.76344 0)
(588.315 3.93856 0)
(609.167 1.92454 0)
(626.516 -0.154787 0)
(641.852 -4.70103 0)
(654.033 -3.08171 0)
(665.565 -2.33463 9.29588e-15)
(676.097 -0.548903 0)
(684.806 2.79141 7.91544e-15)
(697.326 2.3914 0)
(696.383 1.52273 0)
(432.469 10.7277 9.92215e-15)
(238.085 -20.2509 0)
(214.469 -2.77053 1.21734e-14)
(206.028 8.74596 1.13431e-14)
(196.729 9.36317 0)
(189.596 3.65551 0)
(182.97 -3.49645 1.02018e-14)
(175.686 -5.56415 0)
(169.973 -2.21732 9.57171e-15)
(164.061 2.0066 0)
(158.154 1.31793 0)
(149.209 0.697187 0)
)
;

boundaryField
{
    inlet
    {
        type            zeroGradient;
    }
    outlet
    {
        type            zeroGradient;
    }
    upperWall
    {
        type            slip;
    }
    lowerWall
    {
        type            slip;
    }
    frontAndBack
    {
        type            empty;
    }
}


// ************************************************************************* //
