/*--------------------------------*- C++ -*----------------------------------*\
| =========                 |                                                 |
| \\      /  F ield         | OpenFOAM: The Open Source CFD Toolbox           |
|  \\    /   O peration     | Version:  3.0.1                                 |
|   \\  /    A nd           | Web:      www.OpenFOAM.org                      |
|    \\/     M anipulation  |                                                 |
\*---------------------------------------------------------------------------*/
FoamFile
{
    version     2.0;
    format      ascii;
    class       volVectorField;
    location    "0.09";
    object      U;
}
// * * * * * * * * * * * * * * * * * * * * * * * * * * * * * * * * * * * * * //

dimensions      [0 1 -1 0 0 0 0];

internalField   nonuniform List<vector> 
50
(
(89.6238 -0.00155535 0)
(93.2142 -0.00155515 0)
(96.1059 -0.00155646 0)
(98.914 -0.00155559 -9.91964e-15)
(102.123 -0.00154901 -1.01739e-14)
(105.512 -0.00155735 -1.05105e-14)
(109.121 -0.00157358 0)
(113.008 -0.00153108 0)
(117.193 -0.00153305 -1.15591e-14)
(121.712 -0.00163389 -1.19575e-14)
(126.612 -0.00150657 0)
(131.946 -0.00147465 -1.28398e-14)
(137.778 -0.00175645 0)
(144.185 -0.00138016 0)
(151.265 -0.00148333 -1.4425e-14)
(159.141 -0.00195058 0)
(167.969 -0.00107312 -1.57024e-14)
(177.957 -0.00182174 0)
(189.388 -0.00123941 0)
(202.663 -0.00246077 0)
(218.386 -0.00734495 0)
(237.55 0.0298664 0)
(261.995 0.0387837 0)
(295.79 -0.486543 0)
(350.427 0.289621 0)
(451.248 5.09122 0)
(522.941 -6.88443 0)
(561.996 -5.03253 0)
(588.587 1.99944 0)
(609.183 2.3253 0)
(626.833 4.85679 0)
(641.285 3.13415 0)
(654.23 -0.875731 0)
(665.606 -1.37943 9.31457e-15)
(676.457 -3.98661 0)
(684.486 -2.80475 7.91199e-15)
(697.257 -0.329323 0)
(696.514 0.620996 0)
(434.498 13.9659 9.89989e-15)
(244.541 -13.1217 0)
(211.314 -10.0426 1.20282e-14)
(204.565 3.08474 1.12098e-14)
(194.825 8.89578 0)
(187.091 7.16285 0)
(182.1 0.885556 1.01161e-14)
(176.434 -4.40498 0)
(170.348 -3.87056 9.56014e-15)
(164.631 -0.00452812 0)
(158.887 1.18583 0)
(151.19 0.983237 0)
)
;

boundaryField
{
    inlet
    {
        type            zeroGradient;
    }
    outlet
    {
        type            zeroGradient;
    }
    upperWall
    {
        type            slip;
    }
    lowerWall
    {
        type            slip;
    }
    frontAndBack
    {
        type            empty;
    }
}


// ************************************************************************* //
