# vtk DataFile Version 2.0
gauge_2
ASCII
DATASET POLYDATA
POINTS 43 double
0.2 0.0359992 0.005
0.2 0.0419991 0.005
0.2 0.047999 0.005
0.2 0.0607609 0.005
0.2 0.0735228 0.005
0.2 0.0862847 0.005
0.2 0.0990467 0.005
0.2 0.111809 0.005
0.2 0.124571 0.005
0.2 0.137332 0.005
0.2 0.150094 0.005
0.2 0.162856 0.005
0.2 0.175618 0.005
0.2 0.18838 0.005
0.2 0.201142 0.005
0.2 0.213904 0.005
0.2 0.226666 0.005
0.2 0.239428 0.005
0.2 0.25219 0.005
0.2 0.264952 0.005
0.2 0.277714 0.005
0.2 0.290476 0.005
0.2 0.303238 0.005
0.2 0.315999 0.005
0.2 0.328761 0.005
0.2 0.341523 0.005
0.2 0.354285 0.005
0.2 0.367047 0.005
0.2 0.379809 0.005
0.2 0.392571 0.005
0.2 0.405333 0.005
0.2 0.418095 0.005
0.2 0.430857 0.005
0.2 0.443619 0.005
0.2 0.456381 0.005
0.2 0.469143 0.005
0.2 0.481905 0.005
0.2 0.494666 0.005
0.2 0.507428 0.005
0.2 0.52019 0.005
0.2 0.532952 0.005
0.2 0.545714 0.005
0.2 0.558476 0.005
POINT_DATA 43
 FIELD attributes 1
alpha.water 1 43 float
1 1 0.999998 0.988399 0.767326 0.358268 0.244137 0.3303 0.329347 0.223645 0.061783 0.00198451 6.58724e-06 2.52665e-07 2.35699e-06 2.28541e-06 4.04156e-08 3.86242e-08 1.04339e-10 7.51018e-11 6.2849e-11 5.14884e-11 3.72943e-11 2.08663e-11 8.072e-12 1.87373e-12 2.37177e-13 1.55948e-14 8.29405e-16 5.52913e-17 3.90489e-18 2.61194e-19 1.61421e-20 9.22801e-22 4.9408e-23 2.49457e-24 1.1903e-25 5.37706e-27 2.30671e-28 9.45099e-30 3.7392e-31 1.45686e-32 5.62979e-34
