/*--------------------------------*- C++ -*----------------------------------*\
| =========                 |                                                 |
| \\      /  F ield         | OpenFOAM: The Open Source CFD Toolbox           |
|  \\    /   O peration     | Version:  2012                                  |
|   \\  /    A nd           | Website:  www.openfoam.com                      |
|    \\/     M anipulation  |                                                 |
\*---------------------------------------------------------------------------*/
FoamFile
{
    version     2.0;
    format      ascii;
    class       volScalarField;
    location    "0.74";
    object      maxKappa;
}
// * * * * * * * * * * * * * * * * * * * * * * * * * * * * * * * * * * * * * //

dimensions      [0 0 0 0 0 0 0];


internalField   nonuniform List<scalar> 
2268
(
9.31358e-07
1.75634e-06
2.65377e-06
3.64362e-06
4.61281e-06
5.44844e-06
6.25036e-06
7.07473e-06
7.74202e-06
8.32452e-06
8.78404e-06
9.08787e-06
9.18098e-06
9.18098e-06
9.13442e-06
8.93781e-06
8.63929e-06
8.07414e-06
7.2304e-06
6.05615e-06
4.39446e-06
2.93929e-06
1.91787e-06
1.16919e-06
1.89249e-06
2.7592e-06
3.71483e-06
4.65232e-06
5.47961e-06
6.28911e-06
7.1079e-06
7.76021e-06
8.34524e-06
8.80857e-06
9.11279e-06
9.22057e-06
9.22057e-06
9.18861e-06
8.99786e-06
8.69836e-06
8.14762e-06
7.33562e-06
6.23957e-06
4.69472e-06
3.39508e-06
1.83305e-06
1.40319e-06
2.02079e-06
2.84518e-06
3.7679e-06
4.69503e-06
5.55753e-06
6.41151e-06
7.23392e-06
7.88296e-06
8.45682e-06
8.88351e-06
9.16096e-06
9.25577e-06
9.25577e-06
9.23296e-06
9.04862e-06
8.76091e-06
8.22197e-06
7.42842e-06
6.40435e-06
4.91609e-06
3.88852e-06
2.77971e-06
1.80402e-06
2.32715e-06
3.12222e-06
3.98657e-06
4.8362e-06
5.66461e-06
6.50856e-06
7.30385e-06
7.94439e-06
8.52269e-06
8.96822e-06
9.29208e-06
9.42496e-06
9.42496e-06
9.41692e-06
9.23246e-06
8.97113e-06
8.5071e-06
7.79491e-06
6.89327e-06
5.46091e-06
4.5062e-06
3.01787e-06
2.0883e-06
2.52592e-06
3.27415e-06
4.09775e-06
4.93055e-06
5.82055e-06
6.74088e-06
7.54554e-06
8.18206e-06
8.733e-06
9.11607e-06
9.39437e-06
9.49288e-06
9.49288e-06
9.48466e-06
9.3164e-06
9.10609e-06
8.70531e-06
8.08351e-06
7.33018e-06
6.10199e-06
5.67993e-06
4.72035e-06
2.52807e-06
2.94694e-06
3.68697e-06
4.45774e-06
5.19681e-06
6.02139e-06
6.88678e-06
7.63282e-06
8.27012e-06
8.85701e-06
9.29758e-06
9.64279e-06
9.77289e-06
9.77289e-06
9.76615e-06
9.60161e-06
9.4595e-06
9.17434e-06
8.70083e-06
8.10387e-06
7.04311e-06
6.8828e-06
5.43401e-06
2.84456e-06
3.20367e-06
3.86507e-06
4.57117e-06
5.30374e-06
6.23551e-06
7.22011e-06
8.00149e-06
8.62396e-06
9.15045e-06
9.49848e-06
9.77455e-06
9.85559e-06
9.85559e-06
9.84738e-06
9.72559e-06
9.67957e-06
9.48973e-06
9.16482e-06
8.76327e-06
8.71193e-06
8.71193e-06
7.36469e-06
4.58748e-06
4.77553e-06
5.16031e-06
5.53451e-06
5.73267e-06
6.57575e-06
7.49083e-06
8.21574e-06
8.83287e-06
9.36327e-06
9.78769e-06
1.01507e-05
1.02197e-05
1.02197e-05
1.01612e-05
1.01212e-05
1.01212e-05
1.0058e-05
9.96092e-06
9.84838e-06
1.09796e-05
1.09796e-05
8.01462e-06
0.000179646
0.000213483
0.000243399
0.000248072
0.000248072
0.000226426
0.000195032
0.000252899
0.000504312
0.000504312
0.000440185
0.000420566
0.00042626
0.000438849
0.00046003
0.000489333
0.000489333
0.000453936
0.000304961
0.000182116
0.000182116
0.000203061
0.000203738
0.000203738
0.000178415
0.000192804
0.000268948
0.000444685
0.000444685
0.000437962
0.000431692
0.000505276
0.000753784
0.000976914
0.00108532
0.00108532
0.000804669
0.000349313
0.000205338
0.00020462
0.000329861
0.000495575
0.000495575
0.000222184
0.000170317
0.000495373
0.000763697
0.0010155
0.00125235
0.00140736
0.00150515
0.00168453
0.00179207
0.00179207
0.00178054
0.00114524
0.00039777
0.000313461
0.000346024
0.00101794
0.00106835
0.00106835
0.000369555
3.65011e-05
0.000268088
0.000540347
0.000540347
0.000502557
0.000601592
0.00098399
0.00128311
0.00128996
0.00128996
0.00123311
0.00091733
0.000500793
0.000336333
0.000495843
0.000981428
0.000981428
0.000919658
0.000330077
4.7513e-05
4.17376e-05
0.000167021
0.000467335
0.000900906
0.00125457
0.00143542
0.00143542
0.00115554
0.00109919
0.00109919
0.000447504
0.000422871
0.000359258
0.000549205
0.000549205
0.000435562
0.00041533
0.000251277
4.41195e-05
3.57133e-05
4.35593e-05
5.92971e-05
0.000126888
0.000303421
0.0005663
0.000920226
0.00125287
0.00125287
0.00113639
0.00039656
0.000352156
0.00039557
0.000651068
0.000651068
0.000571467
0.000456773
0.00014314
4.89388e-05
7.48492e-05
4.63974e-05
4.72531e-05
5.21549e-05
5.61074e-05
6.30611e-05
0.000100324
0.000371597
0.00061269
0.00061269
0.000245415
8.47557e-05
0.000484986
0.00100105
0.00100105
0.000957099
0.000544126
0.000116044
0.00030419
0.000407746
0.000407746
0.000298005
0.000180168
0.000120025
7.20122e-05
7.29683e-05
6.85156e-05
6.8536e-05
6.8536e-05
5.52315e-05
5.2356e-05
6.85806e-05
7.44689e-05
8.13123e-05
8.77252e-05
8.51394e-05
7.51895e-05
5.7952e-05
2.5455e-05
2.01886e-05
1.70986e-05
1.47794e-05
1.25133e-05
1.09034e-05
1.03039e-05
1.03911e-05
1.04857e-05
1.15998e-05
1.13615e-05
1.2573e-05
1.26694e-05
1.62286e-05
3.74655e-05
0.000174705
0.000110584
0.000130134
0.000157018
0.000190593
0.000211392
0.000224647
0.000232742
0.000225726
0.000190028
0.000143398
0.000105989
6.61381e-05
3.71838e-05
2.33828e-05
1.90233e-05
1.59052e-05
1.54141e-05
1.3717e-05
1.46139e-05
1.61691e-05
2.88851e-05
0.00018004
0.000444583
0.000141406
0.000164962
0.000197372
0.000220639
0.000250173
0.000285252
0.000322816
0.000384525
0.000413272
0.000403052
0.000378363
0.000345809
0.000320693
0.000282298
0.000261739
0.000238012
0.000219096
0.000111932
6.21983e-05
2.83283e-05
2.63107e-05
0.000154193
0.000449717
0.000194585
0.000211572
0.000236078
0.000249573
0.000278704
0.000336167
0.000391077
0.000453027
0.000495501
0.000547864
0.00063647
0.000787159
0.00110821
0.00132823
0.0014201
0.00142388
0.00130633
0.000992082
0.000628391
0.000292283
0.000109038
4.93685e-05
0.000283149
0.000248208
0.000260533
0.000280621
0.000301822
0.000352169
0.000416074
0.000478265
0.000546404
0.0006422
0.000783787
0.00104987
0.00143892
0.00190683
0.0021908
0.00234805
0.00226714
0.0021687
0.00178545
0.001299
0.000763959
0.00034469
0.000153225
0.000114496
0.000299353
0.000309854
0.000330175
0.000358777
0.000417569
0.000485282
0.000565635
0.000672709
0.000835357
0.00111829
0.00154248
0.00199282
0.0022983
0.00248252
0.00248252
0.00241403
0.00226278
0.00198014
0.00143773
0.000946641
0.000886246
0.00100598
0.00113431
0.000349075
0.000359065
0.0003797
0.000413337
0.000473638
0.000545762
0.000639395
0.000777497
0.000985877
0.00128689
0.00158381
0.00178075
0.00204801
0.00217015
0.00229387
0.00221082
0.00212087
0.00129091
0.00103619
0.00137917
0.00199274
0.00202701
0.00232758
0.00039449
0.000404262
0.000424432
0.000456862
0.000513861
0.000584408
0.000678804
0.000808713
0.000988134
0.00121798
0.00144018
0.00163039
0.00172974
0.00171074
0.00174741
0.00194718
0.00202529
0.00181052
0.00109461
0.00158983
0.00199274
0.00214856
0.00232758
0.00043519
0.000444072
0.000462411
0.00049545
0.000546684
0.000611047
0.000695153
0.000807169
0.00096229
0.00114339
0.00129267
0.00144414
0.00144239
0.00127346
0.00120987
0.00155072
0.00198923
0.00189205
0.00178853
0.0014788
0.00147286
0.00175346
0.00191687
0.0004696
0.000477252
0.000493124
0.000521707
0.000565306
0.000619279
0.000688323
0.000774585
0.000885256
0.00101467
0.00115935
0.00126444
0.00124559
0.00108067
0.000769941
0.000803044
0.00124359
0.00149105
0.00153287
0.0015074
0.00129971
0.000774513
0.00071157
0.000497426
0.000503963
0.000517891
0.000544208
0.000580575
0.000625086
0.000679631
0.000745148
0.000822608
0.000909958
0.00101792
0.00110233
0.00111536
0.000990754
0.000842356
0.000611987
0.000501506
0.000741392
0.00111799
0.00137664
0.00135392
0.00135392
0.00107075
0.000519763
0.000525147
0.000536519
0.000557532
0.000586407
0.00062142
0.000663719
0.00071248
0.000767978
0.000833899
0.000904936
0.000962654
0.000982506
0.000923229
0.000831795
0.000692921
0.000522357
0.000402541
0.000538551
0.000782051
0.00104619
0.00126209
0.00120037
0.000536896
0.000541248
0.000550411
0.000567196
0.0005893
0.000615363
0.000645726
0.000679161
0.000719089
0.000768012
0.000811429
0.000848132
0.000861827
0.000841914
0.000759559
0.000691229
0.000603843
0.000521176
0.00049552
0.00052237
0.000618362
0.000763002
0.000949141
0.000550068
0.000553195
0.000559902
0.00057244
0.000588856
0.000607821
0.000629674
0.000654149
0.000681813
0.000713308
0.000736984
0.000754627
0.000754959
0.000744532
0.000702206
0.000645166
0.000597576
0.000554718
0.000546651
0.000578905
0.000609192
0.000609192
0.000551424
0.000559879
0.000561959
0.000566646
0.000574106
0.000585102
0.000597068
0.000612227
0.000631685
0.000647859
0.000666972
0.000677694
0.000685526
0.000677447
0.000664017
0.000633039
0.000602175
0.000560936
0.000536893
0.00053139
0.000554198
0.000589862
0.000599882
0.000560579
0.00056743
0.000568587
0.000571432
0.000575994
0.000583076
0.000591259
0.000599945
0.000611528
0.000618442
0.000627146
0.000627935
0.00062767
0.000614865
0.000601627
0.000573888
0.000552212
0.000528754
0.000516826
0.000513311
0.000528442
0.000561361
0.00058234
0.000577879
0.000573525
0.00057386
0.000575107
0.000576644
0.000579107
0.000584895
0.000587792
0.000593237
0.000593022
0.000594424
0.000587777
0.000581572
0.000564156
0.000549339
0.000523584
0.000504578
0.000483715
0.000478252
0.000477289
0.000489788
0.000509253
0.000544112
0.00055258
0.000579015
0.000578683
0.000578713
0.000578427
0.000577245
0.000579034
0.000576987
0.000577439
0.000571397
0.000566773
0.000554154
0.000542592
0.000521188
0.000503558
0.00047761
0.000459159
0.000438809
0.000431087
0.000429154
0.00044099
0.000453403
0.000478664
0.000504851
0.000584567
0.000583647
0.000582692
0.000580596
0.000576609
0.000575094
0.000568825
0.000564915
0.000553398
0.000543853
0.000525961
0.000509619
0.000484586
0.000463126
0.000435416
0.000414704
0.000393488
0.000383862
0.000379039
0.000391322
0.000405431
0.000428873
0.000460004
0.000591151
0.000589701
0.000587876
0.00058428
0.000578257
0.000572242
0.000564195
0.000554991
0.000541685
0.000526115
0.0005066
0.000482929
0.000456025
0.00042767
0.000396716
0.000371491
0.000347035
0.00033444
0.000326618
0.000337404
0.000355698
0.000382329
0.000418271
0.000599164
0.000597273
0.000594682
0.000589839
0.000582312
0.000573851
0.000563405
0.000550584
0.000533527
0.000513065
0.000488661
0.000460732
0.000429242
0.000396608
0.000361471
0.00033062
0.000300681
0.000283646
0.000273055
0.000283125
0.000306415
0.00034301
0.000384174
0.000609366
0.000607212
0.000603903
0.00059816
0.000589487
0.000579346
0.000566489
0.000552069
0.000533438
0.000511446
0.000485406
0.000455001
0.000420578
0.000381755
0.000340137
0.000296734
0.000255395
0.000230608
0.000215822
0.000225539
0.000255398
0.000308147
0.000355364
0.000622319
0.000620089
0.000616068
0.000609686
0.000600216
0.000588767
0.000572761
0.000556093
0.000534783
0.000509471
0.000479497
0.000444976
0.000406263
0.000363733
0.000317997
0.000268805
0.000218069
0.000176433
0.000152766
0.000162944
0.000207281
0.000278089
0.000329062
0.00063887
0.000636739
0.000632129
0.000625413
0.000615471
0.000603191
0.000586408
0.000567775
0.000545406
0.000520117
0.000490186
0.000455759
0.000416089
0.000371114
0.000320396
0.000264547
0.000205043
0.000141743
8.44585e-05
9.40342e-05
0.000168069
0.000251563
0.000306736
0.000659573
0.00065764
0.000652678
0.000645984
0.000636017
0.000623613
0.000607226
0.000588487
0.000563846
0.000537675
0.000503619
0.00046929
0.000426227
0.000383683
0.00033201
0.000282361
0.000224894
0.000174867
0.000130171
0.000126692
0.000167101
0.000249846
0.000312882
0.000685238
0.000683546
0.000678584
0.000672236
0.000662661
0.000650793
0.000635499
0.000617728
0.000595152
0.000570821
0.000540161
0.000509099
0.000470709
0.000433529
0.000389443
0.000349679
0.000304167
0.000271449
0.000245086
0.000249987
0.000271305
0.000323201
0.000378829
0.000716014
0.000714598
0.000710071
0.000704485
0.000695897
0.000685346
0.000671849
0.000656019
0.000636416
0.000615029
0.000588796
0.000562151
0.00053035
0.000499913
0.000464966
0.00043476
0.000404213
0.000389669
0.000384627
0.000396692
0.000411618
0.000448824
0.000489349
0.000752527
0.000751383
0.000747549
0.000742905
0.000735644
0.000726869
0.000715655
0.000702542
0.000686612
0.000669142
0.000648272
0.000627136
0.000602836
0.000579944
0.000555485
0.000538033
0.00052851
0.000533702
0.000534524
0.000542136
0.000553335
0.00058196
0.000617146
0.000794408
0.000793661
0.000790855
0.000787471
0.000781937
0.000775273
0.000766579
0.000756401
0.000744114
0.000730613
0.000714921
0.000699303
0.000682298
0.00066823
0.000658959
0.000663297
0.000675066
0.000677326
0.000662788
0.000663056
0.000673188
0.000698207
0.000734842
0.000842057
0.00084168
0.000839875
0.000837756
0.000834036
0.000829593
0.000823594
0.00081658
0.000808082
0.000798917
0.000788943
0.000780502
0.000774571
0.000774898
0.000785067
0.00080304
0.000798259
0.000770319
0.000753997
0.000751484
0.000764632
0.000791461
0.000836037
0.000895274
0.000895341
0.000894587
0.000893782
0.000891849
0.000889492
0.000885974
0.000881859
0.000876986
0.000872349
0.00086888
0.000869465
0.000876852
0.000895311
0.000919501
0.000911268
0.000863618
0.000831299
0.000817283
0.000813325
0.000829887
0.000865653
0.000922723
0.000952987
0.000953709
0.000954203
0.000954863
0.000954888
0.000954809
0.000954045
0.000953242
0.000952617
0.000953734
0.000958519
0.000971086
0.000992892
0.00102093
0.00101672
0.000958132
0.000907211
0.000873929
0.000851305
0.000851739
0.000875633
0.000926266
0.000997365
0.00101776
0.00101854
0.00101962
0.00102143
0.001023
0.00102488
0.00102672
0.00102936
0.00103353
0.00104155
0.00105669
0.0010814
0.00111274
0.00111669
0.00106079
0.00100097
0.000937261
0.000897997
0.000867617
0.000874518
0.000919212
0.000988199
0.00106258
0.00108434
0.00108564
0.00108793
0.0010916
0.00109527
0.00109939
0.00110406
0.00111038
0.00112001
0.00113621
0.00116229
0.00119576
0.00121475
0.00115591
0.00109073
0.00100369
0.000944825
0.000898229
0.00086822
0.000899771
0.000959979
0.00104218
0.00111765
0.00115885
0.00116082
0.00116393
0.00116811
0.00117281
0.00117899
0.00118632
0.0011965
0.00121201
0.00123689
0.00126971
0.0012982
0.00126656
0.00120376
0.00110126
0.00101188
0.000940562
0.000883413
0.000870228
0.000916033
0.000990813
0.00108594
0.00116544
0.00123278
0.0012354
0.0012396
0.00124519
0.0012524
0.00126198
0.00127348
0.00128877
0.00131174
0.00134382
0.001377
0.00137613
0.00130123
0.00119616
0.00107476
0.000982232
0.000905925
0.000858086
0.000870737
0.000932011
0.00102054
0.0011276
0.0012058
0.00131479
0.00131825
0.00132398
0.00133173
0.00134115
0.00135245
0.00136635
0.001386
0.00141443
0.00144621
0.00146536
0.00141387
0.0013331
0.00119021
0.00106145
0.000955322
0.000871778
0.000833179
0.000862784
0.000937732
0.00103857
0.00115657
0.00124373
0.00139363
0.00139762
0.00140445
0.00141389
0.00142538
0.00143958
0.00145797
0.00148334
0.00151555
0.00154295
0.00153384
0.00144586
0.00130762
0.00114211
0.00100798
0.000900222
0.000827378
0.000813093
0.000869069
0.000957548
0.00106886
0.00119446
0.00127618
0.00148221
0.00148716
0.0014959
0.00150812
0.0015229
0.00154063
0.00156159
0.0015878
0.00161718
0.00162988
0.00157439
0.00148251
0.00130255
0.0011246
0.000979338
0.000863454
0.000789673
0.00079364
0.000861082
0.000960583
0.00108123
0.00121461
0.00131101
0.00156337
0.00156882
0.00157856
0.0015925
0.00160927
0.00162977
0.00165344
0.00168402
0.0017125
0.00170654
0.00161392
0.00145538
0.00123909
0.00105361
0.000907859
0.000806183
0.000758679
0.00080033
0.000882578
0.000992407
0.00112043
0.0012591
0.00134069
0.00165899
0.00166568
0.00167785
0.00169519
0.00171613
0.00174151
0.00177042
0.00180162
0.0018155
0.00176513
0.00166798
0.00146866
0.00123387
0.00103831
0.000882137
0.00077434
0.000733297
0.000784725
0.000874936
0.00099183
0.00112551
0.00126945
0.00137646
0.00173925
0.00175
0.00176682
0.0017882
0.00181306
0.00184037
0.00186582
0.00187384
0.00187384
0.00182483
0.00166464
0.00140586
0.00115085
0.000954131
0.000811548
0.000727814
0.000733186
0.000806412
0.000910482
0.00103714
0.0011776
0.00132628
0.00137646
0.000110318
0.000162733
0.000199318
0.0003395
0.000425176
0.000274717
0.000299029
0.000467303
0.000675217
0.000587171
0.000447821
0.000694469
0.000675217
0.000587171
0.000447821
0.000694469
0.000188727
0.000334616
0.000386753
0.00023204
0.00120694
0.00115947
0.00109803
0.00103625
0.00230907
0.00230662
0.00208788
0.00192129
0.00230907
0.00230662
0.00208788
0.00192129
0.00184646
0.00208067
0.00181813
0.00185177
0.000701063
0.00130217
0.00140002
0.00158648
0.000640432
0.000662926
0.000668169
0.000694717
0.00103098
0.00109907
0.00107856
0.000989736
0.00103098
0.00109907
0.00107856
0.000989736
0.000601946
0.000588114
0.000563732
0.000516702
0.000539908
0.000541797
0.00052545
0.000518209
0.000540321
0.000541797
0.00052545
0.000518209
0.000540321
0.000539214
0.000527728
0.000534983
0.000514071
0.000525681
0.000527728
0.000534983
0.000480503
0.000495057
0.000507212
0.000520125
0.000449451
0.000470175
0.000490754
0.000511006
0.000421282
0.000446504
0.000472848
0.000498902
0.000400042
0.000430322
0.000462172
0.00049403
0.000381425
0.000416242
0.000452628
0.000489095
0.000366102
0.000405037
0.000445375
0.000485967
0.0003673
0.000404941
0.000445348
0.000486283
0.000419802
0.000451035
0.000486434
0.000520927
0.000520376
0.000546501
0.000575959
0.000604043
0.000645113
0.000669512
0.000695403
0.000723007
0.000765287
0.000791721
0.000819455
0.000851218
0.000874776
0.000906054
0.000939076
0.000974826
0.000972722
0.00100917
0.00104798
0.00108739
0.00105867
0.00110059
0.00114492
0.00118836
0.00113382
0.00118099
0.00122982
0.00127697
0.00119757
0.00124941
0.00130199
0.00135265
0.00125261
0.00130852
0.00136427
0.00141837
0.00129848
0.00135846
0.00141699
0.00147474
0.00134039
0.00140367
0.00146452
0.00152527
0.00137658
0.00144215
0.00150511
0.00156804
0.00141461
0.00148195
0.0015466
0.00161112
0.00144664
0.00151553
0.0015815
0.00164726
0.00148474
0.0015553
0.00162271
0.00168982
0.00148474
0.0015553
0.00162271
0.00168982
0.000652536
0.000719533
0.000719533
0.00055875
0.000307113
0.000479144
0.000700007
0.000760295
0.000760295
0.000789961
0.0008373
0.000878829
0.000880144
0.000880144
0.000782018
0.00056304
0.000289501
6.15449e-05
0.000153079
0.000958595
0.000812117
0.000466654
0.000261159
0.000361141
0.000823911
0.00117071
0.00119202
0.00127154
0.00146133
0.00195841
0.00206639
0.00217667
0.00200834
0.00129149
0.000529133
0.000209277
0.000177096
0.000474479
0.000958595
0.000630091
0.00020777
0.000348215
0.000758584
0.00194059
0.00272466
0.0028805
0.00315759
0.00338581
0.00412911
0.00429394
0.00429394
0.0038573
0.00281467
0.00152091
0.000441999
0.000518619
0.000990889
0.000498443
0.000143966
0.000223015
0.000814906
0.00224365
0.0038344
0.00421671
0.00426058
0.00430101
0.00442205
0.00442205
0.00430129
0.00359461
0.00271344
0.00251307
0.00218354
0.00108781
0.000829396
0.00117416
0.00011514
0.000341363
0.000991626
0.002625
0.00442189
0.0045766
0.0045766
0.00386757
0.0031325
0.00291272
0.00289497
0.00253386
0.0020229
0.00164282
0.00150921
0.00140273
0.000903197
0.000895018
0.00117416
0.000970681
0.00118882
0.0026051
0.00392266
0.00392266
0.00386339
0.00267576
0.00199054
0.00164399
0.00105491
0.000884329
0.00115004
0.00113234
0.000584646
0.000169703
0.000707121
0.000753451
0.000753451
0.000872356
0.00206602
0.00286674
0.00353845
0.00354886
0.00354886
0.00239779
0.001144
0.000857125
0.00086763
0.000718369
0.00048356
0.000953375
0.000535203
0.000112214
7.9541e-05
0.000130742
0.000685525
0.00067975
0.000496609
0.00248917
0.00267094
0.00283932
0.00289359
0.0024695
0.00110177
0.000727374
0.000487951
0.00045619
0.000643862
0.00054543
0.000585183
0.000162635
0.00024838
0.000125859
8.18987e-05
0.000113253
0.000388199
0.000163409
0.00211258
0.00217538
0.00220361
0.00211352
0.00123372
0.000677334
0.000611627
0.000280426
0.000305184
0.000521173
0.00047149
0.000476291
0.000816791
0.00105939
0.000704981
0.000193397
8.4774e-05
8.04245e-05
6.23571e-05
0.00169142
0.00172085
0.00136861
0.00108154
0.000627937
0.000400068
0.000303981
0.000227368
0.000327394
0.00034938
0.000508223
0.000887118
0.00118166
0.00140419
0.00140419
0.00106758
0.000268974
0.000115699
0.000106772
0.000886353
0.00116366
0.000934979
0.000788541
0.000520617
0.000231341
0.000252381
0.000546277
0.000874508
0.00100249
0.000984236
0.00106806
0.0010077
0.00133965
0.00163908
0.00164896
0.00135638
0.000723463
0.000644463
0.000730361
0.000470724
0.000418502
0.000342295
0.000281244
0.000340598
0.000479003
0.000697957
0.00134008
0.00145046
0.00147557
0.00160223
0.00158103
0.00149561
0.00185424
0.00193015
0.00204303
0.00176266
0.00166953
0.00104743
0.00104743
0.00103998
0.000883821
0.000696416
0.000513641
0.000967407
0.0013677
0.0016021
0.00181903
0.00188304
0.00188304
0.00186711
0.00157701
0.00212234
0.00246249
0.00246249
0.00239198
0.0022251
0.000616219
0.000591075
0.00050266
0.000446055
0.000452897
0.000608931
0.00109315
0.0011272
0.00117607
0.00145308
0.00164146
0.00164146
0.0015073
0.00131069
0.0017533
0.00230051
0.00239709
0.00239709
0.00187093
0.00045139
0.00045139
0.000283494
0.000271428
0.000534344
0.00064728
0.000762845
0.000961777
0.000830388
0.000768961
0.00112898
0.00129984
0.00134541
0.00142652
0.00178859
0.00232166
0.0025658
0.0025658
0.00196243
0.000471145
0.000406274
0.000341555
0.000378802
0.000356466
0.000436015
0.000540529
0.000674501
0.000557606
0.000520798
0.000808689
0.00101993
0.00111285
0.00124559
0.00151682
0.0019346
0.00242068
0.0026504
0.00212294
0.000566116
0.000566116
0.000524445
0.000567808
0.000642424
0.000599364
0.000549707
0.000543896
0.000595563
0.000654405
0.000916659
0.00113514
0.00127093
0.00137257
0.00150275
0.00177926
0.00233542
0.00282286
0.00282286
0.000589396
0.000620784
0.000674594
0.000775136
0.000850165
0.000932621
0.0009678
0.000967124
0.00105576
0.00114839
0.00130472
0.00139583
0.0014047
0.00141412
0.00144449
0.00155239
0.00209909
0.00267874
0.00267874
0.000638312
0.000703127
0.000795854
0.000935845
0.0011114
0.00126202
0.00134485
0.00143238
0.00153054
0.00158587
0.00158587
0.00158207
0.00155224
0.00149071
0.00143263
0.00139248
0.00182583
0.00250476
0.00250476
0.000630372
0.000711996
0.000815882
0.000949659
0.00111773
0.0013235
0.00150306
0.00163693
0.00172536
0.00174636
0.00174636
0.00169661
0.00160708
0.00149366
0.00138456
0.00129481
0.00161389
0.00225928
0.00242869
0.00065329
0.00074851
0.000859782
0.000991889
0.00114298
0.00130854
0.00147772
0.00161541
0.00169118
0.00170071
0.00170071
0.00163752
0.00153858
0.00140696
0.00127431
0.00116012
0.00147139
0.00212604
0.00227439
0.000653799
0.000758558
0.00087627
0.00100504
0.00114404
0.00129056
0.00142684
0.00153823
0.00160269
0.00160402
0.00160402
0.00154056
0.0014417
0.00130838
0.00116595
0.00103127
0.00123568
0.00193348
0.00214015
0.000671372
0.000787927
0.000913627
0.00104425
0.00117975
0.00131172
0.00142664
0.0015122
0.00154896
0.00154896
0.00153375
0.00146771
0.00137324
0.0012377
0.00108466
0.000908279
0.00100872
0.00189214
0.00207213
0.000672934
0.000799885
0.00093339
0.00106821
0.00120713
0.0013357
0.00144199
0.00151671
0.00154117
0.00154117
0.00151538
0.00144187
0.00133779
0.00118706
0.00102611
0.000820704
0.000816847
0.00165985
0.00207213
0.000675017
0.000807345
0.000943335
0.00108515
0.00122328
0.00134868
0.00145778
0.00153104
0.00155993
0.00155993
0.00153378
0.00145259
0.00134381
0.0011829
0.00101933
0.000802187
0.000648228
0.00141595
0.00193693
0.000682603
0.000811911
0.000946155
0.00108673
0.00122422
0.00134754
0.00145801
0.0015374
0.001578
0.001578
0.00156772
0.0014914
0.00138394
0.00121915
0.00106296
0.000851107
0.00066972
0.00117987
0.00189229
0.000731281
0.000852303
0.000973729
0.00110078
0.00121715
0.00132376
0.00142569
0.00150877
0.00156806
0.0015857
0.0015857
0.0015331
0.00143836
0.00128166
0.00113795
0.000948836
0.000804893
0.00102074
0.00186045
0.000848936
0.00096233
0.00107364
0.00118048
0.0012593
0.00133103
0.00140042
0.00146755
0.00153075
0.00158044
0.00158044
0.00157692
0.00151557
0.00137732
0.00125387
0.00108609
0.00100782
0.00109974
0.00185332
0.000992011
0.00110129
0.00120909
0.00129504
0.00132854
0.00135489
0.00138104
0.00141634
0.00146242
0.00152413
0.00157906
0.00158136
0.00158136
0.00148664
0.00138882
0.00125785
0.0011793
0.00121714
0.00166797
0.00113862
0.00124854
0.00135635
0.00141546
0.00141546
0.00141091
0.00141019
0.0014079
0.00142315
0.00146585
0.00154825
0.00162337
0.00162337
0.00158593
0.00151628
0.00141041
0.00132311
0.00116538
0.00138484
0.00127536
0.00138607
0.00148537
0.00151289
0.00151289
0.00149205
0.00149145
0.00147365
0.00144589
0.00142126
0.00149818
0.00163668
0.00167633
0.00167633
0.00163943
0.00154912
0.00144303
0.00127306
0.000989834
0.00140067
0.00150993
0.00159638
0.00160847
0.00160847
0.00162714
0.00162714
0.00161669
0.00157433
0.00150078
0.00146651
0.0016234
0.00174388
0.00175962
0.00175962
0.00168896
0.00156981
0.00139224
0.00084702
0.00151005
0.00161553
0.00169238
0.00170852
0.00173373
0.00179108
0.0017972
0.0017972
0.0017481
0.00162979
0.00150079
0.00160514
0.0017963
0.0018743
0.0018743
0.00183084
0.00171494
0.00154218
0.000899104
0.00160604
0.00171112
0.00179049
0.00182355
0.00187975
0.00196775
0.00199897
0.00199897
0.00195299
0.0017964
0.00159873
0.00159234
0.00182744
0.00197662
0.00197662
0.00196872
0.00186698
0.00170696
0.00111518
0.00168912
0.0017982
0.00188484
0.00193454
0.00201625
0.00213389
0.00219451
0.00219451
0.00215605
0.00196349
0.00168629
0.00158819
0.0018697
0.00209159
0.00212828
0.00212828
0.00204233
0.00189123
0.00135009
0.00176632
0.00188075
0.00197509
0.00204105
0.00214617
0.00229369
0.00238738
0.00238738
0.00236306
0.00214749
0.00178925
0.00153954
0.00187625
0.00217305
0.00225903
0.00225903
0.00220074
0.00206468
0.00159009
0.00183083
0.0019521
0.0020553
0.0021386
0.00226417
0.00243862
0.00256152
0.00256152
0.00255113
0.00232202
0.00188732
0.00148766
0.00189034
0.00227815
0.00240509
0.00240509
0.0023602
0.0022297
0.00177536
0.00189523
0.0020227
0.00213395
0.00223197
0.00237259
0.00256845
0.00271395
0.00272446
0.00272446
0.00250708
0.00199675
0.00144512
0.00184507
0.00232242
0.00251645
0.00251645
0.00251367
0.00240694
0.00198256
0.00194196
0.00207603
0.00219487
0.00230602
0.00246032
0.00267302
0.00283873
0.00287778
0.00287778
0.00267689
0.00209059
0.00134388
0.00182953
0.00238791
0.00260702
0.00261905
0.00261905
0.002525
0.00211191
0.00200441
0.00214309
0.00226619
0.00238486
0.0025481
0.00276997
0.00295271
0.0030087
0.0030087
0.00281938
0.00217418
0.00120226
0.00174821
0.00237302
0.0026657
0.0027269
0.0027269
0.00266501
0.00228583
0.00203223
0.00217577
0.00230321
0.00242789
0.00259732
0.00282452
0.00302163
0.00308441
0.00308441
0.00291755
0.00223725
0.00106153
0.00172487
0.00238418
0.00269862
0.00277778
0.00277778
0.00272224
0.00234785
0.00210921
0.00225738
0.00238912
0.00251747
0.00268978
0.00291407
0.00311589
0.00317612
0.00317612
0.00302354
0.0023079
0.000992362
0.00163142
0.00224832
0.00265609
0.00283595
0.00287596
0.00287596
0.0025762
)
;

boundaryField
{
    leftWall
    {
        type            calculated;
        value           uniform 0;
    }
    rightWall
    {
        type            calculated;
        value           uniform 0;
    }
    lowerWall
    {
        type            calculated;
        value           uniform 0;
    }
    atmosphere
    {
        type            calculated;
        value           uniform 0;
    }
    defaultFaces
    {
        type            empty;
    }
}


// ************************************************************************* //
