/*--------------------------------*- C++ -*----------------------------------*\
| =========                 |                                                 |
| \\      /  F ield         | OpenFOAM: The Open Source CFD Toolbox           |
|  \\    /   O peration     | Version:  2012                                  |
|   \\  /    A nd           | Website:  www.openfoam.com                      |
|    \\/     M anipulation  |                                                 |
\*---------------------------------------------------------------------------*/
FoamFile
{
    version     2.0;
    format      ascii;
    class       volScalarField;
    location    "0.74";
    object      rhogh;
}
// * * * * * * * * * * * * * * * * * * * * * * * * * * * * * * * * * * * * * //

dimensions      [1 -1 -2 0 0 0 0];


internalField   nonuniform List<scalar> 
2268
(
-29.4294
-29.4294
-29.4294
-29.4294
-29.4294
-29.4294
-29.4294
-29.4294
-29.4294
-29.4294
-29.4294
-29.4294
-29.4294
-29.4294
-29.4294
-29.4294
-29.4294
-29.4294
-29.4294
-29.4294
-29.4294
-29.4288
-29.4227
-88.2881
-88.2881
-88.2881
-88.2881
-88.2881
-88.2881
-88.2881
-88.2881
-88.2881
-88.2881
-88.2881
-88.2881
-88.2881
-88.2881
-88.2881
-88.2881
-88.2881
-88.2881
-88.2881
-88.2881
-88.2881
-88.2823
-88.2626
-147.147
-147.147
-147.147
-147.147
-147.147
-147.147
-147.147
-147.147
-147.147
-147.147
-147.147
-147.147
-147.147
-147.147
-147.147
-147.147
-147.147
-147.147
-147.147
-147.147
-147.147
-147.14
-147.104
-206.006
-206.006
-206.006
-206.006
-206.006
-206.006
-206.006
-206.006
-206.006
-206.006
-206.006
-206.006
-206.006
-206.006
-206.006
-206.006
-206.006
-206.006
-206.006
-206.006
-206.006
-206.002
-205.953
-264.864
-264.864
-264.864
-264.864
-264.864
-264.864
-264.864
-264.864
-264.864
-264.864
-264.864
-264.864
-264.864
-264.864
-264.864
-264.864
-264.864
-264.864
-264.864
-264.864
-264.864
-264.864
-264.864
-323.723
-323.723
-323.723
-323.723
-323.723
-323.723
-323.723
-323.723
-323.723
-323.723
-323.723
-323.723
-323.723
-323.723
-323.723
-323.723
-323.723
-323.723
-323.723
-323.723
-323.723
-323.723
-323.723
-382.582
-382.582
-382.582
-382.582
-382.582
-382.582
-382.582
-382.582
-382.582
-382.582
-382.582
-382.582
-382.582
-382.582
-382.582
-382.582
-382.582
-382.582
-382.582
-382.582
-382.58
-382.582
-382.582
-441.44
-441.44
-441.44
-441.44
-441.44
-441.44
-441.44
-441.44
-441.44
-441.44
-441.44
-441.44
-441.44
-441.44
-441.44
-441.44
-441.44
-441.44
-441.44
-441.44
-441.425
-441.113
-441.341
-21.7543
-26.927
-26.9265
-26.9265
-26.9194
-26.9186
-26.9183
-26.9154
-23.0177
-22.1224
-24.6085
-24.6085
-24.6085
-24.6085
-24.6085
-24.3703
-24.2043
-24.2043
-24.2043
-59.0344
-80.7796
-80.7809
-80.7663
-80.7616
-80.4809
-76.5589
-76.5402
-67.1947
-66.3067
-69.6862
-70.462
-69.4197
-61.6331
-50.5539
-43.4788
-40.3542
-53.7555
-68.8876
-97.856
-134.638
-125.69
-99.2964
-94.4754
-128.369
-113.736
-42.4208
-32.3558
-32.3553
-36.5263
-34.7844
-35.3704
-26.272
-16.4348
-10.574
-8.2953
-54.7683
-111.498
-137.144
-163.672
-70.766
-24.4543
-40.3365
-173.177
-204.575
-166.733
-93.3199
-44.0025
-0.120979
-0.120979
-0.120979
-0.400428
-0.1821
-0.120977
-1.42248
-86.9657
-134.083
-208.651
-177.913
-5.12591e-17
-0.611627
-29.0879
-217.374
-263.025
-264.169
-248.698
-199.146
-110.477
-48.5908
-7.56103
-0.155542
-0.155542
-0.155542
-2.50135
-194.335
-172.44
-255.874
-167.018
1.99549e-20
1.93114e-19
-139.737
-298.133
-322.857
-322.873
-322.873
-321.987
-313.495
-280.114
-229.391
-155.326
-68.6772
-4.78088
-3.20541
-251.435
-234.494
-302.391
-54.2418
2.14932e-18
2.91678e-18
-242.674
-368.209
-378.163
-361.406
-380.775
-381.559
-381.561
-381.559
-380.996
-378.177
-342.062
-206.479
-235.158
-354.783
-373.764
-348.919
-14.676
5.91133e-20
-8.27632
-329.066
-424.458
-351.657
-217.184
-267.864
-343.084
-402.481
-424.422
-439.773
-439.783
-439.773
-435.006
-436.044
-436.054
-431.263
-281.014
-298.48
-333.04
-375.777
-420.138
-462.288
-502.874
-530.815
-533.467
-533.467
-533.467
-533.467
-533.467
-533.467
-533.467
-533.467
-533.467
-533.467
-533.467
-533.467
-533.44
-523.924
-448.295
-6.082
-8.1662
-13.783
-31.9225
-68.1359
-123.381
-199.985
-307.046
-436.978
-531.21
-587.947
-626.533
-649.853
-658.662
-658.554
-658.662
-658.518
-658.606
-658.653
-658.661
-658.53
-590.786
-242.511
-0.00105905
-0.0026275
-0.0118646
-0.0799314
-0.399834
-1.57771
-5.63257
-17.9992
-54.6291
-129.129
-219.029
-300.069
-371.171
-467.697
-554.603
-636.809
-696.756
-751.389
-767.027
-782.37
-782.641
-741.029
-314.814
-5.95175e-10
-2.46513e-08
-9.79212e-07
-2.67421e-05
-0.000521891
-0.00679781
-0.0602345
-0.39662
-1.94744
-7.11784
-19.5199
-30.3692
-33.0086
-36.4958
-77.2126
-131.82
-174.152
-281.067
-449.609
-678.94
-849.587
-887.798
-771.666
-1.32395e-11
-5.28997e-10
-1.31382e-08
-2.48512e-07
-3.72239e-06
-4.16157e-05
-0.000367119
-0.00247016
-0.0114918
-0.0236355
-0.0282883
-0.0405954
-0.328718
-2.81474
-10.2412
-18.9273
-29.0181
-89.4014
-285.195
-546.442
-805.568
-981.525
-981.951
-7.12956e-12
-2.86309e-10
-5.33705e-09
-4.86877e-08
-1.89513e-07
-9.90394e-07
-2.04679e-05
-0.000303677
-0.000965988
-0.00101855
-0.000325936
-0.000163251
-0.000890712
-0.00453991
-0.0116671
-0.122099
-31.1753
-280.254
-504.355
-722.46
-835.492
-782.738
-709.985
-4.12269e-12
-1.52934e-10
-2.51582e-09
-2.15608e-08
-9.24879e-08
-2.71378e-07
-2.78085e-06
-2.9191e-05
-5.46721e-05
-8.11693e-07
-8.1182e-07
-8.07009e-07
-3.56857e-07
-3.57153e-07
-1.08675e-05
-0.768692
-151.462
-700.976
-739.336
-652.541
-71.1269
-5.01766e-05
-5.01766e-05
-2.66407e-12
-9.23675e-11
-1.39461e-09
-1.14406e-08
-5.24323e-08
-1.39227e-07
-3.62403e-07
-5.37712e-06
-0.000174602
-0.000257011
-8.90797e-07
-1.91701e-06
-0.000643308
-0.00252837
-0.0040663
-0.141154
-22.9499
-404.276
-811.673
-571.396
-0.024254
-0.0243952
-0.510523
-1.44682e-12
-5.05959e-11
-7.77685e-10
-6.75303e-09
-3.54567e-08
-1.12919e-07
-2.01043e-07
-1.47452e-06
-0.000455005
-0.00206923
-0.00153942
-2.08764e-06
-0.000506006
-0.00477964
-0.00654282
-0.0785778
-0.847549
-8.47813
-215.217
-468.527
-602.866
-342.898
-233.475
-6.22258e-13
-2.30961e-11
-3.87311e-10
-3.85793e-09
-2.51201e-08
-1.08129e-07
-2.60755e-07
-9.92274e-07
-0.000253372
-0.00243683
-0.00250629
-0.00160403
-0.000203903
-0.00212103
-0.00520254
-0.00287087
-1.85353e-05
-1.8535e-05
-1.85353e-05
-32.7019
-718.909
-1133.47
-1133.47
-2.25163e-13
-9.05694e-12
-1.71471e-10
-2.04024e-09
-1.7047e-08
-1.01065e-07
-4.10269e-07
-1.35685e-06
-4.49105e-05
-0.000843151
-0.00269133
-0.00245756
-0.000253156
-8.60281e-05
-0.000328528
-5.7547e-05
-2.06645e-05
-0.000445061
-0.00105558
-0.00105527
-0.00105558
-116.551
-898.016
-7.1634e-14
-3.08894e-12
-6.49825e-11
-9.05855e-10
-9.52623e-09
-7.84218e-08
-4.38876e-07
-2.01669e-06
-1.08533e-05
-4.21534e-05
-0.000409762
-0.000465903
-0.000230009
-2.40544e-05
-3.69836e-06
-3.20739e-06
-3.20735e-06
-0.000163881
-0.000616463
-0.00262643
-0.00277038
-0.000537672
-0.000537625
-2.04406e-14
-9.26363e-13
-2.10563e-11
-3.28475e-10
-4.02687e-09
-4.14931e-08
-3.33056e-07
-1.72951e-06
-3.34358e-06
-1.55838e-06
-1.39032e-06
-1.38675e-06
-3.5909e-05
-1.08057e-05
-2.99711e-06
-4.37593e-06
-1.06078e-05
-2.53868e-05
-5.28141e-05
-0.000371678
-0.0033214
-0.0111375
-0.00838495
-5.31828e-15
-2.46917e-13
-5.84748e-12
-9.70673e-11
-1.28897e-09
-1.42899e-08
-1.33221e-07
-8.0608e-07
-1.27228e-06
-7.87592e-07
-2.53432e-07
-1.93908e-07
-1.17028e-06
-2.26188e-06
-2.75203e-06
-6.87662e-06
-1.06564e-05
-6.30775e-06
-2.96952e-06
-5.43836e-06
-0.000336194
-0.00258375
-0.00761496
-1.28832e-15
-6.03177e-14
-1.45578e-12
-2.49739e-11
-3.47687e-10
-4.04395e-09
-3.74535e-08
-2.33365e-07
-4.39623e-07
-4.05529e-07
-2.43812e-07
-2.05142e-07
-3.09504e-07
-7.46034e-07
-1.68645e-06
-4.98815e-06
-4.85803e-06
-2.98828e-06
-1.70694e-06
-1.61886e-06
-3.70197e-06
-4.30681e-05
-0.000357064
-2.93354e-16
-1.36905e-14
-3.30869e-13
-5.72109e-12
-8.13421e-11
-9.76962e-10
-9.21358e-09
-5.9999e-08
-1.31586e-07
-1.50196e-07
-1.39413e-07
-1.48796e-07
-1.6077e-07
-2.98574e-07
-6.43088e-07
-1.54938e-06
-1.54525e-06
-1.42597e-06
-1.29527e-06
-1.25164e-06
-8.08561e-07
-8.56931e-07
-1.76509e-06
-6.38091e-17
-2.94876e-15
-7.06479e-14
-1.21218e-12
-1.73091e-11
-2.1217e-10
-2.03903e-09
-1.3846e-08
-3.42204e-08
-4.47305e-08
-4.37918e-08
-5.48566e-08
-6.33878e-08
-1.07603e-07
-2.12836e-07
-4.16859e-07
-5.07474e-07
-5.70482e-07
-6.64809e-07
-7.06263e-07
-6.11299e-07
-6.25436e-07
-6.94129e-07
-1.32647e-17
-6.05183e-16
-1.43136e-14
-2.4138e-13
-3.42108e-12
-4.238e-11
-4.13024e-10
-2.88763e-09
-7.81007e-09
-1.12452e-08
-1.17193e-08
-1.50299e-08
-1.92449e-08
-3.21293e-08
-6.04548e-08
-1.09031e-07
-1.47385e-07
-1.83081e-07
-2.22445e-07
-2.61495e-07
-2.85841e-07
-3.51473e-07
-4.29868e-07
-2.65962e-18
-1.19664e-16
-2.79053e-15
-4.59663e-14
-6.39371e-13
-7.909e-12
-7.75341e-11
-5.50125e-10
-1.5823e-09
-2.45501e-09
-2.72976e-09
-3.55141e-09
-4.74403e-09
-7.90162e-09
-1.44567e-08
-2.51257e-08
-3.56192e-08
-4.65775e-08
-5.80869e-08
-7.10302e-08
-8.25583e-08
-1.01611e-07
-1.27772e-07
-5.16167e-19
-2.29093e-17
-5.27012e-16
-8.46971e-15
-1.15061e-13
-1.40945e-12
-1.37811e-11
-9.73326e-11
-2.89494e-10
-4.75672e-10
-5.58095e-10
-7.28735e-10
-9.81008e-10
-1.6179e-09
-2.88884e-09
-4.88872e-09
-7.00487e-09
-9.32774e-09
-1.16686e-08
-1.42822e-08
-1.68225e-08
-1.9752e-08
-2.37506e-08
-9.73191e-20
-4.26665e-18
-9.69376e-17
-1.52247e-15
-2.01761e-14
-2.42826e-13
-2.34098e-12
-1.61344e-11
-4.84436e-11
-8.28879e-11
-1.00817e-10
-1.30815e-10
-1.73174e-10
-2.79245e-10
-4.83036e-10
-7.89824e-10
-1.10972e-09
-1.45429e-09
-1.75837e-09
-2.0574e-09
-2.32777e-09
-2.47501e-09
-2.65379e-09
-1.79153e-20
-7.77742e-19
-1.74704e-17
-2.69111e-16
-3.48456e-15
-4.09135e-14
-3.83702e-13
-2.52712e-12
-7.50398e-12
-1.31365e-11
-1.62686e-11
-2.07743e-11
-2.65047e-11
-4.12245e-11
-6.79229e-11
-1.05286e-10
-1.39911e-10
-1.72555e-10
-1.90521e-10
-1.91894e-10
-1.91508e-10
-1.55829e-10
-1.54687e-10
-3.24443e-21
-1.39824e-19
-3.10706e-18
-4.7128e-17
-5.97505e-16
-6.79415e-15
-6.10529e-14
-3.76775e-13
-1.0888e-12
-1.91361e-12
-2.3689e-12
-2.94294e-12
-3.56114e-12
-5.25576e-12
-8.03567e-12
-1.15004e-11
-1.37807e-11
-1.47845e-11
-1.34231e-11
-1.34181e-11
-1.87355e-11
-1.9419e-10
-1.00329e-09
-5.83781e-22
-2.50333e-20
-5.50702e-19
-8.25991e-18
-1.02673e-16
-1.12086e-15
-9.49106e-15
-5.39138e-14
-1.49716e-13
-2.58626e-13
-3.14772e-13
-3.74978e-13
-4.24625e-13
-5.84784e-13
-8.06603e-13
-1.012e-12
-9.77517e-13
-9.77573e-13
-1.17013e-12
-1.09093e-10
-9.79011e-10
-7.1413e-09
-2.34863e-08
-1.05306e-22
-4.50013e-21
-9.81118e-20
-1.45963e-18
-1.77635e-17
-1.84301e-16
-1.44729e-15
-7.46572e-15
-1.9736e-14
-3.28446e-14
-3.86731e-14
-4.30588e-14
-4.31549e-14
-5.29427e-14
-6.64696e-14
-1.30213e-13
-1.3936e-12
-2.89651e-11
-5.80431e-10
-5.70977e-09
-2.74516e-08
-1.30474e-07
-4.36205e-07
-1.92958e-23
-8.20575e-22
-1.77567e-20
-2.62319e-19
-3.11089e-18
-3.03374e-17
-2.17737e-16
-1.01409e-15
-2.46465e-15
-3.61836e-15
-4.10247e-15
-5.42064e-15
-2.24947e-14
-2.54938e-13
-3.46821e-12
-4.20424e-11
-4.26304e-10
-3.4186e-09
-3.08645e-08
-2.1694e-07
-2.77637e-06
-9.17274e-06
-5.69299e-05
-3.23424e-24
-1.526e-22
-3.25716e-21
-4.68101e-20
-5.1681e-19
-4.42759e-18
-2.91779e-17
-1.29095e-16
-4.33074e-16
-2.9165e-15
-3.35191e-14
-4.48701e-13
-5.23201e-12
-5.14978e-11
-4.21435e-10
-1.27829e-09
-3.58563e-10
-3.58561e-10
-6.96262e-06
-7.45877e-05
-0.000705732
-0.000998991
-0.000976643
-9.95287e-25
-2.59815e-23
-6.0342e-22
-1.10121e-20
-2.03979e-19
-4.01579e-18
-7.58285e-17
-1.4833e-15
-2.64916e-14
-4.07943e-13
-5.34109e-12
-5.8181e-11
-5.00101e-10
-2.9844e-09
-1.44731e-08
-2.42669e-07
-5.07895e-06
-0.000157552
-0.00168324
-0.00337119
-0.00334803
-0.00203843
-0.00112507
-1.09721e-24
-1.3277e-22
-1.01289e-20
-5.20443e-19
-1.96441e-17
-5.74771e-16
-1.35226e-14
-2.62084e-13
-4.26173e-12
-5.8923e-11
-7.03189e-10
-7.37785e-09
-7.02059e-08
-5.96702e-07
-1.68861e-06
-2.50442e-07
-0.000499202
-0.00604001
-0.00819542
-0.00692562
-0.000272256
-5.34087e-08
-5.34069e-08
-1.03105e-22
-1.49189e-20
-1.04337e-18
-4.68077e-17
-1.51183e-15
-3.7325e-14
-7.30064e-13
-1.15453e-11
-1.49109e-10
-1.57097e-09
-1.33502e-08
-8.83231e-08
-2.6086e-07
-2.84657e-07
-2.84689e-07
-0.0020286
-0.0095685
-0.00957017
-0.00538
-7.05058e-08
-7.04415e-08
-2.84847e-07
-4.88128e-07
-6.30199e-21
-7.6123e-19
-4.39741e-17
-1.61109e-15
-4.19522e-14
-8.23366e-13
-1.2607e-11
-1.53393e-10
-1.49379e-09
-1.15859e-08
-7.08996e-08
-2.55919e-07
-4.13395e-07
-2.50409e-06
-0.0028827
-0.00977764
-0.009777
-0.00207358
-1.09029e-07
-1.67477e-07
-4.47964e-07
-6.07397e-07
-6.56906e-07
-1.27639e-19
-1.35601e-17
-6.82014e-16
-2.14796e-14
-4.72915e-13
-7.68173e-12
-9.47903e-11
-9.00951e-10
-6.58981e-09
-3.54272e-08
-7.45656e-08
-7.45671e-08
-7.45688e-08
-0.0019218
-0.00936162
-0.00932328
-0.00137132
-1.70617e-07
-2.17563e-07
-3.83527e-07
-3.54015e-07
-2.27714e-07
-1.55069e-07
-1.65296e-18
-1.49863e-16
-6.44462e-15
-1.73876e-13
-3.27791e-12
-4.54803e-11
-4.77418e-10
-3.86141e-09
-2.49974e-08
-1.45781e-07
-1.07878e-06
-3.27084e-05
-0.00140926
-0.00790134
-0.00959706
-0.00174659
-9.99126e-08
-1.75457e-07
-2.28271e-07
-1.57813e-07
-6.8547e-08
-3.81963e-08
-3.09561e-08
-9.59298e-18
-8.15459e-16
-3.25896e-14
-8.09936e-13
-1.39474e-11
-1.7519e-10
-1.64102e-09
-1.14242e-08
-5.76747e-08
-2.25136e-07
-7.90958e-06
-0.000942245
-0.00721445
-0.00810028
-0.00365263
-3.25705e-08
-1.02667e-07
-1.3173e-07
-6.35802e-08
-2.12036e-08
-1.08303e-08
-8.27055e-09
-7.34514e-09
-5.58297e-17
-4.37311e-15
-1.59517e-13
-3.58659e-12
-5.56337e-11
-6.30596e-10
-5.38866e-09
-3.49373e-08
-1.63931e-07
-5.50967e-07
-3.5056e-05
-0.00373146
-0.0102595
-0.0064993
-4.3379e-09
-3.34453e-08
-5.77109e-08
-3.08216e-08
-8.11143e-09
-3.32758e-09
-2.15503e-09
-1.77391e-09
-1.54684e-09
-1.85022e-16
-1.39765e-14
-4.9123e-13
-1.06058e-11
-1.56722e-10
-1.67248e-09
-1.3341e-08
-8.258e-08
-4.3984e-07
-7.23865e-06
-0.00038928
-0.00654501
-0.0105722
-0.00137708
-4.45136e-09
-1.6019e-08
-1.66891e-08
-4.04329e-09
-1.17731e-09
-5.67343e-10
-3.94043e-10
-3.16275e-10
-2.52549e-10
-5.12098e-16
-3.75174e-14
-1.29387e-12
-2.77634e-11
-4.09658e-10
-4.20389e-09
-3.05562e-08
-1.64118e-07
-9.42948e-07
-5.8782e-05
-0.00369104
-0.0124756
-0.00434768
-3.69162e-09
-4.5647e-09
-7.5961e-09
-3.10939e-09
-5.4362e-10
-1.61511e-10
-8.283e-11
-5.81846e-11
-4.41786e-11
-3.09569e-11
-1.02424e-15
-7.1107e-14
-2.31294e-12
-4.6524e-11
-6.43499e-10
-6.56221e-09
-5.07262e-08
-3.22002e-07
-1.27182e-05
-0.00111132
-0.0112217
-0.0127152
-0.00138352
-3.76352e-09
-3.76353e-09
-3.7636e-09
-6.88419e-10
-7.96242e-11
-1.83002e-11
-9.27105e-12
-6.39297e-12
-4.58849e-12
-2.67039e-12
-1.88367e-15
-1.22501e-13
-3.69697e-12
-6.82943e-11
-8.58808e-10
-7.78969e-09
-5.3024e-08
-3.71698e-07
-6.47737e-05
-0.00553844
-0.0114703
-0.00896301
-3.87497e-09
-3.875e-09
-5.55423e-09
-3.05016e-09
-3.45114e-10
-1.44919e-11
-1.57434e-12
-7.37506e-13
-4.76434e-13
-3.0563e-13
-1.50692e-13
-3.61854e-15
-2.22777e-13
-6.29092e-12
-1.06916e-10
-1.20273e-09
-9.22808e-09
-4.80205e-08
-6.53203e-07
-0.000412292
-0.00918357
-0.0117692
-0.000934044
-3.96669e-09
-7.44473e-09
-9.94828e-09
-2.8644e-09
-2.30239e-10
-2.8475e-12
-9.30735e-14
-3.55482e-14
-1.96405e-14
-1.03174e-14
-4.34203e-15
-8.21786e-15
-5.13833e-13
-1.49554e-11
-2.67118e-10
-3.22458e-09
-2.67307e-08
-1.44043e-07
-3.36398e-06
-0.00111351
-0.00604923
-0.00412685
-7.23902e-09
-7.23892e-09
-1.99604e-08
-1.57888e-08
-2.53982e-09
-7.13713e-11
-3.14239e-13
-2.86495e-15
-7.43349e-16
-2.75191e-16
-8.54331e-17
-2.22479e-17
-3.41183e-14
-2.3052e-12
-7.3587e-11
-1.48487e-09
-2.149e-08
-2.39965e-07
-2.89849e-06
-8.62912e-05
-0.000589141
-0.000435208
-3.89683e-05
-1.04613e-07
-5.42099e-08
-7.33065e-08
-2.28619e-08
-1.38599e-09
-3.68814e-12
-3.03932e-38
-1.27877e-19
-1.51822e-21
-1.79476e-23
-3.18812e-24
-1.24182e-23
-432.843
-409.196
-405.619
-405.626
-262.256
-505.223
-505.239
-477.964
-140.098
-364.97
-544.974
-323.239
-162.137
-156.295
-155.579
-157.902
-912.266
-656.828
-560
-748.673
-582.996
-528.13
-474.355
-386.927
-5.01766e-05
-5.01766e-05
-5.01766e-05
-5.01766e-05
-1.52143
-0.77452
-0.126021
-0.00405618
-241.997
-43.2022
-5.16359e-05
-0.276835
-1133.47
-604.687
-5.58473e-05
-5.58473e-05
-1218.57
-1218.92
-1218.91
-1218.82
-0.000537672
-9.31539
-94.1834
-442.973
-0.000572853
-0.000572903
-0.000572853
-0.000572903
-0.0133236
-0.0133235
-0.00397104
-0.0113005
-0.00148514
-0.00435642
-0.00435946
-0.00262087
-1.10673e-05
-1.22826e-05
-0.000148083
-6.75283e-05
-6.93066e-07
-6.24914e-07
-6.76734e-07
-6.36759e-07
-4.31211e-07
-4.24731e-07
-4.00256e-07
-3.71716e-07
-1.41802e-07
-1.47138e-07
-1.44689e-07
-1.4026e-07
-2.70489e-08
-2.87484e-08
-2.90471e-08
-2.92924e-08
-2.82142e-09
-2.98551e-09
-3.05581e-09
-3.14043e-09
-1.73324e-10
-2.33641e-10
-3.71707e-10
-5.90724e-10
-2.32787e-09
-4.84649e-09
-9.87412e-09
-1.61763e-08
-4.65471e-08
-1.03475e-07
-2.09699e-07
-2.87986e-07
-1.00655e-06
-3.2397e-06
-1.00775e-05
-1.40154e-05
-0.000111683
-0.000192301
-0.000420809
-0.00065665
-0.00105033
-0.0011283
-0.00124443
-0.00124444
-0.000846939
-0.000387127
-0.000143898
-1.9742e-06
-5.34087e-08
-5.34069e-08
-5.34087e-08
-6.54572e-08
-7.24771e-07
-1.00643e-06
-1.27662e-06
-1.57168e-06
-7.39477e-07
-7.45676e-07
-6.67062e-07
-6.1157e-07
-1.32011e-07
-1.25088e-07
-1.2194e-07
-1.24706e-07
-2.94501e-08
-2.85792e-08
-2.79062e-08
-2.76592e-08
-6.72428e-09
-6.10733e-09
-5.67752e-09
-5.3741e-09
-1.2215e-09
-1.04364e-09
-9.1369e-10
-8.23506e-10
-1.71146e-10
-1.35665e-10
-1.11302e-10
-9.60147e-11
-1.78775e-11
-1.31007e-11
-1.02003e-11
-8.64689e-12
-1.34485e-12
-9.33706e-13
-7.22265e-13
-6.38487e-13
-7.0269e-14
-4.98562e-14
-4.12331e-14
-3.905e-14
-2.08834e-15
-1.65394e-15
-1.52541e-15
-1.61201e-15
-1.2852e-17
-1.41597e-17
-2.12766e-17
-3.16624e-17
-3.79627e-23
-8.25061e-23
-1.57351e-22
-2.81812e-22
-390.005
5.17386e-19
8.81441e-18
-220.031
-418.508
-385.812
-187.37
-39.2987
-53.1936
-75.4171
-100.594
-118.949
-132.277
-159.547
-218.307
-322.455
-435.758
-514.455
-497.802
-196.138
4.70631e-18
-152.099
-516.724
-516.598
-117.467
-4.67419e-06
-4.67419e-06
-0.0322548
-0.0568454
-0.195249
-0.517032
-1.12658
-3.21285
-11.3855
-70.623
-500.097
-565.057
-494.284
-223.266
-252.633
-617.738
-581.448
-171.095
-0.000188366
-0.00135249
-0.00220388
-0.000952567
-0.00160623
-0.00364211
-0.002864
-0.00282414
-0.00927319
-4.58944
-175.141
-494.064
-471.708
-302.018
-344.919
-728.771
-715.239
-202.356
-8.20936e-05
-0.000218516
-0.000410306
-0.000286947
-0.000244309
-0.000305983
-0.0290599
-0.235728
-1.05728
-5.49686
-17.1861
-54.4093
-133.253
-108.74
-135.585
-766.229
-491.782
-62.9543
-9.33996e-05
-9.34601e-05
-3.4822e-05
-3.48198e-05
-0.000355799
-0.000512596
-0.000348135
-0.0599234
-1.24093
-17.9811
-239.231
-471.711
-137.88
-0.000112891
-0.000112891
-119.92
-223.346
-0.00043287
-0.30882
-0.00273983
-0.00188599
-0.0431856
-0.403198
-2.11992
-3.99833
-0.070824
-0.0671759
-9.85638
-273.22
-959.855
-1147.36
-840.978
-23.9921
-0.000126556
-474.769
-5.01766e-05
-0.000479584
-0.00209026
-0.00315587
-0.00471214
-0.553311
-21.9151
-185.924
-275.141
-1.53729
-0.0912869
-121.939
-1008.56
-1272.06
-1272.06
-1272.06
-700.345
-152.839
-861.098
-0.019851
-5.13459e-05
-5.13361e-05
-0.00147177
-0.00654149
-0.414578
-92.6752
-815.156
-863.54
-95.3415
-6.23645
-668.985
-1352.38
-1352.38
-1393.56
-1396.03
-1396.03
-1157.11
-1340.61
-0.57931
-5.98651e-05
-5.16359e-05
-0.000313459
-0.00230502
-0.000198816
-249.384
-1069.67
-1069.67
-691.835
-314.362
-938.023
-783.991
-557.25
-1210.28
-1499.29
-1520
-1520
-1520
-5.58473e-05
-5.58473e-05
-5.58473e-05
-5.58473e-05
-5.58473e-05
-0.0391387
-694.077
-1156.91
-1132.63
-1132.64
-875.173
-375.636
-2.11931
-0.0865548
-270.105
-980.475
-1589.18
-1643.52
-1643.97
-925.173
-373.588
-207.795
-180.099
-359.518
-919.017
-975.67
-661.757
-278.16
-250.133
-232.983
-0.0814267
-0.0810918
-0.0930728
-0.0423729
-79.1648
-762.231
-1409.92
-1503.94
-910.114
-1307.46
-1307.59
-1307.46
-1246.36
-622.215
-111.748
-7.33814e-07
-7.33814e-07
-7.33814e-07
-7.33814e-07
-2.05541
-5.04807
-0.505544
-0.0453504
-0.0453442
-29.191
-370.573
-567.546
-0.000572853
-11.3047
-105.396
-130.1
-46.2807
-7.81898e-07
-7.81898e-07
-7.81898e-07
-0.000691708
-1.85558
-8.27513
-8.28426
-6.52355
-4.32586e-05
-0.481976
-5.54627
-14.5092
-87.501
-322.432
-0.0111784
-8.29982e-07
-8.29982e-07
-8.29982e-07
-8.29982e-07
-8.29982e-07
-8.29982e-07
-1.19532e-06
-0.061491
-0.528632
-0.37678
-0.655032
-1.87144e-05
-4.5907e-05
-0.0842456
-8.0632
-50.2798
-173.606
-866.843
-0.000360173
-0.00134725
-0.00521297
-0.00168584
-8.78065e-07
-8.78065e-07
-8.78065e-07
-0.000269714
-0.00697555
-1.97986e-05
-1.96737e-05
-1.97986e-05
-1.96737e-05
-0.000406109
-0.0850639
-1.16487
-18.6734
-112.664
-917.055
-1.23748e-05
-1.85813e-06
-0.00201169
-0.00253055
-0.000978681
-0.00167433
-0.00364951
-3.30764e-05
-0.000570886
-0.0017496
-0.000325598
-0.000416979
-0.00143173
-0.000772393
-0.0838485
-0.00315023
-0.00315191
-11.1052
-935.231
-6.65255e-07
-1.95455e-06
-7.36347e-07
-0.00104208
-0.000223305
-0.0251831
-0.0427938
-0.00999793
-0.000600501
-0.0161381
-0.0464348
-0.0513092
-0.019266
-0.00106797
-0.0120804
-0.00564674
-0.0033152
-12.283
-221.725
-4.01402e-07
-1.06969e-06
-7.72697e-07
-1.60517e-07
-0.000234308
-0.00393628
-0.0212865
-0.105807
-0.112104
-0.112116
-0.112114
-0.0954734
-0.0300918
-0.00226345
-7.97106e-05
-0.00146581
-0.00146527
-9.90901
-0.210341
-1.52927e-07
-4.29861e-07
-5.12041e-07
-1.68076e-07
-0.000358676
-1.63818e-05
-0.0020317
-0.0259001
-0.0411249
-0.029967
-0.00830242
-4.32957e-08
-0.0102269
-0.00700866
-8.33192e-05
-2.07265e-08
-0.0143139
-1.59907
-0.220241
-3.47236e-08
-9.48687e-08
-3.05324e-07
-1.44884e-07
-2.96496e-05
-1.71177e-05
-0.000136619
-0.000158554
-0.000121517
-2.57962e-08
-2.5587e-08
-4.52108e-08
-2.16576e-08
-2.16458e-08
-2.16576e-08
-2.16458e-08
-0.162933
-0.163091
-0.23025
-4.01859e-09
-1.23395e-08
-4.45616e-08
-1.19054e-07
-2.22815e-07
-2.25122e-06
-1.65857e-06
-1.13773e-06
-3.15769e-07
-1.38539e-06
-1.68122e-06
-1.43599e-06
-7.48301e-07
-2.86867e-07
-5.69427e-08
-2.25887e-08
-0.138683
-1.21524
-0.613661
-1.53398e-09
-4.80424e-09
-1.23668e-08
-1.88947e-08
-2.42931e-08
-4.72903e-08
-7.8768e-08
-1.53911e-07
-3.28784e-07
-6.99717e-07
-9.17739e-07
-8.8728e-07
-7.68538e-07
-4.68701e-07
-4.22883e-08
-0.000802453
-0.00074132
-5.4072
-0.672079
-4.49473e-08
-1.21904e-07
-3.54108e-07
-3.71246e-07
-2.65145e-07
-1.28558e-07
-6.31739e-08
-5.21202e-08
-5.6786e-08
-9.37188e-08
-1.39208e-07
-1.47733e-07
-1.48542e-07
-1.08879e-07
-4.34905e-08
-0.0141687
-0.000766617
-5.62388
-11.1638
-1.71973e-06
-3.4429e-06
-1.03294e-05
-7.67438e-06
-3.43075e-06
-1.47863e-06
-6.55849e-07
-2.75311e-07
-1.08344e-07
-4.23922e-08
-2.68485e-08
-2.57202e-08
-4.10254e-08
-3.09305e-08
-5.71466e-08
-0.0170294
-0.000800012
-3.53231
-245.089
-0.000145717
-0.00015382
-9.81446e-05
-4.17878e-05
-1.5746e-05
-6.34256e-06
-3.19735e-06
-1.65364e-06
-7.69088e-07
-2.90711e-07
-8.18629e-08
-2.97051e-08
-2.50726e-08
-2.4848e-08
-2.48481e-08
-0.0139934
-0.00992374
-0.524562
-372.257
-0.000656573
-0.000428498
-0.000110882
-4.89727e-05
-3.76228e-05
-1.60701e-05
-6.46688e-06
-3.87575e-06
-2.51815e-06
-1.3168e-06
-5.02247e-07
-1.51349e-07
-4.91336e-08
-2.57273e-08
-2.57273e-08
-0.0249034
-0.0333916
1.37325e-21
-385.433
-0.000480028
-3.33687e-05
-9.7975e-06
-1.81611e-05
-4.27727e-05
-7.36442e-05
-2.76016e-05
-1.15989e-05
-6.56549e-06
-4.01388e-06
-1.88806e-06
-6.86839e-07
-2.11292e-07
-4.47755e-08
-2.66065e-08
-0.0402588
-0.0835867
8.72171e-22
-398.291
-1.07926e-07
-1.0848e-07
-1.08453e-07
-5.80321e-08
-5.80066e-08
-0.00023345
-0.000862513
-0.000968664
-0.000347464
-4.84024e-05
-8.77639e-06
-2.5449e-06
-8.01816e-07
-1.69397e-07
-2.74857e-08
-0.0498533
-0.0992377
-2.78553e-20
-137.309
-1.4647e-06
-1.80411e-06
-1.58661e-06
-4.33515e-07
-5.98885e-08
-0.000112626
-0.00322864
-0.00357853
-0.00303701
-0.000700287
-4.35405e-05
-4.5905e-06
-1.85431e-06
-4.7049e-07
-2.8365e-08
-0.0203028
-0.102393
-0.0102532
-0.000400883
-1.83681e-06
-1.84637e-06
-1.58391e-06
-5.49623e-07
-6.17177e-08
-0.000118785
-0.00108295
-0.00339274
-0.00347318
-0.0029959
-0.000331521
-6.07906e-06
-1.62038e-06
-6.49995e-07
-2.92442e-08
-0.000568115
-0.043705
-0.00971184
-0.00041353
-5.98544e-07
-8.69291e-07
-5.52187e-07
-3.3463e-07
-9.39207e-08
-2.75768e-09
-2.7575e-09
-2.75768e-09
-0.00124695
-0.00244512
-0.00120383
-4.45948e-05
-1.17593e-06
-1.17583e-06
-5.80277e-08
-3.582e-05
-0.000309527
-0.00141492
-0.000547984
-1.32523e-07
-1.50053e-07
-1.50489e-07
-1.39874e-07
-8.13257e-08
-1.87937e-07
-9.51481e-07
-1.39084e-07
-2.83817e-09
-2.83798e-09
-0.00323205
-0.00197873
-0.000113676
-1.89318e-06
-5.39824e-07
-4.20598e-08
-0.00369145
-0.00631279
-0.00351273
-2.7585e-08
-3.12138e-08
-3.36071e-08
-3.17188e-08
-4.97925e-08
-2.6342e-07
-2.05618e-06
-2.39733e-06
-4.44599e-07
-2.91866e-09
-0.00407815
-0.00479226
-0.000839878
-3.92677e-05
-1.63203e-06
-4.32532e-08
-0.0259521
-0.0468037
-0.0108082
-5.13809e-09
-5.5415e-09
-6.14395e-09
-7.55917e-09
-2.02666e-08
-1.60376e-07
-1.7096e-06
-2.63277e-06
-7.05257e-23
-0.000239359
-0.00276099
-0.0162095
-0.00727204
-0.000430483
-3.19167e-06
-4.44454e-08
-0.0480739
-0.0482283
-0.0130013
-7.59306e-10
-7.62532e-10
-9.84695e-10
-1.85137e-09
-6.57577e-09
-4.56087e-08
-4.6482e-07
-1.82043e-06
-1.72708e-23
-0.00220245
-0.0102844
-0.0369252
-0.0222788
-0.00131949
-3.08587e-06
-4.56388e-08
-0.0298149
-0.0495219
-0.00837714
-8.64765e-11
-8.80088e-11
-1.60638e-10
-4.44542e-10
-1.71928e-09
-9.6994e-09
-9.27586e-08
-7.30209e-07
-2.80286e-08
-1.17101e-26
-0.108459
-0.0689453
-0.0237876
-0.0016144
-2.32092e-06
-4.6831e-08
-0.0026799
-0.0123748
-0.00147368
-7.87815e-12
-1.01752e-11
-2.74475e-11
-9.34188e-11
-3.68387e-10
-1.70725e-09
-1.40926e-08
-2.57395e-07
-1.10057e-07
1.80444e-26
-0.326609
-0.408436
-0.104899
-0.00220575
-9.83809e-06
-0.000172393
-0.00039061
-6.03117e-05
-4.83156e-05
-6.30613e-13
-1.23028e-12
-4.10779e-12
-1.54718e-11
-6.41402e-11
-2.64248e-10
-1.87076e-09
-6.18307e-08
-2.23448e-08
2.75293e-26
-0.293902
-0.983638
-0.317392
-0.00226126
-2.05952e-05
-0.000874219
-0.000375719
-3.47711e-05
-4.3464e-05
-4.82442e-14
-1.25521e-13
-4.59749e-13
-1.9215e-12
-8.79788e-12
-3.73604e-11
-2.66576e-10
-1.02901e-08
-4.50027e-09
1.03118e-27
-0.300134
-1.00748
-0.485214
-0.00223247
-4.19833e-05
-0.000906031
-0.000380482
-3.5613e-05
-0.00173584
-2.68479e-15
-7.91342e-15
-3.31267e-14
-1.64683e-13
-8.86443e-13
-4.35894e-12
-3.1869e-11
-9.8739e-10
-3.76967e-10
-2.40922e-28
-0.151674
-1.03132
-0.577568
-0.00561982
-3.48245e-05
-0.000573302
-0.000122934
-3.36565e-05
-3.38884e-05
-6.33433e-17
-2.39402e-16
-1.33419e-15
-8.39155e-15
-5.3333e-14
-3.04807e-13
-1.95343e-12
-4.03755e-11
-9.62304e-12
-9.52298e-31
-0.00930288
-1.05414
-0.701223
-0.0173054
-1.24446e-05
-1.91301e-05
-1.91687e-05
-0.0134153
-0.0165945
-5.86793e-22
-1.56707e-21
-4.26548e-21
-6.02356e-21
-3.08284e-21
4.56365e-70
2.18105e-69
3.64169e-68
7.34446e-30
7.58839e-30
1.45e-30
-0.813658
-0.625036
-0.0208343
-2.73122e-06
-7.01987e-08
-0.0288612
-0.154655
-0.13256
)
;

boundaryField
{
    leftWall
    {
        type            calculated;
        value           nonuniform List<scalar> 
50
(
-29.4294
-88.2881
-147.147
-206.006
-264.864
-323.723
-382.582
-441.44
-281.014
-6.082
-0.00105905
-5.95175e-10
-1.32395e-11
-7.12956e-12
-4.12269e-12
-2.66407e-12
-1.44682e-12
-6.22258e-13
-2.25163e-13
-7.1634e-14
-2.04406e-14
-5.31828e-15
-1.28832e-15
-2.93354e-16
-6.38091e-17
-1.32647e-17
-2.65962e-18
-5.16167e-19
-9.73191e-20
-1.79153e-20
-3.24443e-21
-5.83781e-22
-1.05306e-22
-1.92958e-23
-3.23424e-24
-9.95287e-25
-1.09721e-24
-1.03105e-22
-6.30199e-21
-1.27639e-19
-1.65296e-18
-9.59298e-18
-5.58297e-17
-1.85022e-16
-5.12098e-16
-1.02424e-15
-1.88367e-15
-3.61854e-15
-8.21786e-15
-3.41183e-14
)
;
    }
    rightWall
    {
        type            calculated;
        value           nonuniform List<scalar> 
50
(
-24.2043
-68.8876
-111.498
-134.083
-172.44
-234.494
-373.764
-431.263
-497.802
-494.284
-302.018
-135.585
-119.92
-474.769
-861.098
-1340.61
-1520
-1643.97
-1503.94
-567.546
-322.432
-866.843
-917.055
-935.231
-221.725
-0.210341
-0.220241
-0.23025
-0.613661
-0.672079
-11.1638
-245.089
-372.257
-385.433
-398.291
-137.309
-0.000400883
-0.00041353
-0.000547984
-0.00351273
-0.0108082
-0.0130013
-0.00837714
-0.00147368
-4.83156e-05
-4.3464e-05
-0.00173584
-3.38884e-05
-0.0165945
-0.13256
)
;
    }
    lowerWall
    {
        type            calculated;
        value           nonuniform List<scalar> 
62
(
0
0
0
0
0
0
0
0
0
0
0
0
0
0
0
0
0
0
0
0
0
0
0
-29.4227
-88.2626
-147.104
-205.953
-264.864
-323.723
-382.582
-441.341
-382.053
-361.181
-358.024
-358.029
-21.7543
-59.0344
-97.856
-137.144
-208.651
-255.874
-302.391
-348.919
0
0
0
0
0
0
0
0
0
0
0
0
0
0
0
0
0
0
0
)
;
    }
    atmosphere
    {
        type            calculated;
        value           nonuniform List<scalar> 
46
(
-3.44952e-14
-2.33066e-12
-7.43999e-11
-1.50128e-09
-2.17274e-08
-2.42616e-07
-2.93051e-06
-8.72444e-05
-0.000595649
-0.000440016
-3.93988e-05
-1.05768e-07
-5.48087e-08
-7.41163e-08
-2.31145e-08
-0
-0
-0
-0
-0
-0
-0
-0
-0
-0
-0
-0
-0
-0
-0
-0
-0
-0
-0
-0
-0
-0
-0
-0.822647
-0.631941
-0.0210644
-2.76139e-06
-7.09741e-08
-0.0291801
-0.156363
-0.134025
)
;
    }
    defaultFaces
    {
        type            empty;
    }
}


// ************************************************************************* //
