/*--------------------------------*- C++ -*----------------------------------*\
| =========                 |                                                 |
| \\      /  F ield         | OpenFOAM: The Open Source CFD Toolbox           |
|  \\    /   O peration     | Version:  2012                                  |
|   \\  /    A nd           | Website:  www.openfoam.com                      |
|    \\/     M anipulation  |                                                 |
\*---------------------------------------------------------------------------*/
FoamFile
{
    version     2.0;
    format      ascii;
    class       volVectorField;
    location    "0.74";
    object      Uc;
}
// * * * * * * * * * * * * * * * * * * * * * * * * * * * * * * * * * * * * * //

dimensions      [0 1 -1 0 0 0 0];


internalField   nonuniform List<vector> 
2268
(
(-0.00937686 0.00443143 0)
(-0.0273566 0.00406564 0)
(-0.0452078 0.00437071 0)
(-0.0646443 0.00481487 0)
(-0.0848162 0.00471818 0)
(-0.103397 0.00406287 0)
(-0.120246 0.00389971 0)
(-0.136963 0.00400083 0)
(-0.152315 0.00325434 0)
(-0.165163 0.00281758 0)
(-0.1759 0.00225644 0)
(-0.183747 0.00145211 0)
(-0.187852 0.000488191 0)
(-0.188329 -0.000262987 0)
(-0.185838 -0.000914469 0)
(-0.180727 -0.00150053 0)
(-0.171819 -0.0027097 0)
(-0.157248 -0.00417638 0)
(-0.136314 -0.00571692 0)
(-0.106803 -0.00822986 0)
(-0.0737307 -0.00739964 0)
(-0.0324481 -0.0121102 0)
(-0.00341148 -0.00161228 0)
(-0.00951735 0.0133607 0)
(-0.0276881 0.0122208 0)
(-0.0455223 0.0130802 0)
(-0.0647223 0.0143647 0)
(-0.0846364 0.0141126 0)
(-0.103211 0.0122279 0)
(-0.120291 0.0117691 0)
(-0.137188 0.012017 0)
(-0.152507 0.00973329 0)
(-0.165368 0.00848814 0)
(-0.176258 0.00680661 0)
(-0.184215 0.00437089 0)
(-0.188508 0.00153864 0)
(-0.189292 -0.000717923 0)
(-0.18701 -0.00271516 0)
(-0.181938 -0.00451177 0)
(-0.17311 -0.00808086 0)
(-0.158887 -0.0124132 0)
(-0.138721 -0.0169036 0)
(-0.110899 -0.0241384 0)
(-0.0798626 -0.0217883 0)
(-0.0412862 -0.0354623 0)
(-0.00874932 -0.00735946 0)
(-0.009544 0.0223689 0)
(-0.0276252 0.0203449 0)
(-0.0452391 0.0217085 0)
(-0.0642157 0.0237784 0)
(-0.0841804 0.0235454 0)
(-0.103462 0.020686 0)
(-0.121574 0.0199423 0)
(-0.139068 0.0200966 0)
(-0.154542 0.0162067 0)
(-0.167396 0.014167 0)
(-0.177918 0.0112469 0)
(-0.185346 0.00720172 0)
(-0.189321 0.00261506 0)
(-0.190087 -0.00106195 0)
(-0.187907 -0.00447968 0)
(-0.182853 -0.00753274 0)
(-0.173864 -0.01348 0)
(-0.159143 -0.0206929 0)
(-0.13818 -0.0280609 0)
(-0.108911 -0.039962 0)
(-0.0741889 -0.0370418 0)
(-0.0302059 -0.0592258 0)
(-0.00185514 -0.0123711 0)
(-0.00967815 0.0314532 0)
(-0.0280085 0.0284685 0)
(-0.0458473 0.0303396 0)
(-0.0646467 0.0329999 0)
(-0.0840258 0.0329174 0)
(-0.103115 0.0294477 0)
(-0.121505 0.0284314 0)
(-0.139206 0.0282402 0)
(-0.154902 0.0227938 0)
(-0.168148 0.0199144 0)
(-0.179184 0.0156875 0)
(-0.187471 0.0101882 0)
(-0.192393 0.00383324 0)
(-0.193716 -0.00129301 0)
(-0.191688 -0.00623715 0)
(-0.186869 -0.0104416 0)
(-0.178753 -0.0186547 0)
(-0.165281 -0.0288417 0)
(-0.145462 -0.0391851 0)
(-0.116826 -0.0562035 0)
(-0.0809101 -0.0541834 0)
(-0.0328606 -0.0855781 0)
(-0.00179753 -0.0140974 0)
(-0.00928484 0.0404149 0)
(-0.0273005 0.0366836 0)
(-0.0452513 0.0390385 0)
(-0.0640581 0.0420735 0)
(-0.0835961 0.0422358 0)
(-0.103758 0.0386789 0)
(-0.123938 0.0374281 0)
(-0.14277 0.0365087 0)
(-0.158803 0.02952 0)
(-0.171981 0.0256759 0)
(-0.18232 0.0200277 0)
(-0.189733 0.0132675 0)
(-0.194031 0.00511128 0)
(-0.195063 -0.00145812 0)
(-0.193097 -0.00795943 0)
(-0.188687 -0.0130809 0)
(-0.181075 -0.0234488 0)
(-0.167796 -0.0366897 0)
(-0.147415 -0.0503353 0)
(-0.117077 -0.072924 0)
(-0.0747717 -0.0744298 0)
(-0.0138793 -0.116817 0)
(0.0114781 -0.00952254 0)
(-0.00909385 0.0491006 0)
(-0.0277045 0.0453073 0)
(-0.046695 0.047873 0)
(-0.0654122 0.0509725 0)
(-0.0839813 0.0513459 0)
(-0.103384 0.0482667 0)
(-0.123478 0.0468737 0)
(-0.1424 0.0449056 0)
(-0.158971 0.0365314 0)
(-0.173316 0.0316716 0)
(-0.185103 0.0244889 0)
(-0.194066 0.0165451 0)
(-0.19946 0.00641403 0)
(-0.200839 -0.00162132 0)
(-0.198949 -0.00961888 0)
(-0.195267 -0.015245 0)
(-0.189364 -0.0276722 0)
(-0.178349 -0.0439475 0)
(-0.159851 -0.0614516 0)
(-0.130255 -0.0901317 0)
(-0.0861968 -0.098037 0)
(-0.0190857 -0.153703 0)
(0.0110649 0.00113107 0)
(-0.00812083 0.0572361 0)
(-0.025965 0.0544 0)
(-0.0453842 0.0569324 0)
(-0.0643526 0.059723 0)
(-0.0831851 0.0602711 0)
(-0.104116 0.0584026 0)
(-0.126918 0.0570104 0)
(-0.14776 0.0535611 0)
(-0.164814 0.0437669 0)
(-0.178666 0.0377615 0)
(-0.189217 0.028956 0)
(-0.196913 0.0199504 0)
(-0.201454 0.00770406 0)
(-0.202451 -0.00178835 0)
(-0.200877 -0.011089 0)
(-0.198356 -0.016706 0)
(-0.193737 -0.0311841 0)
(-0.183612 -0.0504263 0)
(-0.16473 -0.0726386 0)
(-0.132781 -0.10803 0)
(-0.080987 -0.125438 0)
(0.000637798 -0.196594 0)
(0.0250894 0.0182173 0)
(-0.00779695 0.0647587 0)
(-0.0255988 0.0637234 0)
(-0.0456195 0.0662479 0)
(-0.0646664 0.0683732 0)
(-0.0827716 0.0690774 0)
(-0.103384 0.069229 0)
(-0.126777 0.0680154 0)
(-0.148659 0.0627473 0)
(-0.167043 0.0513288 0)
(-0.182087 0.0438554 0)
(-0.194122 0.033536 0)
(-0.20377 0.0235668 0)
(-0.209104 0.00875498 0)
(-0.209444 -0.00220758 0)
(-0.207529 -0.0123186 0)
(-0.206392 -0.0172049 0)
(-0.204208 -0.0339006 0)
(-0.197293 -0.0557629 0)
(-0.182459 -0.0832355 0)
(-0.158012 -0.124086 0)
(-0.117589 -0.152963 0)
(-0.0661138 -0.231971 0)
(-0.0203989 0.020434 0)
(-0.454004 0.192751 0)
(-1.11981 0.0899852 0)
(-1.42573 0.0399545 0)
(-1.53396 0.0059932 0)
(-1.4794 -0.0291631 0)
(-1.312 -0.0419846 0)
(-1.17961 -0.0143585 0)
(-1.20997 0.0271739 0)
(-1.36809 0.0398664 0)
(-1.51196 0.0210369 0)
(-1.58426 0.00950685 0)
(-1.6178 0.0046125 0)
(-1.63989 0.00465557 0)
(-1.67526 0.0102686 0)
(-1.73213 0.013829 0)
(-1.78218 0.00739917 0)
(-1.72263 -0.032665 0)
(-1.35959 -0.121453 0)
(-0.536781 -0.228457 0)
(-0.374188 0.544344 0)
(-0.930895 0.257527 0)
(-1.18894 0.111976 0)
(-1.26637 0.0127817 0)
(-1.18433 -0.0939933 0)
(-0.989097 -0.131315 0)
(-0.874852 -0.0300212 0)
(-0.966819 0.0946247 0)
(-1.14987 0.117072 0)
(-1.28013 0.0598733 0)
(-1.3421 0.027349 0)
(-1.37841 0.01616 0)
(-1.41805 0.019078 0)
(-1.4696 0.0324783 0)
(-1.51885 0.0364168 0)
(-1.53483 0.0125612 0)
(-1.38191 -0.128099 0)
(-0.992681 -0.345692 0)
(-0.375756 -0.617051 0)
(-0.298393 0.830277 0)
(-0.734399 0.393581 0)
(-0.94944 0.176902 0)
(-1.0256 0.0129684 0)
(-0.884915 -0.188906 0)
(-0.559778 -0.257695 0)
(-0.317597 -0.055414 0)
(-0.344952 0.170264 0)
(-0.573159 0.215516 0)
(-0.866184 0.140632 0)
(-1.13712 0.0874197 0)
(-1.33267 0.0539628 0)
(-1.4416 0.0438035 0)
(-1.49174 0.0502358 0)
(-1.51055 0.0468029 0)
(-1.47516 -0.00690918 0)
(-1.20364 -0.289517 0)
(-0.728815 -0.55187 0)
(-0.242892 -0.880696 0)
(-0.184011 1.03572 0)
(-0.526856 0.519542 0)
(-0.837732 0.274252 0)
(-0.960726 -0.000201483 0)
(-0.708783 -0.343016 0)
(-0.292843 -0.418923 0)
(0.0472242 -0.142042 0)
(0.342517 0.142544 0)
(0.513815 0.266829 0)
(0.446375 0.241926 0)
(0.185799 0.211352 0)
(-0.199925 0.176307 0)
(-0.616441 0.143993 0)
(-0.905591 0.0932712 0)
(-1.04993 0.0720649 0)
(-0.960512 -0.0863294 0)
(-0.636357 -0.464199 0)
(-0.285001 -0.729719 0)
(-0.0561505 -1.00843 0)
(-0.127748 1.16847 0)
(-0.361367 0.631958 0)
(-0.633785 0.40946 0)
(-0.679356 -0.0644701 0)
(-0.308058 -0.544533 0)
(0.034397 -0.540403 0)
(0.215548 -0.242448 0)
(0.422814 0.0291616 0)
(0.630073 0.21917 0)
(0.774377 0.256685 0)
(0.889214 0.258053 0)
(1.00166 0.245106 0)
(1.09503 0.211828 0)
(1.0653 0.160082 0)
(0.89291 0.138948 0)
(0.570647 -0.0552172 0)
(0.142468 -0.452009 0)
(0.00681681 -0.83517 0)
(0.0396437 -1.01597 0)
(-0.0759248 1.25517 0)
(-0.120056 0.663275 0)
(-0.0623356 0.46893 0)
(5.16698e-05 -0.131906 0)
(0.135506 -0.693273 0)
(0.265023 -0.592729 0)
(0.376483 -0.314745 0)
(0.534653 -0.0539888 0)
(0.667322 0.157722 0)
(0.774608 0.211053 0)
(0.866379 0.215563 0)
(0.939455 0.208264 0)
(0.998974 0.183088 0)
(1.04337 0.181806 0)
(1.06724 0.179583 0)
(0.990805 0.0728223 0)
(0.744885 -0.294193 0)
(0.389083 -0.784684 0)
(0.0984629 -0.957437 0)
(-0.036481 1.30298 0)
(-0.170018 0.690944 0)
(-0.126756 0.397803 0)
(0.21358 -0.231447 0)
(0.383662 -0.722707 0)
(0.374776 -0.614748 0)
(0.458016 -0.375633 0)
(0.571698 -0.108756 0)
(0.66298 0.117216 0)
(0.754447 0.167014 0)
(0.848781 0.180424 0)
(0.923205 0.180583 0)
(0.979752 0.1612 0)
(1.02619 0.164719 0)
(1.06119 0.171243 0)
(1.06059 0.113315 0)
(0.943212 -0.180631 0)
(0.540085 -0.575786 0)
(0.120204 -0.864445 0)
(0.0129465 1.31289 0)
(-0.169069 0.815078 0)
(-0.249664 0.289354 0)
(0.165897 -0.443462 0)
(0.433208 -0.695784 0)
(0.422903 -0.633777 0)
(0.50829 -0.428516 0)
(0.612121 -0.148643 0)
(0.674773 0.0914537 0)
(0.737807 0.126921 0)
(0.819841 0.145394 0)
(0.891076 0.153611 0)
(0.947462 0.140117 0)
(0.990285 0.147822 0)
(1.01321 0.163438 0)
(0.995305 0.128745 0)
(0.861168 -0.0893011 0)
(0.468931 -0.328903 0)
(0.0940237 -0.773314 0)
(-0.00661256 0.0751357 0)
(-0.0223359 0.0776501 0)
(-0.0412314 0.0808429 0)
(-0.0603842 0.0820692 0)
(-0.0786069 0.0822679 0)
(-0.0977897 0.0850615 0)
(-0.118813 0.0843667 0)
(-0.140315 0.0783495 0)
(-0.161546 0.0657557 0)
(-0.180763 0.0558558 0)
(-0.196678 0.0432212 0)
(-0.208097 0.0299195 0)
(-0.212069 0.00891617 0)
(-0.210476 -0.00380931 0)
(-0.208726 -0.0133814 0)
(-0.210605 -0.0147906 0)
(-0.21239 -0.0355526 0)
(-0.209428 -0.060356 0)
(-0.202245 -0.0928738 0)
(-0.196462 -0.131814 0)
(-0.177355 -0.183545 0)
(-0.140955 -0.26231 0)
(0.0137266 -0.126404 0)
(-0.0112202 0.0931678 0)
(-0.0373237 0.101886 0)
(-0.0715833 0.110293 0)
(-0.109015 0.109796 0)
(-0.138094 0.10243 0)
(-0.156753 0.103311 0)
(-0.172139 0.103094 0)
(-0.187098 0.0966096 0)
(-0.198684 0.0806824 0)
(-0.204729 0.0663772 0)
(-0.205746 0.0497269 0)
(-0.20345 0.0325819 0)
(-0.201421 0.00820506 0)
(-0.204027 -0.00207962 0)
(-0.212401 -0.00845323 0)
(-0.226405 -0.00375314 0)
(-0.240623 -0.0305037 0)
(-0.250013 -0.0589427 0)
(-0.257421 -0.0940619 0)
(-0.273839 -0.119935 0)
(-0.299786 -0.188549 0)
(-0.327326 -0.266254 0)
(-0.30435 -0.301711 0)
(-0.0211226 0.125736 0)
(-0.0628056 0.137587 0)
(-0.104727 0.151353 0)
(-0.144482 0.146592 0)
(-0.177177 0.128085 0)
(-0.206392 0.126215 0)
(-0.239165 0.129107 0)
(-0.272722 0.119918 0)
(-0.295061 0.0920441 0)
(-0.301538 0.0681315 0)
(-0.297533 0.0453751 0)
(-0.287595 0.0248771 0)
(-0.268419 -0.00528728 0)
(-0.236738 -0.0177862 0)
(-0.205667 -0.0155865 0)
(-0.192533 0.00419254 0)
(-0.199444 -0.0172774 0)
(-0.21831 -0.0437966 0)
(-0.23935 -0.0806281 0)
(-0.272827 -0.0832166 0)
(-0.336859 -0.13482 0)
(-0.437858 -0.190874 0)
(-0.583662 -0.254468 0)
(-0.0281632 0.175266 0)
(-0.0806493 0.182694 0)
(-0.123759 0.191702 0)
(-0.159673 0.182298 0)
(-0.201666 0.167467 0)
(-0.255855 0.170721 0)
(-0.310604 0.172694 0)
(-0.359331 0.159258 0)
(-0.400485 0.116922 0)
(-0.427262 0.077231 0)
(-0.439725 0.0453043 0)
(-0.443881 0.0194887 0)
(-0.448069 -0.0147868 0)
(-0.471837 -0.0161707 0)
(-0.528185 0.00825847 0)
(-0.601864 0.0413302 0)
(-0.629365 -0.019979 0)
(-0.556049 -0.0961877 0)
(-0.433451 -0.130589 0)
(-0.353577 -0.0800277 0)
(-0.351607 -0.0756364 0)
(-0.417684 -0.0822021 0)
(-0.539512 -0.094692 0)
(-0.0284969 0.232208 0)
(-0.0846574 0.234937 0)
(-0.137849 0.236234 0)
(-0.190802 0.227069 0)
(-0.253554 0.227958 0)
(-0.326982 0.238485 0)
(-0.399178 0.232514 0)
(-0.47007 0.219667 0)
(-0.553245 0.181503 0)
(-0.666904 0.153883 0)
(-0.855581 0.170967 0)
(-1.16491 0.209073 0)
(-1.53556 0.17251 0)
(-1.81239 0.0988094 0)
(-1.94092 0.0793951 0)
(-1.92298 0.0266311 0)
(-1.73758 -0.163626 0)
(-1.45555 -0.308861 0)
(-1.17121 -0.32516 0)
(-0.919102 -0.21742 0)
(-0.728636 -0.130732 0)
(-0.617987 -0.0716407 0)
(-0.549521 -0.0519824 0)
(-0.0270608 0.288042 0)
(-0.0814923 0.290245 0)
(-0.138183 0.291354 0)
(-0.201895 0.289195 0)
(-0.275607 0.30298 0)
(-0.35965 0.321728 0)
(-0.458303 0.320984 0)
(-0.57873 0.323487 0)
(-0.737159 0.320522 0)
(-0.968572 0.361713 0)
(-1.31265 0.49867 0)
(-1.75716 0.639143 0)
(-2.19968 0.559869 0)
(-2.51171 0.303435 0)
(-2.57345 0.066233 0)
(-2.33915 -0.213266 0)
(-2.01617 -0.432157 0)
(-1.80674 -0.528951 0)
(-1.66509 -0.527446 0)
(-1.49545 -0.435116 0)
(-1.26211 -0.338163 0)
(-0.99364 -0.246358 0)
(-0.738901 -0.203611 0)
(-0.0264074 0.341776 0)
(-0.0799584 0.34503 0)
(-0.136454 0.350319 0)
(-0.199579 0.357702 0)
(-0.270596 0.37993 0)
(-0.351233 0.41029 0)
(-0.450687 0.431536 0)
(-0.582695 0.466659 0)
(-0.761373 0.516192 0)
(-0.996519 0.635017 0)
(-1.2633 0.839407 0)
(-1.52123 1.00448 0)
(-1.76033 0.879664 0)
(-1.95356 0.491503 0)
(-2.0172 0.00419227 0)
(-1.9459 -0.457407 0)
(-1.85975 -0.591778 0)
(-1.81831 -0.612638 0)
(-1.79886 -0.602055 0)
(-1.79016 -0.540548 0)
(-1.82718 -0.433622 0)
(-1.98747 -0.26204 0)
(-2.23803 -0.194093 0)
(-0.0239581 0.392391 0)
(-0.0726523 0.397168 0)
(-0.123908 0.40647 0)
(-0.179693 0.421055 0)
(-0.240545 0.449109 0)
(-0.307642 0.489589 0)
(-0.387508 0.532467 0)
(-0.489384 0.600806 0)
(-0.619687 0.692615 0)
(-0.777967 0.854054 0)
(-0.939503 1.05091 0)
(-1.08679 1.20029 0)
(-1.25588 1.09414 0)
(-1.43861 0.654924 0)
(-1.5867 0.0535922 0)
(-1.68614 -0.477702 0)
(-1.72173 -0.615209 0)
(-1.72228 -0.621828 0)
(-1.74745 -0.58603 0)
(-1.83724 -0.483794 0)
(-1.97975 -0.318155 0)
(-2.10206 -0.0944865 0)
(-2.1526 -0.0598944 0)
(-0.021631 0.438206 0)
(-0.0651857 0.444059 0)
(-0.109715 0.455839 0)
(-0.156355 0.474621 0)
(-0.204993 0.505581 0)
(-0.254996 0.550802 0)
(-0.308016 0.60481 0)
(-0.364878 0.688005 0)
(-0.424961 0.796773 0)
(-0.482796 0.96712 0)
(-0.52873 1.14639 0)
(-0.553245 1.27749 0)
(-0.592982 1.22682 0)
(-0.724485 0.838091 0)
(-0.965504 0.261551 0)
(-1.27162 -0.277907 0)
(-1.50971 -0.538129 0)
(-1.57567 -0.627428 0)
(-1.57051 -0.557504 0)
(-1.60618 -0.390035 0)
(-1.63248 -0.246694 0)
(-1.55558 -0.122168 0)
(-1.4216 -0.117023 0)
(-0.0181173 0.478149 0)
(-0.0543121 0.484257 0)
(-0.0904253 0.49668 0)
(-0.126633 0.517035 0)
(-0.162313 0.547903 0)
(-0.195534 0.592114 0)
(-0.224842 0.646231 0)
(-0.246314 0.725303 0)
(-0.251891 0.825455 0)
(-0.224812 0.969334 0)
(-0.153001 1.11815 0)
(-0.0462371 1.22305 0)
(0.0627771 1.21161 0)
(0.0982771 0.949781 0)
(-0.0221977 0.513215 0)
(-0.317975 0.0754465 0)
(-0.703701 -0.264392 0)
(-1.07491 -0.460905 0)
(-1.34797 -0.453024 0)
(-1.43966 -0.360873 0)
(-1.40893 -0.274753 0)
(-1.35806 -0.223021 0)
(-1.30826 -0.202107 0)
(-0.0148073 0.511234 0)
(-0.0442557 0.517135 0)
(-0.0733456 0.529322 0)
(-0.101496 0.549064 0)
(-0.127154 0.57751 0)
(-0.148277 0.617112 0)
(-0.162708 0.665178 0)
(-0.166032 0.731259 0)
(-0.151099 0.810072 0)
(-0.105804 0.911945 0)
(-0.0170522 1.01412 0)
(0.11596 1.08604 0)
(0.274206 1.07996 0)
(0.400592 0.918691 0)
(0.431215 0.634604 0)
(0.342314 0.340712 0)
(0.107044 0.094544 0)
(-0.292149 -0.0454488 0)
(-0.759115 -0.124512 0)
(-1.13571 -0.215119 0)
(-1.31961 -0.260923 0)
(-1.31698 -0.285377 0)
(-1.24207 -0.26132 0)
(-0.0117299 0.537899 0)
(-0.0348327 0.543274 0)
(-0.0567964 0.554482 0)
(-0.076556 0.572042 0)
(-0.09256 0.596389 0)
(-0.102721 0.629658 0)
(-0.104629 0.669034 0)
(-0.0946088 0.72065 0)
(-0.0671507 0.778049 0)
(-0.0151288 0.846123 0)
(0.0684394 0.906703 0)
(0.183025 0.944549 0)
(0.314783 0.929918 0)
(0.425877 0.83 0)
(0.470345 0.647794 0)
(0.431686 0.455724 0)
(0.333064 0.315132 0)
(0.205955 0.262974 0)
(0.00875355 0.234655 0)
(-0.329681 0.144421 0)
(-0.747324 -0.0154406 0)
(-1.09016 -0.185033 0)
(-1.2423 -0.279655 0)
(-0.00913038 0.558857 0)
(-0.0270109 0.563491 0)
(-0.043687 0.573084 0)
(-0.0579772 0.587646 0)
(-0.0683214 0.60725 0)
(-0.0728917 0.633584 0)
(-0.0694473 0.663544 0)
(-0.0551112 0.701636 0)
(-0.0261699 0.740348 0)
(0.0214389 0.783653 0)
(0.0908353 0.81539 0)
(0.181399 0.829621 0)
(0.285503 0.807733 0)
(0.381868 0.743622 0)
(0.440644 0.630365 0)
(0.445536 0.507068 0)
(0.401507 0.407148 0)
(0.331867 0.368696 0)
(0.274007 0.385285 0)
(0.210846 0.397442 0)
(0.0309011 0.332204 0)
(-0.286276 0.13073 0)
(-0.613482 -0.113633 0)
(-0.00688783 0.574949 0)
(-0.0201043 0.578638 0)
(-0.0316791 0.586315 0)
(-0.0405332 0.59766 0)
(-0.0453032 0.612408 0)
(-0.0445376 0.632229 0)
(-0.0364149 0.65325 0)
(-0.0188287 0.67982 0)
(0.0104454 0.703625 0)
(0.05347 0.729249 0)
(0.110813 0.742372 0)
(0.179604 0.742432 0)
(0.253836 0.715634 0)
(0.324691 0.667606 0)
(0.37982 0.591855 0)
(0.407486 0.512822 0)
(0.409616 0.44348 0)
(0.403204 0.408778 0)
(0.404331 0.402194 0)
(0.427008 0.421188 0)
(0.48036 0.43567 0)
(0.50461 0.321674 0)
(0.411084 0.118302 0)
(-0.00523974 0.58713 0)
(-0.0152181 0.589753 0)
(-0.0237362 0.595378 0)
(-0.0298679 0.603641 0)
(-0.03246 0.613808 0)
(-0.0302237 0.627792 0)
(-0.0216349 0.640869 0)
(-0.00506338 0.657846 0)
(0.0209638 0.669989 0)
(0.0576995 0.682688 0)
(0.104979 0.683745 0)
(0.16027 0.676309 0)
(0.218862 0.648217 0)
(0.273907 0.608442 0)
(0.319395 0.549851 0)
(0.352457 0.493753 0)
(0.372223 0.440508 0)
(0.384478 0.405843 0)
(0.401543 0.386806 0)
(0.433843 0.381274 0)
(0.482188 0.373319 0)
(0.528156 0.313398 0)
(0.553552 0.195016 0)
(-0.00392345 0.596331 0)
(-0.0113045 0.597983 0)
(-0.0173099 0.601728 0)
(-0.0210146 0.607158 0)
(-0.0213242 0.613187 0)
(-0.0171979 0.621997 0)
(-0.00756405 0.628326 0)
(0.00852543 0.637537 0)
(0.0318122 0.640706 0)
(0.0627434 0.64393 0)
(0.100916 0.636584 0)
(0.144549 0.624006 0)
(0.190667 0.59524 0)
(0.23554 0.560956 0)
(0.275249 0.511669 0)
(0.308313 0.465435 0)
(0.337236 0.419853 0)
(0.365025 0.386213 0)
(0.395305 0.358809 0)
(0.433928 0.33794 0)
(0.486345 0.315327 0)
(0.537882 0.273335 0)
(0.556266 0.191028 0)
(-0.00325834 0.603541 0)
(-0.00935084 0.604298 0)
(-0.0142006 0.606306 0)
(-0.0170429 0.609143 0)
(-0.0169807 0.611433 0)
(-0.0130702 0.615654 0)
(-0.00439101 0.616242 0)
(0.0095489 0.619416 0)
(0.0291125 0.615733 0)
(0.0545514 0.612219 0)
(0.0854342 0.598859 0)
(0.120633 0.582467 0)
(0.158167 0.552669 0)
(0.195782 0.520585 0)
(0.231105 0.476591 0)
(0.262915 0.435274 0)
(0.29222 0.391453 0)
(0.322217 0.356494 0)
(0.355964 0.324134 0)
(0.3943 0.295219 0)
(0.438094 0.261298 0)
(0.486684 0.226675 0)
(0.529457 0.17617 0)
(-0.00283946 0.609662 0)
(-0.00816674 0.609639 0)
(-0.0125114 0.61019 0)
(-0.0152555 0.610857 0)
(-0.0157595 0.610145 0)
(-0.0132334 0.610454 0)
(-0.00672912 0.606161 0)
(0.00425019 0.604429 0)
(0.0202647 0.594938 0)
(0.041334 0.586244 0)
(0.0669499 0.56802 0)
(0.0964003 0.548298 0)
(0.128073 0.517248 0)
(0.16072 0.485352 0)
(0.193001 0.443843 0)
(0.224309 0.40455 0)
(0.255329 0.36151 0)
(0.287356 0.324059 0)
(0.322856 0.286928 0)
(0.361887 0.25462 0)
(0.402401 0.217114 0)
(0.444183 0.179979 0)
(0.482076 0.141741 0)
(-0.00295038 0.615474 0)
(-0.00853509 0.61478 0)
(-0.0132694 0.614159 0)
(-0.0164966 0.612874 0)
(-0.0175125 0.609639 0)
(-0.0157549 0.606636 0)
(-0.0106998 0.598341 0)
(-0.00199297 0.592442 0)
(0.0107276 0.578022 0)
(0.0271617 0.565442 0)
(0.0471183 0.542992 0)
(0.0704104 0.520288 0)
(0.0960402 0.487635 0)
(0.123627 0.454395 0)
(0.15239 0.413415 0)
(0.182023 0.373692 0)
(0.212957 0.330064 0)
(0.2456 0.290469 0)
(0.281448 0.248767 0)
(0.32153 0.213225 0)
(0.364034 0.175023 0)
(0.40832 0.135516 0)
(0.455057 0.101095 0)
(-0.00342333 0.621873 0)
(-0.00997631 0.620566 0)
(-0.0157516 0.618922 0)
(-0.020213 0.615824 0)
(-0.0227908 0.610286 0)
(-0.0231283 0.604546 0)
(-0.0210226 0.593217 0)
(-0.0160442 0.583793 0)
(-0.00760415 0.565382 0)
(0.00439303 0.549484 0)
(0.0201701 0.523011 0)
(0.0396088 0.497295 0)
(0.0618751 0.462461 0)
(0.0865577 0.427005 0)
(0.113115 0.385172 0)
(0.141474 0.343616 0)
(0.172197 0.298135 0)
(0.205507 0.256074 0)
(0.242009 0.210405 0)
(0.282644 0.17042 0)
(0.326367 0.131119 0)
(0.37169 0.0893103 0)
(0.418616 0.0531135 0)
(-0.0042248 0.629553 0)
(-0.0124146 0.62769 0)
(-0.0198865 0.625099 0)
(-0.0261708 0.620433 0)
(-0.0308281 0.612934 0)
(-0.0334778 0.604884 0)
(-0.0338714 0.591141 0)
(-0.031542 0.578506 0)
(-0.026037 0.556634 0)
(-0.0172049 0.537276 0)
(-0.00510254 0.507175 0)
(0.00990885 0.478482 0)
(0.0277181 0.44097 0)
(0.0481514 0.403124 0)
(0.0712454 0.359121 0)
(0.0974109 0.314835 0)
(0.126957 0.266306 0)
(0.160296 0.220882 0)
(0.197683 0.171295 0)
(0.240008 0.126109 0)
(0.287165 0.0840456 0)
(0.338345 0.0393445 0)
(0.393561 0.000371338 0)
(-0.00533638 0.639157 0)
(-0.0158256 0.636848 0)
(-0.0256667 0.63333 0)
(-0.0344448 0.627329 0)
(-0.0418516 0.618151 0)
(-0.0474107 0.607904 0)
(-0.0508654 0.591974 0)
(-0.0518751 0.576331 0)
(-0.0502517 0.551628 0)
(-0.0457283 0.528841 0)
(-0.0381062 0.495766 0)
(-0.0273907 0.464012 0)
(-0.0131221 0.423175 0)
(0.00447267 0.382672 0)
(0.025543 0.335157 0)
(0.0503439 0.287544 0)
(0.0789982 0.23507 0)
(0.11226 0.185146 0)
(0.150353 0.131131 0)
(0.193976 0.0798494 0)
(0.243245 0.0333483 0)
(0.297861 -0.016336 0)
(0.357526 -0.0594594 0)
(-0.00681033 0.651361 0)
(-0.0203184 0.648754 0)
(-0.0331997 0.644252 0)
(-0.0450264 0.637106 0)
(-0.0556169 0.626451 0)
(-0.0644923 0.6141 0)
(-0.0714197 0.596201 0)
(-0.0760341 0.577743 0)
(-0.0782081 0.550754 0)
(-0.0776639 0.524605 0)
(-0.074112 0.488753 0)
(-0.0675691 0.45366 0)
(-0.0576688 0.409215 0)
(-0.0444076 0.365597 0)
(-0.0270326 0.313567 0)
(-0.00525002 0.262287 0)
(0.0212084 0.204904 0)
(0.053333 0.14956 0)
(0.0911563 0.09038 0)
(0.135448 0.0322008 0)
(0.187003 -0.0203802 0)
(0.246369 -0.0772118 0)
(0.313391 -0.12596 0)
(-0.00868087 0.666927 0)
(-0.0259901 0.664154 0)
(-0.0427302 0.658615 0)
(-0.0584671 0.650437 0)
(-0.0730497 0.638411 0)
(-0.086011 0.624077 0)
(-0.0971688 0.60439 0)
(-0.106169 0.583225 0)
(-0.112933 0.554242 0)
(-0.117253 0.524898 0)
(-0.118688 0.486318 0)
(-0.11694 0.447744 0)
(-0.111496 0.399689 0)
(-0.102084 0.352314 0)
(-0.0882291 0.295438 0)
(-0.0699082 0.240084 0)
(-0.0462058 0.176665 0)
(-0.0161012 0.115224 0)
(0.0204432 0.0499375 0)
(0.0642375 -0.0159263 0)
(0.115831 -0.0759656 0)
(0.176205 -0.142017 0)
(0.245571 -0.198281 0)
(-0.0108801 0.686584 0)
(-0.0326021 0.68372 0)
(-0.0538108 0.677184 0)
(-0.0741165 0.668087 0)
(-0.0933798 0.654772 0)
(-0.111204 0.63865 0)
(-0.127453 0.617354 0)
(-0.141766 0.593683 0)
(-0.153966 0.562835 0)
(-0.163747 0.530465 0)
(-0.170752 0.48922 0)
(-0.174863 0.447201 0)
(-0.175877 0.395762 0)
(-0.173393 0.344267 0)
(-0.166611 0.282723 0)
(-0.154842 0.222534 0)
(-0.137254 0.152689 0)
(-0.113111 0.0846482 0)
(-0.0808467 0.0113239 0)
(-0.0393318 -0.0630898 0)
(0.0116332 -0.13192 0)
(0.0734671 -0.208934 0)
(0.145971 -0.274003 0)
(-0.0134726 0.711058 0)
(-0.0403651 0.708103 0)
(-0.066832 0.700715 0)
(-0.0925348 0.690794 0)
(-0.117261 0.676274 0)
(-0.140663 0.658579 0)
(-0.162596 0.635794 0)
(-0.18275 0.609877 0)
(-0.200976 0.577213 0)
(-0.217017 0.542032 0)
(-0.23065 0.498386 0)
(-0.241545 0.453105 0)
(-0.249 0.398356 0)
(-0.252322 0.3425 0)
(-0.251277 0.276607 0)
(-0.245312 0.210807 0)
(-0.233355 0.134699 0)
(-0.21419 0.0590849 0)
(-0.186657 -0.0232429 0)
(-0.151191 -0.105927 0)
(-0.106574 -0.185186 0)
(-0.0509274 -0.273785 0)
(0.0151889 -0.34852 0)
(-0.0161834 0.740864 0)
(-0.0484824 0.737788 0)
(-0.0804966 0.729807 0)
(-0.112013 0.71921 0)
(-0.142823 0.703673 0)
(-0.172665 0.684691 0)
(-0.20134 0.660543 0)
(-0.228515 0.632693 0)
(-0.254008 0.598332 0)
(-0.277501 0.560642 0)
(-0.298706 0.514783 0)
(-0.317262 0.466301 0)
(-0.332954 0.408415 0)
(-0.345293 0.34817 0)
(-0.353304 0.277924 0)
(-0.355273 0.205456 0)
(-0.350557 0.123272 0)
(-0.339448 0.040061 0)
(-0.322789 -0.0486601 0)
(-0.29976 -0.139331 0)
(-0.26527 -0.231322 0)
(-0.218751 -0.330368 0)
(-0.160887 -0.416585 0)
(-0.0191723 0.7764 0)
(-0.0574213 0.773159 0)
(-0.0954389 0.764824 0)
(-0.133048 0.753671 0)
(-0.170012 0.737329 0)
(-0.206135 0.717335 0)
(-0.241213 0.691975 0)
(-0.274975 0.662507 0)
(-0.30726 0.626587 0)
(-0.337755 0.586647 0)
(-0.366192 0.538667 0)
(-0.392095 0.487096 0)
(-0.414858 0.426261 0)
(-0.433777 0.361732 0)
(-0.448472 0.287171 0)
(-0.459094 0.20885 0)
(-0.466778 0.122845 0)
(-0.473522 0.0360838 0)
(-0.475743 -0.0592112 0)
(-0.463441 -0.164312 0)
(-0.432863 -0.271765 0)
(-0.387837 -0.381967 0)
(-0.327892 -0.48343 0)
(-0.0220666 0.817851 0)
(-0.0661625 0.814476 0)
(-0.110251 0.806034 0)
(-0.154257 0.794496 0)
(-0.197984 0.777608 0)
(-0.241258 0.75686 0)
(-0.28381 0.730478 0)
(-0.325324 0.699663 0)
(-0.365529 0.662289 0)
(-0.404083 0.620345 0)
(-0.44076 0.570412 0)
(-0.475334 0.516134 0)
(-0.507535 0.452462 0)
(-0.536847 0.384001 0)
(-0.563658 0.30661 0)
(-0.590268 0.226826 0)
(-0.618125 0.140584 0)
(-0.637487 0.0445737 0)
(-0.634907 -0.0680761 0)
(-0.611264 -0.191596 0)
(-0.572459 -0.314244 0)
(-0.519842 -0.43766 0)
(-0.451669 -0.556544 0)
(-0.0250102 0.86517 0)
(-0.0749627 0.86169 0)
(-0.124841 0.85327 0)
(-0.17457 0.841478 0)
(-0.224002 0.824264 0)
(-0.273032 0.802983 0)
(-0.32147 0.775812 0)
(-0.369103 0.743933 0)
(-0.415696 0.705263 0)
(-0.460911 0.66157 0)
(-0.504484 0.609846 0)
(-0.54617 0.553349 0)
(-0.58652 0.488165 0)
(-0.627602 0.419048 0)
(-0.672914 0.344053 0)
(-0.72197 0.265435 0)
(-0.759564 0.167757 0)
(-0.766808 0.0441315 0)
(-0.747106 -0.090046 0)
(-0.714615 -0.22607 0)
(-0.670307 -0.363333 0)
(-0.610645 -0.501453 0)
(-0.534372 -0.63797 0)
(-0.0281247 0.91858 0)
(-0.0843864 0.915044 0)
(-0.140753 0.906711 0)
(-0.197202 0.894765 0)
(-0.253603 0.877357 0)
(-0.309815 0.855677 0)
(-0.365603 0.827883 0)
(-0.420759 0.79518 0)
(-0.475187 0.755558 0)
(-0.529013 0.710825 0)
(-0.582815 0.658466 0)
(-0.637632 0.601729 0)
(-0.694143 0.537143 0)
(-0.752442 0.469962 0)
(-0.810721 0.397266 0)
(-0.853948 0.304981 0)
(-0.863237 0.175329 0)
(-0.847117 0.0276247 0)
(-0.822226 -0.118377 0)
(-0.785976 -0.266852 0)
(-0.733624 -0.419729 0)
(-0.665228 -0.5738 0)
(-0.582031 -0.725943 0)
(-0.0302728 0.97728 0)
(-0.0909087 0.973847 0)
(-0.151803 0.965776 0)
(-0.212909 0.953864 0)
(-0.2741 0.936458 0)
(-0.335297 0.914591 0)
(-0.396343 0.886409 0)
(-0.457084 0.853151 0)
(-0.517419 0.812944 0)
(-0.577551 0.767986 0)
(-0.638448 0.716596 0)
(-0.702547 0.66313 0)
(-0.773933 0.604302 0)
(-0.851506 0.539382 0)
(-0.91367 0.448913 0)
(-0.933214 0.316424 0)
(-0.92079 0.160724 0)
(-0.901035 0.00615779 0)
(-0.87043 -0.152706 0)
(-0.822391 -0.317264 0)
(-0.760134 -0.484538 0)
(-0.686851 -0.651426 0)
(-0.605414 -0.813829 0)
(-0.0343011 1.04219 0)
(-0.102756 1.0387 0)
(-0.171026 1.03076 0)
(-0.239327 1.01896 0)
(-0.307743 1.00164 0)
(-0.376239 0.979773 0)
(-0.444907 0.951614 0)
(-0.513991 0.918446 0)
(-0.583925 0.878593 0)
(-0.65537 0.834595 0)
(-0.729484 0.785698 0)
(-0.806791 0.73617 0)
(-0.885781 0.68242 0)
(-0.952578 0.606384 0)
(-0.981621 0.473587 0)
(-0.975159 0.304891 0)
(-0.95761 0.142118 0)
(-0.929619 -0.023239 0)
(-0.885159 -0.198776 0)
(-0.829332 -0.375615 0)
(-0.765474 -0.552975 0)
(-0.6958 -0.726709 0)
(-0.620911 -0.895705 0)
(-0.0350212 1.11187 0)
(-0.105164 1.10834 0)
(-0.175661 1.10061 0)
(-0.246825 1.0893 0)
(-0.318795 1.07242 0)
(-0.39142 1.05085 0)
(-0.464622 1.02315 0)
(-0.538754 0.990875 0)
(-0.614848 0.952951 0)
(-0.694868 0.91249 0)
(-0.780911 0.868796 0)
(-0.872608 0.82296 0)
(-0.957047 0.759913 0)
(-1.0031 0.642327 0)
(-1.00327 0.466999 0)
(-0.987352 0.288978 0)
(-0.964721 0.117635 0)
(-0.926056 -0.0657663 0)
(-0.876092 -0.251175 0)
(-0.820033 -0.435696 0)
(-0.758633 -0.618818 0)
(-0.692721 -0.797174 0)
(-0.622462 -0.97116 0)
(-0.0393369 1.18662 0)
(-0.118254 1.18343 0)
(-0.197596 1.17614 0)
(-0.277003 1.16513 0)
(-0.35633 1.14868 0)
(-0.436063 1.12774 0)
(-0.516577 1.10077 0)
(-0.59822 1.06984 0)
(-0.682193 1.03489 0)
(-0.770693 0.999952 0)
(-0.864665 0.962291 0)
(-0.956894 0.914353 0)
(-1.02081 0.817643 0)
(-1.03504 0.645195 0)
(-1.01913 0.448302 0)
(-0.993954 0.266359 0)
(-0.956185 0.0795336 0)
(-0.908504 -0.114469 0)
(-0.856247 -0.305236 0)
(-0.79989 -0.494647 0)
(-0.740526 -0.681274 0)
(-0.678098 -0.863741 0)
(-0.612949 -1.04072 0)
(-0.0392641 1.26563 0)
(-0.118072 1.26297 0)
(-0.197596 1.2563 0)
(-0.277989 1.24561 0)
(-0.359539 1.22992 0)
(-0.442779 1.21033 0)
(-0.528191 1.18498 0)
(-0.616191 1.15616 0)
(-0.707847 1.12511 0)
(-0.803874 1.09522 0)
(-0.902205 1.06033 0)
(-0.986512 0.993769 0)
(-1.02597 0.842128 0)
(-1.02037 0.629388 0)
(-0.999156 0.426791 0)
(-0.968728 0.23197 0)
(-0.925342 0.0323407 0)
(-0.875787 -0.165026 0)
(-0.823636 -0.359639 0)
(-0.76928 -0.551545 0)
(-0.713358 -0.740276 0)
(-0.655803 -0.925361 0)
(-0.596301 -1.10442 0)
(-0.0428335 1.34816 0)
(-0.128912 1.34619 0)
(-0.216158 1.34072 0)
(-0.305212 1.33152 0)
(-0.39631 1.31756 0)
(-0.489061 1.29961 0)
(-0.583409 1.2764 0)
(-0.68057 1.25086 0)
(-0.781743 1.22425 0)
(-0.884276 1.19569 0)
(-0.977311 1.15224 0)
(-1.03433 1.04393 0)
(-1.04058 0.837904 0)
(-1.01773 0.60502 0)
(-0.984024 0.395947 0)
(-0.94021 0.188182 0)
(-0.890183 -0.0177776 0)
(-0.83797 -0.217213 0)
(-0.785084 -0.413045 0)
(-0.732248 -0.605901 0)
(-0.679076 -0.795593 0)
(-0.62548 -0.981786 0)
(-0.570926 -1.16266 0)
(-0.0427041 1.43415 0)
(-0.128379 1.43286 0)
(-0.214886 1.42872 0)
(-0.302791 1.42141 0)
(-0.392513 1.40943 0)
(-0.484453 1.39339 0)
(-0.579431 1.37294 0)
(-0.678731 1.35182 0)
(-0.782458 1.32927 0)
(-0.886126 1.29796 0)
(-0.973378 1.2312 0)
(-1.01416 1.06328 0)
(-1.00566 0.81629 0)
(-0.978359 0.576223 0)
(-0.942941 0.355257 0)
(-0.897353 0.139002 0)
(-0.847829 -0.0686733 0)
(-0.797417 -0.269483 0)
(-0.74707 -0.464553 0)
(-0.697535 -0.657308 0)
(-0.648083 -0.847355 0)
(-0.598263 -1.03399 0)
(-0.547693 -1.21614 0)
(-0.0452421 1.52255 0)
(-0.136251 1.52206 0)
(-0.228854 1.51956 0)
(-0.324098 1.51468 0)
(-0.422816 1.5056 0)
(-0.525524 1.49289 0)
(-0.631909 1.47586 0)
(-0.740778 1.45817 0)
(-0.849492 1.43648 0)
(-0.94946 1.39546 0)
(-1.01662 1.28893 0)
(-1.02958 1.05959 0)
(-1.00307 0.78478 0)
(-0.961861 0.538864 0)
(-0.912814 0.307712 0)
(-0.859384 0.0870106 0)
(-0.80633 -0.119798 0)
(-0.755747 -0.319885 0)
(-0.706848 -0.513921 0)
(-0.659113 -0.705727 0)
(-0.612181 -0.895833 0)
(-0.565242 -1.08279 0)
(-0.517911 -1.26577 0)
(-0.0455631 1.61384 0)
(-0.136975 1.61416 0)
(-0.22923 1.61329 0)
(-0.322964 1.61091 0)
(-0.418703 1.60484 0)
(-0.516983 1.5957 0)
(-0.618166 1.58171 0)
(-0.722615 1.56676 0)
(-0.828368 1.54349 0)
(-0.923935 1.48501 0)
(-0.980358 1.32361 0)
(-0.981233 1.03882 0)
(-0.951564 0.749065 0)
(-0.912496 0.493886 0)
(-0.865636 0.256284 0)
(-0.816554 0.035389 0)
(-0.767903 -0.170415 0)
(-0.720803 -0.367466 0)
(-0.6759 -0.560638 0)