/*--------------------------------*- C++ -*----------------------------------*\
| =========                 |                                                 |
| \\      /  F ield         | OpenFOAM: The Open Source CFD Toolbox           |
|  \\    /   O peration     | Version:  2012                                  |
|   \\  /    A nd           | Website:  www.openfoam.com                      |
|    \\/     M anipulation  |                                                 |
\*---------------------------------------------------------------------------*/
FoamFile
{
    version     2.0;
    format      ascii;
    class       volScalarField;
    location    "2220";
    object      maxKappa;
}
// * * * * * * * * * * * * * * * * * * * * * * * * * * * * * * * * * * * * * //

dimensions      [0 0 0 0 0 0 0];


internalField   nonuniform List<scalar> 
20400
(
3.41796e-12
7.74033e-12
2.52349e-11
5.6719e-11
1.0007e-10
1.50815e-10
2.078e-10
2.67987e-10
3.29843e-10
3.9283e-10
4.55315e-10
5.18222e-10
5.80514e-10
6.42489e-10
7.04005e-10
7.65155e-10
8.25947e-10
8.86393e-10
9.46525e-10
1.0062e-09
1.06531e-09
1.12387e-09
1.18191e-09
1.23942e-09
1.29638e-09
1.35279e-09
1.40866e-09
1.46398e-09
1.5188e-09
1.57314e-09
1.62703e-09
1.68046e-09
1.73338e-09
1.78556e-09
1.83695e-09
1.88867e-09
1.94015e-09
1.99112e-09
2.04175e-09
2.09191e-09
2.14164e-09
2.19092e-09
2.23976e-09
2.28819e-09
2.3362e-09
2.38381e-09
2.43104e-09
2.47791e-09
2.52443e-09
2.57063e-09
2.61652e-09
2.66215e-09
2.70753e-09
2.7527e-09
2.79768e-09
2.84242e-09
2.88701e-09
2.93122e-09
2.97503e-09
3.01858e-09
3.06123e-09
3.10396e-09
3.14592e-09
3.18796e-09
3.22979e-09
3.27153e-09
3.31314e-09
3.35461e-09
3.39593e-09
3.43709e-09
3.47809e-09
3.51891e-09
3.55955e-09
3.60001e-09
3.64029e-09
3.68038e-09
3.72028e-09
3.75998e-09
3.79949e-09
3.83878e-09
3.87787e-09
3.91673e-09
3.95539e-09
3.99376e-09
4.03183e-09
4.06943e-09
4.10671e-09
4.1441e-09
4.18114e-09
4.21774e-09
4.25392e-09
4.28935e-09
4.32423e-09
4.35823e-09
4.39193e-09
4.42463e-09
4.45692e-09
4.48796e-09
4.51843e-09
4.54742e-09
4.57579e-09
4.60218e-09
4.62783e-09
4.65094e-09
4.67353e-09
4.69289e-09
4.71157e-09
4.72643e-09
4.74027e-09
4.75037e-09
4.75974e-09
4.76375e-09
4.7665e-09
4.76335e-09
4.76597e-09
4.7611e-09
4.757e-09
4.74431e-09
4.73227e-09
4.71135e-09
4.69094e-09
4.66134e-09
4.6325e-09
4.59385e-09
4.55652e-09
4.50834e-09
4.46247e-09
4.40432e-09
4.34965e-09
4.28113e-09
4.21615e-09
4.13701e-09
4.0595e-09
3.97045e-09
3.87667e-09
3.77486e-09
3.66958e-09
3.55732e-09
3.44138e-09
3.32046e-09
3.19515e-09
3.06461e-09
2.92971e-09
2.78927e-09
2.64179e-09
2.49297e-09
2.32192e-09
2.16491e-09
1.98825e-09
1.82696e-09
1.68714e-09
1.54073e-09
1.38212e-09
1.2252e-09
1.06066e-09
8.94883e-10
7.34202e-10
5.63605e-10
4.51193e-10
3.75184e-10
2.95238e-10
3.48843e-10
4.16209e-10
5.27126e-10
6.75266e-10
8.43029e-10
9.94187e-10
1.15942e-09
1.30634e-09
1.46614e-09
1.60756e-09
1.76018e-09
1.89544e-09
2.03973e-09
2.16834e-09
2.30359e-09
2.42515e-09
2.55093e-09
2.66506e-09
2.78106e-09
2.88737e-09
2.99385e-09
3.09185e-09
3.18889e-09
3.27853e-09
3.36628e-09
3.44754e-09
3.52633e-09
3.59932e-09
3.66946e-09
3.73442e-09
3.79625e-09
3.85351e-09
3.90746e-09
3.95744e-09
4.00398e-09
4.04701e-09
4.08666e-09
4.12305e-09
4.15637e-09
4.18668e-09
4.21409e-09
4.23874e-09
4.26068e-09
4.28019e-09
4.29714e-09
4.31197e-09
4.32444e-09
4.33499e-09
4.34346e-09
4.35018e-09
4.35508e-09
4.35846e-09
4.36033e-09
4.36076e-09
4.3597e-09
4.35722e-09
4.35381e-09
4.34905e-09
4.34361e-09
4.33692e-09
4.32987e-09
4.32156e-09
4.31318e-09
4.30356e-09
4.29408e-09
4.28339e-09
4.2731e-09
4.26156e-09
4.25064e-09
4.23853e-09
4.22718e-09
4.21469e-09
4.20307e-09
4.19038e-09
4.17862e-09
4.16592e-09
4.15413e-09
4.14157e-09
4.12984e-09
4.11761e-09
4.10598e-09
4.09427e-09
4.08279e-09
4.07158e-09
4.06043e-09
4.0497e-09
4.039e-09
4.02882e-09
4.01864e-09
4.00909e-09
3.9995e-09
3.9906e-09
3.98163e-09
3.97339e-09
3.96507e-09
3.95752e-09
3.94986e-09
3.943e-09
3.93601e-09
3.92986e-09
3.92355e-09
3.9181e-09
3.91248e-09
3.90773e-09
3.90281e-09
3.89875e-09
3.89452e-09
3.89113e-09
3.88759e-09
3.88486e-09
3.882e-09
3.8799e-09
3.87772e-09
3.87622e-09
3.8747e-09
3.87376e-09
3.8729e-09
3.87255e-09
3.87229e-09
3.87244e-09
3.87279e-09
3.87351e-09
3.87439e-09
3.8756e-09
3.87702e-09
3.87874e-09
3.88065e-09
3.88282e-09
3.88518e-09
3.88778e-09
3.89058e-09
3.8936e-09
3.89681e-09
3.90024e-09
3.90376e-09
3.90764e-09
3.91142e-09
3.91571e-09
3.91973e-09
3.92438e-09
3.92862e-09
3.93358e-09
3.93805e-09
3.9433e-09
3.94799e-09
3.95349e-09
3.95838e-09
3.9641e-09
3.96919e-09
3.97512e-09
3.98038e-09
3.9865e-09
3.99192e-09
3.99819e-09
4.00375e-09
4.01015e-09
4.01583e-09
4.02233e-09
4.02811e-09
4.0347e-09
4.04057e-09
4.04723e-09
4.05317e-09
4.05989e-09
4.06588e-09
4.07263e-09
4.07867e-09
4.08544e-09
4.09151e-09
4.09829e-09
4.10438e-09
4.11115e-09
4.11725e-09
4.12401e-09
4.13011e-09
4.13683e-09
4.14293e-09
4.1496e-09
4.15569e-09
4.1623e-09
4.16839e-09
4.17492e-09
4.18099e-09
4.18743e-09
4.19349e-09
4.19984e-09
4.20588e-09
4.21212e-09
4.21813e-09
4.22427e-09
4.23024e-09
4.23626e-09
4.24219e-09
4.24811e-09
4.25398e-09
4.2598e-09
4.26559e-09
4.27133e-09
4.27702e-09
4.28268e-09
4.28828e-09
4.29384e-09
4.29935e-09
4.30482e-09
4.31024e-09
4.31561e-09
4.32094e-09
4.32621e-09
4.33144e-09
4.33662e-09
4.34175e-09
4.34684e-09
4.35187e-09
4.35686e-09
4.3618e-09
4.36669e-09
4.37153e-09
4.37633e-09
4.38108e-09
4.38578e-09
4.39043e-09
4.39504e-09
4.3996e-09
4.40411e-09
4.40858e-09
4.413e-09
4.41738e-09
4.42171e-09
4.42599e-09
4.43023e-09
4.43443e-09
4.43858e-09
4.44269e-09
4.44676e-09
4.45078e-09
4.45476e-09
4.4587e-09
4.46259e-09
4.46644e-09
4.47026e-09
4.47403e-09
4.47776e-09
4.48144e-09
4.48509e-09
4.4887e-09
4.49227e-09
4.4958e-09
4.49929e-09
4.50274e-09
4.50616e-09
4.50953e-09
4.51287e-09
4.51617e-09
4.51944e-09
4.52267e-09
4.52586e-09
4.52902e-09
4.53214e-09
4.53522e-09
4.53828e-09
4.54129e-09
4.54428e-09
4.54723e-09
4.55015e-09
4.55303e-09
4.55589e-09
4.55871e-09
4.5615e-09
4.56426e-09
4.56698e-09
4.56968e-09
4.57235e-09
4.57499e-09
4.5776e-09
4.58018e-09
4.58274e-09
4.58526e-09
4.58776e-09
4.59023e-09
4.59267e-09
4.59509e-09
4.59748e-09
4.59985e-09
4.60219e-09
4.6045e-09
4.60679e-09
4.60906e-09
4.6113e-09
4.61352e-09
4.61571e-09
4.61788e-09
4.62003e-09
4.62216e-09
4.62426e-09
4.62634e-09
4.6284e-09
4.63043e-09
4.63245e-09
4.63444e-09
4.63641e-09
4.63836e-09
4.64029e-09
4.64219e-09
4.64408e-09
4.64595e-09
4.64779e-09
4.64962e-09
4.65143e-09
4.65321e-09
4.65498e-09
4.65673e-09
4.65845e-09
4.66016e-09
4.66185e-09
4.66352e-09
4.66517e-09
4.6668e-09
4.66841e-09
4.67001e-09
4.67158e-09
4.67314e-09
4.67468e-09
4.67619e-09
4.6777e-09
4.67917e-09
4.68065e-09
4.68206e-09
4.68353e-09
4.68486e-09
4.68635e-09
4.68757e-09
4.68911e-09
4.69017e-09
4.69182e-09
4.69265e-09
4.69453e-09
4.695e-09
4.69742e-09
4.69718e-09
7.76298e-12
3.08277e-11
8.36334e-11
1.54055e-10
2.40639e-10
3.38598e-10
4.46057e-10
5.59032e-10
6.75534e-10
7.93879e-10
9.12376e-10
1.03114e-09
1.14902e-09
1.26613e-09
1.38225e-09
1.49737e-09
1.61148e-09
1.72453e-09
1.83636e-09
1.947e-09
2.05662e-09
2.16513e-09
2.27259e-09
2.37891e-09
2.4841e-09
2.58814e-09
2.69103e-09
2.79278e-09
2.89342e-09
2.99297e-09
3.09147e-09
3.18889e-09
3.28527e-09
3.38062e-09
3.47519e-09
3.5689e-09
3.66096e-09
3.75224e-09
3.84253e-09
3.93182e-09
4.02011e-09
4.10744e-09
4.19381e-09
4.27936e-09
4.36408e-09
4.44803e-09
4.53122e-09
4.61366e-09
4.69535e-09
4.77631e-09
4.85654e-09
4.93607e-09
5.01492e-09
5.09307e-09
5.17061e-09
5.24735e-09
5.32367e-09
5.39921e-09
5.47489e-09
5.54935e-09
5.62315e-09
5.69678e-09
5.76961e-09
5.84196e-09
5.91366e-09
5.98476e-09
6.05526e-09
6.12516e-09
6.1945e-09
6.26327e-09
6.33147e-09
6.39909e-09
6.46615e-09
6.5326e-09
6.59848e-09
6.66372e-09
6.72836e-09
6.79234e-09
6.85567e-09
6.91827e-09
6.9802e-09
7.0413e-09
7.10168e-09
7.1611e-09
7.21974e-09
7.27745e-09
7.33454e-09
7.3902e-09
7.4447e-09
7.49748e-09
7.54949e-09
7.60005e-09
7.64963e-09
7.69738e-09
7.74341e-09
7.78705e-09
7.82972e-09
7.86967e-09
7.90817e-09
7.94341e-09
7.977e-09
8.00695e-09
8.03471e-09
8.05823e-09
8.07981e-09
8.09587e-09
8.11038e-09
8.11835e-09
8.12511e-09
8.12461e-09
8.12391e-09
8.11322e-09
8.10257e-09
8.07799e-09
8.05462e-09
8.01967e-09
7.98364e-09
7.93633e-09
7.88719e-09
7.82598e-09
7.76253e-09
7.6862e-09
7.60777e-09
7.5155e-09
7.42149e-09
7.31244e-09
7.20212e-09
7.07546e-09
6.9472e-09
6.80182e-09
6.64926e-09
6.48562e-09
6.31129e-09
6.12843e-09
5.94205e-09
5.76e-09
5.57357e-09
5.36432e-09
5.15463e-09
4.92709e-09
4.70004e-09
4.45791e-09
4.2162e-09
3.961e-09
3.70497e-09
3.44295e-09
3.17515e-09
2.92677e-09
2.67607e-09
2.42391e-09
2.2094e-09
2.02031e-09
1.81633e-09
1.60049e-09
1.37993e-09
1.15768e-09
9.44282e-10
7.62135e-10
7.92175e-10
8.67786e-10
1.06346e-09
1.33225e-09
1.60414e-09
1.89508e-09
2.16823e-09
2.45695e-09
2.72485e-09
3.00687e-09
3.26662e-09
3.53887e-09
3.7891e-09
4.0496e-09
4.28924e-09
4.53643e-09
4.76467e-09
4.99735e-09
5.21347e-09
5.43089e-09
5.63411e-09
5.83598e-09
6.0255e-09
6.21202e-09
6.38719e-09
6.55836e-09
6.71904e-09
6.87497e-09
7.0212e-09
7.16221e-09
7.29421e-09
7.42067e-09
7.5388e-09
7.65123e-09
7.75597e-09
7.855e-09
7.9469e-09
8.0332e-09
8.11296e-09
8.18722e-09
8.25556e-09
8.31845e-09
8.37603e-09
8.42847e-09
8.47595e-09
8.51871e-09
8.55685e-09
8.59068e-09
8.62025e-09
8.64595e-09
8.66772e-09
8.68603e-09
8.70073e-09
8.71238e-09
8.72087e-09
8.72654e-09
8.72955e-09
8.72996e-09
8.72752e-09
8.72301e-09
8.71632e-09
8.70796e-09
8.69762e-09
8.68598e-09
8.67248e-09
8.65802e-09
8.64185e-09
8.62505e-09
8.60671e-09
8.58808e-09
8.56797e-09
8.5479e-09
8.52647e-09
8.50533e-09
8.48293e-09
8.46106e-09
8.43802e-09
8.41569e-09
8.39235e-09
8.3698e-09
8.34643e-09
8.32387e-09
8.30076e-09
8.27832e-09
8.25583e-09
8.23364e-09
8.2118e-09
8.19013e-09
8.16903e-09
8.14805e-09
8.12782e-09
8.10771e-09
8.08848e-09
8.06934e-09
8.05115e-09
8.03306e-09
8.01598e-09
7.999e-09
7.98308e-09
7.96726e-09
7.95254e-09
7.93791e-09
7.92442e-09
7.91102e-09
7.89877e-09
7.88661e-09
7.87561e-09
7.8647e-09
7.85495e-09
7.84528e-09
7.83677e-09
7.82835e-09
7.82105e-09
7.81386e-09
7.80775e-09
7.80178e-09
7.79681e-09
7.79205e-09
7.7882e-09
7.78459e-09
7.78185e-09
7.77934e-09
7.77762e-09
7.7762e-09
7.77555e-09
7.77515e-09
7.77541e-09
7.77606e-09
7.77726e-09
7.77887e-09
7.78091e-09
7.78338e-09
7.78626e-09
7.78957e-09
7.79328e-09
7.79737e-09
7.80186e-09
7.80663e-09
7.81188e-09
7.81726e-09
7.82324e-09
7.82918e-09
7.83581e-09
7.84226e-09
7.84949e-09
7.85644e-09
7.86421e-09
7.87163e-09
7.87989e-09
7.88774e-09
7.89646e-09
7.90473e-09
7.91387e-09
7.92251e-09
7.93203e-09
7.94101e-09
7.95085e-09
7.96013e-09
7.97026e-09
7.9798e-09
7.99018e-09
7.99995e-09
8.01054e-09
8.02051e-09
8.03127e-09
8.04142e-09
8.05233e-09
8.06262e-09
8.07365e-09
8.08405e-09
8.09517e-09
8.10565e-09
8.11684e-09
8.1274e-09
8.13862e-09
8.14922e-09
8.16047e-09
8.1711e-09
8.18234e-09
8.19298e-09
8.20419e-09
8.21483e-09
8.22599e-09
8.23662e-09
8.2477e-09
8.25831e-09
8.26929e-09
8.27987e-09
8.29074e-09
8.30128e-09
8.31202e-09
8.32251e-09
8.33311e-09
8.34354e-09
8.35398e-09
8.36433e-09
8.37464e-09
8.38488e-09
8.39505e-09
8.40516e-09
8.4152e-09
8.42517e-09
8.43507e-09
8.4449e-09
8.45466e-09
8.46434e-09
8.47394e-09
8.48347e-09
8.49293e-09
8.5023e-09
8.5116e-09
8.52082e-09
8.52996e-09
8.53902e-09
8.548e-09
8.5569e-09
8.56572e-09
8.57446e-09
8.58312e-09
8.5917e-09
8.6002e-09
8.60862e-09
8.61697e-09
8.62523e-09
8.63341e-09
8.64151e-09
8.64953e-09
8.65748e-09
8.66534e-09
8.67313e-09
8.68084e-09
8.68847e-09
8.69603e-09
8.70351e-09
8.71091e-09
8.71824e-09
8.72549e-09
8.73267e-09
8.73977e-09
8.7468e-09
8.75376e-09
8.76064e-09
8.76745e-09
8.77419e-09
8.78085e-09
8.78745e-09
8.79397e-09
8.80043e-09
8.80681e-09
8.81313e-09
8.81938e-09
8.82556e-09
8.83167e-09
8.83771e-09
8.84369e-09
8.84961e-09
8.85546e-09
8.86124e-09
8.86696e-09
8.87262e-09
8.87821e-09
8.88375e-09
8.88922e-09
8.89463e-09
8.89999e-09
8.90528e-09
8.91051e-09
8.91569e-09
8.92081e-09
8.92588e-09
8.93089e-09
8.93584e-09
8.94074e-09
8.94558e-09
8.95038e-09
8.95512e-09
8.95981e-09
8.96444e-09
8.96903e-09
8.97357e-09
8.97806e-09
8.9825e-09
8.98689e-09
8.99124e-09
8.99554e-09
8.99979e-09
9.004e-09
9.00817e-09
9.01229e-09
9.01636e-09
9.02039e-09
9.02438e-09
9.02833e-09
9.03223e-09
9.0361e-09
9.03992e-09
9.0437e-09
9.04744e-09
9.05115e-09
9.05481e-09
9.05843e-09
9.06202e-09
9.06557e-09
9.06907e-09
9.07254e-09
9.07598e-09
9.07938e-09
9.08273e-09
9.08606e-09
9.08934e-09
9.0926e-09
9.09581e-09
9.09899e-09
9.10213e-09
9.10524e-09
9.10832e-09
9.11136e-09
9.11436e-09
9.11733e-09
9.12027e-09
9.12317e-09
9.12604e-09
9.12888e-09
9.13168e-09
9.13445e-09
9.13718e-09
9.13989e-09
9.14254e-09
9.1452e-09
9.14776e-09
9.15038e-09
9.15284e-09
9.15544e-09
9.15776e-09
9.16038e-09
9.16251e-09
9.1652e-09
9.16707e-09
9.16994e-09
9.1714e-09
9.1746e-09
9.17534e-09
2.72838e-11
8.52223e-11
1.73192e-10
2.86901e-10
4.1719e-10
5.59833e-10
7.12773e-10
8.72311e-10
1.03618e-09
1.20243e-09
1.36964e-09
1.53689e-09
1.70295e-09
1.86759e-09
2.0306e-09
2.19189e-09
2.35137e-09
2.50883e-09
2.66407e-09
2.81713e-09
2.96834e-09
3.11762e-09
3.26496e-09
3.41034e-09
3.55373e-09
3.69513e-09
3.83457e-09
3.97207e-09
4.10773e-09
4.24155e-09
4.37366e-09
4.50399e-09
4.63281e-09
4.76024e-09
4.8865e-09
5.01025e-09
5.1329e-09
5.25408e-09
5.37385e-09
5.49218e-09
5.60903e-09
5.72447e-09
5.8384e-09
5.95095e-09
6.06207e-09
6.17183e-09
6.28025e-09
6.38737e-09
6.49323e-09
6.59787e-09
6.70132e-09
6.80363e-09
6.90484e-09
7.00498e-09
7.10416e-09
7.20227e-09
7.29966e-09
7.39591e-09
7.49157e-09
7.58497e-09
7.67595e-09
7.76633e-09
7.85502e-09
7.94318e-09
8.03034e-09
8.11672e-09
8.20215e-09
8.28658e-09
8.36999e-09
8.45233e-09
8.53359e-09
8.61371e-09
8.69271e-09
8.77051e-09
8.84713e-09
8.92248e-09
8.99661e-09
9.06939e-09
9.14086e-09
9.21087e-09
9.27954e-09
9.34661e-09
9.41228e-09
9.47622e-09
9.53864e-09
9.59912e-09
9.65774e-09
9.71438e-09
9.76942e-09
9.82173e-09
9.87216e-09
9.9194e-09
9.96495e-09
1.00069e-08
1.00467e-08
1.00822e-08
1.01154e-08
1.01437e-08
1.01699e-08
1.01906e-08
1.02089e-08
1.0221e-08
1.02301e-08
1.02318e-08
1.02316e-08
1.02221e-08
1.02107e-08
1.0189e-08
1.01649e-08
1.01292e-08
1.00861e-08
1.00389e-08
9.97566e-09
9.91321e-09
9.85803e-09
9.77747e-09
9.69791e-09
9.59887e-09
9.49919e-09
9.38216e-09
9.26295e-09
9.12677e-09
8.98782e-09
8.83168e-09
8.67297e-09
8.49586e-09
8.31735e-09
8.11869e-09
7.9201e-09
7.71492e-09
7.51199e-09
7.29635e-09
7.06646e-09
6.82603e-09
6.58844e-09
6.36815e-09
6.16303e-09
5.93766e-09
5.69539e-09
5.43897e-09
5.17075e-09
4.89379e-09
4.60887e-09
4.31826e-09
4.02365e-09
3.72888e-09
3.43576e-09
3.14457e-09
2.85125e-09
2.54773e-09
2.20762e-09
1.84455e-09
1.51709e-09
1.25351e-09
1.25502e-09
1.37093e-09
1.59444e-09
1.90841e-09
2.24768e-09
2.61812e-09
2.9816e-09
3.36352e-09
3.72749e-09
4.10633e-09
4.46437e-09
4.83716e-09
5.1866e-09
5.54866e-09
5.88713e-09
6.23603e-09
6.56215e-09
6.89598e-09
7.20864e-09
7.52572e-09
7.82394e-09
8.12312e-09
8.40576e-09
8.68644e-09
8.95235e-09
9.21432e-09
9.46259e-09
9.7057e-09
9.93586e-09
1.016e-08
1.03718e-08
1.0577e-08
1.07706e-08
1.09571e-08
1.11327e-08
1.13008e-08
1.14588e-08
1.16092e-08
1.17501e-08
1.18835e-08
1.20079e-08
1.2125e-08
1.22338e-08
1.23353e-08
1.24293e-08
1.25161e-08
1.2596e-08
1.26691e-08
1.27357e-08
1.27961e-08
1.28502e-08
1.28988e-08
1.29415e-08
1.2979e-08
1.30113e-08
1.30388e-08
1.30615e-08
1.30799e-08
1.3094e-08
1.31041e-08
1.31104e-08
1.31134e-08
1.31126e-08
1.31084e-08
1.31013e-08
1.30918e-08
1.30795e-08
1.30651e-08
1.30483e-08
1.30297e-08
1.3009e-08
1.29869e-08
1.29628e-08
1.29378e-08
1.29111e-08
1.28838e-08
1.28549e-08
1.28257e-08
1.27953e-08
1.27647e-08
1.2733e-08
1.27016e-08
1.26691e-08
1.26371e-08
1.26043e-08
1.2572e-08
1.25392e-08
1.25069e-08
1.24745e-08
1.24425e-08
1.24107e-08
1.23792e-08
1.23482e-08
1.23174e-08
1.22875e-08
1.22577e-08
1.22289e-08
1.22003e-08
1.21727e-08
1.21454e-08
1.21192e-08
1.20933e-08
1.20686e-08
1.20442e-08
1.2021e-08
1.19981e-08
1.19765e-08
1.19553e-08
1.19353e-08
1.19157e-08
1.18974e-08
1.18795e-08
1.18629e-08
1.18466e-08
1.18317e-08
1.1817e-08
1.18038e-08
1.17908e-08
1.17792e-08
1.17679e-08
1.17579e-08
1.17483e-08
1.17398e-08
1.17317e-08
1.17249e-08
1.17183e-08
1.17129e-08
1.17078e-08
1.17039e-08
1.17002e-08
1.16976e-08
1.16954e-08
1.16941e-08
1.16933e-08
1.16932e-08
1.16936e-08
1.16948e-08
1.16965e-08
1.16987e-08
1.17015e-08
1.17049e-08
1.17087e-08
1.17131e-08
1.17179e-08
1.17234e-08
1.1729e-08
1.17354e-08
1.17419e-08
1.17492e-08
1.17564e-08
1.17645e-08
1.17724e-08
1.17812e-08
1.17898e-08
1.17993e-08
1.18086e-08
1.18187e-08
1.18286e-08
1.18393e-08
1.18496e-08
1.18608e-08
1.18717e-08
1.18834e-08
1.18947e-08
1.19067e-08
1.19184e-08
1.19308e-08
1.19428e-08
1.19556e-08
1.19679e-08
1.19809e-08
1.19935e-08
1.20067e-08
1.20195e-08
1.20329e-08
1.20459e-08
1.20595e-08
1.20726e-08
1.20863e-08
1.20996e-08
1.21134e-08
1.21267e-08
1.21405e-08
1.21539e-08
1.21678e-08
1.21812e-08
1.21951e-08
1.22085e-08
1.22224e-08
1.22358e-08
1.22496e-08
1.22631e-08
1.22768e-08
1.22902e-08
1.23038e-08
1.23171e-08
1.23306e-08
1.23439e-08
1.23572e-08
1.23704e-08
1.23836e-08
1.23967e-08
1.24097e-08
1.24227e-08
1.24356e-08
1.24484e-08
1.24611e-08
1.24738e-08
1.24863e-08
1.24988e-08
1.25112e-08
1.25235e-08
1.25358e-08
1.25479e-08
1.25599e-08
1.25719e-08
1.25837e-08
1.25955e-08
1.26072e-08
1.26187e-08
1.26302e-08
1.26416e-08
1.26529e-08
1.26641e-08
1.26752e-08
1.26861e-08
1.2697e-08
1.27078e-08
1.27185e-08
1.27291e-08
1.27396e-08
1.275e-08
1.27603e-08
1.27705e-08
1.27806e-08
1.27906e-08
1.28006e-08
1.28104e-08
1.28201e-08
1.28297e-08
1.28393e-08
1.28487e-08
1.2858e-08
1.28673e-08
1.28764e-08
1.28855e-08
1.28945e-08
1.29033e-08
1.29121e-08
1.29208e-08
1.29294e-08
1.29379e-08
1.29464e-08
1.29547e-08
1.29629e-08
1.29711e-08
1.29792e-08
1.29871e-08
1.2995e-08
1.30029e-08
1.30106e-08
1.30182e-08
1.30258e-08
1.30333e-08
1.30407e-08
1.3048e-08
1.30552e-08
1.30624e-08
1.30695e-08
1.30765e-08
1.30834e-08
1.30903e-08
1.3097e-08
1.31037e-08
1.31104e-08
1.31169e-08
1.31234e-08
1.31299e-08
1.31362e-08
1.31425e-08
1.31487e-08
1.31549e-08
1.31609e-08
1.3167e-08
1.31729e-08
1.31788e-08
1.31846e-08
1.31904e-08
1.31961e-08
1.32017e-08
1.32073e-08
1.32128e-08
1.32183e-08
1.32237e-08
1.32291e-08
1.32344e-08
1.32396e-08
1.32448e-08
1.32499e-08
1.3255e-08
1.326e-08
1.3265e-08
1.32699e-08
1.32748e-08
1.32796e-08
1.32843e-08
1.3289e-08
1.32937e-08
1.32983e-08
1.33029e-08
1.33074e-08
1.33119e-08
1.33163e-08
1.33206e-08
1.3325e-08
1.33292e-08
1.33334e-08
1.33376e-08
1.33418e-08
1.33458e-08
1.33499e-08
1.33539e-08
1.33578e-08
1.33617e-08
1.33656e-08
1.33694e-08
1.33732e-08
1.33769e-08
1.33806e-08
1.33842e-08
1.33878e-08
1.33913e-08
1.33948e-08
1.33983e-08
1.34017e-08
1.3405e-08
1.34084e-08
1.34116e-08
1.3415e-08
1.34179e-08
1.34214e-08
1.34241e-08
1.34276e-08
1.34299e-08
1.34336e-08
1.34353e-08
6.56593e-11
1.67766e-10
2.94741e-10
4.54737e-10
6.28221e-10
8.12452e-10
1.00564e-09
1.20538e-09
1.40915e-09
1.61569e-09
1.823e-09
2.02983e-09
2.2351e-09
2.43823e-09
2.63882e-09
2.83661e-09
3.03136e-09
3.22276e-09
3.4109e-09
3.59609e-09
3.77883e-09
3.95857e-09
4.13579e-09
4.31022e-09
4.4819e-09
4.65084e-09
4.81712e-09
4.98077e-09
5.14186e-09
5.30048e-09
5.45675e-09
5.61065e-09
5.76236e-09
5.91187e-09
6.05917e-09
6.20417e-09
6.34611e-09
6.48595e-09
6.6236e-09
6.75904e-09
6.89221e-09
7.0233e-09
7.15229e-09
7.27946e-09
7.40474e-09
7.52833e-09
7.65014e-09
7.77018e-09
7.88845e-09
8.00496e-09
8.11973e-09
8.23278e-09
8.3441e-09
8.45367e-09
8.56144e-09
8.66766e-09
8.77189e-09
8.87461e-09
8.97556e-09
9.07502e-09
9.17343e-09
9.27017e-09
9.36595e-09
9.45919e-09
9.55073e-09
9.64045e-09
9.72843e-09
9.81464e-09
9.8991e-09
9.98177e-09
1.00626e-08
1.01416e-08
1.02188e-08
1.0294e-08
1.03673e-08
1.04385e-08
1.05076e-08
1.05745e-08
1.06394e-08
1.07017e-08
1.0762e-08
1.08195e-08
1.0875e-08
1.09275e-08
1.09778e-08
1.10248e-08
1.10693e-08
1.11099e-08
1.11474e-08
1.11801e-08
1.12107e-08
1.1237e-08
1.12605e-08
1.12789e-08
1.12949e-08
1.13038e-08
1.13104e-08
1.13086e-08
1.13054e-08
1.12931e-08
1.12788e-08
1.12545e-08
1.1228e-08
1.11898e-08
1.11508e-08
1.10983e-08
1.10451e-08
1.09772e-08
1.09087e-08
1.08237e-08
1.07433e-08
1.06651e-08
1.05724e-08
1.04743e-08
1.03985e-08
1.03141e-08
1.02136e-08
1.01007e-08
9.97515e-09
9.83895e-09
9.69145e-09
9.53338e-09
9.36448e-09
9.18508e-09
8.9956e-09
8.79535e-09
8.58612e-09
8.36662e-09
8.14001e-09
7.90555e-09
7.66751e-09
7.42452e-09
7.17234e-09
6.91563e-09
6.63495e-09
6.31369e-09
5.96299e-09
5.62634e-09
5.3282e-09
5.01467e-09
4.70098e-09
4.37323e-09
4.04644e-09
3.70756e-09
3.37195e-09
3.03085e-09
2.69427e-09
2.36108e-09
2.04213e-09
1.73115e-09
1.85553e-09
2.09813e-09
2.423e-09
2.80443e-09
3.21331e-09
3.6426e-09
4.07078e-09
4.51416e-09
4.94602e-09
5.39676e-09
5.82633e-09
6.2706e-09
6.69254e-09
7.12857e-09
7.54095e-09
7.96597e-09
8.36733e-09
8.77947e-09
9.16789e-09
9.56428e-09
9.93822e-09
1.0317e-08
1.06755e-08
1.10351e-08
1.13769e-08
1.17167e-08
1.20403e-08
1.23599e-08
1.26643e-08
1.29633e-08
1.32478e-08
1.35258e-08
1.379e-08
1.4047e-08
1.42908e-08
1.45267e-08
1.47501e-08
1.49652e-08
1.51684e-08
1.53631e-08
1.55465e-08
1.57214e-08
1.58857e-08
1.60414e-08
1.61872e-08
1.63246e-08
1.64527e-08
1.65724e-08
1.66837e-08
1.67868e-08
1.68818e-08
1.69692e-08
1.7049e-08
1.71216e-08
1.71871e-08
1.72459e-08
1.72981e-08
1.73441e-08
1.73839e-08
1.74181e-08
1.74467e-08
1.747e-08
1.74883e-08
1.75018e-08
1.75107e-08
1.75155e-08
1.7516e-08
1.75123e-08
1.75049e-08
1.74944e-08
1.74805e-08
1.7464e-08
1.74444e-08
1.74226e-08
1.73982e-08
1.73718e-08
1.73431e-08
1.73129e-08
1.72807e-08
1.72473e-08
1.72122e-08
1.71762e-08
1.71388e-08
1.71008e-08
1.70617e-08
1.70223e-08
1.69819e-08
1.69414e-08
1.69002e-08
1.68593e-08
1.68177e-08
1.67765e-08
1.6735e-08
1.6694e-08
1.66529e-08
1.66122e-08
1.65719e-08
1.65319e-08
1.64926e-08
1.64536e-08
1.64154e-08
1.63776e-08
1.63407e-08
1.63044e-08
1.6269e-08
1.62341e-08
1.62003e-08
1.61672e-08
1.61352e-08
1.61038e-08
1.60736e-08
1.60441e-08
1.60157e-08
1.59882e-08
1.59617e-08
1.59361e-08
1.59117e-08
1.58881e-08
1.58656e-08
1.5844e-08
1.58236e-08
1.58039e-08
1.57855e-08
1.57677e-08
1.57513e-08
1.57355e-08
1.5721e-08
1.57071e-08
1.56946e-08
1.56825e-08
1.56718e-08
1.56616e-08
1.56527e-08
1.56442e-08
1.5637e-08
1.56303e-08
1.56248e-08
1.56198e-08
1.56158e-08
1.56124e-08
1.56099e-08
1.56081e-08
1.5607e-08
1.56066e-08
1.5607e-08
1.56079e-08
1.56096e-08
1.56118e-08
1.56148e-08
1.56182e-08
1.56224e-08
1.56268e-08
1.56321e-08
1.56376e-08
1.56439e-08
1.56504e-08
1.56577e-08
1.56651e-08
1.56733e-08
1.56816e-08
1.56906e-08
1.56997e-08
1.57095e-08
1.57193e-08
1.57298e-08
1.57402e-08
1.57514e-08
1.57624e-08
1.57742e-08
1.57858e-08
1.5798e-08
1.58101e-08
1.58229e-08
1.58354e-08
1.58485e-08
1.58615e-08
1.5875e-08
1.58882e-08
1.59021e-08
1.59156e-08
1.59297e-08
1.59435e-08
1.59579e-08
1.59719e-08
1.59864e-08
1.60006e-08
1.60153e-08
1.60296e-08
1.60444e-08
1.60589e-08
1.60738e-08
1.60883e-08
1.61032e-08
1.61178e-08
1.61327e-08
1.61473e-08
1.61622e-08
1.61768e-08
1.61917e-08
1.62063e-08
1.6221e-08
1.62356e-08
1.62503e-08
1.62648e-08
1.62794e-08
1.62938e-08
1.63082e-08
1.63226e-08
1.63369e-08
1.63511e-08
1.63652e-08
1.63793e-08
1.63933e-08
1.64073e-08
1.64211e-08
1.64349e-08
1.64485e-08
1.64621e-08
1.64756e-08
1.6489e-08
1.65023e-08
1.65156e-08
1.65287e-08
1.65417e-08
1.65547e-08
1.65675e-08
1.65802e-08
1.65928e-08
1.66054e-08
1.66178e-08
1.66301e-08
1.66424e-08
1.66545e-08
1.66665e-08
1.66784e-08
1.66902e-08
1.67019e-08
1.67135e-08
1.6725e-08
1.67364e-08
1.67477e-08
1.67589e-08
1.677e-08
1.67809e-08
1.67918e-08
1.68026e-08
1.68133e-08
1.68238e-08
1.68343e-08
1.68446e-08
1.68549e-08
1.6865e-08
1.68751e-08
1.6885e-08
1.68949e-08
1.69046e-08
1.69143e-08
1.69239e-08
1.69333e-08
1.69427e-08
1.69519e-08
1.69611e-08
1.69701e-08
1.69791e-08
1.6988e-08
1.69968e-08
1.70055e-08
1.70141e-08
1.70226e-08
1.7031e-08
1.70393e-08
1.70475e-08
1.70557e-08
1.70637e-08
1.70717e-08
1.70796e-08
1.70874e-08
1.70951e-08
1.71028e-08
1.71103e-08
1.71178e-08
1.71252e-08
1.71325e-08
1.71397e-08
1.71469e-08
1.7154e-08
1.7161e-08
1.71679e-08
1.71748e-08
1.71816e-08
1.71883e-08
1.7195e-08
1.72016e-08
1.72081e-08
1.72145e-08
1.72209e-08
1.72272e-08
1.72334e-08
1.72396e-08
1.72457e-08
1.72518e-08
1.72577e-08
1.72637e-08
1.72695e-08
1.72753e-08
1.72811e-08
1.72867e-08
1.72924e-08
1.72979e-08
1.73034e-08
1.73089e-08
1.73142e-08
1.73196e-08
1.73248e-08
1.733e-08
1.73352e-08
1.73403e-08
1.73453e-08
1.73503e-08
1.73553e-08
1.73601e-08
1.7365e-08
1.73697e-08
1.73745e-08
1.73791e-08
1.73837e-08
1.73883e-08
1.73928e-08
1.73973e-08
1.74017e-08
1.7406e-08
1.74103e-08
1.74146e-08
1.74188e-08
1.74229e-08
1.7427e-08
1.74311e-08
1.7435e-08
1.7439e-08
1.74429e-08
1.74468e-08
1.74505e-08
1.74543e-08
1.74578e-08
1.74617e-08
1.74649e-08
1.74688e-08
1.74717e-08
1.74756e-08
1.74781e-08
1.24395e-10
2.80389e-10
4.55648e-10
6.57183e-10
8.71982e-10
1.0934e-09
1.3207e-09
1.55307e-09
1.78855e-09
2.02662e-09
2.26426e-09
2.50057e-09
2.73455e-09
2.96553e-09
3.19293e-09
3.41654e-09
3.63629e-09
3.85205e-09
4.0641e-09
4.27234e-09
4.47593e-09
4.67583e-09
4.8719e-09
5.06421e-09
5.25266e-09
5.43739e-09
5.61843e-09
5.7961e-09
5.97021e-09
6.14139e-09
6.30918e-09
6.47415e-09
6.63578e-09
6.79479e-09
6.95069e-09
7.10406e-09
7.25396e-09
7.40171e-09
7.54661e-09
7.68891e-09
7.82859e-09
7.96581e-09
8.10045e-09
8.23266e-09
8.36222e-09
8.48921e-09
8.61368e-09
8.7357e-09
8.85531e-09
8.97255e-09
9.08745e-09
9.20003e-09
9.31031e-09
9.41836e-09
9.52413e-09
9.62817e-09
9.7301e-09
9.83093e-09
9.93084e-09
1.00262e-08
1.01159e-08
1.02027e-08
1.02881e-08
1.03714e-08
1.04535e-08
1.05333e-08
1.06109e-08
1.06861e-08
1.07588e-08
1.0829e-08
1.08967e-08
1.09616e-08
1.1024e-08
1.10834e-08
1.11402e-08
1.11939e-08
1.12448e-08
1.12924e-08
1.1337e-08
1.1378e-08
1.14161e-08
1.14503e-08
1.14814e-08
1.15085e-08
1.15324e-08
1.15521e-08
1.15692e-08
1.15892e-08
1.16086e-08
1.16238e-08
1.16365e-08
1.16455e-08
1.16502e-08
1.16507e-08
1.16507e-08
1.16454e-08
1.1635e-08
1.16187e-08
1.1597e-08
1.15693e-08
1.15353e-08
1.14946e-08
1.14473e-08
1.13928e-08
1.13313e-08
1.12623e-08
1.11865e-08
1.11029e-08
1.10137e-08
1.09164e-08
1.08166e-08
1.07071e-08
1.05933e-08
1.04727e-08
1.03113e-08
1.01555e-08
1.0012e-08
9.85402e-09
9.68974e-09
9.51071e-09
9.32569e-09
9.12467e-09
8.91838e-09
8.69503e-09
8.46747e-09
8.22132e-09
7.97294e-09
7.70406e-09
7.43575e-09
7.14614e-09
6.86009e-09
6.55348e-09
6.24586e-09
5.92565e-09
5.58868e-09
5.22958e-09
4.86562e-09
4.50047e-09
4.13306e-09
3.76147e-09
3.39158e-09
3.02264e-09
2.66757e-09
2.33531e-09
2.39505e-09
2.6161e-09
2.92842e-09
3.31173e-09
3.73416e-09
4.18851e-09
4.66003e-09
5.13942e-09
5.61674e-09
6.10894e-09
6.59247e-09
7.08879e-09
7.56965e-09
8.06389e-09
8.53893e-09
9.02737e-09
9.49378e-09
9.97078e-09
1.04267e-08
1.08942e-08
1.13389e-08
1.17939e-08
1.2225e-08
1.26642e-08
1.308e-08
1.3501e-08
1.39005e-08
1.43017e-08
1.46839e-08
1.50644e-08
1.54278e-08
1.57872e-08
1.61306e-08
1.64686e-08
1.67911e-08
1.71073e-08
1.74085e-08
1.77025e-08
1.79822e-08
1.82539e-08
1.85121e-08
1.87617e-08
1.89983e-08
1.92262e-08
1.94416e-08
1.96481e-08
1.98429e-08
2.00286e-08
2.02032e-08
2.03689e-08
2.05241e-08
2.06706e-08
2.08071e-08
2.09351e-08
2.10538e-08
2.11641e-08
2.12658e-08
2.13594e-08
2.14449e-08
2.15227e-08
2.15929e-08
2.16559e-08
2.17118e-08
2.17609e-08
2.18035e-08
2.18399e-08
2.18703e-08
2.18951e-08
2.19143e-08
2.19284e-08
2.19375e-08
2.19419e-08
2.19414e-08
2.19366e-08
2.19275e-08
2.19148e-08
2.18984e-08
2.18789e-08
2.18561e-08
2.18305e-08
2.1802e-08
2.17712e-08
2.17378e-08
2.17025e-08
2.16649e-08
2.16258e-08
2.15847e-08
2.15425e-08
2.14986e-08
2.14538e-08
2.14077e-08
2.1361e-08
2.13133e-08
2.12652e-08
2.12162e-08
2.11672e-08
2.11176e-08
2.10682e-08
2.10182e-08
2.09687e-08
2.09189e-08
2.08696e-08
2.08205e-08
2.07718e-08
2.07234e-08
2.06756e-08
2.06283e-08
2.05817e-08
2.05357e-08
2.04904e-08
2.04459e-08
2.04023e-08
2.03595e-08
2.03176e-08
2.02766e-08
2.02367e-08
2.01975e-08
2.01596e-08
2.01225e-08
2.00867e-08
2.00516e-08
2.0018e-08
1.99851e-08
1.99536e-08
1.9923e-08
1.98936e-08
1.98653e-08
1.9838e-08
1.98121e-08
1.97869e-08
1.97633e-08
1.97403e-08
1.97188e-08
1.9698e-08
1.96787e-08
1.966e-08
1.96428e-08
1.96262e-08
1.96111e-08
1.95966e-08
1.95834e-08
1.95709e-08
1.95596e-08
1.9549e-08
1.95397e-08
1.95309e-08
1.95234e-08
1.95164e-08
1.95106e-08
1.95054e-08
1.95011e-08
1.94975e-08
1.94948e-08
1.94928e-08
1.94916e-08
1.9491e-08
1.94913e-08
1.94919e-08
1.94936e-08
1.94956e-08
1.94985e-08
1.95017e-08
1.95057e-08
1.95101e-08
1.95153e-08
1.95207e-08
1.95269e-08
1.95334e-08
1.95405e-08
1.95479e-08
1.9556e-08
1.95641e-08
1.9573e-08
1.9582e-08
1.95917e-08
1.96013e-08
1.96117e-08
1.9622e-08
1.9633e-08
1.96439e-08
1.96554e-08
1.96669e-08
1.96789e-08
1.96909e-08
1.97034e-08
1.97157e-08
1.97286e-08
1.97414e-08
1.97546e-08
1.97677e-08
1.97812e-08
1.97946e-08
1.98084e-08
1.9822e-08
1.98361e-08
1.98499e-08
1.98641e-08
1.98781e-08
1.98924e-08
1.99065e-08
1.9921e-08
1.99352e-08
1.99497e-08
1.9964e-08
1.99785e-08
1.99928e-08
2.00074e-08
2.00217e-08
2.00363e-08
2.00506e-08
2.00651e-08
2.00794e-08
2.00938e-08
2.0108e-08
2.01223e-08
2.01366e-08
2.01508e-08
2.01649e-08
2.0179e-08
2.0193e-08
2.02069e-08
2.02208e-08
2.02346e-08
2.02484e-08
2.02621e-08
2.02757e-08
2.02892e-08
2.03026e-08
2.0316e-08
2.03293e-08
2.03425e-08
2.03556e-08
2.03686e-08
2.03815e-08
2.03943e-08
2.04071e-08
2.04197e-08
2.04322e-08
2.04447e-08
2.04571e-08
2.04693e-08
2.04815e-08
2.04935e-08
2.05055e-08
2.05174e-08
2.05291e-08
2.05408e-08
2.05524e-08
2.05638e-08
2.05752e-08
2.05864e-08
2.05976e-08
2.06087e-08
2.06196e-08
2.06305e-08
2.06412e-08
2.06519e-08
2.06624e-08
2.06729e-08
2.06832e-08
2.06935e-08
2.07036e-08
2.07137e-08
2.07236e-08
2.07335e-08
2.07432e-08
2.07529e-08
2.07624e-08
2.07719e-08
2.07813e-08
2.07905e-08
2.07997e-08
2.08088e-08
2.08178e-08
2.08266e-08
2.08354e-08
2.08441e-08
2.08528e-08
2.08613e-08
2.08697e-08
2.08781e-08
2.08863e-08
2.08945e-08
2.09026e-08
2.09106e-08
2.09185e-08
2.09263e-08
2.09341e-08
2.09417e-08
2.09493e-08
2.09568e-08
2.09643e-08
2.09716e-08
2.09789e-08
2.09861e-08
2.09932e-08
2.10003e-08
2.10072e-08
2.10142e-08
2.1021e-08
2.10277e-08
2.10344e-08
2.10411e-08
2.10476e-08
2.10541e-08