/*--------------------------------*- C++ -*----------------------------------*\
| =========                 |                                                 |
| \\      /  F ield         | OpenFOAM: The Open Source CFD Toolbox           |
|  \\    /   O peration     | Version:  2012                                  |
|   \\  /    A nd           | Website:  www.openfoam.com                      |
|    \\/     M anipulation  |                                                 |
\*---------------------------------------------------------------------------*/
FoamFile
{
    version     2.0;
    format      ascii;
    class       volVectorField;
    location    "2220";
    object      U;
}
// * * * * * * * * * * * * * * * * * * * * * * * * * * * * * * * * * * * * * //

dimensions      [0 1 -1 0 0 0 0];


internalField   nonuniform List<vector> 
20400
(
(3.52854e-06 -3.45289e-06 0)
(5.17731e-06 -1.16971e-06 0)
(-4.67433e-06 3.70709e-06 0)
(-2.50055e-05 6.36405e-06 0)
(-5.82715e-05 7.81223e-06 0)
(-9.85106e-05 7.1576e-06 0)
(-0.000144676 6.39706e-06 0)
(-0.00019353 5.47932e-06 0)
(-0.000243172 4.71014e-06 0)
(-0.000293941 4.21503e-06 0)
(-0.00034346 4.26819e-06 0)
(-0.000393369 4.19501e-06 0)
(-0.000442507 4.01936e-06 0)
(-0.00049145 3.62755e-06 0)
(-0.00054009 3.0633e-06 0)
(-0.00058854 2.27919e-06 0)
(-0.000636841 1.24997e-06 0)
(-0.000685026 3.48551e-08 0)
(-0.000733112 -1.32878e-06 0)
(-0.000781007 -2.51527e-06 0)
(-0.000828614 -3.74286e-06 0)
(-0.000875934 -4.96736e-06 0)
(-0.000922997 -6.10625e-06 0)
(-0.00096979 -7.08715e-06 0)
(-0.0010163 -7.83655e-06 0)
(-0.0010625 -8.28712e-06 0)
(-0.00110839 -8.38218e-06 0)
(-0.00115397 -8.066e-06 0)
(-0.00119926 -7.30598e-06 0)
(-0.00124426 -6.06307e-06 0)
(-0.00128902 -4.32991e-06 0)
(-0.0013335 -2.07433e-06 0)
(-0.00137761 8.10733e-07 0)
(-0.00142098 5.41416e-06 0)
(-0.00146349 8.96106e-06 0)
(-0.00150577 1.13972e-05 0)
(-0.00154901 1.51276e-05 0)
(-0.00159106 1.88237e-05 0)
(-0.00163298 2.23043e-05 0)
(-0.00167434 2.54406e-05 0)
(-0.00171531 2.81142e-05 0)
(-0.00175592 3.02479e-05 0)
(-0.00179621 3.18281e-05 0)
(-0.00183624 3.28585e-05 0)
(-0.00187604 3.33909e-05 0)
(-0.00191564 3.34895e-05 0)
(-0.00195503 3.3222e-05 0)
(-0.00199422 3.26436e-05 0)
(-0.0020332 3.17892e-05 0)
(-0.00207197 3.06699e-05 0)
(-0.00211053 2.92715e-05 0)
(-0.00214887 2.75561e-05 0)
(-0.002187 2.54575e-05 0)
(-0.00222495 2.29074e-05 0)
(-0.00226275 1.97884e-05 0)
(-0.00230037 1.60904e-05 0)
(-0.00233792 1.17346e-05 0)
(-0.00237513 7.38583e-06 0)
(-0.00241195 1.45882e-06 0)
(-0.00244955 -5.23822e-06 0)
(-0.00248688 -1.09056e-05 0)
(-0.00252479 -1.58261e-05 0)
(-0.00256206 -1.95435e-05 0)
(-0.00259954 -2.21881e-05 0)
(-0.00263672 -2.38434e-05 0)
(-0.00267377 -2.46945e-05 0)
(-0.00271063 -2.49088e-05 0)
(-0.00274732 -2.46429e-05 0)
(-0.00278387 -2.40202e-05 0)
(-0.0028203 -2.31305e-05 0)
(-0.00285663 -2.20425e-05 0)
(-0.00289287 -2.07949e-05 0)
(-0.00292904 -1.94243e-05 0)
(-0.00296513 -1.79409e-05 0)
(-0.00300116 -1.63662e-05 0)
(-0.00303713 -1.46981e-05 0)
(-0.00307305 -1.2954e-05 0)
(-0.0031089 -1.11288e-05 0)
(-0.0031447 -9.24535e-06 0)
(-0.00318042 -7.29084e-06 0)
(-0.00321611 -5.30166e-06 0)
(-0.00325173 -3.2544e-06 0)
(-0.00328733 -1.19451e-06 0)
(-0.0033228 9.21554e-07 0)
(-0.00335809 3.17776e-06 0)
(-0.00339276 5.94492e-06 0)
(-0.00342693 7.19555e-06 0)
(-0.00346193 7.99897e-06 0)
(-0.00349656 8.35292e-06 0)
(-0.003531 8.43381e-06 0)
(-0.00356517 7.86541e-06 0)
(-0.00359882 7.06946e-06 0)
(-0.00363195 5.57497e-06 0)
(-0.00366449 2.02643e-06 0)
(-0.0036978 -1.08319e-06 0)
(-0.00373011 -4.48547e-06 0)
(-0.00376264 -8.37676e-06 0)
(-0.00379416 -1.22823e-05 0)
(-0.00382558 -1.67547e-05 0)
(-0.00385592 -2.09993e-05 0)
(-0.00388603 -2.59893e-05 0)
(-0.00391485 -3.04009e-05 0)
(-0.00394333 -3.5618e-05 0)
(-0.00397018 -3.95922e-05 0)
(-0.00399692 -4.42954e-05 0)
(-0.00402155 -4.68828e-05 0)
(-0.00404682 -5.01631e-05 0)
(-0.00406863 -4.911e-05 0)
(-0.00409304 -4.88069e-05 0)
(-0.00411148 -4.11659e-05 0)
(-0.00413591 -3.33445e-05 0)
(-0.00414993 -1.58271e-05 0)
(-0.00416738 1.76799e-06 0)
(-0.0041716 2.77987e-05 0)
(-0.004184 4.88405e-05 0)
(-0.00418518 7.35488e-05 0)
(-0.00419076 8.72899e-05 0)
(-0.00418679 0.000109025 0)
(-0.0041857 0.000117634 0)
(-0.00417657 0.000136984 0)
(-0.00416854 0.000143506 0)
(-0.00415292 0.000160865 0)
(-0.00413777 0.000166892 0)
(-0.0041144 0.000182044 0)
(-0.0040914 0.000187464 0)
(-0.00405919 0.000198979 0)
(-0.00402703 0.000202165 0)
(-0.00398417 0.00020657 0)
(-0.00394083 0.000202309 0)
(-0.00388433 0.000193194 0)
(-0.00382617 0.00016872 0)
(-0.00375519 0.000136608 0)
(-0.00368256 7.57869e-05 0)
(-0.00360736 1.70802e-05 0)
(-0.00352819 -7.05848e-05 0)
(-0.00346148 -0.000137629 0)
(-0.00339119 -0.000197447 0)
(-0.00331271 -0.000244592 0)
(-0.00322984 -0.000274084 0)
(-0.00313767 -0.00030648 0)
(-0.00304404 -0.000319943 0)
(-0.00294101 -0.000340191 0)
(-0.00283936 -0.000343457 0)
(-0.00273013 -0.000348555 0)
(-0.00262354 -0.000335587 0)
(-0.00251254 -0.000313085 0)
(-0.00240066 -0.000268097 0)
(-0.00228333 -0.000193692 0)
(-0.00216271 -0.000105492 0)
(-0.00203268 2.66147e-06 0)
(-0.00189971 0.000127477 0)
(-0.001729 0.000191695 0)
(-0.0015805 0.000243306 0)
(-0.00141528 0.000259027 0)
(-0.00126711 0.000265659 0)
(-0.00108486 0.000247353 0)
(-0.00093315 0.000196181 0)
(-0.000733622 0.000113187 0)
(-0.00061908 1.68446e-06 0)
(-0.000511795 -3.4553e-05 0)
(-0.000373005 -6.03814e-05 0)
(-0.000233729 -6.80293e-05 0)
(-9.51329e-05 -6.92105e-05 0)
(5.36368e-05 -6.54851e-05 0)
(0.000186946 -5.7473e-05 0)
(0.000338723 -5.20014e-05 0)
(0.000467102 -4.37021e-05 0)
(0.00061464 -3.97066e-05 0)
(0.000738217 -3.32811e-05 0)
(0.000880145 -3.13255e-05 0)
(0.00099858 -2.62541e-05 0)
(0.00113339 -2.56351e-05 0)
(0.00124634 -2.14111e-05 0)
(0.00137306 -2.1625e-05 0)
(0.00148028 -1.80027e-05 0)
(0.0015983 -1.86752e-05 0)
(0.00169951 -1.54679e-05 0)
(0.00180857 -1.63728e-05 0)
(0.0019034 -1.34999e-05 0)
(0.0020035 -1.43176e-05 0)
(0.00209156 -1.22591e-05 0)
(0.00218279 -1.24655e-05 0)
(0.00226389 -1.11235e-05 0)
(0.00234624 -1.09298e-05 0)
(0.00242037 -9.97813e-06 0)
(0.00249411 -9.63407e-06 0)
(0.00256118 -8.76398e-06 0)
(0.00262685 -8.48946e-06 0)
(0.00268684 -7.65178e-06 0)
(0.0027448 -7.45817e-06 0)
(0.00279795 -6.59867e-06 0)
(0.00284853 -6.53403e-06 0)
(0.00289519 -5.58091e-06 0)
(0.00293877 -5.78511e-06 0)
(0.00297943 -4.71639e-06 0)
(0.00301653 -4.95137e-06 0)
(0.00305132 -4.04404e-06 0)
(0.00308257 -3.95732e-06 0)
(0.00311149 -3.5765e-06 0)
(0.00313769 -3.24537e-06 0)
(0.00316138 -2.92592e-06 0)
(0.00318262 -2.65744e-06 0)
(0.0032016 -2.31168e-06 0)
(0.00321821 -2.12665e-06 0)
(0.00323301 -1.77619e-06 0)
(0.00324547 -1.63931e-06 0)
(0.00325646 -1.2516e-06 0)
(0.00326521 -1.20836e-06 0)
(0.00327276 -7.67347e-07 0)
(0.00327824 -6.6843e-07 0)
(0.00328273 -2.57232e-07 0)
(0.00328539 -1.14096e-07 0)
(0.00328714 1.28566e-07 0)
(0.00328767 2.73412e-07 0)
(0.00328691 4.54632e-07 0)
(0.00328501 7.41736e-07 0)
(0.0032821 6.9311e-07 0)
(0.00327846 7.62714e-07 0)
(0.00327365 7.03979e-07 0)
(0.00326849 6.77447e-07 0)
(0.00326209 6.24434e-07 0)
(0.00325582 5.9028e-07 0)
(0.0032481 4.94314e-07 0)
(0.00324096 5.51432e-07 0)
(0.00323226 3.95879e-07 0)
(0.00322439 5.39395e-07 0)
(0.00321492 3.16436e-07 0)
(0.0032065 5.27348e-07 0)
(0.00319647 3.04029e-07 0)
(0.00318766 5.0049e-07 0)
(0.00317728 3.32124e-07 0)
(0.00316823 4.66343e-07 0)
(0.00315766 3.43413e-07 0)
(0.00314849 4.3651e-07 0)
(0.00313787 3.45151e-07 0)
(0.00312866 4.13814e-07 0)
(0.00311815 3.55427e-07 0)
(0.00310898 3.98442e-07 0)
(0.00309873 3.80052e-07 0)
(0.00308963 3.97834e-07 0)
(0.0030798 4.26599e-07 0)
(0.00307078 4.5013e-07 0)
(0.00306155 5.04944e-07 0)
(0.00305263 5.85567e-07 0)
(0.00304396 6.20692e-07 0)
(0.00303532 7.25009e-07 0)
(0.00302713 7.39517e-07 0)
(0.0030189 8.41966e-07 0)
(0.00301123 8.02092e-07 0)
(0.00300348 8.86941e-07 0)
(0.00299638 7.87479e-07 0)
(0.00298914 8.79449e-07 0)
(0.00298263 7.40023e-07 0)
(0.00297592 8.47284e-07 0)
(0.00297001 6.82641e-07 0)
(0.00296385 8.02045e-07 0)
(0.00295855 6.19191e-07 0)
(0.00295294 7.45407e-07 0)
(0.00294824 5.48095e-07 0)
(0.00294319 6.61921e-07 0)
(0.00293908 4.70473e-07 0)
(0.0029346 5.65691e-07 0)
(0.00293109 3.91699e-07 0)
(0.00292718 4.70949e-07 0)
(0.00292425 3.1624e-07 0)
(0.00292092 3.79684e-07 0)
(0.00291856 2.42794e-07 0)
(0.00291581 2.90222e-07 0)
(0.00291399 1.61817e-07 0)
(0.00291182 2.01483e-07 0)
(0.00291053 7.05708e-08 0)
(0.00290892 1.1458e-07 0)
(0.00290813 -2.0761e-08 0)
(0.00290709 2.90869e-08 0)
(0.00290677 -1.11618e-07 0)
(0.00290629 -5.025e-08 0)
(0.00290635 -1.95123e-07 0)
(0.00290644 -6.83179e-08 0)
(0.00290699 -2.88382e-07 0)
(0.00290756 -1.5119e-07 0)
(0.00290851 -3.45141e-07 0)
(0.0029096 -3.06002e-07 0)
(0.00291093 -3.80666e-07 0)
(0.00291246 -3.55202e-07 0)
(0.00291417 -3.90879e-07 0)
(0.00291613 -3.66927e-07 0)
(0.00291826 -3.82021e-07 0)
(0.00292061 -3.63039e-07 0)
(0.00292311 -3.87751e-07 0)
(0.00292581 -3.8597e-07 0)
(0.00292866 -4.10424e-07 0)
(0.00293167 -4.29119e-07 0)
(0.00293485 -4.54619e-07 0)
(0.00293816 -4.75962e-07 0)
(0.0029417 -5.05343e-07 0)
(0.00294519 -5.33461e-07 0)
(0.00294913 -5.08827e-07 0)
(0.00295275 -5.79999e-07 0)
(0.00295707 -5.07006e-07 0)
(0.00296082 -5.97255e-07 0)
(0.00296544 -5.07957e-07 0)
(0.00296934 -6.05288e-07 0)
(0.00297422 -5.32596e-07 0)
(0.00297826 -6.20481e-07 0)
(0.00298337 -5.66895e-07 0)
(0.00298756 -6.47774e-07 0)
(0.00299286 -6.06199e-07 0)
(0.00299718 -6.86344e-07 0)
(0.00300266 -6.49493e-07 0)
(0.00300711 -7.27056e-07 0)
(0.00301275 -6.92276e-07 0)
(0.00301732 -7.64673e-07 0)
(0.0030231 -7.30467e-07 0)
(0.00302778 -7.95473e-07 0)
(0.00303366 -7.5865e-07 0)
(0.00303843 -8.1555e-07 0)
(0.0030444 -7.68884e-07 0)
(0.00304925 -8.24739e-07 0)
(0.00305528 -7.71432e-07 0)
(0.00306021 -8.28356e-07 0)
(0.00306629 -7.77571e-07 0)
(0.00307127 -8.26284e-07 0)
(0.00307738 -7.8724e-07 0)
(0.00308242 -8.29015e-07 0)
(0.00308855 -7.96808e-07 0)
(0.00309361 -8.3219e-07 0)
(0.00309975 -8.01583e-07 0)
(0.00310483 -8.3075e-07 0)
(0.00311096 -8.01124e-07 0)
(0.00311606 -8.24719e-07 0)
(0.00312218 -7.97727e-07 0)
(0.00312728 -8.16328e-07 0)
(0.00313337 -7.92918e-07 0)
(0.00313848 -8.06431e-07 0)
(0.00314453 -7.87274e-07 0)
(0.00314963 -7.94572e-07 0)
(0.00315562 -7.80664e-07 0)
(0.00316073 -7.85043e-07 0)
(0.00316664 -7.7165e-07 0)
(0.00317175 -7.74954e-07 0)
(0.00317758 -7.6211e-07 0)
(0.00318269 -7.62669e-07 0)
(0.00318843 -7.5337e-07 0)
(0.00319353 -7.51367e-07 0)
(0.00319917 -7.44302e-07 0)
(0.00320426 -7.39669e-07 0)
(0.00320979 -7.34515e-07 0)
(0.00321487 -7.27341e-07 0)
(0.00322028 -7.24452e-07 0)
(0.00322535 -7.14765e-07 0)
(0.00323064 -7.13891e-07 0)
(0.0032357 -7.01371e-07 0)
(0.00324086 -7.01164e-07 0)
(0.00324589 -6.95093e-07 0)
(0.00325093 -6.88306e-07 0)
(0.00325592 -6.82686e-07 0)
(0.00326087 -6.7622e-07 0)
(0.00326578 -6.70324e-07 0)
(0.00327065 -6.64037e-07 0)
(0.00327548 -6.57949e-07 0)
(0.00328027 -6.51716e-07 0)
(0.00328502 -6.45577e-07 0)
(0.00328972 -6.39405e-07 0)
(0.00329438 -6.33303e-07 0)
(0.00329901 -6.27174e-07 0)
(0.00330358 -6.2109e-07 0)
(0.00330812 -6.14977e-07 0)
(0.00331261 -6.08899e-07 0)
(0.00331706 -6.02798e-07 0)
(0.00332147 -5.96734e-07 0)
(0.00332583 -5.90674e-07 0)
(0.00333015 -5.84661e-07 0)
(0.00333443 -5.78676e-07 0)
(0.00333867 -5.72742e-07 0)
(0.00334286 -5.6685e-07 0)
(0.00334701 -5.61012e-07 0)
(0.00335112 -5.55224e-07 0)
(0.00335518 -5.49489e-07 0)
(0.00335921 -5.43804e-07 0)
(0.00336319 -5.3817e-07 0)
(0.00336713 -5.32586e-07 0)
(0.00337103 -5.27053e-07 0)
(0.00337489 -5.21572e-07 0)
(0.00337871 -5.16143e-07 0)
(0.00338249 -5.10767e-07 0)
(0.00338623 -5.05444e-07 0)
(0.00338993 -5.00174e-07 0)
(0.00339359 -4.94958e-07 0)
(0.00339721 -4.89794e-07 0)
(0.00340079 -4.84684e-07 0)
(0.00340433 -4.79626e-07 0)
(0.00340784 -4.7462e-07 0)
(0.00341131 -4.69665e-07 0)
(0.00341474 -4.64762e-07 0)
(0.00341813 -4.59909e-07 0)
(0.00342149 -4.55105e-07 0)
(0.00342481 -4.5035e-07 0)
(0.00342809 -4.45643e-07 0)
(0.00343134 -4.40982e-07 0)
(0.00343455 -4.36367e-07 0)
(0.00343773 -4.31798e-07 0)
(0.00344087 -4.27272e-07 0)
(0.00344398 -4.2279e-07 0)
(0.00344705 -4.18352e-07 0)
(0.00345009 -4.13956e-07 0)
(0.00345309 -4.09602e-07 0)
(0.00345607 -4.0529e-07 0)
(0.00345901 -4.01019e-07 0)
(0.00346191 -3.96791e-07 0)
(0.00346479 -3.92607e-07 0)
(0.00346763 -3.88473e-07 0)
(0.00347044 -3.84406e-07 0)
(0.00347322 -3.80383e-07 0)
(0.00347596 -3.76381e-07 0)
(0.00347868 -3.72402e-07 0)
(0.00348136 -3.68453e-07 0)
(0.00348402 -3.64539e-07 0)
(0.00348664 -3.60661e-07 0)
(0.00348924 -3.56823e-07 0)
(0.00349181 -3.53023e-07 0)
(0.00349434 -3.49263e-07 0)
(0.00349685 -3.45543e-07 0)
(0.00349933 -3.41863e-07 0)
(0.00350178 -3.38224e-07 0)
(0.00350421 -3.34625e-07 0)
(0.0035066 -3.31068e-07 0)
(0.00350897 -3.27552e-07 0)
(0.00351132 -3.24076e-07 0)
(0.00351364 -3.20643e-07 0)
(0.00351593 -3.1725e-07 0)
(0.00351819 -3.13899e-07 0)
(0.00352043 -3.1059e-07 0)
(0.00352265 -3.07321e-07 0)
(0.00352484 -3.04094e-07 0)
(0.003527 -3.00908e-07 0)
(0.00352915 -2.97763e-07 0)
(0.00353126 -2.94658e-07 0)
(0.00353336 -2.91593e-07 0)
(0.00353543 -2.88567e-07 0)
(0.00353748 -2.8558e-07 0)
(0.00353951 -2.82632e-07 0)
(0.00354151 -2.79721e-07 0)
(0.0035435 -2.76848e-07 0)
(0.00354546 -2.74011e-07 0)
(0.0035474 -2.71209e-07 0)
(0.00354932 -2.68442e-07 0)
(0.00355122 -2.65709e-07 0)
(0.0035531 -2.63009e-07 0)
(0.00355495 -2.60342e-07 0)
(0.00355679 -2.57706e-07 0)
(0.00355861 -2.55101e-07 0)
(0.00356041 -2.52525e-07 0)
(0.00356219 -2.49978e-07 0)
(0.00356395 -2.47459e-07 0)
(0.00356569 -2.44966e-07 0)
(0.00356742 -2.425e-07 0)
(0.00356912 -2.40059e-07 0)
(0.00357081 -2.37642e-07 0)
(0.00357248 -2.35249e-07 0)
(0.00357413 -2.32877e-07 0)
(0.00357576 -2.30526e-07 0)
(0.00357737 -2.28193e-07 0)
(0.00357897 -2.25874e-07 0)
(0.00358055 -2.23562e-07 0)
(0.00358212 -2.21247e-07 0)
(0.00358366 -2.18899e-07 0)
(0.00358519 -2.16587e-07 0)
(0.00358671 -2.14322e-07 0)
(0.0035882 -2.12093e-07 0)
(0.00358968 -2.09893e-07 0)
(0.00359115 -2.07715e-07 0)
(0.00359259 -2.05554e-07 0)
(0.00359402 -2.03408e-07 0)
(0.00359544 -2.0127e-07 0)
(0.00359684 -1.99143e-07 0)
(0.00359822 -1.96943e-07 0)
(0.00359959 -1.94864e-07 0)
(0.00360094 -1.91927e-07 0)
(0.00360227 -1.93117e-07 0)
(0.0036036 -1.85929e-07 0)
(0.0036049 -1.90748e-07 0)
(0.00360619 -1.80113e-07 0)
(0.00360746 -1.87689e-07 0)
(0.00360872 -1.74864e-07 0)
(0.00360997 -1.84875e-07 0)
(0.00361118 -1.6923e-07 0)
(0.00361242 -1.81541e-07 0)
(0.00361356 -1.63257e-07 0)
(0.00361481 -1.78166e-07 0)
(0.00361587 -1.56169e-07 0)
(0.00361715 -1.75141e-07 0)
(0.00361808 -1.46567e-07 0)
(0.00361946 -1.73595e-07 0)
(0.00362019 -1.32465e-07 0)
(0.00362174 -1.7852e-07 0)
(0.00362218 -1.13223e-07 0)
(0.00362406 -2.0716e-07 0)
(0.00362407 -9.79427e-08 0)
(0.00362693 -4.32185e-07 0)
(0.00362591 -9.71361e-07 0)
(1.08619e-06 -5.2653e-06 0)
(-1.30996e-05 1.24135e-05 0)
(-5.7318e-05 4.0487e-05 0)
(-0.000130438 6.40952e-05 0)
(-0.000228681 8.26162e-05 0)
(-0.000344069 9.24917e-05 0)
(-0.000472044 9.83345e-05 0)
(-0.000606805 9.99888e-05 0)
(-0.000745355 9.98706e-05 0)
(-0.000885865 9.84146e-05 0)
(-0.00102579 9.67203e-05 0)
(-0.00116636 9.51639e-05 0)
(-0.00130568 9.39918e-05 0)
(-0.00144411 9.33338e-05 0)
(-0.00158136 9.30898e-05 0)
(-0.00171763 9.32306e-05 0)
(-0.00185292 9.37308e-05 0)
(-0.00198724 9.45303e-05 0)
(-0.00212069 9.5362e-05 0)
(-0.00225296 9.58671e-05 0)
(-0.00238378 9.64135e-05 0)
(-0.00251324 9.70525e-05 0)
(-0.00264136 9.76177e-05 0)
(-0.00276814 9.80014e-05 0)
(-0.00289357 9.81138e-05 0)
(-0.00301765 9.78943e-05 0)
(-0.0031404 9.72849e-05 0)
(-0.00326185 9.62687e-05 0)
(-0.00338207 9.48081e-05 0)
(-0.00350111 9.29168e-05 0)
(-0.00361907 9.05173e-05 0)
(-0.00373591 8.75254e-05 0)
(-0.00385161 8.33611e-05 0)
(-0.00396583 7.66945e-05 0)
(-0.00407849 7.18288e-05 0)
(-0.00419229 6.99847e-05 0)
(-0.00430444 6.55024e-05 0)
(-0.00441623 6.04563e-05 0)
(-0.00452711 5.57609e-05 0)
(-0.00463711 5.15597e-05 0)
(-0.00474617 4.79953e-05 0)
(-0.00485428 4.50501e-05 0)
(-0.00496135 4.28521e-05 0)
(-0.00506744 4.1304e-05 0)
(-0.00517251 4.03467e-05 0)
(-0.00527659 3.98604e-05 0)
(-0.00537972 3.97517e-05 0)
(-0.00548196 3.99506e-05 0)
(-0.00558336 4.0417e-05 0)
(-0.005684 4.11399e-05 0)
(-0.00578395 4.2136e-05 0)
(-0.0058833 4.34635e-05 0)
(-0.00598212 4.51643e-05 0)
(-0.00608046 4.74427e-05 0)
(-0.0061784 5.01339e-05 0)
(-0.00627579 5.3799e-05 0)
(-0.00637275 5.75444e-05 0)
(-0.00646892 6.11646e-05 0)
(-0.00656426 6.73203e-05 0)
(-0.00665799 7.47244e-05 0)
(-0.00674925 8.0625e-05 0)
(-0.00684019 8.51355e-05 0)
(-0.00692946 8.87032e-05 0)
(-0.0070188 9.10614e-05 0)
(-0.00710781 9.23242e-05 0)
(-0.00719671 9.27508e-05 0)
(-0.00728541 9.25534e-05 0)
(-0.00737387 9.19167e-05 0)
(-0.00746202 9.09626e-05 0)
(-0.00754981 8.97882e-05 0)
(-0.00763721 8.84346e-05 0)
(-0.00772416 8.69691e-05 0)
(-0.00781067 8.53807e-05 0)
(-0.00789669 8.37248e-05 0)
(-0.00798223 8.1963e-05 0)
(-0.00806724 8.01517e-05 0)
(-0.00815175 7.82384e-05 0)
(-0.00823572 7.62965e-05 0)
(-0.00831915 7.42311e-05 0)
(-0.008402 7.22089e-05 0)
(-0.0084843 7.00554e-05 0)
(-0.00856596 6.80148e-05 0)
(-0.00864702 6.58151e-05 0)
(-0.00872733 6.35997e-05 0)
(-0.00880695 6.05269e-05 0)
(-0.00888576 5.66237e-05 0)
(-0.00896406 5.57503e-05 0)
(-0.00904188 5.56586e-05 0)
(-0.00911902 5.44466e-05 0)
(-0.00919501 5.39518e-05 0)
(-0.00927 5.3569e-05 0)
(-0.00934327 5.33879e-05 0)
(-0.0094154 5.34692e-05 0)
(-0.00948541 5.71053e-05 0)
(-0.00955379 5.93237e-05 0)
(-0.00962013 6.21659e-05 0)
(-0.00968501 6.41745e-05 0)
(-0.0097471 6.74051e-05 0)
(-0.00980761 6.93483e-05 0)
(-0.00986469 7.28293e-05 0)
(-0.00992012 7.473e-05 0)
(-0.00997087 7.8246e-05 0)
(-0.0100197 7.94567e-05 0)
(-0.0100626 8.31251e-05 0)
(-0.0101039 8.29152e-05 0)
(-0.0101377 8.64711e-05 0)
(-0.0101688 8.33989e-05 0)
(-0.0101918 8.54307e-05 0)
(-0.0102092 7.78547e-05 0)
(-0.0102213 7.54687e-05 0)
(-0.0102254 6.04533e-05 0)
(-0.0102236 4.56359e-05 0)
(-0.0102145 1.54047e-05 0)
(-0.0102008 -5.64175e-06 0)
(-0.010196 -3.23849e-05 0)
(-0.0101797 -5.30774e-05 0)
(-0.0101614 -7.37758e-05 0)
(-0.0101264 -9.05602e-05 0)
(-0.0100907 -0.000107179 0)
(-0.010036 -0.000121881 0)
(-0.00998201 -0.000137071 0)
(-0.00990748 -0.000150709 0)
(-0.00983512 -0.000165354 0)
(-0.00974097 -0.000178076 0)
(-0.00965079 -0.000191819 0)
(-0.0095368 -0.000203038 0)
(-0.00943006 -0.000214461 0)
(-0.00929697 -0.000222715 0)
(-0.00917532 -0.000228736 0)
(-0.0090254 -0.000229828 0)
(-0.00888871 -0.000222635 0)
(-0.00872253 -0.000204259 0)
(-0.00856362 -0.000173931 0)
(-0.00837163 -0.000128601 0)
(-0.00816788 -6.88118e-05 0)
(-0.00792566 -1.13528e-05 0)
(-0.00767528 8.38307e-06 0)
(-0.00741169 3.80241e-05 0)
(-0.00714214 3.59262e-05 0)
(-0.00686604 4.96687e-05 0)
(-0.00657977 4.29779e-05 0)
(-0.00628607 4.74309e-05 0)
(-0.00597961 3.93101e-05 0)
(-0.00566367 3.57583e-05 0)
(-0.00532608 2.46916e-05 0)
(-0.00499007 8.14224e-06 0)
(-0.0045903 -1.88006e-05 0)
(-0.00424011 -6.75126e-05 0)
(-0.00383219 -0.000113321 0)
(-0.00347487 -0.000185221 0)
(-0.00317611 -0.000258732 0)
(-0.00289418 -0.000295842 0)
(-0.00255194 -0.000313668 0)
(-0.00223474 -0.000323411 0)
(-0.00187691 -0.000329755 0)
(-0.001551 -0.000338123 0)
(-0.00121124 -0.000353455 0)
(-0.000881299 -0.000376275 0)
(-0.000491171 -0.000403718 0)
(-4.86435e-05 -0.000392224 0)
(0.000324339 -0.000386148 0)
(0.0007207 -0.000367821 0)
(0.00107993 -0.000359454 0)
(0.00146559 -0.000345885 0)
(0.0018129 -0.000325553 0)
(0.00217849 -0.000313829 0)
(0.00251298 -0.000298307 0)
(0.00286743 -0.000293252 0)
(0.00319048 -0.000278945 0)
(0.00353241 -0.000274613 0)
(0.00384278 -0.000260145 0)
(0.00416945 -0.000255987 0)
(0.00446603 -0.000241798 0)
(0.00477534 -0.000237564 0)
(0.00505719 -0.000224002 0)
(0.00534772 -0.000219291 0)
(0.00561401 -0.000206943 0)
(0.00588484 -0.000201143 0)
(0.00613488 -0.000190446 0)
(0.00638512 -0.00018346 0)
(0.00661816 -0.000173855 0)
(0.0068485 -0.000166387 0)
(0.00706337 -0.00015765 0)
(0.00727402 -0.000149979 0)
(0.00747056 -0.000141822 0)
(0.00766176 -0.000134356 0)
(0.00784005 -0.000126556 0)
(0.00801224 -0.000119534 0)
(0.00817261 -0.000112004 0)
(0.00832638 -0.000105445 0)
(0.00846932 -9.81691e-05 0)
(0.00860539 -9.21483e-05 0)
(0.00873158 -8.51069e-05 0)
(0.00885084 -7.98049e-05 0)
(0.00896103 -7.30774e-05 0)
(0.00906443 -6.80381e-05 0)
(0.0091595 -6.19875e-05 0)
(0.00924793 -5.68033e-05 0)
(0.00932885 -5.18295e-05 0)
(0.00940321 -4.69508e-05 0)
(0.009471 -4.2247e-05 0)
(0.00953248 -3.78437e-05 0)
(0.0095879 -3.33548e-05 0)
(0.00963748 -2.96375e-05 0)
(0.00968157 -2.53742e-05 0)
(0.00972026 -2.22028e-05 0)
(0.00975402 -1.82709e-05 0)
(0.00978291 -1.54744e-05 0)
(0.00980719 -1.19496e-05 0)
(0.00982727 -9.66649e-06 0)
(0.00984305 -6.58867e-06 0)
(0.0098552 -4.41879e-06 0)
(0.00986363 -2.11966e-06 0)
(0.00986877 -1.18706e-07 0)
(0.0098708 1.99068e-06 0)
(0.00986951 4.1654e-06 0)
(0.00986495 5.96419e-06 0)
(0.00985828 7.72538e-06 0)
(0.00984875 9.50901e-06 0)
(0.00983747 1.09432e-05 0)
(0.0098237 1.24314e-05 0)
(0.00980868 1.35241e-05 0)
(0.00979134 1.46151e-05 0)
(0.00977318 1.55669e-05 0)
(0.00975285 1.63791e-05 0)
(0.00973212 1.71985e-05 0)
(0.00970934 1.77231e-05 0)
(0.0096867 1.84121e-05 0)
(0.0096619 1.86634e-05 0)
(0.00963778 1.9254e-05 0)
(0.0096116 1.92078e-05 0)
(0.00958641 1.97431e-05 0)
(0.0095593 1.95315e-05 0)
(0.0095334 1.9941e-05 0)
(0.00950575 1.96446e-05 0)
(0.00947947 1.98659e-05 0)
(0.00945165 1.95267e-05 0)
(0.00942525 1.95563e-05 0)
(0.00939762 1.91949e-05 0)
(0.00937133 1.90202e-05 0)
(0.00934424 1.86655e-05 0)
(0.00931817 1.82697e-05 0)
(0.00929208 1.79546e-05 0)
(0.00926636 1.73465e-05 0)
(0.00924121 1.7058e-05 0)
(0.0092162 1.63357e-05 0)
(0.00919202 1.60297e-05 0)
(0.00916794 1.52774e-05 0)
(0.0091449 1.49287e-05 0)
(0.00912195 1.41742e-05 0)
(0.00910022 1.37984e-05 0)
(0.00907853 1.30786e-05 0)
(0.00905818 1.26738e-05 0)
(0.00903783 1.19842e-05 0)
(0.0090189 1.1546e-05 0)
(0.00899994 1.08769e-05 0)
(0.00898247 1.04172e-05 0)
(0.00896495 9.76701e-06 0)
(0.00894897 9.29494e-06 0)
(0.00893293 8.68578e-06 0)
(0.00891846 8.17874e-06 0)
(0.00890391 7.60999e-06 0)
(0.00889098 7.06768e-06 0)
(0.00887794 6.52593e-06 0)
(0.00886654 5.9659e-06 0)
(0.00885501 5.4435e-06 0)
(0.00884513 4.87721e-06 0)
(0.00883511 4.37818e-06 0)
(0.00882672 3.82534e-06 0)
(0.0088182 3.33862e-06 0)
(0.00881126 2.81533e-06 0)
(0.00880423 2.32742e-06 0)
(0.0087987 1.83031e-06 0)
(0.00879314 1.36085e-06 0)
(0.00878895 8.60382e-07 0)
(0.00878485 4.7725e-07 0)
(0.00878196 -1.05482e-07 0)
(0.00877927 -3.03133e-07 0)
(0.00877765 -1.0744e-06 0)
(0.0087763 -1.20692e-06 0)
(0.00877579 -1.87983e-06 0)
(0.00877577 -2.10341e-06 0)
(0.00877661 -2.54432e-06 0)
(0.00877774 -2.94475e-06 0)
(0.00877968 -3.27187e-06 0)
(0.00878202 -3.83075e-06 0)
(0.00878505 -4.14465e-06 0)
(0.00878847 -4.58793e-06 0)
(0.0087925 -4.85218e-06 0)
(0.00879696 -5.24752e-06 0)
(0.00880193 -5.51708e-06 0)
(0.00880738 -5.83357e-06 0)
(0.0088133 -6.10867e-06 0)
(0.00881967 -6.39935e-06 0)
(0.00882649 -6.66548e-06 0)
(0.00883363 -6.92326e-06 0)
(0.00884137 -7.10786e-06 0)
(0.00884916 -7.43226e-06 0)
(0.00885781 -7.56118e-06 0)
(0.00886616 -7.90199e-06 0)
(0.00887558 -7.96591e-06 0)
(0.00888448 -8.32262e-06 0)
(0.00889458 -8.31417e-06 0)
(0.00890402 -8.70933e-06 0)
(0.00891475 -8.63036e-06 0)
(0.0089247 -9.03107e-06 0)
(0.00893598 -8.91066e-06 0)
(0.00894642 -9.296e-06 0)
(0.00895821 -9.16279e-06 0)
(0.0089691 -9.53582e-06 0)
(0.00898137 -9.39367e-06 0)
(0.00899267 -9.74914e-06 0)
(0.00900536 -9.59403e-06 0)
(0.00901703 -9.92322e-06 0)
(0.00903007 -9.76403e-06 0)
(0.00904208 -1.00662e-05 0)
(0.00905542 -9.92812e-06 0)
(0.0090677 -1.01875e-05 0)
(0.00908129 -1.00682e-05 0)
(0.00909381 -1.02873e-05 0)
(0.00910762 -1.01691e-05 0)
(0.00912034 -1.0377e-05 0)
(0.00913432 -1.02374e-05 0)
(0.00914722 -1.04269e-05 0)
(0.00916134 -1.02816e-05 0)
(0.00917437 -1.04477e-05 0)
(0.0091886 -1.03097e-05 0)
(0.00920174 -1.04516e-05 0)
(0.00921604 -1.03233e-05 0)
(0.00922925 -1.04419e-05 0)
(0.00924359 -1.03216e-05 0)
(0.00925685 -1.04165e-05 0)
(0.0092712 -1.03037e-05 0)
(0.0092845 -1.03753e-05 0)
(0.00929883 -1.02709e-05 0)
(0.00931213 -1.0317e-05 0)
(0.00932642 -1.02253e-05 0)
(0.00933972 -1.02442e-05 0)
(0.00935393 -1.01653e-05 0)
(0.00936721 -1.01646e-05 0)
(0.00938131 -1.00889e-05 0)
(0.00939458 -1.00784e-05 0)
(0.00940854 -9.99797e-06 0)
(0.00942177 -9.97485e-06 0)
(0.00943557 -9.89878e-06 0)
(0.00944876 -9.8618e-06 0)
(0.00946238 -9.79014e-06 0)
(0.00947551 -9.74153e-06 0)
(0.00948894 -9.67277e-06 0)
(0.009502 -9.61235e-06 0)
(0.00951523 -9.54665e-06 0)
(0.0095282 -9.47449e-06 0)
(0.0095412 -9.41099e-06 0)
(0.00955407 -9.34303e-06 0)
(0.00956688 -9.26852e-06 0)
(0.0095796 -9.19652e-06 0)
(0.00959223 -9.12096e-06 0)
(0.00960477 -9.04642e-06 0)
(0.00961722 -8.96995e-06 0)
(0.00962958 -8.89396e-06 0)
(0.00964184 -8.81623e-06 0)
(0.00965401 -8.73881e-06 0)
(0.00966608 -8.65994e-06 0)
(0.00967805 -8.5813e-06 0)
(0.00968992 -8.50178e-06 0)
(0.0097017 -8.42232e-06 0)
(0.00971337 -8.3424e-06 0)
(0.00972494 -8.26247e-06 0)
(0.00973641 -8.18237e-06 0)
(0.00974778 -8.10236e-06 0)
(0.00975905 -8.02234e-06 0)
(0.00977021 -7.9425e-06 0)
(0.00978127 -7.86277e-06 0)
(0.00979223 -7.7833e-06 0)
(0.00980309 -7.70405e-06 0)
(0.00981384 -7.62512e-06 0)
(0.00982449 -7.54652e-06 0)
(0.00983504 -7.46831e-06 0)
(0.00984548 -7.39052e-06 0)
(0.00985583 -7.31317e-06 0)
(0.00986607 -7.23631e-06 0)
(0.00987621 -7.15996e-06 0)
(0.00988625 -7.08414e-06 0)
(0.00989619 -7.00885e-06 0)
(0.00990603 -6.93413e-06 0)
(0.00991577 -6.85998e-06 0)
(0.00992541 -6.78641e-06 0)
(0.00993496 -6.71343e-06 0)
(0.00994441 -6.64104e-06 0)
(0.00995376 -6.56924e-06 0)
(0.00996301 -6.49804e-06 0)
(0.00997217 -6.42744e-06 0)
(0.00998123 -6.35743e-06 0)
(0.0099902 -6.28803e-06 0)
(0.00999907 -6.21921e-06 0)
(0.0100078 -6.15099e-06 0)
(0.0100165 -6.08336e-06 0)
(0.0100251 -6.01633e-06 0)
(0.0100336 -5.94987e-06 0)
(0.010042 -5.884e-06 0)
(0.0100504 -5.81871e-06 0)
(0.0100586 -5.754e-06 0)
(0.0100667 -5.68987e-06 0)
(0.0100748 -5.62631e-06 0)
(0.0100828 -5.56332e-06 0)
(0.0100907 -5.5009e-06 0)
(0.0100985 -5.43907e-06 0)
(0.0101062 -5.3778e-06 0)
(0.0101138 -5.31712e-06 0)
(0.0101213 -5.25702e-06 0)
(0.0101288 -5.1975e-06 0)
(0.0101362 -5.13857e-06 0)
(0.0101435 -5.08022e-06 0)
(0.0101507 -5.02246e-06 0)
(0.0101578 -4.96529e-06 0)
(0.0101649 -4.90871e-06 0)
(0.0101719 -4.85274e-06 0)
(0.0101788 -4.79738e-06 0)
(0.0101856 -4.74263e-06 0)
(0.0101923 -4.6885e-06 0)
(0.010199 -4.63499e-06 0)
(0.0102056 -4.5821e-06 0)
(0.0102121 -4.52985e-06 0)
(0.0102186 -4.47822e-06 0)
(0.0102249 -4.42723e-06 0)
(0.0102313 -4.37688e-06 0)
(0.0102375 -4.32716e-06 0)
(0.0102437 -4.27808e-06 0)
(0.0102498 -4.22963e-06 0)
(0.0102558 -4.18183e-06 0)
(0.0102618 -4.13465e-06 0)
(0.0102677 -4.08811e-06 0)
(0.0102735 -4.04219e-06 0)
(0.0102793 -3.99689e-06 0)
(0.010285 -3.95221e-06 0)
(0.0102906 -3.90814e-06 0)
(0.0102962 -3.86467e-06 0)
(0.0103017 -3.8218e-06 0)
(0.0103072 -3.77951e-06 0)
(0.0103126 -3.7378e-06 0)
(0.010318 -3.69666e-06 0)
(0.0103233 -3.65607e-06 0)
(0.0103285 -3.61602e-06 0)
(0.0103337 -3.5765e-06 0)
(0.0103388 -3.53751e-06 0)
(0.0103438 -3.49901e-06 0)
(0.0103489 -3.46101e-06 0)
(0.0103538 -3.42349e-06 0)
(0.0103587 -3.38644e-06 0)
(0.0103636 -3.34983e-06 0)
(0.0103684 -3.31366e-06 0)
(0.0103731 -3.2779e-06 0)
(0.0103778 -3.24256e-06 0)
(0.0103825 -3.20761e-06 0)
(0.0103871 -3.17304e-06 0)
(0.0103916 -3.13883e-06 0)
(0.0103961 -3.10497e-06 0)
(0.0104006 -3.07145e-06 0)
(0.010405 -3.03826e-06 0)
(0.0104094 -3.00537e-06 0)
(0.0104137 -2.97279e-06 0)
(0.0104179 -2.9405e-06 0)
(0.0104222 -2.90848e-06 0)
(0.0104263 -2.87674e-06 0)
(0.0104305 -2.8453e-06 0)
(0.0104346 -2.81425e-06 0)
(0.0104386 -2.78341e-06 0)
(0.0104426 -2.75273e-06 0)
(0.0104465 -2.72222e-06 0)
(0.0104505 -2.69188e-06 0)
(0.0104543 -2.66172e-06 0)
(0.0104581 -2.63175e-06 0)
(0.0104619 -2.60194e-06 0)
(0.0104657 -2.57229e-06 0)
(0.0104694 -2.54277e-06 0)
(0.010473 -2.51313e-06 0)
(0.0104766 -2.48398e-06 0)
(0.0104802 -2.45199e-06 0)
(0.0104837 -2.43507e-06 0)
(0.0104872 -2.39055e-06 0)
(0.0104907 -2.37945e-06 0)
(0.0104941 -2.33003e-06 0)
(0.0104974 -2.32476e-06 0)
(0.0105008 -2.27056e-06 0)
(0.0105041 -2.27081e-06 0)
(0.0105073 -2.20975e-06 0)
(0.0105105 -2.21222e-06 0)
(0.0105136 -2.15079e-06 0)
(0.0105168 -2.15214e-06 0)
(0.0105198 -2.09264e-06 0)
(0.010523 -2.09109e-06 0)
(0.0105257 -2.03578e-06 0)
(0.010529 -2.03029e-06 0)
(0.0105315 -1.98587e-06 0)
(0.0105349 -1.9778e-06 0)
(0.010537 -1.96749e-06 0)
(0.0105407 -1.9713e-06 0)
(0.0105422 -2.08351e-06 0)
(0.0105466 -2.25261e-06 0)
(0.0105469 -3.16535e-06 0)
(-4.42727e-06 5.872e-06 0)
(-4.63223e-05 5.89459e-05 0)
(-0.000133607 0.000123837 0)
(-0.000262728 0.000181796 0)
(-0.000426121 0.000227257 0)
(-0.000613931 0.000256522 0)
(-0.000818798 0.000274884 0)
(-0.00103364 0.000283363 0)
(-0.00125391 0.000286722 0)
(-0.00147652 0.000286474 0)
(-0.00169886 0.000284847 0)
(-0.00192044 0.000281968 0)
(-0.00213981 0.000278715 0)
(-0.00235712 0.000275607 0)
(-0.00257216 0.000272584 0)
(-0.00278485 0.00026949 0)
(-0.00299524 0.000266142 0)
(-0.00320315 0.00026303 0)
(-0.00340815 0.000259328 0)
(-0.00361069 0.000254893 0)
(-0.0038115 0.000250297 0)
(-0.00401022 0.000245727 0)
(-0.004207 0.000241291 0)
(-0.00440164 0.000237021 0)
(-0.00459414 0.000233042 0)
(-0.00478445 0.000229484 0)
(-0.00497258 0.000226426 0)
(-0.00515851 0.000224052 0)
(-0.00534229 0.000222335 0)
(-0.0055239 0.000221444 0)
(-0.0057034 0.000221182 0)
(-0.00588072 0.000221636 0)
(-0.00605606 0.000222223 0)
(-0.0062298 0.000222644 0)
(-0.00640251 0.000227588 0)
(-0.00657153 0.00023026 0)
(-0.00673723 0.000233395 0)
(-0.00690096 0.00023633 0)
(-0.00706256 0.000238854 0)
(-0.00722207 0.000240833 0)
(-0.00737948 0.00024224 0)
(-0.00753499 0.000242828 0)
(-0.00768862 0.000242789 0)
(-0.00784076 0.000242013 0)
(-0.00799145 0.000240638 0)
(-0.00814081 0.000238776 0)
(-0.00828882 0.000236549 0)
(-0.00843545 0.000234062 0)
(-0.00858066 0.000231384 0)
(-0.00872441 0.000228554 0)
(-0.00886667 0.000225575 0)
(-0.0090074 0.00022243 0)