/*--------------------------------*- C++ -*----------------------------------*\
| =========                 |                                                 |
| \\      /  F ield         | OpenFOAM: The Open Source CFD Toolbox           |
|  \\    /   O peration     | Version:  2012                                  |
|   \\  /    A nd           | Website:  www.openfoam.com                      |
|    \\/     M anipulation  |                                                 |
\*---------------------------------------------------------------------------*/
FoamFile
{
    version     2.0;
    format      ascii;
    class       volScalarField;
    location    "0.4";
    object      minKappa;
}
// * * * * * * * * * * * * * * * * * * * * * * * * * * * * * * * * * * * * * //

dimensions      [0 0 0 0 0 0 0];


internalField   nonuniform List<scalar> 
2268
(
7.55362e-07
1.77605e-06
2.77403e-06
3.81278e-06
4.84889e-06
5.91006e-06
6.87149e-06
7.71281e-06
8.67838e-06
9.31056e-06
1.0049e-05
1.06381e-05
1.10712e-05
1.13113e-05
1.14174e-05
1.12875e-05
1.0942e-05
1.03148e-05
9.37827e-06
8.07999e-06
6.30077e-06
4.3129e-06
2.07939e-06
7.55362e-07
1.77605e-06
2.77403e-06
3.81278e-06
4.84889e-06
5.91006e-06
6.87149e-06
7.71281e-06
8.67838e-06
9.31056e-06
1.0049e-05
1.06381e-05
1.10712e-05
1.13113e-05
1.14174e-05
1.12875e-05
1.0942e-05
1.03148e-05
9.37827e-06
8.07999e-06
6.30077e-06
4.3129e-06
2.07939e-06
1.16325e-06
1.98767e-06
2.90972e-06
3.92071e-06
4.93582e-06
5.97842e-06
6.92215e-06
7.77607e-06
8.7296e-06
9.35863e-06
1.01162e-05
1.06887e-05
1.10959e-05
1.13939e-05
1.15209e-05
1.13999e-05
1.10584e-05
1.04567e-05
9.58631e-06
8.37617e-06
6.69617e-06
4.79551e-06
2.83764e-06
1.63839e-06
2.3046e-06
3.12504e-06
4.09247e-06
5.07664e-06
6.08927e-06
7.00581e-06
7.87865e-06
8.81082e-06
9.43827e-06
1.02272e-05
1.07522e-05
1.11841e-05
1.15041e-05
1.1649e-05
1.1549e-05
1.12217e-05
1.06568e-05
9.84383e-06
8.7845e-06
7.30955e-06
5.84589e-06
4.21694e-06
2.13492e-06
2.69387e-06
3.40636e-06
4.32053e-06
5.26867e-06
6.24396e-06
7.12695e-06
8.02193e-06
8.9201e-06
9.55262e-06
1.03739e-05
1.08462e-05
1.1326e-05
1.16398e-05
1.18058e-05
1.17413e-05
1.14713e-05
1.096e-05
1.02219e-05
9.30128e-06
8.02751e-06
6.94571e-06
5.65241e-06
2.64064e-06
3.12991e-06
3.73914e-06
4.59612e-06
5.50607e-06
6.4399e-06
7.28779e-06
8.20248e-06
9.05236e-06
9.70204e-06
1.05501e-05
1.09806e-05
1.14992e-05
1.18225e-05
1.20024e-05
1.19793e-05
1.17732e-05
1.13534e-05
1.07037e-05
9.95448e-06
8.88667e-06
8.28294e-06
7.5742e-06
3.15511e-06
3.59653e-06
4.11327e-06
4.91476e-06
5.78614e-06
6.67663e-06
7.49285e-06
8.41943e-06
9.21193e-06
9.89594e-06
1.07569e-05
1.11528e-05
1.17204e-05
1.20328e-05
1.22387e-05
1.22506e-05
1.21305e-05
1.17917e-05
1.12715e-05
1.07071e-05
9.8653e-06
9.76827e-06
9.48045e-06
3.67665e-06
4.07876e-06
4.51969e-06
5.26988e-06
6.10164e-06
6.94801e-06
7.73689e-06
8.6643e-06
9.40174e-06
1.0136e-05
1.09826e-05
1.13594e-05
1.19991e-05
1.22733e-05
1.25374e-05
1.25802e-05
1.25525e-05
1.23033e-05
1.1923e-05
1.16005e-05
1.09514e-05
1.14414e-05
1.20221e-05
1.16655e-05
3.39157e-05
4.07959e-05
6.42465e-05
7.36043e-05
0.000119966
0.000139078
0.000185263
0.000214527
0.000275172
0.000319555
0.000402873
0.000498507
0.000628722
0.000795761
0.00094447
0.00114618
0.00104541
0.000447579
1.16655e-05
3.55251e-05
4.07959e-05
6.42465e-05
7.36043e-05
0.000119966
0.000139078
0.000185263
0.000214527
0.000275172
0.000319077
0.000402873
0.00049818
0.000628722
0.000795761
0.00094447
0.00114618
0.00104541
0.000447579
2.44009e-05
4.31564e-05
4.4378e-05
6.46584e-05
7.73523e-05
0.000123619
0.000142114
0.000187885
0.000216045
0.000276231
0.00031786
0.000405041
0.000493623
0.000630315
0.000809368
0.000991015
0.00121241
0.00101339
0.000795502
4.05712e-05
5.31348e-05
4.99549e-05
7.04025e-05
8.56248e-05
0.000130484
0.000147019
0.000192929
0.000219808
0.000278056
0.000316878
0.0004049
0.000488971
0.000630151
0.000817676
0.00100874
0.00113362
0.000904215
0.00107547
5.53865e-05
6.01105e-05
5.47706e-05
7.26645e-05
9.39718e-05
0.000139519
0.000153798
0.00019947
0.000224155
0.000280402
0.000316727
0.000404334
0.00048125
0.000629989
0.000800756
0.000942933
0.000982341
0.000882074
0.001246
7.20072e-05
7.324e-05
6.15306e-05
8.0055e-05
0.000106145
0.000150796
0.000163053
0.000207523
0.000230081
0.000284665
0.000313066
0.000401126
0.000471708
0.000627767
0.000760752
0.000851291
0.000793108
0.000882074
0.00139023
9.07269e-05
8.17321e-05
6.42065e-05
8.10991e-05
0.000118616
0.000166059
0.000173361
0.000217669
0.000237182
0.000287986
0.000311058
0.000400291
0.000462566
0.000619882
0.000702646
0.00075192
0.000586916
0.000923053
0.00150175
0.000109989
9.917e-05
6.81155e-05
8.80779e-05
0.000136749
0.000182201
0.000185405
0.00022845
0.000246155
0.000293196
0.000311058
0.000400291
0.000462566
0.000619882
0.000702646
0.00075192
0.000586916
0.000984281
0.00156789
6.57682e-06
7.15411e-06
7.75577e-06
8.85357e-06
1.00906e-05
1.13495e-05
1.25462e-05
1.39808e-05
1.50712e-05
1.63024e-05
1.75454e-05
1.81522e-05
1.9275e-05
1.96181e-05
2.01646e-05
2.0205e-05
2.03657e-05
2.00504e-05
1.99069e-05
1.97216e-05
1.97219e-05
2.14308e-05
2.53428e-05
1.14232e-05
1.20923e-05
1.27455e-05
1.40538e-05
1.55607e-05
1.71196e-05
1.86655e-05
2.05367e-05
2.1937e-05
2.37784e-05
2.51441e-05
2.62827e-05
2.78785e-05
2.8234e-05
2.94291e-05
2.93647e-05
3.01845e-05
2.957e-05
3.04578e-05
3.01008e-05
3.15603e-05
3.32837e-05
3.05311e-05
2.22188e-05
2.32075e-05
2.41535e-05
2.61893e-05
2.85535e-05
3.11119e-05
3.37199e-05
3.7103e-05
3.9198e-05
4.23563e-05
4.369e-05
4.52266e-05
4.51095e-05
4.35092e-05
4.13078e-05
3.64163e-05
3.25493e-05
3.20562e-05
3.3288e-05
3.30859e-05
3.53934e-05
3.64496e-05
3.32556e-05
0.000157817
0.000163312
0.00016939
0.00018188
0.000196042
0.000211976
0.000228541
0.000250236
0.000262223
0.000281616
0.000287382
0.000292923
0.000282259
0.000268112
0.000226474
0.000144244
8.37691e-05
6.99486e-05
5.17199e-05
3.62163e-05
3.73083e-05
3.82891e-05
3.19236e-05
0.000374227
0.000376715
0.000384542
0.000396282
0.000392835
0.00038846
0.000381745
0.000373035
0.000358901
0.00035152
0.000342678
0.000341641
0.000349049
0.00035669
0.000392413
0.000405054
0.000520956
0.000492694
0.000314048
9.78484e-05
8.56716e-05
5.7741e-05
3.24461e-05
0.000395859
0.000394439
0.000393486
0.000388681
0.000379644
0.000367945
0.000353461
0.000334373
0.000318749
0.000305945
0.000300525
0.000296059
0.000296059
0.000302748
0.000316996
0.000353649
0.000438852
0.000528846
0.000642042
0.000745016
0.00060961
0.000333724
0.000103803
0.000403592
0.000402672
0.000399395
0.000396246
0.000386369
0.00037446
0.000362112
0.000350428
0.000335067
0.000331958
0.000326851
0.000334273
0.000329583
0.000346667
0.000350607
0.000402364
0.000421757
0.000452714
0.000538214
0.000681581
0.00075499
0.000808085
0.000712161
0.000409575
0.00040669
0.000403084
0.000398054
0.000389798
0.000379955
0.000371227
0.000362517
0.000352169
0.000356326
0.000362335
0.000369374
0.00035916
0.00034899
0.000341018
0.000341018
0.000351215
0.00035151
0.000388677
0.000505991
0.000696722
0.000823181
0.000623306
0.000417039
0.000416069
0.000410822
0.000408231
0.000401071
0.000393798
0.00038347
0.000379066
0.00037016
0.000374873
0.000380858
0.00037999
0.000368272
0.000356891
0.00034494
0.000336896
0.000317923
0.000315999
0.000315999
0.000354576
0.000453078
0.000648802
0.000670963
0.000425115
0.000423076
0.000419928
0.000417069
0.000411472
0.000406277
0.000397678
0.000395317
0.000387502
0.000389256
0.000391794
0.000384726
0.000374733
0.000364698
0.000351944
0.000344614
0.000333229
0.000318592
0.000316504
0.00030553
0.000313659
0.000390494
0.000531462
0.000433794
0.000432115
0.000430102
0.000428053
0.00042325
0.000420065
0.000412412
0.000411047
0.000402569
0.00040099
0.000400635
0.000396868
0.000387364
0.000382648
0.000369107
0.000359604
0.000339838
0.000322
0.000303998
0.000293832
0.000293832
0.00029643
0.000334508
0.000445079
0.000443836
0.000442194
0.000440575
0.000436228
0.000434345
0.00042754
0.00042663
0.000419345
0.000415935
0.000414548
0.000412284
0.000406554
0.000404041
0.000394186
0.000386642
0.000372872
0.000356787
0.000345048
0.000331427
0.000324461
0.000326496
0.000287148
0.000456788
0.000455919
0.000454738
0.000453468
0.000449687
0.000448901
0.000443195
0.000442808
0.000437333
0.000434704
0.000433334
0.000432986
0.000429656
0.000428656
0.000422364
0.00041686
0.000409026
0.000399094
0.000395099
0.000388149
0.000384373
0.000391596
0.000349894
0.000470039
0.000469355
0.000468297
0.000467534
0.000464279
0.000464285
0.00045961
0.000459835
0.000456532
0.000454749
0.000453888
0.000453195
0.000451065
0.000450945
0.000446716
0.000443907
0.000438405
0.000433895
0.000435157
0.000433459
0.000444233
0.000462972
0.000401178
0.000484271
0.000483764
0.000482818
0.00048265
0.000479953
0.000480748
0.000476959
0.000477541
0.000475357
0.000474355
0.000473797
0.000473876
0.000472583
0.000473107
0.000471079
0.000470314
0.000468987
0.000469753
0.000475449
0.000480825
0.000499483
0.000520845
0.00044141
0.000499355
0.000499042
0.000498515
0.000498723
0.000496556
0.000497792
0.000494897
0.000495644
0.000494441
0.000494011
0.000494174
0.000494683
0.000494474
0.000496044
0.00049592
0.000498215
0.000500643
0.000506314
0.000516346
0.000527564
0.000551678
0.000575464
0.000489829
0.000515194
0.00051519
0.000514801
0.000515469
0.000513581
0.000515131
0.000512857
0.000513898
0.000513483
0.00051385
0.000514692
0.000516104
0.000517233
0.000520315
0.000522961
0.000528238
0.000534533
0.000544358
0.000558077
0.000574935
0.000602511
0.000630147
0.000533697
0.00053222
0.000532424
0.000531967
0.000532977
0.000531374
0.000533161
0.000531583
0.000532925
0.000533245
0.000534287
0.000536043
0.000538492
0.000541252
0.000546118
0.000551152
0.000559043
0.000568399
0.000581487
0.000598619
0.00061973
0.000650095
0.000682332
0.000579524
0.000549519
0.000549827
0.000549363
0.000550597
0.000549221
0.000551207
0.000550188
0.000551927
0.000552868
0.000554705
0.000557328
0.000560856
0.000564977
0.000571273
0.000578242
0.000588221
0.000600127
0.00061614
0.000636328
0.0006617
0.00069512
0.000733211
0.000620139
0.00056771
0.000568136
0.000567704
0.000569166
0.000568055
0.000570241
0.00056973
0.000571837
0.000573276
0.000575786
0.000579137
0.000583556
0.000588738
0.000596264
0.000604797
0.000616766
0.000630843
0.00064961
0.000672446
0.000701318
0.000734879
0.000775913
0.00065567
0.000586555
0.000587034
0.000586503
0.000588017
0.000586987
0.000589219
0.000588979
0.000591363
0.000593096
0.0005962
0.0006
0.000605244
0.000611154
0.000619991
0.000629653
0.00064367
0.000658984
0.000680543
0.000703852
0.000732731
0.0007682
0.000812309
0.000685289
0.000606111
0.000606593
0.000605954
0.000607423
0.000606474
0.000608684
0.000608681
0.000611262
0.000613277
0.000616861
0.00062101
0.000626969
0.000633488
0.000643403
0.000653676
0.000669254
0.000684981
0.000706845
0.000731238
0.000761971
0.000799051
0.000845156
0.000711235
0.000626297
0.000626758
0.000625989
0.000627326
0.000626432
0.000628459
0.0006286
0.000631152
0.000633422
0.000637123
0.000641535
0.000647637
0.000654588
0.000664697
0.000675446
0.000690255
0.000706587
0.000727211
0.000752155
0.00078344
0.000821131
0.000868007
0.000730476
0.000646873
0.000647312
0.000646414
0.000647551
0.000646735
0.000648424
0.000648694
0.000650962
0.000653458
0.000656868
0.000661549
0.000667221
0.000674503
0.000684179
0.000695267
0.000709817
0.000725841
0.000746239
0.000771069
0.000802469
0.000840595
0.000888205
0.000746579
0.000667995
0.000668399
0.000667369
0.000668256
0.000667532
0.00066879
0.000669181
0.000670992
0.000673622
0.000676382
0.000681268
0.000686089
0.000693588
0.000702328
0.000712962
0.000725298
0.000740284
0.000760065
0.000784113
0.000815303
0.000852574
0.000899547
0.000750627
0.000688826
0.000689151
0.000688094
0.000688701
0.000688097
0.000688878
0.000689327
0.000690471
0.000693113
0.000694959
0.000699901
0.000703516
0.000710926
0.000718189
0.000727478
0.000738594
0.00075223
0.000770596
0.000792786
0.000821889
0.000856642
0.000901609
0.000748591
0.000709385
0.000709554
0.000708647
0.00070896
0.000708521
0.000708887
0.00070939
0.000709785
0.000712296
0.00071311
0.000717893
0.000720134
0.000727128
0.000732682
0.000740758
0.000750158
0.000761584
0.000776972
0.000795852
0.000821544
0.000853642
0.000895837
0.00074225
0.000728819
0.000728741
0.000728097
0.000728064
0.000727786
0.000727808
0.000728409
0.000728072
0.000730218
0.000729954
0.000734302
0.000735129
0.000741393
0.000745093
0.000750723
0.000757641
0.000766084
0.000777705
0.000792773
0.000814003
0.000841941
0.000879576
0.000726346
0.000746658
0.000746336
0.000746009
0.00074568
0.000745652
0.000745448
0.000746249
0.000745488
0.000747414
0.000746302
0.000750052
0.000749634
0.000754935
0.000756589
0.000761731
0.000765889
0.000771069
0.000778312
0.000788149
0.000803142
0.000825739
0.000858208
0.000705323
0.000762585
0.000762107
0.000761981
0.000761457
0.00076165
0.000761256
0.000762206
0.000761255
0.000763163
0.000761537
0.000764638
0.000762968
0.00076687
0.000766317
0.000768113
0.000769425
0.000770695
0.000773046
0.000777619
0.00078348
0.000800512
0.000826216
0.000672067
0.00077613
0.00077558
0.000775555
0.000774962
0.000775348
0.000774878
0.00077601
0.000775058
0.000777111
0.000775425
0.000778389
0.000775925
0.000778702
0.000776273
0.000777545
0.000775099
0.000772041
0.000767937
0.000763774
0.000758952
0.000766582
0.000781378
0.000639019
0.000787369
0.000786805
0.000786856
0.000786291
0.00078687
0.000786445
0.000787815
0.000787085
0.000789419
0.000787882
0.000790829
0.00078786
0.000788221
0.0007843
0.000779387
0.000772119
0.000764062
0.000755756
0.000747188
0.000735637
0.000730435
0.000730219
0.000596905
0.000796261
0.000795681
0.00079576
0.000795215
0.000795962
0.00079563
0.000797294
0.000796886
0.000799543
0.000798366
0.000801404
0.000798435
0.000799927
0.000794201
0.000789767
0.000780348
0.000768152
0.000752517
0.000733829
0.000713486
0.000695187
0.000676964
0.000551196
0.000802889
0.000802329
0.000802454
0.000801972
0.000802926
0.00080275
0.000804375
0.000804706
0.00080694
0.000807009
0.000809416
0.000807661
0.000805722
0.000799988
0.000790866
0.000777556
0.00076033
0.000738842
0.000713202
0.000686236
0.000660382
0.000629739
0.000491013
0.000806506
0.000806227
0.000806014
0.000806014
0.000806362
0.000806965
0.000808226
0.000809699
0.000811745
0.000813413
0.00081569
0.000814812
0.00081473
0.000809698
0.000801371
0.000788254
0.000769146
0.000743214
0.000710198
0.000671975
0.000630757
0.000588852
0.000440811
0.000808929
0.000808691
0.000808517
0.000808517
0.000808903
0.000809518
0.000810814
0.000812355
0.000814491
0.000816497
0.000818513
0.000819241
0.000816507
0.000810737
0.000800484
0.000784851
0.000762454
0.000732508
0.000693689
0.00064742
0.00059488
0.000545793
0.000381029
0.000809903
0.000809472
0.000809151
0.000809151
0.000809481
0.000810136
0.000811578
0.000813367
0.000815825
0.000818247
0.000820814
0.000822503
0.000821333
0.000816721
0.000807777
0.000793439
0.000771569
0.000740707
0.000698596
0.000645235
0.000581573
0.000515132
0.000340645
0.000810226
0.000809831
0.000809499
0.000809499
0.000809775
0.00081032
0.000811608
0.000813204
0.000815439
0.000817587
0.00081979
0.000820915
0.000818239
0.000812481
0.000801886
0.000785495
0.000761098
0.000727142
0.00068082
0.000621092
0.000548045
0.000466918
0.000286862
0.000810394
0.000809855
0.000809329
0.000809329
0.000809439
0.000809888
0.000811137
0.000812733
0.000815012
0.000817261
0.000819679
0.000820249
0.000819571
0.00081463
0.000805072
0.000789928
0.000766827
0.000733979
0.000688197
0.000626679
0.00054712
0.000454398
0.000265549
0.000809658
0.000809025
0.000808346
0.000808254
0.000808254
0.000808422
0.000809321
0.000810489
0.00081226
0.00081389
0.000815544
0.000815429
0.000812012
0.000805483
0.000794016
0.000776696
0.000751155
0.000715564
0.000666968
0.000603181
0.000520764
0.000419968
0.000228715
0.000809872
0.000809184
0.000808429
0.000808247
0.000808247
0.000808313
0.000809107
0.000810164
0.00081184
0.000812442
0.000815118
0.000812494
0.000812285
0.000804533
0.000795356
0.000778887
0.000754286
0.000719443
0.000670673
0.000604661
0.000517362
0.00040923
0.00021053
0.000807705
0.00080688
0.000805891
0.000805393
0.000805038
0.000805038
0.000805301
0.000805701
0.000806588
0.000807211
0.000807125
0.00080513
0.000800271
0.000792266
0.000779423
0.000760985
0.000734626
0.000698483
0.000649168
0.00058357
0.000496828
0.000387447
0.000193662
1.52486e-05
1.37498e-05
1.37498e-05
6.98632e-05
1.91561e-05
1.88465e-05
1.88465e-05
2.41287e-05
2.14925e-05
2.11863e-05
2.05448e-05
2.05448e-05
2.10138e-05
2.10138e-05
2.13554e-05
2.14057e-05
2.11794e-05
2.11794e-05
2.14622e-05
2.16882e-05
9.18014e-05
7.97517e-05
2.75005e-05
2.75005e-05
0.000453748
0.00043291
0.000298225
0.000118848
0.000425212
0.000425212
0.000455181
0.000474366
0.000430834
0.000422434
0.000414859
0.000414859
0.000415578
0.000415578
0.0004411
0.000452284
0.000260704
0.000260704
0.000306112
0.000349134
0.000197939
0.000197939
0.000216712
0.000239742
0.000232808
0.000232808
0.000241975
0.000252621
0.000266947
0.000266947
0.000278736
0.00029159
0.000293091
0.000293091
0.000305034
0.000316826
0.000326218
0.000326218
0.000339103
0.000352192
0.000355105
0.000355105
0.00036789
0.000381908
0.000385563
0.000385563
0.000399696
0.000415699
0.000412215
0.000412215
0.000427513
0.000444549
0.000435763
0.000435763
0.000452563
0.000470931
0.000455894
0.000455894
0.000474332
0.000495238
0.00047394
0.00047394
0.000494304
0.000517271
0.000487201
0.000487201
0.000508246
0.000531127
0.000497079
0.000497079
0.000517339
0.000538907
0.000498391
0.000498391
0.000517898
0.000539131
0.000497058
0.000497058
0.000516939
0.000537726
0.000492238
0.000492238
0.000510492
0.000529255
0.000481237
0.000481237
0.000498805
0.000517375
0.000466768
0.000466768
0.000482178
0.000499896
0.000444094
0.000444094
0.000457904
0.000474632
0.000420803
0.000420803
0.000431903
0.000445558
0.000394165
0.000394165
0.000405291
0.000417071
0.000364527
0.000364527
0.000376226
0.000388693
0.000324431
0.000324431
0.000336035
0.000348353
0.000290351
0.000290351
0.000302125
0.000315409
0.000246776
0.000246776
0.000256235
0.000270347
0.000215192
0.000215192
0.00022159
0.00023677
0.000172257
0.000169464
0.000169464
0.000178986
0.000153025
0.000143452
0.000143452
0.000147357
0.000125617
0.000114495
0.000114495
0.000120149
0.000108714
9.05087e-05
9.05087e-05
9.05623e-05
0.000100529
9.25106e-05
9.25106e-05
0.000109128
0.000221258
0.000146969
8.77359e-05
8.77359e-05
0.000243485
0.000321386
0.000311229
0.000372772
0.000396014
0.000464738
0.000481279
0.000624733
0.000700329
0.000939862
0.000999943
0.00101864
0.00068173
0.00161443
0.00249861
6.9426e-05
0.000419426
0.000293146
0.000279305
0.000471837
0.000501568
0.000463947
0.000537004
0.000563016
0.000648155
0.00057785
0.000768061
0.000740007
0.000970316
0.000890341
0.000800983
0.000938076
0.00186421
0.00299335
3.28291e-05
8.3533e-05
0.000535858
0.000468458
0.000667349
0.000661958
0.000513967
0.000589895
0.000599583
0.000595017
0.00051134
0.000691544
0.000643705
0.000785278
0.000780704
0.000651506
0.00110929
0.00176231
0.00261397
3.54241e-05
4.65486e-05
0.000127743
0.000636312
0.000831271
0.000913982
0.000722819
0.000660826
0.00062418
0.000587552
0.00051134
0.000648783
0.000643705
0.000703987
0.000764382
0.000620311
0.000990976
0.00153007
0.00209838
3.66173e-05
4.65486e-05
5.38059e-05
0.000113756
0.000306588
0.000685911
0.000949337
0.00104718
0.000957333
0.000906761
0.00086108
0.000857077
0.000855272
0.000792696
0.000922083
0.000620311
0.000940597
0.00129494
0.00102631
3.64607e-05
4.7365e-05
5.19999e-05
5.72698e-05
7.30677e-05
0.000104587
0.000131127
0.000146238
0.00016619
0.000206897
0.000358342
0.000582306
0.000807433
0.00105745
0.00127843
0.000868001
0.00108156
0.000777305
0.000575021
0.000107046
7.69501e-05
5.19999e-05
5.72698e-05
6.42038e-05
6.91988e-05
7.42775e-05
7.82783e-05
8.22653e-05
9.1679e-05
9.30374e-05
0.000106921
0.000127792
0.000162967
0.000253652
0.000636513
0.000901254
0.000551334
0.000209614
0.000781435
0.000474227
0.000133615
0.000118978
0.000102696
9.25402e-05
9.07374e-05
9.2229e-05
9.44149e-05
9.91196e-05
8.79267e-05
8.79267e-05
8.92015e-05
8.98915e-05
9.37618e-05
0.00011452
0.000137726
9.03183e-05
6.37045e-05
0.000690283
0.000945928
0.00101752
0.000860645
0.0006691
0.000528878
0.000475574
0.000441209
0.000389126
0.000290992
0.000185216
0.000168929
0.00014739
0.000113719
9.23647e-05
8.39792e-05
7.02972e-05
4.81429e-05
4.81429e-05
0.000752054
0.000902973
0.000909857
0.00095349
0.00102778
0.00111233
0.00118181
0.00123132
0.00128504
0.00134873
0.00140541
0.00123732
0.00100166
0.00063983
0.000188736
0.000119392
6.66187e-05
4.7199e-05
5.27712e-05
0.000640437
0.000837029
0.000882364
0.000919654
0.000907155
0.000904646
0.00089328
0.000867029
0.000822415
0.000806449
0.000781076
0.000907052
0.00112053
0.00138505
0.00125864
0.000503495
8.57679e-05
4.56492e-05
8.60427e-05
0.000448628
0.000733615
0.000828628
0.00090556
0.000907155
0.000904646
0.00089328
0.000788577
0.000661516
0.000515505
0.000446323
0.000446323
0.000566305
0.00092249
0.00142096
0.000768686
0.000104692
4.36893e-05
0.000105121
0.000446187
0.000724627
0.000815822
0.000895746
0.000926913
0.000934406
0.000917848
0.000872494
0.000771044
0.000664955
0.000517592
0.000608635
0.000941295
0.00143993
0.00112641
0.000507567
8.04743e-05
3.95118e-05
0.000117401
0.000513573
0.000728593
0.00082123
0.000895746
0.000958173
0.000999375
0.00102777
0.00102789
0.000981888
0.000918448
0.000846982
0.000985245
0.00156676
0.00123801
0.00081433
0.00029218
5.67377e-05
3.95118e-05
0.000158143
0.000555105
0.000785825
0.000889171
0.000955718
0.00103902
0.00109438
0.00114698
0.00118674
0.00119357
0.00123105
0.00124064
0.00144384
0.00165222
0.000971362
0.000526594
0.0001508
8.09902e-05
5.06696e-05
0.000370748
0.000616666
0.00084991
0.000970936
0.0010454
0.0011574
0.0012396
0.00132255
0.00139675
0.00145634
0.00158053
0.00166362
0.00200145
0.00166319
0.000913953
0.000378674
0.000117267
6.78322e-05
0.000107552
0.000475255
0.000666627
0.000927372
0.00106722
0.00115661
0.00130922
0.00142137
0.0015448
0.0016497
0.00176253
0.00194956
0.00211115
0.00263967
0.00180172
0.000971497
0.000535759
0.000140873
6.78322e-05
9.34038e-05
0.000324175
0.0007249
0.00101284
0.00117291
0.0013006
0.00151413
0.00164827
0.001823
0.00196179
0.00212397
0.00230915
0.00256222
0.00313799
0.00243692
0.000935432
0.00052427
0.000255509
7.64598e-05
0.000123307
0.000332355
0.000774819
0.00111181
0.00130731
0.00148539
0.00173919
0.00186653
0.00210562
0.00227035
0.00253922
0.00268548
0.0029814
0.00334802
0.00338444
0.00154835
0.000516855
0.000255379
0.000101637
0.000214172
0.000544344
0.000823896
0.00121875
0.00145323
0.00164939
0.00182547
0.00187202
0.0021511
0.0024293
0.00284711
0.00307972
0.00338961
0.00352787
0.00381269
0.00269267
0.00107348
0.000326254
0.00010969
0.000198694
0.000400834
0.000871509
0.00131957
0.00156483
0.00164655
0.00162382
0.00159953
0.00187414
0.00221765
0.0028018
0.00323098
0.00372512
0.00375114
0.00395092
0.00331853
0.0019674
0.00060057
0.000280341
0.000262116
0.000388682
0.000910625
0.00139172
0.00156516
0.0015373
0.00137856
0.00138476
0.00167099
0.0020237
0.00266731
0.00313163
0.00381863
0.00391886
0.00402758
0.00358017
0.00269059
0.00119043
0.000392296
0.000408798
0.000528279
0.000933287
0.0014293
0.00152863
0.00145199
0.0012292
0.00129822
0.00162379
0.00187467
0.00247459
0.00303096
0.00375814
0.00402012
0.00406293
0.00371669
0.00297241
0.00143407
0.000420268
0.000587466
0.000640713
0.000947068
0.00141752
0.00152307
0.00139238
0.00112933
0.00124447
0.00156887
0.0017146
0.00226007
0.00296304
0.00375814
0.00405747
0.00408917
0.00382925
0.00330157
0.00191137
0.000611211
0.000684765
0.000839182
0.000950075
0.00138675
0.00152307
0.00130831
0.00102347
0.00118634
0.00152459
0.00145985
0.00190797
0.00276284
0.00377215
0.00409296
0.00409638
0.00389388
0.00340058
0.00218455
0.000919975
0.000683868
0.000964009
0.000945722
0.00136697
0.00153496
0.00121764
0.000936243
0.00113632
0.00149933
0.000977253
0.00143837
0.00241739
0.00364404
0.00411151
0.00408363
0.00391628
0.00339784
0.00233713
0.00108146
0.000683868
0.0011121
0.000926462
0.00134955
0.00145255
0.00115207
0.000856551
0.000987763
0.00117273
0.000634785
0.00103581
0.00225524
0.00375407
0.00413409
0.0040646
0.00386238
0.00326771
0.0023554
0.00109737
0.000727422
0.00139288
0.000902563
0.00132597
0.00136119
0.00115205
0.000662282
0.000745736
0.00101515
0.000634785
0.00122356
0.00259124
0.00391447
0.00415053
0.00404833
0.00374695
0.00302644
0.0022417
0.00106332
0.000734151
0.00155086
0.00086992
0.00128049
0.00128665
0.00102502
0.000524063
0.000565791
0.000985644
0.000976013
0.00200579
0.00331263
0.00406539
0.0042151
0.00404833
0.00356934
0.00268138
0.00197303
0.000951806
0.000759295
0.00159792
0.000825736
0.00120344
0.00120671
0.000985263
0.000524063
0.000508091
0.00100499
0.00163089
0.00265754
0.00372777
0.00410598
0.00435999
0.00409439
0.0033169
0.00230297
0.00170811
0.000784247
0.000807715
0.00167009
0.000773005
0.00110929
0.00112767
0.000970437
0.000577595
0.000508091
0.00115129
0.002134
0.00307214
0.00391551
0.00433818
0.0045596
0.0041626
0.00279899
0.00156707
0.00118288
0.000470861
0.0010138
0.00186611
0.000720962
0.00102763
0.00107421
0.00091581
0.000630466
0.000671309
0.00150352
0.00244152
0.00331124
0.00402274
0.0043516
0.00422503
0.00296471
0.00181925
0.000995921
0.00058116
0.000470861
0.000642073
0.00214687
0.000674543
0.000949999
0.00101877
0.000918791
0.000672498
0.00101383
0.00188043
0.00256412
0.00329994
0.00367305
0.00376558
0.00273586
0.00162798
0.00124365
0.00102742
0.00105488
0.000805447
0.000909736
0.00207664
0.000606732
0.000881272
0.000968992
0.000863391
0.000669125
0.00105279
0.00206843
0.00260718
0.00312416
0.00321782
0.00279782
0.00160226
0.00132568
0.00109408
0.000950426
0.00096864
0.00119242
0.00124746
0.0027374
0.000553263
0.000815396
0.000930063
0.000890246
0.000669125
0.00087937
0.0019832
0.00280543
0.00301846
0.00285083
0.00204455
0.00137107
0.0012889
0.0011252
0.000950426
0.00096864
0.00124592
0.0017026
0.00330015
0.00048035
0.000761725
0.000905836
0.000956792
0.000737628
0.000866341
0.0017388
0.00296611
0.00286779
0.00261748
0.00185258
0.00135151
0.0012889
0.00135224
0.00105572
0.00111578
0.00163303
0.00183362
0.00382086
0.000431035
0.000704827
0.000879187
0.00102962
0.000920823
0.000867647
0.00163802
0.002675
0.00263936
0.0023923
0.00182178
0.00135151
0.00124862
0.00130972
0.00143731
0.00145275
0.00156785
0.00206373
0.00427795
0.000333409
0.000628948
0.000832491
0.00108313
0.00114399
0.0011432
0.00166736
0.00225755
0.00236579
0.00207419
0.00155269
0.00105951
0.000966568
0.00108724
0.00134614
0.00142832
0.00156785
0.00224076
0.004671
0.000278328
0.000579783
0.000818599
0.00110014
0.00133425
0.00150277
0.00176676
0.00197061
0.00202079
0.00172933
0.00123732
0.000718341
0.00049174
0.000578339
0.00108031
0.00140698
0.00157436
0.00254247
0.00500504
0.000238397
0.000528007
0.000756769
0.00100677
0.00129355
0.00161597
0.00185129
0.00191497
0.00185389
0.00146246
0.00092165
0.000438929
0.000251934
0.000251934
0.000526646
0.00122056
0.00167996
0.00282292
0.00535129
0.00018464
0.000440614
0.000701308
0.00101234
0.0012879
0.00149335
0.00171354
0.00181529
0.00179487
0.00159882
0.00121372
0.000783204
0.000442472
0.000333492
0.000348598
0.000862304
0.00181802
0.00306612
0.00552645
0.000245819
0.000575691
0.000824731
0.0010593
0.00126559
0.001443
0.00162014
0.00178148
0.00179464
0.00160131
0.00129939
0.000999476
0.000732052
0.000601761
0.000591933
0.00097031
0.0016237
0.00342364
0.0057829
)
;

boundaryField
{
    leftWall
    {
        type            calculated;
        value           uniform 0;
    }
    rightWall
    {
        type            calculated;
        value           uniform 0;
    }
    lowerWall
    {
        type            calculated;
        value           uniform 0;
    }
    atmosphere
    {
        type            calculated;
        value           uniform 0;
    }
    defaultFaces
    {
        type            empty;
    }
}


// ************************************************************************* //
