/*--------------------------------*- C++ -*----------------------------------*\
| =========                 |                                                 |
| \\      /  F ield         | OpenFOAM: The Open Source CFD Toolbox           |
|  \\    /   O peration     | Version:  2012                                  |
|   \\  /    A nd           | Website:  www.openfoam.com                      |
|    \\/     M anipulation  |                                                 |
\*---------------------------------------------------------------------------*/
FoamFile
{
    version     2.0;
    format      ascii;
    class       volScalarField;
    location    "0.4";
    object      pcorr;
}
// * * * * * * * * * * * * * * * * * * * * * * * * * * * * * * * * * * * * * //

dimensions      [1 -1 -2 0 0 0 0];


internalField   nonuniform List<scalar> 
2268
(
101448
101451
101458
101468
101483
101503
101529
101563
101606
101661
101731
101818
101925
102057
102217
102406
102625
102873
103142
103420
103684
103900
104025
101448
101451
101457
101467
101482
101502
101527
101561
101604
101658
101727
101813
101920
102051
102210
102399
102619
102868
103140
103423
103695
103920
104052
101446
101449
101456
101466
101480
101499
101524
101557
101599
101652
101719
101804
101909
102039
102197
102385
102606
102858
103136
103429
103716
103961
104109
101444
101447
101453
101463
101476
101495
101519
101550
101591
101642
101707
101790
101893
102020
102176
102365
102586
102842
103128
103436
103747
104023
104200
101441
101444
101450
101459
101472
101489
101512
101542
101581
101630
101692
101771
101871
101995
102149
102336
102559
102819
103115
103443
103786
104108
104330
101438
101440
101446
101454
101466
101483
101504
101532
101568
101614
101673
101748
101843
101964
102114
102300
102524
102787
103095
103446
103830
104214
104509
101434
101436
101441
101449
101460
101475
101494
101520
101553
101596
101650
101720
101810
101926
102072
102255
102480
102746
103066
103442
103873
104341
104753
101429
101431
101436
101443
101453
101466
101483
101506
101536
101574
101624
101688
101772
101880
102021
102202
102426
102693
103023
103426
103908
104481
105090
110316
110316
110316
110316
110315
110315
110314
110314
110314
110314
110314
110314
110314
110315
110315
110316
110316
110317
110317
110316
110316
110316
110316
110315
110315
110314
110314
110314
110314
110314
110314
110314
110315
110315
110316
110316
110317
110317
110316
110316
110316
110316
110315
110315
110314
110314
110314
110314
110314
110314
110314
110315
110315
110316
110316
110317
110317
110316
110316
110316
110316
110315
110315
110314
110314
110314
110313
110314
110314
110314
110315
110315
110316
110316
110317
110317
110316
110316
110316
110316
110315
110315
110314
110314
110313
110313
110313
110314
110314
110315
110315
110316
110316
110317
110317
110316
110316
110316
110316
110315
110315
110314
110314
110313
110313
110313
110314
110314
110315
110315
110316
110317
110317
110317
110316
110317
110317
110316
110315
110315
110314
110313
110313
110313
110313
110313
110314
110314
110315
110316
110317
110317
110318
110316
110317
110317
110316
110315
110314
110314
110313
110313
110313
110313
110313
110314
110314
110315
110316
110317
110317
110318
101421
101423
101427
101432
101440
101450
101464
101483
101506
101537
101578
101631
101703
101798
101928
102102
102327
102589
102932
103374
103931
104686
105831
101409
101410
101412
101415
101420
101426
101434
101445
101459
101477
101502
101536
101584
101653
101757
101917
102153
102366
102706
103189
103761
104572
105751
101397
101397
101398
101399
101400
101402
101405
101408
101412
101417
101425
101436
101453
101481
101536
101659
102001
102015
102336
102914
103350
104088
105172
101398
101398
101398
101399
101399
101400
101401
101402
101404
101405
101407
101409
101411
101413
101416
101419
101430
101484
101741
102785
102634
103253
104321
101398
101398
101398
101399
101400
101400
101401
101402
101404
101405
101407
101409
101411
101413
101415
101417
101420
101425
101434
101473
101555
102036
103554
101398
101398
101398
101399
101399
101400
101401
101402
101404
101405
101407
101408
101410
101413
101415
101417
101420
101424
101428
101434
101439
101454
101550
101398
101398
101398
101399
101399
101400
101401
101402
101403
101405
101406
101408
101410
101412
101414
101417
101420
101423
101426
101430
101434
101439
101446
101397
101397
101398
101398
101399
101399
101400
101401
101403
101404
101406
101407
101409
101411
101413
101416
101419
101422
101425
101429
101432
101436
101440
101397
101397
101397
101398
101398
101399
101400
101401
101402
101403
101405
101406
101408
101410
101412
101415
101417
101420
101423
101427
101430
101434
101437
101396
101396
101396
101397
101397
101398
101399
101400
101401
101402
101404
101405
101407
101409
101411
101414
101416
101419
101422
101425
101428
101431
101434
101395
101395
101396
101396
101397
101397
101398
101399
101400
101401
101403
101404
101406
101408
101410
101412
101414
101417
101420
101422
101425
101428
101431
101394
101394
101395
101395
101396
101396
101397
101398
101399
101400
101401
101403
101405
101406
101408
101410
101413
101415
101417
101420
101423
101426
101428
101393
101393
101393
101394
101394
101395
101396
101397
101398
101399
101400
101402
101403
101405
101407
101409
101411
101413
101415
101418
101420
101423
101426
101392
101392
101392
101393
101393
101394
101394
101395
101396
101397
101399
101400
101401
101403
101405
101407
101409
101411
101413
101415
101417
101420
101422
101391
101391
101391
101391
101392
101392
101393
101394
101395
101396
101397
101398
101400
101401
101403
101404
101406
101408
101410
101412
101415
101417
101419
101389
101389
101389
101390
101390
101391
101391
101392
101393
101394
101395
101396
101398
101399
101401
101402
101404
101406
101408
101410
101412
101414
101416
101388
101388
101388
101388
101389
101389
101390
101390
101391
101392
101393
101394
101396
101397
101398
101400
101402
101403
101405
101407
101409
101411
101413
101386
101386
101386
101386
101387
101387
101388
101389
101389
101390
101391
101392
101393
101395
101396
101398
101399
101401
101402
101404
101406
101408
101410
101384
101384
101384
101385
101385
101385
101386
101387
101387
101388
101389
101390
101391
101392
101394
101395
101396
101398
101400
101401
101403
101405
101406
101382
101382
101382
101383
101383
101383
101384
101385
101385
101386
101387
101388
101389
101390
101391
101393
101394
101395
101397
101398
101400
101401
101403
101380
101380
101380
101381
101381
101381
101382
101383
101383
101384
101385
101386
101387
101388
101389
101390
101391
101392
101394
101395
101397
101398
101400
101378
101378
101378
101379
101379
101379
101380
101380
101381
101382
101382
101383
101384
101385
101386
101387
101388
101390
101391
101392
101393
101395
101396
101376
101376
101376
101376
101377
101377
101378
101378
101379
101379
101380
101381
101382
101382
101383
101384
101386
101387
101388
101389
101390
101391
101393
101374
101374
101374
101374
101374
101375
101375
101376
101376
101377
101378
101378
101379
101380
101381
101382
101383
101384
101385
101386
101387
101388
101389
101372
101372
101372
101372
101372
101372
101373
101373
101374
101374
101375
101376
101376
101377
101378
101379
101380
101381
101382
101383
101384
101385
101386
101369
101369
101369
101370
101370
101370
101370
101371
101371
101372
101372
101373
101374
101374
101375
101376
101377
101378
101379
101379
101380
101381
101382
101367
101367
101367
101367
101367
101368
101368
101368
101369
101369
101370
101370
101371
101372
101372
101373
101374
101375
101375
101376
101377
101378
101379
101364
101364
101365
101365
101365
101365
101365
101366
101366
101367
101367
101368
101368
101369
101369
101370
101371
101371
101372
101373
101374
101375
101375
101362
101362
101362
101362
101362
101363
101363
101363
101363
101364
101364
101365
101365
101366
101366
101367
101368
101368
101369
101370
101370
101371
101372
101359
101359
101359
101360
101360
101360
101360
101360
101361
101361
101362
101362
101362
101363
101363
101364
101365
101365
101366
101366
101367
101368
101368
101357
101357
101357
101357
101357
101357
101358
101358
101358
101358
101359
101359
101360
101360
101360
101361
101362
101362
101363
101363
101364
101364
101365
101354
101354
101354
101354
101354
101355
101355
101355
101355
101356
101356
101356
101357
101357
101357
101358
101358
101359
101359
101360
101360
101361
101361
101351
101351
101352
101352
101352
101352
101352
101352
101353
101353
101353
101353
101354
101354
101354
101355
101355
101356
101356
101357
101357
101357
101358
101349
101349
101349
101349
101349
101349
101349
101349
101350
101350
101350
101350
101351
101351
101351
101352
101352
101352
101353
101353
101354
101354
101354
101346
101346
101346
101346
101346
101346
101346
101347
101347
101347
101347
101348
101348
101348
101348
101349
101349
101349
101350
101350
101350
101351
101351
101343
101343
101343
101343
101343
101344
101344
101344
101344
101344
101344
101345
101345
101345
101345
101346
101346
101346
101346
101347
101347
101347
101348
101340
101340
101341
101341
101341
101341
101341
101341
101341
101341
101341
101342
101342
101342
101342
101342
101343
101343
101343
101343
101344
101344
101344
101338
101338
101338
101338
101338
101338
101338
101338
101338
101338
101338
101339
101339
101339
101339
101339
101339
101340
101340
101340
101340
101340
101341
101335
101335
101335
101335
101335
101335
101335
101335
101335
101335
101335
101336
101336
101336
101336
101336
101336
101336
101337
101337
101337
101337
101337
101332
101332
101332
101332
101332
101332
101332
101332
101332
101332
101332
101333
101333
101333
101333
101333
101333
101333
101333
101333
101333
101334
101334
101329
101329
101329
101329
101329
101329
101329
101329
101329
101329
101329
101330
101330
101330
101330
101330
101330
101330
101330
101330
101330
101330
101330
101326
101326
101326
101326
101326
101326
101326
101326
101326
101326
101326
101327
101327
101327
101327
101327
101327
101327
101327
101327
101327
101327
101327
107465
108619
109893
110305
106984
107849
108757
109606
106171
106885
107678
108563
105045
105571
106163
106805
103646
103962
104431
104966
101718
101978
102469
103328
101453
101459
101472
101503
101443
101446
101448
101451
101440
101442
101443
101445
101437
101438
101440
101442
101434
101435
101437
101438
101431
101432
101434
101435
101428
101429
101430
101432
101424
101426
101427
101428
101421
101422
101423
101425
101418
101419
101420
101421
101414
101415
101417
101418
101411
101412
101413
101414
101408
101409
101409
101410
101404
101405
101406
101407
101401
101401
101402
101403
101397
101398
101399
101399
101394
101394
101395
101396
101390
101391
101391
101392
101387
101387
101388
101388
101383
101384
101384
101384
101380
101380
101380
101381
101376
101376
101377
101377
101372
101373
101373
101373
101369
101369
101369
101370
101365
101366
101366
101366
101362
101362
101362
101363
101358
101358
101359
101359
101355
101355
101355
101355
101351
101351
101352
101352
101348
101348
101348
101348
101344
101344
101344
101345
101341
101341
101341
101341
101337
101337
101337
101337
101334
101334
101334
101334
101330
101330
101330
101330
101327
101327
101327
101327
110315
110318
110318
110316
110315
110314
110314
110313
110313
110312
110313
110313
110313
110314
110315
110316
110317
110318
110318
110315
110326
110321
110317
110315
110314
110313
110312
110312
110312
110312
110312
110313
110314
110315
110316
110318
110319
110320
110292
110320
110322
110316
110314
110313
110312
110312
110311
110311
110311
110311
110312
110313
110315
110316
110318
110320
110322
107908
109117
110289
110314
110313
110313
110312
110311
110309
110309
110310
110310
110311
110313
110314
110316
110319
110321
110329
105788
107108
108645
110208
110310
110312
110312
110309
110307
110307
110308
110309
110311
110311
110313
110316
110319
110322
110329
103531
104612
105928
107400
108602
109608
110098
110269
110301
110302
110304
110307
110310
110309
110312
110316
110319
110322
110326
101570
102139
103053
104140
105181
106126
106798
107196
107522
107903
108360
108884
109558
110295
110308
110315
110320
110326
110235
101456
101467
101517
101697
102137
102675
103089
103353
103586
103886
104336
104997
105878
107003
108060
109109
109904
109730
109256
101448
101452
101458
101466
101475
101490
101510
101528
101547
101578
101639
101819
102271
103099
104302
105872
107131
107586
107615
101444
101448
101452
101457
101462
101467
101473
101479
101485
101490
101496
101503
101516
101562
101618
102986
104590
105597
106019
101441
101445
101448
101453
101457
101461
101466
101470
101475
101480
101484
101490
101496
101505
101526
101611
102764
104052
104693
101437
101441
101445
101448
101452
101456
101460
101465
101469
101473
101478
101483
101488
101495
101505
101516
101857
103030
103683
101434
101437
101441
101444
101448
101451
101455
101459
101463
101467
101471
101476
101481
101487
101495
101502
101731
102533
103015
101430
101433
101437
101440
101443
101446
101450
101453
101457
101460
101464
101468
101473
101478
101486
101503
101750
102315
102668
101427
101430
101433
101435
101439
101442
101445
101448
101451
101454
101457
101460
101464
101469
101474
101520
101770
102159
102367
101423
101426
101428
101431
101434
101437
101439
101442
101445
101447
101450
101452
101454
101457
101464
101528
101723
101983
102123
101419
101422
101424
101427
101429
101432
101434
101436
101439
101441
101442
101444
101444
101443
101444
101481
101615
101799
101901
101416
101418
101420
101422
101425
101427
101429
101431
101433
101434
101435
101436
101436
101434
101430
101430
101499
101649
101729
101412
101414
101416
101418
101420
101422
101424
101425
101427
101428
101429
101429
101429
101427
101424
101422
101428
101578
101657
101408
101410
101412
101414
101415
101417
101419
101420
101422
101422
101423
101423
101422
101421
101419
101417
101416
101485
101558
101404
101406
101408
101409
101411
101412
101414
101415
101416
101417
101418
101417
101417
101416
101414
101412
101410
101414
101495
101400
101402
101403
101405
101406
101408
101409
101410
101411
101412
101412
101412
101412
101411
101410
101408
101407
101406
101462
101397
101398
101399
101401
101402
101403
101405
101406
101406
101407
101407
101407
101407
101406
101406
101405
101404
101403
101396
101393
101394
101395
101397
101398
101399
101400
101401
101402
101402
101403
101403
101403
101402
101402
101401
101400
101398
101389
101389
101390
101391
101392
101394
101395
101395
101396
101397
101398
101398
101398
101398
101398
101398
101397
101396
101395
101394
101385
101386
101387
101388
101389
101390
101391
101392
101393
101393
101394
101394
101394
101394
101394
101394
101393
101392
101391
101381
101382
101383
101384
101385
101386
101387
101388
101388
101389
101389
101390
101390
101390
101390
101390
101390
101390
101391
101378
101379
101379
101380
101381
101382
101383
101383
101384
101384
101385
101385
101386
101386
101387
101387
101387
101386
101385
101374
101375
101376
101376
101377
101378
101378
101379
101379
101380
101381
101381
101382
101383
101383
101384
101384
101383
101379
101370
101371
101372
101372
101373
101374
101374
101375
101375
101376
101376
101377
101378
101379
101380
101381
101381
101381
101379
101367
101367
101368
101368
101369
101369
101370
101370
101371
101371
101372
101373
101374
101376
101377
101379
101379
101379
101376
101363
101363
101364
101365
101365
101365
101366
101366
101367
101367
101367
101368
101370
101373
101375
101377
101377
101377
101380
101359
101360
101360
101361
101361
101361
101362
101362
101362
101362
101363
101363
101364
101368
101369
101377
101376
101373
101371
101356
101356
101356
101357
101357
101357
101358
101358
101358
101358
101358
101358
101357
101349
101276
101286
101375
101368
101365
101352
101352
101353
101353
101353
101353
101354
101354
101354
101354
101354
101353
101352
101347
101279
101314
101371
101361
101360
101348
101349
101349
101349
101349
101350
101350
101350
101350
101350
101349
101349
101348
101345
101343
101348
101351
101353
101353
101345
101345
101345
101345
101346
101346
101346
101346
101346
101345
101345
101344
101343
101341
101340
101342
101343
101346
101347
101341
101341
101341
101342
101342
101342
101342
101342
101342
101342
101341
101340
101339
101339
101338
101339
101340
101341
101342
101338
101338
101338
101338
101338
101338
101338
101338
101338
101338
101337
101337
101336
101336
101336
101336
101336
101337
101338
101334
101334
101334
101334
101334
101334
101334
101334
101334
101334
101334
101333
101333
101333
101333
101333
101333
101334
101334
101330
101330
101330
101331
101331
101331
101331
101331
101330
101330
101330
101330
101330
101330
101330
101330
101330
101330
101330
101327
101327
101327
101327
101327
101327
101327
101327
101327
101327
101327
101327
101327
101327
101327
101327
101327
101327
101327
)
;

boundaryField
{
    leftWall
    {
        type            zeroGradient;
    }
    rightWall
    {
        type            zeroGradient;
    }
    lowerWall
    {
        type            zeroGradient;
    }
    atmosphere
    {
        type            fixedValue;
        value           uniform 101325;
    }
    defaultFaces
    {
        type            empty;
    }
}


// ************************************************************************* //
