/*--------------------------------*- C++ -*----------------------------------*\
| =========                 |                                                 |
| \\      /  F ield         | OpenFOAM: The Open Source CFD Toolbox           |
|  \\    /   O peration     | Version:  2012                                  |
|   \\  /    A nd           | Website:  www.openfoam.com                      |
|    \\/     M anipulation  |                                                 |
\*---------------------------------------------------------------------------*/
FoamFile
{
    version     2.0;
    format      ascii;
    class       surfaceScalarField;
    location    "0.4";
    object      phi;
}
// * * * * * * * * * * * * * * * * * * * * * * * * * * * * * * * * * * * * * //

dimensions      [0 3 -1 0 0 0 0];
oriented        oriented;


internalField   nonuniform List<scalar> 
4432
(
3.3712e-06
-3.3712e-06
6.74866e-06
-3.37746e-06
9.94978e-06
-3.20112e-06
1.31663e-05
-3.21654e-06
1.64086e-05
-3.2423e-06
1.9535e-05
-3.12639e-06
2.23029e-05
-2.76787e-06
2.50727e-05
-2.76976e-06
2.75286e-05
-2.45593e-06
2.96181e-05
-2.08953e-06
3.16339e-05
-2.0158e-06
3.32257e-05
-1.59173e-06
3.42316e-05
-1.00595e-06
3.46812e-05
-4.49549e-07
3.46156e-05
6.56012e-08
3.38822e-05
7.33418e-07
3.24059e-05
1.47629e-06
3.00201e-05
2.38588e-06
2.65819e-05
3.43823e-06
2.18668e-05
4.71506e-06
1.61135e-05
5.75339e-06
9.12486e-06
6.98865e-06
9.12531e-06
3.36439e-06
-6.73558e-06
6.75138e-06
-6.76445e-06
9.97125e-06
-6.42098e-06
1.31916e-05
-6.43692e-06
1.64303e-05
-6.48101e-06
1.95568e-05
-6.2528e-06
2.23424e-05
-5.55353e-06
2.51292e-05
-5.55656e-06
2.75886e-05
-4.91532e-06
2.96987e-05
-4.19955e-06
3.17515e-05
-4.06865e-06
3.32792e-05
-3.11941e-06
3.43214e-05
-2.04815e-06
3.48993e-05
-1.02738e-06
3.48506e-05
1.14257e-07
3.40735e-05
1.51053e-06
3.24945e-05
3.05529e-06
2.9987e-05
4.8934e-06
2.64054e-05
7.01987e-06
2.14245e-05
9.69604e-06
1.5084e-05
1.20939e-05
7.31083e-06
1.47618e-05
1.64366e-05
3.36065e-06
-1.00962e-05
6.76742e-06
-1.01712e-05
1.00146e-05
-9.66811e-06
1.32414e-05
-9.6638e-06
1.64736e-05
-9.7132e-06
1.95994e-05
-9.37856e-06
2.24219e-05
-8.37602e-06
2.52403e-05
-8.37496e-06
2.77064e-05
-7.38139e-06
2.98761e-05
-6.36932e-06
3.19274e-05
-6.11991e-06
3.34229e-05
-4.61493e-06
3.45493e-05
-3.17446e-06
3.52503e-05
-1.72846e-06
3.52747e-05
8.99538e-08
3.45572e-05
2.22795e-06
3.31215e-05
4.49106e-06
3.09173e-05
7.09761e-06
2.77607e-05
1.01765e-05
2.32442e-05
1.42125e-05
1.72719e-05
1.80662e-05
9.1268e-06
2.2907e-05
2.55634e-05
3.3626e-06
-1.34588e-05
6.79482e-06
-1.36034e-05
1.00703e-05
-1.29436e-05
1.33079e-05
-1.29014e-05
1.65339e-05
-1.29391e-05
1.96574e-05
-1.25021e-05
2.25301e-05
-1.12487e-05
2.53895e-05
-1.12343e-05
2.78714e-05
-9.8633e-06
3.01243e-05
-8.6222e-06
3.21767e-05
-8.17236e-06
3.36888e-05
-6.12698e-06
3.49072e-05
-4.3929e-06
3.56258e-05
-2.44699e-06
3.56946e-05
2.1155e-08
3.49899e-05
2.93261e-06
3.34799e-05
6.00114e-06
3.10808e-05
9.4967e-06
2.77356e-05
1.35218e-05
2.30707e-05
1.88775e-05
1.70685e-05
2.40684e-05
8.92035e-06
3.10551e-05
3.44838e-05
3.37082e-06
-1.68296e-05
6.83443e-06
-1.7067e-05
1.014e-05
-1.62492e-05
1.33993e-05
-1.61606e-05
1.66298e-05
-1.61696e-05
1.97574e-05
-1.56298e-05
2.26918e-05
-1.41831e-05
2.55888e-05
-1.41312e-05
2.80911e-05
-1.23656e-05
3.04489e-05
-1.09801e-05
3.25122e-05
-1.02356e-05
3.40657e-05
-7.68051e-06
3.53659e-05
-5.69301e-06
3.61415e-05
-3.2226e-06
3.63379e-05
-1.75305e-07
3.58556e-05
3.41496e-06
3.46462e-05
7.21056e-06
3.26207e-05
1.15222e-05
2.97025e-05
1.644e-05
2.54642e-05
2.31158e-05
1.97386e-05
2.97941e-05
1.13005e-05
3.94933e-05
4.5785e-05
3.38535e-06
-2.0215e-05
6.87747e-06
-2.05592e-05
1.02137e-05
-1.95854e-05
1.35021e-05
-1.9449e-05
1.67456e-05
-1.94132e-05
1.98863e-05
-1.87705e-05
2.28877e-05
-1.71845e-05
2.58097e-05
-1.70532e-05
2.83474e-05
-1.49033e-05
3.08293e-05
-1.3462e-05
3.29368e-05
-1.23431e-05
3.45272e-05
-9.27095e-06
3.59501e-05
-7.11587e-06
3.67801e-05
-4.05254e-06
3.70226e-05
-4.17849e-07
3.65944e-05
3.84314e-06
3.54396e-05
8.36538e-06
3.33515e-05
1.36103e-05
3.02957e-05
1.94958e-05
2.58442e-05
2.75674e-05
2.005e-05
3.55883e-05
1.12691e-05
4.82742e-05
5.70551e-05
3.41445e-06
-2.36294e-05
6.91505e-06
-2.40598e-05
1.02995e-05
-2.29699e-05
1.36334e-05
-2.27829e-05
1.69017e-05
-2.26815e-05
2.00711e-05
-2.19399e-05
2.31456e-05
-2.0259e-05
2.6087e-05
-1.99946e-05
2.86872e-05
-1.75035e-05
3.13054e-05
-1.60802e-05
3.34355e-05
-1.44731e-05
3.51359e-05
-1.09713e-05
3.66222e-05
-8.60223e-06
3.74986e-05
-4.92889e-06
3.78916e-05
-8.1084e-07
3.77299e-05
4.00489e-06
3.6895e-05
9.20023e-06
3.52475e-05
1.52579e-05
3.27878e-05
2.19556e-05
2.8967e-05
3.13882e-05
2.38248e-05
4.07304e-05
1.4963e-05
5.71361e-05
7.20193e-05
3.45065e-06
-2.70801e-05
6.94168e-06
-2.75508e-05
1.03854e-05
-2.64135e-05
1.37715e-05
-2.6169e-05
1.70671e-05
-2.59771e-05
2.02711e-05
-2.51439e-05
2.34158e-05
-2.34036e-05
2.63852e-05
-2.29639e-05
2.90861e-05
-2.02044e-05
3.18169e-05
-1.8811e-05
3.39833e-05
-1.66395e-05
3.58513e-05
-1.28393e-05
3.7461e-05
-1.02119e-05
3.84173e-05
-5.88521e-06
3.8952e-05
-1.34548e-06
3.88672e-05
4.08973e-06
3.81574e-05
9.91e-06
3.65465e-05
1.68689e-05
3.42041e-05
2.4298e-05
3.03172e-05
3.52751e-05
2.51192e-05
4.59285e-05
1.605e-05
6.62053e-05
8.80704e-05
-2.02599e-06
4.10866e-06
-4.49269e-06
4.54931e-06
-6.8637e-06
4.45393e-06
-1.02209e-05
5.44007e-06
-1.46915e-05
6.55375e-06
-2.00708e-05
7.4626e-06
-2.51357e-05
7.14831e-06
-3.13463e-05
8.29437e-06
-3.83409e-05
9.07854e-06
-4.71137e-05
1.08572e-05
-5.70199e-05
1.19906e-05
-7.15623e-05
1.66273e-05
-8.9116e-05
1.96385e-05
-0.000112626
2.55958e-05
-0.000135931
2.53895e-05
-0.000161026
2.71814e-05
-0.000164429
5.48841e-06
-9.66585e-05
-6.5685e-05
-9.4586e-05
-2.61464e-06
8.80591e-06
-5.6063e-06
9.62355e-06
-7.75018e-06
8.6807e-06
-1.00536e-05
9.82637e-06
-1.43662e-05
1.29495e-05
-1.99765e-05
1.51561e-05
-2.50401e-05
1.42953e-05
-3.13113e-05
1.66493e-05
-3.81553e-05
1.80063e-05
-4.66781e-05
2.14643e-05
-5.63291e-05
2.37258e-05
-7.06954e-05
3.30785e-05
-8.80087e-05
3.90366e-05
-0.000112213
5.18854e-05
-0.000138574
5.38361e-05
-0.000168843
5.95342e-05
-0.000181034
1.97533e-05
-0.000123687
-0.000120937
-0.000216176
-3.54931e-06
1.44378e-05
-5.59305e-06
1.37497e-05
-7.01543e-06
1.21859e-05
-9.8562e-06
1.47499e-05
-1.43921e-05
1.95684e-05
-1.98483e-05
2.26955e-05
-2.48997e-05
2.14301e-05
-3.08429e-05
2.46762e-05
-3.74892e-05
2.67364e-05
-4.58226e-05
3.1882e-05
-5.54074e-05
3.53949e-05
-6.93856e-05
4.91416e-05
-8.61106e-05
5.78464e-05
-0.00011161
7.947e-05
-0.000142214
8.6525e-05
-0.000177201
9.65978e-05
-0.000179422
2.40543e-05
-0.000129547
-0.000168695
-0.000343588
-3.77537e-06
2.02955e-05
-5.40914e-06
1.74659e-05
-6.71724e-06
1.55768e-05
-8.90058e-06
1.90158e-05
-1.34983e-05
2.62491e-05
-1.93438e-05
3.06241e-05
-2.44835e-05
2.86531e-05
-3.06064e-05
3.28827e-05
-3.67893e-05
3.5003e-05
-4.43073e-05
4.14842e-05
-5.29359e-05
4.61076e-05
-6.59295e-05
6.422e-05
-8.17351e-05
7.57368e-05
-0.000107179
0.000106999
-0.000139015
0.000120443
-0.000172564
0.000132215
-0.000156945
1.05391e-05
-9.89982e-05
-0.00022452
-0.000440547
-3.81207e-06
2.61898e-05
-5.73177e-06
2.14676e-05
-6.30191e-06
1.82295e-05
-8.62808e-06
2.34244e-05
-1.34865e-05
3.31902e-05
-1.92934e-05
3.85138e-05
-2.43462e-05
3.5789e-05
-2.99236e-05
4.05436e-05
-3.57907e-05
4.29536e-05
-4.29772e-05
5.07548e-05
-5.1045e-05
5.62596e-05
-6.30782e-05
7.83379e-05
-7.72893e-05
9.20327e-05
-0.000101208
0.000133003
-0.000129067
0.000150384
-0.000156271
0.000161501
-0.000127803
-1.58268e-05
-7.00326e-05
-0.000280214
-0.000508519
-5.30154e-06
3.35734e-05
-6.14805e-06
2.4396e-05
-5.58257e-06
1.97465e-05
-6.64971e-06
2.65739e-05
-1.163e-05
4.02532e-05
-1.84154e-05
4.7382e-05
-2.38134e-05
4.327e-05
-2.95714e-05
4.83848e-05
-3.49347e-05
5.04003e-05
-4.10707e-05
5.89747e-05
-4.75326e-05
6.48055e-05
-5.76849e-05
9.05748e-05
-7.01331e-05
0.000106566
-9.1291e-05
0.000156245
-0.000112603
0.000173777
-0.000131683
0.000182669
-9.93499e-05
-4.60628e-05
-5.05894e-05
-0.000326902
-0.000557041
-5.24924e-06
4.09037e-05
-6.50611e-06
2.77343e-05
-4.98472e-06
2.03075e-05
-6.4554e-06
3.01264e-05
-1.22844e-05
4.81645e-05
-1.86433e-05
5.58233e-05
-2.37229e-05
5.04322e-05
-2.9034e-05
5.5779e-05
-3.37392e-05
5.71887e-05
-3.87799e-05
6.60992e-05
-4.41627e-05
7.22721e-05
-5.31018e-05
0.000101598
-6.32252e-05
0.000118774
-7.88733e-05
0.000173978
-9.21175e-05
0.000189102
-0.000102686
0.000195326
-6.98204e-05
-7.684e-05
-3.10023e-05
-0.000363643
-0.00058598
-7.62964e-06
5.05176e-05
-8.66637e-06
3.08476e-05
-3.96373e-06
1.7687e-05
-2.92977e-06
3.11744e-05
-9.02879e-06
5.63456e-05
-1.72958e-05
6.61725e-05
-2.30705e-05
5.82893e-05
-2.89504e-05
6.37417e-05
-3.35454e-05
6.38666e-05
-3.74009e-05
7.20382e-05
-4.08078e-05
7.77626e-05
-4.7402e-05
0.000110277
-5.44082e-05
0.000127865
-6.37206e-05
0.000185378
-6.91481e-05
0.00019662
-6.90357e-05
0.000197309
-3.97369e-05
-0.000104055
-1.5503e-05
-0.000385793
-0.000599402
7.48535e-06
-3.45654e-05
1.49542e-05
-3.50197e-05
2.24561e-05
-3.39154e-05
2.98485e-05
-3.35615e-05
3.70058e-05
-3.31343e-05
4.39939e-05
-3.21321e-05
5.09216e-05
-3.03313e-05
5.74276e-05
-2.94699e-05
6.35948e-05
-2.63716e-05
6.96046e-05
-2.48208e-05
7.43058e-05
-2.13407e-05
7.90679e-05
-1.76014e-05
8.26835e-05
-1.38275e-05
8.50416e-05
-8.24331e-06
8.65008e-05
-2.80463e-06
8.71256e-05
3.46493e-06
8.6644e-05
1.03916e-05
8.5861e-05
1.76519e-05
8.41731e-05
2.5986e-05
8.33735e-05
3.60748e-05
8.21777e-05
4.71244e-05
8.42995e-05
6.40836e-05
8.79358e-05
8.44379e-05
7.69769e-06
-4.22631e-05
1.52416e-05
-4.25635e-05
2.29597e-05
-4.16334e-05
3.061e-05
-4.12118e-05
3.79872e-05
-4.05116e-05
4.52311e-05
-3.93758e-05
5.24574e-05
-3.75577e-05
5.92997e-05
-3.63121e-05
6.60306e-05
-3.31025e-05
7.22753e-05
-3.10654e-05
7.77733e-05
-2.68387e-05
8.34093e-05
-2.32373e-05
8.75015e-05
-1.79196e-05
9.10764e-05
-1.18181e-05
9.34221e-05
-5.15035e-06
9.44419e-05
2.44814e-06
9.39083e-05
1.09252e-05
9.21314e-05
1.94288e-05
8.94956e-05
2.86218e-05
8.8071e-05
3.74994e-05
8.73817e-05
4.78138e-05
9.17997e-05
5.96657e-05
7.70606e-05
0.000102677
7.90622e-06
-5.01959e-05
1.55558e-05
-5.02406e-05
2.34986e-05
-4.96037e-05
3.14115e-05
-4.91529e-05
3.90592e-05
-4.81883e-05
4.66234e-05
-4.69695e-05
5.42043e-05
-4.51675e-05
6.14719e-05
-4.36088e-05
6.86367e-05
-4.02935e-05
7.53586e-05
-3.7811e-05
8.18226e-05
-3.33221e-05
8.76725e-05
-2.91009e-05
9.22046e-05
-2.24583e-05
9.67761e-05
-1.63903e-05
9.91867e-05
-7.55684e-06
0.000100607
1.03177e-06
0.000101723
1.13581e-05
0.000101717
1.94346e-05
0.000101776
2.85626e-05
0.000102795
3.64804e-05
0.000103186
4.74227e-05
0.000106842
5.60097e-05
6.90098e-05
0.000114893
8.11663e-06
-5.83807e-05
1.58202e-05
-5.80091e-05
2.39429e-05
-5.77901e-05
3.20981e-05
-5.73664e-05
3.99704e-05
-5.61133e-05
4.77998e-05
-5.48463e-05
5.56256e-05
-5.30358e-05
6.31124e-05
-5.11291e-05
7.0524e-05
-4.7738e-05
7.75674e-05
-4.48786e-05
8.4374e-05
-4.01577e-05
9.05068e-05
-3.52603e-05
9.69721e-05
-2.89538e-05
0.000102391
-2.18425e-05
0.000106505
-1.17078e-05
0.000110752
-3.23412e-06
0.000110954
1.11046e-05
0.000109384
2.09523e-05
0.000107639
3.02988e-05
0.000108806
4.10915e-05
0.000107547
4.86821e-05
0.000109995
5.35619e-05
6.18805e-05
0.000117124
4.02128e-06
-6.23798e-05
7.96121e-06
-6.19267e-05
1.20061e-05
-6.18125e-05
1.62219e-05
-6.15595e-05
2.02212e-05
-6.00895e-05
2.41099e-05
-5.87117e-05
2.77065e-05
-5.66087e-05
3.10195e-05
-5.44178e-05
3.40745e-05
-5.07682e-05
3.77784e-05
-4.85572e-05
4.18757e-05
-4.42291e-05
4.78815e-05
-4.12396e-05
5.37527e-05
-3.47978e-05
6.18604e-05
-2.99227e-05
6.65944e-05
-1.6413e-05
7.56263e-05
-1.22364e-05
9.43237e-05
-7.49694e-06
0.000103891
1.15425e-05
0.000108128
2.62201e-05
0.00011051
3.87704e-05
0.000113011
4.61432e-05
0.00011518
5.13944e-05
6.26842e-05
0.000120485
1.08106e-06
-6.34373e-05
2.43795e-06
-6.326e-05
3.3433e-06
-6.26942e-05
4.33141e-06
-6.25238e-05
5.26018e-06
-6.09943e-05
5.91079e-06
-5.9338e-05
6.35622e-06
-5.70296e-05
6.78987e-06
-5.48266e-05
7.76768e-06
-5.17207e-05
1.00531e-05
-5.0817e-05
1.47225e-05
-4.88723e-05
2.13923e-05
-4.78827e-05
2.9513e-05
-4.28911e-05
3.91288e-05
-3.95104e-05
5.05614e-05
-2.78166e-05
6.30438e-05
-2.4689e-05
7.80713e-05
-2.24937e-05
9.2922e-05
-3.27058e-06
0.0001012
1.80092e-05
0.000104429
3.56682e-05
0.00010811
4.27068e-05
0.000114194
4.55314e-05
5.73319e-05
0.000119563
7.25749e-07
-6.41397e-05
1.58969e-06
-6.41005e-05
2.10062e-06
-6.31815e-05
2.5656e-06
-6.29651e-05
3.0828e-06
-6.14876e-05
3.71163e-06
-5.99427e-05
4.50605e-06
-5.77995e-05
5.97946e-06
-5.62752e-05
8.21013e-06
-5.39261e-05
1.15792e-05
-5.41603e-05
1.67734e-05
-5.40402e-05
2.31351e-05
-5.42174e-05
3.10361e-05
-5.07646e-05
3.92829e-05
-4.77289e-05
5.27764e-05
-4.12813e-05
6.48667e-05
-3.67495e-05
7.25681e-05
-3.01647e-05
8.53181e-05
-1.59888e-05
0.000100281
3.07901e-06
0.000107586
2.83995e-05
0.000105663
4.46768e-05
0.00010853
4.27678e-05
4.98326e-05
0.000116229
1.07705e-06
-6.51934e-05
2.02307e-06
-6.50231e-05
2.99202e-06
-6.41269e-05
3.76804e-06
-6.37174e-05
4.70249e-06
-6.23982e-05
5.88105e-06
-6.10971e-05
7.29008e-06
-5.91841e-05
9.2253e-06
-5.81856e-05
1.14878e-05
-5.61633e-05
1.37365e-05
-5.63833e-05
1.62937e-05
-5.65711e-05
1.84952e-05
-5.63921e-05
2.07966e-05
-5.30385e-05
2.4239e-05
-5.11431e-05
2.90655e-05
-4.60788e-05
3.52518e-05
-4.2906e-05
4.49137e-05
-3.97959e-05
5.8877e-05
-2.99204e-05
7.96408e-05
-1.76522e-05
0.000105688
2.38657e-06
0.000120883
2.95166e-05
0.000120716
4.29722e-05
5.30286e-05
0.000117565
1.06455e-06
-6.62347e-05
1.98159e-06
-6.59169e-05
3.16837e-06
-6.52903e-05
4.26571e-06
-6.47912e-05
5.58923e-06
-6.36979e-05
7.19603e-06
-6.26799e-05
8.98557e-06
-6.09493e-05
1.10507e-05
-6.0226e-05
1.3244e-05
-5.83314e-05
1.50308e-05
-5.81445e-05
1.66916e-05
-5.82058e-05
1.78227e-05
-5.74965e-05
1.96624e-05
-5.48508e-05
2.14851e-05
-5.29378e-05
2.4682e-05
-4.9247e-05
2.80178e-05
-4.62123e-05
3.06584e-05
-4.24062e-05
3.67151e-05
-3.59456e-05
4.86331e-05
-2.95377e-05
7.09965e-05
-1.99431e-05
0.000101701
-1.15295e-06
0.000122968
2.17413e-05
4.74214e-05
0.000128613
1.28891e-06
-6.75005e-05
2.59088e-06
-6.71957e-05
4.10406e-06
-6.67803e-05
5.65042e-06
-6.63142e-05
7.31148e-06
-6.53354e-05
9.21544e-06
-6.456e-05
1.11999e-05
-6.29096e-05
1.32441e-05
-6.22456e-05
1.51519e-05
-6.02143e-05
1.63661e-05
-5.93334e-05
1.69521e-05
-5.87658e-05
1.74151e-05
-5.79331e-05
1.82903e-05
-5.56988e-05
1.95517e-05
-5.41714e-05
2.13482e-05
-5.10149e-05
2.3162e-05
-4.79967e-05
2.54567e-05
-4.46706e-05
2.88664e-05
-3.93241e-05
3.3743e-05
-3.4382e-05
4.10589e-05
-2.72256e-05
5.84398e-05
-1.84992e-05
8.55159e-05
-5.29872e-06
2.00735e-05
0.000112901
1.59023e-06
-6.9068e-05
3.23891e-06
-6.88215e-05
4.92856e-06
-6.8447e-05
6.66453e-06
-6.80271e-05
8.44064e-06
-6.70882e-05
1.03971e-05
-6.64928e-05
1.24589e-05
-6.49476e-05
1.45482e-05
-6.43107e-05
1.68064e-05
-6.2448e-05
1.85894e-05
-6.10913e-05
1.99338e-05
-6.00847e-05
2.10087e-05
-5.89818e-05
2.24863e-05
-5.71497e-05
2.40129e-05
-5.56705e-05
2.58904e-05
-5.28642e-05
2.78456e-05
-4.99229e-05
2.90742e-05
-4.58693e-05
3.06487e-05
-4.08678e-05
3.22226e-05
-3.5924e-05
3.48564e-05
-2.98264e-05
3.94184e-05
-2.30271e-05
4.86364e-05
-1.44814e-05
1.57987e-07
6.85886e-05
1.77008e-06
-7.08155e-05
3.58983e-06
-7.06187e-05
5.46635e-06
-7.03009e-05
7.37392e-06
-6.99118e-05
9.33727e-06
-6.90285e-05
1.14319e-05
-6.85642e-05
1.36668e-05
-6.71589e-05
1.59179e-05
-6.65378e-05
1.84087e-05
-6.49145e-05
2.08846e-05
-6.35424e-05
2.30753e-05
-6.22501e-05
2.52019e-05
-6.10825e-05
2.73121e-05
-5.92334e-05
2.93389e-05
-5.76702e-05
3.14687e-05
-5.49661e-05
3.36314e-05
-5.20569e-05
3.61077e-05
-4.8316e-05
3.87686e-05
-4.34983e-05
4.16898e-05
-3.88137e-05
4.4366e-05
-3.24702e-05
4.69569e-05
-2.55843e-05
5.07179e-05
-1.82076e-05
-7.52188e-06
5.84339e-05
1.94028e-06
-7.27336e-05
3.90172e-06
-7.25579e-05
5.86898e-06
-7.22458e-05
7.899e-06
-7.19193e-05
9.98179e-06
-7.10886e-05
1.2163e-05
-7.07224e-05
1.44727e-05
-6.94455e-05
1.68556e-05
-6.88971e-05
1.95588e-05
-6.75937e-05
2.24091e-05
-6.63682e-05
2.52723e-05
-6.50884e-05
2.79561e-05
-6.37408e-05
3.06829e-05
-6.19341e-05
3.3369e-05
-6.03295e-05
3.61869e-05
-5.77566e-05
3.91862e-05
-5.50279e-05
4.22197e-05
-5.13204e-05
4.5817e-05
-4.70657e-05
4.96118e-05
-4.25776e-05
5.36583e-05
-3.64847e-05
5.87621e-05
-3.0655e-05
6.42583e-05
-2.36697e-05
-1.51148e-05
7.18865e-05
2.15383e-06
-7.48656e-05
4.32876e-06
-7.47109e-05
6.50132e-06
-7.43963e-05
8.74188e-06
-7.41377e-05
1.10313e-05
-7.33557e-05
1.33989e-05
-7.30675e-05
1.5856e-05
-7.18796e-05
1.83001e-05
-7.1318e-05
2.08756e-05
-7.01457e-05
2.35463e-05
-6.90149e-05
2.62438e-05
-6.77613e-05
2.90095e-05
-6.64814e-05
3.17989e-05
-6.46978e-05
3.45686e-05
-6.30728e-05
3.75116e-05
-6.06726e-05
4.06445e-05
-5.81331e-05
4.42164e-05
-5.48638e-05
4.83744e-05
-5.11942e-05
5.30642e-05
-4.7237e-05
5.86246e-05
-4.20138e-05
6.52658e-05
-3.72638e-05
7.25339e-05
-3.09044e-05
-2.38883e-05
8.1342e-05
2.26264e-06
-7.71068e-05
4.5524e-06
-7.69792e-05
6.89776e-06
-7.67201e-05
9.29016e-06
-7.65084e-05
1.17477e-05
-7.57913e-05
1.42599e-05
-7.55576e-05
1.69025e-05
-7.44998e-05
1.95578e-05
-7.39505e-05
2.23554e-05
-7.29201e-05
2.5245e-05
-7.18809e-05
2.82395e-05
-7.07318e-05
3.12862e-05
-6.95035e-05
3.44905e-05
-6.7877e-05
3.77808e-05
-6.63374e-05
4.12645e-05
-6.41298e-05
4.50745e-05
-6.1916e-05
4.92796e-05
-5.90409e-05
5.40846e-05
-5.59704e-05
5.9387e-05
-5.25096e-05
6.54641e-05
-4.80604e-05
7.23128e-05
-4.40808e-05
7.9822e-05
-3.8381e-05
-3.26976e-05
8.8665e-05
2.40151e-06
-7.94872e-05
4.84121e-06
-7.93978e-05
7.2903e-06
-7.9148e-05
9.7884e-06
-7.89852e-05
1.2308e-05
-7.82894e-05
1.48435e-05
-7.80713e-05
1.74533e-05
-7.70876e-05
2.00702e-05
-7.65451e-05
2.27818e-05
-7.5609e-05
2.55898e-05
-7.46658e-05
2.84773e-05
-7.35958e-05
3.14748e-05
-7.24769e-05
3.46372e-05
-7.10147e-05
3.79921e-05
-6.9667e-05
4.17013e-05
-6.78131e-05
4.58123e-05
-6.60004e-05
5.04967e-05
-6.36979e-05
5.58314e-05
-6.1277e-05
6.18778e-05
-5.85269e-05
6.89758e-05
-5.51285e-05
7.69025e-05
-5.19767e-05
8.57523e-05
-4.7199e-05
-4.2866e-05
9.59536e-05
2.59594e-06
-8.20626e-05
5.2218e-06
-8.20031e-05
7.8308e-06
-8.17363e-05
1.04879e-05
-8.16215e-05
1.31836e-05
-8.09641e-05
1.59081e-05
-8.07746e-05
1.87373e-05
-7.98953e-05
2.16032e-05
-7.93892e-05
2.45708e-05
-7.85545e-05
2.76366e-05
-7.77089e-05
3.08264e-05
-7.67626e-05
3.41526e-05
-7.57796e-05
3.7701e-05
-7.4539e-05
4.14805e-05
-7.34218e-05
4.5592e-05
-7.18993e-05
5.0082e-05
-7.04644e-05
5.50569e-05
-6.86461e-05
6.06045e-05
-6.67972e-05
6.68325e-05
-6.47267e-05
7.39711e-05
-6.2238e-05
8.19755e-05
-5.99511e-05
9.11651e-05
-5.63578e-05
-5.36459e-05
0.000101977
2.63214e-06
-8.46747e-05
5.27697e-06
-8.46278e-05
7.91396e-06
-8.43531e-05
1.05742e-05
-8.42614e-05
1.32607e-05
-8.363e-05
1.59598e-05
-8.3453e-05
1.87388e-05
-8.26533e-05
2.15649e-05
-8.21941e-05
2.44816e-05
-8.14496e-05
2.75186e-05
-8.07239e-05
3.06943e-05
-7.99159e-05
3.40432e-05
-7.91056e-05
3.76281e-05
-7.81005e-05
4.14711e-05
-7.72408e-05
4.56947e-05
-7.60983e-05
5.03388e-05
-7.50833e-05
5.55559e-05
-7.38372e-05
6.14208e-05
-7.26354e-05
6.80844e-05
-7.13629e-05
7.57666e-05
-6.9892e-05
8.44868e-05
-6.86422e-05
9.46975e-05
-6.65385e-05
-6.55568e-05
0.000106639
2.79964e-06
-8.74548e-05
5.61346e-06
-8.7422e-05
8.42615e-06
-8.71461e-05
1.12633e-05
-8.70787e-05
1.4135e-05
-8.64818e-05
1.70235e-05
-8.63213e-05
1.99887e-05
-8.55981e-05
2.30017e-05
-8.51864e-05
2.60962e-05
-8.45231e-05
2.92962e-05
-8.39024e-05
3.26322e-05
-8.32302e-05
3.61209e-05
-8.2572e-05
3.98295e-05
-8.17864e-05
4.37661e-05
-8.11541e-05
4.80534e-05
-8.03617e-05
5.27346e-05
-7.974e-05
5.79638e-05
-7.90413e-05
6.38129e-05
-7.84586e-05
7.0481e-05
-7.80044e-05
7.81045e-05
-7.74883e-05
8.68655e-05
-7.73751e-05
9.72432e-05
-7.68873e-05
-7.76227e-05
0.000109339
2.88249e-06
-9.03183e-05
5.76836e-06
-9.02889e-05
8.63308e-06
-8.99917e-05
1.14937e-05
-8.99201e-05
1.43636e-05
-8.93323e-05
1.7227e-05
-8.91651e-05
2.01401e-05
-8.84914e-05
2.30918e-05
-8.8118e-05
2.61166e-05
-8.75274e-05
2.92421e-05
-8.70072e-05
3.25032e-05
-8.64701e-05
3.59222e-05
-8.59693e-05
3.95826e-05
-8.54247e-05
4.34962e-05
-8.50451e-05
4.78114e-05
-8.46538e-05
5.25322e-05
-8.44371e-05
5.78375e-05
-8.43221e-05
6.37531e-05
-8.43493e-05
7.0468e-05
-8.46936e-05
7.81077e-05
-8.51015e-05
8.68748e-05
-8.61151e-05
9.73086e-05
-8.72931e-05
-8.96141e-05
0.000109329
3.02971e-06
-9.33296e-05
6.05586e-06
-9.32966e-05
9.06136e-06
-9.29788e-05
1.20482e-05
-9.28883e-05
1.50448e-05
-9.23103e-05
1.80198e-05
-9.21212e-05
2.10375e-05
-9.14899e-05
2.40672e-05
-9.11282e-05
2.71686e-05
-9.06091e-05
3.03257e-05
-9.01442e-05
3.36117e-05
-8.97357e-05
3.69966e-05
-8.93334e-05
4.06402e-05
-8.9047e-05
4.4451e-05
-8.88341e-05
4.86645e-05
-8.8845e-05
5.31655e-05
-8.89151e-05
5.8246e-05
-8.93791e-05
6.38356e-05
-8.99148e-05
7.02153e-05
-9.10486e-05
7.74895e-05
-9.23503e-05
8.58625e-05
-9.4462e-05
9.57514e-05
-9.71552e-05
-0.000100946
0.000107111
3.10454e-06
-9.64164e-05
6.20255e-06
-9.63768e-05
9.27865e-06
-9.6037e-05
1.2324e-05
-9.59157e-05
1.53784e-05
-9.53466e-05
1.83873e-05
-9.51118e-05
2.14303e-05
-9.45145e-05
2.44523e-05
-9.41315e-05
2.75551e-05
-9.36927e-05
3.06654e-05
-9.32352e-05
3.39141e-05
-9.29646e-05
3.71882e-05
-9.25872e-05
4.0726e-05
-9.25642e-05
4.43422e-05
-9.24292e-05
4.83602e-05
-9.28415e-05
5.25911e-05
-9.31239e-05
5.74085e-05
-9.4174e-05
6.26755e-05
-9.51585e-05
6.87094e-05
-9.70585e-05
7.55824e-05
-9.91988e-05
8.34066e-05
-0.000102261
9.25668e-05
-0.000106289
-0.000111297
0.000102944
3.202e-06
-9.96013e-05
6.39866e-06
-9.95564e-05
9.57445e-06
-9.91956e-05
1.27121e-05
-9.9036e-05
1.58619e-05
-9.8479e-05
1.89442e-05
-9.81764e-05
2.20515e-05
-9.7604e-05
2.50954e-05
-9.71574e-05
2.81989e-05
-9.67779e-05
3.12469e-05
-9.62646e-05
3.44097e-05
-9.61084e-05
3.752e-05
-9.56782e-05
4.08335e-05
-9.5858e-05
4.41687e-05
-9.57441e-05
4.78087e-05
-9.64608e-05
5.16496e-05
-9.69436e-05
5.59107e-05
-9.84134e-05
6.06477e-05
-9.98732e-05
6.59544e-05
-0.000102342
7.21324e-05
-0.000105353
7.90736e-05
-0.000109178
8.73183e-05
-0.00011451
-0.000120545
9.65918e-05
3.26393e-06
-0.000102849
6.52392e-06
-0.0001028
9.76799e-06
-0.000102423
1.29741e-05
-0.000102226
1.62025e-05
-0.000101691
1.93593e-05
-0.000101316
2.25438e-05
-0.000100771
2.56486e-05
-0.000100245
2.87916e-05
-9.99033e-05
3.18302e-05
-9.92853e-05
3.4946e-05
-9.9206e-05
3.79522e-05
-9.86659e-05
4.10858e-05
-9.89726e-05
4.41758e-05
-9.88147e-05
4.74116e-05
-9.96768e-05
5.07986e-05
-0.00010031
5.43858e-05
-0.00010198
5.84585e-05
-0.000103925
6.2889e-05
-0.000106751
6.81987e-05
-0.000110641
7.41229e-05
-0.000115079
8.12193e-05
-0.000121582
-0.000128467
8.91662e-05
3.25209e-06
-0.000106085
6.49864e-06
-0.000106031
9.75245e-06
-0.000105661
1.2977e-05
-0.000105434
1.62399e-05
-0.000104938
1.94444e-05
-0.000104505
2.26761e-05
-0.000103987
2.58186e-05
-0.000103371
2.89836e-05
-0.000103052
3.20287e-05
-0.000102313
3.51098e-05
-0.00010227
3.8053e-05
-0.000101591
4.10263e-05
-0.000101928
4.38942e-05
-0.000101664
4.67272e-05
-0.000102491
4.96242e-05
-0.000103188
5.25626e-05
-0.000104898
5.57985e-05
-0.00010714
5.92828e-05
-0.000110214
6.32826e-05
-0.000114619
6.78352e-05
-0.00011961
7.30979e-05
-0.000126823
-0.000134442
7.90962e-05
3.18701e-06
-0.000109257
6.35969e-06
-0.000109189
9.57285e-06
-0.000108859
1.27652e-05
-0.000108611
1.60141e-05
-0.000108171
1.9234e-05
-0.000107709
2.24929e-05
-0.00010723
2.56692e-05
-0.000106531
2.8847e-05
-0.000106213
3.19069e-05
-0.000105357
3.49549e-05
-0.000105301
3.78563e-05
-0.000104476
4.07001e-05
-0.000104754
4.33983e-05
-0.000104345
4.59455e-05
-0.00010502
4.84211e-05
-0.000105645
5.07877e-05
-0.000107246
5.30873e-05
-0.000109421
5.54783e-05
-0.000112586
5.79132e-05
-0.000117034
6.08737e-05
-0.000122549
6.4061e-05
-0.000129988
-0.000138443
6.80837e-05
3.04082e-06
-0.000112284
6.05739e-06
-0.000112191
9.14224e-06
-0.00011193
1.2215e-05
-0.00011167
1.53636e-05
-0.000111305
1.8524e-05
-0.000110855
2.17627e-05
-0.000110454
2.49612e-05
-0.000109715
2.81506e-05
-0.000109388
3.1245e-05
-0.000108436
3.42937e-05
-0.000108334
3.72037e-05
-0.00010737
3.9994e-05
-0.000107529
4.25965e-05
-0.000106931
4.49549e-05
-0.000107361
4.70472e-05
-0.00010772
4.88525e-05
-0.000109034
5.02471e-05
-0.000110797
5.15081e-05
-0.000113828
5.2447e-05
-0.000117953
5.36582e-05
-0.000123741
5.46847e-05
-0.000130995
-0.000140182
5.64446e-05
2.7696e-06
-0.00011504
5.51545e-06
-0.000114923
8.34085e-06
-0.000114742
1.11652e-05
-0.000114481
1.40858e-05
-0.000114212
1.70473e-05
-0.000113803
2.01205e-05
-0.000113513
2.32307e-05
-0.000112811
2.63834e-05
-0.000112526
2.95026e-05
-0.00011154
3.25693e-05
-0.000111386
3.55322e-05
-0.000110318
3.83495e-05
-0.00011033
4.09353e-05
-0.000109501
4.31975e-05
-0.000109607
4.5044e-05
-0.00010955
4.64651e-05
-0.000110438
4.72519e-05
-0.000111566
4.75661e-05
-0.000114124
4.71835e-05
-0.000117552
4.66758e-05
-0.000123215
4.56686e-05
-0.000129968
-0.000139534
4.504e-05
2.4923e-06
-0.00011752
4.97467e-06
-0.000117393
7.52017e-06
-0.000117275
1.00826e-05
-0.000117031
1.27415e-05
-0.000116859
1.5455e-05
-0.000116504
1.82849e-05
-0.00011633
2.12103e-05
-0.000115723
2.42465e-05
-0.000115549
2.73477e-05
-0.000114628
3.04415e-05
-0.000114466
3.34618e-05
-0.000113324
3.63107e-05
-0.000113165
3.88997e-05
-0.000112075
4.11506e-05
-0.000111843
4.28758e-05
-0.00011126
4.3995e-05
-0.000111541
4.43171e-05
-0.000111872
4.38638e-05
-0.000113655
4.23957e-05
-0.000116067
4.03433e-05
-0.000121145
3.75262e-05
-0.000127133
-0.000136479
3.44895e-05
2.10213e-06
-0.000119611
4.20624e-06
-0.000119486
6.35427e-06
-0.000119411
8.53441e-06
-0.000119199
1.08011e-05
-0.000119113
1.31335e-05
-0.000118824
1.55802e-05
-0.000118765
1.81444e-05
-0.000118275
2.08477e-05
-0.00011824
2.36985e-05
-0.000117466
2.66596e-05
-0.000117414
2.96586e-05
-0.00011631
3.25808e-05
-0.000116074
3.53242e-05
-0.000114805
3.77903e-05
-0.000114296
3.97047e-05
-0.00011316
4.08561e-05
-0.000112678
4.11e-05
-0.000112101
4.02918e-05
-0.000112831
3.81012e-05
-0.000113861
3.48561e-05
-0.000117883
3.05458e-05
-0.000122806
-0.000131642
2.57267e-05
1.75279e-06
-0.000121353
3.51452e-06
-0.000121237
5.31075e-06
-0.000121197
7.14751e-06
-0.000121025
9.06118e-06
-0.000121016
1.10478e-05
-0.000120799
1.31464e-05
-0.000120852
1.5382e-05
-0.000120499
1.77688e-05
-0.000120615
2.0325e-05
-0.000120011
2.30208e-05
-0.000120098
2.5826e-05
-0.000119103
2.86452e-05
-0.000118881
3.1344e-05
-0.000117491
3.37987e-05
-0.000116737
3.57449e-05
-0.000115093
3.69496e-05
-0.000113869
3.71856e-05
-0.000112323
3.61727e-05
-0.000111804
3.35183e-05
-0.000111192
2.92429e-05
-0.000113593
2.3386e-05
-0.000116934
-0.000124995
1.67548e-05
1.37644e-06
-0.000122719
2.75901e-06
-0.000122609
4.16221e-06
-0.00012259
5.59617e-06
-0.000122449
7.09138e-06
-0.000122501
8.65192e-06
-0.00012235
1.03156e-05
-0.000122506
1.21096e-05
-0.000122283
1.40409e-05
-0.000122536
1.61483e-05
-0.000122107
1.83932e-05
-0.000122332
2.08061e-05
-0.000121505
2.33022e-05
-0.000121365
2.57794e-05
-0.000119957
2.81452e-05
-0.000119091
3.01896e-05
-0.000117125
3.17532e-05
-0.00011542
3.23947e-05
-0.000112952
3.1695e-05
-0.000111091
2.91764e-05
-0.00010866
2.43749e-05
-0.000108777
1.71145e-05
-0.000109659
-0.000116194
8.32845e-06
1.02594e-06
-0.000123736
2.06159e-06
-0.000123636
3.11622e-06
-0.000123635
4.20115e-06
-0.000123525
5.34352e-06
-0.000123634
6.54745e-06
-0.000123544
7.84928e-06
-0.000123798
9.26427e-06
-0.000123688
1.07999e-05
-0.000124062
1.2502e-05
-0.0001238
1.43368e-05
-0.000124157
1.63633e-05
-0.000123521
1.84921e-05
-0.000123484
2.06978e-05
-0.000122152
2.28646e-05
-0.000121247
2.47347e-05
-0.000118984
2.62306e-05
-0.000116905
2.68583e-05
-0.000113568
2.63217e-05
-0.000110542
2.40777e-05
-0.000106403
1.94636e-05
-0.000104151
1.17436e-05
-0.000101926
-0.000105699
1.26192e-06
7.23402e-07
-0.000124451
1.44688e-06
-0.000124351
2.17438e-06
-0.000124355
2.91542e-06
-0.000124257
3.69477e-06
-0.000124405
4.5151e-06
-0.000124357
5.40566e-06
-0.00012468
6.38021e-06
-0.000124655
7.45319e-06
-0.000125126
8.66289e-06
-0.000125001
9.98293e-06
-0.000125468
1.14671e-05
-0.000124996
1.30579e-05
-0.000125065
1.47723e-05
-0.000123857
1.65376e-05
-0.000123003
1.81779e-05
-0.000120615
1.96207e-05
-0.000118337
2.0395e-05
-0.000114332
2.02939e-05
-0.000110431
1.87121e-05
-0.000104811
1.48794e-05
-0.000100307
7.86561e-06
-9.49004e-05
-9.48344e-05
-2.98683e-06
4.50599e-07
-0.000124895
8.9855e-07
-0.000124792
1.3492e-06
-0.000124798
1.80693e-06
-0.000124708
2.29105e-06
-0.000124882
2.80084e-06
-0.000124859
3.36361e-06
-0.000125236
3.98974e-06
-0.000125273
4.69502e-06
-0.000125824
5.50562e-06
-0.000125804
6.40719e-06
-0.000126362
7.43769e-06
-0.000126019
8.56109e-06
-0.000126181
9.78475e-06
-0.000125072
1.10837e-05
-0.000124293
1.23453e-05
-0.000121868
1.35022e-05
-0.000119485
1.41857e-05
-0.000115006
1.41699e-05
-0.000110405
1.28405e-05
-0.000103472
9.6374e-06
-9.70933e-05
3.6963e-06
-8.89489e-05
-8.47847e-05
-6.34264e-06
2.54621e-07
-0.000125143
4.94081e-07
-0.000125025
7.24199e-07
-0.000125022
9.48379e-07
-0.000124926
1.17876e-06
-0.000125106
1.41694e-06
-0.000125091
1.68351e-06
-0.000125496
1.98322e-06
-0.000125566
2.32965e-06
-0.000126164
2.73166e-06
-0.000126199
3.18939e-06
-0.000126813
3.71661e-06
-0.000126539
4.31077e-06
-0.000126768
4.96306e-06
-0.000125717
5.68282e-06
-0.000125005
6.36567e-06
-0.000122543
7.00837e-06
-0.00012012
7.38721e-06
-0.000115377
7.33676e-06
-0.000110347
6.30458e-06
-0.000102431
3.71445e-06
-9.44945e-05
-1.23186e-06
-8.39936e-05
-7.57645e-05
-1.02428e-05
1.06192e-07
-0.000125244
1.98576e-07
-0.000125113
2.80828e-07
-0.000125099
3.51773e-07
-0.000124992
4.21066e-07
-0.00012517
4.86283e-07
-0.000125151
5.61009e-07
-0.000125565
6.43209e-07
-0.000125643
7.43962e-07
-0.000126259
8.61661e-07
-0.000126311
1.0079e-06
-0.000126953
1.17391e-06
-0.000126699
1.37906e-06
-0.000126967
1.5847e-06
-0.000125917
1.82755e-06
-0.000125242
2.02587e-06
-0.000122735
2.19656e-06
-0.000120284
2.13957e-06
-0.000115314
1.72281e-06
-0.000109923
5.11734e-07
-0.000101213
-2.09472e-06
-9.18806e-05
-6.77367e-06
-7.93069e-05
-6.75018e-05