/*--------------------------------*- C++ -*----------------------------------*\
| =========                 |                                                 |
| \\      /  F ield         | OpenFOAM: The Open Source CFD Toolbox           |
|  \\    /   O peration     | Version:  2012                                  |
|   \\  /    A nd           | Website:  www.openfoam.com                      |
|    \\/     M anipulation  |                                                 |
\*---------------------------------------------------------------------------*/
FoamFile
{
    version     2.0;
    format      ascii;
    class       volVectorField;
    location    "0.4";
    object      U;
}
// * * * * * * * * * * * * * * * * * * * * * * * * * * * * * * * * * * * * * //

dimensions      [0 1 -1 0 0 0 0];


internalField   nonuniform List<vector> 
2268
(
(0.0180829 -0.00908141 0)
(0.058939 -0.00908926 0)
(0.0952418 -0.00860383 0)
(0.132093 -0.00866263 0)
(0.168739 -0.00875532 0)
(0.206213 -0.00845461 0)
(0.240194 -0.00748454 0)
(0.269555 -0.0075273 0)
(0.303563 -0.0066514 0)
(0.325803 -0.00581013 0)
(0.35153 -0.00531558 0)
(0.372039 -0.00466564 0)
(0.388259 -0.00260299 0)
(0.395338 -0.00110525 0)
(0.398974 7.81222e-05 0)
(0.394296 0.00139723 0)
(0.382693 0.00310956 0)
(0.361042 0.00334529 0)
(0.328551 0.00473863 0)
(0.282685 0.00383875 0)
(0.220683 0.005123 0)
(0.150575 0.00557586 0)
(0.0597025 0.0310199 0)
(0.0180288 -0.0273141 0)
(0.058837 -0.027375 0)
(0.0954048 -0.0259599 0)
(0.132417 -0.0260713 0)
(0.168989 -0.0262619 0)
(0.206455 -0.0253192 0)
(0.240444 -0.0224302 0)
(0.2702 -0.0224205 0)
(0.304201 -0.0199253 0)
(0.326526 -0.0168321 0)
(0.352633 -0.0165532 0)
(0.373609 -0.0126526 0)
(0.387901 -0.00842063 0)
(0.397733 -0.0039377 0)
(0.401554 0.00041944 0)
(0.397078 0.00629995 0)
(0.384288 0.012614 0)
(0.361492 0.0222379 0)
(0.327394 0.0322975 0)
(0.279892 0.0471346 0)
(0.213497 0.0572956 0)
(0.134391 0.0704446 0)
(0.0345914 0.068311 0)
(0.0179512 -0.0454168 0)
(0.0588281 -0.0456703 0)
(0.0957776 -0.0433856 0)
(0.133029 -0.0434559 0)
(0.169509 -0.0437544 0)
(0.206915 -0.0422522 0)
(0.240949 -0.0376193 0)
(0.271498 -0.0376892 0)
(0.305423 -0.0333006 0)
(0.327976 -0.0287104 0)
(0.355214 -0.0276233 0)
(0.37502 -0.021332 0)
(0.389749 -0.0140546 0)
(0.401061 -0.00757072 0)
(0.406234 0.000365595 0)
(0.402068 0.0095364 0)
(0.390361 0.019927 0)
(0.369775 0.0302232 0)
(0.340436 0.0432928 0)
(0.297952 0.0576762 0)
(0.23722 0.0739221 0)
(0.160938 0.0902606 0)
(0.0497434 0.111038 0)
(0.0178674 -0.063581 0)
(0.0589543 -0.0641401 0)
(0.0962737 -0.061003 0)
(0.1338 -0.0608971 0)
(0.170248 -0.0611475 0)
(0.207539 -0.0590605 0)
(0.241636 -0.0529037 0)
(0.273261 -0.05286 0)
(0.307042 -0.0465731 0)
(0.330098 -0.0403003 0)
(0.358722 -0.0387631 0)
(0.377168 -0.0288925 0)
(0.393634 -0.0207084 0)
(0.405312 -0.0116626 0)
(0.410531 -4.08289e-05 0)
(0.407351 0.0138397 0)
(0.394971 0.0278875 0)
(0.373407 0.0458421 0)
(0.340664 0.0662699 0)
(0.297388 0.0959394 0)
(0.234187 0.122037 0)
(0.159825 0.158944 0)
(0.046538 0.167619 0)
(0.0177645 -0.0817457 0)
(0.059242 -0.0827523 0)
(0.0968856 -0.0787828 0)
(0.13477 -0.0784515 0)
(0.171353 -0.0786348 0)
(0.208609 -0.0760411 0)
(0.242831 -0.0687189 0)
(0.275733 -0.0686615 0)
(0.309088 -0.0602255 0)
(0.333033 -0.0531863 0)
(0.363154 -0.0499641 0)
(0.380348 -0.0378686 0)
(0.399011 -0.0274466 0)
(0.410355 -0.0155987 0)
(0.417232 -0.000653892 0)
(0.41532 0.0168505 0)
(0.40679 0.0359629 0)
(0.38828 0.055851 0)
(0.361115 0.0791808 0)
(0.322137 0.107891 0)
(0.264597 0.138864 0)
(0.191042 0.178784 0)
(0.0704201 0.208854 0)
(0.017757 -0.0999411 0)
(0.0595778 -0.101502 0)
(0.0975274 -0.0966574 0)
(0.1358 -0.0960503 0)
(0.172657 -0.0959899 0)
(0.20993 -0.0927927 0)
(0.244432 -0.0845514 0)
(0.278572 -0.0841099 0)
(0.311257 -0.0735694 0)
(0.336671 -0.0657551 0)
(0.368143 -0.0610581 0)
(0.384993 -0.0457167 0)
(0.404835 -0.034839 0)
(0.417808 -0.0201622 0)
(0.424308 -0.00234913 0)
(0.423856 0.018834 0)
(0.415133 0.0406848 0)
(0.398121 0.0674708 0)
(0.368125 0.0975832 0)
(0.329053 0.141776 0)
(0.266952 0.18421 0)
(0.196856 0.251274 0)
(0.0648881 0.291227 0)
(0.018245 -0.118332 0)
(0.0597503 -0.120493 0)
(0.0982065 -0.114849 0)
(0.137069 -0.114012 0)
(0.17437 -0.113724 0)
(0.211757 -0.110037 0)
(0.246797 -0.101231 0)
(0.282057 -0.100337 0)
(0.314058 -0.0877828 0)
(0.341575 -0.0801636 0)
(0.374038 -0.0729337 0)
(0.390412 -0.0552881 0)
(0.413228 -0.0430799 0)
(0.424672 -0.024883 0)
(0.43379 -0.00359498 0)
(0.434173 0.0211267 0)
(0.430758 0.0481053 0)
(0.415766 0.0779972 0)
(0.393977 0.111762 0)
(0.36046 0.155336 0)
(0.307652 0.200936 0)
(0.243496 0.273011 0)
(0.104469 0.331864 0)
(0.0190882 -0.136754 0)
(0.0597291 -0.139243 0)
(0.0988281 -0.133142 0)
(0.138394 -0.131984 0)
(0.176182 -0.131212 0)
(0.213697 -0.126943 0)
(0.249393 -0.117673 0)
(0.285587 -0.115796 0)
(0.317287 -0.101576 0)
(0.347387 -0.0939718 0)
(0.379823 -0.0840236 0)
(0.397049 -0.0640801 0)
(0.422817 -0.0509507 0)
(0.43414 -0.0297184 0)
(0.445207 -0.00678212 0)
(0.446923 0.0203632 0)
(0.443972 0.049418 0)
(0.43139 0.0849446 0)
(0.40816 0.123802 0)
(0.379052 0.183094 0)
(0.320602 0.24005 0)
(0.261859 0.349318 0)
(0.113818 0.457758 0)
(0.0021543 0.00046307 0)
(-0.0492695 -0.00787211 0)
(-0.0544061 -0.0130269 0)
(-0.106749 -0.00588528 0)
(-0.129802 0.0059006 0)
(-0.212272 0.0109455 0)
(-0.248606 0.012399 0)
(-0.331291 0.0137886 0)
(-0.384146 0.0167377 0)
(-0.495134 0.0226089 0)
(-0.576312 0.0263953 0)
(-0.72689 0.0427597 0)
(-0.899204 0.0514892 0)
(-1.13473 0.0657498 0)
(-1.42782 0.0612319 0)
(-1.6717 0.0642205 0)
(-2.00804 0.00169087 0)
(-1.72961 -0.167842 0)
(-0.474454 -0.18362 0)
(-0.0025476 0.0398412 0)
(-0.057796 0.0529717 0)
(-0.0713367 0.0571178 0)
(-0.110067 0.0594785 0)
(-0.122842 0.0580661 0)
(-0.211926 0.0615348 0)
(-0.246895 0.056743 0)
(-0.330911 0.0662098 0)
(-0.383763 0.0707138 0)
(-0.491299 0.0821054 0)
(-0.570187 0.0893375 0)
(-0.717195 0.118275 0)
(-0.889033 0.138949 0)
(-1.11953 0.182938 0)
(-1.43329 0.185411 0)
(-1.72713 0.200157 0)
(-2.13017 0.0537045 0)
(-1.98711 -0.468851 0)
(-0.83348 -0.732035 0)
(-0.0156598 0.0455796 0)
(-0.0657806 0.0408894 0)
(-0.062804 0.0282872 0)
(-0.102108 0.0363908 0)
(-0.126512 0.0676833 0)
(-0.209148 0.0850471 0)
(-0.246941 0.0810972 0)
(-0.327795 0.0943573 0)
(-0.376241 0.102936 0)
(-0.483708 0.125018 0)
(-0.558116 0.13983 0)
(-0.708288 0.201577 0)
(-0.867723 0.239009 0)
(-1.09759 0.319913 0)
(-1.4405 0.337539 0)
(-1.80365 0.378499 0)
(-2.24416 0.135332 0)
(-1.83496 -0.700586 0)
(-1.12271 -1.37089 0)
(-0.02294 0.0956266 0)
(-0.0628262 0.0956756 0)
(-0.0616147 0.0929846 0)
(-0.0966032 0.109327 0)
(-0.11077 0.123373 0)
(-0.204867 0.135353 0)
(-0.239983 0.126149 0)
(-0.32552 0.143597 0)
(-0.373215 0.15453 0)
(-0.470832 0.182295 0)
(-0.536327 0.201629 0)
(-0.673545 0.274018 0)
(-0.82326 0.321542 0)
(-1.0419 0.451527 0)
(-1.39416 0.502311 0)
(-1.7787 0.559192 0)
(-2.15812 0.102394 0)
(-1.41619 -0.944272 0)
(-0.836749 -1.95981 0)
(-0.015578 0.100507 0)
(-0.070075 0.075008 0)
(-0.0612514 0.0607569 0)
(-0.0881455 0.0762809 0)
(-0.113568 0.131348 0)
(-0.202418 0.160704 0)
(-0.241678 0.15 0)
(-0.320958 0.17339 0)
(-0.362314 0.182858 0)
(-0.459092 0.21792 0)
(-0.51749 0.243615 0)
(-0.649282 0.347054 0)
(-0.781825 0.411935 0)
(-0.981858 0.585873 0)
(-1.31658 0.666792 0)
(-1.63027 0.725607 0)
(-1.93218 0.00138732 0)
(-0.979118 -1.23073 0)
(-0.610914 -2.3184 0)
(-0.0354199 0.154401 0)
(-0.0818985 0.139676 0)
(-0.0589765 0.122527 0)
(-0.0745442 0.155703 0)
(-0.0830591 0.192714 0)
(-0.191267 0.213122 0)
(-0.233194 0.19601 0)
(-0.317744 0.217359 0)
(-0.357631 0.230492 0)
(-0.444392 0.270924 0)
(-0.48849 0.298802 0)
(-0.597968 0.410711 0)
(-0.709473 0.479509 0)
(-0.890668 0.704895 0)
(-1.1799 0.793575 0)
(-1.39194 0.844125 0)
(-1.60725 -0.154124 0)
(-0.655568 -1.48716 0)
(-0.488822 -2.61506 0)
(-0.02513 0.167465 0)
(-0.0876783 0.100439 0)
(-0.0608782 0.0741499 0)
(-0.0603811 0.104097 0)
(-0.0939754 0.197481 0)
(-0.196187 0.244721 0)
(-0.234098 0.220701 0)
(-0.31511 0.248861 0)
(-0.348223 0.254932 0)
(-0.426748 0.297614 0)
(-0.453495 0.326575 0)
(-0.55615 0.464876 0)
(-0.645751 0.552084 0)
(-0.796927 0.80973 0)
(-0.987981 0.893418 0)
(-1.11769 0.929874 0)
(-1.21653 -0.290235 0)
(-0.373165 -1.68304 0)
(-0.322243 -2.78801 0)
(-0.0275584 0.226377 0)
(-0.132854 0.181527 0)
(-0.0654518 0.135091 0)
(-0.0344443 0.194856 0)
(-0.0410539 0.272401 0)
(-0.175938 0.296526 0)
(-0.223984 0.266647 0)
(-0.311036 0.288181 0)
(-0.350554 0.294749 0)
(-0.420246 0.338202 0)
(-0.428258 0.369339 0)
(-0.504685 0.517268 0)
(-0.56621 0.59802 0)
(-0.675161 0.878431 0)
(-0.762313 0.942568 0)
(-0.819246 0.969008 0)
(-0.744461 -0.452451 0)
(-0.158369 -1.84279 0)
(-0.181972 -2.89655 0)
(0.0200464 -0.166275 0)
(0.0603265 -0.168939 0)
(0.100248 -0.162762 0)
(0.14088 -0.161155 0)
(0.179634 -0.159636 0)
(0.217751 -0.154763 0)
(0.254694 -0.145251 0)
(0.29218 -0.141992 0)
(0.324618 -0.125888 0)
(0.358483 -0.118809 0)
(0.389283 -0.10364 0)
(0.409138 -0.0822972 0)
(0.440705 -0.066294 0)
(0.448273 -0.0388983 0)
(0.466628 -0.0114169 0)
(0.464546 0.0223227 0)
(0.474191 0.0587461 0)
(0.459898 0.100344 0)
(0.467158 0.143408 0)
(0.443145 0.203359 0)
(0.460783 0.26419 0)
(0.432689 0.377788 0)
(0.491583 0.532339 0)
(0.0212128 -0.206845 0)
(0.0614279 -0.20909 0)
(0.102209 -0.203371 0)
(0.144288 -0.201189 0)
(0.184349 -0.198141 0)
(0.223502 -0.192258 0)
(0.262135 -0.182421 0)
(0.301104 -0.17649 0)
(0.335641 -0.159308 0)
(0.373412 -0.149837 0)
(0.402777 -0.127696 0)
(0.432559 -0.109 0)
(0.463514 -0.0846416 0)
(0.476766 -0.0522064 0)
(0.502505 -0.0214225 0)
(0.502746 0.0122687 0)
(0.514712 0.0507611 0)
(0.496556 0.0867703 0)
(0.497786 0.133673 0)
(0.470285 0.183414 0)
(0.484115 0.242222 0)
(0.466322 0.313509 0)
(0.537884 0.417644 0)
(0.022266 -0.249464 0)
(0.0626002 -0.250478 0)
(0.104393 -0.246187 0)
(0.147856 -0.243865 0)
(0.189339 -0.239422 0)
(0.229955 -0.233136 0)
(0.270549 -0.223464 0)
(0.311325 -0.216104 0)
(0.348602 -0.198828 0)
(0.388232 -0.186554 0)
(0.420813 -0.163373 0)
(0.457668 -0.143581 0)
(0.483712 -0.111052 0)
(0.506496 -0.0782468 0)
(0.533248 -0.0377878 0)
(0.533407 0.0100215 0)
(0.551975 0.0647261 0)
(0.540082 0.117315 0)
(0.556852 0.169193 0)
(0.544523 0.216544 0)
(0.565818 0.266821 0)
(0.55306 0.321793 0)
(0.610989 0.4036 0)
(0.0234002 -0.29215 0)
(0.0637308 -0.291625 0)
(0.10612 -0.289064 0)
(0.150923 -0.286545 0)
(0.193679 -0.280619 0)
(0.235442 -0.273813 0)
(0.27775 -0.264131 0)
(0.31944 -0.254802 0)
(0.358178 -0.236493 0)
(0.398973 -0.222258 0)
(0.433834 -0.197369 0)
(0.472026 -0.172114 0)
(0.499671 -0.133632 0)
(0.541403 -0.101922 0)
(0.557833 -0.0485718 0)
(0.585501 -0.00653246 0)
(0.603732 0.0439614 0)
(0.588826 0.0822967 0)
(0.590561 0.129543 0)
(0.582067 0.17554 0)
(0.583467 0.234214 0)
(0.580629 0.270363 0)
(0.616719 0.328676 0)
(0.011929 -0.336471 0)
(0.0331209 -0.333062 0)
(0.0561348 -0.333298 0)
(0.0783679 -0.331394 0)
(0.103421 -0.323937 0)
(0.123056 -0.317299 0)
(0.147387 -0.307637 0)
(0.163324 -0.296811 0)
(0.185453 -0.278757 0)
(0.197587 -0.262825 0)
(0.228172 -0.237046 0)
(0.242619 -0.210448 0)
(0.296335 -0.181232 0)
(0.305572 -0.137785 0)
(0.387682 -0.0825636 0)
(0.352449 -0.0374512 0)
(0.481382 0.060961 0)
(0.540247 0.129974 0)
(0.577519 0.175452 0)
(0.586678 0.222992 0)
(0.602913 0.268042 0)
(0.620914 0.287542 0)
(0.64039 0.326833 0)
(0.00171803 -0.338753 0)
(0.0117463 -0.337255 0)
(0.0181262 -0.335857 0)
(0.023327 -0.335032 0)
(0.0306428 -0.326717 0)
(0.0351449 -0.318482 0)
(0.039621 -0.305615 0)
(0.0418265 -0.292705 0)
(0.0463321 -0.271648 0)
(0.0543364 -0.263451 0)
(0.072961 -0.242998 0)
(0.106582 -0.236888 0)
(0.146681 -0.197578 0)
(0.195812 -0.187644 0)
(0.252221 -0.098033 0)
(0.320407 -0.0943367 0)
(0.391722 -0.141555 0)
(0.486162 -0.014905 0)
(0.55163 0.0865799 0)
(0.563653 0.152877 0)
(0.564733 0.201666 0)
(0.600794 0.234254 0)
(0.631854 0.296181 0)
(0.00189803 -0.347791 0)
(0.00769685 -0.347444 0)
(0.0130278 -0.342815 0)
(0.0149405 -0.341997 0)
(0.0199728 -0.333988 0)
(0.0221963 -0.3247 0)
(0.0288291 -0.312925 0)
(0.0323519 -0.302648 0)
(0.046979 -0.290539 0)
(0.0577965 -0.289889 0)
(0.0857967 -0.289696 0)
(0.114854 -0.286305 0)
(0.157115 -0.27185 0)
(0.200818 -0.246507 0)
(0.249069 -0.20951 0)
(0.347712 -0.179615 0)
(0.382436 -0.109785 0)
(0.436419 -0.0290579 0)
(0.521014 0.0902385 0)
(0.603521 0.203811 0)
(0.594334 0.226933 0)
(0.577209 0.217676 0)
(0.610744 0.267972 0)
(0.00457003 -0.349791 0)
(0.0087648 -0.349727 0)
(0.0165105 -0.344515 0)
(0.0209317 -0.343047 0)
(0.0266782 -0.335267 0)
(0.0327311 -0.327965 0)
(0.0412341 -0.316855 0)
(0.0496479 -0.310756 0)
(0.0639858 -0.297882 0)
(0.0757723 -0.301083 0)
(0.0902051 -0.300505 0)
(0.10512 -0.305805 0)
(0.11608 -0.283766 0)
(0.131834 -0.276412 0)
(0.155732 -0.2446 0)
(0.185901 -0.226274 0)
(0.225749 -0.225792 0)
(0.292548 -0.157445 0)
(0.378998 -0.0729503 0)
(0.518574 0.0815866 0)
(0.658765 0.232307 0)
(0.685202 0.218822 0)
(0.660622 0.229124 0)
(0.00563752 -0.359594 0)
(0.00750725 -0.35789 0)
(0.0172467 -0.353538 0)
(0.0219288 -0.350789 0)
(0.0308641 -0.344552 0)
(0.0377838 -0.338174 0)
(0.0500563 -0.328972 0)
(0.0586003 -0.324843 0)
(0.0743164 -0.316333 0)
(0.0836972 -0.316282 0)
(0.095772 -0.319401 0)
(0.103093 -0.313085 0)
(0.110386 -0.299488 0)
(0.124564 -0.287408 0)
(0.132546 -0.265379 0)
(0.161205 -0.25041 0)
(0.17077 -0.219293 0)
(0.192873 -0.182354 0)
(0.237488 -0.138084 0)
(0.323712 -0.0793577 0)
(0.478732 0.0603352 0)
(0.655332 0.215485 0)
(0.70911 0.307644 0)
(0.00452734 -0.363852 0)
(0.010984 -0.36216 0)
(0.0201946 -0.359847 0)
(0.0288913 -0.357314 0)
(0.0385278 -0.351935 0)
(0.0483821 -0.34749 0)
(0.0607594 -0.338303 0)
(0.0713507 -0.334847 0)
(0.0845829 -0.32331 0)
(0.0935163 -0.321623 0)
(0.0996083 -0.319715 0)
(0.101535 -0.318821 0)
(0.10671 -0.304657 0)
(0.112748 -0.29684 0)
(0.122593 -0.280009 0)
(0.133978 -0.26366 0)
(0.14459 -0.255004 0)
(0.160726 -0.224779 0)
(0.183326 -0.202011 0)
(0.215196 -0.160045 0)
(0.262997 -0.100295 0)
(0.403353 -0.0114324 0)
(0.554079 0.169283 0)
(0.00488323 -0.374077 0)
(0.0138054 -0.372547 0)
(0.024226 -0.370494 0)
(0.0335372 -0.368203 0)
(0.0445571 -0.363266 0)
(0.0541768 -0.3597 0)
(0.0673302 -0.351455 0)
(0.0778608 -0.348271 0)
(0.0916315 -0.338412 0)
(0.103636 -0.331311 0)
(0.112762 -0.327754 0)
(0.119641 -0.320513 0)
(0.126376 -0.311404 0)
(0.137208 -0.303755 0)
(0.144835 -0.287703 0)
(0.159315 -0.272694 0)
(0.167743 -0.247259 0)
(0.174682 -0.221403 0)
(0.186217 -0.193188 0)
(0.193501 -0.160285 0)
(0.215791 -0.128146 0)
(0.243772 -0.0773321 0)
(0.315758 0.0128531 0)
(0.00522326 -0.383063 0)
(0.0153429 -0.381979 0)
(0.0263332 -0.380095 0)
(0.0370411 -0.377993 0)
(0.0484198 -0.373008 0)
(0.0596653 -0.370383 0)
(0.0725614 -0.362278 0)
(0.0852024 -0.358922 0)
(0.0984478 -0.349135 0)
(0.113491 -0.342056 0)
(0.126814 -0.335379 0)
(0.138598 -0.331371 0)
(0.151491 -0.321569 0)
(0.162883 -0.314231 0)
(0.175179 -0.3011 0)
(0.187388 -0.285815 0)
(0.200324 -0.268933 0)
(0.215607 -0.242803 0)
(0.230525 -0.219628 0)
(0.248586 -0.188955 0)
(0.260382 -0.150262 0)
(0.277784 -0.111269 0)
(0.301484 -0.0461811 0)
(0.00585012 -0.394008 0)
(0.0164824 -0.393036 0)
(0.0284238 -0.391621 0)
(0.0390881 -0.389732 0)
(0.0517703 -0.385449 0)
(0.062918 -0.383419 0)
(0.0767889 -0.376763 0)
(0.0891662 -0.373936 0)
(0.104037 -0.366766 0)
(0.119627 -0.359735 0)
(0.136362 -0.353189 0)
(0.151826 -0.345469 0)
(0.16693 -0.336239 0)
(0.182611 -0.327769 0)
(0.19749 -0.312955 0)
(0.214439 -0.298143 0)
(0.231293 -0.276271 0)
(0.248579 -0.252027 0)
(0.271323 -0.226539 0)
(0.29072 -0.190776 0)
(0.315911 -0.157187 0)
(0.346665 -0.118772 0)
(0.375717 -0.0706391 0)
(0.00613348 -0.405625 0)
(0.0184323 -0.404755 0)
(0.0309296 -0.402916 0)
(0.0431897 -0.401446 0)
(0.0564553 -0.396996 0)
(0.0691908 -0.395352 0)
(0.0833802 -0.388583 0)
(0.0969804 -0.385892 0)
(0.111168 -0.379494 0)
(0.126037 -0.373852 0)
(0.14142 -0.367263 0)
(0.156412 -0.361182 0)
(0.172709 -0.351806 0)
(0.187774 -0.343962 0)
(0.204043 -0.332135 0)
(0.220753 -0.318838 0)
(0.239209 -0.302111 0)
(0.260426 -0.282122 0)
(0.285189 -0.260963 0)
(0.312004 -0.232912 0)
(0.34593 -0.205715 0)
(0.38438 -0.170907 0)
(0.424699 -0.129032 0)
(0.00694793 -0.418238 0)
(0.0187229 -0.417507 0)
(0.0329133 -0.416087 0)
(0.0452698 -0.414974 0)
(0.0600044 -0.411256 0)
(0.0730054 -0.410144 0)
(0.0884136 -0.404513 0)
(0.102708 -0.401657 0)
(0.118396 -0.395981 0)
(0.134059 -0.390106 0)
(0.150916 -0.383913 0)
(0.167516 -0.377047 0)
(0.185121 -0.368118 0)
(0.203222 -0.359484 0)
(0.221896 -0.346598 0)
(0.241913 -0.333766 0)
(0.264157 -0.316658 0)
(0.288278 -0.298569 0)
(0.31696 -0.27867 0)
(0.346273 -0.252119 0)
(0.383235 -0.229838 0)
(0.420693 -0.197912 0)
(0.464645 -0.165975 0)
(0.00683193 -0.431313 0)
(0.0202669 -0.430726 0)
(0.0343389 -0.429472 0)
(0.0478668 -0.428479 0)
(0.0624911 -0.4247 0)
(0.0762093 -0.423591 0)
(0.0910678 -0.418179 0)
(0.105502 -0.415543 0)
(0.12054 -0.410618 0)
(0.135872 -0.405864 0)
(0.152068 -0.400346 0)
(0.168118 -0.394721 0)
(0.185617 -0.38698 0)
(0.203287 -0.379981 0)
(0.222971 -0.370139 0)
(0.244275 -0.360318 0)
(0.268361 -0.347744 0)
(0.295652 -0.334196 0)
(0.326742 -0.318374 0)
(0.361543 -0.298645 0)
(0.403853 -0.27987 0)
(0.44747 -0.252234 0)
(0.499591 -0.224929 0)
(0.00742372 -0.44522 0)
(0.0216983 -0.444909 0)
(0.0368628 -0.443605 0)
(0.0509506 -0.443046 0)
(0.0666525 -0.439591 0)
(0.0811167 -0.438696 0)
(0.0971851 -0.433913 0)
(0.112693 -0.431198 0)
(0.12925 -0.426595 0)
(0.145732 -0.421835 0)
(0.163459 -0.416542 0)
(0.181133 -0.410928 0)
(0.200443 -0.403804 0)
(0.220352 -0.397276 0)
(0.242241 -0.388228 0)
(0.265567 -0.379696 0)
(0.291581 -0.368734 0)
(0.319965 -0.357557 0)
(0.352151 -0.345179 0)
(0.387693 -0.329808 0)
(0.429636 -0.316183 0)
(0.474342 -0.293973 0)
(0.528965 -0.27631 0)
(0.00749902 -0.460318 0)
(0.0219478 -0.460046 0)
(0.0370762 -0.458596 0)
(0.0514362 -0.458098 0)
(0.0668319 -0.454704 0)
(0.0814381 -0.453863 0)
(0.097017 -0.449533 0)
(0.112411 -0.447232 0)
(0.12857 -0.443346 0)
(0.144839 -0.439572 0)
(0.162374 -0.435331 0)
(0.180022 -0.431093 0)
(0.199496 -0.425684 0)
(0.219558 -0.421098 0)
(0.241873 -0.41476 0)
(0.265888 -0.408957 0)
(0.292764 -0.401554 0)
(0.322799 -0.394143 0)
(0.356628 -0.385659 0)
(0.395135 -0.375743 0)
(0.439831 -0.366378 0)
(0.489415 -0.351567 0)
(0.550028 -0.341844 0)
(0.00796425 -0.474693 0)
(0.0232153 -0.474526 0)
(0.039292 -0.473147 0)
(0.054525 -0.472858 0)
(0.0708786 -0.46971 0)
(0.08645 -0.468981 0)
(0.103024 -0.465092 0)
(0.119354 -0.462921 0)
(0.136506 -0.459327 0)
(0.153619 -0.455904 0)
(0.171979 -0.452133 0)
(0.190446 -0.448417 0)
(0.210517 -0.443847 0)
(0.231227 -0.440109 0)
(0.253808 -0.435149 0)
(0.278157 -0.431117 0)
(0.305004 -0.426266 0)
(0.335113 -0.421983 0)
(0.36861 -0.418077 0)
(0.407415 -0.413548 0)
(0.451097 -0.410908 0)
(0.502072 -0.404578 0)
(0.562981 -0.405364 0)
(0.00804005 -0.491317 0)
(0.0239647 -0.491191 0)
(0.040078 -0.489714 0)
(0.0557691 -0.489458 0)
(0.0718513 -0.486409 0)
(0.0876102 -0.485713 0)
(0.103657 -0.482171 0)
(0.119891 -0.480337 0)
(0.136404 -0.477281 0)
(0.153344 -0.474586 0)
(0.170994 -0.47176 0)
(0.189302 -0.469101 0)
(0.208694 -0.466009 0)
(0.2295 -0.463817 0)
(0.251641 -0.461212 0)
(0.276664 -0.459603 0)
(0.303159 -0.458078 0)
(0.334381 -0.457314 0)
(0.367367 -0.457658 0)
(0.407149 -0.458027 0)
(0.449906 -0.460952 0)
(0.501849 -0.463588 0)
(0.562272 -0.47242 0)
(0.00843092 -0.506807 0)
(0.0250917 -0.50668 0)
(0.0419114 -0.505081 0)
(0.0583445 -0.504757 0)
(0.074975 -0.501723 0)
(0.0914822 -0.50094 0)
(0.107913 -0.497603 0)
(0.124819 -0.495868 0)
(0.141429 -0.493077 0)
(0.159026 -0.490757 0)
(0.176286 -0.488452 0)
(0.19518 -0.486447 0)
(0.213544 -0.484467 0)
(0.235126 -0.483446 0)
(0.255306 -0.482774 0)
(0.281132 -0.483071 0)
(0.304377 -0.484435 0)
(0.336376 -0.486662 0)
(0.364995 -0.491246 0)
(0.405498 -0.496588 0)
(0.443508 -0.505942 0)
(0.495955 -0.517451 0)
(0.549874 -0.535161 0)
(0.00845584 -0.524651 0)
(0.0258098 -0.524482 0)
(0.0426447 -0.522771 0)
(0.0597593 -0.522297 0)
(0.0762731 -0.519333 0)
(0.0934558 -0.518376 0)
(0.109508 -0.515264 0)
(0.127005 -0.513522 0)
(0.14287 -0.511201 0)
(0.161166 -0.509062 0)
(0.177148 -0.507584 0)
(0.196862 -0.505942 0)
(0.213131 -0.505596 0)
(0.235624 -0.505157 0)
(0.252704 -0.506857 0)
(0.2795 -0.5083 0)
(0.298753 -0.513 0)
(0.331923 -0.517681 0)
(0.355749 -0.526537 0)
(0.397385 -0.536506 0)
(0.429748 -0.551289 0)
(0.482068 -0.570232 0)
(0.528001 -0.594946 0)
(0.00865525 -0.54122 0)
(0.0265973 -0.541023 0)
(0.0438415 -0.539191 0)
(0.0615576 -0.538539 0)
(0.0783987 -0.535608 0)
(0.0962185 -0.534339 0)
(0.112357 -0.531375 0)
(0.130399 -0.529417 0)
(0.145886 -0.527497 0)
(0.164511 -0.525257 0)
(0.179421 -0.524435 0)
(0.199232 -0.52269 0)
(0.213561 -0.523531 0)
(0.235549 -0.523326 0)
(0.250012 -0.526943 0)
(0.275357 -0.529486 0)
(0.29174 -0.537108 0)
(0.321839 -0.544109 0)
(0.342873 -0.556868 0)
(0.379573 -0.571163 0)
(0.409198 -0.590648 0)
(0.45491 -0.616444 0)
(0.497355 -0.647112 0)
(0.0087065 -0.559736 0)
(0.0271535 -0.559504 0)
(0.0445118 -0.55756 0)
(0.0627894 -0.556661 0)
(0.079743 -0.55381 0)
(0.0982363 -0.552103 0)
(0.114439 -0.549236 0)
(0.13319 -0.546781 0)
(0.148552 -0.545071 0)
(0.167676 -0.542298 0)
(0.181908 -0.542023 0)
(0.201854 -0.539778 0)
(0.214838 -0.541588 0)
(0.236217 -0.54134 0)
(0.248544 -0.546287 0)
(0.271694 -0.549852 0)
(0.285262 -0.559042 0)
(0.310982 -0.568813 0)
(0.329098 -0.583773 0)
(0.359387 -0.603106 0)
(0.385901 -0.626084 0)
(0.423932 -0.659061 0)
(0.461484 -0.694833 0)
(0.00868475 -0.57724 0)
(0.026992 -0.577002 0)
(0.0442873 -0.574999 0)
(0.0626771 -0.573939 0)
(0.0796559 -0.57125 0)
(0.0984418 -0.56921 0)
(0.1148 -0.566544 0)
(0.133853 -0.563721 0)
(0.149248 -0.562208 0)
(0.168532 -0.558831 0)
(0.182596 -0.558826 0)
(0.202304 -0.555877 0)
(0.214758 -0.558064 0)
(0.234932 -0.557354 0)
(0.24597 -0.562505 0)
(0.266098 -0.566632 0)
(0.27729 -0.576362 0)
(0.298471 -0.588533 0)
(0.311968 -0.605085 0)
(0.336823 -0.628771 0)
(0.354483 -0.654793 0)
(0.386819 -0.693116 0)
(0.410098 -0.732829 0)
(0.00858575 -0.595272 0)
(0.026338 -0.594975 0)
(0.043339 -0.593101 0)
(0.0615327 -0.591872 0)
(0.0783044 -0.589418 0)
(0.0970964 -0.58706 0)
(0.113551 -0.584462 0)
(0.132751 -0.581018 0)
(0.148298 -0.579521 0)
(0.167524 -0.575423 0)
(0.181731 -0.575503 0)
(0.200908 -0.571737 0)
(0.213361 -0.573834 0)
(0.23213 -0.572413 0)
(0.24265 -0.576942 0)
(0.260234 -0.581153 0)
(0.269322 -0.590744 0)
(0.286522 -0.603669 0)
(0.293776 -0.62126 0)
(0.31326 -0.646098 0)
(0.319239 -0.674999 0)
(0.346397 -0.715576 0)
(0.352212 -0.759267 0)
(0.00831801 -0.612319 0)
(0.0249832 -0.611928 0)
(0.0413414 -0.610364 0)
(0.0587487 -0.609083 0)
(0.0749675 -0.607007 0)
(0.093185 -0.604655 0)
(0.109516 -0.60241 0)
(0.128579 -0.598692 0)
(0.144435 -0.597189 0)
(0.16344 -0.592527 0)
(0.178167 -0.592381 0)
(0.196803 -0.587828 0)
(0.209808 -0.589372 0)
(0.227435 -0.587059 0)
(0.23798 -0.590548 0)
(0.253509 -0.593859 0)
(0.26044 -0.602365 0)
(0.27379 -0.61376 0)
(0.275058 -0.631228 0)
(0.28845 -0.655341 0)
(0.284316 -0.686937 0)
(0.302914 -0.727654 0)
(0.293896 -0.776227 0)
(0.00762438 -0.62845 0)
(0.022714 -0.627887 0)
(0.0376893 -0.626739 0)
(0.0536454 -0.625365 0)
(0.0685938 -0.62371 0)
(0.0855888 -0.621457 0)
(0.100951 -0.619677 0)
(0.119161 -0.615773 0)
(0.134862 -0.614146 0)
(0.153588 -0.608992 0)
(0.168797 -0.608545 0)
(0.18711 -0.603251 0)
(0.200941 -0.604018 0)
(0.218 -0.600533 0)
(0.228872 -0.602386 0)
(0.243012 -0.603689 0)
(0.248638 -0.610135 0)
(0.259132 -0.618584 0)
(0.256691 -0.634677 0)
(0.263595 -0.655985 0)
(0.25173 -0.687759 0)
(0.259586 -0.726283 0)
(0.239434 -0.777838 0)
(0.00676561 -0.642783 0)
(0.0205457 -0.642138 0)
(0.0339522 -0.641433 0)
(0.0484245 -0.640145 0)
(0.0619929 -0.639112 0)
(0.0775132 -0.637204 0)
(0.0916324 -0.63617 0)
(0.108433 -0.63285 0)
(0.123502 -0.631805 0)
(0.141571 -0.626776 0)
(0.157184 -0.626056 0)
(0.175352 -0.620361 0)
(0.189885 -0.620317 0)
(0.20655 -0.615479 0)
(0.217795 -0.61545 0)
(0.231404 -0.614239 0)
(0.236222 -0.618118 0)
(0.244223 -0.622611 0)
(0.239297 -0.634936 0)
(0.240353 -0.651481 0)
(0.222739 -0.681677 0)
(0.219634 -0.716949 0)
(0.191137 -0.769513 0)
(0.00556476 -0.655658 0)
(0.0175093 -0.654984 0)
(0.0286434 -0.654509 0)
(0.0410744 -0.653305 0)
(0.0525307 -0.652671 0)
(0.0659085 -0.650984 0)
(0.0780285 -0.650428 0)
(0.0926723 -0.647522 0)
(0.105971 -0.647055 0)
(0.122197 -0.642565 0)
(0.136918 -0.641997 0)
(0.154509 -0.635882 0)
(0.169346 -0.634758 0)
(0.186449 -0.628434 0)
(0.198879 -0.626595 0)
(0.213559 -0.62219 0)
(0.219324 -0.622053 0)
(0.226643 -0.621858 0)
(0.221604 -0.629531 0)
(0.218839 -0.639837 0)
(0.197388 -0.665245 0)
(0.18515 -0.695453 0)
(0.149909 -0.744598 0)
(0.00454667 -0.66592 0)
(0.0147299 -0.665297 0)
(0.0239039 -0.665069 0)
(0.0344737 -0.664129 0)
(0.0440568 -0.664033 0)
(0.0554766 -0.662837 0)
(0.0657938 -0.663044 0)
(0.0784638 -0.660999 0)
(0.0901587 -0.661463 0)
(0.104552 -0.658031 0)
(0.117897 -0.658505 0)
(0.133978 -0.653207 0)
(0.148203 -0.652327 0)
(0.164769 -0.64554 0)
(0.177228 -0.642502 0)
(0.191708 -0.635306 0)
(0.198 -0.630923 0)
(0.205295 -0.625584 0)
(0.200222 -0.626532 0)
(0.195195 -0.628106 0)
(0.171102 -0.646888 0)
(0.150304 -0.670607 0)
(0.107156 -0.71763 0)
(0.00350372 -0.67486 0)
(0.0116869 -0.674279 0)
(0.0187466 -0.674168 0)
(0.0271674 -0.673389 0)
(0.0345306 -0.673568 0)
(0.0436355 -0.672649 0)
(0.0516485 -0.673272 0)
(0.0619124 -0.671813 0)
(0.0712311 -0.672937 0)
(0.0830695 -0.670232 0)
(0.0941139 -0.671121 0)
(0.10761 -0.666143 0)
(0.120182 -0.665125 0)
(0.134884 -0.657459 0)
(0.14681 -0.652938 0)
(0.160812 -0.643009 0)
(0.168627 -0.634833 0)
(0.178197 -0.624146 0)
(0.175214 -0.618294 0)
(0.171364 -0.610837 0)
(0.147636 -0.618688 0)
(0.120672 -0.631791 0)
(0.0687799 -0.672511 0)
(0.00257126 -0.681106 0)
(0.0088119 -0.680552 0)
(0.0140469 -0.680551 0)
(0.0205087 -0.679946 0)
(0.0260399 -0.680515 0)
(0.0331491 -0.680027 0)
(0.0392854 -0.681352 0)
(0.0475038 -0.680718 0)
(0.0547565 -0.682674 0)
(0.0643752 -0.681154 0)
(0.0732507 -0.683123 0)
(0.0844732 -0.679645 0)
(0.0951427 -0.679666 0)
(0.107756 -0.672677 0)
(0.11884 -0.668434 0)
(0.131497 -0.657751 0)
(0.138786 -0.648155 0)
(0.148096 -0.632862 0)
(0.145227 -0.619326 0)
(0.142951 -0.601241 0)
(0.120641 -0.595395 0)
(0.0941643 -0.592546 0)
(0.0369768 -0.623088 0)
(0.00179121 -0.686183 0)
(0.00630048 -0.685701 0)
(0.00987494 -0.685785 0)
(0.0144431 -0.685321 0)
(0.0181353 -0.686102 0)
(0.0231453 -0.685829 0)
(0.0272229 -0.687484 0)
(0.0330445 -0.68722 0)
(0.0379295 -0.68961 0)
(0.0449084 -0.688661 0)
(0.0511067 -0.690936 0)
(0.0594374 -0.68798 0)
(0.0671551 -0.688015 0)
(0.0768982 -0.681122 0)
(0.0855716 -0.676125 0)
(0.0962697 -0.662951 0)
(0.103058 -0.650692 0)
(0.112232 -0.630589 0)
(0.111102 -0.612085 0)
(0.111684 -0.586129 0)
(0.0936741 -0.568306 0)
(0.0711786 -0.547806 0)
(0.017712 -0.558643 0)
(0.00110696 -0.689163 0)
(0.00401131 -0.688617 0)
(0.00619386 -0.688668 0)
(0.00914195 -0.688217 0)
(0.0113727 -0.689206 0)
(0.0146352 -0.689165 0)
(0.0170881 -0.691254 0)
(0.0209766 -0.691532 0)
(0.0240188 -0.69456 0)
(0.0288539 -0.694526 0)
(0.0328825 -0.6977 0)
(0.0388483 -0.696006 0)
(0.0440419 -0.69719 0)
(0.0512429 -0.691551 0)
(0.0571856 -0.687869 0)
(0.0655536 -0.675839 0)
(0.070624 -0.664108 0)
(0.0783817 -0.641614 0)
(0.0777123 -0.618689 0)
(0.0786782 -0.584693 0)
(0.063042 -0.554636 0)
(0.0448349 -0.517535 0)
(-0.00129197 -0.506707 0)
(0.000619609 -0.691216 0)
(0.00235345 -0.690706 0)
(0.00342898 -0.690806 0)
(0.00507556 -0.690402 0)
(0.0060624 -0.691451 0)
(0.00780488 -0.691435 0)
(0.00882689 -0.693639 0)
(0.0109266 -0.694033 0)
(0.0122224 -0.697245 0)
(0.0149113 -0.697395 0)
(0.0166736 -0.700607 0)
(0.0201006 -0.698994 0)
(0.0224107 -0.699981 0)
(0.0267706 -0.694111 0)
(0.029416 -0.689865 0)
(0.0348106 -0.67623 0)
(0.0366534 -0.662781 0)
(0.0420554 -0.637486 0)
(0.0405129 -0.611292 0)
(0.0418981 -0.571007 0)
(0.029095 -0.532764 0)
(0.0145473 -0.482512 0)
(-0.0244939 -0.448967 0)
(0.000234732 -0.69214 0)
(0.00109858 -0.691444 0)
(0.00143099 -0.691403 0)
(0.00219408 -0.690898 0)
(0.00238346 -0.691964 0)
(0.00315488 -0.692017 0)
(0.00325768 -0.694423 0)
(0.0041771 -0.695071 0)
(0.00428886 -0.698618 0)
(0.00548297 -0.699202 0)
(0.00566538 -0.702997 0)
(0.00728405 -0.702078 0)
(0.00751224 -0.704006 0)
(0.00972934 -0.699027 0)
(0.00972193 -0.696101 0)
(0.0125996 -0.683703 0)
(0.0117726 -0.671572 0)
(0.0147216 -0.64629 0)
(0.0109787 -0.618847 0)
(0.0105755 -0.574407 0)
(-0.00232587 -0.527754 0)
(-0.0170299 -0.465447 0)
(-0.0529555 -0.410916 0)
(-2.5374e-05 -0.692386 0)
(0.000326374 -0.69174 0)
(0.000214161 -0.691713 0)
(0.000433312 -0.691172 0)
(7.04907e-05 -0.692185 0)
(0.000146984 -0.692102 0)
(-0.000470854 -0.694385 0)
(-0.000495951 -0.694829 0)
(-0.0014024 -0.698206 0)
(-0.00148665 -0.698497 0)
(-0.00272109 -0.701971 0)
(-0.00279868 -0.700515 0)
(-0.00448667 -0.701867 0)
(-0.0044754 -0.695933 0)
(-0.00694224 -0.692014 0)
(-0.00689465 -0.677815 0)
(-0.0107289 -0.663965 0)
(-0.0110141 -0.636081 0)
(-0.0171337 -0.605809 0)
(-0.0192643 -0.556718 0)
(-0.0310167 -0.503075 0)
(-0.0433212 -0.430107 0)
(-0.0750582 -0.357684 0)
(-0.000104839 -0.692574 0)
(4.08638e-06 -0.691825 0)
(-0.000363298 -0.691653 0)
(-0.000477286 -0.690928 0)
(-0.00118217 -0.691843 0)
(-0.00154005 -0.691694 0)
(-0.00260338 -0.693976 0)
(-0.00320705 -0.694418 0)
(-0.00471231 -0.697864 0)
(-0.00559964 -0.698248 0)
(-0.00765973 -0.701979 0)
(-0.00885896 -0.700793 0)
(-0.0116464 -0.7027 0)
(-0.0131141 -0.697204 0)
(-0.0169131 -0.694158 0)
(-0.0186928 -0.680752 0)
(-0.023791 -0.66808 0)
(-0.0260118 -0.641026 0)
(-0.0329868 -0.61151 0)
(-0.0366355 -0.562159 0)
(-0.0470963 -0.505125 0)
(-0.0558869 -0.423778 0)
(-0.0804604 -0.339528 0)
(-0.000288796 -0.691963 0)
(-0.00052545 -0.691158 0)
(-0.00120832 -0.690883 0)
(-0.00160962 -0.689999 0)
(-0.00256031 -0.690726 0)
(-0.00323654 -0.690283 0)
(-0.00462878 -0.692256 0)
(-0.00570629 -0.692264 0)
(-0.00771281 -0.695263 0)
(-0.00930586 -0.695015 0)
(-0.0120937 -0.698041 0)
(-0.0142873 -0.695889 0)
(-0.0180822 -0.696775 0)