/*--------------------------------*- C++ -*----------------------------------*\
| =========                 |                                                 |
| \\      /  F ield         | OpenFOAM: The Open Source CFD Toolbox           |
|  \\    /   O peration     | Version:  2012                                  |
|   \\  /    A nd           | Website:  www.openfoam.com                      |
|    \\/     M anipulation  |                                                 |
\*---------------------------------------------------------------------------*/
FoamFile
{
    version     2.0;
    format      ascii;
    class       volVectorField;
    location    "0.4";
    object      Uc;
}
// * * * * * * * * * * * * * * * * * * * * * * * * * * * * * * * * * * * * * //

dimensions      [0 1 -1 0 0 0 0];


internalField   nonuniform List<vector> 
2268
(
(0.0192424 -0.00909381 0)
(0.057763 -0.00911071 0)
(0.0953128 -0.00863503 0)
(0.131944 -0.00867664 0)
(0.168811 -0.00874611 0)
(0.205162 -0.00843344 0)
(0.238806 -0.00746634 0)
(0.270414 -0.00747144 0)
(0.300242 -0.00662489 0)
(0.326187 -0.00563651 0)
(0.34962 -0.00543762 0)
(0.370211 -0.0042937 0)
(0.385039 -0.00271356 0)
(0.393347 -0.00121266 0)
(0.395538 0.000176959 0)
(0.390978 0.0019784 0)
(0.378365 0.00398229 0)
(0.356321 0.00643592 0)
(0.323077 0.00927464 0)
(0.27654 0.0127189 0)
(0.216787 0.0155198 0)
(0.144058 0.0188519 0)
(0.0520837 0.0246156 0)
(0.0192036 -0.0272631 0)
(0.0577397 -0.0273578 0)
(0.0954509 -0.0259556 0)
(0.132211 -0.0260403 0)
(0.169079 -0.0262287 0)
(0.20541 -0.0253004 0)
(0.239156 -0.022447 0)
(0.270963 -0.0224603 0)
(0.300908 -0.019884 0)
(0.326989 -0.0169648 0)
(0.350751 -0.0164128 0)
(0.371188 -0.0127083 0)
(0.385857 -0.00823845 0)
(0.395104 -0.00398403 0)
(0.398124 0.000485167 0)
(0.393411 0.00605305 0)
(0.379963 0.012224 0)
(0.356638 0.0196359 0)
(0.321882 0.0282108 0)
(0.273007 0.038874 0)
(0.208386 0.0481432 0)
(0.127827 0.058672 0)
(0.0417294 0.0689532 0)
(0.0191822 -0.0454039 0)
(0.0578099 -0.045684 0)
(0.0957896 -0.0434004 0)
(0.132743 -0.0434318 0)
(0.16961 -0.043684 0)
(0.205901 -0.0421656 0)
(0.239853 -0.037575 0)
(0.27205 -0.0375803 0)
(0.302214 -0.0331704 0)
(0.328674 -0.0285096 0)
(0.352768 -0.0274837 0)
(0.373012 -0.0208634 0)
(0.387978 -0.014088 0)
(0.398408 -0.0074339 0)
(0.402549 0.000550858 0)
(0.398593 0.0100846 0)
(0.386303 0.0203563 0)
(0.365526 0.0323458 0)
(0.334927 0.0463874 0)
(0.29113 0.0644935 0)
(0.231261 0.0813571 0)
(0.150681 0.101612 0)
(0.0520948 0.113295 0)
(0.0191934 -0.0635399 0)
(0.0579774 -0.0641322 0)
(0.0962644 -0.0609953 0)
(0.13344 -0.0608696 0)
(0.170333 -0.0611048 0)
(0.206576 -0.0590232 0)
(0.240802 -0.0529378 0)
(0.273519 -0.0528961 0)
(0.304007 -0.0465176 0)
(0.331032 -0.0404397 0)
(0.355607 -0.0385535 0)
(0.375953 -0.0289763 0)
(0.391538 -0.020413 0)
(0.402594 -0.0112633 0)
(0.407088 0.000299717 0)
(0.403459 0.0139206 0)
(0.390818 0.0283028 0)
(0.368505 0.0447632 0)
(0.335717 0.0639264 0)
(0.289996 0.0892605 0)
(0.22911 0.113658 0)
(0.148341 0.145563 0)
(0.0509163 0.161978 0)
(0.0192402 -0.0817033 0)
(0.0582504 -0.0827337 0)
(0.0968882 -0.0787478 0)
(0.134359 -0.0783948 0)
(0.171402 -0.0785211 0)
(0.207694 -0.0758858 0)
(0.242296 -0.0686025 0)
(0.27558 -0.0684236 0)
(0.306398 -0.0599626 0)
(0.33414 -0.0528772 0)
(0.359375 -0.0496556 0)
(0.380019 -0.0372457 0)
(0.396308 -0.0272068 0)
(0.408156 -0.0152937 0)
(0.413704 -0.000415821 0)
(0.412073 0.0171226 0)
(0.402416 0.0356386 0)
(0.383952 0.0566986 0)
(0.355734 0.0808221 0)
(0.314885 0.113277 0)
(0.258013 0.145294 0)
(0.177168 0.190305 0)
(0.0645021 0.216525 0)
(0.0193232 -0.0999281 0)
(0.058579 -0.101497 0)
(0.0975542 -0.096664 0)
(0.135367 -0.0960572 0)
(0.17265 -0.0959849 0)
(0.209091 -0.0927947 0)
(0.244149 -0.0846144 0)
(0.277959 -0.08412 0)
(0.309123 -0.073558 0)
(0.337774 -0.0659325 0)
(0.36397 -0.0609062 0)
(0.385077 -0.0457266 0)
(0.402277 -0.034552 0)
(0.415135 -0.0196247 0)
(0.421257 -0.00160004 0)
(0.420198 0.0195788 0)
(0.411162 0.0420162 0)
(0.392652 0.0677951 0)
(0.363291 0.0969371 0)
(0.32044 0.136718 0)
(0.261959 0.176369 0)
(0.178766 0.236753 0)
(0.0643229 0.277412 0)
(0.0194893 -0.118271 0)
(0.0589596 -0.12036 0)
(0.0982588 -0.114793 0)
(0.136606 -0.113921 0)
(0.174291 -0.113551 0)
(0.211037 -0.109816 0)
(0.246676 -0.101004 0)
(0.281014 -0.0999364 0)
(0.312645 -0.0874176 0)
(0.342431 -0.0796901 0)
(0.369534 -0.0723368 0)
(0.391397 -0.0546036 0)
(0.409587 -0.0423996 0)
(0.423073 -0.0242274 0)
(0.430319 -0.00331439 0)
(0.431639 0.0211701 0)
(0.42595 0.0473833 0)
(0.411781 0.0778721 0)
(0.388337 0.111815 0)
(0.352489 0.159033 0)
(0.30133 0.20587 0)
(0.221397 0.284345 0)
(0.0854072 0.348179 0)
(0.0196959 -0.136789 0)
(0.0593182 -0.13922 0)
(0.0989008 -0.133212 0)
(0.137885 -0.132048 0)
(0.176024 -0.131257 0)
(0.213123 -0.127009 0)
(0.24936 -0.11778 0)
(0.284258 -0.115881 0)
(0.316624 -0.101717 0)
(0.347627 -0.0941192 0)
(0.37558 -0.0839264 0)
(0.398608 -0.0642294 0)
(0.418458 -0.0507512 0)
(0.433105 -0.0291711 0)
(0.441615 -0.00581669 0)
(0.444183 0.0218353 0)
(0.439648 0.0515499 0)
(0.426401 0.086662 0)
(0.403836 0.124769 0)
(0.36828 0.179825 0)
(0.316425 0.233763 0)
(0.234989 0.332714 0)
(0.0916118 0.431843 0)
(-0.0115641 0.00997551 0)
(-0.0372079 0.0110454 0)
(-0.064821 0.0108138 0)
(-0.097517 0.0132081 0)
(-0.142197 0.015912 0)
(-0.198419 0.0181186 0)
(-0.258034 0.0173556 0)
(-0.322392 0.0201381 0)
(-0.397766 0.022042 0)
(-0.487765 0.0263604 0)
(-0.594383 0.0291122 0)
(-0.733933 0.0403697 0)
(-0.917133 0.0476807 0)
(-1.15152 0.0621447 0)
(-1.41873 0.0616438 0)
(-1.69499 0.0659945 0)
(-1.85766 0.0133254 0)
(-1.49026 -0.159478 0)
(-0.551716 -0.229648 0)
(-0.014924 0.0313556 0)
(-0.0469242 0.0344106 0)
(-0.0762373 0.0318899 0)
(-0.101622 0.0370658 0)
(-0.139386 0.0473523 0)
(-0.196024 0.0549166 0)
(-0.25695 0.0520635 0)
(-0.321648 0.0605614 0)
(-0.396507 0.06576 0)
(-0.484219 0.0784742 0)
(-0.587953 0.0867167 0)
(-0.725041 0.120682 0)
(-0.905865 0.142459 0)
(-1.14284 0.188118 0)
(-1.43146 0.192354 0)
(-1.7547 0.210539 0)
(-1.99706 0.061285 0)
(-1.73931 -0.453104 0)
(-0.705991 -0.754506 0)
(-0.020259 0.0564338 0)
(-0.0521835 0.0567486 0)
(-0.0719678 0.0506626 0)
(-0.0963014 0.0596692 0)
(-0.138407 0.0789509 0)
(-0.195441 0.091901 0)
(-0.255417 0.0867386 0)
(-0.318173 0.100335 0)
(-0.390032 0.108632 0)
(-0.475534 0.129521 0)
(-0.577809 0.143541 0)
(-0.712304 0.199624 0)
(-0.887554 0.235224 0)
(-1.12857 0.318921 0)
(-1.4488 0.340786 0)
(-1.82318 0.379077 0)
(-2.03556 0.106362 0)
(-1.76356 -0.703204 0)
(-0.739439 -1.35906 0)
(-0.0215494 0.0843297 0)
(-0.0524241 0.0757891 0)
(-0.069216 0.0674057 0)
(-0.0891447 0.0819805 0)
(-0.12785 0.111241 0)
(-0.187459 0.129456 0)
(-0.250161 0.121598 0)
(-0.314447 0.139749 0)
(-0.384687 0.149899 0)
(-0.46289 0.178128 0)
(-0.555053 0.197882 0)
(-0.67847 0.275233 0)
(-0.842853 0.32433 0)
(-1.0783 0.452733 0)
(-1.40524 0.502503 0)
(-1.77845 0.555541 0)
(-1.8808 0.0839902 0)
(-1.46089 -0.954694 0)
(-0.56507 -1.90382 0)
(-0.0217589 0.112863 0)
(-0.0544752 0.0945275 0)
(-0.0686869 0.0820791 0)
(-0.0852187 0.103042 0)
(-0.126227 0.144314 0)
(-0.187104 0.167862 0)
(-0.24909 0.156461 0)
(-0.309766 0.178273 0)
(-0.37509 0.189273 0)
(-0.449598 0.223949 0)
(-0.536668 0.24854 0)
(-0.651402 0.34612 0)
(-0.801201 0.407331 0)
(-1.01884 0.582706 0)
(-1.31438 0.657547 0)
(-1.62867 0.713122 0)
(-1.62146 -0.0128379 0)
(-1.12922 -1.22545 0)
(-0.399738 -2.30426 0)
(-0.0302606 0.1451 0)
(-0.065353 0.111353 0)
(-0.066957 0.092203 0)
(-0.0698204 0.121392 0)
(-0.104339 0.178315 0)
(-0.171496 0.208549 0)
(-0.241037 0.191949 0)
(-0.304714 0.215911 0)
(-0.368193 0.226656 0)
(-0.43383 0.266415 0)
(-0.505737 0.293937 0)
(-0.60057 0.410107 0)
(-0.729571 0.482182 0)
(-0.92139 0.702272 0)
(-1.16381 0.787037 0)
(-1.39436 0.835618 0)
(-1.31871 -0.150263 0)
(-0.855836 -1.47403 0)
(-0.288758 -2.5871 0)
(-0.0299621 0.180825 0)
(-0.0670982 0.126568 0)
(-0.0655884 0.0972481 0)
(-0.0652989 0.137664 0)
(-0.106965 0.214671 0)
(-0.176532 0.250575 0)
(-0.241821 0.227502 0)
(-0.30113 0.252902 0)
(-0.358302 0.261218 0)
(-0.41393 0.30367 0)
(-0.473427 0.332814 0)
(-0.555175 0.466582 0)
(-0.663982 0.547107 0)
(-0.811082 0.801759 0)
(-0.975996 0.881042 0)
(-1.11192 0.917744 0)
(-0.984646 -0.298399 0)
(-0.575485 -1.67659 0)
(-0.176958 -2.77517 0)
(-0.0435491 0.221964 0)
(-0.0930158 0.142232 0)
(-0.0720912 0.0922476 0)
(-0.0393473 0.148834 0)
(-0.0682581 0.253743 0)
(-0.150258 0.296197 0)
(-0.230406 0.263968 0)
(-0.296929 0.290187 0)
(-0.356719 0.293913 0)
(-0.404953 0.335387 0)
(-0.446406 0.364273 0)
(-0.503491 0.514416 0)
(-0.581121 0.59882 0)
(-0.674266 0.87249 0)
(-0.758399 0.936505 0)
(-0.788737 0.953289 0)
(-0.620862 -0.439201 0)
(-0.315303 -1.81957 0)
(-0.0884891 -2.87802 0)
(0.0200869 -0.166289 0)
(0.0602165 -0.168784 0)
(0.10039 -0.162738 0)
(0.140359 -0.161123 0)
(0.179403 -0.159453 0)
(0.217362 -0.154502 0)
(0.254705 -0.14495 0)
(0.290755 -0.14144 0)
(0.324763 -0.125639 0)
(0.35744 -0.117697 0)
(0.386183 -0.102452 0)
(0.411578 -0.0821141 0)
(0.434059 -0.0648463 0)
(0.450089 -0.0381118 0)
(0.460333 -0.011195 0)
(0.465925 0.0203787 0)
(0.46631 0.0547637 0)
(0.462916 0.0931198 0)
(0.456286 0.135641 0)
(0.44961 0.192467 0)
(0.444256 0.251011 0)
(0.446741 0.351455 0)
(0.452806 0.474778 0)
(0.0206567 -0.207245 0)
(0.0615573 -0.209281 0)
(0.102513 -0.203793 0)
(0.143754 -0.201701 0)
(0.18408 -0.19866 0)
(0.223316 -0.192893 0)
(0.262147 -0.183131 0)
(0.2999 -0.177447 0)
(0.336323 -0.160432 0)
(0.371143 -0.150753 0)
(0.402655 -0.129964 0)
(0.432533 -0.110163 0)
(0.458638 -0.0856379 0)
(0.479213 -0.0541158 0)
(0.495101 -0.0214586 0)
(0.504132 0.0159505 0)
(0.505437 0.0575022 0)
(0.499237 0.100025 0)
(0.487395 0.147305 0)
(0.476499 0.198467 0)
(0.470827 0.256096 0)
(0.480832 0.333814 0)
(0.521876 0.445079 0)
(0.0212163 -0.249408 0)
(0.0629602 -0.250339 0)
(0.104802 -0.246113 0)
(0.147351 -0.243759 0)
(0.189108 -0.239268 0)
(0.229929 -0.232917 0)
(0.270571 -0.223152 0)
(0.310417 -0.215587 0)
(0.349146 -0.197986 0)
(0.386411 -0.185794 0)
(0.421795 -0.162284 0)
(0.454839 -0.141182 0)
(0.482699 -0.10892 0)
(0.507129 -0.0760925 0)
(0.525865 -0.0342777 0)
(0.536146 0.00938708 0)
(0.542951 0.0601093 0)
(0.545929 0.104834 0)
(0.546072 0.154255 0)
(0.548966 0.199561 0)
(0.55275 0.256901 0)
(0.563611 0.312035 0)
(0.595027 0.394025 0)
(0.0217809 -0.292886 0)
(0.0642343 -0.292004 0)
(0.106704 -0.289695 0)
(0.150386 -0.287336 0)
(0.193395 -0.281354 0)
(0.235531 -0.274649 0)
(0.277542 -0.264904 0)
(0.318633 -0.255556 0)
(0.358612 -0.237465 0)
(0.397403 -0.223055 0)
(0.434569 -0.198212 0)
(0.469292 -0.173614 0)
(0.503099 -0.138684 0)
(0.534991 -0.103133 0)
(0.560572 -0.0519664 0)
(0.583007 -0.00594085 0)
(0.594946 0.0605934 0)
(0.591274 0.108944 0)
(0.58238 0.158779 0)
(0.580831 0.20925 0)
(0.580584 0.259243 0)
(0.583773 0.29557 0)
(0.609474 0.353077 0)
(0.0107911 -0.325752 0)
(0.032155 -0.323527 0)
(0.0535822 -0.322628 0)
(0.0757497 -0.320803 0)
(0.0977948 -0.313458 0)
(0.118962 -0.306323 0)
(0.139049 -0.295767 0)
(0.157591 -0.284713 0)
(0.174679 -0.265721 0)
(0.192817 -0.252043 0)
(0.213752 -0.227634 0)
(0.240863 -0.206359 0)
(0.272735 -0.17197 0)
(0.310247 -0.139637 0)
(0.344708 -0.075856 0)
(0.381649 -0.0417319 0)
(0.45606 0.00973177 0)
(0.531909 0.0876546 0)
(0.568952 0.15246 0)
(0.586714 0.215428 0)
(0.599819 0.255791 0)
(0.612351 0.28312 0)
(0.632406 0.336014 0)
(0.00290103 -0.339392 0)
(0.00944325 -0.337692 0)
(0.0155139 -0.335857 0)
(0.0205951 -0.334715 0)
(0.025739 -0.326624 0)
(0.0299773 -0.31844 0)
(0.0329184 -0.30654 0)
(0.0352775 -0.294687 0)
(0.0390651 -0.276464 0)
(0.047822 -0.268062 0)
(0.0664853 -0.251142 0)
(0.0969139 -0.240408 0)
(0.136604 -0.209566 0)
(0.1842 -0.187296 0)
(0.240683 -0.11931 0)
(0.304859 -0.0996064 0)
(0.378682 -0.0809 0)
(0.45886 0.0223134 0)
(0.520925 0.119309 0)
(0.551805 0.200799 0)
(0.570347 0.239673 0)
(0.596551 0.261458 0)
(0.627285 0.323744 0)
(0.00194754 -0.344139 0)
(0.00621348 -0.343556 0)
(0.00990292 -0.33955 0)
(0.0125218 -0.338507 0)
(0.0151575 -0.330395 0)
(0.0182328 -0.32176 0)
(0.0220521 -0.309752 0)
(0.0281378 -0.299698 0)
(0.0380777 -0.284983 0)
(0.0531046 -0.283177 0)
(0.0760841 -0.277607 0)
(0.107094 -0.275416 0)
(0.145368 -0.252636 0)
(0.188701 -0.235328 0)
(0.247041 -0.186392 0)
(0.315695 -0.165731 0)
(0.368806 -0.142046 0)
(0.423687 -0.0519522 0)
(0.498056 0.0568856 0)
(0.557811 0.172823 0)
(0.572253 0.235718 0)
(0.574788 0.238187 0)
(0.603142 0.289077 0)
(0.00289027 -0.348876 0)
(0.00831916 -0.348311 0)
(0.013458 -0.343415 0)
(0.0181406 -0.341727 0)
(0.0227306 -0.334182 0)
(0.0284009 -0.326505 0)
(0.0353447 -0.315564 0)
(0.044319 -0.308758 0)
(0.0555834 -0.296966 0)
(0.0676893 -0.298192 0)
(0.0805861 -0.298375 0)
(0.093356 -0.29837 0)
(0.10544 -0.280009 0)
(0.120853 -0.266708 0)
(0.143042 -0.235654 0)
(0.172595 -0.214871 0)
(0.215124 -0.188719 0)
(0.278522 -0.12384 0)
(0.371712 -0.0393113 0)
(0.497328 0.0830456 0)
(0.608002 0.200137 0)
(0.648331 0.231284 0)
(0.639426 0.277469 0)
(0.00285672 -0.354528 0)
(0.00817432 -0.353211 0)
(0.0138199 -0.349104 0)
(0.0199493 -0.346653 0)
(0.0264457 -0.340145 0)
(0.0343092 -0.333889 0)
(0.0434232 -0.32406 0)
(0.0537673 -0.319416 0)
(0.0651948 -0.30885 0)
(0.0758753 -0.308939 0)
(0.0851269 -0.309611 0)
(0.092619 -0.307215 0)
(0.100591 -0.291032 0)
(0.110419 -0.280759 0)
(0.123889 -0.257142 0)
(0.14142 -0.240397 0)
(0.157457 -0.22174 0)
(0.180796 -0.177674 0)
(0.229031 -0.127295 0)
(0.321025 -0.0473588 0)
(0.463433 0.0765111 0)
(0.602899 0.174565 0)
(0.675117 0.270964 0)
(0.00345877 -0.360751 0)
(0.0104114 -0.359072 0)
(0.0179658 -0.356261 0)
(0.0261761 -0.353657 0)
(0.0347832 -0.348068 0)
(0.0443499 -0.34323 0)
(0.0547845 -0.33411 0)
(0.0655953 -0.330368 0)
(0.0762004 -0.319778 0)
(0.0845785 -0.316897 0)
(0.0894093 -0.315531 0)
(0.0922242 -0.311372 0)
(0.0958153 -0.298208 0)
(0.101549 -0.288928 0)
(0.109754 -0.270457 0)
(0.119443 -0.254129 0)
(0.130468 -0.23489 0)
(0.145776 -0.20304 0)
(0.168012 -0.172424 0)
(0.20073 -0.127238 0)
(0.267004 -0.0530118 0)
(0.386305 0.044354 0)
(0.532452 0.182068 0)
(0.00426737 -0.368394 0)
(0.012959 -0.366907 0)
(0.0219174 -0.364776 0)
(0.03111 -0.362386 0)
(0.0405347 -0.357213 0)
(0.0505509 -0.353516 0)
(0.0613339 -0.344895 0)
(0.0724734 -0.341386 0)
(0.0841399 -0.330882 0)
(0.0949845 -0.324846 0)
(0.103377 -0.3206 0)
(0.109869 -0.315378 0)
(0.116719 -0.304409 0)
(0.12478 -0.296299 0)
(0.133915 -0.280214 0)
(0.1442 -0.264139 0)
(0.152744 -0.244232 0)
(0.160266 -0.216318 0)
(0.168715 -0.189651 0)
(0.180006 -0.153898 0)
(0.199316 -0.112017 0)
(0.236295 -0.0533568 0)
(0.314573 0.0545745 0)
(0.00474999 -0.377336 0)
(0.0143833 -0.376141 0)
(0.0243022 -0.374273 0)
(0.0344568 -0.372091 0)
(0.0448444 -0.367175 0)
(0.055734 -0.364317 0)
(0.0673523 -0.356358 0)
(0.0793904 -0.352964 0)
(0.0921152 -0.343561 0)
(0.105443 -0.3362 0)
(0.117966 -0.329998 0)
(0.129552 -0.323874 0)
(0.140921 -0.313944 0)
(0.152023 -0.305737 0)
(0.163177 -0.290873 0)
(0.174696 -0.275091 0)
(0.187144 -0.254065 0)
(0.20093 -0.227578 0)
(0.21591 -0.201605 0)
(0.23093 -0.168045 0)
(0.245065 -0.131129 0)
(0.26211 -0.0881786 0)
(0.292908 -0.0198641 0)
(0.00520674 -0.387224 0)
(0.015677 -0.38622 0)
(0.0262196 -0.38452 0)
(0.0369463 -0.38259 0)
(0.047983 -0.377967 0)
(0.0594253 -0.375726 0)
(0.0714767 -0.368491 0)
(0.0840695 -0.365336 0)
(0.097718 -0.357441 0)
(0.112621 -0.350434 0)
(0.127953 -0.343496 0)
(0.142838 -0.336711 0)
(0.157358 -0.32685 0)
(0.171883 -0.318305 0)
(0.186653 -0.30407 0)
(0.202263 -0.288862 0)
(0.218452 -0.26877 0)
(0.236246 -0.244297 0)
(0.256083 -0.219553 0)
(0.277125 -0.186006 0)
(0.30168 -0.151706 0)
(0.330125 -0.112964 0)
(0.365344 -0.0610625 0)
(0.00577978 -0.398149 0)
(0.017396 -0.397258 0)
(0.0290625 -0.395568 0)
(0.040905 -0.39399 0)
(0.0530611 -0.389639 0)
(0.0655583 -0.387874 0)
(0.0785055 -0.381225 0)
(0.0916576 -0.378231 0)
(0.105128 -0.371552 0)
(0.119206 -0.365197 0)
(0.133611 -0.358363 0)
(0.148272 -0.351275 0)
(0.163179 -0.34159 0)
(0.178097 -0.332878 0)
(0.193427 -0.319463 0)
(0.209731 -0.305252 0)
(0.227724 -0.286432 0)
(0.248467 -0.265056 0)
(0.27221 -0.242275 0)
(0.299716 -0.21175 0)
(0.332459 -0.183211 0)
(0.369785 -0.147214 0)
(0.412925 -0.105211 0)
(0.00607179 -0.409946 0)
(0.0182881 -0.409185 0)
(0.0307265 -0.407637 0)
(0.0434402 -0.406369 0)
(0.056455 -0.402325 0)
(0.0697912 -0.400917 0)
(0.0836241 -0.394859 0)
(0.0978409 -0.391862 0)
(0.112474 -0.385921 0)
(0.127735 -0.380067 0)
(0.143525 -0.373586 0)
(0.159737 -0.36682 0)
(0.176511 -0.357621 0)
(0.193939 -0.349085 0)
(0.212117 -0.336655 0)
(0.23169 -0.323833 0)
(0.253199 -0.307258 0)
(0.277377 -0.289077 0)
(0.304501 -0.269067 0)
(0.335037 -0.242975 0)
(0.369724 -0.219427 0)
(0.408253 -0.186897 0)
(0.452134 -0.152641 0)
(0.00644445 -0.422413 0)
(0.0194358 -0.421828 0)
(0.0325549 -0.420455 0)
(0.0458306 -0.419445 0)
(0.0592956 -0.415633 0)
(0.0728609 -0.414415 0)
(0.0866682 -0.408908 0)
(0.100694 -0.405963 0)
(0.114993 -0.400658 0)
(0.129805 -0.39531 0)
(0.145089 -0.389324 0)
(0.160881 -0.382993 0)
(0.177411 -0.374661 0)
(0.1949 -0.366872 0)
(0.213857 -0.355916 0)
(0.234842 -0.345055 0)
(0.258445 -0.331088 0)
(0.285331 -0.316276 0)
(0.315872 -0.299522 0)
(0.351145 -0.278352 0)
(0.391464 -0.259116 0)
(0.436483 -0.230852 0)
(0.487607 -0.203833 0)
(0.00696619 -0.435781 0)
(0.0209788 -0.435379 0)
(0.0350266 -0.433986 0)
(0.0491581 -0.433237 0)
(0.0635223 -0.429587 0)
(0.0780675 -0.428487 0)
(0.0929708 -0.423462 0)
(0.108254 -0.420634 0)
(0.123908 -0.415857 0)
(0.140098 -0.411031 0)
(0.156885 -0.405592 0)
(0.174371 -0.399923 0)
(0.192819 -0.392632 0)
(0.212483 -0.385983 0)
(0.233659 -0.376875 0)
(0.256741 -0.368114 0)
(0.28214 -0.356999 0)
(0.310377 -0.345481 0)
(0.341976 -0.332477 0)
(0.377846 -0.316597 0)
(0.418482 -0.301926 0)
(0.464622 -0.279345 0)
(0.518295 -0.260341 0)
(0.00706333 -0.449774 0)
(0.0212241 -0.449487 0)
(0.0353978 -0.448027 0)
(0.0496129 -0.44747 0)
(0.0639607 -0.443993 0)
(0.0784129 -0.443005 0)
(0.0931134 -0.438475 0)
(0.108155 -0.435872 0)
(0.123566 -0.431612 0)
(0.139542 -0.427373 0)
(0.156214 -0.422641 0)
(0.173723 -0.417803 0)
(0.19233 -0.411746 0)
(0.212262 -0.406413 0)
(0.233909 -0.399224 0)
(0.257705 -0.392616 0)
(0.284168 -0.38435 0)
(0.313906 -0.37612 0)
(0.347526 -0.367102 0)
(0.386024 -0.356421 0)
(0.430039 -0.346881 0)
(0.48084 -0.331513 0)
(0.540286 -0.32155 0)
(0.00751281 -0.46432 0)
(0.0225765 -0.464105 0)
(0.0376752 -0.46262 0)
(0.0528364 -0.462191 0)
(0.0681561 -0.458877 0)
(0.0836136 -0.457967 0)
(0.0993219 -0.453859 0)
(0.115364 -0.45151 0)
(0.131754 -0.447712 0)
(0.148645 -0.44408 0)
(0.166185 -0.440087 0)
(0.184499 -0.436126 0)
(0.203813 -0.431296 0)
(0.224329 -0.427271 0)
(0.246397 -0.422052 0)
(0.270464 -0.417636 0)
(0.297059 -0.412391 0)
(0.326787 -0.407577 0)
(0.360377 -0.402919 0)
(0.398728 -0.397559 0)
(0.442696 -0.393882 0)
(0.494055 -0.386892 0)
(0.554362 -0.386227 0)
(0.00773515 -0.479544 0)
(0.0232145 -0.479376 0)
(0.0386462 -0.47783 0)
(0.0540101 -0.477455 0)
(0.0693879 -0.474259 0)
(0.0847731 -0.473376 0)
(0.100274 -0.469607 0)
(0.116013 -0.467489 0)
(0.13205 -0.464107 0)
(0.148555 -0.461029 0)
(0.165693 -0.457767 0)
(0.183619 -0.454641 0)
(0.202617 -0.451053 0)
(0.222941 -0.448323 0)
(0.245023 -0.44513 0)
(0.269272 -0.442868 0)
(0.296177 -0.440674 0)
(0.326288 -0.439175 0)
(0.360182 -0.438879 0)
(0.398702 -0.438587 0)
(0.44273 -0.441015 0)
(0.494255 -0.442877 0)
(0.554511 -0.451122 0)
(0.00813022 -0.495391 0)
(0.0243811 -0.495223 0)
(0.040567 -0.493564 0)
(0.0566473 -0.493127 0)
(0.0727039 -0.489982 0)
(0.0887288 -0.489021 0)
(0.10481 -0.4855 0)
(0.121038 -0.483517 0)
(0.137491 -0.480524 0)
(0.154286 -0.477867 0)
(0.171576 -0.475316 0)
(0.189477 -0.47288 0)
(0.208338 -0.470638 0)
(0.228342 -0.46904 0)
(0.249875 -0.468014 0)
(0.27326 -0.467618 0)
(0.298972 -0.46856 0)
(0.327605 -0.470078 0)
(0.359725 -0.474065 0)
(0.396365 -0.478677 0)
(0.438354 -0.487107 0)
(0.48736 -0.49755 0)
(0.54438 -0.514037 0)
(0.00833102 -0.511841 0)
(0.0249755 -0.511645 0)
(0.0415437 -0.509871 0)
(0.0579705 -0.5093 0)
(0.0743392 -0.506205 0)
(0.09061 -0.505062 0)
(0.10685 -0.501748 0)
(0.123126 -0.499739 0)
(0.139562 -0.497155 0)
(0.156234 -0.494667 0)
(0.173299 -0.492835 0)
(0.190803 -0.490732 0)
(0.209082 -0.489897 0)
(0.22828 -0.488958 0)
(0.248766 -0.4901 0)
(0.270902 -0.491051 0)
(0.295183 -0.495135 0)
(0.322245 -0.499236 0)
(0.352571 -0.50742 0)
(0.387206 -0.516705 0)
(0.426646 -0.530661 0)
(0.472224 -0.548793 0)
(0.524652 -0.572526 0)
(0.00859255 -0.528759 0)
(0.0257633 -0.528531 0)
(0.0428638 -0.526641 0)
(0.0598058 -0.525883 0)
(0.0766782 -0.522845 0)
(0.0934019 -0.521396 0)
(0.110012 -0.51824 0)
(0.126519 -0.516002 0)
(0.143015 -0.513795 0)
(0.159523 -0.511176 0)
(0.176189 -0.510025 0)
(0.193023 -0.507847 0)
(0.210261 -0.50827 0)
(0.228103 -0.507598 0)
(0.246821 -0.510644 0)
(0.266896 -0.512708 0)
(0.288638 -0.519505 0)
(0.312784 -0.526099 0)
(0.339736 -0.537885 0)
(0.370555 -0.55178 0)
(0.40576 -0.570358 0)
(0.446512 -0.595606 0)
(0.493522 -0.625393 0)
(0.00875874 -0.54611 0)
(0.0262656 -0.545857 0)
(0.0437193 -0.543868 0)
(0.0610283 -0.542904 0)
(0.0782951 -0.539958 0)
(0.0954299 -0.538133 0)
(0.112447 -0.535119 0)
(0.129324 -0.532493 0)
(0.14609 -0.530548 0)
(0.162678 -0.527496 0)
(0.179193 -0.526861 0)
(0.195622 -0.524244 0)
(0.212098 -0.525556 0)
(0.228799 -0.524823 0)
(0.245774 -0.529082 0)
(0.263547 -0.532094 0)
(0.282262 -0.540561 0)
(0.302817 -0.549746 0)
(0.325635 -0.56403 0)
(0.351773 -0.582645 0)
(0.381919 -0.604935 0)
(0.41686 -0.636859 0)
(0.457229 -0.671711 0)
(0.00872697 -0.563601 0)
(0.026166 -0.563322 0)
(0.0436097 -0.561309 0)
(0.0609943 -0.560163 0)
(0.0784032 -0.55738 0)
(0.0957585 -0.555204 0)
(0.11303 -0.552336 0)
(0.130135 -0.549254 0)
(0.147061 -0.547472 0)
(0.163726 -0.543813 0)
(0.180166 -0.543482 0)
(0.196332 -0.540195 0)
(0.212209 -0.54193 0)
(0.227884 -0.540793 0)
(0.243182 -0.545348 0)
(0.258559 -0.548938 0)
(0.274218 -0.558055 0)
(0.290786 -0.569348 0)
(0.30882 -0.585265 0)
(0.328904 -0.607639 0)
(0.351854 -0.633075 0)
(0.378193 -0.670073 0)
(0.408412 -0.7092 0)
(0.00855231 -0.580888 0)
(0.0256185 -0.580555 0)
(0.0427549 -0.57867 0)
(0.059944 -0.577389 0)
(0.0772292 -0.574862 0)
(0.0945881 -0.572448 0)
(0.111974 -0.569759 0)
(0.129243 -0.566212 0)
(0.146294 -0.564493 0)
(0.163033 -0.560191 0)
(0.179423 -0.559923 0)
(0.195388 -0.555868 0)
(0.210806 -0.557526 0)
(0.225678 -0.55571 0)
(0.239754 -0.559761 0)
(0.253232 -0.563329 0)
(0.266226 -0.57226 0)
(0.278748 -0.584174 0)
(0.291335 -0.601004 0)
(0.304286 -0.624885 0)
(0.318764 -0.653226 0)
(0.335262 -0.692749 0)
(0.35461 -0.73611 0)
(0.00816003 -0.597609 0)
(0.024415 -0.597172 0)
(0.0407881 -0.59558 0)
(0.0573121 -0.59421 0)
(0.074007 -0.592039 0)
(0.0909371 -0.589578 0)
(0.108109 -0.587204 0)
(0.125383 -0.583325 0)
(0.142525 -0.581585 0)
(0.159388 -0.576706 0)
(0.175873 -0.576282 0)
(0.191863 -0.571455 0)
(0.20716 -0.572634 0)
(0.221631 -0.569916 0)
(0.234944 -0.5729 0)
(0.246887 -0.575554 0)
(0.257346 -0.583415 0)
(0.265933 -0.594037 0)
(0.27306 -0.610752 0)
(0.278963 -0.633878 0)
(0.284733 -0.664369 0)
(0.290738 -0.704003 0)
(0.298215 -0.751593 0)
(0.0074322 -0.613209 0)
(0.0222329 -0.612642 0)
(0.0371833 -0.611449 0)
(0.0523444 -0.610042 0)
(0.0677611 -0.608335 0)
(0.0835456 -0.606016 0)
(0.0997396 -0.604154 0)
(0.116333 -0.600265 0)
(0.133139 -0.598613 0)
(0.14997 -0.593387 0)
(0.16657 -0.592696 0)
(0.18275 -0.587214 0)
(0.198261 -0.587675 0)
(0.21276 -0.583825 0)
(0.22577 -0.585274 0)
(0.236796 -0.586087 0)
(0.245564 -0.592025 0)
(0.251489 -0.599826 0)
(0.254444 -0.614903 0)
(0.25426 -0.635278 0)
(0.251871 -0.666163 0)
(0.247806 -0.703948 0)
(0.243416 -0.754535 0)
(0.00668807 -0.627333 0)
(0.0200376 -0.626675 0)
(0.0335298 -0.625867 0)
(0.047237 -0.624503 0)
(0.0612485 -0.623315 0)
(0.0756653 -0.621252 0)
(0.0905411 -0.620005 0)
(0.105985 -0.616472 0)
(0.121983 -0.615233 0)
(0.138453 -0.610091 0)
(0.155077 -0.609238 0)
(0.171484 -0.603275 0)
(0.187234 -0.60288 0)
(0.201827 -0.597702 0)
(0.214815 -0.597365 0)
(0.225485 -0.595636 0)
(0.233117 -0.598789 0)
(0.236985 -0.602727 0)
(0.236633 -0.614435 0)
(0.231477 -0.63019 0)
(0.22203 -0.65916 0)
(0.208963 -0.693532 0)
(0.193254 -0.744544 0)
(0.00564105 -0.639661 0)
(0.0169285 -0.638982 0)
(0.0283391 -0.638462 0)
(0.0399537 -0.63723 0)
(0.0518867 -0.636535 0)
(0.0642282 -0.634797 0)
(0.0770528 -0.634171 0)
(0.0904996 -0.631212 0)
(0.104635 -0.630646 0)
(0.119539 -0.626076 0)
(0.135136 -0.625499 0)
(0.151129 -0.619439 0)
(0.167019 -0.618373 0)
(0.182223 -0.61201 0)
(0.196202 -0.610011 0)
(0.207957 -0.605374 0)
(0.216185 -0.604832 0)
(0.219929 -0.60417 0)
(0.218414 -0.610946 0)
(0.210367 -0.620232 0)
(0.195781 -0.644779 0)
(0.175506 -0.674212 0)
(0.151007 -0.723257 0)
(0.0047036 -0.649999 0)
(0.0141348 -0.64935 0)
(0.0236826 -0.649041 0)
(0.0334317 -0.648005 0)
(0.0434959 -0.64775 0)
(0.0539625 -0.646385 0)
(0.0649252 -0.646369 0)
(0.0765558 -0.644095 0)
(0.0889599 -0.644312 0)
(0.102225 -0.640595 0)
(0.116318 -0.640691 0)
(0.13108 -0.635027 0)
(0.146173 -0.633791 0)
(0.160981 -0.626619 0)
(0.17481 -0.623212 0)
(0.18662 -0.615713 0)
(0.195075 -0.611111 0)
(0.198941 -0.605386 0)
(0.196857 -0.605953 0)
(0.187015 -0.60708 0)
(0.168419 -0.624407 0)
(0.141229 -0.646699 0)
(0.107718 -0.692279 0)
(0.00369367 -0.658385 0)
(0.0110975 -0.657775 0)
(0.0185731 -0.657615 0)
(0.0261866 -0.656771 0)
(0.034047 -0.656889 0)
(0.0422471 -0.655896 0)
(0.0508991 -0.656459 0)
(0.0601777 -0.654906 0)
(0.0701746 -0.6559 0)
(0.0810125 -0.653115 0)
(0.0926919 -0.653957 0)
(0.105191 -0.64904 0)
(0.118364 -0.648065 0)
(0.13171 -0.640516 0)
(0.144706 -0.636148 0)
(0.156541 -0.62641 0)
(0.166223 -0.618509 0)
(0.17214 -0.607681 0)
(0.171984 -0.60126 0)
(0.163348 -0.59305 0)
(0.143705 -0.599844 0)
(0.111337 -0.611234 0)
(0.0682761 -0.650608 0)
(0.00275311 -0.664814 0)
(0.00828538 -0.664248 0)
(0.0138946 -0.664194 0)
(0.0196361 -0.663514 0)
(0.0256131 -0.663952 0)
(0.0319094 -0.663301 0)
(0.0386335 -0.664405 0)
(0.0459241 -0.663509 0)
(0.0538422 -0.665198 0)
(0.0625307 -0.663336 0)
(0.0720219 -0.664906 0)
(0.0823835 -0.660958 0)
(0.0935342 -0.660482 0)
(0.105166 -0.653089 0)
(0.116899 -0.648313 0)
(0.127733 -0.636907 0)
(0.136765 -0.626697 0)
(0.142464 -0.611039 0)
(0.142708 -0.597857 0)
(0.135246 -0.580134 0)
(0.116843 -0.574374 0)
(0.0837443 -0.570751 0)
(0.0349002 -0.598557 0)
(0.00194125 -0.669487 0)
(0.00582395 -0.668947 0)
(0.00971764 -0.668955 0)
(0.0136585 -0.668393 0)
(0.0177384 -0.669088 0)
(0.0220311 -0.668714 0)
(0.0266223 -0.670271 0)
(0.0316273 -0.669906 0)
(0.0371219 -0.672185 0)
(0.0432474 -0.671141 0)
(0.050036 -0.673365 0)
(0.0575611 -0.670377 0)
(0.0658128 -0.670463 0)
(0.0746823 -0.663609 0)
(0.08402 -0.658865 0)
(0.0931589 -0.64632 0)
(0.101433 -0.634566 0)
(0.107382 -0.614762 0)
(0.109189 -0.596075 0)
(0.104672 -0.569751 0)
(0.0901425 -0.551524 0)
(0.061036 -0.53094 0)
(0.0130922 -0.540939 0)
(0.00120918 -0.672613 0)
(0.00362043 -0.672065 0)
(0.00603182 -0.672092 0)
(0.00846946 -0.671585 0)
(0.0109969 -0.672455 0)
(0.013664 -0.67226 0)
(0.0165423 -0.674149 0)
(0.0197327 -0.674181 0)
(0.0233055 -0.676938 0)
(0.0273734 -0.676546 0)
(0.031968 -0.679313 0)
(0.0371527 -0.677114 0)
(0.0429327 -0.677737 0)
(0.049231 -0.671486 0)
(0.0560003 -0.667081 0)
(0.0628715 -0.654097 0)
(0.0693616 -0.641528 0)
(0.0743004 -0.618642 0)
(0.0760921 -0.595705 0)
(0.0724822 -0.561842 0)
(0.0603194 -0.532487 0)
(0.0357809 -0.495934 0)
(-0.00710145 -0.484523 0)
(0.000683273 -0.674479 0)
(0.00200914 -0.673884 0)
(0.00326925 -0.673892 0)
(0.00448836 -0.673388 0)
(0.00570818 -0.674346 0)
(0.00696556 -0.67424 0)
(0.00832004 -0.676349 0)
(0.00983965 -0.67664 0)
(0.0115736 -0.679737 0)
(0.013582 -0.679778 0)
(0.0158891 -0.68294 0)
(0.0185322 -0.681276 0)
(0.0215414 -0.682329 0)
(0.0248863 -0.676505 0)
(0.0285682 -0.672484 0)
(0.0323321 -0.659299 0)
(0.0358892 -0.646337 0)
(0.0386305 -0.621461 0)
(0.0395117 -0.595478 0)
(0.0366065 -0.555423 0)
(0.026886 -0.516809 0)
(0.00666201 -0.466513 0)
(-0.0307923 -0.433082 0)
(0.000284965 -0.675421 0)
(0.000817842 -0.674748 0)
(0.00128648 -0.674704 0)
(0.00169758 -0.674153 0)
(0.00207391 -0.675123 0)
(0.00243486 -0.675027 0)
(0.0028104 -0.677237 0)
(0.00323151 -0.677638 0)
(0.00372247 -0.68091 0)
(0.00430868 -0.681147 0)
(0.00501697 -0.684535 0)
(0.00585488 -0.683111 0)
(0.00685087 -0.68445 0)
(0.00795323 -0.678783 0)
(0.00915675 -0.675043 0)
(0.0103406 -0.661638 0)
(0.0113309 -0.648492 0)
(0.011636 -0.622289 0)
(0.0103647 -0.594177 0)
(0.00599638 -0.54933 0)
(-0.00424795 -0.502748 0)
(-0.0237983 -0.440504 0)
(-0.0585058 -0.386461 0)
(3.65271e-05 -0.675719 0)
(9.1033e-05 -0.67499 0)
(9.33307e-05 -0.674884 0)
(2.48349e-06 -0.674243 0)
(-0.000188992 -0.675166 0)
(-0.000475854 -0.675005 0)
(-0.000852255 -0.677205 0)
(-0.00132077 -0.677569 0)
(-0.00187724 -0.680859 0)
(-0.00252281 -0.681083 0)
(-0.00325039 -0.684523 0)
(-0.00407942 -0.683074 0)
(-0.00500222 -0.684502 0)
(-0.00608484 -0.678691 0)
(-0.00735696 -0.675005 0)
(-0.00894588 -0.661207 0)
(-0.0109648 -0.647825 0)
(-0.0136179 -0.62053 0)
(-0.0173091 -0.59088 0)
(-0.0228485 -0.542598 0)
(-0.0323491 -0.48956 0)
(-0.0493589 -0.416867 0)
(-0.0786783 -0.345661 0)
(-6.01394e-05 -0.675674 0)
(-0.000212708 -0.674894 0)
(-0.000454843 -0.674697 0)
(-0.000841777 -0.673908 0)
(-0.00137988 -0.674726 0)
(-0.00206342 -0.674428 0)
(-0.0028976 -0.676523 0)
(-0.00389921 -0.67673 0)
(-0.00508272 -0.679905 0)
(-0.00647015 -0.679948 0)
(-0.00807538 -0.683267 0)
(-0.00993271 -0.681584 0)
(-0.0120414 -0.682897 0)
(-0.0144599 -0.676728 0)
(-0.0172133 -0.672872 0)
(-0.0203573 -0.658531 0)
(-0.0239406 -0.644818 0)
(-0.0280865 -0.616651 0)
(-0.0330647 -0.585991 0)
(-0.0392482 -0.535647 0)
(-0.0475952 -0.478512 0)
(-0.0607352 -0.397548 0)
(-0.0839661 -0.312095 0)
(-0.000230595 -0.675366 0)
(-0.000709929 -0.674535 0)
(-0.0012501 -0.674237 0)
(-0.00190251 -0.673291 0)
(-0.00269533 -0.673973 0)
(-0.00366326 -0.673488 0)
(-0.00484175 -0.675407 0)
(-0.00627081 -0.675369 0)
(-0.00798272 -0.678321 0)
(-0.0100146 -0.678061 0)
(-0.012393 -0.681115 0)
(-0.015168 -0.679044 0)
(-0.0183843 -0.680049 0)