/*--------------------------------*- C++ -*----------------------------------*\
| =========                 |                                                 |
| \\      /  F ield         | OpenFOAM: The Open Source CFD Toolbox           |
|  \\    /   O peration     | Version:  2012                                  |
|   \\  /    A nd           | Website:  www.openfoam.com                      |
|    \\/     M anipulation  |                                                 |
\*---------------------------------------------------------------------------*/
FoamFile
{
    version     2.0;
    format      ascii;
    class       volScalarField;
    location    "0.4";
    object      volumeFraction1;
}
// * * * * * * * * * * * * * * * * * * * * * * * * * * * * * * * * * * * * * //

dimensions      [0 0 0 0 0 0 0];


internalField   nonuniform List<scalar> 
2268
(
1
1
1
1
1
1
1
1
1
1
1
1
1
1
1
1
1
1
1
1
1
1
0.999383
1
1
1
1
1
1
1
1
1
1
1
1
1
1
1
1
1
1
1
1
1
1
0.999443
1
1
1
1
1
1
1
1
1
1
1
1
1
1
1
1
1
1
1
1
1
1
0.999951
1
1
1
1
1
1
1
1
1
1
1
1
1
1
1
1
1
1
1
1
1
1
1
1
1
1
1
1
1
1
1
1
1
1
1
1
1
1
1
1
1
1
1
1
1
0.999211
1
1
1
1
1
1
1
1
1
1
1
1
1
1
1
1
1
1
1
1
1
1
0.998759
1
1
1
1
1
1
1
1
1
1
1
1
1
1
1
1
1
1
1
1
1
1
0.998759
1
1
1
1
1
1
1
1
1
1
1
1
1
1
1
1
1
1
1
1
1
1
0.998759
3.12316e-22
2.61903e-21
1.5988e-20
3.67845e-20
3.9301e-20
2.00189e-20
5.68014e-21
1.34559e-21
2.6754e-21
5.93243e-20
1.41392e-18
2.70886e-17
4.05096e-16
4.76159e-15
4.36053e-14
3.235e-13
1.93386e-12
8.68884e-12
1.42986e-11
1.4217e-20
2.0862e-19
1.15426e-18
2.24296e-18
2.16096e-18
1.09196e-18
3.73469e-19
8.43612e-20
5.5312e-20
9.99491e-19
2.14111e-17
3.7681e-16
5.27328e-15
5.90218e-14
5.28361e-13
3.79154e-12
2.14641e-11
6.43557e-11
8.46568e-11
6.24444e-19
8.90533e-18
4.38192e-17
8.53905e-17
7.40892e-17
3.59534e-17
1.31411e-17
2.97987e-18
1.13063e-18
9.52055e-18
1.76882e-16
2.8144e-15
3.61776e-14
3.71321e-13
2.9531e-12
1.72023e-11
6.86912e-11
1.1503e-10
1.24619e-10
1.59141e-17
2.42611e-16
1.14496e-15
2.03437e-15
1.55986e-15
7.15184e-16
2.66278e-16
6.10664e-17
2.1481e-17
6.39701e-17
8.72193e-16
1.21641e-14
1.3881e-13
1.24626e-12
8.58106e-12
4.18466e-11
1.0183e-10
1.27814e-10
1.31289e-10
3.16085e-16
4.60725e-15
1.95259e-14
3.20241e-14
2.08364e-14
9.41018e-15
3.80492e-15
9.2313e-16
3.54551e-16
5.05262e-16
3.60087e-15
3.99167e-14
3.88089e-13
2.95553e-12
1.70604e-11
6.70249e-11
1.16291e-10
1.29468e-10
1.36918e-10
3.80017e-15
5.03954e-14
2.33595e-13
3.47688e-13
1.9893e-13
8.99455e-14
3.75984e-14
9.6627e-15
4.75585e-15
5.06228e-15
1.44106e-14
1.0431e-13
8.58197e-13
5.5967e-12
2.851e-11
8.51194e-11
1.21906e-10
1.28924e-10
1.5959e-10
3.80016e-15
1.29334e-13
1.68266e-12
2.27281e-12
1.15526e-12
5.92518e-13
2.84107e-13
8.34995e-14
5.09851e-14
5.46798e-14
7.88655e-14
2.66345e-13
1.72886e-12
9.30912e-12
3.99955e-11
9.71436e-11
1.39191e-10
1.28924e-10
2.17136e-10
1.51552e-09
2.51482e-08
2.56289e-12
2.27285e-12
6.66816e-12
2.79011e-12
1.63213e-12
5.51984e-13
4.54687e-13
6.5995e-13
6.64958e-13
7.36945e-13
3.24992e-12
1.4223e-11
5.17248e-11
1.3249e-10
4.99134e-10
9.39612e-10
4.43245e-10
1
1
1
1
1
1
1
1
1
1
1
1
1
1
1
1
1
1
1
1
1
1
0.99876
0.999507
0.999467
0.999461
0.99941
0.999347
0.999287
0.999245
0.999151
0.999187
0.999164
0.999277
0.999416
0.999601
0.999793
0.999937
1
1
1
1
1
1
1
0.999295
0.859083
0.855127
0.853908
0.848622
0.842481
0.836818
0.83251
0.824457
0.826411
0.824148
0.83283
0.845297
0.866678
0.895336
0.932258
0.969374
1
1
1
1
1
1
0.999991
0.16624
0.162508
0.160479
0.154812
0.14871
0.142966
0.138322
0.130688
0.131647
0.129125
0.136029
0.14668
0.166262
0.197045
0.249937
0.32965
0.469954
0.667746
0.89421
1
1
1
1
1.53393e-35
1.54346e-35
-1.08828e-35
-9.28069e-33
3.03178e-32
1.62045e-31
-7.97447e-31
4.73501e-32
-6.28812e-24
5.80704e-29
1.52792e-27
-4.87923e-26
1.74572e-26
-4.23952e-26
8.71442e-27
3.76082e-28
0.00390437
0.0345049
0.122859
0.291946
0.565009
0.896037
1
9.80746e-19
6.15605e-17
2.1713e-15
4.81461e-14
7.03839e-13
7.82367e-12
1.73763e-11
1.25567e-11
-7.55516e-31
3.06877e-10
1.33899e-08
1.40556e-07
3.87738e-07
3.03257e-07
1.06811e-07
4.05357e-09
1.2435e-09
9.05855e-06
0.000749594
0.00536124
0.0294922
0.151954
0.39515
3.60537e-18
2.21081e-16
7.43488e-15
1.4945e-13
2.11352e-12
2.2811e-11
3.99757e-11
4.03339e-11
3.87701e-12
2.25583e-14
4.23074e-07
1.80705e-06
2.48532e-06
1.85646e-06
2.25957e-07
3.27443e-09
1.24347e-09
1.2435e-09
7.24163e-08
2.16016e-06
8.55395e-05
0.00179259
0.0137551
5.02784e-18
3.01827e-16
9.88815e-15
1.88949e-13
2.59504e-12
2.76396e-11
4.30066e-11
6.56348e-11
2.31965e-11
2.26175e-14
1.57044e-06
2.48532e-06
2.48568e-06
1.33886e-06
9.11274e-08
1.58239e-08
3.18567e-09
1.24347e-09
4.56375e-07
6.42679e-07
1.81893e-06
3.19747e-06
1.98964e-05
5.31839e-18
3.16775e-16
1.02479e-14
1.91293e-13
2.53392e-12
2.67745e-11
3.13862e-11
1.3166e-10
1.90839e-10
1.50156e-12
9.10744e-07
1.47543e-06
6.20362e-07
1.30688e-11
3.02936e-08
6.41179e-08
4.16931e-08
3.58554e-09
6.85814e-10
1.05755e-05
1.31552e-05
6.7165e-06
6.7165e-06
4.66021e-18
2.68202e-16
8.26488e-15
1.437e-13
1.57345e-12
1.64808e-11
1.01408e-11
3.10087e-10
1.44286e-09
4.81075e-08
1.30991e-11
1.30711e-11
1.30688e-11
1.30711e-11
1.03032e-08
6.3837e-08
6.3837e-08
1.55839e-08
6.85818e-10
7.74086e-12
7.13755e-06
3.10655e-05
3.62155e-05
2.52345e-18
1.38575e-16
4.06227e-15
6.71623e-14
6.65455e-13
6.86904e-12
7.6834e-13
5.01951e-10
2.83037e-09
1.04262e-09
1.21128e-10
6.17587e-11
3.05452e-10
1.48087e-09
1.19884e-09
1.48152e-08
2.82833e-08
1.34053e-08
8.23567e-10
7.74065e-12
3.00681e-16
3.08716e-16
1.03981e-06
1.015e-18
5.48893e-17
1.58065e-15
2.56146e-14
2.46907e-13
2.42804e-12
7.68343e-13
4.50229e-10
2.03877e-09
9.08103e-10
2.31674e-10
1.52511e-10
4.96969e-10
1.97035e-09
1.19884e-09
1.16587e-10
1.16587e-10
1.16587e-10
1.73342e-10
1.13725e-10
3.90197e-11
5.63583e-12
5.63587e-12
3.32142e-19
1.76115e-17
4.99186e-16
7.98673e-15
7.84592e-14
7.24032e-13
7.68342e-13
2.11078e-10
2.83008e-10
2.93175e-10
1.75363e-10
1.36695e-10
2.51762e-10
7.01368e-10
8.46393e-10
8.16551e-10
6.82949e-10
5.09059e-10
3.06955e-10
1.52648e-10
7.10619e-11
2.94044e-11
7.25761e-12
8.781e-20
4.58955e-18
1.28941e-16
2.05826e-15
2.09075e-14
1.76057e-13
7.72023e-13
4.70817e-11
6.83939e-11
7.82849e-11
5.79157e-11
3.86325e-11
7.26387e-11
1.07771e-10
1.93733e-10
2.50372e-10
2.70627e-10
2.42826e-10
1.52729e-10
7.13492e-11
3.6024e-11
2.00323e-11
1.10972e-11
1.85286e-20
9.63856e-19
2.71057e-17
4.38575e-16
4.69616e-15
3.97022e-14
6.27771e-13
4.74179e-12
1.15791e-11
1.20667e-11
8.85517e-12
6.91648e-12
1.09379e-11
2.2215e-11
3.4473e-11
3.74482e-11
3.7077e-11
3.29945e-11
2.39937e-11
1.34545e-11
7.12255e-12
3.75857e-12
2.05556e-12
3.06139e-21
1.61076e-19
4.60875e-18
7.73878e-17
8.92547e-16
8.07518e-15
2.03031e-13
3.37944e-13
4.69421e-13
4.81302e-13
5.23793e-13
1.05393e-12
2.42456e-12
4.03148e-12
4.71534e-12
4.75896e-12
4.59447e-12
4.1039e-12
3.18771e-12
1.94785e-12
1.02964e-12
5.23992e-13
2.78456e-13
3.83835e-22
2.07303e-20
6.15362e-19
1.10003e-17
1.38966e-16
1.3208e-15
3.30119e-14
4.64773e-14
3.77307e-14
2.60634e-14
5.07906e-14
2.0021e-13
5.68524e-13
8.47432e-13
8.90768e-13
8.57591e-13
7.54125e-13
5.82762e-13
3.67802e-13
2.02255e-13
1.05713e-13
4.78965e-14
2.8725e-14
3.49362e-23
2.01681e-21
6.44455e-20
1.26498e-18
1.76066e-17
1.67996e-16
2.52335e-15
5.78181e-15
5.95707e-15
5.08813e-15
9.79425e-15
3.35963e-14
8.33612e-14
1.1021e-13
1.11655e-13
1.03843e-13
8.57205e-14
5.90459e-14
3.25728e-14
1.69804e-14
7.47974e-15
3.86636e-15
6.63678e-15
2.15399e-24
1.39554e-22
4.98967e-21
1.09332e-19
1.64697e-18
1.56665e-17
1.14573e-16
1.963e-16
2.17615e-16
3.27348e-16
1.0849e-15
3.55506e-15
7.15182e-15
8.10979e-15
7.9857e-15
7.31012e-15
6.0682e-15
4.35914e-15
2.48351e-15
1.18279e-15
4.82856e-16
6.81122e-16
3.90146e-15
8.08997e-26
6.35863e-24
2.6577e-22
6.52019e-21
1.03601e-19
9.49017e-19
5.164e-18
7.35196e-18
1.07556e-17
2.64814e-17
9.79318e-17
2.67486e-16
3.38315e-16
3.28076e-16
3.15085e-16
3.05629e-16
2.83415e-16
2.34033e-16
1.5361e-16
5.7782e-17
4.89176e-17
2.77299e-16
2.7336e-15
1.61239e-27
1.56337e-25
7.62979e-24
2.03888e-22
3.31796e-21
2.85501e-20
1.08468e-19
2.33284e-19
6.07431e-19
2.02338e-18
6.86199e-18
1.16081e-17
1.07543e-17
8.36168e-18
8.5509e-18
1.00017e-17
9.9685e-18
8.58414e-18
5.30173e-18
2.32548e-18
9.32155e-18
1.44955e-16
2.23817e-15
2.28393e-29
1.43304e-27
5.05248e-26
1.17809e-24
2.22217e-23
2.76452e-22
1.66371e-21
7.68743e-21
3.3597e-20
1.18356e-19
3.08305e-19
4.18604e-19
3.8857e-19
3.04748e-19
2.82852e-19
2.81059e-19
2.60693e-19
2.04465e-19
9.62155e-20
1.64725e-19
3.74379e-18
9.39963e-17
2.38433e-15
1.11786e-30
7.37423e-29
2.64796e-27
6.11678e-26
1.12474e-24
1.41364e-23
8.71892e-23
3.92629e-22
1.56414e-21
4.88671e-21
9.83008e-21
1.25524e-20
1.22867e-20
1.01391e-20
5.79945e-21
2.75053e-21
1.58574e-21
7.63041e-22
1.84383e-21
5.09675e-20
1.9744e-18
8.65808e-17
3.53059e-15
2.67926e-32
1.81182e-30
6.36331e-29
1.34158e-27
1.98197e-26
2.03622e-25
1.59574e-24
9.10695e-24
3.89832e-23
1.14961e-22
2.23625e-22
3.63805e-22
3.71779e-22
3.15471e-22
1.78142e-22
5.85497e-23
1.4356e-23
3.11125e-23
7.22658e-22
2.62355e-20
1.56655e-18
1.01691e-16
4.71423e-15
1.09476e-37
5.06872e-36
1.19195e-34
1.64211e-33
1.45596e-32
5.141e-32
1.30313e-31
1.01197e-30
6.64595e-30
2.82991e-29
8.0731e-29
1.48515e-28
1.48906e-28
1.03184e-28
1.39772e-28
5.47922e-27
2.89757e-25
1.16904e-23
3.55342e-22
1.58304e-20
1.54529e-18
1.17684e-16
5.28646e-15
7.51839e-42
4.68293e-40
1.57936e-38
3.49482e-37
6.1379e-36
9.96409e-35
3.12652e-33
5.47512e-32
4.13787e-31
1.84953e-30
5.30718e-30
9.40891e-30
9.22457e-30
6.16965e-30
2.65152e-29
1.9318e-27
1.11186e-25
4.81162e-24
1.62266e-22
9.8369e-21
1.52235e-18
1.19352e-16
5.22617e-15
3.86983e-45
2.34327e-43
7.38185e-42
1.44444e-40
2.00551e-39
2.04002e-38
1.59675e-37
9.72923e-37
4.66852e-36
1.88416e-35
6.70405e-35
6.36122e-34
1.49399e-33
5.424e-32
6.27767e-30
5.88574e-28
3.679e-26
1.72729e-24
6.74043e-23
5.51527e-21
1.06718e-18
8.21901e-17
3.12068e-15
1.06565e-50
8.36685e-49
3.47046e-47
9.21046e-46
1.78111e-44
2.63439e-43
3.11137e-42
3.02603e-41
2.40602e-40
1.63827e-39
1.00301e-38
3.32098e-37
6.03371e-35
1.09364e-32
1.45601e-30
1.51942e-28
1.03219e-26
5.34262e-25
2.49192e-23
2.55887e-21
4.43046e-19
3.29603e-17
1.25055e-15
3.3244e-54
2.83373e-52
1.27331e-50
3.7141e-49
7.99682e-48
1.36023e-46
1.90643e-45
2.29758e-44
2.33114e-43
2.41559e-42
1.36511e-40
3.64733e-38
8.67556e-36
1.81708e-33
2.75557e-31
3.21549e-29
2.38558e-27
1.39744e-25
7.95786e-24
9.19868e-22
1.38454e-19
1.01519e-17
3.89838e-16
1.30685e-60
1.3889e-58
8.60014e-57
3.85862e-55
1.36677e-53
3.92115e-52
9.17607e-51
2.89386e-49
6.09057e-47
2.59413e-44
9.81471e-42
3.4496e-39
9.68074e-37
2.35849e-34
4.13497e-32
5.41819e-30
4.43026e-28
3.0376e-26
2.12046e-24
2.40107e-22
2.94591e-20
2.09912e-18
8.14627e-17
7.28497e-66
1.28349e-63
1.22758e-61
7.92732e-60
3.88871e-58
2.21233e-56
5.87625e-54
3.56148e-51
2.04926e-48
1.10272e-45
5.14632e-43
2.19928e-40
7.5817e-38
2.19647e-35
4.60124e-33
6.8807e-31
6.35504e-29
5.32599e-27
4.55059e-25
4.33735e-23
3.75688e-21
2.39698e-19
9.37843e-18
4.43931e-70
1.14561e-67
1.55082e-65
1.4267e-63
1.37774e-61
5.41884e-59
4.68386e-56
4.12085e-53
3.24797e-50
2.39443e-47
1.52831e-44
8.59595e-42
3.88008e-39
1.38177e-36
3.58705e-34
6.27922e-32
6.78013e-30
7.21014e-28
7.62607e-26
6.06392e-24
3.32932e-22
1.42799e-20
7.7111e-19
1.20946e-74
4.63668e-72
1.01305e-69
2.22236e-67
1.33813e-64
1.69241e-61
2.15759e-58
2.62769e-55
2.88388e-52
2.93875e-49
2.5456e-46
1.89356e-43
1.09954e-40
5.01524e-38
1.66218e-35
3.6679e-33
4.9489e-31
6.92804e-29
9.58257e-27
9.5952e-25
6.57e-23
3.54132e-21
6.1318e-19
1.94875e-78
9.53473e-76
2.73152e-73
8.66862e-71
7.68463e-68
1.30304e-64
2.37695e-61
4.23225e-58
6.8771e-55
1.06783e-51
1.35681e-48
1.5704e-45
1.38631e-42
9.76645e-40
4.69328e-37
1.41679e-34
2.45933e-32
4.39744e-30
8.15802e-28
1.0954e-25
9.96591e-24
7.09103e-22
1.33506e-18
1.02212e-82
7.19806e-80
3.00509e-77
1.31441e-74
1.49226e-71
3.69657e-68
1.0068e-64
2.86132e-61
7.12285e-58
1.67124e-54
3.24329e-51
5.80502e-48
7.31638e-45
7.84205e-42
5.18515e-39
2.41465e-36
5.95917e-34
1.43565e-31
4.03118e-29
8.25685e-27
1.09486e-24
1.33893e-22
8.9965e-19
3.3816e-87
3.41508e-84
2.05709e-81
1.25814e-78
2.00028e-75
7.68591e-72
3.24051e-68
1.32035e-64
4.69883e-61
1.53512e-57
4.3115e-54
1.07205e-50
2.06246e-47
3.56851e-44
3.75266e-41
2.8789e-38
1.04206e-35
3.42134e-33
1.47247e-30
4.84175e-28
1.40274e-25
2.29924e-22
1.63237e-19
2.68305e-91
4.64923e-87
8.7423e-83
1.08041e-78
9.32941e-75
5.84993e-71
2.80822e-67
1.05383e-63
2.9605e-60
6.00523e-57
9.08395e-54
1.05487e-50
9.76919e-48
7.20528e-45
4.36261e-42
2.28199e-39
1.15087e-36
6.9297e-34
7.09339e-31
5.33384e-28
1.00981e-24
7.06185e-22
1.3465e-19
3.93943e-90
1.48786e-85
2.75224e-81
3.34397e-77
2.80348e-73
1.73084e-69
8.2002e-66
3.00469e-62
7.95201e-59
1.51455e-55
2.17165e-52
2.42334e-49
2.13033e-46
1.49616e-43
8.54372e-41
4.28249e-38
2.27659e-35
1.52198e-32
1.03796e-29
5.59955e-27
2.04908e-24
4.45205e-22
5.58324e-20
1.22669e-88
4.37157e-84
7.69043e-80
8.58576e-76
6.59516e-72
3.7526e-68
1.6732e-64
5.75658e-61
1.40439e-57
2.46293e-54
3.32038e-51
3.52403e-48
2.95688e-45
1.98275e-42
1.06535e-39
4.65239e-37
1.67096e-34
5.05532e-32
1.32262e-29
3.09257e-27
6.26654e-25
1.01825e-22
1.20552e-20
2.64527e-87
8.32587e-83
1.254e-78
1.17507e-74
7.53103e-71
3.47832e-67
1.18215e-63
3.04285e-60
6.09709e-57
9.66582e-54
1.215e-50
1.21985e-47
9.78107e-45
6.30517e-42
3.25769e-39
1.35668e-36
4.54257e-34
1.23002e-31
2.68383e-29
4.71611e-27
6.59088e-25
7.23833e-23
6.1653e-21
1.59005e-86
4.2187e-82
5.24193e-78
3.99272e-74
2.04439e-70
7.41654e-67
1.9549e-63
3.8359e-60
5.70241e-57
6.57413e-54
5.88084e-51
4.12874e-48
2.29452e-45
1.02502e-42
3.72238e-40
1.11762e-37
2.81364e-35
6.04322e-33
1.11684e-30
1.78699e-28
2.45429e-26
2.85385e-24
2.72801e-22
6.09969e-86
1.42369e-81
1.55044e-77
1.0377e-73
4.72175e-70
1.54604e-66
3.74652e-63
6.87288e-60
9.65491e-57
1.05198e-53
8.93717e-51
5.9703e-48
3.14102e-45
1.31085e-42
4.35367e-40
1.16012e-37
2.49317e-35
4.40337e-33
6.52313e-31
8.26247e-29
9.03188e-27
8.58231e-25
6.86852e-23
0.999233
1
0.931401
0.155979
0.999582
1
0.998836
0.925757
0.999983
1
0.999849
0.999484
1
1
0.999997
0.999998
1
1
1
1
0.60551
0.759942
0.936087
1
0.0412531
0.0907527
0.172828
0.277297
0.00013512
0.000599759
0.00185917
0.00470366
8.71373e-06
1.10308e-05
1.18302e-05
1.18302e-05
3.91222e-05
4.08081e-05
4.08105e-05
2.58229e-05
2.10657e-05
4.0813e-05
4.08087e-05
4.08137e-05
2.46529e-07
1.59991e-06
3.86759e-06
7.34176e-06
2.95854e-12
8.09625e-11
9.23752e-10
3.26718e-10
6.90778e-12
4.99162e-12
3.59181e-12
1.72862e-12
1.36393e-12
1.00149e-12
7.59948e-13
6.2319e-13
1.87977e-13
1.39663e-13
1.1165e-13
1.11128e-13
2.84735e-14
3.12102e-14
3.93869e-14
6.15051e-14
1.16706e-14
1.88095e-14
3.21822e-14
6.23946e-14
8.94819e-15
1.59777e-14
3.04544e-14
6.57966e-14
6.71614e-15
1.33087e-14
3.09867e-14
1.00428e-13
6.0593e-15
1.47268e-14
5.662e-14
2.9238e-13
8.00425e-15
2.89206e-14
1.60207e-13
1.02007e-12
1.47728e-14
6.76671e-14
4.37562e-13
3.19004e-12
2.3476e-14
1.29056e-13
8.98614e-13
6.11711e-12
2.97586e-14
1.80736e-13
1.26573e-12
7.80138e-12
3.21065e-14
2.06154e-13
1.41867e-12
8.18565e-12
2.52125e-14
1.83794e-13
1.12973e-12
3.91884e-12
1.09765e-14
8.39348e-14
5.21758e-13
1.57571e-12
3.89958e-15
3.1799e-14
1.9689e-13
5.35178e-13
9.47972e-16
8.44691e-15
5.49102e-14
2.01042e-13
1.37382e-16
1.72707e-15
2.01214e-14
1.99812e-13
3.66505e-17
1.38304e-15
3.73443e-14
6.05274e-13
1.14443e-16
4.37493e-15
8.37158e-14
9.55128e-13
1.79247e-16
5.5882e-15
9.39786e-14
9.60208e-13
8.09774e-17
2.17057e-15
3.24984e-14
2.98547e-13
9.14672e-18
1.92252e-16
2.60865e-15
2.49805e-14
7.54925e-18
1.82759e-16
2.96806e-15
3.30549e-14
2.9619e-18
7.43187e-17
1.35213e-15
1.7903e-14
6.94497e-19
1.99705e-17
4.29889e-16
6.81728e-15
2.88591e-19
7.10376e-18
1.41789e-16
2.30786e-15
1.5311e-20
4.7757e-19
1.31469e-17
3.34243e-16
3.2921e-21
8.82209e-20
2.10244e-18
4.76573e-17
1.66112e-14
1.66112e-14
1.66112e-14
5.08863e-10
1.91886e-10
1.28756e-10
4.88518e-11
1.09217e-11
3.81181e-12
6.59944e-13
1.98555e-12
7.84116e-12
1.88387e-11
4.50397e-11
1.00745e-10
2.30436e-10
1.57599e-09
6.69343e-07
4.28046e-09
0.732172
0.166443
0.00427971
6.83611e-07
2.55039e-10
2.81609e-10
2.71558e-10
2.08861e-10
2.74527e-10
1.95637e-10
1.83199e-12
1.83198e-12
2.85931e-12
4.14902e-11
9.96447e-11
7.47318e-11
3.52139e-12
3.23262e-06
3.46663e-07
1
0.609161
0.0122707
1.48052e-10
1.48052e-10
1.80778e-10
1.46984e-10
1.76067e-10
5.26008e-10
4.59714e-09
1.67562e-08
1.52535e-08
1.75728e-12
1.75139e-12
4.15277e-11
1.75139e-12
1.75728e-12
2.96319e-06
0.000286349
1
0.988082
0.531141
0.0120971
3.52841e-16
3.50779e-16
3.52841e-16
3.50779e-16
4.39986e-11
8.27858e-10
5.46263e-09
1.41751e-08
7.18142e-08
1.50232e-07
1.50447e-07
6.42272e-08
1.31612e-09
3.46247e-16
0.0762518
1
1
0.981396
0.687583
0.330621
0.104275
0.0304058
0.00443733
3.50206e-16
3.50084e-16
3.50206e-16
3.50084e-16
3.50211e-16
2.08439e-08
6.19518e-08
3.75483e-08
1.04065e-08
3.47265e-16
0.521432
1
1
0.999883
0.993387
0.94916
0.813374
0.677148
0.6144
0.531251
0.42601
0.328227
0.241278
0.125119
3.4691e-16
3.47865e-16
3.46784e-16
1.47775e-06
3.46246e-16
0.751989
0.507983
0.853438
0.999989
0.999992
0.999989
0.999992
0.999989
0.999746
0.998221
0.989891
0.963196
0.922059
0.838117
0.649142
0.432894
0.228284
0.0649714
0.165279
0.82918
0.0157596
0.138984
0.351174
0.608074
0.796056
0.893847
0.927604
0.938613
0.95004
0.969038
0.999912
0.999912
0.999912
0.999912
0.98323
0.899932
0.761036
0.850386
0.951436
4.38954e-05
0.00129637
0.00790715
0.0341204
0.107938
0.204532
0.270837
0.301893
0.331679
0.376933
0.46359
0.601934
0.740975
0.900185
0.995054
0.995054
0.991244
0.991668
0.977074
3.65961e-07
1.98744e-07
2.8222e-06
4.15974e-05
0.000399868
0.00145188
0.00280697
0.00390563
0.00524685
0.00786454
0.0140312
0.0349343
0.091325
0.216377
0.496382
0.837626
0.987277
0.991668
0.87425
1.294e-05
2.23361e-09
1.60173e-10
2.04765e-10
2.65348e-09
3.10504e-08
1.26839e-07
2.82062e-07
5.98719e-07
1.72205e-06
7.50792e-06
4.72231e-05
0.000498715
0.00459002
0.00606041
0.332289
0.878918
0.991668
0.792399
3.55735e-06
9.44931e-08
1.60176e-10
9.48604e-11
9.48596e-11
8.48276e-11
4.7193e-11
3.49676e-11
7.70773e-09
2.30669e-08
1.78625e-08
7.97905e-09
8.1213e-08
2.36872e-06
0.000134531
0.0696382
0.72203
0.991668
0.775832
3.0632e-08
2.12941e-08
4.19038e-09
8.29456e-10
2.59624e-10
1.17781e-10
4.59646e-11
3.49832e-11
1.82379e-09
8.20755e-09
6.02765e-09
1.84971e-09
2.44101e-09
3.72656e-07
0.000788391
0.111838
0.766797
0.991668
0.716969
7.60541e-12
5.12267e-10
4.87005e-10
2.03448e-10
8.29322e-11
4.78405e-11
3.30722e-11
3.63825e-11
7.00936e-10
3.82604e-09
4.88179e-09
1.84621e-09
3.17672e-09
1.90743e-05
0.00812834
0.265942
0.868602
0.988987
0.477949
3.7601e-13
6.60252e-12
1.3052e-11
1.62548e-11
3.68923e-11
4.83272e-11
3.4016e-11
3.36059e-11
1.83293e-10
1.46525e-09
3.70348e-09
1.84629e-09
2.07685e-08
0.000357945
0.0545882
0.550589
0.868601
0.843839
0.308866
1.33827e-13
2.21491e-12
2.95791e-11
1.25555e-10
3.68923e-11
6.57639e-11
5.40577e-10
4.15619e-10
2.03036e-10
4.0783e-10
1.80176e-09
1.84622e-09
1.11739e-07
0.00212387
0.198096
0.745803
0.86862
0.751495
0.308866
1.5363e-13
1.65382e-13
1.65382e-13
2.12906e-09
8.36728e-09
4.47069e-09
5.40615e-10
1.31061e-09
2.06769e-10
1.79962e-10
1.80486e-10
6.88405e-10
4.26516e-08
0.00119777
0.10901
0.587386
0.853218
0.802536
0.383845
2.74237e-13
1.65382e-13
1.83371e-10
1.8337e-10
2.17949e-08
7.25647e-08
5.26403e-08
1.8095e-09
2.29701e-09
8.72581e-09
6.16879e-09
1.40139e-09
5.79268e-10
0.000165567
0.00774234
0.142062
0.636491
0.709045
0.422391
6.7259e-13
1.65382e-13
1.11774e-09
1.01028e-08
1.01026e-08
6.43448e-08
1.06931e-07
9.69593e-08
4.11857e-08
1.16487e-08
9.65368e-09
5.07607e-09
5.83614e-10
4.47528e-06
0.000475317
0.00439807
0.38698
0.36376
0.185823
1.79133e-12
1.20492e-11
4.72225e-12
9.09722e-08
4.51676e-07
2.69567e-07
2.65575e-07
1.63423e-07
6.5419e-10
4.61422e-10
8.54279e-09
7.81239e-09
5.79268e-10
1.40856e-06
2.65793e-09
0.000464264
0.139888
0.431927
0.158844
4.02202e-12
6.59866e-11
3.34639e-11
1.71388e-13
8.44294e-06
1.0903e-05
3.45849e-06
1.63436e-07
2.44575e-06
7.79761e-07
1.58745e-07
3.9632e-09
5.83614e-10
6.98569e-09
2.65807e-09
3.93563e-10
0.00485179
0.435847
0.158844
7.39636e-12
7.76281e-11
6.58597e-10
1.71361e-13
1.06507e-05
2.39198e-05
4.7455e-06
2.46907e-05
2.75249e-05
1.00953e-05
4.36514e-08
1.85596e-09
1.85985e-09
4.9953e-09
2.58633e-09
3.93608e-10
2.95104e-11
0.435647
0.158844
1.00652e-11
8.88987e-12
1.85742e-08
5.68335e-10
1.15997e-10
3.19116e-05
3.46513e-05
2.08766e-05
1.92091e-05
9.36996e-06
4.36888e-08
1.81763e-07
9.1835e-08
5.15001e-09
1.38889e-09
3.7571e-10
2.95104e-11
0.239418
0.303458
1.43152e-11
9.26043e-12
3.91841e-08
3.71531e-08
1.14839e-10
8.49854e-06
3.37335e-05
9.22339e-06
7.7264e-07
8.33794e-05
4.66856e-05
6.02477e-06
5.9356e-08
2.47693e-09
9.31829e-10
5.25529e-10
2.95104e-11
0.00906522
0.334482
1.79299e-11
6.87385e-12
4.18723e-12
5.90919e-07
1.16591e-06
4.75816e-07
4.75816e-07
7.72874e-07
7.72743e-07
0.000133183
0.00012108
1.56957e-05
2.3931e-08
1.21986e-09
1.1075e-09
9.68637e-10
1.61699e-10
2.95104e-11
0.33444
1.7903e-11
6.83854e-12
4.06244e-12
1.82734e-06
1.99894e-06
4.75816e-07
4.75816e-07
9.95117e-07
7.7264e-07
0.000134309
0.000170574
2.37162e-05
9.6431e-09
1.21993e-09
1.33062e-09
9.51773e-10
2.95104e-11
2.95104e-11
0.313178
1.21119e-11
4.07029e-12
4.06216e-12
1.53618e-06
2.28679e-06
4.98149e-07
4.75816e-07
1.85931e-05
8.41594e-05
0.000170568
0.000170572
1.36482e-05
1.22441e-09
1.22481e-09
1.25862e-09
2.02096e-10
5.15018e-05
2.95104e-11
0.19732
4.03484e-12
4.03482e-12
4.91656e-09
3.11041e-07
3.711e-06
5.85103e-07
9.575e-07
6.23475e-05
0.000170568
0.000170572
0.000170576
2.19739e-07
1.22442e-09
1.2246e-09
4.47541e-10
2.02097e-10
0.000221773
2.95104e-11
0.205964
1.90956e-12
2.29228e-11
5.11612e-11
3.17788e-08
3.62154e-06
4.7077e-07
8.53926e-07
4.77511e-05
0.000170564
0.000170568
9.30682e-05
3.351e-10
1.23869e-09
1.59713e-09
4.47701e-10
1.50254e-05
0.000223604
2.95104e-11
0.299546
1.9533e-12
2.83038e-11
4.46422e-10
6.48421e-08
1.57199e-07
2.15942e-07
1.11495e-06
1.11511e-05
7.53029e-05
9.34282e-05
1.62477e-06
3.33253e-10
7.94751e-10
8.01109e-09
1.07043e-05
8.15113e-05
9.15225e-05
0.000398536
0.304651
4.67987e-12
5.42651e-11
1.47633e-10
8.25944e-10
6.14337e-07
1.80672e-06
2.99353e-07
3.35976e-07
3.97386e-07
8.03529e-07
2.02858e-07
3.33532e-10
3.33526e-10
6.94252e-08
1.05108e-05
3.10604e-05
2.03115e-05
0.0010369
0.304557
8.54213e-12
7.01806e-11
1.97856e-10
1.27846e-09
1.17429e-06
4.30442e-06
2.38982e-08
3.81685e-08
4.14377e-08
1.10881e-07
1.73846e-07
1.74408e-08
3.27398e-11
3.27398e-11
3.27398e-11
3.27398e-11
3.27398e-11
0.000549788
0.0831106
1.08075e-11
7.89148e-11
2.08692e-10
1.5736e-09
7.55387e-07
4.31048e-06
2.38615e-08
2.3765e-08
4.08827e-08
2.09422e-07
2.66121e-07
1.43418e-07
3.27398e-11
0.0611008
0.27381
0.151072
0.0120294
0.000440659
0.000440683
9.57666e-12
6.25653e-11
1.33983e-10
4.41609e-10
1.81232e-07
2.64691e-06
2.37645e-08
2.37645e-08
2.3765e-08
1.36272e-07
2.66444e-07
1.40648e-08
3.27398e-11
0.357363
0.469149
0.469186
0.140768
0.00110192
3.36276e-08
2.68726e-12
1.61353e-11
3.90657e-11
5.61477e-11
1.07882e-09
1.14008e-06
5.82027e-06
2.37649e-08
2.37649e-08
1.75142e-07
4.22814e-08
3.74854e-10
3.27398e-11
0.272391
0.469186
0.457963
0.125241
0.00092257
2.35523e-08
2.81702e-13
2.73797e-12
1.60642e-11
4.28586e-11
6.86316e-10
1.26435e-06
1.30969e-05
8.57596e-06
3.036e-06
1.76416e-07
1.11148e-09
7.1777e-11
0.00111712
0.0470493
0.162718
0.129108
0.0406898
0.000899326
2.35526e-08
4.10618e-13
4.07126e-12
2.39233e-11
7.05146e-11
4.93128e-10
4.63882e-07
1.23748e-05
1.72903e-05
2.3613e-06
5.65872e-10
5.59397e-10
5.91924e-05
0.000315364
0.000494919
0.00115374
0.000912794
0.00133985
0.000514873
3.15091e-07
2.76561e-13
3.43078e-12
2.51444e-11
9.65135e-11
3.18794e-10
5.02193e-08
3.82196e-06
1.72903e-05
1.05813e-05
1.00706e-06
3.4025e-05
6.16005e-05
1.67157e-05
1.59423e-06
1.53266e-07
9.41936e-09
1.14042e-06
0.000184957
3.63058e-06
1.25674e-13
1.73248e-12
1.36885e-11
5.80437e-11
1.00766e-10
1.46239e-09
1.03714e-06
1.72747e-05
2.47691e-05
2.47693e-05
2.70391e-05
5.56061e-06
1.3085e-07
8.03572e-12
8.03572e-12
8.03572e-12
8.03572e-12
4.10866e-05
3.48495e-06
4.86761e-14
8.55052e-13
9.00461e-12
5.35726e-11
1.62689e-10
4.03923e-09
8.21086e-07
8.21499e-06
1.44545e-05
6.3345e-06
1.15678e-06
1.59485e-08
1.13446e-08
4.30075e-07
8.22851e-07
1.01522e-07
1.85938e-10
4.4015e-07
3.48594e-06
1.28003e-14
4.41505e-13
8.97476e-12
1.08804e-10
1.37951e-09
3.64185e-08
1.27928e-07
8.43083e-08
1.39216e-07
4.63265e-08
1.73236e-09
1.73179e-09
1.08078e-06
4.77751e-06
4.77225e-06
1.34308e-07
1.86004e-10
1.86867e-10
2.39819e-06
1.77236e-15
7.23782e-14
2.08831e-12
3.74725e-11
5.02534e-10
2.59514e-09
4.21502e-10
6.11186e-11
1.7084e-10
1.04119e-09
7.26269e-09
2.04611e-08
2.58683e-08
5.36743e-50
1.90428e-116
9.88239e-06
1.69459e-06
5.63676e-09
2.69718e-07
)
;

boundaryField
{
    leftWall
    {
        type            zeroGradient;
    }
    rightWall
    {
        type            zeroGradient;
    }
    lowerWall
    {
        type            zeroGradient;
    }
    atmosphere
    {
        type            inletOutlet;
        inletValue      uniform 0;
        value           nonuniform List<scalar> 
46
(
0
0
0
0
0
0
0
0
0
0
0
0
0
0
0
0
0
0
0
0
0
0
0
0
0
2.10244e-18
4.76573e-17
1.77236e-15
7.23782e-14
2.08831e-12
3.74725e-11
5.02534e-10
2.59514e-09
4.21502e-10
6.11186e-11
1.7084e-10
1.04119e-09
7.26269e-09
2.04611e-08
0
0
0
9.88239e-06
1.69459e-06
5.63676e-09
2.69718e-07
)
;
    }
    defaultFaces
    {
        type            empty;
    }
}


// ************************************************************************* //
