/*--------------------------------*- C++ -*----------------------------------*\
| =========                 |                                                 |
| \\      /  F ield         | OpenFOAM: The Open Source CFD Toolbox           |
|  \\    /   O peration     | Version:  2012                                  |
|   \\  /    A nd           | Website:  www.openfoam.com                      |
|    \\/     M anipulation  |                                                 |
\*---------------------------------------------------------------------------*/
FoamFile
{
    version     2.0;
    format      ascii;
    class       volScalarField;
    location    "1.5";
    object      minKappa;
}
// * * * * * * * * * * * * * * * * * * * * * * * * * * * * * * * * * * * * * //

dimensions      [0 0 0 0 0 0 0];


internalField   nonuniform List<scalar> 
160
(
4.365575878e-05
3.994425466e-05
3.994425466e-05
8.302013396e-05
8.302013396e-05
0.0001028938058
0.000143906836
0.0001912782997
0.0002418775868
0.0003009896586
0.0003630023924
0.0004235257602
0.0004922565463
0.0005589588182
0.0006173848772
0.000677585541
0.0007328351735
0.0007887140654
0.0008607420809
0.0009288083503
0.001004599282
0.001101652831
0.001194418339
0.001247011327
0.001250592903
0.001161862739
0.001161862739
0.001131767283
0.001006331491
0.0009665660492
0.0007973440631
0.0007973440631
0.0007241378278
0.0004405673631
0.0004405673631
0.0002951078805
0.0002951078805
0.0005689349371
0.0008615765344
0.001196664099
0.001516500175
0.001863542329
0.002197260653
0.002545146245
0.00300847374
0.003180740045
0.003503030035
0.003711150842
0.003950226735
0.004100592054
0.004275973846
0.00430592495
0.004371772803
0.004371772803
0.004222182982
0.004119910961
0.003876257009
0.003705833125
0.003413665872
0.003149118333
0.002845551967
0.002556263271
0.00230779806
0.00211292809
0.001836008293
0.0016173528
0.001301490926
0.0009829061882
0.0006993272036
0.000553670819
0.0004496989537
0.0001589516268
0.0001589516268
0.0002874822334
0.0004231401819
0.0005762852995
0.0006904633266
0.0008346118263
0.0009514764882
0.001110846443
0.001235614398
0.001245416016
0.001309132004
0.001309132004
0.001340858278
0.001340858278
0.001399610946
0.001606371569
0.001665835834
0.001712797094
0.001740655825
0.001764166397
0.001771373618
0.001781693637
0.001781693637
0.001782877464
0.001782877464
0.001779042902
0.001779042902
0.001771044331
0.00176849454
0.001760527988
0.001757222547
0.00174817892
0.001745189737
0.001736290831
0.001730624433
0.0017182735
0.001708257662
0.001691964084
0.001670329851
0.001626021447
0.001553997842
0.001536872293
0.001453724266
0.001442628044
0.001442628044
0.00145138943
0.00143185403
0.001398777425
0.001371709576
0.001337772863
0.001294362308
0.00124044344
0.001229599138
0.001181646129
0.001181646129
0.001205209641
0.001207027328
0.001228607283
0.00124471711
0.001259967058
0.001271828215
0.001271828215
0.001260642275
0.001184397682
0.001101134185
0.0009547553377
0.0009073876711
0.0008948267332
0.0008437621017
0.0007422246901
0.0006555300586
0.0005572288766
0.0004578733877
0.0004003710453
0.0002448887328
0.0001414735722
0.0001414735722
0.0001475375232
0.0001336854574
0.0001336854574
0.0001428464165
0.0001380778653
0.0001306984447
0.0001263365792
0.0001263365792
0.0001013745004
0.0001013745004
0.0001131185876
)
;

boundaryField
{
    sides
    {
        type            calculated;
        value           uniform 0;
    }
    empty1
    {
        type            empty;
    }
    empty2
    {
        type            empty;
    }
}


// ************************************************************************* //
