/*--------------------------------*- C++ -*----------------------------------*\
| =========                 |                                                 |
| \\      /  F ield         | OpenFOAM: The Open Source CFD Toolbox           |
|  \\    /   O peration     | Version:  2012                                  |
|   \\  /    A nd           | Website:  www.openfoam.com                      |
|    \\/     M anipulation  |                                                 |
\*---------------------------------------------------------------------------*/
FoamFile
{
    version     2.0;
    format      ascii;
    class       volScalarField;
    location    "1.5";
    object      rho2;
}
// * * * * * * * * * * * * * * * * * * * * * * * * * * * * * * * * * * * * * //

dimensions      [1 -3 0 0 0 0 0];


internalField   nonuniform List<scalar> 
160
(
5.51853945
5.520052527
5.522607429
5.525289469
5.528585694
5.530812193
5.535208583
5.537751373
5.543163027
5.545797715
5.551752459
5.554333187
5.560956122
5.563653997
5.570613578
5.572715525
5.579066037
5.579938885
5.584900977
5.584393977
5.587488773
5.585607051
5.586672522
5.582771326
5.569397302
5.565691904
5.551269095
5.544667014
5.528099079
5.51916038
5.496107954
5.48348814
5.461804934
5.442305995
5.423598804
5.390463467
5.367933483
5.329942936
5.304044961
5.261850367
5.232458201
5.18518342
5.152527868
5.098688844
5.062108977
5.002154405
4.961826493
4.896605528
4.852840118
4.782447553
4.736237548
4.661695109
4.629955437
4.539392357
4.497399021
4.427019317
4.385661793
4.319110291
4.281194874
4.219901368
4.187169294
4.133257985
4.105384788
4.054345079
4.020441558
4.046631436
4.006297473
4.043073547
4.010885288
4.06581142
4.041014845
4.12935442
4.113287648
4.228278927
4.228323734
4.364799656
4.407223398
4.609033093
4.686187778
4.943166103
5.061424155
5.314036562
5.460855133
5.712308596
5.944350131
6.253025145
6.676632267
6.922613668
7.690289029
8.102517468
8.994661915
9.43331874
10.40713587
10.90765339
11.98480625
12.55152097
13.72541144
14.35311804
15.60821109
16.28792211
17.60530939
18.32614752
19.68128167
20.4279075
21.79746764
22.55830147
23.93074284
24.70576123
26.10927101
26.93800763
28.49345367
29.29162776
30.0890093
30.93620772
32.09454762
33.15721014
34.2063245
34.74832241
35.89236142
36.4730328
37.62905417
38.144155
39.13544738
39.56608931
40.47179067
40.79914026
41.56857789
41.88586852
42.83456478
43.10680207
43.89647321
44.06719955
44.6531197
44.63808388
45.09025435
44.99713147
45.36249278
45.1730752
45.44960639
45.26654571
44.94406188
44.79197994
44.44160265
44.25518309
43.83162845
43.60079034
43.11335236
42.90944461
42.3790509
42.13688564
41.68328099
41.49394892
41.14727415
40.99400757
40.7407332
40.63746698
40.48271586
40.43138809
40.39544551
40.39250829
)
;

boundaryField
{
    sides
    {
        type            calculated;
        value           nonuniform List<scalar> 2(40.39250829 5.51853945);
    }
    empty1
    {
        type            empty;
    }
    empty2
    {
        type            empty;
    }
}


// ************************************************************************* //
