/*--------------------------------*- C++ -*----------------------------------*\
| =========                 |                                                 |
| \\      /  F ield         | OpenFOAM: The Open Source CFD Toolbox           |
|  \\    /   O peration     | Version:  2012                                  |
|   \\  /    A nd           | Website:  www.openfoam.com                      |
|    \\/     M anipulation  |                                                 |
\*---------------------------------------------------------------------------*/
FoamFile
{
    version     2.0;
    format      ascii;
    class       volScalarField;
    location    "1.5";
    object      volumeFraction1;
}
// * * * * * * * * * * * * * * * * * * * * * * * * * * * * * * * * * * * * * //

dimensions      [0 0 0 0 0 0 0];


internalField   nonuniform List<scalar> 
160
(
0.0001781715749
0.0001815100113
0.0001812674016
0.0001834099735
0.0001859609196
0.0001888451441
0.0001928271377
0.0001972138421
0.0002026038434
0.0002079760182
0.0002151975771
0.0002218973525
0.0002304468914
0.0002385787847
0.0002484826604
0.0002588567196
0.0002708441397
0.000282766591
0.0002976517114
0.0003113879122
0.000328430481
0.0003442928188
0.0003644183631
0.0003832676967
0.00040662235
0.0004278327485
0.0004556988332
0.0004794262935
0.0005124078647
0.0005410136194
0.0005806111666
0.0006072077344
0.0006379761386
0.0007040719678
0.0007430562937
0.0007930915471
0.0008393615501
0.0009052804474
0.0009572564481
0.00103796065
0.001099262327
0.001189492159
0.001266416051
0.00135825496
0.001467948997
0.001576804802
0.001693996021
0.001840652787
0.001966791259
0.002146831259
0.002313704393
0.002538937212
0.002719046001
0.003020358486
0.003294797129
0.00363669514
0.004053884072
0.004413107218
0.004989981914
0.005448279708
0.006287100295
0.006834876197
0.008000824131
0.008568995066
0.01028252663
0.01102980238
0.01324319109
0.01449589293
0.0173105371
0.01934614102
0.02248639243
0.02516783417
0.02904923698
0.03295297668
0.03715905033
0.04217231807
0.04729876204
0.0535049084
0.0596868069
0.06682580979
0.0751030188
0.08350698132
0.09202706306
0.1013689271
0.1116705367
0.1225205316
0.1345582877
0.1467631408
0.1604540802
0.1741266211
0.1893600079
0.2045605398
0.2208902346
0.2363793892
0.251356183
0.2651982651
0.2783331865
0.2896897895
0.300972088
0.3100083481
0.3195813951
0.3270772889
0.3334504471
0.3390722173
0.3437385544
0.346788936
0.3501293751
0.3519157392
0.354607587
0.3548054618
0.3555591875
0.3552130821
0.3554695143
0.3554737643
0.3554173601
0.3531262748
0.3510194018
0.3484084529
0.3443310871
0.3394821301
0.3337849907
0.3256977455
0.3175573404
0.3071738901
0.2965676328
0.2839270545
0.2708229857
0.2560161052
0.2409453929
0.2235427774
0.2072797162
0.189442409
0.1740122016
0.1594803573
0.1438344203
0.133200929
0.1182367966
0.1088103345
0.09503688583
0.08512348251
0.0758350682
0.0664815759
0.05794872668
0.04924180335
0.041855669
0.03425756392
0.02804216566
0.02190054138
0.01742358586
0.0130076556
0.009779357018
0.007021204587
0.005039962793
0.003496513265
0.002397097369
0.00159001044
0.001033767619
0.0006786831911
0.0004601289186
0.0003653117498
)
;

boundaryField
{
    sides
    {
        type            zeroGradient;
    }
    empty1
    {
        type            empty;
    }
    empty2
    {
        type            empty;
    }
}


// ************************************************************************* //
