/*--------------------------------*- C++ -*----------------------------------*\
| =========                 |                                                 |
| \\      /  F ield         | OpenFOAM: The Open Source CFD Toolbox           |
|  \\    /   O peration     | Version:  2012                                  |
|   \\  /    A nd           | Website:  www.openfoam.com                      |
|    \\/     M anipulation  |                                                 |
\*---------------------------------------------------------------------------*/
FoamFile
{
    version     2.0;
    format      ascii;
    class       volScalarField;
    location    "6e-05";
    object      pcorr;
}
// * * * * * * * * * * * * * * * * * * * * * * * * * * * * * * * * * * * * * //

dimensions      [1 -1 -2 0 0 0 0];


internalField   nonuniform List<scalar> 
5000
(
0
0
0
0
0
0
0
0
0
0
0
0
0
0
0
0
0
0
0
0
0
0
0
0
0
0
0
0
0
0
0
0
0
0
0
0
0
0
0
0
0
0
0
0
0
0
0
0
0
0
0
0
0
0
0
0
0
0
0
0
0
0
0
0
0
0
0
0
0
0
0
0
0
0
0
0
0
0
0
0
0
0
0
0
0
0
0
0
0
0
0
0
0
0
0
0
0
0
0
0
0
0
0
0
0
0
0
0
0
0
0
0
0
0
0
0
0
0
0
0
0
0
0
0
0
0
0
0
0
0
0
0
0
0
0
0
0
0
0
0
0
0
0
0
0
0
0
0
0
0
0
0
0
0
0
0
0
0
0
0
0
0
0
0
0
0
0
0
0
0
0
0
0
0
0
0
0
0
0
0
0
0
0
0
0
0
0
0
0
0
0
0
0
0
0
0
0
0
0
0
0
0
0
0
0
0
0
0
0
0
0
0
0
0
0
0
0
0
0
0
0
0
0
0
0
0
0
0
0
0
0
0
0
0
0
0
0
0
0
0
0
0
0
0
0
0
0
0
0
0
0
0
0
0
0
0
0
0
0
0
0
0
0
0
0
0
0
0
0
0
0
0
0
0
0
0
0
0
0
0
0
0
0
0
0
0
0
0
0
0
0
0
0
0
0
0
0
0
0
0
0
0
0
0
0
0
0
0
0
0
0
0
0
0
0
0
0
0
0
0
0
0
0
0
0
0
0
0
0
0
0
0
0
0
0
0
0
0
0
0
0
0
0
0
0
0
0
0
0
0
0
0
0
0
0
0
0
0
0
0
0
0
0
0
0
0
0
0
0
0
0
0
0
0
0
0
0
0
0
0
0
0
0
0
0
0
0
0
0
0
0
0
0
0
0
0
0
0
0
0
0
0
0
0
0
0
0
0
0
0
0
0
0
0
0
0
0
0
0
0
0
0
0
0
0
0
0
0
0
0
0
0
0
0
0
0
0
0
0
0
0
0
0
0
0
0
0
0
0
0
0
0
0
0
0
0
0
0
0
0
0
0
0
0
0
0
0
0
0
0
0
0
0
0
0
0
0
0
0
0
0
0
0
0
0
0
0
0
0
0
0
0
0
0
0
0
0
0
0
0
0
0
0
0
0
0
0
0
0
0
0
0
0
0
0
0
0
0
0
0
0
0
0
0
0
0
0
0
0
0
0
0
0
0
0
0
0
0
0
0
0
0
0
0
0
0
0
0
0
0
0
0
0
0
0
0
0
0
0
0
0
0
0
0
0
0
0
0
0
0
0
0
0
0
0
0
0
0
0
0
0
0
0
0
0
0
0
0
0
0
0
0
0
0
0
0
0
0
0
0
0
0
0
0
0
0
0
0
0
0
0
0
0
0
0
0
0
0
0
0
0
0
0
0
0
0
0
0
0
0
0
0
0
0
0
0
0
0
0
0
0
0
0
0
0
0
0
0
0
0
0
0
0
0
0
0
0
0
0
0
0
0
0
0
0
0
0
0
0
0
0
0
0
0
0
0
0
0
0
0
0
0
0
0
0
0
0
0
0
0
0
0
0
0
0
0
0
0
0
0
0
0
0
0
0
0
0
0
0
0
0
0
0
0
0
0
0
0
0
0
0
0
0
0
0
0
0
0
0
0
0
0
0
0
0
0
0
0
0
0
0
0
0
0
0
0
0
0
0
0
0
0
0
0
0
0
0
0
0
0
0
0
0
0
0
0
0
0
0
0
0
0
0
0
0
0
0
0
0
0
0
0
0
0
0
0
0
0
0
0
0
0
0
0
0
0
0
0
0
0
0
0
0
0
0
0
0
0
0
0
0
0
0
0
0
0
0
0
0
0
0
0
0
0
0
0
0
0
0
0
0
0
0
0
0
0
0
0
0
0
0
0
0
0
0
0
0
0
0
0
0
0
0
0
0
0
0
0
0
0
0
0
0
0
0
0
0
0
0
0
0
0
0
0
0
0
0
0
0
0
0
0
0
0
0
0
0
0
0
0
0
0
0
0
0
0
0
0
0
0
0
0
0
0
0
0
0
0
0
0
0
0
0
0
0
0
0
0
0
0
0
0
0
0
0
0
0
0
0
0
0
0
0
0
0
0
0
0
0
0
0
0
0
0
0
0
0
0
0
0
0
0
0
0
0
0
0
0
0
0
0
0
0
0
0
0
0
0
0
0
0
0
0
0
0
0
0
0
0
0
0
0
0
0
0
0
0
0
0
0
0
0
0
0
0
0
0
0
0
0
0
0
0
0
0
0
0
0
0
0
0
0
0
0
0
0
0
0
0
0
0
0
0
0
0
0
0
0
0
0
0
0
0
0
0
0
0
0
0
0
0
0
0
0
0
0
0
0
0
0
0
0
0
0
0
0
0
0
0
0
0
0
0
0
0
0
0
0
0
0
0
0
0
0
0
0
0
0
0
0
0
0
0
0
0
0
0
0
0
0
0
0
0
0
0
0
0
0
0
0
0
0
0
0
0
0
0
0
0
0
0
0
0
0
0
0
0
0
0
0
0
0
0
0
0
0
0
0
0
0
0
0
0
0
0
0
0
0
0
0
0
0
0
0
0
0
0
0
0
0
0
0
0
0
0
0
0
0
0
0
0
0
0
0
0
0
0
0
0
0
0
0
0
0
0
0
0
0
0
0
0
0
0
0
0
0
0
0
0
0
0
0
0
0
0
0
0
0
0
0
0
0
0
0
0
0
0
0
0
0
0
0
0
0
0
0
0
0
0
0
0
0
0
0
0
0
0
0
0
0
0
0
0
0
0
0
0
0
0
0
0
0
0
0
0
0
0
0
0
0
0
0
0
0
0
0
0
0
0
0
0
0
0
0
0
0
0
0
0
0
0
0
0
0
0
0
0
0
0
0
0
0
0
0
0
0
0
0
0
0
0
0
0
0
0
0
0
0
0
0
0
0
0
0
0
0
0
0
0
0
0
0
0
0
0
0
0
0
0
0
0
0
0
0
0
0
0
0
0
0
0
0
0
0
0
0
0
0
0
0
0
0
0
0
0
0
0
0
0
0
0
0
0
0
0
0
0
0
0
0
0
0
0
0
0
0
0
0
0
0
0
0
0
0
0
0
0
0
0
0
0
0
0
0
0
0
0
0
0
0
-6.993446796e-08
-1.363252709e-07
4.180841966e-08
2.498673752e-07
2.800729515e-07
4.15455183e-07
6.101615615e-07
7.698447053e-07
9.944595128e-07
1.328716431e-06
1.751133306e-06
2.134490455e-06
2.789749132e-06
3.426027113e-06
4.073822428e-06
4.674230133e-06
5.343551821e-06
5.91414468e-06
6.433703032e-06
6.932603117e-06
7.540000586e-06
8.05943734e-06
8.501464567e-06
9.037178233e-06
9.719051826e-06
1.036552017e-05
1.073948681e-05
1.114909855e-05
1.148840989e-05
1.192108865e-05
1.216319101e-05
1.240639182e-05
1.278292118e-05
1.312648623e-05
1.342433052e-05
1.392431444e-05
1.433800428e-05
1.491814316e-05
1.541916711e-05
1.600546031e-05
1.671847819e-05
1.755212707e-05
1.829239982e-05
1.934120374e-05
2.068328743e-05
2.226438053e-05
2.382056945e-05
2.568855029e-05
2.731246332e-05
2.876715123e-05
3.050349899e-05
3.217132667e-05
3.37641854e-05
3.552680749e-05
3.73267256e-05
3.927251525e-05
4.153544478e-05
4.381911913e-05
4.557665612e-05
4.689057796e-05
4.821746041e-05
4.95798691e-05
5.079018089e-05
5.19537316e-05
5.305360581e-05
5.390872541e-05
5.4603705e-05
5.505409266e-05
5.554662227e-05
5.587321756e-05
5.610108019e-05
5.615385586e-05
5.621638663e-05
5.596849213e-05
5.574750823e-05
5.55830257e-05
5.568442793e-05
5.531546886e-05
5.472739322e-05
5.436355342e-05
5.430956489e-05
5.406094157e-05
5.388676514e-05
5.37861859e-05
5.390219922e-05
5.373172871e-05
5.375515773e-05
5.409839551e-05
5.435373699e-05
5.459512602e-05
5.509257875e-05
5.566729519e-05
5.61780203e-05
5.674026612e-05
5.743935156e-05
5.811603857e-05
5.884927464e-05
5.956982309e-05
6.04986829e-05
6.125188468e-05
6.197224626e-05
6.269520235e-05
6.333813519e-05
6.389468013e-05
6.462303038e-05
6.537427823e-05
6.621863425e-05
6.6751315e-05
6.749241196e-05
6.853526331e-05
6.962465042e-05
704.0957249
1413.312775
1354.912851
1297.460854
1887.302394
2471.677477
2993.071911
3577.987695
4323.728662
4973.860336
5552.550408
6120.302857
6695.578433
7318.178148
8041.544938
8745.876191
9371.509317
9943.645849
10543.80469
11182.10285
11935.58685
12787.98121
13675.45203
14525.34134
15328.63652
16097.86828
16823.05472
17460.03372
18123.4769
18850.23503
19598.82538
20392.42429
21156.12404
21862.18606
22575.97431
23275.32101
23962.71807
24676.72502
25330.32836
25966.7742
26630.00224
27296.35972
27946.7472
28652.67512
29364.84528
30000.46776
30625.18967
31264.91952
31917.55149
32567.13757
33237.21986
33969.91202
34813.04222
35768.08247
36726.34761
37540.80101
38296.44129
39050.02209
39733.10993
40422.10492
41131.12578
41805.63377
42478.45667
43166.77691
43866.55338
44606.88846
45347.07136
46037.77207
46727.00171
47467.08665
48228.74945
49012.43787
49860.50681
50680.37716
51439.31338
52156.69209
52848.16678
53614.52707
54389.17825
55074.75508
55687.56827
56285.95349
56889.56439
57482.369
58162.86465
58870.1547
59497.66494
60130.83461
60818.06709
61555.91604
62308.60428
62999.43259
63678.74432
64367.57608
65084.8013
65838.02808
66680.53193
67517.86064
68233.51308
68976.64715
69719.05996
70418.69988
71134.22919
71881.1439
72585.83903
73237.43923
73893.67043
74569.47048
75248.78132
75982.4232
76704.12074
77331.67589
78009.68171
78717.37365
79409.09356
80086.8371
80787.76393
81537.17106
82301.39528
83084.74992
83878.49574
84678.83341
85470.80336
86266.49818
87129.03391
88026.18323
88863.02985
89660.25899
90447.28651
91271.18385
92020.75589
92675.43879
93335.31613
94035.07268
94741.24838
95476.79202
96280.81783
97025.07746
97684.93172
98357.2005
99052.58046
99780.74284
100579.4366
101352.3469
102056.2495
102790.5349
103584.5521
104380.1424
105129.6957
105857.1914
106613.3063
107326.957
108013.3132
108732.8522
109490.0723
110178.1541
110820.4858
111471.0965
112165.2724
113017.7919
113983.2966
114800.2112
115540.0964
116352.2481
117172.3368
117944.8818
118731.5054
119547.9106
120316.9608
121059.8835
121867.9315
122685.613
123479.366
124226.1236
124896.6449
125606.5834
126410.3966
127283.3694
128058.1754
128740.8465
129453.1921
130204.3979
130984.8151
131781.4076
132502.8989
133119.2377
133721.064
134378.8119
135042.5939
135681.9527
136335.3785
137027.614
137796.1315
138597.6481
139341.422
140049.162
140675.6365
141315.8353
142078.3081
142859.7079
143580.5501
144261.4591
144984.6064
145750.9679
146538.0722
147332.9754
148166.8288
148959.4767
149598.9591
150172.6614
150781.131
151452.4866
152179.6625
152996.5798
153815.0793
154528.7329
155216.0641
155972.8086
156773.8493
157538.0832
158290.4543
159094.9559
159867.548
160567.3518
161262.6631
161904.5553
162514.9464
163156.3675
163797.2978
164486.3576
165191.2953
165906.7538
166616.7264
167297.516
167950.4896
168574.9571
169102.1219
169632.3443
170184.2616
170765.7035
171444.3387
172145.0754
172706.4134
173234.6814
173759.851
174287.5497
174921.1163
175638.0118
176449.1941
177309.7983
178016.3545
178637.0022
179251.5868
179858.5657
180527.4627
181215.5214
181936.7472
182695.1432
183394.2589
184031.9707
184564.2351
185080.0398
185627.9125
186195.1715
186944.5774
187754.2421
188502.9531
189254.1794
189962.6223
190625.0714
191290.1497
191950.1994
192634.3495
193335.2901
194042.1709
194738.6703
195464.7097
196215.3753
196995.2863
197775.7552
198524.205
199319.2299
200192.1494
201065.1099
201801.6006
202480.5347
203165.1653
203760.8462
204364.2062
205000.4935
205622.6219
206303.9388
206949.0597
207644.3564
208454.7963
209205.7825
209952.9847
210773.4035
211698.0999
212627.0377
213377.481
214009.7722
214634.8267
215356.4489
216169.8865
216935.2202
217710.4097
218476.8294
219162.0184
219854.6827
220540.5845
221166.8753
221787.492
222418.8267
223020.338
223632.7424
224280.3893
224992.596
225732.6615
226441.4671
227034.816
227579.7744
228156.3659
228764.5162
229449.9845
230155.6034
230799.8416
231406.0278
232102.9159
232852.4043
233584.122
234271.5476
234879.8991
235457.4229
236074.9821
236732.3086
237424.1937
238155.12
238845.4226
239454.1914
240024.9905
240634.4351
241229.3055
241821.0502
242435.4667
243054.2941
243754.443
244544.5686
245425.5209
246314.4699
247083.2477
247761.0293
248492.6931
249272.853
249943.7969
250557.7036
251096.3287
251617.8145
252238.5859
252981.8562
253838.0146
254692.7898
255409.2634
256031.1634
256691.4343
257477.67
258268.2102
258920.9034
259542.8833
260188.0865
260937.8403
261732.3563
262538.5903
263315.9143
264039.4194
264836.321
265715.1561
266526.0108
267281.2344
267974.165
268628.1137
269336.117
270092.7763
270847.1497
271592.5493
272357.9421
273102.5321
273840.2657
274535.9023
275214.1201
275948.1065
276682.5463
277366.4306
278064.8318
278808.5635
279580.196
280375.2988
281195.187
282067.8574
282940.4863
283716.3613
284410.1058
285076.4901
285740.9649
286446.5974
287189.9556
287885.1013
288509.0925
289098.0852
289732.9371
290354.171
290973.1519
291672.8358
292364.8051
292964.7061
293551.8982
294104.2802
294616.7406
295148.6179
295690.5735
296312.6003
297032.2596
297762.4125
298527.4079
299372.4046
300216.2051
301068.5597
301819.2681
302480.0904
303164.0546
303802.2656
304416.9438
305041.0417
305691.5766
306417.8506
307181.2782
307956.0116
308646.0312
309253.6888
309820.1346
310482.0776
311331.1841
312291.5994
313244.1806
313993.3368
314630.1298
315280.1005
315890.3353
316468.8612
317105.9411
317805.3757
318488.1754
319183.3415
319898.8986
320641.1367
321408.1072
322172.4077
322874.5625
323545.2428
324276.0957
325034.4198
325770.3339
326456.1491
327114.0471
327777.8721
328417.659
329006.722
329572.1091
330134.8268
330754.7104
331517.8728
332364.9692
333196.4417
333921.2573
334578.8246
335216.931
335761.1157
336305.7593
336891.3177
337528.4374
338230.3576
338905.4719
339499.8964
340081.1256
340699.2744
341302.4351
341918.5625
342557.5104
343206.3905
343826.6825
344427.3236
345046.4935
345645.2794
346299.722
346944.0114
347489.0424
348041.2001
348670.2964
349288.2343
349965.5934
350719.8181
351372.3275
351956.9623
352552.1627
353166.8386
353813.3308
354442.8777
355054.2885
355719.6224
356381.5324
357117.2452
357862.8027
358646.2425
359435.7683
360137.9761
360763.5944
361336.3063
361941.7031
362600.1193
363309.0761
364081.351
364783.8195
365430.6628
366090.9003
366734.7677
367360.1454
367978.3448
368623.7976
369322.9111
370099.8902
370871.664
371538.5954
372181.1609
372827.8898
373470.7139
374166.3877
374911.393
375609.8084
376268.8552
376993.918
377779.5655
378566.5305
379362.3116
380126.6988
380863.0504
381649.5766
382433.3487
383143.9775
383849.6966
384515.5631
385161.4002
385878.6998
386547.2874
387172.6548
387713.5013
388231.9894
388769.967
389309.3993
389869.0682
390492.1486
391118.6897
391679.5248
392277.3322
392947.7394
393618.9341
394242.3796
394778.3651
395338.9907
396010.5611
396639.8106
397334.9663
398051.3749
398785.3832
399517.9152
400237.3351
400999.3409
401752.6172
402471.0826
403097.7819
403674.4459
404288.5567
404946.6694
405581.5713
406196.3915
406843.6882
407556.1113
408293.3275
408984.0586
409551.4846
410117.9672
410701.4659
411324.7944
411955.7034
412513.8328
413121.6106
413778.1103
414412.2182
415048.5291
415712.5547
416398.6336
417059.6189
417727.0293
418421.6195
419165.9282
419900.0842
420594.3314
421275.8508
421918.6303
422609.8597
423253.388
423854.9418
424457.1436
425088.4658
425758.1808
426343.8129
426943.1541
427653.0809
428394.1987
429118.07
429837.8958
430511.282
431172.6031
431823.4282
432437.5936
433072.3425
433729.6797
434417.379
435128.6726
435804.5629
436416.5539
436974.5461
437511.9323
438088.5517
438693.0745
439288.8567
439890.3321
440542.0427
441260.0286
442011.2645
442796.4185
443585.3088
444407.1319
445357.5987
446323.0401
447195.1854
447963.314
448704.2033
449437.6715
450167.9205
450932.9062
451659.2694
452376.9238
453007.5231
453625.3949
454316.353
454968.1544
455587.9632
456232.4928
456822.2902
457423.0613
458129.8517
458850.1532
459498.3556
460100.2525
460761.0072
461452.2283
462185.8632
463005.4624
463908.8489
464859.0696
465687.2345
466385.5607
467104.4825
467880.5737
468588.7048
469198.8805
469773.8426
470416.8821
471074.9904
471706.1892
472352.0785
473004.2468
473708.8208
474413.1308
475056.4421
475690.6541
476400.3516
477150.0622
477982.4578
478886.1552
479714.4782
480446.3225
481015.5646
481546.723
482023.4739
482523.7948
483107.894
483717.0959
484332.1299
484961.207
485685.9286
486441.0523
487190.0334
487902.2184
488572.2646
489259.0498
489965.6063
490662.8299
491333.922
491988.0458
492612.4829
493173.55
493714.6285
494300.8764
494850.6526
495366.5089
495897.9936
496541.1068
497372.9406
498211.9775
498914.4276
499515.1946
500070.9012
500640.8393
501251.4511
501927.7256
502603.8783
503204.1252
503813.8175
504429.6024
505080.5798
505783.1314
506530.5413
507262.447
508013.9845
508694.077
509354.46
510022.405
510667.2294
511302.107
511889.7061
512518.2082
513162.8671
513846.4568
514550.0266
515194.0283
515821.2523
516437.1144
517057.4033
517735.8523
518419.5204
519125.6367
519716.6242
520211.9309
520644.7132
521106.1062
521705.258
522407.6578
523278.0956
524136.1543
524931.3788
525665.2475
526392.0448
527149.0007
527907.4268
528641.8602
529341.6203
530025.6339
530690.4597
531384.9147
532046.341
532666.1502
533346.2843
534070.4468
534864.6183
535597.3017
536246.6692
536906.664
537604.2096
538267.7882
538949.7183
539711.2819
540465.6864
541212.9139
541900.0775
542551.6297
543186.5115
543817.6958
544527.2699
545333.6755
546185.1987
547048.7405
547839.1622
548630.0001
549383.8579
550092.2393
550738.9297
551351.9575
551905.4298
552428.1621
552959.5444
553538.3597
554197.402
554895.4976
555573.6166
556191.5452
556823.6608
557454.7322
558112.0308
558771.0019
559421.6241
560053.1729
560635.7066
561200.79
561740.7981
562345.819
563081.4305
563840.856
564601.9332
565337.312
566162.6028
567016.5604
567804.7539
568560.1966
569247.5438
569868.0575
570500.5972
571212.5623
571997.2525
572753.3143
573488.8761
574203.0099
574866.1692
575478.43
576110.4506
576849.5221
577657.8673
578378.6094
579086.1673
579790.0665
580484.3808
581251.7491
582004.1596
582766.4796
583501.361
584276.3169
585123.0698
585974.6161
586823.0345
587553.6797
588191.6577
588870.8096
589573.5765
590277.6865
590944.7324
591675.6372
592501.1745
593245.5814
593961.4718
594687.0436
595469.9325
596337.7295
597176.5938
597902.3531
598592.5736
599204.6809
599779.3202
600521.8119
601343.052
602092.584
602908.565
603703.4183
604441.32
605155.685
605831.8686
606548.1243
607306.4534
608109.3293
608900.8085
609732.1653
610625.1802
611433.6568
612230.5246
613009.6464
613718.6172
614474.2494
615212.5466
615887.1199
616566.3841
617208.5334
617919.0362
618651.9499
619368.33
620063.9487
620717.2248
621379.5647
622044.2442
622704.4501
623393.4105
624082.2516
624761.6062
625440.7886
626100.3836
626759.4697
627372.8609
627985.7197
628570.198
629154.2699
629771.0637
630387.3188
630998.8643
631609.6707
632200.5509
632790.8137
633375.8587
633960.3475
634550.128
635139.1331
635731.9891
636324.0092
636893.736
637462.6929
637979.4448
638495.3675
639028.0233
639559.7929
640196.6818
640832.5232
641506.0329
642178.2807
642845.0313
643510.4167
644168.9678
644826.0652
645465.2127
646102.8463
646716.2189
647328.0193
647930.1742
648530.5978
649157.9618
649783.3434
650392.7005
650999.9852
651547.8505
652093.5377
652667.6796
653239.1198
653871.7413
654501.0115
655148.8605
655790.8902
656438.2249
657094.8997
657719.4772
658364.826
658997.3304
659645.3466
660301.147
660966.3463
661626.2294
662290.7888
662945.312
663601.8688
664310.2428
665018.2631
665804.0873
666585.8333
667347.5345
668098.5413
668775.9314
669445.3001
670135.1661
670815.5231
671491.0522
672169.1848
672788.8518
673388.0588
674016.3939
674650.4724
675326.1977
675995.6233
676606.6082
677208.7626
677777.7585
678340.3111
678840.7721
679343.2844
679813.068
680310.8475
680895.7123
681483.9233
682146.9951
682797.6383
683398.4813
683996.442
684632.4587
685384.227
686296.7603
686629.8041
685310.2096
684588.6262
683923.5415
683255.9978
682588.3788
681913.4461
681229.1306
680545.0257
679860.9996
679188.481
678526.6201
677870.6278
677220.6112
676568.875
675916.6485
675262.8077
674607.7149
673951.3476
673298.0025
672643.6765
671982.9724
671321.4611
670658.2872
669994.445
669336.7187
668678.4508
668015.2959
667351.6675
666687.7593
666023.4485
665363.7733
664703.7644
664040.9298
663377.7868
662708.1704
662038.4829
661369.3124
660704.5404
660049.9138
659392.4274
658734.4061
658069.2056
657375.9139
656692.3571
656047.9246
655404.583
654743.8842
654092.3697
653453.6049
652798.7524
652127.2949
651471.996
650810.8031
650115.6071
649421.8222
648748.3448
648072.5041
647385.4837
646686.5212
645964.8113
645241.1938
644546.2798
643858.3277
643145.8496
642429.4017
641728.9891
641035.812
640336.4496
639616.9975
638897.547
638207.1305
637531.5371
636850.4762
636161.5026
635445.2524
634721.843
634015.2668
633314.2851
632624.4121
631943.0486
631261.091
630578.3371
629896.312
629221.6335
628550.5561
627858.8481
627148.4397
626441.3438
625738.2133
625059.2605
624396.5995
623715.5793
623024.1759
622352.5355
621691.628
621010.4005
620323.6465
619650.5846
618987.743
618320.3965
617630.5958
616920.5169
616217.4442
615520.3607
614832.3211
614166.3385
613496.8357
612816.3053
612131.4554
611434.698
610731.4688
610040.3405
609353.5591
608664.7579
607995.5774
607338.8294
606678.8621
606014.4761
605341.1667
604670.0486
603979.3284
603263.8641
602564.7252
601875.1586
601191.2848
600534.2637
599884.0011
599221.3178
598555.2276
597888.1088
597224.8956
596547.4692
595841.5566
595148.0614
594486.489
593819.9313
593125.8618
592404.6723
591668.8066
590946.9598
590245.8915
589553.4167
588849.9955
588124.1669
587391.47
586682.178
585983.448
585275.3001
584581.6686
583901.4795
583218.5731
582522.1412
581813.8256
581114.3512
580420.3964
579730.2768
579055.4138
578401.0811
577764.731
577117.0425
576431.4952
575724.1731
575033.0895
574356.3835
573659.7996
572948.0894
572253.8441
571570.5843
570905.3707
570266.0899
569621.2163
568971.1595
568316.6125
567640.6706
566953.7079
566265.7313
565568.3815
564860.937
564153.5066
563434.2628
562714.0528
562015.976
561325.249
560638.4211
559936.4132
559219.965
558522.7366
557838.9678
557157.4557
556475.9342
555800.2724
555132.5299
554456.0722
553768.1545
553076.776
552389.2698
551708.1069
551033.0686
550357.6374
549675.7287
548984.5541
548276.878
547561.1409
546866.1288
546190.4462
545497.7985
544772.1797
544046.5492
543341.9693
542631.6928
541920.6543
541215.3265
540489.7277
539750.0133
539030.3034
538331.7331
537654.3137
536987.1391
536303.6273
535615.5984
534942.2186
534284.3695
533630.7659
532965.3379
532282.8013
531596.5816
530919.4936
530229.1433
529510.974
528803.2303
528105.889
527398.323
526704.2326
526037.7114
525389.009
524733.6014
524053.2614
523361.5641
522676.0421
521996.7525
521320.105
520649.1075
519974.2847
519291.7508
518602.5472
517909.8944
517222.8663
516537.8128
515854.5487
515165.4533
514465.666
513768.5212
513088.9059
512419.6659
511732.4597
511025.2614
510304.5933
509588.6926
508902.5373
508231.3424
507566.1854
506880.4988
506176.1038
505478.4781
504784.1489
504105.8193
503438.8154
502772.4547
502099.4032
501405.0133
500696.2645
499999.9025
499310.4356
498622.6236
497924.9967
497231.0142
496553.2276
495857.1729
495155.7531
494456.1335
493742.5202
493028.3872
492310.0263
491603.328
490916.9274
490225.6418
489525.5337
488829.2077
488141.0366
487474.7614
486813.2626
486112.9047
485391.5064
484678.0177
483966.6125
483264.9351
482568.5508
481849.1356
481119.989
480410.0493
479706.5104
479010.8962
478342.2191
477680.3904
476986.3314
476298.0252
475646.9469
474983.3229
474299.4161
473627.2331
472980.8545
472334.2359
471653.1789
470947.5565
470241.7703
469541.5577
468843.2201
468146.4933
467449.6991
466766.5475
466103.9078
465434.6474
464752.0852
464061.1372
463361.995
462671.4168
461987.2661
461314.0219
460657.7918
459987.5985
459295.7706
458607.8126
457925.9842
457226.7635
456516.2779
455810.2836
455102.341
454400.202
453696.3612
453009.0031
452341.1242
451680.3364
451016.9725
450325.9009
449636.8693
448962.59
448270.1452
447547.15
446824.503
446137.488
445474.6505
444807.0505
444133.4956
443463.063
442795.8211
442109.4986
441396.9728
440699.6076
440034.772
439384.1365
438719.4811
438035.5402
437360.1425
436712.3634
436064.9837
435391.798
434693.5044
433985.1308
433287.0077
432596.9679
431914.7096
431237.1333
430557.6975
429880.9841
429206.4337
428523.7929
427839.7398
427176.732
426516.1179
425824.9055
425130.8656
424469.2932
423802.306
423096.7089
422378.5726
421667.2406
420958.9832
420268.7358
419586.3661
418890.8015
418199.3196
417517.3356
416835.251
416140.7087
415431.016
414732.5286
414028.8895
413312.0623
412613.4662
411928.5187
411250.1386
410571.743
409898.4352
409245.876
408610.2751
407976.9764
407329.5659
406683.663
406032.9956
405356.9109
404675.7621
403996.9955
403321.3605
402644.1791
401954.7343
401256.5377
400554.373
399837.1807
399119.9964
398412.6399
397689.2563
396969.4603
396282.3947
395602.9849
394919.4261
394235.5504
393551.2752
392869.7959
392192.2618
391516.4604
390828.4192
390136.9372
389446.9954
388745.6575
388037.8626
387337.2773
386642.2127
385945.2011
385242.7616
384541.9847
383841.5585
383133.6821
382414.1988
381701.8759
381008.7968
380333.0786
379675.3592
379009.9044
378327.8131
377634.2785
376932.1592
376230.9051
375546.2759
374877.6543
374203.7676
373514.9822
372836.9243
372181.8562
371517.002
370835.3794
370139.5647
369429.7309
368722.154
368001.9175
367268.6104
366547.5108
365853.382
365160.1209
364452.4853
363752.0463
363052.3693
362350.8984
361657.687
360980.4944
360316.401
359645.0142
358966.9689
358292.7892
357622.6025
356958.3918
356294.4596
355645.1464
354992.6359
354289.9868
353564.1753
352859.0217
352157.4885
351435.4305
350709.072
350000.3181
349299.7187
348608.9708
347924.8395
347231.3957
346529.5983
345829.5257
345132.5523
344428.7647
343702.2226
342976.8194
342266.5377
341555.1472
340853.8961
340173.139
339503.0913
338813.1522
338111.7406
337410.4359
336702.2165
336006.9463
335325.6167
334631.8449
333920.9311
333228.3545
332550.1976
331867.9808
331183.541
330499.2572
329814.0912
329121.2208
328414.0802
327710.0044
327007.1396
326294.9223
325601.2391
324920.1536
324241.0703
323565.067
322895.396
322231.9682
321555.4847
320869.5167
320185.8485
319498.5763
318810.4904
318124.1649
317451.7241
316803.666
316150.0144
315472.9878
314789.4107
314091.771
313384.7558
312679.5472
311972.4153
311277.8831
310595.275
309917.725
309235.2197
308546.1904
307860.1969
307176.9763
306500.8364
305841.2252
305198.4092
304544.4645
303871.0541
303192.7717
302518.204
301860.3759
301211.6369
300551.6074
299862.4713
299168.7291
298500.7937
297838.7748
297170.2076
296512.0038
295846.5425
295152.8232
294472.4911
293829.8671
293189.3475
292514.9764
291830.3304
291158.0119
290481.893
289797.2118
289093.8266
288379.3229
287665.5537
286967.2805
286283.6214
285586.0142
284892.5926
284226.938
283577.0044
282926.1419
282268.8325
281599.4496
280903.0958
280205.2955
279539.0525
278877.429
278218.5956
277578.3117
276940.2747
276286.0411
275594.3457
274881.3883
274188.5627
273508.2112
272825.0782
272132.0588
271418.4291
270687.2343
269950.0679
269226.942
268520.1427
267819.6914
267118.5273
266397.4527
265662.3535
264941.9779
264233.2715
263510.3442
262774.1492
262041.386
261343.1328
260686.5947
260039.9918
259385.117
258714.0706
258035.6035
257359.7008
256680.905
256008.0108
255340.46
254663.5581
253967.5296
253247.8237
252528.117
251834.2812
251154.9799
250471.3299
249777.7209
249074.7344
248366.9222
247648.4099
246945.1347
246278.7481
245608.426
244912.332
244218.9898
243540.274
242880.9373
242229.0564
241555.8
240865.4471
240180.3839
239509.6406
238859.4183
238209.5932
237518.3806
236791.1546
236073.6632
235379.9586
234697.0901
234016.0694
233320.9702
232611.0948
231913.593
231230.3146
230544.6557
229869.8093
229201.3464
228511.7289
227811.2454
227117.0815
226420.8074
225710.6468
225019.4231
224360.9603
223695.7828
223008.6485
222321.6131
221631.815
220933.0302
220244.2692
219563.2196
218876.6739
218177.5275
217480.3321
216809.4347
216148.6084
215490.5657
214829.1753
214169.0968
213526.7667
212872.9675
212193.346
211513.055
210845.0041
210184.1685
209523.5222
208855.4575
208167.3637
207466.2255
206773.2495
206084.4279
205391.6785
204675.4267
203955.5059
203258.6641
202576.6042
201907.9685
201219.1347
200492.8073
199771.2946
199066.6692
198352.4071
197634.6771
196932.7576
196238.7668
195559.6708
194899.9407
194230.2047
193546.1853
192868.6412
192211.378
191572.3202
190923.6039
190259.5267
189602.9993
188941.825
188258.0642
187553.293
186829.64
186127.3336
185465.6138
184805.6648
184111.4302
183395.5218
182682.8872
181988.6643
181311.0593
180628.8813
179949.0264
179265.0458
178572.6524
177886.125
177201.6742
176509.9374
175818.9449
175137.6735
174470.2865
173809.5144
173133.3684
172435.3027
171725.0056
171030.6486
170347.6424
169664.3695
168988.9701
168302.4397
167596.3783
166880.7988
166176.8881
165486.3572
164798.2402
164102.4986
163415.3112
162752.86
162086.7998
161409.9667
160728.5839
160034.7371
159335.6034
158631.4602
157910.7559
157200.6567
156498.2131
155791.091
155098.2671
154420.6201
153742.6936
153055.2004
152352.1214
151625.5968
150887.064
150165.9606
149471.2746
148788.0029
148111.4675
147450.2652
146790.0631
146119.0444
145441.3858
144763.7191
144092.4377
143419.0603
142738.6726
142059.9701
141368.3348
140662.3298
139976.7446
139311.7213
138640.6512
137966.179
137296.7331
136628.1763
135956.5944
135263.5492
134540.8361
133821.815
133127.1633
132443.9744
131750.214
131022.6859
130295.1565
129591.3655
128897.4523
128199.6657
127493.3079
126783.3538
126071.9038
125368.3857
124673.0602
123989.0893
123310.5475
122642.8932
121983.7855
121316.8561
120641.2769
119969.192
119304.3839
118627.8968
117939.1371
117251.5163
116583.8456
115925.3269
115242.6995
114551.5402
113868.5647
113192.2577
112522.784
111856.3047
111182.6616
110496.0209
109810.965
109151.1337
108509.2969
107852.2003
107178.3085
106499.2465
105815.5041
105135.154
104463.294
103791.1203
103110.2578
102426.3275
101731.7676
101038.156
100367.203
99691.40721
98992.62724
98271.8229
97552.62531
96847.70153
96141.57648
95435.40547
94715.41706
93992.90922
93286.78539
92584.00038
91895.92903
91229.89757
90561.71392
89875.6501
89194.74155
88536.76942
87880.5638
87209.15839
86539.56824
85879.65725
85210.02865
84520.92787
83825.10859
83138.5784
82465.71098
81803.12425
81120.50833
80413.18333
79721.28304
79042.46132
78357.62291
77662.05998
76972.75811
76297.39405
75612.86877
74912.84746
74204.26231
73508.50836
72815.39486
72093.56788
71361.84978
70649.4064
69956.88344
69279.94437
68613.65201
67942.98554
67263.08747
66587.57605
65918.7036
65245.19695
64565.16758
63883.71689
63205.63376
62531.91847
61859.3381
61166.94156
60452.09771
59757.0146
59089.34364
58409.35922
57712.50075
57006.74474
56294.4545
55595.18702
54906.86163
54216.87925
53520.51261
52817.78767
52110.29124
51415.17884
50736.6072
50066.46982
49380.23977
48669.16036
47967.58533
47263.79587
46550.40822
45859.02182
45184.37246
44508.03327
43828.31755
43158.08112
42501.64797
41836.89982
41158.02841
40473.29769
39780.99191
39087.75996
38393.84373
37694.40696
36980.1143
36263.91233
35570.42137
34889.33813
34208.93826
33518.40445
32817.80721
32123.88732
31438.67191
30751.95428
30060.78934
29377.99583
28695.31527
28001.21166
27300.95465
26593.63081
25890.95891
25184.8406
24471.80259
23769.88848
23071.0893
22378.76964
21681.38513
20959.27778
20239.34345
19548.92607
18890.81325
18244.85789
17582.92874
16902.36619
16222.99634
15571.92346
14921.21123
14236.3531
13542.90151
12837.87243
12123.18982
11425.70931
10723.93856
10014.35586
9311.783538
8612.97883
7921.835079
7235.006002
6551.720106
5863.909955
5172.600041
4472.256393
3779.256403
3125.421919
2488.407049
1836.164535
1185.28848
603.3007011
1.422048754
-9.9222859e-05
-9.874573343e-05
-9.80009464e-05
-9.729879614e-05
-9.655852352e-05
-9.579964366e-05
-9.511658443e-05
-9.443792142e-05
-9.380701148e-05
-9.321847979e-05
-9.259430933e-05
-9.192157702e-05
-9.123550333e-05
-9.054996449e-05
-8.990289767e-05
-8.924212962e-05
-8.850347738e-05
-8.783576095e-05
-8.719753277e-05
-8.65846693e-05
-8.590475032e-05
-8.521061958e-05
-8.453174465e-05
-8.386426197e-05
-8.315958969e-05
-8.252952571e-05
-8.19161384e-05
-8.13626439e-05
-8.073484445e-05
-8.010392923e-05
-7.945668189e-05
-7.884429006e-05
-7.813917496e-05
-7.740411457e-05
-7.669227872e-05
-7.60460249e-05
-7.538540849e-05
-7.472826525e-05
-7.402120949e-05
-7.332968143e-05
-7.26134892e-05
-7.183255634e-05
-7.104966007e-05
-7.03063479e-05
-6.958038276e-05
-6.886035757e-05
-6.811411427e-05
-6.732379805e-05