/*--------------------------------*- C++ -*----------------------------------*\
| =========                 |                                                 |
| \\      /  F ield         | OpenFOAM: The Open Source CFD Toolbox           |
|  \\    /   O peration     | Version:  2012                                  |
|   \\  /    A nd           | Website:  www.openfoam.com                      |
|    \\/     M anipulation  |                                                 |
\*---------------------------------------------------------------------------*/
FoamFile
{
    version     2.0;
    format      ascii;
    class       volVectorField;
    location    "6e-05";
    object      U;
}
// * * * * * * * * * * * * * * * * * * * * * * * * * * * * * * * * * * * * * //

dimensions      [0 1 -1 0 0 0 0];


internalField   nonuniform List<vector> 
5000
(
(3.827048535e-14 0 0)
(7.360272472e-14 0 0)
(7.386536546e-14 0 0)
(3.975753263e-14 0 0)
(-4.923902121e-15 0 0)
(-4.130504293e-14 0 0)
(-6.147191789e-14 0 0)
(-6.980476802e-14 0 0)
(-7.630242346e-14 0 0)
(-7.806994329e-14 0 0)
(-7.615087673e-14 0 0)
(-6.769692051e-14 0 0)
(-5.137581604e-14 0 0)
(-4.063085599e-14 0 0)
(-2.944736089e-14 0 0)
(-2.17766103e-14 0 0)
(-1.162640804e-14 0 0)
(-9.222229859e-15 0 0)
(-5.361474162e-15 0 0)
(-2.347486592e-15 0 0)
(-7.179424322e-16 0 0)
(-1.683378739e-15 0 0)
(-4.65849093e-15 0 0)
(-8.880449444e-15 0 0)
(-1.297588081e-14 0 0)
(-1.037624544e-14 0 0)
(-7.490094219e-15 0 0)
(-3.285042276e-15 0 0)
(-3.639463812e-15 0 0)
(-6.428868354e-15 0 0)
(-7.37082373e-15 0 0)
(-1.041554566e-14 0 0)
(-1.71315388e-14 0 0)
(-2.066192359e-14 0 0)
(-2.459126339e-14 0 0)
(-3.125292788e-14 0 0)
(-4.362158255e-14 0 0)
(-5.685506166e-14 0 0)
(-6.033586697e-14 0 0)
(-6.118311277e-14 0 0)
(-6.288999669e-14 0 0)
(-5.853294144e-14 0 0)
(-5.36244636e-14 0 0)
(-4.601831296e-14 0 0)
(-4.652740403e-14 0 0)
(-4.635101951e-14 0 0)
(-4.359562007e-14 0 0)
(-3.993006695e-14 0 0)
(-2.435573047e-14 0 0)
(-6.181465557e-15 0 0)
(1.748101271e-14 0 0)
(4.744717868e-14 0 0)
(6.611787113e-14 0 0)
(8.574044235e-14 0 0)
(9.533045858e-14 0 0)
(9.962997037e-14 0 0)
(9.934877143e-14 0 0)
(9.644393787e-14 0 0)
(8.755191085e-14 0 0)
(7.791373615e-14 0 0)
(6.147076973e-14 0 0)
(4.296600702e-14 0 0)
(2.784564202e-14 0 0)
(1.110650495e-14 0 0)
(-8.254017406e-16 0 0)
(-1.774712915e-14 0 0)
(-2.500701195e-14 0 0)
(-3.355678508e-14 0 0)
(-3.594982768e-14 0 0)
(-3.407777592e-14 0 0)
(-2.967596726e-14 0 0)
(-2.470564498e-14 0 0)
(-1.976695014e-14 0 0)
(-1.94358574e-14 0 0)
(-2.289722894e-14 0 0)
(-2.405054468e-14 0 0)
(-2.248266351e-14 0 0)
(-1.709197474e-14 0 0)
(-1.693955205e-14 0 0)
(-1.971749248e-14 0 0)
(-2.179696569e-14 0 0)
(-2.179258239e-14 0 0)
(-2.716748071e-14 0 0)
(-2.943743366e-14 0 0)
(-2.975392657e-14 0 0)
(-2.873251482e-14 0 0)
(-3.500109439e-14 0 0)
(-3.691754219e-14 0 0)
(-4.076425316e-14 0 0)
(-4.268546085e-14 0 0)
(-4.23751328e-14 0 0)
(-3.786726565e-14 0 0)
(-3.051053129e-14 0 0)
(-2.788137193e-14 0 0)
(-3.020220991e-14 0 0)
(-3.114447579e-14 0 0)
(-3.085519705e-14 0 0)
(-1.96495717e-14 0 0)
(-1.346857513e-14 0 0)
(-4.560214396e-15 0 0)
(1.35903197e-14 0 0)
(1.91503191e-14 0 0)
(2.445633475e-14 0 0)
(2.544440213e-14 0 0)
(3.180229525e-14 0 0)
(3.942073153e-14 0 0)
(5.502242888e-14 0 0)
(6.735922869e-14 0 0)
(8.160810757e-14 0 0)
(9.193537534e-14 0 0)
(9.664197582e-14 0 0)
(9.010897473e-14 0 0)
(8.032741978e-14 0 0)
(6.654522537e-14 0 0)
(5.358997164e-14 0 0)
(3.574120484e-14 0 0)
(2.382968428e-14 0 0)
(1.28915856e-14 0 0)
(1.150005954e-14 0 0)
(8.495905499e-15 0 0)
(7.388720991e-15 0 0)
(-2.876732664e-16 0 0)
(-6.057135141e-15 0 0)
(-1.215682709e-14 0 0)
(-1.768804571e-14 0 0)
(-1.91532333e-14 0 0)
(-1.886980365e-14 0 0)
(-1.951360192e-14 0 0)
(-2.473787271e-14 0 0)
(-2.917570272e-14 0 0)
(-3.061573704e-14 0 0)
(-3.223307062e-14 0 0)
(-3.115733736e-14 0 0)
(-2.480085094e-14 0 0)
(-1.631317433e-14 0 0)
(-8.575504639e-15 0 0)
(7.680657106e-15 0 0)
(2.07649547e-14 0 0)
(3.35093347e-14 0 0)
(3.877207982e-14 0 0)
(4.072015413e-14 0 0)
(4.256913135e-14 0 0)
(4.042289009e-14 0 0)
(3.585190879e-14 0 0)
(2.813749175e-14 0 0)
(1.912324668e-14 0 0)
(1.096315317e-14 0 0)
(-1.710948703e-16 0 0)
(-7.286787769e-15 0 0)
(-1.644519552e-14 0 0)
(-1.975866237e-14 0 0)
(-2.295070759e-14 0 0)
(-2.434593801e-14 0 0)
(-2.6670866e-14 0 0)
(-2.969673815e-14 0 0)
(-3.508478578e-14 0 0)
(-4.231193878e-14 0 0)
(-5.209991371e-14 0 0)
(-5.8669784e-14 0 0)
(-5.550391604e-14 0 0)
(-4.909710265e-14 0 0)
(-4.652813801e-14 0 0)
(-3.810265308e-14 0 0)
(-3.503493204e-14 0 0)
(-2.722924055e-14 0 0)
(-2.624007097e-14 0 0)
(-2.536560108e-14 0 0)
(-2.313730983e-14 0 0)
(-2.188811866e-14 0 0)
(-2.464624285e-14 0 0)
(-2.097104637e-14 0 0)
(-1.499583784e-14 0 0)
(-1.047875903e-14 0 0)
(-3.26169195e-15 0 0)
(-1.743047973e-15 0 0)
(-2.815903912e-15 0 0)
(-7.861292736e-15 0 0)
(-1.6978164e-14 0 0)
(-2.11688188e-14 0 0)
(-2.671940079e-14 0 0)
(-2.54866208e-14 0 0)
(-2.446208546e-14 0 0)
(-2.571450705e-14 0 0)
(-2.749331669e-14 0 0)
(-2.233322118e-14 0 0)
(-1.269216489e-14 0 0)
(-7.904893235e-15 0 0)
(-1.668408814e-15 0 0)
(8.258350056e-16 0 0)
(3.706641284e-15 0 0)
(4.258812491e-15 0 0)
(7.889393621e-15 0 0)
(1.496842257e-14 0 0)
(1.96670769e-14 0 0)
(2.00129818e-14 0 0)
(2.260991315e-14 0 0)
(2.016009677e-14 0 0)
(1.865893406e-14 0 0)
(1.899974244e-14 0 0)
(1.894900599e-14 0 0)
(1.634192294e-14 0 0)
(1.792468272e-14 0 0)
(1.102566888e-14 0 0)
(4.462841724e-15 0 0)
(-2.219411933e-15 0 0)
(-5.567686979e-15 0 0)
(-5.931345891e-15 0 0)
(-3.199832996e-15 0 0)
(3.069740672e-15 0 0)
(4.04369465e-15 0 0)
(5.929111305e-15 0 0)
(6.037506379e-15 0 0)
(4.851596693e-15 0 0)
(1.862848693e-15 0 0)
(-2.013661684e-15 0 0)
(-2.047562393e-15 0 0)
(2.163743878e-15 0 0)
(4.595295216e-15 0 0)
(5.196948944e-15 0 0)
(3.6258024e-15 0 0)
(-3.900681198e-16 0 0)
(-1.077087253e-14 0 0)
(-2.190655738e-14 0 0)
(-2.371087211e-14 0 0)
(-2.199991384e-14 0 0)
(-1.765064482e-14 0 0)
(-1.539150999e-14 0 0)
(-1.679166578e-14 0 0)
(-1.698646682e-14 0 0)
(-1.912959114e-14 0 0)
(-1.794784822e-14 0 0)
(-1.384673456e-14 0 0)
(-9.265547246e-15 0 0)
(1.533292742e-15 0 0)
(1.145962754e-14 0 0)
(2.073592265e-14 0 0)
(2.131554494e-14 0 0)
(1.960812086e-14 0 0)
(1.724857221e-14 0 0)
(1.692578899e-14 0 0)
(9.435818345e-15 0 0)
(1.876092224e-15 0 0)
(-2.690554916e-15 0 0)
(-3.747194035e-15 0 0)
(-2.616862116e-15 0 0)
(1.00388723e-14 0 0)
(2.375371518e-14 0 0)
(4.105502501e-14 0 0)
(5.1896911e-14 0 0)
(5.293709226e-14 0 0)
(5.544217159e-14 0 0)
(5.156230462e-14 0 0)
(4.894254028e-14 0 0)
(5.218733354e-14 0 0)
(5.428351566e-14 0 0)
(5.68538718e-14 0 0)
(5.172085485e-14 0 0)
(4.741254737e-14 0 0)
(3.649730375e-14 0 0)
(3.068396802e-14 0 0)
(2.503130849e-14 0 0)
(2.136329926e-14 0 0)
(1.257718208e-14 0 0)
(6.988715041e-15 0 0)
(4.170215009e-15 0 0)
(3.655468104e-15 0 0)
(4.429325248e-15 0 0)
(3.474228131e-15 0 0)
(-5.345204919e-16 0 0)
(-7.284279831e-15 0 0)
(-5.8572016e-15 0 0)
(-4.716544245e-15 0 0)
(-7.628339574e-15 0 0)
(-1.612835107e-15 0 0)
(4.852267498e-15 0 0)
(9.477300729e-15 0 0)
(1.332767726e-14 0 0)
(1.487150869e-14 0 0)
(1.255232935e-14 0 0)
(5.659159885e-15 0 0)
(-8.889737843e-15 0 0)
(-1.994637941e-14 0 0)
(-2.524094697e-14 0 0)
(-2.432594342e-14 0 0)
(-1.76672341e-14 0 0)
(-1.096165944e-14 0 0)
(-6.3939993e-15 0 0)
(-6.638219093e-15 0 0)
(-1.207133737e-14 0 0)
(-1.363908512e-14 0 0)
(-1.541882817e-14 0 0)
(-1.388109092e-14 0 0)
(-1.217498189e-14 0 0)
(-1.049334115e-14 0 0)
(-6.237829861e-15 0 0)
(-2.863075804e-15 0 0)
(-4.86655755e-17 0 0)
(4.669155761e-15 0 0)
(1.107637065e-14 0 0)
(1.102908403e-14 0 0)
(1.216511511e-14 0 0)
(9.437072646e-15 0 0)
(6.506104494e-15 0 0)
(5.727306336e-15 0 0)
(5.027523556e-15 0 0)
(5.33423392e-16 0 0)
(-6.433057972e-15 0 0)
(-1.008182372e-14 0 0)
(-1.030227621e-14 0 0)
(-1.008193219e-14 0 0)
(-5.164927669e-15 0 0)
(-2.407809461e-16 0 0)
(7.441016624e-15 0 0)
(1.305077674e-14 0 0)
(1.818309773e-14 0 0)
(1.841798883e-14 0 0)
(1.623478572e-14 0 0)
(1.697751401e-14 0 0)
(1.310149817e-14 0 0)
(1.178669453e-14 0 0)
(1.029529366e-14 0 0)
(8.081643619e-15 0 0)
(2.826532702e-15 0 0)
(-7.677961341e-16 0 0)
(6.889139095e-15 0 0)
(1.115967805e-14 0 0)
(1.527430309e-14 0 0)
(1.498112277e-14 0 0)
(1.307925209e-14 0 0)
(6.838345148e-15 0 0)
(-5.92452366e-16 0 0)
(-8.819298097e-15 0 0)
(-1.371215346e-14 0 0)
(-2.362645642e-14 0 0)
(-2.5331715e-14 0 0)
(-2.985689849e-14 0 0)
(-3.681251055e-14 0 0)
(-4.359573025e-14 0 0)
(-4.820784767e-14 0 0)
(-5.71028079e-14 0 0)
(-6.10087856e-14 0 0)
(-5.385280875e-14 0 0)
(-3.773006678e-14 0 0)
(-2.113249543e-14 0 0)
(-7.423278673e-15 0 0)
(-1.425787034e-17 0 0)
(1.130601539e-15 0 0)
(8.393988259e-15 0 0)
(1.153425113e-14 0 0)
(1.316628319e-14 0 0)
(8.654005064e-15 0 0)
(-1.448834824e-15 0 0)
(-7.931931708e-15 0 0)
(-1.523138767e-14 0 0)
(-1.838451979e-14 0 0)
(-1.342931857e-14 0 0)
(-2.025520312e-15 0 0)
(4.291028045e-15 0 0)
(1.499951034e-14 0 0)
(2.385990209e-14 0 0)
(2.897942379e-14 0 0)
(3.904049391e-14 0 0)
(4.399928653e-14 0 0)
(4.325683264e-14 0 0)
(4.180627473e-14 0 0)
(4.108886689e-14 0 0)
(3.752150881e-14 0 0)
(3.34010877e-14 0 0)
(2.920497484e-14 0 0)
(1.495322917e-14 0 0)
(3.691935237e-15 0 0)
(-9.066542577e-15 0 0)
(-1.450391121e-14 0 0)
(-1.51432969e-14 0 0)
(-1.281750836e-14 0 0)
(-8.884646405e-15 0 0)
(-3.865534842e-15 0 0)
(-2.881285432e-15 0 0)
(-4.163962025e-15 0 0)
(-4.287601778e-15 0 0)
(-2.598155933e-15 0 0)
(1.479269403e-15 0 0)
(4.60731035e-15 0 0)
(6.220199917e-15 0 0)
(8.520107758e-15 0 0)
(6.097499271e-15 0 0)
(3.366022344e-15 0 0)
(9.355678495e-15 0 0)
(1.72737626e-14 0 0)
(1.995240465e-14 0 0)
(2.102613595e-14 0 0)
(1.406197414e-14 0 0)
(5.70000794e-15 0 0)
(-5.92241786e-15 0 0)
(-1.100427297e-14 0 0)
(-1.156317956e-14 0 0)
(-1.296912801e-14 0 0)
(-1.381939916e-14 0 0)
(-1.402430284e-14 0 0)
(-1.278177208e-14 0 0)
(-5.634530527e-15 0 0)
(-2.276102421e-15 0 0)
(-3.179185741e-15 0 0)
(-3.907388687e-15 0 0)
(-1.03710283e-14 0 0)
(-2.473044274e-14 0 0)
(-3.811922037e-14 0 0)
(-4.292864708e-14 0 0)
(-3.607623063e-14 0 0)
(-2.901852532e-14 0 0)
(-1.848193342e-14 0 0)
(-1.248607128e-14 0 0)
(-5.940117605e-15 0 0)
(1.788146187e-15 0 0)
(1.100150785e-14 0 0)
(1.542798494e-14 0 0)
(1.341259844e-14 0 0)
(1.898623613e-14 0 0)
(2.259781858e-14 0 0)
(2.927952367e-14 0 0)
(3.45072898e-14 0 0)
(3.59357637e-14 0 0)
(3.219475084e-14 0 0)
(2.252582423e-14 0 0)
(1.628998156e-14 0 0)
(1.553665814e-14 0 0)
(1.564288204e-14 0 0)
(1.596455122e-14 0 0)
(1.328839715e-14 0 0)
(9.602864202e-15 0 0)
(6.007459226e-15 0 0)
(-6.376163024e-16 0 0)
(-2.183032716e-15 0 0)
(-1.487565825e-15 0 0)
(-4.087053211e-16 0 0)
(-1.551242993e-15 0 0)
(-3.05596543e-15 0 0)
(-5.767113733e-15 0 0)
(-3.665936966e-15 0 0)
(-2.659743231e-15 0 0)
(-6.659711656e-15 0 0)
(-1.938808224e-14 0 0)
(-3.082855403e-14 0 0)
(-3.837644217e-14 0 0)
(-3.559687281e-14 0 0)
(-3.320366014e-14 0 0)
(-2.673300339e-14 0 0)
(-2.127957531e-14 0 0)
(-1.840062404e-14 0 0)
(-1.254127465e-14 0 0)
(-3.077356792e-15 0 0)
(5.758839723e-15 0 0)
(2.384753001e-15 0 0)
(8.5411193e-16 0 0)
(9.437090516e-16 0 0)
(1.770761224e-15 0 0)
(4.602155628e-15 0 0)
(7.9825202e-15 0 0)
(1.04027658e-14 0 0)
(1.187894833e-14 0 0)
(1.292494704e-14 0 0)
(1.584733656e-14 0 0)
(1.956799919e-14 0 0)
(2.243507829e-14 0 0)
(2.441304048e-14 0 0)
(2.314842231e-14 0 0)
(2.2006144e-14 0 0)
(2.285256127e-14 0 0)
(2.239674618e-14 0 0)
(2.018429365e-14 0 0)
(1.336654948e-14 0 0)
(1.76340176e-15 0 0)
(-7.179537336e-15 0 0)
(-1.081920516e-14 0 0)
(-1.859471848e-14 0 0)
(-2.751635213e-14 0 0)
(-2.376730971e-14 0 0)
(-1.583095227e-14 0 0)
(-8.34901791e-15 0 0)
(-9.704403717e-16 0 0)
(8.17593608e-15 0 0)
(9.717660314e-15 0 0)
(1.064961146e-14 0 0)
(1.095006802e-14 0 0)
(4.570772402e-15 0 0)
(-2.393202987e-15 0 0)
(-5.589412537e-15 0 0)
(-6.177079869e-15 0 0)
(-1.101559037e-14 0 0)
(-1.532611953e-14 0 0)
(-2.225257243e-14 0 0)
(-2.918202981e-14 0 0)
(-2.704732988e-14 0 0)
(-2.267145813e-14 0 0)
(-1.680591627e-14 0 0)
(-1.44584361e-14 0 0)
(-4.311199032e-15 0 0)
(2.385926629e-15 0 0)
(1.348012839e-14 0 0)
(1.898401474e-14 0 0)
(2.103382664e-14 0 0)
(2.171028032e-14 0 0)
(2.185181342e-14 0 0)
(2.073200177e-14 0 0)
(1.84537872e-14 0 0)
(1.236843634e-14 0 0)
(8.968805164e-15 0 0)
(9.212856325e-15 0 0)
(7.673540516e-15 0 0)
(6.976312029e-15 0 0)
(2.159255277e-15 0 0)
(2.010297388e-15 0 0)
(-3.553637198e-15 0 0)
(-6.753328784e-15 0 0)
(-1.273449703e-14 0 0)
(-1.10441427e-14 0 0)
(-6.953101723e-15 0 0)
(-2.736456859e-15 0 0)
(4.253657719e-15 0 0)
(9.906636702e-15 0 0)
(1.690213813e-14 0 0)
(2.13694718e-14 0 0)
(2.122582634e-14 0 0)
(2.142881152e-14 0 0)
(1.998092012e-14 0 0)
(1.901439283e-14 0 0)
(1.569653178e-14 0 0)
(1.378418546e-14 0 0)
(1.68688558e-14 0 0)
(2.119228709e-14 0 0)
(2.294076516e-14 0 0)
(2.135385255e-14 0 0)
(1.223969217e-14 0 0)
(1.805956532e-15 0 0)
(-1.342337945e-14 0 0)
(-2.138688084e-14 0 0)
(-2.036435424e-14 0 0)
(-1.601377274e-14 0 0)
(-9.779848323e-15 0 0)
(-4.313739231e-15 0 0)
(6.305382448e-15 0 0)
(1.053692244e-14 0 0)
(1.531733959e-14 0 0)
(1.596295382e-14 0 0)
(1.197047613e-14 0 0)
(7.959392728e-15 0 0)
(-2.157042021e-15 0 0)
(-6.947205536e-15 0 0)
(-1.467248158e-14 0 0)
(-1.435108464e-14 0 0)
(-1.312320144e-14 0 0)
(-1.458726762e-14 0 0)
(-1.589749817e-14 0 0)
(-1.572948013e-14 0 0)
(-1.358423276e-14 0 0)
(-1.245770341e-14 0 0)
(-7.66147262e-15 0 0)
(-1.503239913e-15 0 0)
(2.63786671e-15 0 0)
(6.61697118e-15 0 0)
(8.937977619e-15 0 0)
(9.614086754e-15 0 0)
(8.148652434e-15 0 0)
(2.295945704e-15 0 0)
(-3.087055623e-15 0 0)
(-3.96582953e-15 0 0)
(-4.416552988e-15 0 0)
(-5.708872817e-15 0 0)
(-4.09120008e-15 0 0)
(-2.391401515e-15 0 0)
(-1.684397986e-15 0 0)
(-3.584509016e-16 0 0)
(2.033586882e-15 0 0)
(9.920415721e-16 0 0)
(-2.918523727e-16 0 0)
(-6.42506187e-16 0 0)
(-6.286980177e-17 0 0)
(-1.268038954e-15 0 0)
(-8.059997305e-15 0 0)
(-1.050094712e-14 0 0)
(-9.971007468e-15 0 0)
(-4.851032825e-15 0 0)
(-1.298820572e-15 0 0)
(2.169089755e-15 0 0)
(3.355049404e-15 0 0)
(5.590548946e-15 0 0)
(4.662808915e-15 0 0)
(2.283345127e-15 0 0)
(4.169202763e-16 0 0)
(1.280350488e-15 0 0)
(1.918741477e-15 0 0)
(3.818324046e-16 0 0)
(-1.143462795e-15 0 0)
(1.610014198e-16 0 0)
(3.671608656e-15 0 0)
(5.080206077e-15 0 0)
(4.514831408e-15 0 0)
(1.91175431e-15 0 0)
(-1.021966859e-15 0 0)
(-3.652284063e-15 0 0)
(-8.762085277e-15 0 0)
(-1.351629516e-14 0 0)
(-1.29795538e-14 0 0)
(-1.247753052e-14 0 0)
(-8.370643066e-15 0 0)
(-1.313876147e-15 0 0)
(2.083602434e-15 0 0)
(8.19565523e-15 0 0)
(1.092765407e-14 0 0)
(8.778272361e-15 0 0)
(1.222839753e-14 0 0)
(1.206224862e-14 0 0)
(1.269305985e-14 0 0)
(6.521276813e-15 0 0)
(-4.906958563e-15 0 0)
(-1.319521334e-14 0 0)
(-1.619908809e-14 0 0)
(-1.677250034e-14 0 0)
(-1.213688735e-14 0 0)
(-8.943326388e-15 0 0)
(-5.202789831e-15 0 0)
(-1.188792474e-15 0 0)
(-1.784890669e-15 0 0)
(-2.428931912e-15 0 0)
(-4.60476658e-15 0 0)
(-6.765751526e-15 0 0)
(-6.667838581e-15 0 0)
(-6.12099646e-15 0 0)
(-8.34085e-15 0 0)
(-1.949863918e-15 0 0)
(5.413922927e-15 0 0)
(9.976508457e-15 0 0)
(1.593789197e-14 0 0)
(1.774583356e-14 0 0)
(1.87408439e-14 0 0)
(1.646372534e-14 0 0)
(1.554748675e-14 0 0)
(1.339144098e-14 0 0)
(1.546887873e-14 0 0)
(1.529044027e-14 0 0)
(1.528983923e-14 0 0)
(1.562732564e-14 0 0)
(1.168019949e-14 0 0)
(6.081167574e-15 0 0)
(1.848365603e-15 0 0)
(-5.971127655e-15 0 0)
(-9.318031567e-15 0 0)
(-1.18439578e-14 0 0)
(-1.186821105e-14 0 0)
(-9.66412328e-15 0 0)
(-4.997938377e-15 0 0)
(1.303639462e-15 0 0)
(8.312147496e-15 0 0)
(1.172745656e-14 0 0)
(1.997802778e-14 0 0)
(1.864511194e-14 0 0)
(1.431276392e-14 0 0)
(9.339006945e-15 0 0)
(-2.384742854e-15 0 0)
(-7.945959674e-15 0 0)
(-9.184735307e-15 0 0)
(-8.860323063e-15 0 0)
(-5.616212947e-15 0 0)
(6.36025424e-16 0 0)
(-2.023883669e-15 0 0)
(-3.419559861e-15 0 0)
(-5.243605626e-15 0 0)
(-4.38222076e-15 0 0)
(-3.458406021e-15 0 0)
(-5.867454739e-15 0 0)
(-3.622637934e-15 0 0)
(1.386200614e-15 0 0)
(3.337276663e-15 0 0)
(1.666328312e-15 0 0)
(-6.117441667e-16 0 0)
(-2.444547906e-15 0 0)
(-3.363881081e-15 0 0)
(-7.447683833e-15 0 0)
(-1.185693247e-14 0 0)
(-1.71986895e-14 0 0)
(-1.98481628e-14 0 0)
(-1.905104499e-14 0 0)
(-1.707832696e-14 0 0)
(-1.973060459e-14 0 0)
(-2.355887222e-14 0 0)
(-2.464212275e-14 0 0)
(-2.738746913e-14 0 0)
(-2.782462071e-14 0 0)
(-2.6267157e-14 0 0)
(-2.318200601e-14 0 0)
(-1.916553985e-14 0 0)
(-5.401152183e-15 0 0)
(7.561931397e-15 0 0)
(1.726533769e-14 0 0)
(2.627271212e-14 0 0)
(2.47598202e-14 0 0)
(2.602739797e-14 0 0)
(2.433527326e-14 0 0)
(1.613424838e-14 0 0)
(9.045321384e-15 0 0)
(6.387007864e-15 0 0)
(1.683552968e-15 0 0)
(1.975564169e-15 0 0)
(2.919415584e-15 0 0)
(3.714790919e-15 0 0)
(5.908582084e-15 0 0)
(3.769111533e-15 0 0)
(2.391549368e-15 0 0)
(5.038050277e-15 0 0)
(6.133015645e-15 0 0)
(5.989491617e-15 0 0)
(6.062966076e-15 0 0)
(6.933436325e-15 0 0)
(9.431235526e-15 0 0)
(1.419174067e-14 0 0)
(2.528813755e-14 0 0)
(2.92394188e-14 0 0)
(3.077820609e-14 0 0)
(3.092573503e-14 0 0)
(2.686888895e-14 0 0)
(1.970556598e-14 0 0)
(1.120812075e-14 0 0)
(2.186002248e-15 0 0)
(-3.299262582e-15 0 0)
(-8.001584242e-15 0 0)
(-1.285570446e-14 0 0)
(-1.765035598e-14 0 0)
(-1.81898238e-14 0 0)
(-1.678596944e-14 0 0)
(-1.676534944e-14 0 0)
(-1.124414988e-14 0 0)
(-2.730342025e-15 0 0)
(5.065634828e-15 0 0)
(8.180186366e-15 0 0)
(1.054621761e-14 0 0)
(1.194822374e-14 0 0)
(1.039928792e-14 0 0)
(7.499817839e-15 0 0)
(5.90741235e-15 0 0)
(1.691754602e-16 0 0)
(-3.81702241e-15 0 0)
(-6.000354629e-15 0 0)
(-9.640381089e-15 0 0)
(-1.335441224e-14 0 0)
(-1.890569568e-14 0 0)
(-2.787195392e-14 0 0)
(-3.127282712e-14 0 0)
(-2.752650957e-14 0 0)
(-2.212378425e-14 0 0)
(-1.670451743e-14 0 0)
(-6.284133901e-15 0 0)
(-5.932693099e-16 0 0)
(2.9705311e-15 0 0)
(8.302102901e-15 0 0)
(9.738961463e-15 0 0)
(1.011898376e-14 0 0)
(8.388350604e-15 0 0)
(1.852951204e-15 0 0)
(-1.10846007e-14 0 0)
(-2.20183877e-14 0 0)
(-3.034664307e-14 0 0)
(-3.161461292e-14 0 0)
(-2.692614458e-14 0 0)
(-1.448834913e-14 0 0)
(-1.538406097e-15 0 0)
(8.169391009e-15 0 0)
(1.344652388e-14 0 0)
(1.59654225e-14 0 0)
(1.181491966e-14 0 0)
(9.856645863e-15 0 0)
(7.154556085e-15 0 0)
(8.04498222e-15 0 0)
(8.709092828e-15 0 0)
(1.021583384e-14 0 0)
(1.016136172e-14 0 0)
(9.213019073e-15 0 0)
(8.122182926e-15 0 0)
(8.957971148e-15 0 0)
(1.077470276e-14 0 0)
(1.714376287e-14 0 0)
(1.869187876e-14 0 0)
(1.732691177e-14 0 0)
(8.371994419e-15 0 0)
(1.733810976e-15 0 0)
(-6.746073159e-16 0 0)
(-1.29689657e-15 0 0)
(-1.391205291e-15 0 0)
(-8.894968776e-16 0 0)
(-1.336681572e-15 0 0)
(-7.966721519e-17 0 0)
(1.239498244e-15 0 0)
(2.47937914e-15 0 0)
(4.675357527e-15 0 0)
(9.009007603e-15 0 0)
(6.188980592e-15 0 0)
(3.417613325e-15 0 0)
(-3.455689205e-15 0 0)
(-7.937623562e-15 0 0)
(-7.840319375e-15 0 0)
(-4.719695158e-15 0 0)
(-3.675744142e-15 0 0)
(-5.166982159e-15 0 0)
(-5.466131181e-15 0 0)
(-7.127208292e-15 0 0)
(-8.539070141e-15 0 0)
(-7.988648442e-15 0 0)
(-1.083782602e-14 0 0)
(-1.182751557e-14 0 0)
(-8.281318983e-15 0 0)
(-2.314237797e-15 0 0)
(2.78234872e-15 0 0)
(4.679496061e-16 0 0)
(-4.90231706e-16 0 0)
(-2.159392622e-15 0 0)
(-1.582919819e-15 0 0)
(-5.122579132e-16 0 0)
(-2.279659491e-15 0 0)
(-6.495451491e-15 0 0)
(-8.200880922e-15 0 0)
(-8.304132648e-15 0 0)
(-5.246621584e-15 0 0)
(-3.579792998e-15 0 0)
(6.143078495e-15 0 0)
(1.571388914e-14 0 0)
(2.560834311e-14 0 0)
(2.509811559e-14 0 0)
(2.415309895e-14 0 0)
(1.808906932e-14 0 0)
(4.806533358e-15 0 0)
(-4.159735599e-15 0 0)
(-1.12418213e-14 0 0)
(-1.2251307e-14 0 0)
(-1.70786674e-14 0 0)
(-1.736659485e-14 0 0)
(-1.489605141e-14 0 0)
(-8.250735123e-15 0 0)
(-3.095196348e-15 0 0)
(-2.224245202e-15 0 0)
(-3.902580929e-15 0 0)
(-5.634158229e-15 0 0)
(-6.154012521e-15 0 0)
(3.759117466e-16 0 0)
(8.660777801e-15 0 0)
(1.787666607e-14 0 0)
(2.280379895e-14 0 0)
(2.046154243e-14 0 0)
(1.754062023e-14 0 0)
(1.372300317e-14 0 0)
(1.152120899e-14 0 0)
(7.598629234e-15 0 0)
(-6.847835975e-16 0 0)
(-5.918671518e-15 0 0)
(-1.366933248e-14 0 0)
(-1.900891525e-14 0 0)
(-2.431467274e-14 0 0)
(-2.705656049e-14 0 0)
(-2.395658941e-14 0 0)
(-1.829885286e-14 0 0)
(-7.37519537e-15 0 0)
(9.394980342e-16 0 0)
(1.573662037e-15 0 0)
(6.764514049e-16 0 0)
(1.601108352e-15 0 0)
(1.326178757e-15 0 0)
(7.066084858e-16 0 0)
(3.212656007e-16 0 0)
(1.341456582e-15 0 0)
(2.808396044e-15 0 0)
(4.494416182e-15 0 0)
(2.009760552e-19 0 0)
(-7.12863643e-15 0 0)
(-1.717955952e-14 0 0)
(-2.288067171e-14 0 0)
(-2.416775808e-14 0 0)
(-2.25864133e-14 0 0)
(-1.734670733e-14 0 0)
(-1.203538287e-14 0 0)
(-9.055211794e-15 0 0)
(-4.805919967e-15 0 0)
(1.828487237e-16 0 0)
(1.080467071e-15 0 0)
(-2.418782328e-15 0 0)
(-1.254093367e-14 0 0)
(-1.946588563e-14 0 0)
(-2.510836924e-14 0 0)
(-2.669968568e-14 0 0)
(-2.85603485e-14 0 0)
(-2.648335625e-14 0 0)
(-2.958901612e-14 0 0)
(-3.004917394e-14 0 0)
(-3.111516302e-14 0 0)
(-3.150721812e-14 0 0)
(-3.089733302e-14 0 0)
(-3.173345284e-14 0 0)
(-2.334591209e-14 0 0)
(-1.725072692e-14 0 0)
(-8.877240169e-15 0 0)
(-2.983525198e-15 0 0)
(5.96611401e-15 0 0)
(9.482034004e-15 0 0)
(1.8213016e-14 0 0)
(2.376073364e-14 0 0)
(2.905812651e-14 0 0)
(3.193245217e-14 0 0)
(3.120165591e-14 0 0)
(3.188199126e-14 0 0)
(3.475482046e-14 0 0)
(2.965052308e-14 0 0)
(2.715486285e-14 0 0)
(2.062479116e-14 0 0)
(1.118723139e-14 0 0)
(1.02329585e-15 0 0)
(-3.44481372e-15 0 0)
(-5.292061793e-15 0 0)
(-6.166716573e-15 0 0)
(-6.883797552e-15 0 0)
(-4.30154974e-15 0 0)
(5.067959606e-16 0 0)
(3.991424894e-15 0 0)
(4.015695932e-15 0 0)
(9.344657686e-15 0 0)
(1.276264545e-14 0 0)
(2.192778201e-14 0 0)
(2.452322842e-14 0 0)
(2.230965831e-14 0 0)
(1.881386865e-14 0 0)
(1.93302463e-14 0 0)
(1.744363344e-14 0 0)
(1.621080138e-14 0 0)
(9.227232507e-15 0 0)
(4.141298236e-15 0 0)
(-1.919683587e-18 0 0)
(-1.842918193e-15 0 0)
(-4.096693668e-15 0 0)
(-4.508118637e-15 0 0)
(-3.597349903e-15 0 0)
(-4.824511181e-15 0 0)
(-3.212930467e-15 0 0)
(5.974579415e-15 0 0)
(1.585391221e-14 0 0)
(2.254794479e-14 0 0)
(2.095988184e-14 0 0)
(1.630231706e-14 0 0)
(9.85384621e-15 0 0)
(6.035080098e-15 0 0)
(4.418170468e-15 0 0)
(7.409731069e-15 0 0)
(9.786232423e-15 0 0)
(1.228680332e-14 0 0)
(1.201136587e-14 0 0)
(1.205122691e-14 0 0)
(7.134044933e-15 0 0)
(5.956044082e-15 0 0)
(5.531043464e-15 0 0)
(5.193394808e-15 0 0)
(5.394796374e-15 0 0)
(1.438643859e-16 0 0)
(9.536072986e-17 0 0)
(-6.546153885e-15 0 0)
(-7.716626606e-15 0 0)
(-5.988742522e-15 0 0)
(-1.071057791e-16 0 0)
(-2.202775111e-15 0 0)
(-6.706696589e-16 0 0)
(-2.110781669e-15 0 0)
(-5.312245375e-15 0 0)
(-7.957835609e-15 0 0)
(-8.166160017e-15 0 0)
(-7.964512228e-15 0 0)
(-8.046147263e-15 0 0)
(-8.279358085e-15 0 0)
(-9.001682305e-15 0 0)
(-6.146177215e-15 0 0)
(-5.216184808e-15 0 0)
(-4.689447665e-15 0 0)
(-5.31348692e-15 0 0)
(-1.155341309e-14 0 0)
(-1.694831388e-14 0 0)
(-2.331636137e-14 0 0)
(-2.23633381e-14 0 0)
(-2.623149578e-14 0 0)
(-2.649213623e-14 0 0)
(-2.92842498e-14 0 0)
(-3.309428582e-14 0 0)
(-3.172345048e-14 0 0)
(-2.865601189e-14 0 0)
(-2.289074866e-14 0 0)
(-2.22265807e-14 0 0)
(-2.655165222e-14 0 0)
(-3.41786843e-14 0 0)
(-3.866541501e-14 0 0)
(-3.695065892e-14 0 0)
(-3.181463739e-14 0 0)
(-2.958636044e-14 0 0)
(-2.438323359e-14 0 0)
(-2.223853296e-14 0 0)
(-2.230327232e-14 0 0)
(-2.283585294e-14 0 0)
(-2.555966882e-14 0 0)
(-2.830242499e-14 0 0)
(-3.118198878e-14 0 0)
(-3.0489487e-14 0 0)
(-2.670384971e-14 0 0)
(-1.954716129e-14 0 0)
(-1.496762907e-14 0 0)
(-6.539291493e-15 0 0)
(-2.794451484e-15 0 0)
(4.268886603e-15 0 0)
(8.794367539e-15 0 0)
(1.119463359e-14 0 0)
(8.868866404e-15 0 0)
(1.084977736e-14 0 0)
(1.806027635e-14 0 0)
(3.398818667e-14 0 0)
(4.202633521e-14 0 0)
(4.749964666e-14 0 0)
(4.567911745e-14 0 0)
(3.801109799e-14 0 0)
(2.409843711e-14 0 0)
(1.296783772e-14 0 0)
(-2.771862011e-15 0 0)
(-1.602659693e-14 0 0)
(-2.376521896e-14 0 0)
(-2.644756341e-14 0 0)
(-2.093943114e-14 0 0)
(-1.150761773e-14 0 0)
(5.906659058e-16 0 0)
(5.731040179e-15 0 0)
(9.264532426e-15 0 0)
(7.816030545e-15 0 0)
(4.439361864e-15 0 0)
(4.710672415e-15 0 0)
(8.499612096e-15 0 0)
(1.385258187e-14 0 0)
(1.717030145e-14 0 0)
(1.816625227e-14 0 0)
(1.694934687e-14 0 0)
(1.568494744e-14 0 0)
(1.606675538e-14 0 0)
(1.576277066e-14 0 0)
(1.63571463e-14 0 0)
(1.160763465e-14 0 0)
(6.854763546e-15 0 0)
(2.730585806e-15 0 0)
(1.731720957e-16 0 0)
(-1.423782755e-16 0 0)
(4.16920845e-15 0 0)
(6.19822156e-15 0 0)
(6.679599662e-15 0 0)
(1.750442475e-15 0 0)
(-3.730181486e-15 0 0)
(-1.189004558e-14 0 0)
(-1.293793891e-14 0 0)
(-1.225644635e-14 0 0)
(-6.340565508e-15 0 0)
(5.148114111e-15 0 0)
(1.637916742e-14 0 0)
(2.705731851e-14 0 0)
(3.407364339e-14 0 0)
(3.941942243e-14 0 0)
(3.562595598e-14 0 0)
(3.534507536e-14 0 0)
(2.824122127e-14 0 0)
(1.755097468e-14 0 0)
(8.833249971e-15 0 0)
(-1.024139619e-14 0 0)
(-2.133417726e-14 0 0)
(-3.441655068e-14 0 0)
(-4.04479631e-14 0 0)
(-4.250500339e-14 0 0)
(-3.761077997e-14 0 0)
(-2.717757949e-14 0 0)
(-1.379308833e-14 0 0)
(-7.908676859e-16 0 0)
(5.685106868e-15 0 0)
(9.734116649e-15 0 0)
(8.827889483e-15 0 0)
(6.407352145e-15 0 0)
(4.497048387e-15 0 0)
(1.36144485e-15 0 0)
(-2.486372626e-15 0 0)
(-7.066499476e-15 0 0)
(-1.416366981e-14 0 0)
(-2.448857356e-14 0 0)
(-3.395849455e-14 0 0)
(-4.253865758e-14 0 0)
(-5.029916338e-14 0 0)
(-5.415632111e-14 0 0)
(-5.65804818e-14 0 0)
(-5.457714137e-14 0 0)
(-4.210443234e-14 0 0)
(-2.41550139e-14 0 0)
(-4.89410177e-15 0 0)
(1.666239273e-14 0 0)
(3.574845115e-14 0 0)
(5.464532106e-14 0 0)
(5.80450423e-14 0 0)
(5.406577071e-14 0 0)
(4.118682522e-14 0 0)
(2.681361576e-14 0 0)
(2.136533249e-14 0 0)
(1.40193275e-14 0 0)
(6.606383557e-15 0 0)
(-8.483967048e-15 0 0)
(-1.693034042e-14 0 0)
(-2.378060496e-14 0 0)
(-3.263857221e-14 0 0)
(-3.475347714e-14 0 0)
(-3.722654736e-14 0 0)
(-3.757875249e-14 0 0)
(-3.489192104e-14 0 0)
(-2.85178953e-14 0 0)
(-1.873205821e-14 0 0)
(-1.285944267e-14 0 0)
(-8.987865852e-15 0 0)
(-7.138082547e-15 0 0)
(-8.341308819e-15 0 0)
(-1.141608034e-14 0 0)
(-1.101729081e-14 0 0)
(-1.333522006e-14 0 0)
(-2.378188302e-14 0 0)
(-3.955440214e-14 0 0)
(-4.848020031e-14 0 0)
(-5.488953327e-14 0 0)
(-5.045055361e-14 0 0)
(-3.7307587e-14 0 0)
(-2.096913002e-14 0 0)
(-4.375130497e-15 0 0)
(5.552654604e-15 0 0)
(5.84037966e-15 0 0)
(5.906838344e-15 0 0)
(6.150047723e-15 0 0)
(6.534873616e-15 0 0)
(1.283389109e-14 0 0)
(2.828271219e-14 0 0)
(4.902094005e-14 0 0)
(7.081790374e-14 0 0)
(8.72489863e-14 0 0)
(9.67683823e-14 0 0)
(9.536734766e-14 0 0)
(8.631802605e-14 0 0)
(6.09684083e-14 0 0)
(3.45491779e-14 0 0)
(1.077575324e-14 0 0)
(-1.607287505e-15 0 0)
(-7.874808684e-15 0 0)
(-6.272184598e-15 0 0)
(-6.069747479e-15 0 0)
(-6.68331356e-15 0 0)
(-4.957032564e-15 0 0)
(-5.072598922e-15 0 0)
(-7.008913141e-15 0 0)
(-8.632314288e-15 0 0)
(-7.960216057e-15 0 0)
(-6.793106653e-15 0 0)
(-2.774829867e-15 0 0)
(-5.599138343e-16 0 0)
(4.268235099e-16 0 0)
(-5.341854652e-15 0 0)
(-1.817488659e-14 0 0)
(-2.718455808e-14 0 0)
(-2.732895539e-14 0 0)
(-2.677218365e-14 0 0)
(-2.245025203e-14 0 0)
(-2.079771494e-14 0 0)
(-1.953852417e-14 0 0)
(-2.063570248e-14 0 0)
(-1.7469889e-14 0 0)
(-1.166870227e-14 0 0)
(-7.627443001e-15 0 0)
(-3.322630735e-15 0 0)
(3.068858246e-15 0 0)
(6.589631617e-15 0 0)
(9.90950399e-15 0 0)
(8.406339816e-15 0 0)
(4.449685256e-15 0 0)
(-1.084626142e-15 0 0)
(1.09266386e-15 0 0)
(-4.444746135e-15 0 0)
(-1.232744002e-14 0 0)
(-1.363488995e-14 0 0)
(-1.559154087e-14 0 0)
(-1.86566808e-14 0 0)
(-2.53862245e-14 0 0)
(-3.506194273e-14 0 0)
(-4.110714493e-14 0 0)
(-4.78100082e-14 0 0)
(-4.877881365e-14 0 0)
(-4.427994173e-14 0 0)
(-3.544673652e-14 0 0)
(-2.318542436e-14 0 0)
(-1.473527568e-14 0 0)
(-3.94762199e-15 0 0)
(4.27619599e-16 0 0)
(6.315723157e-15 0 0)
(1.042952785e-14 0 0)
(1.479849464e-14 0 0)
(1.621791288e-14 0 0)
(1.82801577e-14 0 0)
(2.279981233e-14 0 0)
(2.386846978e-14 0 0)
(2.343230812e-14 0 0)
(2.504920204e-14 0 0)
(3.567299394e-14 0 0)
(4.323754249e-14 0 0)
(4.772626616e-14 0 0)
(5.073002821e-14 0 0)
(4.147812198e-14 0 0)
(2.862265331e-14 0 0)
(1.038295516e-14 0 0)
(2.737649944e-15 0 0)
(1.605480946e-15 0 0)
(7.877012008e-15 0 0)
(1.599639647e-14 0 0)
(1.591705645e-14 0 0)
(1.390956366e-14 0 0)
(1.230515373e-14 0 0)
(1.529568939e-14 0 0)
(1.58613449e-14 0 0)
(1.353610858e-14 0 0)
(2.998344392e-15 0 0)
(-2.003026761e-14 0 0)
(-3.832972477e-14 0 0)
(-3.922029624e-14 0 0)
(-4.187359363e-14 0 0)
(-3.468806133e-14 0 0)
(-2.628698612e-14 0 0)
(-1.469702377e-14 0 0)
(-6.383694845e-15 0 0)
(3.631628623e-15 0 0)
(9.794126958e-15 0 0)
(2.050822919e-14 0 0)
(2.486767522e-14 0 0)
(2.953835886e-14 0 0)
(3.243365637e-14 0 0)
(3.750975056e-14 0 0)
(4.27278901e-14 0 0)
(4.146581682e-14 0 0)
(3.716001381e-14 0 0)
(2.485169993e-14 0 0)
(6.173032101e-15 0 0)
(-4.614925056e-15 0 0)
(-1.739059167e-14 0 0)
(-2.313192455e-14 0 0)
(-2.914086429e-14 0 0)
(-3.081116862e-14 0 0)
(-3.432674416e-14 0 0)
(-3.327623608e-14 0 0)
(-3.403938113e-14 0 0)
(-3.336301323e-14 0 0)
(-3.266216378e-14 0 0)
(-3.343938275e-14 0 0)
(-2.926998309e-14 0 0)
(-2.179334095e-14 0 0)
(-1.105922219e-14 0 0)
(6.616911765e-15 0 0)
(2.396845592e-14 0 0)
(3.161884777e-14 0 0)
(3.432201904e-14 0 0)
(3.210929002e-14 0 0)
(2.584555344e-14 0 0)
(1.517985271e-14 0 0)
(4.371041684e-15 0 0)
(-1.284206049e-14 0 0)
(-1.984090778e-14 0 0)
(-2.316663224e-14 0 0)
(-2.013817812e-14 0 0)
(-1.407804382e-14 0 0)
(-4.865717388e-15 0 0)
(1.854721829e-15 0 0)
(1.22312432e-14 0 0)
(1.89694513e-14 0 0)
(2.865062968e-14 0 0)
(3.372153631e-14 0 0)
(3.311496032e-14 0 0)
(3.115247654e-14 0 0)
(3.176227697e-14 0 0)
(3.640187762e-14 0 0)
(3.491432256e-14 0 0)
(3.258499419e-14 0 0)
(2.878453899e-14 0 0)
(2.156464793e-14 0 0)
(1.060086859e-14 0 0)
(5.903944322e-15 0 0)
(5.139271147e-15 0 0)
(6.800409141e-15 0 0)
(9.826615685e-15 0 0)
(7.78825609e-15 0 0)
(4.485458849e-15 0 0)
(2.864377247e-15 0 0)
(-1.708770989e-15 0 0)
(-8.426513914e-15 0 0)
(-1.223069702e-14 0 0)
(-8.151647601e-15 0 0)
(-8.321927457e-16 0 0)
(4.764961328e-15 0 0)
(7.888301385e-15 0 0)
(1.489575268e-14 0 0)
(1.446486506e-14 0 0)
(1.405770062e-14 0 0)
(8.109002594e-15 0 0)