/*--------------------------------*- C++ -*----------------------------------*\
| =========                 |                                                 |
| \\      /  F ield         | OpenFOAM: The Open Source CFD Toolbox           |
|  \\    /   O peration     | Version:  2012                                  |
|   \\  /    A nd           | Website:  www.openfoam.com                      |
|    \\/     M anipulation  |                                                 |
\*---------------------------------------------------------------------------*/
FoamFile
{
    version     2.0;
    format      ascii;
    class       surfaceScalarField;
    location    "0.34";
    object      phi;
}
// * * * * * * * * * * * * * * * * * * * * * * * * * * * * * * * * * * * * * //

dimensions      [0 3 -1 0 0 0 0];
oriented        oriented;


internalField   nonuniform List<scalar> 
4432
(
3.82416e-06
-3.82415e-06
7.62579e-06
-3.80163e-06
1.13162e-05
-3.69041e-06
1.50796e-05
-3.76343e-06
1.87702e-05
-3.69057e-06
2.22961e-05
-3.52585e-06
2.5615e-05
-3.31894e-06
2.89428e-05
-3.32777e-06
3.18714e-05
-2.92858e-06
3.46644e-05
-2.79301e-06
3.71757e-05
-2.5113e-06
3.89568e-05
-1.78109e-06
4.03683e-05
-1.41152e-06
4.13156e-05
-9.47273e-07
4.15298e-05
-2.14106e-07
4.07009e-05
8.28843e-07
3.88309e-05
1.87006e-06
3.58536e-05
2.97732e-06
3.15931e-05
4.26055e-06
2.59154e-05
5.67771e-06
1.89344e-05
6.9811e-06
1.04987e-05
8.43578e-06
1.05e-05
3.82021e-06
-7.64435e-06
7.63253e-06
-7.61395e-06
1.13338e-05
-7.39163e-06
1.50973e-05
-7.52697e-06
1.87926e-05
-7.38589e-06
2.23291e-05
-7.06234e-06
2.56653e-05
-6.65513e-06
2.89976e-05
-6.66007e-06
3.19373e-05
-5.86827e-06
3.47639e-05
-5.61951e-06
3.72796e-05
-5.027e-06
3.9097e-05
-3.59855e-06
4.06424e-05
-2.95684e-06
4.1502e-05
-1.80694e-06
4.16166e-05
-3.28657e-07
4.08744e-05
1.5711e-06
3.90382e-05
3.70623e-06
3.60208e-05
5.99477e-06
3.15831e-05
8.69834e-06
2.55305e-05
1.17304e-05
1.78027e-05
1.47089e-05
8.48813e-06
1.77504e-05
1.89888e-05
3.81898e-06
-1.14633e-05
7.64926e-06
-1.14442e-05
1.1363e-05
-1.11053e-05
1.51232e-05
-1.12873e-05
1.88263e-05
-1.1089e-05
2.238e-05
-1.0616e-05
2.57445e-05
-1.00196e-05
2.90834e-05
-9.99902e-06
3.20432e-05
-8.82801e-06
3.49183e-05
-8.49466e-06
3.74377e-05
-7.54635e-06
3.93298e-05
-5.49061e-06
4.09782e-05
-4.60525e-06
4.18175e-05
-2.64626e-06
4.1975e-05
-4.86158e-07
4.1448e-05
2.09812e-06
3.9839e-05
5.31527e-06
3.71057e-05
8.72817e-06
3.30878e-05
1.27163e-05
2.75188e-05
1.72994e-05
2.02477e-05
2.198e-05
1.06981e-05
2.73001e-05
2.96883e-05
3.82405e-06
-1.52874e-05
7.67625e-06
-1.52964e-05
1.1407e-05
-1.48361e-05
1.51667e-05
-1.5047e-05
1.88807e-05
-1.4803e-05
2.24656e-05
-1.42008e-05
2.58811e-05
-1.34352e-05
2.92409e-05
-1.33589e-05
3.22419e-05
-1.18289e-05
3.5184e-05
-1.14368e-05
3.77237e-05
-1.0086e-05
3.97172e-05
-7.48405e-06
4.14434e-05
-6.33146e-06
4.23361e-05
-3.53889e-06
4.25619e-05
-7.11984e-07
4.19786e-05
2.68149e-06
4.03108e-05
6.98301e-06
3.74198e-05
1.16192e-05
3.31863e-05
1.69498e-05
2.73955e-05
2.30903e-05
2.00172e-05
2.93584e-05
1.05343e-05
3.67831e-05
4.02253e-05
3.83204e-06
-1.91194e-05
7.7087e-06
-1.91731e-05
1.14583e-05
-1.85857e-05
1.52204e-05
-1.8809e-05
1.89447e-05
-1.85272e-05
2.25586e-05
-1.78147e-05
2.6026e-05
-1.69026e-05
2.94008e-05
-1.67336e-05
3.24504e-05
-1.48785e-05
3.5465e-05
-1.44514e-05
3.8017e-05
-1.2638e-05
4.01466e-05
-9.61363e-06
4.19518e-05
-8.1367e-06
4.29825e-05
-4.56957e-06
4.34083e-05
-1.13777e-06
4.30394e-05
3.05048e-06
4.17442e-05
8.27818e-06
3.93126e-05
1.40509e-05
3.55961e-05
2.06663e-05
3.01932e-05
2.84932e-05
2.29078e-05
3.66439e-05
1.31248e-05
4.65662e-05
5.33533e-05
3.84423e-06
-2.29636e-05
7.74544e-06
-2.30743e-05
1.15212e-05
-2.23615e-05
1.52996e-05
-2.25874e-05
1.90454e-05
-2.2273e-05
2.27001e-05
-2.14694e-05
2.62362e-05
-2.04387e-05
2.96468e-05
-2.01443e-05
3.27799e-05
-1.80116e-05
3.58745e-05
-1.7546e-05
3.84643e-05
-1.52279e-05
4.07759e-05
-1.19252e-05
4.27202e-05
-1.0081e-05
4.38037e-05
-5.65304e-06
4.44027e-05
-1.73682e-06
4.40843e-05
3.36899e-06
4.27969e-05
9.56556e-06
4.02429e-05
1.6605e-05
3.62973e-05
2.46119e-05
3.05932e-05
3.41974e-05
2.30921e-05
4.4145e-05
1.29508e-05
5.67075e-05
6.63072e-05
3.86111e-06
-2.68248e-05
7.7877e-06
-2.70009e-05
1.15907e-05
-2.61645e-05
1.53882e-05
-2.63849e-05
1.91557e-05
-2.60405e-05
2.28438e-05
-2.51575e-05
2.64381e-05
-2.4033e-05
2.98787e-05
-2.35848e-05
3.31004e-05
-2.12334e-05
3.62564e-05
-2.07019e-05
3.88753e-05
-1.78468e-05
4.14112e-05
-1.44611e-05
4.34457e-05
-1.21154e-05
4.4755e-05
-6.96233e-06
4.56137e-05
-2.59552e-06
4.55182e-05
3.46455e-06
4.4623e-05
1.04608e-05
4.25632e-05
1.86648e-05
3.93e-05
2.78751e-05
3.41959e-05
3.93015e-05
2.72077e-05
5.11333e-05
1.70043e-05
6.69109e-05
8.33154e-05
3.883e-06
-3.07078e-05
7.8199e-06
-3.09378e-05
1.16675e-05
-3.00121e-05
1.5501e-05
-3.02184e-05
1.93001e-05
-2.98397e-05
2.30409e-05
-2.88982e-05
2.67093e-05
-2.77014e-05
3.02168e-05
-2.70923e-05
3.3579e-05
-2.45956e-05
3.67967e-05
-2.39196e-05
3.95085e-05
-2.05586e-05
4.23062e-05
-1.72588e-05
4.44872e-05
-1.42964e-05
4.59716e-05
-8.44669e-06
4.70334e-05
-3.65729e-06
4.70008e-05
3.49714e-06
4.63108e-05
1.11508e-05
4.42544e-05
2.07212e-05
4.10324e-05
3.10971e-05
3.57529e-05
4.45811e-05
2.83421e-05
5.85441e-05
1.77059e-05
7.75473e-05
0.000101024
-1.67477e-05
1.96183e-05
-3.42722e-05
2.03933e-05
-4.64084e-05
1.50031e-05
-5.83228e-05
1.47771e-05
-6.60926e-05
1.06305e-05
-7.26731e-05
9.43783e-06
-7.64019e-05
6.58563e-06
-7.87802e-05
5.23389e-06
-8.03621e-05
4.43792e-06
-7.99485e-05
2.44098e-06
-7.78011e-05
7.06123e-07
-7.50463e-05
9.56632e-08
-6.93428e-05
-2.85619e-06
-6.30623e-05
-3.43756e-06
-5.39823e-05
-6.24107e-06
-4.31675e-05
-7.97971e-06
-3.03937e-05
-9.94188e-06
-1.55452e-05
-1.20188e-05
-1.27167e-05
-1.81026e-05
4.05911e-05
-3.64447e-05
4.1604e-05
-4.82266e-05
2.96516e-05
-5.85127e-05
2.79257e-05
-6.54445e-05
2.04227e-05
-7.2064e-05
1.89144e-05
-7.63878e-05
1.37659e-05
-7.93813e-05
1.10826e-05
-8.12e-05
9.1122e-06
-8.05756e-05
4.671e-06
-7.81348e-05
1.11859e-06
-7.52329e-05
4.39683e-08
-6.95043e-05
-5.73765e-06
-6.33494e-05
-6.74966e-06
-5.42887e-05
-1.24628e-05
-4.34654e-05
-1.5968e-05
-3.06759e-05
-1.98995e-05
-1.56887e-05
-2.41763e-05
-2.55769e-05
-1.8557e-05
6.20174e-05
-3.63103e-05
6.22249e-05
-4.7987e-05
4.41939e-05
-6.00627e-05
4.2863e-05
-6.83631e-05
3.15826e-05
-7.49174e-05
2.83249e-05
-7.75447e-05
1.9249e-05
-7.92553e-05
1.56476e-05
-8.07971e-05
1.35089e-05
-8.04721e-05
7.19975e-06
-7.86377e-05
2.13688e-06
-7.61284e-05
3.84544e-07
-7.0496e-05
-8.5233e-06
-6.42092e-05
-1.01938e-05
-5.51821e-05
-1.86512e-05
-4.42967e-05
-2.40186e-05
-3.13383e-05
-3.0026e-05
-1.60492e-05
-3.66359e-05
-3.87976e-05
-2.06489e-05
8.55347e-05
-3.93236e-05
8.37664e-05
-5.02868e-05
5.80221e-05
-5.95102e-05
5.49472e-05
-6.62669e-05
4.11981e-05
-7.30924e-05
3.80059e-05
-7.73845e-05
2.63956e-05
-8.09227e-05
2.20394e-05
-8.33724e-05
1.88126e-05
-8.24604e-05
9.14058e-06
-7.94938e-05
2.02231e-06
-7.65206e-05
2.60587e-07
-7.09201e-05
-1.12774e-05
-6.50741e-05
-1.31974e-05
-5.61388e-05
-2.47479e-05
-4.52265e-05
-3.20961e-05
-3.22132e-05
-4.02074e-05
-1.64982e-05
-4.95214e-05
-5.24674e-05
-1.99972e-05
0.000108399
-4.03974e-05
0.000107031
-5.20228e-05
7.25109e-05
-6.38518e-05
6.96351e-05
-7.22946e-05
5.2498e-05
-7.8786e-05
4.73512e-05
-7.98851e-05
3.0348e-05
-8.05349e-05
2.55413e-05
-8.23162e-05
2.34465e-05
-8.20428e-05
1.17188e-05
-8.04263e-05
3.25677e-06
-7.85388e-05
1.22158e-06
-7.31149e-05
-1.38555e-05
-6.68424e-05
-1.66279e-05
-5.79527e-05
-3.07993e-05
-4.69313e-05
-4.02828e-05
-3.35651e-05
-5.07418e-05
-1.72729e-05
-6.29841e-05
-6.69119e-05
-2.4973e-05
0.000136237
-4.5867e-05
0.000130789
-5.50951e-05
8.46016e-05
-6.21083e-05
7.95066e-05
-6.84016e-05
6.16477e-05
-7.56263e-05
5.7429e-05
-7.96461e-05
3.72195e-05
-8.34868e-05
3.22328e-05
-8.73374e-05
3.01483e-05
-8.59482e-05
1.318e-05
-8.15009e-05
1.65952e-06
-7.87768e-05
1.34505e-06
-7.37331e-05
-1.6054e-05
-6.82708e-05
-1.92486e-05
-5.96834e-05
-3.65487e-05
-4.86051e-05
-4.85266e-05
-3.5126e-05
-6.13892e-05
-1.81263e-05
-7.71544e-05
-8.22099e-05
-2.40145e-05
0.000163114
-4.84145e-05
0.000158049
-5.90699e-05
9.81171e-05
-6.99745e-05
9.32665e-05
-7.87567e-05
7.32842e-05
-8.51574e-05
6.66805e-05
-8.36616e-05
3.85738e-05
-8.20008e-05
3.34211e-05
-8.46558e-05
3.56529e-05
-8.4558e-05
1.5931e-05
-8.32872e-05
3.23736e-06
-8.28462e-05
3.75052e-06
-7.73378e-05
-1.8718e-05
-7.09707e-05
-2.27748e-05
-6.24676e-05
-4.2214e-05
-5.13086e-05
-5.68513e-05
-3.7267e-05
-7.25993e-05
-1.94404e-05
-9.21516e-05
-9.88221e-05
-3.10702e-05
0.000197044
-5.90317e-05
0.000188871
-6.40032e-05
0.000105949
-6.6217e-05
9.83357e-05
-7.15537e-05
8.14745e-05
-7.9369e-05
7.73459e-05
-8.26212e-05
4.46739e-05
-8.66997e-05
4.03472e-05
-9.32976e-05
4.50987e-05
-9.14408e-05
1.69218e-05
-8.51737e-05
-1.82065e-07
-8.32497e-05
4.67201e-06
-7.84616e-05
-2.06625e-05
-7.33488e-05
-2.50471e-05
-6.53502e-05
-4.73751e-05
-5.40262e-05
-6.53411e-05
-3.97517e-05
-8.40424e-05
-2.09244e-05
-0.00010815
-0.000116918
8.34674e-06
-3.90545e-05
1.67614e-05
-3.93524e-05
2.51019e-05
-3.83526e-05
3.33719e-05
-3.84884e-05
4.15527e-05
-3.80204e-05
4.96636e-05
-3.70092e-05
5.76748e-05
-3.57125e-05
6.53487e-05
-3.47662e-05
7.28701e-05
-3.2117e-05
7.98881e-05
-3.09376e-05
8.61324e-05
-2.68029e-05
9.27482e-05
-2.38746e-05
9.75152e-05
-1.90634e-05
0.000101773
-1.27046e-05
0.000104886
-6.76964e-06
0.000106239
2.14415e-06
0.000106189
1.12004e-05
0.000104641
2.22696e-05
0.000101554
3.41842e-05
9.74222e-05
4.87129e-05
9.14057e-05
6.45608e-05
8.38398e-05
8.51134e-05
0.000115368
6.94985e-05
8.48599e-06
-4.75405e-05
1.69929e-05
-4.78593e-05
2.55527e-05
-4.69124e-05
3.4044e-05
-4.69797e-05
4.24691e-05
-4.64455e-05
5.08941e-05
-4.54342e-05
5.93107e-05
-4.41291e-05
6.75051e-05
-4.29605e-05
7.56337e-05
-4.02456e-05
8.3252e-05
-3.85558e-05
9.0696e-05
-3.42469e-05
9.77469e-05
-3.09255e-05
0.000103472
-2.47888e-05
0.0001094
-1.86327e-05
0.000113326
-1.06953e-05
0.000115781
-3.10595e-07
0.00011623
1.07514e-05
0.000114231
2.42684e-05
0.000110112
3.83037e-05
0.000104475
5.43499e-05
9.81541e-05
7.08816e-05
9.14675e-05
9.18002e-05
0.000121101
8.57371e-05
8.6509e-06
-5.61914e-05
1.72731e-05
-5.64816e-05
2.6067e-05
-5.57062e-05
3.4782e-05
-5.56948e-05
4.34207e-05
-5.50842e-05
5.21057e-05
-5.41192e-05
6.08326e-05
-5.2856e-05
6.94236e-05
-5.15515e-05
7.80069e-05
-4.8829e-05
8.62907e-05
-4.68397e-05
9.44797e-05
-4.24358e-05
0.000102139
-3.85846e-05
0.000109478
-3.21272e-05
0.000116407
-2.55621e-05
0.000121343
-1.56299e-05
0.000126272
-5.23898e-06
0.000129169
8.05291e-06
0.000130461
2.29771e-05
0.000129799
3.89658e-05
0.000128316
5.58323e-05
0.000126106
7.30917e-05
0.000125184
9.27221e-05
0.000118114
0.000128172
8.79038e-06
-6.49827e-05
1.75251e-05
-6.52172e-05
2.65466e-05
-6.47289e-05
3.55146e-05
-6.46642e-05
4.44423e-05
-6.40142e-05
5.34961e-05
-6.31774e-05
6.2662e-05
-6.20298e-05
7.17773e-05
-6.06806e-05
8.10156e-05
-5.80883e-05
9.01032e-05
-5.59579e-05
9.92129e-05
-5.15843e-05
0.000108151
-4.75698e-05
0.000117127
-4.11517e-05
0.000125088
-3.35704e-05
0.000133287
-2.38778e-05
0.000140224
-1.22209e-05
0.000143794
4.4406e-06
0.000145394
2.13547e-05
0.00014392
4.04384e-05
0.000141243
5.85104e-05
0.000138238
7.61721e-05
0.000136725
9.42347e-05
0.000114707
0.000140138
8.88688e-06
-7.41216e-05
1.76899e-05
-7.42754e-05
2.68889e-05
-7.41882e-05
3.60474e-05
-7.40895e-05
4.51355e-05
-7.33685e-05
5.4357e-05
-7.26512e-05
6.37135e-05
-7.16185e-05
7.30618e-05
-7.02312e-05
8.25547e-05
-6.77565e-05
9.20347e-05
-6.55733e-05
0.000101576
-6.12384e-05
0.000111134
-5.72024e-05
0.000120087
-5.01723e-05
0.00012923
-4.27524e-05
0.000138256
-3.28971e-05
0.000144132
-1.80087e-05
0.000149697
-9.7859e-07
0.000153498
1.77256e-05
0.000152354
4.17563e-05
0.000151764
5.92011e-05
0.000151184
7.67028e-05
0.000150572
9.48697e-05
0.000112284
0.000153034
9.29072e-06
-8.34464e-05
1.85345e-05
-8.35534e-05
2.80305e-05
-8.37182e-05
3.68461e-05
-8.29386e-05
4.43378e-05
-8.08925e-05
5.02255e-05
-7.85717e-05
5.44166e-05
-7.58404e-05
5.74101e-05
-7.32551e-05
6.14344e-05
-7.18101e-05
6.78309e-05
-7.19982e-05
7.68235e-05
-7.02577e-05
8.86703e-05
-6.90745e-05
0.000102915
-6.44413e-05
0.000117989
-5.78483e-05
0.000132141
-4.70705e-05
0.000143873
-2.97612e-05
0.000152134
-9.25855e-06
0.000154158
1.57355e-05
0.000150859
4.51468e-05
0.000149414
6.08276e-05
0.00014925
7.72887e-05
0.000151512
9.30947e-05
0.000105431
0.000158594
4.80956e-06
-8.82829e-05
9.74706e-06
-8.85178e-05
1.4446e-05
-8.84441e-05
1.95663e-05
-8.80863e-05
2.4511e-05
-8.58652e-05
2.95258e-05
-8.36146e-05
3.48688e-05
-8.12118e-05
4.11469e-05
-7.95611e-05
4.89086e-05
-7.95992e-05
5.93771e-05
-8.24931e-05
7.29536e-05
-8.38599e-05
8.92864e-05
-8.5432e-05
0.000107973
-8.31518e-05
0.000127637
-7.75345e-05
0.00014779
-6.72442e-05
0.000167668
-4.96592e-05
0.000184139
-2.57468e-05
0.000191798
8.06049e-06
0.000186052
5.08803e-05
0.000169263
7.76088e-05
0.00015364
9.29212e-05
0.000151055
9.5776e-05
9.78599e-05
0.000158891
3.63741e-06
-9.19484e-05
7.234e-06
-9.21423e-05
1.01495e-05
-9.13875e-05
1.36558e-05
-9.16208e-05
1.77493e-05
-8.99867e-05
2.27444e-05
-8.86376e-05
2.91479e-05
-8.7643e-05
3.73007e-05
-8.77412e-05
4.65225e-05
-8.88477e-05
5.69679e-05
-9.29646e-05
6.85531e-05
-9.54704e-05
7.95916e-05
-9.64949e-05
9.01996e-05
-9.37834e-05
0.000101742
-8.90998e-05
0.000115135
-8.06581e-05
0.000133253
-6.77972e-05
0.000156731
-4.92429e-05
0.000182533
-1.7758e-05
0.000203266
3.01332e-05
0.000204911
7.59517e-05
0.000192992
0.000104832
0.000182141
0.000106622
0.000105173
0.00017483
4.97264e-06
-9.69483e-05
9.75792e-06
-9.6955e-05
1.44569e-05
-9.61141e-05
1.89103e-05
-9.61018e-05
2.35905e-05
-9.46947e-05
2.84919e-05
-9.35666e-05
3.35742e-05
-9.27527e-05
3.90778e-05
-9.32718e-05
4.47696e-05
-9.4566e-05
5.0949e-05
-9.91698e-05
5.69497e-05
-0.000101496
6.17082e-05
-0.000101278
6.64471e-05
-9.85454e-05
7.18074e-05
-9.44821e-05
7.91577e-05
-8.80292e-05
9.04518e-05
-7.91107e-05
0.000106193
-6.50021e-05
0.000131087
-4.26679e-05
0.000167438
-6.2319e-06
0.000203315
4.0063e-05
0.000225371
8.27679e-05
0.000233809
9.81767e-05
0.000103961
0.000235018
3.83552e-06
-0.000100811
7.51335e-06
-0.00010066
1.1504e-05
-0.000100132
1.53973e-05
-0.000100023
1.98317e-05
-9.91564e-05
2.4888e-05
-9.86501e-05
3.03859e-05
-9.82776e-05
3.62792e-05
-9.91914e-05
4.17964e-05
-0.000100109
4.62819e-05
-0.000103681
4.9605e-05
-0.000104844
5.20765e-05
-0.000103773
5.47748e-05
-0.000101267
5.7949e-05
-9.7678e-05
6.16879e-05
-9.17887e-05
6.62821e-05
-8.37242e-05
7.33239e-05
-7.20618e-05
8.60756e-05
-5.54359e-05
0.000110286
-3.04566e-05
0.000150819
-4.82175e-07
0.000196265
3.73118e-05
0.000232256
6.21782e-05
7.74207e-05
0.000258792
4.59961e-06
-0.000105438
9.16669e-06
-0.000105255
1.39178e-05
-0.00010491
1.86914e-05
-0.000104823
2.37457e-05
-0.000104238
2.8972e-05
-0.000103903
3.39969e-05
-0.000103329
3.87253e-05
-0.000103946
4.26137e-05
-0.000104023
4.50826e-05
-0.000106174
4.70175e-05
-0.000106803
4.88679e-05
-0.000105647
5.09058e-05
-0.000103327
5.27996e-05
-9.95934e-05
5.4749e-05
-9.37585e-05
5.73821e-05
-8.63762e-05
6.11251e-05
-7.58223e-05
6.76487e-05
-6.19753e-05
8.05241e-05
-4.3346e-05
0.000104378
-2.43484e-05
0.000139594
2.08647e-06
0.000178341
2.34236e-05
4.22125e-05
0.000213544
4.26798e-06
-0.000109733
8.59441e-06
-0.000109608
1.30391e-05
-0.000109382
1.76027e-05
-0.000109414
2.23972e-05
-0.000109059
2.75476e-05
-0.00010908
3.26871e-05
-0.000108494
3.75564e-05
-0.000108841
4.14869e-05
-0.000107979
4.43446e-05
-0.000109057
4.68999e-05
-0.000109382
4.93985e-05
-0.000108168
5.21082e-05
-0.000106059
5.51406e-05
-0.000102647
5.86728e-05
-9.73108e-05
6.29177e-05
-9.06398e-05
6.84197e-05
-8.13416e-05
7.70306e-05
-7.06019e-05
8.94993e-05
-5.58287e-05
0.000106811
-4.16721e-05
0.000131529
-2.2642e-05
0.000162863
-7.91878e-06
8.10781e-06
0.000196962
4.73508e-06
-0.000114494
9.52373e-06
-0.000114423
1.44174e-05
-0.000114302
1.92937e-05
-0.000114316
2.41889e-05
-0.00011398
2.91664e-05
-0.000114083
3.40751e-05
-0.000113428
3.88927e-05
-0.000113683
4.3506e-05
-0.000112616
4.74318e-05
-0.000113006
5.11071e-05
-0.000113081
5.50579e-05
-0.000112142
5.96438e-05
-0.000110667
6.49116e-05
-0.000107935
7.09911e-05
-0.00010341
7.81915e-05
-9.78587e-05
8.68414e-05
-9.00085e-05
9.78222e-05
-8.15982e-05
0.000111818
-6.98385e-05
0.000130307
-6.01733e-05
0.00015395
-4.62946e-05
0.000180942
-3.49196e-05
-2.17312e-05
0.000210775
4.40418e-06
-0.000118924
8.87297e-06
-0.000118917
1.34158e-05
-0.00011887
1.80694e-05
-0.000118995
2.28265e-05
-0.000118762
2.77549e-05
-0.000119036
3.27812e-05
-0.000118479
3.80119e-05
-0.000118938
4.33579e-05
-0.000117986
4.83269e-05
-0.000117998
5.3165e-05
-0.000117941
5.83018e-05
-0.0001173
6.38249e-05
-0.000116211
7.00605e-05
-0.000114191
7.72367e-05
-0.000110605
8.57592e-05
-0.000106399
9.59232e-05
-0.000100189
0.00010877
-9.44605e-05
0.00012457
-8.5652e-05
0.000143717
-7.93332e-05
0.000166926
-6.95136e-05
0.000193666
-6.16696e-05
-5.20094e-05
0.000223937
4.84176e-06
-0.00012379
9.69264e-06
-0.000123793
1.45173e-05
-0.000123719
1.93882e-05
-0.00012389
2.42882e-05
-0.000123686
2.93132e-05
-0.000124085
3.44389e-05
-0.000123629
3.96791e-05
-0.000124202
4.52775e-05
-0.000123608
5.09722e-05
-0.000123716
5.66991e-05
-0.00012369
6.25827e-05
-0.000123205
6.88061e-05
-0.000122455
7.57365e-05
-0.000121142
8.35753e-05
-0.000118463
9.29092e-05
-0.000115751
0.000103931
-0.000111227
0.000117489
-0.000108035
0.000133767
-0.000101944
0.000153308
-9.8886e-05
0.00017656
-9.27774e-05
0.000202951
-8.80699e-05
-8.24081e-05
0.000233342
4.50383e-06
-0.000128318
9.04128e-06
-0.000128354
1.36357e-05
-0.000128338
1.8329e-05
-0.000128607
2.30967e-05
-0.000128477
2.80184e-05
-0.00012903
3.30657e-05
-0.000128699
3.82349e-05
-0.000129394
4.37744e-05
-0.000129169
4.94512e-05
-0.000129415
5.52829e-05
-0.000129543
6.15347e-05
-0.000129478
6.81838e-05
-0.000129124
7.56669e-05
-0.000128644
8.41112e-05
-0.000126925
9.42342e-05
-0.000125891
0.000106095
-0.000123104
0.000120485
-0.000122439
0.000137587
-0.00011906
0.000157506
-0.000118817
0.000180883
-0.000116166
0.000207975
-0.000115171
-0.000113959
0.000239517
4.7207e-06
-0.000133062
9.48494e-06
-0.000133141
1.4287e-05
-0.000133163
1.91727e-05
-0.000133516
2.41075e-05
-0.000133435
2.91492e-05
-0.000134095
3.43124e-05
-0.000133885
3.95638e-05
-0.000134667
4.50703e-05
-0.000134697
5.08073e-05
-0.000135173
5.67897e-05
-0.000135546
6.32257e-05
-0.000135934
7.00289e-05
-0.000135947
7.77522e-05
-0.000136386
8.64691e-05
-0.00013566
9.69357e-05
-0.000136375
0.000109094
-0.000135278
0.000123476
-0.000136836
0.00014043
-0.000136028
0.000160082
-0.000138482
0.000183253
-0.000139349
0.000210371
-0.000142299
-0.00014587
0.000242273
4.55338e-06
-0.000137638
9.15165e-06
-0.000137762
1.37769e-05
-0.00013781
1.84747e-05
-0.000138236
2.32198e-05
-0.000138202
2.80614e-05
-0.000138958
3.3041e-05
-0.000138886
3.81447e-05
-0.000139792
4.35061e-05
-0.00014008
4.91824e-05
-0.000140869
5.50636e-05
-0.000141447
6.15118e-05
-0.000142402
6.83987e-05
-0.000142852
7.64026e-05
-0.000144408
8.54069e-05
-0.000144682
9.60297e-05
-0.000147014
0.000108213
-0.000147477
0.000122278
-0.000150915
0.00013879
-0.000152554
0.000157845
-0.000157549
0.000180356
-0.000161872
0.000207036
-0.000168989
-0.000177676
0.000238832
4.62937e-06
-0.000142289
9.28247e-06
-0.000142436
1.39421e-05
-0.000142491
1.86583e-05
-0.000142973
2.34177e-05
-0.000142982
2.82678e-05
-0.000143829
3.32484e-05
-0.000143887
3.83748e-05
-0.000144939
4.36695e-05
-0.000145394
4.92993e-05
-0.000146519
5.51224e-05
-0.00014729
6.1579e-05
-0.000148877
6.84859e-05
-0.000149777
7.63411e-05
-0.00015228
8.50109e-05
-0.000153368
9.49307e-05
-0.00015695
0.000106298
-0.00015886
0.000119384
-0.000164016
0.000134833
-0.000168016
0.000152804
-0.000175533
0.000174179
-0.000183258
0.000199532
-0.000194353
-0.000208243
0.000230089
4.44761e-06
-0.000146757
8.91624e-06
-0.000146925
1.34059e-05
-0.000147001
1.79561e-05
-0.000147544
2.25717e-05
-0.000147618
2.72686e-05
-0.000148546
3.20977e-05
-0.000148736
3.70686e-05
-0.000149929
4.21929e-05
-0.000150538
4.76883e-05
-0.000152033
5.34236e-05
-0.000153043
5.97369e-05
-0.000155208
6.65009e-05
-0.000156558
7.39525e-05
-0.000159749
8.22426e-05
-0.000161674
9.15008e-05
-0.000166223
0.000102216
-0.000169589
0.000114316
-0.00017613
0.000128457
-0.000182169
0.000144666
-0.000191756
0.000163659
-0.000202263
0.000186097
-0.000216802
-0.000235153
0.000212996
4.40208e-06
-0.000151178
8.82066e-06
-0.000151363
1.32592e-05
-0.000151459
1.77347e-05
-0.000152038
2.22681e-05
-0.000152171
2.68457e-05
-0.000153142
3.15412e-05
-0.00015345
3.63383e-05
-0.000154744
4.12945e-05
-0.000155512
4.64732e-05
-0.000157229
5.19087e-05
-0.000158496
5.7634e-05
-0.00016095
6.38765e-05
-0.000162817
7.05049e-05
-0.000166393
7.81635e-05
-0.000169348
8.64193e-05
-0.000174494
9.61893e-05
-0.000179374
0.000106781
-0.000186735
0.00011929
-0.000194691
0.000133112
-0.000205591
0.000149328
-0.00021849
0.000168094
-0.000235579
-0.000257114
0.000190044
4.30436e-06
-0.000155501
8.61363e-06
-0.000155691
1.29358e-05
-0.0001558
1.7264e-05
-0.000156385
2.16505e-05
-0.000156575
2.60488e-05
-0.000157559
3.05787e-05
-0.000157998
3.5165e-05
-0.000159348
3.99288e-05
-0.000160293
4.48065e-05
-0.000162124
4.99821e-05
-0.000163688
5.52828e-05
-0.000166267
6.11632e-05
-0.000168713
6.72069e-05
-0.000172452
7.41982e-05
-0.000176354
8.13307e-05
-0.000181641
8.9768e-05
-0.000187825
9.84455e-05
-0.000195426
0.000108891
-0.000205149
0.000119768
-0.00021648
0.000132779
-0.000231512
0.000146631
-0.000249442
-0.000272849
0.000162355
4.22522e-06
-0.000159744
8.43833e-06
-0.000159922
1.26499e-05
-0.000160029
1.68285e-05
-0.000160581
2.10488e-05
-0.000160813
2.52294e-05
-0.000161756
2.95294e-05
-0.000162314
3.38019e-05
-0.000163637
3.82587e-05
-0.000164766
4.26973e-05
-0.000166578
4.7449e-05
-0.000168456
5.21809e-05
-0.000171014
5.74255e-05
-0.000173973
6.26118e-05
-0.000177653
6.85122e-05
-0.000182269
7.43783e-05
-0.00018752
8.12518e-05
-0.000194711
8.8136e-05
-0.000202323
9.63333e-05
-0.000213358
0.000104383
-0.000224542
0.000114003
-0.000241144
0.000122708
-0.000258159
-0.000283277
0.000133125
4.12095e-06
-0.000163882
8.22074e-06
-0.000164038
1.23139e-05
-0.000164138
1.63496e-05
-0.000164633
2.04124e-05
-0.000164892
2.43959e-05
-0.000165756
2.84687e-05
-0.000166403
3.24651e-05
-0.000167649
3.66173e-05
-0.000168934
4.0689e-05
-0.000170665
4.50281e-05
-0.000172809
4.92409e-05
-0.000175241
5.38085e-05
-0.000178554
5.82063e-05
-0.000182064
6.30895e-05
-0.000187165
6.78119e-05
-0.000192255
7.30792e-05
-0.000199991
7.81256e-05
-0.000207381
8.37738e-05
-0.000219018
8.89885e-05
-0.000229768
9.48454e-05
-0.000247012
9.91612e-05
-0.000262486
-0.000288183
0.000104056
4.04555e-06
-0.000167943
8.06041e-06
-0.000168069
1.20582e-05
-0.000168152
1.59684e-05
-0.000168558
1.98807e-05
-0.000168819
2.36599e-05
-0.00016955
2.74805e-05
-0.000170238
3.1152e-05
-0.000171335
3.49256e-05
-0.000172722
3.85375e-05
-0.000174291
4.2313e-05
-0.000176598
4.59158e-05
-0.000178857
4.97196e-05
-0.000182371
5.33344e-05
-0.000185691
5.71306e-05
-0.000190973
6.06529e-05
-0.00019579
6.42869e-05
-0.000203637
6.75269e-05
-0.000210633
7.07771e-05
-0.00022228
7.33088e-05
-0.000232311
7.56555e-05
-0.000249369
7.62677e-05
-0.000263109
-0.000287659
7.57333e-05
3.95828e-06
-0.000171916
7.87899e-06
-0.000172004
1.17702e-05
-0.000172057
1.55553e-05
-0.000172358
1.9318e-05
-0.000172596
2.29181e-05
-0.000173164
2.65042e-05
-0.000173838
2.9894e-05
-0.000174738
3.33039e-05
-0.000176144
3.64995e-05
-0.000177499
3.97385e-05
-0.00017985
4.27781e-05
-0.000181909
4.58246e-05
-0.000185429
4.86133e-05
-0.000188492
5.13286e-05
-0.0001937
5.37467e-05
-0.000198219
5.59489e-05
-0.00020585
5.75912e-05
-0.000212286
5.86805e-05
-0.00022338
5.87825e-05
-0.000232423
5.79691e-05
-0.000248566
5.54122e-05
-0.000260562
-0.000283178
5.09205e-05
3.88101e-06
-0.00017581
7.72349e-06
-0.00017586
1.1532e-05
-0.000175879
1.5227e-05
-0.000176066
1.88837e-05
-0.000176266
2.23546e-05
-0.000176647
2.57619e-05
-0.000177258
2.89246e-05
-0.000177913
3.20098e-05
-0.000179242
3.48211e-05
-0.000180322
3.75093e-05
-0.00018255
3.99175e-05
-0.000184328
4.21456e-05
-0.000187669
4.40852e-05
-0.000190442
4.57664e-05
-0.000195392
4.7057e-05
-0.00019952
4.78981e-05
-0.000206702
4.80447e-05
-0.000212443
4.73606e-05
-0.000222706
4.54318e-05
-0.000230505
4.20744e-05
-0.000245219
3.70048e-05
-0.000255503
-0.000275745
2.95622e-05
3.76142e-06
-0.000179584
7.49095e-06
-0.000179602
1.11853e-05
-0.000179586
1.47736e-05
-0.000179666
1.83077e-05
-0.000179812
2.16531e-05
-0.000180005
2.48925e-05
-0.000180509
2.78706e-05
-0.000180902
3.06782e-05
-0.00018206
3.31673e-05
-0.000182822
3.53926e-05
-0.000184785
3.72676e-05
-0.000186213
3.88085e-05
-0.00018922
3.99627e-05
-0.000191606
4.0665e-05
-0.000196104
4.08562e-05
-0.000199721
4.0456e-05
-0.000206311
3.93174e-05
-0.000211314
3.718e-05
-0.000220578
3.38235e-05
-0.000227158
2.85307e-05
-0.000239936
2.17021e-05
-0.000248684
-0.000265693
1.16401e-05
3.65403e-06
-0.000183249
7.27842e-06
-0.000183238
1.08758e-05
-0.000183195
1.43733e-05
-0.000183175
1.7806e-05
-0.000183255
2.10546e-05
-0.000183264
2.41657e-05
-0.00018363
2.70124e-05
-0.000183759
2.96071e-05
-0.000184665
3.18436e-05
-0.000185068
3.37057e-05
-0.000186657
3.51277e-05
-0.000187645
3.60568e-05
-0.000190158
3.64928e-05
-0.000192051
3.63377e-05
-0.000195958
3.55193e-05
-0.000198911
3.39628e-05
-0.000204763
3.1649e-05
-0.000209009
2.82641e-05
-0.000217202
2.37966e-05
-0.000222699
1.73514e-05
-0.0002335
9.28538e-06
-0.000240627
-0.000254364
-2.05328e-06
3.43815e-06
-0.000186698
6.844e-06
-0.000186654
1.0244e-05
-0.000186605
1.35577e-05
-0.000186499
1.6818e-05
-0.000186526
1.99271e-05
-0.000186383
2.28916e-05
-0.000186604
2.56106e-05
-0.000186487
2.8049e-05
-0.000187112
3.01397e-05
-0.000187167
3.18228e-05
-0.000188348
3.30254e-05
-0.000188856
3.36022e-05
-0.000190743
3.35141e-05
-0.000191971
3.26806e-05
-0.000195133
3.10302e-05
-0.000197269
2.84431e-05
-0.000202184
2.49508e-05
-0.000205525
2.03533e-05
-0.000212613
1.47464e-05
-0.000217101
7.50342e-06
-0.000226266
-1.02593e-06
-0.000232106
-0.000243344
-1.20551e-05
3.21875e-06
-0.000189926
6.40684e-06
-0.000189851
9.59749e-06
-0.000189805
1.27222e-05
-0.000189633
1.58112e-05
-0.000189623
1.87909e-05
-0.000189371
2.16467e-05
-0.000189468
2.42921e-05
-0.000189141
2.66447e-05
-0.000189473
2.86599e-05
-0.00018919
3.0222e-05
-0.000189918
3.12895e-05
-0.000189931
3.1686e-05
-0.000191147
3.13188e-05
-0.000191611
3.00241e-05
-0.000193845
2.78074e-05
-0.00019506
2.44684e-05
-0.000198853
2.00522e-05
-0.000201116
1.42349e-05
-0.000206804
7.36772e-06
-0.000210241
-1.30025e-06
-0.000217606
-1.10013e-05
-0.000222414
-0.000231362
-2.29924e-05
2.85408e-06
-0.000192789
5.68654e-06
-0.000192692
8.51817e-06
-0.000192645
1.13139e-05
-0.000192437
1.40972e-05
-0.000192415
1.68228e-05
-0.000192105
1.94704e-05
-0.000192124
2.19793e-05
-0.000191657
2.4268e-05
-0.000191768
2.62829e-05
-0.000191212
2.7873e-05
-0.000191515
2.89649e-05
-0.000191029
2.94115e-05
-0.0001916
2.9072e-05
-0.000191278
2.76717e-05
-0.000192451
2.51016e-05
-0.000192496
2.11755e-05
-0.000194933
1.59655e-05
-0.000195913
9.2982e-06
-0.000200143
1.3978e-06
-0.000202348
-8.28481e-06
-0.000207931
-1.95303e-05
-0.000211176
-0.000218047
-3.28527e-05
2.51848e-06
-0.000195315
5.02344e-06
-0.000195205
7.52524e-06
-0.000195154
1.00122e-05
-0.000194931
1.24951e-05
-0.000194905
1.49466e-05
-0.000194563
1.73481e-05
-0.000194532
1.96569e-05
-0.000193973
2.18089e-05
-0.000193927
2.3775e-05
-0.000193184
2.54136e-05
-0.000193159
2.66458e-05
-0.000192267
2.7296e-05
-0.000192255
2.72293e-05
-0.000191217
2.61612e-05
-0.000191389
2.39259e-05
-0.000190266
2.00526e-05
-0.000191066
1.45458e-05
-0.000190412
7.09844e-06
-0.000192702
-1.68871e-06
-0.000193568
-1.22775e-05
-0.000197349
-2.43489e-05
-0.000199112
-0.000203518
-3.88864e-05
2.08564e-06
-0.000197408
4.15931e-06
-0.000197285
6.22581e-06
-0.000197228
8.28048e-06
-0.000196992
1.03259e-05
-0.000196957
1.2352e-05
-0.000196595
1.43625e-05
-0.000196548
1.63551e-05
-0.000195971
1.82805e-05
-0.000195857
2.00828e-05
-0.000194992
2.16556e-05
-0.000194737
2.2908e-05
-0.000193525
2.36964e-05
-0.000193049
2.38679e-05
-0.000191394
2.31654e-05
-0.000190692
2.14198e-05
-0.000188526
1.81424e-05
-0.000187794
1.31409e-05
-0.000185416
5.82975e-06
-0.000185397
-3.48111e-06
-0.000184263
-1.4614e-05
-0.000186223
-2.71267e-05
-0.000186606
-0.000188965
-4.16864e-05
1.69851e-06
-0.000199112
3.38962e-06
-0.000198982
5.07589e-06
-0.00019892
6.75912e-06
-0.000198681
8.43945e-06
-0.000198642
1.01255e-05
-0.000198286
1.18191e-05
-0.000198247
1.35421e-05
-0.000197699
1.52552e-05
-0.000197575
1.69298e-05
-0.000196671
1.84623e-05
-0.000196274
1.97709e-05
-0.000194837
2.07182e-05
-0.000194
2.11815e-05
-0.000191861
2.09165e-05
-0.000190431
1.98025e-05
-0.000187416
1.7363e-05
-0.000185359
1.34265e-05
-0.000181484
7.04562e-06
-0.000179021
-1.93066e-06
-0.000175292
-1.39035e-05
-0.000174256
-2.78686e-05
-0.000172647
-0.00017296
-4.38799e-05
1.29345e-06
-0.000200411
2.57959e-06
-0.000200274
3.85578e-06
-0.000200201
5.12536e-06
-0.000199956
6.39041e-06
-0.000199912
7.66287e-06
-0.000199563
8.93659e-06
-0.000199525
1.02234e-05
-0.00019899
1.15032e-05
-0.000198859
1.2797e-05
-0.000197968
1.40379e-05
-0.000197519
1.51583e-05
-0.000195961
1.60294e-05
-0.000194875
1.65516e-05
-0.000192387
1.6523e-05
-0.000190406
1.57825e-05
-0.00018668
1.39309e-05
-0.000183512
1.08036e-05
-0.000178361
5.68827e-06
-0.00017391
-1.88982e-06
-0.000167718
-1.28049e-05
-0.000163345
-2.67766e-05
-0.00015868
-0.000156512
-4.32295e-05
9.52938e-07
-0.000201368
1.89812e-06
-0.000201223
2.8319e-06
-0.000201139
3.7644e-06
-0.000200892
4.69634e-06
-0.000200848
5.63697e-06
-0.000200508
6.58058e-06
-0.000200472
7.5498e-06
-0.000199962
8.52659e-06
-0.000199839
9.54036e-06
-0.000198985
1.05621e-05
-0.000198543
1.15905e-05
-0.000196993
1.24787e-05
-0.000195766
1.31563e-05
-0.000193067
1.34321e-05
-0.000190685
1.32498e-05
-0.0001865
1.22523e-05
-0.000182517
1.03337e-05
-0.000176446
6.91908e-06
-0.000170499
1.56986e-06
-0.000162373