/*--------------------------------*- C++ -*----------------------------------*\
| =========                 |                                                 |
| \\      /  F ield         | OpenFOAM: The Open Source CFD Toolbox           |
|  \\    /   O peration     | Version:  2012                                  |
|   \\  /    A nd           | Website:  www.openfoam.com                      |
|    \\/     M anipulation  |                                                 |
\*---------------------------------------------------------------------------*/
FoamFile
{
    version     2.0;
    format      ascii;
    class       volScalarField;
    location    "0.34";
    object      rho;
}
// * * * * * * * * * * * * * * * * * * * * * * * * * * * * * * * * * * * * * //

dimensions      [1 -3 0 0 0 0 0];


internalField   nonuniform List<scalar> 
2268
(
1000.05
1000.05
1000.05
1000.05
1000.05
1000.05
1000.05
1000.05
1000.05
1000.05
1000.05
1000.05
1000.05
1000.05
1000.05
1000.05
1000.05
1000.05
1000.05
1000.05
1000.05
1000.05
998.96
1000.05
1000.05
1000.05
1000.05
1000.05
1000.05
1000.05
1000.05
1000.05
1000.05
1000.05
1000.05
1000.05
1000.05
1000.05
1000.05
1000.05
1000.05
1000.05
1000.05
1000.05
1000.05
999.439
1000.05
1000.05
1000.05
1000.05
1000.05
1000.05
1000.05
1000.05
1000.05
1000.05
1000.05
1000.05
1000.05
1000.05
1000.05
1000.05
1000.05
1000.05
1000.05
1000.05
1000.05
1000.05
998.984
1000.05
1000.05
1000.05
1000.05
1000.05
1000.05
1000.05
1000.05
1000.05
1000.05
1000.05
1000.05
1000.05
1000.05
1000.05
1000.05
1000.05
1000.05
1000.05
1000.05
1000.05
1000.05
997.687
1000.05
1000.05
1000.05
1000.05
1000.05
1000.05
1000.05
1000.05
1000.05
1000.05
1000.05
1000.05
1000.05
1000.05
1000.05
1000.05
1000.05
1000.05
1000.05
1000.05
1000.05
1000.05
997.676
1000.05
1000.05
1000.05
1000.05
1000.05
1000.05
1000.05
1000.05
1000.05
1000.05
1000.05
1000.05
1000.05
1000.05
1000.05
1000.05
1000.05
1000.05
1000.05
1000.05
1000.05
1000.05
997.676
1000.05
1000.05
1000.05
1000.05
1000.05
1000.05
1000.05
1000.05
1000.05
1000.05
1000.05
1000.05
1000.05
1000.05
1000.05
1000.05
1000.05
1000.05
1000.05
1000.05
1000.05
1000.05
997.676
1000.05
1000.05
1000.05
1000.05
1000.05
1000.05
1000.05
1000.05
1000.05
1000.05
1000.05
1000.05
1000.05
1000.05
1000.05
1000.05
1000.05
1000.05
1000.05
1000.05
1000.05
1000.05
998.464
1.28262
1.28262
1.28261
1.28261
1.2826
1.28259
1.28259
1.28258
1.28258
1.28257
1.28257
1.28257
1.28257
1.28257
1.28257
1.28257
1.28257
1.28257
1.28257
1.28262
1.28262
1.28261
1.28261
1.2826
1.28259
1.28259
1.28258
1.28258
1.28257
1.28257
1.28257
1.28257
1.28257
1.28257
1.28257
1.28257
1.28257
1.28257
1.28262
1.28262
1.28261
1.2826
1.2826
1.28259
1.28259
1.28258
1.28258
1.28257
1.28257
1.28257
1.28257
1.28257
1.28257
1.28257
1.28257
1.28257
1.28257
1.28263
1.28262
1.28261
1.2826
1.2826
1.28259
1.28259
1.28258
1.28258
1.28257
1.28257
1.28257
1.28257
1.28257
1.28257
1.28257
1.28257
1.28257
1.28257
1.28263
1.28262
1.28261
1.2826
1.2826
1.28259
1.28259
1.28258
1.28258
1.28257
1.28257
1.28257
1.28257
1.28256
1.28257
1.28257
1.28257
1.28257
1.28257
1.28263
1.28262
1.28261
1.28261
1.2826
1.28259
1.28259
1.28258
1.28258
1.28257
1.28257
1.28257
1.28257
1.28256
1.28257
1.28257
1.28257
1.28257
1.28257
1.28263
1.28262
1.28261
1.2826
1.2826
1.28259
1.28259
1.28258
1.28258
1.28257
1.28257
1.28257
1.28257
1.28256
1.28257
1.28257
1.28257
1.28257
1.28257
1.28263
1.28262
1.28262
1.28261
1.2826
1.28259
1.28259
1.28258
1.28258
1.28257
1.28257
1.28257
1.28257
1.28256
1.28257
1.28257
1.28257
1.28257
1.28257
1000.05
1000.05
1000.05
1000.05
1000.05
1000.05
1000.05
1000.05
1000.05
1000.05
1000.05
1000.05
1000.05
1000.05
1000.05
1000.05
1000.05
1000.05
1000.05
1000.05
1000.05
1000.05
999.557
1000.05
1000.05
1000.05
1000.05
1000.05
1000.05
1000.05
1000.05
1000.05
1000.05
1000.05
1000.05
1000.05
1000.05
1000.05
1000.05
1000.05
1000.05
1000.05
1000.05
1000.05
1000.05
999.508
1000.05
1000.05
1000.05
1000.05
1000.05
1000.04
1000.03
999.985
999.903
999.729
999.473
999.062
998.643
998.132
998.161
998.375
1000.05
1000.05
1000.05
1000.05
1000.05
1000.05
999.955
990.03
989.428
988.319
985.949
981.551
973.384
960.235
940.415
916.627
884.968
853.28
816.387
787.003
755.213
749.565
746.306
775.01
830.245
906.306
998.991
1000.05
1000.05
1000.05
557.789
546.652
525.929
489.444
447.36
400.133
349.436
295.357
247.47
197.156
159.707
120.276
97.5889
72.6295
66.635
63.1898
77.8744
113.191
186.853
315.199
541.36
768.653
948.768
1.29331
1.2933
1.2933
1.29331
1.29333
1.29331
1.29333
1.29331
1.29328
1.29325
1.29324
1.29323
1.29322
1.29321
1.29321
1.29321
1.29321
1.4416
2.5117
6.67342
21.9045
102.054
266.714
1.29324
1.29324
1.29323
1.29323
1.29322
1.29321
1.29321
1.2932
1.29319
1.29319
1.29319
1.2932
1.2932
1.29319
1.29317
1.29318
1.29318
1.29318
1.29323
1.29397
1.33706
2.14977
6.78012
1.29318
1.29318
1.29318
1.29318
1.29318
1.29317
1.29317
1.29317
1.29317
1.29318
1.29382
1.29475
1.29416
1.29324
1.29316
1.29315
1.29372
1.29367
1.29315
1.29316
1.29322
1.29329
1.3094
1.29317
1.29316
1.29316
1.29316
1.29316
1.29316
1.29316
1.29316
1.29316
1.29371
1.29564
1.29564
1.29471
1.29318
1.29315
1.29315
1.29408
1.3126
1.31507
1.30609
1.29403
1.29324
1.29369
1.29316
1.29316
1.29316
1.29316
1.29316
1.29316
1.29316
1.29316
1.29316
1.29493
1.29564
1.29533
1.29354
1.29317
1.29323
1.29315
1.29426
1.32084
1.33359
1.33357
1.33358
1.32728
1.30101
1.29316
1.29316
1.29316
1.29316
1.29316
1.29316
1.29316
1.29316
1.29316
1.29378
1.29436
1.29315
1.29315
1.29315
1.29329
1.29343
1.29315
1.29314
1.29991
1.30333
1.3038
1.30214
1.29687
1.29316
1.29316
1.29316
1.29316
1.29316
1.29316
1.29316
1.29316
1.29318
1.29315
1.29315
1.29315
1.29315
1.29318
1.29315
1.29314
1.29314
1.29314
1.29314
1.29313
1.29313
1.29313
1.29316
1.29316
1.29316
1.29316
1.29316
1.29316
1.29316
1.29315
1.29316
1.29315
1.29315
1.29315
1.29315
1.29315
1.29315
1.29315
1.29314
1.29314
1.29314
1.29313
1.29313
1.29313
1.29313
1.29312
1.29316
1.29316
1.29316
1.29316
1.29316
1.29315
1.29315
1.29315
1.29315
1.29315
1.29315
1.29315
1.29315
1.29315
1.29315
1.29314
1.29314
1.29314
1.29313
1.29313
1.29313
1.29313
1.29312
1.29315
1.29315
1.29315
1.29315
1.29315
1.29315
1.29315
1.29315
1.29315
1.29315
1.29315
1.29315
1.29315
1.29314
1.29314
1.29314
1.29314
1.29313
1.29313
1.29313
1.29313
1.29312
1.29312
1.29315
1.29315
1.29315
1.29315
1.29315
1.29315
1.29315
1.29315
1.29315
1.29315
1.29315
1.29315
1.29314
1.29314
1.29314
1.29314
1.29314
1.29313
1.29313
1.29313
1.29313
1.29312
1.29312
1.29315
1.29315
1.29315
1.29315
1.29315
1.29315
1.29315
1.29315
1.29315
1.29315
1.29314
1.29314
1.29314
1.29314
1.29314
1.29314
1.29313
1.29313
1.29313
1.29313
1.29312
1.29312
1.29312
1.29315
1.29315
1.29315
1.29315
1.29315
1.29315
1.29315
1.29315
1.29315
1.29314
1.29314
1.29314
1.29314
1.29314
1.29314
1.29313
1.29313
1.29313
1.29313
1.29312
1.29312
1.29312
1.29312
1.29315
1.29315
1.29315
1.29315
1.29315
1.29315
1.29315
1.29314
1.29314
1.29314
1.29314
1.29314
1.29314
1.29314
1.29313
1.29313
1.29313
1.29313
1.29313
1.29312
1.29312
1.29312
1.29311
1.29315
1.29315
1.29315
1.29315
1.29315
1.29314
1.29314
1.29314
1.29314
1.29314
1.29314
1.29314
1.29314
1.29314
1.29313
1.29313
1.29313
1.29313
1.29312
1.29312
1.29312
1.29311
1.29311
1.29314
1.29314
1.29314
1.29314
1.29314
1.29314
1.29314
1.29314
1.29314
1.29314
1.29314
1.29314
1.29314
1.29313
1.29313
1.29313
1.29313
1.29312
1.29312
1.29312
1.29312
1.29311
1.29311
1.29314
1.29314
1.29314
1.29314
1.29314
1.29314
1.29314
1.29314
1.29314
1.29314
1.29314
1.29314
1.29313
1.29313
1.29313
1.29313
1.29313
1.29312
1.29312
1.29312
1.29311
1.29311
1.2931
1.29314
1.29314
1.29314
1.29314
1.29314
1.29314
1.29314
1.29314
1.29314
1.29314
1.29314
1.29313
1.29313
1.29313
1.29313
1.29313
1.29312
1.29312
1.29312
1.29312
1.29311
1.29311
1.2931
1.29314
1.29314
1.29314
1.29314
1.29314
1.29314
1.29314
1.29314
1.29314
1.29314
1.29313
1.29313
1.29313
1.29313
1.29313
1.29313
1.29312
1.29312
1.29312
1.29312
1.29311
1.29311
1.2931
1.29314
1.29314
1.29314
1.29314
1.29314
1.29314
1.29314
1.29314
1.29313
1.29313
1.29313
1.29313
1.29313
1.29313
1.29313
1.29312
1.29312
1.29312
1.29312
1.29311
1.29311
1.29311
1.2931
1.29314
1.29314
1.29314
1.29314
1.29314
1.29313
1.29313
1.29313
1.29313
1.29313
1.29313
1.29313
1.29313
1.29313
1.29313
1.29312
1.29312
1.29312
1.29312
1.29311
1.29311
1.29311
1.2931
1.29313
1.29313
1.29313
1.29313
1.29313
1.29313
1.29313
1.29313
1.29313
1.29313
1.29313
1.29313
1.29313
1.29313
1.29312
1.29312
1.29312
1.29312
1.29312
1.29311
1.29311
1.29311
1.2931
1.29313
1.29313
1.29313
1.29313
1.29313
1.29313
1.29313
1.29313
1.29313
1.29313
1.29313
1.29313
1.29313
1.29313
1.29312
1.29312
1.29312
1.29312
1.29312
1.29311
1.29311
1.29311
1.2931
1.29312
1.29312
1.29312
1.29312
1.29313
1.29313
1.29313
1.29313
1.29313
1.29313
1.29313
1.29313
1.29312
1.29312
1.29312
1.29312
1.29312
1.29312
1.29312
1.29311
1.29311
1.29311
1.2931
1.29312
1.29312
1.29312
1.29312
1.29312
1.29312
1.29312
1.29312
1.29312
1.29312
1.29312
1.29312
1.29312
1.29312
1.29312
1.29312
1.29312
1.29312
1.29312
1.29311
1.29311
1.29311
1.2931
1.29311
1.29311
1.29311
1.29311
1.29311
1.29311
1.29311
1.29311
1.29311
1.29311
1.29311
1.29312
1.29312
1.29312
1.29312
1.29312
1.29312
1.29312
1.29312
1.29311
1.29311
1.29311
1.2931
1.29309
1.29309
1.29309
1.2931
1.2931
1.2931
1.2931
1.2931
1.2931
1.2931
1.29311
1.29311
1.29311
1.29311
1.29311
1.29311
1.29312
1.29312
1.29312
1.29311
1.29311
1.29311
1.29311
1.29308
1.29308
1.29308
1.29308
1.29308
1.29308
1.29308
1.29309
1.29309
1.29309
1.29309
1.29309
1.2931
1.2931
1.2931
1.29311
1.29311
1.29311
1.29311
1.29311
1.29311
1.29311
1.29311
1.29307
1.29307
1.29307
1.29307
1.29307
1.29307
1.29307
1.29307
1.29307
1.29308
1.29308
1.29308
1.29308
1.29309
1.29309
1.2931
1.2931
1.29311
1.29311
1.29311
1.29311
1.29311
1.29311
1.29306
1.29306
1.29306
1.29306
1.29306
1.29306
1.29306
1.29306
1.29306
1.29306
1.29307
1.29307
1.29307
1.29307
1.29308
1.29308
1.29309
1.2931
1.2931
1.29311
1.29311
1.29311
1.29311
1.29305
1.29305
1.29305
1.29305
1.29305
1.29305
1.29306
1.29306
1.29306
1.29306
1.29306
1.29306
1.29306
1.29306
1.29307
1.29307
1.29308
1.29308
1.29309
1.2931
1.29311
1.29311
1.29311
1.29305
1.29305
1.29305
1.29305
1.29305
1.29305
1.29305
1.29305
1.29305
1.29305
1.29305
1.29305
1.29305
1.29305
1.29306
1.29306
1.29306
1.29307
1.29308
1.29309
1.2931
1.29311
1.29311
1.29304
1.29304
1.29304
1.29304
1.29304
1.29304
1.29304
1.29304
1.29305
1.29305
1.29305
1.29305
1.29305
1.29305
1.29305
1.29305
1.29306
1.29306
1.29307
1.29308
1.29309
1.2931
1.29311
1.29304
1.29304
1.29304
1.29304
1.29304
1.29304
1.29304
1.29304
1.29304
1.29304
1.29304
1.29304
1.29304
1.29305
1.29305
1.29305
1.29305
1.29306
1.29306
1.29307
1.29308
1.29309
1.2931
1.29304
1.29304
1.29304
1.29304
1.29304
1.29304
1.29304
1.29304
1.29304
1.29304
1.29304
1.29304
1.29304
1.29305
1.29305
1.29305
1.29305
1.29306
1.29306
1.29307
1.29307
1.29308
1.29309
1.29304
1.29304
1.29304
1.29304
1.29304
1.29304
1.29304
1.29304
1.29304
1.29304
1.29304
1.29304
1.29304
1.29305
1.29305
1.29305
1.29305
1.29305
1.29306
1.29306
1.29307
1.29308
1.29309
1.29304
1.29304
1.29304
1.29304
1.29304
1.29304
1.29304
1.29304
1.29304
1.29304
1.29304
1.29305
1.29305
1.29305
1.29305
1.29305
1.29305
1.29306
1.29306
1.29307
1.29307
1.29308
1.29309
998.163
985.45
411.367
1.28082
998.739
999.811
924.966
583.813
999.908
999.811
997.854
985.546
1000.05
999.999
1000.02
999.93
1000.05
1000.05
1000.05
1000.05
427.178
562.264
689.194
781.95
14.7238
27.5208
58.0603
100.634
1.33898
1.46933
2.03607
2.88802
1.29485
1.29752
1.30151
1.30217
1.29317
1.29314
1.29314
1.29313
1.2932
1.29312
1.29312
1.29312
1.29314
1.29312
1.29312
1.29312
1.29312
1.29312
1.29312
1.29312
1.29312
1.29312
1.29312
1.29312
1.29312
1.29312
1.29311
1.29311
1.29312
1.29312
1.29311
1.29311
1.29311
1.29311
1.29311
1.29311
1.29311
1.29311
1.29311
1.2931
1.29311
1.29311
1.2931
1.2931
1.2931
1.2931
1.2931
1.2931
1.2931
1.2931
1.29309
1.29309
1.2931
1.2931
1.29309
1.29309
1.2931
1.29309
1.29309
1.29309
1.2931
1.29309
1.29309
1.29308
1.2931
1.29309
1.29309
1.29309
1.2931
1.29309
1.29309
1.29309
1.2931
1.29309
1.29309
1.29309
1.2931
1.2931
1.29309
1.29309
1.2931
1.2931
1.29309
1.29309
1.2931
1.2931
1.29309
1.29309
1.2931
1.2931
1.2931
1.29309
1.2931
1.2931
1.2931
1.2931
1.2931
1.2931
1.2931
1.2931
1.29311
1.29311
1.2931
1.2931
1.29311
1.29311
1.29311
1.29311
1.29311
1.29311
1.29311
1.29311
1.29311
1.29311
1.29311
1.29311
1.29312
1.29312
1.29312
1.29312
1.29311
1.29312
1.29312
1.29312
1.2931
1.29311
1.29312
1.29312
1.2931
1.2931
1.29311
1.29311
1.2931
1.2931
1.29311
1.29311
1.28264
1.28263
1.28262
1.2826
1.2826
1.28259
1.28259
1.28259
1.28258
1.28257
1.28257
1.28256
1.28257
1.28256
1.28257
1.28257
1.28257
1.28257
1.28257
135.112
14.812
1.28372
1.28441
1.28284
1.2826
1.28259
1.28258
1.28257
1.28258
1.28258
1.28257
1.28257
1.28256
1.28257
1.28257
1.28257
1.28257
1.28258
820.089
631.322
332.054
149.213
90.4523
1.27689
1.28345
1.28339
1.28261
1.28261
1.28259
1.28258
1.2826
1.2826
1.28258
1.28258
1.28257
1.28258
1.28258
998.295
992.277
948.772
849.27
771.317
591.216
300.891
169.435
63.5585
1.28372
1.28578
1.28301
1.28265
1.28308
1.28358
1.28285
1.28261
1.2826
1.28262
1000.05
1000.05
1000.05
999.513
997.997
990.306
939.464
871.902
759.187
493.6
235.731
4.90925
1.28364
1.28416
1.2863
1.28432
1.28653
1.28286
1.28284
888.631
958.588
989.767
1000.05
1000.05
1000.05
1000.05
1000.05
1000.05
986.477
913.678
695.47
356.979
23.521
1.28559
1.28704
1.32312
1.28661
1.28363
197.35
317.823
406.055
507.4
608.76
706.056
788.587
848.342
918.812
1000.01
1000.01
1000.01
961.17
707.255
269.442
1.28158
1.28443
1.41649
1.32121
3.91955
6.44756
10.3606
16.5138
31.713
63.3674
113.451
174.882
263.36
458.147
693.011
917.628
999.966
999.966
884.233
408.207
30.8307
2.86881
1.82894
1.3002
1.29725
1.2968
1.30003
1.31442
1.39016
1.68927
2.52841
5.2546
15.4049
67.065
235.321
606.759
974.521
974.519
887.298
342.251
22.4844
3.16317
1.29312
1.29312
1.29312
1.29317
1.29319
1.29316
1.29312
1.29313
1.29371
1.3035
1.565
6.83679
32.3344
423.518
906.777
923.088
698.496
126.508
8.91615
1.29311
1.29311
1.2931
1.29311
1.29318
1.29315
1.2931
1.29308
1.29308
1.29307
1.29353
1.29766
1.74758
1.29316
551.027
923.088
892.186
355.146
32.8996
1.29311
1.29311
1.2931
1.2931
1.29312
1.29312
1.2931
1.29309
1.29309
1.29308
1.2931
1.29313
1.29318
1.29314
110.189
764.777
892.184
646.142
104.716
1.29311
1.29311
1.2931
1.2931
1.29309
1.29309
1.29309
1.29308
1.29309
1.29308
1.29309
1.29308
1.29312
1.29314
1.29323
540.406
882.291
755.899
144.715
1.29311
1.29311
1.2931
1.2931
1.2931
1.29309
1.29309
1.29309
1.29309
1.29308
1.2931
1.29308
1.29311
1.29311
1.29323
283.536
864.541
758.239
146.582
1.29311
1.2931
1.2931
1.29309
1.29309
1.29308
1.29309
1.29309
1.2931
1.29309
1.2931
1.29308
1.29311
1.2931
1.29321
102.514
801.074
801.244
170.082
1.29311
1.2931
1.2931
1.29309
1.29309
1.29308
1.29308
1.29308
1.2931
1.29309
1.2931
1.29307
1.29311
1.29308
1.29323
39.6077
654.441
775.623
210.722
1.2931
1.29312
1.2932
1.29317
1.29311
1.29307
1.29306
1.29306
1.29308
1.29307
1.2931
1.29307
1.29311
1.29306
1.29325
147.72
569.598
458.306
160.678
1.2931
1.29333
1.29349
1.29346
1.29332
1.29303
1.29303
1.29303
1.29305
1.29305
1.29308
1.29305
1.2931
1.29305
1.2933
385.444
685.334
341.501
57.3615
1.2931
1.29339
1.29337
1.29304
1.29751
1.29662
1.29298
1.29299
1.29303
1.29302
1.29306
1.29304
1.29308
1.29306
23.942
585.987
685.33
491.791
50.2508
1.29309
1.29312
1.29305
1.29302
1.30893
1.42337
1.4296
1.33045
1.29384
1.29308
1.29325
1.29347
1.29317
1.29308
8.19656
406.41
685.333
527.461
50.2533
1.29308
1.29307
1.29301
1.34881
1.457
1.45695
1.45694
1.38407
1.2938
1.29312
1.29378
1.29379
1.2933
1.29311
5.27117
73.3526
225.456
258.812
51.0701
1.29308
1.29502
1.293
1.42886
1.45701
1.45697
1.38746
1.31761
1.29324
1.293
1.2932
1.29357
1.29306
1.29309
3.37047
3.47541
4.16935
6.61663
40.0005
1.29307
1.30264
1.30329
1.41742
1.45698
1.36688
1.32615
1.3077
1.29296
1.29299
1.29302
1.29305
1.29305
1.54546
1.96691
1.70003
1.36335
1.29276
18.6719
1.29307
1.30146
1.32022
1.41481
1.34689
1.29728
1.33734
1.35441
1.34194
1.31152
1.29664
1.29304
1.29306
1.5462
1.4463
1.32959
1.2987
1.29287
2.06584
1.29308
1.29399
1.32492
1.34674
1.30604
1.29528
1.3361
1.35471
1.33569
1.31821
1.31007
1.30215
1.31898
1.32429
1.29901
1.294
1.29327
1.29293
1.29398
1.29309
1.29397
1.31576
1.29335
1.29345
1.2938
1.29921
1.30343
1.29603
1.29731
1.30206
1.3059
1.30423
1.29367
1.29305
1.293
1.29303
1.29291
1.29133
1.29308
1.2933
1.29373
1.29314
1.29314
1.29312
1.29306
1.29306
1.2931
1.29311
1.2933
1.29666
1.29314
1.29306
1.29313
1.29298
1.29298
1.29288
1.2914
1.29308
1.29307
1.29308
1.30417
1.29305
1.29305
1.29305
1.29307
1.29316
1.29328
1.29327
1.29318
1.29307
1.63197
1.32703
1.29291
1.29291
1.29284
1.29147
1.29309
1.29308
1.2937
1.30413
1.31209
1.29567
1.29306
1.29308
1.29322
40.9548
267.021
155.717
17.0907
1.62282
1.29338
1.29284
1.29279
1.29276
1.29156
1.29309
1.29308
1.29313
1.29544
1.3133
1.31345
1.29669
1.29308
1.29326
345.463
472.269
472.447
118.943
1.93267
1.29285
1.29276
1.29263
1.29264
1.29165
1.29309
1.29308
1.29307
1.29305
1.29578
1.31489
1.30233
1.29306
1.2932
315.994
472.447
451.843
99.7617
1.79823
1.29281
1.29267
1.29243
1.29249
1.2917
1.29309
1.29309
1.29307
1.29306
1.2972
1.31489
1.29967
1.29303
3.38846
73.1451
219.968
141.317
28.0966
1.64519
1.29281
1.29259
1.29227
1.29238
1.29171
1.29309
1.29309
1.29308
1.29307
1.29304
1.293
1.30244
1.36607
2.34199
2.35868
3.77833
2.89297
2.61099
1.3758
1.29283
1.29277
1.29293
1.29227
1.29174
1.2931
1.29309
1.29309
1.29308
1.29306
1.29311
1.30352
1.34242
1.29414
1.29288
1.29292
1.29288
1.29347
1.29741
1.29286
1.29285
1.30204
1.30391
1.295
1.2931
1.2931
1.29309
1.29309
1.29307
1.29306
1.29303
1.29312
1.29295
1.29292
1.29292
1.29296
1.29297
1.293
1.29292
1.2928
1.30321
1.32137
1.32115
1.29311
1.2931
1.2931
1.29309
1.29309
1.29308
1.29306
1.29304
1.29302
1.29301
1.293
1.29302
1.29302
1.29304
1.29299
1.29297
1.29529
1.31221
1.32096
1.29311
1.29311
1.2931
1.2931
1.29309
1.29309
1.29308
1.29307
1.29306
1.29305
1.29304
1.29305
1.29304
1.29306
1.29304
1.29307
1.29307
1.29397
1.29768
1.29312
1.29311
1.29311
1.29311
1.2931
1.2931
1.29309
1.29309
1.29308
1.29308
1.29307
1.29308
1.29307
1.29308
1.29307
1.29309
1.29308
1.29308
1.29306
1.29312
1.29312
1.29311
1.29311
1.29311
1.29311
1.2931
1.2931
1.2931
1.2931
1.29309
1.29309
1.29309
1.2931
1.2931
1.29312
1.29312
1.29315
1.29314
1.29312
1.29313
1.29312
1.29312
1.29312
1.29312
1.29311
1.29311
1.29311
1.29311
1.29311
1.29311
1.2931
1.29311
1.29311
1.29312
1.29312
1.29314
1.29314
1.29312
1.29313
1.29313
1.29312
1.29312
1.29312
1.29312
1.29312
1.29311
1.29311
1.29311
1.29311
1.29311
1.29312
1.29312
1.29313
1.29313
1.29314
1.29314
1.29312
1.29313
1.29313
1.29313
1.29313
1.29313
1.29313
1.29313
1.29313
1.29312
1.29312
1.29312
1.29312
1.29312
1.29312
1.29312
1.29312
1.29313
1.29313
)
;

boundaryField
{
    leftWall
    {
        type            calculated;
        value           nonuniform List<scalar> 
50
(
1000.05
1000.05
1000.05
1000.05
1000.05
1000.05
1000.05
1000.05
1000.05
1000.05
1000.05
990.03
557.789
1.29331
1.29324
1.29318
1.29317
1.29316
1.29316
1.29316
1.29316
1.29316
1.29315
1.29315
1.29315
1.29315
1.29315
1.29315
1.29314
1.29314
1.29314
1.29314
1.29314
1.29314
1.29313
1.29313
1.29312
1.29312
1.29311
1.29309
1.29308
1.29307
1.29306
1.29305
1.29305
1.29304
1.29304
1.29304
1.29304
1.29304
)
;
    }
    rightWall
    {
        type            calculated;
        value           nonuniform List<scalar> 
50
(
1.28257
1.28257
1.28257
1.28257
1.28257
1.28257
1.28257
1.28257
1.28257
1.28258
1.28258
1.28262
1.28284
1.28363
1.32121
1.82894
3.16317
8.91615
32.8996
104.716
144.715
146.582
170.082
210.722
160.678
57.3615
50.2508
50.2533
51.0701
40.0005
18.6719
2.06584
1.29398
1.29133
1.2914
1.29147
1.29156
1.29165
1.2917
1.29171
1.29174
1.295
1.32115
1.32096
1.29768
1.29306
1.29314
1.29314
1.29314
1.29313
)
;
    }
    lowerWall
    {
        type            calculated;
        value           nonuniform List<scalar> 
62
(
1000.05
1000.05
1000.05
1000.05
1000.05
1000.05
1000.05
1000.05
1000.05
1000.05
1000.05
1000.05
1000.05
1000.05
1000.05
1000.05
1000.05
1000.05
1000.05
1000.05
1000.05
1000.05
998.96
998.96
999.439
998.984
997.687
997.676
997.676
997.676
998.464
998.163
985.45
411.367
1.28082
1.28262
1.28262
1.28262
1.28263
1.28263
1.28263
1.28263
1.28263
1.28263
1.28262
1.28261
1.28261
1.2826
1.28259
1.28259
1.28258
1.28258
1.28257
1.28257
1.28257
1.28257
1.28257
1.28257
1.28257
1.28257
1.28257
1.28257
)
;
    }
    atmosphere
    {
        type            calculated;
        value           nonuniform List<scalar> 
46
(
1.29314
1.29314
1.29314
1.29314
1.29314
1.29314
1.29314
1.29314
1.29314
1.29314
1.29314
1.29314
1.29314
1.29314
1.29314
1.29315
1.29315
1.29315
1.29316
1.29316
1.29317
1.29318
1.29318
1.29319
1.2932
1.2932
1.29321
1.29322
1.29322
1.29323
1.29323
1.29323
1.29323
1.29322
1.29322
1.29322
1.29322
1.29322
1.29322
1.29322
1.29322
1.29322
1.29323
1.29323
1.29323
1.29323
)
;
    }
    defaultFaces
    {
        type            empty;
    }
}


// ************************************************************************* //
