/*--------------------------------*- C++ -*----------------------------------*\
| =========                 |                                                 |
| \\      /  F ield         | OpenFOAM: The Open Source CFD Toolbox           |
|  \\    /   O peration     | Version:  2012                                  |
|   \\  /    A nd           | Website:  www.openfoam.com                      |
|    \\/     M anipulation  |                                                 |
\*---------------------------------------------------------------------------*/
FoamFile
{
    version     2.0;
    format      ascii;
    class       volScalarField;
    location    "0.34";
    object      rhogh;
}
// * * * * * * * * * * * * * * * * * * * * * * * * * * * * * * * * * * * * * //

dimensions      [1 -1 -2 0 0 0 0];


internalField   nonuniform List<scalar> 
2268
(
-29.4294
-29.4294
-29.4294
-29.4294
-29.4294
-29.4294
-29.4294
-29.4294
-29.4294
-29.4294
-29.4294
-29.4294
-29.4294
-29.4294
-29.4294
-29.4294
-29.4294
-29.4294
-29.4294
-29.4294
-29.4294
-29.4294
-29.3971
-88.2881
-88.2881
-88.2881
-88.2881
-88.2881
-88.2881
-88.2881
-88.2881
-88.2881
-88.2881
-88.2881
-88.2881
-88.2881
-88.2881
-88.2881
-88.2881
-88.2881
-88.2881
-88.2881
-88.2881
-88.2881
-88.2881
-88.2337
-147.147
-147.147
-147.147
-147.147
-147.147
-147.147
-147.147
-147.147
-147.147
-147.147
-147.147
-147.147
-147.147
-147.147
-147.147
-147.147
-147.147
-147.147
-147.147
-147.147
-147.147
-147.147
-146.989
-206.006
-206.006
-206.006
-206.006
-206.006
-206.006
-206.006
-206.006
-206.006
-206.006
-206.006
-206.006
-206.006
-206.006
-206.006
-206.006
-206.006
-206.006
-206.006
-206.006
-206.006
-206.006
-205.517
-264.864
-264.864
-264.864
-264.864
-264.864
-264.864
-264.864
-264.864
-264.864
-264.864
-264.864
-264.864
-264.864
-264.864
-264.864
-264.864
-264.864
-264.864
-264.864
-264.864
-264.864
-264.864
-264.234
-323.723
-323.723
-323.723
-323.723
-323.723
-323.723
-323.723
-323.723
-323.723
-323.723
-323.723
-323.723
-323.723
-323.723
-323.723
-323.723
-323.723
-323.723
-323.723
-323.723
-323.723
-323.723
-322.952
-382.582
-382.582
-382.582
-382.582
-382.582
-382.582
-382.582
-382.582
-382.582
-382.582
-382.582
-382.582
-382.582
-382.582
-382.582
-382.582
-382.582
-382.582
-382.582
-382.582
-382.582
-382.582
-381.671
-441.44
-441.44
-441.44
-441.44
-441.44
-441.44
-441.44
-441.44
-441.44
-441.44
-441.44
-441.44
-441.44
-441.44
-441.44
-441.44
-441.44
-441.44
-441.44
-441.44
-441.44
-441.44
-440.738
-3.63484e-22
-5.40038e-21
-6.93828e-20
-4.94899e-19
-1.27325e-18
-1.46486e-18
-8.95614e-19
-4.59618e-19
-5.39312e-20
-1.08764e-20
-1.84368e-21
-4.47138e-22
-3.15757e-22
-5.12325e-23
-2.6653e-23
-2.6653e-23
-9.14557e-23
-3.63904e-22
-2.69337e-24
-7.94447e-20
-2.25016e-18
-2.73476e-17
-1.82586e-16
-4.08279e-16
-4.18434e-16
-2.2706e-16
-1.51624e-16
-1.69071e-17
-3.67141e-18
-7.15795e-19
-1.94098e-19
-1.41763e-19
-2.24941e-20
-1.03154e-20
-7.46031e-21
-4.39667e-20
-1.66629e-19
-5.55923e-22
-7.27064e-18
-2.10907e-16
-2.65715e-15
-1.77191e-14
-3.75643e-14
-3.67774e-14
-1.86697e-14
-1.20429e-14
-1.40117e-15
-3.19656e-16
-6.9017e-17
-2.13344e-17
-1.70407e-17
-2.5187e-18
-1.072e-18
-8.76725e-19
-5.3473e-18
-1.94226e-17
-5.83618e-20
-5.50691e-16
-1.41423e-14
-1.61325e-13
-9.4522e-13
-1.81972e-12
-1.651e-12
-7.48089e-13
-4.49568e-13
-5.65504e-14
-1.41509e-14
-3.49629e-15
-1.2489e-15
-1.133e-15
-1.40708e-16
-5.63883e-17
-5.37664e-17
-3.30205e-16
-1.14542e-15
-3.10239e-18
-1.91006e-14
-5.04953e-13
-5.67463e-12
-3.01081e-11
-5.17914e-11
-4.23079e-11
-1.90943e-11
-1.0646e-11
-1.45611e-12
-3.94129e-13
-1.07343e-13
-4.64612e-14
-5.07077e-14
-4.91581e-15
-1.83811e-15
-2.16955e-15
-1.25965e-14
-4.13514e-14
-1.05696e-16
-7.40407e-13
-1.49427e-11
-1.43212e-10
-6.0089e-10
-9.51677e-10
-7.27131e-10
-3.12683e-10
-1.54561e-10
-2.38743e-11
-7.30576e-12
-2.33783e-12
-1.27191e-12
-1.60674e-12
-1.14101e-13
-4.09057e-14
-6.58164e-14
-3.20595e-13
-9.88741e-13
-2.74804e-15
-1.23043e-11
-2.55846e-10
-2.28483e-09
-7.62757e-09
-1.11376e-08
-7.66014e-09
-3.58362e-09
-1.67454e-09
-2.8814e-10
-9.80275e-11
-3.6506e-11
-2.60033e-11
-3.68876e-11
-1.95273e-12
-6.83557e-13
-1.64902e-12
-5.6503e-12
-1.61506e-11
-6.59381e-14
-2.22175e-10
-4.08393e-09
-3.74902e-08
-1.05002e-07
-1.56447e-07
-6.1912e-08
-3.14169e-08
-1.33048e-08
-2.26928e-09
-8.99436e-10
-4.52496e-10
-4.14747e-10
-6.11009e-10
-2.75107e-11
-9.9018e-12
-3.48341e-11
-6.89312e-11
-1.80714e-10
-1.55619e-12
-533.467
-533.467
-533.467
-533.467
-533.467
-533.467
-533.467
-533.467
-533.467
-533.467
-533.467
-533.467
-533.467
-533.467
-533.467
-533.467
-533.467
-533.467
-533.467
-533.467
-533.467
-533.467
-533.202
-658.662
-658.662
-658.662
-658.662
-658.662
-658.662
-658.662
-658.662
-658.662
-658.662
-658.662
-658.662
-658.662
-658.662
-658.662
-658.662
-658.662
-658.662
-658.662
-658.662
-658.662
-658.662
-658.302
-783.855
-783.854
-783.854
-783.853
-783.851
-783.846
-783.834
-783.802
-783.738
-783.601
-783.4
-783.078
-782.749
-782.348
-782.371
-782.539
-783.856
-783.856
-783.856
-783.856
-783.856
-783.856
-783.779
-899.927
-899.38
-898.37
-896.213
-892.21
-884.777
-872.809
-854.769
-833.117
-804.302
-775.46
-741.881
-715.137
-686.202
-681.061
-678.095
-704.22
-754.495
-823.723
-908.083
-909.051
-909.051
-909.051
-576.267
-564.735
-543.275
-505.494
-461.915
-413.01
-360.512
-304.511
-254.923
-202.822
-164.042
-123.21
-99.7169
-73.8707
-67.6632
-64.0956
-79.3019
-115.874
-192.152
-325.058
-559.254
-794.623
-981.138
-3.019e-34
-3.03376e-34
5.63602e-33
1.12885e-31
-1.4755e-29
-2.03826e-28
4.39963e-28
2.25728e-27
5.90981e-21
-1.08619e-25
1.4653e-25
-4.7039e-24
-9.19274e-24
-1.97178e-24
-2.38649e-24
-2.11934e-25
-2.52647e-24
-0.172243
-1.4145
-6.24575
-23.9272
-116.971
-308.121
-3.26621e-17
-1.62678e-15
-1.3265e-13
-6.194e-12
-1.43362e-10
-2.64504e-09
-1.13334e-08
-1.06691e-08
-8.15897e-28
-1.13346e-06
-8.42923e-06
-3.27409e-05
-3.98743e-05
-2.7174e-05
-8.88483e-06
-2.40243e-05
-2.06096e-05
-2.34496e-05
-6.31675e-05
-0.000977851
-0.0563754
-1.10171
-7.05745
-1.65142e-15
-1.25301e-13
-5.28471e-12
-1.38848e-10
-2.23029e-09
-2.99798e-08
-6.2072e-08
-4.08631e-08
2.16534e-27
-1.82532e-05
-0.000927903
-0.00224044
-0.00140877
-0.000112911
-3.76189e-06
-4.21334e-06
-0.000810542
-0.000739166
-6.3667e-21
-8.71679e-21
-4.35436e-05
-0.000122603
-0.0228697
-5.84882e-15
-4.24785e-13
-1.63594e-11
-3.71426e-10
-5.9559e-09
-6.4083e-08
-8.77134e-08
-5.19084e-08
2.00477e-27
-0.000855589
-0.00381558
-0.00381503
-0.00238796
-4.93921e-05
-4.09593e-06
-3.33355e-06
-0.00144588
-0.0299067
-0.0337148
-0.0199008
-0.00135912
-0.000133492
-0.000819052
-9.18906e-15
-6.54265e-13
-2.42652e-11
-5.20905e-10
-8.34697e-09
-7.9735e-08
-9.34245e-08
-5.74813e-08
-8.96481e-27
-0.0029508
-0.00412618
-0.00361506
-0.000639684
-2.65685e-05
-0.000135522
-3.698e-06
-0.00184886
-0.0460371
-0.0672382
-0.0672156
-0.0672382
-0.0567644
-0.0130959
-1.07785e-14
-7.56582e-13
-2.74917e-11
-5.74102e-10
-8.75736e-09
-7.94627e-08
-6.91492e-08
-1.82943e-07
-6.02834e-10
-0.00111465
-0.00216195
-2.33373e-08
-2.33333e-08
-1.03156e-05
-0.000252645
-0.000508625
-1.77734e-05
-2.19843e-08
-0.0121058
-0.0182312
-0.0190823
-0.0161135
-0.00669716
-1.05475e-14
-7.22076e-13
-2.51699e-11
-4.92553e-10
-5.37504e-09
-5.31384e-08
-1.67348e-08
-1.30538e-06
-5.13462e-05
-2.23174e-08
-2.2285e-08
-4.84769e-08
-9.31144e-07
-5.58249e-05
-9.85039e-07
-9.82862e-07
-2.35259e-08
-2.35261e-08
-5.74483e-13
-5.89835e-13
-5.34004e-07
-6.59576e-06
-6.53847e-05
-6.32938e-15
-4.1429e-13
-1.36597e-11
-2.50454e-10
-2.6062e-09
-2.21656e-08
-1.11801e-08
-3.10574e-06
-1.77086e-06
-3.59686e-07
-3.66046e-08
-1.35927e-06
-3.34195e-06
-6.79698e-06
-4.4279e-06
-1.88251e-06
-7.61429e-07
-2.49185e-07
-7.95296e-08
-2.76762e-08
-1.4546e-09
-1.45647e-09
-7.1785e-09
-2.62409e-15
-1.68571e-13
-5.45589e-12
-9.82214e-11
-1.04398e-09
-8.43937e-09
-4.62775e-09
-3.19219e-06
-2.32938e-06
-8.60935e-07
-1.0871e-07
-1.81509e-06
-4.69256e-06
-4.28327e-06
-4.60698e-06
-2.87266e-06
-9.6348e-07
-3.21905e-07
-1.10827e-07
-3.87162e-08
-1.39903e-08
-5.10563e-09
-1.95307e-09
-8.53328e-16
-5.38855e-14
-1.72279e-12
-3.088e-11
-3.41003e-10
-2.9346e-09
-3.2063e-09
-1.4481e-06
-1.47065e-06
-7.19925e-07
-1.30527e-07
-2.40586e-07
-2.0931e-06
-2.97868e-06
-2.67444e-06
-1.55265e-06
-5.67541e-07
-1.913e-07
-6.43775e-08
-2.14408e-08
-7.33267e-09
-2.44516e-09
-9.52529e-10
-2.14159e-16
-1.35271e-14
-4.34642e-13
-7.96219e-12
-9.41118e-11
-8.81188e-10
-9.43027e-09
-8.13821e-08
-1.0532e-07
-6.7546e-08
-3.03879e-08
-1.04469e-07
-1.97065e-07
-3.3543e-07
-3.4527e-07
-2.8558e-07
-1.47173e-07
-5.15761e-08
-1.73648e-08
-5.64518e-09
-1.80831e-09
-5.44981e-10
-4.20892e-10
-4.02646e-17
-2.58403e-15
-8.49712e-14
-1.63948e-12
-2.14234e-11
-2.33023e-10
-6.30719e-09
-9.95964e-10
-5.01311e-10
-1.04537e-09
-8.09506e-09
-4.81838e-08
-7.19707e-08
-6.84454e-08
-6.19344e-08
-4.8555e-08
-2.65323e-08
-9.62016e-09
-3.20632e-09
-1.00633e-09
-2.84578e-10
-1.31106e-10
-3.36408e-10
-5.4078e-18
-3.65441e-16
-1.27564e-14
-2.70626e-13
-4.00841e-12
-4.31289e-11
-1.04831e-09
-1.13781e-09
-5.26054e-10
-4.85848e-10
-3.06698e-09
-1.39578e-08
-1.7606e-08
-1.59153e-08
-1.23332e-08
-7.50642e-09
-3.32783e-09
-1.20769e-09
-3.94669e-10
-1.14635e-10
-3.36885e-11
-6.10719e-11
-6.79022e-10
-4.80509e-19
-3.62268e-17
-1.41457e-15
-3.42148e-14
-5.68849e-13
-6.24686e-12
-4.75761e-11
-4.88748e-11
-4.42181e-11
-9.78716e-11
-6.36201e-10
-1.98966e-09
-2.10776e-09
-1.82538e-09
-1.4031e-09
-9.0661e-10
-4.09582e-10
-1.40733e-10
-4.21394e-11
-9.8358e-12
-7.90028e-12
-8.45579e-11
-1.65046e-09
-2.50388e-20
-2.33564e-18
-1.09112e-16
-3.04796e-15
-5.46316e-14
-5.74233e-13
-2.65446e-12
-2.26249e-12
-3.65073e-12
-1.45326e-11
-8.17444e-11
-1.34809e-10
-1.06968e-10
-1.04867e-10
-1.06058e-10
-8.7164e-11
-4.57651e-11
-1.38421e-11
-3.51081e-12
-9.10067e-13
-5.06535e-12
-1.52296e-10
-2.8088e-09
-6.44154e-22
-7.98326e-20
-4.59486e-18
-1.44031e-16
-2.64097e-15
-2.47855e-14
-8.17043e-14
-1.16356e-13
-3.9395e-13
-1.69655e-12
-5.47294e-12
-4.83369e-12
-1.83848e-12
-3.66812e-12
-6.23317e-12
-5.35952e-12
-2.77055e-12
-7.58624e-13
-1.50625e-13
-1.89115e-13
-6.84237e-12
-2.04532e-10
-3.44768e-09
-8.17626e-24
-6.19149e-22
-2.49968e-20
-6.79162e-19
-1.47335e-17
-2.06776e-16
-1.27586e-15
-6.6536e-15
-3.4861e-14
-1.34058e-13
-2.3723e-13
-2.12463e-13
-1.07313e-13
-1.73707e-13
-2.51875e-13
-2.05369e-13
-9.24516e-14
-2.1716e-14
-6.0431e-15
-1.37577e-13
-7.8422e-12
-2.24667e-10
-3.40232e-09
-5.91786e-25
-4.79035e-23
-1.99814e-21
-5.47033e-20
-1.19697e-18
-1.76916e-17
-1.07946e-16
-4.92703e-16
-2.15122e-15
-6.24571e-15
-7.57787e-15
-7.66804e-15
-5.86978e-15
-1.94281e-15
-1.41082e-15
-1.18878e-15
-6.46089e-16
-1.60001e-16
-1.1753e-15
-1.2497e-13
-7.17892e-12
-1.6638e-10
-1.74287e-09
-2.11171e-26
-1.76227e-24
-7.14535e-23
-1.74252e-21
-2.91737e-20
-3.38718e-19
-2.93825e-18
-1.80783e-17
-8.10351e-17
-2.14823e-16
-3.14387e-16
-4.0064e-16
-3.01574e-16
-1.02042e-16
-1.79231e-17
-2.43851e-18
-6.54714e-19
-1.24521e-17
-6.473e-16
-5.97749e-14
-3.22181e-12
-6.43431e-11
-6.9815e-10
-1.04605e-31
-5.94768e-30
-1.60219e-28
-2.51618e-27
-2.46618e-26
-8.10837e-26
-1.45275e-25
-1.42926e-24
-9.02885e-24
-3.58507e-23
-8.24687e-23
-9.43262e-23
-6.80611e-23
-2.50496e-23
-6.2099e-23
-3.48628e-21
-1.83048e-19
-7.61388e-18
-3.1146e-16
-2.01142e-14
-9.74721e-13
-2.05067e-11
-3.26399e-10
-8.65053e-36
-6.60009e-34
-2.55655e-32
-6.50297e-31
-1.30107e-29
-2.42647e-28
-9.09411e-27
-1.77471e-25
-1.38479e-24
-5.915e-24
-1.27844e-23
-1.40397e-23
-8.77824e-24
-2.17568e-24
-2.35564e-23
-1.76794e-21
-9.9667e-20
-4.24848e-18
-1.45571e-16
-5.76613e-15
-2.27899e-13
-7.13624e-12
-2.36757e-10
-5.3779e-39
-3.96171e-37
-1.42637e-35
-3.18044e-34
-4.97224e-33
-5.62876e-32
-4.85855e-31
-3.171e-30
-1.6271e-29
-6.78977e-29
-2.64262e-28
-3.0174e-27
-2.17517e-27
-8.2845e-26
-9.1364e-24
-7.77388e-22
-4.7235e-20
-2.1082e-18
-6.91952e-17
-2.05592e-15
-7.29888e-14
-4.41095e-12
-2.12603e-10
-1.76263e-44
-1.66578e-42
-7.86384e-41
-2.36941e-39
-5.17225e-38
-8.56047e-37
-1.13156e-35
-1.20645e-34
-1.06187e-33
-7.70174e-33
-4.80559e-32
-9.41849e-31
-1.48397e-28
-2.4441e-26
-3.05932e-24
-2.89565e-22
-1.90135e-20
-8.94336e-19
-3.02777e-17
-9.99247e-16
-5.30707e-14
-3.98806e-12
-2.00607e-10
-6.51941e-48
-6.61207e-46
-3.36171e-44
-1.10529e-42
-2.67805e-41
-5.08222e-40
-7.99098e-39
-1.06033e-37
-1.19957e-36
-1.26337e-35
-5.33495e-34
-1.29129e-31
-3.01514e-29
-5.83293e-27
-8.30207e-25
-8.83771e-23
-6.27457e-21
-3.11962e-19
-1.16232e-17
-6.00409e-16
-6.05742e-14
-4.84477e-12
-2.19409e-10
-2.99124e-54
-3.7131e-52
-2.57588e-50
-1.29067e-48
-5.12357e-47
-1.63359e-45
-4.26567e-44
-1.36538e-42
-2.76737e-40
-1.20719e-37
-4.76812e-35
-1.65912e-32
-4.61566e-30
-1.05973e-27
-1.73783e-25
-2.10115e-23
-1.6141e-21
-8.73658e-20
-4.15476e-18
-4.38264e-16
-7.92478e-14
-6.32595e-12
-2.48991e-10
-1.91827e-59
-3.8813e-57
-4.11795e-55
-2.93686e-53
-1.59926e-51
-9.90863e-50
-2.84872e-47
-1.85596e-44
-1.16474e-41
-6.55395e-39
-3.23281e-36
-1.38247e-33
-4.76261e-31
-1.32228e-28
-2.59689e-26
-3.58619e-24
-3.01069e-22
-1.91716e-20
-1.28156e-18
-2.33206e-16
-3.26625e-14
-2.13772e-12
-7.45033e-11
-1.3243e-63
-3.84018e-61
-5.68317e-59
-5.68734e-57
-5.99616e-55
-2.53792e-52
-2.40189e-49
-2.27125e-46
-1.95505e-43
-1.52125e-40
-1.04566e-37
-6.03744e-35
-2.85221e-32
-1.00135e-29
-2.55647e-27
-4.11701e-25
-3.97265e-23
-3.27068e-21
-2.52673e-19
-1.37292e-17
-4.8409e-16
-1.09744e-14
-1.63833e-13
-4.01557e-68
-1.69589e-65
-3.99558e-63
-9.41511e-61
-6.15284e-58
-8.37979e-55
-1.16611e-51
-1.5262e-48
-1.83692e-45
-1.99558e-42
-1.88777e-39
-1.46134e-36
-8.94794e-34
-4.00826e-31
-1.29556e-28
-2.60225e-26
-3.15021e-24
-3.6426e-22
-3.83643e-20
-2.58075e-18
-1.02302e-16
-2.67182e-15
-5.13142e-14
-7.10046e-72
-3.7481e-69
-1.14043e-66
-3.8301e-64
-3.63145e-61
-6.53323e-58
-1.28345e-54
-2.42634e-51
-4.27445e-48
-7.02326e-45
-9.66409e-42
-1.16434e-38
-1.09185e-35
-7.7171e-33
-3.75607e-30
-1.05787e-27
-1.68382e-25
-2.56561e-23
-3.71917e-21
-3.24571e-19
-1.48248e-17
-4.22125e-16
-8.3526e-15
-4.02162e-76
-2.99952e-73
-1.31217e-70
-5.9937e-68
-7.18385e-65
-1.86507e-61
-5.40673e-58
-1.61489e-54
-4.31241e-51
-1.06187e-47
-2.21242e-44
-4.10604e-41
-5.45465e-38
-5.84522e-35
-3.8687e-32
-1.67126e-29
-3.76246e-27
-7.63482e-25
-1.67463e-22
-2.32328e-20
-1.5106e-18
-5.45176e-17
-1.30014e-15
-1.41698e-80
-1.48952e-77
-9.24693e-75
-5.42172e-72
-7.15366e-69
-2.44883e-65
-1.01797e-61
-4.40257e-58
-1.76352e-54
-6.64672e-51
-2.18702e-47
-6.1545e-44
-1.31027e-40
-2.32783e-37
-2.46781e-34
-1.77828e-31
-5.88783e-29
-1.63305e-26
-5.61815e-24
-1.18693e-21
-1.05341e-19
-4.86925e-18
-1.41622e-16
-1.28034e-85
-2.1507e-82
-2.0932e-79
-1.66823e-76
-1.88306e-73
-7.42561e-70
-4.72373e-66
-3.12792e-62
-2.08633e-58
-1.21543e-54
-6.2571e-51
-2.71702e-47
-1.00097e-43
-2.80123e-40
-4.89117e-37
-5.83627e-34
-3.18591e-31
-1.12183e-28
-5.00278e-26
-1.74165e-23
-2.91834e-21
-2.09806e-19
-8.55725e-18
-7.72689e-91
-2.02205e-87
-3.07456e-84
-3.67189e-81
-5.07383e-78
-2.28111e-74
-2.06422e-70
-1.99219e-66
-1.92635e-62
-1.65284e-58
-1.35177e-54
-9.58353e-51
-6.01808e-47
-3.12217e-43
-8.86219e-40
-1.80105e-36
-1.39567e-33
-7.34803e-31
-6.74241e-28
-3.89114e-25
-8.37026e-23
-8.10085e-21
-4.38081e-19
-7.77689e-97
-3.8743e-93
-1.06184e-89
-2.17821e-86
-5.15355e-83
-4.82764e-79
-1.28388e-74
-1.76247e-70
-1.82243e-66
-1.71423e-62
-1.7978e-58
-2.16822e-54
-1.9999e-50
-1.66239e-46
-7.21357e-43
-1.74009e-39
-1.83421e-36
-1.38708e-33
-1.67705e-30
-1.27279e-27
-4.72612e-25
-7.75231e-23
-6.90505e-21
-1.11335e-100
-5.64313e-96
-2.13917e-91
-4.35625e-87
-5.32389e-83
-1.02058e-78
-6.2165e-74
-7.96824e-70
-5.12463e-66
-1.99529e-62
-6.03366e-59
-2.07005e-55
-7.66431e-52
-1.99992e-48
-5.204e-45
-2.0416e-41
-4.78513e-38
-5.84103e-35
-4.19347e-32
-1.85476e-29
-5.24607e-27
-9.49599e-25
-1.11699e-22
-1.05811e-99
-9.39188e-95
-3.23095e-90
-6.01954e-86
-6.78491e-82
-7.47855e-78
-2.1301e-73
-3.01922e-69
-1.99576e-65
-7.81913e-62
-2.07004e-58
-3.93666e-55
-5.60395e-52
-6.6896e-49
-6.55314e-46
-5.23569e-43
-3.47329e-40
-1.91346e-37
-8.7458e-35
-3.2286e-32
-9.51996e-30
-2.14071e-27
-3.57276e-25
-8.81506e-99
-6.9186e-94
-2.22305e-89
-3.90378e-85
-4.20463e-81
-2.96615e-77
-1.45165e-73
-5.43262e-70
-1.565e-66
-3.42924e-63
-5.8717e-60
-8.07151e-57
-9.07369e-54
-8.50016e-51
-6.68437e-48
-4.45352e-45
-2.51425e-42
-1.20764e-39
-4.90132e-37
-1.66912e-34
-4.7223e-32
-1.0948e-29
-2.03775e-27
-532.458
-525.667
-219.038
-1.96803e-13
-657.795
-658.502
-609.144
-384.164
-783.742
-783.666
-782.13
-772.471
-909.051
-909.001
-909.018
-908.938
-1034.25
-1034.25
-1034.25
-1034.25
-494.401
-651.219
-798.57
-906.248
-17.2749
-33.7348
-73.0156
-127.775
-0.0646369
-0.248638
-1.04866
-2.25129
-0.0025855
-0.00669223
-0.0128285
-0.0138588
-6.13357e-05
-1.96287e-05
-1.89086e-05
-1.24374e-05
-0.000148473
-7.97172e-07
-4.87322e-07
-4.87319e-07
-4.25044e-05
-9.4073e-06
-1.2398e-06
-4.53948e-07
-1.21573e-07
-2.12834e-07
-1.14106e-07
-3.91771e-08
-7.5826e-10
-5.72873e-10
-4.53526e-10
-4.42684e-10
-6.2532e-10
-5.97573e-10
-6.28235e-10
-7.42536e-10
-4.70806e-10
-6.08503e-10
-1.02052e-09
-1.89203e-09
-7.14441e-10
-1.3286e-09
-3.55728e-09
-6.99481e-09
-1.74542e-09
-3.64398e-09
-1.77634e-08
-1.67403e-08
-4.49785e-09
-1.0392e-08
-4.37658e-08
-4.21593e-08
-7.90788e-09
-1.91467e-08
-6.33659e-08
-6.83001e-08
-9.84297e-09
-2.34539e-08
-6.96184e-08
-8.14146e-08
-9.75803e-09
-1.97816e-08
-6.28364e-08
-4.93573e-08
-5.45906e-09
-1.66567e-08
-7.11678e-08
-5.12233e-08
-3.55303e-09
-1.95331e-08
-1.16499e-07
-9.84737e-08
-3.54352e-09
-3.20873e-08
-1.46064e-07
-1.43268e-07
-4.12837e-09
-3.66047e-08
-1.47464e-07
-1.47464e-07
-4.02068e-09
-3.08163e-08
-1.17702e-07
-2.77466e-07
-3.24055e-09
-2.49518e-08
-1.22328e-07
-3.47507e-07
-3.70498e-09
-2.92553e-08
-1.57753e-07
-4.74684e-07
-3.92762e-09
-3.01136e-08
-1.60614e-07
-4.31854e-07
-1.2037e-09
-1.01702e-08
-6.18525e-08
-1.4343e-07
-1.18041e-12
-2.35292e-12
-2.34336e-12
-2.34335e-12
-5.80218e-13
-4.0448e-12
-1.85611e-11
-6.73106e-11
-9.14411e-14
-5.8259e-13
-3.17049e-12
-1.5463e-11
-1.67057e-14
-1.24478e-13
-7.98047e-13
-4.59228e-12
-2.15192e-15
-1.88606e-14
-1.43226e-13
-9.80072e-13
-1.66549e-16
-1.81761e-15
-1.69954e-14
-1.4181e-13
-1.08108e-17
-1.44896e-16
-1.62655e-15
-1.58913e-14
-2.60741e-19
-5.16022e-18
-8.3067e-17
-1.12503e-15
-6.06327e-21
-1.71066e-19
-3.87028e-18
-7.16806e-17
-3.10679e-23
-1.45457e-21
-5.66052e-20
-1.8426e-18
-2.21416e-25
-1.36634e-23
-7.48914e-22
-3.64884e-20
-1.96803e-13
-1.96803e-13
-1.57667e-07
-4.26013e-07
-4.33762e-07
-3.84102e-07
-3.36147e-07
-1.83358e-07
-2.52827e-08
-1.04142e-08
-6.69861e-09
-7.77226e-09
-1.19617e-08
-6.69926e-10
-2.42687e-10
-9.541e-10
-9.04539e-10
-2.12847e-09
-5.18034e-11
-88.2611
-8.92693
-2.41684e-13
-2.41649e-13
-2.41684e-13
-2.12517e-08
-6.28148e-07
-4.66391e-07
-1.4585e-07
-1.33596e-07
-1.86051e-07
-2.16518e-07
-3.18947e-07
-3.05478e-08
-5.78633e-09
-2.73657e-08
-9.20152e-09
-1.89809e-08
-1.5337e-09
-642.617
-494.471
-259.599
-116.102
-69.9865
-2.87389e-13
-2.87295e-13
-2.87408e-13
-2.87351e-13
-3.02362e-07
-1.64313e-06
-5.75702e-06
-1.1778e-05
-1.92374e-05
-1.00507e-06
-2.72673e-06
-2.43977e-08
-9.47161e-08
-2.60307e-08
-907.45
-901.973
-862.376
-771.814
-700.863
-536.942
-272.698
-153.051
-56.6872
-1.9693e-07
-1.96927e-07
-1.9693e-07
-1.50547e-05
-0.000423163
-0.000838162
-0.000156111
-2.82942e-08
-3.17615e-06
-1.17965e-07
-1034.25
-1034.25
-1034.25
-1033.69
-1032.12
-1024.15
-971.504
-901.543
-784.826
-509.806
-242.779
-3.76086
-3.96529e-08
-3.96258e-08
-0.00346516
-0.00131709
-0.00392145
-0.00015263
-1.34214e-07
-1030.09
-1111.3
-1147.5
-1159.44
-1159.44
-1159.44
-1159.44
-1159.44
-1159.44
-1143.68
-1059.17
-805.862
-412.92
-25.8213
-0.00105441
-0.0010544
-0.0465278
-0.00428675
-0.000521809
-252.174
-407.129
-520.616
-650.969
-781.342
-906.486
-1012.64
-1089.5
-1180.14
-1284.58
-1284.58
-1284.58
-1234.62
-908.035
-344.914
-0.00116826
-0.00116826
-0.171813
-0.0490066
-3.70741
-7.27594
-12.7995
-21.4853
-42.9402
-87.6228
-158.319
-245.035
-369.927
-644.885
-976.415
-1293.48
-1409.71
-1409.71
-1246.34
-574.405
-41.7153
-2.2424
-0.772648
-0.0108493
-0.00634059
-0.00567344
-0.0106705
-0.0328062
-0.149221
-0.608934
-1.89864
-6.08861
-21.6889
-101.087
-359.683
-930.558
-1495.78
-1495.78
-1361.73
-524.043
-32.5933
-2.89597
-5.65052e-06
-6.78525e-06
-2.40807e-05
-0.000119514
-0.000156397
-0.000116529
-4.37099e-05
-7.68142e-05
-0.00103652
-0.0173545
-0.45205
-9.21531
-51.5994
-701.855
-1505.17
-1532.28
-1158.95
-208.163
-12.6963
-5.4368e-07
-3.19019e-07
-3.24537e-08
-2.67806e-05
-0.000156254
-0.000123055
-1.97064e-05
-1.58966e-06
-5.26215e-07
-5.26233e-07
-0.000813683
-0.00823585
-0.812457
-1.78883e-07
-982.719
-1647.83
-1592.59
-632.569
-56.5222
-3.49971e-07
-2.06094e-07
-3.47318e-08
-3.68568e-06
-4.11758e-05
-5.60758e-05
-2.53908e-05
-3.09965e-06
-5.21377e-07
-1.15721e-06
-1.75553e-05
-0.000118642
-0.000128424
-1.91427e-07
-208.316
-1460.53
-1704.26
-1233.58
-197.856
-2.36768e-08
-2.41239e-08
-3.70073e-08
-3.71481e-07
-1.62325e-06
-3.77751e-06
-6.13256e-06
-2.34881e-06
-5.55547e-07
-2.45668e-06
-2.86297e-06
-4.17563e-06
-2.34702e-05
-5.58277e-06
-8.09319e-08
-1098.89
-1795.76
-1538.13
-292.34
-7.38922e-10
-1.84013e-09
-5.70096e-09
-2.48702e-08
-1.04443e-07
-6.60299e-07
-3.65858e-06
-5.35304e-06
-3.42947e-06
-3.69808e-06
-3.06416e-06
-1.5297e-06
-5.44459e-06
-3.79389e-06
-8.53016e-08
-610.684
-1867.79
-1637.79
-314.35
-3.03782e-09
-1.2556e-08
-2.38621e-08
-2.65743e-08
-3.40465e-08
-3.3454e-08
-2.33174e-06
-1.49192e-05
-2.14245e-05
-1.47659e-05
-5.10371e-06
-1.61836e-06
-1.89636e-06
-1.38852e-06
-9.08859e-08
-231.696
-1830.72
-1831.11
-386.347
-7.66354e-09
-3.58426e-07
-8.92249e-07
-7.38469e-07
-3.5286e-08
-3.52859e-08
-7.29583e-07
-1.05568e-05
-2.33241e-05
-2.33235e-05
-1.03072e-05
-2.00549e-06
-1.05836e-06
-1.365e-06
-9.51852e-08
-92.5059
-1576.95
-1869.52
-505.617
-6.99468e-09
-4.70305e-05
-0.000285504
-0.000234709
-9.83639e-05
-2.25904e-05
-3.92155e-06
-4.45795e-06
-1.08096e-05
-1.70478e-05
-9.52821e-06
-1.96619e-06
-9.09046e-07
-3.1847e-06
-1.0084e-07
-371.883
-1443.34
-1160.67
-404.763
-7.3399e-09
-0.000646187
-0.00108591
-0.0010733
-0.000730197
-4.94e-06
-1.16895e-06
-1.08518e-06
-1.08522e-06
-3.35127e-06
-2.84841e-06
-7.86552e-07
-4.25082e-07
-1.40232e-06
-1.05069e-07
-1023.79
-1823.02
-906.656
-149.39
-7.71669e-09
-0.000870765
-0.000884399
-2.94291e-05
-0.0125709
-0.0101525
-8.22451e-08
-8.22447e-08
-2.16453e-05
-1.10011e-07
-1.15359e-07
-1.10011e-07
-1.15359e-07
-1.10011e-07
-63.1998
-1631.55
-1908.75
-1368.68
-136.573
-8.06334e-09
-0.000149259
-3.07639e-05
-3.07628e-05
-0.0465306
-0.380327
-0.398506
-0.109374
-0.00249519
-0.0002319
-0.000645802
-0.00129943
-0.000385925
-1.20541e-07
-20.129
-1181.23
-1994.51
-1534.18
-142.726
-3.63622e-08
-4.42279e-05
-4.47268e-08
-0.169768
-0.498914
-0.498914
-0.498914
-0.277272
-0.00261397
-0.000418807
-0.00231258
-0.00231124
-0.000824053
-1.19894e-07
-12.0979
-219.142
-681.707
-783.148
-151.376
-3.78647e-08
-0.00626068
-4.66408e-08
-0.430239
-0.519478
-0.519478
-0.299483
-0.0782299
-0.000944939
-0.000112762
-0.000648438
-0.00174958
-0.000147841
-1.30906e-07
-6.57821
-6.9104
-9.10778
-16.8577
-122.571
-3.93523e-08
-0.031615
-0.03388
-0.409574
-0.539875
-0.243369
-0.109379
-0.0486346
-1.54413e-05
-1.54198e-05
-1.54413e-05
-9.24989e-05
-1.663e-05
-0.83078
-2.21818
-1.33971
-0.231328
-1.01156e-07
-57.2134
-4.14332e-08
-0.0287796
-0.0930058
-0.416182
-0.184155
-0.0146998
-0.151669
-0.209993
-0.167313
-0.0633047
-0.0123788
-1.72632e-05
-1.72618e-05
-0.865022
-0.523677
-0.124879
-0.0191826
-1.0501e-07
-2.64676
-4.2965e-08
-0.0033474
-0.113047
-0.190258
-0.0460982
-0.00804313
-0.152715
-0.21863
-0.151226
-0.0892211
-0.0603564
-0.0322299
-0.0917996
-0.110687
-0.0211355
-0.00342843
-0.000726936
-6.45855e-05
-0.0096019
-2.8614e-05
-0.00335873
-0.0834114
-0.00112503
-0.00147014
-0.00280167
-0.0226914
-0.0381975
-0.0110089
-0.0157323
-0.0330924
-0.047196
-0.0410282
-0.00232929
-8.94107e-05
-2.21007e-05
-3.79631e-06
-2.02213e-05
-8.41664e-06
-3.95294e-06
-0.000890381
-0.00261999
-0.000344494
-0.000295462
-0.000229067
-1.89474e-05
-6.10296e-06
-4.15493e-06
-3.26567e-05
-0.000803332
-0.0136499
-0.000388373
-0.000200369
-0.000484665
-0.000146333
-2.62953e-06
-2.83011e-06
-1.99289e-07
-5.23418e-07
-5.23417e-07
-0.000137664
-0.0436217
-1.99352e-05
-1.1155e-07
-1.13403e-07
-1.1155e-07
-1.50916e-07
-1.50906e-07
-1.50911e-07
-1.51424e-07
-1.5295e-07
-1.32837
-0.133496
-2.34104e-05
-8.02563e-07
-6.98369e-07
-1.48248e-07
-8.52633e-07
-2.83475e-06
-0.00261872
-0.044922
-0.0771048
-0.0106849
-3.38997e-05
-6.9898e-06
-7.95636e-08
-160.388
-1074.59
-624.48
-63.8847
-1.33422
-0.00193678
-2.50318e-06
-5.83171e-07
-3.16947e-07
-1.40879e-07
-6.98771e-07
-1.82951e-06
-0.000270052
-0.0100077
-0.084649
-0.085235
-0.0153131
-5.60587e-05
-8.46794e-08
-1434.94
-1963.63
-1964.37
-490.517
-2.66795
-4.24955e-05
-1.81635e-06
-5.34082e-07
-3.30268e-07
-1.45711e-07
-1.67386e-07
-8.53592e-08
-9.05955e-11
-9.19322e-11
-0.0119451
-0.0941409
-0.0400859
-1.27371e-05
-8.44961e-08
-1351.52
-2023.43
-1934.94
-422.888
-2.17105
-2.41208e-05
-1.35476e-05
-1.31072e-06
-3.23872e-07
-1.46161e-07
-2.34336e-12
-1.23106e-09
-1.64569e-08
-1.50154e-05
-0.0184695
-0.0968807
-0.029641
-1.31104e-05
-9.2618
-317.585
-966.537
-618.902
-118.473
-1.55746
-1.87092e-05
-0.000109606
-1.44912e-07
-1.44903e-07
-1.35823e-07
-2.94708e-10
-1.35696e-09
-5.38957e-09
-1.38734e-08
-8.1886e-09
-8.53726e-09
-0.0431308
-0.332323
-4.76841
-4.84464
-11.298
-7.27403
-5.9921
-0.376709
-3.67465e-06
-0.0011326
-0.00335566
-1.39675e-07
-1.39675e-07
-1.05912e-10
-8.92912e-10
-7.2059e-09
-4.25815e-08
-4.7021e-07
-0.000351468
-0.0492246
-0.231153
-0.00580077
-0.000197081
-0.000693157
-0.000360991
-0.0026711
-0.0206901
-4.15595e-07
-0.00112895
-0.0459472
-0.0550599
-0.0146619
-3.69163e-11
-3.33169e-10
-2.38601e-09
-1.22494e-08
-2.35272e-08
-2.34988e-08
-2.34988e-08
-0.000624951
-1.03704e-07
-2.15225e-08
-2.15223e-08
-1.25464e-07
-1.18844e-06
-3.62883e-06
-4.26771e-07
-0.000211247
-0.0520195
-0.139743
-0.139522
-9.48606e-12
-1.01677e-10
-8.56229e-10
-5.50353e-09
-2.57798e-08
-5.29431e-08
-6.37955e-08
-6.30957e-08
-4.35387e-08
-2.42492e-08
-1.65603e-08
-1.89361e-08
-5.43793e-08
-1.97828e-07
-1.28202e-06
-0.000163206
-0.0130131
-0.096905
-0.140791
-1.69055e-12
-2.20929e-11
-2.25239e-10
-1.75249e-09
-1.00376e-08
-3.94605e-08
-6.68545e-08
-7.2782e-08
-6.8213e-08
-4.44918e-08
-2.09004e-08
-1.27688e-08
-2.29613e-08
-1.54506e-07
-1.52177e-06
-4.1111e-05
-0.00058922
-0.00563253
-0.0247055
-2.19406e-13
-3.27705e-12
-3.84164e-11
-3.54535e-10
-2.53503e-09
-1.38243e-08
-4.54914e-08
-6.70898e-08
-7.02411e-08
-5.97736e-08
-3.11054e-08
-1.2096e-08
-7.38816e-09
-3.9573e-08
-4.50463e-07
-2.45337e-06
-2.41412e-06
-7.43604e-06
-1.30659e-05
-2.11464e-14
-4.02662e-13
-5.79921e-12
-6.42172e-11
-5.46084e-10
-3.55511e-09
-1.68968e-08
-4.42244e-08
-5.81407e-08
-5.78392e-08
-3.64438e-08
-1.36217e-08
-3.94661e-09
-4.87171e-09
-4.78276e-08
-1.93473e-07
-9.38059e-08
-3.34192e-08
-9.65512e-09
-1.79971e-15
-4.2866e-14
-7.44346e-13
-9.82576e-12
-9.8309e-11
-7.38009e-10
-3.93502e-09
-1.49558e-08
-3.1427e-08
-3.9635e-08
-3.34782e-08
-1.34934e-08
-3.12017e-09
-6.41937e-10
-4.34421e-09
-1.76512e-08
-1.31991e-08
-4.27752e-09
-9.78871e-10
-8.26264e-17
-3.21751e-15
-8.0209e-14
-1.37137e-12
-1.62185e-11
-1.38622e-10
-8.37237e-10
-3.64488e-09
-1.00941e-08
-1.59738e-08
-1.86034e-08
-9.77147e-09
-2.17587e-09
-1.72723e-10
-3.43531e-10
-1.49486e-09
-1.48969e-09
-4.71012e-10
-1.05307e-10
-2.53903e-18
-1.61135e-16
-5.95543e-15
-1.32224e-13
-1.85284e-12
-1.83548e-11
-1.26604e-10
-6.33803e-10
-2.11352e-09
-3.93171e-09
-4.90105e-09
-3.55917e-09
-8.24551e-10
-5.60413e-11
-2.36532e-11
-1.08328e-10
-1.30076e-10
-4.14485e-11
-9.87806e-12
)
;

boundaryField
{
    leftWall
    {
        type            calculated;
        value           nonuniform List<scalar> 
50
(
-29.4294
-88.2881
-147.147
-206.006
-264.864
-323.723
-382.582
-441.44
-533.467
-658.662
-783.855
-899.927
-576.267
-3.019e-34
-3.26621e-17
-1.65142e-15
-5.84882e-15
-9.18906e-15
-1.07785e-14
-1.05475e-14
-6.32938e-15
-2.62409e-15
-8.53328e-16
-2.14159e-16
-4.02646e-17
-5.4078e-18
-4.80509e-19
-2.50388e-20
-6.44154e-22
-8.17626e-24
-5.91786e-25
-2.11171e-26
-1.04605e-31
-8.65053e-36
-5.3779e-39
-1.76263e-44
-6.51941e-48
-2.99124e-54
-1.91827e-59
-1.3243e-63
-4.01557e-68
-7.10046e-72
-4.02162e-76
-1.41698e-80
-1.28034e-85
-7.72689e-91
-7.77689e-97
-1.11335e-100
-1.05811e-99
-8.81506e-99
)
;
    }
    rightWall
    {
        type            calculated;
        value           nonuniform List<scalar> 
50
(
-2.69337e-24
-5.55923e-22
-5.83618e-20
-3.10239e-18
-1.05696e-16
-2.74804e-15
-6.59381e-14
-1.55619e-12
-5.18034e-11
-1.5337e-09
-2.60307e-08
-1.17965e-07
-1.34214e-07
-0.000521809
-0.0490066
-0.772648
-2.89597
-12.6963
-56.5222
-197.856
-292.34
-314.35
-386.347
-505.617
-404.763
-149.39
-136.573
-142.726
-151.376
-122.571
-57.2134
-2.64676
-0.0096019
-8.41664e-06
-1.99289e-07
-1.48248e-07
-1.40879e-07
-1.45711e-07
-1.46161e-07
-1.35823e-07
-1.39675e-07
-0.0146619
-0.139522
-0.140791
-0.0247055
-1.30659e-05
-9.65512e-09
-9.78871e-10
-1.05307e-10
-9.87806e-12
)
;
    }
    lowerWall
    {
        type            calculated;
        value           nonuniform List<scalar> 
62
(
0
0
0
0
0
0
0
0
0
0
0
0
0
0
0
0
0
0
0
0
0
0
0
-29.3971
-88.2337
-146.989
-205.517
-264.234
-322.952
-381.671
-440.738
-469.979
-463.985
-193.336
-1.7371e-13
-3.63484e-22
-7.94447e-20
-7.27064e-18
-5.50691e-16
-1.91006e-14
-7.40407e-13
-1.23043e-11
-2.22175e-10
0
0
0
0
0
0
0
0
0
0
0
0
0
0
0
0
0
0
0
)
;
    }
    atmosphere
    {
        type            calculated;
        value           nonuniform List<scalar> 
46
(
-0
-0
-0
-0
-0
-0
-0
-0
-0
-0
-0
-0
-0
-0
-0
-0
-0
-0
-0
-0
-0
-0
-0
-0
-0
-0
-0
-0
-0
-6.02122e-15
-1.33684e-13
-1.87331e-12
-1.85575e-11
-1.28003e-10
-6.40804e-10
-2.13687e-09
-3.97514e-09
-4.95519e-09
-3.59848e-09
-8.3366e-10
-5.66603e-11
-2.39145e-11
-1.09525e-10
-1.31513e-10
-4.19063e-11
-9.98718e-12
)
;
    }
    defaultFaces
    {
        type            empty;
    }
}
