/*--------------------------------*- C++ -*----------------------------------*\
| =========                 |                                                 |
| \\      /  F ield         | OpenFOAM: The Open Source CFD Toolbox           |
|  \\    /   O peration     | Version:  2012                                  |
|   \\  /    A nd           | Website:  www.openfoam.com                      |
|    \\/     M anipulation  |                                                 |
\*---------------------------------------------------------------------------*/
FoamFile
{
    version     2.0;
    format      ascii;
    class       volVectorField;
    location    "0.34";
    object      U;
}
// * * * * * * * * * * * * * * * * * * * * * * * * * * * * * * * * * * * * * //

dimensions      [0 1 -1 0 0 0 0];


internalField   nonuniform List<vector> 
2268
(
(0.0208917 -0.0104573 0)
(0.0665047 -0.0103938 0)
(0.107762 -0.0100868 0)
(0.150874 -0.0102727 0)
(0.193761 -0.0100729 0)
(0.235291 -0.00961621 0)
(0.274354 -0.00903643 0)
(0.311292 -0.009008 0)
(0.350466 -0.00788652 0)
(0.378471 -0.00747625 0)
(0.414469 -0.00646519 0)
(0.436215 -0.00477946 0)
(0.455521 -0.00306065 0)
(0.469019 -0.00245541 0)
(0.477664 -0.000190264 0)
(0.474688 0.00187549 0)
(0.45935 0.00459543 0)
(0.43288 0.00474511 0)
(0.391832 0.00660861 0)
(0.336143 0.00586183 0)
(0.261809 0.00835298 0)
(0.175862 0.0104025 0)
(0.0668805 0.0384598 0)
(0.020833 -0.0308442 0)
(0.0664724 -0.0306664 0)
(0.107946 -0.0297768 0)
(0.151088 -0.0303843 0)
(0.193948 -0.0298058 0)
(0.235611 -0.0284956 0)
(0.274783 -0.0268562 0)
(0.312004 -0.026997 0)
(0.350997 -0.0238323 0)
(0.379434 -0.0228056 0)
(0.415763 -0.0208075 0)
(0.437276 -0.01465 0)
(0.457643 -0.01242 0)
(0.473131 -0.00805811 0)
(0.477794 -0.00244394 0)
(0.476528 0.00671075 0)
(0.461474 0.0152333 0)
(0.435514 0.0270856 0)
(0.39308 0.0392175 0)
(0.334789 0.0555289 0)
(0.254571 0.0675398 0)
(0.157499 0.0817005 0)
(0.0395489 0.0763932 0)
(0.0207571 -0.0517141 0)
(0.0665187 -0.0515669 0)
(0.108279 -0.050064 0)
(0.151417 -0.0509266 0)
(0.194204 -0.0499969 0)
(0.236115 -0.0478345 0)
(0.275429 -0.0451046 0)
(0.313148 -0.0450477 0)
(0.351793 -0.0397077 0)
(0.381031 -0.0380976 0)
(0.417664 -0.0337603 0)
(0.438954 -0.0245717 0)
(0.461241 -0.0199543 0)
(0.477163 -0.0119877 0)
(0.480927 -0.00173286 0)
(0.481559 0.00955737 0)
(0.469533 0.0240527 0)
(0.445786 0.0369712 0)
(0.407693 0.0542369 0)
(0.354779 0.0711251 0)
(0.280353 0.0920376 0)
(0.188079 0.111789 0)
(0.0598323 0.131328 0)
(0.0207268 -0.0720899 0)
(0.0666625 -0.0720362 0)
(0.108747 -0.0698926 0)
(0.151947 -0.0710095 0)
(0.194658 -0.0698229 0)
(0.236888 -0.0669123 0)
(0.276593 -0.0632476 0)
(0.315079 -0.0631331 0)
(0.35343 -0.0559007 0)
(0.383895 -0.0539909 0)
(0.420824 -0.0481877 0)
(0.442276 -0.0353024 0)
(0.466709 -0.0304859 0)
(0.482258 -0.0174429 0)
(0.487612 -0.00450807 0)
(0.488233 0.011999 0)
(0.474957 0.0322095 0)
(0.451191 0.0562538 0)
(0.409632 0.082434 0)
(0.355447 0.115802 0)
(0.277476 0.14675 0)
(0.186521 0.186176 0)
(0.0583892 0.194053 0)
(0.0206914 -0.09301 0)
(0.0668773 -0.0931671 0)
(0.109267 -0.0903563 0)
(0.152588 -0.0915338 0)
(0.195229 -0.090115 0)
(0.237758 -0.0865646 0)
(0.277824 -0.0820157 0)
(0.317127 -0.0813673 0)
(0.354998 -0.0721685 0)
(0.387042 -0.0699418 0)
(0.424034 -0.0612851 0)
(0.445697 -0.0462308 0)
(0.473015 -0.0387669 0)
(0.487479 -0.0218472 0)
(0.49707 -0.00445036 0)
(0.498042 0.0155151 0)
(0.489338 0.0416456 0)
(0.469602 0.0677121 0)
(0.434633 0.0994132 0)
(0.385932 0.133177 0)
(0.311658 0.171465 0)
(0.219547 0.214605 0)
(0.0856922 0.246431 0)
(0.0207159 -0.113474 0)
(0.067127 -0.113905 0)
(0.109849 -0.110394 0)
(0.153428 -0.111653 0)
(0.196181 -0.110069 0)
(0.239081 -0.105981 0)
(0.279704 -0.100753 0)
(0.320004 -0.0996617 0)
(0.357691 -0.0889462 0)
(0.391812 -0.0866911 0)
(0.428542 -0.0759344 0)
(0.451322 -0.0585345 0)
(0.481662 -0.0502699 0)
(0.496271 -0.0289215 0)
(0.506918 -0.00951248 0)
(0.510811 0.01553 0)
(0.50037 0.045724 0)
(0.48265 0.0820714 0)
(0.443036 0.122294 0)
(0.394078 0.174228 0)
(0.313646 0.226212 0)
(0.223474 0.293875 0)
(0.0796715 0.339513 0)
(0.0208 -0.134521 0)
(0.0674238 -0.135293 0)
(0.110509 -0.13113 0)
(0.154341 -0.132337 0)
(0.197273 -0.130568 0)
(0.240481 -0.126037 0)
(0.281553 -0.120212 0)
(0.322721 -0.118216 0)
(0.360215 -0.106032 0)
(0.396536 -0.103403 0)
(0.432455 -0.0893189 0)
(0.456692 -0.0712922 0)
(0.490683 -0.0598959 0)
(0.503681 -0.0337418 0)
(0.521094 -0.0111837 0)
(0.524163 0.018595 0)
(0.519668 0.0550551 0)
(0.505066 0.094633 0)
(0.473793 0.141137 0)
(0.43245 0.19364 0)
(0.358718 0.251289 0)
(0.274567 0.323467 0)
(0.124207 0.387907 0)
(0.0212001 -0.155168 0)
(0.0675181 -0.156307 0)
(0.111141 -0.151467 0)
(0.155446 -0.152675 0)
(0.198721 -0.150777 0)
(0.242298 -0.145848 0)
(0.284198 -0.139627 0)
(0.326213 -0.1369 0)
(0.364382 -0.123851 0)
(0.403214 -0.12092 0)
(0.438017 -0.104409 0)
(0.465471 -0.0861527 0)
(0.502199 -0.0725411 0)
(0.515785 -0.0434277 0)
(0.536604 -0.0192181 0)
(0.5409 0.0160608 0)
(0.536649 0.0548381 0)
(0.526577 0.103735 0)
(0.491021 0.157016 0)
(0.455334 0.229142 0)
(0.372609 0.302128 0)
(0.289411 0.406654 0)
(0.130617 0.531186 0)
(-0.0382906 0.033727 0)
(-0.336317 0.0208144 0)
(-0.432857 -0.00945879 0)
(-0.61137 -0.0164607 0)
(-0.703236 -0.00222574 0)
(-0.790233 0.00679918 0)
(-0.853055 0.0239965 0)
(-0.877822 0.023211 0)
(-0.907529 0.0195864 0)
(-0.91708 0.00164498 0)
(-0.897414 -0.00421211 0)
(-0.871454 -0.00906666 0)
(-0.832946 -0.0118379 0)
(-0.744224 -0.00998373 0)
(-0.688345 -0.0197295 0)
(-0.5393 -0.0201247 0)
(-0.441499 -0.0254129 0)
(-0.249537 -0.0291821 0)
(-0.103729 -0.0306362 0)
(-0.050684 0.153586 0)
(-0.354498 0.174649 0)
(-0.463686 0.153945 0)
(-0.62178 0.159408 0)
(-0.696919 0.10563 0)
(-0.78166 0.0852786 0)
(-0.847712 0.0403832 0)
(-0.882737 0.0281639 0)
(-0.916414 0.0239077 0)
(-0.927237 0.0226919 0)
(-0.901711 0.0114574 0)
(-0.874758 0.0104764 0)
(-0.833965 -0.0155755 0)
(-0.746859 -0.0230201 0)
(-0.69226 -0.0404957 0)
(-0.542324 -0.0568716 0)
(-0.445256 -0.0705945 0)
(-0.252175 -0.0869098 0)
(-0.104357 -0.0922068 0)
(-0.0508923 0.233206 0)
(-0.363378 0.225467 0)
(-0.450981 0.13205 0)
(-0.628192 0.111655 0)
(-0.725721 0.0929219 0)
(-0.819244 0.0990484 0)
(-0.875093 0.0945942 0)
(-0.881722 0.0809437 0)
(-0.914461 0.0664286 0)
(-0.920232 0.0237318 0)
(-0.906334 0.000438476 0)
(-0.881838 -0.00962267 0)
(-0.847283 -0.0395933 0)
(-0.756211 -0.0420222 0)
(-0.702455 -0.0797943 0)
(-0.552472 -0.0973288 0)
(-0.453988 -0.121525 0)
(-0.25851 -0.146635 0)
(-0.106215 -0.154843 0)
(-0.0719557 0.358831 0)
(-0.388649 0.371341 0)
(-0.492557 0.294321 0)
(-0.63829 0.30374 0)
(-0.702413 0.214603 0)
(-0.794436 0.177378 0)
(-0.85822 0.0935326 0)
(-0.894615 0.0726149 0)
(-0.939833 0.0659752 0)
(-0.953452 0.0480856 0)
(-0.918877 0.0214974 0)
(-0.888811 0.0148103 0)
(-0.849472 -0.0422321 0)
(-0.763621 -0.0558758 0)
(-0.714762 -0.100183 0)
(-0.561836 -0.134433 0)
(-0.465778 -0.168421 0)
(-0.266554 -0.207248 0)
(-0.108386 -0.219945 0)
(-0.035918 0.454633 0)
(-0.406438 0.43415 0)
(-0.497575 0.265245 0)
(-0.671333 0.229302 0)
(-0.768084 0.185941 0)
(-0.866044 0.193011 0)
(-0.916193 0.165662 0)
(-0.893651 0.144666 0)
(-0.931778 0.120693 0)
(-0.937904 0.0429562 0)
(-0.924854 0.000171779 0)
(-0.904631 -0.0115473 0)
(-0.879625 -0.0663203 0)
(-0.783615 -0.0713353 0)
(-0.734953 -0.138722 0)
(-0.582929 -0.175517 0)
(-0.483407 -0.219761 0)
(-0.279661 -0.271135 0)
(-0.112893 -0.28686 0)
(-0.0901759 0.578205 0)
(-0.461889 0.593355 0)
(-0.563178 0.436195 0)
(-0.674595 0.447484 0)
(-0.724374 0.326038 0)
(-0.820557 0.269231 0)
(-0.889554 0.130727 0)
(-0.914122 0.106039 0)
(-0.979094 0.109018 0)
(-1.00492 0.0739893 0)
(-0.94763 0.0334035 0)
(-0.90643 0.025762 0)
(-0.88359 -0.0667796 0)
(-0.793641 -0.0884667 0)
(-0.757449 -0.158519 0)
(-0.59964 -0.213205 0)
(-0.504762 -0.270206 0)
(-0.293698 -0.337292 0)
(-0.118287 -0.359525 0)
(-0.031081 0.71213 0)
(-0.490722 0.666399 0)
(-0.589783 0.381169 0)
(-0.736908 0.323808 0)
(-0.841031 0.273622 0)
(-0.940192 0.290522 0)
(-0.986761 0.235654 0)
(-0.908475 0.212617 0)
(-0.950426 0.190632 0)
(-0.973283 0.0578538 0)
(-0.947594 -0.014407 0)
(-0.948165 -0.0120135 0)
(-0.934513 -0.0879651 0)
(-0.825078 -0.0971716 0)
(-0.787348 -0.19434 0)
(-0.633073 -0.255412 0)
(-0.532733 -0.322478 0)
(-0.314374 -0.408021 0)
(-0.127526 -0.434628 0)
(-0.0579855 0.833758 0)
(-0.61396 0.85481 0)
(-0.703386 0.571706 0)
(-0.734654 0.586292 0)
(-0.757307 0.44254 0)
(-0.859457 0.360211 0)
(-0.935286 0.140636 0)
(-0.934957 0.115485 0)
(-1.03184 0.158409 0)
(-1.08891 0.101106 0)
(-0.990013 0.0485232 0)
(-0.949121 0.0515924 0)
(-0.943214 -0.0921347 0)
(-0.841849 -0.122027 0)
(-0.824671 -0.213186 0)
(-0.66107 -0.293236 0)
(-0.566503 -0.378473 0)
(-0.33699 -0.48223 0)
(-0.138702 -0.520045 0)
(0.0219578 -0.188437 0)
(0.0676903 -0.189911 0)
(0.112328 -0.184625 0)
(0.157286 -0.18559 0)
(0.201147 -0.183315 0)
(0.245192 -0.178023 0)
(0.288268 -0.171199 0)
(0.331319 -0.166902 0)
(0.370725 -0.152764 0)
(0.412252 -0.147878 0)
(0.446202 -0.126651 0)
(0.479574 -0.110258 0)
(0.517494 -0.0897475 0)
(0.531206 -0.0535999 0)
(0.563706 -0.0249809 0)
(0.565449 0.0199535 0)
(0.579089 0.0659339 0)
(0.566418 0.122852 0)
(0.564088 0.184543 0)
(0.536203 0.259667 0)
(0.523141 0.343404 0)
(0.477803 0.450529 0)
(0.452902 0.610363 0)
(0.0227799 -0.233291 0)
(0.0683489 -0.235046 0)
(0.114129 -0.229573 0)
(0.160277 -0.230119 0)
(0.205311 -0.227408 0)
(0.250777 -0.221878 0)
(0.295785 -0.214825 0)
(0.341212 -0.20906 0)
(0.383804 -0.194801 0)
(0.428598 -0.187197 0)
(0.465685 -0.164101 0)
(0.508712 -0.149255 0)
(0.541573 -0.118301 0)
(0.570524 -0.0863691 0)
(0.605654 -0.0515616 0)
(0.613369 -0.000996093 0)
(0.63293 0.0500691 0)
(0.619446 0.1118 0)
(0.613419 0.178151 0)
(0.578462 0.259769 0)
(0.557033 0.347764 0)
(0.517472 0.464211 0)
(0.495021 0.631955 0)
(0.0236569 -0.280041 0)
(0.0692268 -0.28174 0)
(0.11623 -0.277024 0)
(0.163647 -0.277249 0)
(0.209798 -0.274259 0)
(0.25641 -0.268963 0)
(0.30304 -0.262049 0)
(0.35013 -0.255354 0)
(0.395283 -0.240513 0)
(0.442325 -0.230135 0)
(0.484257 -0.207058 0)
(0.530322 -0.186482 0)
(0.566586 -0.151745 0)
(0.609284 -0.117926 0)
(0.64129 -0.0679196 0)
(0.662759 -0.00743868 0)
(0.69532 0.0599695 0)
(0.694074 0.142213 0)
(0.711508 0.225647 0)
(0.690008 0.315413 0)
(0.699814 0.403966 0)
(0.672149 0.510468 0)
(0.697645 0.653826 0)
(0.0243831 -0.326663 0)
(0.0699829 -0.328111 0)
(0.11815 -0.324493 0)
(0.166828 -0.324194 0)
(0.214416 -0.320668 0)
(0.262664 -0.315654 0)
(0.311597 -0.309071 0)
(0.361053 -0.301869 0)
(0.409443 -0.287556 0)
(0.460217 -0.27676 0)
(0.507008 -0.252675 0)
(0.557999 -0.232169 0)
(0.603001 -0.197816 0)
(0.654346 -0.161622 0)
(0.688564 -0.105514 0)
(0.742474 -0.0553817 0)
(0.763452 0.0184279 0)
(0.78141 0.095678 0)
(0.782135 0.182501 0)
(0.767906 0.272183 0)
(0.75723 0.366539 0)
(0.740714 0.467838 0)
(0.747288 0.593138 0)
(0.0249451 -0.374945 0)
(0.0704528 -0.376042 0)
(0.119446 -0.374417 0)
(0.169198 -0.374063 0)
(0.217766 -0.37063 0)
(0.266763 -0.366683 0)
(0.316768 -0.360963 0)
(0.367217 -0.353708 0)
(0.417153 -0.340169 0)
(0.469153 -0.32816 0)
(0.518996 -0.305289 0)
(0.571652 -0.282884 0)
(0.621767 -0.248511 0)
(0.667913 -0.203864 0)
(0.720183 -0.156418 0)
(0.764918 -0.0826937 0)
(0.78326 0.0207713 0)
(0.824448 0.123324 0)
(0.82413 0.238891 0)
(0.812549 0.339922 0)
(0.819376 0.431068 0)
(0.812123 0.51947 0)
(0.819194 0.610212 0)
(0.0264947 -0.422874 0)
(0.0763115 -0.423434 0)
(0.128798 -0.424116 0)
(0.181444 -0.423378 0)
(0.226629 -0.419047 0)
(0.265263 -0.415353 0)
(0.293136 -0.410151 0)
(0.313731 -0.402778 0)
(0.328545 -0.390063 0)
(0.360564 -0.379109 0)
(0.400498 -0.355723 0)
(0.460861 -0.335348 0)
(0.530956 -0.294635 0)
(0.617629 -0.260381 0)
(0.696073 -0.202972 0)
(0.772843 -0.118383 0)
(0.823584 -0.0407804 0)
(0.860315 0.0563183 0)
(0.836322 0.196146 0)
(0.811211 0.279195 0)
(0.806477 0.368801 0)
(0.801866 0.469483 0)
(0.82865 0.55782 0)
(0.0114383 -0.47838 0)
(0.0432464 -0.479009 0)
(0.0675162 -0.480176 0)
(0.0968237 -0.472709 0)
(0.125624 -0.455256 0)
(0.153169 -0.434345 0)
(0.182683 -0.410548 0)
(0.213861 -0.390558 0)
(0.253403 -0.388059 0)
(0.300583 -0.401604 0)
(0.369121 -0.406784 0)
(0.449818 -0.415189 0)
(0.547886 -0.406573 0)
(0.653896 -0.370716 0)
(0.762336 -0.312894 0)
(0.873591 -0.211888 0)
(0.978688 -0.0682618 0)
(1.05408 0.10606 0)
(1.06741 0.286454 0)
(1.00015 0.366143 0)
(0.892208 0.436953 0)
(0.822787 0.493529 0)
(0.842005 0.531459 0)
(0.00799492 -0.477717 0)
(0.034075 -0.479642 0)
(0.0496152 -0.477744 0)
(0.0684827 -0.481394 0)
(0.0903099 -0.474978 0)
(0.115627 -0.471746 0)
(0.147041 -0.469897 0)
(0.187674 -0.472498 0)
(0.237679 -0.476105 0)
(0.290097 -0.494448 0)
(0.352976 -0.504818 0)
(0.41793 -0.514159 0)
(0.474704 -0.499224 0)
(0.535373 -0.475448 0)
(0.601912 -0.423281 0)
(0.682783 -0.335291 0)
(0.799796 -0.221122 0)
(0.939643 -0.0298616 0)
(1.08157 0.250752 0)
(1.16887 0.457301 0)
(1.10507 0.549786 0)
(1.04683 0.523358 0)
(0.99723 0.49726 0)
(0.0160405 -0.521482 0)
(0.0403113 -0.521721 0)
(0.0703771 -0.515595 0)
(0.0937734 -0.514697 0)
(0.121178 -0.503807 0)
(0.14711 -0.492916 0)
(0.176842 -0.484511 0)
(0.20483 -0.483537 0)
(0.239069 -0.492366 0)
(0.269141 -0.519132 0)
(0.30856 -0.536481 0)
(0.336857 -0.539062 0)
(0.362919 -0.525561 0)
(0.391153 -0.499806 0)
(0.423826 -0.461807 0)
(0.473678 -0.411953 0)
(0.548723 -0.326653 0)
(0.646776 -0.179095 0)
(0.820597 0.0563653 0)
(1.04254 0.342343 0)
(1.21097 0.558817 0)
(1.28536 0.601161 0)
(1.30754 0.60552 0)
(0.0135826 -0.534085 0)
(0.0305066 -0.533965 0)
(0.0559521 -0.531131 0)
(0.0763076 -0.532051 0)
(0.100662 -0.527979 0)
(0.126938 -0.526991 0)
(0.157877 -0.527034 0)
(0.18907 -0.534115 0)
(0.224095 -0.539965 0)
(0.251496 -0.563553 0)
(0.275243 -0.572133 0)
(0.290501 -0.568027 0)
(0.304848 -0.553108 0)
(0.322947 -0.536031 0)
(0.342122 -0.505543 0)
(0.366759 -0.460292 0)
(0.394798 -0.394732 0)
(0.446339 -0.30227 0)
(0.535331 -0.146532 0)
(0.710886 0.064292 0)
(0.975121 0.305721 0)
(1.20357 0.426556 0)
(1.3671 0.479941 0)
(0.0148236 -0.566704 0)
(0.0374081 -0.565283 0)
(0.0666514 -0.562578 0)
(0.0912985 -0.560726 0)
(0.120724 -0.555795 0)
(0.148487 -0.551759 0)
(0.179697 -0.548184 0)
(0.205417 -0.551557 0)
(0.233383 -0.556207 0)
(0.250204 -0.571907 0)
(0.262872 -0.576682 0)
(0.274147 -0.57022 0)
(0.285821 -0.559071 0)
(0.299316 -0.538555 0)
(0.309344 -0.506614 0)
(0.323754 -0.466107 0)
(0.341079 -0.406988 0)
(0.367881 -0.321572 0)
(0.415137 -0.209648 0)
(0.510452 -0.0994477 0)
(0.675546 0.063768 0)
(0.892675 0.207169 0)
(1.09612 0.313776 0)
(0.0121418 -0.586199 0)
(0.0364525 -0.58571 0)
(0.0613108 -0.584842 0)
(0.0869639 -0.585978 0)
(0.113049 -0.584885 0)
(0.141284 -0.585698 0)
(0.171101 -0.583581 0)
(0.199368 -0.587448 0)
(0.226165 -0.584363 0)
(0.244562 -0.592642 0)
(0.259698 -0.595563 0)
(0.27512 -0.590527 0)
(0.28943 -0.577813 0)
(0.307471 -0.559231 0)
(0.324993 -0.529585 0)
(0.34887 -0.491849 0)
(0.373781 -0.438763 0)
(0.41175 -0.376549 0)
(0.469847 -0.289777 0)
(0.549664 -0.197771 0)
(0.659667 -0.0789292 0)
(0.818896 0.00440164 0)
(0.999911 0.0960229 0)
(0.013872 -0.616501 0)
(0.0396547 -0.61573 0)
(0.0679136 -0.614345 0)
(0.0948957 -0.613818 0)
(0.122925 -0.611432 0)
(0.15019 -0.611306 0)
(0.179052 -0.607633 0)
(0.205672 -0.608142 0)
(0.233506 -0.602627 0)
(0.258045 -0.606827 0)
(0.278452 -0.608326 0)
(0.300444 -0.601346 0)
(0.323714 -0.592424 0)
(0.352748 -0.575477 0)
(0.383198 -0.548908 0)
(0.421267 -0.516245 0)
(0.463603 -0.470694 0)
(0.5176 -0.419046 0)
(0.584842 -0.348707 0)
(0.671442 -0.290671 0)
(0.786952 -0.207332 0)
(0.928473 -0.135588 0)
(1.08034 -0.0583011 0)
(0.0120711 -0.63956 0)
(0.0377919 -0.639645 0)
(0.0626192 -0.63989 0)
(0.089168 -0.640834 0)
(0.115149 -0.639941 0)
(0.14289 -0.641627 0)
(0.170636 -0.638795 0)
(0.199557 -0.64167 0)
(0.229396 -0.636448 0)
(0.259713 -0.637302 0)
(0.285388 -0.637602 0)
(0.314511 -0.635519 0)
(0.343213 -0.629767 0)
(0.37679 -0.618579 0)
(0.412897 -0.597855 0)
(0.456961 -0.572283 0)
(0.507244 -0.535058 0)
(0.569346 -0.498069 0)
(0.648183 -0.444003 0)
(0.742194 -0.400554 0)
(0.856968 -0.337341 0)
(0.994245 -0.289778 0)
(1.14725 -0.228769 0)
(0.0134613 -0.667591 0)
(0.0410094 -0.667523 0)
(0.0680126 -0.666961 0)
(0.0953162 -0.667645 0)
(0.122785 -0.666394 0)
(0.15046 -0.668147 0)
(0.179231 -0.665537 0)
(0.20806 -0.668306 0)
(0.238018 -0.664033 0)
(0.270776 -0.664233 0)
(0.301711 -0.66431 0)
(0.334953 -0.660624 0)
(0.367464 -0.655859 0)
(0.404562 -0.646676 0)
(0.4445 -0.630236 0)
(0.491618 -0.61217 0)
(0.547414 -0.584286 0)
(0.612898 -0.561633 0)
(0.695807 -0.523052 0)
(0.790488 -0.501046 0)
(0.908593 -0.461311 0)
(1.04255 -0.427699 0)
(1.19496 -0.388184 0)
(0.0125015 -0.693903 0)
(0.0382423 -0.694087 0)
(0.0635994 -0.694045 0)
(0.0899773 -0.695493 0)
(0.116368 -0.694926 0)
(0.1436 -0.697958 0)
(0.171598 -0.696235 0)
(0.200258 -0.700328 0)
(0.229499 -0.698998 0)
(0.262247 -0.700864 0)
(0.292864 -0.701553 0)
(0.327444 -0.701157 0)
(0.362408 -0.699143 0)
(0.401503 -0.695591 0)
(0.445193 -0.684768 0)
(0.494898 -0.675357 0)
(0.556368 -0.656455 0)
(0.624964 -0.646865 0)
(0.713448 -0.622217 0)
(0.811109 -0.613946 0)
(0.930029 -0.590786 0)
(1.06423 -0.576847 0)
(1.22366 -0.558883 0)
(0.0130892 -0.719483 0)
(0.0398837 -0.719781 0)
(0.0665254 -0.71984 0)
(0.0937424 -0.721596 0)
(0.121268 -0.72115 0)
(0.149043 -0.724583 0)
(0.177697 -0.723328 0)
(0.206817 -0.727447 0)
(0.236391 -0.727169 0)
(0.26831 -0.728905 0)
(0.300305 -0.730661 0)
(0.334965 -0.731557 0)
(0.371725 -0.731062 0)
(0.410484 -0.730914 0)
(0.456982 -0.724804 0)
(0.506566 -0.724862 0)
(0.571733 -0.71566 0)
(0.639517 -0.720263 0)
(0.72861 -0.710854 0)
(0.823737 -0.719162 0)
(0.942169 -0.716606 0)
(1.07432 -0.722992 0)
(1.23594 -0.731306 0)
(0.0125201 -0.74682 0)
(0.0385566 -0.747476 0)
(0.0640759 -0.747847 0)
(0.0904164 -0.750202 0)
(0.116698 -0.750177 0)
(0.143579 -0.754363 0)
(0.170867 -0.753969 0)
(0.199279 -0.759006 0)
(0.227849 -0.760454 0)
(0.259114 -0.764785 0)
(0.290969 -0.768142 0)
(0.324569 -0.772616 0)
(0.362372 -0.774606 0)
(0.400845 -0.780966 0)
(0.450489 -0.780919 0)
(0.499821 -0.790376 0)
(0.566773 -0.789764 0)
(0.632798 -0.804149 0)
(0.72011 -0.807253 0)
(0.811984 -0.828017 0)
(0.927103 -0.842746 0)
(1.05521 -0.871228 0)
(1.21603 -0.904719 0)
(0.0127435 -0.771584 0)
(0.0390469 -0.772367 0)
(0.0647899 -0.772714 0)
(0.091167 -0.775254 0)
(0.117516 -0.775313 0)
(0.144364 -0.779795 0)
(0.171684 -0.780019 0)
(0.199946 -0.785493 0)
(0.228819 -0.787982 0)
(0.258916 -0.79314 0)
(0.291355 -0.797094 0)
(0.323569 -0.804134 0)
(0.362771 -0.808344 0)
(0.399842 -0.820263 0)
(0.449226 -0.824892 0)
(0.494968 -0.842408 0)
(0.557903 -0.849977 0)
(0.618892 -0.874841 0)
(0.700642 -0.891766 0)
(0.786378 -0.927444 0)
(0.895866 -0.96212 0)
(1.01718 -1.01337 0)
(1.17034 -1.07686 0)
(0.0121205 -0.798648 0)
(0.0376167 -0.799561 0)
(0.0620858 -0.80001 0)
(0.0878091 -0.802977 0)
(0.112925 -0.803429 0)
(0.139357 -0.808594 0)
(0.16534 -0.809623 0)
(0.193204 -0.816225 0)
(0.22069 -0.81951 0)
(0.250226 -0.82744 0)
(0.281666 -0.832901 0)
(0.313796 -0.844189 0)
(0.351436 -0.851049 0)
(0.388352 -0.867621 0)
(0.433468 -0.876368 0)
(0.479175 -0.899293 0)
(0.534962 -0.914277 0)
(0.595832 -0.947181 0)
(0.66704 -0.97569 0)
(0.748992 -1.02362 0)
(0.843294 -1.0749 0)
(0.953899 -1.14625 0)
(1.08652 -1.23558 0)
(0.0119135 -0.822204 0)
(0.0372319 -0.823212 0)
(0.0612422 -0.823782 0)
(0.0867675 -0.826973 0)
(0.111182 -0.827728 0)
(0.137319 -0.833088 0)
(0.162219 -0.834721 0)
(0.189608 -0.841727 0)
(0.215606 -0.845852 0)
(0.244689 -0.855013 0)
(0.273084 -0.86153 0)
(0.304892 -0.874803 0)
(0.336433 -0.883848 0)
(0.3737 -0.903167 0)
(0.409488 -0.916815 0)
(0.45761 -0.944727 0)
(0.500023 -0.967991 0)
(0.564034 -1.00771 0)
(0.615643 -1.04662 0)
(0.699656 -1.10451 0)
(0.76591 -1.16921 0)
(0.874842 -1.25746 0)
(0.969165 -1.3692 0)
(0.011497 -0.847911 0)
(0.0364965 -0.849003 0)
(0.059551 -0.84967 0)
(0.0846787 -0.853036 0)
(0.107807 -0.854118 0)
(0.133548 -0.859759 0)
(0.156811 -0.862067 0)
(0.183949 -0.869759 0)
(0.207826 -0.874767 0)
(0.236846 -0.885089 0)
(0.261958 -0.893319 0)
(0.294132 -0.907719 0)
(0.320619 -0.920147 0)
(0.358929 -0.940866 0)
(0.387236 -0.960691 0)
(0.435575 -0.990033 0)
(0.4655 -1.02129 0)
(0.527653 -1.06304 0)
(0.560251 -1.11213 0)
(0.641199 -1.17419 0)
(0.678441 -1.25117 0)
(0.782188 -1.34996 0)
(0.828414 -1.47339 0)
(0.0111741 -0.870953 0)
(0.0358675 -0.872012 0)
(0.0580952 -0.872716 0)
(0.0827594 -0.875967 0)
(0.104643 -0.877343 0)
(0.129738 -0.88282 0)
(0.151204 -0.885861 0)
(0.177564 -0.893462 0)
(0.198737 -0.899486 0)
(0.227059 -0.909857 0)
(0.248026 -0.91957 0)
(0.279697 -0.934168 0)
(0.300424 -0.949445 0)
(0.337591 -0.970489 0)
(0.357637 -0.994332 0)
(0.402493 -1.02372 0)
(0.422028 -1.06103 0)
(0.477829 -1.10327 0)
(0.497144 -1.1612 0)
(0.567399 -1.22365 0)
(0.584451 -1.31129 0)
(0.67231 -1.40843 0)
(0.678387 -1.54037 0)
(0.0107378 -0.895124 0)
(0.0350827 -0.896085 0)
(0.0563422 -0.896736 0)
(0.0806008 -0.899746 0)
(0.101254 -0.901277 0)
(0.125785 -0.906488 0)
(0.145595 -0.91008 0)
(0.171066 -0.917471 0)
(0.190053 -0.924454 0)
(0.217185 -0.934572 0)
(0.235282 -0.946158 0)
(0.265292 -0.960327 0)
(0.281965 -0.978246 0)
(0.315836 -0.998316 0)
(0.330532 -1.02579 0)
(0.369766 -1.05473 0)
(0.382425 -1.09678 0)
(0.427827 -1.13861 0)
(0.437577 -1.20178 0)
(0.489989 -1.26222 0)
(0.494249 -1.35602 0)
(0.554408 -1.445 0)
(0.540869 -1.58664 0)
(0.0104216 -0.917428 0)
(0.0344893 -0.918256 0)
(0.0550137 -0.918884 0)
(0.0788849 -0.921507 0)
(0.0984729 -0.923167 0)
(0.122356 -0.927776 0)
(0.140511 -0.931769 0)
(0.164834 -0.938527 0)
(0.181363 -0.946218 0)
(0.206798 -0.955697 0)
(0.221525 -0.968277 0)
(0.248772 -0.981487 0)
(0.261509 -1.00057 0)
(0.291043 -1.01975 0)
(0.301504 -1.0488 0)
(0.333227 -1.07641 0)
(0.340356 -1.11956 0)
(0.373647 -1.15934 0)
(0.376002 -1.2237 0)
(0.409888 -1.28136 0)
(0.403848 -1.37582 0)
(0.436333 -1.45615 0)
(0.410833 -1.5942 0)
(0.0100716 -0.940229 0)
(0.0338029 -0.940859 0)
(0.0535544 -0.941323 0)
(0.076955 -0.943384 0)
(0.0955706 -0.944933 0)
(0.11872 -0.948702 0)
(0.135582 -0.952728 0)
(0.158581 -0.958501 0)
(0.173302 -0.966565 0)
(0.196544 -0.97492 0)
(0.208877 -0.988242 0)
(0.232669 -1.00052 0)
(0.242685 -1.02057 0)
(0.266721 -1.03855 0)
(0.273681 -1.06794 0)
(0.297196 -1.09386 0)
(0.300564 -1.13707 0)
(0.322105 -1.17457 0)
(0.318988 -1.23782 0)
(0.334956 -1.29042 0)
(0.320744 -1.38221 0)
(0.327217 -1.45242 0)
(0.29381 -1.5817 0)
(0.00978787 -0.961884 0)
(0.0331599 -0.962305 0)
(0.0523319 -0.962611 0)
(0.0753293 -0.964082 0)
(0.093279 -0.965493 0)
(0.115861 -0.968336 0)
(0.131799 -0.972168 0)
(0.153711 -0.976792 0)
(0.166971 -0.984685 0)
(0.188095 -0.991833 0)
(0.198309 -1.00486 0)
(0.218212 -1.01589 0)
(0.225231 -1.03503 0)
(0.243367 -1.05139 0)
(0.247023 -1.07962 0)
(0.262591 -1.104 0)
(0.261762 -1.14474 0)
(0.272679 -1.17846 0)
(0.264145 -1.23672 0)
(0.266226 -1.28369 0)
(0.244168 -1.36809 0)
(0.230898 -1.42949 0)
(0.190302 -1.54645 0)
(0.00940486 -0.983366 0)
(0.0321636 -0.983578 0)
(0.0506396 -0.983671 0)
(0.0730127 -0.984501 0)
(0.0903429 -0.985624 0)
(0.112134 -0.987378 0)
(0.127415 -0.9907 0)
(0.148087 -0.993816 0)
(0.160503 -1.00102 0)
(0.179397 -1.00639 0)
(0.188278 -1.01836 0)
(0.204448 -1.02758 0)
(0.209378 -1.04564 0)
(0.22212 -1.06046 0)
(0.222647 -1.08701 0)
(0.230721 -1.10864 0)
(0.225487 -1.14698 0)
(0.227386 -1.17687 0)
(0.213945 -1.23118 0)
(0.205283 -1.2702 0)
(0.178449 -1.34668 0)
(0.149185 -1.39828 0)
(0.105518 -1.5021 0)
(0.00911823 -1.00398 0)
(0.0312035 -1.00406 0)
(0.0491299 -1.00398 0)
(0.0709186 -1.00431 0)
(0.0877626 -1.00513 0)
(0.108859 -1.00593 0)
(0.123699 -1.00861 0)
(0.143341 -1.0104 0)
(0.15528 -1.01644 0)
(0.172266 -1.02014 0)
(0.180256 -1.0303 0)
(0.193305 -1.03752 0)
(0.196425 -1.05302 0)
(0.204274 -1.0652 0)
(0.201939 -1.0885 0)
(0.203507 -1.10735 0)
(0.193927 -1.14161 0)
(0.18756 -1.16738 0)
(0.169804 -1.21469 0)
(0.151794 -1.24855 0)
(0.122512 -1.31174 0)
(0.0829273 -1.35664 0)
(0.0365545 -1.43823 0)
(0.00868388 -1.02385 0)
(0.0292491 -1.02373 0)
(0.0462356 -1.02353 0)
(0.066757 -1.02327 0)
(0.082801 -1.02368 0)
(0.102757 -1.02343 0)
(0.117145 -1.02524 0)
(0.135574 -1.02548 0)
(0.147263 -1.02994 0)
(0.162729 -1.03141 0)
(0.17058 -1.03932 0)
(0.181749 -1.04374 0)
(0.184304 -1.05646 0)
(0.188848 -1.06588 0)
(0.184099 -1.08603 0)
(0.180723 -1.10039 0)
(0.167024 -1.13078 0)
(0.153688 -1.15234 0)
(0.130058 -1.19517 0)
(0.104969 -1.22229 0)
(0.0702213 -1.27765 0)
(0.0277545 -1.31147 0)
(-0.0212187 -1.38046 0)
(0.00815235 -1.04239 0)
(0.0273422 -1.04212 0)
(0.0432701 -1.04198 0)
(0.0625136 -1.04137 0)
(0.0777166 -1.04161 0)
(0.096586 -1.04078 0)
(0.110583 -1.0419 0)
(0.128144 -1.04104 0)
(0.139825 -1.04404 0)
(0.154278 -1.04398 0)
(0.162256 -1.04971 0)
(0.171886 -1.05175 0)
(0.174477 -1.06044 0)
(0.176918 -1.06545 0)
(0.171234 -1.08065 0)
(0.163695 -1.09071 0)
(0.148075 -1.11475 0)
(0.128402 -1.13079 0)
(0.101233 -1.16596 0)
(0.0663339 -1.18902 0)
(0.0280154 -1.23415 0)
(-0.0265896 -1.26532 0)
(-0.0756367 -1.3192 0)
(0.00718108 -1.05942 0)
(0.0243093 -1.05897 0)
(0.0383953 -1.05878 0)
(0.0555404 -1.05779 0)
(0.0692218 -1.0578 0)
(0.0862451 -1.05634 0)
(0.0992732 -1.05679 0)
(0.115479 -1.05473 0)
(0.126962 -1.056 0)
(0.140842 -1.05379 0)
(0.149301 -1.05677 0)
(0.15867 -1.0558 0)
(0.161686 -1.06127 0)
(0.164168 -1.06235 0)
(0.158639 -1.07245 0)
(0.149773 -1.07674 0)
(0.131539 -1.09503 0)
(0.108191 -1.10481 0)
(0.0759745 -1.1326 0)
(0.037087 -1.14816 0)
(-0.00863142 -1.18433 0)
(-0.066518 -1.20668 0)
(-0.129331 -1.25146 0)
(0.00626495 -1.0743 0)
(0.0215347 -1.0738 0)
(0.0338805 -1.07365 0)
(0.0491393 -1.07266 0)
(0.0613078 -1.07277 0)
(0.0765342 -1.07132 0)
(0.0883313 -1.0716 0)
(0.103039 -1.06925 0)
(0.113794 -1.06987 0)
(0.12684 -1.06686 0)
(0.135541 -1.068 0)
(0.145087 -1.06467 0)
(0.149372 -1.06637 0)
(0.15266 -1.06292 0)
(0.149215 -1.06663 0)
(0.141692 -1.06413 0)
(0.125722 -1.07343 0)
(0.100494 -1.07568 0)
(0.0670391 -1.09492 0)
(0.0207673 -1.10477 0)
(-0.0269179 -1.1303 0)
(-0.0929209 -1.14474 0)
(-0.156203 -1.1756 0)
(0.00517061 -1.08723 0)
(0.0178959 -1.08663 0)
(0.0280756 -1.0864 0)
(0.0407434 -1.08523 0)
(0.0507797 -1.08517 0)
(0.0633575 -1.08334 0)
(0.0731571 -1.08322 0)
(0.0855835 -1.08011 0)
(0.0951417 -1.07965 0)
(0.106874 -1.07538 0)
(0.115043 -1.07479 0)
(0.124348 -1.06936 0)
(0.128992 -1.0685 0)
(0.133357 -1.06174 0)
(0.131277 -1.06098 0)
(0.126315 -1.0525 0)
(0.112887 -1.05311 0)
(0.091553 -1.04507 0)
(0.059434 -1.052 0)
(0.0133867 -1.05286 0)
(-0.0404198 -1.06978 0)
(-0.105926 -1.07582 0)
(-0.174824 -1.09432 0)
(0.004173 -1.09775 0)
(0.0146528 -1.09712 0)
(0.0228923 -1.0969 0)
(0.0333359 -1.09578 0)
(0.0415281 -1.0958 0)
(0.0519489 -1.09415 0)
(0.0601754 -1.09427 0)
(0.0706905 -1.09173 0)
(0.0791952 -1.09163 0)
(0.0896138 -1.08732 0)
(0.0976601 -1.08598 0)
(0.106562 -1.07923 0)
(0.112163 -1.07592 0)
(0.117175 -1.06589 0)
(0.117555 -1.06018 0)
(0.1147 -1.04654 0)
(0.105975 -1.03924 0)
(0.0887511 -1.023 0)
(0.0640555 -1.01714 0)
(0.0203233 -1.00554 0)
(-0.0320294 -1.01106 0)
(-0.108333 -1.01076 0)
(-0.181739 -1.01904 0)
(0.0031501 -1.10598 0)
(0.011245 -1.1053 0)
(0.0174444 -1.105 0)
(0.0254448 -1.10379 0)
(0.0315602 -1.10367 0)
(0.0395193 -1.10188 0)
(0.0456907 -1.1018 0)
(0.0536747 -1.09897 0)
(0.05995 -1.09836 0)
(0.067876 -1.09361 0)
(0.0742476 -1.09143 0)
(0.081635 -1.08348 0)
(0.0866417 -1.07866 0)
(0.091389 -1.06653 0)
(0.0925621 -1.05783 0)
(0.0914408 -1.03997 0)
(0.0848574 -1.02622 0)
(0.0718599 -1.00176 0)
(0.0514362 -0.982366 0)
(0.0171561 -0.95494 0)
(-0.0298902 -0.939683 0)
(-0.0999417 -0.923873 0)
(-0.179991 -0.92055 0)
(0.00230437 -1.11251 0)
(0.00835378 -1.1118 0)
(0.0128629 -1.11147 0)
(0.0187968 -1.11029 0)
(0.0232829 -1.11027 0)
(0.0292162 -1.1087 0)
(0.0337771 -1.10884 0)
(0.0397482 -1.10647 0)
(0.0445591 -1.1063 0)
(0.0506151 -1.10216 0)
(0.0557955 -1.10028 0)
(0.0619317 -1.0923 0)
(0.0671583 -1.08634 0)
(0.0717714 -1.07265 0)
(0.0747318 -1.06105 0)
(0.0749692 -1.03989 0)
(0.0730448 -1.02062 0)
(0.0644019 -0.990817 0)
(0.0526895 -0.9634 0)
(0.0277603 -0.92541 0)
(-0.00453372 -0.894714 0)
(-0.0643483 -0.86166 0)
(-0.135275 -0.842759 0)
(0.00150701 -1.11645 0)
(0.00556666 -1.11568 0)
(0.00847474 -1.11526 0)
(0.0124066 -1.11402 0)
(0.0152408 -1.11387 0)
(0.0190655 -1.11215 0)
(0.0218569 -1.11208 0)
(0.0256351 -1.10948 0)
(0.0284963 -1.10891 0)
(0.0322209 -1.10449 0)
(0.0351472 -1.10234 0)
(0.0387418 -1.09436 0)
(0.0417157 -1.08793 0)
(0.0448074 -1.07335 0)
(0.0466716 -1.0602 0)
(0.0472572 -1.03715 0)
(0.0457492 -1.01449 0)
(0.0402974 -0.979787 0)
(0.0306941 -0.944187 0)
(0.0122488 -0.895565 0)
(-0.0131551 -0.84565 0)
(-0.058994 -0.790293 0)
(-0.121228 -0.743011 0)
(0.000970642 -1.11996 0)
(0.00357712 -1.11915 0)
(0.00538486 -1.11868 0)
(0.00780823 -1.11743 0)
(0.00942909 -1.1173 0)
(0.0116225 -1.11572 0)
(0.0131056 -1.11582 0)
(0.0151666 -1.11356 0)
(0.0166953 -1.11335 0)
(0.0187593 -1.10935 0)
(0.0204582 -1.10735 0)
(0.0224556 -1.09955 0)
(0.0243318 -1.09313 0)
(0.026233 -1.07853 0)
(0.0283202 -1.06447 0)
(0.0290563 -1.0402 0)
(0.0295774 -1.01492 0)
(0.0263963 -0.97733 0)
(0.0227268 -0.936859 0)
(0.0111318 -0.883346 0)
(-0.00178001 -0.825014 0)
(-0.030354 -0.755367 0)
(-0.0675711 -0.687276 0)
(0.000473204 -1.12073 0)
(0.00183073 -1.11983 0)
(0.00264371 -1.11923 0)
(0.00373137 -1.1178 0)
(0.004221 -1.11741 0)
(0.00496424 -1.11553 0)
(0.00517238 -1.11529 0)
(0.00566225 -1.11271 0)
(0.00570119 -1.11211 0)
(0.00597849 -1.10781 0)
(0.0058832 -1.10554 0)
(0.00596327 -1.09762 0)
(0.00573202 -1.09103 0)
(0.00552882 -1.07647 0)
(0.00512163 -1.06208 0)
(0.00441337 -1.03715 0)
(0.00309674 -1.01052 0)
(0.000601666 -0.971166 0)
(-0.00330147 -0.927184 0)
(-0.0104398 -0.868701 0)
(-0.0211078 -0.802015 0)
(-0.0393855 -0.721497 0)
(-0.0644899 -0.629997 0)
(0.000216655 -1.12261 0)
(0.000859008 -1.12166 0)
(0.00110115 -1.12091 0)
(0.00141806 -1.11935 0)
(0.00127775 -1.11888 0)
(0.00120947 -1.11704 0)
(0.00072922 -1.11691 0)
(0.000326298 -1.11453 0)
(-0.000405195 -1.11412 0)
(-0.00107551 -1.11006 0)
(-0.0019804 -1.1079 0)