/*--------------------------------*- C++ -*----------------------------------*\
| =========                 |                                                 |
| \\      /  F ield         | OpenFOAM: The Open Source CFD Toolbox           |
|  \\    /   O peration     | Version:  2012                                  |
|   \\  /    A nd           | Website:  www.openfoam.com                      |
|    \\/     M anipulation  |                                                 |
\*---------------------------------------------------------------------------*/
FoamFile
{
    version     2.0;
    format      ascii;
    class       volVectorField;
    location    "0.34";
    object      Uc;
}
// * * * * * * * * * * * * * * * * * * * * * * * * * * * * * * * * * * * * * //

dimensions      [0 1 -1 0 0 0 0];


internalField   nonuniform List<vector> 
2268
(
(0.0218278 -0.0103157 0)
(0.065355 -0.0102549 0)
(0.108119 -0.00995489 0)
(0.150664 -0.0101519 0)
(0.193211 -0.00995533 0)
(0.234402 -0.009511 0)
(0.273471 -0.00895285 0)
(0.31141 -0.00897668 0)
(0.34712 -0.00789985 0)
(0.379779 -0.00753415 0)
(0.410055 -0.00677426 0)
(0.434556 -0.00480449 0)
(0.452779 -0.00380759 0)
(0.466243 -0.00255527 0)
(0.472872 -0.000577552 0)
(0.469363 0.00223581 0)
(0.453959 0.0050445 0)
(0.426291 0.00803133 0)
(0.384978 0.0114929 0)
(0.328252 0.0153157 0)
(0.255998 0.0188315 0)
(0.168001 0.0227555 0)
(0.0599253 0.0283237 0)
(0.0218053 -0.0309363 0)
(0.0653709 -0.0307936 0)
(0.108257 -0.0298938 0)
(0.150866 -0.0304559 0)
(0.19344 -0.0298788 0)
(0.234718 -0.0285617 0)
(0.273947 -0.0269051 0)
(0.31201 -0.0269423 0)
(0.34781 -0.0237295 0)
(0.380723 -0.0226928 0)
(0.411216 -0.0203346 0)
(0.435949 -0.0145116 0)
(0.455143 -0.0117837 0)
(0.468871 -0.00742949 0)
(0.474432 -0.00146411 0)
(0.470849 0.00647386 0)
(0.456132 0.0150421 0)
(0.428429 0.0242022 0)
(0.385875 0.0349567 0)
(0.325998 0.0469584 0)
(0.247341 0.0585089 0)
(0.150065 0.0706373 0)
(0.0484493 0.0795461 0)
(0.0217983 -0.0515431 0)
(0.0654594 -0.0514095 0)
(0.10852 -0.0498956 0)
(0.15118 -0.0507515 0)
(0.19378 -0.0498361 0)
(0.235201 -0.0476873 0)
(0.274689 -0.0449802 0)
(0.312951 -0.044938 0)
(0.348904 -0.0396433 0)
(0.382209 -0.038073 0)
(0.413 -0.0339167 0)
(0.43818 -0.024518 0)
(0.458389 -0.0203988 0)
(0.472588 -0.0120125 0)
(0.478278 -0.00219797 0)
(0.476169 0.00989774 0)
(0.463977 0.0243355 0)
(0.439192 0.0397152 0)
(0.400656 0.057766 0)
(0.345935 0.078308 0)
(0.272646 0.0989686 0)
(0.176635 0.121524 0)
(0.0610637 0.131307 0)
(0.0218273 -0.0721601 0)
(0.0656424 -0.072133 0)
(0.108925 -0.0699771 0)
(0.15168 -0.0710367 0)
(0.194339 -0.0698436 0)
(0.236 -0.0669433 0)
(0.275957 -0.0632694 0)
(0.31463 -0.063008 0)
(0.350937 -0.0557222 0)
(0.384859 -0.0537653 0)
(0.416149 -0.0475634 0)
(0.442024 -0.0349992 0)
(0.463255 -0.0295018 0)
(0.478204 -0.0166845 0)
(0.484588 -0.00323199 0)
(0.482547 0.012893 0)
(0.469699 0.0331747 0)
(0.443678 0.0548873 0)
(0.403012 0.0800243 0)
(0.345794 0.108951 0)
(0.270627 0.138485 0)
(0.174385 0.172865 0)
(0.0601285 0.188592 0)
(0.0218729 -0.0928125 0)
(0.0658733 -0.0929816 0)
(0.109403 -0.0901554 0)
(0.152279 -0.0913267 0)
(0.195011 -0.0899084 0)
(0.236896 -0.0863619 0)
(0.277315 -0.0818363 0)
(0.31637 -0.0811747 0)
(0.35304 -0.0720434 0)
(0.387653 -0.0698336 0)
(0.419427 -0.0612982 0)
(0.446149 -0.046121 0)
(0.468608 -0.0390279 0)
(0.484796 -0.0218726 0)
(0.493109 -0.00498971 0)
(0.493434 0.015462 0)
(0.483935 0.0411671 0)
(0.462663 0.0692454 0)
(0.42757 0.101469 0)
(0.375518 0.139147 0)
(0.303094 0.178041 0)
(0.20567 0.224835 0)
(0.0749147 0.252429 0)
(0.0219424 -0.113519 0)
(0.0661525 -0.113962 0)
(0.109972 -0.110455 0)
(0.15309 -0.111667 0)
(0.196037 -0.110059 0)
(0.238278 -0.105969 0)
(0.279323 -0.100728 0)
(0.318973 -0.0994783 0)
(0.356324 -0.0887212 0)
(0.391871 -0.0863131 0)
(0.424317 -0.0751683 0)
(0.452294 -0.0581011 0)
(0.476586 -0.0491422 0)
(0.493868 -0.0275755 0)
(0.503472 -0.0077542 0)
(0.505074 0.0173166 0)
(0.495908 0.0481336 0)
(0.473982 0.0826944 0)
(0.436883 0.122138 0)
(0.381803 0.169108 0)
(0.306429 0.217928 0)
(0.205729 0.278581 0)
(0.0739216 0.322785 0)
(0.0220388 -0.134304 0)
(0.0664901 -0.135078 0)
(0.11061 -0.130899 0)
(0.153993 -0.132103 0)
(0.197173 -0.130326 0)
(0.239728 -0.125776 0)
(0.281296 -0.119963 0)
(0.32145 -0.117959 0)
(0.359477 -0.105863 0)
(0.395881 -0.103174 0)
(0.428843 -0.089219 0)
(0.458267 -0.0711772 0)
(0.484354 -0.0598748 0)
(0.503439 -0.03403 0)
(0.515814 -0.0116865 0)
(0.520171 0.0184335 0)
(0.514515 0.0540212 0)
(0.497649 0.0951402 0)
(0.467266 0.141584 0)
(0.419506 0.198264 0)
(0.350485 0.257013 0)
(0.252357 0.333461 0)
(0.0970588 0.403608 0)
(0.0221637 -0.155194 0)
(0.0667988 -0.15629 0)
(0.111232 -0.151537 0)
(0.155075 -0.152688 0)
(0.198641 -0.150737 0)
(0.241678 -0.145816 0)
(0.283968 -0.139554 0)
(0.324927 -0.136702 0)
(0.364139 -0.123624 0)
(0.401697 -0.120367 0)
(0.435542 -0.103599 0)
(0.466989 -0.0855646 0)
(0.495407 -0.071246 0)
(0.516329 -0.0415659 0)
(0.530862 -0.016867 0)
(0.536737 0.0187792 0)
(0.532612 0.0582975 0)
(0.516936 0.106244 0)
(0.486807 0.159078 0)
(0.438282 0.226274 0)
(0.365847 0.295855 0)
(0.262837 0.389677 0)
(0.101063 0.497255 0)
(-0.0955938 0.0476317 0)
(-0.291215 0.0495134 0)
(-0.460515 0.0364264 0)
(-0.597794 0.0358777 0)
(-0.710149 0.02581 0)
(-0.792059 0.0229143 0)
(-0.850903 0.0159894 0)
(-0.885762 0.0127075 0)
(-0.908366 0.0107749 0)
(-0.915035 0.00592651 0)
(-0.900416 0.00171441 0)
(-0.872435 0.000232263 0)
(-0.824156 -0.00693461 0)
(-0.755753 -0.00834615 0)
(-0.668077 -0.0151528 0)
(-0.55452 -0.0193741 0)
(-0.419879 -0.0241381 0)
(-0.262214 -0.0291808 0)
(-0.0887304 -0.0308752 0)
(-0.103327 0.146184 0)
(-0.31135 0.150525 0)
(-0.483294 0.108418 0)
(-0.609256 0.103679 0)
(-0.707534 0.0753947 0)
(-0.784883 0.068837 0)
(-0.847346 0.0494121 0)
(-0.889113 0.0396152 0)
(-0.91658 0.0328987 0)
(-0.923397 0.0172673 0)
(-0.905901 0.00443026 0)
(-0.875405 0.000339015 0)
(-0.826143 -0.0208652 0)
(-0.758314 -0.0247338 0)
(-0.671465 -0.0454115 0)
(-0.557969 -0.0581433 0)
(-0.42319 -0.0724526 0)
(-0.264644 -0.0878791 0)
(-0.0895494 -0.092974 0)
(-0.105921 0.249126 0)
(-0.313176 0.252089 0)
(-0.48116 0.179291 0)
(-0.616736 0.17187 0)
(-0.73304 0.126265 0)
(-0.817829 0.114693 0)
(-0.870236 0.0801577 0)
(-0.894997 0.064899 0)
(-0.913561 0.0549222 0)
(-0.920506 0.0288213 0)
(-0.908181 0.00790402 0)
(-0.883387 0.0010404 0)
(-0.836915 -0.0346245 0)
(-0.768882 -0.0411373 0)
(-0.681472 -0.0755424 0)
(-0.567813 -0.0970845 0)
(-0.431716 -0.121215 0)
(-0.270482 -0.147647 0)
(-0.091607 -0.156296 0)
(-0.117862 0.358245 0)
(-0.342316 0.354456 0)
(-0.511486 0.248173 0)
(-0.626708 0.237476 0)
(-0.717921 0.176706 0)
(-0.795447 0.161046 0)
(-0.858905 0.110822 0)
(-0.903599 0.0915011 0)
(-0.937778 0.078474 0)
(-0.946555 0.0396731 0)
(-0.924416 0.0100982 0)
(-0.890513 0.00156633 0)
(-0.841575 -0.0480746 0)
(-0.77624 -0.056792 0)
(-0.691869 -0.10537 0)
(-0.578581 -0.136242 0)
(-0.442017 -0.170521 0)
(-0.278039 -0.209183 0)
(-0.0941698 -0.221585 0)
(-0.114142 0.470855 0)
(-0.344725 0.463242 0)
(-0.527524 0.316924 0)
(-0.661399 0.302476 0)
(-0.777108 0.227487 0)
(-0.862351 0.207241 0)
(-0.905677 0.137769 0)
(-0.915659 0.115522 0)
(-0.929535 0.102602 0)
(-0.938142 0.050645 0)
(-0.927355 0.0128172 0)
(-0.907354 0.00359858 0)
(-0.865622 -0.0610207 0)
(-0.79886 -0.0724136 0)
(-0.712316 -0.134865 0)
(-0.598666 -0.175731 0)
(-0.459464 -0.220818 0)
(-0.290178 -0.273155 0)
(-0.0985918 -0.289844 0)
(-0.142543 0.593956 0)
(-0.404347 0.577409 0)
(-0.57628 0.381457 0)
(-0.668984 0.362105 0)
(-0.744936 0.277137 0)
(-0.822095 0.254398 0)
(-0.886277 0.164049 0)
(-0.931144 0.140271 0)
(-0.975045 0.130124 0)
(-0.989094 0.0604525 0)
(-0.95578 0.0119364 0)
(-0.914847 0.00623157 0)
(-0.870509 -0.0726181 0)
(-0.810542 -0.0871054 0)
(-0.730348 -0.163516 0)
(-0.618098 -0.215623 0)
(-0.477928 -0.272246 0)
(-0.303958 -0.340246 0)
(-0.103463 -0.362057 0)
(-0.137072 0.726801 0)
(-0.413417 0.701278 0)
(-0.613509 0.443627 0)
(-0.736571 0.41948 0)
(-0.848941 0.327604 0)
(-0.935603 0.301328 0)
(-0.963599 0.18402 0)
(-0.945582 0.159403 0)
(-0.951257 0.15976 0)
(-0.965853 0.0706793 0)
(-0.958041 0.0118893 0)
(-0.948271 0.0123716 0)
(-0.914312 -0.084424 0)
(-0.846528 -0.10203 0)
(-0.76165 -0.19123 0)
(-0.649422 -0.255849 0)
(-0.50558 -0.325314 0)
(-0.32368 -0.411062 0)
(-0.110964 -0.439532 0)
(-0.177345 0.874438 0)
(-0.514291 0.842297 0)
(-0.702269 0.495457 0)
(-0.743282 0.465196 0)
(-0.786379 0.375742 0)
(-0.861449 0.349685 0)
(-0.924621 0.202119 0)
(-0.966465 0.179104 0)
(-1.0274 0.196059 0)
(-1.05447 0.079764 0)
(-1.0081 0.00741802 0)
(-0.961342 0.0204492 0)
(-0.92303 -0.0956129 0)
(-0.866517 -0.116108 0)
(-0.791678 -0.217516 0)
(-0.681387 -0.296674 0)
(-0.535273 -0.380314 0)
(-0.346332 -0.486316 0)
(-0.119434 -0.523802 0)
(0.0223984 -0.188184 0)
(0.0673774 -0.189608 0)
(0.11234 -0.184414 0)
(0.156914 -0.185337 0)
(0.20106 -0.183053 0)
(0.244778 -0.177785 0)
(0.288042 -0.171059 0)
(0.330133 -0.166863 0)
(0.370909 -0.152983 0)
(0.409926 -0.147977 0)
(0.445515 -0.127758 0)
(0.480025 -0.110958 0)
(0.510571 -0.0899882 0)
(0.53479 -0.0570558 0)
(0.554568 -0.0281267 0)
(0.566551 0.0152174 0)
(0.570049 0.0602927 0)
(0.565761 0.115968 0)
(0.553322 0.176097 0)
(0.533951 0.251661 0)
(0.506719 0.332076 0)
(0.470271 0.438778 0)
(0.411483 0.583717 0)
(0.0227721 -0.23359 0)
(0.0683726 -0.235254 0)
(0.114171 -0.230003 0)
(0.159927 -0.230551 0)
(0.205323 -0.227847 0)
(0.25054 -0.222391 0)
(0.295734 -0.215373 0)
(0.34031 -0.209668 0)
(0.384112 -0.195199 0)
(0.426369 -0.187459 0)
(0.466789 -0.164682 0)
(0.505686 -0.147823 0)
(0.539971 -0.118291 0)
(0.571243 -0.0845326 0)
(0.597686 -0.0471117 0)
(0.614808 0.00494601 0)
(0.6226 0.0592152 0)
(0.618441 0.125536 0)
(0.602023 0.195536 0)
(0.575842 0.278012 0)
(0.543754 0.365356 0)
(0.508849 0.477225 0)
(0.475528 0.637875 0)
(0.0232146 -0.279817 0)
(0.069567 -0.28146 0)
(0.116303 -0.276814 0)
(0.163288 -0.276965 0)
(0.209857 -0.273877 0)
(0.256345 -0.268546 0)
(0.303069 -0.261618 0)
(0.349542 -0.254947 0)
(0.395629 -0.240279 0)
(0.440892 -0.230355 0)
(0.485097 -0.206852 0)
(0.527625 -0.187504 0)
(0.567872 -0.153531 0)
(0.606162 -0.119216 0)
(0.638001 -0.0710124 0)
(0.664472 -0.01497 0)
(0.685475 0.0507247 0)
(0.696716 0.127445 0)
(0.698404 0.208435 0)
(0.69265 0.297217 0)
(0.682741 0.388369 0)
(0.674337 0.49775 0)
(0.679881 0.645281 0)
(0.0235889 -0.326868 0)
(0.0706174 -0.328283 0)
(0.118266 -0.324874 0)
(0.166541 -0.324669 0)
(0.214564 -0.321268 0)
(0.262817 -0.316408 0)
(0.31171 -0.309905 0)
(0.360767 -0.302747 0)
(0.410019 -0.28841 0)
(0.459197 -0.277297 0)
(0.508029 -0.25362 0)
(0.556461 -0.232402 0)
(0.604534 -0.19767 0)
(0.649985 -0.15951 0)
(0.693348 -0.106572 0)
(0.733963 -0.0470982 0)
(0.762161 0.0337013 0)
(0.776034 0.119585 0)
(0.776372 0.214193 0)
(0.765233 0.30844 0)
(0.749984 0.40264 0)
(0.737862 0.504317 0)
(0.742961 0.628034 0)
(0.0238479 -0.375234 0)
(0.0713187 -0.376282 0)
(0.119627 -0.37473 0)
(0.168889 -0.374289 0)
(0.217854 -0.37059 0)
(0.266988 -0.366398 0)
(0.316842 -0.360517 0)
(0.367036 -0.353135 0)
(0.417596 -0.339467 0)
(0.46851 -0.327831 0)
(0.519554 -0.30434 0)
(0.570807 -0.282624 0)
(0.620481 -0.246347 0)
(0.669041 -0.205881 0)
(0.717796 -0.153151 0)
(0.757785 -0.0815445 0)
(0.788489 0.00933879 0)
(0.813623 0.105419 0)
(0.820752 0.22172 0)
(0.816098 0.317527 0)
(0.812958 0.412381 0)
(0.809762 0.51011 0)
(0.814727 0.612309 0)
(0.0249316 -0.42504 0)
(0.074669 -0.425744 0)
(0.124957 -0.425953 0)
(0.174096 -0.423584 0)
(0.217857 -0.41612 0)
(0.25376 -0.407925 0)
(0.280807 -0.397771 0)
(0.300086 -0.387055 0)
(0.318919 -0.376482 0)
(0.346883 -0.3711 0)
(0.388179 -0.354711 0)
(0.444102 -0.340633 0)
(0.514119 -0.309171 0)
(0.592795 -0.271371 0)
(0.671221 -0.215713 0)
(0.740682 -0.128859 0)
(0.794334 -0.0276147 0)
(0.821934 0.0902615 0)
(0.818512 0.234422 0)
(0.805782 0.323778 0)
(0.801463 0.415393 0)
(0.807093 0.507035 0)
(0.832168 0.587287 0)
(0.0129064 -0.463241 0)
(0.0390626 -0.464163 0)
(0.0649219 -0.464408 0)
(0.0912719 -0.46134 0)
(0.118281 -0.44983 0)
(0.145007 -0.437498 0)
(0.172803 -0.423649 0)
(0.203988 -0.412223 0)
(0.241664 -0.408427 0)
(0.290584 -0.416741 0)
(0.355109 -0.415733 0)
(0.43537 -0.416782 0)
(0.529345 -0.398133 0)
(0.632259 -0.365196 0)
(0.739107 -0.308364 0)
(0.846531 -0.214237 0)
(0.944074 -0.094427 0)
(1.00883 0.0641897 0)
(1.01396 0.259034 0)
(0.953486 0.373433 0)
(0.86651 0.459142 0)
(0.817649 0.509479 0)
(0.831739 0.548378 0)
(0.00976098 -0.486175 0)
(0.0291734 -0.487331 0)
(0.0466484 -0.485097 0)
(0.0638814 -0.484761 0)
(0.0842756 -0.474361 0)
(0.108665 -0.464651 0)
(0.139253 -0.455487 0)
(0.178315 -0.451299 0)
(0.224939 -0.454386 0)
(0.277716 -0.473298 0)
(0.336835 -0.483744 0)
(0.397546 -0.490749 0)
(0.455634 -0.477283 0)
(0.515076 -0.449497 0)
(0.58199 -0.398967 0)
(0.66655 -0.316839 0)
(0.778173 -0.202285 0)
(0.910415 -0.026159 0)
(1.03529 0.218534 0)
(1.09534 0.41423 0)
(1.06777 0.533441 0)
(1.00667 0.545969 0)
(0.957928 0.547682 0)
(0.0133441 -0.50955 0)
(0.0395294 -0.510091 0)
(0.0649803 -0.505787 0)
(0.0895407 -0.506382 0)
(0.114051 -0.498179 0)
(0.139763 -0.491497 0)
(0.166554 -0.486618 0)
(0.194961 -0.488283 0)
(0.225004 -0.494759 0)
(0.25686 -0.518283 0)
(0.289546 -0.531318 0)
(0.318418 -0.533492 0)
(0.343904 -0.518808 0)
(0.371005 -0.495213 0)
(0.405114 -0.455035 0)
(0.455146 -0.396285 0)
(0.527697 -0.308176 0)
(0.636742 -0.162999 0)
(0.801092 0.0644737 0)
(0.994916 0.31295 0)
(1.15038 0.506052 0)
(1.23221 0.552445 0)
(1.25809 0.56414 0)
(0.0102926 -0.533457 0)
(0.0304546 -0.533068 0)
(0.0510329 -0.529375 0)
(0.0721895 -0.529047 0)
(0.0945369 -0.522914 0)
(0.120005 -0.518506 0)
(0.148327 -0.515305 0)
(0.178895 -0.51917 0)
(0.209515 -0.525137 0)
(0.236358 -0.54719 0)
(0.257312 -0.556603 0)
(0.272862 -0.553125 0)
(0.286735 -0.538994 0)
(0.302494 -0.518353 0)
(0.321045 -0.48506 0)
(0.343407 -0.439248 0)
(0.374632 -0.369731 0)
(0.427748 -0.264636 0)
(0.526935 -0.0989673 0)
(0.700673 0.106769 0)
(0.931398 0.323915 0)
(1.14993 0.432558 0)
(1.31772 0.489278 0)
(0.012343 -0.556359 0)
(0.0369418 -0.555456 0)
(0.061947 -0.553104 0)
(0.0875066 -0.552573 0)
(0.11388 -0.548656 0)
(0.141468 -0.546389 0)
(0.168977 -0.543834 0)
(0.19515 -0.547964 0)
(0.218273 -0.550648 0)
(0.235333 -0.566085 0)
(0.24715 -0.570918 0)
(0.257308 -0.56491 0)
(0.267742 -0.551892 0)
(0.278293 -0.532141 0)
(0.288606 -0.500514 0)
(0.300903 -0.458847 0)
(0.318014 -0.398918 0)
(0.345564 -0.316717 0)
(0.397621 -0.199083 0)
(0.496185 -0.0669805 0)
(0.654698 0.106277 0)
(0.853177 0.230911 0)
(1.05162 0.322711 0)
(0.0114531 -0.580424 0)
(0.0345162 -0.579592 0)
(0.0580534 -0.578055 0)
(0.0822272 -0.577906 0)
(0.10734 -0.575367 0)
(0.134027 -0.574523 0)
(0.16164 -0.571394 0)
(0.188498 -0.573992 0)
(0.212112 -0.571876 0)
(0.230329 -0.580587 0)
(0.244854 -0.583159 0)
(0.258416 -0.576767 0)
(0.272393 -0.56482 0)
(0.287802 -0.545544 0)
(0.305418 -0.51541 0)
(0.326288 -0.477502 0)
(0.352443 -0.42395 0)
(0.390315 -0.357627 0)
(0.446882 -0.267524 0)
(0.526797 -0.17809 0)
(0.639584 -0.0554486 0)
(0.79 0.0418243 0)
(0.965589 0.135739 0)
(0.0127066 -0.604853 0)
(0.0382634 -0.604323 0)
(0.0642458 -0.603387 0)
(0.0904636 -0.603512 0)
(0.116685 -0.601646 0)
(0.143179 -0.601983 0)
(0.169708 -0.598637 0)
(0.195809 -0.600258 0)
(0.221117 -0.595056 0)
(0.244031 -0.599015 0)
(0.264429 -0.600093 0)
(0.284893 -0.594287 0)
(0.307801 -0.584618 0)
(0.334244 -0.568047 0)
(0.364694 -0.541445 0)
(0.400331 -0.508476 0)
(0.442865 -0.462218 0)
(0.495544 -0.41056 0)
(0.562569 -0.338988 0)
(0.649742 -0.274728 0)
(0.762801 -0.185957 0)
(0.89868 -0.115557 0)
(1.05117 -0.0367492 0)
(0.0118186 -0.629646 0)
(0.0356292 -0.629435 0)
(0.0598118 -0.628982 0)
(0.0844903 -0.629358 0)
(0.109744 -0.627821 0)
(0.135735 -0.62884 0)
(0.162448 -0.625572 0)
(0.189973 -0.627496 0)
(0.218355 -0.622051 0)
(0.246036 -0.623136 0)
(0.272353 -0.623182 0)
(0.299121 -0.618921 0)
(0.327726 -0.612002 0)
(0.359281 -0.599188 0)
(0.395271 -0.577306 0)
(0.437399 -0.550987 0)
(0.487544 -0.513059 0)
(0.549293 -0.474919 0)
(0.626166 -0.419436 0)
(0.719946 -0.376319 0)
(0.833608 -0.312393 0)
(0.967647 -0.26055 0)
(1.12064 -0.198916 0)
(0.0129928 -0.654723 0)
(0.039003 -0.65471 0)
(0.0649673 -0.654386 0)
(0.0909853 -0.655185 0)
(0.117205 -0.654005 0)
(0.143839 -0.655821 0)
(0.171079 -0.653088 0)
(0.198895 -0.65587 0)
(0.227981 -0.6517 0)
(0.258285 -0.652025 0)
(0.288935 -0.651802 0)
(0.320092 -0.648765 0)
(0.352581 -0.643801 0)
(0.387879 -0.634811 0)
(0.427512 -0.617912 0)
(0.473595 -0.599251 0)
(0.528218 -0.570296 0)
(0.594179 -0.546231 0)
(0.674246 -0.50604 0)
(0.770364 -0.480747 0)
(0.885199 -0.437781 0)
(1.01842 -0.403923 0)
(1.17079 -0.362592 0)
(0.012086 -0.680065 0)
(0.0363482 -0.680167 0)
(0.0608537 -0.679925 0)
(0.0857772 -0.681114 0)
(0.111166 -0.680213 0)
(0.137167 -0.68278 0)
(0.163919 -0.680656 0)
(0.191335 -0.684074 0)
(0.220072 -0.681867 0)
(0.25017 -0.68282 0)
(0.281053 -0.683098 0)
(0.313479 -0.681614 0)
(0.348099 -0.678635 0)
(0.386023 -0.673797 0)
(0.428764 -0.661936 0)
(0.478589 -0.651831 0)
(0.537584 -0.63211 0)
(0.608026 -0.621703 0)
(0.692534 -0.596159 0)
(0.791881 -0.587255 0)
(0.908065 -0.563626 0)
(1.0435 -0.548244 0)
(1.20084 -0.5297 0)
(0.012668 -0.705075 0)
(0.0381208 -0.705385 0)
(0.0637918 -0.705398 0)
(0.089789 -0.707079 0)
(0.116142 -0.70651 0)
(0.142914 -0.709781 0)
(0.170299 -0.708321 0)
(0.198246 -0.712305 0)
(0.227115 -0.711782 0)
(0.257287 -0.713725 0)
(0.288736 -0.71508 0)
(0.322061 -0.71595 0)
(0.357588 -0.715029 0)
(0.39657 -0.714918 0)
(0.440687 -0.708326 0)
(0.492166 -0.707464 0)
(0.552879 -0.696988 0)
(0.624098 -0.699394 0)
(0.708189 -0.688103 0)
(0.806422 -0.694065 0)
(0.921339 -0.689252 0)
(1.05629 -0.694528 0)
(1.21467 -0.700889 0)
(0.012219 -0.730214 0)
(0.0367774 -0.730763 0)
(0.0615288 -0.730951 0)
(0.0865471 -0.733052 0)
(0.111887 -0.732742 0)
(0.137613 -0.73656 0)
(0.163968 -0.735799 0)
(0.191026 -0.740354 0)
(0.21911 -0.741212 0)
(0.248729 -0.744625 0)
(0.279743 -0.747192 0)
(0.312829 -0.750811 0)
(0.348614 -0.752061 0)
(0.388573 -0.757441 0)
(0.434215 -0.756223 0)
(0.486884 -0.764443 0)
(0.548085 -0.762734 0)
(0.618523 -0.776209 0)
(0.700576 -0.778452 0)
(0.79602 -0.798545 0)
(0.907562 -0.812543 0)
(1.03956 -0.839702 0)
(1.19648 -0.872765 0)
(0.0124229 -0.755102 0)
(0.0373324 -0.755836 0)
(0.0623231 -0.756114 0)
(0.0874831 -0.758563 0)
(0.112911 -0.758496 0)
(0.138698 -0.762819 0)
(0.165078 -0.76278 0)
(0.1922 -0.768061 0)
(0.220166 -0.770068 0)
(0.249481 -0.775231 0)
(0.280215 -0.77887 0)
(0.313168 -0.785724 0)
(0.349029 -0.789369 0)
(0.388643 -0.800317 0)
(0.432987 -0.803991 0)
(0.482872 -0.819944 0)
(0.539997 -0.826345 0)
(0.605618 -0.849527 0)
(0.68219 -0.864738 0)
(0.771871 -0.898492 0)
(0.877457 -0.930988 0)
(1.00285 -0.980118 0)
(1.15288 -1.04102 0)
(0.0119351 -0.779701 0)
(0.0358618 -0.780554 0)
(0.0599014 -0.780907 0)
(0.0841599 -0.78367 0)
(0.108756 -0.783896 0)
(0.133746 -0.788682 0)
(0.159309 -0.78935 0)
(0.185607 -0.795406 0)
(0.212698 -0.798279 0)
(0.241196 -0.805344 0)
(0.271333 -0.81015 0)
(0.303666 -0.82027 0)
(0.338758 -0.826342 0)
(0.376906 -0.8417 0)
(0.419149 -0.849828 0)
(0.46624 -0.871761 0)
(0.519838 -0.885993 0)
(0.581063 -0.917543 0)
(0.651479 -0.944625 0)
(0.732924 -0.990764 0)
(0.827391 -1.03994 0)
(0.93857 -1.10909 0)
(1.07097 -1.19606 0)
(0.011813 -0.803681 0)
(0.0354832 -0.804635 0)
(0.0592512 -0.805098 0)
(0.0831719 -0.808124 0)
(0.107347 -0.808681 0)
(0.131797 -0.813805 0)
(0.156681 -0.815146 0)
(0.182154 -0.821857 0)
(0.208327 -0.825572 0)
(0.235524 -0.834236 0)
(0.264007 -0.840379 0)
(0.293957 -0.852837 0)
(0.326073 -0.861518 0)
(0.360612 -0.879769 0)
(0.398951 -0.892935 0)
(0.441657 -0.919086 0)
(0.490029 -0.94133 0)
(0.544671 -0.97883 0)
(0.606661 -1.01658 0)
(0.677321 -1.07184 0)
(0.757927 -1.13498 0)
(0.851799 -1.2203 0)
(0.961062 -1.32789 0)
(0.0115507 -0.827269 0)
(0.0346653 -0.828281 0)
(0.0578277 -0.828832 0)
(0.0810408 -0.831973 0)
(0.104427 -0.832843 0)
(0.128001 -0.838118 0)
(0.15196 -0.840131 0)
(0.176423 -0.847266 0)
(0.201514 -0.851887 0)
(0.227387 -0.861457 0)
(0.254365 -0.869095 0)
(0.282478 -0.882669 0)
(0.312483 -0.894306 0)
(0.344481 -0.914035 0)
(0.37946 -0.932534 0)
(0.417361 -0.960674 0)
(0.459143 -0.990519 0)
(0.50507 -1.03088 0)
(0.556386 -1.07857 0)
(0.613605 -1.13854 0)
(0.67771 -1.21388 0)
(0.749795 -1.30835 0)
(0.829161 -1.42958 0)
(0.0113384 -0.850375 0)
(0.0339826 -0.851368 0)
(0.0565902 -0.851949 0)
(0.0791053 -0.855017 0)
(0.101644 -0.856156 0)
(0.124187 -0.861353 0)
(0.146945 -0.864043 0)
(0.169949 -0.871254 0)
(0.193374 -0.87685 0)
(0.217245 -0.886676 0)
(0.241907 -0.89596 0)
(0.267356 -0.909816 0)
(0.294128 -0.924398 0)
(0.32212 -0.944408 0)
(0.351871 -0.967386 0)
(0.383446 -0.995813 0)
(0.417632 -1.03189 0)
(0.454551 -1.07293 0)
(0.495022 -1.12892 0)
(0.53862 -1.18966 0)
(0.586036 -1.27499 0)
(0.635212 -1.36925 0)
(0.686528 -1.50015 0)
(0.0110586 -0.872981 0)
(0.0331189 -0.873884 0)
(0.0551046 -0.874443 0)
(0.0769183 -0.877266 0)
(0.0986506 -0.87859 0)
(0.120243 -0.883465 0)
(0.141862 -0.886716 0)
(0.163516 -0.893646 0)
(0.185382 -0.900158 0)
(0.207451 -0.909715 0)
(0.230022 -0.920564 0)
(0.25297 -0.934023 0)
(0.276533 -0.950943 0)
(0.300591 -0.970336 0)
(0.325497 -0.996548 0)
(0.351273 -1.02445 0)
(0.378081 -1.06471 0)
(0.405757 -1.10518 0)
(0.434456 -1.16634 0)
(0.463607 -1.2255 0)
(0.493318 -1.3168 0)
(0.520616 -1.40444 0)
(0.545333 -1.54152 0)
(0.0108562 -0.895097 0)
(0.0324863 -0.89586 0)
(0.0539882 -0.896354 0)
(0.0752092 -0.898785 0)
(0.0962008 -0.900187 0)
(0.116841 -0.904488 0)
(0.137235 -0.90809 0)
(0.15734 -0.91441 0)
(0.177319 -0.921617 0)
(0.197138 -0.930519 0)
(0.216962 -0.942529 0)
(0.236761 -0.95518 0)
(0.256637 -0.973597 0)
(0.276545 -0.992021 0)
(0.296432 -1.02003 0)
(0.316071 -1.04675 0)
(0.335275 -1.08879 0)
(0.353722 -1.12759 0)
(0.371138 -1.1904 0)
(0.386654 -1.24646 0)
(0.399745 -1.33899 0)
(0.407685 -1.41779 0)
(0.407894 -1.55334 0)
(0.010622 -0.916769 0)
(0.0317653 -0.917347 0)
(0.0527286 -0.917715 0)
(0.0733279 -0.919623 0)
(0.0935824 -0.920969 0)
(0.11334 -0.924471 0)
(0.132624 -0.928146 0)
(0.151344 -0.933533 0)
(0.169591 -0.941068 0)
(0.187317 -0.948954 0)
(0.204584 -0.961521 0)
(0.221433 -0.973167 0)
(0.237765 -0.992143 0)
(0.253424 -1.00936 0)
(0.268194 -1.03766 0)
(0.281969 -1.06284 0)
(0.294368 -1.10459 0)
(0.304684 -1.14083 0)
(0.312015 -1.20217 0)
(0.315211 -1.25362 0)
(0.313302 -1.34318 0)
(0.304258 -1.4126 0)
(0.285343 -1.53983 0)
(0.0104147 -0.937991 0)
(0.0311406 -0.938364 0)
(0.0516721 -0.93856 0)
(0.0718078 -0.939874 0)
(0.0915359 -0.941056 0)
(0.110663 -0.943617 0)
(0.12912 -0.947082 0)
(0.146751 -0.951278 0)
(0.163517 -0.958655 0)
(0.17934 -0.965224 0)
(0.194098 -0.977574 0)
(0.207774 -0.987925 0)
(0.220216 -1.00643 0)
(0.2314 -1.02217 0)
(0.241116 -1.04958 0)
(0.249091 -1.0729 0)
(0.254812 -1.11286 0)
(0.257462 -1.14571 0)
(0.25602 -1.20332 0)
(0.249008 -1.24875 0)
(0.234823 -1.33199 0)
(0.212209 -1.39209 0)
(0.178632 -1.5077 0)
(0.0100938 -0.958677 0)
(0.0301957 -0.958859 0)
(0.0501177 -0.958869 0)
(0.0696607 -0.959589 0)
(0.0887734 -0.96052 0)
(0.107234 -0.96207 0)
(0.124905 -0.965076 0)
(0.141589 -0.967906 0)
(0.157115 -0.974613 0)
(0.171329 -0.979582 0)
(0.18398 -0.990888 0)
(0.194983 -0.999537 0)
(0.20415 -1.01666 0)
(0.211382 -1.03058 0)
(0.216364 -1.05606 0)
(0.218762 -1.07695 0)
(0.218201 -1.1141 0)
(0.214072 -1.14309 0)
(0.205281 -1.19576 0)
(0.190538 -1.23455 0)
(0.167327 -1.30871 0)
(0.1348 -1.36004 0)
(0.0894736 -1.46053 0)
(0.00980556 -0.978745 0)
(0.0293372 -0.978761 0)
(0.0487168 -0.978602 0)
(0.0677559 -0.978766 0)
(0.086353 -0.979375 0)
(0.104282 -0.979918 0)
(0.121349 -0.982266 0)
(0.137336 -0.983676 0)
(0.151938 -0.989242 0)
(0.164903 -0.992385 0)
(0.175901 -1.00197 0)
(0.184714 -1.00848 0)
(0.191023 -1.02337 0)
(0.194686 -1.03492 0)
(0.19544 -1.05759 0)
(0.192828 -1.07531 0)
(0.186455 -1.10887 0)
(0.176069 -1.13382 0)
(0.160777 -1.18091 0)
(0.139705 -1.21349 0)
(0.110421 -1.2771 0)
(0.0714797 -1.31992 0)
(0.0194073 -1.40286 0)
(0.00922625 -0.997935 0)
(0.0275921 -0.997784 0)
(0.0458556 -0.997536 0)
(0.0638719 -0.997197 0)
(0.0815131 -0.997485 0)
(0.0986052 -0.997123 0)
(0.114904 -0.998709 0)
(0.130156 -0.998742 0)
(0.143995 -1.00287 0)
(0.156149 -1.00411 0)
(0.166276 -1.01158 0)
(0.17402 -1.01561 0)
(0.178795 -1.02748 0)
(0.180106 -1.0359 0)
(0.177633 -1.05497 0)
(0.170968 -1.0687 0)
(0.159596 -1.09774 0)
(0.143282 -1.11821 0)
(0.121574 -1.15943 0)
(0.0941899 -1.18636 0)
(0.0597072 -1.24022 0)
(0.0173823 -1.2752 0)
(-0.0351028 -1.34257 0)
(0.00863751 -1.01595 0)
(0.0258302 -1.01562 0)
(0.0429475 -1.01537 0)
(0.0598949 -1.01462 0)
(0.0765693 -1.01466 0)
(0.0928547 -1.0136 0)
(0.108514 -1.01446 0)
(0.123277 -1.01326 0)
(0.136689 -1.01584 0)
(0.14841 -1.01523 0)
(0.158009 -1.02038 0)
(0.165066 -1.02178 0)
(0.168994 -1.03015 0)
(0.169073 -1.03471 0)
(0.164613 -1.04927 0)
(0.15519 -1.05831 0)
(0.140282 -1.0818 0)
(0.119471 -1.09692 0)
(0.0920093 -1.13138 0)
(0.0579705 -1.15276 0)
(0.016282 -1.19735 0)
(-0.0330111 -1.22607 0)
(-0.0912217 -1.28052 0)
(0.00765891 -1.03238 0)
(0.0229187 -1.03191 0)
(0.0381183 -1.03166 0)
(0.0532192 -1.03063 0)
(0.0681905 -1.03055 0)
(0.0829737 -1.02903 0)
(0.0973926 -1.02935 0)
(0.11123 -1.02721 0)
(0.124105 -1.0284 0)
(0.135653 -1.02614 0)
(0.145327 -1.02892 0)
(0.152524 -1.02764 0)
(0.156653 -1.03246 0)
(0.15694 -1.03285 0)
(0.152271 -1.04204 0)
(0.141617 -1.04543 0)
(0.124184 -1.06224 0)
(0.0996678 -1.07099 0)
(0.0677951 -1.09774 0)
(0.0287027 -1.11296 0)
(-0.0184812 -1.14789 0)
(-0.0746416 -1.16961 0)
(-0.140569 -1.21228 0)
(0.00675832 -1.04691 0)
(0.0202387 -1.04635 0)
(0.0336743 -1.04609 0)
(0.0470617 -1.04493 0)
(0.0603984 -1.0448 0)
(0.0736397 -1.04304 0)
(0.0866625 -1.043 0)
(0.0993028 -1.04024 0)
(0.111273 -1.04041 0)
(0.122324 -1.03691 0)
(0.131997 -1.03766 0)
(0.139701 -1.03394 0)
(0.144753 -1.03545 0)
(0.146318 -1.03178 0)
(0.143273 -1.03541 0)
(0.134408 -1.0325 0)
(0.118016 -1.04124 0)
(0.0928446 -1.04211 0)
(0.0580821 -1.0597 0)
(0.014517 -1.06799 0)
(-0.0374783 -1.09325 0)
(-0.098287 -1.10675 0)
(-0.169692 -1.13717 0)
(0.0055968 -1.05937 0)
(0.0167583 -1.05874 0)
(0.0278684 -1.05845 0)
(0.0389276 -1.05722 0)
(0.0499302 -1.05705 0)
(0.0608562 -1.05515 0)
(0.0716884 -1.05494 0)
(0.0824307 -1.05187 0)
(0.0929445 -1.05144 0)
(0.102948 -1.04711 0)
(0.112005 -1.04635 0)
(0.119586 -1.04067 0)
(0.125063 -1.03936 0)
(0.127638 -1.03209 0)
(0.126214 -1.03066 0)
(0.119644 -1.02179 0)
(0.106165 -1.02198 0)
(0.0839486 -1.0138 0)
(0.0509076 -1.01992 0)
(0.00630256 -1.0192 0)
(-0.0485583 -1.03469 0)
(-0.112011 -1.04048 0)
(-0.18466 -1.05872 0)
(0.00455793 -1.06961 0)
(0.013654 -1.06893 0)
(0.0227171 -1.06861 0)
(0.0317592 -1.06733 0)
(0.0407853 -1.06713 0)
(0.0498188 -1.0652 0)
(0.0588881 -1.06496 0)
(0.0680568 -1.06193 0)
(0.0772776 -1.06129 0)
(0.0863682 -1.05651 0)
(0.0949744 -1.05475 0)
(0.102598 -1.04761 0)
(0.108652 -1.04407 0)
(0.112438 -1.03383 0)
(0.11297 -1.02808 0)
(0.109269 -1.01411 0)
(0.0997334 -1.00658 0)
(0.0826235 -0.989716 0)
(0.0549369 -0.983019 0)
(0.013726 -0.969901 0)
(-0.0424909 -0.972392 0)
(-0.112095 -0.969085 0)
(-0.192537 -0.976293 0)
(0.00347097 -1.07771 0)
(0.0103933 -1.077 0)
(0.0172693 -1.07663 0)
(0.0241008 -1.07532 0)
(0.0309025 -1.0751 0)
(0.0377119 -1.0732 0)
(0.0445446 -1.07299 0)
(0.0514159 -1.07007 0)
(0.0583032 -1.06938 0)
(0.0652093 -1.06454 0)
(0.0720112 -1.06226 0)
(0.0783479 -1.05418 0)
(0.0836921 -1.04899 0)
(0.0874309 -1.03651 0)
(0.0887555 -1.02731 0)
(0.0866918 -1.00913 0)
(0.0797359 -0.995031 0)
(0.066375 -0.970686 0)
(0.0442558 -0.952034 0)
(0.0101931 -0.925272 0)
(-0.0394332 -0.91068 0)
(-0.106217 -0.893755 0)
(-0.187861 -0.888752 0)
(0.0025572 -1.0838 0)
(0.0076508 -1.08304 0)
(0.012693 -1.08262 0)
(0.0177011 -1.08129 0)
(0.0227044 -1.08105 0)
(0.0277294 -1.07919 0)
(0.0327857 -1.07899 0)
(0.0379188 -1.07618 0)
(0.0431409 -1.07549 0)
(0.0484826 -1.07078 0)
(0.0539449 -1.06838 0)
(0.0594463 -1.05999 0)
(0.0645895 -1.05376 0)
(0.0687914 -1.03976 0)
(0.0713497 -1.028 0)
(0.0716006 -1.00665 0)
(0.0684346 -0.987365 0)
(0.0606094 -0.957095 0)
(0.0462978 -0.929047 0)
(0.0227801 -0.890424 0)
(-0.014553 -0.858162 0)
(-0.0702513 -0.823202 0)
(-0.146662 -0.800479 0)
(0.00168092 -1.08808 0)
(0.00501956 -1.08728 0)
(0.00830216 -1.08679 0)
(0.0115352 -1.08544 0)
(0.0147233 -1.08517 0)
(0.0178766 -1.08333 0)
(0.0210101 -1.08312 0)
(0.0241542 -1.0804 0)
(0.0273061 -1.07972 0)
(0.0304671 -1.07513 0)
(0.0336167 -1.07271 0)
(0.0367539 -1.06437 0)
(0.0397839 -1.05762 0)
(0.04242 -1.0428 0)
(0.0441617 -1.02931 0)
(0.0444468 -1.00591 0)
(0.0423918 -0.982896 0)
(0.0368201 -0.948131 0)
(0.0259937 -0.912778 0)
(0.00798639 -0.86499 0)
(-0.0207951 -0.817179 0)
(-0.0656003 -0.763203 0)
(-0.131771 -0.717199 0)
(0.00106829 -1.09086 0)
(0.00317498 -1.09 0)
(0.00520684 -1.08944 0)
(0.00714639 -1.08802 0)
(0.00898043 -1.08767 0)
(0.0107246 -1.08579 0)
(0.0124038 -1.08553 0)
(0.0140646 -1.08285 0)
(0.0157414 -1.08215 0)
(0.0174652 -1.07764 0)
(0.0192208 -1.07517 0)
(0.0210077 -1.06689 0)
(0.0228237 -1.06 0)
(0.0246729 -1.04496 0)
(0.0262954 -1.03056 0)
(0.027239 -1.00592 0)
(0.0268297 -0.980432 0)
(0.0243973 -0.942577 0)
(0.0188381 -0.90189 0)
(0.00886695 -0.847785 0)
(-0.00762731 -0.788906 0)
(-0.0344391 -0.71952 0)
(-0.078406 -0.650206 0)
(0.000528518 -1.09248 0)
(0.00155347 -1.09156 0)
(0.00247818 -1.09088 0)
(0.00325424 -1.08934 0)
(0.00386323 -1.08884 0)
(0.0043178 -1.08686 0)
(0.00464042 -1.0865 0)
(0.00486024 -1.08379 0)
(0.00498677 -1.08304 0)
(0.00503002 -1.07854 0)
(0.00499321 -1.07601 0)
(0.00487784 -1.06775 0)
(0.00466135 -1.06076 0)
(0.00433687 -1.04574 0)
(0.00384642 -1.03093 0)
(0.00301111 -1.00567 0)
(0.00150712 -0.978774 0)
(-0.00107796 -0.939212 0)
(-0.00546306 -0.895281 0)
(-0.0126846 -0.837136 0)
(-0.0243741 -0.77125 0)
(-0.042448 -0.692085 0)
(-0.0716448 -0.604128 0)
(0.000241191 -1.09327 0)
(0.000675284 -1.09226 0)
(0.000978133 -1.09143 0)
(0.001105 -1.08971 0)
(0.0010423 -1.08903 0)
(0.000799023 -1.08689 0)
(0.000388069 -1.08639 0)
(-0.000168665 -1.08358 0)
(-0.000853122 -1.0827 0)
(-0.00164698 -1.07814 0)