/*--------------------------------*- C++ -*----------------------------------*\
| =========                 |                                                 |
| \\      /  F ield         | OpenFOAM: The Open Source CFD Toolbox           |
|  \\    /   O peration     | Version:  2012                                  |
|   \\  /    A nd           | Website:  www.openfoam.com                      |
|    \\/     M anipulation  |                                                 |
\*---------------------------------------------------------------------------*/
FoamFile
{
    version     2.0;
    format      ascii;
    class       volScalarField;
    location    "0.34";
    object      volumeFraction1;
}
// * * * * * * * * * * * * * * * * * * * * * * * * * * * * * * * * * * * * * //

dimensions      [0 0 0 0 0 0 0];


internalField   nonuniform List<scalar> 
2268
(
1
1
1
1
1
1
1
1
1
1
1
1
1
1
1
1
1
1
1
1
1
1
0.998904
1
1
1
1
1
1
1
1
1
1
1
1
1
1
1
1
1
1
1
1
1
1
0.999384
1
1
1
1
1
1
1
1
1
1
1
1
1
1
1
1
1
1
1
1
1
1
0.998929
1
1
1
1
1
1
1
1
1
1
1
1
1
1
1
1
1
1
1
1
1
1
0.99763
1
1
1
1
1
1
1
1
1
1
1
1
1
1
1
1
1
1
1
1
1
1
0.997619
1
1
1
1
1
1
1
1
1
1
1
1
1
1
1
1
1
1
1
1
1
1
0.997619
1
1
1
1
1
1
1
1
1
1
1
1
1
1
1
1
1
1
1
1
1
1
0.997619
1
1
1
1
1
1
1
1
1
1
1
1
1
1
1
1
1
1
1
1
1
1
0.998409
1.23511e-23
1.83503e-22
2.35761e-21
1.68165e-20
4.32647e-20
4.97753e-20
3.04327e-20
1.56177e-20
1.83257e-21
3.69578e-22
6.26476e-23
1.51936e-23
1.07293e-23
1.74086e-24
9.0566e-25
9.05659e-25
3.10764e-24
1.23653e-23
9.15197e-26
8.99835e-22
2.54866e-20
3.09754e-19
2.06807e-18
4.6244e-18
4.73942e-18
2.57181e-18
1.71738e-18
1.91499e-19
4.15844e-20
8.10749e-21
2.19846e-21
1.60569e-21
2.54781e-22
1.16838e-22
8.44996e-23
4.97991e-22
1.88734e-21
6.29669e-24
4.94108e-20
1.43331e-18
1.80578e-17
1.20418e-16
2.55285e-16
2.49937e-16
1.26878e-16
8.18429e-17
9.52228e-18
2.17236e-18
4.69035e-19
1.44987e-19
1.15807e-19
1.71169e-20
7.28525e-21
5.95816e-21
3.63399e-20
1.31994e-19
3.96623e-22
2.67319e-18
6.86501e-17
7.83111e-16
4.58832e-15
8.83337e-15
8.01433e-15
3.6314e-15
2.18231e-15
2.74509e-16
6.86921e-17
1.69718e-17
6.06244e-18
5.49985e-18
6.83029e-19
2.73722e-19
2.60995e-19
1.60289e-18
5.56015e-18
1.50597e-20
7.21148e-17
1.90646e-15
2.14247e-14
1.13674e-13
1.95539e-13
1.59734e-13
7.20907e-14
4.01943e-14
5.49756e-15
1.48804e-15
4.05274e-16
1.75415e-16
1.91448e-16
1.85597e-17
6.93981e-18
8.19118e-18
4.75583e-17
1.56123e-16
3.99058e-19
2.28716e-15
4.61588e-14
4.4239e-13
1.85618e-12
2.93979e-12
2.24615e-12
9.65898e-13
4.7745e-13
7.37492e-14
2.25679e-14
7.22171e-15
3.92902e-15
4.96333e-15
3.52465e-16
1.2636e-16
2.03311e-16
9.90337e-16
3.05428e-15
8.48885e-18
3.21612e-14
6.68737e-13
5.97213e-12
1.99371e-11
2.91116e-11
2.00222e-11
9.36695e-12
4.37694e-12
7.53146e-13
2.56226e-13
9.54201e-14
6.79679e-14
9.64175e-14
5.10409e-15
1.7867e-15
4.31023e-15
1.47689e-14
4.22147e-14
1.7235e-16
5.03296e-13
9.25137e-12
8.4927e-11
2.37862e-10
3.54402e-10
1.4025e-10
7.1169e-11
3.01395e-11
5.14062e-12
2.0375e-12
1.02504e-12
9.3953e-13
1.38413e-12
6.23202e-14
2.24307e-14
7.891e-14
1.56151e-13
4.09374e-13
3.52525e-15
1
1
1
1
1
1
1
1
1
1
1
1
1
1
1
1
1
1
1
1
1
1
0.999503
1
1
1
1
1
1
1
1
1
1
1
1
1
1
1
1
1
1
1
1
1
1
0.999453
0.999998
0.999998
0.999997
0.999996
0.999993
0.999987
0.999971
0.999931
0.99985
0.999675
0.999419
0.999007
0.998587
0.998076
0.998105
0.998319
1
1
1
1
1
1
0.999901
0.989964
0.989362
0.98825
0.985878
0.981474
0.973297
0.960132
0.940287
0.916469
0.884772
0.853044
0.816105
0.786685
0.754856
0.7492
0.745937
0.774677
0.829981
0.906136
0.998936
1
1
1
0.557186
0.546036
0.525287
0.488756
0.44662
0.399335
0.348575
0.294428
0.246482
0.196106
0.15861
0.11913
0.0964151
0.0714248
0.0654228
0.0619733
0.0766761
0.112037
0.18579
0.314295
0.540737
0.768312
0.948651
2.60385e-37
2.61658e-37
-4.86099e-36
-9.73615e-35
1.27259e-32
1.75797e-31
-3.79462e-31
-1.94687e-30
-5.09712e-24
9.3682e-29
-1.2638e-28
4.05705e-27
7.9286e-27
1.70063e-27
2.05831e-27
1.8279e-28
2.17904e-27
0.000148557
0.00121998
0.00538687
0.0206369
0.100886
0.26575
2.54252e-20
1.26634e-18
1.03259e-16
4.82161e-15
1.11597e-13
2.05898e-12
8.82229e-12
8.30517e-12
6.3512e-31
8.82321e-10
6.56158e-09
2.54866e-08
3.10395e-08
2.11531e-08
6.91623e-09
1.87013e-08
1.60431e-08
1.82539e-08
4.91716e-08
7.6119e-07
4.38844e-05
0.00085761
0.00549374
1.17137e-18
8.88767e-17
3.74848e-15
9.84854e-14
1.58196e-12
2.12649e-11
4.40281e-11
2.89845e-11
-1.53589e-30
1.29471e-08
6.58167e-07
1.58916e-06
9.99249e-07
8.00885e-08
2.66833e-09
2.98854e-09
5.74922e-07
5.24295e-07
4.51594e-24
6.18287e-24
3.08858e-08
8.69632e-08
1.62216e-05
3.81025e-18
2.76728e-16
1.06574e-14
2.41968e-13
3.88001e-12
4.17472e-11
5.71414e-11
3.3816e-11
-1.30602e-30
5.57379e-07
2.48568e-06
2.48532e-06
1.55565e-06
3.21768e-08
2.66832e-09
2.17166e-09
9.41928e-07
1.94829e-05
2.19637e-05
1.29645e-05
8.85408e-07
8.69639e-08
5.33576e-07
5.53485e-18
3.94084e-16
1.46157e-14
3.13757e-13
5.02763e-12
4.80268e-11
5.62724e-11
3.46228e-11
5.39978e-30
1.77736e-06
2.48532e-06
2.17746e-06
3.85301e-07
1.6003e-08
8.16291e-08
2.22742e-09
1.11363e-06
2.77296e-05
4.04996e-05
4.0486e-05
4.04996e-05
3.41909e-05
7.88808e-06
6.03698e-18
4.23758e-16
1.5398e-14
3.21552e-13
4.90495e-12
4.45066e-11
3.87301e-11
1.02466e-10
3.37644e-13
6.24312e-07
1.21089e-06
1.30711e-11
1.30688e-11
5.77773e-09
1.41505e-07
2.84878e-07
9.95479e-09
1.23133e-11
6.78037e-06
1.02112e-05
1.06879e-05
9.02507e-06
3.75104e-06
5.52048e-18
3.7793e-16
1.31738e-14
2.57799e-13
2.81326e-12
2.78123e-11
8.75891e-12
6.83227e-10
2.68743e-08
1.16808e-11
1.16638e-11
2.53725e-11
4.87355e-10
2.92184e-08
5.15564e-10
5.14424e-10
1.23133e-11
1.23134e-11
3.00681e-16
3.08716e-16
2.79494e-10
3.45218e-09
3.42219e-08
3.10904e-18
2.03502e-16
6.70976e-15
1.23025e-13
1.28019e-12
1.08879e-11
5.49173e-12
1.52556e-09
8.6986e-10
1.7668e-10
1.79804e-11
6.67683e-10
1.64159e-09
3.33873e-09
2.17501e-09
9.24702e-10
3.74019e-10
1.22401e-10
3.90655e-11
1.35947e-11
7.1451e-13
7.1543e-13
3.52613e-12
1.2143e-18
7.80062e-17
2.52471e-15
4.54519e-14
4.83101e-13
3.90531e-12
2.14149e-12
1.47718e-09
1.07792e-09
3.98397e-10
5.03056e-11
8.39934e-10
2.17148e-09
1.98208e-09
2.13188e-09
1.32932e-09
4.4585e-10
1.48961e-10
5.12849e-11
1.79159e-11
6.47401e-12
2.36263e-12
9.03783e-13
3.73253e-19
2.357e-17
7.53562e-16
1.35072e-14
1.49158e-13
1.28362e-12
1.40246e-12
6.33414e-10
6.43276e-10
3.14902e-10
5.70937e-11
1.05235e-10
9.1554e-10
1.3029e-09
1.16982e-09
6.79141e-10
2.48248e-10
8.36763e-11
2.81593e-11
9.37841e-12
3.20737e-12
1.06953e-12
4.16645e-13
8.88114e-20
5.60969e-18
1.80246e-16
3.30192e-15
3.90281e-14
3.65428e-13
3.91073e-12
3.37491e-11
4.36762e-11
2.80113e-11
1.26018e-11
4.33233e-11
8.17229e-11
1.39103e-10
1.43183e-10
1.1843e-10
6.10326e-11
2.13886e-11
7.20118e-12
2.34105e-12
7.49905e-13
2.26003e-13
1.74544e-13
1.58736e-20
1.01871e-18
3.34983e-17
6.46337e-16
8.44578e-15
9.1865e-14
2.48649e-12
3.92641e-13
1.97633e-13
4.12117e-13
3.19133e-12
1.89956e-11
2.83731e-11
2.69833e-11
2.44165e-11
1.91419e-11
1.04599e-11
3.79257e-12
1.26403e-12
3.96725e-13
1.1219e-13
5.16861e-14
1.32623e-13
2.03165e-21
1.37292e-19
4.79244e-18
1.01671e-16
1.50592e-15
1.62031e-14
3.9384e-13
4.27463e-13
1.97633e-13
1.82528e-13
1.15223e-12
5.24381e-12
6.61437e-12
5.97921e-12
4.63346e-12
2.82008e-12
1.25023e-12
4.53715e-13
1.48273e-13
4.3067e-14
1.26564e-14
2.2944e-14
2.55101e-13
1.72413e-22
1.29986e-20
5.07568e-19
1.22767e-17
2.0411e-16
2.24145e-15
1.70709e-14
1.75369e-14
1.5866e-14
3.51176e-14
2.28277e-13
7.13915e-13
7.5629e-13
6.54971e-13
5.0345e-13
3.25303e-13
1.46963e-13
5.04967e-14
1.51201e-14
3.52921e-15
2.83472e-15
3.03404e-14
5.92207e-13
8.59802e-24
8.02028e-22
3.74676e-20
1.04663e-18
1.87598e-17
1.97184e-16
9.11508e-16
7.7691e-16
1.25361e-15
4.9903e-15
2.807e-14
4.62917e-14
3.67314e-14
3.60099e-14
3.6419e-14
2.9931e-14
1.57152e-14
4.7532e-15
1.20557e-15
3.12506e-16
1.73938e-15
5.22966e-14
9.64507e-13
2.12077e-25
2.62836e-23
1.51278e-21
4.74198e-20
8.69497e-19
8.16022e-18
2.68998e-17
3.83083e-17
1.29702e-16
5.58562e-16
1.80187e-15
1.59141e-15
6.05288e-16
1.20767e-15
2.05217e-15
1.76453e-15
9.12157e-16
2.49764e-16
4.95909e-17
6.22632e-17
2.25274e-15
6.73389e-14
1.13509e-12
2.58534e-27
1.95775e-25
7.90398e-24
2.14751e-22
4.65874e-21
6.53827e-20
4.03427e-19
2.10387e-18
1.1023e-17
4.23893e-17
7.50121e-17
6.7181e-17
3.39324e-17
5.49264e-17
7.96429e-17
6.49377e-17
2.92332e-17
6.86659e-18
1.91083e-18
4.35018e-17
2.47971e-15
7.10399e-14
1.07582e-12
1.79997e-28
1.45703e-26
6.07753e-25
1.66385e-23
3.64069e-22
5.38107e-21
3.28328e-20
1.4986e-19
6.54313e-19
1.89969e-18
2.30488e-18
2.33231e-18
1.78535e-18
5.90924e-19
4.29114e-19
3.61578e-19
1.96514e-19
4.86659e-20
3.57479e-19
3.80109e-17
2.18354e-15
5.06062e-14
5.3011e-13
6.18736e-30
5.16348e-28
2.0936e-26
5.10561e-25
8.54796e-24
9.92452e-23
8.60915e-22
5.29698e-21
2.37435e-20
6.29436e-20
9.2116e-20
1.17389e-19
8.8362e-20
2.98985e-20
5.2515e-21
7.1449e-22
1.91833e-22
3.64848e-21
1.8966e-19
1.75142e-17
9.43999e-16
1.88527e-14
2.0456e-13
2.9565e-35
1.68102e-33
4.52835e-32
7.1116e-31
6.97028e-30
2.29171e-29
4.10598e-29
4.03958e-28
2.55187e-27
1.01327e-26
2.33085e-26
2.66598e-26
1.92364e-26
7.0799e-27
1.75513e-26
9.85344e-25
5.17358e-23
2.15195e-21
8.80294e-20
5.68496e-18
2.7549e-16
5.79589e-15
9.22518e-14
2.36138e-39
1.80166e-37
6.97876e-36
1.77515e-34
3.55161e-33
6.62369e-32
2.48247e-30
4.84454e-29
3.78013e-28
1.61465e-27
3.48982e-27
3.8325e-27
2.39625e-27
5.93907e-28
6.43033e-27
4.82605e-25
2.72067e-23
1.15973e-21
3.97373e-20
1.57401e-18
6.22108e-17
1.94802e-15
6.46289e-14
1.41952e-42
1.04571e-40
3.76497e-39
8.39493e-38
1.31245e-36
1.48574e-35
1.28244e-34
8.37003e-34
4.29481e-33
1.79219e-32
6.97533e-32
7.96459e-31
5.74146e-31
2.18674e-29
2.4116e-27
2.05195e-25
1.24679e-23
5.5647e-22
1.82644e-20
5.42671e-19
1.92657e-17
1.16429e-15
5.61176e-14
4.50372e-48
4.25625e-46
2.0093e-44
6.05411e-43
1.32157e-41
2.1873e-40
2.89127e-39
3.08262e-38
2.71321e-37
1.96788e-36
1.22788e-35
2.40653e-34
3.79171e-32
6.24495e-30
7.81691e-28
7.39871e-26
4.85818e-24
2.28513e-22
7.7363e-21
2.55319e-19
1.35602e-17
1.01899e-15
5.12574e-14
1.61415e-51
1.63709e-49
8.32331e-48
2.7366e-46
6.63061e-45
1.25831e-43
1.9785e-42
2.6253e-41
2.97004e-40
3.128e-39
1.32089e-37
3.19713e-35
7.46522e-33
1.44418e-30
2.05552e-28
2.18814e-26
1.55353e-24
7.7239e-23
2.87779e-21
1.48656e-19
1.49976e-17
1.19952e-15
5.43238e-14
7.18339e-58
8.9169e-56
6.18591e-54
3.09952e-52
1.23041e-50
3.92303e-49
1.02439e-47
3.27892e-46
6.64577e-44
2.89903e-41
1.14505e-38
3.98434e-36
1.10844e-33
2.54491e-31
4.17337e-29
5.04587e-27
3.87622e-25
2.09807e-23
9.97754e-22
1.05248e-19
1.90312e-17
1.51916e-15
5.97946e-14
4.47222e-63
9.04879e-61
9.60051e-59
6.84694e-57
3.72847e-55
2.31008e-53
6.64145e-51
4.32695e-48
2.71544e-45
1.52798e-42
7.5369e-40
3.22306e-37
1.11035e-34
3.08273e-32
6.05434e-30
8.36077e-28
7.01907e-26
4.46963e-24
2.9878e-22
5.43691e-20
7.61487e-18
4.98383e-16
1.73696e-14
2.9999e-67
8.69903e-65
1.28739e-62
1.28833e-60
1.35829e-58
5.74906e-56
5.44092e-53
5.14498e-50
4.4287e-47
3.44603e-44
2.3687e-41
1.36764e-38
6.461e-36
2.26833e-33
5.79109e-31
9.32612e-29
8.9991e-27
7.40896e-25
5.7237e-23
3.11003e-21
1.09659e-19
2.486e-18
3.71125e-17
8.84547e-72
3.73569e-69
8.80143e-67
2.07395e-64
1.35534e-61
1.84589e-58
2.5687e-55
3.36189e-52
4.04636e-49
4.39585e-46
4.15837e-43
3.21903e-40
1.97105e-37
8.82936e-35
2.85385e-32
5.73221e-30
6.93925e-28
8.02389e-26
8.45085e-24
5.68486e-22
2.25351e-20
5.88546e-19
1.13034e-17
1.52211e-75
8.03471e-73
2.44472e-70
8.2105e-68
7.78465e-65
1.40051e-61
2.7513e-58
5.20128e-55
9.16304e-52
1.50556e-48
2.07167e-45
2.49596e-42
2.34056e-39
1.65429e-36
8.0518e-34
2.26772e-31
3.60957e-29
5.49983e-27
7.9727e-25
6.95774e-23
3.17795e-21
9.04899e-20
1.79053e-18
8.39573e-80
6.26194e-77
2.73935e-74
1.25127e-71
1.49974e-68
3.89361e-65
1.12874e-61
3.37132e-58
9.00279e-55
2.21681e-51
4.61875e-48
8.57195e-45
1.13874e-41
1.22028e-38
8.07648e-36
3.48899e-33
7.85469e-31
1.59388e-28
3.49603e-26
4.85019e-24
3.15361e-22
1.13813e-20
2.71423e-19
2.88281e-84
3.03039e-81
1.88126e-78
1.10303e-75
1.45539e-72
4.98207e-69
2.07104e-65
8.95691e-62
3.58784e-58
1.35226e-54
4.44944e-51
1.25212e-47
2.6657e-44
4.73591e-41
5.0207e-38
3.61787e-35
1.19786e-32
3.3224e-30
1.143e-27
2.41478e-25
2.14314e-23
9.90636e-22
2.88127e-20
2.54012e-89
4.26687e-86
4.1528e-83
3.30967e-80
3.73589e-77
1.4732e-73
9.3716e-70
6.20562e-66
4.13915e-62
2.41134e-58
1.24137e-54
5.39041e-51
1.98587e-47
5.55748e-44
9.7038e-41
1.15788e-37
6.32067e-35
2.22565e-32
9.92523e-30
3.45533e-27
5.78982e-25
4.16242e-23
1.69771e-21
1.49582e-94
3.91441e-91
5.95191e-88
7.10827e-85
9.82222e-82
4.4159e-78
3.99603e-74
3.85661e-70
3.72915e-66
3.19966e-62
2.61683e-58
1.85524e-54
1.16502e-50
6.04408e-47
1.71559e-43
3.48658e-40
2.70182e-37
1.42248e-34
1.30523e-31
7.5327e-29
1.62037e-26
1.56821e-24
8.48064e-23
1.46987e-100
7.32262e-97
2.00693e-93
4.11694e-90
9.74048e-87
9.12449e-83
2.42661e-78
3.33115e-74
3.44449e-70
3.23999e-66
3.39794e-62
4.09805e-58
3.77991e-54
3.14201e-50
1.3634e-46
3.28886e-43
3.46674e-40
2.62165e-37
3.16971e-34
2.40564e-31
8.93262e-29
1.46523e-26
1.30509e-24
2.05565e-104
1.04193e-99
3.94968e-95
8.04322e-91
9.82984e-87
1.88436e-82
1.14779e-77
1.47123e-73
9.46192e-70
3.68403e-66
1.11403e-62
3.82207e-59
1.41511e-55
3.69257e-52
9.60846e-49
3.76953e-45
8.83509e-42
1.07847e-38
7.74267e-36
3.42456e-33
9.68616e-31
1.75331e-28
2.06237e-26
1.90951e-103
1.6949e-98
5.83073e-94
1.08631e-89
1.22444e-85
1.34961e-81
3.84408e-77
5.44863e-73
3.60165e-69
1.41108e-65
3.73569e-62
7.10428e-59
1.01132e-55
1.20724e-52
1.18261e-49
9.44857e-47
6.26806e-44
3.45312e-41
1.57831e-38
5.82648e-36
1.71802e-33
3.86323e-31
6.44757e-29
1.55566e-102
1.22098e-97
3.92319e-93
6.88929e-89
7.42023e-85
5.23458e-81
2.56184e-77
9.58735e-74
2.76187e-70
6.05184e-67
1.03622e-63
1.42444e-60
1.6013e-57
1.50009e-54
1.17964e-51
7.85947e-49
4.43709e-46
2.13122e-43
8.64973e-41
2.94562e-38
8.3338e-36
1.93207e-33
3.59617e-31
0.998108
0.985379
0.410593
3.68914e-16
0.998684
0.999757
0.92482
0.58325
0.999855
0.999757
0.997798
0.985475
1
0.999945
0.999964
0.999876
1
1
1
1
0.426414
0.561667
0.688755
0.781626
0.0134473
0.0262602
0.0568376
0.0994645
4.58473e-05
0.000176361
0.000743822
0.00159685
1.68434e-06
4.3597e-06
8.35719e-06
9.02838e-06
3.69444e-08
1.18229e-08
1.13892e-08
7.49145e-09
8.31591e-08
4.46492e-10
2.72947e-10
2.72945e-10
2.22465e-08
4.92372e-09
6.48902e-10
2.37593e-10
5.97177e-11
1.04545e-10
5.60495e-11
1.92441e-11
3.50884e-13
2.65097e-13
2.09869e-13
2.04852e-13
2.73521e-13
2.61384e-13
2.74795e-13
3.24792e-13
1.95243e-13
2.52346e-13
4.23208e-13
7.84624e-13
2.81655e-13
5.23778e-13
1.40239e-12
2.75758e-12
6.55736e-13
1.36901e-12
6.67353e-12
6.28916e-12
1.61388e-12
3.72878e-12
1.57037e-11
1.51273e-11
2.71547e-12
6.57475e-12
2.17591e-11
2.34534e-11
3.24064e-12
7.7218e-12
2.29207e-11
2.68044e-11
3.08549e-12
6.25495e-12
1.98689e-11
1.56068e-11
1.66043e-12
5.06631e-12
2.16464e-11
1.55801e-11
1.04105e-12
5.72325e-12
3.41345e-11
2.8853e-11
1.00152e-12
9.06897e-12
4.12829e-11
4.04924e-11
1.12694e-12
9.99218e-12
4.0254e-11
4.02541e-11
1.06128e-12
8.13412e-12
3.1068e-11
7.32384e-11
8.27997e-13
6.37546e-12
3.12563e-11
8.87921e-11
9.1732e-13
7.24335e-12
3.90583e-11
1.17528e-10
9.43208e-13
7.23171e-12
3.8571e-11
1.03709e-10
2.80629e-13
2.37106e-12
1.44202e-11
3.34389e-11
2.67393e-16
5.32998e-16
5.30832e-16
5.3083e-16
1.2781e-16
8.90985e-16
4.08863e-15
1.48271e-14
1.9602e-17
1.24888e-16
6.79649e-16
3.31477e-15
3.48755e-18
2.59867e-17
1.66604e-16
9.58707e-16
4.37803e-19
3.83713e-18
2.91389e-17
1.99393e-16
3.30423e-20
3.60604e-19
3.37179e-18
2.81343e-17
2.09281e-21
2.80497e-20
3.14877e-19
3.07633e-18
4.92814e-23
9.75309e-22
1.57001e-20
2.12637e-19
1.1195e-24
3.15849e-23
7.14594e-22
1.32348e-20
5.60666e-27
2.62499e-25
1.02152e-23
3.32524e-22
3.9075e-29
2.41128e-27
1.32167e-25
6.43939e-24
3.68914e-16
3.68914e-16
2.95551e-10
7.98575e-10
8.13099e-10
7.20011e-10
6.30117e-10
3.4371e-10
4.73931e-11
1.95218e-11
1.25567e-11
1.45693e-11
2.24225e-11
1.2558e-12
4.54925e-13
1.78849e-12
1.69559e-12
3.98989e-12
9.71071e-14
0.134001
0.0135531
3.66932e-16
3.66879e-16
3.66932e-16
3.2265e-11
9.53674e-10
7.08089e-10
2.21434e-10
2.02829e-10
2.82468e-10
3.28725e-10
4.84235e-10
4.63786e-11
8.78498e-12
4.15474e-11
1.397e-11
2.88173e-11
2.32851e-12
0.819816
0.630818
0.331182
0.148116
0.0892849
3.66635e-16
3.66515e-16
3.66659e-16
3.66586e-16
3.85737e-10
2.09621e-09
7.34448e-09
1.50257e-08
2.4542e-08
1.28221e-09
3.47861e-09
3.11252e-11
1.20834e-10
3.32085e-11
0.998239
0.992214
0.948656
0.849032
0.770983
0.590662
0.299981
0.168364
0.0623587
2.16633e-10
2.16629e-10
2.16633e-10
1.65609e-08
4.655e-07
9.22019e-07
1.71729e-07
3.1125e-11
3.49392e-09
1.29767e-10
1
1
1
0.999459
0.997941
0.990241
0.939337
0.871692
0.758839
0.492925
0.23474
0.00363633
3.83399e-11
3.83138e-11
3.35042e-06
1.27348e-06
3.7916e-06
1.47576e-07
1.2977e-10
0.888439
0.958483
0.9897
1
1
1
1
1
1
0.986408
0.913519
0.695044
0.356137
0.0222705
9.0941e-07
9.09409e-07
4.01295e-05
3.69726e-06
4.50053e-07
0.1963
0.316922
0.405264
0.506735
0.608221
0.705638
0.788271
0.848101
0.918658
0.99996
0.99996
0.99996
0.961069
0.706844
0.268492
9.09409e-07
9.09407e-07
0.000133744
3.81483e-05
0.00262969
0.00516087
0.00907879
0.0152397
0.0304577
0.0621514
0.112297
0.173805
0.262392
0.457421
0.692577
0.917472
0.999912
0.999912
0.884038
0.407429
0.0295889
0.00159055
0.000548044
7.06782e-06
4.13061e-06
3.696e-06
6.95135e-06
2.13718e-05
9.72111e-05
0.000396694
0.00123688
0.00396646
0.0141294
0.0658535
0.234318
0.606218
0.974436
0.974435
0.887106
0.341391
0.0212331
0.0018866
3.40348e-09
4.08696e-09
1.45045e-08
7.19868e-08
9.42027e-08
7.01891e-08
2.63278e-08
4.62675e-08
6.24329e-07
1.04531e-05
0.000272283
0.00555066
0.0310799
0.422749
0.906608
0.92294
0.698072
0.125383
0.00764739
3.04512e-10
1.78681e-10
1.81772e-11
1.49997e-08
8.75173e-08
6.89225e-08
1.10374e-08
8.90358e-10
2.9473e-10
2.94741e-10
4.5574e-07
4.61286e-06
0.000455053
1.00192e-10
0.550416
0.922939
0.892
0.354299
0.0316578
1.83173e-10
1.07868e-10
1.81784e-11
1.92906e-09
2.15512e-08
2.93498e-08
1.32894e-08
1.62234e-09
2.72885e-10
6.05679e-10
9.18832e-09
6.20966e-08
6.72161e-08
1.00192e-10
0.109031
0.764431
0.891997
0.645651
0.103557
1.16302e-11
1.18498e-11
1.81783e-11
1.82474e-10
7.97352e-10
1.85554e-09
3.01236e-09
1.15375e-09
2.72889e-10
1.20674e-09
1.40631e-09
2.0511e-09
1.15287e-08
2.7423e-09
3.97543e-11
0.539782
0.882091
0.755542
0.143599
3.41936e-13
8.51521e-13
2.63812e-12
1.15087e-11
4.83308e-11
3.05553e-10
1.69301e-09
2.47712e-09
1.58699e-09
1.71129e-09
1.41794e-09
7.07866e-10
2.51948e-09
1.75562e-09
3.94733e-11
0.282594
0.864319
0.757885
0.145465
1.32877e-12
5.49209e-12
1.04375e-11
1.16238e-11
1.48922e-11
1.46331e-11
1.01992e-09
6.52577e-09
9.37126e-09
6.45876e-09
2.23241e-09
7.07883e-10
8.29487e-10
6.07351e-10
3.97543e-11
0.101346
0.800773
0.800942
0.168992
3.17806e-12
1.48639e-10
3.70015e-10
3.06243e-10
1.46331e-11
1.4633e-11
3.02558e-10
4.3779e-09
9.6725e-09
9.67223e-09
4.27438e-09
8.31675e-10
4.38902e-10
5.66067e-10
3.94733e-11
0.0383621
0.653958
0.775288
0.209679
2.75753e-12
1.85409e-08
1.12555e-07
9.25298e-08
3.87782e-08
8.90586e-09
1.546e-09
1.75747e-09
4.2615e-09
6.72077e-09
3.75632e-09
7.75135e-10
3.58375e-10
1.25551e-09
3.97543e-11
0.146608
0.569008
0.457573
0.15957
2.75752e-12
2.42765e-07
4.07965e-07
4.03229e-07
2.74327e-07
1.85591e-09
4.39163e-10
4.0769e-10
4.07705e-10
1.25904e-09
1.07012e-09
2.95499e-10
1.59699e-10
5.26836e-10
3.94733e-11
0.384627
0.684888
0.340621
0.0561244
2.76885e-12
3.12442e-07
3.17334e-07
1.05595e-08
4.5106e-06
3.64284e-06
2.95106e-11
2.95105e-11
7.76662e-09
3.94733e-11
4.13924e-11
3.94733e-11
4.13924e-11
3.94733e-11
0.0226769
0.58542
0.684884
0.4911
0.0490043
2.76885e-12
5.12536e-08
1.05639e-08
1.05636e-08
1.5978e-05
0.0001306
0.000136842
3.75575e-05
8.56818e-07
7.96317e-08
2.2176e-07
4.46209e-07
1.32522e-07
4.13924e-11
0.00691205
0.40562
0.684888
0.526817
0.0490102
1.19717e-11
1.45613e-08
1.47256e-11
5.58933e-05
0.000164259
0.000164259
0.000164259
9.12871e-05
8.60608e-07
1.37885e-07
7.61378e-07
7.60939e-07
2.71306e-07
3.94733e-11
0.00398305
0.0721489
0.224441
0.257839
0.0498381
1.19728e-11
1.97963e-06
1.47478e-11
0.000136042
0.000164259
0.000164259
9.46965e-05
2.47363e-05
2.9879e-07
3.56552e-08
2.05036e-07
5.53217e-07
4.67473e-08
4.13924e-11
0.00208003
0.00218507
0.00287988
0.0053304
0.038757
1.19694e-11
9.616e-06
1.03049e-05
0.000124576
0.000164208
7.4023e-05
3.32688e-05
1.47927e-05
4.69661e-09
4.69009e-09
4.69661e-09
2.81344e-08
5.05817e-09
0.00025269
0.000674682
0.000407486
7.03605e-05
3.07676e-11
0.017402
1.214e-11
8.43249e-06
2.72509e-05
0.000121942
5.39577e-05
4.30707e-06
4.44395e-05
6.15285e-05
4.90232e-05
1.85484e-05
3.62703e-06
5.05817e-09
5.05776e-09
0.000253454
0.000153439
3.65899e-05
5.62056e-06
3.07683e-11
0.000775506
1.21434e-11
9.4609e-07
3.1951e-05
5.37736e-05
1.3029e-05
2.27327e-06
4.31624e-05
6.17924e-05
4.27417e-05
2.5217e-05
1.70588e-05
9.1093e-06
2.59457e-05
3.1284e-05
5.97362e-06
9.68995e-07
2.05457e-07
1.82541e-08
2.71383e-06
7.81092e-09
9.16852e-07
2.27693e-05
3.07105e-07
4.01313e-07
7.64788e-07
6.19421e-06
1.0427e-05
3.00517e-06
4.29453e-06
9.03343e-06
1.28834e-05
1.11997e-05
6.35839e-07
2.4407e-08
6.03295e-09
1.0363e-09
5.51992e-09
2.29754e-09
1.0434e-09
2.3502e-07
6.91559e-07
9.09308e-08
7.79886e-08
6.04634e-08
5.00127e-09
1.61091e-09
1.09671e-09
8.6199e-09
2.12044e-07
3.60295e-06
1.02513e-07
5.28885e-08
1.2793e-07
3.86253e-08
6.94076e-10
7.47022e-10
5.26032e-11
1.33739e-10
1.33739e-10
3.51746e-08
1.11458e-05
5.09368e-09
2.85024e-11
2.89757e-11
2.85024e-11
3.85608e-11
3.85582e-11
3.85595e-11
3.86904e-11
3.90805e-11
0.000339415
3.41098e-05
5.98164e-09
2.05064e-10
1.78441e-10
3.78792e-11
2.11105e-10
7.01859e-10
6.48373e-07
1.11223e-05
1.90905e-05
2.64549e-06
8.39327e-09
1.73061e-09
1.96993e-11
0.0397107
0.266058
0.154616
0.0158173
0.000330342
4.7953e-07
6.19765e-10
1.44388e-10
7.84733e-11
3.48804e-11
1.67808e-10
4.39353e-10
6.48522e-08
2.40334e-06
2.03282e-05
2.0469e-05
3.67741e-06
1.34623e-08
2.03355e-11
0.344597
0.47156
0.471739
0.117796
0.000640702
1.02052e-08
4.36191e-10
1.28258e-10
7.93129e-11
3.49922e-11
3.90241e-11
1.99005e-11
2.11213e-14
2.14329e-14
2.78485e-06
2.19478e-05
9.34555e-06
2.96949e-09
1.96993e-11
0.315091
0.471739
0.451109
0.0985913
0.000506154
5.62348e-09
3.15846e-09
3.05578e-10
7.55068e-11
3.40758e-11
5.30832e-16
2.78867e-13
3.72791e-12
3.40139e-09
4.18382e-06
2.1946e-05
6.71446e-06
2.96985e-09
0.00209804
0.0719414
0.218946
0.140198
0.0268372
0.000352806
4.23814e-09
2.48287e-08
3.28263e-11
3.28244e-11
3.07675e-11
6.49181e-14
2.98911e-13
1.18721e-12
3.05603e-12
1.80378e-12
1.88058e-12
9.50083e-06
7.32039e-05
0.00105038
0.00106717
0.00248872
0.00160232
0.00131994
8.29812e-05
8.09449e-10
2.49487e-07
7.39183e-07
3.07675e-11
3.07675e-11
2.27042e-14
1.91411e-13
1.54471e-12
9.12809e-12
1.00798e-10
7.53432e-08
1.05521e-05
4.95517e-05
1.2435e-06
4.22477e-08
1.4859e-07
7.73847e-08
5.72596e-07
4.43529e-06
8.90901e-11
2.4201e-07
9.84959e-06
1.1803e-05
3.14303e-06
7.70682e-15
6.95539e-14
4.98116e-13
2.55725e-12
4.91164e-12
4.90572e-12
4.90571e-12
1.30468e-07
2.16497e-11
4.49314e-12
4.4931e-12
2.61925e-11
2.48104e-10
7.57571e-10
8.90947e-11
4.41009e-08
1.08598e-05
2.91734e-05
2.91272e-05
1.92992e-15
2.06859e-14
1.74198e-13
1.11968e-12
5.24483e-12
1.07711e-11
1.2979e-11
1.28367e-11
8.85784e-12
4.93343e-12
3.36915e-12
3.85249e-12
1.10633e-11
4.02476e-11
2.60823e-10
3.32038e-08
2.64748e-06
1.97151e-05
2.86435e-05
3.35395e-16
4.38311e-15
4.46861e-14
3.47684e-13
1.9914e-12
7.82873e-12
1.32635e-11
1.44395e-11
1.35331e-11
8.82691e-12
4.14651e-12
2.53326e-12
4.55539e-12
3.06531e-11
3.01911e-10
8.15618e-09
1.16898e-07
1.11746e-06
4.90142e-06
4.2474e-17
6.3439e-16
7.43687e-15
6.86329e-14
4.90747e-13
2.67619e-12
8.80649e-12
1.29876e-11
1.35977e-11
1.15713e-11
6.02156e-12
2.34162e-12
1.43024e-12
7.66078e-12
8.72034e-11
4.74937e-10
4.6734e-10
1.43951e-09
2.52937e-09
3.99678e-18
7.61053e-17
1.09608e-15
1.21374e-14
1.03213e-13
6.71935e-13
3.19358e-12
8.35865e-12
1.09889e-11
1.09319e-11
6.88807e-12
2.57458e-12
7.45929e-13
9.20779e-13
9.03966e-12
3.65675e-11
1.77298e-11
6.31641e-12
1.82487e-12
3.32293e-19
7.91462e-18
1.37433e-16
1.81419e-15
1.81514e-14
1.36263e-13
7.26548e-13
2.76139e-12
5.80256e-12
7.31806e-12
6.18129e-12
2.49138e-12
5.76096e-13
1.18525e-13
8.02099e-13
3.25905e-12
2.43703e-12
7.89786e-13
1.80735e-13
1.49111e-20
5.80647e-19
1.44749e-17
2.47485e-16
2.92687e-15
2.50164e-14
1.51092e-13
6.57772e-13
1.82164e-12
2.88271e-12
3.35727e-12
1.76341e-12
3.92668e-13
3.11703e-14
6.19952e-14
2.69769e-13
2.68836e-13
8.50011e-14
1.90042e-14
4.48082e-22
2.84367e-20
1.051e-18
2.33345e-17
3.26985e-16
3.2392e-15
2.23428e-14
1.11852e-13
3.72989e-13
6.93858e-13
8.64925e-13
6.28113e-13
1.45515e-13
9.89002e-15
4.17425e-15
1.91174e-14
2.29555e-14
7.31472e-15
1.74326e-15
)
;

boundaryField
{
    leftWall
    {
        type            zeroGradient;
    }
    rightWall
    {
        type            zeroGradient;
    }
    lowerWall
    {
        type            zeroGradient;
    }
    atmosphere
    {
        type            inletOutlet;
        inletValue      uniform 0;
        value           nonuniform List<scalar> 
46
(
0
0
0
0
0
0
0
0
0
0
0
0
0
0
0
0
0
0
0
0
0
0
0
0
0
0
0
0
0
1.051e-18
2.33345e-17
3.26985e-16
3.2392e-15
2.23428e-14
1.11852e-13
3.72989e-13
6.93858e-13
8.64925e-13
6.28113e-13
1.45515e-13
9.89002e-15
4.17425e-15
1.91174e-14
2.29555e-14
7.31472e-15
1.74326e-15
)
;
    }
    defaultFaces
    {
        type            empty;
    }
}


// ************************************************************************* //
