/*--------------------------------*- C++ -*----------------------------------*\
| =========                 |                                                 |
| \\      /  F ield         | OpenFOAM: The Open Source CFD Toolbox           |
|  \\    /   O peration     | Version:  2012                                  |
|   \\  /    A nd           | Website:  www.openfoam.com                      |
|    \\/     M anipulation  |                                                 |
\*---------------------------------------------------------------------------*/
FoamFile
{
    version     2.0;
    format      ascii;
    class       volScalarField;
    location    "0.25";
    object      alpha.water;
}
// * * * * * * * * * * * * * * * * * * * * * * * * * * * * * * * * * * * * * //

dimensions      [0 0 0 0 0 0 0];


internalField   nonuniform List<scalar> 
2268
(
1
1
1
1
1
1
1
1
1
1
1
1
1
1
1
1
1
1
1
1
0.956528
0.797032
0.796729
1
1
1
1
1
1
1
1
1
1
1
1
1
1
1
1
1
1
1
1
0.995536
0.962156
0.876197
1
1
1
1
1
1
1
1
1
1
1
1
1
1
1
1
1
1
1
1
1
0.99992
0.967811
1
1
1
1
1
1
1
1
1
1
1
1
1
1
1
1
1
1
1
1
1
0.999989
0.964681
1
1
1
1
1
1
1
1
1
1
1
1
1
1
1
1
1
1
1
1
1
0.999997
0.964473
1
1
1
1
1
1
1
1
1
1
1
1
1
1
1
1
1
1
1
1
1
1
0.964526
1
1
1
1
1
1
1
1
1
1
1
1
1
1
1
1
1
1
1
1
1
1
0.964999
1
1
1
1
1
1
1
1
1
1
1
1
1
1
1
1
1
1
1
1
1
1
0.987642
8.03674e-14
3.24688e-14
5.46773e-16
9.2617e-19
2.46849e-20
6.79885e-22
1.90886e-23
5.3671e-25
1.51511e-26
5.71716e-28
2.74614e-29
8.25536e-31
2.03774e-32
4.46664e-34
8.30852e-36
1.22982e-37
1.31143e-39
7.93041e-42
4.30069e-42
1.62855e-12
1.51957e-12
4.16243e-14
3.63614e-17
9.2617e-19
2.46849e-20
6.79885e-22
1.90886e-23
5.3671e-25
3.85057e-26
2.75754e-27
9.91036e-29
2.51787e-30
5.70601e-32
1.09292e-33
1.61335e-35
1.57547e-37
6.34276e-40
4.30069e-42
1.12863e-10
3.02611e-11
5.01837e-13
2.67799e-15
6.88375e-17
1.89343e-18
5.45986e-20
1.6169e-21
4.82928e-23
1.78457e-24
1.16036e-25
4.67672e-27
1.19795e-28
2.48616e-30
4.31661e-32
5.39266e-34
4.34482e-36
2.31733e-38
4.7607e-40
4.50879e-09
9.42917e-10
8.00853e-12
1.05651e-13
3.05859e-15
9.19221e-17
2.80841e-18
8.06375e-20
2.49038e-21
9.33168e-23
4.35921e-24
1.76143e-25
4.43191e-27
8.62595e-29
1.32e-30
1.61744e-32
1.7031e-34
9.23225e-37
2.24323e-38
1.03267e-07
2.47165e-08
2.20529e-10
2.70705e-12
8.18456e-14
4.90076e-15
1.50764e-16
4.322e-18
1.23134e-19
3.80292e-21
1.37465e-22
5.6819e-24
1.40813e-25
2.55031e-27
3.57814e-29
5.46791e-31
5.90133e-33
3.22689e-35
8.8866e-37
1.84806e-06
9.69661e-07
3.21842e-08
5.82673e-11
1.75195e-12
8.92874e-14
4.78197e-15
1.39099e-16
2.68653e-18
7.36408e-20
2.92268e-21
1.66472e-22
4.29562e-24
6.85031e-26
9.90951e-28
1.57579e-29
1.72996e-31
9.63213e-34
3.10166e-35
2.85396e-05
3.99053e-05
1.46726e-06
9.6061e-10
2.84854e-11
1.09099e-12
5.62492e-14
4.79677e-15
6.10124e-17
1.23416e-18
4.32703e-20
6.12613e-21
1.80534e-22
2.28897e-24
3.04903e-26
5.07724e-28
5.76004e-30
3.26466e-32
9.24641e-34
0.000118195
0.000144531
1.99153e-06
1.39604e-08
4.67796e-10
1.83862e-11
8.03301e-13
3.34846e-14
1.22556e-15
3.96675e-17
1.23416e-18
3.23473e-19
1.06897e-20
1.05732e-22
1.494e-24
2.72089e-26
3.37364e-28
1.95897e-30
3.13181e-32
1
1
1
1
1
1
1
1
1
1
1
1
1
1
1
1
1
1
1
1
1
1
1
1
1
1
1
1
1
1
1
1
1
1
1
1
1
0.999999
0.999999
1
0.999992
1
1
1
1
1
1
1
1
1
1
1
1
1
1
0.999999
0.999999
0.999998
0.999996
0.99999
0.999976
0.999963
0.999967
0.999989
0.999998
1
1
1
0.999998
1
1
0.999999
0.999999
0.999999
0.999999
0.999998
0.999996
0.999994
0.999988
0.999972
0.99994
0.99988
0.999691
0.999352
0.986897
0.943496
0.8864
0.855389
0.898601
0.999992
0.999998
0.999985
1
0.99999
0.999986
0.999988
0.999986
0.999982
0.999971
0.999945
0.999897
0.999809
0.999581
0.999026
0.99183
0.90909
0.708027
0.440451
0.231151
0.131489
0.0769146
0.0998384
0.174356
0.339548
0.580586
0.99999
0.999856
0.999845
0.999854
0.999829
0.999769
0.999624
0.999301
0.998675
0.991085
0.932642
0.76488
0.4913
0.144407
0.000253652
8.32578e-05
6.45656e-05
0.000168931
0.000397928
0.000538539
0.000954011
0.00151369
0.0169752
0.999804
0.998458
0.998429
0.998408
0.998056
0.99078
0.959473
0.883221
0.738034
0.491858
0.245209
0.00694205
4.42403e-05
3.99782e-05
3.68251e-05
3.57527e-05
4.47863e-05
9.61452e-05
0.000539855
0.001227
0.00114283
0.000589286
0.000429479
0.957109
0.765786
0.754826
0.721209
0.636147
0.490631
0.325962
0.171836
0.0284898
9.76465e-08
2.26889e-07
2.9333e-06
1.85495e-05
3.47327e-05
3.57497e-05
3.57527e-05
3.57527e-05
0.00151716
0.00263612
0.00263612
0.0025725
0.000436699
8.30876e-05
0.309321
0.0889624
0.0727807
0.0505103
0.0109478
6.56383e-14
6.48236e-13
-2.83769e-13
-2.56143e-09
-1.54057e-10
1.22539e-07
2.3015e-07
2.96093e-06
2.20465e-05
3.46781e-05
3.57518e-05
0.000112328
0.00255439
0.00261224
0.00263612
0.00166869
9.56743e-05
1.10888e-05
-7.94507e-20
-5.01738e-58
7.65375e-21
8.10685e-19
7.68638e-17
5.19802e-15
8.85431e-14
7.47053e-13
1.50622e-12
1.95404e-12
-2.36219e-09
8.32289e-08
0.00015086
0.000411384
0.000128648
3.70137e-05
0.000414683
0.00255463
0.00258107
0.00182374
0.000125987
4.82508e-06
1.10131e-06
-2.10923e-19
4.21362e-20
3.48513e-18
1.39737e-16
6.00093e-15
2.79141e-13
7.04689e-12
6.8534e-12
2.29167e-12
3.11965e-12
-1.89149e-09
0.000143852
0.000547512
0.000546984
0.000317734
5.00273e-05
0.000697185
0.00238549
0.00215604
0.000252379
4.06059e-06
5.04307e-07
8.4702e-08
2.1948e-21
7.29392e-19
7.57938e-17
6.12469e-15
3.64091e-13
6.11187e-12
3.24853e-11
1.65823e-11
3.48051e-12
5.05921e-12
-1.51519e-09
0.000533217
0.000546852
0.000546984
0.000218359
7.56349e-05
0.00160276
0.00221464
0.000603101
2.08437e-06
1.8736e-07
3.23074e-08
1.53188e-08
1.14557e-20
2.01763e-18
2.74961e-16
3.15304e-14
1.97099e-12
2.07678e-11
4.64628e-11
2.10785e-11
5.09846e-12
8.32842e-12
2.01449e-05
0.000252855
0.000545539
0.000392665
0.000243673
0.00120557
0.0016542
0.000777224
1.86114e-07
1.11515e-08
1.06544e-09
2.56438e-10
9.29992e-09
2.09588e-20
2.95008e-18
4.63582e-16
7.30522e-14
4.65895e-12
3.50414e-11
4.91296e-11
2.80603e-11
1.27001e-11
2.22414e-11
1.51483e-05
1.86879e-06
0.000434965
0.000764645
0.000831044
0.00124529
0.000401839
-3.09926e-10
-4.20356e-10
3.6615e-11
9.23341e-11
1.33553e-10
8.66147e-09
2.49118e-20
3.20726e-18
5.32129e-16
1.05782e-13
6.76864e-12
4.07168e-11
4.91296e-11
4.25511e-11
3.50456e-11
6.72749e-11
2.04315e-09
7.54426e-08
1.60977e-05
0.000570795
0.000546147
0.000264266
7.44482e-12
7.78571e-12
1.29998e-11
3.24713e-11
8.36971e-11
9.24181e-11
7.71837e-09
2.31491e-20
2.25097e-18
4.17715e-16
1.15553e-13
7.35935e-12
3.9726e-11
4.82011e-11
5.29288e-11
1.75007e-10
1.45164e-10
3.54827e-10
2.67644e-10
4.25672e-07
3.92864e-12
3.3111e-05
5.48222e-13
7.11055e-12
3.42542e-11
1.22873e-10
2.04261e-10
2.99273e-10
1.33603e-10
7.06513e-09
1.05686e-20
6.12877e-19
1.17028e-16
8.57646e-14
5.13267e-12
2.35056e-11
3.40417e-11
5.6272e-11
3.70294e-10
8.44105e-10
3.55198e-10
1.04243e-10
9.82887e-11
2.65766e-12
5.48222e-13
4.06666e-13
1.13004e-11
3.92887e-11
6.69275e-11
1.21879e-10
2.44704e-10
1.90365e-10
8.07117e-09
1.38692e-21
5.58062e-20
7.45851e-18
2.66484e-14
1.46013e-12
7.41721e-12
1.64062e-11
4.28639e-11
3.47547e-10
1.27011e-09
1.32607e-09
1.23289e-09
6.01676e-10
3.99391e-11
1.88046e-12
3.71379e-13
4.4503e-12
1.57001e-11
3.99057e-11
9.11429e-11
2.25436e-10
3.49901e-10
5.62558e-09
-1.16133e-21
7.14611e-22
1.50735e-18
3.87186e-15
1.96174e-13
1.27154e-12
5.07224e-12
3.05473e-11
1.13005e-10
4.78472e-10
1.25589e-09
1.24212e-09
5.72056e-10
5.16957e-11
2.19315e-12
5.77971e-14
1.19667e-12
6.44933e-12
2.22579e-11
6.62847e-11
1.89589e-10
5.21363e-10
3.65584e-09
-2.83966e-21
1.35324e-22
3.19402e-18
7.24722e-16
1.32294e-14
1.01913e-13
1.406e-12
1.58379e-11
3.90451e-11
6.76189e-11
1.83771e-10
2.49862e-10
3.92457e-11
8.91534e-12
5.37245e-14
1.31949e-14
2.39015e-13
2.0223e-12
1.15166e-11
4.77787e-11
1.53398e-10
5.15377e-10
4.57699e-09
-4.30729e-21
-1.4258e-37
3.06376e-18
1.1216e-16
4.33256e-16
9.13149e-15
4.79105e-13
4.82965e-12
1.4306e-11
1.92908e-11
6.74362e-12
1.15057e-12
4.12195e-13
1.19708e-13
5.33376e-14
5.64001e-15
6.13145e-14
8.37311e-13
6.79021e-12
3.51791e-11
1.29843e-10
5.12905e-10
5.19846e-09
-3.66765e-21
-9.05072e-21
-1.65128e-34
2.55368e-21
1.44681e-18
3.85046e-15
1.60827e-13
1.23422e-12
4.09516e-12
9.03518e-12
1.52129e-11
9.19905e-12
1.23988e-12
8.7948e-14
4.76622e-15
3.22822e-15
2.15588e-14
3.89884e-13
4.07941e-12
2.57128e-11
1.10912e-10
4.76351e-10
5.41991e-09
-1.00448e-21
-2.31461e-21
-3.09123e-36
7.20736e-22
1.81048e-19
4.31189e-16
3.56924e-14
3.90587e-13
1.23368e-12
1.89307e-12
2.85057e-12
8.26903e-13
1.75148e-13
1.6295e-14
2.2121e-15
1.681e-15
1.01082e-14
2.02025e-13
2.45787e-12
1.81663e-11
8.75254e-11
3.58566e-10
3.45665e-09
-1.54234e-22
-5.01674e-22
-2.20269e-38
3.79122e-23
4.62772e-21
1.1942e-18
1.60373e-15
6.29473e-14
3.47823e-13
6.60113e-13
6.91515e-13
4.07502e-13
1.0502e-13
8.18874e-15
5.83305e-16
6.85025e-16
4.55341e-15
9.34454e-14
1.35421e-12
1.16339e-11
5.91026e-11
2.44351e-10
2.12543e-09
-1.78959e-46
-9.16273e-44
9.93209e-29
3.67843e-25
3.63598e-23
2.76071e-21
4.96756e-18
2.14987e-15
2.31261e-14
6.03698e-14
7.19643e-14
3.17434e-14
1.63443e-14
1.79204e-15
1.56331e-16
1.93255e-16
1.75337e-15
3.547e-14
6.312e-13
6.6874e-12
3.62858e-11
1.74673e-10
1.5842e-09
4.61056e-36
8.6928e-34
2.19428e-31
1.61121e-27
1.56462e-25
1.18389e-23
1.66513e-20
8.40813e-18
1.01476e-16
2.58509e-16
3.21199e-16
2.51457e-16
6.70953e-17
1.37107e-17
6.11251e-18
2.50023e-17
6.28034e-16
1.32071e-14
2.49651e-13
2.92952e-12
1.86596e-11
1.40557e-10
1.27032e-09
2.86973e-39
1.74539e-36
2.65407e-34
7.92562e-31
1.009e-28
7.40233e-27
2.96058e-23
3.042e-20
6.89551e-19
2.79331e-18
4.96117e-18
5.7354e-18
4.2539e-18
1.58161e-18
1.74867e-18
7.95644e-18
1.74017e-16
3.72553e-15
7.4616e-14
1.04971e-12
1.01889e-11
1.04905e-10
9.27154e-10
3.68796e-42
-3.95994e-40
1.03714e-37
2.35906e-33
2.40987e-31
1.87094e-29
1.20105e-27
8.49426e-25
8.51652e-22
2.17455e-20
9.09823e-20
1.56241e-19
1.70081e-19
1.08519e-19
1.95873e-19
2.34346e-18
5.2046e-17
1.06533e-15
1.95448e-14
3.20652e-13
4.75877e-12
5.04707e-11
4.41707e-10
-9.12323e-43
-9.28027e-40
0
5.93761e-36
7.84903e-34
7.17029e-32
5.16475e-30
4.52797e-28
1.17906e-24
1.00102e-22
5.49418e-22
9.42948e-22
7.79062e-22
1.50973e-21
2.22631e-20
5.88909e-19
1.37808e-17
2.86718e-16
5.30078e-15
8.67394e-14
1.24584e-12
1.44496e-11
1.6599e-10
-2.44975e-42
-4.35665e-40
-2.62186e-38
3.39541e-53
-3.4769e-50
-4.45043e-48
0
5.37986e-29
1.68464e-26
1.03832e-25
8.07183e-27
2.66654e-26
2.55264e-24
1.17456e-22
3.67178e-21
9.79982e-20
2.31169e-18
4.83291e-17
8.93958e-16
1.45909e-14
2.08322e-13
2.6028e-12
4.12966e-11
-6.38092e-42
-1.58498e-39
-1.85794e-37
-1.36238e-35
-6.94546e-34
-2.57181e-32
-6.98369e-31
-1.35594e-29
-1.7002e-28
-7.77759e-28
-4.54485e-36
8.07183e-27
3.62607e-25
1.34699e-23
4.16456e-22
1.12802e-20
2.69955e-19
5.7086e-18
1.06591e-16
1.75257e-15
2.34768e-14
6.043e-13
8.80855e-12
-1.24178e-63
-1.8226e-59
-9.06588e-56
-1.19252e-52
-1.69366e-49
-9.28051e-47
-2.63437e-44
-4.99201e-42
-7.01426e-40
-7.74474e-38
1.34804e-29
6.5762e-28
2.79754e-26
1.02508e-24
3.2347e-23
8.97886e-22
2.19919e-20
4.73615e-19
8.94805e-18
1.47347e-16
1.9732e-15
9.15303e-14
1.14546e-12
7.19933e-52
3.77046e-50
2.32277e-47
7.10174e-45
1.42729e-42
2.11419e-40
2.45342e-38
2.31461e-36
1.81892e-34
1.21064e-32
7.02644e-31
3.4729e-29
1.45328e-27
5.6035e-26
1.84196e-24
5.3035e-23
1.33609e-21
2.76906e-20
4.99539e-19
7.95024e-18
1.10662e-16
3.78984e-15
1.12114e-13
6.82724e-54
7.26741e-52
4.70888e-49
1.51936e-46
3.22287e-44
5.03848e-42
6.17065e-40
6.1433e-38
5.09366e-36
3.57179e-34
2.1488e-32
-3.85933e-31
5.06586e-29
1.87944e-27
6.11151e-26
1.7443e-24
4.37425e-23
9.64725e-22
1.87297e-20
3.20417e-19
4.83632e-18
1.95881e-16
7.25446e-15
1.86141e-56
-1.40678e-54
-1.25501e-51
-3.90811e-49
-9.49127e-47
-1.98252e-44
-2.83884e-42
-3.10778e-40
-2.72665e-38
-1.97132e-36
-4.51204e-33
1.63199e-32
7.6041e-31
3.09836e-29
1.10652e-27
3.46924e-26
9.56145e-25
2.31942e-23
4.95906e-22
9.35952e-21
1.56217e-19
8.21858e-18
3.67836e-16
-4.69471e-57
-4.60495e-54
-1.89137e-51
-5.0028e-49
-9.65904e-47
-1.44904e-44
-1.74817e-42
-1.73778e-40
-1.44609e-38
-1.02009e-36
2.15602e-36
1.30291e-34
6.85953e-33
3.15734e-31
1.27342e-29
4.51053e-28
1.40542e-26
3.85623e-25
9.33511e-24
1.99922e-22
3.79469e-21
2.64706e-19
1.43208e-17
3.1148e-62
3.96736e-59
2.2045e-56
7.7694e-54
1.98774e-51
3.9465e-49
6.32478e-47
8.39077e-45
9.37396e-43
8.92645e-41
7.30929e-39
5.18163e-37
3.19349e-35
1.70284e-33
7.99431e-32
3.32977e-30
1.21127e-28
3.88689e-27
1.11198e-25
2.82604e-24
6.01116e-23
6.55833e-21
4.34764e-19
3.43922e-66
6.3125e-63
4.56496e-60
2.04568e-57
6.5944e-55
1.64196e-52
3.28965e-50
5.44282e-48
7.52724e-46
8.70649e-44
8.61362e-42
7.21164e-40
3.54277e-38
1.81451e-36
1.67824e-34
8.5414e-33
3.92449e-31
1.7694e-29
6.88869e-28
2.28812e-26
5.87284e-25
1.17459e-22
9.57722e-21
3.06871e-71
9.54433e-68
7.26079e-65
2.32911e-62
1.18254e-60
-2.03034e-57
-7.89516e-55
-5.62758e-52
-3.21501e-49
-7.27743e-47
-1.03846e-44
-3.46854e-42
-4.27549e-40
-4.36078e-39
-1.82084e-37
-3.93722e-36
1.55504e-34
2.37955e-32
1.63294e-30
8.24505e-29
2.61452e-27
1.42299e-24
1.37717e-22
1.35472e-78
-6.7186e-71
-1.49251e-67
-1.40829e-64
-8.311e-62
-3.35408e-59
-1.04077e-56
-2.58534e-54
-5.27716e-52
-9.00683e-50
-4.25929e-47
-6.46583e-45
-3.90744e-44
-3.41614e-42
-2.50303e-40
-1.49702e-38
-6.95502e-37
-2.11584e-35
2.11375e-35
5.72557e-32
1.78357e-30
1.14923e-26
1.07604e-24
-1.00923e-79
-7.58593e-76
-1.24836e-72
-1.1847e-69
-7.89214e-67
-4.0081e-64
-1.6239e-61
-5.39996e-59
-1.50345e-56
-3.54405e-54
-3.92126e-52
-5.11078e-51
-8.29152e-49
-1.23296e-46
-1.53868e-44
-1.60479e-42
-1.37256e-40
-9.34212e-39
-4.53028e-37
-8.31226e-36
-2.25267e-33
7.26362e-29
2.80293e-27
-1.36923e-98
-4.07127e-93
-5.4643e-89
-2.14441e-85
-5.83283e-82
-1.23717e-78
-2.03996e-75
-2.71515e-72
-2.9766e-69
-2.72015e-66
-2.79877e-63
-1.37858e-60
-7.70026e-58
-3.61997e-55
-1.46922e-52
-4.76583e-50
-1.3076e-47
-2.81793e-45
-4.2986e-43
-3.02342e-41
-1.76809e-38
1.02431e-33
1.10443e-31
0.999719
0.999921
0.571748
0.0171038
0.999971
0.999957
0.970221
0.92696
0.999984
0.999964
0.999971
0.999244
0.999973
0.999957
0.999885
0.999633
0.822263
0.999887
0.999635
0.998992
0.0497256
0.117839
0.197788
0.288995
0.000490082
0.000625836
0.000994332
0.00138393
3.61772e-05
7.7144e-05
4.41048e-05
0.000159723
6.73493e-06
-1.08643e-05
1.03398e-05
2.24259e-06
5.51157e-07
2.93455e-07
-2.27251e-06
-7.50553e-07
2.74579e-08
7.54128e-09
-1.50573e-07
-3.35835e-08
1.6172e-08
1.62695e-08
1.36705e-08
1.73117e-08
1.57709e-08
1.52273e-08
1.36614e-08
1.72411e-08
1.64732e-08
1.21836e-08
1.22425e-08
1.34777e-08
1.25512e-08
1.02185e-08
1.08542e-08
1.22425e-08
7.347e-09
7.80176e-09
9.31506e-09
2.30821e-07
7.15915e-09
7.17729e-09
1.36984e-08
3.47851e-07
4.87956e-09
6.50887e-09
3.64904e-08
2.47974e-07
3.97223e-09
1.10256e-07
1.44597e-07
6.60097e-06
4.63032e-09
1.88272e-07
1.83672e-06
2.06127e-06
5.14698e-09
3.40416e-07
2.06532e-06
3.81895e-06
8.91404e-09
3.40141e-07
1.74575e-06
3.93462e-06
5.38334e-09
2.48835e-07
1.30158e-06
2.57147e-06
4.422e-09
1.52298e-07
8.90591e-07
2.54236e-06
5.72083e-09
1.28656e-07
6.76209e-07
2.08542e-06
6.9917e-09
1.02216e-07
4.971e-07
1.63482e-06
7.13981e-09
7.33002e-08
3.59283e-07
1.28823e-06
4.05173e-09
3.78983e-08
1.70608e-07
6.54607e-07
1.31808e-09
7.74287e-09
2.99808e-08
1.09122e-07
2.28143e-10
9.47853e-10
3.70092e-09
1.36803e-08
2.2567e-11
9.2941e-11
3.56553e-10
1.36841e-09
2.64759e-12
9.00766e-12
3.33653e-11
1.09945e-10
5.76261e-13
4.22767e-12
7.76387e-12
9.60454e-12
3.78827e-14
4.77739e-13
9.4351e-13
7.66427e-13
1.94302e-15
2.88225e-14
6.41114e-14
4.91613e-14
7.68306e-17
1.33592e-15
3.35646e-15
2.7165e-15
2.34285e-18
4.9892e-17
1.45294e-16
1.24841e-16
5.06282e-20
1.40435e-18
4.90111e-18
4.49539e-18
6.69498e-22
2.6563e-20
1.22516e-19
1.20976e-19
3.87692e-24
2.77771e-22
1.89005e-21
1.92701e-21
5.56063e-28
1.05836e-24
1.11036e-23
5.09834e-24
-7.94322e-45
5.63871e-33
1.39412e-30
-2.43744e-27
0.0272723
9.58175e-05
2.83887e-06
3.92828e-07
1.38187e-08
4.43786e-10
2.08159e-11
1.48565e-12
6.71597e-14
5.60796e-15
4.67047e-17
1.89581e-17
1.04086e-18
1.98725e-20
2.44504e-22
1.82442e-24
2.94389e-26
2.53273e-28
1.95376e-30
0.566609
0.000258174
0.000142878
7.23183e-06
1.71366e-07
1.27199e-08
4.63241e-10
3.68588e-11
3.51474e-12
1.04647e-13
3.17452e-15
1.62413e-15
1.4271e-16
3.24824e-18
4.49201e-20
1.9101e-22
3.15106e-24
3.95332e-26
2.47412e-28
0.996523
0.823042
0.11349
0.00011994
3.2696e-06
2.47606e-07
1.69326e-08
2.13115e-09
2.34204e-10
1.53327e-11
3.85227e-13
1.46201e-14
1.00589e-14
4.64867e-16
4.21601e-18
3.24213e-20
6.17572e-22
8.46626e-24
5.80618e-26
0.998992
0.996523
0.890266
0.232888
0.000338043
7.17441e-06
1.01172e-06
1.30984e-07
1.31132e-08
1.02616e-09
5.14047e-11
1.26722e-12
5.0856e-14
1.04685e-14
2.7182e-16
4.3852e-18
9.537e-20
1.36951e-21
1.08927e-23
0.996523
0.993872
0.992343
0.910232
0.260214
0.000155148
6.67809e-05
6.48375e-06
5.33748e-07
4.20471e-08
2.40643e-09
8.87422e-11
3.48548e-12
1.45835e-13
6.57294e-15
3.97004e-16
9.67865e-18
1.21906e-19
1.34647e-21
0.607335
0.992343
0.983358
0.968219
0.832929
0.185071
0.00120543
0.000120306
1.49871e-05
1.20197e-06
6.92483e-08
3.55995e-09
1.87996e-10
8.65871e-12
3.77129e-13
1.6945e-14
6.40646e-16
5.35224e-18
9.86602e-20
0.0184111
0.129264
0.716968
0.954819
0.91453
0.588523
0.0644403
0.00166709
0.000171103
1.61014e-05
1.26075e-06
8.82282e-08
5.74382e-09
3.3068e-10
1.62365e-11
6.11019e-13
1.99165e-14
1.39129e-16
5.39643e-18
0.000342571
0.000798624
0.0490744
0.67516
0.881454
0.833337
0.26114
0.00684252
0.000930031
0.000105675
1.08759e-05
9.91336e-07
7.69269e-08
4.91009e-09
2.47006e-10
9.26204e-12
2.73704e-13
1.901e-15
1.97721e-16
3.57495e-05
8.37922e-05
0.000412844
0.163079
0.773359
0.777382
0.476285
0.0445209
0.00245606
0.000359517
4.44407e-05
4.66315e-06
4.07923e-07
2.89604e-08
1.60656e-09
6.58495e-11
1.89051e-12
1.7308e-14
3.59914e-15
2.80838e-06
9.43117e-06
3.06544e-05
0.000412902
0.499868
0.739334
0.595062
0.0928986
0.0042517
0.000725403
0.000103369
1.2208e-05
1.18087e-06
9.1655e-08
5.52433e-09
2.46851e-10
7.52097e-12
1.27542e-13
3.14352e-14
1.3778e-07
9.15751e-07
2.79593e-06
3.06589e-05
0.21286
0.700085
0.618589
0.170992
0.00593202
0.00110255
0.000172684
2.22137e-05
2.31546e-06
1.92403e-07
1.23729e-08
5.86207e-10
1.87201e-11
4.35576e-13
1.47231e-13
2.70808e-08
1.05101e-07
3.57832e-07
2.79626e-06
0.0780921
0.57643
0.570545
0.251591
0.0093157
0.00132183
0.000219454
2.97954e-05
3.26516e-06
2.84727e-07
1.91508e-08
9.43649e-10
3.12628e-11
8.99618e-13
4.38002e-13
1.91765e-08
5.75268e-08
1.35543e-07
3.57831e-07
0.0175822
0.484258
0.538329
0.246404
0.008001
0.00133269
0.000226794
3.15152e-05
3.53843e-06
3.16745e-07
2.19573e-08
1.11325e-09
3.77314e-11
1.36121e-12
9.00001e-13
1.70383e-06
2.50787e-06
6.92902e-07
7.5695e-07
0.0192269
0.424596
0.511079
0.199688
0.00566737
0.00114163
0.000193224
2.6795e-05
3.02548e-06
2.73986e-07
1.92905e-08
9.9931e-10
3.43485e-11
1.22503e-12
8.09721e-13
3.08722e-06
9.13857e-06
4.68887e-06
1.20608e-06
0.0321142
0.397432
0.461153
0.13818
0.00428772
0.000842487
0.000138281
1.87921e-05
2.10528e-06
1.90794e-07
1.35242e-08
7.08853e-10
2.51397e-11
9.88533e-13
4.54701e-13
6.03753e-07
4.11984e-06
5.55087e-06
3.10355e-06
0.1231
0.401794
0.372576
0.0853784
0.00298351
0.000549975
8.52276e-05
1.11787e-05
1.22918e-06
1.10583e-07
7.8451e-09
4.14763e-10
1.83059e-11
2.1018e-12
2.23353e-13
8.61451e-06
7.69413e-06
6.22907e-06
5.70129e-06
0.264468
0.3848
0.275834
0.0342467
0.00174031
0.000297658
4.69575e-05
6.07688e-06
6.37663e-07
5.47651e-08
3.86515e-09
2.2393e-10
1.32183e-11
2.28634e-12
1.03969e-13
3.64422e-05
1.5857e-05
0.0025582
0.0784919
0.294548
0.310757
0.103275
0.00825441
0.000808403
0.000167826
2.44011e-05
2.6077e-06
2.82943e-07
2.50525e-08
1.79155e-09
1.16211e-10
1.80319e-11
1.6841e-12
4.19994e-14
3.73867e-05
1.26101e-05
0.0602131
0.193198
0.225293
0.0836134
0.00729377
0.00233578
0.000476264
9.69213e-05
1.2435e-05
1.26257e-06
1.16202e-07
9.45778e-09
7.53243e-10
9.26794e-11
1.63686e-11
7.93071e-13
1.59964e-14
3.75771e-05
1.69942e-05
0.0117942
0.213936
0.233079
0.0223568
0.00270085
0.000526324
8.75393e-05
1.93851e-05
3.39351e-06
4.65308e-07
5.00111e-08
4.36903e-09
4.46462e-10
7.97774e-11
8.62552e-12
3.1662e-13
5.74176e-15
4.02441e-06
1.41098e-05
1.88485e-05
0.201838
0.21513
0.11336
0.00359943
0.000161832
2.04136e-05
3.15472e-06
5.77565e-07
9.01297e-08
1.28677e-08
1.66484e-09
2.93174e-10
4.89003e-11
3.24997e-12
1.18124e-13
2.07538e-15
1.69634e-05
8.53578e-05
1.85459e-05
0.156062
0.21513
0.214537
0.00666093
8.07299e-05
5.05514e-06
7.98059e-07
1.45976e-07
2.35673e-08
3.08721e-09
4.54307e-10
1.4776e-10
1.91888e-11
1.13818e-12
4.17053e-14
7.44885e-16
2.21159e-05
8.81438e-05
2.57576e-05
0.0169729
0.214537
0.209501
0.106169
0.00256348
4.46829e-05
2.43701e-06
1.56724e-07
1.03695e-08
1.05067e-09
1.17132e-10
3.08243e-11
5.35905e-12
3.69936e-13
1.40121e-14
2.5419e-16
9.1182e-06
3.34889e-05
0.000369931
0.000388015
0.191565
0.205058
0.205058
0.0248201
0.000414783
4.2095e-05
2.64131e-06
1.30578e-07
4.05315e-09
1.32198e-10
6.03072e-12
5.7748e-13
1.00078e-13
4.55302e-15
8.1864e-17
5.75127e-06
1.14111e-05
0.00020172
0.00200757
0.0454753
0.205058
0.195179
0.103843
0.00268203
0.000122472
9.04576e-06
4.13762e-07
1.26512e-08
2.6288e-10
5.02245e-12
2.48233e-13
4.01326e-14
1.45589e-15
2.50911e-17
5.94728e-06
1.7571e-05
8.53924e-05
0.00124531
0.00209746
0.108193
0.149263
0.0968034
0.00414951
0.00011553
7.94226e-06
3.43561e-07
9.81182e-09
1.95948e-10
1.32584e-11
1.15457e-12
3.0379e-14
5.12248e-16
7.37743e-18
4.88996e-06
1.42817e-05
6.66078e-05
0.00118005
0.00604243
0.00942036
0.027514
0.0159785
0.00570383
0.000396666
3.87316e-05
2.38126e-06
9.14021e-08
2.42168e-09
4.82932e-11
1.2124e-12
1.50694e-14
1.71708e-16
1.94719e-18
2.25325e-06
8.75444e-06
4.41194e-05
0.000701894
0.00206253
0.0018369
0.00275326
0.00131392
0.00123506
0.000199856
1.59288e-05
9.39434e-07
3.58116e-08
9.43766e-10
2.44874e-11
3.8733e-13
3.72562e-15
4.23097e-17
4.59986e-19
3.74399e-07
2.12055e-06
1.00856e-05
9.52917e-05
0.000507968
0.000632341
0.000665497
0.000416165
5.79781e-05
4.45107e-06
1.68679e-07
2.26422e-09
-8.55324e-11
-4.80017e-12
1.85646e-12
5.58825e-14
7.11695e-16
9.60645e-18
1.09283e-19
4.84155e-08
2.87441e-07
1.45803e-06
1.00338e-05
0.000123133
0.000158285
0.000137896
0.00010782
1.63703e-05
1.22026e-06
4.50992e-08
-1.19476e-10
-4.00717e-11
-8.41711e-13
6.01237e-13
1.34232e-14
1.71671e-16
2.35749e-18
2.62499e-20
5.15518e-09
3.26882e-08
1.76042e-07
1.40118e-06
1.738e-05
2.54261e-05
2.50714e-05
2.23118e-05
4.18304e-06
3.17858e-07
1.1678e-08
-1.13458e-11
-1.272e-11
-4.43978e-14
1.87188e-13
3.21157e-15
4.11261e-17
5.71019e-19
6.1444e-21
4.61383e-10
3.03347e-09
1.86143e-08
1.80233e-07
1.64288e-06
3.20829e-06
4.09447e-06
3.99329e-06
9.63965e-07
7.6496e-08
3.07742e-09
1.53709e-11
-2.08095e-12
4.86126e-13
4.5007e-14
7.34983e-16
9.53342e-18
1.351e-19
1.40436e-21
3.80524e-11
2.81122e-10
2.09477e-09
1.82149e-08
1.19331e-07
3.53562e-07
6.13312e-07
6.51735e-07
2.02993e-07
1.68826e-08
7.78428e-10
8.55291e-12
4.85621e-14
3.65487e-13
9.9568e-15
1.63616e-16
2.15567e-18
3.12543e-20
3.13213e-22
3.45875e-12
2.82461e-11
2.22906e-10
1.51975e-09
8.78953e-09
3.56415e-08
8.55327e-08
9.86305e-08
3.80539e-08
3.47638e-09
1.77115e-10
4.6115e-12
7.55082e-13
9.31228e-14
2.1281e-15
3.5564e-17
4.76162e-19
7.06506e-21
6.81448e-23
6.80696e-13
7.02097e-12
4.45345e-11
1.58496e-10
1.0006e-09
4.40422e-09
1.12503e-08
1.40849e-08
6.15367e-09
6.74147e-10
3.82933e-11
1.61431e-12
5.23354e-13
1.78686e-14
4.44524e-16
7.55658e-18
1.02785e-19
1.55966e-21
1.44687e-23
5.08408e-14
7.76473e-13
5.2474e-12
1.64062e-11
1.13763e-10
5.24279e-10
1.41887e-09
1.92234e-09
9.53777e-10
1.24482e-10
8.90301e-12
1.53911e-12
1.22609e-13
3.56308e-15
9.0936e-17
1.57177e-18
2.17024e-20
3.36312e-22
3.00141e-24
2.91523e-15
4.51691e-14
3.08351e-13
2.39535e-12
1.97391e-11
7.10763e-11
1.93501e-10
2.55143e-10
1.40219e-10
2.62055e-11
4.08708e-12
6.34647e-13
2.10383e-14
7.00745e-16
1.82536e-17
3.20623e-19
4.48904e-21
7.09036e-23
6.09391e-25
1.39697e-16
2.39601e-15
1.44198e-14
1.68374e-13
3.59171e-12
1.9421e-11
2.76924e-11
3.87611e-11
2.2686e-11
5.8605e-12
1.11611e-12
8.09495e-14
3.9532e-15
1.35666e-16
3.60363e-18
6.42858e-20
9.11499e-22
1.46391e-23
1.21386e-25
5.03773e-18
9.64814e-17
5.82905e-16
8.91165e-15
2.4279e-13
3.02072e-12
6.47525e-12
7.42301e-12
4.24066e-12
1.24325e-12
1.79743e-13
1.44495e-14
7.36473e-16
2.59119e-17
7.01571e-19
1.27026e-20
1.82146e-22
2.96652e-24
2.38074e-26
1.19012e-19
1.8297e-18
2.95982e-17
5.82905e-16
1.7116e-14
2.71265e-13
9.49825e-13
1.24801e-12
7.43825e-13
2.11732e-13
3.03626e-14
2.58064e-15
1.35826e-16
4.89877e-18
1.35139e-19
2.48148e-21
3.59328e-23
5.91649e-25
3.95468e-27
1.82443e-21
2.03031e-20
1.0729e-18
3.03402e-17
1.13378e-15
2.36829e-14
9.34878e-14
1.30666e-13
9.72661e-14
3.27744e-14
5.19129e-15
4.61776e-16
2.51274e-17
9.29784e-19
2.61417e-20
4.86757e-22
7.11113e-24
1.18014e-25
7.63039e-28
1.98447e-24
2.35829e-22
2.03031e-20
1.0729e-18
3.28908e-17
9.54859e-16
8.46634e-15
3.4682e-14
1.78015e-14
3.12784e-15
4.36154e-16
4.09155e-17
2.32227e-18
8.89146e-20
2.56577e-21
4.87441e-23
7.22281e-25
1.21321e-26
7.63039e-28
)
;

boundaryField
{
    leftWall
    {
        type            zeroGradient;
    }
    rightWall
    {
        type            zeroGradient;
    }
    lowerWall
    {
        type            zeroGradient;
    }
    atmosphere
    {
        type            inletOutlet;
        inletValue      uniform 0;
        value           nonuniform List<scalar> 
46
(
0
0
0
0
0
0
0
0
0
0
0
0
0
0
0
0
0
0
0
0
0
0
0
0
0
0
0
0
2.35829e-22
2.03031e-20
1.0729e-18
3.28908e-17
9.54859e-16
8.46634e-15
3.4682e-14
1.78015e-14
3.12784e-15
4.36154e-16
4.09155e-17
2.32227e-18
8.89146e-20
2.56577e-21
4.87441e-23
7.22281e-25
1.21321e-26
7.63039e-28
)
;
    }
    defaultFaces
    {
        type            empty;
    }
}


// ************************************************************************* //
