/*--------------------------------*- C++ -*----------------------------------*\
| =========                 |                                                 |
| \\      /  F ield         | OpenFOAM: The Open Source CFD Toolbox           |
|  \\    /   O peration     | Version:  2012                                  |
|   \\  /    A nd           | Website:  www.openfoam.com                      |
|    \\/     M anipulation  |                                                 |
\*---------------------------------------------------------------------------*/
FoamFile
{
    version     2.0;
    format      ascii;
    class       surfaceScalarField;
    location    "0.25";
    object      alphaPhi0.water;
}
// * * * * * * * * * * * * * * * * * * * * * * * * * * * * * * * * * * * * * //

dimensions      [0 3 -1 0 0 0 0];
oriented        oriented;


internalField   nonuniform List<scalar> 
4432
(
4.94719e-07
-4.94719e-07
5.14638e-06
-4.65168e-06
1.13427e-05
-6.19636e-06
1.73684e-05
-6.02569e-06
2.26724e-05
-5.30397e-06
2.73357e-05
-4.66329e-06
3.16127e-05
-4.27701e-06
3.5713e-05
-4.1003e-06
3.97378e-05
-4.02485e-06
4.3687e-05
-3.94919e-06
4.74873e-05
-3.80026e-06
5.10139e-05
-3.52659e-06
5.41013e-05
-3.08746e-06
5.65026e-05
-2.40126e-06
5.78702e-05
-1.36763e-06
5.73294e-05
5.40786e-07
5.31784e-05
4.15106e-06
4.3729e-05
9.4494e-06
2.77972e-05
1.59318e-05
6.82096e-06
2.09762e-05
-9.60849e-06
1.82321e-05
-1.47363e-05
4.94805e-06
-1.4915e-05
5.5655e-07
-1.05127e-06
5.24027e-06
-9.3354e-06
1.14418e-05
-1.23979e-05
1.74591e-05
-1.2043e-05
2.27548e-05
-1.05997e-05
2.74219e-05
-9.33042e-06
3.17206e-05
-8.57569e-06
3.58571e-05
-8.23677e-06
3.99264e-05
-8.09418e-06
4.39249e-05
-7.94773e-06
4.77793e-05
-7.65468e-06
5.13685e-05
-7.1158e-06
5.45245e-05
-6.24344e-06
5.70543e-05
-4.93105e-06
5.87036e-05
-3.01688e-06
5.95446e-05
-3.00253e-07
5.98976e-05
3.79808e-06
5.87635e-05
1.05835e-05
5.31597e-05
2.15356e-05
3.91866e-05
3.49493e-05
1.78029e-05
3.98682e-05
1.99343e-06
2.19172e-05
-1.42904e-05
6.57623e-07
-1.70889e-06
5.37926e-06
-1.4057e-05
1.15453e-05
-1.85639e-05
1.74846e-05
-1.79823e-05
2.27079e-05
-1.5823e-05
2.73367e-05
-1.39592e-05
3.16366e-05
-1.28756e-05
3.58045e-05
-1.24047e-05
3.9923e-05
-1.22127e-05
4.39806e-05
-1.20053e-05
4.79027e-05
-1.15768e-05
5.15715e-05
-1.07846e-05
5.48326e-05
-9.50462e-06
5.74962e-05
-7.59458e-06
5.93331e-05
-4.85379e-06
6.00428e-05
-1.01001e-06
5.95162e-05
4.32469e-06
5.82674e-05
1.18324e-05
5.69873e-05
2.28157e-05
5.34284e-05
3.85082e-05
4.14828e-05
5.18139e-05
2.05199e-05
4.28812e-05
4.65902e-06
8.10566e-07
-2.51946e-06
5.59492e-06
-1.88414e-05
1.17064e-05
-2.46755e-05
1.75286e-05
-2.38044e-05
2.26495e-05
-2.09439e-05
2.72314e-05
-1.85411e-05
3.15429e-05
-1.71871e-05
3.57642e-05
-1.6626e-05
3.99596e-05
-1.6408e-05
4.41071e-05
-1.61529e-05
4.81311e-05
-1.56008e-05
5.19194e-05
-1.45729e-05
5.53293e-05
-1.29145e-05
5.81852e-05
-1.04505e-05
6.02763e-05
-6.94484e-06
6.13482e-05
-2.08191e-06
6.11234e-05
4.54943e-06
5.95364e-05
1.34194e-05
5.74787e-05
2.48734e-05
5.60602e-05
3.99266e-05
5.02998e-05
5.75743e-05
3.13148e-05
6.18662e-05
3.4763e-05
1.014e-06
-3.53345e-06
5.87342e-06
-2.37008e-05
1.19027e-05
-3.07047e-05
1.75696e-05
-2.94713e-05
2.25633e-05
-2.59376e-05
2.70944e-05
-2.30722e-05
3.14285e-05
-2.15212e-05
3.57213e-05
-2.09189e-05
4.00141e-05
-2.07008e-05
4.42733e-05
-2.04122e-05
4.84234e-05
-1.97508e-05
5.23601e-05
-1.85096e-05
5.59551e-05
-1.65094e-05
5.90519e-05
-1.35474e-05
6.14626e-05
-9.35551e-06
6.29618e-05
-3.58112e-06
6.32992e-05
4.21197e-06
6.22518e-05
1.44669e-05
5.9709e-05
2.74162e-05
5.67998e-05
4.28358e-05
5.21292e-05
6.22449e-05
3.58593e-05
7.81362e-05
6.9369e-05
1.26323e-06
-4.79668e-06
6.19841e-06
-2.8636e-05
1.21131e-05
-3.66194e-05
1.75913e-05
-3.49495e-05
2.24418e-05
-3.07881e-05
2.69241e-05
-2.75545e-05
3.12929e-05
-2.58899e-05
3.56715e-05
-2.52976e-05
4.00755e-05
-2.51047e-05
4.44602e-05
-2.47969e-05
4.8752e-05
-2.40427e-05
5.28584e-05
-2.2616e-05
5.66681e-05
-2.03191e-05
6.00457e-05
-1.6925e-05
6.28234e-05
-1.21333e-05
6.47928e-05
-5.55043e-06
6.57054e-05
3.29933e-06
6.5332e-05
1.48403e-05
6.32397e-05
2.95086e-05
5.92668e-05
4.68087e-05
5.33348e-05
6.81768e-05
3.81126e-05
9.33585e-05
0.000106234
1.54975e-06
-6.34643e-06
6.55482e-06
-3.36411e-05
1.23205e-05
-4.23851e-05
1.7584e-05
-4.0213e-05
2.22854e-05
-3.54896e-05
2.67274e-05
-3.19965e-05
3.11433e-05
-3.03058e-05
3.56183e-05
-2.97725e-05
4.01408e-05
-2.96272e-05
4.46574e-05
-2.93135e-05
4.91008e-05
-2.8486e-05
5.33937e-05
-2.69089e-05
5.74447e-05
-2.43701e-05
6.11381e-05
-2.06184e-05
6.43228e-05
-1.53179e-05
6.68054e-05
-8.03311e-06
6.83288e-05
1.77593e-06
6.86412e-05
1.45279e-05
6.7349e-05
3.08007e-05
6.36358e-05
5.05219e-05
5.67145e-05
7.50982e-05
4.31179e-05
0.000106955
0.000149808
1.86033e-06
-8.20676e-06
6.9214e-06
-3.87021e-05
1.25094e-05
-4.79731e-05
1.7548e-05
-4.52516e-05
2.21078e-05
-4.00493e-05
2.65233e-05
-3.6412e-05
3.09974e-05
-3.47799e-05
3.55737e-05
-3.43489e-05
4.02163e-05
-3.42697e-05
4.48676e-05
-3.39649e-05
4.94732e-05
-3.30916e-05
5.39757e-05
-3.14113e-05
5.8302e-05
-2.86965e-05
6.23524e-05
-2.46688e-05
6.59878e-05
-1.89533e-05
6.90218e-05
-1.10672e-05
7.12012e-05
-4.03455e-07
7.22385e-05
1.34907e-05
7.18463e-05
3.11928e-05
6.92769e-05
5.30914e-05
6.2601e-05
8.17741e-05
4.84652e-05
0.000121091
0.000201386
1.07971e-17
-3.96413e-17
1.72035e-19
-6.11546e-19
3.03746e-21
-6.83669e-21
5.34843e-23
-2.79503e-22
1.13605e-24
-3.27005e-24
3.01463e-26
-5.68394e-26
8.61102e-28
-1.37717e-27
2.28433e-29
-3.2148e-29
5.21536e-31
-4.30839e-31
1.14518e-32
1.12769e-33
3.23692e-34
1.52696e-34
8.11391e-36
8.46782e-36
1.82971e-37
3.33032e-37
3.51693e-39
1.06384e-38
5.41993e-41
2.74524e-40
6.10571e-43
5.65128e-42
5.84988e-45
8.6055e-44
1.74154e-45
8.6266e-46
9.76343e-48
6.08015e-16
-1.21788e-15
1.12136e-17
1.28292e-16
2.4729e-19
-7.38067e-19
5.5888e-21
-4.9144e-20
1.16035e-22
-7.20031e-22
3.01079e-24
-1.20684e-23
8.8277e-26
-2.74071e-25
2.42468e-27
-6.34527e-27
6.21209e-29
-1.00428e-28
1.28596e-30
-7.74033e-32
4.04614e-32
5.50627e-32
1.10988e-33
3.60457e-33
2.77885e-35
1.63516e-34
5.98134e-37
5.89776e-36
1.03704e-38
1.7256e-37
1.31893e-40
4.00921e-39
1.04505e-42
6.91564e-41
6.12152e-45
7.87985e-43
4.3995e-45
2.97747e-14
-6.93297e-14
6.51817e-17
2.18948e-14
9.52685e-18
2.92039e-17
2.33048e-19
-2.20822e-18
5.07171e-21
-3.60824e-20
1.39376e-22
-6.86266e-22
4.32013e-24
-1.74994e-23
1.27265e-25
-4.48296e-25
3.20041e-27
-8.30931e-27
6.4936e-29
-2.52512e-29
1.99494e-30
3.8247e-30
5.50087e-32
2.63474e-31
1.36643e-33
1.20752e-32
2.90745e-35
4.35062e-34
4.98204e-37
1.2673e-35
6.71582e-39
2.91477e-37
6.55429e-41
4.98883e-39
5.07625e-43
5.64743e-41
3.16005e-43
1.01493e-12
-2.52587e-12
4.53851e-15
7.01709e-13
2.02785e-16
1.32271e-15
4.41387e-18
-5.29068e-17
1.10395e-19
-8.9117e-19
3.45005e-21
-2.04285e-20
1.15598e-22
-6.03164e-22
3.72385e-24
-1.71215e-23
1.07542e-25
-3.55763e-25
2.44587e-27
-1.87444e-27
7.45968e-29
1.76328e-28
2.10873e-30
1.30506e-29
5.26804e-32
6.10037e-31
1.12573e-33
2.21582e-32
2.11937e-35
6.50366e-34
3.23147e-37
1.50471e-35
3.27678e-39
2.59636e-37
2.5358e-41
2.95163e-39
1.66298e-41
2.44083e-11
-5.65588e-11
1.30207e-13
1.61057e-11
2.88249e-15
3.96241e-14
5.50838e-17
-2.86942e-16
1.93466e-18
-1.93575e-17
6.71492e-20
-4.54139e-19
2.43662e-21
-1.49272e-20
8.76162e-23
-4.55195e-22
2.79941e-24
-1.02781e-23
7.37908e-26
-7.82223e-26
2.29903e-27
7.0088e-27
6.684e-29
4.91345e-28
1.69843e-30
2.3643e-29
3.84187e-32
8.76784e-31
8.07688e-34
2.61479e-32
1.2798e-35
6.1706e-34
1.34505e-37
1.08145e-35
1.04158e-39
1.24756e-37
7.15414e-40
3.71512e-10
-8.74271e-10
2.88455e-12
9.76096e-11
1.07672e-14
-2.40672e-12
4.08536e-16
-1.1136e-14
1.21161e-17
-2.92651e-16
1.36273e-18
-7.71366e-18
4.97689e-20
-3.22573e-19
2.05702e-21
-1.05273e-20
7.27719e-23
-2.59295e-22
1.96384e-24
-2.57029e-24
5.56412e-26
2.4173e-25
1.70408e-27
1.39399e-26
4.39996e-29
6.99009e-28
1.09956e-30
2.66086e-29
2.40575e-32
8.1294e-31
3.96892e-34
1.96385e-32
4.34674e-36
3.51372e-34
3.48764e-38
4.14082e-36
2.43916e-38
4.41075e-09
-1.07346e-08
1.9401e-10
-1.57288e-09
2.00349e-13
5.5822e-14
7.45107e-15
-9.68906e-14
2.27446e-16
-2.04315e-15
1.46159e-17
-1.41577e-16
8.666e-19
-6.15714e-18
4.34105e-20
-2.53404e-19
2.86999e-21
-8.15921e-21
7.91922e-23
-2.07132e-22
1.24563e-24
5.96956e-24
4.57832e-26
3.74501e-25
1.14591e-27
2.01773e-26
2.98741e-29
7.84644e-28
6.89378e-31
2.46748e-29
1.2031e-32
6.13159e-31
1.39126e-34
1.12806e-32
1.08448e-36
1.36369e-34
8.2525e-37
1.69434e-08
-4.49978e-08
4.21594e-10
-2.84055e-09
8.19694e-12
3.51973e-11
7.66625e-13
2.22273e-12
8.13479e-15
6.05673e-13
6.27445e-16
3.6662e-15
4.03069e-17
2.72114e-16
2.21514e-18
2.38356e-17
1.46006e-19
1.4271e-18
5.3944e-21
4.96065e-20
5.01029e-23
2.32833e-22
2.25053e-24
1.74684e-23
5.33037e-26
1.01522e-24
1.52245e-27
4.03669e-26
3.64989e-29
1.31197e-27
6.60097e-31
3.37044e-29
8.03524e-33
6.40022e-31
5.39125e-35
7.96026e-33
4.91708e-35
4.94046e-06
-1.31472e-05
1.59295e-05
-4.96912e-05
2.71847e-05
-5.92283e-05
3.71388e-05
-5.52058e-05
4.64349e-05
-4.93454e-05
5.58156e-05
-4.57928e-05
6.55591e-05
-4.45233e-05
7.56314e-05
-4.44212e-05
8.5908e-05
-4.45464e-05
9.62868e-05
-4.43437e-05
0.000106713
-4.35176e-05
0.000117114
-4.18122e-05
0.000127366
-3.89483e-05
0.000137318
-3.46215e-05
0.000146766
-2.84012e-05
0.000155383
-1.96837e-05
0.000162592
-7.6128e-06
0.000167502
8.58081e-06
0.000169855
2.88396e-05
0.000169276
5.36709e-05
0.000166214
8.48356e-05
0.000168832
0.000118473
0.000172015
0.000198203
6.35522e-06
-1.95024e-05
1.74068e-05
-6.07428e-05
2.77517e-05
-6.95732e-05
3.68128e-05
-6.42668e-05
4.57231e-05
-5.82557e-05
5.51847e-05
-5.52543e-05
6.52679e-05
-5.46066e-05
7.58001e-05
-5.49533e-05
8.66365e-05
-5.53828e-05
9.77292e-05
-5.54364e-05
0.000109087
-5.48758e-05
0.000120625
-5.33501e-05
0.000132216
-5.05391e-05
0.000143936
-4.6341e-05
0.000155861
-4.03268e-05
0.000167887
-3.17096e-05
0.000179566
-1.92915e-05
0.000189432
-1.28407e-06
0.00019796
2.0312e-05
0.000204481
4.71501e-05
0.000213136
7.61805e-05
0.000228002
0.000103607
0.000139061
0.000260944
7.74918e-06
-2.72516e-05
1.86894e-05
-7.1683e-05
2.80273e-05
-7.89111e-05
3.631e-05
-7.25495e-05
4.50159e-05
-6.69616e-05
5.46475e-05
-6.48859e-05
6.50345e-05
-6.49935e-05
7.59026e-05
-6.58215e-05
8.71142e-05
-6.65943e-05
9.864e-05
-6.69621e-05
0.000110457
-6.6693e-05
0.000122409
-6.53012e-05
0.00013464
-6.27699e-05
0.000148019
-5.9719e-05
0.000162826
-5.51334e-05
0.000178987
-4.78717e-05
0.000194468
-3.47733e-05
0.000209307
-1.61242e-05
0.000222635
6.98373e-06
0.000231798
3.79875e-05
0.000242745
6.52338e-05
0.000255474
9.08776e-05
0.000115217
0.000279318
9.05171e-06
-3.63033e-05
1.96521e-05
-8.22833e-05
2.79559e-05
-8.72147e-05
3.56299e-05
-8.02233e-05
4.42435e-05
-7.55751e-05
5.39458e-05
-7.4588e-05
6.43123e-05
-7.53597e-05
7.49943e-05
-7.65028e-05
8.58516e-05
-7.74507e-05
9.68437e-05
-7.79524e-05
0.00010804
-7.78853e-05
0.000119656
-7.69113e-05
0.000132868
-7.5973e-05
0.000149888
-7.67146e-05
0.000168158
-7.33965e-05
0.000184554
-6.18975e-05
0.000192969
-3.79208e-05
0.00020195
-1.83746e-05
0.000213762
-2.02364e-06
0.000235268
1.69535e-05
0.000257165
4.33368e-05
0.000271164
7.68781e-05
9.86164e-05
0.000287764
1.02902e-05
-4.65934e-05
2.01003e-05
-9.20912e-05
2.72184e-05
-9.433e-05
3.43239e-05
-8.73264e-05
4.268e-05
-8.39289e-05
5.19609e-05
-8.38661e-05
6.15433e-05
-8.49365e-05
7.11315e-05
-8.60807e-05
8.07725e-05
-8.70753e-05
9.06942e-05
-8.7848e-05
0.000101756
-8.88846e-05
0.000115558
-9.05981e-05
0.000130262
-8.78717e-05
0.000128548
-5.79323e-05
9.38203e-05
-1.90579e-05
5.52913e-05
-5.39874e-06
3.33911e-05
-1.37332e-06
2.41548e-05
-3.59369e-07
2.30557e-05
-1.44524e-07
3.93582e-05
7.03341e-07
7.98704e-05
1.70748e-06
0.000149298
3.60095e-06
1.22621e-05
0.00023
1.14881e-05
-5.80795e-05
1.97946e-05
-0.00010037
2.53233e-05
-9.98274e-05
3.16885e-05
-9.36634e-05
3.9404e-05
-9.1615e-05
4.77293e-05
-9.21541e-05
5.61472e-05
-9.32804e-05
6.4901e-05
-9.46994e-05
7.49465e-05
-9.69048e-05
8.56877e-05
-9.42544e-05
9.00339e-05
-7.34891e-05
7.57302e-05
-3.45718e-05
4.16615e-05
-8.37464e-06
2.55707e-05
-1.99311e-06
6.99874e-06
-4.02002e-07
1.70337e-06
-8.62569e-08
3.76931e-07
-1.96168e-08
1.25089e-07
-3.41329e-08
1.59467e-07
-5.89983e-08
9.88849e-07
-1.82541e-09
2.58347e-06
1.17781e-07
5.547e-06
5.181e-07
9.69368e-07
1.60853e-05
1.31594e-05
-7.11952e-05
1.92242e-05
-0.000106133
2.24893e-05
-0.000102778
2.8269e-05
-9.91384e-05
3.58105e-05
-9.88228e-05
4.40624e-05
-9.51221e-05
5.10276e-05
-8.20648e-05
5.45932e-05
-6.3211e-05
5.05168e-05
-3.79662e-05
3.31588e-05
-7.42577e-06
1.5577e-05
-1.38224e-06
1.07991e-05
-1.94676e-07
2.47525e-06
-4.04186e-08
4.98858e-07
-1.44396e-08
1.04736e-07
-8.18969e-09
2.03708e-08
-2.57716e-09
2.18542e-08
-1.96588e-09
9.8033e-08
-4.6952e-08
4.25433e-07
-2.22967e-07
5.4198e-07
-1.7131e-07
4.55672e-07
2.04945e-08
8.17369e-07
2.53593e-08
6.60372e-08
1.68384e-06
1.60367e-05
-6.80622e-05
1.63641e-05
-4.84545e-05
1.73788e-05
-4.28156e-05
2.07344e-05
-3.85769e-05
2.29318e-05
-2.96792e-05
2.11895e-05
-2.62685e-06
1.60141e-05
-2.41914e-07
9.24494e-06
-2.62232e-08
9.04677e-06
-3.33977e-09
1.62292e-06
-4.63876e-10
2.41037e-07
-6.94408e-11
5.04465e-08
-3.91845e-09
1.70649e-08
-7.96752e-09
1.2234e-08
-1.04671e-08
1.01126e-08
-6.75236e-09
8.33908e-09
-1.48681e-09
2.42336e-08
-1.85446e-08
5.22528e-07
-1.53984e-07
6.69805e-07
-3.16787e-07
7.99996e-07
-2.48043e-07
3.5689e-07
-6.12549e-08
1.53936e-07
8.594e-09
8.68596e-09
1.97068e-07
6.92332e-06
9.00595e-24
2.21245e-06
-1.54041e-23
2.67815e-06
-1.59955e-21
2.30794e-06
-1.53012e-19
2.89884e-06
-1.0451e-17
2.71995e-07
-1.62885e-16
3.0081e-08
-1.23032e-15
3.85779e-09
-7.9107e-16
5.20239e-10
-1.27578e-15
5.6344e-11
-2.21421e-15
7.68404e-11
-3.53694e-11
1.67496e-09
-5.18589e-09
7.7371e-09
-1.37837e-08
1.64351e-08
-2.31346e-08
1.66599e-08
-8.62803e-09
1.50487e-08
-5.57762e-10
3.7383e-07
-1.46655e-08
5.36672e-07
-2.1101e-07
5.90295e-07
-3.04942e-07
5.63943e-07
-1.68234e-07
7.28986e-08
-2.7557e-08
2.04025e-08
2.50821e-09
5.5135e-10
2.6667e-08
-1.04307e-24
2.66777e-23
5.05125e-25
-1.69523e-23
8.01043e-23
-1.68127e-21
9.73623e-21
-1.62884e-19
7.52318e-19
-1.12119e-17
1.40158e-17
-1.77357e-16
9.56795e-17
-1.32921e-15
2.27216e-16
-1.086e-15
3.53089e-16
-1.05671e-15
1.41701e-15
-2.61621e-15
2.00129e-10
-2.3524e-10
1.488e-08
-1.9815e-08
8.60259e-08
-9.60699e-08
7.00951e-08
-9.82622e-08
4.29261e-08
-1.97762e-08
4.06829e-08
3.61862e-10
4.41483e-07
-1.01412e-08
5.07781e-07
-1.9823e-07
4.88802e-07
-2.03864e-07
8.72865e-08
-8.61293e-08
3.793e-10
-1.76543e-09
1.98909e-09
8.89046e-11
1.9453e-12
2.33677e-09
-5.8849e-25
-3.7027e-25
6.13647e-24
-4.65198e-23
5.97746e-22
-4.0769e-21
6.96714e-20
-3.08917e-19
5.1812e-18
-1.95652e-17
1.01001e-16
-4.09113e-16
6.8661e-16
-4.20387e-15
6.73276e-16
-2.69304e-15
1.29651e-15
-9.36469e-16
1.08233e-14
-1.17014e-14
1.27314e-09
-1.50742e-09
5.26486e-08
-9.63911e-08
1.01487e-07
-1.30498e-07
1.09051e-07
-9.51142e-08
5.08088e-08
-1.80763e-08
4.52098e-08
4.18016e-10
2.63265e-07
-2.84815e-08
3.71315e-07
-2.0516e-07
1.71385e-07
-1.57512e-07
2.52167e-09
-6.98244e-09
1.86928e-10
-2.21274e-10
1.80422e-10
2.78517e-13
-1.40405e-12
1.71468e-10
1.29222e-26
-9.08279e-25
2.50301e-23
-2.39978e-22
4.50869e-21
-2.82877e-20
5.55265e-19
-2.67091e-18
4.08914e-17
-1.72711e-16
6.59025e-16
-2.43654e-15
2.16091e-15
-8.51519e-15
9.04284e-16
-3.97675e-15
1.85399e-15
-1.72613e-15
4.55008e-14
-5.53074e-14
5.97929e-09
-7.49279e-09
5.39009e-08
-1.2492e-07
6.40527e-08
-1.25653e-07
5.2525e-08
-6.87065e-08
2.60195e-08
-2.36841e-09
5.64954e-08
-2.21125e-08
2.81555e-07
-9.05517e-08
2.64802e-07
-7.02068e-08
6.86813e-09
-1.44582e-08
2.05926e-10
-5.78652e-10
4.57301e-12
-4.53983e-11
5.08478e-12
-5.61664e-12
-1.95533e-12
6.23465e-12
1.01603e-25
-2.57157e-24
6.13136e-23
-4.66204e-22
1.20752e-20
-6.81276e-20
1.88745e-18
-9.24252e-18
1.37903e-16
-6.13281e-16
1.31089e-15
-5.65598e-15
2.1435e-15
-9.82777e-15
7.51712e-16
-5.18146e-15
3.81325e-15
-4.57761e-15
1.97268e-13
-2.48274e-13
8.7523e-09
-5.95319e-09
1.53731e-08
-9.2945e-09
1.57291e-08
-1.09844e-07
1.27965e-08
-5.33493e-08
2.59325e-08
-4.09838e-08
8.36902e-08
-7.57923e-08
1.43374e-07
-2.41347e-08
1.48972e-08
-6.48225e-09
6.18577e-10
-1.8782e-10
5.15271e-11
-1.25648e-11
7.0993e-12
-1.04126e-12
1.62189e-12
-1.11915e-13
-1.28538e-12
3.25756e-12
1.87136e-25
-3.77115e-24
6.97168e-23
-5.46543e-22
1.52141e-20
-8.95248e-20
3.15751e-18
-1.70789e-17
2.19547e-16
-1.13574e-15
9.33183e-16
-7.60006e-15
1.31637e-15
-9.76756e-15
5.64941e-16
-7.89542e-15
7.42673e-15
-1.03087e-14
8.04557e-13
-1.0408e-12
1.52868e-11
-1.68823e-10
-7.01886e-09
-1.52553e-09
-9.67544e-09
-4.32798e-08
-1.66362e-09
-1.3227e-07
-9.65116e-09
-1.2941e-07
1.66468e-08
-2.32303e-08
6.68332e-09
-1.32555e-15
2.01214e-10
-6.1273e-15
1.36913e-11
-1.62909e-14
1.1548e-12
-2.50258e-14
1.88739e-13
-5.56619e-14
1.29461e-13
-1.44854e-14
-1.1597e-12
3.17851e-12
1.81528e-25
-3.91263e-24
5.51844e-23
-4.96203e-22
1.26727e-20
-8.63029e-20
3.18304e-18
-2.01714e-17
2.04311e-16
-1.31889e-15
6.83873e-16
-7.56764e-15
6.06565e-16
-9.24685e-15
1.57503e-16
-1.04407e-14
1.38272e-14
-2.37819e-14
-8.0049e-13
-2.09966e-13
-1.57235e-10
-1.12383e-11
-1.51529e-09
-1.33203e-10
-2.83277e-08
-1.98432e-09
-3.56865e-08
-4.44407e-08
-3.29354e-08
-4.62902e-08
-4.10685e-16
-5.14991e-16
-6.11319e-17
-1.41814e-15
2.76116e-16
-6.23711e-15
1.13654e-15
-1.7257e-14
3.79847e-15
-2.62849e-14
1.67764e-14
-3.96937e-14
5.68606e-14
-2.65508e-14
-1.15384e-12
2.5153e-12
1.21292e-25
-2.66011e-24
2.76408e-23
-1.87101e-22
6.96259e-21
-3.59933e-20
2.24833e-18
-1.87475e-17
1.33102e-16
-1.18528e-15
4.01374e-16
-5.91495e-15
2.23906e-16
-7.99184e-15
-6.29257e-16
-1.12605e-14
-1.90211e-15
-7.71523e-14
-5.29872e-14
-1.67144e-13
-1.09583e-11
-3.32271e-13
-1.43807e-10
-3.51373e-13
-1.39132e-09
-1.45953e-13
-4.25553e-09
-5.73458e-15
-6.36596e-17
-7.26776e-16
-2.53644e-16
-1.98682e-16
-1.75697e-17
-1.46223e-15
1.56874e-15
-5.16483e-15
8.5989e-15
-1.16285e-14
1.58298e-14
-2.09228e-14
3.65936e-14
-3.79082e-14
8.96551e-14
-4.14368e-14
-1.63702e-12
1.61335e-12
3.71574e-26
-6.09863e-25
5.07439e-24
-1.9706e-23
1.30678e-21
-2.43597e-21
1.00992e-18
-7.96855e-18
5.12132e-17
-4.52826e-16
1.24997e-16
-2.2739e-15
2.31909e-17
-4.47273e-15
-1.18988e-15
-9.60418e-15
-1.54069e-14
-7.29766e-14
-1.86255e-14
-2.55644e-13
-1.64391e-14
-3.4305e-13
-6.73531e-15
-3.18963e-13
-2.99725e-16
-1.51834e-13
-5.20114e-17
-7.46724e-15
-2.74714e-17
-6.24991e-16
-7.12853e-17
-7.64852e-17
3.30131e-17
-1.0291e-15
1.18894e-15
-3.48045e-15
3.86276e-15
-8.10005e-15
1.10102e-14
-1.77729e-14
2.75439e-14
-4.29257e-14
9.28199e-14
-6.51167e-14
-1.65543e-12
1.8401e-12
2.99779e-27
1.97879e-25
2.71362e-25
-1.97896e-25
4.57785e-23
-2.73634e-22
1.56177e-19
-1.23809e-18
5.9413e-18
-6.80825e-17
8.91618e-18
-4.36912e-16
-2.80848e-17
-1.51426e-15
-6.42487e-16
-7.09111e-15
-1.4729e-14
-3.43449e-14
-3.23799e-14
-1.57788e-13
-4.28945e-14
-2.42107e-13
-3.82619e-14
-2.4811e-13
-3.79064e-15
-1.14717e-13
-1.53055e-16
-9.46728e-15
-1.08857e-17
-3.86418e-16
-2.10536e-17
-1.87012e-17
4.63315e-18
-3.35422e-16
4.14213e-16
-1.6476e-15
2.04632e-15
-5.19569e-15
7.20335e-15
-1.45252e-14
2.51566e-14
-4.21282e-14
1.11546e-13
-1.16599e-13
-1.09503e-12
1.02873e-12
-1.05715e-27
4.86436e-25
2.63385e-27
-9.53339e-26
2.88691e-24
-6.0184e-22
3.92334e-21
-2.32584e-19
-2.05465e-19
-4.85369e-18
-3.46351e-18
-3.69494e-17
-4.01008e-17
-4.13552e-16
-2.81889e-16
-4.19631e-15
-2.41837e-15
-1.13267e-14
-1.92781e-14
-2.46807e-14
-2.7958e-14
-7.72984e-14
-2.50951e-14
-9.87806e-14
-3.31422e-15
-1.69682e-14
-1.30513e-16
-3.174e-15
-1.47178e-18
-9.93254e-18
-3.57544e-18
-4.0048e-18
-4.8324e-18
-7.28269e-17
1.19223e-16
-5.53668e-16
8.83252e-16
-2.86798e-15
4.14269e-15
-1.12762e-14
1.81632e-14
-3.68557e-14
9.12617e-14
-1.25426e-13
-1.15576e-12
8.45417e-13
-5.05741e-28
7.38609e-25
-1.79002e-27
-1.49638e-25
-2.57694e-23
-5.96465e-22
-3.24849e-21
-3.90406e-20
-5.16883e-20
-1.68847e-19
-9.18474e-19
-2.98678e-18
-4.16741e-17
-1.3683e-16
-2.12275e-16
-1.43623e-15
-4.95e-16
-4.12702e-15
-2.21486e-15
-5.42626e-15
-5.04864e-15
-1.99397e-15
-1.64952e-15
-1.1978e-15
-4.17416e-16
-1.42788e-16
-2.35457e-18
-2.97589e-17
-2.9828e-19
-9.96436e-18
-5.78894e-19
-1.52243e-18
-3.02787e-18
-1.88803e-17
1.39731e-17
-2.29054e-16
2.78173e-16
-1.72418e-15
1.9644e-15
-8.68556e-15
1.03752e-14
-3.21634e-14
6.86016e-14
-1.29949e-13
-1.3286e-12
6.76755e-13
-5.14694e-28
6.27653e-25
-1.72879e-24
1.57864e-24
-5.498e-23
-4.38975e-26
-3.70984e-22
-1.72165e-23
-2.9016e-21
-4.42865e-21
-3.45207e-19
-1.23718e-18
-1.50527e-17
-4.75074e-17
-1.14337e-16
-3.61181e-16
-2.45864e-16
-1.19953e-15
-1.67324e-16
-2.50651e-15
-4.28757e-17
-2.82901e-15
-1.4177e-17
-1.7072e-15
-4.04248e-18
-2.30947e-16
-1.82017e-18
-2.07867e-17
-1.24457e-19
-1.37829e-18
-1.68913e-19
-8.51007e-19
-1.72165e-18
-6.68647e-18
-8.49188e-18
-1.09304e-16
2.91403e-17
-1.07867e-15
5.75598e-16
-6.61858e-15
4.26906e-15
-2.84715e-14
3.78856e-14
-1.26338e-13
-1.53094e-12
4.42368e-13
6.51711e-27
1.71175e-25
-5.18142e-28
4.01592e-25
-3.29381e-26
-1.14776e-26
-1.15322e-23
-3.65797e-24
-2.92072e-21
-7.8146e-22
-1.86774e-19
-1.95949e-19
-4.36318e-18
-1.20553e-17
-2.72074e-17
-1.16972e-16
-9.10307e-17
-3.55689e-16
-2.50361e-16
-5.49403e-16
-1.733e-16
-5.01805e-16
-4.78874e-17
-2.30785e-16
-3.83184e-18
-4.52236e-17
-1.43607e-19
-4.4841e-18
-7.64921e-20
-6.17665e-19
-9.20917e-20
-4.79495e-19
-1.05219e-18
-3.36316e-18
-1.31458e-17
-6.08665e-17
-8.38379e-17
-6.93163e-16
-2.47012e-16
-4.98266e-15
-2.44411e-16
-2.4676e-14
1.24971e-15
-1.17731e-13
-1.39871e-12
5.09006e-14
2.3285e-27
2.61282e-26
-1.85149e-28
8.64567e-26
-1.11065e-26
-5.56255e-28
-2.93142e-24
-1.48661e-25
-6.36667e-22
-2.63362e-23
-3.51156e-20
-3.75268e-21
-1.54128e-18
-6.84206e-19
-1.12377e-17
-2.16338e-17
-2.34619e-17
-1.08974e-16
-4.86746e-17
-1.98165e-16
-2.66242e-17
-2.19528e-16
-6.76866e-18
-1.13425e-16
-7.05229e-19
-2.6996e-17
-6.50247e-20
-2.23752e-18
-4.62745e-20
-1.79024e-19
-5.91295e-20
-2.24868e-19
-7.38365e-19
-1.75133e-18
-1.22852e-17
-3.24747e-17
-1.22187e-16
-4.22223e-16
-6.90338e-16
-3.45233e-15
-1.99411e-15
-1.90909e-14
-7.84107e-15
-1.08002e-13
-1.16257e-12
1.3078e-13
6.17657e-28
-4.4599e-35
-9.76878e-30
-3.39619e-32
-5.55227e-28
-1.07971e-29
-1.15135e-25
-2.50676e-27
-2.24777e-23
-4.12764e-25
-3.05817e-21
-5.35861e-23
-1.57101e-19
-6.24333e-21
-2.8383e-18
-8.20748e-19
-1.04287e-17
-8.38036e-18
-1.32576e-17
-2.16262e-17
-1.19235e-17
-2.57081e-17
-4.21766e-18
-1.1587e-17
-3.93814e-19
-5.75977e-18
-1.62488e-20
-6.16025e-19
-1.73186e-20
-5.27998e-20
-3.27018e-20
-7.98135e-20
-4.56812e-19
-8.17785e-19
-9.00756e-18
-1.50213e-17
-1.13774e-16
-2.30845e-16
-8.08875e-16
-2.32426e-15
-2.95543e-15
-1.66591e-14
1.83861e-14
-1.18315e-13
-1.33705e-12
4.05961e-13
-4.40985e-35
-5.00422e-37
-3.36637e-32
-3.42268e-34
-1.0464e-29
-5.71447e-32
-2.21829e-27
-1.24344e-29
-3.88005e-25
-1.90733e-27
-5.21514e-23
-2.31233e-25
-4.17963e-21
-2.47857e-23
-1.51191e-19
-3.2511e-21
-9.2695e-19
-3.75519e-20
-1.47835e-18
-9.56787e-20
-9.99352e-19
-1.19113e-19
-6.18463e-19
-9.32381e-20
-9.32526e-20
-2.46311e-20
-4.91958e-21
-4.96726e-21
-5.46085e-21
-2.45405e-21
-1.46567e-20
-1.97663e-20
-2.43478e-19
-4.14784e-19
-5.26954e-18
-7.86829e-18
-8.39453e-17
-1.30362e-16
-8.38115e-16
-1.62592e-15
-3.02811e-15
-1.60705e-14
7.48423e-14
-1.61271e-13
-1.73595e-12
7.90791e-13
-4.83766e-37
-2.61167e-39
-3.38107e-34
-1.69756e-36
-5.68669e-32
-2.65859e-34
-1.12151e-29
-5.44459e-32
-1.80295e-27
-8.15827e-30
-2.25192e-25
-9.56267e-28
-1.86803e-23
-9.45464e-26
-7.097e-22
-1.24733e-23
-4.0599e-21
-2.54054e-22
-6.97783e-21
-1.0163e-21
-7.43612e-21
-1.79647e-21
-2.99548e-21
-2.06821e-21
-5.82579e-22
-1.50627e-21
-2.73212e-22
-5.56625e-22
-4.08113e-22
-8.99115e-22
-6.36613e-21
-1.10273e-20
-1.50452e-19
-2.40886e-19
-3.27667e-18
-4.75331e-18
-6.12121e-17
-8.3043e-17
-7.01297e-16
-1.21706e-15
-2.32102e-15
-1.37261e-14
2.75246e-14
-1.62144e-13
-1.74429e-12
2.75383e-13
-2.60119e-39
-1.6104e-42
-1.69479e-36
-9.98298e-40
-2.71007e-34
-1.52022e-37
-5.40928e-32
-2.97719e-35
-8.13503e-30
-4.2219e-33
-9.59171e-28
-4.71687e-31
-8.45051e-26
-4.3089e-29
-3.30409e-24
-3.39106e-27
-3.42838e-23
-3.60229e-25
-9.98347e-23
-7.91286e-24
-1.47653e-22
-3.25855e-23
-1.51147e-22
-5.59374e-23
-5.32089e-23
-6.14445e-23
-6.20099e-23
-4.79312e-23
-3.43168e-22
-3.12239e-22
-4.18202e-21
-6.48304e-21
-1.01501e-19
-1.42754e-19
-2.23637e-18
-2.82222e-18
-4.65776e-17
-4.96336e-17
-6.2884e-16
-7.69751e-16
-3.09741e-15
-1.022e-14
-4.6513e-14
-1.17195e-13
-1.25919e-12
-5.28142e-13
-1.59679e-42
-1.9388e-45
-9.99625e-40
-1.73712e-42
-1.54044e-37
-4.18109e-40
-2.80602e-35
-7.90171e-38
-4.06881e-33
-1.09875e-35
-4.62762e-31
-1.19918e-33
-4.27992e-29
-1.06874e-31
-3.14092e-27
-8.01284e-30
-1.21148e-25
-6.94754e-28
-1.35209e-24
-3.62117e-26
-3.85444e-24
-1.94431e-25
-5.16594e-24
-3.40884e-25
-4.80433e-24
-3.98865e-25
-7.09705e-24
-4.14597e-24
-1.79702e-22
-1.00887e-22
-3.92572e-21
-2.46368e-21
-8.92365e-20
-5.39624e-20
-1.84747e-18
-1.04879e-18
-3.41169e-17
-1.8022e-17
-5.55685e-16
-2.72377e-16
-7.81788e-15
-3.5817e-15
-9.27805e-14
-3.99115e-14
-4.2651e-13
-9.70176e-13
-5.45493e-45
3.92119e-46
-4.08487e-42
7.075e-44
-4.21469e-40
4.25696e-42
-7.42983e-38
-1.41515e-40
-1.05154e-35
-8.67127e-38
-1.16827e-33
-9.33043e-36
-1.05524e-31
-7.53288e-34
-7.9642e-30
-5.98286e-32
-4.25742e-28
-5.88554e-30
-8.03725e-27
-3.62743e-29
-2.26204e-26
-5.92854e-30
-2.60543e-26
-7.03066e-28
-5.77797e-26
-2.50193e-26
-3.29229e-24
-7.62257e-25
-8.44176e-23
-2.09561e-23
-2.10018e-21
-5.10406e-22
-4.72129e-20
-1.09854e-20
-9.44222e-19
-2.08627e-19
-1.67327e-17
-3.48759e-18
-2.61379e-16
-5.11438e-17
-3.55964e-15
-6.5536e-16
-4.06584e-14
-7.30254e-15
-8.2161e-14
-4.28958e-13
7.76907e-46
1.00998e-45
9.55389e-44
2.54444e-43
-2.14819e-42
2.98111e-41
-2.32892e-39
2.18525e-39
-2.00399e-37
1.11358e-37
-1.36522e-35
4.1214e-36
-8.78794e-34
1.11854e-34
-5.62347e-32
2.17043e-33
-2.1792e-30
2.71984e-32
-6.04848e-31
1.24349e-31
-1.04797e-28
-3.46569e-30
-7.36833e-28
-9.47379e-29
-2.38776e-26
-3.18466e-27
-7.09878e-25
-9.94307e-26
-1.97609e-23
-2.73975e-24
-4.89825e-22
-6.64858e-23
-1.07573e-20
-1.42092e-21
-2.08957e-19
-2.67151e-20
-3.5821e-18
-4.41064e-19
-5.40307e-17
-6.3777e-18
-7.15488e-16
-8.06062e-17
-8.12686e-15
-8.9431e-16
-1.05702e-14
-9.75274e-14
2.8087e-45
-3.13876e-52
6.72238e-43
-1.90569e-49
7.51142e-41
-5.61032e-47
5.20212e-39
-1.08602e-44
2.46146e-37
-1.5498e-42
8.22929e-36
-1.73314e-40
1.91946e-34
-1.57625e-38
2.84268e-33
-1.19468e-36
1.51745e-32
-7.67406e-35
-3.64377e-31
-4.22804e-33
-3.51102e-30
-3.19049e-31
-9.29643e-29
-7.70134e-30
-3.11844e-27
-2.6084e-28
-9.87108e-26
-8.27819e-27
-2.75573e-24
-2.30745e-25
-6.79629e-23
-5.65212e-24
-1.47972e-21
-1.21658e-22
-2.84195e-20
-2.29942e-21
-4.80775e-19
-3.81051e-20
-7.15064e-18
-5.52874e-19
-9.25171e-17
-6.99287e-18
-1.12737e-15
-7.68803e-17
-9.62782e-16
-1.46513e-14
-2.93989e-52
-1.98878e-53
-1.784e-49
-1.24636e-50
-5.24746e-47
-3.80695e-48
-1.01485e-44
-7.64176e-46
-1.44693e-42
-1.13014e-43
-1.61672e-40
-1.30889e-41
-1.46923e-38
-1.23195e-39
-1.11282e-36
-9.65488e-38
-7.14472e-35
-6.40622e-36
-3.93536e-33
-3.6413e-34
-3.10295e-31
-1.62501e-32
-7.79729e-30
-4.20772e-31
-2.64317e-28
-1.46185e-29
-8.4854e-27
-4.78131e-28
-2.39673e-25
-1.3711e-26
-5.96358e-24
-3.44886e-25
-1.3072e-22
-7.61467e-24
-2.52385e-21
-1.47203e-22
-4.29937e-20
-2.49321e-21
-6.43918e-19
-3.69563e-20
-8.31779e-18
-4.83229e-19
-1.41237e-16
-5.37293e-18
-7.0599e-17
-1.59072e-15
-1.94839e-53
-3.68603e-55
-1.22198e-50
-2.52084e-52
-3.73378e-48
-8.11376e-50
-7.50195e-46
-1.71565e-47
-1.11113e-43
-2.67194e-45
-1.28946e-41
-3.25744e-43
-1.21673e-39
-3.22567e-41
-9.56466e-38
-2.65789e-39
-6.36921e-36
-1.85246e-37
-3.63547e-34
-1.1049e-35
-1.63615e-32
-5.19771e-34
-4.37024e-31
-1.46415e-32
-1.51896e-29
-5.31385e-31
-5.0286e-28
-1.83449e-29
-1.46198e-26
-5.50883e-28
-3.74803e-25
-1.45064e-26
-8.45173e-24
-3.34884e-25
-1.65731e-22
-6.75848e-24
-2.84648e-21
-1.19336e-22
-4.2868e-20
-1.84261e-21
-5.6951e-19
-2.53366e-20
-7.97248e-18
-2.92306e-19
-4.04615e-18
-1.39134e-16
-3.66103e-55
-3.42504e-57
-2.49832e-52
-2.58311e-54
-8.05083e-50
-8.9725e-52
-1.70504e-47
-2.04381e-49
-2.66074e-45
-3.42676e-47
-3.25162e-43
-4.49644e-45
-3.22908e-41
-4.79017e-43
-2.66949e-39
-4.24396e-41
-1.86869e-37
-3.17857e-39
-1.12054e-35
-2.03528e-37
-5.3224e-34
-1.02599e-35
-1.44487e-32
-3.00149e-34
-5.83268e-31
-1.31501e-32
-1.9601e-29
-4.75067e-31
-5.93282e-28
-1.52433e-29
-1.57738e-26
-4.28577e-28
-3.68098e-25
-1.05516e-26
-7.52273e-24
-2.26932e-25
-1.34769e-22
-4.26614e-24
-2.11601e-21
-7.00611e-23
-2.95823e-20
-1.03139e-21
-4.33727e-19
-1.26308e-20
-1.87492e-19
-8.71969e-18
-3.41952e-57
-8.95487e-60
-2.57797e-54
-8.33672e-57
-8.96006e-52
-3.49072e-54
-2.04312e-49
-9.42535e-52
-3.42927e-47
-1.85225e-49
-4.50035e-45
-2.82295e-47
-4.79466e-43
-3.4641e-45
-4.2482e-41
-3.50924e-43
-3.18225e-39
-2.98565e-41
-2.03831e-37
-2.15978e-39
-7.13307e-36
-8.16115e-38
-3.70742e-34
-4.53355e-36
-1.38051e-32
-1.9514e-34
-5.01011e-31
-7.71223e-33
-1.61931e-29
-2.70584e-31
-4.59269e-28
-8.31426e-30
-1.14217e-26
-2.23529e-28
-2.48597e-25
-5.24656e-27
-4.73978e-24
-1.07554e-25
-7.91625e-23
-1.92448e-24
-1.18451e-21
-3.09644e-23
-1.88415e-20
-4.12869e-22
-6.699e-21
-4.35397e-19
-8.07381e-60
-1.88185e-62
-7.04677e-57
-1.84987e-59
-2.83898e-54
-8.22812e-57
-7.44566e-52
-2.36679e-54
-1.42792e-49
-4.98325e-52
-2.12967e-47
-8.174e-50
-2.56828e-45
-1.08553e-47
-2.56859e-43
-1.19666e-45
-2.16948e-41
-1.11446e-43
-1.56526e-39
-8.86715e-42
-9.2919e-38
-6.07913e-40
-4.6777e-36
-3.5686e-38
-2.02597e-34
-1.73555e-36
-8.0483e-33
-7.72187e-35
-2.84176e-31
-3.04826e-33
-8.80013e-30
-1.0535e-31
-2.38779e-28
-3.18385e-30
-5.66709e-27
-8.39623e-29
-1.17738e-25
-1.93232e-27
-2.14137e-24
-3.87775e-26
-3.50404e-23
-7.00688e-25
-6.17277e-22
-1.04654e-23
-1.90407e-22
-1.65658e-20
-1.88211e-62
-1.01574e-65
-1.85228e-59
-1.29853e-62
-8.25049e-57
-7.06637e-60
-2.37669e-54
-2.44411e-57
-5.01188e-52
-6.1441e-55
-8.23496e-50
-1.19837e-52
-1.09567e-47
-1.8866e-50
-1.21035e-45
-2.45887e-48
-1.12982e-43
-2.70057e-46