/*--------------------------------*- C++ -*----------------------------------*\
| =========                 |                                                 |
| \\      /  F ield         | OpenFOAM: The Open Source CFD Toolbox           |
|  \\    /   O peration     | Version:  2012                                  |
|   \\  /    A nd           | Website:  www.openfoam.com                      |
|    \\/     M anipulation  |                                                 |
\*---------------------------------------------------------------------------*/
FoamFile
{
    version     2.0;
    format      ascii;
    class       volScalarField;
    location    "0.25";
    object      p_rgh;
}
// * * * * * * * * * * * * * * * * * * * * * * * * * * * * * * * * * * * * * //

dimensions      [1 -1 -2 0 0 0 0];


internalField   nonuniform List<scalar> 
2268
(
1629.93
1636.19
1638.3
1635.23
1627.13
1616.26
1604.49
1592.65
1581.17
1570.55
1561.52
1555.13
1552.86
1556.7
1569.25
1594.09
1633.94
1689.22
1754.55
1812.87
1832.83
1812.62
1857.71
1629.08
1635.24
1637.31
1634.18
1626.06
1615.21
1603.45
1591.58
1580.03
1569.29
1560.08
1553.48
1550.93
1554.37
1566.04
1588.03
1623.8
1675.01
1739.4
1801.78
1829.36
1800.28
1856.25
1627.38
1633.34
1635.34
1632.08
1623.92
1613.12
1601.38
1589.45
1577.74
1566.75
1557.19
1550.14
1547.05
1549.77
1560.45
1581.48
1614.53
1660.39
1716.48
1774.02
1815.91
1828
1884.76
1624.87
1630.56
1632.42
1628.98
1620.76
1610.01
1598.29
1586.27
1574.31
1562.92
1552.84
1545.13
1541.22
1542.91
1552.29
1571.47
1601.9
1643.75
1694
1746.13
1796.61
1841.39
1920.48
1621.59
1626.94
1628.62
1624.91
1616.61
1605.92
1594.21
1582.03
1569.72
1557.8
1547
1538.4
1533.4
1533.76
1541.46
1558.46
1586.05
1624.28
1670.87
1720.15
1772.87
1830.72
1919.42
1617.58
1622.59
1623.98
1619.95
1611.56
1600.91
1589.16
1576.74
1563.97
1551.35
1539.64
1529.89
1523.51
1522.2
1527.86
1542.35
1566.9
1601.54
1644.67
1691.3
1741.25
1795.93
1872.42
1612.92
1617.57
1618.54
1614.11
1605.63
1595.03
1583.19
1570.45
1557.08
1543.6
1530.77
1519.63
1511.56
1508.22
1511.45
1523.02
1544.15
1574.97
1614.05
1656.66
1699.16
1737.88
1763.86
1607.68
1611.94
1612.28
1607.37
1598.84
1588.29
1576.34
1563.17
1549.09
1534.6
1520.48
1507.74
1497.71
1492.01
1492.4
1500.6
1517.79
1544.32
1578.66
1615.34
1645.3
1660.79
1585.88
15.7986
15.749
15.6765
15.5934
15.4995
15.4003
15.3032
15.2134
15.1333
15.0634
15.0031
14.9514
14.9073
14.8701
14.8394
14.8149
14.7966
14.7844
14.7783
15.8055
15.7522
15.6783
15.5953
15.5004
15.3999
15.3019
15.2116
15.1314
15.0617
15.0015
14.95
14.9059
14.8688
14.8381
14.8136
14.7953
14.7832
14.7771
15.8205
15.7585
15.6816
15.5994
15.5024
15.3991
15.2992
15.208
15.1276
15.0581
14.9983
14.9471
14.9033
14.8662
14.8356
14.8111
14.7927
14.7805
14.7743
15.8437
15.7664
15.6858
15.606
15.5055
15.3977
15.2949
15.2024
15.1219
15.0528
14.9935
14.9428
14.8993
14.8624
14.8318
14.8072
14.7887
14.7764
14.7702
15.8757
15.7728
15.6898
15.6162
15.51
15.3954
15.2888
15.1947
15.1141
15.0456
14.9871
14.937
14.8941
14.8573
14.8267
14.802
14.7833
14.7708
14.7645
15.9313
15.7731
15.6922
15.632
15.5159
15.3918
15.2803
15.1846
15.1041
15.0365
14.9792
14.9299
14.8875
14.8511
14.8204
14.7954
14.7765
14.7638
14.7574
16.0151
15.7724
15.6918
15.6573
15.523
15.3862
15.2691
15.1717
15.0917
15.0255
14.9696
14.9215
14.8798
14.8435
14.8127
14.7875
14.7682
14.7552
14.7487
16.0733
15.7701
15.6891
15.6983
15.5303
15.3774
15.2544
15.1556
15.0769
15.0127
14.9587
14.9119
14.8708
14.8347
14.8038
14.7782
14.7584
14.7451
14.7384
1598.63
1602.16
1601.43
1595.78
1587.07
1576.47
1564.16
1550.14
1534.71
1518.36
1501.87
1486.19
1472.56
1462.53
1457.77
1459.95
1470.27
1488.93
1515.15
1540.25
1542.81
1488.59
1130.09
1584.21
1586.7
1584.42
1577.63
1568.35
1557.12
1543.63
1527.74
1509.64
1489.76
1468.74
1447.39
1426.85
1408.79
1394.74
1386.42
1384.74
1387.56
1400.2
1404.99
1383.79
1309.17
1130.35
1568.36
1569.67
1565.46
1557.35
1547.23
1534.85
1519.53
1501.01
1479.36
1454.86
1428.04
1399.55
1370.59
1342.61
1316.26
1293.31
1278.05
1278.24
1278.17
1279.98
1280.43
1251.18
1188.87
1551.5
1551.25
1544.89
1535.36
1524.08
1509.97
1492.17
1470.38
1444.58
1414.85
1381.67
1345.09
1305.38
1261.24
1210.91
1148.49
1055.64
960.672
912.104
964.518
1102.36
1138.27
1136.76
1534.23
1531.52
1523
1512.26
1499.67
1483.34
1462.74
1437.64
1407.71
1372.38
1331.63
1282.95
1219.83
1070.92
798.619
487.073
254.062
144.371
84.9215
109.902
191.374
371.839
637.247
1517.1
1511.85
1501.68
1489.87
1475.76
1456.38
1432.55
1403.59
1368.28
1315.64
1202.57
956.858
602.122
175.232
-0.0997066
-1.21922
-0.92381
-0.401145
0.248565
0.459592
0.136606
-0.692993
16.3898
1500.98
1492.3
1479.77
1466.53
1450.68
1418.07
1352.1
1227.23
1012.19
662.882
326.67
7.45039
-2.1319
-1.99542
-1.75652
-1.70646
-1.49591
-1.04854
-0.335258
0.0825556
-0.998127
-2.82819
-3.95652
1438.09
1154.96
1127.9
1072.09
942.826
720.395
477.09
250.039
39.6592
-2.26407
-2.65829
-2.55654
-2.54505
-2.45174
-2.29848
-2.15033
-2.00883
0.283912
1.54173
0.553766
-0.635834
-4.31797
-5.13856
491.28
139.628
113.676
78.0544
15.1621
-2.26811
-2.47448
-2.55169
-2.53091
-2.57288
-2.69818
-2.78254
-2.84217
-2.86507
-2.8212
-2.70902
-2.42814
1.22114
0.64333
-0.304338
-2.58242
-5.2862
-5.41892
-2.54465
-2.52857
-2.52351
-2.52012
-2.48194
-2.46853
-2.51188
-2.56006
-2.60661
-2.69154
-2.83379
-3.01763
-3.00211
-2.80497
-3.35257
-3.36509
-2.4793
0.95176
0.216505
-1.81162
-4.99524
-5.31604
-5.32126
-2.55132
-2.52964
-2.53503
-2.54111
-2.54041
-2.54737
-2.57776
-2.62752
-2.70517
-2.84275
-3.0391
-3.06097
-2.76603
-3.17172
-3.68919
-3.93053
-2.41621
0.431531
-0.719416
-4.52681
-5.13481
-5.2099
-5.25079
-2.58423
-2.56981
-2.57732
-2.58978
-2.60338
-2.62663
-2.66618
-2.72542
-2.82566
-2.99835
-3.23991
-2.57544
-3.0704
-3.51022
-4.1942
-4.19563
-1.02125
-0.115707
-3.6235
-4.97039
-5.07823
-5.15995
-5.24733
-2.61888
-2.62125
-2.62867
-2.6447
-2.66773
-2.7017
-2.75081
-2.82074
-2.93643
-3.12652
-3.35189
-3.25241
-3.14403
-3.83191
-4.19098
-2.03374
-1.04274
-3.03507
-4.80364
-4.93843
-5.05017
-5.16396
-5.29609
-2.65148
-2.6623
-2.67421
-2.69624
-2.72728
-2.77011
-2.82789
-2.90656
-3.02699
-3.21244
-3.4374
-3.79947
-3.26932
-2.86497
-2.80011
-1.84432
-3.69674
-4.67047
-4.79846
-4.93389
-5.07596
-5.23381
-5.41566
-2.68364
-2.69939
-2.71477
-2.74182
-2.77922
-2.82907
-2.89377
-2.97796
-3.09491
-3.26154
-3.48466
-3.76018
-4.02072
-2.98394
-3.16326
-3.88429
-4.5605
-4.66147
-4.80608
-4.97286
-5.15476
-5.35918
-5.59191
-2.7119
-2.72916
-2.74768
-2.77855
-2.82083
-2.87604
-2.94598
-3.03327
-3.14595
-3.29414
-3.48247
-3.70447
-3.92721
-4.12366
-4.19598
-4.40197
-4.52701
-4.67282
-4.84802
-5.04697
-5.26852
-5.52109
-5.81028
-2.73322
-2.75001
-2.7712
-2.80482
-2.85057
-2.90961
-2.98352
-3.07107
-3.18224
-3.31923
-3.48416
-3.67164
-3.86467
-4.04544
-4.21007
-4.36689
-4.52914
-4.70624
-4.90806
-5.13785
-5.40002
-5.7029
-6.05569
-2.74543
-2.76109
-2.78415
-2.81958
-2.86747
-2.92856
-3.00346
-3.09312
-3.20208
-3.33216
-3.4838
-3.65289
-3.83029
-4.00732
-4.18137
-4.35653
-4.5416
-4.74118
-4.96979
-5.23126
-5.53289
-5.88491
-6.3012
-2.7471
-2.76169
-2.78577
-2.8223
-2.87125
-2.93304
-3.00834
-3.09818
-3.20484
-3.32987
-3.47342
-3.6328
-3.80259
-3.97786
-4.15784
-4.3459
-4.54782
-4.76924
-5.02181
-5.31239
-5.65014
-6.04696
-6.51907
-2.73767
-2.75125
-2.77579
-2.81277
-2.86205
-2.92385
-2.99868
-3.08744
-3.19161
-3.31245
-3.45023
-3.60342
-3.76888
-3.94393
-4.12854
-4.32572
-4.54088
-4.7805
-5.05306
-5.36816
-5.73608
-6.16965
-6.68812
-2.71686
-2.72952
-2.75421
-2.79113
-2.84015
-2.90133
-2.97504
-3.06203
-3.16346
-3.28046
-3.41351
-3.56194
-3.72408
-3.89868
-4.08629
-4.28988
-4.51463
-4.76727
-5.05559
-5.38869
-5.77884
-6.23813
-6.78698
-2.68452
-2.69666
-2.72105
-2.7575
-2.80578
-2.86585
-2.93794
-3.02269
-3.1211
-3.23426
-3.36287
-3.50689
-3.66564
-3.83875
-4.0272
-4.23398
-4.46412
-4.72418
-5.02195
-5.36691
-5.77078
-6.24535
-6.80206
-2.64091
-2.65266
-2.67647
-2.7121
-2.75923
-2.81776
-2.88782
-2.96991
-3.06494
-3.17397
-3.29789
-3.43708
-3.59157
-3.7616
-3.94844
-4.15503
-4.38611
-4.64792
-4.9481
-5.29607
-5.7029
-6.18074
-6.7481
-2.58639
-2.59772
-2.62076
-2.65528
-2.70092
-2.75752
-2.82513
-2.90416
-2.99539
-3.09984
-3.21849
-3.35206
-3.50104
-3.66606
-3.84857
-4.05138
-4.27884
-4.53672
-4.83233
-5.17491
-5.57556
-6.04756
-6.61283
-2.5214
-2.53224
-2.55437
-2.58752
-2.63136
-2.68567
-2.75045
-2.82601
-2.91298
-3.01231
-3.12499
-3.25195
-3.39395
-3.55189
-3.72729
-3.92271
-4.14203
-4.39043
-4.67467
-5.00356
-5.388
-5.84216
-6.39034
-2.44651
-2.45681
-2.47786
-2.50943
-2.55117
-2.60286
-2.66444
-2.7361
-2.81835
-2.912
-3.01801
-3.13734
-3.27092
-3.4198
-3.58541
-3.77001
-3.97687
-4.21048
-4.47682
-4.7838
-5.14146
-5.56358
-6.07454
-2.36237
-2.37208
-2.39192
-2.42169
-2.46105
-2.50979
-2.5678
-2.63517
-2.71227
-2.79974
-2.89841
-3.00922
-3.13314
-3.27119
-3.4247
-3.59549
-3.78615
-4.0003
-4.24288
-4.5205
-4.84159
-5.21803
-5.67099
-2.26969
-2.27875
-2.29725
-2.32503
-2.36177
-2.40726
-2.46136
-2.52408
-2.59564
-2.67648
-2.7673
-2.86889
-2.98214
-3.10801
-3.2476
-3.40226
-3.57387
-3.76503
-3.9794
-4.22198
-4.4991
-4.81957
-5.1986
-2.16916
-2.17753
-2.19458
-2.2202
-2.2541
-2.29608
-2.34598
-2.40374
-2.46943
-2.54333
-2.62591
-2.7178
-2.81971
-2.93246
-3.05687
-3.19388
-3.3446
-3.51061
-3.69421
-3.89861
-4.1278
-4.38708
-4.68488
-2.06148
-2.06911
-2.08464
-2.10798
-2.13886
-2.17713
-2.22258
-2.27511
-2.33468
-2.4014
-2.47555
-2.5575
-2.64776
-2.7469
-2.85548
-2.97401
-3.10298
-3.243
-3.39509
-3.56072
-3.74169
-3.93998
-4.15807
-1.94733
-1.95419
-1.96814
-1.98911
-2.01688
-2.05127
-2.0921
-2.13921
-2.19249
-2.25191
-2.31754
-2.38954
-2.46814
-2.55367
-2.64637
-2.74638
-2.85364
-2.968
-3.0894
-3.21786
-3.35334
-3.49519
-3.64169
-1.82737
-1.83345
-1.8458
-1.86437
-1.88896
-1.91941
-1.95552
-1.99711
-2.044
-2.09606
-2.15321
-2.21539
-2.28262
-2.35491
-2.43223
-2.51436
-2.6008
-2.69085
-2.78365
-2.87815
-2.97297
-3.06571
-3.15212
-1.70228
-1.70758
-1.71833
-1.7345
-1.75591
-1.78241
-1.8138
-1.84986
-1.89037
-1.93512
-1.9839
-2.03652
-2.0928
-2.15251
-2.21532
-2.28073
-2.34791
-2.41576
-2.4829
-2.54765
-2.6078
-2.65997
-2.69877
-1.57275
-1.57727
-1.58645
-1.60027
-1.61855
-1.64117
-1.66791
-1.69853
-1.73276
-1.77035
-1.81099
-1.8544
-1.90024
-1.94812
-1.99751
-2.04767
-2.09752
-2.14572
-2.19062
-2.23022
-2.26198
-2.28219
-2.2853
-1.43957
-1.44334
-1.451
-1.46253
-1.47777
-1.49661
-1.51884
-1.54418
-1.57236
-1.60304
-1.63588
-1.67049
-1.70648
-1.74335
-1.78046
-1.81692
-1.85153
-1.88281
-1.90901
-1.92808
-1.93748
-1.93366
-1.91159
-1.30343
-1.30649
-1.31269
-1.32203
-1.33434
-1.34954
-1.36743
-1.38773
-1.41014
-1.43428
-1.45975
-1.48613
-1.51295
-1.5397
-1.56569
-1.59001
-1.61145
-1.62849
-1.63943
-1.64233
-1.63487
-1.61398
-1.57551
-1.16431
-1.16672
-1.17151
-1.17877
-1.1883
-1.20005
-1.21381
-1.22935
-1.24633
-1.26438
-1.28305
-1.30187
-1.32037
-1.33801
-1.35414
-1.3679
-1.37819
-1.3836
-1.38254
-1.37328
-1.35387
-1.32184
-1.27406
-1.02223
-1.02404
-1.0275
-1.03278
-1.03968
-1.04814
-1.058
-1.06902
-1.08092
-1.0933
-1.10572
-1.11771
-1.12876
-1.13837
-1.14595
-1.15079
-1.15192
-1.14816
-1.13814
-1.12039
-1.09336
-1.05521
-1.00376
-0.88032
-0.881596
-0.883799
-0.887188
-0.891557
-0.896866
-0.902963
-0.909656
-0.916679
-0.923683
-0.930249
-0.935922
-0.940232
-0.94271
-0.942866
-0.940124
-0.933754
-0.922831
-0.906284
-0.882997
-0.851845
-0.811577
-0.760865
-0.743297
-0.744105
-0.745164
-0.746792
-0.748784
-0.751096
-0.753605
-0.756151
-0.758513
-0.760396
-0.761444
-0.761259
-0.759426
-0.755537
-0.74918
-0.739917
-0.727228
-0.710478
-0.688945
-0.661918
-0.628763
-0.588877
-0.54173
-0.603981
-0.60447
-0.604556
-0.60458
-0.604375
-0.603897
-0.603053
-0.60172
-0.599734
-0.596882
-0.592909
-0.587524
-0.580408
-0.571229
-0.559649
-0.54532
-0.527877
-0.506938
-0.482137
-0.453198
-0.419992
-0.382542
-0.341088
-0.43743
-0.438086
-0.437197
-0.435566
-0.433125
-0.429858
-0.425702
-0.420583
-0.414414
-0.407093
-0.398501
-0.3885
-0.376928
-0.363589
-0.348265
-0.330736
-0.310814
-0.288385
-0.263451
-0.236185
-0.206973
-0.176405
-0.145282
456.162
505.862
310.909
16.2086
875.242
748.986
612.958
547.941
1082.92
985.44
908.699
878.156
1096.22
1056.51
1023.96
1007.2
895.02
1079.14
1077
1074.18
54.9067
136.308
234.38
346.104
-4.16757
-4.12144
-3.70894
-3.21588
-5.23654
-5.19049
-5.30632
-5.2313
-5.40504
-5.44978
-5.46341
-5.5365
-5.33925
-5.37606
-5.43536
-5.51167
-5.30818
-5.36284
-5.43478
-5.52979
-5.33714
-5.40769
-5.49394
-5.59406
-5.4172
-5.50808
-5.61558
-5.73686
-5.57443
-5.69208
-5.82991
-5.98676
-5.79176
-5.93918
-6.10993
-6.3031
-6.06001
-6.24291
-6.44901
-6.67422
-6.36863
-6.60086
-6.86211
-7.15311
-6.68081
-6.96473
-7.29024
-7.67782
-6.95169
-7.27034
-7.63615
-8.04858
-7.16218
-7.50572
-7.89004
-8.32688
-7.28786
-7.64694
-8.04634
-8.50087
-7.31176
-7.67101
-8.06203
-8.50276
-7.2572
-7.61623
-8.01107
-8.45786
-7.12099
-7.48117
-7.87987
-8.32816
-6.88841
-7.24567
-7.64596
-8.09745
-6.54137
-6.8794
-7.2608
-7.68823
-6.08098
-6.37739
-6.70992
-7.0731
-5.53302
-5.77108
-6.03298
-6.30943
-4.93692
-5.11148
-5.29826
-5.49028
-4.33202
-4.4479
-4.56773
-4.68763
-3.74854
-3.81559
-3.88132
-3.94379
-3.20528
-3.23453
-3.25933
-3.27869
-2.71148
-2.71306
-2.70864
-2.69769
-2.26944
-2.25204
-2.22813
-2.19758
-1.87722
-1.8481
-1.81257
-1.77089
-1.53066
-1.49554
-1.45456
-1.40818
-1.22477
-1.18795
-1.1462
-1.0999
-0.954597
-0.919108
-0.879807
-0.836895
-0.715172
-0.683129
-0.648406
-0.611129
-0.50164
-0.474338
-0.445495
-0.415199
-0.308167
-0.286498
-0.264385
-0.241984
-0.122775
-0.108799
-0.0954674
-0.0830236
28.9798
15.5994
15.6512
15.8032
15.5417
15.3573
15.2246
15.1248
15.0494
14.9896
14.9392
14.8949
14.855
14.8191
14.7877
14.7614
14.7408
14.7269
14.7199
385.631
15.3548
15.9057
16.0257
15.5426
15.3017
15.1566
15.0625
14.9983
14.9492
14.9069
14.8671
14.829
14.793
14.7602
14.7321
14.7098
14.6946
14.6869
808.517
608.039
100.14
16.4558
15.5267
15.1568
15.0393
14.9736
14.9333
14.9019
14.8705
14.8363
14.7994
14.7621
14.7268
14.6957
14.6708
14.6536
14.6448
959.472
891.038
797.589
219.924
15.1928
14.7328
14.8519
14.8548
14.8575
14.852
14.8343
14.805
14.7676
14.7269
14.687
14.6513
14.6225
14.6025
14.5923
1069.84
1042.94
1026.05
929.975
270.425
14.6877
14.7806
14.7326
14.7769
14.8061
14.803
14.776
14.7345
14.6869
14.6396
14.5972
14.563
14.5393
14.5272
725.842
1168.54
1135.86
1109.31
959.207
223.629
15.8647
14.7769
14.7186
14.7706
14.7824
14.7518
14.6999
14.6406
14.5824
14.5309
14.4897
14.4612
14.4468
18.5588
164.648
926.574
1204.2
1165.33
757.489
95.591
16.7043
14.9173
14.7747
14.7773
14.7331
14.6618
14.5848
14.5118
14.4486
14.3989
14.3649
14.3478
-5.20099
-5.1072
63.4404
933.387
1220.13
1167.45
381.958
24.3393
15.9904
14.9027
14.7942
14.7167
14.6141
14.5132
14.422
14.3454
14.2861
14.2462
14.2262
-5.61914
-5.84603
-5.54946
246.341
1145.44
1164.54
731.697
81.9141
18.6762
15.3901
14.867
14.6961
14.5469
14.4162
14.3053
14.2147
14.1461
14.1004
14.0776
-5.67575
-5.94225
-6.29432
-5.49518
804.501
1192.66
978.161
168.314
22.3036
16.1411
14.9333
14.6297
14.4381
14.2801
14.1518
14.0495
13.9731
13.9226
13.8977
-5.72353
-6.02881
-6.43262
-6.77649
370.978
1220.96
1084.52
317.116
25.3566
16.7987
14.9252
14.482
14.2646
14.0912
13.9525
13.8431
13.762
13.7088
13.6825
-5.79874
-6.11793
-6.49809
-6.88516
142.738
1083.77
1067
489.715
32.0708
17.107
14.7674
14.2404
14.0169
13.8414
13.7015
13.5911
13.5093
13.4557
13.4294
-5.97594
-6.31342
-6.61632
-6.90513
29.1662
981.123
1080.22
511.602
30.6517
16.9606
14.4331
13.906
13.6942
13.5292
13.3972
13.292
13.2138
13.1625
13.1372
-6.28559
-6.65616
-6.90685
-7.15386
33.8913
910.95
1092.91
441.504
26.2053
16.1703
13.9095
13.4767
13.2977
13.1571
13.0417
12.9475
12.8767
12.83
12.8069
-6.65687
-7.06815
-7.31411
-7.4446
65.4752
896.091
1045.9
325
22.9134
14.891
13.2554
12.9728
12.8414
12.7346
12.641
12.562
12.5016
12.4613
12.4413
-7.07307
-7.48355
-7.71059
-8.05291
288.036
956.727
894.885
214.922
19.4495
13.5432
12.5837
12.4284
12.347
12.2745
12.2042
12.1423
12.0938
12.0609
12.0446
-7.64619
-8.0806
-8.10701
-9.27006
661.955
973.906
704.451
98.8279
16.0963
12.4148
11.9558
11.8727
11.8335
11.7892
11.7407
11.6959
11.6596
11.6344
11.6219
-8.27465
-9.10855
-2.9898
187.442
766.971
830.791
285.063
33.8505
13.2388
11.6649
11.3607
11.3199
11.3103
11.2879
11.2592
11.2303
11.2053
11.1875
11.1786
-8.71212
-10.1141
154.767
476.793
586.268
233.406
29.1706
17.1296
11.8518
10.9984
10.7769
10.7706
10.7802
10.7776
10.7667
10.7519
10.737
10.7257
10.72
-9.00453
-10.3286
22.7945
555.51
629.145
65.4868
16.4085
11.3641
10.2779
10.181
10.1718
10.2144
10.2474
10.2649
10.2697
10.2665
10.2598
10.2537
10.2505
-9.39341
-10.6632
-12.2819
598.318
617.382
344.963
18.5307
9.58749
9.35073
9.42871
9.55798
9.65942
9.72167
9.75766
9.77445
9.77916
9.77794
9.77538
9.77388
-9.36459
-10.2633
-11.7405
480.741
646.696
671.629
28.33
8.63289
8.33211
8.63213
8.95105
9.12999
9.21751
9.26454
9.28628
9.29371
9.29449
9.2934
9.29267
-9.22153
-10.0712
-11.2175
46.5083
686.685
675.237
353.336
16.1582
7.73255
7.87278
8.41372
8.66862
8.75344
8.79275
8.80806
8.81156
8.81061
8.80902
8.80825
-9.14313
-10.2783
-10.1266
-10.8081
639.938
679.994
699.16
93.4118
9.00592
7.83974
8.15171
8.32389
8.34141
8.34254
8.33764
8.331
8.32547
8.32208
8.32097
-8.94173
-10.3046
-11.0947
-7.55652
144.84
703.024
681.053
376.519
17.9051
8.6002
8.12842
8.03976
7.94641
7.89463
7.8646
7.84674
7.83661
7.83147
7.83064
-8.49485
-9.98758
-11.9128
-11.2794
-15.2686
365.302
527.368
357.633
22.995
8.4474
7.85811
7.62895
7.48784
7.41396
7.37356
7.35204
7.34128
7.33558
7.3377
-7.75764
-9.14395
-11.3122
-11.5194
-0.880027
8.30366
86.3868
59.7442
27.7304
8.52926
7.28674
7.0302
6.93355
6.88378
6.85696
6.84388
6.83883
6.83391
6.84301
-6.82504
-7.88407
-9.51739
-9.76947
-7.65328
-9.61999
-0.514305
3.85049
9.17849
6.72649
6.3083
6.30131
6.31084
6.31553
6.31985
6.32495
6.3305
6.33148
6.34511
-5.84118
-6.51248
-7.42757
-8.20777
-7.26102
-6.30516
-2.54627
1.78752
3.61317
4.80473
5.30847
5.54541
5.66474
5.73204
5.774
5.80191
5.82105
5.83012
5.84641
-4.89886
-5.25542
-5.64129
-5.87312
-5.20075
-3.76226
-1.40247
1.2781
2.8719
3.92638
4.5104
4.84461
5.03812
5.15682
5.23278
5.28263
5.31533
5.33304
5.35086
-4.04489
-4.17144
-4.22662
-4.08462
-3.48201
-2.25377
-0.551086
1.17382
2.42393
3.30123
3.86376
4.22377
4.45471
4.60606
4.70675
4.77397
4.81805
4.84351
4.86199
-3.29943
-3.27688
-3.15222
-2.84332
-2.25076
-1.29524
-0.0886793
1.11604
2.08714
2.81368
3.32385
3.67696
3.91955
4.08674
4.20197
4.28064
4.33288
4.36418
4.3825
-2.66409
-2.55372
-2.34423
-1.99227
-1.44177
-0.689655
0.19093
1.06744
1.81961
2.41624
2.86436
3.19285
3.43008
3.60011
3.72086
3.80515
3.86201
3.8969
3.91432
-2.13084
-1.97564
-1.73559
-1.3876
-0.910431
-0.314125
0.351534
1.01052
1.59695
2.08311
2.46668
2.76056
2.98123
3.14453
3.26352
3.34829
3.4064
3.44266
3.45855
-1.68706
-1.51576
-1.27715
-0.958972
-0.55631
-0.0818956
0.431146
0.937611
1.39815
1.79206
2.11406
2.36921
2.56673
2.71677
2.82854
2.90961
2.96598
3.00164
3.01551
-1.31882
-1.14959
-0.929237
-0.651526
-0.318394
0.0586671
0.457397
0.849964
1.21185
1.52821
1.79355
2.00922
2.18023
2.31292
2.41359
2.48775
2.53996
2.57334
2.58488
-1.01293
-0.856749
-0.66316
-0.429672
-0.159723
0.137282
0.44629
0.749619
1.03159
1.28183
1.49562
1.67279
1.81589
1.92886
2.01588
2.08079
2.12696
2.15679
2.16578
-0.757779
-0.621274
-0.459376
-0.27008
-0.0572677
0.171947
0.40745
0.63788
0.853107
1.04605
1.21308
1.35348
1.46852
1.56057
1.63235
1.68644
1.72523
1.7506
1.75693
-0.543776
-0.432902
-0.303207
-0.156844
0.00380898
0.173927
0.346918
0.515576
0.673456
0.815896
0.940318
1.04599
1.13351
1.20426
1.25996
1.30227
1.33282
1.35315
1.3568
-0.361684
-0.277467
-0.183026
-0.0789235
0.0332017
0.150298
0.268319
0.382921
0.490226
0.587373
0.672715
0.745706
0.806619
0.856234
0.895572
0.925642
0.947462
0.962439
0.963623
-0.204002
-0.149275
-0.091158
-0.0286884
0.0374916
0.105785
0.174057
0.240039
0.301718
0.357607
0.406837
0.44911
0.484554
0.513566
0.536686
0.554442
0.567369
0.576933
0.575874
-0.064155
-0.0430292
-0.0229524
-0.00192284
0.0199164
0.0420782
0.0639253
0.084811
0.104187
0.121669
0.137051
0.150279
0.161414
0.170578
0.177929
0.183619
0.187651
0.19104
0.190234
)
;

boundaryField
{
    leftWall
    {
        type            fixedFluxPressure;
        gradient        uniform 0;
        value           nonuniform List<scalar> 
50
(
1629.93
1629.08
1627.38
1624.87
1621.59
1617.58
1612.92
1607.68
1598.63
1584.21
1568.36
1551.5
1534.23
1517.1
1500.98
1438.09
491.28
-2.54465
-2.55132
-2.58423
-2.61888
-2.65148
-2.68364
-2.7119
-2.73322
-2.74543
-2.7471
-2.73767
-2.71686
-2.68452
-2.64091
-2.58639
-2.5214
-2.44651
-2.36237
-2.26969
-2.16916
-2.06148
-1.94733
-1.82737
-1.70228
-1.57275
-1.43957
-1.30343
-1.16431
-1.02223
-0.88032
-0.743297
-0.603981
-0.43743
)
;
    }
    rightWall
    {
        type            fixedFluxPressure;
        gradient        uniform 0;
        value           nonuniform List<scalar> 
50
(
14.7783
14.7771
14.7743
14.7702
14.7645
14.7574
14.7487
14.7384
14.7199
14.6869
14.6448
14.5923
14.5272
14.4468
14.3478
14.2262
14.0776
13.8977
13.6825
13.4294
13.1372
12.8069
12.4413
12.0446
11.6219
11.1786
10.72
10.2505
9.77388
9.29267
8.80825
8.32097
7.83064
7.3377
6.84301
6.34511
5.84641
5.35086
4.86199
4.3825
3.91432
3.45855
3.01551
2.58488
2.16578
1.75693
1.3568
0.963623
0.575874
0.190234
)
;
    }
    lowerWall
    {
        type            fixedFluxPressure;
        gradient        uniform 0;
        value           nonuniform List<scalar> 
62
(
1629.93
1636.19
1638.3
1635.23
1627.13
1616.26
1604.49
1592.65
1581.17
1570.55
1561.52
1555.13
1552.86
1556.7
1569.25
1594.09
1633.94
1689.22
1754.55
1812.87
1832.83
1812.62
1857.71
1857.71
1856.25
1884.76
1920.48
1919.42
1872.42
1763.86
1585.88
456.162
505.862
310.909
16.2086
15.7986
15.8055
15.8205
15.8437
15.8757
15.9313
16.0151
16.0733
15.7986
15.749
15.6765
15.5934
15.4995
15.4003
15.3032
15.2134
15.1333
15.0634
15.0031
14.9514
14.9073
14.8701
14.8394
14.8149
14.7966
14.7844
14.7783
)
;
    }
    atmosphere
    {
        type            totalPressure;
        rho             rho;
        psi             none;
        gamma           1;
        p0              uniform 0;
        value           nonuniform List<scalar> 
46
(
-0.329539
-0.330942
-0.329382
-0.326822
-0.323187
-0.318467
-0.312628
-0.305629
-0.297434
-0.288013
-0.27734
-0.265383
-0.252091
-0.237378
-0.221128
-0.203231
-0.183631
-0.162382
-0.139687
-0.115933
-0.0917358
-0.0680053
-0.0456909
-0.0307538
-0.0222926
-0.0148819
-0.0087259
-0.0018802
0
0
0
0
0
0
0
0
0
0
0
0
0
0
0
0
0
0
)
;
    }
    defaultFaces
    {
        type            empty;
    }
}


// ************************************************************************* //
