# vtk DataFile Version 2.0
gauge_2
ASCII
DATASET POLYDATA
POINTS 43 double
0.2 0.0359992 0.005
0.2 0.0419991 0.005
0.2 0.047999 0.005
0.2 0.0607609 0.005
0.2 0.0735228 0.005
0.2 0.0862847 0.005
0.2 0.0990467 0.005
0.2 0.111809 0.005
0.2 0.124571 0.005
0.2 0.137332 0.005
0.2 0.150094 0.005
0.2 0.162856 0.005
0.2 0.175618 0.005
0.2 0.18838 0.005
0.2 0.201142 0.005
0.2 0.213904 0.005
0.2 0.226666 0.005
0.2 0.239428 0.005
0.2 0.25219 0.005
0.2 0.264952 0.005
0.2 0.277714 0.005
0.2 0.290476 0.005
0.2 0.303238 0.005
0.2 0.315999 0.005
0.2 0.328761 0.005
0.2 0.341523 0.005
0.2 0.354285 0.005
0.2 0.367047 0.005
0.2 0.379809 0.005
0.2 0.392571 0.005
0.2 0.405333 0.005
0.2 0.418095 0.005
0.2 0.430857 0.005
0.2 0.443619 0.005
0.2 0.456381 0.005
0.2 0.469143 0.005
0.2 0.481905 0.005
0.2 0.494666 0.005
0.2 0.507428 0.005
0.2 0.52019 0.005
0.2 0.532952 0.005
0.2 0.545714 0.005
0.2 0.558476 0.005
POINT_DATA 43
 FIELD attributes 1
alpha.water 1 43 float
1 1 1 1 0.77106 0.283518 0.0124581 1.69307e-05 2.34613e-05 6.7597e-06 1.00719e-08 4.26252e-08 4.83814e-08 1.54368e-08 2.22775e-12 7.14776e-13 1.64767e-13 3.58351e-14 7.29374e-15 5.48495e-16 7.52633e-17 1.71325e-17 3.83639e-18 7.12473e-19 1.07974e-19 1.48666e-20 1.99145e-21 2.86095e-22 5.18486e-23 9.8456e-24 1.7378e-24 2.71138e-25 3.66349e-26 4.3737e-27 4.84215e-28 5.12047e-29 5.08772e-30 4.48354e-31 3.20601e-32 1.67629e-33 5.85252e-35 1.29888e-36 1.95145e-38
