/*--------------------------------*- C++ -*----------------------------------*\
| =========                 |                                                 |
| \\      /  F ield         | OpenFOAM: The Open Source CFD Toolbox           |
|  \\    /   O peration     | Version:  2012                                  |
|   \\  /    A nd           | Website:  www.openfoam.com                      |
|    \\/     M anipulation  |                                                 |
\*---------------------------------------------------------------------------*/
FoamFile
{
    version     2.0;
    format      ascii;
    class       volScalarField;
    location    "1420";
    object      minKappa;
}
// * * * * * * * * * * * * * * * * * * * * * * * * * * * * * * * * * * * * * //

dimensions      [0 0 0 0 0 0 0];


internalField   nonuniform List<scalar> 
20400
(
3.39631e-12
3.39631e-12
3.73657e-12
1.05278e-11
2.80366e-11
5.22214e-11
8.07339e-11
1.12168e-10
1.44783e-10
1.7805e-10
2.11285e-10
2.44239e-10
2.77069e-10
3.09578e-10
3.41923e-10
3.74106e-10
4.06178e-10
4.38165e-10
4.70084e-10
5.0191e-10
5.33581e-10
5.65065e-10
5.96372e-10
6.27506e-10
6.58457e-10
6.89214e-10
7.19768e-10
7.50117e-10
7.80266e-10
8.1023e-10
8.40025e-10
8.69657e-10
8.99079e-10
9.28113e-10
9.56579e-10
9.84754e-10
1.01322e-09
1.04159e-09
1.06953e-09
1.09723e-09
1.12464e-09
1.15179e-09
1.17873e-09
1.20548e-09
1.23206e-09
1.2585e-09
1.28482e-09
1.311e-09
1.33705e-09
1.36298e-09
1.38877e-09
1.41443e-09
1.43996e-09
1.46539e-09
1.49071e-09
1.516e-09
1.54121e-09
1.56633e-09
1.59114e-09
1.61641e-09
1.64176e-09
1.66692e-09
1.69213e-09
1.71722e-09
1.74243e-09
1.76753e-09
1.7926e-09
1.81754e-09
1.84244e-09
1.86726e-09
1.89204e-09
1.9168e-09
1.94154e-09
1.96627e-09
1.991e-09
2.01574e-09
2.04048e-09
2.06523e-09
2.08998e-09
2.11476e-09
2.13955e-09
2.16437e-09
2.18921e-09
2.21399e-09
2.23861e-09
2.26293e-09
2.28745e-09
2.31198e-09
2.33628e-09
2.36061e-09
2.38486e-09
2.40903e-09
2.43293e-09
2.45648e-09
2.48002e-09
2.50358e-09
2.52696e-09
2.55015e-09
2.57295e-09
2.59538e-09
2.61735e-09
2.63883e-09
2.65975e-09
2.68012e-09
2.69978e-09
2.71894e-09
2.7373e-09
2.75533e-09
2.77214e-09
2.78836e-09
2.80254e-09
2.81462e-09
2.82368e-09
2.83161e-09
2.83801e-09
2.84202e-09
2.84434e-09
2.84245e-09
2.83795e-09
2.83093e-09
2.82136e-09
2.80889e-09
2.7931e-09
2.77418e-09
2.75077e-09
2.72322e-09
2.6898e-09
2.65111e-09
2.60547e-09
2.55576e-09
2.50491e-09
2.45593e-09
2.40918e-09
2.36359e-09
2.31417e-09
2.25884e-09
2.19973e-09
2.13538e-09
2.06794e-09
1.99676e-09
1.92321e-09
1.84681e-09
1.76802e-09
1.68607e-09
1.59767e-09
1.50862e-09
1.41192e-09
1.30767e-09
1.20179e-09
1.09264e-09
9.82703e-10
8.6693e-10
7.40793e-10
6.07378e-10
4.8778e-10
4.01368e-10
3.13056e-10
2.15015e-10
1.20988e-10
6.74488e-11
6.74488e-11
1.15273e-10
2.1161e-10
3.1248e-10
4.13817e-10
5.13008e-10
6.11488e-10
7.06811e-10
8.01227e-10
8.91555e-10
9.8094e-10
1.06622e-09
1.14993e-09
1.23016e-09
1.3082e-09
1.38276e-09
1.45473e-09
1.52337e-09
1.58917e-09
1.65188e-09
1.71153e-09
1.76836e-09
1.82195e-09
1.87298e-09
1.92059e-09
1.96587e-09
2.00774e-09
2.04736e-09
2.08401e-09
2.11825e-09
2.14986e-09
2.17901e-09
2.20578e-09
2.23027e-09
2.25255e-09
2.27267e-09
2.29078e-09
2.3069e-09
2.32117e-09
2.33362e-09
2.34439e-09
2.35351e-09
2.3611e-09
2.36726e-09
2.37206e-09
2.37562e-09
2.37795e-09
2.37927e-09
2.37862e-09
2.37683e-09
2.37417e-09
2.37069e-09
2.36645e-09
2.36151e-09
2.35591e-09
2.34982e-09
2.3432e-09
2.33618e-09
2.32867e-09
2.32088e-09
2.31272e-09
2.30435e-09
2.29569e-09
2.28687e-09
2.27786e-09
2.26875e-09
2.25952e-09
2.25025e-09
2.24092e-09
2.23158e-09
2.22226e-09
2.21295e-09
2.20371e-09
2.19451e-09
2.18545e-09
2.17642e-09
2.16759e-09
2.15882e-09
2.15027e-09
2.14183e-09
2.13359e-09
2.12551e-09
2.11761e-09
2.10991e-09
2.1024e-09
2.0951e-09
2.08801e-09
2.08114e-09
2.07448e-09
2.06806e-09
2.06185e-09
2.05588e-09
2.05014e-09
2.04463e-09
2.03935e-09
2.03431e-09
2.02949e-09
2.02492e-09
2.02057e-09
2.01645e-09
2.01256e-09
2.00889e-09
2.00544e-09
2.00222e-09
1.99922e-09
1.99645e-09
1.99388e-09
1.99154e-09
1.98941e-09
1.98749e-09
1.98579e-09
1.98428e-09
1.98297e-09
1.98185e-09
1.98093e-09
1.98017e-09
1.97962e-09
1.97921e-09
1.979e-09
1.97893e-09
1.97893e-09
1.97906e-09
1.97932e-09
1.97973e-09
1.98029e-09
1.98099e-09
1.98185e-09
1.98286e-09
1.98397e-09
1.98523e-09
1.9866e-09
1.98812e-09
1.98975e-09
1.99148e-09
1.99333e-09
1.99528e-09
1.99733e-09
1.99947e-09
2.00172e-09
2.00401e-09
2.00646e-09
2.00893e-09
2.01151e-09
2.01414e-09
2.01687e-09
2.01964e-09
2.02249e-09
2.02539e-09
2.02836e-09
2.03137e-09
2.03444e-09
2.03755e-09
2.04072e-09
2.04392e-09
2.04716e-09
2.05044e-09
2.05375e-09
2.05709e-09
2.06046e-09
2.06386e-09
2.06728e-09
2.07072e-09
2.07419e-09
2.07766e-09
2.08115e-09
2.08466e-09
2.08816e-09
2.09168e-09
2.09518e-09
2.0987e-09
2.10221e-09
2.10572e-09
2.10923e-09
2.11274e-09
2.11624e-09
2.11975e-09
2.12324e-09
2.12673e-09
2.1302e-09
2.13367e-09
2.13711e-09
2.14055e-09
2.14397e-09
2.14738e-09
2.15076e-09
2.15413e-09
2.15747e-09
2.16081e-09
2.16411e-09
2.1674e-09
2.17066e-09
2.17391e-09
2.17712e-09
2.18032e-09
2.18349e-09
2.18664e-09
2.18976e-09
2.19286e-09
2.19593e-09
2.19897e-09
2.202e-09
2.20499e-09
2.20796e-09
2.2109e-09
2.21382e-09
2.21671e-09
2.21957e-09
2.22241e-09
2.22522e-09
2.22801e-09
2.23076e-09
2.23349e-09
2.2362e-09
2.23887e-09
2.24152e-09
2.24414e-09
2.24674e-09
2.24931e-09
2.25185e-09
2.25436e-09
2.25685e-09
2.25931e-09
2.26175e-09
2.26416e-09
2.26654e-09
2.2689e-09
2.27122e-09
2.27353e-09
2.27581e-09
2.27806e-09
2.28028e-09
2.28248e-09
2.28466e-09
2.28681e-09
2.28893e-09
2.29103e-09
2.29311e-09
2.29516e-09
2.29719e-09
2.29919e-09
2.30117e-09
2.30313e-09
2.30507e-09
2.30698e-09
2.30887e-09
2.31074e-09
2.31259e-09
2.31441e-09
2.31622e-09
2.318e-09
2.31976e-09
2.32151e-09
2.32323e-09
2.32493e-09
2.32662e-09
2.32828e-09
2.32992e-09
2.33155e-09
2.33316e-09
2.33475e-09
2.33632e-09
2.33787e-09
2.33941e-09
2.34092e-09
2.34242e-09
2.34391e-09
2.34537e-09
2.34682e-09
2.34825e-09
2.34967e-09
2.35107e-09
2.35245e-09
2.35382e-09
2.35517e-09
2.3565e-09
2.35782e-09
2.35912e-09
2.36041e-09
2.36169e-09
2.36295e-09
2.36419e-09
2.36542e-09
2.36663e-09
2.36783e-09
2.36902e-09
2.37019e-09
2.37135e-09
2.3725e-09
2.37363e-09
2.37475e-09
2.37586e-09
2.37695e-09
2.37803e-09
2.3791e-09
2.38016e-09
2.3812e-09
2.38224e-09
2.38326e-09
2.38427e-09
2.38526e-09
2.38625e-09
2.38723e-09
2.38819e-09
2.38914e-09
2.39009e-09
2.39102e-09
2.39194e-09
2.39285e-09
2.39375e-09
2.39464e-09
2.39551e-09
2.39638e-09
2.39724e-09
2.39809e-09
2.39892e-09
2.39975e-09
2.40056e-09
2.40137e-09
2.40216e-09
2.40295e-09
2.40372e-09
2.40448e-09
2.40524e-09
2.40598e-09
2.40671e-09
2.40742e-09
2.40814e-09
2.40883e-09
2.40952e-09
2.41018e-09
2.41086e-09
2.41148e-09
2.41214e-09
2.41273e-09
2.41337e-09
2.41391e-09
2.41458e-09
2.41505e-09
2.41589e-09
2.41633e-09
3.41896e-12
7.74058e-12
2.52353e-11
5.67215e-11
1.00076e-10
1.50826e-10
2.07817e-10
2.6801e-10
3.29874e-10
3.9287e-10
4.55365e-10
5.18283e-10
5.80588e-10
6.42577e-10
7.04109e-10
7.65278e-10
8.26091e-10
8.86559e-10
9.46718e-10
1.00642e-09
1.06556e-09
1.12417e-09
1.18225e-09
1.2398e-09
1.29682e-09
1.35328e-09
1.4092e-09
1.4646e-09
1.51949e-09
1.57391e-09
1.62788e-09
1.68141e-09
1.73444e-09
1.78671e-09
1.83828e-09
1.89006e-09
1.94173e-09
1.99284e-09
2.04363e-09
2.09397e-09
2.14387e-09
2.19336e-09
2.24241e-09
2.29106e-09
2.33931e-09
2.38718e-09
2.43469e-09
2.48185e-09
2.52868e-09
2.57522e-09
2.62148e-09
2.66751e-09
2.71331e-09
2.75895e-09
2.80437e-09
2.84975e-09
2.8948e-09
2.93975e-09
2.984e-09
3.02861e-09
3.07169e-09
3.11497e-09
3.15745e-09
3.20025e-09
3.24293e-09
3.28567e-09
3.32826e-09
3.3708e-09
3.41321e-09
3.45552e-09
3.4977e-09
3.53978e-09
3.58174e-09
3.62359e-09
3.6653e-09
3.70692e-09
3.74837e-09
3.78974e-09
3.83092e-09
3.87203e-09
3.91292e-09
3.95377e-09
3.99434e-09
4.03477e-09
4.0748e-09
4.11485e-09
4.15495e-09
4.19475e-09
4.23421e-09
4.27344e-09
4.31197e-09
4.35021e-09
4.38754e-09
4.42443e-09
4.4606e-09
4.49637e-09
4.53111e-09
4.5653e-09
4.59801e-09
4.63018e-09
4.66037e-09
4.68988e-09
4.71672e-09
4.74306e-09
4.76594e-09
4.78832e-09
4.80637e-09
4.8239e-09
4.83613e-09
4.84864e-09
4.8529e-09
4.85949e-09
4.86322e-09
4.86776e-09
4.86546e-09
4.86115e-09
4.85086e-09
4.83748e-09
4.81885e-09
4.7959e-09
4.76834e-09
4.73579e-09
4.69893e-09
4.65595e-09
4.60982e-09
4.55533e-09
4.49928e-09
4.43269e-09
4.3654e-09
4.28557e-09
4.20496e-09
4.1115e-09
4.01475e-09
3.90532e-09
3.79643e-09
3.67676e-09
3.55515e-09
3.42594e-09
3.29202e-09
3.15214e-09
3.00584e-09
2.85363e-09
2.69122e-09
2.52515e-09
2.34087e-09
2.16931e-09
1.98628e-09
1.82227e-09
1.6773e-09
1.50061e-09
1.337e-09
1.11328e-09
9.1468e-10
7.9439e-10
5.77724e-10
3.70429e-10
3.29166e-10
3.17638e-10
3.73653e-10
4.57549e-10
5.75354e-10
7.6135e-10
9.2724e-10
1.1145e-09
1.27909e-09
1.46025e-09
1.62131e-09
1.7933e-09
1.95037e-09
2.11022e-09
2.26283e-09
2.4111e-09
2.55732e-09
2.69475e-09
2.83287e-09
2.95937e-09
3.08823e-09
3.20437e-09
3.32301e-09
3.42926e-09
3.53716e-09
3.63396e-09
3.73103e-09
3.8186e-09
3.90478e-09
3.98352e-09
4.05906e-09
4.12905e-09
4.19484e-09
4.25607e-09
4.31293e-09
4.36555e-09
4.41404e-09
4.45854e-09
4.49919e-09
4.53605e-09
4.56946e-09
4.59924e-09
4.62597e-09
4.64924e-09
4.66982e-09
4.68715e-09
4.70214e-09
4.71413e-09
4.72412e-09
4.73133e-09
4.73683e-09
4.73987e-09
4.7414e-09
4.74073e-09
4.7383e-09
4.7343e-09
4.72878e-09
4.72186e-09
4.71364e-09
4.70423e-09
4.69387e-09
4.68236e-09
4.67027e-09
4.65696e-09
4.64349e-09
4.62873e-09
4.61417e-09
4.59824e-09
4.58289e-09
4.56606e-09
4.55013e-09
4.53272e-09
4.51642e-09
4.49865e-09
4.48214e-09
4.46426e-09
4.44768e-09
4.42988e-09
4.41334e-09
4.39582e-09
4.37941e-09
4.36237e-09
4.34617e-09
4.32972e-09
4.31388e-09
4.29803e-09
4.2827e-09
4.26743e-09
4.25274e-09
4.23811e-09
4.22413e-09
4.21018e-09
4.19696e-09
4.18374e-09
4.1713e-09
4.15884e-09
4.14723e-09
4.13556e-09
4.12478e-09
4.11392e-09
4.10397e-09
4.09392e-09
4.08481e-09
4.07557e-09
4.06728e-09
4.05884e-09
4.05138e-09
4.04376e-09
4.03713e-09
4.03031e-09
4.0245e-09
4.01848e-09
4.01347e-09
4.00825e-09
4.00402e-09
3.99956e-09
3.99607e-09
3.99237e-09
3.98958e-09
3.98661e-09
3.98448e-09
3.98224e-09
3.98073e-09
3.97917e-09
3.97827e-09
3.97737e-09
3.97704e-09
3.97672e-09
3.9769e-09
3.97718e-09
3.97796e-09
3.97879e-09
3.98001e-09
3.98138e-09
3.98307e-09
3.98495e-09
3.98709e-09
3.98941e-09
3.99195e-09
3.99469e-09
3.99764e-09
4.00077e-09
4.00412e-09
4.00752e-09
4.01132e-09
4.01493e-09
4.01913e-09
4.02298e-09
4.02753e-09
4.0316e-09
4.03645e-09
4.04074e-09
4.04585e-09
4.05036e-09
4.0557e-09
4.0604e-09
4.06595e-09
4.07082e-09
4.07654e-09
4.08156e-09
4.08743e-09
4.0926e-09
4.0986e-09
4.10389e-09
4.11e-09
4.11539e-09
4.12159e-09
4.12706e-09
4.13333e-09
4.13887e-09
4.14519e-09
4.15077e-09
4.15711e-09
4.16273e-09
4.16908e-09
4.17473e-09
4.18108e-09
4.18675e-09
4.19309e-09
4.19877e-09
4.2051e-09
4.21078e-09
4.21708e-09
4.22276e-09
4.229e-09
4.23468e-09
4.24084e-09
4.24651e-09
4.25259e-09
4.25825e-09
4.26424e-09
4.26987e-09
4.27577e-09
4.28138e-09
4.28717e-09
4.29274e-09
4.29843e-09
4.30397e-09
4.30955e-09
4.31504e-09
4.32052e-09
4.32595e-09
4.33134e-09
4.33669e-09
4.342e-09
4.34727e-09
4.35249e-09
4.35767e-09
4.36281e-09
4.36791e-09
4.37296e-09
4.37796e-09
4.38292e-09
4.38784e-09
4.39271e-09
4.39754e-09
4.40232e-09
4.40705e-09
4.41174e-09
4.41639e-09
4.42098e-09
4.42553e-09
4.43004e-09
4.4345e-09
4.43891e-09
4.44328e-09
4.4476e-09
4.45188e-09
4.4561e-09
4.46029e-09
4.46443e-09
4.46852e-09
4.47257e-09
4.47657e-09
4.48053e-09
4.48445e-09
4.48832e-09
4.49214e-09
4.49593e-09
4.49967e-09
4.50337e-09
4.50703e-09
4.51064e-09
4.51421e-09
4.51775e-09
4.52124e-09
4.52469e-09
4.52811e-09
4.53148e-09
4.53482e-09
4.53812e-09
4.54138e-09
4.5446e-09
4.54779e-09
4.55094e-09
4.55405e-09
4.55713e-09
4.56018e-09
4.56319e-09
4.56616e-09
4.5691e-09
4.57201e-09
4.57489e-09
4.57773e-09
4.58054e-09
4.58332e-09
4.58606e-09
4.58878e-09
4.59146e-09
4.59411e-09
4.59673e-09
4.59932e-09
4.60189e-09
4.60442e-09
4.60692e-09
4.60939e-09
4.61184e-09
4.61425e-09
4.61664e-09
4.619e-09
4.62134e-09
4.62364e-09
4.62592e-09
4.62817e-09
4.6304e-09
4.6326e-09
4.63477e-09
4.63692e-09
4.63905e-09
4.64115e-09
4.64322e-09
4.64527e-09
4.6473e-09
4.64931e-09
4.65129e-09
4.65325e-09
4.65518e-09
4.6571e-09
4.65899e-09
4.66086e-09
4.66271e-09
4.66454e-09
4.66635e-09
4.66814e-09
4.66991e-09
4.67166e-09
4.67338e-09
4.67509e-09
4.67678e-09
4.67845e-09
4.68009e-09
4.68172e-09
4.68333e-09
4.68492e-09
4.6865e-09
4.68805e-09
4.68958e-09
4.6911e-09
4.69259e-09
4.69407e-09
4.69552e-09
4.69696e-09
4.69838e-09
4.69978e-09
4.70117e-09
4.70252e-09
4.70387e-09
4.70519e-09
4.70651e-09
4.70777e-09
4.70907e-09
4.71026e-09
4.71156e-09
4.71265e-09
4.71397e-09
4.71494e-09
4.71632e-09
4.7171e-09
4.7186e-09
4.71912e-09
4.72088e-09
4.72095e-09
4.72337e-09
4.72256e-09
4.21941e-12
2.72847e-11
8.36395e-11
1.54068e-10
2.40662e-10
3.38632e-10
4.46104e-10
5.59093e-10
6.75613e-10
7.93977e-10
9.12495e-10
1.03128e-09
1.14919e-09
1.26633e-09
1.38248e-09
1.49764e-09
1.6118e-09
1.72489e-09
1.83677e-09
1.94748e-09
2.05717e-09
2.16576e-09
2.2733e-09
2.37972e-09
2.48502e-09
2.58916e-09
2.69217e-09
2.79405e-09
2.89483e-09
2.99453e-09
3.09319e-09
3.19079e-09
3.28736e-09
3.38296e-09
3.47787e-09
3.57165e-09
3.66401e-09
3.75556e-09
3.84614e-09
3.93574e-09
4.02437e-09
4.11207e-09
4.19883e-09
4.28479e-09
4.36995e-09
4.45438e-09
4.53807e-09
4.62104e-09
4.70329e-09
4.78485e-09
4.86573e-09
4.94596e-09
5.02551e-09
5.10452e-09
5.18273e-09
5.26066e-09
5.33767e-09
5.41501e-09
5.4912e-09
5.56713e-09
5.64198e-09
5.71672e-09
5.7904e-09
5.86407e-09
5.93737e-09
6.01008e-09
6.08227e-09
6.15396e-09
6.22512e-09
6.29581e-09
6.366e-09
6.43573e-09
6.50495e-09
6.57371e-09
6.64194e-09
6.7097e-09
6.77688e-09
6.84357e-09
6.90961e-09
6.97514e-09
7.03994e-09
7.10421e-09
7.16765e-09
7.23051e-09
7.29251e-09
7.35414e-09
7.41416e-09
7.4727e-09
7.5304e-09
7.58738e-09
7.64288e-09
7.69759e-09
7.75062e-09
7.80244e-09
7.85164e-09
7.89932e-09
7.94506e-09
7.98923e-09
8.03004e-09
8.06932e-09
8.1047e-09
8.13804e-09
8.16704e-09
8.19382e-09
8.21509e-09
8.23468e-09
8.24723e-09
8.25868e-09
8.26257e-09
8.26442e-09
8.25587e-09
8.24482e-09
8.22526e-09
8.20213e-09
8.17006e-09
8.13312e-09
8.0868e-09
8.03481e-09
7.97335e-09
7.9049e-09
7.82722e-09
7.74127e-09
7.64652e-09
7.54174e-09
7.42915e-09
7.30373e-09
7.17178e-09
7.02173e-09
6.86986e-09
6.68519e-09
6.51622e-09
6.31406e-09
6.13114e-09
5.94431e-09
5.73627e-09
5.52202e-09
5.28918e-09
5.0548e-09
4.7501e-09
4.40704e-09
4.04953e-09
3.695e-09
3.32974e-09
2.97299e-09
2.61414e-09
2.26348e-09
1.93752e-09
1.61864e-09
1.4164e-09
1.31117e-09
9.98181e-10
7.61839e-10
6.95599e-10
6.95599e-10
8.16009e-10
8.41255e-10
9.25074e-10
1.14934e-09
1.42417e-09
1.74671e-09
2.04319e-09
2.36767e-09
2.66336e-09
2.98168e-09
3.27203e-09
3.5797e-09
3.86235e-09
4.15628e-09
4.43013e-09
4.70713e-09
4.97076e-09
5.23157e-09
5.48212e-09
5.72683e-09
5.96241e-09
6.19031e-09
6.4101e-09
6.6211e-09
6.82409e-09
7.01827e-09
7.2041e-09
7.38157e-09
7.5504e-09
7.71108e-09
7.8632e-09
8.00734e-09
8.14328e-09
8.27119e-09
8.39123e-09
8.50368e-09
8.60861e-09
8.70621e-09
8.79667e-09
8.88018e-09
8.95696e-09
9.02715e-09
9.09113e-09
9.14887e-09
9.20091e-09
9.24714e-09
9.28812e-09
9.32381e-09
9.35462e-09
9.38072e-09
9.40219e-09
9.41957e-09
9.43267e-09
9.44215e-09
9.44792e-09
9.45048e-09
9.44931e-09
9.44496e-09
9.43783e-09
9.42806e-09
9.41581e-09
9.40135e-09
9.3847e-09
9.36615e-09
9.34593e-09
9.32386e-09
9.30062e-09
9.2756e-09
9.24989e-09
9.22248e-09
9.19485e-09
9.16554e-09
9.13646e-09
9.10576e-09
9.07564e-09
9.04395e-09
9.01315e-09
8.9809e-09
8.94972e-09
8.91727e-09
8.88597e-09
8.85366e-09
8.82246e-09
8.79063e-09
8.75971e-09
8.7286e-09
8.69822e-09
8.66792e-09
8.63831e-09
8.6089e-09
8.5803e-09
8.55189e-09
8.52442e-09
8.49713e-09
8.47089e-09
8.44481e-09
8.41989e-09
8.39511e-09
8.37157e-09
8.34815e-09
8.32603e-09
8.30401e-09
8.28336e-09
8.26278e-09
8.2436e-09
8.22447e-09
8.20676e-09
8.18908e-09
8.17284e-09
8.15663e-09
8.14187e-09
8.12713e-09
8.11384e-09
8.10057e-09
8.08874e-09
8.07692e-09
8.06651e-09
8.0561e-09
8.04706e-09
8.03803e-09
8.03032e-09
8.02262e-09
8.01618e-09
8.00979e-09
8.00457e-09
7.99942e-09
7.99538e-09
7.99144e-09
7.98854e-09
7.98572e-09
7.98385e-09
7.98215e-09
7.98136e-09
7.9807e-09
7.98084e-09
7.98118e-09
7.98219e-09
7.98356e-09
7.98543e-09
7.98765e-09
7.99031e-09
7.99337e-09
7.99684e-09
8.00065e-09
8.0049e-09
8.00934e-09
8.01431e-09
8.01933e-09
8.02501e-09
8.03059e-09
8.03692e-09
8.043e-09
8.04992e-09
8.05649e-09
8.06392e-09
8.07094e-09
8.07883e-09
8.08627e-09
8.09459e-09
8.1024e-09
8.11109e-09
8.11923e-09
8.12825e-09
8.13671e-09
8.14601e-09
8.15473e-09
8.16429e-09
8.17325e-09
8.18302e-09
8.19218e-09
8.20214e-09
8.21146e-09
8.22155e-09
8.231e-09
8.24119e-09
8.25074e-09
8.26102e-09
8.27065e-09
8.28098e-09
8.29068e-09
8.30105e-09
8.3108e-09
8.32119e-09
8.33097e-09
8.34136e-09
8.35114e-09
8.36149e-09
8.37128e-09
8.38156e-09
8.39134e-09
8.40154e-09
8.41129e-09
8.42139e-09
8.43111e-09
8.4411e-09
8.45078e-09
8.46063e-09
8.47026e-09
8.47998e-09
8.48954e-09
8.49912e-09
8.50861e-09
8.51806e-09
8.52743e-09
8.53676e-09
8.54602e-09
8.55521e-09
8.56434e-09
8.57341e-09
8.58241e-09
8.59134e-09
8.6002e-09
8.60899e-09
8.61771e-09
8.62635e-09
8.63493e-09
8.64343e-09
8.65186e-09
8.66021e-09
8.66849e-09
8.67669e-09
8.68482e-09
8.69287e-09
8.70085e-09
8.70874e-09
8.71656e-09
8.72431e-09
8.73197e-09
8.73956e-09
8.74707e-09
8.75451e-09
8.76187e-09
8.76915e-09
8.77635e-09
8.78348e-09
8.79053e-09
8.7975e-09
8.8044e-09
8.81123e-09
8.81798e-09
8.82465e-09
8.83126e-09
8.83779e-09
8.84425e-09
8.85063e-09
8.85695e-09
8.86319e-09
8.86937e-09
8.87548e-09
8.88152e-09
8.88749e-09
8.89339e-09
8.89923e-09
8.905e-09
8.91071e-09
8.91636e-09
8.92194e-09
8.92746e-09
8.93292e-09
8.93831e-09
8.94365e-09
8.94892e-09
8.95414e-09
8.95929e-09
8.96439e-09
8.96943e-09
8.97441e-09
8.97934e-09
8.98421e-09
8.98903e-09
8.99379e-09
8.99849e-09
9.00314e-09
9.00774e-09
9.01228e-09
9.01678e-09
9.02122e-09
9.02561e-09
9.02994e-09
9.03423e-09
9.03847e-09
9.04266e-09
9.0468e-09
9.05089e-09
9.05494e-09
9.05894e-09
9.06289e-09
9.06679e-09
9.07065e-09
9.07447e-09
9.07824e-09
9.08197e-09
9.08566e-09
9.0893e-09
9.09291e-09
9.09647e-09
9.09999e-09
9.10347e-09
9.10691e-09
9.11031e-09
9.11368e-09
9.117e-09
9.12029e-09
9.12354e-09
9.12675e-09
9.12993e-09
9.13307e-09
9.13617e-09
9.13924e-09
9.14227e-09
9.14527e-09
9.14823e-09
9.15116e-09
9.15405e-09
9.15691e-09
9.15973e-09
9.16252e-09
9.16528e-09
9.168e-09
9.17069e-09
9.17334e-09
9.17596e-09
9.17854e-09
9.18109e-09
9.18361e-09
9.18609e-09
9.18855e-09
9.19095e-09
9.19334e-09
9.19567e-09
9.19801e-09
9.20026e-09
9.20254e-09
9.20469e-09
9.20694e-09
9.20896e-09
9.2112e-09
9.21306e-09
9.21533e-09
9.21697e-09
9.21934e-09
9.22064e-09
9.22323e-09
9.22405e-09
9.22709e-09
9.22701e-09
1.31469e-11
6.56642e-11
1.67782e-10
2.86931e-10
4.17237e-10
5.59897e-10
7.12859e-10
8.72421e-10
1.03631e-09
1.2026e-09
1.36984e-09
1.53713e-09
1.70323e-09
1.86791e-09
2.03098e-09
2.19232e-09
2.35187e-09
2.5094e-09
2.66471e-09
2.81787e-09
2.96917e-09
3.11856e-09
3.26602e-09
3.41154e-09
3.55507e-09
3.69663e-09
3.83622e-09
3.97392e-09
4.10976e-09
4.24382e-09
4.37614e-09
4.50675e-09
4.63584e-09
4.76359e-09
4.89011e-09
5.01414e-09
5.13716e-09
5.25874e-09
5.37892e-09
5.49769e-09
5.61501e-09
5.73093e-09
5.84539e-09
5.95849e-09
6.0702e-09
6.18058e-09
6.28967e-09
6.3975e-09
6.50412e-09
6.60956e-09
6.71386e-09
6.81709e-09
6.91923e-09
7.02045e-09
7.12057e-09
7.22005e-09
7.31833e-09
7.41645e-09
7.51301e-09
7.60807e-09
7.70058e-09
7.79214e-09
7.88194e-09
7.97171e-09
8.06097e-09
8.14932e-09
8.23679e-09
8.32335e-09
8.40891e-09
8.49352e-09
8.57709e-09
8.65968e-09
8.74115e-09
8.82162e-09
8.9009e-09
8.97911e-09
9.05605e-09
9.13185e-09
9.20626e-09
9.27948e-09
9.35116e-09
9.42163e-09
9.49043e-09
9.55795e-09
9.62336e-09
9.68735e-09
9.74933e-09
9.81044e-09
9.86799e-09
9.92454e-09
9.97723e-09
1.00288e-08
1.00764e-08
1.01225e-08
1.01642e-08
1.02038e-08
1.02377e-08
1.02698e-08
1.0296e-08
1.03198e-08
1.03376e-08
1.03516e-08
1.03581e-08
1.03624e-08
1.03568e-08
1.03493e-08
1.033e-08
1.03093e-08
1.02724e-08
1.02388e-08
1.01745e-08
1.01255e-08
1.00726e-08
1.00031e-08
9.92678e-09
9.83649e-09
9.73881e-09
9.62863e-09
9.5098e-09
9.36735e-09
9.15442e-09
8.93047e-09
8.69309e-09
8.44433e-09
8.18335e-09
7.90918e-09
7.6258e-09
7.32738e-09
7.02559e-09
6.7065e-09
6.38439e-09
6.03953e-09
5.677e-09
5.29813e-09
4.91613e-09
4.53206e-09
4.14074e-09
3.74945e-09
3.35678e-09
2.97366e-09
2.60737e-09
2.28356e-09
2.0281e-09
1.86582e-09
1.76479e-09
1.40742e-09
1.11663e-09
9.78415e-10
9.78415e-10
1.05264e-09
1.28048e-09
1.32569e-09
1.4344e-09
1.67378e-09
1.98956e-09
2.37497e-09
2.75794e-09
3.17772e-09
3.57204e-09
3.99475e-09
4.38669e-09
4.80425e-09
5.19044e-09
5.59781e-09
5.97514e-09
6.3682e-09
6.73435e-09
7.11086e-09
7.46414e-09
7.8218e-09
8.16023e-09
8.49931e-09
8.81973e-09
9.13991e-09
9.44089e-09
9.74092e-09
1.00222e-08
1.0301e-08
1.05621e-08
1.08194e-08
1.106e-08
1.12958e-08
1.1516e-08
1.17301e-08
1.19303e-08
1.21229e-08
1.23035e-08
1.24751e-08
1.26363e-08
1.27879e-08
1.293e-08
1.30627e-08
1.31863e-08
1.3301e-08
1.3407e-08
1.35044e-08
1.35938e-08
1.36751e-08
1.37488e-08
1.3815e-08
1.38742e-08
1.39264e-08
1.39721e-08
1.40115e-08
1.40447e-08
1.40722e-08
1.40941e-08
1.41109e-08
1.41225e-08
1.41297e-08
1.41323e-08
1.413e-08
1.41237e-08
1.41137e-08
1.41002e-08
1.40837e-08
1.4064e-08
1.40415e-08
1.40164e-08
1.39888e-08
1.39591e-08
1.39271e-08
1.38936e-08
1.3858e-08
1.38213e-08
1.37828e-08
1.37436e-08
1.37027e-08
1.36617e-08
1.3619e-08
1.35766e-08
1.35327e-08
1.34894e-08
1.34448e-08
1.3401e-08
1.33562e-08
1.33123e-08
1.32676e-08
1.32238e-08
1.31797e-08
1.31364e-08
1.30931e-08
1.30506e-08
1.30083e-08
1.29668e-08
1.29256e-08
1.28855e-08
1.28456e-08
1.2807e-08
1.27686e-08
1.27315e-08
1.26947e-08
1.26594e-08
1.26243e-08
1.25908e-08
1.25575e-08
1.25259e-08
1.24945e-08
1.24647e-08
1.24352e-08
1.24074e-08
1.23798e-08
1.23539e-08
1.23283e-08
1.23044e-08
1.22808e-08
1.22589e-08
1.22373e-08
1.22174e-08
1.21977e-08
1.21797e-08
1.21619e-08
1.21458e-08
1.21299e-08
1.21156e-08
1.21016e-08
1.20891e-08
1.20768e-08
1.2066e-08
1.20555e-08
1.20464e-08
1.20375e-08
1.203e-08
1.20228e-08
1.20169e-08
1.20111e-08
1.20067e-08
1.20024e-08
1.19994e-08
1.19966e-08
1.19948e-08
1.19934e-08
1.19929e-08
1.19927e-08
1.19933e-08
1.19945e-08
1.19962e-08
1.19985e-08
1.20014e-08
1.20046e-08
1.20085e-08
1.20126e-08
1.20175e-08
1.20226e-08
1.20284e-08
1.20342e-08
1.20409e-08
1.20475e-08
1.20549e-08
1.20622e-08
1.20704e-08
1.20784e-08
1.20871e-08
1.20957e-08
1.21051e-08
1.21142e-08
1.21241e-08
1.21337e-08
1.21441e-08
1.21541e-08
1.21649e-08
1.21753e-08
1.21865e-08
1.21972e-08
1.22087e-08
1.22197e-08
1.22315e-08
1.22428e-08
1.22548e-08
1.22663e-08
1.22785e-08
1.22902e-08
1.23024e-08
1.23143e-08
1.23267e-08
1.23387e-08
1.23512e-08
1.23632e-08
1.23758e-08
1.23879e-08
1.24005e-08
1.24126e-08
1.24252e-08
1.24374e-08
1.24499e-08
1.24621e-08
1.24746e-08
1.24867e-08
1.24991e-08
1.25112e-08
1.25235e-08
1.25356e-08
1.25478e-08
1.25598e-08
1.25718e-08
1.25838e-08
1.25957e-08
1.26075e-08
1.26193e-08
1.2631e-08
1.26427e-08
1.26542e-08
1.26657e-08
1.26772e-08
1.26885e-08
1.26998e-08
1.2711e-08
1.27222e-08
1.27332e-08
1.27441e-08
1.2755e-08
1.27658e-08
1.27765e-08
1.27871e-08
1.27976e-08
1.28081e-08
1.28184e-08
1.28287e-08
1.28388e-08
1.28489e-08
1.28589e-08
1.28687e-08
1.28785e-08
1.28882e-08
1.28978e-08
1.29073e-08
1.29167e-08
1.2926e-08
1.29352e-08
1.29444e-08
1.29534e-08
1.29623e-08
1.29712e-08
1.29799e-08
1.29886e-08
1.29971e-08
1.30056e-08
1.3014e-08
1.30223e-08
1.30305e-08
1.30386e-08
1.30466e-08
1.30545e-08
1.30624e-08
1.30702e-08
1.30778e-08
1.30854e-08
1.3093e-08
1.31004e-08
1.31077e-08
1.3115e-08
1.31222e-08
1.31293e-08
1.31363e-08
1.31433e-08
1.31502e-08
1.3157e-08
1.31637e-08
1.31703e-08
1.31769e-08
1.31834e-08
1.31898e-08
1.31962e-08
1.32025e-08
1.32087e-08
1.32148e-08
1.32209e-08
1.32269e-08
1.32328e-08
1.32387e-08
1.32445e-08
1.32502e-08
1.32559e-08
1.32615e-08
1.3267e-08
1.32725e-08
1.32779e-08
1.32832e-08
1.32885e-08
1.32937e-08
1.32989e-08
1.3304e-08
1.33091e-08
1.3314e-08
1.3319e-08
1.33238e-08
1.33287e-08
1.33334e-08
1.33381e-08
1.33428e-08
1.33474e-08
1.33519e-08
1.33564e-08
1.33609e-08
1.33653e-08
1.33696e-08
1.33739e-08
1.33782e-08
1.33823e-08
1.33865e-08
1.33906e-08
1.33947e-08
1.33987e-08
1.34026e-08
1.34065e-08
1.34104e-08
1.34142e-08
1.3418e-08
1.34217e-08
1.34254e-08
1.34291e-08
1.34327e-08
1.34362e-08
1.34397e-08
1.34432e-08
1.34466e-08
1.345e-08
1.34533e-08
1.34566e-08
1.34598e-08
1.3463e-08
1.34661e-08
1.34693e-08
1.34723e-08
1.34753e-08
1.34783e-08
1.34812e-08
1.34841e-08
1.3487e-08
1.34896e-08
1.34925e-08
1.3495e-08
1.34979e-08
1.35001e-08
1.35031e-08
1.3505e-08
1.35081e-08
1.35095e-08
1.35129e-08
1.35136e-08
3.66428e-11
1.24407e-10
2.8042e-10
4.5479e-10
6.28298e-10
8.12555e-10
1.00577e-09
1.20554e-09
1.40935e-09
1.61594e-09
1.82329e-09
2.03016e-09
2.23549e-09
2.43868e-09
2.63934e-09
2.83721e-09
3.03204e-09
3.22352e-09
3.41176e-09
3.59707e-09
3.77993e-09
3.9598e-09
4.13718e-09
4.31178e-09
4.48363e-09
4.65278e-09
4.81925e-09
4.98314e-09
5.14445e-09
5.30335e-09
5.45988e-09
5.61411e-09
5.76612e-09
5.91596e-09
6.06358e-09
6.20905e-09
6.35135e-09
6.49161e-09
6.62972e-09
6.76563e-09
6.89932e-09
7.03096e-09
7.16055e-09
7.28833e-09
7.41429e-09
7.53859e-09
7.66115e-09
7.78198e-09
7.90108e-09
8.01847e-09
8.13416e-09
8.24815e-09
8.36046e-09
8.47092e-09
8.58005e-09
8.68687e-09
8.79266e-09
8.89625e-09
8.99908e-09
9.10069e-09
9.20116e-09
9.29866e-09
9.39507e-09
9.49062e-09
9.58401e-09
9.67571e-09
9.76556e-09
9.85383e-09
9.94029e-09
1.00252e-08
1.01081e-08
1.01895e-08
1.02689e-08
1.03466e-08
1.04221e-08
1.04959e-08
1.05675e-08
1.06372e-08
1.07042e-08
1.07696e-08
1.08319e-08
1.08926e-08
1.09501e-08
1.10058e-08
1.10582e-08
1.11088e-08
1.11543e-08
1.11958e-08
1.12342e-08
1.12705e-08
1.13019e-08
1.1331e-08
1.13544e-08
1.13757e-08
1.13904e-08
1.14027e-08
1.1405e-08
1.14063e-08
1.1392e-08
1.13331e-08
1.12589e-08
1.11833e-08
1.1092e-08
1.09994e-08
1.08901e-08
1.07792e-08
1.06508e-08
1.05206e-08
1.03742e-08
1.02246e-08
1.00645e-08
9.89299e-09
9.69174e-09
9.49472e-09
9.2739e-09
9.05541e-09
8.81228e-09
8.57009e-09
8.30302e-09
8.03614e-09
7.74467e-09
7.45303e-09
7.13729e-09
6.82148e-09
6.48216e-09
6.144e-09
5.78267e-09
5.42441e-09
5.04683e-09
4.672e-09
4.28599e-09
3.90985e-09
3.53185e-09
3.18992e-09
2.87336e-09
2.61667e-09
2.43345e-09
2.32372e-09
2.15193e-09
1.79841e-09
1.51014e-09
1.33787e-09
1.3294e-09
1.3294e-09
1.49208e-09
1.76757e-09
1.80627e-09
1.9189e-09
2.14427e-09
2.48444e-09
2.87053e-09
3.32466e-09
3.76799e-09
4.25291e-09
4.71164e-09
5.20601e-09
5.67173e-09
6.16575e-09
6.62669e-09
7.11197e-09
7.56601e-09
8.04056e-09
8.48468e-09
8.94628e-09
9.3787e-09
9.82393e-09
1.02424e-08
1.06687e-08
1.10716e-08
1.1477e-08
1.18625e-08
1.22471e-08
1.26122e-08
1.29753e-08
1.33189e-08
1.36595e-08
1.39811e-08
1.42984e-08
1.45975e-08
1.4891e-08
1.51675e-08
1.54372e-08
1.5691e-08
1.59371e-08
1.61684e-08
1.63911e-08
1.66002e-08
1.67998e-08
1.69874e-08
1.71646e-08
1.7331e-08
1.74869e-08
1.76326e-08
1.77682e-08
1.7894e-08
1.80102e-08
1.81171e-08
1.82149e-08
1.8304e-08
1.83844e-08
1.84569e-08
1.85211e-08
1.8578e-08
1.86272e-08
1.86697e-08
1.8705e-08
1.87341e-08
1.87567e-08
1.87736e-08
1.87847e-08
1.87907e-08
1.8791e-08
1.87861e-08
1.87767e-08
1.87631e-08
1.87455e-08
1.87242e-08
1.86993e-08
1.86712e-08
1.86397e-08
1.86057e-08
1.85688e-08
1.85297e-08
1.84881e-08
1.84448e-08
1.83991e-08
1.83523e-08
1.83035e-08
1.82539e-08
1.82026e-08
1.81508e-08
1.80977e-08
1.80444e-08
1.79899e-08
1.79356e-08
1.78804e-08
1.78256e-08
1.77701e-08
1.77152e-08
1.76598e-08
1.76052e-08
1.75505e-08
1.74964e-08
1.74426e-08
1.73895e-08
1.73368e-08
1.7285e-08
1.72335e-08
1.71833e-08
1.71334e-08
1.70848e-08
1.70366e-08
1.69899e-08
1.69436e-08
1.68989e-08
1.68546e-08
1.6812e-08
1.67699e-08
1.67294e-08
1.66895e-08
1.66513e-08
1.66135e-08
1.65776e-08
1.65421e-08
1.65086e-08
1.64755e-08
1.64443e-08
1.64135e-08
1.63847e-08
1.63562e-08
1.63297e-08
1.63035e-08
1.62792e-08
1.62553e-08
1.62333e-08
1.62116e-08
1.61918e-08
1.61723e-08
1.61546e-08
1.61372e-08
1.61216e-08
1.61063e-08
1.60926e-08
1.60793e-08
1.60676e-08
1.60562e-08
1.60464e-08
1.60369e-08
1.60288e-08
1.6021e-08
1.60146e-08
1.60086e-08
1.60038e-08
1.59994e-08
1.59961e-08
1.59933e-08
1.59914e-08
1.59901e-08
1.59896e-08
1.59896e-08
1.59905e-08
1.59917e-08
1.59939e-08
1.59963e-08
1.59996e-08
1.60032e-08
1.60075e-08
1.60121e-08
1.60175e-08
1.6023e-08
1.60294e-08
1.60358e-08
1.6043e-08
1.60503e-08
1.60583e-08
1.60663e-08
1.60751e-08
1.60838e-08
1.60932e-08
1.61025e-08
1.61125e-08
1.61224e-08
1.61329e-08
1.61433e-08
1.61543e-08
1.61652e-08
1.61766e-08
1.61879e-08
1.61997e-08
1.62112e-08
1.62233e-08
1.62352e-08
1.62476e-08
1.62597e-08
1.62724e-08
1.62847e-08
1.62975e-08
1.631e-08
1.6323e-08
1.63356e-08
1.63487e-08
1.63614e-08
1.63746e-08
1.63874e-08
1.64006e-08
1.64135e-08
1.64267e-08
1.64396e-08
1.64528e-08
1.64657e-08
1.64789e-08
1.64918e-08
1.65049e-08
1.65178e-08
1.65308e-08
1.65437e-08
1.65566e-08
1.65694e-08
1.65822e-08
1.65949e-08
1.66076e-08
1.66202e-08
1.66328e-08
1.66453e-08
1.66577e-08
1.66701e-08
1.66824e-08
1.66946e-08
1.67067e-08
1.67188e-08
1.67307e-08
1.67426e-08
1.67545e-08
1.67662e-08
1.67778e-08
1.67894e-08
1.68008e-08
1.68122e-08
1.68234e-08
1.68346e-08
1.68457e-08
1.68567e-08
1.68676e-08
1.68784e-08
1.6889e-08
1.68996e-08
1.69101e-08
1.69205e-08
1.69308e-08
1.6941e-08
1.69511e-08
1.69611e-08
1.6971e-08
1.69808e-08
1.69905e-08
1.70001e-08
1.70096e-08
1.7019e-08
1.70283e-08
1.70375e-08
1.70466e-08
1.70556e-08
1.70645e-08
1.70734e-08
1.70821e-08
1.70907e-08
1.70993e-08
1.71078e-08
1.71161e-08
1.71244e-08
1.71326e-08
1.71407e-08
1.71487e-08
1.71566e-08
1.71645e-08
1.71722e-08
1.71799e-08
1.71875e-08
1.7195e-08
1.72024e-08
1.72098e-08
1.7217e-08
1.72242e-08
1.72313e-08
1.72383e-08
1.72452e-08
1.72521e-08
1.72589e-08
1.72656e-08
1.72722e-08
1.72787e-08
1.72852e-08
1.72916e-08
1.72979e-08
1.73042e-08
1.73104e-08
1.73165e-08
1.73225e-08
1.73285e-08
1.73344e-08
1.73402e-08
1.7346e-08
1.73517e-08
1.73574e-08
1.73629e-08
1.73684e-08
1.73739e-08
1.73793e-08
1.73846e-08