/*--------------------------------*- C++ -*----------------------------------*\
| =========                 |                                                 |
| \\      /  F ield         | OpenFOAM: The Open Source CFD Toolbox           |
|  \\    /   O peration     | Version:  2012                                  |
|   \\  /    A nd           | Website:  www.openfoam.com                      |
|    \\/     M anipulation  |                                                 |
\*---------------------------------------------------------------------------*/
FoamFile
{
    version     2.0;
    format      ascii;
    class       volVectorField;
    location    "1420";
    object      U;
}
// * * * * * * * * * * * * * * * * * * * * * * * * * * * * * * * * * * * * * //

dimensions      [0 1 -1 0 0 0 0];


internalField   nonuniform List<vector> 
20400
(
(3.52907e-06 -3.45343e-06 0)
(5.17952e-06 -1.17014e-06 0)
(-4.67221e-06 3.7072e-06 0)
(-2.50038e-05 6.36467e-06 0)
(-5.82723e-05 7.81315e-06 0)
(-9.85139e-05 7.15855e-06 0)
(-0.000144683 6.39804e-06 0)
(-0.000193542 5.48016e-06 0)
(-0.000243187 4.71152e-06 0)
(-0.000293966 4.21459e-06 0)
(-0.000343487 4.26806e-06 0)
(-0.000393407 4.19555e-06 0)
(-0.000442552 4.0197e-06 0)
(-0.000491505 3.6274e-06 0)
(-0.000540156 3.06249e-06 0)
(-0.00058862 2.27756e-06 0)
(-0.000636936 1.24793e-06 0)
(-0.000685139 3.28309e-08 0)
(-0.000733245 -1.32873e-06 0)
(-0.000781164 -2.51192e-06 0)
(-0.000828799 -3.73428e-06 0)
(-0.00087615 -4.95126e-06 0)
(-0.000923249 -6.08021e-06 0)
(-0.000970079 -7.04888e-06 0)
(-0.00101663 -7.78318e-06 0)
(-0.00106288 -8.21723e-06 0)
(-0.00110882 -8.28969e-06 0)
(-0.00115445 -7.95141e-06 0)
(-0.0011998 -7.16233e-06 0)
(-0.00124488 -5.88872e-06 0)
(-0.00128971 -4.11315e-06 0)
(-0.00133429 -1.80005e-06 0)
(-0.0013785 1.17587e-06 0)
(-0.00142189 5.97941e-06 0)
(-0.00146436 9.21209e-06 0)
(-0.00150687 1.16968e-05 0)
(-0.00155021 1.54621e-05 0)
(-0.0015924 1.91749e-05 0)
(-0.00163442 2.26568e-05 0)
(-0.00167591 2.57825e-05 0)
(-0.00171702 2.84362e-05 0)
(-0.00175779 3.05449e-05 0)
(-0.00179825 3.2095e-05 0)
(-0.00183846 3.30942e-05 0)
(-0.00187845 3.35948e-05 0)
(-0.00191825 3.36608e-05 0)
(-0.00195786 3.33582e-05 0)
(-0.00199728 3.27391e-05 0)
(-0.0020365 3.18355e-05 0)
(-0.00207553 3.06532e-05 0)
(-0.00211437 2.91776e-05 0)
(-0.00215302 2.73564e-05 0)
(-0.00219147 2.51495e-05 0)
(-0.0022298 2.24336e-05 0)
(-0.00226793 1.91879e-05 0)
(-0.00230616 1.53187e-05 0)
(-0.00234407 1.09036e-05 0)
(-0.00238199 6.67902e-06 0)
(-0.00241897 -2.26609e-07 0)
(-0.00245823 -6.23984e-06 0)
(-0.00249541 -1.20182e-05 0)
(-0.00253411 -1.66469e-05 0)
(-0.00257142 -2.0448e-05 0)
(-0.00260978 -2.28505e-05 0)
(-0.00264744 -2.45099e-05 0)
(-0.0026855 -2.52674e-05 0)
(-0.0027231 -2.54397e-05 0)
(-0.00276075 -2.51426e-05 0)
(-0.00279823 -2.44828e-05 0)
(-0.00283566 -2.35636e-05 0)
(-0.00287302 -2.24319e-05 0)
(-0.00291037 -2.1145e-05 0)
(-0.00294769 -1.97153e-05 0)
(-0.00298502 -1.81699e-05 0)
(-0.00302233 -1.65128e-05 0)
(-0.00305969 -1.47456e-05 0)
(-0.00309699 -1.28801e-05 0)
(-0.00313439 -1.08998e-05 0)
(-0.0031717 -8.82954e-06 0)
(-0.00320917 -6.63181e-06 0)
(-0.00324649 -4.35248e-06 0)
(-0.00328409 -1.91912e-06 0)
(-0.00332144 6.59997e-07 0)
(-0.00335886 3.50442e-06 0)
(-0.00339571 6.95033e-06 0)
(-0.00343224 8.49302e-06 0)
(-0.00346967 1.00996e-05 0)
(-0.00350625 1.10571e-05 0)
(-0.00354298 1.1381e-05 0)
(-0.00357966 1.06778e-05 0)
(-0.00361616 9.51686e-06 0)
(-0.0036526 7.86659e-06 0)
(-0.00368828 6.12058e-06 0)
(-0.00372368 2.01032e-06 0)
(-0.0037593 -1.48127e-06 0)
(-0.00379478 -5.61434e-06 0)
(-0.00382983 -9.77115e-06 0)
(-0.00386472 -1.45077e-05 0)
(-0.0038986 -1.89649e-05 0)
(-0.00393236 -2.41604e-05 0)
(-0.00396481 -2.87286e-05 0)
(-0.00399712 -3.4163e-05 0)
(-0.00402783 -3.8103e-05 0)
(-0.00405852 -4.26918e-05 0)
(-0.00408707 -4.50604e-05 0)
(-0.00411628 -4.70444e-05 0)
(-0.00414247 -4.58002e-05 0)
(-0.00417075 -4.19599e-05 0)
(-0.00419329 -3.39274e-05 0)
(-0.00421986 -1.93836e-05 0)
(-0.00423623 -3.40038e-06 0)
(-0.00425627 2.3991e-05 0)
(-0.00426335 4.49247e-05 0)
(-0.0042797 6.95386e-05 0)
(-0.00428205 8.44708e-05 0)
(-0.00429107 0.000105983 0)
(-0.00428832 0.000115825 0)
(-0.00429046 0.000136226 0)
(-0.00428155 0.000143037 0)
(-0.00427591 0.000163306 0)
(-0.00425948 0.000167493 0)
(-0.00424601 0.000187252 0)
(-0.00422093 0.000189109 0)
(-0.00419744 0.000206116 0)
(-0.00416307 0.000203994 0)
(-0.00412632 0.000214051 0)
(-0.00407993 0.00020219 0)
(-0.00402622 0.00019679 0)
(-0.00396489 0.000161636 0)
(-0.00389121 0.000128153 0)
(-0.00381788 5.07561e-05 0)
(-0.00373984 -1.072e-05 0)
(-0.00366881 -0.000109904 0)
(-0.00359484 -0.000168228 0)
(-0.00352513 -0.000234407 0)
(-0.00343918 -0.000268692 0)
(-0.00335183 -0.000308007 0)
(-0.00325487 -0.000327401 0)
(-0.0031523 -0.000351156 0)
(-0.00304678 -0.000358536 0)
(-0.00293418 -0.000367008 0)
(-0.00282337 -0.000357185 0)
(-0.00270533 -0.000339291 0)
(-0.0025916 -0.000293049 0)
(-0.00246873 -0.000228524 0)
(-0.0023381 -0.000123702 0)
(-0.00221054 -1.54762e-05 0)
(-0.00204582 0.00012439 0)
(-0.00188626 0.000192379 0)
(-0.00171079 0.00025801 0)
(-0.00154221 0.000275853 0)
(-0.00136868 0.000286908 0)
(-0.00118699 0.000270242 0)
(-0.000994972 0.000214512 0)
(-0.000804109 0.000131624 0)
(-0.000656969 9.6788e-08 0)
(-0.000552992 -3.46934e-05 0)
(-0.000384142 -7.02124e-05 0)
(-0.000247911 -7.2369e-05 0)
(-7.22552e-05 -7.86466e-05 0)
(6.69409e-05 -6.9803e-05 0)
(0.000242688 -6.44488e-05 0)
(0.000383552 -5.44049e-05 0)
(0.000553259 -4.93443e-05 0)
(0.000691952 -4.08126e-05 0)
(0.000853902 -3.79684e-05 0)
(0.000989789 -3.17667e-05 0)
(0.00114196 -3.02258e-05 0)
(0.00127492 -2.59576e-05 0)
(0.0014147 -2.44322e-05 0)
(0.00154471 -2.31032e-05 0)
(0.0016721 -1.96517e-05 0)
(0.00179736 -2.04319e-05 0)
(0.0019142 -1.68446e-05 0)
(0.00203289 -1.80317e-05 0)
(0.0021392 -1.47507e-05 0)
(0.00225006 -1.58579e-05 0)
(0.00234633 -1.2936e-05 0)
(0.00244862 -1.40719e-05 0)
(0.00253555 -1.14111e-05 0)
(0.0026286 -1.23819e-05 0)
(0.00270703 -1.04303e-05 0)
(0.00279031 -1.05542e-05 0)
(0.00286099 -9.6354e-06 0)
(0.00293398 -8.80319e-06 0)
(0.00299763 -8.58766e-06 0)
(0.00306032 -7.6917e-06 0)
(0.00311717 -7.37731e-06 0)
(0.00317091 -6.83683e-06 0)
(0.00322048 -6.34417e-06 0)
(0.0032663 -5.85703e-06 0)
(0.00330844 -5.3476e-06 0)
(0.00334708 -4.85098e-06 0)
(0.00338232 -4.37715e-06 0)
(0.00341431 -3.93481e-06 0)
(0.00344303 -3.51424e-06 0)
(0.00346895 -3.14227e-06 0)
(0.00349167 -2.78318e-06 0)
(0.003512 -2.46903e-06 0)
(0.00352924 -2.13993e-06 0)
(0.00354449 -1.85693e-06 0)
(0.00355676 -1.51623e-06 0)
(0.00356741 -1.14533e-06 0)
(0.00357533 -8.58413e-07 0)
(0.00358192 -4.77633e-07 0)
(0.00358605 -1.89421e-07 0)
(0.00358896 6.7782e-08 0)
(0.00359003 4.76907e-07 0)
(0.00358955 4.61117e-07 0)
(0.00358749 9.58935e-07 0)
(0.00358412 1.1051e-06 0)
(0.00357948 1.15055e-06 0)
(0.00357363 1.15443e-06 0)
(0.00356667 1.14769e-06 0)
(0.00355873 1.13921e-06 0)
(0.00354977 1.13896e-06 0)
(0.00354036 9.60166e-07 0)
(0.00352978 1.0967e-06 0)
(0.00351918 9.8212e-07 0)
(0.00350714 9.28791e-07 0)
(0.00349567 9.5714e-07 0)
(0.00348253 7.62955e-07 0)
(0.00347039 9.28292e-07 0)
(0.0034564 6.62254e-07 0)
(0.00344379 8.95425e-07 0)
(0.00342921 6.61257e-07 0)
(0.0034163 8.46067e-07 0)
(0.00340138 6.70562e-07 0)
(0.00338832 7.96863e-07 0)
(0.00337324 6.54517e-07 0)
(0.00336013 7.4756e-07 0)
(0.00334511 6.28389e-07 0)
(0.00333203 6.83428e-07 0)
(0.00331725 5.99579e-07 0)
(0.00330427 6.05775e-07 0)
(0.00328989 5.5585e-07 0)
(0.00327705 5.22302e-07 0)
(0.00326325 5.22457e-07 0)
(0.00325057 4.3177e-07 0)
(0.00323747 4.55586e-07 0)
(0.00322509 3.47951e-07 0)
(0.00321261 3.89758e-07 0)
(0.0032007 2.79349e-07 0)
(0.00318879 3.36034e-07 0)
(0.00317745 2.03686e-07 0)
(0.00316613 2.88195e-07 0)
(0.00315544 1.28258e-07 0)
(0.00314472 2.48549e-07 0)
(0.00313472 5.78184e-08 0)
(0.00312464 2.20574e-07 0)
(0.00311534 6.08193e-09 0)
(0.00310591 2.14509e-07 0)
(0.00309733 -7.80148e-09 0)
(0.00308857 2.46002e-07 0)
(0.00308071 3.7884e-08 0)
(0.00307263 3.31083e-07 0)
(0.0030655 1.49021e-07 0)
(0.0030581 4.66745e-07 0)
(0.0030517 2.96232e-07 0)
(0.00304498 6.07066e-07 0)
(0.00303928 4.01485e-07 0)
(0.00303322 6.68712e-07 0)
(0.00302822 4.04732e-07 0)
(0.00302282 6.35689e-07 0)
(0.0030185 3.50385e-07 0)
(0.00301376 5.691e-07 0)
(0.00301013 2.83566e-07 0)
(0.00300603 4.77113e-07 0)
(0.00300306 2.17198e-07 0)
(0.00299961 3.75066e-07 0)
(0.00299727 1.49358e-07 0)
(0.00299446 2.72142e-07 0)
(0.00299272 5.47105e-08 0)
(0.00299052 1.64491e-07 0)
(0.00298933 -4.63211e-08 0)
(0.00298773 5.80032e-08 0)
(0.00298705 -1.41982e-07 0)
(0.00298606 -4.00678e-08 0)
(0.00298583 -2.3807e-07 0)
(0.00298541 -1.19576e-07 0)
(0.00298564 -2.95576e-07 0)
(0.00298578 -1.61693e-07 0)
(0.00298644 -3.73493e-07 0)
(0.00298702 -2.19949e-07 0)
(0.00298813 -4.24578e-07 0)
(0.00298914 -3.1168e-07 0)
(0.00299072 -4.98467e-07 0)
(0.00299218 -3.89825e-07 0)
(0.00299406 -4.6847e-07 0)
(0.00299598 -4.14663e-07 0)
(0.00299819 -4.35839e-07 0)
(0.00300056 -4.00559e-07 0)
(0.00300311 -4.158e-07 0)
(0.00300581 -4.00988e-07 0)
(0.00300867 -4.12224e-07 0)
(0.00301169 -4.16323e-07 0)
(0.00301486 -4.2933e-07 0)
(0.00301816 -4.37677e-07 0)
(0.00302163 -4.23344e-07 0)
(0.00302508 -4.7825e-07 0)
(0.00302902 -3.82217e-07 0)
(0.00303254 -4.69333e-07 0)
(0.00303682 -3.7383e-07 0)
(0.00304046 -4.65456e-07 0)
(0.00304505 -3.70905e-07 0)
(0.00304881 -4.59924e-07 0)
(0.00305365 -3.70534e-07 0)
(0.00305756 -4.58302e-07 0)
(0.00306261 -3.72131e-07 0)
(0.00306665 -4.61117e-07 0)
(0.00307188 -3.74299e-07 0)
(0.00307605 -4.62962e-07 0)
(0.00308142 -3.76276e-07 0)
(0.00308571 -4.63247e-07 0)
(0.0030912 -3.79413e-07 0)
(0.0030956 -4.62513e-07 0)
(0.00310119 -3.83227e-07 0)
(0.00310568 -4.62725e-07 0)
(0.00311136 -3.89595e-07 0)
(0.00311594 -4.65699e-07 0)
(0.00312168 -4.07818e-07 0)
(0.00312633 -4.73757e-07 0)
(0.00313213 -4.35799e-07 0)
(0.00313682 -5.007e-07 0)
(0.00314266 -4.75881e-07 0)
(0.00314739 -5.40568e-07 0)
(0.00315324 -5.19445e-07 0)
(0.00315799 -5.76458e-07 0)
(0.00316382 -5.44533e-07 0)
(0.00316859 -5.88249e-07 0)
(0.00317441 -5.50589e-07 0)
(0.0031792 -5.8562e-07 0)
(0.003185 -5.51973e-07 0)
(0.00318979 -5.8721e-07 0)
(0.00319557 -5.6622e-07 0)
(0.00320036 -6.05389e-07 0)
(0.0032061 -6.08778e-07 0)
(0.0032109 -6.45313e-07 0)
(0.00321657 -6.58007e-07 0)
(0.00322137 -6.85913e-07 0)
(0.00322695 -6.90567e-07 0)
(0.00323176 -7.06587e-07 0)
(0.00323725 -7.07114e-07 0)
(0.00324205 -7.13823e-07 0)
(0.00324744 -7.11759e-07 0)
(0.00325223 -7.1199e-07 0)
(0.00325752 -7.0882e-07 0)
(0.0032623 -7.05081e-07 0)
(0.00326747 -7.0204e-07 0)
(0.00327224 -6.9541e-07 0)
(0.0032773 -6.93435e-07 0)
(0.00328205 -6.84362e-07 0)
(0.00328699 -6.83658e-07 0)
(0.00329171 -6.72013e-07 0)
(0.00329653 -6.71465e-07 0)
(0.00330123 -6.66897e-07 0)
(0.00330593 -6.5927e-07 0)
(0.00331059 -6.53872e-07 0)
(0.0033152 -6.47821e-07 0)
(0.00331978 -6.42356e-07 0)
(0.00332432 -6.3629e-07 0)
(0.00332882 -6.30543e-07 0)
(0.00333328 -6.24459e-07 0)
(0.0033377 -6.18569e-07 0)
(0.00334208 -6.12573e-07 0)
(0.00334642 -6.06686e-07 0)
(0.00335072 -6.00804e-07 0)
(0.00335498 -5.95009e-07 0)
(0.0033592 -5.89223e-07 0)
(0.00336338 -5.83489e-07 0)
(0.00336752 -5.77756e-07 0)
(0.00337162 -5.7205e-07 0)
(0.00337567 -5.66332e-07 0)
(0.00337969 -5.60632e-07 0)
(0.00338367 -5.54941e-07 0)
(0.0033876 -5.49276e-07 0)
(0.0033915 -5.43638e-07 0)
(0.00339535 -5.38033e-07 0)
(0.00339917 -5.32461e-07 0)
(0.00340294 -5.26922e-07 0)
(0.00340668 -5.21413e-07 0)
(0.00341037 -5.15934e-07 0)
(0.00341402 -5.10483e-07 0)
(0.00341764 -5.05062e-07 0)
(0.00342121 -4.99672e-07 0)
(0.00342474 -4.94314e-07 0)
(0.00342824 -4.88989e-07 0)
(0.00343169 -4.83699e-07 0)
(0.00343511 -4.78446e-07 0)
(0.00343849 -4.73231e-07 0)
(0.00344183 -4.68054e-07 0)
(0.00344513 -4.62919e-07 0)
(0.00344839 -4.57827e-07 0)
(0.00345161 -4.52781e-07 0)
(0.0034548 -4.47783e-07 0)
(0.00345795 -4.42835e-07 0)
(0.00346106 -4.3794e-07 0)
(0.00346414 -4.33099e-07 0)
(0.00346718 -4.28315e-07 0)
(0.00347019 -4.23588e-07 0)
(0.00347316 -4.18919e-07 0)
(0.0034761 -4.14311e-07 0)
(0.003479 -4.09767e-07 0)
(0.00348187 -4.0529e-07 0)
(0.00348471 -4.00893e-07 0)
(0.00348751 -3.96576e-07 0)
(0.00349028 -3.92302e-07 0)
(0.00349302 -3.8807e-07 0)
(0.00349572 -3.83884e-07 0)
(0.0034984 -3.79749e-07 0)
(0.00350104 -3.75667e-07 0)
(0.00350366 -3.71639e-07 0)
(0.00350624 -3.67663e-07 0)
(0.0035088 -3.63739e-07 0)
(0.00351132 -3.59866e-07 0)
(0.00351382 -3.56042e-07 0)
(0.00351628 -3.52264e-07 0)
(0.00351872 -3.48533e-07 0)
(0.00352113 -3.44845e-07 0)
(0.00352352 -3.41199e-07 0)
(0.00352587 -3.37594e-07 0)
(0.0035282 -3.34028e-07 0)
(0.00353051 -3.30499e-07 0)
(0.00353278 -3.27005e-07 0)
(0.00353503 -3.23546e-07 0)
(0.00353726 -3.2012e-07 0)
(0.00353945 -3.16726e-07 0)
(0.00354163 -3.13363e-07 0)
(0.00354377 -3.1003e-07 0)
(0.0035459 -3.06727e-07 0)
(0.003548 -3.03453e-07 0)
(0.00355007 -3.00208e-07 0)
(0.00355212 -2.96992e-07 0)
(0.00355414 -2.93805e-07 0)
(0.00355615 -2.90646e-07 0)
(0.00355813 -2.87517e-07 0)
(0.00356008 -2.84418e-07 0)
(0.00356201 -2.81348e-07 0)
(0.00356392 -2.78309e-07 0)
(0.00356581 -2.753e-07 0)
(0.00356768 -2.72324e-07 0)
(0.00356952 -2.69379e-07 0)
(0.00357134 -2.66468e-07 0)
(0.00357314 -2.6359e-07 0)
(0.00357492 -2.60746e-07 0)
(0.00357668 -2.57936e-07 0)
(0.00357842 -2.55161e-07 0)
(0.00358014 -2.52422e-07 0)
(0.00358184 -2.49717e-07 0)
(0.00358352 -2.47048e-07 0)
(0.00358518 -2.44413e-07 0)
(0.00358682 -2.4181e-07 0)
(0.00358844 -2.39236e-07 0)
(0.00359004 -2.36682e-07 0)
(0.00359163 -2.34138e-07 0)
(0.0035932 -2.31584e-07 0)
(0.00359475 -2.29083e-07 0)
(0.00359628 -2.26644e-07 0)
(0.00359779 -2.24255e-07 0)
(0.00359929 -2.21907e-07 0)
(0.00360077 -2.19593e-07 0)
(0.00360223 -2.17308e-07 0)
(0.00360368 -2.15048e-07 0)
(0.00360511 -2.12812e-07 0)
(0.00360652 -2.10596e-07 0)
(0.00360792 -2.084e-07 0)
(0.0036093 -2.06221e-07 0)
(0.00361066 -2.04058e-07 0)
(0.00361201 -2.01908e-07 0)
(0.00361334 -1.99772e-07 0)
(0.00361466 -1.97646e-07 0)
(0.00361596 -1.95528e-07 0)
(0.00361725 -1.93418e-07 0)
(0.00361852 -1.91305e-07 0)
(0.00361977 -1.89196e-07 0)
(0.00362101 -1.86977e-07 0)
(0.00362223 -1.84935e-07 0)
(0.00362343 -1.81654e-07 0)
(0.00362462 -1.84312e-07 0)
(0.0036258 -1.75233e-07 0)
(0.00362696 -1.8103e-07 0)
(0.0036281 -1.69885e-07 0)
(0.00362924 -1.78412e-07 0)
(0.00363033 -1.64516e-07 0)
(0.00363145 -1.75632e-07 0)
(0.00363249 -1.58759e-07 0)
(0.0036336 -1.72512e-07 0)
(0.00363457 -1.52232e-07 0)
(0.0036357 -1.69561e-07 0)
(0.00363656 -1.43649e-07 0)
(0.00363774 -1.67151e-07 0)
(0.00363844 -1.30796e-07 0)
(0.00363973 -1.66563e-07 0)
(0.00364021 -1.10632e-07 0)
(0.00364167 -1.72734e-07 0)
(0.00364183 -7.18719e-08 0)
(0.00364371 -2.12195e-07 0)
(0.00364325 -9.83684e-08 0)
(0.00364624 -4.0393e-07 0)
(0.00364458 -8.32954e-07 0)
(1.08655e-06 -5.2675e-06 0)
(-1.30987e-05 1.24123e-05 0)
(-5.73203e-05 4.04887e-05 0)
(-0.000130446 6.40999e-05 0)
(-0.000228699 8.26233e-05 0)
(-0.000344098 9.25003e-05 0)
(-0.000472088 9.83446e-05 0)
(-0.000606863 0.0001 0)
(-0.000745435 9.9883e-05 0)
(-0.00088596 9.84291e-05 0)
(-0.00102591 9.67356e-05 0)
(-0.00116651 9.51816e-05 0)
(-0.00130586 9.40114e-05 0)
(-0.00144431 9.33565e-05 0)
(-0.0015816 9.31164e-05 0)
(-0.00171792 9.32616e-05 0)
(-0.00185325 9.37667e-05 0)
(-0.00198763 9.45711e-05 0)
(-0.00212114 9.54084e-05 0)
(-0.00225347 9.59165e-05 0)
(-0.00238437 9.64647e-05 0)
(-0.00251392 9.7103e-05 0)
(-0.00264213 9.7665e-05 0)
(-0.00276902 9.80417e-05 0)
(-0.00289456 9.81445e-05 0)
(-0.00301876 9.79093e-05 0)
(-0.00314164 9.7293e-05 0)
(-0.00326323 9.62577e-05 0)
(-0.00338361 9.479e-05 0)
(-0.00350283 9.28826e-05 0)
(-0.00362096 9.04789e-05 0)
(-0.00373801 8.74526e-05 0)
(-0.00385392 8.31293e-05 0)
(-0.00396842 7.5901e-05 0)
(-0.00408164 7.18736e-05 0)
(-0.00419537 7.00165e-05 0)
(-0.00430798 6.53526e-05 0)
(-0.00442007 6.02944e-05 0)
(-0.00453133 5.56182e-05 0)
(-0.00464173 5.14552e-05 0)
(-0.00475121 4.79324e-05 0)
(-0.00485976 4.50491e-05 0)
(-0.00496731 4.29013e-05 0)
(-0.00507389 4.14097e-05 0)
(-0.00517949 4.05081e-05 0)
(-0.00528414 4.00776e-05 0)
(-0.00538789 4.00276e-05 0)
(-0.00549078 4.02917e-05 0)
(-0.00559289 4.08378e-05 0)
(-0.0056943 4.16542e-05 0)
(-0.00579508 4.27884e-05 0)
(-0.00589532 4.42099e-05 0)
(-0.00599508 4.61991e-05 0)
(-0.00609448 4.84552e-05 0)
(-0.0061934 5.17569e-05 0)
(-0.00629209 5.52535e-05 0)
(-0.00639009 5.97325e-05 0)
(-0.0064878 6.24316e-05 0)
(-0.00658426 7.08704e-05 0)
(-0.00667955 7.68547e-05 0)
(-0.00677227 8.22677e-05 0)
(-0.00686409 8.67487e-05 0)
(-0.00695489 9.03052e-05 0)
(-0.00704562 9.3041e-05 0)
(-0.00713673 9.43814e-05 0)
(-0.00722763 9.4885e-05 0)
(-0.00731853 9.4711e-05 0)
(-0.00740926 9.40908e-05 0)
(-0.00749976 9.31932e-05 0)
(-0.00759002 9.20488e-05 0)
(-0.00767997 9.07808e-05 0)
(-0.00776962 8.93446e-05 0)
(-0.00785892 8.78454e-05 0)
(-0.0079479 8.62072e-05 0)
(-0.00803649 8.45214e-05 0)
(-0.00812473 8.26964e-05 0)
(-0.00821255 8.08368e-05 0)
(-0.00829999 7.88141e-05 0)
(-0.00838697 7.67954e-05 0)
(-0.00847358 7.46017e-05 0)
(-0.00855966 7.24442e-05 0)
(-0.00864534 7.00686e-05 0)
(-0.00873041 6.75974e-05 0)
(-0.00881502 6.42005e-05 0)
(-0.00889897 5.98685e-05 0)
(-0.00898328 5.90422e-05 0)
(-0.00906686 5.72997e-05 0)
(-0.00915039 5.56671e-05 0)
(-0.00923271 5.54845e-05 0)
(-0.00931441 5.56842e-05 0)
(-0.00939417 5.68739e-05 0)
(-0.00947311 5.70642e-05 0)
(-0.00955007 5.78794e-05 0)
(-0.00962597 6.14498e-05 0)
(-0.00969944 6.48059e-05 0)
(-0.00977187 6.75842e-05 0)
(-0.0098416 7.12639e-05 0)
(-0.00990987 7.34593e-05 0)
(-0.00997463 7.73473e-05 0)
(-0.0100379 7.93571e-05 0)
(-0.0100965 8.33251e-05 0)
(-0.0101532 8.48361e-05 0)
(-0.0102033 8.85967e-05 0)
(-0.0102521 8.83419e-05 0)
(-0.0102926 9.13804e-05 0)
(-0.0103309 8.83149e-05 0)
(-0.0103591 8.93526e-05 0)
(-0.0103839 7.94794e-05 0)
(-0.0103984 7.49634e-05 0)
(-0.0104098 5.27895e-05 0)
(-0.0104063 3.88736e-05 0)
(-0.0104062 6.59911e-07 0)
(-0.0104102 -1.26886e-05 0)
(-0.0104071 -4.62179e-05 0)
(-0.0103975 -5.64206e-05 0)
(-0.0103748 -8.52009e-05 0)
(-0.0103462 -9.1892e-05 0)
(-0.0103028 -0.00011817 0)
(-0.0102552 -0.000123968 0)
(-0.0101905 -0.00014836 0)
(-0.0101236 -0.000154991 0)
(-0.0100376 -0.000177542 0)
(-0.0099512 -0.000184595 0)
(-0.00984376 -0.00020466 0)
(-0.00973886 -0.000210936 0)
(-0.00961028 -0.000225494 0)
(-0.009488 -0.000228386 0)
(-0.00934087 -0.000230632 0)
(-0.00920087 -0.000221954 0)
(-0.00903529 -0.000201666 0)
(-0.00886803 -0.0001565 0)
(-0.00866508 -0.00010975 0)
(-0.00844317 -3.7002e-05 0)
(-0.00818474 -4.72768e-06 0)
(-0.00792196 3.64001e-05 0)
(-0.00764414 3.3949e-05 0)
(-0.0073608 5.45201e-05 0)
(-0.00706564 4.47565e-05 0)
(-0.006761 5.30461e-05 0)
(-0.00644299 4.30312e-05 0)
(-0.00611235 4.18686e-05 0)
(-0.00576431 2.98212e-05 0)
(-0.00539367 1.5456e-05 0)
(-0.00501101 -1.21356e-05 0)
(-0.00458353 -5.12533e-05 0)
(-0.00420228 -0.000123353 0)
(-0.0037781 -0.000184852 0)
(-0.00343788 -0.000273584 0)
(-0.00315 -0.000306495 0)
(-0.0027769 -0.0003402 0)
(-0.00244305 -0.000346024 0)
(-0.00204766 -0.000360343 0)
(-0.00170251 -0.00036471 0)
(-0.00132313 -0.000388811 0)
(-0.000982498 -0.000409929 0)
(-0.000513737 -0.000443336 0)
(-8.58089e-05 -0.000430649 0)
(0.000374701 -0.000426747 0)
(0.000770306 -0.000402587 0)
(0.00120856 -0.000402317 0)
(0.00159551 -0.000376391 0)
(0.00201344 -0.000364252 0)
(0.00238618 -0.000340657 0)
(0.0027872 -0.000335568 0)
(0.00315023 -0.000317909 0)
(0.00353723 -0.000315217 0)
(0.00389038 -0.000296619 0)
(0.00425834 -0.000295081 0)
(0.00460145 -0.000275091 0)
(0.00494459 -0.000275459 0)
(0.00527671 -0.000252915 0)
(0.00559689 -0.000257223 0)
(0.00591418 -0.0002318 0)
(0.00621204 -0.000237886 0)
(0.00651117 -0.000212368 0)
(0.00678659 -0.000216852 0)
(0.00706533 -0.000193883 0)
(0.00731953 -0.000196588 0)
(0.00757581 -0.000175871 0)
(0.00780951 -0.000176916 0)
(0.00804248 -0.000158635 0)
(0.0082562 -0.000157684 0)
(0.00846612 -0.00014219 0)
(0.00865973 -0.000139008 0)
(0.00884699 -0.000126699 0)
(0.00902102 -0.000120886 0)
(0.0091864 -0.00011165 0)
(0.00934082 -0.000104455 0)
(0.00948568 -9.69753e-05 0)
(0.00962093 -8.96576e-05 0)
(0.00974676 -8.2623e-05 0)
(0.00986343 -7.58696e-05 0)
(0.00997115 -6.93587e-05 0)
(0.0100702 -6.31099e-05 0)
(0.0101609 -5.69466e-05 0)
(0.0102435 -5.12857e-05 0)
(0.0103184 -4.5565e-05 0)
(0.0103855 -4.04074e-05 0)
(0.0104459 -3.5059e-05 0)
(0.0104989 -3.05094e-05 0)
(0.0105457 -2.54629e-05 0)
(0.0105858 -2.16177e-05 0)
(0.0106203 -1.71342e-05 0)
(0.0106486 -1.39278e-05 0)
(0.0106722 -9.93375e-06 0)
(0.0106898 -6.98808e-06 0)
(0.0107035 -3.79969e-06 0)
(0.0107116 -7.19095e-07 0)
(0.0107167 1.50419e-06 0)
(0.0107167 4.59589e-06 0)
(0.0107128 6.92759e-06 0)
(0.0107053 9.42087e-06 0)
(0.0106945 1.1755e-05 0)
(0.0106806 1.38881e-05 0)
(0.0106637 1.585e-05 0)
(0.0106443 1.76031e-05 0)
(0.0106224 1.89544e-05 0)
(0.0105983 2.06326e-05 0)
(0.0105724 2.17452e-05 0)
(0.0105443 2.29554e-05 0)
(0.0105151 2.3946e-05 0)
(0.0104837 2.47898e-05 0)
(0.0104519 2.56882e-05 0)
(0.0104178 2.61377e-05 0)
(0.0103841 2.6933e-05 0)
(0.0103479 2.69782e-05 0)
(0.0103128 2.77142e-05 0)
(0.0102752 2.74562e-05 0)
(0.010239 2.80931e-05 0)
(0.0102005 2.77175e-05 0)
(0.0101638 2.81337e-05 0)
(0.0101249 2.77049e-05 0)
(0.0100879 2.79023e-05 0)
(0.010049 2.74578e-05 0)
(0.0100121 2.74382e-05 0)
(0.00997357 2.70108e-05 0)
(0.00993691 2.67719e-05 0)
(0.00989929 2.63597e-05 0)
(0.0098631 2.59692e-05 0)
(0.00982657 2.55057e-05 0)
(0.00979115 2.50474e-05 0)
(0.0097558 2.45351e-05 0)
(0.00972146 2.40195e-05 0)
(0.00968731 2.3456e-05 0)
(0.00965432 2.28742e-05 0)
(0.0096215 2.22878e-05 0)
(0.00959 2.16422e-05 0)
(0.00955863 2.105e-05 0)
(0.00952873 2.03387e-05 0)
(0.00949893 1.97511e-05 0)
(0.00947072 1.89697e-05 0)
(0.00944255 1.83916e-05 0)
(0.00941609 1.75284e-05 0)
(0.00938964 1.69608e-05 0)
(0.00936496 1.60068e-05 0)
(0.00934027 1.54539e-05 0)
(0.00931739 1.44107e-05 0)
(0.00929448 1.38891e-05 0)
(0.00927339 1.27914e-05 0)
(0.00925223 1.23384e-05 0)
(0.00923292 1.12559e-05 0)
(0.00921352 1.08913e-05 0)
(0.00919602 9.8487e-06 0)
(0.0091784 9.55528e-06 0)
(0.00916272 8.52824e-06 0)
(0.00914689 8.2657e-06 0)
(0.00913299 7.24082e-06 0)
(0.00911892 7.03121e-06 0)
(0.00910679 5.96504e-06 0)
(0.00909447 5.8343e-06 0)
(0.00908404 4.7321e-06 0)
(0.00907342 4.68725e-06 0)
(0.00906463 3.61248e-06 0)
(0.00905566 3.59768e-06 0)
(0.00904843 2.56051e-06 0)
(0.00904107 2.55551e-06 0)
(0.00903533 1.54977e-06 0)
(0.00902954 1.56556e-06 0)
(0.00902523 5.41203e-07 0)
(0.00902093 6.2779e-07 0)
(0.00901798 -3.92415e-07 0)
(0.00901512 -1.98476e-07 0)
(0.00901347 -1.32292e-06 0)
(0.00901193 -1.08519e-06 0)
(0.00901138 -2.11021e-06 0)
(0.00901119 -1.96919e-06 0)
(0.00901198 -2.87837e-06 0)
(0.009013 -2.73136e-06 0)
(0.00901481 -3.57409e-06 0)
(0.00901703 -3.63348e-06 0)
(0.00901993 -4.28631e-06 0)
(0.00902322 -4.57071e-06 0)
(0.00902712 -4.90849e-06 0)
(0.00903143 -5.2167e-06 0)
(0.00903624 -5.54674e-06 0)
(0.00904149 -5.83426e-06 0)
(0.00904723 -6.12204e-06 0)
(0.00905336 -6.40463e-06 0)
(0.00905999 -6.62165e-06 0)
(0.0090668 -6.98206e-06 0)
(0.00907432 -7.10189e-06 0)
(0.00908171 -7.44796e-06 0)
(0.0090901 -7.54496e-06 0)
(0.00909806 -7.92286e-06 0)
(0.0091072 -7.94567e-06 0)
(0.00911571 -8.33249e-06 0)
(0.00912552 -8.32029e-06 0)
(0.00913456 -8.68911e-06 0)
(0.00914494 -8.65069e-06 0)
(0.00915449 -9.00602e-06 0)
(0.00916539 -8.94253e-06 0)
(0.00917539 -9.27525e-06 0)
(0.00918675 -9.20136e-06 0)
(0.00919715 -9.5066e-06 0)
(0.00920893 -9.42768e-06 0)
(0.00921969 -9.70357e-06 0)
(0.00923181 -9.6198e-06 0)
(0.00924291 -9.87216e-06 0)
(0.00925533 -9.77963e-06 0)
(0.00926671 -1.00114e-05 0)
(0.0092794 -9.89473e-06 0)
(0.00929102 -1.01133e-05 0)
(0.00930393 -9.97325e-06 0)
(0.00931575 -1.0162e-05 0)
(0.00932884 -1.00067e-05 0)
(0.00934082 -1.01521e-05 0)
(0.00935403 -9.99156e-06 0)
(0.00936613 -1.01011e-05 0)
(0.00937942 -9.97527e-06 0)
(0.00939161 -1.00766e-05 0)
(0.00940495 -9.97271e-06 0)
(0.00941721 -1.00676e-05 0)
(0.00943057 -9.96367e-06 0)
(0.00944288 -1.00373e-05 0)
(0.00945625 -9.93641e-06 0)
(0.00946858 -9.97259e-06 0)
(0.00948194 -9.84861e-06 0)
(0.00949428 -9.84725e-06 0)
(0.00950762 -9.73003e-06 0)
(0.00951996 -9.71241e-06 0)
(0.00953319 -9.61331e-06 0)
(0.00954553 -9.59348e-06 0)
(0.00955864 -9.50007e-06 0)
(0.00957095 -9.47578e-06 0)
(0.0095839 -9.38797e-06 0)
(0.00959618 -9.35535e-06 0)
(0.00960896 -9.2747e-06 0)
(0.00962118 -9.23211e-06 0)
(0.00963379 -9.15576e-06 0)
(0.00964595 -9.10551e-06 0)
(0.00965836 -9.03201e-06 0)
(0.00967044 -8.97362e-06 0)
(0.00968266 -8.9028e-06 0)
(0.00969465 -8.83566e-06 0)
(0.00970666 -8.76717e-06 0)
(0.00971854 -8.70213e-06 0)
(0.00973036 -8.62666e-06 0)
(0.00974209 -8.55843e-06 0)
(0.00975375 -8.48365e-06 0)
(0.00976531 -8.41184e-06 0)
(0.0097768 -8.33804e-06 0)
(0.00978819 -8.26539e-06 0)
(0.00979949 -8.19131e-06 0)
(0.00981071 -8.11791e-06 0)
(0.00982183 -8.04319e-06 0)
(0.00983286 -7.96899e-06 0)
(0.0098438 -7.89366e-06 0)
(0.00985464 -7.81881e-06 0)
(0.00986539 -7.74329e-06 0)
(0.00987605 -7.66805e-06 0)
(0.00988661 -7.59245e-06 0)
(0.00989707 -7.51692e-06 0)
(0.00990744 -7.44123e-06 0)
(0.00991771 -7.36562e-06 0)
(0.00992788 -7.28995e-06 0)
(0.00993795 -7.21438e-06 0)
(0.00994793 -7.13879e-06 0)
(0.00995781 -7.06334e-06 0)
(0.00996758 -6.98794e-06 0)
(0.00997726 -6.91272e-06 0)
(0.00998685 -6.83763e-06 0)
(0.00999633 -6.76278e-06 0)
(0.0100057 -6.68813e-06 0)
(0.010015 -6.61378e-06 0)
(0.0100242 -6.53972e-06 0)
(0.0100333 -6.46601e-06 0)
(0.0100423 -6.39268e-06 0)
(0.0100512 -6.31977e-06 0)
(0.01006 -6.2473e-06 0)
(0.0100687 -6.17533e-06 0)
(0.0100773 -6.10387e-06 0)
(0.0100858 -6.03298e-06 0)
(0.0100942 -5.96268e-06 0)
(0.0101025 -5.893e-06 0)
(0.0101108 -5.82398e-06 0)
(0.0101189 -5.75564e-06 0)
(0.0101269 -5.688e-06 0)
(0.0101349 -5.6211e-06 0)
(0.0101428 -5.55494e-06 0)
(0.0101505 -5.48954e-06 0)
(0.0101582 -5.42493e-06 0)
(0.0101658 -5.3611e-06 0)
(0.0101734 -5.29806e-06 0)
(0.0101808 -5.23582e-06 0)
(0.0101881 -5.17438e-06 0)
(0.0101954 -5.11373e-06 0)
(0.0102026 -5.05386e-06 0)
(0.0102097 -4.99477e-06 0)
(0.0102167 -4.93645e-06 0)
(0.0102236 -4.87888e-06 0)
(0.0102305 -4.82206e-06 0)
(0.0102373 -4.76596e-06 0)
(0.010244 -4.71058e-06 0)
(0.0102506 -4.6559e-06 0)
(0.0102572 -4.60189e-06 0)
(0.0102637 -4.54854e-06 0)
(0.0102701 -4.49582e-06 0)
(0.0102764 -4.44372e-06 0)
(0.0102827 -4.39223e-06 0)
(0.0102889 -4.34131e-06 0)
(0.010295 -4.29095e-06 0)
(0.010301 -4.24114e-06 0)
(0.010307 -4.19187e-06 0)
(0.0103129 -4.1431e-06 0)
(0.0103188 -4.09485e-06 0)
(0.0103246 -4.04709e-06 0)
(0.0103303 -3.99982e-06 0)
(0.0103359 -3.95302e-06 0)
(0.0103415 -3.90671e-06 0)
(0.010347 -3.86086e-06 0)
(0.0103525 -3.81549e-06 0)
(0.0103578 -3.77058e-06 0)
(0.0103632 -3.72615e-06 0)
(0.0103684 -3.6822e-06 0)
(0.0103736 -3.63872e-06 0)
(0.0103788 -3.59572e-06 0)
(0.0103839 -3.55321e-06 0)
(0.0103889 -3.51119e-06 0)
(0.0103939 -3.46967e-06 0)
(0.0103988 -3.42865e-06 0)
(0.0104036 -3.38814e-06 0)
(0.0104084 -3.34813e-06 0)
(0.0104132 -3.30865e-06 0)
(0.0104178 -3.26968e-06 0)
(0.0104225 -3.23122e-06 0)
(0.010427 -3.19329e-06 0)
(0.0104316 -3.15587e-06 0)
(0.010436 -3.11897e-06 0)
(0.0104405 -3.08258e-06 0)
(0.0104448 -3.04669e-06 0)
(0.0104492 -3.01129e-06 0)
(0.0104534 -2.97638e-06 0)
(0.0104576 -2.94195e-06 0)
(0.0104618 -2.908e-06 0)
(0.0104659 -2.87455e-06 0)
(0.01047 -2.84164e-06 0)
(0.0104741 -2.80913e-06 0)
(0.010478 -2.77693e-06 0)
(0.010482 -2.74506e-06 0)
(0.0104859 -2.71351e-06 0)
(0.0104897 -2.68226e-06 0)
(0.0104936 -2.65131e-06 0)
(0.0104973 -2.62063e-06 0)
(0.010501 -2.59021e-06 0)
(0.0105047 -2.56003e-06 0)
(0.0105084 -2.53005e-06 0)
(0.0105119 -2.50026e-06 0)
(0.0105155 -2.47063e-06 0)
(0.010519 -2.44115e-06 0)
(0.0105225 -2.4118e-06 0)
(0.0105259 -2.38254e-06 0)
(0.0105293 -2.35338e-06 0)
(0.0105326 -2.32427e-06 0)
(0.0105359 -2.29519e-06 0)
(0.0105392 -2.26612e-06 0)
(0.0105424 -2.23678e-06 0)
(0.0105456 -2.20778e-06 0)
(0.0105487 -2.17559e-06 0)
(0.0105518 -2.15952e-06 0)
(0.0105548 -2.11326e-06 0)
(0.0105579 -2.10226e-06 0)
(0.0105608 -2.05179e-06 0)
(0.0105638 -2.04716e-06 0)
(0.0105666 -1.98852e-06 0)
(0.0105695 -1.98806e-06 0)
(0.0105722 -1.92677e-06 0)
(0.0105751 -1.9253e-06 0)
(0.0105777 -1.86305e-06 0)
(0.0105805 -1.85974e-06 0)
(0.0105829 -1.79451e-06 0)
(0.0105857 -1.792e-06 0)
(0.0105879 -1.71736e-06 0)
(0.0105908 -1.72548e-06 0)
(0.0105927 -1.6298e-06 0)
(0.0105958 -1.67654e-06 0)
(0.0105972 -1.54042e-06 0)
(0.0106006 -1.70055e-06 0)
(0.0106013 -1.58883e-06 0)
(0.0106056 -1.98703e-06 0)
(0.0106048 -2.44017e-06 0)
(-4.42764e-06 5.87029e-06 0)
(-4.63257e-05 5.89485e-05 0)
(-0.00013362 0.000123847 0)
(-0.000262754 0.000181813 0)
(-0.000426166 0.00022728 0)
(-0.000613997 0.000256549 0)
(-0.000818891 0.000274916 0)
(-0.00103376 0.000283399 0)
(-0.00125406 0.000286762 0)
(-0.00147672 0.00028652 0)
(-0.00169909 0.000284898 0)
(-0.00192071 0.000282025 0)
(-0.00214013 0.000278779 0)
(-0.0023575 0.000275678 0)
(-0.00257261 0.000272664 0)
(-0.00278537 0.000269577 0)
(-0.00299584 0.000266238 0)
(-0.00320384 0.000263135 0)
(-0.00340895 0.000259449 0)
(-0.00361161 0.000255033 0)
(-0.00381255 0.000250459 0)
(-0.00401142 0.000245916 0)
(-0.00420837 0.000241511 0)
(-0.0044032 0.000237273 0)
(-0.00459589 0.000233331 0)
(-0.00478642 0.000229795 0)
(-0.00497476 0.000226812 0)
(-0.00516095 0.000224469 0)
(-0.00534498 0.000222837 0)
(-0.00552688 0.000221983 0)
(-0.00570667 0.000221803 0)
(-0.00588433 0.000222301 0)
(-0.00606003 0.000223047 0)
(-0.00623423 0.000224086 0)
(-0.00640742 0.000228374 0)
(-0.00657674 0.00023109 0)
(-0.00674286 0.000234421 0)
(-0.00690707 0.000237434 0)
(-0.0070692 0.000240011 0)
(-0.00722925 0.000242026 0)
(-0.00738727 0.000243451 0)
(-0.00754342 0.000244073 0)
(-0.00769777 0.00024404 0)
(-0.00785066 0.000243281 0)
(-0.00800215 0.000241936 0)
(-0.00815237 0.000240108 0)
(-0.00830127 0.000237924 0)
(-0.00844885 0.000235483 0)
(-0.00859505 0.000232859 0)
(-0.00873986 0.000230073 0)
(-0.00888323 0.000227156 0)
(-0.00902517 0.00022396 0)
(-0.00916554 0.000220678 0)
(-0.00930468 0.000216599 0)
(-0.00944186 0.00021259 0)