/*--------------------------------*- C++ -*----------------------------------*\
| =========                 |                                                 |
| \\      /  F ield         | OpenFOAM: The Open Source CFD Toolbox           |
|  \\    /   O peration     | Version:  2012                                  |
|   \\  /    A nd           | Website:  www.openfoam.com                      |
|    \\/     M anipulation  |                                                 |
\*---------------------------------------------------------------------------*/
FoamFile
{
    version     2.0;
    format      ascii;
    class       volScalarField;
    location    "0.08";
    object      maxKappa;
}
// * * * * * * * * * * * * * * * * * * * * * * * * * * * * * * * * * * * * * //

dimensions      [0 0 0 0 0 0 0];


internalField   nonuniform List<scalar> 
2268
(
1.21668e-06
2.37668e-06
3.58725e-06
4.83208e-06
6.14252e-06
7.5187e-06
8.99525e-06
1.059e-05
1.23356e-05
1.42783e-05
1.64139e-05
1.89294e-05
2.20693e-05
2.57732e-05
2.88615e-05
4.09103e-05
0.000211994
0.000648019
0.000701249
0.000701249
0.000575991
0.000375984
0.00017781
1.48148e-06
2.50999e-06
3.67412e-06
4.89581e-06
6.19224e-06
7.55829e-06
9.02735e-06
1.06158e-05
1.23536e-05
1.42951e-05
1.64412e-05
1.89518e-05
2.2006e-05
2.53772e-05
3.2342e-05
9.87051e-05
0.000461519
0.00076725
0.00076725
0.000693918
0.000547888
0.000374687
0.000219623
1.86861e-06
2.75228e-06
3.84018e-06
5.01961e-06
6.28934e-06
7.63573e-06
9.08934e-06
1.06653e-05
1.23885e-05
1.43207e-05
1.64709e-05
1.89722e-05
2.19625e-05
2.50551e-05
4.38975e-05
0.000269265
0.000665239
0.000801591
0.000801591
0.000657252
0.000502581
0.00036803
0.000257175
2.31377e-06
3.07367e-06
4.07407e-06
5.19859e-06
6.43155e-06
7.75033e-06
9.18168e-06
1.07396e-05
1.24433e-05
1.43576e-05
1.65026e-05
1.89895e-05
2.18972e-05
2.56959e-05
6.5648e-05
0.000451989
0.000761135
0.000761135
0.000721535
0.000575555
0.000457979
0.000378062
0.000303917
2.78764e-06
3.44753e-06
4.36105e-06
5.42395e-06
6.6125e-06
7.89655e-06
9.29877e-06
1.08319e-05
1.25105e-05
1.43957e-05
1.65192e-05
1.89817e-05
2.17757e-05
3.36044e-05
0.000189969
0.000589665
0.000740378
0.000740378
0.000628375
0.000510547
0.00044754
0.000401572
0.000343657
3.27676e-06
3.85672e-06
4.6898e-06
5.68956e-06
6.82934e-06
8.07386e-06
9.44281e-06
1.0946e-05
1.2596e-05
1.44452e-05
1.65341e-05
1.89648e-05
2.16162e-05
4.29503e-05
0.000307658
0.000660633
0.000660633
0.000651929
0.000546161
0.000462615
0.000447406
0.000425064
0.000394105
3.77074e-06
4.28636e-06
5.04702e-06
5.98456e-06
7.07252e-06
8.27248e-06
9.60292e-06
1.10677e-05
1.26814e-05
1.44847e-05
1.65216e-05
1.89107e-05
2.1395e-05
5.17661e-05
0.00041738
0.000664236
0.000664236
0.000585189
0.000478444
0.000457351
0.000457351
0.000443341
0.000421267
4.26583e-06
4.72905e-06
5.42554e-06
6.30407e-06
7.33973e-06
8.49294e-06
9.78356e-06
1.12071e-05
1.27844e-05
1.4545e-05
1.65321e-05
1.88568e-05
2.39149e-05
8.66129e-05
0.000485359
0.000584084
0.000584084
0.00049611
0.000437254
0.000464614
0.000472401
0.000489401
0.000489401
1.45011e-05
3.57309e-05
4.90033e-05
5.83003e-05
6.21599e-05
6.25039e-05
6.25039e-05
6.07963e-05
5.72049e-05
5.30165e-05
4.79444e-05
4.28396e-05
3.73817e-05
3.2038e-05
2.65756e-05
2.12389e-05
1.58774e-05
1.06132e-05
5.4113e-06
2.14632e-05
3.82232e-05
5.03113e-05
5.90393e-05
6.26934e-05
6.2844e-05
6.2844e-05
6.10483e-05
5.73722e-05
5.31641e-05
4.80774e-05
4.29734e-05
3.75242e-05
3.21988e-05
2.67664e-05
2.14776e-05
1.61972e-05
1.11033e-05
6.40694e-06
2.32992e-05
4.33318e-05
5.3656e-05
6.15413e-05
6.43254e-05
6.43254e-05
6.3984e-05
6.18237e-05
5.79317e-05
5.35861e-05
4.84308e-05
4.32951e-05
3.78453e-05
3.2543e-05
2.71597e-05
2.19564e-05
1.68226e-05
1.20149e-05
7.91255e-06
3.45675e-05
4.96548e-05
5.73565e-05
6.38358e-05
6.59591e-05
6.59591e-05
6.49368e-05
6.25634e-05
5.84444e-05
5.40303e-05
4.88288e-05
4.36926e-05
3.82669e-05
3.3016e-05
2.7715e-05
2.26389e-05
1.77056e-05
1.32398e-05
9.6689e-06
3.81593e-05
6.03769e-05
6.42911e-05
6.87967e-05
6.90772e-05
6.90772e-05
6.70698e-05
6.40354e-05
5.94998e-05
5.4842e-05
4.95135e-05
4.43189e-05
3.88916e-05
3.36818e-05
2.8468e-05
2.35352e-05
1.88259e-05
1.47056e-05
1.15775e-05
5.32371e-05
7.01612e-05
7.07082e-05
7.26899e-05
7.26899e-05
7.19685e-05
6.87555e-05
6.52991e-05
6.03894e-05
5.55852e-05
5.01739e-05
4.49697e-05
3.95762e-05
3.44402e-05
2.93434e-05
2.45812e-05
2.0115e-05
1.63261e-05
1.35639e-05
5.75424e-05
9.14885e-05
9.14885e-05
8.29212e-05
7.9909e-05
7.63231e-05
7.16251e-05
6.72606e-05
6.18312e-05
5.67136e-05
5.11443e-05
4.58658e-05
4.04723e-05
3.53887e-05
3.04004e-05
2.5804e-05
2.15718e-05
1.80793e-05
1.56137e-05
0.000107049
0.000110882
0.000110882
9.70543e-05
8.59976e-05
8.05927e-05
7.41434e-05
6.90459e-05
6.31038e-05
5.77474e-05
5.20584e-05
4.67533e-05
4.13951e-05
3.63946e-05
3.15383e-05
2.71219e-05
2.31239e-05
1.9901e-05
1.76829e-05
5.45697e-06
5.68838e-06
6.1978e-06
6.84727e-06
7.80687e-06
8.88876e-06
1.01194e-05
1.14779e-05
1.29971e-05
1.46865e-05
1.65893e-05
1.87602e-05
3.09039e-05
0.000193828
0.000522794
0.000563945
0.000514501
0.000411534
0.000443717
0.00046545
0.000491265
0.000555833
0.000555833
6.47253e-06
6.66263e-06
7.10148e-06
7.64415e-06
8.47049e-06
9.45133e-06
1.05901e-05
1.18467e-05
1.32663e-05
1.48331e-05
1.66041e-05
1.85299e-05
3.97859e-05
0.000298516
0.000517269
0.000563945
0.00039844
0.000389832
0.000422693
0.000444255
0.000453861
0.000473649
0.000554067
7.42818e-06
7.58949e-06
7.97247e-06
8.44518e-06
9.14419e-06
1.00318e-05
1.10746e-05
1.22303e-05
1.35372e-05
1.49729e-05
1.65924e-05
1.82762e-05
4.69785e-05
0.000372008
0.000517269
0.00043814
0.000297164
0.000382991
0.000401548
0.000411563
0.000417093
0.000412123
0.000470001
8.31825e-06
8.45866e-06
8.79478e-06
9.21332e-06
9.83618e-06
1.06174e-05
1.15658e-05
1.26273e-05
1.38175e-05
1.51307e-05
1.65899e-05
2.21591e-05
0.000100713
0.000406828
0.000503157
0.000364277
0.000306797
0.00037439
0.000374649
0.000377446
0.000379511
0.000362029
0.000391543
9.13834e-06
9.26333e-06
9.55878e-06
9.93539e-06
1.04891e-05
1.11769e-05
1.20344e-05
1.3006e-05
1.40806e-05
1.52769e-05
1.65786e-05
2.63066e-05
0.000161819
0.000419519
0.000478078
0.000317343
0.000322785
0.000355261
0.000352638
0.000345394
0.000345325
0.000321756
0.000327809
9.88653e-06
9.99982e-06
1.02591e-05
1.06028e-05
1.10925e-05
1.17108e-05
1.2485e-05
1.33716e-05
1.43386e-05
1.54269e-05
1.65833e-05
2.99026e-05
0.000201188
0.000416347
0.000448267
0.000277259
0.00034642
0.000329217
0.000335489
0.00031715
0.000317367
0.000293217
0.000288234
1.05617e-05
1.0666e-05
1.0893e-05
1.12108e-05
1.16419e-05
1.21966e-05
1.28959e-05
1.37021e-05
1.45727e-05
1.55592e-05
1.65874e-05
3.30903e-05
0.000235641
0.000422074
0.000398364
0.000251007
0.00034642
0.000321148
0.000320008
0.000296839
0.000293782
0.000272041
0.000260394
1.11643e-05
1.12615e-05
1.14596e-05
1.17563e-05
1.21337e-05
1.26459e-05
1.32789e-05
1.401e-05
1.47954e-05
1.56874e-05
1.66062e-05
3.59452e-05
0.000265801
0.000425507
0.000341909
0.000264697
0.000343031
0.000304423
0.000303483
0.000278122
0.000274451
0.00025185
0.000241615
1.16948e-05
1.17864e-05
1.19591e-05
1.22388e-05
1.2569e-05
1.30369e-05
1.36103e-05
1.42732e-05
1.4986e-05
1.57933e-05
1.66219e-05
3.85041e-05
0.000291772
0.000425507
0.000293213
0.000271355
0.000320071
0.0002852
0.000285434
0.000263869
0.000257375
0.000239717
0.000225845
1.21555e-05
1.22422e-05
1.23922e-05
1.26575e-05
1.29458e-05
1.33906e-05
1.39148e-05
1.45169e-05
1.5167e-05
1.58973e-05
1.66493e-05
4.08236e-05
0.000313993
0.000423843
0.000252657
0.000271932
0.000291059
0.000268582
0.000267361
0.000249269
0.000242686
0.000225738
0.000213829
1.25478e-05
1.26308e-05
1.27616e-05
1.30155e-05
1.32683e-05
1.36891e-05
1.41564e-05
1.47049e-05
1.5305e-05
1.59718e-05
1.66694e-05
4.28448e-05
0.000332604
0.000419307
0.000223106
0.000282943
0.000264829
0.000260973
0.000250767
0.000239666
0.000229662
0.000217326
0.000204856
1.28734e-05
1.29532e-05
1.30676e-05
1.33112e-05
1.35606e-05
1.39392e-05
1.43873e-05
1.48916e-05
1.545e-05
1.6059e-05
1.67018e-05
4.46615e-05
0.000347891
0.000413
0.000222042
0.000288558
0.000259731
0.000258806
0.000242426
0.000233683
0.000220575
0.000208192
0.000196255
1.31385e-05
1.32161e-05
1.33183e-05
1.3554e-05
1.37748e-05
1.41407e-05
1.45374e-05
1.49992e-05
1.55234e-05
1.60816e-05
1.66893e-05
4.63338e-05
0.000357459
0.000401636
0.00023747
0.000289825
0.00025466
0.000257074
0.000237581
0.000228819
0.000215621
0.000202134
0.00019143
1.33359e-05
1.34115e-05
1.35039e-05
1.37317e-05
1.39832e-05
1.43113e-05
1.47095e-05
1.51401e-05
1.56346e-05
1.61368e-05
1.66803e-05
4.78154e-05
0.000359488
0.000380154
0.000248237
0.000289825
0.000251007
0.000254027
0.000231301
0.0002242
0.000208765
0.000196942
0.000185101
1.35852e-05
1.36652e-05
1.37588e-05
1.40019e-05
1.41876e-05
1.46049e-05
1.48824e-05
1.55027e-05
1.58643e-05
1.67768e-05
1.73442e-05
4.84574e-05
0.000364359
0.000341281
0.000246732
0.000283762
0.000246793
0.000250277
0.000230752
0.000219956
0.000206606
0.000192411
0.000181547
2.29466e-05
2.32435e-05
2.36307e-05
2.45642e-05
2.53638e-05
2.70765e-05
2.83269e-05
3.11726e-05
3.29973e-05
3.82208e-05
4.32494e-05
9.06494e-05
0.000364359
0.000314714
0.000219953
0.000275093
0.000239891
0.000246402
0.000226573
0.000215464
0.000201324
0.000187472
0.000176393
0.00014314
0.000145474
0.000148505
0.000155597
0.000161617
0.000174153
0.000182985
0.000202259
0.000213844
0.000244797
0.000270565
0.000312551
0.000364363
0.000324891
0.000243554
0.000324749
0.000267695
0.000254254
0.000235663
0.000216318
0.000201499
0.00018611
0.000173287
0.000285297
0.000288362
0.000293445
0.000300689
0.000309611
0.000320921
0.000333814
0.000349439
0.000368038
0.00039516
0.00039516
0.000394824
0.000382813
0.000342468
0.000256085
0.000378443
0.000316585
0.000266416
0.000241944
0.000217499
0.000199199
0.000182441
0.00016853
0.000270193
0.00027182
0.000273726
0.000278788
0.000282463
0.000291229
0.000296535
0.000309937
0.000319262
0.0003484
0.000382005
0.00044071
0.000453374
0.000310762
0.000456265
0.000412935
0.000369484
0.000300715
0.000250516
0.000222651
0.000196813
0.000179565
0.000164012
0.000259834
0.000261356
0.000263116
0.000267927
0.000271643
0.000280614
0.000294393
0.000312973
0.000342233
0.000386091
0.00044414
0.000489829
0.000501674
0.000462239
0.000484293
0.000472908
0.000385356
0.00030381
0.000250368
0.000218196
0.000191502
0.000173658
0.00015796
0.000247164
0.000249084
0.000250999
0.000255843
0.000259801
0.000269118
0.000276465
0.000293651
0.000310945
0.000346762
0.000391493
0.000455908
0.000509174
0.000509174
0.000484293
0.000400891
0.000325171
0.00026453
0.000227642
0.000200081
0.000179067
0.000162649
0.000149794
0.000234902
0.000236472
0.000238172
0.00024229
0.000245878
0.000253671
0.00026012
0.000273673
0.000286677
0.000311302
0.000343689
0.000383599
0.00044214
0.000458053
0.00040626
0.000333285
0.000282853
0.000243158
0.000213094
0.000190332
0.000170974
0.00015617
0.000143337
0.000222134
0.000223214
0.000224683
0.00022812
0.000231276
0.000237864
0.000243471
0.000254558
0.000264424
0.000280841
0.000299935
0.000321181
0.000350209
0.000355965
0.000328761
0.000280089
0.000246097
0.000210735
0.000193453
0.000170735
0.000158016
0.000142782
0.000134303
0.000209057
0.000209887
0.000211025
0.000213509
0.000215923
0.000220498
0.000224792
0.000232137
0.000239911
0.000249321
0.000262669
0.000269904
0.000284926
0.000285957
0.000263488
0.000237248
0.000212625
0.000187103
0.00017455
0.00015682
0.000145723
0.000133935
0.00012549
0.00019628
0.000196836
0.000197717
0.000199456
0.000201276
0.000204299
0.000207292
0.000211573
0.000216464
0.000220934
0.000228566
0.00023135
0.000235828
0.000233635
0.000219219
0.00020368
0.000184737
0.000167664
0.000157143
0.00014139
0.000134172
0.000122789
0.000116953
0.000183622
0.00018395
0.00018454
0.000185529
0.00018679
0.000188464
0.000190607
0.000192631
0.000195979
0.000197133
0.00020115
0.000200623
0.000201049
0.000197967
0.000186386
0.000175551
0.00016106
0.000149727
0.000140232
0.000128356
0.000122296
0.000112905
0.000108077
0.000171769
0.00017189
0.00017221
0.000172543
0.0001732
0.00017365
0.000174769
0.000175015
0.000176646
0.000176
0.000177251
0.000175564
0.00017301
0.000169355
0.00016079
0.000152842
0.000142044
0.000133854
0.000125354
0.000116631
0.000111241
0.000103728
9.96764e-05
0.000160322
0.000160292
0.000160403
0.00016027
0.000160523
0.000160146
0.000160568
0.000159609
0.000160036
0.000158159
0.000157616
0.000154959
0.000151643
0.000147799
0.000140527
0.000133932
0.000125445
0.000119052
0.000111792
0.00010541
0.000100557
9.47748e-05
9.13327e-05
0.000149865
0.000149685
0.000149559
0.000148975
0.000148748
0.000147658
0.000147338
0.000145539
0.000144916
0.000142337
0.000140638
0.000137459
0.000133486
0.000129358
0.000123387
0.000117876
0.000111268
0.000106017
0.000100012
9.51291e-05
9.08245e-05
8.64412e-05
8.34926e-05
0.000140039
0.000139767
0.000139483
0.000138624
0.000138063
0.000136516
0.000135638
0.000133292
0.000131885
0.000128807
0.000126329
0.000122784
0.000118755
0.00011465
0.000109243
0.000104358
9.87505e-05
9.41998e-05
8.91929e-05
8.53286e-05
8.1638e-05
7.83728e-05
7.59024e-05
0.000131212
0.000130847
0.000130381
0.000129261
0.000128345
0.000126424
0.000125038
0.000122286
0.000120278
0.000116857
0.000113881
0.000110017
0.000105841
0.000101619
9.67845e-05
9.23568e-05
8.76044e-05
8.366e-05
7.95159e-05
7.63564e-05
7.32761e-05
7.08291e-05
6.88248e-05
0.000123117
0.000122698
0.000122104
0.000120825
0.000119642
0.000117479
0.00011569
0.00011267
0.000110185
0.000106508
0.000103163
9.91412e-05
9.49771e-05
9.0779e-05
8.61961e-05
8.20213e-05
7.77287e-05
7.41442e-05
7.05827e-05
6.79119e-05
6.53733e-05
6.35643e-05
6.20345e-05
0.000115967
0.000115494
0.00011477
0.000113345
0.000111911
0.000109546
0.000107416
0.00010418
0.000101326
9.74463e-05
9.38263e-05
8.95817e-05
8.53277e-05
8.10232e-05
7.66558e-05
7.2643e-05
6.87329e-05
6.54444e-05
6.23802e-05
6.0102e-05
5.80629e-05
5.67574e-05
5.56935e-05
0.000109557
0.00010905
0.000108224
0.000106702
0.000105065
0.000102559
0.000100143
9.67482e-05
9.35824e-05
8.95349e-05
8.56843e-05
8.13266e-05
7.70283e-05
7.2684e-05
6.83757e-05
6.44127e-05
6.06688e-05
5.75427e-05
5.47732e-05
5.27754e-05
5.11343e-05
5.02442e-05
4.96247e-05
0.000104019
0.000103481
0.000102563
0.000100956
9.91425e-05
9.65145e-05
9.3861e-05
9.0329e-05
8.69121e-05
8.27137e-05
7.86522e-05
7.41036e-05
6.96679e-05
6.51704e-05
6.08578e-05
5.6867e-05
5.32287e-05
5.01954e-05
4.76586e-05
4.58947e-05
4.46153e-05
4.40983e-05
4.39191e-05
9.91887e-05
9.86256e-05
9.76267e-05
9.59506e-05
9.39853e-05
9.12575e-05
8.83976e-05
8.47471e-05
8.11011e-05
7.67659e-05
7.25119e-05
6.7837e-05
6.32821e-05
5.86638e-05
5.42613e-05
5.0168e-05
4.64933e-05
4.3447e-05
4.1008e-05
3.93986e-05
3.84073e-05
3.82294e-05
3.8477e-05
9.51548e-05
9.45726e-05
9.35104e-05
9.17794e-05
8.96917e-05
8.68806e-05
8.38525e-05
8.00987e-05
7.62621e-05
7.17924e-05
6.73424e-05
6.24782e-05
5.773e-05
5.28969e-05
4.8329e-05
4.40481e-05
4.02598e-05
3.71178e-05
3.47071e-05
3.3208e-05
3.24864e-05
3.26542e-05
3.33501e-05
9.17783e-05
9.11758e-05
9.00524e-05
8.82667e-05
8.60672e-05
8.31775e-05
7.99982e-05
7.61456e-05
7.21329e-05
6.77617e-05
6.31025e-05
5.82002e-05
5.31252e-05
4.80159e-05
4.31715e-05
3.8645e-05
3.46277e-05
3.12741e-05
2.87658e-05
2.72976e-05
2.68084e-05
2.73396e-05
2.85148e-05
8.91516e-05
8.8534e-05
8.73653e-05
8.55394e-05
8.32554e-05
8.03042e-05
7.70067e-05
7.33077e-05
6.91999e-05
6.47064e-05
5.98958e-05
5.48498e-05
4.9636e-05
4.43656e-05
3.91217e-05
3.4058e-05
2.95245e-05
2.58325e-05
2.31017e-05
2.15884e-05
2.13381e-05
2.23048e-05
2.40388e-05
8.71413e-05
8.65009e-05
8.52824e-05
8.34104e-05
8.10465e-05
7.81775e-05
7.49543e-05
7.12314e-05
6.7065e-05
6.24952e-05
5.75852e-05
5.24018e-05
4.7016e-05
4.15225e-05
3.60044e-05
3.05926e-05
2.54157e-05
2.09472e-05
1.77846e-05
1.60717e-05
1.60711e-05
1.7608e-05
2.00172e-05
8.58575e-05
8.52149e-05
8.39776e-05
8.22706e-05
8.01122e-05
7.73562e-05
7.40509e-05
7.0223e-05
6.59323e-05
6.12257e-05
5.617e-05
5.08313e-05
4.52783e-05
3.9593e-05
3.38459e-05
2.81376e-05
2.25631e-05
1.72915e-05
1.28316e-05
1.06661e-05
1.10284e-05
1.3424e-05
1.66583e-05
8.50657e-05
8.44262e-05
8.31832e-05
8.14299e-05
7.92566e-05
7.64995e-05
7.32026e-05
6.93899e-05
6.51156e-05
6.04213e-05
5.5369e-05
5.00178e-05
4.44328e-05
3.86861e-05
3.28407e-05
2.69742e-05
2.1146e-05
1.54365e-05
9.93989e-06
5.5022e-06
6.67836e-06
1.11285e-05
1.43308e-05
0.000458155
0.000316868
0.000261264
0.000221546
0.000458155
0.00039296
0.000352628
0.000309478
0.000434352
0.00039296
0.000352628
0.000309478
0.000376902
0.000350249
0.000313972
0.000281953
0.000315937
0.000301065
0.000276781
0.000255883
0.000274883
0.00026398
0.000246201
0.000231565
0.000246023
0.000237071
0.0002236
0.000213338
0.000227239
0.00021953
0.000208252
0.00019968
0.000212157
0.000205367
0.000195969
0.000188751
0.000201388
0.000195061
0.000187002
0.000180345
0.000192255
0.000186182
0.000179278
0.000173063
0.000185315
0.000179223
0.000173225
0.000167237
0.000179199
0.000173046
0.000167743
0.000161947
0.000174111
0.000167912
0.000163078
0.000157455
0.000169381
0.000163293
0.000158673
0.000153262
0.00016504
0.000159203
0.000154575
0.000149412
0.00016072
0.000155245
0.000150452
0.000145579
0.000156408
0.000151298
0.000146277
0.000141676
0.000151599
0.000146887
0.000141694
0.000137374
0.00014639
0.000142108
0.000136837
0.000132805
0.000139895
0.000136025
0.000131043
0.000127349
0.000133604
0.000129956
0.000125376
0.000121914
0.000126266
0.000122949
0.000118851
0.000115718
0.000118549
0.000115688
0.00011214
0.000109408
0.00011093
0.000108478
0.000105402
0.000103043
0.000103013
0.000100984
9.84043e-05
9.64458e-05
9.54976e-05
9.38175e-05
9.16856e-05
9.00744e-05
8.80116e-05
8.66367e-05
8.49387e-05
8.36527e-05
8.09405e-05
7.98172e-05
7.85148e-05
7.75088e-05
7.40341e-05
7.31443e-05
7.22065e-05
7.14587e-05
6.75168e-05
6.68474e-05
6.62237e-05
6.57108e-05
6.12066e-05
6.07595e-05
6.04167e-05
6.01328e-05
5.52624e-05
5.50345e-05
5.49341e-05
5.48688e-05
4.95488e-05
4.95381e-05
4.9662e-05
4.98127e-05
4.41696e-05
4.4376e-05
4.47102e-05
4.50733e-05
3.90465e-05
3.94699e-05
4.00118e-05
4.05868e-05
3.42497e-05
3.48985e-05
3.56528e-05
3.6443e-05
2.97693e-05
3.06544e-05
3.16302e-05
3.26399e-05
2.56929e-05
2.68332e-05
2.80434e-05
2.92779e-05
2.21194e-05
2.35278e-05
2.49769e-05
2.64307e-05
1.92383e-05
2.09105e-05
2.25845e-05
2.42354e-05
1.73108e-05
1.91855e-05
2.1024e-05
2.2812e-05
0.000244459
0.000197773
0.000155308
0.000123236
9.94516e-05
8.85389e-05
7.92121e-05
7.25095e-05
6.57528e-05
5.9887e-05
5.39584e-05
4.85408e-05
4.31965e-05
3.82901e-05
3.36148e-05
2.94501e-05
2.57735e-05
2.28982e-05
2.09789e-05
0.000265082
0.000265082
0.000191389
0.000144063
0.000116061
9.93786e-05
8.67777e-05
7.77683e-05
6.96996e-05
6.30572e-05
5.67445e-05
5.11763e-05
4.58629e-05
4.11036e-05
3.66834e-05
3.28461e-05
2.95574e-05
2.70625e-05
2.54458e-05
0.000261052
0.000224492
0.000170011
0.000140149
0.000117772
0.000102915
9.06391e-05
8.13e-05
7.30355e-05
6.61194e-05
5.97234e-05
5.41122e-05
4.88855e-05
4.42683e-05
4.00776e-05
3.65081e-05
3.35222e-05
3.13033e-05
2.98957e-05
0.000233659
0.000224662
0.000181918
0.000151284
0.000128035
0.000110709
9.69373e-05
8.62552e-05
7.7166e-05
6.96873e-05
6.30089e-05
5.72781e-05
5.20837e-05
4.75823e-05
4.35879e-05
4.02462e-05
3.75093e-05
3.55061e-05
3.42562e-05
0.000217209
0.000209558
0.00017586
0.000148696
0.000128034
0.00011216
9.92439e-05
8.88857e-05
8.00359e-05
7.26082e-05
6.6041e-05
6.03795e-05
5.5326e-05
5.09701e-05
4.71699e-05
4.40206e-05
4.1483e-05
3.96421e-05
3.85082e-05
0.000200344
0.000200344
0.000173726
0.000150021
0.000131287
0.000115703
0.000102984
9.24046e-05
8.34307e-05
7.58521e-05
6.92448e-05
6.35856e-05
5.86149e-05
5.4371e-05
5.0727e-05
4.77375e-05
4.53632e-05
4.36531e-05
4.26112e-05
0.000192832
0.000192832
0.000169655
0.000148482
0.000131445
0.000116801
0.000104808
9.45807e-05
8.5933e-05
7.85174e-05
7.21011e-05
6.65706e-05
6.17653e-05
5.76645e-05
5.41846e-05
5.13397e-05
4.91047e-05
4.75001e-05
4.65309e-05
0.000184546
0.000184546
0.000165024
0.000146796
0.000131529
0.000117954
0.000106644
9.6784e-05
8.84006e-05
8.11373e-05
7.4875e-05
6.94674e-05
6.48051e-05
6.08366e-05
5.75006e-05
5.47846e-05
5.26697e-05
5.11557e-05
5.02474e-05
0.000179882
0.000179882
0.000161918
0.00014536
0.000131212
0.000118539
0.000107846
9.84252e-05
9.03974e-05
8.33783e-05
7.73451e-05
7.21098e-05
6.76246e-05
6.38027e-05
6.06131e-05
5.80189e-05
5.60123e-05
5.45772e-05
5.37211e-05
0.000173193
0.000173193
0.00015746
0.000142914
0.0001301
0.00011852
0.000108545
9.96787e-05
9.20454e-05
8.53337e-05
7.95484e-05
7.45161e-05
7.02125e-05
6.65457e-05
6.34982e-05
6.10229e-05
5.91169e-05
5.77551e-05
5.69457e-05
0.000169601
0.000169601
0.000154862
0.000141412
0.000129382
0.000118554
0.000109115
0.00010071
9.34355e-05
8.70173e-05
8.14818e-05
7.66559e-05
7.2538e-05
6.90272e-05
6.61195e-05
6.37585e-05
6.19469e-05
6.0653e-05
5.98862e-05
0.000164267
0.000164267
0.000150917
0.000138786
0.000127768
0.000117837
0.000109058
0.000101218
9.43693e-05
8.8311e-05
8.30626e-05
7.84791e-05
7.45638e-05
7.1224e-05
6.84605e-05
6.62173e-05
6.44988e-05
6.32718e-05
6.25457e-05
0.000161072
0.000161072
0.00014845
0.000137077
0.000126673
0.00011734
0.000109035
0.000101627
9.51303e-05
8.93797e-05
8.43908e-05
8.00312e-05
7.63086e-05
7.31328e-05
7.05083e-05
6.83788e-05
6.67497e-05
6.55871e-05
6.48997e-05
0.00015655
0.00015655
0.000144862
0.000134365
0.000124743
0.00011611
0.000108391
0.000101496
9.54188e-05
9.00312e-05
8.5341e-05
8.12373e-05
7.77269e-05
7.47303e-05
7.22526e-05
7.02419e-05
6.8704e-05
6.76066e-05
6.69579e-05
0.000153411
0.000153411
0.00014226
0.000132296
0.000123197
0.000115059
0.000107778
0.000101281
9.55496e-05
9.04698e-05
8.60443e-05
8.21727e-05
7.88604e-05
7.60337e-05
7.36971e-05
7.18017e-05
7.03525e-05
6.93189e-05
6.87079e-05
0.000149119
0.000149119
0.000138689
0.000129364
0.000120922
0.00011336
0.000106606
0.000100571
9.52405e-05
9.05104e-05
8.63827e-05
8.27682e-05
7.96712e-05
7.70268e-05
7.48388e-05
7.30637e-05
7.17056e-05
7.07372e-05
7.01643e-05
0.000145712
0.000145712
0.000135755
0.000126839
0.00011887
0.000111735
0.0001054
9.9744e-05
9.47577e-05
9.03351e-05
8.64766e-05
8.30992e-05
8.02053e-05
7.77351e-05
7.56912e-05
7.40336e-05
7.27654e-05
7.18615e-05
7.13267e-05
0.000141152
0.000141152
0.00013186
0.000123509
0.000116153
0.000109547
0.000103711
9.84894e-05
9.38918e-05
8.98077e-05
8.6243e-05
8.31201e-05
8.04419e-05
7.81548e-05
7.62606e-05
7.47242e-05
7.35477e-05
7.27092e-05
7.22123e-05
0.000137065
0.000137065
0.000128281
0.000120382
0.000113507
0.000107339
0.000101924
9.70835e-05
9.28333e-05
8.90605e-05
8.57711e-05
8.28905e-05
8.04202e-05
7.83113e-05
7.65643e-05
7.51478e-05
7.40627e-05
7.32899e-05
7.28323e-05
0.000132119
0.000132119
0.000123974
0.000116649
0.000110347
0.000104691
9.97514e-05
9.53342e-05
9.14624e-05
8.80238e-05
8.50251e-05
8.23973e-05
8.01418e-05
7.82157e-05
7.66188e-05
7.53239e-05
7.43312e-05
7.36237e-05
7.32032e-05
0.000126829
0.000126829
0.000119414
0.00011276
0.000107027
0.000101888
9.74027e-05
9.33949e-05
8.98843e-05
8.67685e-05
8.40523e-05
8.16735e-05
7.96315e-05
7.78879e-05
7.64414e-05
7.52681e-05
7.43679e-05
7.37274e-05
7.33491e-05
0.000121884
0.000121884
0.000114944
0.000108811
0.000103572
9.89074e-05
9.48589e-05
9.12529e-05
8.81021e-05
8.53091e-05
8.28756e-05
8.07448e-05
7.89153e-05
7.7353e-05
7.60564e-05
7.50054e-05
7.4199e-05
7.36244e-05
7.32783e-05
0.000115348
0.000115348
0.000109415
0.000104152
9.96066e-05
9.55507e-05
9.20117e-05
8.88547e-05
8.60889e-05
8.36351e-05
8.14939e-05
7.96182e-05
7.80057e-05
7.66283e-05
7.54839e-05
7.45558e-05
7.38425e-05
7.33337e-05
7.30296e-05
0.000110262
0.000110262
0.000104833
0.000100064
9.59699e-05
9.23487e-05
8.92097e-05
8.64277e-05
8.40003e-05
8.18543e-05
7.9985e-05
7.835e-05
7.69452e-05
7.57459e-05
7.4749e-05
7.39398e-05
7.3317e-05
7.28732e-05
7.26101e-05
0.000103365
0.000103365
9.88952e-05
9.49791e-05
9.1606e-05
8.86199e-05
8.60167e-05
8.37015e-05
8.16727e-05
7.98742e-05
7.83026e-05
7.69251e-05
7.57382e-05
7.4723e-05
7.38775e-05
7.31909e-05
7.26622e-05
7.22859e-05
7.20631e-05
9.79266e-05
9.79266e-05
9.40664e-05
9.06946e-05
8.7794e-05
8.52419e-05
8.30294e-05
8.10756e-05
7.93717e-05
7.78688e-05
7.65592e-05
7.54142e-05
7.44287e-05
7.35867e-05
7.28852e-05
7.23154e-05
7.18766e-05
7.15645e-05
7.13795e-05
9.12876e-05
9.12876e-05
8.8247e-05
8.56181e-05
8.33692e-05
8.14017e-05
7.96982e-05
7.81948e-05
7.68809e-05
7.57182e-05
7.47008e-05
7.38078e-05
7.30357e-05
7.23734e-05
7.18201e-05
7.13699e-05
7.10226e-05
7.07752e-05
7.06283e-05
8.57214e-05
8.57214e-05
8.32955e-05
8.12188e-05
7.94537e-05
7.79255e-05
7.66122e-05
7.5463e-05
7.44646e-05
7.35866e-05
7.28212e-05
7.21513e-05
7.15732e-05
7.10777e-05
7.06632e-05
7.03255e-05
7.00646e-05
6.98786e-05
6.97678e-05
7.95256e-05
7.95256e-05
7.77999e-05
7.63685e-05
7.51803e-05
7.41757e-05
7.33262e-05
7.25918e-05
7.19576e-05
7.13999e-05
7.09117e-05
7.04809e-05
7.01054e-05
6.97808e-05
6.95072e-05
6.92828e-05
6.91084e-05
6.89836e-05
6.89091e-05
7.40868e-05
7.40868e-05
7.2932e-05
7.20239e-05
7.13023e-05
7.07227e-05
7.0252e-05
6.98593e-05
6.95285e-05
6.92424e-05
6.89936e-05
6.87744e-05
6.85827e-05
6.8415e-05
6.8272e-05
6.8153e-05
6.80598e-05
6.79923e-05
6.79517e-05
6.84102e-05
6.84102e-05
6.78619e-05
6.75198e-05
6.73121e-05
6.72015e-05
6.71502e-05
6.7136e-05
6.71426e-05
6.71482e-05
6.71489e-05
6.71489e-05
6.71445e-05
6.7135e-05
6.71225e-05
6.71084e-05
6.70953e-05
6.70844e-05
6.70773e-05
6.3265e-05
6.3265e-05
6.33876e-05
6.36183e-05
6.39059e-05
6.42109e-05
6.45145e-05
6.47994e-05
6.50584e-05
6.52867e-05
6.54825e-05
6.56463e-05
6.578e-05
6.58863e-05
6.59682e-05
6.60287e-05
6.60701e-05
6.60942e-05
6.60942e-05
5.81674e-05
5.86849e-05
5.93305e-05
6.00229e-05
6.07304e-05
6.14114e-05
6.20509e-05
6.2633e-05
6.31537e-05
6.36094e-05
6.40018e-05
6.43335e-05
6.46088e-05
6.4832e-05
6.50077e-05
6.51399e-05
6.52319e-05
6.52861e-05
6.52861e-05
5.3432e-05
5.44475e-05
5.55451e-05
5.66451e-05
5.77173e-05
5.87235e-05
5.96528e-05
6.04912e-05
6.12378e-05
6.1891e-05
6.24554e-05
6.29349e-05
6.33355e-05
6.36627e-05
6.39222e-05
6.41186e-05
6.42562e-05
6.43377e-05
6.43377e-05
4.89793e-05
5.04882e-05
5.20396e-05
5.35535e-05
5.49975e-05
5.63354e-05
5.75578e-05
5.86537e-05
5.96255e-05
6.04744e-05
6.12076e-05
6.18311e-05
6.23529e-05
6.278e-05
6.31194e-05
6.33768e-05
6.35572e-05
6.36639e-05
6.36639e-05
4.47846e-05
4.6768e-05
4.87394e-05
5.06245e-05
5.23931e-05
5.40153e-05
5.54864e-05
5.67999e-05
5.79615e-05
5.89754e-05
5.98512e-05
6.05969e-05
6.12221e-05
6.1735e-05
6.21437e-05
6.24543e-05
6.26727e-05
6.28023e-05
6.28023e-05
4.10802e-05
4.35278e-05
4.59098e-05
4.81575e-05
5.02431e-05
5.21432e-05
5.38563e-05
5.53808e-05
5.67256e-05
5.78979e-05
5.89096e-05
5.97708e-05
6.04927e-05
6.10848e-05
6.15563e-05
6.19144e-05
6.21656e-05
6.23141e-05
6.23141e-05
3.76294e-05
4.05155e-05
4.32661e-05
4.5826e-05
4.81758e-05
5.03016e-05
5.22082e-05
5.38993e-05
5.53878e-05
5.66842e-05
5.78028e-05
5.87555e-05
5.95551e-05
6.02121e-05
6.07367e-05
6.11363e-05
6.1418e-05
6.15856e-05
6.15856e-05
3.4878e-05
3.81741e-05
4.1266e-05
4.41138e-05
4.67075e-05
4.90424e-05
5.11284e-05
5.29744e-05
5.45962e-05
5.60071e-05
5.72232e-05
5.8258e-05
5.91256e-05
5.98373e-05
6.0404e-05
6.08342e-05
6.1136e-05
6.13148e-05
6.13148e-05
3.24779e-05
3.61154e-05
3.9474e-05
4.25356e-05
4.53028e-05
4.77818e-05
4.99884e-05
5.19368e-05
5.36459e-05
5.51321e-05
5.64133e-05
5.75045e-05
5.84207e-05
5.91746e-05
5.97777e-05
6.02385e-05
6.05639e-05
6.07576e-05
6.07576e-05
3.1e-05
3.49052e-05
3.84732e-05
4.17049e-05
4.46129e-05
4.72109e-05
4.95187e-05
5.15541e-05
5.3338e-05
5.48883e-05
5.62241e-05
5.73613e-05
5.83156e-05
5.90998e-05
5.97259e-05
6.02033e-05
6.05396e-05
6.07399e-05
6.07399e-05
2.9986e-05
3.40143e-05
3.76707e-05
4.09693e-05
4.39297e-05
4.65702e-05
4.89134e-05
5.09789e-05
5.27885e-05
5.4361e-05
5.57157e-05
5.68691e-05
5.78373e-05
5.86333e-05
5.9269e-05
5.97534e-05
6.0094e-05
6.02957e-05
6.02957e-05
)
;

boundaryField
{
    leftWall
    {
        type            calculated;
        value           uniform 0;
    }
    rightWall
    {
        type            calculated;
        value           uniform 0;
    }
    lowerWall
    {
        type            calculated;
        value           uniform 0;
    }
    atmosphere
    {
        type            calculated;
        value           uniform 0;
    }
    defaultFaces
    {
        type            empty;
    }
}


// ************************************************************************* //
