/*--------------------------------*- C++ -*----------------------------------*\
| =========                 |                                                 |
| \\      /  F ield         | OpenFOAM: The Open Source CFD Toolbox           |
|  \\    /   O peration     | Version:  2012                                  |
|   \\  /    A nd           | Website:  www.openfoam.com                      |
|    \\/     M anipulation  |                                                 |
\*---------------------------------------------------------------------------*/
FoamFile
{
    version     2.0;
    format      ascii;
    class       volScalarField;
    location    "0.08";
    object      minKappa;
}
// * * * * * * * * * * * * * * * * * * * * * * * * * * * * * * * * * * * * * //

dimensions      [0 0 0 0 0 0 0];


internalField   nonuniform List<scalar> 
2268
(
3.98218e-07
8.76937e-07
1.43259e-06
1.99939e-06
2.59853e-06
3.23177e-06
3.895e-06
4.62451e-06
5.40022e-06
6.27182e-06
7.23731e-06
8.29708e-06
9.61496e-06
1.12277e-05
1.29638e-05
1.59852e-05
4.09103e-05
0.000211994
0.000389068
0.000309816
0.00022387
0.000131565
5.63506e-05
3.98218e-07
8.76937e-07
1.43259e-06
1.99939e-06
2.59853e-06
3.23177e-06
3.895e-06
4.62451e-06
5.40022e-06
6.27182e-06
7.23731e-06
8.29708e-06
9.61496e-06
1.11725e-05
1.26776e-05
1.59852e-05
5.81632e-05
0.000267664
0.000385999
0.000288358
0.000210011
0.000131565
5.63506e-05
5.98458e-07
9.84771e-07
1.50223e-06
2.04924e-06
2.63723e-06
3.26234e-06
3.91959e-06
4.64419e-06
5.41588e-06
6.28084e-06
7.24786e-06
8.31292e-06
9.61858e-06
1.11183e-05
1.26776e-05
3.43265e-05
0.000190647
0.000359285
0.000340667
0.000254714
0.000200058
0.00014131
8.39892e-05
8.3435e-07
1.14218e-06
1.61117e-06
2.12925e-06
2.70024e-06
3.31233e-06
3.96021e-06
4.67631e-06
5.44202e-06
6.29677e-06
7.26101e-06
8.32818e-06
9.61456e-06
1.10346e-05
1.2881e-05
6.5648e-05
0.000294363
0.000368284
0.000287781
0.000227115
0.000200058
0.00015252
0.000112439
1.08014e-06
1.33067e-06
1.75121e-06
2.23531e-06
2.78518e-06
3.38e-06
4.01566e-06
4.71965e-06
5.47716e-06
6.31892e-06
7.27384e-06
8.33755e-06
9.60007e-06
1.0915e-05
1.88668e-05
0.000170649
0.000344403
0.000314971
0.000244724
0.000215766
0.000200977
0.000167244
0.000138451
1.32843e-06
1.53742e-06
1.91446e-06
2.36299e-06
2.88945e-06
3.46361e-06
4.0848e-06
4.77371e-06
5.52034e-06
6.34754e-06
7.28615e-06
8.33068e-06
9.5745e-06
1.07594e-05
4.29503e-05
0.000245005
0.000338231
0.000272567
0.000213206
0.000215172
0.000206932
0.00018327
0.000164812
1.57612e-06
1.75426e-06
2.09397e-06
2.50757e-06
3.00971e-06
3.56063e-06
4.16529e-06
4.83676e-06
5.56846e-06
6.37984e-06
7.29544e-06
8.31896e-06
9.53433e-06
1.07594e-05
5.17661e-05
0.000290479
0.000290579
0.000226163
0.000197739
0.000215172
0.000211953
0.000197888
0.000186755
1.8216e-06
1.9761e-06
2.2843e-06
2.66486e-06
3.14272e-06
3.66869e-06
4.25511e-06
4.90775e-06
5.62058e-06
6.41636e-06
7.30556e-06
8.31896e-06
9.53433e-06
1.1885e-05
8.66129e-05
0.000304764
0.000290579
0.000226163
0.000197739
0.00021827
0.000216803
0.000215239
0.000214154
2.92715e-06
1.23714e-05
1.90918e-05
2.31645e-05
2.67661e-05
2.63624e-05
2.6977e-05
2.48715e-05
2.38824e-05
2.1298e-05
1.95579e-05
1.69533e-05
1.49159e-05
1.24133e-05
1.02799e-05
7.89233e-06
5.75218e-06
3.48568e-06
1.54146e-06
2.92715e-06
1.23714e-05
1.90918e-05
2.31645e-05
2.67661e-05
2.63624e-05
2.6977e-05
2.48715e-05
2.38824e-05
2.1298e-05
1.95579e-05
1.69533e-05
1.49159e-05
1.24133e-05
1.02799e-05
7.89233e-06
5.75218e-06
3.48568e-06
1.54146e-06
4.58818e-06
1.44524e-05
2.02439e-05
2.39915e-05
2.7318e-05
2.67323e-05
2.72369e-05
2.50485e-05
2.40142e-05
2.14079e-05
1.96544e-05
1.70502e-05
1.50158e-05
1.25278e-05
1.04135e-05
8.06369e-06
5.98271e-06
3.85128e-06
2.23973e-06
7.14265e-06
1.74702e-05
2.20879e-05
2.51442e-05
2.8206e-05
2.72342e-05
2.76257e-05
2.53043e-05
2.42142e-05
2.1576e-05
1.98055e-05
1.72045e-05
1.5177e-05
1.27139e-05
1.06306e-05
8.34028e-06
6.34761e-06
4.39508e-06
3.08335e-06
8.92299e-06
2.20093e-05
2.47984e-05
2.69581e-05
2.94794e-05
2.79835e-05
2.81898e-05
2.56811e-05
2.45042e-05
2.18198e-05
2.00218e-05
1.74233e-05
1.54029e-05
1.2972e-05
1.09287e-05
8.71355e-06
6.82629e-06
5.06077e-06
3.97644e-06
1.16796e-05
2.71905e-05
2.83389e-05
2.90982e-05
3.11077e-05
2.89135e-05
2.88851e-05
2.61497e-05
2.48628e-05
2.21223e-05
2.0291e-05
1.76968e-05
1.56859e-05
1.32945e-05
1.12987e-05
9.16957e-06
7.39492e-06
5.80477e-06
4.88904e-06
1.18415e-05
3.52695e-05
3.34915e-05
3.18724e-05
3.3063e-05
3.00428e-05
2.96945e-05
2.67125e-05
2.52916e-05
2.24892e-05
2.06173e-05
1.80281e-05
1.60266e-05
1.36795e-05
1.17354e-05
9.69764e-06
8.03462e-06
6.59991e-06
5.81054e-06
2.52758e-05
4.47351e-05
4.1353e-05
3.52248e-05
3.5376e-05
3.14017e-05
3.06286e-05
2.73724e-05
2.57861e-05
2.29141e-05
2.09937e-05
1.841e-05
1.6418e-05
1.4119e-05
1.22291e-05
1.02844e-05
8.72752e-06
7.42739e-06
6.73486e-06
3.22693e-06
3.4404e-06
3.88197e-06
4.43082e-06
5.14205e-06
5.92569e-06
6.81299e-06
7.80515e-06
8.88657e-06
1.01094e-05
1.14556e-05
1.30073e-05
1.48198e-05
3.09039e-05
0.000193828
0.000466748
0.00039844
0.000294978
0.000306741
0.00034166
0.000344317
0.000361577
0.000373452
5.45697e-06
5.68838e-06
6.1978e-06
6.8314e-06
7.61111e-06
8.47049e-06
9.45133e-06
1.05901e-05
1.18467e-05
1.32663e-05
1.48331e-05
1.66041e-05
1.85299e-05
3.97859e-05
0.000298516
0.000397867
0.000264218
0.000338126
0.000389832
0.000411563
0.000417093
0.000412123
0.000342929
6.47253e-06
6.66263e-06
7.10148e-06
7.64415e-06
8.375e-06
9.14419e-06
1.00318e-05
1.10746e-05
1.22303e-05
1.35372e-05
1.49729e-05
1.65924e-05
1.82762e-05
4.69785e-05
0.000372008
0.000295722
0.000231954
0.000297164
0.000374649
0.000377446
0.000379511
0.000362029
0.000309889
7.42818e-06
7.58949e-06
7.97247e-06
8.44518e-06
9.12412e-06
9.8133e-06
1.06174e-05
1.15658e-05
1.26273e-05
1.38175e-05
1.51307e-05
1.65899e-05
2.21591e-05
0.000100713
0.000364277
0.000251742
0.000231954
0.000306797
0.000352638
0.000345394
0.000345325
0.000321756
0.00024909
8.31825e-06
8.45866e-06
8.79478e-06
9.21332e-06
9.82958e-06
1.04479e-05
1.11769e-05
1.20344e-05
1.3006e-05
1.40806e-05
1.52769e-05
1.65786e-05
2.63066e-05
0.000161819
0.000317343
0.00018609
0.000258103
0.000322213
0.000335489
0.00031715
0.000317367
0.000293217
0.000219364
9.13834e-06
9.26333e-06
9.55878e-06
9.93539e-06
1.04891e-05
1.10495e-05
1.17108e-05
1.2485e-05
1.33716e-05
1.43386e-05
1.54269e-05
1.65833e-05
2.99026e-05
0.000201188
0.000277259
0.000153719
0.000248461
0.000304429
0.000313983
0.000293133
0.000289145
0.000269797
0.000189727
9.88653e-06
9.99982e-06
1.02591e-05
1.06028e-05
1.10925e-05
1.15968e-05
1.21966e-05
1.28959e-05
1.37021e-05
1.45727e-05
1.55592e-05
1.65874e-05
3.30903e-05
0.000235641
0.000251007
0.000153719
0.000249786
0.000284634
0.000296839
0.000273647
0.000272041
0.000251638
0.000177611
1.05617e-05
1.0666e-05
1.0893e-05
1.12108e-05
1.16419e-05
1.2101e-05
1.26459e-05
1.32789e-05
1.401e-05
1.47954e-05
1.56874e-05
1.66062e-05
3.59452e-05
0.000265801
0.000239289
0.000173251
0.000264697
0.000271575
0.000278122
0.000258605
0.00025185
0.000235288
0.000162245
1.11643e-05
1.12615e-05
1.14596e-05
1.17563e-05
1.21274e-05
1.25414e-05
1.30361e-05
1.36103e-05
1.42732e-05
1.4986e-05
1.57933e-05
1.66219e-05
3.85041e-05
0.000291772
0.000163065
0.000217878
0.000271355
0.000264712
0.000263869
0.000247728
0.000239717
0.000224672
0.000155214
1.16948e-05
1.17864e-05
1.19591e-05
1.22388e-05
1.25593e-05
1.29394e-05
1.33906e-05
1.39148e-05
1.45169e-05
1.5167e-05
1.58973e-05
1.66493e-05
4.08236e-05
0.000252657
9.8435e-05
0.000194554
0.000264829
0.000259269
0.000249269
0.000237735
0.000225738
0.000211852
0.000145902
1.21555e-05
1.22422e-05
1.23922e-05
1.26575e-05
1.29195e-05
1.32664e-05
1.36759e-05
1.41564e-05
1.47049e-05
1.5305e-05
1.59718e-05
1.66694e-05
4.28448e-05
0.000223106
7.30754e-05
0.000174244
0.000243592
0.000250569
0.000236012
0.000229662
0.000217326
0.000204856
0.00014113
1.25478e-05
1.26308e-05
1.27616e-05
1.29945e-05
1.32371e-05
1.35606e-05
1.39392e-05
1.43873e-05
1.48916e-05
1.545e-05
1.6059e-05
1.67018e-05
4.46615e-05
0.000222042
7.30754e-05
0.000180343
0.000227757
0.000242426
0.000224697
0.000220575
0.000207476
0.000196255
0.000134966
1.28734e-05
1.29532e-05
1.30676e-05
1.32571e-05
1.34772e-05
1.37748e-05
1.41207e-05
1.45374e-05
1.49992e-05
1.55234e-05
1.60816e-05
1.66893e-05
4.63338e-05
0.00023747
9.58785e-05
0.000202598
0.0002177
0.000237581
0.000216582
0.000215621
0.000201797
0.00019143
0.000131552
1.31385e-05
1.32161e-05
1.33183e-05
1.34861e-05
1.36969e-05
1.39832e-05
1.43113e-05
1.47095e-05
1.51401e-05
1.56346e-05
1.61368e-05
1.66803e-05
4.78154e-05
0.000248237
0.000137632
0.000223242
0.000215851
0.000231301
0.000213497
0.000208765
0.0001951
0.000185101
0.000127079
1.33359e-05
1.33864e-05
1.34659e-05
1.36189e-05
1.38112e-05
1.40756e-05
1.4376e-05
1.47485e-05
1.51459e-05
1.56129e-05
1.60691e-05
1.65812e-05
4.84574e-05
0.000246732
0.000177032
0.000235848
0.000215851
0.000230752
0.000213497
0.000206606
0.000192411
0.000181547
0.000124499
1.35852e-05
1.36652e-05
1.37588e-05
1.40019e-05
1.41876e-05
1.46049e-05
1.48824e-05
1.55027e-05
1.58643e-05
1.67768e-05
1.73442e-05
2.11281e-05
9.06494e-05
0.000215752
0.00018904
0.000219953
0.000220034
0.000226573
0.000211562
0.000201324
0.000187472
0.000176393
0.000120847
2.29466e-05
2.32435e-05
2.36307e-05
2.45642e-05
2.53638e-05
2.70765e-05
2.83269e-05
3.11726e-05
3.29973e-05
3.82208e-05
4.32494e-05
8.75307e-05
0.000288817
0.00023322
0.000176639
0.000243554
0.00023437
0.000235663
0.000216318
0.000201499
0.00018611
0.000173287
0.000118494
0.00014314
0.000145474
0.000148505
0.000155597
0.000161617
0.000174153
0.000182985
0.000202259
0.000213844
0.000244797
0.000270565
0.000312551
0.000342468
0.000210829
0.000176639
0.000256085
0.000261599
0.000241944
0.000217499
0.000199199
0.000182441
0.00016853
0.00011496
0.000259834
0.000261356
0.000263116
0.000267927
0.000271436
0.000278324
0.000284298
0.000292588
0.00030297
0.000319262
0.000341736
0.000375865
0.000310762
0.000267591
0.000249995
0.000368135
0.000300715
0.000250516
0.000222651
0.000196813
0.000179565
0.000164012
0.000111833
0.000247164
0.000249084
0.000250999
0.000255843
0.000259801
0.000269118
0.000276465
0.000293651
0.000310452
0.000342233
0.000382005
0.00044071
0.00044821
0.000309195
0.000456265
0.000385356
0.00030381
0.000250368
0.000218196
0.000191502
0.000173658
0.00015796
0.000107633
0.000234902
0.000236472
0.000238172
0.00024229
0.000245878
0.000253671
0.00026012
0.000273425
0.000286677
0.000310945
0.000343689
0.000383599
0.00044214
0.000458053
0.000400891
0.000325171
0.00026453
0.000226538
0.000200081
0.000178449
0.000162649
0.000149224
0.000102066
0.000222134
0.000223214
0.000224683
0.00022812
0.000231276
0.000237864
0.000243471
0.000254558
0.000264424
0.000280841
0.000299935
0.000321181
0.000350209
0.000355965
0.000328761
0.000280089
0.000243158
0.000210397
0.000190332
0.000169523
0.00015617
0.000142447
9.79551e-05
0.000209057
0.000209887
0.000211025
0.000213509
0.000215923
0.000220498
0.000224792
0.000232137
0.000239911
0.000249321
0.000262669
0.000269904
0.000284926
0.000285957
0.000263488
0.000237248
0.000210735
0.000187103
0.000170735
0.00015479
0.000142782
0.000132042
9.08509e-05
0.00019628
0.000196836
0.000197717
0.000199456
0.000201276
0.000204299
0.000207292
0.000211573
0.000216464
0.000220934
0.000228566
0.00023135
0.000235828
0.000233635
0.000219219
0.00020368
0.000184737
0.000167664
0.00015682
0.00014139
0.000133935
0.000122789
8.6115e-05
0.000183622
0.00018395
0.00018454
0.000185529
0.00018679
0.000188464
0.000190607
0.000192631
0.000195979
0.000197133
0.00020115
0.000200623
0.000201049
0.000197967
0.000186386
0.000175551
0.00016106
0.000149727
0.000140067
0.000128356
0.000121679
0.000112905
7.92425e-05
0.000171769
0.00017189
0.00017221
0.000172543
0.0001732
0.00017365
0.000174769
0.000175015
0.000176646
0.000176
0.000177251
0.000175564
0.00017301
0.000169355
0.00016079
0.000152842
0.000142044
0.000133854
0.000125354
0.000116631
0.000111241
0.000103728
7.40541e-05
0.000160322
0.000160292
0.000160403
0.00016027
0.000160523
0.000160146
0.000160568
0.000159609
0.000160036
0.000158159
0.000157616
0.000154959
0.000151643
0.000147799
0.000140527
0.000133932
0.000125445
0.000119052
0.000111792
0.00010541
0.000100557
9.47748e-05
6.78099e-05
0.000149865
0.000149685
0.000149559
0.000148975
0.000148748
0.000147658
0.000147338
0.000145539
0.000144916
0.000142337
0.000140638
0.000137459
0.000133486
0.000129358
0.000123387
0.000117876
0.000111268
0.000106017
0.000100012
9.51291e-05
9.08245e-05
8.64412e-05
6.26788e-05
0.000140039
0.000139767
0.000139483
0.000138624
0.000138063
0.000136516
0.000135638
0.000133292
0.000131885
0.000128807
0.000126329
0.000122784
0.000118755
0.00011465
0.000109243
0.000104358
9.87505e-05
9.41998e-05
8.91929e-05
8.53286e-05
8.1638e-05
7.83728e-05
5.70869e-05
0.000131212
0.000130847
0.000130381
0.000129261
0.000128345
0.000126424
0.000125038
0.000122286
0.000120278
0.000116857
0.000113881
0.000110017
0.000105841
0.000101619
9.67845e-05
9.23568e-05
8.76044e-05
8.366e-05
7.95159e-05
7.63564e-05
7.32761e-05
7.08291e-05
5.22383e-05
0.000123117
0.000122698
0.000122104
0.000120825
0.000119642
0.000117479
0.00011569
0.00011267
0.000110185
0.000106508
0.000103163
9.91412e-05
9.49771e-05
9.0779e-05
8.61961e-05
8.20213e-05
7.77287e-05
7.41442e-05
7.05827e-05
6.79119e-05
6.53733e-05
6.35643e-05
4.72758e-05
0.000115967
0.000115494
0.00011477
0.000113345
0.000111911
0.000109546
0.000107416
0.00010418
0.000101326
9.74463e-05
9.38263e-05
8.95817e-05
8.53277e-05
8.10232e-05
7.66558e-05
7.2643e-05
6.87329e-05
6.54444e-05
6.23802e-05
6.0102e-05
5.80629e-05
5.67574e-05
4.2769e-05
0.000109557
0.00010905
0.000108224
0.000106702
0.000105065
0.000102559
0.000100143
9.67482e-05
9.35824e-05
8.95349e-05
8.56843e-05
8.13266e-05
7.70283e-05
7.2684e-05
6.83757e-05
6.44127e-05
6.06688e-05
5.75427e-05
5.47732e-05
5.27754e-05
5.11343e-05
5.02442e-05
3.83824e-05
0.000104019
0.000103481
0.000102563
0.000100956
9.91425e-05
9.65145e-05
9.3861e-05
9.0329e-05
8.69121e-05
8.27137e-05
7.86522e-05
7.41036e-05
6.96679e-05
6.51704e-05
6.08578e-05
5.6867e-05
5.32287e-05
5.01954e-05
4.76586e-05
4.58947e-05
4.46153e-05
4.40983e-05
3.42331e-05
9.91887e-05
9.86256e-05
9.76267e-05
9.59506e-05
9.39853e-05
9.12575e-05
8.83976e-05
8.47471e-05
8.09884e-05
7.67659e-05
7.24814e-05
6.7837e-05
6.32821e-05
5.86638e-05
5.42613e-05
5.0168e-05
4.64933e-05
4.3447e-05
4.1008e-05
3.93986e-05
3.84073e-05
3.82294e-05
3.03502e-05
9.51548e-05
9.45726e-05
9.35104e-05
9.17794e-05
8.96917e-05
8.68806e-05
8.38188e-05
8.00987e-05
7.60966e-05
7.17344e-05
6.71546e-05
6.24021e-05
5.7661e-05
5.28969e-05
4.8329e-05
4.40481e-05
4.02598e-05
3.71178e-05
3.47071e-05
3.3208e-05
3.24864e-05
3.26542e-05
2.65795e-05
9.17783e-05
9.11758e-05
9.00524e-05
8.82667e-05
8.581e-05
8.28148e-05
7.93422e-05
7.5461e-05
7.1228e-05
6.67065e-05
6.20112e-05
5.7193e-05
5.23955e-05
4.76813e-05
4.31715e-05
3.8645e-05
3.46277e-05
3.12741e-05
2.87658e-05
2.72976e-05
2.68084e-05
2.73396e-05
2.31692e-05
8.91516e-05
8.8534e-05
8.72117e-05
8.51985e-05
8.26364e-05
7.95841e-05
7.6051e-05
7.20974e-05
6.77617e-05
6.31025e-05
5.82002e-05
5.31252e-05
4.80159e-05
4.29707e-05
3.81689e-05
3.37493e-05
2.95245e-05
2.58325e-05
2.31017e-05
2.15884e-05
2.13381e-05
2.23048e-05
1.98503e-05
8.71413e-05
8.64041e-05
8.489e-05
8.28071e-05
8.01527e-05
7.69797e-05
7.33077e-05
6.91999e-05
6.47064e-05
5.98958e-05
5.48498e-05
4.9636e-05
4.43656e-05
3.91217e-05
3.4058e-05
2.93173e-05
2.5127e-05
2.09472e-05
1.77846e-05
1.60717e-05
1.60711e-05
1.7608e-05
1.70106e-05
8.55343e-05
8.45852e-05
8.30193e-05
8.08817e-05
7.81775e-05
7.49543e-05
7.12314e-05
6.7065e-05
6.24952e-05
5.75852e-05
5.24018e-05
4.7016e-05
4.15225e-05
3.60044e-05
3.05926e-05
2.54157e-05
2.06991e-05
1.66911e-05
1.28316e-05
1.06661e-05
1.10284e-05
1.3424e-05
1.44055e-05
8.47497e-05
8.38254e-05
8.22706e-05
8.01122e-05
7.73562e-05
7.40509e-05
7.0223e-05
6.59323e-05
6.12257e-05
5.617e-05
5.08313e-05
4.52783e-05
3.9593e-05
3.38459e-05
2.81376e-05
2.25631e-05
1.72915e-05
1.26116e-05
8.92813e-06
5.5022e-06
6.56497e-06
1.00603e-05
1.25659e-05
8.39609e-05
8.30097e-05
8.14299e-05
7.92566e-05
7.64995e-05
7.32026e-05
6.93899e-05
6.51156e-05
6.04213e-05
5.5369e-05
5.00178e-05
4.44328e-05
3.86861e-05
3.28407e-05
2.69742e-05
2.1146e-05
1.54365e-05
9.93989e-06
5.09788e-06
3.68348e-06
3.68348e-06
6.67836e-06
1.11285e-05
0.000163165
8.99332e-05
6.41388e-05
6.41388e-05
0.000200956
0.00018154
0.000162459
0.000162459
0.00018767
0.000168545
0.000148343
0.000148343
0.000154047
0.00014348
0.000131534
0.000131534
0.000135991
0.000128095
0.000118772
0.000118772
0.000117387
0.000111758
0.000105814
0.000105814
0.000109812
0.000104871
9.96354e-05
9.96354e-05
0.000100337
9.63285e-05
9.22122e-05
9.22122e-05
9.60808e-05
9.24591e-05
8.87469e-05
8.87469e-05
9.04432e-05
8.72842e-05
8.40624e-05
8.40624e-05
8.76226e-05
8.46651e-05
8.17051e-05
8.17051e-05
8.39171e-05
8.11764e-05
7.84881e-05
7.84881e-05
8.18492e-05
7.91904e-05
7.66481e-05
7.66481e-05
7.91173e-05
7.65755e-05
7.41893e-05
7.41893e-05
7.7458e-05
7.49526e-05
7.26105e-05
7.26105e-05
7.51473e-05
7.27222e-05
7.04516e-05
7.04516e-05
7.35476e-05
7.11378e-05
6.88575e-05
6.88575e-05
7.12454e-05
6.88852e-05
6.66365e-05
6.66365e-05
6.91922e-05
6.68902e-05
6.4663e-05
6.4663e-05
6.65308e-05
6.43378e-05
6.21893e-05
6.21893e-05
6.32594e-05
6.12889e-05
5.93576e-05
5.93576e-05
6.07035e-05
5.88055e-05
5.69563e-05
5.69563e-05
5.64998e-05
5.49126e-05
5.33629e-05
5.33629e-05
5.36492e-05
5.22251e-05
5.08246e-05
5.08246e-05
4.95187e-05
4.83464e-05
4.71942e-05
4.71942e-05
4.63962e-05
4.54046e-05
4.44258e-05
4.44258e-05
4.26116e-05
4.18137e-05
4.10352e-05
4.10352e-05
3.9497e-05
3.88528e-05
3.82308e-05
3.82308e-05
3.60791e-05
3.55853e-05
3.51241e-05
3.51241e-05
3.31116e-05
3.27483e-05
3.24189e-05
3.24189e-05
3.00543e-05
2.98114e-05
2.96082e-05
2.96082e-05
2.72828e-05
2.71558e-05
2.70659e-05
2.70659e-05
2.45686e-05
2.45425e-05
2.45425e-05
2.45558e-05
2.20131e-05
2.20131e-05
2.20935e-05
2.22104e-05
1.96134e-05
1.96134e-05
1.97881e-05
1.99999e-05
1.72987e-05
1.72987e-05
1.75786e-05
1.78927e-05
1.52097e-05
1.52097e-05
1.55901e-05
1.60028e-05
1.31976e-05
1.31976e-05
1.36926e-05
1.42139e-05
1.14972e-05
1.14972e-05
1.21078e-05
1.27364e-05
9.96406e-06
9.96406e-06
1.06974e-05
1.1434e-05
8.91259e-06
8.91259e-06
9.75286e-06
1.05799e-05
8.24732e-06
8.24732e-06
9.15318e-06
1.00316e-05
9.39719e-05
8.70626e-05
7.93594e-05
6.09263e-05
5.92423e-05
5.13917e-05
4.94263e-05
4.39203e-05
4.11668e-05
3.65737e-05
3.34922e-05
2.9466e-05
2.63675e-05
2.28524e-05
1.99828e-05
1.70837e-05
1.48005e-05
1.2944e-05
1.19766e-05
0.000244459
0.000174777
0.000139109
0.000102884
9.22214e-05
7.78856e-05
7.23549e-05
6.36557e-05
5.89279e-05
5.23311e-05
4.78446e-05
4.2387e-05
3.81974e-05
3.36388e-05
2.99653e-05
2.63971e-05
2.36618e-05
2.15373e-05
2.04615e-05
0.000219407
0.000170011
0.000140149
0.000112528
9.91598e-05
8.39533e-05
7.66235e-05
6.7337e-05
6.18321e-05
5.50622e-05
5.03263e-05
4.4943e-05
4.07858e-05
3.64568e-05
3.29924e-05
2.97537e-05
2.73138e-05
2.54877e-05
2.45762e-05
0.000201611
0.000173132
0.000145526
0.000118318
0.000104184
8.91689e-05
8.05918e-05
7.10406e-05
6.48784e-05
5.80097e-05
5.30425e-05
4.77438e-05
4.361e-05
3.94913e-05
3.62022e-05
3.32367e-05
3.10229e-05
2.94154e-05
2.8617e-05
0.000183108
0.000170868
0.000145516
0.00012355
0.000108209
9.34893e-05
8.40442e-05
7.44419e-05
6.78036e-05
6.09493e-05
5.58139e-05
5.06386e-05
4.65387e-05
4.26227e-05
3.94845e-05
3.67484e-05
3.47107e-05
3.32691e-05
3.25524e-05
0.00016683
0.000166933
0.000143767
0.000124823
0.000109849
9.63471e-05
8.66433e-05
7.73954e-05
7.05096e-05
6.38138e-05
5.85855e-05
5.35687e-05
4.95134e-05
4.57862e-05
4.27765e-05
4.02307e-05
3.83308e-05
3.70166e-05
3.63606e-05
0.000157749
0.000161732
0.000141045
0.000126094
0.000111396
9.89749e-05
8.90319e-05
8.01459e-05
7.30843e-05
6.65772e-05
6.12983e-05
5.64516e-05
5.24515e-05
4.89005e-05
4.60046e-05
4.36207e-05
4.18329e-05
4.06205e-05
4.00116e-05
0.00014749
0.000156998
0.000138735
0.000125544
0.000111822
0.000100564
9.07379e-05
8.23892e-05
7.53273e-05
6.91074e-05
6.3855e-05
5.92103e-05
5.5288e-05
5.19088e-05
4.91203e-05
4.68767e-05
4.51834e-05
4.40539e-05
4.34831e-05
0.000142406
0.000152493
0.000136363
0.000124376
0.000111985
0.000101804
9.22298e-05
8.43617e-05
7.7383e-05
7.14405e-05
6.62589e-05
6.18115e-05
5.79824e-05
5.47629e-05
5.20778e-05
4.99579e-05
4.83478e-05
4.72885e-05
4.67498e-05
0.000135502
0.00014832
0.000134123
0.000123018
0.000111666
0.000102445
9.3293e-05
8.59048e-05
7.91269e-05
7.34843e-05
6.84356e-05
6.41959e-05
6.04844e-05
5.74209e-05
5.48413e-05
5.28339e-05
5.13006e-05
5.03023e-05
4.97921e-05
0.000131955
0.000144598
0.000131902
0.000121484
0.000111072
0.000102719
9.41118e-05
8.71405e-05
8.06293e-05
7.52654e-05
7.03895e-05
6.63484e-05
6.27714e-05
5.98554e-05
5.73838e-05
5.54798e-05
5.40197e-05
5.30761e-05
5.25922e-05
0.000127022
0.000141054
0.000129626
0.00011982
0.000110269
0.00010241
9.46022e-05
8.80312e-05
8.18314e-05
7.67486e-05
7.20785e-05
6.82384e-05
6.48125e-05
6.20418e-05
5.96821e-05
5.78765e-05
5.6488e-05
5.55951e-05
5.5136e-05
0.000124151
0.000137845
0.000127343
0.00011809
0.00010925
0.000101855
9.47685e-05
8.86252e-05
8.27616e-05
7.79477e-05
7.35043e-05
6.98603e-05
6.65965e-05
6.39672e-05
6.17229e-05
6.00116e-05
5.86942e-05
5.78491e-05
5.74143e-05
0.000120288
0.000134677
0.0001249
0.000116197
0.000107989
0.000101044
9.44335e-05
8.89259e-05
8.34022e-05
7.88561e-05
7.46507e-05
7.12034e-05
6.81098e-05
6.56214e-05
6.34952e-05
6.18765e-05
6.06301e-05
5.98314e-05
5.94204e-05
0.00011775
0.000131619
0.000122365
0.000114199
0.000106521
0.000100015
9.38406e-05
8.86901e-05
8.37602e-05
7.94781e-05
7.5519e-05
7.22674e-05
6.93498e-05
6.70016e-05
6.4996e-05
6.34688e-05
6.22939e-05
6.15408e-05
6.11535e-05
0.000114308
0.00012848
0.000119619
0.000112003
0.000104796
9.87275e-05
9.29713e-05
8.81637e-05
8.36483e-05
7.98232e-05
7.61113e-05
7.30555e-05
7.03166e-05
6.81086e-05
6.62251e-05
6.47893e-05
6.3686e-05
6.29781e-05
6.26145e-05
0.000111702
0.000125236
0.0001167
0.000109633
0.000102854
9.72179e-05
9.18577e-05
8.73904e-05
8.31978e-05
7.97029e-05
7.64298e-05
7.35713e-05
7.10139e-05
6.89473e-05
6.71875e-05
6.58433e-05
6.48124e-05
6.41496e-05
6.381e-05
0.000108115
0.000121684
0.000113514
0.000106996
0.00010065
9.545e-05
9.04831e-05
8.63573e-05
8.24874e-05
7.92577e-05
7.62932e-05
7.38276e-05
7.14519e-05
6.9527e-05
6.78915e-05
6.66392e-05
6.56808e-05
6.50633e-05
6.47474e-05
0.000104926
0.000117921
0.000110163
0.000104158
9.82503e-05
9.34687e-05
8.88906e-05
8.51002e-05
8.15489e-05
7.85826e-05
7.58656e-05
7.36039e-05
7.15945e-05
6.98583e-05
6.83481e-05
6.71887e-05
6.63033e-05
6.57316e-05
6.544e-05
0.00010098
0.000113625
0.000106458
0.000100985
9.55752e-05
9.12238e-05
8.70548e-05
8.36067e-05
8.03807e-05
7.76812e-05
7.52142e-05
7.31552e-05
7.13298e-05
6.9838e-05
6.8572e-05
6.75059e-05
6.66936e-05
6.61675e-05
6.58995e-05
9.65485e-05
0.000109246
0.000102687
9.76805e-05
9.27634e-05
8.88145e-05
8.50469e-05
8.19297e-05
7.90238e-05
7.65873e-05
7.43677e-05
7.251e-05
7.08675e-05
6.95212e-05
6.83875e-05
6.75104e-05
6.68447e-05
6.63883e-05
6.61456e-05
9.26683e-05
0.000104365
9.85389e-05
9.40554e-05
8.96876e-05
8.61679e-05
8.2825e-05
8.00515e-05
7.74744e-05
7.53069e-05
7.33376e-05
7.16841e-05
7.02253e-05
6.90261e-05
6.80181e-05
6.72366e-05
6.66441e-05
6.6257e-05
6.60562e-05
8.71e-05
9.94335e-05
9.43374e-05
9.03562e-05
8.65204e-05
8.34108e-05
8.04793e-05
7.80387e-05
7.57821e-05
7.38785e-05
7.21549e-05
7.07035e-05
6.94263e-05
6.83734e-05
6.74898e-05
6.68024e-05
6.62816e-05
6.59408e-05
6.57684e-05
8.30617e-05
9.43329e-05
8.99338e-05
8.64722e-05
8.31763e-05
8.04933e-05
7.79806e-05
7.58818e-05
7.39492e-05
7.23136e-05
7.08366e-05
6.95888e-05
6.84924e-05
6.75859e-05
6.6826e-05
6.6233e-05
6.57844e-05
6.5491e-05
6.53446e-05
7.73599e-05
8.91058e-05
8.54314e-05
8.2508e-05
7.97524e-05
7.74952e-05
7.53941e-05
7.36321e-05
7.20164e-05
7.0645e-05
6.94097e-05
6.83629e-05
6.74444e-05
6.66828e-05
6.60449e-05
6.55461e-05
6.51696e-05
6.49231e-05
6.48003e-05
7.2975e-05
8.39659e-05
8.09465e-05
7.8532e-05
7.62838e-05
7.44401e-05
7.27387e-05
7.13107e-05
7.00072e-05
6.88983e-05
6.79014e-05
6.7054e-05
6.63109e-05
6.56929e-05
6.51755e-05
6.47698e-05
6.4464e-05
6.42633e-05
6.41632e-05
6.75933e-05
7.87707e-05
7.64044e-05
7.45081e-05
7.27684e-05
7.1342e-05
7.00363e-05
6.894e-05
6.79426e-05
6.70924e-05
6.63287e-05
6.56777e-05
6.51064e-05
6.46297e-05
6.42304e-05
6.39164e-05
6.36796e-05
6.35238e-05
6.34459e-05
6.31254e-05
7.37485e-05
7.19803e-05
7.05692e-05
6.93037e-05
6.82739e-05
6.7344e-05
6.65673e-05
6.58649e-05
6.52667e-05
6.47294e-05
6.42698e-05
6.38657e-05
6.3527e-05
6.32425e-05
6.30177e-05
6.28481e-05
6.27359e-05
6.26798e-05
5.81591e-05
6.87736e-05
6.75834e-05
6.66515e-05
6.58509e-05
6.52144e-05
6.46532e-05
6.41919e-05
6.37778e-05
6.34265e-05
6.31094e-05
6.2837e-05
6.25951e-05
6.23906e-05
6.22172e-05
6.20791e-05
6.19744e-05
6.19043e-05
6.18695e-05
5.38274e-05
6.40126e-05
6.33563e-05
6.28763e-05
6.2511e-05
6.22478e-05
6.20353e-05
6.18751e-05
6.17352e-05
6.16201e-05
6.15133e-05
6.14207e-05
6.13346e-05
6.12593e-05
6.11927e-05
6.1138e-05
6.10958e-05
6.10661e-05
6.10518e-05
4.9316e-05
5.93767e-05
5.923e-05
5.91915e-05
5.92464e-05
5.93478e-05
5.94725e-05
5.96049e-05
5.97293e-05
5.98429e-05
5.99388e-05
6.0019e-05
6.00815e-05
6.013e-05
6.01653e-05
6.01902e-05
6.02073e-05
6.02169e-05
6.02219e-05
4.52385e-05
5.49892e-05
5.53163e-05
5.56979e-05
5.61473e-05
5.65944e-05
5.7036e-05
5.74446e-05
5.78177e-05
5.81476e-05
5.84344e-05
5.86779e-05
5.8881e-05
5.90465e-05
5.9178e-05
5.92784e-05
5.93513e-05
5.93982e-05
5.94213e-05
4.1204e-05
5.07829e-05
5.15644e-05
5.23557e-05
5.31822e-05
5.39621e-05
5.47053e-05
5.53785e-05
5.59878e-05
5.65225e-05
5.69888e-05
5.73862e-05
5.7721e-05
5.79963e-05
5.82177e-05
5.83888e-05
5.85139e-05
5.85956e-05
5.86358e-05
3.74454e-05
4.68605e-05
4.80715e-05
4.92531e-05
5.04327e-05
5.1526e-05
5.25502e-05
5.34698e-05
5.42975e-05
5.5022e-05
5.56543e-05
5.6194e-05
5.66504e-05
5.70271e-05
5.73315e-05
5.75678e-05
5.77409e-05
5.78546e-05
5.79104e-05
3.39018e-05
4.31794e-05
4.48048e-05
4.63629e-05
4.78765e-05
4.9266e-05
5.05516e-05
5.17e-05
5.27286e-05
5.36277e-05
5.44117e-05
5.50815e-05
5.56486e-05
5.61177e-05
5.64977e-05
5.67933e-05
5.70104e-05
5.71533e-05
5.72236e-05
3.05395e-05
3.98323e-05
4.18544e-05
4.37676e-05
4.55902e-05
4.72514e-05
4.87739e-05
5.01295e-05
5.13388e-05
5.23947e-05
5.33145e-05
5.41005e-05
5.47664e-05
5.53178e-05
5.57647e-05
5.61129e-05
5.63687e-05
5.65369e-05
5.66196e-05
2.75359e-05
3.6816e-05
3.92135e-05
4.14566e-05
4.356e-05
4.54663e-05
4.71995e-05
4.87384e-05
5.01061e-05
5.12993e-05
5.23374e-05
5.32247e-05
5.39766e-05
5.45998e-05
5.51054e-05
5.54998e-05
5.579e-05
5.59811e-05
5.60753e-05
2.47109e-05
3.42208e-05
3.69647e-05
3.95038e-05
4.18543e-05
4.39732e-05
4.58872e-05
4.75826e-05
4.90849e-05
5.03943e-05
5.15321e-05
5.25046e-05
5.33285e-05
5.40115e-05
5.45655e-05
5.49977e-05
5.53154e-05
5.55248e-05
5.56282e-05
2.24023e-05
3.20799e-05
3.51241e-05
3.79129e-05
4.04677e-05
4.27602e-05
4.48202e-05
4.66412e-05
4.82506e-05
4.96525e-05
5.08696e-05
5.19101e-05
5.27914e-05
5.35225e-05
5.41161e-05
5.45798e-05
5.49213e-05
5.51464e-05
5.52579e-05
2.03796e-05
3.04816e-05
3.37641e-05
3.67456e-05
3.9455e-05
4.18774e-05
4.40455e-05
4.59591e-05
4.76473e-05
4.91172e-05
5.03925e-05
5.14831e-05
5.2407e-05
5.3174e-05
5.37974e-05
5.42851e-05
5.46453e-05
5.48833e-05
5.50013e-05
1.9078e-05
2.94557e-05
3.28881e-05
3.59891e-05
3.87935e-05
4.12957e-05
4.35303e-05
4.55011e-05
4.72381e-05
4.87501e-05
5.00614e-05
5.11826e-05
5.21323e-05
5.29206e-05
5.35608e-05
5.40613e-05
5.44302e-05
5.46732e-05
5.47935e-05
1.8229e-05
2.94557e-05
3.28881e-05
3.59891e-05
3.87935e-05
4.12957e-05
4.35303e-05
4.55011e-05
4.72381e-05
4.87501e-05
5.00614e-05
5.11826e-05
5.21323e-05
5.29206e-05
5.35608e-05
5.40613e-05
5.44302e-05
5.46732e-05
5.47935e-05
)
;

boundaryField
{
    leftWall
    {
        type            calculated;
        value           uniform 0;
    }
    rightWall
    {
        type            calculated;
        value           uniform 0;
    }
    lowerWall
    {
        type            calculated;
        value           uniform 0;
    }
    atmosphere
    {
        type            calculated;
        value           uniform 0;
    }
    defaultFaces
    {
        type            empty;
    }
}


// ************************************************************************* //
