/*--------------------------------*- C++ -*----------------------------------*\
| =========                 |                                                 |
| \\      /  F ield         | OpenFOAM: The Open Source CFD Toolbox           |
|  \\    /   O peration     | Version:  2012                                  |
|   \\  /    A nd           | Website:  www.openfoam.com                      |
|    \\/     M anipulation  |                                                 |
\*---------------------------------------------------------------------------*/
FoamFile
{
    version     2.0;
    format      ascii;
    class       surfaceScalarField;
    location    "0.08";
    object      phi;
}
// * * * * * * * * * * * * * * * * * * * * * * * * * * * * * * * * * * * * * //

dimensions      [0 3 -1 0 0 0 0];
oriented        oriented;


internalField   nonuniform List<scalar> 
4432
(
4.61925e-06
-4.61926e-06
9.27953e-06
-4.66029e-06
1.40576e-05
-4.77811e-06
1.89729e-05
-4.91529e-06
2.4124e-05
-5.15112e-06
2.95527e-05
-5.42864e-06
3.53504e-05
-5.79773e-06
4.16441e-05
-6.29375e-06
4.84926e-05
-6.8485e-06
5.61655e-05
-7.67285e-06
6.45493e-05
-8.38387e-06
7.44555e-05
-9.90618e-06
8.68123e-05
-1.23568e-05
0.000101445
-1.46327e-05
0.000113638
-1.2193e-05
0.000120816
-7.08395e-06
0.000126258
-5.43937e-06
0.000132523
-6.24607e-06
0.000134983
-2.43952e-06
0.000116573
1.84084e-05
7.57917e-05
4.07812e-05
3.49045e-05
4.08864e-05
3.49036e-05
4.60817e-06
-9.22743e-06
9.2569e-06
-9.30902e-06
1.40227e-05
-9.54394e-06
1.8924e-05
-9.81655e-06
2.40597e-05
-1.02869e-05
2.94698e-05
-1.08388e-05
3.52453e-05
-1.15732e-05
4.15137e-05
-1.25621e-05
4.83202e-05
-1.3655e-05
5.59734e-05
-1.53261e-05
6.43665e-05
-1.6777e-05
7.41758e-05
-1.97155e-05
8.61089e-05
-2.42898e-05
9.94827e-05
-2.80065e-05
0.000111414
-2.41245e-05
0.00012073
-1.63992e-05
0.00012874
-1.34314e-05
0.000135154
-1.26111e-05
0.000133178
-4.51325e-07
0.000108728
4.28582e-05
7.05749e-05
7.89341e-05
3.39763e-05
7.74843e-05
6.88793e-05
4.58597e-06
-1.38134e-05
9.21151e-06
-1.39346e-05
1.39526e-05
-1.42851e-05
1.88257e-05
-1.46896e-05
2.39302e-05
-1.53914e-05
2.93034e-05
-1.6212e-05
3.50315e-05
-1.73013e-05
4.12496e-05
-1.87802e-05
4.79754e-05
-2.03808e-05
5.55592e-05
-2.29099e-05
6.39095e-05
-2.51273e-05
7.35408e-05
-2.93468e-05
8.50993e-05
-3.58484e-05
9.74763e-05
-4.03834e-05
0.000109032
-3.55678e-05
0.000120113
-2.74707e-05
0.000130629
-2.38818e-05
0.000136533
-1.84746e-05
0.000125738
1.03473e-05
9.36508e-05
7.49458e-05
5.91176e-05
0.000113467
2.92985e-05
0.000107303
9.81773e-05
4.55313e-06
-1.83665e-05
9.14454e-06
-1.8526e-05
1.38492e-05
-1.89897e-05
1.86811e-05
-1.95215e-05
2.37394e-05
-2.04497e-05
2.90594e-05
-2.15319e-05
3.4717e-05
-2.29589e-05
4.08619e-05
-2.49252e-05
4.74751e-05
-2.6994e-05
5.4934e-05
-3.03687e-05
6.31792e-05
-3.33725e-05
7.25671e-05
-3.87347e-05
8.36551e-05
-4.69364e-05
9.53502e-05
-5.20786e-05
0.000106737
-4.69542e-05
0.000119086
-3.97859e-05
0.000131281
-3.59816e-05
0.000132834
-2.00104e-05
0.00011035
3.28319e-05
7.51751e-05
0.000110121
4.87752e-05
0.000139867
2.52092e-05
0.000130869
0.000123386
4.50931e-06
-2.28759e-05
9.05531e-06
-2.3072e-05
1.37109e-05
-2.36453e-05
1.84881e-05
-2.42987e-05
2.34837e-05
-2.54454e-05
2.87325e-05
-2.67808e-05
3.42938e-05
-2.85202e-05
4.03373e-05
-3.09687e-05
4.68058e-05
-3.34624e-05
5.40736e-05
-3.76366e-05
6.21296e-05
-4.14285e-05
7.12002e-05
-4.78053e-05
8.16724e-05
-5.74085e-05
9.27651e-05
-6.31713e-05
0.000104205
-5.83896e-05
0.000117541
-5.30269e-05
0.000129223
-4.75922e-05
0.000122505
-1.32871e-05
9.21152e-05
6.32223e-05
6.2185e-05
0.000140051
4.42078e-05
0.000157844
2.4455e-05
0.000150622
0.000147841
4.45566e-06
-2.73315e-05
8.94639e-06
-2.75627e-05
1.35418e-05
-2.82407e-05
1.82534e-05
-2.90104e-05
2.31722e-05
-3.03642e-05
2.8336e-05
-3.19445e-05
3.37827e-05
-3.39669e-05
3.97003e-05
-3.68864e-05
4.60028e-05
-3.97649e-05
5.30283e-05
-4.46622e-05
6.0821e-05
-4.92211e-05
6.95307e-05
-5.6515e-05
7.92414e-05
-6.71192e-05
8.97305e-05
-7.36605e-05
0.000101539
-7.01767e-05
0.000115365
-6.67257e-05
0.000122955
-5.51467e-05
0.000106594
3.07557e-06
7.2389e-05
9.74277e-05
5.0213e-05
0.000162228
3.81209e-05
0.000169937
2.12193e-05
0.000167523
0.000169061
4.39084e-06
-3.17224e-05
8.81497e-06
-3.19869e-05
1.33372e-05
-3.2763e-05
1.79696e-05
-3.36428e-05
2.2794e-05
-3.51886e-05
2.78523e-05
-3.70029e-05
3.31608e-05
-3.92754e-05
3.8914e-05
-4.26395e-05
4.50163e-05
-4.58672e-05
5.1745e-05
-5.13908e-05
5.91854e-05
-5.66616e-05
6.75039e-05
-6.48335e-05
7.6317e-05
-7.59323e-05
8.62428e-05
-8.25951e-05
9.87064e-05
-8.25958e-05
0.000112559
-8.04517e-05
0.000112927
-5.55028e-05
8.79921e-05
2.80115e-05
5.82411e-05
0.000127179
4.53997e-05
0.00017507
3.81804e-05
0.000177157
2.32063e-05
0.000182498
0.000192267
4.31611e-06
-3.60385e-05
8.66395e-06
-3.63347e-05
1.31019e-05
-3.7201e-05
1.76457e-05
-3.81865e-05
2.23627e-05
-3.99056e-05
2.73033e-05
-4.19435e-05
3.24647e-05
-4.44368e-05
3.80352e-05
-4.82101e-05
4.39345e-05
-5.17665e-05
5.03668e-05
-5.78232e-05
5.74367e-05
-6.37315e-05
6.5294e-05
-7.26908e-05
7.33338e-05
-8.39721e-05
8.23098e-05
-9.15711e-05
9.38544e-05
-9.4007e-05
0.00010522
-9.17221e-05
9.75731e-05
-4.7851e-05
6.70042e-05
5.85809e-05
4.53551e-05
0.000148828
4.01474e-05
0.000180278
3.6561e-05
0.000180744
2.35973e-05
0.000195463
0.000215866
2.38329e-06
-2.38314e-06
6.58141e-06
-4.19798e-06
8.97345e-06
-2.3919e-06
1.07465e-05
-1.77296e-06
1.13903e-05
-6.43615e-07
1.15094e-05
-1.18989e-07
1.11438e-05
3.65729e-07
1.05233e-05
6.20578e-07
9.72052e-06
8.02872e-07
8.81326e-06
9.07361e-07
7.85543e-06
9.57894e-07
6.86756e-06
9.87985e-07
5.87388e-06
9.93778e-07
4.87888e-06
9.95109e-07
3.89107e-06
9.87891e-07
2.9095e-06
9.81664e-07
1.9355e-06
9.74098e-07
9.6627e-07
9.69332e-07
9.66334e-07
2.12722e-06
-4.51021e-06
6.56927e-06
-8.63989e-06
9.07968e-06
-4.90217e-06
1.08418e-05
-3.53497e-06
1.14817e-05
-1.28343e-06
1.15713e-05
-2.084e-07
1.11867e-05
7.50371e-07
1.05463e-05
1.26116e-06
9.73479e-06
1.61441e-06
8.82042e-06
1.82185e-06
7.85862e-06
1.91977e-06
6.86815e-06
1.9786e-06
5.87312e-06
1.9889e-06
4.87751e-06
1.99082e-06
3.88959e-06
1.97589e-06
2.90819e-06
1.96318e-06
1.93454e-06
1.94784e-06
9.6576e-07
1.93818e-06
1.93221e-06
2.30622e-06
-6.81628e-06
7.01407e-06
-1.33476e-05
9.59814e-06
-7.4861e-06
1.12598e-05
-5.19652e-06
1.17809e-05
-1.8044e-06
1.17768e-05
-2.04118e-07
1.13178e-05
1.20942e-06
1.06281e-05
1.951e-06
9.78267e-06
2.45991e-06
8.84769e-06
2.75696e-06
7.87284e-06
2.89472e-06
6.87451e-06
2.97706e-06
5.87488e-06
2.98862e-06
4.87671e-06
2.98911e-06
3.88767e-06
2.96505e-06
2.90607e-06
2.94491e-06
1.93285e-06
2.92116e-06
9.64832e-07
2.90631e-06
2.89716e-06
1.43459e-06
-8.25072e-06
6.92292e-06
-1.88358e-05
9.93851e-06
-1.05016e-05
1.15932e-05
-6.85106e-06
1.2068e-05
-2.27913e-06
1.19492e-05
-8.51311e-08
1.14405e-05
1.71817e-06
1.06955e-05
2.69616e-06
9.82328e-06
3.33217e-06
8.86742e-06
3.71295e-06
7.88102e-06
3.88122e-06
6.87534e-06
3.98288e-06
5.87197e-06
3.99208e-06
4.87212e-06
3.98908e-06
3.88285e-06
3.95444e-06
2.90185e-06
3.92603e-06
1.92978e-06
3.89333e-06
9.63226e-07
3.87299e-06
3.86049e-06
1.95761e-06
-1.02082e-05
7.97546e-06
-2.48535e-05
1.09901e-05
-1.3516e-05
1.24348e-05
-8.29566e-06
1.264e-05
-2.4843e-06
1.23312e-05
2.2379e-07
1.16844e-05
2.36512e-06
1.08438e-05
3.53691e-06
9.91056e-06
4.26546e-06
8.91633e-06
4.70731e-06
7.90586e-06
4.89178e-06
6.88566e-06
5.00319e-06
5.87391e-06
5.00392e-06
4.86961e-06
4.9935e-06
3.87855e-06
4.9456e-06
2.89741e-06
4.90726e-06
1.92632e-06
4.86451e-06
9.61352e-07
4.83807e-06
4.82191e-06
3.97072e-07
-1.06051e-05
7.99955e-06
-3.24558e-05
1.18166e-05
-1.73329e-05
1.30935e-05
-9.57244e-06
1.31652e-05
-2.55595e-06
1.26303e-05
7.58817e-07
1.18821e-05
3.11342e-06
1.09511e-05
4.46805e-06
9.97093e-06
5.24571e-06
8.94369e-06
5.73466e-06
7.91525e-06
5.9203e-06
6.88414e-06
6.0344e-06
5.86706e-06
6.02108e-06
4.86055e-06
6.00011e-06
3.8695e-06
5.93673e-06
2.88967e-06
5.88716e-06
1.92077e-06
5.83352e-06
9.58453e-07
5.80046e-06
5.78045e-06
4.52646e-06
-1.51313e-05
1.07724e-05
-3.87015e-05
1.3664e-05
-2.02244e-05
1.4348e-05
-1.02563e-05
1.39624e-05
-2.17035e-06
1.3135e-05
1.58639e-06
1.21924e-05
4.0561e-06
1.11384e-05
5.52219e-06
1.00793e-05
6.30486e-06
9.00302e-06
6.81104e-06
7.9437e-06
6.97969e-06
6.89411e-06
7.08409e-06
5.86647e-06
7.04881e-06
4.85463e-06
7.01205e-06
3.86174e-06
6.9297e-06
2.88227e-06
6.86672e-06
1.91517e-06
6.80073e-06
9.55453e-07
6.76026e-06
6.73601e-06
1.39486e-05
-2.90798e-05
1.51026e-05
-3.98554e-05
1.64687e-05
-2.15905e-05
1.55473e-05
-9.33472e-06
1.47443e-05
-1.36721e-06
1.35563e-05
2.77449e-06
1.24434e-05
5.16912e-06
1.12699e-05
6.69578e-06
1.01468e-05
7.42805e-06
9.02969e-06
7.92825e-06
7.94839e-06
8.06109e-06
6.88621e-06
8.14638e-06
5.85289e-06
8.08224e-06
4.83922e-06
8.02582e-06
3.84721e-06
7.92181e-06
2.87022e-06
7.84383e-06
1.90665e-06
7.76439e-06
9.51054e-07
7.71596e-06
7.68718e-06
8.91334e-06
-4.49519e-05
1.78905e-05
-4.53119e-05
2.70299e-05
-4.63404e-05
3.63832e-05
-4.75399e-05
4.60408e-05
-4.95632e-05
5.61293e-05
-5.2032e-05
6.66175e-05
-5.4925e-05
7.78116e-05
-5.94042e-05
8.966e-05
-6.36149e-05
0.000102298
-7.04608e-05
0.000116033
-7.7467e-05
0.000130861
-8.75185e-05
0.000145527
-9.86379e-05
0.000161913
-0.000107947
0.00018091
-0.000112604
0.000196769
-0.000107455
0.000159453
-1.05313e-05
9.98411e-05
0.000118194
8.42853e-05
0.000164385
9.12649e-05
0.000173299
0.000102407
0.000169603
0.00012351
0.000174361
0.0001861
0.000153278
8.46156e-06
-5.34134e-05
1.69805e-05
-5.38309e-05
2.56159e-05
-5.49758e-05
3.44405e-05
-5.63645e-05
4.34799e-05
-5.86026e-05
5.28571e-05
-6.14093e-05
6.2554e-05
-6.46219e-05
7.26861e-05
-6.95364e-05
8.33913e-05
-7.43201e-05
9.44155e-05
-8.1485e-05
0.000106234
-8.92859e-05
0.00011835
-9.96343e-05
0.000130527
-0.000110814
0.000143897
-0.000121223
0.000156368
-0.000124747
0.000148987
-0.000100033
9.887e-05
3.95876e-05
6.75094e-05
0.000149555
7.15502e-05
0.000160346
8.30852e-05
0.000161765
9.65903e-05
0.000156098
0.00012301
0.000147942
0.000150215
0.000158895
7.95346e-06
-6.13669e-05
1.59577e-05
-6.18351e-05
2.40322e-05
-6.30502e-05
3.22676e-05
-6.46e-05
4.06312e-05
-6.69662e-05
4.92404e-05
-7.00185e-05
5.80793e-05
-7.34608e-05
6.71213e-05
-7.85784e-05
7.65919e-05
-8.37907e-05
8.60187e-05
-9.09118e-05
9.58752e-05
-9.91424e-05
0.000105094
-0.000108853
0.000116179
-0.000119167
0.000125448
-0.000130195
0.000132042
-0.0001311
0.000101868
-6.98512e-05
5.84174e-05
8.30394e-05
5.47373e-05
0.000153236
6.35948e-05
0.000151489
7.66184e-05
0.000148742
9.03729e-05
0.000142345
0.000110256
0.00012806
0.00012533
0.000135142
7.40149e-06
-6.87684e-05
1.48465e-05
-6.92802e-05
2.23204e-05
-7.05242e-05
2.99256e-05
-7.22052e-05
3.75817e-05
-7.46223e-05
4.54083e-05
-7.78451e-05
5.33625e-05
-8.14151e-05
6.13738e-05
-8.65896e-05
6.96144e-05
-9.20314e-05
7.76527e-05
-9.89501e-05
8.58279e-05
-0.000107318
9.33373e-05
-0.000116362
0.000101059
-0.000126887
0.000106663
-0.000135392
0.0001109
-0.000135172
7.30055e-05
-3.19531e-05
4.07897e-05
0.000115256
4.80694e-05
0.000145958
5.52029e-05
0.000144356
6.68014e-05
0.000137145
7.76335e-05
0.000131513
8.95678e-05
0.000116126
0.000109282
0.000105616
6.81436e-06
-7.55828e-05
1.36651e-05
-7.61309e-05
2.05101e-05
-7.73691e-05
2.74585e-05
-7.91536e-05
3.43909e-05
-8.15547e-05
4.14372e-05
-8.48914e-05
4.85026e-05
-8.84806e-05
5.55435e-05
-9.36304e-05
6.26021e-05
-9.90901e-05
6.94057e-05
-0.000105754
7.60407e-05
-0.000113953
8.19618e-05
-0.000122283
8.75096e-05
-0.000132419
9.09109e-05
-0.000138361
9.30092e-05
-0.00013716
5.46281e-05
6.4298e-06
3.24651e-05
0.00013742
4.2639e-05
0.000135784
4.84651e-05
0.000138531
5.85906e-05
0.00012702
6.70767e-05
0.000123028
7.45521e-05
0.000108651
0.000100594
8.32409e-05
6.21852e-06
-8.18013e-05
1.24653e-05
-8.23778e-05
1.86785e-05
-8.35823e-05
2.49669e-05
-8.5442e-05
3.11856e-05
-8.77733e-05
3.74717e-05
-9.11776e-05
4.36822e-05
-9.46911e-05
4.98242e-05
-9.97725e-05
5.58028e-05
-0.000105069
6.15315e-05
-0.000111482
6.68349e-05
-0.000119256
7.15017e-05
-0.00012695
7.55039e-05
-0.00013638
7.77162e-05
-0.000140162
7.33368e-05
-0.000132713
3.77833e-05
4.19847e-05
2.71116e-05
0.000148093
3.57832e-05
0.000127114
4.10619e-05
0.000133253
4.89174e-05
0.000119165
5.56311e-05
0.000116315
6.10777e-05
0.000103206
9.50337e-05
6.66382e-05
5.60467e-06
-8.7406e-05
1.12309e-05
-8.80041e-05
1.68058e-05
-8.91571e-05
2.24327e-05
-9.1069e-05
2.79549e-05
-9.32955e-05
3.35091e-05
-9.67318e-05
3.89203e-05
-0.000100102
4.42351e-05
-0.000105087
4.92619e-05
-0.000110095
5.40578e-05
-0.000116278
5.82534e-05
-0.000123452
6.19512e-05
-0.000130648
6.47813e-05
-0.000139134
6.62936e-05
-0.000141312
4.98242e-05
-0.000116207
2.01634e-05
7.16469e-05
2.18002e-05
0.000146457
2.83483e-05
0.000120567
3.46901e-05
0.000126912
4.09258e-05
0.00011293
4.67899e-05
0.000110451
5.10242e-05
9.89719e-05
9.14329e-05
5.46254e-05
5.00927e-06
-9.24153e-05
1.00323e-05
-9.30271e-05
1.49898e-05
-9.41146e-05
1.99757e-05
-9.6055e-05
2.48316e-05
-9.81514e-05
2.96876e-05
-0.000101588
3.4354e-05
-0.000104769
3.89037e-05
-0.000109637
4.30948e-05
-0.000114286
4.70811e-05
-0.000120265
5.03806e-05
-0.000126751
5.33233e-05
-0.000133591
5.52976e-05
-0.000140991
5.62466e-05
-0.000141963
2.77316e-05
-8.76754e-05
6.58122e-06
9.27984e-05
1.67647e-05
0.000136274
2.11308e-05
0.000116201
2.81636e-05
0.00011988
3.27124e-05
0.000108382
3.78947e-05
0.000105269
4.14301e-05
9.54371e-05
8.83588e-05
4.45047e-05
4.39976e-06
-9.68151e-05
8.80843e-06
-9.74358e-05
1.31481e-05
-9.84543e-05
1.75007e-05
-0.000100408
2.17193e-05
-0.00010237
2.59144e-05
-0.000105783
2.98989e-05
-0.000108753
3.3761e-05
-0.000113499
3.72391e-05
-0.000117765
4.05417e-05
-0.000123567
4.31345e-05
-0.000129344
4.54846e-05
-0.000135941
4.68265e-05
-0.000142175
4.72178e-05
-0.000142129
1.36248e-05
-5.40748e-05
2.42523e-07
0.000106182
1.28544e-05
0.000123663
1.54004e-05
0.000113656
2.25403e-05
0.000112741
2.59929e-05
0.00010493
3.07317e-05
0.000100531
3.35652e-05
9.26042e-05
8.58968e-05
3.60277e-05
3.83188e-06
-0.000100647
7.66619e-06
-0.00010127
1.14256e-05
-0.000102214
1.51804e-05
-0.000104162
1.87981e-05
-0.000105988
2.23608e-05
-0.000109345
2.57027e-05
-0.000112095
2.89257e-05
-0.000116722
3.17593e-05
-0.000120598
3.44627e-05
-0.00012627
3.64746e-05
-0.000131356
3.83767e-05
-0.000137843
3.92927e-05
-0.000142912
3.93268e-05
-0.000141987
6.03176e-06
-2.07758e-05
-2.05269e-06
0.000114267
9.03111e-06
0.00011258
1.05712e-05
0.000112117
1.69962e-05
0.000106317
1.95832e-05
0.000102344
2.38318e-05
9.62831e-05
2.61684e-05
9.02682e-05
8.35263e-05
2.85394e-05
3.24624e-06
-0.000103893
6.49238e-06
-0.000104516
9.66865e-06
-0.00010539
1.28337e-05
-0.000107327
1.58703e-05
-0.000109024
1.88403e-05
-0.000112315
2.16034e-05
-0.000114858
2.42669e-05
-0.000119386
2.65573e-05
-0.000122889
2.87715e-05
-0.000128485
3.03352e-05
-0.00013292
3.18654e-05
-0.000139373
3.25868e-05
-0.000143454
3.22688e-05
-0.00014153
1.55737e-06
9.93803e-06
-3.48902e-06
0.000119314
5.17416e-06
0.000103918
6.1768e-06
0.000111115
1.18366e-05
0.000100657
1.39983e-05
0.000100183
1.77837e-05
9.24983e-05
1.98071e-05
8.82453e-05
8.13931e-05
2.19407e-05
2.72022e-06
-0.000106613
5.43753e-06
-0.000107234
8.08983e-06
-0.000108042
1.07181e-05
-0.000109956
1.32208e-05
-0.000111527
1.56504e-05
-0.000114745
1.7878e-05
-0.000117086
2.00194e-05
-0.000121527
2.17874e-05
-0.000124657
2.35226e-05
-0.00013022
2.46076e-05
-0.000134005
2.57421e-05
-0.000140508
2.65064e-05
-0.000144056
2.51354e-05
-0.000140053
-1.61136e-06
3.66864e-05
-4.50574e-06
0.00012221
1.80752e-06
9.7605e-05
2.65179e-06
0.000110272
6.98533e-06
9.63245e-05
8.85077e-06
9.83181e-05
1.20249e-05
8.93248e-05
1.38815e-05
8.63893e-05
7.93713e-05
1.59038e-05
2.16878e-06
-0.000108782
4.33551e-06
-0.0001094
6.45236e-06
-0.000110159
8.54435e-06
-0.000112048
1.0534e-05
-0.000113517
1.24616e-05
-0.000116673
1.42102e-05
-0.000118835
1.58904e-05
-0.000123207
1.72185e-05
-0.000125985
1.85328e-05
-0.000131534
1.91842e-05
-0.000134656
1.98654e-05
-0.000141189
2.08697e-05
-0.000144933
1.71493e-05
-0.000136259
-4.9509e-06
5.87876e-05
-6.37854e-06
0.000123638
-2.46212e-06
9.36892e-05
-1.21671e-06
0.000109027
1.95604e-06
9.31524e-05
3.88223e-06
9.63926e-05
6.54899e-06
8.66586e-05
8.42999e-06
8.45088e-05
7.74776e-05
1.03242e-05
1.69386e-06
-0.000110476
3.38241e-06
-0.000111089
5.02938e-06
-0.000111806
6.64102e-06
-0.000113659
8.16189e-06
-0.000115038
9.60906e-06
-0.00011812
1.0889e-05
-0.000120115
1.20887e-05
-0.000124407
1.29666e-05
-0.000126863
1.37772e-05
-0.000132345
1.39442e-05
-0.000134823
1.43325e-05
-0.000141577
1.48568e-05
-0.000145346
6.08402e-06
-0.000127439
-9.1229e-06
7.39954e-05
-7.1062e-06
0.000121623
-5.78175e-06
9.23656e-05
-4.15411e-06
0.0001074
-2.59743e-06
9.15964e-05
-6.87677e-07
9.44835e-05
1.32334e-06
8.46482e-05
3.28792e-06
8.25448e-05
7.56575e-05
5.10856e-06
1.17069e-06
-0.000111647
2.33398e-06
-0.000112252
3.45867e-06
-0.000112931
4.54899e-06
-0.00011475
5.57595e-06
-0.000116065
6.55091e-06
-0.000119095
7.41488e-06
-0.000120979
8.24064e-06
-0.000125233
8.85696e-06
-0.000127479
9.42749e-06
-0.000132915
9.38298e-06
-0.000134779
1.19918e-05
-0.000140596
1.01755e-05
-0.000143368
-7.87564e-06
-0.000109358
-1.43513e-05
8.04717e-05
-8.42166e-06
0.000115694
-1.01584e-05
9.41029e-05
-8.11106e-06
0.000105354
-7.70167e-06
9.11877e-05
-5.55909e-06
9.23415e-05
-3.92916e-06
8.30188e-05
-1.77441e-06
8.03905e-05
7.38214e-05
6.21167e-08
7.77829e-07
-0.000112425
1.53607e-06
-0.000113011
2.26593e-06
-0.000113661
2.95488e-06
-0.000115439
3.60467e-06
-0.000116715
4.19985e-06
-0.000119691
4.71993e-06
-0.0001215
5.21677e-06
-0.000125732
5.64094e-06
-0.000127906
6.21615e-06
-0.000133495
6.79505e-06
-0.000135366
8.08787e-06
-0.000141939
3.09244e-06
-0.000138182
-4.79374e-06
-0.000101446
-3.82584e-06
7.95045e-05
-6.44004e-06
0.000118309
-1.19006e-05
9.95643e-05
-1.21392e-05
0.000105593
-1.27589e-05
9.18081e-05
-1.07361e-05
9.03194e-05
-9.20275e-06
8.1486e-05
-6.77633e-06
7.79646e-05
7.18299e-05
-4.78428e-06
4.4873e-07
-0.000113226
8.95384e-07
-0.000113821
1.31889e-06
-0.000114464
1.68976e-06
-0.000116226
2.01164e-06
-0.000117485
2.29621e-06
-0.00012049
2.54375e-06
-0.000122312
2.8729e-06
-0.000126733
3.30518e-06
-0.00012908
4.5634e-06
-0.000135674
7.81913e-06
-0.00013971
2.08307e-05
-0.000156276
1.83189e-05
-0.000135704
1.53406e-05
-9.83804e-05
1.85026e-05
7.63442e-05
-3.14606e-06
0.000139959
-1.38406e-05
0.000110259
-1.65328e-05
0.000108286
-1.80505e-05
9.33264e-05
-1.62522e-05
8.85216e-05
-1.46549e-05
7.98893e-05
-1.18443e-05
7.51545e-05
6.95198e-05
-9.53378e-06
3.20309e-07
-0.00011407
6.18808e-07
-0.000114634
9.16341e-07
-0.000115264
1.18471e-06
-0.000116969
1.43015e-06
-0.000118182
1.62694e-06
-0.000121089
1.85736e-06
-0.000122914
2.19309e-06
-0.000127367
3.44228e-06
-0.000130591
6.56448e-06
-0.00013895
1.24607e-05
-0.000145685
2.34517e-05
-0.000167278
4.08033e-05
-0.000153336
2.52873e-05
-8.28234e-05
1.00607e-05
9.1581e-05
-1.22866e-05
0.000162308
-2.67373e-05
0.000124711
-2.64442e-05
0.000107994
-2.68986e-05
9.37815e-05
-2.33871e-05
8.50107e-05
-2.07493e-05
7.7252e-05
-1.71575e-05
7.15631e-05
6.66275e-05
-1.42648e-05
-2.22746e-06
-0.000111845
-4.55108e-06
-0.000112313
-7.04718e-06
-0.000112771
-9.6891e-06
-0.000114329
-1.26442e-05
-0.000115229
-1.55451e-05
-0.00011819
-1.87055e-05
-0.000119755
-2.07363e-05
-0.000125337
-2.17376e-05
-0.00012959
-1.81857e-05
-0.000142502
-7.84433e-06
-0.000156025
4.68417e-06
-0.000179806
2.42934e-05
-0.000172945
-1.72821e-05
-4.12844e-05
-4.95815e-05
0.000123879
-4.4529e-05
0.000157256
-4.74405e-05
0.000127624
-3.98363e-05
0.00010039
-3.69347e-05
9.08805e-05
-3.07255e-05
7.88021e-05
-2.67276e-05
7.32545e-05
-2.19948e-05
6.68308e-05
6.30904e-05
-1.84573e-05
-5.41388e-06
-0.000106432
-1.07326e-05
-0.000106995
-1.62104e-05
-0.000107294
-2.20519e-05
-0.000108489
-2.82453e-05
-0.000109037
-3.51147e-05
-0.000111322
-4.24527e-05
-0.000112418
-5.0819e-05
-0.000116972
-5.99698e-05
-0.00012044
-7.16543e-05
-0.000130819
-8.66372e-05
-0.000141044
-0.000113549
-0.000152895
-0.000152952
-0.000133544
-0.000173507
-2.07275e-05
-0.000143263
9.36365e-05
-0.000101469
0.000115464
-7.60791e-05
0.000102235
-5.95387e-05
8.38505e-05
-4.85641e-05
7.99064e-05
-3.98107e-05
7.00492e-05
-3.32458e-05
6.66901e-05
-2.75183e-05
6.11036e-05
5.85073e-05
-2.29348e-05
-5.39115e-06
-0.000101041
-1.09709e-05
-0.000101415
-1.67187e-05
-0.000101546
-2.28661e-05
-0.000102341
-2.93528e-05
-0.00010255
-3.66649e-05
-0.00010401
-4.47277e-05
-0.000104355
-5.48903e-05
-0.000106809
-6.77073e-05
-0.000107623
-8.73028e-05
-0.000111223
-0.000116055
-0.000112292
-0.000161606
-0.000107344
-0.000208053
-8.70958e-05
-0.000203934
-2.48463e-05
-0.000156269
4.59725e-05
-0.000111552
7.07476e-05
-8.28074e-05
7.34911e-05
-6.51963e-05
6.62399e-05
-5.2123e-05
6.68336e-05
-4.30992e-05
6.10258e-05
-3.57858e-05
5.93772e-05
-3.00786e-05
5.53967e-05
5.36187e-05
-2.51897e-05
-5.45197e-06
-9.55888e-05
-1.11391e-05
-9.57283e-05
-1.70119e-05
-9.56733e-05
-2.32785e-05
-9.60747e-05
-2.99582e-05
-9.58703e-05
-3.74046e-05
-9.65634e-05
-4.57324e-05
-9.60271e-05
-5.5642e-05
-9.68999e-05
-6.78511e-05
-9.54136e-05
-8.41807e-05
-9.48939e-05
-0.000106485
-8.99879e-05
-0.000133362
-8.0467e-05
-0.000157447
-6.30114e-05
-0.000161659
-2.06333e-05
-0.000137008
2.13212e-05
-0.000107811
4.15512e-05
-8.6091e-05
5.17717e-05
-7.03578e-05
5.0507e-05
-5.77226e-05
5.41988e-05
-4.8093e-05
5.13965e-05
-4.02787e-05
5.15632e-05
-3.39803e-05
4.90987e-05
4.82536e-05
-2.8615e-05
-5.73074e-06
-8.98581e-05
-1.15879e-05
-8.98712e-05
-1.76271e-05
-8.96342e-05
-2.41173e-05
-8.95846e-05
-3.10128e-05
-8.89748e-05
-3.88335e-05
-8.87428e-05
-4.73886e-05
-8.7472e-05
-5.76451e-05
-8.66435e-05
-6.90183e-05
-8.40405e-05
-8.3214e-05
-8.06983e-05
-9.86191e-05
-7.45828e-05
-0.000116069
-6.30171e-05
-0.000131511
-4.7569e-05
-0.000130771
-2.1373e-05
-0.000115794
6.34385e-06
-9.79062e-05
2.36639e-05
-8.11978e-05
3.50636e-05
-6.82147e-05
3.75242e-05
-5.71185e-05
4.3103e-05
-4.81438e-05
4.24222e-05
-4.0674e-05
4.40937e-05
-3.45682e-05
4.29932e-05
4.30216e-05
-2.93359e-05
-5.44996e-06
-8.44082e-05
-1.10202e-05
-8.4301e-05
-1.67284e-05
-8.3926e-05
-2.27643e-05
-8.35488e-05
-2.91042e-05
-8.26349e-05
-3.60916e-05
-8.17555e-05
-4.36372e-05
-7.99265e-05
-5.23188e-05
-7.7962e-05
-6.18907e-05
-7.44686e-05
-7.28759e-05
-6.97133e-05
-8.43804e-05
-6.30783e-05
-9.50703e-05
-5.23271e-05
-0.000103187
-3.9452e-05
-0.000104362
-2.01983e-05
-9.71057e-05
-9.12156e-07
-8.65209e-05
1.30793e-05
-7.47021e-05
2.3245e-05
-6.50093e-05
2.78317e-05
-5.58194e-05
3.39133e-05
-4.8086e-05
3.46891e-05
-4.13632e-05
3.73711e-05
-3.56302e-05
3.72604e-05
3.80337e-05
-3.06421e-05
-5.5297e-06
-7.88785e-05
-1.11559e-05
-7.86748e-05
-1.69048e-05
-7.81772e-05
-2.2961e-05
-7.74927e-05
-2.92386e-05
-7.63573e-05
-3.60352e-05
-7.49589e-05
-4.30934e-05
-7.28683e-05
-5.0909e-05
-7.01464e-05
-5.8894e-05
-6.64836e-05
-6.75689e-05
-6.10383e-05
-7.6089e-05
-5.45583e-05
-8.36032e-05
-4.48129e-05
-8.91631e-05
-3.3892e-05
-8.89982e-05
-2.03631e-05
-8.40777e-05
-5.83252e-06
-7.65679e-05
5.56966e-06
-6.79689e-05
1.46462e-05
-6.04342e-05
2.02973e-05
-5.27241e-05
2.62033e-05
-4.6168e-05
2.81333e-05
-4.01531e-05
3.13565e-05
-3.49365e-05
3.20441e-05
3.33974e-05
-3.03e-05
-5.05709e-06
-7.38215e-05
-1.01861e-05
-7.35459e-05
-1.54027e-05
-7.29606e-05
-2.08384e-05
-7.2057e-05
-2.6449e-05
-7.07468e-05
-3.24322e-05
-6.89757e-05
-3.86331e-05
-6.66675e-05
-4.52631e-05
-6.35164e-05
-5.20336e-05
-5.97131e-05
-5.88509e-05
-5.42211e-05
-6.51938e-05
-4.82153e-05
-7.0215e-05
-3.97918e-05
-7.35058e-05
-3.06011e-05
-7.42111e-05
-1.96577e-05
-7.15885e-05
-8.45502e-06
-6.69841e-05
9.65368e-07
-6.11785e-05
8.84078e-06
-5.551e-05
1.4629e-05
-4.93361e-05
2.00296e-05
-4.39635e-05
2.27609e-05
-3.87623e-05
2.61554e-05
-3.41731e-05
2.74551e-05
2.92028e-05
-2.99782e-05
-4.97936e-06
-6.88421e-05
-1.00086e-05
-6.85167e-05
-1.50895e-05
-6.78797e-05
-2.03121e-05
-6.68344e-05
-2.56022e-05
-6.54567e-05
-3.11024e-05
-6.34756e-05
-3.66364e-05
-6.11335e-05
-4.23646e-05
-5.77882e-05
-4.79956e-05
-5.40822e-05
-5.33826e-05
-4.88341e-05
-5.83528e-05
-4.32451e-05
-6.2252e-05
-3.58926e-05
-6.48332e-05
-2.802e-05
-6.50428e-05
-1.94481e-05
-6.30909e-05
-1.04068e-05
-5.95991e-05
-2.52626e-06
-5.52001e-05
4.44189e-06
-5.06086e-05
1.00376e-05
-4.56163e-05
1.50374e-05
-4.11275e-05
1.82723e-05
-3.66301e-05
2.16581e-05
-3.26225e-05
2.34476e-05
2.54378e-05
-2.88574e-05
-4.47146e-06
-6.43707e-05
-8.97819e-06
-6.40099e-05
-1.35265e-05
-6.33314e-05
-1.81729e-05
-6.21879e-05
-2.28802e-05
-6.07494e-05
-2.77008e-05
-5.8655e-05
-3.25441e-05
-5.62901e-05
-3.7395e-05
-5.29374e-05
-4.20925e-05
-4.93847e-05
-4.6443e-05
-4.44836e-05
-5.02643e-05
-3.94238e-05
-5.31515e-05
-3.30054e-05
-5.48924e-05
-2.6279e-05
-5.54144e-05
-1.89261e-05
-5.43208e-05
-1.15003e-05
-5.21153e-05
-4.73169e-06
-4.90822e-05
1.40896e-06
-4.5658e-05
6.61345e-06
-4.18003e-05
1.11799e-05
-3.81433e-05
1.46155e-05
-3.43665e-05
1.78815e-05
-3.09315e-05
2.00128e-05
2.21263e-05
-2.76199e-05
-4.25306e-06
-6.01176e-05
-8.5206e-06
-5.97424e-05
-1.27953e-05
-5.90567e-05
-1.71014e-05
-5.78819e-05
-2.14018e-05
-5.6449e-05
-2.5718e-05
-5.43388e-05
-2.99796e-05
-5.20286e-05
-3.41349e-05
-4.87821e-05
-3.81135e-05
-4.54062e-05
-4.1706e-05
-4.0891e-05
-4.48718e-05
-3.62581e-05
-4.7253e-05
-3.06241e-05
-4.87448e-05
-2.47872e-05
-4.90552e-05
-1.86157e-05
-4.82352e-05
-1.23203e-05
-4.65151e-05
-6.45169e-06
-4.41103e-05
-9.95732e-07
-4.12965e-05
3.79974e-06
-3.81663e-05
8.04979e-06
-3.50794e-05
1.15287e-05
-3.18841e-05
1.46864e-05
-2.8915e-05
1.70438e-05
1.92232e-05
-2.60118e-05
-3.78583e-06
-5.63318e-05
-7.57894e-06
-5.59492e-05
-1.13786e-05
-5.5257e-05
-1.5187e-05
-5.40735e-05
-1.89881e-05
-5.26479e-05
-2.2754e-05
-5.05728e-05
-2.64511e-05
-4.83315e-05
-2.99926e-05
-4.52407e-05
-3.33248e-05
-4.2074e-05
-3.62712e-05
-3.79446e-05
-3.87671e-05
-3.37622e-05
-4.06405e-05
-2.87507e-05
-4.17833e-05
-2.36444e-05
-4.22131e-05
-1.81858e-05
-4.17674e-05
-1.27659e-05
-4.06472e-05
-7.57179e-06
-3.89325e-05
-2.71042e-06
-3.68353e-05
1.70269e-06
-3.44189e-05
5.63352e-06
-3.19301e-05
9.03996e-06
-2.93059e-05
1.20623e-05
-2.67929e-05
1.45309e-05
1.67263e-05
-2.42958e-05
-3.4872e-06
-5.28446e-05
-6.96863e-06
-5.24678e-05
-1.04365e-05
-5.1789e-05
-1.38776e-05
-5.06324e-05
-1.72808e-05
-4.92448e-05
-2.06058e-05
-4.72478e-05
-2.38407e-05
-4.50967e-05
-2.68878e-05
-4.21936e-05
-2.97437e-05
-3.9218e-05
-3.22525e-05
-3.54358e-05
-3.44083e-05
-3.16064e-05
-3.60175e-05
-2.71414e-05
-3.70398e-05
-2.26222e-05
-3.73785e-05
-1.7847e-05
-3.70549e-05
-1.30895e-05
-3.61645e-05
-8.46209e-06
-3.4796e-05
-4.07881e-06
-3.30729e-05
-2.03124e-08
-3.10866e-05
3.64732e-06
-2.89847e-05
6.9381e-06
-2.67736e-05
9.85129e-06
-2.46082e-05
1.23657e-05
1.45681e-05
-2.24499e-05
-3.07575e-06
-4.97688e-05
-6.1428e-06
-4.94007e-05
-9.19665e-06
-4.87352e-05
-1.22144e-05
-4.76147e-05
-1.5192e-05
-4.62671e-05
-1.80774e-05
-4.43624e-05
-2.0866e-05
-4.23081e-05
-2.34639e-05
-3.95957e-05
-2.58665e-05
-3.68154e-05
-2.79441e-05
-3.33582e-05
-2.96783e-05
-2.98722e-05
-3.09841e-05
-2.58355e-05
-3.18192e-05
-2.1787e-05
-3.21919e-05
-1.74743e-05
-3.20435e-05
-1.32379e-05
-3.14591e-05
-9.04636e-06
-3.04621e-05
-5.07574e-06
-2.91643e-05
-1.31812e-06
-2.76214e-05
2.10457e-06
-2.59379e-05
5.25467e-06
-2.41385e-05
8.05201e-06
-2.23296e-05
1.05569e-05
1.27446e-05
-2.05059e-05
-2.74948e-06
-4.70193e-05
-5.48507e-06
-4.66651e-05
-8.20016e-06
-4.60201e-05
-1.08668e-05
-4.4948e-05
-1.34841e-05
-4.36498e-05
-1.59996e-05
-4.1847e-05
-1.84191e-05
-3.98885e-05
-2.06564e-05
-3.73585e-05
-2.27249e-05
-3.47469e-05
-2.45184e-05
-3.15647e-05
-2.60439e-05
-2.83467e-05
-2.71912e-05
-2.46882e-05
-2.79517e-05
-2.10266e-05
-2.82793e-05
-1.71466e-05
-2.81924e-05
-1.33248e-05
-2.77287e-05
-9.50997e-06
-2.69351e-05
-5.86921e-06
-2.58743e-05
-2.37887e-06
-2.46052e-05
8.35443e-07
-2.31938e-05
3.84336e-06
-2.16835e-05
6.54182e-06
-2.01389e-05
9.01233e-06
1.11846e-05
-1.85788e-05
-2.39e-06
-4.46293e-05
-4.76531e-06
-4.42897e-05
-7.12002e-06
-4.36653e-05
-9.42509e-06
-4.26429e-05
-1.16811e-05
-4.13937e-05
-1.3838e-05
-3.96901e-05
-1.59014e-05
-3.78252e-05
-1.77953e-05
-3.54645e-05
-1.95283e-05
-3.30139e-05
-2.10131e-05
-3.00799e-05
-2.22515e-05
-2.71083e-05
-2.31908e-05
-2.37488e-05
-2.38228e-05
-2.03946e-05
-2.41422e-05
-1.68272e-05
-2.41343e-05
-1.33326e-05
-2.38332e-05
-9.81111e-06
-2.32543e-05
-6.44803e-06
-2.24513e-05
-3.18182e-06
-2.1463e-05
-1.52756e-07
-2.03408e-05
2.7212e-06
-1.91208e-05
5.32184e-06
-1.78491e-05
7.74066e-06
9.88691e-06
-1.65513e-05
-2.06297e-06
-4.25663e-05
-4.11186e-06
-4.22408e-05
-6.14118e-06
-4.1636e-05
-8.12357e-06
-4.06605e-05
-1.006e-05
-3.94572e-05
-1.19056e-05
-3.78445e-05
-1.36678e-05
-3.6063e-05
-1.5283e-05
-3.38492e-05
-1.67664e-05
-3.15305e-05
-1.8046e-05
-2.88003e-05
-1.9133e-05
-2.60214e-05
-1.99611e-05
-2.29207e-05
-2.05355e-05
-1.98201e-05
-2.08263e-05
-1.65364e-05
-2.08509e-05
-1.3308e-05
-2.06211e-05
-1.00408e-05
-2.01672e-05
-6.90197e-06
-1.9519e-05
-3.82995e-06
-1.87158e-05
-9.55855e-07
-1.77891e-05
1.79459e-06
-1.67781e-05
4.31086e-06
-1.57114e-05
6.67402e-06
8.79505e-06
-1.46195e-05
-1.74875e-06
-4.08175e-05
-3.48321e-06
-4.05063e-05
-5.19745e-06
-3.99217e-05
-6.86669e-06
-3.89912e-05
-8.49172e-06
-3.78322e-05
-1.0034e-05
-3.63021e-05
-1.14999e-05
-3.45971e-05
-1.2836e-05
-3.25131e-05
-1.40526e-05
-3.03139e-05
-1.50933e-05
-2.77597e-05
-1.59672e-05
-2.51474e-05
-1.66375e-05
-2.22504e-05
-1.71089e-05
-1.93487e-05
-1.73704e-05
-1.62749e-05
-1.74247e-05
-1.32536e-05
-1.72823e-05
-1.01833e-05
-1.69572e-05
-7.22699e-06
-1.64731e-05
-4.31413e-06
-1.58564e-05
-1.57244e-06
-1.51325e-05
1.07073e-06
-1.43307e-05
3.50903e-06
-1.34728e-05
5.81612e-06
7.90807e-06
-1.25857e-05
-1.43326e-06
-3.93842e-05
-2.85615e-06
-3.90833e-05
-4.26482e-06
-3.8513e-05
-5.63871e-06
-3.76173e-05
-6.9781e-06
-3.64927e-05
-8.25102e-06
-3.50292e-05
-9.46274e-06
-3.33854e-05
-1.05715e-05
-3.14043e-05
-1.15878e-05
-2.92975e-05
-1.24651e-05
-2.68824e-05
-1.32143e-05
-2.43982e-05
-1.37942e-05
-2.16705e-05
-1.42141e-05
-1.89288e-05
-1.44521e-05
-1.60369e-05
-1.45223e-05
-1.31834e-05