/*--------------------------------*- C++ -*----------------------------------*\
| =========                 |                                                 |
| \\      /  F ield         | OpenFOAM: The Open Source CFD Toolbox           |
|  \\    /   O peration     | Version:  2012                                  |
|   \\  /    A nd           | Website:  www.openfoam.com                      |
|    \\/     M anipulation  |                                                 |
\*---------------------------------------------------------------------------*/
FoamFile
{
    version     2.0;
    format      ascii;
    class       volScalarField;
    location    "0.08";
    object      rhogh;
}
// * * * * * * * * * * * * * * * * * * * * * * * * * * * * * * * * * * * * * //

dimensions      [1 -1 -2 0 0 0 0];


internalField   nonuniform List<scalar> 
2268
(
-29.4294
-29.4294
-29.4294
-29.4294
-29.4294
-29.4294
-29.4294
-29.4294
-29.4294
-29.4294
-29.4294
-29.4294
-29.4294
-29.4294
-29.4294
-29.4294
-27.2271
-10.6585
-0.313029
-0.000103036
-3.1124e-11
-1.07095e-13
-8.6062e-15
-88.2881
-88.2881
-88.2881
-88.2881
-88.2881
-88.2881
-88.2881
-88.2881
-88.2881
-88.2881
-88.2881
-88.2881
-88.2881
-88.2881
-88.2881
-85.9519
-56.5011
-11.1293
-0.470503
-0.000401492
-2.01593e-10
-4.14702e-13
-2.58213e-14
-147.147
-147.147
-147.147
-147.147
-147.147
-147.147
-147.147
-147.147
-147.147
-147.147
-147.147
-147.147
-147.147
-147.147
-147.147
-125.486
-44.4674
-3.96354
-0.133809
-0.000643305
-2.13939e-09
-3.03085e-12
-1.44019e-13
-206.006
-206.006
-206.006
-206.006
-206.006
-206.006
-206.006
-206.006
-206.006
-206.006
-206.006
-206.006
-206.006
-206.006
-204.709
-127.279
-17.8666
-0.67125
-0.0149945
-0.000225607
-4.52953e-08
-8.26543e-11
-2.66469e-12
-264.864
-264.864
-264.864
-264.864
-264.864
-264.864
-264.864
-264.864
-264.864
-264.864
-264.864
-264.864
-264.864
-264.864
-242.779
-91.5837
-5.79308
-0.0676704
-0.000625585
-2.73371e-05
-2.29699e-07
-2.06922e-09
-3.85749e-11
-323.723
-323.723
-323.723
-323.723
-323.723
-323.723
-323.723
-323.723
-323.723
-323.723
-323.723
-323.723
-323.723
-323.723
-250.944
-47.871
-1.31735
-0.00549786
-2.96178e-05
-1.53809e-06
-8.45738e-08
-2.38621e-09
-4.43272e-11
-382.582
-382.582
-382.582
-382.582
-382.582
-382.582
-382.582
-382.582
-382.582
-382.582
-382.582
-382.582
-382.582
-382.582
-223.968
-17.2153
-0.158281
-0.000229856
-2.53555e-06
-1.2914e-07
-1.90812e-08
-1.18893e-09
-3.15055e-11
-441.44
-441.44
-441.44
-441.44
-441.44
-441.44
-441.44
-441.44
-441.44
-441.44
-441.44
-441.44
-441.44
-430.895
-178.733
-7.06592
-0.0138648
-7.47064e-06
-2.2066e-07
-3.491e-08
-4.75977e-09
-3.42184e-10
-1.12921e-11
-4.45673e-36
-5.04238e-36
-1.07446e-37
-1.14254e-39
-1.01188e-41
-8.13589e-44
-6.27291e-46
-4.5716e-48
-3.07242e-50
-1.86118e-52
-9.96422e-55
-4.63054e-57
-1.83129e-59
-6.02962e-62
-1.60562e-64
-3.32204e-67
-5.0105e-70
-4.90246e-73
-4.67642e-76
-2.72042e-33
-4.34002e-33
-9.08798e-35
-9.89086e-37
-9.17444e-39
-7.74646e-41
-6.28775e-43
-4.8147e-45
-3.3852e-47
-2.13604e-49
-1.18603e-51
-5.69518e-54
-2.32027e-56
-7.85115e-59
-2.1445e-61
-4.54431e-64
-7.01092e-67
-7.01264e-70
-3.41592e-73
-8.11653e-31
-9.94793e-31
-2.01302e-32
-2.27791e-34
-2.25424e-36
-2.03336e-38
-1.76748e-40
-1.43805e-42
-1.06601e-44
-7.04201e-47
-4.07028e-49
-2.02531e-51
-8.51968e-54
-2.9681e-56
-8.32779e-59
-1.80928e-61
-2.85734e-64
-2.92174e-67
-1.45329e-70
-1.36932e-28
-1.23845e-28
-2.22603e-30
-2.72926e-32
-2.92252e-34
-2.818e-36
-2.61451e-38
-2.25163e-40
-1.75028e-42
-1.20479e-44
-7.21943e-47
-3.71082e-49
-1.60806e-51
-5.75884e-54
-1.65812e-56
-3.69146e-59
-5.96653e-62
-6.23732e-65
-3.16876e-68
-1.82639e-26
-1.01658e-26
-1.59234e-28
-2.26022e-30
-2.65428e-32
-2.79381e-34
-2.78949e-36
-2.55149e-38
-2.08752e-40
-1.50275e-42
-9.37262e-45
-4.995e-47
-2.23716e-49
-8.25833e-52
-2.44529e-54
-5.58735e-57
-9.25279e-60
-9.89574e-63
-5.13669e-66
-2.0105e-24
-6.13128e-25
-9.6385e-27
-1.41048e-28
-1.70332e-30
-1.87936e-32
-1.95461e-34
-1.86198e-36
-1.58221e-38
-1.18091e-40
-7.61892e-43
-4.19178e-45
-1.93431e-47
-7.34344e-50
-2.23249e-52
-5.22956e-55
-8.86616e-58
-9.69589e-61
-5.14073e-64
-2.27119e-22
-2.83323e-23
-4.80675e-25
-7.07686e-27
-8.80279e-29
-1.025e-30
-1.12242e-32
-1.12483e-34
-1.00454e-36
-7.86219e-39
-5.3041e-41
-3.04157e-43
-1.45816e-45
-5.73348e-48
-1.8002e-50
-4.34414e-53
-7.57013e-56
-8.49236e-59
-4.61097e-62
-2.03112e-20
-1.05173e-21
-1.80318e-23
-2.64352e-25
-3.25032e-27
-3.7996e-29
-4.16419e-31
-4.21861e-33
-3.84419e-35
-3.093e-37
-2.15371e-39
-1.27682e-41
-6.32767e-44
-2.56927e-46
-8.31713e-49
-2.0656e-51
-3.69782e-54
-4.2542e-57
-2.365e-60
-533.467
-533.467
-533.467
-533.467
-533.467
-533.467
-533.467
-533.467
-533.467
-533.467
-533.467
-533.467
-533.467
-471.292
-122.858
-2.29934
-0.000912369
-3.85224e-07
-2.26845e-08
-6.3748e-09
-8.60574e-10
-7.71083e-11
-5.04741e-12
-658.662
-658.662
-658.662
-658.662
-658.662
-658.662
-658.662
-658.662
-658.662
-658.662
-658.662
-658.662
-658.662
-461.295
-49.0343
-0.244896
-2.27359e-05
-3.32335e-08
-3.85674e-09
-8.26202e-10
-1.06317e-10
-1.04214e-11
-9.05155e-13
-783.856
-783.856
-783.856
-783.856
-783.856
-783.856
-783.856
-783.856
-783.856
-783.856
-783.856
-783.856
-783.856
-383.302
-13.6098
-0.0149746
-5.62171e-07
-3.36428e-09
-5.34945e-10
-9.07845e-11
-1.09595e-11
-1.05989e-12
-9.9474e-14
-909.051
-909.051
-909.051
-909.051
-909.051
-909.051
-909.051
-909.051
-909.051
-909.051
-909.051
-909.051
-867.575
-293.556
-5.69513
-0.00143763
-2.37246e-08
-3.35545e-10
-5.73246e-11
-8.32419e-12
-9.35081e-13
-8.39918e-14
-7.63182e-15
-1034.25
-1034.25
-1034.25
-1034.25
-1034.25
-1034.25
-1034.25
-1034.25
-1034.25
-1034.25
-1034.25
-1034.25
-916.835
-217.491
-2.16385
-0.000146764
-1.48799e-09
-3.81303e-11
-5.5175e-12
-6.76481e-13
-7.05054e-14
-5.83607e-15
-4.89124e-16
-1159.44
-1159.44
-1159.44
-1159.44
-1159.44
-1159.44
-1159.44
-1159.44
-1159.44
-1159.44
-1159.44
-1159.44
-940.305
-150.879
-0.731112
-1.23973e-05
-1.30223e-10
-5.31195e-12
-5.70518e-13
-5.79753e-14
-5.59937e-15
-4.40672e-16
-3.44373e-17
-1284.63
-1284.63
-1284.63
-1284.63
-1284.63
-1284.63
-1284.63
-1284.63
-1284.63
-1284.63
-1284.63
-1284.63
-937.716
-96.291
-0.214354
-8.84689e-07
-1.56872e-11
-9.37344e-13
-9.26835e-14
-8.50475e-15
-7.48509e-16
-5.66693e-17
-4.06398e-18
-1409.83
-1409.83
-1409.83
-1409.83
-1409.83
-1409.83
-1409.83
-1409.83
-1409.83
-1409.83
-1409.83
-1409.83
-910.576
-55.4685
-0.0543761
-5.57289e-08
-3.39479e-12
-3.2831e-13
-3.02548e-14
-2.46529e-15
-1.8148e-16
-1.19537e-17
-7.29799e-19
-1535.02
-1535.02
-1535.02
-1535.02
-1535.02
-1535.02
-1535.02
-1535.02
-1535.02
-1535.02
-1535.02
-1535.02
-859.594
-28.9716
-0.0131893
-4.29004e-09
-1.76967e-12
-1.75901e-13
-1.26999e-14
-8.45918e-16
-4.98419e-17
-2.71027e-18
-1.36217e-19
-1660.22
-1660.22
-1660.22
-1660.22
-1660.22
-1660.22
-1660.22
-1660.22
-1660.22
-1660.22
-1660.22
-1660.22
-786.17
-16.5944
-0.00406555
-6.52749e-10
-9.41888e-13
-9.07746e-14
-4.80388e-15
-2.52018e-16
-1.17098e-17
-5.20936e-19
-2.15429e-20
-1785.41
-1785.41
-1785.41
-1785.41
-1785.41
-1785.41
-1785.41
-1785.41
-1785.41
-1785.41
-1785.41
-1785.41
-698.275
-10.0827
-0.00124952
-1.75114e-10
-4.94541e-13
-3.57481e-14
-1.35352e-15
-5.66685e-17
-2.11052e-18
-7.82362e-20
-2.70395e-21
-1910.61
-1910.61
-1910.61
-1910.61
-1910.61
-1910.61
-1910.61
-1910.61
-1910.61
-1910.61
-1910.61
-1910.61
-598.164
-5.68754
-0.000335379
-1.57117e-16
-2.48951e-13
-9.99646e-15
-2.6792e-16
-9.22482e-18
-2.81226e-19
-8.89424e-21
-2.6197e-22
-2035.8
-2035.8
-2035.8
-2035.8
-2035.8
-2035.8
-2035.8
-2035.8
-2035.8
-2035.8
-2035.8
-2035.8
-489.009
-2.91272
-7.1158e-05
-1.67412e-16
-5.47147e-14
-1.6784e-15
-3.50297e-17
-1.05955e-18
-2.73678e-20
-7.64341e-22
-1.96233e-23
-2161
-2161
-2161
-2161
-2161
-2161
-2161
-2161
-2161
-2161
-2161
-2161
-386.733
-1.34091
-8.94074e-06
-1.77708e-16
-8.10685e-15
-2.2498e-16
-3.69943e-18
-9.56987e-20
-2.03055e-21
-5.09282e-23
-1.15551e-24
-2286.19
-2286.19
-2286.19
-2286.19
-2286.19
-2286.19
-2286.19
-2286.19
-2286.19
-2286.19
-2286.17
-2286.19
-320.195
-0.725884
-2.43773e-16
-3.34886e-15
-1.05145e-15
-2.57321e-17
-3.38142e-19
-7.54674e-21
-1.34173e-22
-2.92121e-24
-5.60253e-26
-2408.39
-2408.21
-2407.95
-2407.35
-2406.74
-2405.41
-2404.24
-2401.49
-2399.37
-2392.82
-2384.08
-2288.69
-310.277
-1.06542
-2.57119e-16
-1.6971e-14
-2.15678e-16
-2.91589e-18
-2.94649e-20
-5.38911e-22
-8.08223e-24
-1.5196e-25
-2.4944e-27
-2067.4
-2056.88
-2042.04
-2009.59
-1979.95
-1922.27
-1878.91
-1789.85
-1733.82
-1589.73
-1452.2
-1073.78
-334.779
-10.1824
-0.000722187
-9.53412e-11
-1.38616e-20
-5.53345e-19
-2.79207e-21
-3.64391e-23
-4.55473e-25
-7.27655e-27
-1.03235e-28
-377.009
-367.679
-354.81
-327.977
-304.969
-263.365
-234.929
-182.026
-152.399
-86.3295
-33.4385
-2.47112e-05
-121.116
-45.6201
-0.0375048
-5.54327e-07
-1.45415e-20
-2.53424e-19
-3.12431e-22
-2.44033e-24
-2.45359e-26
-3.24182e-28
-3.99806e-30
-1.66287e-35
9.93249e-35
-1.08607e-40
-1.62393e-33
4.42609e-38
-2.58793e-32
7.89615e-29
-9.39005e-28
9.09138e-29
1.21836e-25
3.47909e-24
-2.53871e-05
-2.58735e-05
-44.7107
-1.04768
-4.68883e-21
-2.23621e-20
-1.08928e-19
-3.88571e-23
-1.64845e-25
-1.27456e-27
-1.34892e-29
-1.44968e-31
-8.87081e-17
-8.64001e-17
-9.66124e-17
-1.12853e-15
-4.98363e-14
-1.67317e-12
-4.05828e-11
-7.22401e-10
-9.32388e-09
-8.10511e-08
-4.91871e-07
-0.000670029
-0.0173763
-3.02607e-05
-0.601744
-4.89619e-21
-1.25485e-20
-2.88969e-20
-4.57032e-24
-1.08718e-26
-6.33165e-29
-5.19921e-31
-4.88764e-33
-1.7504e-16
-1.69799e-16
-1.85997e-16
-1.94872e-15
-8.33466e-14
-2.71558e-12
-6.38869e-11
-1.10276e-09
-1.40675e-08
-1.36585e-07
-9.13654e-07
-1.40013e-06
-8.64432e-07
-3.84545e-05
-0.00112135
-5.11063e-21
-1.42555e-16
-4.85159e-21
-4.4973e-25
-6.63346e-28
-2.91957e-30
-1.83989e-32
-1.51168e-34
-3.60945e-26
-6.54852e-24
-5.79099e-22
-3.03076e-20
-1.02667e-18
-2.33508e-17
-2.76039e-16
-3.30524e-16
-3.3107e-16
-3.3464e-16
-3.92487e-16
-3.92997e-16
-2.87998e-09
-5.06585e-08
-8.10378e-08
-5.31717e-21
-1.54822e-16
-4.86603e-22
-3.41924e-26
-3.50377e-29
-1.20525e-31
-5.9123e-34
-4.22937e-36
-2.25403e-27
-5.79315e-25
-6.91738e-23
-5.08e-21
-2.54292e-19
-9.19241e-18
-2.47223e-16
-4.69638e-15
-6.05378e-14
-5.87376e-13
-4.73133e-12
-3.62307e-11
-2.60429e-10
-1.40031e-09
-2.62369e-09
-3.82188e-14
-3.51587e-17
-3.18605e-23
-1.97555e-27
-1.52055e-30
-4.31242e-33
-1.68877e-35
-1.05418e-37
-1.82513e-34
-1.10341e-31
-3.17996e-29
-5.75003e-27
-7.22239e-25
-6.65914e-23
-4.61442e-21
-2.44114e-19
-9.84073e-18
-3.01751e-16
-6.93718e-15
-1.18358e-13
-1.4691e-12
-1.28159e-11
-4.14791e-11
-1.13072e-14
-2.50703e-18
-1.42214e-24
-8.5094e-29
-5.21973e-32
-1.29546e-34
-4.20216e-37
-2.3095e-39
-6.5342e-38
-4.02122e-35
-1.17279e-32
-2.14258e-30
-2.71709e-28
-2.53148e-26
-1.7758e-24
-9.56137e-23
-3.9473e-21
-1.25186e-19
-2.9923e-18
-5.27289e-17
-6.51524e-16
-5.04722e-15
-1.06864e-14
-4.00668e-16
-1.04128e-19
-4.34819e-26
-2.71591e-30
-1.39736e-33
-3.20784e-36
-8.96775e-39
-4.40516e-41
-1.50608e-42
-7.1155e-40
-1.61405e-37
-2.336e-35
-2.40463e-33
-1.86932e-31
-1.13088e-29
-5.44858e-28
-2.11045e-26
-6.6398e-25
-1.70241e-23
-3.5798e-22
-6.19009e-21
-8.76712e-20
-9.93324e-19
-4.71244e-18
-2.39633e-21
-9.035e-28
-6.32002e-32
-2.88478e-35
-6.4273e-38
-1.61714e-40
-7.2407e-43
-1.04342e-45
-5.19806e-43
-1.23948e-40
-1.88087e-38
-2.0284e-36
-1.65445e-34
-1.05459e-32
-5.38989e-31
-2.2342e-29
-7.60246e-28
-2.13543e-26
-4.96553e-25
-9.55692e-24
-1.51063e-22
-1.92803e-21
-1.02474e-20
-2.9513e-23
-1.26968e-29
-1.06374e-33
-4.58258e-37
-1.03172e-39
-2.44316e-42
-1.01935e-44
-1.37363e-50
-6.87383e-48
-1.63131e-45
-2.43539e-43
-2.5504e-41
-1.9854e-39
-1.18453e-37
-5.52521e-36
-2.03202e-34
-5.91954e-33
-1.36098e-31
-2.44806e-30
-3.38352e-29
-3.53034e-28
-2.8689e-27
-2.47462e-26
-1.76444e-25
-1.15656e-31
-1.27572e-35
-5.5622e-39
-1.31424e-41
-3.06901e-44
-1.22165e-46
-5.25793e-57
-3.3128e-54
-1.00614e-51
-1.96075e-49
-2.74805e-47
-2.95029e-45
-2.51819e-43
-1.75507e-41
-1.01726e-39
-4.97428e-38
-2.07714e-36
-7.47358e-35
-2.339e-33
-6.41412e-32
-1.55199e-30
-3.31632e-29
-3.26901e-28
-6.596e-34
-1.08202e-37
-5.14652e-41
-1.32424e-43
-3.1943e-46
-1.24294e-48
-7.27166e-62
-4.85186e-59
-1.55279e-56
-3.168e-54
-4.61723e-52
-5.11051e-50
-4.45957e-48
-3.14653e-46
-1.82782e-44
-8.85783e-43
-3.61642e-41
-1.24979e-39
-3.6432e-38
-8.80925e-37
-1.68278e-35
-2.26575e-34
-8.54425e-34
-2.08064e-36
-6.30825e-40
-3.58659e-43
-1.05073e-45
-2.743e-48
-1.07108e-50
-7.03763e-73
-6.05038e-70
-2.55228e-67
-7.00752e-65
-1.40475e-62
-2.18887e-60
-2.76011e-58
-2.89481e-56
-2.58104e-54
-1.98778e-52
-1.3424e-50
-8.04253e-49
-4.32972e-47
-2.11904e-45
-9.54085e-44
-3.99419e-42
-1.56828e-40
-2.99188e-39
-2.4639e-42
-1.87424e-45
-6.57207e-48
-1.94283e-50
-7.82393e-53
-2.03323e-77
-2.01778e-74
-9.74999e-72
-3.05333e-69
-6.96857e-67
-1.23444e-64
-1.76822e-62
-2.1038e-60
-2.12362e-58
-1.84499e-56
-1.39698e-54
-9.29394e-53
-5.46042e-51
-2.83748e-49
-1.29626e-47
-5.12465e-46
-1.6835e-44
-2.1543e-43
-5.9982e-45
-7.20583e-48
-3.22765e-50
-1.1323e-52
-4.84758e-55
-6.00189e-86
-5.3711e-83
-2.69125e-80
-9.54338e-78
-2.58648e-75
-5.58228e-73
-9.91044e-71
-1.4828e-68
-1.91181e-66
-2.15943e-64
-2.17195e-62
-1.97039e-60
-1.63477e-58
-1.25612e-56
-9.05464e-55
-6.19843e-53
-4.07544e-51
-2.60291e-49
-8.29978e-48
-2.01482e-50
-1.24722e-52
-5.44546e-55
-2.55794e-57
-1.08161e-90
-1.47477e-87
-9.94169e-85
-4.39e-82
-1.4274e-79
-3.64054e-77
-7.60209e-75
-1.33713e-72
-2.02889e-70
-2.70145e-68
-3.20843e-66
-3.44291e-64
-3.37954e-62
-3.06956e-60
-2.60823e-58
-2.09828e-56
-1.61662e-54
-1.20979e-52
-4.53285e-51
-3.96794e-53
-3.77612e-55
-2.16167e-57
-1.15323e-59
-6.16101e-96
-9.88391e-93
-7.74779e-90
-3.95209e-87
-1.47821e-84
-4.32198e-82
-1.03107e-79
-2.06297e-77
-3.53945e-75
-5.27988e-73
-6.92812e-71
-8.04217e-69
-8.28925e-67
-7.57829e-65
-6.11664e-63
-4.31092e-61
-2.60573e-59
-1.33128e-57
-3.55521e-56
-5.37636e-56
-8.97983e-58
-7.12745e-60
-4.47384e-62
-1.13235e-104
-1.45609e-101
-1.22143e-98
-8.13835e-96
-4.37371e-93
-1.91452e-90
-6.97595e-88
-2.15631e-85
-5.75731e-83
-1.34388e-80
-2.77633e-78
-5.12649e-76
-8.56392e-74
-1.31297e-71
-1.88373e-69
-2.59216e-67
-3.51151e-65
-4.77905e-63
-6.59397e-61
-4.64321e-59
-1.67282e-60
-1.9609e-62
-1.50325e-64
-3.51201e-110
-9.68825e-107
-1.31522e-103
-1.17154e-100
-7.72506e-98
-4.02384e-95
-1.73031e-92
-6.32313e-90
-2.01203e-87
-5.67126e-85
-1.44001e-82
-3.33681e-80
-7.15587e-78
-1.43768e-75
-2.74092e-73
-5.0149e-71
-8.90036e-69
-1.54806e-66
-2.67168e-64
-2.32785e-62
-2.4553e-63
-4.55159e-65
-4.42197e-67
-8.61413e-116
-2.99676e-112
-5.13511e-109
-5.78046e-106
-4.82305e-103
-3.18266e-100
-1.73544e-97
-8.04638e-95
-3.249e-92
-1.16198e-89
-3.74218e-87
-1.09951e-84
-2.98862e-82
-7.61036e-80
-1.83939e-77
-4.26932e-75
-9.62067e-73
-2.13028e-70
-4.71507e-68
-5.31969e-66
-2.85253e-66
-9.01386e-68
-1.15133e-69
-1.95424e-122
-9.08038e-119
-2.06911e-115
-3.08247e-112
-3.38759e-109
-2.92961e-106
-2.08124e-103
-1.24778e-100
-6.45033e-98
-2.91519e-95
-1.16729e-92
-4.1837e-90
-1.3602e-87
-4.07052e-85
-1.14317e-82
-3.07471e-80
-8.10368e-78
-2.17424e-75
-6.35221e-73
-2.06212e-70
-2.67626e-69
-1.55118e-70
-2.69387e-72
-1.06344e-130
-8.0264e-127
-2.98576e-123
-7.29354e-120
-1.31716e-116
-1.87059e-113
-2.1756e-110
-2.12491e-107
-1.77883e-104
-1.29349e-101
-8.27863e-99
-4.71152e-96
-2.41571e-93
-1.13278e-90
-4.96837e-88
-2.09984e-85
-8.86354e-83
-3.85503e-80
-1.75619e-77
-8.37104e-75
-2.06847e-72
-2.36702e-73
-5.75596e-75
-7.14078e-140
-1.01378e-135
-7.15825e-132
-3.34911e-128
-1.16896e-124
-3.23746e-121
-7.41284e-118
-1.43982e-114
-2.42462e-111
-3.59362e-108
-4.76252e-105
-5.71476e-102
-6.30052e-99
-6.46426e-96
-6.2595e-93
-5.78769e-90
-5.1653e-87
-4.48686e-84
-3.82836e-81
-3.23961e-78
-1.37436e-75
-3.28966e-76
-1.14522e-77
-7.15742e-152
-1.43851e-147
-1.45255e-143
-1.97089e-139
-1.9643e-135
-1.52502e-131
-9.68704e-128
-5.20836e-124
-2.43835e-120
-1.01513e-116
-3.83182e-113
-1.33159e-109
-4.32368e-106
-1.32804e-102
-3.90462e-99
-1.10993e-95
-3.07705e-92
-8.38464e-89
-2.26394e-85
-6.11235e-82
-8.30025e-79
-4.28417e-79
-2.16179e-80
-3.85322e-13
-2.8209e-14
-1.36274e-15
-5.88776e-17
-1.05886e-13
-1.35555e-14
-1.48958e-15
-1.43347e-16
-1.10947e-14
-1.45886e-15
-1.69347e-16
-1.56983e-17
-8.1865e-16
-1.06397e-16
-1.1488e-17
-1.05271e-18
-4.98077e-17
-6.40858e-18
-6.97627e-19
-6.60629e-20
-3.38868e-18
-4.40597e-19
-5.02543e-20
-5.0128e-21
-3.67688e-19
-4.4791e-20
-4.88477e-21
-4.65973e-22
-5.62178e-20
-5.90607e-21
-5.64659e-22
-4.78582e-23
-8.68939e-21
-7.66811e-22
-6.23975e-23
-4.57474e-24
-1.1498e-21
-8.61059e-23
-6.01481e-24
-3.83687e-25
-1.22658e-22
-7.90531e-24
-4.8025e-25
-2.69346e-26
-1.03264e-23
-5.83609e-25
-3.1378e-26
-1.57007e-27
-6.87095e-25
-3.46351e-26
-1.67384e-27
-7.56936e-29
-3.66426e-26
-1.67052e-27
-7.35273e-29
-3.03868e-30
-1.58686e-27
-6.61076e-29
-2.67966e-30
-1.02175e-31
-6.27715e-29
-2.35747e-30
-8.68213e-32
-3.0198e-33
-2.28796e-30
-7.78376e-32
-2.60961e-33
-8.32308e-35
-7.71273e-32
-2.38379e-33
-7.2793e-35
-2.13751e-36
-2.40651e-33
-6.76908e-35
-1.88263e-36
-5.10556e-38
-6.90479e-35
-1.77199e-36
-4.48989e-38
-1.12858e-39
-1.81167e-36
-4.24985e-38
-9.82429e-40
-2.29586e-41
-4.30811e-38
-9.2579e-40
-1.9597e-41
-4.27328e-43
-9.19305e-40
-1.81549e-41
-3.53484e-43
-7.22043e-45
-1.74232e-41
-3.17721e-43
-5.7261e-45
-1.10129e-46
-2.91341e-43
-4.93376e-45
-8.2844e-47
-1.50835e-48
-4.26366e-45
-6.75089e-47
-1.06417e-48
-1.84587e-50
-5.43967e-47
-8.11003e-49
-1.20977e-50
-2.012e-52
-6.02368e-49
-8.51963e-51
-1.21293e-52
-1.94739e-54
-5.78105e-51
-7.81507e-53
-1.07131e-54
-1.67163e-56
-4.8011e-53
-6.25288e-55
-8.32816e-57
-1.27161e-58
-3.45305e-55
-4.36875e-57
-5.70402e-59
-8.58039e-61
-2.1524e-57
-2.66924e-59
-3.44678e-61
-5.14361e-63
-1.1668e-59
-1.43159e-61
-1.84389e-63
-2.74852e-65
-5.51913e-62
-6.76572e-64
-8.76512e-66
-1.31412e-67
-2.29252e-64
-2.83573e-66
-3.72478e-68
-5.65455e-70
-8.41671e-67
-1.06103e-68
-1.42405e-70
-2.20323e-72
-2.7576e-69
-3.5769e-71
-4.94087e-73
-7.83772e-75
-8.14489e-72
-1.097e-73
-1.57009e-75
-2.56768e-77
-2.19737e-74
-3.0983e-76
-4.62191e-78
-7.8292e-80
-5.49053e-77
-8.16211e-79
-1.27539e-80
-2.24631e-82
-1.2914e-79
-2.03536e-81
-3.34406e-83
-6.14094e-85
-2.9019e-82
-4.86705e-84
-8.42781e-86
-1.61597e-87
-1.75665e-18
-4.11771e-20
-7.47388e-22
-1.12928e-23
-1.46154e-25
-1.72037e-27
-1.83864e-29
-1.79004e-31
-1.56472e-33
-1.21269e-35
-8.19283e-38
-4.75018e-40
-2.3204e-42
-9.35502e-45
-3.02527e-47
-7.54101e-50
-1.35982e-52
-1.58022e-55
-8.89262e-59
-7.48361e-18
-2.13344e-19
-4.44394e-21
-7.0578e-23
-9.19714e-25
-1.03714e-26
-1.03428e-28
-9.22202e-31
-7.3048e-33
-5.10225e-35
-3.09876e-37
-1.61479e-39
-7.09401e-42
-2.57521e-44
-7.5129e-47
-1.69456e-49
-2.77479e-52
-2.9396e-55
-1.51425e-58
-6.91612e-19
-1.6814e-20
-3.32543e-22
-5.77797e-24
-8.7383e-26
-1.17073e-27
-1.36856e-29
-1.39595e-31
-1.22867e-33
-9.28913e-36
-5.97251e-38
-3.23819e-40
-1.4604e-42
-5.38845e-45
-1.5858e-47
-3.58745e-50
-5.86566e-53
-6.18389e-56
-3.16167e-59
-4.88872e-20
-1.36015e-21
-3.12618e-23
-6.17042e-25
-1.03351e-26
-1.47693e-28
-1.78862e-30
-1.84166e-32
-1.60686e-34
-1.18885e-36
-7.41842e-39
-3.88425e-41
-1.68699e-43
-5.98741e-46
-1.69454e-48
-3.68828e-51
-5.80705e-54
-5.90219e-57
-2.91331e-60
-3.24461e-21
-9.75769e-23
-2.42122e-24
-5.07894e-26
-8.8684e-28
-1.30432e-29
-1.60562e-31
-1.66655e-33
-1.45466e-35
-1.07013e-37
-6.60446e-40
-3.40479e-42
-1.45054e-44
-5.03448e-47
-1.39006e-49
-2.94626e-52
-4.51155e-55
-4.45612e-58
-2.13685e-61
-2.61867e-22
-8.29552e-24
-2.14145e-25
-4.58224e-27
-8.04097e-29
-1.17267e-30
-1.41866e-32
-1.43668e-34
-1.21748e-36
-8.66533e-39
-5.16182e-41
-2.56498e-43
-1.05246e-45
-3.51743e-48
-9.35302e-51
-1.91003e-53
-2.81986e-56
-2.68752e-59
-1.24478e-62
-2.33932e-23
-7.08599e-25
-1.75208e-26
-3.58835e-28
-6.04001e-30
-8.47e-32
-9.87763e-34
-9.66411e-36
-7.92229e-38
-5.45897e-40
-3.14863e-42
-1.51469e-44
-6.01479e-47
-1.94468e-49
-5.00085e-52
-9.87416e-55
-1.40946e-57
-1.299e-60
-5.82045e-64
-2.16766e-24
-5.99328e-26
-1.37224e-27
-2.62381e-29
-4.15567e-31
-5.50949e-33
-6.09989e-35
-5.68106e-37
-4.44287e-39
-2.92511e-41
-1.61417e-43
-7.43802e-46
-2.83223e-48
-8.79019e-51
-2.17222e-53
-4.12617e-56
-5.67257e-59
-5.0409e-62
-2.18054e-65
-1.81917e-25
-4.48413e-27
-9.31006e-29
-1.63463e-30
-2.4034e-32
-2.98264e-34
-3.11151e-36
-2.74499e-38
-2.0416e-40
-1.28237e-42
-6.7674e-45
-2.9877e-47
-1.09159e-49
-3.25461e-52
-7.73487e-55
-1.41438e-57
-1.87379e-60
-1.60623e-63
-6.71007e-67
-1.34175e-26
-2.94761e-28
-5.5362e-30
-8.88933e-32
-1.20723e-33
-1.39447e-35
-1.3627e-37
-1.13192e-39
-7.95975e-42
-4.74375e-44
-2.38206e-46
-1.00318e-48
-3.50388e-51
-1.00066e-53
-2.28197e-56
-4.01064e-59
-5.11515e-62
-4.22754e-65
-1.70538e-68
-8.33696e-28
-1.63636e-29
-2.77931e-31
-4.07775e-33
-5.1067e-35
-5.48295e-37
-5.0122e-39
-3.9168e-41
-2.60271e-43
-1.47154e-45
-7.0321e-48
-2.82616e-50
-9.44174e-53
-2.58444e-55
-5.65938e-58
-9.56708e-61
-1.17554e-63
-9.37442e-67
-3.65458e-70
-4.34845e-29
-7.68643e-31
-1.18675e-32
-1.59526e-34
-1.84429e-36
-1.84048e-38
-1.57278e-40
-1.15499e-42
-7.2434e-45
-3.88046e-47
-1.76279e-49
-6.75511e-52
-2.15734e-54
-5.65851e-57
-1.18985e-59
-1.93531e-62
-2.29223e-65
-1.76512e-68
-6.65628e-72
-1.89301e-30
-3.03453e-32
-4.27803e-34
-5.28799e-36
-5.65683e-38
-5.25754e-40
-4.20587e-42
-2.90649e-44
-1.72224e-46
-8.75251e-49
-3.78384e-51
-1.38412e-53
-4.23036e-56
-1.06443e-58
-2.15174e-61
-3.37124e-64
-3.8535e-67
-2.86874e-70
-1.0477e-73
-6.90992e-32
-1.01106e-33
-1.30822e-35
-1.49319e-37
-1.48262e-39
-1.28645e-41
-9.65142e-44
-6.28556e-46
-3.52339e-48
-1.70051e-50
-7.00351e-53
-2.44811e-55
-7.16851e-58
-1.73236e-60
-3.37072e-63
-5.09367e-66
-5.62646e-69
-4.05504e-72
-1.43629e-75
-2.12133e-33
-2.85281e-35
-3.40543e-37
-3.60776e-39
-3.33751e-41
-2.71338e-43
-1.91443e-45
-1.17807e-47
-6.26075e-50
-2.87557e-52
-1.13032e-54
-3.78234e-57
-1.06285e-59
-2.47082e-62
-4.63452e-65
-6.76507e-68
-7.23189e-71
-5.05325e-74
-1.73838e-77
-5.63004e-35
-6.84207e-37
-7.56543e-39
-7.47773e-41
-6.46841e-43
-4.94619e-45
-3.29199e-47
-1.91985e-49
-9.6981e-52
-4.24952e-54
-1.59786e-56
-5.12952e-59
-1.38606e-61
-3.10576e-64
-5.62635e-67
-7.94776e-70
-8.23688e-73
-5.58955e-76
-1.87069e-79
-1.40308e-36
-1.52311e-38
-1.50062e-40
-1.34128e-42
-1.08921e-44
-7.8715e-47
-4.95936e-49
-2.75079e-51
-1.32459e-53
-5.55237e-56
-2.00183e-58
-6.17909e-61
-1.60884e-63
-3.4814e-66
-6.10231e-69
-8.35627e-72
-8.40977e-75
-5.5511e-78
-1.81012e-81
-3.27652e-38
-3.19602e-40
-2.81882e-42
-2.28656e-44
-1.6816e-46
-1.11006e-48
-6.55635e-51
-3.47198e-53
-1.59888e-55
-6.43276e-58
-2.23024e-60
-6.63764e-63
-1.66947e-65
-3.4971e-68
-5.94411e-71
-7.90679e-74
-7.7422e-77
-4.98003e-80
-1.58497e-83
-7.15283e-40
-6.30307e-42
-4.99979e-44
-3.70116e-46
-2.47836e-48
-1.50215e-50
-8.18218e-53
-4.01642e-55
-1.72658e-57
-6.68786e-60
-2.23548e-62
-6.43125e-65
-1.56604e-67
-3.18226e-70
-5.25514e-73
-6.80263e-76
-6.4916e-79
-4.07525e-82
-1.26766e-85
-1.45411e-41
-1.16387e-43
-8.34624e-46
-5.66968e-48
-3.47594e-50
-1.94428e-52
-9.8165e-55
-4.48636e-57
-1.80367e-59
-6.56122e-62
-2.06629e-64
-5.64045e-67
-1.33323e-69
-2.63477e-72
-4.23688e-75
-5.34849e-78
-4.9838e-81
-3.05916e-84
-9.31772e-88
-2.73819e-43
-2.00169e-45
-1.3058e-47
-8.1861e-50
-4.62221e-52
-2.39861e-54
-1.12838e-56
-4.82297e-59
-1.82157e-61
-6.24656e-64
-1.8603e-66
-4.83138e-69
-1.08886e-71
-2.06097e-74
-3.18566e-77
-3.88339e-80
-3.53405e-83
-2.12367e-86
-6.3374e-90
-4.75884e-45
-3.19447e-47
-1.90921e-49
-1.11077e-51
-5.81222e-54
-2.81311e-56
-1.23947e-58
-4.97711e-61
-1.77398e-63
-5.75666e-66
-1.62728e-68
-4.03294e-71
-8.69142e-74
-1.57932e-76
-2.35144e-79
-2.77272e-82
-2.44971e-85
-1.43367e-88
-4.18115e-92
-7.57129e-47
-4.69939e-49
-2.5949e-51
-1.40997e-53
-6.88369e-56
-3.12546e-58
-1.29675e-60
-4.91527e-63
-1.6611e-65
-5.12111e-68
-1.37928e-70
-3.27247e-73
-6.76374e-76
-1.18275e-78
-1.69988e-81
-1.94237e-84
-1.66795e-87
-9.51562e-91
-2.71363e-94
-1.09816e-48
-6.35176e-51
-3.2702e-53
-1.67049e-55
-7.66286e-58
-3.28314e-60
-1.28963e-62
-4.63634e-65
-1.49244e-67
-4.38873e-70
-1.13046e-72
-2.57595e-75
-5.12105e-78
-8.63859e-81
-1.20101e-83
-1.33227e-86
-1.11324e-89
-6.19675e-93
-1.72914e-96
-1.44257e-50
-7.84534e-53
-3.80251e-55
-1.83958e-57
-7.98812e-60
-3.25039e-62
-1.21567e-64
-4.16627e-67
-1.28352e-69
-3.61505e-72
-8.93974e-75
-1.96283e-77
-3.76442e-80
-6.14085e-83
-8.27629e-86
-8.92906e-89
-7.26946e-92
-3.95195e-95
-1.07971e-98
-1.70934e-52
-8.82948e-55
-4.07057e-57
-1.87947e-59
-7.7854e-62
-3.02833e-64
-1.08466e-66
-3.56175e-69
-1.05513e-71
-2.85811e-74
-6.81137e-77
-1.44561e-79
-2.68243e-82
-4.24196e-85
-5.55383e-88
-5.83771e-91
-4.6366e-94
-2.46409e-97
-6.59528e-101
-1.81998e-54
-9.0262e-57
-3.99979e-59
-1.77692e-61
-7.07678e-64
-2.64928e-66
-9.1416e-69
-2.8916e-71
-8.27706e-74
-2.16547e-76
-4.99261e-79
-1.02758e-81
-1.85022e-84
-2.84343e-87
-3.62415e-90
-3.71764e-93
-2.88437e-96
-1.49991e-99
-3.93524e-103
-1.73664e-56
-8.36549e-59
-3.60223e-61
-1.55281e-63
-5.99369e-66
-2.17439e-68
-7.2721e-71
-2.2276e-73
-6.19106e-76
-1.57101e-78
-3.51742e-81
-7.04339e-84
-1.23417e-86
-1.8477e-89
-2.29741e-92
-2.30362e-95
-1.74815e-98
-8.90323e-102
-2.29101e-105
-1.48296e-58
-7.02093e-61
-2.97004e-63
-1.25301e-65
-4.72523e-68
-1.67269e-70
-5.45522e-73
-1.62702e-75
-4.41174e-78
-1.09045e-80
-2.37998e-83
-4.65168e-86
-7.95491e-89
-1.163e-91
-1.41361e-94
-1.38774e-97
-1.03137e-100
-5.14909e-104
-1.30024e-107
-1.13266e-60
-5.33476e-63
-2.24162e-65
-9.33648e-68
-3.46771e-70
-1.20608e-72
-3.85912e-75
-1.12668e-77
-2.9948e-80
-7.24045e-83
-1.5462e-85
-2.95916e-88
-4.95267e-91
-7.08772e-94
-8.4387e-97
-8.12326e-100
-5.91991e-103
-2.89978e-106
-7.18959e-110
-7.74422e-63
-3.67283e-65
-1.54968e-67
-6.42777e-70
-2.37002e-72
-8.15399e-75
-2.57517e-77
-7.39849e-80
-1.93678e-82
-4.59904e-85
-9.64453e-88
-1.81306e-90
-2.97794e-93
-4.18133e-96
-4.88611e-99
-4.6191e-102
-3.30485e-105
-1.58968e-108
-3.87193e-112
-4.74725e-65
-2.2949e-67
-9.82764e-70
-4.09454e-72
-1.51043e-74
-5.17477e-77
-1.62253e-79
-4.61103e-82
-1.19413e-84
-2.79614e-87
-5.77846e-90
-1.07024e-92
-1.72965e-95
-2.38815e-98
-2.74419e-101
-2.55148e-104
-1.79434e-107
-8.48283e-111
-2.03077e-114
-2.61711e-67
-1.30505e-69
-5.73084e-72
-2.41859e-74
-8.99294e-77
-3.08784e-79
-9.66651e-82
-2.73085e-84
-7.02638e-87
-1.62864e-89
-3.32796e-92
-6.09029e-95
-9.7092e-98
-1.32106e-100
-1.49545e-103
-1.36947e-106
-9.47701e-110
-4.40698e-113
-1.03748e-116
-1.30219e-69
-6.77812e-72
-3.08243e-74
-1.32855e-76
-5.01484e-79
-1.73635e-81
-5.45625e-84
-1.5396e-86
-3.95171e-89
-9.10005e-92
-1.84448e-94
-3.34429e-97
-5.27164e-100
-7.08271e-103
-7.91207e-106
-7.14597e-109
-4.87139e-112
-2.22997e-115
-5.16496e-119
-5.87932e-72
-3.23071e-74
-1.53559e-76
-6.81181e-79
-2.62767e-81
-9.22758e-84
-2.92527e-86
-8.2813e-89
-2.12844e-91
-4.88607e-94
-9.85267e-97
-1.77439e-99
-2.7717e-102
-3.68414e-105
-4.06782e-108
-3.62801e-111
-2.43875e-114
-1.09979e-117
-2.5073e-121
-2.42254e-74
-1.42064e-76
-7.1185e-79
-3.27375e-81
-1.29855e-83
-4.64992e-86
-1.49402e-88
-4.26082e-91
-1.1004e-93
-2.52608e-96
-5.08146e-99
-9.11077e-102
-1.41316e-104
-1.86154e-107
-2.03457e-110
-1.79399e-113
-1.19023e-116
-5.2914e-120
-1.18792e-123
-9.1791e-77
-5.8019e-79
-3.08857e-81
-1.48241e-83
-6.07977e-86
-2.23075e-88
-7.29449e-91
-2.10354e-93
-5.47596e-96
-1.2606e-98
-2.5359e-101
-4.53597e-104
-6.99897e-107
-9.15141e-110
-9.91375e-113
-8.65116e-116
-5.66977e-119
-2.4864e-122
-5.49901e-126
-3.22364e-79
-2.21607e-81
-1.26194e-83
-6.35889e-86
-2.70974e-88
-1.02314e-90
-3.41747e-93
-9.99788e-96
-2.63062e-98
-6.08812e-101
-1.22741e-103
-2.19431e-106
-3.37362e-109
-4.38461e-112
-4.71353e-115
-4.07453e-118
-2.63988e-121
-1.14265e-124
-2.49052e-128
-1.0595e-81
-7.98251e-84
-4.89078e-86
-2.60042e-88
-1.15613e-90
-4.50858e-93
-1.54306e-95
-4.5925e-98
-1.22419e-100
-2.85432e-103
-5.77788e-106
-1.03399e-108
-1.58617e-111
-2.05154e-114
-2.19077e-117
-1.87741e-120
-1.20327e-123
-5.14314e-127
-1.10514e-130
-3.2909e-84
-2.73456e-86
-1.81111e-88
-1.0203e-90
-4.74853e-93
-1.91827e-95
-6.744e-98
-2.04667e-100
-5.53755e-103
-1.30305e-105
-2.65247e-108
-4.75778e-111
-7.29072e-114
-9.3937e-117
-9.97322e-120
-8.47865e-123
-5.37881e-126
-2.27139e-129
-4.8132e-133
-9.76922e-87
-8.99461e-89
-6.46161e-91
-3.86877e-93
-1.88947e-95
-7.92448e-98
-2.8672e-100
-8.888e-103
-2.44431e-105
-5.81253e-108
-1.19119e-110
-2.14372e-113
-3.28442e-116
-4.21895e-119
-4.45641e-122
-3.76048e-125
-2.36252e-128
-9.86041e-132
-2.06119e-135
-2.79489e-89
-2.85874e-91
-2.23173e-93
-1.42265e-95
-7.30165e-98
-3.18357e-100
-1.18681e-102
-3.76208e-105
-1.05256e-107
-2.5317e-110
-5.22765e-113
-9.44534e-116
-1.44781e-118
-1.8552e-121
-1.95065e-124
-1.6345e-127
-1.01732e-130
-4.19793e-134
-8.65879e-138
)
;

boundaryField
{
    leftWall
    {
        type            calculated;
        value           nonuniform List<scalar> 
50
(
-29.4294
-88.2881
-147.147
-206.006
-264.864
-323.723
-382.582
-441.44
-533.467
-658.662
-783.856
-909.051
-1034.25
-1159.44
-1284.63
-1409.83
-1535.02
-1660.22
-1785.41
-1910.61
-2035.8
-2161
-2286.19
-2408.39
-2067.4
-377.009
-1.66287e-35
-8.87081e-17
-1.7504e-16
-3.60945e-26
-2.25403e-27
-1.82513e-34
-6.5342e-38
-1.50608e-42
-1.04342e-45
-1.37363e-50
-5.25793e-57
-7.27166e-62
-7.03763e-73
-2.03323e-77
-6.00189e-86
-1.08161e-90
-6.16101e-96
-1.13235e-104
-3.51201e-110
-8.61413e-116
-1.95424e-122
-1.06344e-130
-7.14078e-140
-7.15742e-152
)
;
    }
    rightWall
    {
        type            calculated;
        value           nonuniform List<scalar> 
50
(
-4.67642e-76
-3.41592e-73
-1.45329e-70
-3.16876e-68
-5.13669e-66
-5.14073e-64
-4.61097e-62
-2.365e-60
-8.89262e-59
-1.51425e-58
-3.16167e-59
-2.91331e-60
-2.13685e-61
-1.24478e-62
-5.82045e-64
-2.18054e-65
-6.71007e-67
-1.70538e-68
-3.65458e-70
-6.65628e-72
-1.0477e-73
-1.43629e-75
-1.73838e-77
-1.87069e-79
-1.81012e-81
-1.58497e-83
-1.26766e-85
-9.31772e-88
-6.3374e-90
-4.18115e-92
-2.71363e-94
-1.72914e-96
-1.07971e-98
-6.59528e-101
-3.93524e-103
-2.29101e-105
-1.30024e-107
-7.18959e-110
-3.87193e-112
-2.03077e-114
-1.03748e-116
-5.16496e-119
-2.5073e-121
-1.18792e-123
-5.49901e-126
-2.49052e-128