/*--------------------------------*- C++ -*----------------------------------*\
| =========                 |                                                 |
| \\      /  F ield         | OpenFOAM: The Open Source CFD Toolbox           |
|  \\    /   O peration     | Version:  2012                                  |
|   \\  /    A nd           | Website:  www.openfoam.com                      |
|    \\/     M anipulation  |                                                 |
\*---------------------------------------------------------------------------*/
FoamFile
{
    version     2.0;
    format      ascii;
    class       volVectorField;
    location    "0.08";
    object      U;
}
// * * * * * * * * * * * * * * * * * * * * * * * * * * * * * * * * * * * * * //

dimensions      [0 1 -1 0 0 0 0];


internalField   nonuniform List<vector> 
2268
(
(0.0268992 -0.0124635 0)
(0.0786246 -0.0125744 0)
(0.133211 -0.0128917 0)
(0.187893 -0.0132626 0)
(0.245263 -0.0138972 0)
(0.305736 -0.0146465 0)
(0.368967 -0.0156393 0)
(0.43843 -0.0169748 0)
(0.512271 -0.0184848 0)
(0.595275 -0.0206514 0)
(0.686849 -0.0225278 0)
(0.787149 -0.0267288 0)
(0.912737 -0.0340796 0)
(1.06914 -0.0412807 0)
(1.24613 -0.0330164 0)
(1.34762 -0.0173549 0)
(1.40918 -0.0134828 0)
(1.47153 -0.0181966 0)
(1.54023 -0.0138136 0)
(1.54693 0.0444096 0)
(1.12216 0.128346 0)
(0.605633 0.11279 0)
(0.18925 0.0867106 0)
(0.0268473 -0.0373873 0)
(0.078424 -0.0377191 0)
(0.132894 -0.038673 0)
(0.187415 -0.039782 0)
(0.244623 -0.0416913 0)
(0.304909 -0.0439354 0)
(0.367903 -0.0469227 0)
(0.437098 -0.0509359 0)
(0.510626 -0.0554071 0)
(0.592987 -0.0621246 0)
(0.684768 -0.0679084 0)
(0.785069 -0.0801169 0)
(0.908438 -0.0992129 0)
(1.05737 -0.116607 0)
(1.21306 -0.0986206 0)
(1.3294 -0.0599067 0)
(1.42478 -0.0455904 0)
(1.51083 -0.0493253 0)
(1.56903 -0.0123658 0)
(1.47211 0.148584 0)
(1.01793 0.31363 0)
(0.588154 0.328705 0)
(0.185836 0.289753 0)
(0.0267446 -0.0621939 0)
(0.0780206 -0.0627423 0)
(0.13226 -0.064323 0)
(0.186451 -0.0661547 0)
(0.243341 -0.0693185 0)
(0.303239 -0.0730272 0)
(0.365771 -0.0779593 0)
(0.434355 -0.0846083 0)
(0.507347 -0.0919184 0)
(0.588398 -0.103212 0)
(0.679932 -0.113053 0)
(0.779487 -0.132515 0)
(0.899548 -0.16269 0)
(1.04322 -0.185375 0)
(1.18129 -0.161526 0)
(1.30598 -0.117592 0)
(1.43204 -0.100251 0)
(1.54337 -0.0874569 0)
(1.57251 0.0038946 0)
(1.30059 0.312147 0)
(0.840703 0.532185 0)
(0.503818 0.503632 0)
(0.163644 0.450723 0)
(0.0265927 -0.0868803 0)
(0.0774239 -0.0876391 0)
(0.131325 -0.0898402 0)
(0.185027 -0.0923724 0)
(0.24146 -0.0967792 0)
(0.300771 -0.101921 0)
(0.362669 -0.108738 0)
(0.430284 -0.118036 0)
(0.502578 -0.127982 0)
(0.581747 -0.143953 0)
(0.672352 -0.158006 0)
(0.770431 -0.184016 0)
(0.886398 -0.223928 0)
(1.02345 -0.250136 0)
(1.15181 -0.223111 0)
(1.28201 -0.179962 0)
(1.42684 -0.159404 0)
(1.55939 -0.111794 0)
(1.479 0.108801 0)
(1.04258 0.500752 0)
(0.67471 0.695133 0)
(0.432901 0.654301 0)
(0.141546 0.607585 0)
(0.0263925 -0.111329 0)
(0.0766253 -0.11229 0)
(0.130084 -0.115092 0)
(0.183116 -0.118297 0)
(0.238961 -0.123904 0)
(0.29744 -0.130433 0)
(0.358537 -0.139006 0)
(0.424764 -0.150908 0)
(0.496138 -0.163261 0)
(0.572903 -0.183668 0)
(0.661605 -0.201973 0)
(0.757252 -0.233739 0)
(0.868436 -0.28216 0)
(0.996307 -0.311085 0)
(1.11881 -0.284271 0)
(1.25487 -0.250724 0)
(1.41162 -0.23005 0)
(1.53239 -0.106977 0)
(1.27455 0.248762 0)
(0.825332 0.68369 0)
(0.594758 0.809719 0)
(0.408592 0.753735 0)
(0.148712 0.720017 0)
(0.0261472 -0.135549 0)
(0.0756473 -0.136703 0)
(0.128573 -0.140087 0)
(0.180774 -0.143931 0)
(0.23594 -0.150696 0)
(0.293358 -0.15857 0)
(0.353565 -0.168758 0)
(0.418073 -0.183262 0)
(0.488313 -0.19779 0)
(0.56239 -0.222393 0)
(0.648317 -0.244958 0)
(0.740692 -0.281915 0)
(0.84701 -0.336934 0)
(0.962556 -0.369181 0)
(1.08151 -0.346105 0)
(1.22603 -0.323113 0)
(1.38477 -0.285065 0)
(1.42931 -0.0385048 0)
(1.01034 0.435085 0)
(0.637686 0.830449 0)
(0.506895 0.894261 0)
(0.357892 0.872106 0)
(0.124981 0.874623 0)
(0.0258552 -0.159409 0)
(0.0744609 -0.160749 0)
(0.126755 -0.16468 0)
(0.177924 -0.169139 0)
(0.232304 -0.17698 0)
(0.288368 -0.186153 0)
(0.347515 -0.197776 0)
(0.409931 -0.214753 0)
(0.478532 -0.231251 0)
(0.549642 -0.259439 0)
(0.631839 -0.285998 0)
(0.719798 -0.32769 0)
(0.821818 -0.386879 0)
(0.922005 -0.422601 0)
(1.03838 -0.412408 0)
(1.19382 -0.398492 0)
(1.35986 -0.309304 0)
(1.22787 0.0763578 0)
(0.780456 0.612233 0)
(0.54567 0.916364 0)
(0.487796 0.934566 0)
(0.377738 0.927221 0)
(0.149977 0.939171 0)
(0.0255148 -0.182936 0)
(0.0730972 -0.184449 0)
(0.124667 -0.188892 0)
(0.174648 -0.193924 0)
(0.228177 -0.202762 0)
(0.282657 -0.213158 0)
(0.340692 -0.226048 0)
(0.400865 -0.24535 0)
(0.467571 -0.263646 0)
(0.5359 -0.295012 0)
(0.614199 -0.325272 0)
(0.697443 -0.371788 0)
(0.793624 -0.432849 0)
(0.879881 -0.472928 0)
(0.990482 -0.480553 0)
(1.12703 -0.469809 0)
(1.27145 -0.293055 0)
(0.959985 0.225554 0)
(0.566388 0.762074 0)
(0.464126 0.973007 0)
(0.448806 0.977919 0)
(0.379891 1.04729 0)
(0.155945 1.1435 0)
(-0.00242606 0.00192106 0)
(0.0568146 -0.00774558 0)
(0.0915589 -0.0023951 0)
(0.11263 -0.00316852 0)
(0.130363 -0.000251185 0)
(0.128764 0.00034703 0)
(0.131791 0.00137193 0)
(0.121633 0.00174808 0)
(0.116798 0.00211942 0)
(0.104158 0.00229171 0)
(0.095636 0.00237927 0)
(0.0828643 0.00242512 0)
(0.0728689 0.00242518 0)
(0.0605745 0.00241998 0)
(0.0500811 0.00239666 0)
(0.0383041 0.00237746 0)
(0.0276911 0.00235634 0)
(0.0162699 0.00234314 0)
(0.00564867 0.00233515 0)
(-0.00625532 -0.0248069 0)
(0.0548314 -0.0327468 0)
(0.0931902 -0.0206623 0)
(0.113413 -0.0139216 0)
(0.131721 -0.00596038 0)
(0.129488 -0.00149212 0)
(0.132466 0.00215219 0)
(0.121937 0.00424267 0)
(0.117015 0.00562774 0)
(0.104266 0.0064673 0)
(0.0956907 0.00686714 0)
(0.0828816 0.00711299 0)
(0.0728649 0.00716876 0)
(0.0605608 0.00718737 0)
(0.0500637 0.00714115 0)
(0.0382879 0.00710036 0)
(0.0276776 0.00704823 0)
(0.0162616 0.00701543 0)
(0.00564553 0.00699474 0)
(-0.00612097 -0.0183758 0)
(0.0587632 -0.0508887 0)
(0.0993289 -0.0268016 0)
(0.11904 -0.0204363 0)
(0.135614 -0.00652506 0)
(0.132386 -0.000612981 0)
(0.134252 0.00505745 0)
(0.123128 0.0079062 0)
(0.117692 0.00995283 0)
(0.104674 0.0111196 0)
(0.0959056 0.0116698 0)
(0.0829891 0.0119926 0)
(0.0729032 0.0120364 0)
(0.0605624 0.0120361 0)
(0.0500444 0.0119378 0)
(0.0382632 0.0118553 0)
(0.0276542 0.0117588 0)
(0.0162463 0.0116984 0)
(0.00563964 0.0116612 0)
(-0.0188461 -0.0469756 0)
(0.0516917 -0.0778471 0)
(0.104083 -0.0453373 0)
(0.122019 -0.0296223 0)
(0.140137 -0.0108737 0)
(0.134407 -0.00133378 0)
(0.136133 0.00661217 0)
(0.124039 0.0109315 0)
(0.118311 0.0137881 0)
(0.104977 0.0154959 0)
(0.0960514 0.0162735 0)
(0.0830284 0.0167486 0)
(0.0728832 0.0168162 0)
(0.0605156 0.0168225 0)
(0.0499871 0.0166885 0)
(0.0382107 0.0165767 0)
(0.0276109 0.0164439 0)
(0.0162198 0.016361 0)
(0.00562966 0.0163097 0)
(-0.0184205 -0.0318719 0)
(0.063143 -0.104657 0)
(0.116465 -0.0565019 0)
(0.133508 -0.0370755 0)
(0.147811 -0.0113754 0)
(0.139728 0.000307295 0)
(0.139525 0.00989482 0)
(0.126183 0.015041 0)
(0.119553 0.0183663 0)
(0.105715 0.0203445 0)
(0.0964316 0.0212011 0)
(0.0832113 0.0217097 0)
(0.0729373 0.0217317 0)
(0.0605051 0.021696 0)
(0.0499414 0.0214944 0)
(0.0381583 0.0213311 0)
(0.027563 0.0211475 0)
(0.0161891 0.0210334 0)
(0.00561782 0.0209637 0)
(-0.0417789 -0.0654294 0)
(0.0510566 -0.134902 0)
(0.128622 -0.07368 0)
(0.140163 -0.0427442 0)
(0.15601 -0.0125137 0)
(0.143512 0.00193649 0)
(0.142521 0.0129557 0)
(0.127689 0.0191269 0)
(0.120487 0.0228134 0)
(0.106153 0.0251069 0)
(0.0966173 0.026025 0)
(0.0832378 0.0265952 0)
(0.0728771 0.0265786 0)
(0.0604087 0.0265149 0)
(0.0498323 0.0262533 0)
(0.0380612 0.0260468 0)
(0.0274844 0.0258175 0)
(0.0161412 0.0256761 0)
(0.00559999 0.0255898 0)
(0.0136635 -0.0358859 0)
(0.0896926 -0.180382 0)
(0.152961 -0.0947943 0)
(0.157807 -0.0506938 0)
(0.166927 -0.0126321 0)
(0.150709 0.00504685 0)
(0.146833 0.0169497 0)
(0.130419 0.0239144 0)
(0.122035 0.0277972 0)
(0.107064 0.0302442 0)
(0.0970636 0.031134 0)
(0.0834364 0.0316703 0)
(0.0729086 0.0315603 0)
(0.0603629 0.0314213 0)
(0.049745 0.0310698 0)
(0.0379718 0.030797 0)
(0.027406 0.030507 0)
(0.016092 0.0303286 0)
(0.00558119 0.0302213 0)
(0.180212 -0.106388 0)
(0.138544 -0.192343 0)
(0.201946 -0.0998493 0)
(0.172895 -0.0478066 0)
(0.178987 -0.00806543 0)
(0.156491 0.0104685 0)
(0.150623 0.0222934 0)
(0.132342 0.0294662 0)
(0.123105 0.0330982 0)
(0.107527 0.0355367 0)
(0.0972091 0.0362603 0)
(0.083396 0.0367326 0)
(0.0727706 0.0364966 0)
(0.0601913 0.0362807 0)
(0.049567 0.035835 0)
(0.037819 0.0354997 0)
(0.0272852 0.0351513 0)
(0.016019 0.034939 0)
(0.00555429 0.0348119 0)
(0.0249505 -0.219 0)
(0.0707961 -0.220778 0)
(0.121188 -0.225945 0)
(0.169136 -0.231868 0)
(0.22134 -0.242075 0)
(0.27313 -0.254342 0)
(0.329342 -0.26897 0)
(0.386068 -0.291562 0)
(0.449251 -0.31257 0)
(0.513537 -0.347968 0)
(0.584805 -0.383098 0)
(0.660872 -0.435296 0)
(0.74394 -0.496239 0)
(0.814989 -0.542107 0)
(0.913961 -0.563881 0)
(1.00973 -0.549112 0)
(1.09907 -0.186983 0)
(0.615826 0.503749 0)
(0.450174 0.885344 0)
(0.448028 0.964928 0)
(0.529067 0.958039 0)
(0.56132 1.04223 0)
(0.77244 1.16235 0)
(0.0240004 -0.266112 0)
(0.0668975 -0.268218 0)
(0.115315 -0.27415 0)
(0.159835 -0.281171 0)
(0.209778 -0.292796 0)
(0.257216 -0.307166 0)
(0.310118 -0.323754 0)
(0.361714 -0.349475 0)
(0.418572 -0.373875 0)
(0.47709 -0.412253 0)
(0.536731 -0.452529 0)
(0.604273 -0.508402 0)
(0.666708 -0.5669 0)
(0.727316 -0.623643 0)
(0.805931 -0.650201 0)
(0.866925 -0.607059 0)
(0.716086 0.0756331 0)
(0.350219 0.772325 0)
(0.365099 0.88656 0)
(0.396942 0.904924 0)
(0.490445 0.873754 0)
(0.53802 0.848374 0)
(0.782151 0.863706 0)
(0.0229082 -0.310336 0)
(0.0625334 -0.312735 0)
(0.1087 -0.31916 0)
(0.149444 -0.327128 0)
(0.19684 -0.339659 0)
(0.239579 -0.355578 0)
(0.288901 -0.373668 0)
(0.334946 -0.400973 0)
(0.385501 -0.428207 0)
(0.437405 -0.467064 0)
(0.486171 -0.510817 0)
(0.545015 -0.565576 0)
(0.587119 -0.62364 0)
(0.64291 -0.684527 0)
(0.684426 -0.695247 0)
(0.723654 -0.479285 0)
(0.355355 0.348668 0)
(0.269201 0.837032 0)
(0.310491 0.839902 0)
(0.365043 0.836162 0)
(0.453074 0.805174 0)
(0.508738 0.7401 0)
(0.672433 0.746541 0)
(0.0216875 -0.351939 0)
(0.0578227 -0.354594 0)
(0.101489 -0.361283 0)
(0.138264 -0.370042 0)
(0.182884 -0.38305 0)
(0.220783 -0.400075 0)
(0.266531 -0.419153 0)
(0.30669 -0.447089 0)
(0.351913 -0.476169 0)
(0.396117 -0.514251 0)
(0.437054 -0.559667 0)
(0.485508 -0.610798 0)
(0.51487 -0.668828 0)
(0.561251 -0.720805 0)
(0.574343 -0.722423 0)
(0.602496 -0.282431 0)
(0.180133 0.542928 0)
(0.248148 0.812376 0)
(0.263235 0.791708 0)
(0.320564 0.765882 0)
(0.393122 0.728856 0)
(0.432226 0.640669 0)
(0.525968 0.605929 0)
(0.020337 -0.390207 0)
(0.0528607 -0.393077 0)
(0.093782 -0.399815 0)
(0.126508 -0.409203 0)
(0.168174 -0.422285 0)
(0.201195 -0.440054 0)
(0.24349 -0.459521 0)
(0.277504 -0.487465 0)
(0.318425 -0.517181 0)
(0.35422 -0.5539 0)
(0.390044 -0.599052 0)
(0.427114 -0.646019 0)
(0.449975 -0.70218 0)
(0.484188 -0.740366 0)
(0.489919 -0.740332 0)
(0.48931 -0.0689935 0)
(0.105277 0.694124 0)
(0.229534 0.756695 0)
(0.226526 0.76062 0)
(0.284497 0.709126 0)
(0.341482 0.685395 0)
(0.371155 0.60746 0)
(0.425653 0.568392 0)
(0.0189066 -0.425494 0)
(0.0478822 -0.42854 0)
(0.0858995 -0.435165 0)
(0.114691 -0.445038 0)
(0.153276 -0.457872 0)
(0.181622 -0.476122 0)
(0.220524 -0.495404 0)
(0.248624 -0.52307 0)
(0.285915 -0.552315 0)
(0.313564 -0.587605 0)
(0.346114 -0.631029 0)
(0.372049 -0.674083 0)
(0.392598 -0.727141 0)
(0.414342 -0.752581 0)
(0.423482 -0.742655 0)
(0.338316 0.131504 0)
(0.0824766 0.783741 0)
(0.192155 0.703114 0)
(0.192689 0.73001 0)
(0.238947 0.657587 0)
(0.283358 0.638865 0)
(0.30749 0.562432 0)
(0.3444 0.515052 0)
(0.0173633 -0.45729 0)
(0.042822 -0.460466 0)
(0.0777306 -0.466842 0)
(0.102715 -0.477043 0)
(0.138089 -0.489372 0)
(0.162054 -0.50787 0)
(0.19761 -0.526516 0)
(0.220302 -0.553712 0)
(0.254313 -0.581647 0)
(0.274764 -0.615614 0)
(0.304814 -0.656101 0)
(0.321054 -0.696053 0)
(0.341195 -0.744553 0)
(0.351506 -0.759865 0)
(0.365756 -0.694479 0)
(0.144192 0.313997 0)
(0.0852819 0.806835 0)
(0.135029 0.662497 0)
(0.169058 0.701973 0)
(0.195873 0.622979 0)
(0.240219 0.611238 0)
(0.256788 0.546354 0)
(0.287026 0.505795 0)
(0.0157981 -0.486012 0)
(0.0379823 -0.48929 0)
(0.0697264 -0.495357 0)
(0.0911849 -0.505787 0)
(0.123289 -0.517485 0)
(0.143256 -0.536071 0)
(0.175459 -0.553799 0)
(0.193317 -0.580406 0)
(0.224189 -0.606515 0)
(0.238495 -0.639277 0)
(0.266418 -0.676172 0)
(0.274697 -0.713826 0)
(0.295187 -0.756743 0)
(0.296305 -0.765041 0)
(0.307551 -0.568848 0)
(-0.0219649 0.452887 0)
(0.0960966 0.766421 0)
(0.0756889 0.632883 0)
(0.14837 0.66219 0)
(0.148917 0.591138 0)
(0.198098 0.576481 0)
(0.204728 0.518174 0)
(0.235912 0.477845 0)
(0.0141226 -0.511303 0)
(0.033103 -0.514627 0)
(0.0614903 -0.520296 0)
(0.0796161 -0.530804 0)
(0.108336 -0.541727 0)
(0.124738 -0.560221 0)
(0.153552 -0.576813 0)
(0.167298 -0.60274 0)
(0.195142 -0.626789 0)
(0.204513 -0.658538 0)
(0.230463 -0.691606 0)
(0.232587 -0.727734 0)
(0.25348 -0.764579 0)
(0.247985 -0.767163 0)
(0.251733 -0.385148 0)
(-0.104729 0.54161 0)
(0.102506 0.697562 0)
(0.0321999 0.61492 0)
(0.127943 0.625628 0)
(0.111093 0.572876 0)
(0.163159 0.554342 0)
(0.163773 0.506718 0)
(0.192419 0.470967 0)
(0.012498 -0.53355 0)
(0.0286223 -0.536924 0)
(0.053728 -0.542245 0)
(0.0688637 -0.552814 0)
(0.094219 -0.563064 0)
(0.107456 -0.581389 0)
(0.132755 -0.596842 0)
(0.142989 -0.622107 0)
(0.167663 -0.644067 0)
(0.173054 -0.674895 0)
(0.196883 -0.704129 0)
(0.194421 -0.73914 0)
(0.215696 -0.769469 0)
(0.205933 -0.767225 0)
(0.204588 -0.203868 0)
(-0.131476 0.597708 0)
(0.099003 0.630443 0)
(-0.00115794 0.605671 0)
(0.107305 0.585314 0)
(0.0742224 0.554413 0)
(0.130505 0.525758 0)
(0.123431 0.48845 0)
(0.153313 0.452165 0)
(0.0107571 -0.55258 0)
(0.0240703 -0.555928 0)
(0.0456941 -0.560784 0)
(0.0580215 -0.571236 0)
(0.0799016 -0.58067 0)
(0.0903246 -0.598561 0)
(0.112151 -0.612757 0)
(0.119564 -0.637389 0)
(0.141185 -0.657219 0)
(0.143626 -0.687569 0)
(0.165405 -0.713186 0)
(0.159765 -0.748207 0)
(0.18076 -0.772547 0)
(0.170049 -0.765942 0)
(0.162025 -0.0266797 0)
(-0.132843 0.628902 0)
(0.0817078 0.578034 0)
(-0.0226992 0.598047 0)
(0.0805268 0.556079 0)
(0.0467826 0.544299 0)
(0.0978737 0.50793 0)
(0.091709 0.480507 0)
(0.117032 0.444416 0)
(0.00912654 -0.568699 0)
(0.0200515 -0.572075 0)
(0.0383956 -0.576654 0)
(0.0483687 -0.587111 0)
(0.0668578 -0.595991 0)
(0.0749334 -0.613605 0)
(0.0933322 -0.626836 0)
(0.0984163 -0.651014 0)
(0.116817 -0.668934 0)
(0.116815 -0.698876 0)
(0.136 -0.721051 0)
(0.127542 -0.75562 0)
(0.147414 -0.775308 0)
(0.139053 -0.762751 0)
(0.115585 0.12781 0)
(-0.120136 0.65193 0)
(0.0573504 0.536965 0)
(-0.033713 0.594697 0)
(0.053496 0.524178 0)
(0.0223652 0.531248 0)
(0.0671566 0.485058 0)
(0.0611114 0.467082 0)
(0.0843131 0.429567 0)
(0.00737338 -0.581749 0)
(0.0158838 -0.58506 0)
(0.0307358 -0.589196 0)
(0.0384537 -0.599375 0)
(0.0534399 -0.60743 0)
(0.0595296 -0.624512 0)
(0.0745229 -0.636504 0)
(0.0779096 -0.660191 0)
(0.0930866 -0.675955 0)
(0.0916094 -0.705941 0)
(0.107835 -0.724491 0)
(0.0973425 -0.76024 0)
(0.114235 -0.779007 0)
(0.111899 -0.74956 0)
(0.0568761 0.263442 0)
(-0.0997899 0.661254 0)
(0.0176276 0.510322 0)
(-0.0403459 0.589093 0)
(0.0192303 0.509238 0)
(0.00268273 0.523826 0)
(0.0341052 0.473302 0)
(0.0355551 0.45984 0)
(0.0519046 0.422007 0)
(0.00579945 -0.592444 0)
(0.0123634 -0.595804 0)
(0.0240119 -0.599871 0)
(0.0299157 -0.610081 0)
(0.0415247 -0.617895 0)
(0.0460138 -0.634873 0)
(0.0574009 -0.646215 0)
(0.0594623 -0.669667 0)
(0.0707768 -0.68379 0)
(0.0685423 -0.713429 0)
(0.0801834 -0.728148 0)
(0.069127 -0.76241 0)
(0.0804053 -0.784781 0)
(0.077086 -0.723393 0)
(-0.0269927 0.363984 0)
(-0.0665174 0.665463 0)
(-0.021313 0.493092 0)
(-0.0385569 0.580294 0)
(-0.0127609 0.489249 0)
(-0.0144949 0.510174 0)
(0.00310304 0.456184 0)
(0.0105785 0.446962 0)
(0.0222785 0.409328 0)
(0.00402868 -0.599431 0)
(0.00851658 -0.602689 0)
(0.0165908 -0.606363 0)
(0.0204843 -0.616153 0)
(0.0284643 -0.62321 0)
(0.0313408 -0.639481 0)
(0.0392025 -0.649655 0)
(0.0404243 -0.672493 0)
(0.0485248 -0.684803 0)
(0.0469701 -0.714098 0)
(0.0559487 -0.725257 0)
(0.0483358 -0.76014 0)
(0.0560044 -0.783185 0)
(0.0296746 -0.651391 0)
(-0.129536 0.432454 0)
(-0.0289943 0.640083 0)
(-0.0681531 0.497439 0)
(-0.041337 0.571644 0)
(-0.049966 0.492822 0)
(-0.0327533 0.503158 0)
(-0.0296786 0.451429 0)
(-0.0130363 0.438272 0)
(-0.00768213 0.402007 0)
(0.00268541 -0.60609 0)
(0.00564744 -0.609365 0)
(0.0108717 -0.613025 0)
(0.0134083 -0.622877 0)
(0.0183804 -0.630033 0)
(0.0202689 -0.646503 0)
(0.0249586 -0.656707 0)
(0.0257276 -0.679848 0)
(0.030597 -0.691899 0)
(0.0301723 -0.721509 0)
(0.037278 -0.731244 0)
(0.0356169 -0.762679 0)
(0.0491675 -0.7643 0)
(-0.0185124 -0.540748 0)
(-0.0473723 0.417686 0)
(0.0038456 0.59802 0)
(-0.0773876 0.50699 0)
(-0.0509151 0.556827 0)
(-0.0818076 0.483209 0)
(-0.0552985 0.4865 0)
(-0.0614439 0.438333 0)
(-0.0378175 0.423784 0)
(-0.0358435 0.389635 0)
(0.00149262 -0.605908 0)
(0.00331501 -0.608935 0)
(0.00629312 -0.612278 0)
(0.00783172 -0.62157 0)
(0.0103074 -0.628156 0)
(0.0112636 -0.64371 0)
(0.013425 -0.652992 0)
(0.0139244 -0.675398 0)
(0.0170688 -0.68684 0)
(0.0186812 -0.717479 0)
(0.030879 -0.72817 0)
(0.0541361 -0.767361 0)
(0.167339 -0.727572 0)
(0.0405407 -0.562208 0)
(0.120406 0.4403 0)
(0.0639777 0.668329 0)
(-0.0911211 0.560964 0)
(-0.0612175 0.574388 0)
(-0.114684 0.500834 0)
(-0.0799976 0.481444 0)
(-0.0942934 0.435001 0)
(-0.0635106 0.411899 0)
(-0.0636949 0.380366 0)
(0.0010029 -0.611503 0)
(0.0024286 -0.614801 0)
(0.00424515 -0.618243 0)
(0.0055723 -0.627628 0)
(0.00722022 -0.634319 0)
(0.00809216 -0.650585 0)
(0.0095244 -0.660533 0)
(0.010346 -0.684844 0)
(0.0135277 -0.698323 0)
(0.0233035 -0.737143 0)
(0.0485699 -0.767117 0)
(0.0686424 -0.895799 0)
(0.212977 -0.734734 0)
(0.226879 -0.504283 0)
(0.0532181 0.352092 0)
(0.0491844 0.826352 0)
(-0.175423 0.614104 0)
(-0.112958 0.58461 0)
(-0.168526 0.497517 0)
(-0.120349 0.46693 0)
(-0.129682 0.420879 0)
(-0.0931627 0.393685 0)
(-0.0904865 0.364856 0)
(-0.00428065 -0.612327 0)
(-0.0191015 -0.61491 0)
(-0.0281956 -0.618071 0)
(-0.0460427 -0.627026 0)
(-0.0546469 -0.633213 0)
(-0.0785692 -0.648495 0)
(-0.0830374 -0.658039 0)
(-0.113354 -0.682405 0)
(-0.102131 -0.703967 0)
(-0.122047 -0.757458 0)
(-0.0648892 -0.812822 0)
(-0.00205633 -0.924936 0)
(0.0481122 -0.931869 0)
(0.235036 -0.393029 0)
(-0.397346 0.62209 0)
(-0.141299 0.90882 0)
(-0.32523 0.722723 0)
(-0.186762 0.571296 0)
(-0.235747 0.507512 0)
(-0.161047 0.443623 0)
(-0.166494 0.406952 0)
(-0.120329 0.373122 0)
(-0.114611 0.34923 0)
(-0.0146152 -0.586384 0)
(-0.0430483 -0.589148 0)
(-0.0706409 -0.591131 0)
(-0.101791 -0.598965 0)
(-0.131875 -0.602654 0)
(-0.16839 -0.618792 0)
(-0.203915 -0.626237 0)
(-0.246762 -0.660711 0)
(-0.292737 -0.684934 0)
(-0.342313 -0.768278 0)
(-0.418996 -0.850887 0)
(-0.4963 -0.993673 0)
(-0.716391 -0.909956 0)
(-0.91825 -0.0484248 0)
(-0.918505 0.696274 0)
(-0.607736 0.777958 0)
(-0.47509 0.643485 0)
(-0.339414 0.504964 0)
(-0.295776 0.465853 0)
(-0.224076 0.400827 0)
(-0.200937 0.377859 0)
(-0.155103 0.343047 0)
(-0.138871 0.326882 0)
(-0.0137858 -0.55359 0)
(-0.0435739 -0.556777 0)
(-0.0727164 -0.557978 0)
(-0.105188 -0.563111 0)
(-0.137207 -0.565345 0)
(-0.175123 -0.574306 0)
(-0.213703 -0.578834 0)
(-0.262 -0.594605 0)
(-0.320864 -0.60833 0)
(-0.398768 -0.639202 0)
(-0.530974 -0.669215 0)
(-0.703323 -0.655767 0)
(-1.02489 -0.532112 0)
(-1.19763 -0.17621 0)
(-0.975889 0.319422 0)
(-0.692245 0.464607 0)
(-0.498318 0.454498 0)
(-0.38666 0.393787 0)
(-0.308735 0.390787 0)
(-0.248615 0.349717 0)
(-0.211311 0.336871 0)
(-0.171556 0.311712 0)
(-0.149617 0.30018 0)
(-0.014197 -0.5297 0)
(-0.0438302 -0.530619 0)
(-0.0743411 -0.53087 0)
(-0.106725 -0.534356 0)
(-0.140301 -0.53445 0)
(-0.178554 -0.541187 0)
(-0.218575 -0.540508 0)
(-0.268125 -0.5511 0)
(-0.323265 -0.546419 0)
(-0.398843 -0.554387 0)
(-0.49762 -0.536201 0)
(-0.636834 -0.497625 0)
(-0.786794 -0.40484 0)
(-0.895175 -0.0953672 0)
(-0.827825 0.172029 0)
(-0.637119 0.292299 0)
(-0.511828 0.333394 0)
(-0.409089 0.315287 0)
(-0.340871 0.325324 0)
(-0.276593 0.303754 0)
(-0.23652 0.299154 0)
(-0.194328 0.2816 0)
(-0.168497 0.2742 0)
(-0.0153983 -0.494551 0)
(-0.0456158 -0.495139 0)
(-0.0774791 -0.494353 0)
(-0.110217 -0.495275 0)
(-0.146018 -0.493132 0)
(-0.184284 -0.494136 0)
(-0.228504 -0.489368 0)
(-0.276321 -0.488717 0)
(-0.337033 -0.478002 0)
(-0.398384 -0.465257 0)
(-0.488414 -0.43176 0)
(-0.563044 -0.368652 0)
(-0.675751 -0.275541 0)
(-0.728461 -0.128952 0)
(-0.666998 0.0539326 0)
(-0.569701 0.153047 0)
(-0.474698 0.22088 0)
(-0.393123 0.225797 0)
(-0.334258 0.255258 0)
(-0.276428 0.246867 0)
(-0.237155 0.253352 0)
(-0.197751 0.244486 0)
(-0.171241 0.24292 0)
(-0.0146944 -0.469234 0)
(-0.0433342 -0.468847 0)
(-0.073759 -0.467152 0)
(-0.104372 -0.465843 0)
(-0.13755 -0.461553 0)
(-0.172427 -0.45826 0)
(-0.211273 -0.449532 0)
(-0.253626 -0.441575 0)
(-0.303025 -0.424556 0)
(-0.356649 -0.401844 0)
(-0.419634 -0.369859 0)
(-0.480407 -0.309308 0)
(-0.533365 -0.23671 0)
(-0.568538 -0.102501 0)
(-0.54432 0.0136416 0)
(-0.493254 0.0995835 0)
(-0.429246 0.154684 0)
(-0.369295 0.175574 0)
(-0.323743 0.206339 0)
(-0.273096 0.207177 0)
(-0.239795 0.21878 0)
(-0.202452 0.215799 0)
(-0.17784 0.217772 0)
(-0.0151152 -0.435525 0)
(-0.043782 -0.434772 0)
(-0.0748925 -0.432495 0)
(-0.105179 -0.429812 0)
(-0.13912 -0.424435 0)
(-0.1724 -0.418439 0)
(-0.21115 -0.407842 0)
(-0.248112 -0.39498 0)
(-0.294088 -0.375004 0)
(-0.333773 -0.346926 0)
(-0.386458 -0.308387 0)
(-0.425182 -0.253591 0)
(-0.466641 -0.188606 0)
(-0.485129 -0.11556 0)
(-0.464521 -0.0249947 0)
(-0.433241 0.0399599 0)
(-0.383623 0.0936749 0)
(-0.342501 0.12221 0)
(-0.302022 0.156681 0)
(-0.261492 0.164214 0)
(-0.23097 0.181465 0)
(-0.198224 0.183287 0)
(-0.174632 0.189674 0)
(-0.0138597 -0.410766 0)
(-0.0400004 -0.409379 0)
(-0.0683594 -0.406369 0)
(-0.0956994 -0.40183 0)
(-0.126012 -0.395102 0)
(-0.155778 -0.386271 0)
(-0.189393 -0.374494 0)
(-0.222374 -0.358383 0)
(-0.259595 -0.339073 0)
(-0.29528 -0.309027 0)
(-0.331783 -0.277975 0)
(-0.363816 -0.228493 0)
(-0.384766 -0.176144 0)
(-0.399985 -0.104374 0)
(-0.39145 -0.0384526 0)
(-0.373062 0.0186354 0)
(-0.341381 0.0626029 0)
(-0.312184 0.0944861 0)
(-0.279815 0.123591 0)
(-0.247444 0.136623 0)
(-0.221484 0.154093 0)
(-0.192816 0.1596 0)
(-0.171863 0.167826 0)
(-0.0137251 -0.380821 0)
(-0.0393219 -0.379262 0)
(-0.0672496 -0.376044 0)
(-0.0935146 -0.370934 0)
(-0.122801 -0.363744 0)
(-0.15002 -0.353671 0)
(-0.181293 -0.340934 0)
(-0.209214 -0.32335 0)
(-0.24225 -0.302222 0)
(-0.269519 -0.273376 0)
(-0.299629 -0.240425 0)
(-0.322872 -0.19943 0)
(-0.341135 -0.153453 0)
(-0.350788 -0.107425 0)
(-0.343206 -0.0533042 0)
(-0.330305 -0.00902172 0)
(-0.305622 0.0313865 0)
(-0.28383 0.0617517 0)
(-0.2561 0.0905482 0)
(-0.231202 0.106876 0)
(-0.207579 0.125841 0)
(-0.183808 0.134313 0)
(-0.164352 0.144865 0)
(-0.0123285 -0.357937 0)
(-0.0353045 -0.356034 0)
(-0.0602941 -0.352451 0)
(-0.0838102 -0.346422 0)
(-0.109715 -0.338871 0)
(-0.134103 -0.327799 0)
(-0.160949 -0.315436 0)
(-0.18598 -0.297286 0)
(-0.21245 -0.278643 0)
(-0.236461 -0.251381 0)
(-0.258548 -0.224293 0)
(-0.277746 -0.186605 0)
(-0.288979 -0.148017 0)
(-0.296919 -0.10235 0)
(-0.294111 -0.0592371 0)
(-0.285813 -0.0191167 0)
(-0.270133 0.0154021 0)
(-0.253987 0.044968 0)
(-0.233101 0.0699402 0)
(-0.21339 0.0882549 0)
(-0.193563 0.105714 0)
(-0.173597 0.116413 0)
(-0.156515 0.127287 0)
(-0.0117484 -0.332598 0)
(-0.0335665 -0.330642 0)
(-0.0572198 -0.326993 0)
(-0.0791163 -0.320794 0)
(-0.103118 -0.313026 0)
(-0.124963 -0.301689 0)
(-0.149139 -0.28886 0)
(-0.170441 -0.271089 0)
(-0.193457 -0.251852 0)
(-0.212966 -0.22653 0)
(-0.231779 -0.19959 0)
(-0.246896 -0.168335 0)
(-0.257145 -0.134894 0)
(-0.26301 -0.10146 0)
(-0.260387 -0.0649857 0)
(-0.254447 -0.0323391 0)
(-0.241904 -0.0010471 0)
(-0.229002 0.0253215 0)
(-0.211672 0.0493064 0)
(-0.195883 0.0679016 0)
(-0.178466 0.0854783 0)
(-0.162076 0.0976772 0)
(-0.146557 0.109488 0)
(-0.0104402 -0.312624 0)
(-0.0298961 -0.310571 0)
(-0.0508567 -0.306883 0)
(-0.070385 -0.300521 0)
(-0.0914441 -0.292941 0)
(-0.110924 -0.281706 0)
(-0.131572 -0.269771 0)
(-0.150421 -0.252806 0)
(-0.169281 -0.235825 0)
(-0.186118 -0.212818 0)
(-0.200594 -0.190015 0)
(-0.212987 -0.160956 0)
(-0.220418 -0.131749 0)
(-0.225471 -0.0991396 0)
(-0.224809 -0.0679926 0)
(-0.220997 -0.0377678 0)
(-0.212662 -0.0104412 0)
(-0.20296 0.0145877 0)
(-0.19008 0.0362673 0)
(-0.177433 0.0549673 0)
(-0.16331 0.0713277 0)
(-0.149662 0.0844117 0)
(-0.136324 0.096031 0)
(-0.00961083 -0.291916 0)
(-0.0275479 -0.289874 0)
(-0.046734 -0.286173 0)
(-0.06448 -0.279869 0)
(-0.0834601 -0.272235 0)
(-0.100717 -0.261248 0)
(-0.118974 -0.249254 0)
(-0.13518 -0.233089 0)
(-0.151534 -0.216239 0)
(-0.165643 -0.194949 0)
(-0.178345 -0.173025 0)
(-0.188692 -0.14827 0)
(-0.195528 -0.122753 0)
(-0.199683 -0.096687 0)
(-0.199134 -0.0697221 0)
(-0.196318 -0.0441392 0)
(-0.189596 -0.0193425 0)
(-0.181814 0.00303105 0)
(-0.171144 0.0235045 0)
(-0.16073 0.0413894 0)
(-0.148629 0.0574499 0)
(-0.137246 0.0708774 0)
(-0.125449 0.0828162 0)
(-0.0084565 -0.275318 0)
(-0.0243186 -0.273326 0)
(-0.0411609 -0.269757 0)
(-0.0568441 -0.263676 0)
(-0.0733638 -0.256441 0)
(-0.0885616 -0.246043 0)
(-0.104166 -0.234976 0)
(-0.118291 -0.220047 0)
(-0.131895 -0.204983 0)
(-0.143954 -0.185755 0)
(-0.154045 -0.166588 0)
(-0.162544 -0.143523 0)
(-0.167933 -0.120564 0)
(-0.171576 -0.0954995 0)
(-0.171845 -0.0714097 0)
(-0.170118 -0.0474048 0)
(-0.165542 -0.0251442 0)
(-0.159598 -0.0040047 0)
(-0.151621 0.014903 0)
(-0.143244 0.0323102 0)
(-0.133586 0.0475351 0)
(-0.124134 0.0610821 0)
(-0.114234 0.0727999 0)
(-0.0075432 -0.258977 0)
(-0.0217571 -0.257028 0)
(-0.036726 -0.253484 0)
(-0.0506642 -0.247565 0)
(-0.0652074 -0.240396 0)
(-0.0785162 -0.230389 0)
(-0.0921008 -0.21949 0)
(-0.104265 -0.205345 0)
(-0.116038 -0.190667 0)
(-0.126292 -0.172815 0)
(-0.135238 -0.15466 0)
(-0.14256 -0.134391 0)
(-0.147523 -0.113943 0)
(-0.150694 -0.0926777 0)
(-0.151044 -0.0713285 0)
(-0.149798 -0.0503158 0)
(-0.146104 -0.0299884 0)
(-0.141366 -0.0107791 0)
(-0.13478 0.00702518 0)
(-0.127861 0.023442 0)
(-0.119708 0.0382278 0)
(-0.111778 0.0515761 0)
(-0.103219 0.0633342 0)
(-0.00654296 -0.245791 0)
(-0.0189275 -0.243945 0)
(-0.0318819 -0.240577 0)
(-0.0440004 -0.235008 0)
(-0.0564979 -0.228262 0)
(-0.0680137 -0.21895 0)
(-0.0795497 -0.208853 0)
(-0.0899817 -0.195881 0)
(-0.0997986 -0.182551 0)
(-0.108451 -0.166297 0)
(-0.115669 -0.149935 0)
(-0.121677 -0.131005 0)
(-0.125702 -0.112191 0)
(-0.128458 -0.091892 0)
(-0.129107 -0.0722493 0)
(-0.128421 -0.0523739 0)
(-0.125884 -0.0336363 0)
(-0.122292 -0.015419 0)
(-0.117304 0.00127415 0)
(-0.111788 0.0171204 0)
(-0.105319 0.0312994 0)
(-0.0987985 0.0444571 0)
(-0.0917464 0.056019 0)
(-0.00563156 -0.233474 0)
(-0.0163539 -0.231683 0)
(-0.027493 -0.228369 0)
(-0.0379575 -0.222984 0)
(-0.0486728 -0.216361 0)
(-0.0585581 -0.207417 0)
(-0.0684149 -0.197553 0)
(-0.0772987 -0.185219 0)
(-0.0857113 -0.17231 0)
(-0.0930771 -0.157098 0)
(-0.099426 -0.141621 0)
(-0.104646 -0.124494 0)
(-0.108313 -0.107335 0)
(-0.110764 -0.0893258 0)
(-0.111454 -0.0714789 0)
(-0.111028 -0.0535428 0)
(-0.109029 -0.0362006 0)
(-0.10619 -0.0193525 0)
(-0.102132 -0.0035492 0)
(-0.0976271 0.0114575 0)
(-0.0922577 0.0251819 0)
(-0.0868426 0.0379915 0)
(-0.0808897 0.0494617 0)
(-0.00476684 -0.223544 0)
(-0.0138706 -0.221846 0)
(-0.0232733 -0.218678 0)
(-0.0321217 -0.213606 0)
(-0.0411054 -0.20733 0)
(-0.0494118 -0.198984 0)
(-0.0575989 -0.189747 0)
(-0.0650048 -0.178347 0)
(-0.0718987 -0.166391 0)
(-0.0779519 -0.152333 0)
(-0.0830416 -0.13801 0)
(-0.0872607 -0.121904 0)
(-0.0902237 -0.105821 0)
(-0.0922916 -0.0886404 0)
(-0.0930335 -0.0718684 0)
(-0.092882 -0.0547813 0)
(-0.0915285 -0.0384541 0)
(-0.089427 -0.022359 0)
(-0.0863733 -0.00732548 0)
(-0.082859 0.00717109 0)
(-0.0786599 0.0204481 0)
(-0.0743089 0.0329928 0)
(-0.0695176 0.0442856 0)
(-0.00389549 -0.214899 0)
(-0.0113784 -0.213261 0)
(-0.0190778 -0.210167 0)
(-0.0263739 -0.205266 0)
(-0.0337574 -0.199125 0)
(-0.0406206 -0.191071 0)
(-0.0473763 -0.182043 0)
(-0.0535028 -0.1711 0)
(-0.059254 -0.159492 0)
(-0.0643057 -0.146154 0)
(-0.068664 -0.132474 0)
(-0.0722697 -0.11749 0)
(-0.0748961 -0.102447 0)
(-0.076731 -0.0866298 0)
(-0.0774735 -0.0709855 0)
(-0.0774702 -0.0551121 0)
(-0.0764701 -0.0397199 0)
(-0.0748672 -0.0245477 0)
(-0.0724658 -0.0101646 0)
(-0.0696849 0.00370956 0)
(-0.0663149 0.0165956 0)
(-0.0628139 0.0288145 0)
(-0.0589162 0.0399711 0)
(-0.00311868 -0.207995 0)
(-0.0091199 -0.206408 0)
(-0.0152696 -0.20339 0)
(-0.0210961 -0.198688 0)
(-0.0269561 -0.192774 0)
(-0.0324024 -0.185136 0)
(-0.0377228 -0.176539 0)
(-0.0425498 -0.166239 0)
(-0.0470338 -0.155256 0)
(-0.0509693 -0.142698 0)
(-0.054322 -0.129742 0)
(-0.057104 -0.115485 0)
(-0.0591441 -0.101135 0)
(-0.0606166 -0.0859524 0)
(-0.0612973 -0.0710003 0)
(-0.0614184 -0.0557453 0)
(-0.0608016 -0.041005 0)
(-0.0596987 -0.0263749 0)
(-0.0579878 -0.0125046 0)
(-0.055938 0.000979105 0)
(-0.053429 0.0135537 0)
(-0.0507623 0.0255358 0)
(-0.0477807 0.0365403 0)
(-0.00227853 -0.202803 0)
(-0.00669529 -0.201265 0)
(-0.0112426 -0.198316 0)
(-0.015599 -0.193745 0)
(-0.0199955 -0.187936 0)
(-0.0241215 -0.180484 0)
(-0.0281744 -0.172019 0)
(-0.0318893 -0.161983 0)
(-0.0353877 -0.151211 0)
(-0.0384927 -0.139063 0)
(-0.0412147 -0.126482 0)
(-0.0434971 -0.112838 0)
(-0.045231 -0.0990513 0)
(-0.0464966 -0.084596 0)
(-0.0471426 -0.0702619 0)
(-0.047343 -0.0556822 0)
(-0.0469638 -0.0414867 0)
(-0.0462085 -0.0274084 0)
(-0.0449736 -0.0139551 0)
(-0.0434806 -0.00088587 0)
(-0.0416334 0.0113957 0)
(-0.0396643 0.0231323 0)
(-0.0374334 0.0340112 0)
(-0.00156599 -0.198736 0)
(-0.00457814 -0.197175 0)
(-0.00763265 -0.194201 0)
(-0.0105241 -0.18969 0)