/*--------------------------------*- C++ -*----------------------------------*\
| =========                 |                                                 |
| \\      /  F ield         | OpenFOAM: The Open Source CFD Toolbox           |
|  \\    /   O peration     | Version:  2012                                  |
|   \\  /    A nd           | Website:  www.openfoam.com                      |
|    \\/     M anipulation  |                                                 |
\*---------------------------------------------------------------------------*/
FoamFile
{
    version     2.0;
    format      ascii;
    class       volVectorField;
    location    "0.08";
    object      Uc;
}
// * * * * * * * * * * * * * * * * * * * * * * * * * * * * * * * * * * * * * //

dimensions      [0 1 -1 0 0 0 0];


internalField   nonuniform List<vector> 
2268
(
(0.0263661 -0.0124605 0)
(0.0793326 -0.0125711 0)
(0.133206 -0.012889 0)
(0.188535 -0.013259 0)
(0.245992 -0.0138952 0)
(0.30638 -0.0146438 0)
(0.370459 -0.0156394 0)
(0.439476 -0.0169774 0)
(0.51449 -0.0184738 0)
(0.597376 -0.0206975 0)
(0.689026 -0.0226155 0)
(0.793424 -0.026722 0)
(0.920498 -0.0333324 0)
(1.07455 -0.0394716 0)
(1.22767 -0.0328906 0)
(1.33824 -0.019109 0)
(1.41027 -0.0146727 0)
(1.47709 -0.0168488 0)
(1.52689 -0.00658061 0)
(1.43585 0.0496567 0)
(1.098 0.110007 0)
(0.631841 0.110291 0)
(0.199231 0.0941527 0)
(0.0263029 -0.0373515 0)
(0.0791402 -0.0376823 0)
(0.132877 -0.0386338 0)
(0.188056 -0.0397392 0)
(0.245346 -0.041644 0)
(0.305541 -0.0438815 0)
(0.369387 -0.0468581 0)
(0.438131 -0.0508638 0)
(0.512761 -0.0553084 0)
(0.595296 -0.0620397 0)
(0.686887 -0.0678715 0)
(0.790784 -0.0799045 0)
(0.914887 -0.0988543 0)
(1.05934 -0.115019 0)
(1.20378 -0.0979664 0)
(1.32505 -0.0633459 0)
(1.42395 -0.050904 0)
(1.50628 -0.0508673 0)
(1.53161 -0.00779806 0)
(1.38078 0.165267 0)
(1.02344 0.322933 0)
(0.596767 0.319305 0)
(0.193933 0.279955 0)
(0.0261762 -0.0621528 0)
(0.0787544 -0.0626997 0)
(0.132218 -0.0642789 0)
(0.187095 -0.0661054 0)
(0.244046 -0.0692671 0)
(0.303851 -0.0729696 0)
(0.367216 -0.0778892 0)
(0.435404 -0.0845461 0)
(0.509286 -0.0918119 0)
(0.590964 -0.103142 0)
(0.681914 -0.113037 0)
(0.784551 -0.132346 0)
(0.9055 -0.162223 0)
(1.04212 -0.184482 0)
(1.17872 -0.16102 0)
(1.30793 -0.118339 0)
(1.4312 -0.100653 0)
(1.52493 -0.0838539 0)
(1.49702 0.0266945 0)
(1.25225 0.317777 0)
(0.871984 0.519003 0)
(0.504669 0.498464 0)
(0.167232 0.450636 0)
(0.0259887 -0.0868055 0)
(0.0781847 -0.0875625 0)
(0.131245 -0.0897589 0)
(0.185679 -0.0922847 0)
(0.242131 -0.0966816 0)
(0.30137 -0.101814 0)
(0.364028 -0.108602 0)
(0.431396 -0.117896 0)
(0.504218 -0.127794 0)
(0.584539 -0.143719 0)
(0.674177 -0.157803 0)
(0.774824 -0.18365 0)
(0.891698 -0.223312 0)
(1.02174 -0.249417 0)
(1.15349 -0.222603 0)
(1.28897 -0.181425 0)
(1.42907 -0.161482 0)
(1.50754 -0.103814 0)
(1.38807 0.116476 0)
(1.05896 0.499218 0)
(0.707494 0.68337 0)
(0.422295 0.642469 0)
(0.143891 0.597669 0)
(0.0257387 -0.111252 0)
(0.0774253 -0.112211 0)
(0.129947 -0.115008 0)
(0.183788 -0.118205 0)
(0.23957 -0.123802 0)
(0.298044 -0.130324 0)
(0.359747 -0.138865 0)
(0.425986 -0.150774 0)
(0.497403 -0.163081 0)
(0.575808 -0.183445 0)
(0.663274 -0.201776 0)
(0.761031 -0.233442 0)
(0.872579 -0.281471 0)
(0.995669 -0.310887 0)
(1.12428 -0.284165 0)
(1.2657 -0.250363 0)
(1.4085 -0.225441 0)
(1.43684 -0.0898203 0)
(1.22503 0.259107 0)
(0.880728 0.674841 0)
(0.607278 0.803078 0)
(0.391919 0.759322 0)
(0.139586 0.731638 0)
(0.0254324 -0.135435 0)
(0.0764974 -0.136587 0)
(0.12836 -0.139963 0)
(0.181484 -0.143801 0)
(0.236453 -0.150547 0)
(0.294003 -0.158412 0)
(0.354566 -0.168559 0)
(0.419433 -0.183039 0)
(0.489183 -0.197531 0)
(0.565258 -0.222001 0)
(0.649839 -0.244528 0)
(0.744032 -0.281405 0)
(0.849174 -0.335914 0)
(0.964472 -0.369104 0)
(1.09175 -0.346808 0)
(1.23806 -0.323033 0)
(1.3603 -0.277139 0)
(1.31024 -0.0275456 0)
(1.02162 0.433354 0)
(0.699798 0.815399 0)
(0.5042 0.884192 0)
(0.338707 0.858198 0)
(0.121118 0.854845 0)
(0.0250624 -0.159298 0)
(0.0753773 -0.160635 0)
(0.126442 -0.164558 0)
(0.178696 -0.169007 0)
(0.232674 -0.176829 0)
(0.289084 -0.185986 0)
(0.348256 -0.197572 0)
(0.411395 -0.214521 0)
(0.479065 -0.230993 0)
(0.552302 -0.259103 0)
(0.633178 -0.285619 0)
(0.723128 -0.327338 0)
(0.820913 -0.385882 0)
(0.927873 -0.4215 0)
(1.05567 -0.412104 0)
(1.20588 -0.397012 0)
(1.28705 -0.298478 0)
(1.14682 0.0838576 0)
(0.834682 0.605877 0)
(0.59157 0.909861 0)
(0.477066 0.936286 0)
(0.350388 0.944184 0)
(0.132459 0.974685 0)
(0.0246359 -0.182785 0)
(0.0740887 -0.184298 0)
(0.124237 -0.188728 0)
(0.175504 -0.19376 0)
(0.228363 -0.202567 0)
(0.283488 -0.212958 0)
(0.341149 -0.225814 0)
(0.402406 -0.245067 0)
(0.467874 -0.263367 0)
(0.538261 -0.294605 0)
(0.61533 -0.324761 0)
(0.700533 -0.370972 0)
(0.791272 -0.431343 0)
(0.888396 -0.469814 0)
(1.00552 -0.476387 0)
(1.1363 -0.46444 0)
(1.15752 -0.278797 0)
(0.939388 0.233584 0)
(0.641334 0.744531 0)
(0.488039 0.958551 0)
(0.437843 0.965437 0)
(0.343377 1.01955 0)
(0.134691 1.10094 0)
(0.0136035 -0.00578609 0)
(0.0511695 -0.0101924 0)
(0.0887854 -0.00580735 0)
(0.112559 -0.00430461 0)
(0.126354 -0.00156265 0)
(0.130709 -0.000288896 0)
(0.129302 0.000887963 0)
(0.123673 0.00150672 0)
(0.115549 0.00194931 0)
(0.105789 0.002203 0)
(0.095143 0.00232569 0)
(0.0840372 0.00239875 0)
(0.0727267 0.00241282 0)
(0.0613756 0.00241605 0)
(0.0500579 0.00239852 0)
(0.0388169 0.00238341 0)
(0.0276547 0.00236503 0)
(0.016563 0.00235346 0)
(0.00551536 0.00234619 0)
(0.0121419 -0.0167365 0)
(0.0496386 -0.0311694 0)
(0.0893224 -0.0177094 0)
(0.11371 -0.0128872 0)
(0.12742 -0.00467871 0)
(0.131584 -0.000794875 0)
(0.1299 0.00270981 0)
(0.12405 0.00456873 0)
(0.115762 0.00586897 0)
(0.105911 0.00662632 0)
(0.0952021 0.00698675 0)
(0.0840587 0.00720264 0)
(0.0727257 0.00724171 0)
(0.0613633 0.0072496 0)
(0.0500416 0.00719585 0)
(0.0388009 0.00714986 0)
(0.0276418 0.00709424 0)
(0.0165546 0.00705923 0)
(0.00551245 0.00703743 0)
(0.0131637 -0.0274999 0)
(0.0531992 -0.0533839 0)
(0.0948206 -0.0300778 0)
(0.119055 -0.0211994 0)
(0.131514 -0.00749701 0)
(0.134465 -0.00100156 0)
(0.131821 0.00475821 0)
(0.125265 0.00779888 0)
(0.116502 0.00989213 0)
(0.10634 0.011117 0)
(0.0954389 0.0116892 0)
(0.0841762 0.012032 0)
(0.0727721 0.012085 0)
(0.0613689 0.0120909 0)
(0.050026 0.0119962 0)
(0.0387779 0.0119165 0)
(0.02762 0.0118216 0)
(0.0165396 0.0117621 0)
(0.00550715 0.0117253 0)
(0.0081885 -0.0365815 0)
(0.0477037 -0.0781387 0)
(0.0962431 -0.0436727 0)
(0.1229 -0.0292506 0)
(0.135055 -0.00991451 0)
(0.137087 -0.000702275 0)
(0.133505 0.00710795 0)
(0.126349 0.0112829 0)
(0.117119 0.0140627 0)
(0.106684 0.0157084 0)
(0.0955982 0.0164515 0)
(0.0842276 0.0168982 0)
(0.0727602 0.0169486 0)
(0.0613261 0.0169425 0)
(0.0499724 0.0168 0)
(0.0387263 0.0166821 0)
(0.0275783 0.0165451 0)
(0.0165129 0.0164596 0)
(0.00549798 0.0164071 0)
(0.0111738 -0.0448168 0)
(0.0566969 -0.106074 0)
(0.108253 -0.0583128 0)
(0.133706 -0.0367751 0)
(0.143124 -0.0115653 0)
(0.142533 0.000336652 0)
(0.137078 0.00991392 0)
(0.128588 0.0151334 0)
(0.118463 0.0184465 0)
(0.107462 0.0204438 0)
(0.0960191 0.0213002 0)
(0.0844283 0.0218175 0)
(0.0728302 0.0218416 0)
(0.0613228 0.021809 0)
(0.0499335 0.0216086 0)
(0.0386764 0.0214466 0)
(0.0275333 0.0212634 0)
(0.0164825 0.0211498 0)
(0.00548729 0.0210802 0)
(0.00226644 -0.050533 0)
(0.047927 -0.139142 0)
(0.113108 -0.0748989 0)
(0.142184 -0.0433824 0)
(0.149882 -0.0122373 0)
(0.147238 0.00238569 0)
(0.139914 0.0133015 0)
(0.130329 0.0194354 0)
(0.11942 0.0230924 0)
(0.107962 0.0253523 0)
(0.0962289 0.0262509 0)
(0.0844732 0.0267984 0)
(0.0727824 0.0267679 0)
(0.061232 0.0266917 0)
(0.0498302 0.0264215 0)
(0.0385806 0.026208 0)
(0.0274575 0.025974 0)
(0.0164343 0.0258295 0)
(0.00547074 0.0257417 0)
(0.0258365 -0.0624861 0)
(0.0873242 -0.172765 0)
(0.13948 -0.0911864 0)
(0.159889 -0.0481426 0)
(0.161593 -0.0114751 0)
(0.154669 0.00569397 0)
(0.144566 0.017407 0)
(0.133169 0.0242555 0)
(0.121108 0.0280439 0)
(0.10892 0.03046 0)
(0.09673 0.0313202 0)
(0.0846926 0.0318507 0)
(0.072836 0.0317327 0)
(0.0611949 0.0315925 0)
(0.0497521 0.0312387 0)
(0.0384941 0.0309655 0)
(0.0273832 0.030675 0)
(0.0163852 0.0304965 0)
(0.00545362 0.030389 0)
(0.0796168 -0.107341 0)
(0.165821 -0.19073 0)
(0.180205 -0.101523 0)
(0.182744 -0.0475654 0)
(0.172901 -0.00858893 0)
(0.161536 0.0105879 0)
(0.148403 0.0223981 0)
(0.135353 0.0296643 0)
(0.122244 0.0333425 0)
(0.109457 0.0357859 0)
(0.0969089 0.0365179 0)
(0.0846742 0.0369784 0)
(0.0727133 0.036737 0)
(0.0610294 0.0365108 0)
(0.0495812 0.0360583 0)
(0.0383423 0.0357161 0)
(0.0272658 0.035363 0)
(0.0163114 0.0351472 0)
(0.00542851 0.0350184 0)
(0.0239189 -0.218472 0)
(0.071928 -0.220242 0)
(0.120544 -0.225353 0)
(0.170169 -0.231247 0)
(0.221184 -0.241343 0)
(0.274173 -0.253499 0)
(0.32939 -0.268029 0)
(0.387575 -0.29029 0)
(0.449409 -0.311242 0)
(0.515117 -0.346046 0)
(0.585889 -0.380884 0)
(0.662539 -0.432165 0)
(0.741685 -0.492591 0)
(0.825011 -0.5382 0)
(0.919964 -0.557335 0)
(1.0135 -0.537282 0)
(0.95592 -0.157486 0)
(0.695814 0.476851 0)
(0.494102 0.844895 0)
(0.471088 0.953776 0)
(0.519717 0.94506 0)
(0.606246 0.997601 0)
(0.742758 1.08431 0)
(0.0227066 -0.265341 0)
(0.0682737 -0.267438 0)
(0.114307 -0.273301 0)
(0.161161 -0.280282 0)
(0.209099 -0.291778 0)
(0.25852 -0.306008 0)
(0.309705 -0.322478 0)
(0.362916 -0.347818 0)
(0.418833 -0.37208 0)
(0.477144 -0.409874 0)
(0.538443 -0.449817 0)
(0.602672 -0.504846 0)
(0.66786 -0.564999 0)
(0.736414 -0.618186 0)
(0.805759 -0.640257 0)
(0.819418 -0.559702 0)
(0.665124 0.0783795 0)
(0.446478 0.722255 0)
(0.373166 0.875963 0)
(0.414963 0.903838 0)
(0.482158 0.878579 0)
(0.589295 0.869415 0)
(0.756489 0.907213 0)
(0.0213431 -0.309621 0)
(0.0641656 -0.31201 0)
(0.107313 -0.318376 0)
(0.15108 -0.326302 0)
(0.195624 -0.338722 0)
(0.24117 -0.354527 0)
(0.287992 -0.372479 0)
(0.335975 -0.39954 0)
(0.385654 -0.426505 0)
(0.436365 -0.465041 0)
(0.488111 -0.508286 0)
(0.539299 -0.562395 0)
(0.593785 -0.620377 0)
(0.648406 -0.678201 0)
(0.690975 -0.690148 0)
(0.627698 -0.458264 0)
(0.430125 0.330787 0)
(0.30365 0.816782 0)
(0.317543 0.841176 0)
(0.376261 0.837595 0)
(0.44812 0.805051 0)
(0.538387 0.744517 0)
(0.658526 0.743285 0)
(0.0198619 -0.351041 0)
(0.0597024 -0.353684 0)
(0.0997373 -0.360317 0)
(0.140202 -0.369033 0)
(0.181155 -0.381936 0)
(0.222703 -0.398863 0)
(0.265051 -0.417778 0)
(0.307894 -0.445541 0)
(0.351506 -0.474281 0)
(0.395191 -0.512153 0)
(0.4387 -0.556927 0)
(0.480789 -0.607519 0)
(0.521661 -0.663733 0)
(0.55742 -0.716421 0)
(0.583829 -0.718269 0)
(0.49351 -0.274617 0)
(0.305369 0.534903 0)
(0.238453 0.807077 0)
(0.277131 0.798045 0)
(0.327398 0.771181 0)
(0.38759 0.738732 0)
(0.448684 0.658693 0)
(0.523776 0.632867 0)
(0.0182863 -0.389388 0)
(0.0549566 -0.392247 0)
(0.091709 -0.398943 0)
(0.128723 -0.408291 0)
(0.165972 -0.421288 0)
(0.203484 -0.438983 0)
(0.241353 -0.458294 0)
(0.279207 -0.486144 0)
(0.317043 -0.515551 0)
(0.354242 -0.552189 0)
(0.390305 -0.596878 0)
(0.423999 -0.643748 0)
(0.454776 -0.699479 0)
(0.478791 -0.738449 0)
(0.493549 -0.734617 0)
(0.396184 -0.0688491 0)
(0.233714 0.681596 0)
(0.201542 0.76 0)
(0.244477 0.763091 0)
(0.287283 0.712584 0)
(0.337228 0.686625 0)
(0.38006 0.606339 0)
(0.423437 0.56614 0)
(0.0166874 -0.424544 0)
(0.0501381 -0.427578 0)
(0.0835744 -0.434167 0)
(0.117122 -0.443997 0)
(0.150685 -0.456763 0)
(0.184241 -0.474947 0)
(0.217776 -0.494106 0)
(0.250924 -0.521705 0)
(0.28345 -0.550719 0)
(0.314866 -0.585995 0)
(0.344471 -0.629082 0)
(0.371226 -0.672308 0)
(0.394489 -0.725086 0)
(0.411166 -0.751317 0)
(0.40535 -0.727982 0)
(0.29819 0.130598 0)
(0.174145 0.770174 0)
(0.168778 0.709169 0)
(0.206213 0.733141 0)
(0.241459 0.664084 0)
(0.280556 0.645627 0)
(0.313187 0.571485 0)
(0.342725 0.527706 0)
(0.0150401 -0.456438 0)
(0.0451783 -0.459606 0)
(0.0752363 -0.465965 0)
(0.105296 -0.476139 0)
(0.135215 -0.488434 0)
(0.164938 -0.506886 0)
(0.194364 -0.525456 0)
(0.223147 -0.55261 0)
(0.250899 -0.580406 0)
(0.277258 -0.614385 0)
(0.301386 -0.654705 0)
(0.322568 -0.694872 0)
(0.340086 -0.743199 0)
(0.351739 -0.759276 0)
(0.311602 -0.671461 0)
(0.187811 0.306522 0)
(0.112609 0.79455 0)
(0.134573 0.668119 0)
(0.169163 0.701798 0)
(0.202915 0.626077 0)
(0.235385 0.611701 0)
(0.262484 0.545374 0)
(0.28351 0.502994 0)
(0.0134424 -0.485069 0)
(0.0403639 -0.488332 0)
(0.0671465 -0.494376 0)
(0.0938296 -0.504768 0)
(0.12024 -0.516429 0)
(0.146302 -0.534968 0)
(0.171855 -0.552641 0)
(0.196587 -0.57922 0)
(0.220043 -0.605271 0)
(0.241986 -0.638075 0)
(0.261538 -0.674924 0)
(0.278289 -0.712785 0)
(0.291484 -0.755638 0)
(0.299328 -0.764134 0)
(0.225355 -0.549973 0)
(0.0920782 0.443592 0)
(0.0626486 0.762669 0)
(0.101692 0.638682 0)
(0.132281 0.665724 0)
(0.16336 0.59699 0)
(0.189474 0.581907 0)
(0.212868 0.524419 0)
(0.230606 0.484989 0)
(0.0118067 -0.51045 0)
(0.0354441 -0.513774 0)
(0.0589201 -0.519455 0)
(0.0822459 -0.529959 0)
(0.105247 -0.540908 0)
(0.127825 -0.559383 0)
(0.149775 -0.575977 0)
(0.170831 -0.601911 0)
(0.190528 -0.625959 0)
(0.208725 -0.657737 0)
(0.224545 -0.690818 0)
(0.237809 -0.727062 0)
(0.247717 -0.763841 0)
(0.252367 -0.766339 0)
(0.163271 -0.382372 0)
(0.0372128 0.53675 0)
(0.0351456 0.701183 0)
(0.0758216 0.620042 0)
(0.101814 0.627497 0)
(0.130239 0.575411 0)
(0.15222 0.555147 0)
(0.17254 0.507242 0)
(0.186752 0.470055 0)
(0.0102828 -0.532655 0)
(0.030855 -0.53601 0)
(0.0512327 -0.541303 0)
(0.071397 -0.551829 0)
(0.0911811 -0.562046 0)
(0.11045 -0.580309 0)
(0.128978 -0.59574 0)
(0.146595 -0.621022 0)
(0.162848 -0.642985 0)
(0.177706 -0.673938 0)
(0.19036 -0.703239 0)
(0.200863 -0.738533 0)
(0.208426 -0.769022 0)
(0.210975 -0.766403 0)
(0.121719 -0.20191 0)
(0.0106778 0.594662 0)
(0.0187266 0.637267 0)
(0.0526028 0.609025 0)
(0.0739771 0.590909 0)
(0.0981608 0.559123 0)
(0.116504 0.530907 0)
(0.134175 0.493299 0)
(0.146808 0.457019 0)
(0.00871128 -0.551748 0)
(0.0261335 -0.555109 0)
(0.043368 -0.560012 0)
(0.0603849 -0.570495 0)
(0.077027 -0.579996 0)
(0.0931455 -0.597931 0)
(0.10853 -0.612209 0)
(0.123093 -0.636901 0)
(0.136387 -0.656808 0)
(0.148474 -0.687203 0)
(0.158612 -0.712885 0)
(0.166915 -0.747791 0)
(0.172957 -0.772474 0)
(0.17404 -0.764787 0)
(0.0907723 -0.0292348 0)
(-0.00518358 0.630087 0)
(0.00452207 0.584003 0)
(0.0304603 0.60217 0)
(0.048339 0.558313 0)
(0.069328 0.546317 0)
(0.0852868 0.509239 0)
(0.100875 0.481541 0)
(0.11203 0.444871 0)
(0.00729969 -0.567843 0)
(0.0218913 -0.571196 0)
(0.0363006 -0.575734 0)
(0.050471 -0.586122 0)
(0.0642399 -0.594939 0)
(0.0774757 -0.612496 0)
(0.0899731 -0.625671 0)
(0.101697 -0.649862 0)
(0.112188 -0.667755 0)
(0.121589 -0.697856 0)
(0.129157 -0.72003 0)
(0.135113 -0.754979 0)
(0.140209 -0.775561 0)
(0.138581 -0.759572 0)
(0.0631266 0.12577 0)
(-0.0164152 0.651513 0)
(-0.00724066 0.543608 0)
(0.0119665 0.597193 0)
(0.0258612 0.53136 0)
(0.0424961 0.535457 0)
(0.0560197 0.490469 0)
(0.0695196 0.471078 0)
(0.0799286 0.433663 0)
(0.00581991 -0.581031 0)
(0.0174542 -0.584371 0)
(0.0289492 -0.588599 0)
(0.0402436 -0.598855 0)
(0.0511965 -0.607057 0)
(0.0617085 -0.62425 0)
(0.0715738 -0.636397 0)
(0.0807748 -0.660171 0)
(0.0888475 -0.676107 0)
(0.0959385 -0.706082 0)
(0.101214 -0.724714 0)
(0.10479 -0.759877 0)
(0.109313 -0.779549 0)
(0.102024 -0.745354 0)
(0.0327343 0.257542 0)
(-0.0304025 0.663177 0)
(-0.0237239 0.516017 0)
(-0.00987212 0.59156 0)
(0.00198399 0.511115 0)
(0.015667 0.525233 0)
(0.0279921 0.474716 0)
(0.040196 0.460998 0)
(0.0503267 0.423101 0)
(0.00454545 -0.59145 0)
(0.0136221 -0.59477 0)
(0.022573 -0.598752 0)
(0.0313175 -0.608846 0)
(0.0397236 -0.616526 0)
(0.0476883 -0.633353 0)
(0.0550064 -0.644567 0)
(0.0616606 -0.66794 0)
(0.067236 -0.682058 0)
(0.0717669 -0.711814 0)
(0.0743902 -0.726922 0)
(0.0758803 -0.762762 0)
(0.0783293 -0.783028 0)
(0.0561946 -0.711325 0)
(-0.00815482 0.358183 0)
(-0.0435507 0.661593 0)
(-0.0345848 0.501884 0)
(-0.0266628 0.583814 0)
(-0.0181177 0.498361 0)
(-0.00881556 0.514889 0)
(0.00170581 0.462101 0)
(0.0123743 0.450628 0)
(0.0225319 0.413083 0)
(0.00314155 -0.599177 0)
(0.00940478 -0.602463 0)
(0.0155445 -0.606229 0)
(0.0214885 -0.616135 0)
(0.0271702 -0.623399 0)
(0.0325424 -0.639887 0)
(0.0374771 -0.65035 0)
(0.0420115 -0.673404 0)
(0.0458813 -0.686088 0)
(0.0490663 -0.715539 0)
(0.0504778 -0.727252 0)
(0.057359 -0.761164 0)
(0.0594858 -0.778807 0)
(0.00617169 -0.63876 0)
(-0.0596459 0.416676 0)
(-0.0611111 0.640162 0)
(-0.0498595 0.503 0)
(-0.049026 0.573905 0)
(-0.0424334 0.493061 0)
(-0.0355852 0.503961 0)
(-0.0254617 0.452282 0)
(-0.0153055 0.439519 0)
(-0.00459493 0.40322 0)
(0.0020873 -0.604435 0)
(0.00620934 -0.607648 0)
(0.0102026 -0.611233 0)
(0.01401 -0.620936 0)
(0.0176025 -0.627924 0)
(0.0209434 -0.644126 0)
(0.0239362 -0.654087 0)
(0.0266651 -0.676977 0)
(0.0291366 -0.688902 0)
(0.0318185 -0.718643 0)
(0.0349155 -0.728715 0)
(0.0399382 -0.762139 0)
(0.0300023 -0.759482 0)
(-0.00456542 -0.568646 0)
(-0.0231306 0.431536 0)
(-0.0275484 0.631223 0)
(-0.049217 0.522418 0)
(-0.0645107 0.56903 0)
(-0.0668139 0.493632 0)
(-0.0630488 0.492729 0)
(-0.0535059 0.443752 0)
(-0.0428798 0.427164 0)
(-0.0310229 0.392895 0)
(0.00120416 -0.608694 0)
(0.00360692 -0.61188 0)
(0.005942 -0.61537 0)
(0.0080737 -0.624918 0)
(0.00993269 -0.631756 0)
(0.0115601 -0.64789 0)
(0.012988 -0.657685 0)
(0.0145355 -0.681024 0)
(0.0165788 -0.69322 0)
(0.0211153 -0.726084 0)
(0.0332285 -0.742018 0)
(0.0768817 -0.804436 0)
(0.105058 -0.738807 0)
(0.090325 -0.539034 0)
(0.0908181 0.420403 0)
(0.0412093 0.696678 0)
(-0.0455835 0.566001 0)
(-0.0815068 0.576941 0)
(-0.0928043 0.499401 0)
(-0.0920511 0.482425 0)
(-0.082939 0.435311 0)
(-0.0711105 0.413039 0)
(-0.0573679 0.381291 0)
(0.000859548 -0.61313 0)
(0.00252012 -0.616258 0)
(0.00411957 -0.619694 0)
(0.00563816 -0.629043 0)
(0.00701696 -0.635713 0)
(0.00820367 -0.651661 0)
(0.00935009 -0.661498 0)
(0.0108694 -0.685435 0)
(0.0151225 -0.700462 0)
(0.0268531 -0.740799 0)
(0.0510541 -0.769854 0)
(0.0963709 -0.872789 0)
(0.172428 -0.779686 0)
(0.177354 -0.488798 0)
(0.0948562 0.452979 0)
(-0.00597321 0.815365 0)
(-0.104721 0.633835 0)
(-0.142712 0.583417 0)
(-0.143145 0.504724 0)
(-0.134942 0.468104 0)
(-0.11844 0.423889 0)
(-0.101723 0.395771 0)
(-0.0843218 0.367258 0)
(-0.00597738 -0.609404 0)
(-0.0181902 -0.61219 0)
(-0.0311239 -0.615125 0)
(-0.0449117 -0.623927 0)
(-0.0599313 -0.629627 0)
(-0.0756458 -0.645457 0)
(-0.0919112 -0.654599 0)
(-0.105842 -0.68167 0)
(-0.113978 -0.701838 0)
(-0.107134 -0.759218 0)
(-0.0698513 -0.813864 0)
(-0.00848027 -0.936261 0)
(0.0777612 -0.880144 0)
(0.0188148 -0.334781 0)
(-0.179428 0.581206 0)
(-0.252545 0.862025 0)
(-0.2468 0.680676 0)
(-0.234207 0.562117 0)
(-0.206014 0.498127 0)
(-0.181566 0.441886 0)
(-0.154175 0.405992 0)
(-0.130746 0.373318 0)
(-0.108553 0.349915 0)
(-0.0145281 -0.588802 0)
(-0.0433291 -0.591584 0)
(-0.0723014 -0.593624 0)
(-0.102677 -0.601052 0)
(-0.134972 -0.604957 0)
(-0.170026 -0.619109 0)
(-0.208152 -0.626286 0)
(-0.250294 -0.653629 0)
(-0.297301 -0.674456 0)
(-0.353213 -0.737283 0)
(-0.424774 -0.801347 0)
(-0.537199 -0.897463 0)
(-0.715155 -0.826754 0)
(-0.876052 -0.167277 0)
(-0.85005 0.58675 0)
(-0.656735 0.735663 0)
(-0.476448 0.620046 0)
(-0.36393 0.49699 0)
(-0.290093 0.460698 0)
(-0.237153 0.401527 0)
(-0.196047 0.377501 0)
(-0.16306 0.345103 0)
(-0.13539 0.32801 0)
(-0.0144671 -0.559658 0)
(-0.0439076 -0.562188 0)
(-0.074305 -0.563346 0)
(-0.106226 -0.568714 0)
(-0.140129 -0.570755 0)
(-0.177158 -0.580857 0)
(-0.218417 -0.584745 0)
(-0.267324 -0.603651 0)
(-0.32899 -0.6152 0)
(-0.415969 -0.652909 0)
(-0.545709 -0.683377 0)
(-0.7451 -0.701996 0)
(-0.991977 -0.595176 0)
(-1.10556 -0.122935 0)
(-0.966601 0.376596 0)
(-0.718696 0.502306 0)
(-0.521563 0.474023 0)
(-0.397167 0.404869 0)
(-0.314826 0.395832 0)
(-0.255528 0.353575 0)
(-0.211688 0.340067 0)
(-0.176747 0.31426 0)
(-0.148312 0.30246 0)
(-0.0146303 -0.530409 0)
(-0.0445221 -0.531796 0)
(-0.0755431 -0.532 0)
(-0.108119 -0.535228 0)
(-0.14286 -0.535239 0)
(-0.180768 -0.541047 0)
(-0.223098 -0.540531 0)
(-0.272038 -0.549507 0)
(-0.331393 -0.547692 0)
(-0.407977 -0.556002 0)
(-0.511651 -0.545652 0)
(-0.64363 -0.506621 0)
(-0.780384 -0.404915 0)
(-0.856319 -0.122682 0)
(-0.801471 0.181525 0)
(-0.656969 0.302926 0)
(-0.520334 0.337897 0)
(-0.419829 0.314925 0)
(-0.343703 0.326485 0)
(-0.283956 0.30326 0)
(-0.237145 0.299262 0)
(-0.199274 0.281877 0)
(-0.167974 0.274801 0)
(-0.0153784 -0.500244 0)
(-0.0464745 -0.500656 0)
(-0.0783984 -0.499868 0)
(-0.112021 -0.500817 0)
(-0.147941 -0.49862 0)
(-0.187432 -0.499864 0)
(-0.231377 -0.49499 0)
(-0.281858 -0.495109 0)
(-0.339901 -0.484078 0)
(-0.408515 -0.473661 0)
(-0.487948 -0.44393 0)
(-0.576114 -0.387049 0)
(-0.664381 -0.298291 0)
(-0.703834 -0.113312 0)
(-0.661656 0.0746267 0)
(-0.573463 0.175918 0)
(-0.480625 0.234239 0)
(-0.400948 0.237465 0)
(-0.336331 0.262472 0)
(-0.282471 0.253076 0)
(-0.238342 0.258035 0)
(-0.201912 0.248418 0)
(-0.171486 0.246215 0)
(-0.0146249 -0.470084 0)
(-0.0441976 -0.46983 0)
(-0.0744634 -0.46818 0)
(-0.105979 -0.467028 0)
(-0.139189 -0.462918 0)
(-0.174952 -0.45992 0)
(-0.213952 -0.451558 0)
(-0.257497 -0.444024 0)
(-0.306481 -0.427579 0)
(-0.361646 -0.405736 0)
(-0.421996 -0.371341 0)
(-0.481555 -0.311141 0)
(-0.532023 -0.234739 0)
(-0.556957 -0.112139 0)
(-0.540637 0.014652 0)
(-0.492761 0.0991151 0)
(-0.432641 0.157288 0)
(-0.374915 0.176298 0)
(-0.324243 0.207752 0)
(-0.27883 0.208008 0)
(-0.240037 0.219752 0)
(-0.206611 0.216484 0)
(-0.177841 0.218647 0)
(-0.0148389 -0.440467 0)
(-0.0447758 -0.439628 0)
(-0.0753009 -0.437274 0)
(-0.10698 -0.43441 0)
(-0.140077 -0.428882 0)
(-0.175162 -0.422738 0)
(-0.212341 -0.412165 0)
(-0.252255 -0.399523 0)
(-0.294656 -0.380219 0)
(-0.339362 -0.352703 0)
(-0.385505 -0.317325 0)
(-0.428533 -0.262036 0)
(-0.463618 -0.197846 0)
(-0.478095 -0.109414 0)
(-0.464449 -0.0181938 0)
(-0.431092 0.0503057 0)
(-0.387864 0.102212 0)
(-0.344569 0.129828 0)
(-0.30366 0.162165 0)
(-0.265376 0.169464 0)
(-0.231642 0.185393 0)
(-0.201502 0.186949 0)
(-0.175062 0.192686 0)
(-0.0135707 -0.411909 0)
(-0.0409049 -0.410616 0)
(-0.0686672 -0.407695 0)
(-0.0972527 -0.403411 0)
(-0.126895 -0.396814 0)
(-0.158007 -0.388264 0)
(-0.190703 -0.376398 0)
(-0.225135 -0.360556 0)
(-0.261095 -0.340416 0)
(-0.297558 -0.310913 0)
(-0.332873 -0.277232 0)
(-0.363369 -0.228222 0)
(-0.385674 -0.17397 0)
(-0.396397 -0.107956 0)
(-0.391252 -0.0385407 0)
(-0.371859 0.0176283 0)
(-0.343924 0.0633562 0)
(-0.313133 0.0942137 0)
(-0.281354 0.124713 0)
(-0.250369 0.137287 0)
(-0.221994 0.155138 0)
(-0.195722 0.160499 0)
(-0.17215 0.168864 0)
(-0.0133621 -0.384836 0)
(-0.04022 -0.383214 0)
(-0.0673506 -0.379917 0)
(-0.0950002 -0.37466 0)
(-0.123211 -0.367409 0)
(-0.152166 -0.357288 0)
(-0.181777 -0.344744 0)
(-0.211999 -0.32722 0)
(-0.242481 -0.306963 0)
(-0.272048 -0.277992 0)
(-0.299842 -0.246715 0)
(-0.323642 -0.204159 0)
(-0.341032 -0.158131 0)
(-0.348522 -0.105488 0)
(-0.343846 -0.0508799 0)
(-0.329238 -0.00421051 0)
(-0.308063 0.0358301 0)
(-0.283937 0.0665383 0)
(-0.258219 0.0945931 0)
(-0.232777 0.110687 0)
(-0.208662 0.128977 0)
(-0.185839 0.13731 0)
(-0.164981 0.147393 0)
(-0.0119991 -0.359342 0)
(-0.0360921 -0.357491 0)
(-0.0603911 -0.353942 0)
(-0.085065 -0.348038 0)
(-0.110166 -0.340442 0)
(-0.135734 -0.329448 0)
(-0.161667 -0.316751 0)
(-0.187681 -0.298683 0)
(-0.213304 -0.279102 0)
(-0.237584 -0.251725 0)
(-0.259513 -0.223 0)
(-0.277516 -0.185853 0)
(-0.289935 -0.146472 0)
(-0.296008 -0.103515 0)
(-0.294474 -0.0590946 0)
(-0.285621 -0.0195784 0)
(-0.271563 0.0157827 0)
(-0.254235 0.0449164 0)
(-0.234694 0.070721 0)
(-0.214528 0.0887149 0)
(-0.19458 0.106658 0)
(-0.175227 0.117235 0)
(-0.157122 0.128304 0)
(-0.0114131 -0.335808 0)
(-0.034278 -0.333822 0)
(-0.0572011 -0.330142 0)
(-0.0802276 -0.323889 0)
(-0.103323 -0.316143 0)
(-0.126446 -0.304801 0)
(-0.149464 -0.29219 0)
(-0.172051 -0.274389 0)
(-0.193878 -0.255699 0)
(-0.214195 -0.230298 0)
(-0.232331 -0.204152 0)
(-0.247216 -0.171641 0)
(-0.25761 -0.137751 0)
(-0.262446 -0.101269 0)
(-0.261078 -0.0642561 0)
(-0.254262 -0.0301672 0)
(-0.243193 0.00111467 0)
(-0.229189 0.0280896 0)
(-0.213238 0.051872 0)
(-0.196555 0.0705239 0)
(-0.179696 0.0878519 0)
(-0.163154 0.0999604 0)
(-0.147396 0.111541 0)
(-0.0101593 -0.314123 0)
(-0.0304973 -0.312078 0)
(-0.0508725 -0.308362 0)
(-0.0712886 -0.302 0)
(-0.0917086 -0.294289 0)
(-0.112015 -0.282999 0)
(-0.132042 -0.270722 0)
(-0.151466 -0.253627 0)
(-0.169912 -0.235978 0)
(-0.186761 -0.212659 0)
(-0.201365 -0.18888 0)
(-0.21309 -0.160164 0)
(-0.221184 -0.130644 0)
(-0.225404 -0.0992722 0)
(-0.225361 -0.0676702 0)
(-0.221159 -0.0378284 0)
(-0.213552 -0.00999736 0)
(-0.203322 0.0148428 0)
(-0.19121 0.0369108 0)
(-0.178047 0.055484 0)
(-0.164327 0.0721546 0)
(-0.150541 0.0851731 0)
(-0.137096 0.096974 0)
(-0.00935788 -0.294504 0)
(-0.0280582 -0.292455 0)
(-0.0467067 -0.288757 0)
(-0.0652469 -0.282445 0)
(-0.0836133 -0.274856 0)
(-0.101668 -0.263872 0)
(-0.119272 -0.252023 0)
(-0.13613 -0.235854 0)
(-0.15197 -0.219286 0)
(-0.166366 -0.197944 0)
(-0.178884 -0.176332 0)
(-0.188987 -0.150769 0)
(-0.196049 -0.124804 0)
(-0.199701 -0.0971986 0)
(-0.199742 -0.0697453 0)
(-0.196484 -0.0432515 0)
(-0.190422 -0.018314 0)
(-0.182126 0.00453821 0)
(-0.172172 0.0250351 0)
(-0.161201 0.0431009 0)
(-0.149627 0.059112 0)
(-0.137883 0.0725537 0)
(-0.12628 0.0844169 0)
(-0.00825376 -0.2768 0)
(-0.0247379 -0.274791 0)
(-0.0411633 -0.271165 0)
(-0.0574564 -0.265022 0)
(-0.073545 -0.257644 0)
(-0.0892784 -0.247119 0)
(-0.104504 -0.235775 0)
(-0.118959 -0.220627 0)
(-0.132378 -0.205101 0)
(-0.1444 -0.185572 0)
(-0.154629 -0.165839 0)
(-0.162787 -0.142906 0)
(-0.168533 -0.119794 0)
(-0.171774 -0.0952794 0)
(-0.172375 -0.0710185 0)
(-0.170409 -0.0472291 0)
(-0.166165 -0.0246944 0)
(-0.160007 -0.00361042 0)
(-0.152384 0.0155157 0)
(-0.143726 0.0328901 0)
(-0.13438 0.0482942 0)
(-0.124697 0.0618336 0)
(-0.114949 0.0736761 0)
(-0.00737821 -0.261086 0)
(-0.0220974 -0.259138 0)
(-0.0367242 -0.255603 0)
(-0.0511661 -0.249688 0)
(-0.0653457 -0.242551 0)
(-0.0791194 -0.23255 0)
(-0.0923625 -0.221726 0)
(-0.104859 -0.207584 0)
(-0.116413 -0.19304 0)
(-0.126777 -0.17513 0)
(-0.135684 -0.157046 0)
(-0.142856 -0.136288 0)
(-0.147976 -0.11549 0)
(-0.150895 -0.0933901 0)
(-0.151541 -0.0716532 0)
(-0.150064 -0.0500558 0)
(-0.14669 -0.0295241 0)
(-0.141714 -0.00997263 0)
(-0.135461 0.00793069 0)
(-0.128268 0.024542 0)
(-0.120428 0.0393669 0)
(-0.11223 0.052788 0)
(-0.103899 0.0645491 0)
(-0.00641355 -0.247222 0)
(-0.0192012 -0.245351 0)
(-0.0318942 -0.241927 0)
(-0.0443987 -0.236277 0)
(-0.0566384 -0.229405 0)
(-0.0684804 -0.219947 0)
(-0.0798055 -0.209633 0)
(-0.0904249 -0.19644 0)
(-0.100158 -0.182785 0)
(-0.108793 -0.166287 0)
(-0.1161 -0.14959 0)
(-0.121944 -0.130659 0)
(-0.126161 -0.111734 0)
(-0.128714 -0.0916445 0)
(-0.12955 -0.0719086 0)
(-0.128721 -0.0521187 0)
(-0.126359 -0.0332258 0)
(-0.122651 -0.015 0)
(-0.117844 0.00184155 0)
(-0.11218 0.0177079 0)
(-0.105895 0.0320023 0)
(-0.0992084 0.0451913 0)
(-0.0923132 0.0568405 0)
(-0.00553598 -0.23521 0)
(-0.0165701 -0.233416 0)
(-0.027514 -0.230101 0)
(-0.0382794 -0.224711 0)
(-0.0487956 -0.218096 0)
(-0.0589448 -0.20915 0)
(-0.0686261 -0.199314 0)
(-0.0776894 -0.186974 0)
(-0.0860046 -0.174109 0)
(-0.093419 -0.15883 0)
(-0.0997696 -0.143318 0)
(-0.104909 -0.125891 0)
(-0.108672 -0.108479 0)
(-0.110994 -0.0899983 0)
(-0.111841 -0.0718632 0)
(-0.11129 -0.0535507 0)
(-0.109455 -0.0360117 0)
(-0.106498 -0.0189143 0)
(-0.102603 -0.00299048 0)
(-0.0979609 0.0121814 0)
(-0.0927612 0.0259842 0)
(-0.0871856 0.0388837 0)
(-0.0813928 0.0503947 0)
(-0.00469275 -0.224928 0)
(-0.0140399 -0.223211 0)
(-0.0232945 -0.220002 0)
(-0.0323741 -0.214861 0)
(-0.0412142 -0.208488 0)
(-0.0497138 -0.200011 0)
(-0.0577861 -0.190606 0)
(-0.0653051 -0.179013 0)
(-0.0721555 -0.166826 0)
(-0.078213 -0.152571 0)
(-0.0833507 -0.138028 0)
(-0.0874946 -0.121849 0)
(-0.0905584 -0.105658 0)
(-0.092525 -0.0885086 0)
(-0.0933724 -0.07165 0)
(-0.093136 -0.0545547 0)
(-0.0918816 -0.0381129 0)
(-0.0897101 -0.0219687 0)
(-0.0867561 -0.00682008 0)
(-0.0831588 0.00772921 0)
(-0.0790646 0.0210942 0)
(-0.0746106 0.0336922 0)
(-0.0699279 0.0450567 0)
(-0.00384615 -0.216344 0)
(-0.0115106 -0.214693 0)
(-0.0191091 -0.211578 0)
(-0.0265761 -0.206652 0)
(-0.0338571 -0.200492 0)
(-0.0408673 -0.192417 0)
(-0.0475348 -0.183383 0)
(-0.0537618 -0.172417 0)
(-0.0594644 -0.160802 0)
(-0.0645459 -0.147397 0)
(-0.0689107 -0.13365 0)
(-0.0724774 -0.118477 0)
(-0.0751601 -0.103254 0)
(-0.0769255 -0.0871612 0)
(-0.0777527 -0.0713139 0)
(-0.0776814 -0.0551999 0)
(-0.0767683 -0.0396464 0)
(-0.075102 -0.0242928 0)
(-0.0727867 -0.0097925 0)
(-0.0699324 0.00421695 0)
(-0.0666537 0.0171954 0)
(-0.0630619 0.0295034 0)
(-0.0592603 0.0407175 0)
(-0.00308178 -0.20938 0)
(-0.00921961 -0.207783 0)
(-0.0152946 -0.204743 0)
(-0.021249 -0.199995 0)
(-0.0270368 -0.194011 0)
(-0.0325902 -0.186267 0)
(-0.0378524 -0.17754 0)
(-0.0427469 -0.167081 0)
(-0.0472054 -0.155924 0)
(-0.0511551 -0.143197 0)
(-0.0545277 -0.130072 0)
(-0.0572811 -0.115701 0)
(-0.0593724 -0.10123 0)
(-0.0607938 -0.0859809 0)
(-0.0615317 -0.070921 0)
(-0.0616044 -0.0555912 0)
(-0.061042 -0.0407381 0)
(-0.0598975 -0.0260265 0)
(-0.0582397 -0.0120526 0)
(-0.0561435 0.0015012 0)
(-0.0536917 0.0141513 0)
(-0.0509664 0.0261978 0)
(-0.0480492 0.0372699 0)
(-0.00226038 -0.20401 0)
(-0.00677576 -0.202444 0)
(-0.0112758 -0.199451 0)
(-0.0157195 -0.194834 0)
(-0.0200687 -0.188982 0)
(-0.0242707 -0.18149 0)
(-0.0282833 -0.172994 0)
(-0.0320511 -0.162919 0)
(-0.0355254 -0.152111 0)
(-0.0386503 -0.139897 0)
(-0.0413715 -0.127246 0)
(-0.0436375 -0.113482 0)
(-0.0453976 -0.0995777 0)
(-0.0466294 -0.0849664 0)
(-0.0473183 -0.0705013 0)
(-0.0474828 -0.0557724 0)
(-0.047148 -0.0414583 0)
(-0.0463588 -0.0272498 0)
(-0.0451685 -0.0136921 0)
(-0.0436394 -0.000503251 0)
(-0.0418366 0.0118794 0)
(-0.0398182 0.0237016 0)
(-0.0376396 0.034644 0)
(-0.00154779 -0.200181 0)
(-0.00462217 -0.198642 0)