/*--------------------------------*- C++ -*----------------------------------*\
| =========                 |                                                 |
| \\      /  F ield         | OpenFOAM: The Open Source CFD Toolbox           |
|  \\    /   O peration     | Version:  2012                                  |
|   \\  /    A nd           | Website:  www.openfoam.com                      |
|    \\/     M anipulation  |                                                 |
\*---------------------------------------------------------------------------*/
FoamFile
{
    version     2.0;
    format      ascii;
    class       volScalarField;
    location    "4020";
    object      minKappa;
}
// * * * * * * * * * * * * * * * * * * * * * * * * * * * * * * * * * * * * * //

dimensions      [0 0 0 0 0 0 0];


internalField   nonuniform List<scalar> 
20400
(
3.39556e-12
3.39556e-12
3.73638e-12
1.05279e-11
2.80354e-11
5.22178e-11
8.07273e-11
1.12158e-10
1.44768e-10
1.78031e-10
2.11261e-10
2.4421e-10
2.77032e-10
3.09534e-10
3.41871e-10
3.74044e-10
4.06105e-10
4.38079e-10
4.69983e-10
5.01792e-10
5.33444e-10
5.64905e-10
5.96187e-10
6.27294e-10
6.58215e-10
6.88941e-10
7.19461e-10
7.49773e-10
7.7988e-10
8.09795e-10
8.39533e-10
8.69097e-10
8.98449e-10
9.2744e-10
9.55911e-10
9.84017e-10
1.01236e-09
1.04064e-09
1.06849e-09
1.0961e-09
1.1234e-09
1.15045e-09
1.17727e-09
1.20388e-09
1.23033e-09
1.25662e-09
1.28278e-09
1.30879e-09
1.33467e-09
1.3604e-09
1.38599e-09
1.41143e-09
1.43673e-09
1.4619e-09
1.48696e-09
1.51191e-09
1.53678e-09
1.56152e-09
1.58603e-09
1.61055e-09
1.63531e-09
1.66022e-09
1.68508e-09
1.70984e-09
1.73452e-09
1.75908e-09
1.78351e-09
1.80782e-09
1.83202e-09
1.85613e-09
1.88016e-09
1.90412e-09
1.92801e-09
1.95186e-09
1.97565e-09
1.9994e-09
2.0231e-09
2.04675e-09
2.07035e-09
2.09391e-09
2.11742e-09
2.14089e-09
2.16432e-09
2.1877e-09
2.21097e-09
2.23399e-09
2.25663e-09
2.27935e-09
2.30221e-09
2.32489e-09
2.34742e-09
2.36968e-09
2.39161e-09
2.41316e-09
2.43474e-09
2.45624e-09
2.47748e-09
2.49845e-09
2.51905e-09
2.53925e-09
2.55903e-09
2.5783e-09
2.59705e-09
2.61516e-09
2.63273e-09
2.64959e-09
2.66598e-09
2.68145e-09
2.69661e-09
2.71053e-09
2.72411e-09
2.73622e-09
2.74691e-09
2.7549e-09
2.76066e-09
2.76522e-09
2.76759e-09
2.76702e-09
2.76401e-09
2.75877e-09
2.75145e-09
2.74187e-09
2.72978e-09
2.71518e-09
2.6977e-09
2.67728e-09
2.6534e-09
2.62586e-09
2.594e-09
2.55712e-09
2.51617e-09
2.46956e-09
2.42008e-09
2.36831e-09
2.31792e-09
2.27304e-09
2.22783e-09
2.17828e-09
2.12383e-09
2.06572e-09
2.00351e-09
1.9385e-09
1.8707e-09
1.80075e-09
1.7289e-09
1.65524e-09
1.57853e-09
1.49822e-09
1.4136e-09
1.32831e-09
1.23198e-09
1.13331e-09
1.03633e-09
9.37652e-10
8.35099e-10
7.28565e-10
6.01763e-10
4.81548e-10
4.0721e-10
3.31193e-10
2.43447e-10
1.56575e-10
7.9589e-11
6.687e-11
6.687e-11
1.36178e-10
2.24458e-10
3.13797e-10
4.02433e-10
4.89397e-10
5.75028e-10
6.58334e-10
7.40057e-10
8.19098e-10
8.9641e-10
9.70845e-10
1.04343e-09
1.11304e-09
1.18067e-09
1.24537e-09
1.30791e-09
1.36756e-09
1.42494e-09
1.47948e-09
1.53174e-09
1.58117e-09
1.62832e-09
1.67283e-09
1.71502e-09
1.7547e-09
1.79212e-09
1.82715e-09
1.86001e-09
1.89062e-09
1.91917e-09
1.9456e-09
1.97011e-09
1.99264e-09
2.0134e-09
2.03234e-09
2.04957e-09
2.06519e-09
2.07926e-09
2.09183e-09
2.10296e-09
2.11274e-09
2.12124e-09
2.1285e-09
2.13462e-09
2.13963e-09
2.14362e-09
2.14668e-09
2.14885e-09
2.15017e-09
2.15058e-09
2.14966e-09
2.14808e-09
2.14592e-09
2.14318e-09
2.13998e-09
2.13628e-09
2.13223e-09
2.12779e-09
2.12308e-09
2.11807e-09
2.11283e-09
2.10736e-09
2.10172e-09
2.09591e-09
2.08999e-09
2.08396e-09
2.07786e-09
2.07172e-09
2.06553e-09
2.05935e-09
2.05314e-09
2.047e-09
2.04085e-09
2.03484e-09
2.02882e-09
2.02296e-09
2.01715e-09
2.01146e-09
2.00586e-09
2.00041e-09
1.99509e-09
1.98993e-09
1.98492e-09
1.98007e-09
1.97539e-09
1.97088e-09
1.96655e-09
1.96239e-09
1.9584e-09
1.9546e-09
1.95098e-09
1.94755e-09
1.94431e-09
1.94126e-09
1.93839e-09
1.93571e-09
1.93322e-09
1.93092e-09
1.92881e-09
1.92688e-09
1.92514e-09
1.92359e-09
1.92221e-09
1.92102e-09
1.92e-09
1.91916e-09
1.91849e-09
1.91799e-09
1.91767e-09
1.91748e-09
1.91747e-09
1.91747e-09
1.91763e-09
1.91794e-09
1.91839e-09
1.91898e-09
1.91973e-09
1.92063e-09
1.92164e-09
1.92281e-09
1.9241e-09
1.92554e-09
1.92709e-09
1.92876e-09
1.93055e-09
1.93244e-09
1.93445e-09
1.93656e-09
1.93876e-09
1.94108e-09
1.94346e-09
1.94595e-09
1.94851e-09
1.95116e-09
1.95387e-09
1.95669e-09
1.95954e-09
1.96249e-09
1.96549e-09
1.96856e-09
1.97168e-09
1.97487e-09
1.9781e-09
1.9814e-09
1.98474e-09
1.98813e-09
1.99155e-09
1.99503e-09
1.99853e-09
2.00207e-09
2.00564e-09
2.00924e-09
2.01286e-09
2.01651e-09
2.02017e-09
2.02386e-09
2.02756e-09
2.03128e-09
2.035e-09
2.03874e-09
2.04249e-09
2.04623e-09
2.04999e-09
2.05374e-09
2.0575e-09
2.06125e-09
2.065e-09
2.06874e-09
2.07249e-09
2.07622e-09
2.07995e-09
2.08365e-09
2.08736e-09
2.09105e-09
2.09473e-09
2.09839e-09
2.10204e-09
2.10566e-09
2.10929e-09
2.11287e-09
2.11646e-09
2.12e-09
2.12355e-09
2.12705e-09
2.13055e-09
2.13401e-09
2.13746e-09
2.14087e-09
2.14427e-09
2.14764e-09
2.15099e-09
2.1543e-09
2.1576e-09
2.16087e-09
2.16411e-09
2.16732e-09
2.1705e-09
2.17366e-09
2.17679e-09
2.1799e-09
2.18297e-09
2.18602e-09
2.18904e-09
2.19203e-09
2.19499e-09
2.19792e-09
2.20083e-09
2.2037e-09
2.20655e-09
2.20937e-09
2.21216e-09
2.21492e-09
2.21766e-09
2.22037e-09
2.22304e-09
2.22569e-09
2.22832e-09
2.23091e-09
2.23348e-09
2.23602e-09
2.23854e-09
2.24102e-09
2.24348e-09
2.24592e-09
2.24833e-09
2.25071e-09
2.25306e-09
2.25539e-09
2.2577e-09
2.25998e-09
2.26223e-09
2.26446e-09
2.26666e-09
2.26884e-09
2.271e-09
2.27313e-09
2.27524e-09
2.27733e-09
2.27939e-09
2.28143e-09
2.28345e-09
2.28544e-09
2.28741e-09
2.28936e-09
2.29129e-09
2.2932e-09
2.29509e-09
2.29695e-09
2.2988e-09
2.30062e-09
2.30242e-09
2.30421e-09
2.30597e-09
2.30772e-09
2.30944e-09
2.31115e-09
2.31284e-09
2.31451e-09
2.31616e-09
2.31779e-09
2.3194e-09
2.321e-09
2.32258e-09
2.32414e-09
2.32569e-09
2.32722e-09
2.32873e-09
2.33022e-09
2.3317e-09
2.33317e-09
2.33461e-09
2.33604e-09
2.33746e-09
2.33886e-09
2.34025e-09
2.34162e-09
2.34297e-09
2.34431e-09
2.34564e-09
2.34695e-09
2.34825e-09
2.34953e-09
2.3508e-09
2.35206e-09
2.3533e-09
2.35453e-09
2.35575e-09
2.35695e-09
2.35814e-09
2.35932e-09
2.36049e-09
2.36164e-09
2.36278e-09
2.36391e-09
2.36502e-09
2.36612e-09
2.36722e-09
2.3683e-09
2.36936e-09
2.37042e-09
2.37146e-09
2.3725e-09
2.37352e-09
2.37453e-09
2.37553e-09
2.37652e-09
2.3775e-09
2.37846e-09
2.37942e-09
2.38036e-09
2.3813e-09
2.38222e-09
2.38314e-09
2.38404e-09
2.38493e-09
2.38581e-09
2.38669e-09
2.38755e-09
2.3884e-09
2.38924e-09
2.39007e-09
2.3909e-09
2.3917e-09
2.39251e-09
2.39328e-09
2.39407e-09
2.39482e-09
2.3956e-09
2.39632e-09
2.39709e-09
2.39777e-09
2.39855e-09
2.3992e-09
2.40016e-09
2.4008e-09
3.41822e-12
7.7401e-12
2.52339e-11
5.67169e-11
1.00067e-10
1.50811e-10
2.07795e-10
2.6798e-10
3.29834e-10
3.92821e-10
4.55303e-10
5.18208e-10
5.80498e-10
6.4247e-10
7.03983e-10
7.6513e-10
8.25919e-10
8.8636e-10
9.46489e-10
1.00616e-09
1.06526e-09
1.12382e-09
1.18185e-09
1.23936e-09
1.29631e-09
1.35272e-09
1.40858e-09
1.46389e-09
1.51871e-09
1.57303e-09
1.62691e-09
1.68033e-09
1.73324e-09
1.78541e-09
1.83678e-09
1.8885e-09
1.93995e-09
1.9909e-09
2.04151e-09
2.09165e-09
2.14135e-09
2.19061e-09
2.23942e-09
2.28781e-09
2.33579e-09
2.38337e-09
2.43056e-09
2.47738e-09
2.52386e-09
2.57001e-09
2.61585e-09
2.66143e-09
2.70676e-09
2.75186e-09
2.79678e-09
2.84145e-09
2.88599e-09
2.93012e-09
2.97389e-09
3.01725e-09
3.05992e-09
3.10249e-09
3.14441e-09
3.18634e-09
3.22807e-09
3.26969e-09
3.31118e-09
3.35252e-09
3.39371e-09
3.43472e-09
3.47557e-09
3.51623e-09
3.55671e-09
3.59699e-09
3.63709e-09
3.67698e-09
3.71667e-09
3.75615e-09
3.79542e-09
3.83445e-09
3.87329e-09
3.91187e-09
3.95025e-09
3.98832e-09
4.0261e-09
4.0634e-09
4.10035e-09
4.1374e-09
4.17411e-09
4.21037e-09
4.24622e-09
4.28132e-09
4.31587e-09
4.34951e-09
4.38283e-09
4.41517e-09
4.44708e-09
4.47773e-09
4.50781e-09
4.53641e-09
4.5644e-09
4.59044e-09
4.61578e-09
4.63865e-09
4.66109e-09
4.68036e-09
4.69914e-09
4.71401e-09
4.72809e-09
4.73806e-09
4.74722e-09
4.75046e-09
4.75234e-09
4.74994e-09
4.75258e-09
4.74805e-09
4.7442e-09
4.73206e-09
4.72034e-09
4.70006e-09
4.68018e-09
4.65135e-09
4.62321e-09
4.58544e-09
4.54898e-09
4.50177e-09
4.45695e-09
4.39981e-09
4.34649e-09
4.27894e-09
4.2159e-09
4.13799e-09
4.06322e-09
3.9738e-09
3.88798e-09
3.78873e-09
3.68367e-09
3.57339e-09
3.45877e-09
3.33975e-09
3.21707e-09
3.08863e-09
2.95718e-09
2.81872e-09
2.67738e-09
2.5251e-09
2.375e-09
2.1987e-09
2.04698e-09
1.8675e-09
1.72766e-09
1.58265e-09
1.43341e-09
1.27652e-09
1.09447e-09
8.84926e-10
7.63344e-10
6.18606e-10
4.02295e-10
2.83969e-10
2.81616e-10
3.20739e-10
3.79076e-10
4.66121e-10
5.9618e-10
7.63159e-10
9.10606e-10
1.07572e-09
1.21999e-09
1.37977e-09
1.51928e-09
1.67189e-09
1.80581e-09
1.95014e-09
2.07787e-09
2.21321e-09
2.3343e-09
2.46025e-09
2.57426e-09
2.6906e-09
2.79706e-09
2.90402e-09
3.0024e-09
3.10011e-09
3.19029e-09
3.27884e-09
3.36083e-09
3.44056e-09
3.51436e-09
3.58557e-09
3.65142e-09
3.71443e-09
3.77265e-09
3.82784e-09
3.87878e-09
3.92659e-09
3.97066e-09
4.01155e-09
4.04919e-09
4.08367e-09
4.11525e-09
4.14387e-09
4.16979e-09
4.19304e-09
4.21373e-09
4.23206e-09
4.24803e-09
4.26187e-09
4.27358e-09
4.28333e-09
4.29125e-09
4.29742e-09
4.30193e-09
4.30491e-09
4.30652e-09
4.30669e-09
4.30548e-09
4.30296e-09
4.29954e-09
4.29485e-09
4.28955e-09
4.28305e-09
4.27624e-09
4.26824e-09
4.26018e-09
4.25095e-09
4.24187e-09
4.23166e-09
4.22182e-09
4.21084e-09
4.20042e-09
4.18894e-09
4.17812e-09
4.16632e-09
4.15523e-09
4.14331e-09
4.13207e-09
4.12023e-09
4.10891e-09
4.09736e-09
4.08603e-09
4.07487e-09
4.06367e-09
4.05287e-09
4.04196e-09
4.03158e-09
4.02108e-09
4.01121e-09
4.00121e-09
3.99187e-09
3.98243e-09
3.97366e-09
3.9648e-09
3.95665e-09
3.9484e-09
3.94088e-09
3.93327e-09
3.92641e-09
3.91945e-09
3.91328e-09
3.90697e-09
3.90149e-09
3.89586e-09
3.89105e-09
3.8861e-09
3.88197e-09
3.87771e-09
3.87424e-09
3.87065e-09
3.86782e-09
3.8649e-09
3.86271e-09
3.86045e-09
3.85886e-09
3.85727e-09
3.85625e-09
3.85528e-09
3.85486e-09
3.85447e-09
3.85457e-09
3.85476e-09
3.85542e-09
3.85618e-09
3.85731e-09
3.85862e-09
3.86025e-09
3.86206e-09
3.86414e-09
3.86642e-09
3.86892e-09
3.87164e-09
3.87458e-09
3.87772e-09
3.88106e-09
3.88459e-09
3.88826e-09
3.89215e-09
3.89611e-09
3.90038e-09
3.90456e-09
3.90921e-09
3.91361e-09
3.9186e-09
3.9232e-09
3.92849e-09
3.9333e-09
3.93887e-09
3.94388e-09
3.94969e-09
3.95489e-09
3.9609e-09
3.96627e-09
3.97247e-09
3.97798e-09
3.98433e-09
3.98998e-09
3.99645e-09
4.00222e-09
4.0088e-09
4.01466e-09
4.02133e-09
4.02728e-09
4.03401e-09
4.04003e-09
4.04682e-09
4.05289e-09
4.05971e-09
4.06583e-09
4.07267e-09
4.07881e-09
4.08566e-09
4.09182e-09
4.09866e-09
4.10483e-09
4.11165e-09
4.11782e-09
4.1246e-09
4.13077e-09
4.1375e-09
4.14366e-09
4.15032e-09
4.15648e-09
4.16306e-09
4.1692e-09
4.1757e-09
4.18182e-09
4.18822e-09
4.19432e-09
4.20061e-09
4.20668e-09
4.21286e-09
4.2189e-09
4.22496e-09
4.23095e-09
4.23692e-09
4.24284e-09
4.24872e-09
4.25456e-09
4.26036e-09
4.2661e-09
4.27181e-09
4.27747e-09
4.28308e-09
4.28865e-09
4.29417e-09
4.29964e-09
4.30507e-09
4.31045e-09
4.31578e-09
4.32106e-09
4.3263e-09
4.33148e-09
4.33662e-09
4.34171e-09
4.34675e-09
4.35174e-09
4.35668e-09
4.36157e-09
4.36642e-09
4.37122e-09
4.37596e-09
4.38067e-09
4.38532e-09
4.38992e-09
4.39448e-09
4.39899e-09
4.40346e-09
4.40788e-09
4.41225e-09
4.41657e-09
4.42085e-09
4.42509e-09
4.42928e-09
4.43342e-09
4.43752e-09
4.44158e-09
4.44559e-09
4.44956e-09
4.45349e-09
4.45737e-09
4.46121e-09
4.46502e-09
4.46877e-09
4.47249e-09
4.47617e-09
4.47981e-09
4.48341e-09
4.48696e-09
4.49048e-09
4.49397e-09
4.49741e-09
4.50081e-09
4.50418e-09
4.50751e-09
4.51081e-09
4.51407e-09
4.51729e-09
4.52048e-09
4.52363e-09
4.52675e-09
4.52984e-09
4.53289e-09
4.53591e-09
4.53889e-09
4.54185e-09
4.54477e-09
4.54766e-09
4.55051e-09
4.55334e-09
4.55614e-09
4.5589e-09
4.56164e-09
4.56435e-09
4.56702e-09
4.56967e-09
4.57229e-09
4.57488e-09
4.57745e-09
4.57998e-09
4.58249e-09
4.58497e-09
4.58743e-09
4.58986e-09
4.59226e-09
4.59464e-09
4.59699e-09
4.59932e-09
4.60162e-09
4.60389e-09
4.60615e-09
4.60837e-09
4.61058e-09
4.61276e-09
4.61492e-09
4.61705e-09
4.61916e-09
4.62125e-09
4.62332e-09
4.62536e-09
4.62738e-09
4.62938e-09
4.63136e-09
4.63332e-09
4.63526e-09
4.63717e-09
4.63907e-09
4.64094e-09
4.64279e-09
4.64463e-09
4.64644e-09
4.64823e-09
4.65e-09
4.65176e-09
4.65349e-09
4.65521e-09
4.6569e-09
4.65858e-09
4.66023e-09
4.66187e-09
4.66349e-09
4.66509e-09
4.66668e-09
4.66824e-09
4.66978e-09
4.67132e-09
4.67281e-09
4.67432e-09
4.67576e-09
4.67726e-09
4.67862e-09
4.68013e-09
4.68139e-09
4.68294e-09
4.68405e-09
4.68571e-09
4.6866e-09
4.68849e-09
4.68902e-09
4.69144e-09
4.69128e-09
4.21906e-12
2.72827e-11
8.36313e-11
1.54051e-10
2.40634e-10
3.38591e-10
4.46047e-10
5.59019e-10
6.75518e-10
7.93861e-10
9.12354e-10
1.03112e-09
1.14899e-09
1.26609e-09
1.38221e-09
1.49732e-09
1.61143e-09
1.72447e-09
1.83629e-09
1.94692e-09
2.05653e-09
2.16504e-09
2.27248e-09
2.3788e-09
2.48397e-09
2.588e-09
2.69087e-09
2.7926e-09
2.89323e-09
2.99276e-09
3.09124e-09
3.18864e-09
3.285e-09
3.38032e-09
3.47484e-09
3.56855e-09
3.66057e-09
3.75182e-09
3.84206e-09
3.93132e-09
4.01956e-09
4.10685e-09
4.19317e-09
4.27865e-09
4.36331e-09
4.4472e-09
4.53032e-09
4.61268e-09
4.69429e-09
4.77517e-09
4.85531e-09
4.93475e-09
5.01351e-09
5.09156e-09
5.16901e-09
5.24562e-09
5.32184e-09
5.39721e-09
5.47279e-09
5.54709e-09
5.62073e-09
5.69417e-09
5.76683e-09
5.83901e-09
5.91052e-09
5.98143e-09
6.05173e-09
6.12143e-09
6.19055e-09
6.25907e-09
6.32703e-09
6.39439e-09
6.46117e-09
6.52733e-09
6.5929e-09
6.65782e-09
6.72211e-09
6.78572e-09
6.84868e-09
6.91087e-09
6.97239e-09
7.03306e-09
7.093e-09
7.15196e-09
7.21013e-09
7.26736e-09
7.32397e-09
7.37915e-09
7.43318e-09
7.48549e-09
7.53702e-09
7.5871e-09
7.63621e-09
7.68348e-09
7.72903e-09
7.77216e-09
7.81434e-09
7.85379e-09
7.89181e-09
7.92658e-09
7.95973e-09
7.98929e-09
8.01671e-09
8.04e-09
8.06144e-09
8.07748e-09
8.09211e-09
8.10018e-09
8.10721e-09
8.1066e-09
8.10651e-09
8.09527e-09
8.08543e-09
8.06162e-09
8.03859e-09
8.00462e-09
7.96908e-09
7.92312e-09
7.87477e-09
7.81506e-09
7.75288e-09
7.67828e-09
7.60147e-09
7.51119e-09
7.41916e-09
7.31235e-09
7.20447e-09
7.08029e-09
6.95515e-09
6.8128e-09
6.66432e-09
6.50642e-09
6.33228e-09
6.15506e-09
5.96789e-09
5.7872e-09
5.60799e-09
5.40132e-09
5.19719e-09
4.97223e-09
4.75055e-09
4.45898e-09
4.13794e-09
3.80213e-09
3.47329e-09
3.12973e-09
2.80358e-09
2.46254e-09
2.14502e-09
1.83156e-09
1.54796e-09
1.32899e-09
1.23116e-09
9.80878e-10
7.42779e-10
6.24788e-10
6.24788e-10
6.98303e-10
7.68008e-10
8.09884e-10
9.55034e-10
1.20446e-09
1.46427e-09
1.75401e-09
2.02085e-09
2.30901e-09
2.572e-09
2.85356e-09
3.10963e-09
3.38142e-09
3.62889e-09
3.88899e-09
4.12664e-09
4.37355e-09
4.60041e-09
4.8331e-09
5.04841e-09
5.26597e-09
5.46899e-09
5.67122e-09
5.86096e-09
6.0481e-09
6.22387e-09
6.39596e-09
6.55753e-09
6.71465e-09
6.86203e-09
7.00444e-09
7.1378e-09
7.26586e-09
7.38552e-09
7.49968e-09
7.60611e-09
7.70694e-09
7.80068e-09
7.88883e-09
7.97051e-09
8.0467e-09
8.11699e-09
8.18196e-09
8.24159e-09
8.29609e-09
8.3457e-09
8.39056e-09
8.43087e-09
8.46684e-09
8.49859e-09
8.52641e-09
8.55039e-09
8.57079e-09
8.58773e-09
8.6014e-09
8.61199e-09
8.61968e-09
8.62468e-09
8.62715e-09
8.62705e-09
8.62428e-09
8.61966e-09
8.61293e-09
8.60468e-09
8.59453e-09
8.58317e-09
8.57004e-09
8.55603e-09
8.54042e-09
8.52423e-09
8.5066e-09
8.48871e-09
8.46946e-09
8.45024e-09
8.42979e-09
8.40958e-09
8.38828e-09
8.36739e-09
8.34556e-09
8.32423e-09
8.30222e-09
8.28064e-09
8.2588e-09
8.23714e-09
8.21571e-09
8.19421e-09
8.17326e-09
8.15216e-09
8.13185e-09
8.11139e-09
8.0918e-09
8.07212e-09
8.05336e-09
8.03457e-09
8.01673e-09
7.99891e-09
7.9821e-09
7.96532e-09
7.9496e-09
7.93391e-09
7.91933e-09
7.90478e-09
7.89138e-09
7.87801e-09
7.8658e-09
7.85363e-09
7.84264e-09
7.83169e-09
7.82191e-09
7.81218e-09
7.80361e-09
7.7951e-09
7.78772e-09
7.78042e-09
7.77421e-09
7.7681e-09
7.76304e-09
7.75811e-09
7.75417e-09
7.75037e-09
7.74754e-09
7.74483e-09
7.74302e-09
7.74139e-09
7.74061e-09
7.74003e-09
7.74019e-09
7.7406e-09
7.74167e-09
7.74309e-09
7.74502e-09
7.74732e-09
7.75008e-09
7.75324e-09
7.75682e-09
7.76079e-09
7.76515e-09
7.76984e-09
7.77488e-09
7.78026e-09
7.78594e-09
7.79201e-09
7.79822e-09
7.80495e-09
7.81166e-09
7.819e-09
7.82619e-09
7.83411e-09
7.84175e-09
7.8502e-09
7.85827e-09
7.86719e-09
7.87566e-09
7.885e-09
7.89384e-09
7.90354e-09
7.9127e-09
7.92272e-09
7.93218e-09
7.94248e-09
7.95219e-09
7.96273e-09
7.97268e-09
7.98343e-09
7.99357e-09
8.0045e-09
8.0148e-09
8.02587e-09
8.03631e-09
8.0475e-09
8.05805e-09
8.06933e-09
8.07996e-09
8.0913e-09
8.102e-09
8.11337e-09
8.12411e-09
8.1355e-09
8.14626e-09
8.15764e-09
8.16841e-09
8.17976e-09
8.19053e-09
8.20181e-09
8.21257e-09
8.22377e-09
8.23451e-09
8.24561e-09
8.25631e-09
8.26729e-09
8.27796e-09
8.28881e-09
8.29942e-09
8.31013e-09
8.32068e-09
8.33123e-09
8.3417e-09
8.35211e-09
8.36246e-09
8.37275e-09
8.38297e-09
8.39313e-09
8.40321e-09
8.41322e-09
8.42316e-09
8.43303e-09
8.44282e-09
8.45254e-09
8.46218e-09
8.47175e-09
8.48123e-09
8.49064e-09
8.49997e-09
8.50922e-09
8.51838e-09
8.52747e-09
8.53648e-09
8.5454e-09
8.55425e-09
8.56301e-09
8.57169e-09
8.58029e-09
8.58881e-09
8.59724e-09
8.6056e-09
8.61387e-09
8.62207e-09
8.63018e-09
8.63821e-09
8.64616e-09
8.65403e-09
8.66182e-09
8.66953e-09
8.67717e-09
8.68472e-09
8.6922e-09
8.6996e-09
8.70692e-09
8.71417e-09
8.72134e-09
8.72844e-09
8.73546e-09
8.74241e-09
8.74928e-09
8.75608e-09
8.76281e-09
8.76947e-09
8.77606e-09
8.78257e-09
8.78902e-09
8.7954e-09
8.80171e-09
8.80795e-09
8.81412e-09
8.82023e-09
8.82628e-09
8.83225e-09
8.83817e-09
8.84402e-09
8.84981e-09
8.85553e-09
8.86119e-09
8.8668e-09
8.87234e-09
8.87782e-09
8.88324e-09
8.88861e-09
8.89392e-09
8.89917e-09
8.90436e-09
8.9095e-09
8.91458e-09
8.91961e-09
8.92459e-09
8.92951e-09
8.93438e-09
8.93919e-09
8.94396e-09
8.94867e-09
8.95334e-09
8.95795e-09
8.96252e-09
8.96703e-09
8.9715e-09
8.97592e-09
8.98029e-09
8.98462e-09
8.9889e-09
8.99313e-09
8.99732e-09
9.00147e-09
9.00557e-09
9.00963e-09
9.01364e-09
9.01761e-09
9.02154e-09
9.02543e-09
9.02927e-09
9.03308e-09
9.03684e-09
9.04057e-09
9.04425e-09
9.04789e-09
9.0515e-09
9.05506e-09
9.05859e-09
9.06208e-09
9.06553e-09
9.06895e-09
9.07233e-09
9.07567e-09
9.07897e-09
9.08224e-09
9.08547e-09
9.08867e-09
9.09183e-09
9.09496e-09
9.09805e-09
9.10111e-09
9.10413e-09
9.10712e-09
9.11008e-09
9.113e-09
9.11589e-09
9.11874e-09
9.12157e-09
9.12434e-09
9.12711e-09
9.12982e-09
9.13253e-09
9.13515e-09
9.13782e-09
9.14034e-09
9.14299e-09
9.14537e-09
9.14804e-09
9.15024e-09
9.15298e-09
9.15493e-09
9.15785e-09
9.1594e-09
9.16263e-09
9.16349e-09
1.31461e-11
6.56569e-11
1.67762e-10
2.86895e-10
4.17181e-10
5.5982e-10
7.12758e-10
8.72292e-10
1.03615e-09
1.2024e-09
1.36961e-09
1.53685e-09
1.70291e-09
1.86754e-09
2.03054e-09
2.19182e-09
2.35129e-09
2.50874e-09
2.66397e-09
2.81702e-09
2.96821e-09
3.11748e-09
3.2648e-09
3.41017e-09
3.55354e-09
3.69492e-09
3.83435e-09
3.97182e-09
4.10747e-09
4.24126e-09
4.37334e-09
4.50364e-09
4.63242e-09
4.75981e-09
4.88604e-09
5.00976e-09
5.13236e-09
5.25349e-09
5.3732e-09
5.49147e-09
5.60827e-09
5.72364e-09
5.8375e-09
5.94997e-09
6.06102e-09
6.17069e-09
6.27902e-09
6.38605e-09
6.4918e-09
6.59633e-09
6.69966e-09
6.80184e-09
6.90292e-09
7.00291e-09
7.10195e-09
7.19988e-09
7.29714e-09
7.3932e-09
7.48872e-09
7.58196e-09
7.67281e-09
7.76299e-09
7.85146e-09
7.93946e-09
8.02635e-09
8.11249e-09
8.19767e-09
8.28184e-09
8.36498e-09
8.44703e-09
8.528e-09
8.6078e-09
8.68649e-09
8.76394e-09
8.84021e-09
8.91519e-09
8.98892e-09
9.06129e-09
9.13234e-09
9.20191e-09
9.27012e-09
9.33673e-09
9.40193e-09
9.46538e-09
9.52731e-09
9.5873e-09
9.64546e-09
9.7016e-09
9.75618e-09
9.80806e-09
9.85807e-09
9.90488e-09
9.95002e-09
9.99157e-09
1.0031e-08
1.00661e-08
1.0099e-08
1.01269e-08
1.01528e-08
1.01732e-08
1.01913e-08
1.02033e-08
1.02123e-08
1.02141e-08
1.0214e-08
1.02049e-08
1.0194e-08
1.01729e-08
1.01498e-08
1.01148e-08
1.00755e-08
1.00287e-08
9.96188e-09
9.90169e-09
9.84716e-09
9.76898e-09
9.69095e-09
9.59408e-09
9.49633e-09
9.38158e-09
9.26465e-09
9.13111e-09
8.94617e-09
8.72655e-09
8.50298e-09
8.26086e-09
8.01686e-09
7.75218e-09
7.48872e-09
7.20304e-09
6.92225e-09
6.61865e-09
6.31596e-09
6.00262e-09
5.67472e-09
5.31867e-09
4.95952e-09
4.59745e-09
4.23517e-09
3.86609e-09
3.50008e-09
3.13101e-09
2.77462e-09
2.43267e-09
2.13379e-09
1.8971e-09
1.75104e-09
1.6692e-09
1.33555e-09
1.05497e-09
9.07398e-10
9.07398e-10
9.43241e-10
1.13604e-09
1.21816e-09
1.29898e-09
1.47302e-09
1.7613e-09
2.07576e-09
2.44292e-09
2.79525e-09
3.17524e-09
3.53144e-09
3.9095e-09
4.26125e-09
4.63262e-09
4.97712e-09
5.3383e-09
5.67293e-09
6.02093e-09
6.34408e-09
6.67719e-09
6.98756e-09
7.30423e-09
7.60081e-09
7.89983e-09
8.1816e-09
8.46229e-09
8.72796e-09
8.99025e-09
9.23874e-09
9.48254e-09
9.71334e-09
9.9385e-09
1.01514e-08
1.03579e-08
1.05528e-08
1.0741e-08
1.09182e-08
1.10882e-08
1.1248e-08
1.14005e-08
1.15434e-08
1.16789e-08
1.18055e-08
1.19249e-08
1.20359e-08
1.21399e-08
1.22361e-08
1.23256e-08
1.24079e-08
1.24837e-08
1.25529e-08
1.26159e-08
1.26728e-08
1.2724e-08
1.27695e-08
1.28097e-08
1.28448e-08
1.2875e-08
1.29005e-08
1.29215e-08
1.29383e-08
1.29511e-08
1.296e-08
1.29655e-08
1.29676e-08
1.29661e-08
1.29615e-08
1.29542e-08
1.29445e-08
1.29323e-08
1.29181e-08
1.29016e-08
1.28834e-08
1.28632e-08
1.28418e-08
1.28185e-08
1.27943e-08
1.27686e-08
1.27423e-08
1.27146e-08
1.26865e-08
1.26574e-08
1.26281e-08
1.25978e-08
1.25677e-08
1.25369e-08
1.25062e-08
1.24751e-08
1.24442e-08
1.24134e-08
1.23825e-08
1.23521e-08
1.23215e-08
1.22918e-08
1.22619e-08
1.22329e-08
1.22038e-08
1.21758e-08
1.21478e-08
1.21209e-08
1.2094e-08
1.20683e-08
1.20428e-08
1.20185e-08
1.19943e-08
1.19715e-08
1.19488e-08
1.19275e-08
1.19063e-08
1.18866e-08
1.1867e-08
1.18488e-08
1.18309e-08
1.18144e-08
1.1798e-08
1.17831e-08
1.17684e-08
1.17551e-08
1.17421e-08
1.17304e-08
1.1719e-08
1.17089e-08
1.16991e-08
1.16905e-08
1.16822e-08
1.16752e-08
1.16685e-08
1.16629e-08
1.16576e-08
1.16536e-08
1.16497e-08
1.1647e-08
1.16445e-08
1.16431e-08
1.1642e-08
1.16418e-08
1.1642e-08
1.1643e-08
1.16445e-08
1.16466e-08
1.16492e-08
1.16524e-08
1.16561e-08
1.16603e-08
1.16651e-08
1.16703e-08
1.1676e-08
1.1682e-08
1.16886e-08
1.16955e-08
1.1703e-08
1.17105e-08
1.17189e-08
1.17272e-08
1.17362e-08
1.17452e-08
1.1755e-08
1.17646e-08
1.1775e-08
1.17852e-08
1.17961e-08
1.18068e-08
1.18183e-08
1.18294e-08
1.18413e-08
1.18529e-08
1.18652e-08
1.18772e-08
1.18899e-08
1.19021e-08
1.19151e-08
1.19277e-08
1.1941e-08
1.19538e-08
1.19673e-08
1.19803e-08
1.1994e-08
1.20071e-08
1.2021e-08
1.20343e-08
1.20482e-08
1.20617e-08
1.20757e-08
1.20892e-08
1.21033e-08
1.21169e-08
1.2131e-08
1.21446e-08
1.21587e-08
1.21723e-08
1.21864e-08
1.22e-08
1.2214e-08
1.22276e-08
1.22415e-08
1.22551e-08
1.22689e-08
1.22824e-08
1.2296e-08
1.23095e-08
1.2323e-08
1.23364e-08
1.23497e-08
1.2363e-08
1.23762e-08
1.23894e-08
1.24024e-08
1.24154e-08
1.24283e-08
1.24411e-08
1.24539e-08
1.24665e-08
1.24791e-08
1.24916e-08
1.2504e-08
1.25163e-08
1.25285e-08
1.25406e-08
1.25526e-08
1.25646e-08
1.25764e-08
1.25881e-08
1.25998e-08
1.26113e-08
1.26227e-08
1.26341e-08
1.26453e-08
1.26564e-08
1.26675e-08
1.26784e-08
1.26892e-08
1.27e-08
1.27106e-08
1.27211e-08
1.27316e-08
1.27419e-08
1.27521e-08
1.27623e-08
1.27723e-08
1.27822e-08
1.27921e-08
1.28018e-08
1.28114e-08
1.2821e-08
1.28304e-08
1.28398e-08
1.2849e-08
1.28582e-08
1.28673e-08
1.28762e-08
1.28851e-08
1.28939e-08
1.29026e-08
1.29112e-08
1.29197e-08
1.29282e-08
1.29365e-08
1.29448e-08
1.29529e-08
1.2961e-08
1.2969e-08
1.29769e-08
1.29848e-08
1.29925e-08
1.30002e-08
1.30078e-08
1.30153e-08
1.30227e-08
1.303e-08
1.30373e-08
1.30445e-08
1.30516e-08
1.30586e-08
1.30656e-08
1.30725e-08
1.30793e-08
1.30861e-08
1.30927e-08
1.30993e-08
1.31059e-08
1.31123e-08
1.31187e-08
1.31251e-08
1.31313e-08
1.31375e-08
1.31437e-08
1.31497e-08
1.31557e-08
1.31617e-08
1.31675e-08
1.31733e-08
1.31791e-08
1.31848e-08
1.31904e-08
1.3196e-08
1.32015e-08
1.32069e-08
1.32123e-08
1.32177e-08
1.3223e-08
1.32282e-08
1.32334e-08
1.32385e-08
1.32435e-08
1.32485e-08
1.32535e-08
1.32584e-08
1.32632e-08
1.3268e-08
1.32728e-08
1.32775e-08
1.32821e-08
1.32867e-08
1.32913e-08
1.32958e-08
1.33002e-08
1.33046e-08
1.3309e-08
1.33133e-08
1.33175e-08
1.33217e-08
1.33259e-08
1.333e-08
1.33341e-08
1.33381e-08
1.33421e-08
1.3346e-08
1.33499e-08
1.33538e-08
1.33576e-08
1.33613e-08
1.3365e-08
1.33687e-08
1.33723e-08
1.33759e-08
1.33794e-08
1.3383e-08
1.33864e-08
1.33899e-08
1.33931e-08
1.33966e-08
1.33996e-08
1.34031e-08
1.34059e-08
1.34095e-08
1.3412e-08
1.34157e-08
1.34176e-08
3.66388e-11
1.24391e-10
2.80382e-10
4.54726e-10
6.28207e-10
8.12434e-10
1.00562e-09
1.20535e-09
1.40912e-09
1.61565e-09
1.82295e-09
2.02977e-09
2.23504e-09
2.43816e-09
2.63873e-09
2.83652e-09
3.03126e-09
3.22265e-09
3.41077e-09
3.59595e-09
3.77867e-09
3.95839e-09
4.1356e-09
4.31001e-09
4.48166e-09
4.65058e-09
4.81684e-09
4.98046e-09
5.14152e-09
5.3001e-09
5.45634e-09
5.61021e-09
5.76188e-09
5.91135e-09
6.05861e-09
6.20355e-09
6.34544e-09
6.48523e-09
6.62282e-09
6.7582e-09
6.8913e-09
7.02232e-09
7.15123e-09
7.27832e-09
7.40351e-09
7.52701e-09
7.64872e-09
7.76866e-09
7.88681e-09
8.00321e-09
8.11785e-09
8.23077e-09
8.34193e-09
8.45137e-09
8.55896e-09
8.66506e-09
8.76911e-09
8.87173e-09
8.97251e-09
9.07163e-09
9.17001e-09
9.2664e-09
9.36206e-09
9.45502e-09
9.54639e-09
9.63586e-09
9.72362e-09
9.80957e-09
9.89379e-09
9.97618e-09
1.00568e-08
1.01355e-08
1.02124e-08
1.02872e-08
1.03602e-08
1.0431e-08
1.04999e-08
1.05664e-08
1.06309e-08
1.06928e-08
1.07528e-08
1.08099e-08
1.08651e-08
1.09171e-08
1.09671e-08
1.10137e-08
1.10579e-08
1.10982e-08
1.11355e-08
1.11679e-08
1.11983e-08
1.12244e-08
1.12477e-08
1.1266e-08
1.12819e-08
1.12909e-08
1.12974e-08
1.12956e-08
1.12925e-08
1.12803e-08
1.12415e-08
1.11681e-08
1.10935e-08
1.10046e-08
1.09145e-08
1.08093e-08
1.07028e-08
1.058e-08
1.04572e-08
1.03155e-08
1.01768e-08
1.00193e-08
9.86495e-09
9.68896e-09
9.49396e-09
9.29378e-09
9.08485e-09
8.86434e-09
8.63641e-09
8.39416e-09
8.14547e-09
7.88093e-09
7.61092e-09
7.32425e-09
7.0331e-09
6.72459e-09
6.41371e-09
6.08385e-09
5.75436e-09
5.40594e-09
5.05942e-09
4.69858e-09
4.33896e-09
3.97463e-09
3.6189e-09
3.2724e-09
2.95057e-09
2.66565e-09
2.43835e-09
2.28159e-09
2.19106e-09
1.98831e-09
1.66053e-09
1.39352e-09
1.23788e-09
1.23283e-09
1.23283e-09
1.38659e-09
1.65728e-09
1.69027e-09
1.77419e-09
1.97914e-09
2.26136e-09
2.6296e-09
3.01648e-09
3.44383e-09
3.85834e-09
4.29998e-09
4.72003e-09
5.171e-09
5.59169e-09
6.03514e-09
6.45014e-09
6.88514e-09
7.29188e-09
7.71525e-09
8.11204e-09
8.52279e-09
8.90762e-09
9.30292e-09
9.67397e-09
1.0052e-08
1.04081e-08
1.07673e-08
1.11076e-08
1.14471e-08
1.177e-08
1.20895e-08
1.23938e-08
1.2693e-08
1.29778e-08
1.32566e-08
1.35215e-08
1.37796e-08
1.40245e-08
1.42618e-08
1.44866e-08
1.47035e-08
1.49084e-08
1.51051e-08
1.52905e-08
1.54676e-08
1.5634e-08
1.57921e-08
1.59402e-08
1.608e-08
1.62105e-08
1.6333e-08
1.64466e-08
1.65526e-08
1.66503e-08
1.67406e-08
1.68232e-08
1.68988e-08
1.69673e-08
1.70291e-08
1.70844e-08
1.71333e-08
1.71763e-08
1.72135e-08
1.72451e-08
1.72715e-08
1.72928e-08
1.73092e-08
1.73212e-08
1.73288e-08
1.73325e-08
1.73319e-08
1.73274e-08
1.73195e-08
1.73086e-08
1.72946e-08
1.7278e-08
1.72587e-08
1.72371e-08
1.72131e-08
1.71873e-08
1.71593e-08
1.71299e-08
1.70987e-08
1.70663e-08
1.70323e-08
1.69976e-08
1.69615e-08
1.6925e-08
1.68873e-08
1.68494e-08
1.68107e-08
1.67719e-08
1.67326e-08
1.66933e-08
1.66538e-08
1.66143e-08
1.65751e-08
1.65357e-08
1.64971e-08
1.64582e-08
1.64203e-08
1.63822e-08
1.63452e-08
1.63082e-08
1.62723e-08
1.62366e-08
1.6202e-08
1.61677e-08
1.61347e-08
1.61019e-08
1.60705e-08
1.60393e-08
1.60097e-08
1.59803e-08
1.59524e-08
1.59248e-08
1.58988e-08
1.58732e-08
1.5849e-08
1.58253e-08
1.58031e-08
1.57813e-08
1.5761e-08
1.57412e-08
1.57229e-08
1.57049e-08
1.56885e-08
1.56725e-08
1.5658e-08
1.56439e-08
1.56313e-08
1.5619e-08
1.56082e-08
1.55978e-08
1.55888e-08
1.55801e-08
1.55728e-08
1.55658e-08
1.55602e-08
1.55548e-08
1.55508e-08
1.55471e-08
1.55445e-08
1.55424e-08
1.55413e-08
1.55406e-08
1.55408e-08
1.55416e-08
1.55431e-08
1.55452e-08
1.5548e-08
1.55513e-08
1.55552e-08
1.55597e-08
1.55647e-08
1.55703e-08
1.55763e-08
1.5583e-08
1.559e-08
1.55977e-08
1.56055e-08
1.56141e-08
1.56228e-08
1.56322e-08
1.56417e-08
1.56519e-08
1.5662e-08
1.56729e-08
1.56838e-08
1.56953e-08
1.57067e-08
1.57188e-08
1.57308e-08
1.57434e-08
1.57558e-08
1.57689e-08
1.57818e-08
1.57953e-08
1.58085e-08
1.58224e-08
1.5836e-08
1.58501e-08
1.5864e-08
1.58784e-08
1.58925e-08
1.59072e-08
1.59215e-08
1.59363e-08
1.59508e-08
1.59658e-08
1.59804e-08
1.59955e-08
1.60102e-08
1.60253e-08
1.60401e-08
1.60553e-08
1.60701e-08
1.60853e-08
1.61002e-08
1.61154e-08
1.61302e-08
1.61453e-08
1.61602e-08
1.61752e-08
1.619e-08
1.62049e-08
1.62197e-08
1.62345e-08
1.62491e-08
1.62638e-08
1.62784e-08
1.62929e-08
1.63074e-08
1.63218e-08
1.63361e-08
1.63503e-08
1.63645e-08
1.63786e-08
1.63925e-08
1.64064e-08
1.64203e-08
1.6434e-08
1.64476e-08
1.64611e-08
1.64746e-08
1.64879e-08
1.65012e-08
1.65143e-08
1.65273e-08
1.65403e-08
1.65531e-08
1.65658e-08
1.65785e-08
1.6591e-08
1.66034e-08
1.66157e-08
1.66279e-08
1.664e-08
1.6652e-08
1.66639e-08
1.66756e-08
1.66873e-08
1.66988e-08
1.67103e-08
1.67216e-08
1.67329e-08
1.6744e-08
1.6755e-08
1.67659e-08
1.67767e-08
1.67874e-08
1.6798e-08
1.68085e-08
1.68189e-08
1.68292e-08
1.68394e-08
1.68495e-08
1.68595e-08
1.68694e-08
1.68791e-08
1.68888e-08
1.68984e-08
1.69079e-08
1.69173e-08
1.69266e-08
1.69358e-08
1.69449e-08
1.69539e-08
1.69628e-08
1.69717e-08
1.69804e-08
1.6989e-08
1.69976e-08
1.70061e-08
1.70144e-08
1.70227e-08
1.70309e-08
1.70391e-08
1.70471e-08
1.70551e-08
1.70629e-08
1.70707e-08
1.70784e-08
1.7086e-08
1.70936e-08
1.71011e-08
1.71084e-08
1.71158e-08
1.7123e-08
1.71301e-08
1.71372e-08
1.71442e-08
1.71512e-08
1.7158e-08
1.71648e-08
1.71716e-08
1.71782e-08
1.71848e-08
1.71913e-08
1.71977e-08
1.72041e-08
1.72104e-08
1.72167e-08
1.72228e-08
1.7229e-08
1.7235e-08