/*--------------------------------*- C++ -*----------------------------------*\
| =========                 |                                                 |
| \\      /  F ield         | OpenFOAM: The Open Source CFD Toolbox           |
|  \\    /   O peration     | Version:  2012                                  |
|   \\  /    A nd           | Website:  www.openfoam.com                      |
|    \\/     M anipulation  |                                                 |
\*---------------------------------------------------------------------------*/
FoamFile
{
    version     2.0;
    format      ascii;
    class       volVectorField;
    location    "4020";
    object      U;
}
// * * * * * * * * * * * * * * * * * * * * * * * * * * * * * * * * * * * * * //

dimensions      [0 1 -1 0 0 0 0];


internalField   nonuniform List<vector> 
20400
(
(3.52849e-06 -3.45283e-06 0)
(5.17815e-06 -1.16966e-06 0)
(-4.67345e-06 3.70707e-06 0)
(-2.50034e-05 6.36398e-06 0)
(-5.8269e-05 7.81214e-06 0)
(-9.85065e-05 7.15751e-06 0)
(-0.000144671 6.39695e-06 0)
(-0.000193524 5.47927e-06 0)
(-0.000243162 4.71012e-06 0)
(-0.000293934 4.21494e-06 0)
(-0.000343448 4.26805e-06 0)
(-0.000393357 4.19508e-06 0)
(-0.000442493 4.01931e-06 0)
(-0.000491434 3.62758e-06 0)
(-0.000540071 3.06347e-06 0)
(-0.000588519 2.27953e-06 0)
(-0.000636817 1.25041e-06 0)
(-0.000684999 3.53661e-08 0)
(-0.000733081 -1.3287e-06 0)
(-0.000780973 -2.51556e-06 0)
(-0.000828576 -3.74375e-06 0)
(-0.000875892 -4.96914e-06 0)
(-0.00092295 -6.10923e-06 0)
(-0.000969738 -7.09161e-06 0)
(-0.00101624 -7.8429e-06 0)
(-0.00106244 -8.29551e-06 0)
(-0.00110833 -8.39362e-06 0)
(-0.0011539 -8.08039e-06 0)
(-0.00119918 -7.32414e-06 0)
(-0.00124418 -6.08516e-06 0)
(-0.00128892 -4.35726e-06 0)
(-0.0013334 -2.10864e-06 0)
(-0.00137749 7.67655e-07 0)
(-0.00142086 5.34323e-06 0)
(-0.00146338 8.93139e-06 0)
(-0.00150563 1.13678e-05 0)
(-0.00154885 1.50874e-05 0)
(-0.00159089 1.87799e-05 0)
(-0.00163279 2.22601e-05 0)
(-0.00167414 2.53977e-05 0)
(-0.00171509 2.80739e-05 0)
(-0.00175569 3.0211e-05 0)
(-0.00179595 3.17953e-05 0)
(-0.00183596 3.283e-05 0)
(-0.00187573 3.33668e-05 0)
(-0.0019153 3.34701e-05 0)
(-0.00195466 3.32079e-05 0)
(-0.00199382 3.26358e-05 0)
(-0.00203276 3.17896e-05 0)
(-0.0020715 3.06817e-05 0)
(-0.00211001 2.92989e-05 0)
(-0.00214832 2.76061e-05 0)
(-0.00218642 2.5535e-05 0)
(-0.00222432 2.30273e-05 0)
(-0.00226209 1.99568e-05 0)
(-0.00229965 1.6319e-05 0)
(-0.00233719 1.2035e-05 0)
(-0.00237436 7.6782e-06 0)
(-0.00241118 2.21938e-06 0)
(-0.00244833 -4.74792e-06 0)
(-0.00248587 -1.03744e-05 0)
(-0.00252347 -1.5405e-05 0)
(-0.00256082 -1.91498e-05 0)
(-0.00259813 -2.18675e-05 0)
(-0.00263526 -2.3578e-05 0)
(-0.00267221 -2.44785e-05 0)
(-0.00270897 -2.47365e-05 0)
(-0.00274556 -2.45042e-05 0)
(-0.002782 -2.39085e-05 0)
(-0.00281831 -2.30378e-05 0)
(-0.00285452 -2.1965e-05 0)
(-0.00289062 -2.07283e-05 0)
(-0.00292665 -1.93676e-05 0)
(-0.00296259 -1.78923e-05 0)
(-0.00299846 -1.63262e-05 0)
(-0.00303425 -1.46664e-05 0)
(-0.00306999 -1.29318e-05 0)
(-0.00310564 -1.11164e-05 0)
(-0.00314123 -9.24456e-06 0)
(-0.00317672 -7.30168e-06 0)
(-0.00321218 -5.3267e-06 0)
(-0.00324754 -3.29465e-06 0)
(-0.00328288 -1.2535e-06 0)
(-0.00331808 8.40414e-07 0)
(-0.0033531 3.04625e-06 0)
(-0.00338752 5.79475e-06 0)
(-0.00342141 7.10634e-06 0)
(-0.00345606 7.91833e-06 0)
(-0.00349039 8.28379e-06 0)
(-0.0035245 8.38004e-06 0)
(-0.00355836 7.81496e-06 0)
(-0.00359169 7.02969e-06 0)
(-0.00362451 5.55496e-06 0)
(-0.00365672 2.06925e-06 0)
(-0.00368965 -9.81376e-07 0)
(-0.00372159 -4.32416e-06 0)
(-0.00375371 -8.17046e-06 0)
(-0.00378484 -1.20325e-05 0)
(-0.00381585 -1.64633e-05 0)
(-0.00384577 -2.06692e-05 0)
(-0.00387546 -2.56225e-05 0)
(-0.00390387 -3.00183e-05 0)
(-0.00393195 -3.52408e-05 0)
(-0.00395845 -3.92698e-05 0)
(-0.00398488 -4.40752e-05 0)
(-0.00400924 -4.70156e-05 0)
(-0.00403427 -5.04902e-05 0)
(-0.00405586 -5.0099e-05 0)
(-0.00408001 -5.0756e-05 0)
(-0.00409793 -4.44216e-05 0)
(-0.00412114 -3.83942e-05 0)
(-0.00413465 -2.27652e-05 0)
(-0.00415358 -5.0776e-06 0)
(-0.00415874 2.18343e-05 0)
(-0.00417075 4.36718e-05 0)
(-0.00417197 6.9067e-05 0)
(-0.00417731 8.32387e-05 0)
(-0.00417361 0.000105331 0)
(-0.00417246 0.000114072 0)
(-0.0041637 0.000133596 0)
(-0.00415585 0.00014007 0)
(-0.00414078 0.000157499 0)
(-0.00412606 0.000163461 0)
(-0.00410339 0.000178714 0)
(-0.0040811 0.000184255 0)
(-0.00404979 0.000196087 0)
(-0.00401868 0.000199947 0)
(-0.00397718 0.000205158 0)
(-0.00393533 0.000203135 0)
(-0.00388141 0.000195691 0)
(-0.00382515 0.000177526 0)
(-0.00375987 0.000148097 0)
(-0.0036872 0.000102637 0)
(-0.00361326 4.27751e-05 0)
(-0.0035323 -2.92997e-05 0)
(-0.00345976 -0.000108882 0)
(-0.00339264 -0.000171814 0)
(-0.00331721 -0.000228463 0)
(-0.00323702 -0.000260233 0)
(-0.00314689 -0.000296024 0)
(-0.00305632 -0.00031123 0)
(-0.00295437 -0.000333069 0)
(-0.00285597 -0.000338549 0)
(-0.0027468 -0.000345887 0)
(-0.00264345 -0.000337613 0)
(-0.00253138 -0.000321469 0)
(-0.00242642 -0.000281063 0)
(-0.00230931 -0.000225183 0)
(-0.00219661 -0.000127546 0)
(-0.00206471 -3.09004e-05 0)
(-0.00194067 9.47068e-05 0)
(-0.00176615 0.000169515 0)
(-0.00162922 0.000229305 0)
(-0.00146027 0.000250804 0)
(-0.00132139 0.000264084 0)
(-0.00114387 0.000256245 0)
(-0.00100225 0.00021986 0)
(-0.000775107 0.000150695 0)
(-0.000663243 1.21347e-05 0)
(-0.000564718 -2.61231e-05 0)
(-0.000430252 -5.68162e-05 0)
(-0.000293451 -6.50166e-05 0)
(-0.000157578 -6.86087e-05 0)
(-9.24649e-06 -6.76491e-05 0)
(0.000119325 -5.98401e-05 0)
(0.00027202 -5.43821e-05 0)
(0.000397188 -4.61055e-05 0)
(0.000545372 -4.17158e-05 0)
(0.000666391 -3.47557e-05 0)
(0.000808707 -3.25904e-05 0)
(0.000925271 -2.71742e-05 0)
(0.00106039 -2.64668e-05 0)
(0.00117205 -2.1995e-05 0)
(0.00129902 -2.21928e-05 0)
(0.00140541 -1.83402e-05 0)
(0.00152369 -1.90509e-05 0)
(0.00162447 -1.5746e-05 0)
(0.00173376 -1.6652e-05 0)
(0.00182853 -1.36496e-05 0)
(0.00192901 -1.45706e-05 0)
(0.00201725 -1.23274e-05 0)
(0.00210901 -1.26793e-05 0)
(0.00219041 -1.11891e-05 0)
(0.00227357 -1.1083e-05 0)
(0.00234811 -1.01189e-05 0)
(0.0024227 -9.76507e-06 0)
(0.00249039 -8.93851e-06 0)
(0.00255703 -8.59056e-06 0)
(0.00261767 -7.86598e-06 0)
(0.00267676 -7.51146e-06 0)
(0.00273059 -6.87641e-06 0)
(0.00278246 -6.5233e-06 0)
(0.00282976 -5.96645e-06 0)
(0.0028748 -5.62052e-06 0)
(0.00291592 -5.13122e-06 0)
(0.00295455 -4.79659e-06 0)
(0.00298987 -4.36763e-06 0)
(0.00302254 -4.05459e-06 0)
(0.0030525 -3.67652e-06 0)
(0.00307969 -3.31042e-06 0)
(0.00310449 -3.08788e-06 0)
(0.00312684 -2.76039e-06 0)
(0.00314691 -2.46902e-06 0)
(0.00316477 -2.20168e-06 0)
(0.00318049 -1.94443e-06 0)
(0.00319429 -1.71416e-06 0)
(0.00320613 -1.45767e-06 0)
(0.00321622 -1.25858e-06 0)
(0.00322458 -1.02496e-06 0)
(0.00323133 -7.70301e-07 0)
(0.00323662 -5.46849e-07 0)
(0.00324057 -2.94366e-07 0)
(0.00324316 -6.39149e-08 0)
(0.00324457 1.55163e-07 0)
(0.00324497 2.5812e-07 0)
(0.003244 5.00574e-07 0)
(0.00324217 6.67874e-07 0)
(0.00323924 6.98456e-07 0)
(0.00323567 6.6506e-07 0)
(0.00323096 6.65555e-07 0)
(0.00322602 5.70668e-07 0)
(0.00321978 5.5783e-07 0)
(0.00321381 5.03982e-07 0)
(0.0032064 4.37708e-07 0)
(0.00319958 4.82077e-07 0)
(0.00319128 3.52548e-07 0)
(0.00318377 4.80951e-07 0)
(0.00317478 2.89261e-07 0)
(0.00316675 4.84585e-07 0)
(0.00315726 2.91985e-07 0)
(0.00314887 4.73542e-07 0)
(0.00313908 3.32438e-07 0)
(0.00313046 4.59533e-07 0)
(0.00312054 3.65212e-07 0)
(0.00311178 4.54922e-07 0)
(0.00310189 3.93146e-07 0)
(0.00309305 4.64694e-07 0)
(0.00308338 4.2934e-07 0)
(0.00307449 5.03325e-07 0)
(0.00306524 5.01756e-07 0)
(0.00305633 6.08669e-07 0)
(0.00304757 6.17721e-07 0)
(0.00303878 7.53487e-07 0)
(0.00303041 7.39975e-07 0)
(0.0030219 8.94909e-07 0)
(0.00301396 8.25289e-07 0)
(0.00300584 9.67059e-07 0)
(0.00299838 8.21852e-07 0)
(0.00299073 9.65904e-07 0)
(0.00298376 7.84821e-07 0)
(0.00297661 9.39169e-07 0)
(0.00297015 7.32226e-07 0)
(0.00296351 8.9926e-07 0)
(0.00295761 6.73988e-07 0)
(0.00295149 8.49753e-07 0)
(0.00294614 6.10988e-07 0)
(0.00294057 7.93252e-07 0)
(0.0029358 5.44747e-07 0)
(0.00293077 7.31255e-07 0)
(0.00292659 4.73158e-07 0)
(0.00292211 6.39229e-07 0)
(0.00291852 3.98192e-07 0)
(0.0029146 5.43711e-07 0)
(0.00291158 3.24712e-07 0)
(0.00290823 4.46154e-07 0)
(0.00290577 2.38536e-07 0)
(0.00290298 3.46219e-07 0)
(0.00290107 1.44212e-07 0)
(0.00289884 2.45598e-07 0)
(0.00289745 5.37607e-08 0)
(0.00289578 1.46323e-07 0)
(0.0028949 -3.2681e-08 0)
(0.00289379 5.0562e-08 0)
(0.00289336 -1.18178e-07 0)
(0.00289284 -3.65726e-08 0)
(0.0028928 -2.12854e-07 0)
(0.0028928 -7.89119e-08 0)
(0.00289328 -2.81053e-07 0)
(0.00289372 -1.27924e-07 0)
(0.00289464 -3.47579e-07 0)
(0.00289552 -2.10783e-07 0)
(0.0028969 -4.26695e-07 0)
(0.00289822 -3.02367e-07 0)
(0.00289995 -4.13503e-07 0)
(0.00290175 -3.50806e-07 0)
(0.00290384 -3.84268e-07 0)
(0.00290609 -3.60559e-07 0)
(0.00290853 -3.95134e-07 0)
(0.00291114 -3.98266e-07 0)
(0.00291392 -4.34529e-07 0)
(0.00291685 -4.62861e-07 0)
(0.00291996 -4.98511e-07 0)
(0.00292322 -5.24586e-07 0)
(0.00292663 -5.4402e-07 0)
(0.0029302 -5.58994e-07 0)
(0.00293383 -5.41586e-07 0)
(0.00293772 -5.63404e-07 0)
(0.00294152 -5.52064e-07 0)
(0.00294574 -5.31894e-07 0)
(0.00294969 -5.99143e-07 0)
(0.00295424 -5.10489e-07 0)
(0.0029583 -6.00536e-07 0)
(0.00296315 -5.37868e-07 0)
(0.00296732 -6.28366e-07 0)
(0.00297243 -5.84919e-07 0)
(0.00297672 -6.70729e-07 0)
(0.00298206 -6.33784e-07 0)
(0.00298648 -7.15787e-07 0)
(0.00299201 -6.80152e-07 0)
(0.00299655 -7.57939e-07 0)
(0.00300224 -7.217e-07 0)
(0.00300689 -7.94429e-07 0)
(0.00301272 -7.55423e-07 0)
(0.00301747 -8.17907e-07 0)
(0.0030234 -7.7393e-07 0)
(0.00302823 -8.29917e-07 0)
(0.00303425 -7.77212e-07 0)
(0.00303917 -8.34547e-07 0)
(0.00304525 -7.78862e-07 0)
(0.00305024 -8.34692e-07 0)
(0.00305636 -7.88742e-07 0)
(0.00306141 -8.34965e-07 0)
(0.00306757 -7.98657e-07 0)
(0.00307266 -8.38832e-07 0)
(0.00307884 -8.0614e-07 0)
(0.00308396 -8.3959e-07 0)
(0.00309015 -8.07928e-07 0)
(0.00309529 -8.35594e-07 0)
(0.00310147 -8.0579e-07 0)
(0.00310662 -8.28408e-07 0)
(0.00311279 -8.01662e-07 0)
(0.00311795 -8.19445e-07 0)
(0.00312409 -7.96381e-07 0)
(0.00312924 -8.08983e-07 0)
(0.00313534 -7.90395e-07 0)
(0.0031405 -7.96386e-07 0)
(0.00314653 -7.83477e-07 0)
(0.00315169 -7.87678e-07 0)
(0.00315764 -7.73924e-07 0)
(0.00316281 -7.76758e-07 0)
(0.00316867 -7.64645e-07 0)
(0.00317383 -7.64602e-07 0)
(0.0031796 -7.55898e-07 0)
(0.00318476 -7.53352e-07 0)
(0.00319042 -7.46613e-07 0)
(0.00319557 -7.41417e-07 0)
(0.00320113 -7.36625e-07 0)
(0.00320626 -7.28941e-07 0)
(0.0032117 -7.26405e-07 0)
(0.00321682 -7.1624e-07 0)
(0.00322214 -7.15611e-07 0)
(0.00322724 -7.02963e-07 0)
(0.00323243 -7.02582e-07 0)
(0.0032375 -6.97588e-07 0)
(0.00324258 -6.89936e-07 0)
(0.00324761 -6.84288e-07 0)
(0.00325259 -6.78025e-07 0)
(0.00325754 -6.72195e-07 0)
(0.00326245 -6.65954e-07 0)
(0.00326732 -6.59908e-07 0)
(0.00327215 -6.53681e-07 0)
(0.00327693 -6.47558e-07 0)
(0.00328168 -6.41399e-07 0)
(0.00328638 -6.35335e-07 0)
(0.00329104 -6.2925e-07 0)
(0.00329566 -6.23223e-07 0)
(0.00330023 -6.17163e-07 0)
(0.00330476 -6.11141e-07 0)
(0.00330925 -6.05094e-07 0)
(0.0033137 -5.99084e-07 0)
(0.0033181 -5.93076e-07 0)
(0.00332246 -5.87111e-07 0)
(0.00332678 -5.81168e-07 0)
(0.00333106 -5.75268e-07 0)
(0.00333529 -5.69405e-07 0)
(0.00333948 -5.63586e-07 0)
(0.00334363 -5.57807e-07 0)
(0.00334773 -5.52072e-07 0)
(0.00335179 -5.46375e-07 0)
(0.00335581 -5.4072e-07 0)
(0.00335979 -5.35104e-07 0)
(0.00336373 -5.29531e-07 0)
(0.00336762 -5.24e-07 0)
(0.00337148 -5.18514e-07 0)
(0.00337529 -5.13073e-07 0)
(0.00337906 -5.07678e-07 0)
(0.0033828 -5.0233e-07 0)
(0.00338649 -4.9703e-07 0)
(0.00339014 -4.91778e-07 0)
(0.00339375 -4.86576e-07 0)
(0.00339732 -4.81423e-07 0)
(0.00340086 -4.7632e-07 0)
(0.00340435 -4.71267e-07 0)
(0.00340781 -4.66265e-07 0)
(0.00341123 -4.61314e-07 0)
(0.00341461 -4.56413e-07 0)
(0.00341796 -4.51564e-07 0)
(0.00342126 -4.46765e-07 0)
(0.00342454 -4.42018e-07 0)
(0.00342777 -4.37321e-07 0)
(0.00343097 -4.32675e-07 0)
(0.00343413 -4.2808e-07 0)
(0.00343726 -4.23536e-07 0)
(0.00344036 -4.19043e-07 0)
(0.00344342 -4.14599e-07 0)
(0.00344644 -4.10206e-07 0)
(0.00344943 -4.05862e-07 0)
(0.00345239 -4.01568e-07 0)
(0.00345532 -3.97323e-07 0)
(0.00345821 -3.93129e-07 0)
(0.00346107 -3.88989e-07 0)
(0.0034639 -3.84908e-07 0)
(0.0034667 -3.80906e-07 0)
(0.00346947 -3.76945e-07 0)
(0.00347221 -3.73012e-07 0)
(0.00347491 -3.69111e-07 0)
(0.00347759 -3.65247e-07 0)
(0.00348024 -3.61425e-07 0)
(0.00348286 -3.57645e-07 0)
(0.00348544 -3.53909e-07 0)
(0.003488 -3.50215e-07 0)
(0.00349054 -3.46565e-07 0)
(0.00349304 -3.42957e-07 0)
(0.00349552 -3.39392e-07 0)
(0.00349797 -3.35867e-07 0)
(0.00350039 -3.32384e-07 0)
(0.00350279 -3.28942e-07 0)
(0.00350516 -3.25539e-07 0)
(0.0035075 -3.22176e-07 0)
(0.00350982 -3.18851e-07 0)
(0.00351211 -3.15565e-07 0)
(0.00351438 -3.12316e-07 0)
(0.00351662 -3.09105e-07 0)
(0.00351884 -3.0593e-07 0)
(0.00352104 -3.02792e-07 0)
(0.00352321 -2.99688e-07 0)
(0.00352536 -2.9662e-07 0)
(0.00352748 -2.93587e-07 0)
(0.00352958 -2.90587e-07 0)
(0.00353166 -2.8762e-07 0)
(0.00353372 -2.84686e-07 0)
(0.00353575 -2.81785e-07 0)
(0.00353776 -2.78915e-07 0)
(0.00353975 -2.76076e-07 0)
(0.00354172 -2.73268e-07 0)
(0.00354367 -2.70491e-07 0)
(0.0035456 -2.67742e-07 0)
(0.0035475 -2.65023e-07 0)
(0.00354939 -2.62333e-07 0)
(0.00355125 -2.59671e-07 0)
(0.0035531 -2.57036e-07 0)
(0.00355492 -2.54428e-07 0)
(0.00355673 -2.51846e-07 0)
(0.00355852 -2.4929e-07 0)
(0.00356028 -2.46759e-07 0)
(0.00356203 -2.44253e-07 0)
(0.00356376 -2.41771e-07 0)
(0.00356547 -2.39313e-07 0)
(0.00356716 -2.36878e-07 0)
(0.00356883 -2.34465e-07 0)
(0.00357049 -2.32074e-07 0)
(0.00357213 -2.29704e-07 0)
(0.00357375 -2.27353e-07 0)
(0.00357535 -2.25018e-07 0)
(0.00357693 -2.22693e-07 0)
(0.0035785 -2.2037e-07 0)
(0.00358005 -2.18028e-07 0)
(0.00358159 -2.15694e-07 0)
(0.0035831 -2.13404e-07 0)
(0.0035846 -2.11157e-07 0)
(0.00358608 -2.08943e-07 0)
(0.00358755 -2.06757e-07 0)
(0.003589 -2.04592e-07 0)
(0.00359044 -2.02443e-07 0)
(0.00359185 -2.0031e-07 0)
(0.00359326 -1.98154e-07 0)
(0.00359464 -1.96039e-07 0)
(0.00359601 -1.93572e-07 0)
(0.00359737 -1.92484e-07 0)
(0.00359871 -1.88067e-07 0)
(0.00360003 -1.92014e-07 0)
(0.00360134 -1.81483e-07 0)
(0.00360263 -1.88528e-07 0)
(0.00360391 -1.76333e-07 0)
(0.00360518 -1.8582e-07 0)
(0.00360641 -1.70673e-07 0)
(0.00360766 -1.82533e-07 0)
(0.00360883 -1.64788e-07 0)
(0.0036101 -1.7911e-07 0)
(0.00361118 -1.57919e-07 0)
(0.00361248 -1.75921e-07 0)
(0.00361344 -1.48751e-07 0)
(0.00361482 -1.74e-07 0)
(0.0036156 -1.35539e-07 0)
(0.00361715 -1.78099e-07 0)
(0.00361764 -1.18886e-07 0)
(0.00361953 -2.07992e-07 0)
(0.00361959 -1.10264e-07 0)
(0.00362244 -4.31177e-07 0)
(0.00362151 -9.95397e-07 0)
(1.08615e-06 -5.26614e-06 0)
(-1.30986e-05 1.24125e-05 0)
(-5.73164e-05 4.04855e-05 0)
(-0.000130435 6.40934e-05 0)
(-0.000228676 8.2614e-05 0)
(-0.000344061 9.24893e-05 0)
(-0.000472034 9.83319e-05 0)
(-0.000606791 9.9986e-05 0)
(-0.000745338 9.98676e-05 0)
(-0.000885843 9.84114e-05 0)
(-0.00102576 9.67169e-05 0)
(-0.00116633 9.51601e-05 0)
(-0.00130565 9.39877e-05 0)
(-0.00144406 9.33293e-05 0)
(-0.00158131 9.30847e-05 0)
(-0.00171757 9.32249e-05 0)
(-0.00185286 9.37246e-05 0)
(-0.00198717 9.45234e-05 0)
(-0.00212061 9.53547e-05 0)
(-0.00225287 9.58596e-05 0)
(-0.00238368 9.64061e-05 0)
(-0.00251313 9.70455e-05 0)
(-0.00264124 9.76117e-05 0)
(-0.00276801 9.79968e-05 0)
(-0.00289343 9.81108e-05 0)
(-0.00301749 9.78939e-05 0)
(-0.00314023 9.72853e-05 0)
(-0.00326166 9.62718e-05 0)
(-0.00338186 9.48123e-05 0)
(-0.00350088 9.29235e-05 0)
(-0.00361881 9.05247e-05 0)
(-0.00373563 8.75363e-05 0)
(-0.00385131 8.33887e-05 0)
(-0.00396549 7.67982e-05 0)
(-0.00407808 7.18248e-05 0)
(-0.0041919 6.99694e-05 0)
(-0.00430399 6.55217e-05 0)
(-0.00441574 6.04785e-05 0)
(-0.00452657 5.57798e-05 0)
(-0.00463652 5.15731e-05 0)
(-0.00474553 4.80025e-05 0)
(-0.00485357 4.50485e-05 0)
(-0.00496058 4.28427e-05 0)
(-0.0050666 4.12857e-05 0)
(-0.00517159 4.03193e-05 0)
(-0.0052756 3.98236e-05 0)
(-0.00537864 3.97051e-05 0)
(-0.00548078 3.98939e-05 0)
(-0.00558208 4.03492e-05 0)
(-0.00568261 4.10606e-05 0)
(-0.00578245 4.20409e-05 0)
(-0.00588167 4.33547e-05 0)
(-0.00598036 4.5003e-05 0)
(-0.00607855 4.72624e-05 0)
(-0.00617635 4.9878e-05 0)
(-0.00627357 5.35154e-05 0)
(-0.0063704 5.71893e-05 0)
(-0.0064664 6.08474e-05 0)
(-0.0065616 6.60909e-05 0)
(-0.00665521 7.40409e-05 0)
(-0.00674632 8.00991e-05 0)
(-0.00683711 8.45359e-05 0)
(-0.00692616 8.81679e-05 0)
(-0.00701532 9.05598e-05 0)
(-0.00710408 9.1885e-05 0)
(-0.00719273 9.23653e-05 0)
(-0.00728115 9.22e-05 0)
(-0.00736932 9.15894e-05 0)
(-0.00745717 9.06435e-05 0)
(-0.00754465 8.94782e-05 0)
(-0.00763172 8.81218e-05 0)
(-0.00771834 8.66561e-05 0)
(-0.00780449 8.50579e-05 0)
(-0.00789013 8.33947e-05 0)
(-0.00797527 8.16194e-05 0)
(-0.00805986 7.97973e-05 0)
(-0.00814392 7.78684e-05 0)
(-0.00822741 7.59166e-05 0)
(-0.00831034 7.38332e-05 0)
(-0.00839266 7.18041e-05 0)
(-0.00847441 6.96371e-05 0)
(-0.00855549 6.75915e-05 0)
(-0.00863596 6.53848e-05 0)
(-0.00871566 6.31901e-05 0)
(-0.00879464 6.02024e-05 0)
(-0.00887278 5.62695e-05 0)
(-0.00895039 5.52725e-05 0)
(-0.00902753 5.51615e-05 0)
(-0.00910399 5.3943e-05 0)
(-0.00917929 5.34373e-05 0)
(-0.00925361 5.30583e-05 0)
(-0.00932619 5.28644e-05 0)
(-0.00939761 5.29123e-05 0)
(-0.00946689 5.64771e-05 0)
(-0.00953449 5.85605e-05 0)
(-0.0096001 6.13432e-05 0)
(-0.00966423 6.33062e-05 0)
(-0.00972556 6.64833e-05 0)
(-0.0097853 6.83746e-05 0)
(-0.00984162 7.18113e-05 0)
(-0.00989633 7.36935e-05 0)
(-0.00994644 7.72184e-05 0)
(-0.00999478 7.85016e-05 0)
(-0.0100372 8.2286e-05 0)
(-0.0100784 8.22907e-05 0)
(-0.0101122 8.61232e-05 0)
(-0.0101438 8.33954e-05 0)
(-0.0101671 8.60107e-05 0)
(-0.0101854 7.87328e-05 0)
(-0.0101977 7.7154e-05 0)
(-0.0102023 6.33628e-05 0)
(-0.0101987 5.09384e-05 0)
(-0.0101856 2.45916e-05 0)
(-0.0101732 7.35007e-08 0)
(-0.0101689 -2.76826e-05 0)
(-0.0101536 -4.97719e-05 0)
(-0.0101363 -7.03352e-05 0)
(-0.0101027 -8.77332e-05 0)
(-0.0100681 -0.000104152 0)
(-0.0100149 -0.000119024 0)
(-0.00996239 -0.000133943 0)
(-0.00988964 -0.000147614 0)
(-0.00981898 -0.000162052 0)
(-0.0097268 -0.000174793 0)
(-0.00963853 -0.000188513 0)
(-0.00952655 -0.000199852 0)
(-0.00942193 -0.000211626 0)
(-0.00929046 -0.000220262 0)
(-0.00917127 -0.000227184 0)
(-0.0090216 -0.000229252 0)
(-0.00888852 -0.00022453 0)
(-0.00872029 -0.000208441 0)
(-0.00856923 -0.000189895 0)
(-0.00837539 -0.00014435 0)
(-0.00819804 -0.000110235 0)
(-0.0079702 -2.7424e-05 0)
(-0.00771775 -4.51009e-06 0)
(-0.00745686 3.39483e-05 0)
(-0.00718861 3.11175e-05 0)
(-0.00691608 4.88275e-05 0)
(-0.0066346 4.1974e-05 0)
(-0.00634606 4.80145e-05 0)
(-0.0060466 4.04755e-05 0)
(-0.0057363 3.80234e-05 0)
(-0.00541345 2.88177e-05 0)
(-0.00506725 1.51087e-05 0)
(-0.00472344 -6.16028e-06 0)
(-0.00431369 -4.04869e-05 0)
(-0.00397465 -0.000104833 0)
(-0.00356642 -0.000156685 0)
(-0.00326045 -0.000248192 0)
(-0.00298809 -0.000278599 0)
(-0.00266258 -0.000302902 0)
(-0.00234894 -0.000315263 0)
(-0.00199925 -0.000321668 0)
(-0.00167411 -0.000329869 0)
(-0.00133965 -0.000338913 0)
(-0.00103196 -0.000362458 0)
(-0.000661545 -0.000399389 0)
(-0.000206138 -0.000389955 0)
(0.000153616 -0.000386309 0)
(0.000556792 -0.000367609 0)
(0.000903615 -0.000357926 0)
(0.00129198 -0.000348477 0)
(0.00163284 -0.000327539 0)
(0.00200046 -0.000316087 0)
(0.00232876 -0.000297724 0)
(0.00268281 -0.000293319 0)
(0.00300092 -0.000278238 0)
(0.00334253 -0.000274965 0)
(0.00364921 -0.000259763 0)
(0.0039756 -0.000256586 0)
(0.00426957 -0.000241674 0)
(0.00457873 -0.000238342 0)
(0.00485887 -0.000224163 0)
(0.00514939 -0.000220324 0)
(0.00541476 -0.000207182 0)
(0.00568587 -0.000202366 0)
(0.00593567 -0.000191159 0)
(0.00618652 -0.000184837 0)
(0.0064199 -0.000174886 0)
(0.00665112 -0.000167903 0)
(0.00686685 -0.000158931 0)
(0.00707875 -0.000151625 0)
(0.00727652 -0.000143389 0)
(0.00746929 -0.000136093 0)
(0.00764915 -0.000128284 0)
(0.00782322 -0.000121313 0)
(0.00798539 -0.000113907 0)
(0.00814125 -0.000107271 0)
(0.00828624 -0.000100253 0)
(0.00842456 -9.39955e-05 0)
(0.00855299 -8.73634e-05 0)
(0.00867456 -8.15351e-05 0)
(0.00878719 -7.52736e-05 0)
(0.00889288 -6.99161e-05 0)
(0.00899055 -6.39903e-05 0)
(0.00908131 -5.923e-05 0)
(0.00916497 -5.36766e-05 0)
(0.00924184 -4.91186e-05 0)
(0.00931235 -4.42851e-05 0)
(0.00937636 -3.99453e-05 0)
(0.00943451 -3.56664e-05 0)
(0.00948682 -3.15463e-05 0)
(0.00953357 -2.77476e-05 0)
(0.00957508 -2.40361e-05 0)
(0.00961144 -2.05878e-05 0)
(0.00964309 -1.72742e-05 0)
(0.00967007 -1.41159e-05 0)
(0.00969276 -1.12865e-05 0)
(0.00971136 -8.73969e-06 0)
(0.00972602 -6.22782e-06 0)
(0.00973705 -3.88986e-06 0)
(0.00974464 -1.70422e-06 0)
(0.0097491 8.94628e-08 0)
(0.00975058 2.28535e-06 0)
(0.00974876 4.08994e-06 0)
(0.00974408 5.93961e-06 0)
(0.00973731 7.65675e-06 0)
(0.00972788 9.27214e-06 0)
(0.00971683 1.06642e-05 0)
(0.00970344 1.20136e-05 0)
(0.00968889 1.30056e-05 0)
(0.00967214 1.40485e-05 0)
(0.00965464 1.49047e-05 0)
(0.0096351 1.56782e-05 0)
(0.00961521 1.63988e-05 0)
(0.0095934 1.6902e-05 0)
(0.00957173 1.74895e-05 0)
(0.00954808 1.77324e-05 0)
(0.00952505 1.82276e-05 0)
(0.00950017 1.81977e-05 0)
(0.00947615 1.86307e-05 0)
(0.00945047 1.84374e-05 0)
(0.00942578 1.87441e-05 0)
(0.0093997 1.84775e-05 0)
(0.00937462 1.85872e-05 0)
(0.00934856 1.82814e-05 0)
(0.00932329 1.81779e-05 0)
(0.0092977 1.78473e-05 0)
(0.00927242 1.75485e-05 0)
(0.00924751 1.71576e-05 0)
(0.00922251 1.68111e-05 0)
(0.00919829 1.63032e-05 0)
(0.00917388 1.59775e-05 0)
(0.00915051 1.53178e-05 0)
(0.00912696 1.50566e-05 0)
(0.00910461 1.43115e-05 0)
(0.00908212 1.41301e-05 0)
(0.00906089 1.33012e-05 0)
(0.00903957 1.31422e-05 0)
(0.00901956 1.22902e-05 0)
(0.00899948 1.21259e-05 0)
(0.00898077 1.1247e-05 0)
(0.008962 1.10799e-05 0)
(0.00894467 1.01779e-05 0)
(0.00892727 1.00093e-05 0)
(0.00891136 9.09102e-06 0)
(0.00889538 8.91493e-06 0)
(0.00888094 7.99175e-06 0)
(0.0088664 7.86576e-06 0)
(0.00885344 6.90283e-06 0)
(0.00884037 6.81165e-06 0)
(0.00882889 5.81201e-06 0)
(0.00881731 5.75905e-06 0)
(0.00880731 4.75938e-06 0)
(0.00879721 4.72178e-06 0)
(0.00878866 3.74573e-06 0)
(0.00878006 3.70163e-06 0)
(0.00877293 2.75252e-06 0)
(0.00876579 2.70099e-06 0)
(0.00876005 1.78184e-06 0)
(0.00875436 1.73097e-06 0)
(0.00874998 8.29098e-07 0)
(0.0087457 8.21213e-07 0)
(0.00874265 -1.36265e-07 0)
(0.00873973 2.38198e-08 0)
(0.00873798 -1.0243e-06 0)
(0.00873637 -8.79984e-07 0)
(0.00873575 -1.85182e-06 0)
(0.00873544 -1.7726e-06 0)
(0.00873605 -2.60679e-06 0)
(0.00873702 -2.54022e-06 0)
(0.00873871 -3.34531e-06 0)
(0.00874085 -3.47755e-06 0)
(0.00874368 -4.09444e-06 0)
(0.00874689 -4.37998e-06 0)
(0.00875073 -4.72171e-06 0)
(0.00875499 -5.0452e-06 0)
(0.00875978 -5.35861e-06 0)
(0.00876505 -5.62998e-06 0)
(0.00877081 -5.93264e-06 0)
(0.00877703 -6.18245e-06 0)
(0.0087837 -6.4762e-06 0)
(0.00879077 -6.74919e-06 0)
(0.0087982 -6.96917e-06 0)
(0.00880607 -7.25881e-06 0)
(0.00881419 -7.47139e-06 0)
(0.00882287 -7.71222e-06 0)
(0.00883153 -7.96342e-06 0)
(0.00884102 -8.11696e-06 0)
(0.00885022 -8.4193e-06 0)
(0.00886042 -8.44383e-06 0)
(0.00887014 -8.8025e-06 0)
(0.008881 -8.73473e-06 0)
(0.00889122 -9.12434e-06 0)
(0.00890269 -9.02044e-06 0)
(0.00891339 -9.40166e-06 0)
(0.00892539 -9.27697e-06 0)
(0.00893652 -9.64195e-06 0)
(0.00894899 -9.49996e-06 0)
(0.00896052 -9.84358e-06 0)
(0.00897341 -9.6904e-06 0)
(0.00898529 -1.00146e-05 0)
(0.00899852 -9.86568e-06 0)
(0.00901072 -1.01617e-05 0)
(0.00902424 -1.00356e-05 0)
(0.00903671 -1.02868e-05 0)
(0.00905048 -1.01738e-05 0)
(0.00906319 -1.03955e-05 0)
(0.00907718 -1.02659e-05 0)
(0.00909008 -1.0478e-05 0)
(0.00910424 -1.03337e-05 0)
(0.00911732 -1.05219e-05 0)
(0.00913161 -1.03802e-05 0)
(0.00914482 -1.05442e-05 0)
(0.00915922 -1.04111e-05 0)
(0.00917252 -1.055e-05 0)
(0.00918699 -1.0425e-05 0)
(0.00920037 -1.05398e-05 0)
(0.00921486 -1.04216e-05 0)
(0.00922829 -1.05131e-05 0)
(0.0092428 -1.04013e-05 0)
(0.00925625 -1.04701e-05 0)
(0.00927074 -1.03665e-05 0)
(0.00928419 -1.04085e-05 0)
(0.00929863 -1.03183e-05 0)
(0.00931208 -1.03323e-05 0)
(0.00932643 -1.02546e-05 0)
(0.00933986 -1.02515e-05 0)
(0.00935409 -1.01741e-05 0)
(0.00936751 -1.01604e-05 0)
(0.00938159 -1.00807e-05 0)
(0.00939497 -1.00542e-05 0)
(0.0094089 -9.97911e-06 0)
(0.00942223 -9.93938e-06 0)
(0.00943597 -9.86813e-06 0)
(0.00944924 -9.817e-06 0)
(0.00946279 -9.74879e-06 0)
(0.00947598 -9.6863e-06 0)
(0.00948932 -9.62128e-06 0)
(0.00950243 -9.54748e-06 0)
(0.00951555 -9.48417e-06 0)
(0.00952855 -9.41666e-06 0)
(0.00954148 -9.34127e-06 0)
(0.00955432 -9.2689e-06 0)
(0.00956707 -9.19362e-06 0)
(0.00957974 -9.11954e-06 0)
(0.00959231 -9.04361e-06 0)
(0.00960479 -8.96814e-06 0)
(0.00961718 -8.89094e-06 0)
(0.00962947 -8.81392e-06 0)
(0.00964166 -8.73544e-06 0)
(0.00965376 -8.65709e-06 0)
(0.00966576 -8.57787e-06 0)
(0.00967765 -8.49862e-06 0)
(0.00968945 -8.41891e-06 0)
(0.00970115 -8.33913e-06 0)
(0.00971274 -8.25913e-06 0)
(0.00972423 -8.17913e-06 0)
(0.00973562 -8.09905e-06 0)
(0.00974691 -8.01904e-06 0)
(0.00975809 -7.93905e-06 0)
(0.00976916 -7.85919e-06 0)
(0.00978014 -7.77946e-06 0)
(0.00979101 -7.69993e-06 0)
(0.00980177 -7.62063e-06 0)
(0.00981244 -7.54161e-06 0)
(0.00982299 -7.46291e-06 0)
(0.00983345 -7.38456e-06 0)
(0.0098438 -7.30661e-06 0)
(0.00985405 -7.22906e-06 0)
(0.00986419 -7.15196e-06 0)
(0.00987424 -7.07532e-06 0)
(0.00988418 -6.99917e-06 0)
(0.00989402 -6.92353e-06 0)
(0.00990376 -6.84843e-06 0)
(0.0099134 -6.77387e-06 0)
(0.00992293 -6.69988e-06 0)
(0.00993237 -6.62647e-06 0)
(0.00994171 -6.55367e-06 0)
(0.00995096 -6.48147e-06 0)
(0.0099601 -6.4099e-06 0)
(0.00996915 -6.33897e-06 0)
(0.0099781 -6.26868e-06 0)
(0.00998696 -6.19905e-06 0)
(0.00999572 -6.13008e-06 0)
(0.0100044 -6.06178e-06 0)
(0.010013 -5.99416e-06 0)
(0.0100215 -5.92722e-06 0)
(0.0100298 -5.86097e-06 0)
(0.0100382 -5.7954e-06 0)
(0.0100464 -5.73053e-06 0)
(0.0100545 -5.66636e-06 0)
(0.0100625 -5.60288e-06 0)
(0.0100705 -5.5401e-06 0)
(0.0100783 -5.47801e-06 0)
(0.0100861 -5.41662e-06 0)
(0.0100938 -5.35592e-06 0)
(0.0101014 -5.29592e-06 0)
(0.010109 -5.23661e-06 0)
(0.0101164 -5.17799e-06 0)
(0.0101238 -5.12006e-06 0)
(0.010131 -5.0628e-06 0)
(0.0101383 -5.00621e-06 0)
(0.0101454 -4.95029e-06 0)
(0.0101524 -4.89504e-06 0)
(0.0101594 -4.84044e-06 0)
(0.0101663 -4.7865e-06 0)
(0.0101731 -4.73321e-06 0)
(0.0101799 -4.68056e-06 0)
(0.0101865 -4.62856e-06 0)
(0.0101932 -4.57718e-06 0)
(0.0101997 -4.52643e-06 0)
(0.0102061 -4.47629e-06 0)
(0.0102125 -4.42677e-06 0)
(0.0102189 -4.37785e-06 0)
(0.0102251 -4.32952e-06 0)
(0.0102313 -4.28178e-06 0)
(0.0102374 -4.23462e-06 0)
(0.0102435 -4.18803e-06 0)
(0.0102495 -4.14201e-06 0)
(0.0102554 -4.09654e-06 0)
(0.0102612 -4.05162e-06 0)
(0.010267 -4.00724e-06 0)
(0.0102728 -3.96339e-06 0)
(0.0102784 -3.92007e-06 0)
(0.010284 -3.87726e-06 0)
(0.0102896 -3.83495e-06 0)
(0.0102951 -3.79315e-06 0)
(0.0103005 -3.75183e-06 0)
(0.0103059 -3.711e-06 0)
(0.0103112 -3.67064e-06 0)
(0.0103165 -3.63074e-06 0)
(0.0103217 -3.5913e-06 0)
(0.0103268 -3.55231e-06 0)
(0.0103319 -3.51376e-06 0)
(0.010337 -3.47564e-06 0)
(0.0103419 -3.43793e-06 0)
(0.0103469 -3.40065e-06 0)
(0.0103517 -3.36377e-06 0)
(0.0103566 -3.32728e-06 0)
(0.0103613 -3.29119e-06 0)
(0.0103661 -3.25547e-06 0)
(0.0103707 -3.22013e-06 0)
(0.0103754 -3.18515e-06 0)
(0.0103799 -3.15052e-06 0)
(0.0103845 -3.11625e-06 0)
(0.0103889 -3.08231e-06 0)
(0.0103934 -3.0487e-06 0)
(0.0103977 -3.01542e-06 0)
(0.0104021 -2.98245e-06 0)
(0.0104064 -2.94979e-06 0)
(0.0104106 -2.91743e-06 0)
(0.0104148 -2.88537e-06 0)
(0.0104189 -2.85362e-06 0)
(0.0104231 -2.82224e-06 0)
(0.0104271 -2.79119e-06 0)
(0.0104311 -2.76034e-06 0)
(0.0104351 -2.72969e-06 0)
(0.010439 -2.69925e-06 0)
(0.0104429 -2.66901e-06 0)
(0.0104467 -2.63899e-06 0)
(0.0104505 -2.60916e-06 0)
(0.0104543 -2.57952e-06 0)
(0.010458 -2.54987e-06 0)
(0.0104617 -2.52063e-06 0)
(0.0104653 -2.48936e-06 0)
(0.0104689 -2.46895e-06 0)
(0.0104724 -2.4282e-06 0)
(0.010476 -2.41658e-06 0)
(0.0104794 -2.36735e-06 0)
(0.0104829 -2.36144e-06 0)
(0.0104862 -2.30821e-06 0)
(0.0104896 -2.30815e-06 0)
(0.0104929 -2.24792e-06 0)
(0.0104962 -2.25041e-06 0)
(0.0104993 -2.18989e-06 0)
(0.0105026 -2.19143e-06 0)
(0.0105056 -2.13336e-06 0)
(0.0105089 -2.13177e-06 0)
(0.0105117 -2.07945e-06 0)
(0.010515 -2.07277e-06 0)
(0.0105176 -2.03498e-06 0)
(0.0105211 -2.02194e-06 0)
(0.0105232 -2.02589e-06 0)
(0.010527 -2.01528e-06 0)
(0.0105286 -2.15502e-06 0)
(0.010533 -2.28357e-06 0)
(0.0105335 -3.27209e-06 0)
(-4.42721e-06 5.87105e-06 0)
(-4.63207e-05 5.89442e-05 0)
(-0.000133604 0.000123834 0)
(-0.000262722 0.000181792 0)
(-0.000426113 0.000227253 0)
(-0.000613918 0.000256516 0)
(-0.000818781 0.000274878 0)
(-0.00103362 0.000283356 0)
(-0.00125388 0.000286715 0)
(-0.00147649 0.000286466 0)
(-0.00169882 0.000284838 0)
(-0.00192039 0.000281958 0)
(-0.00213975 0.000278704 0)
(-0.00235705 0.000275595 0)
(-0.00257208 0.000272572 0)
(-0.00278477 0.000269476 0)
(-0.00299514 0.000266127 0)
(-0.00320303 0.000263014 0)
(-0.00340802 0.000259311 0)
(-0.00361055 0.000254874 0)
(-0.00381134 0.000250276 0)
(-0.00401004 0.000245703 0)
(-0.0042068 0.000241265 0)
(-0.00440142 0.000236992 0)
(-0.0045939 0.000233009 0)
(-0.00478418 0.00022945 0)
(-0.00497229 0.000226381 0)
(-0.00515819 0.000224002 0)
(-0.00534193 0.000222274 0)
(-0.00552351 0.000221379 0)
(-0.00570297 0.000221107 0)
(-0.00588025 0.000221554 0)
(-0.00605555 0.000222119 0)
(-0.00622923 0.000222464 0)
(-0.00640188 0.000227498 0)
(-0.00657086 0.000230164 0)
(-0.00673652 0.000233265 0)
(-0.00690018 0.000236188 0)
(-0.00706172 0.000238704 0)
(-0.00722115 0.000240679 0)
(-0.00737848 0.000242082 0)
(-0.00753391 0.000242665 0)
(-0.00768744 0.000242624 0)
(-0.00783948 0.000241843 0)
(-0.00799006 0.000240462 0)
(-0.0081393 0.000238592 0)
(-0.00828719 0.000236357 0)
(-0.00843368 0.000233862 0)
(-0.00857875 0.00023118 0)
(-0.00872236 0.000228349 0)