/*--------------------------------*- C++ -*----------------------------------*\
| =========                 |                                                 |
| \\      /  F ield         | OpenFOAM: The Open Source CFD Toolbox           |
|  \\    /   O peration     | Version:  3.0.1                                 |
|   \\  /    A nd           | Web:      www.OpenFOAM.org                      |
|    \\/     M anipulation  |                                                 |
\*---------------------------------------------------------------------------*/
FoamFile
{
    version     2.0;
    format      ascii;
    class       volScalarField;
    location    "0.00015";
    object      rho;
}
// * * * * * * * * * * * * * * * * * * * * * * * * * * * * * * * * * * * * * //

dimensions      [1 -3 0 0 0 0 0];

internalField   nonuniform List<scalar> 
1000
(
0.83124
0.83124
0.83124
0.83124
0.83124
0.83124
0.83124
0.83124
0.83124
0.83124
0.83124
0.83124
0.83124
0.83124
0.83124
0.83124
0.83124
0.83124
0.83124
0.83124
0.83124
0.83124
0.83124
0.83124
0.83124
0.83124
0.83124
0.83124
0.83124
0.83124
0.831228
0.830512
0.823947
0.810675
0.799529
0.792581
0.788758
0.786918
0.786131
0.785894
0.785728
0.785723
0.785839
0.785977
0.786084
0.786114
0.786022
0.78543
0.783435
0.778943
0.771833
0.763738
0.757082
0.753159
0.751544
0.751113
0.751063
0.751101
0.75119
0.751284
0.751343
0.751383
0.751256
0.750902
0.749877
0.747257
0.741299
0.729863
0.716289
0.711076
0.710721
0.710718
0.710718
0.710718
0.710718
0.710718
0.710718
0.710718
0.710718
0.710718
0.710718
0.710718
0.710718
0.710718
0.710718
0.710718
0.710718
0.710718
0.710718
0.710718
0.710718
0.710718
0.710718
0.710718
0.710718
0.710718
0.710718
0.710718
0.710718
0.710718
0.83124
0.83124
0.83124
0.83124
0.83124
0.83124
0.83124
0.83124
0.83124
0.83124
0.83124
0.83124
0.83124
0.83124
0.83124
0.83124
0.83124
0.83124
0.83124
0.83124
0.83124
0.83124
0.83124
0.83124
0.83124
0.83124
0.83124
0.83124
0.83124
0.83124
0.831228
0.830511
0.823944
0.810669
0.799522
0.792577
0.788757
0.78692
0.786136
0.7859
0.785734
0.78573
0.785847
0.785984
0.786089
0.786119
0.786026
0.785434
0.78344
0.778948
0.771838
0.763743
0.757085
0.753161
0.751545
0.751113
0.751062
0.7511
0.751188
0.751282
0.751341
0.751383
0.751257
0.750904
0.74988
0.74726
0.741299
0.729856
0.716282
0.711075
0.710721
0.710718
0.710718
0.710718
0.710718
0.710718
0.710718
0.710718
0.710718
0.710718
0.710718
0.710718
0.710718
0.710718
0.710718
0.710718
0.710718
0.710718
0.710718
0.710718
0.710718
0.710718
0.710718
0.710718
0.710718
0.710718
0.710718
0.710718
0.710718
0.710718
0.83124
0.83124
0.83124
0.83124
0.83124
0.83124
0.83124
0.83124
0.83124
0.83124
0.83124
0.83124
0.83124
0.83124
0.83124
0.83124
0.83124
0.83124
0.83124
0.83124
0.83124
0.83124
0.83124
0.83124
0.83124
0.83124
0.83124
0.83124
0.83124
0.83124
0.831228
0.830501
0.823891
0.810616
0.7995
0.792575
0.788765
0.786931
0.786146
0.785911
0.785743
0.785738
0.785852
0.785987
0.78609
0.786117
0.786024
0.785433
0.783439
0.77895
0.771843
0.763749
0.757091
0.753166
0.751549
0.751116
0.751065
0.751102
0.751189
0.751282
0.751338
0.751378
0.75125
0.750894
0.749869
0.747252
0.7413
0.729875
0.716301
0.711077
0.710721
0.710718
0.710718
0.710718
0.710718
0.710718
0.710718
0.710718
0.710718
0.710718
0.710718
0.710718
0.710718
0.710718
0.710718
0.710718
0.710718
0.710718
0.710718
0.710718
0.710718
0.710718
0.710718
0.710718
0.710718
0.710718
0.710718
0.710718
0.710718
0.710718
0.83124
0.83124
0.83124
0.83124
0.83124
0.83124
0.83124
0.83124
0.83124
0.83124
0.83124
0.83124
0.83124
0.83124
0.83124
0.83124
0.83124
0.83124
0.83124
0.83124
0.83124
0.83124
0.83124
0.83124
0.83124
0.83124
0.83124
0.83124
0.83124
0.83124
0.831228
0.830488
0.823835
0.810569
0.799493
0.79259
0.78879
0.786956
0.786167
0.785926
0.785751
0.785742
0.785854
0.785989
0.786092
0.786118
0.786025
0.785435
0.783442
0.778954
0.771849
0.763754
0.757095
0.753169
0.751551
0.751117
0.751065
0.751101
0.751188
0.751281
0.751337
0.751376
0.751246
0.75089
0.749865
0.74725
0.741306
0.729892
0.716315
0.711079
0.710721
0.710718
0.710718
0.710718
0.710718
0.710718
0.710718
0.710718
0.710718
0.710718
0.710718
0.710718
0.710718
0.710718
0.710718
0.710718
0.710718
0.710718
0.710718
0.710718
0.710718
0.710718
0.710718
0.710718
0.710718
0.710718
0.710718
0.710718
0.710718
0.710718
0.83124
0.83124
0.83124
0.83124
0.83124
0.83124
0.83124
0.83124
0.83124
0.83124
0.83124
0.83124
0.83124
0.83124
0.83124
0.83124
0.83124
0.83124
0.83124
0.83124
0.83124
0.83124
0.83124
0.83124
0.83124
0.83124
0.83124
0.83124
0.83124
0.83124
0.831227
0.830481
0.823804
0.810537
0.799477
0.792584
0.78879
0.78696
0.786174
0.785934
0.785762
0.785751
0.785861
0.785996
0.786098
0.786122
0.786028
0.785438
0.783446
0.778959
0.771853
0.763758
0.757099
0.753173
0.751556
0.751122
0.75107
0.751106
0.751193
0.751285
0.751341
0.75138
0.751251
0.750895
0.749869
0.74725
0.741297
0.72987
0.716297
0.711077
0.710721
0.710718
0.710718
0.710718
0.710718
0.710718
0.710718
0.710718
0.710718
0.710718
0.710718
0.710718
0.710718
0.710718
0.710718
0.710718
0.710718
0.710718
0.710718
0.710718
0.710718
0.710718
0.710718
0.710718
0.710718
0.710718
0.710718
0.710718
0.710718
0.710718
0.83124
0.83124
0.83124
0.83124
0.83124
0.83124
0.83124
0.83124
0.83124
0.83124
0.83124
0.83124
0.83124
0.83124
0.83124
0.83124
0.83124
0.83124
0.83124
0.83124
0.83124
0.83124
0.83124
0.83124
0.83124
0.83124
0.83124
0.83124
0.83124
0.83124
0.831227
0.830479
0.823793
0.810521
0.799461
0.792582
0.788795
0.786968
0.786181
0.785939
0.785764
0.785754
0.785866
0.785996
0.786101
0.786127
0.786033
0.785442
0.783448
0.778958
0.771851
0.763755
0.757096
0.75317
0.751554
0.75112
0.751069
0.751106
0.751194
0.751288
0.751346
0.751388
0.751261
0.750907
0.749882
0.747259
0.741294
0.729844
0.716274
0.711074
0.710721
0.710718
0.710718
0.710718
0.710718
0.710718
0.710718
0.710718
0.710718
0.710718
0.710718
0.710718
0.710718
0.710718
0.710718
0.710718
0.710718
0.710718
0.710718
0.710718
0.710718
0.710718
0.710718
0.710718
0.710718
0.710718
0.710718
0.710718
0.710718
0.710718
0.83124
0.83124
0.83124
0.83124
0.83124
0.83124
0.83124
0.83124
0.83124
0.83124
0.83124
0.83124
0.83124
0.83124
0.83124
0.83124
0.83124
0.83124
0.83124
0.83124
0.83124
0.83124
0.83124
0.83124
0.83124
0.83124
0.83124
0.83124
0.83124
0.83124
0.831227
0.830481
0.823803
0.810533
0.79947
0.79258
0.78879
0.786963
0.786176
0.785932
0.785759
0.785751
0.785862
0.785995
0.786098
0.786124
0.786031
0.785441
0.783446
0.778956
0.771848
0.763752
0.757094
0.75317
0.751554
0.751123
0.751072
0.75111
0.751198
0.751292
0.751349
0.75139
0.751263
0.750908
0.74988
0.747256
0.741291
0.729844
0.716274
0.711074
0.710721
0.710718
0.710718
0.710718
0.710718
0.710718
0.710718
0.710718
0.710718
0.710718
0.710718
0.710718
0.710718
0.710718
0.710718
0.710718
0.710718
0.710718
0.710718
0.710718
0.710718
0.710718
0.710718
0.710718
0.710718
0.710718
0.710718
0.710718
0.710718
0.710718
0.83124
0.83124
0.83124
0.83124
0.83124
0.83124
0.83124
0.83124
0.83124
0.83124
0.83124
0.83124
0.83124
0.83124
0.83124
0.83124
0.83124
0.83124
0.83124
0.83124
0.83124
0.83124
0.83124
0.83124
0.83124
0.83124
0.83124
0.83124
0.83124
0.83124
0.831228
0.830486
0.823828
0.810556
0.799476
0.792575
0.788778
0.786949
0.786165
0.785922
0.785754
0.785747
0.785857
0.78599
0.786094
0.786123
0.786031
0.78544
0.783446
0.778955
0.771848
0.763753
0.757096
0.753173
0.751558
0.751126
0.751075
0.751113
0.751201
0.751295
0.751352
0.751392
0.751265
0.750909
0.74988
0.747254
0.741284
0.729833
0.716267
0.711073
0.710721
0.710718
0.710718
0.710718
0.710718
0.710718
0.710718
0.710718
0.710718
0.710718
0.710718
0.710718
0.710718
0.710718
0.710718
0.710718
0.710718
0.710718
0.710718
0.710718
0.710718
0.710718
0.710718
0.710718
0.710718
0.710718
0.710718
0.710718
0.710718
0.710718
0.83124
0.83124
0.83124
0.83124
0.83124
0.83124
0.83124
0.83124
0.83124
0.83124
0.83124
0.83124
0.83124
0.83124
0.83124
0.83124
0.83124
0.83124
0.83124
0.83124
0.83124
0.83124
0.83124
0.83124
0.83124
0.83124
0.83124
0.83124
0.83124
0.83124
0.831228
0.830492
0.823854
0.810582
0.799487
0.792575
0.788771
0.786938
0.786153
0.78591
0.785743
0.785737
0.78585
0.785986
0.786091
0.786121
0.78603
0.785438
0.783446
0.778955
0.771847
0.763753
0.757096
0.753173
0.751558
0.751127
0.751077
0.751115
0.751204
0.751298
0.751356
0.751397
0.751271
0.750917
0.749889
0.747259
0.741281
0.729815
0.716251
0.711071
0.710721
0.710718
0.710718
0.710718
0.710718
0.710718
0.710718
0.710718
0.710718
0.710718
0.710718
0.710718
0.710718
0.710718
0.710718
0.710718
0.710718
0.710718
0.710718
0.710718
0.710718
0.710718
0.710718
0.710718
0.710718
0.710718
0.710718
0.710718
0.710718
0.710718
0.83124
0.83124
0.83124
0.83124
0.83124
0.83124
0.83124
0.83124
0.83124
0.83124
0.83124
0.83124
0.83124
0.83124
0.83124
0.83124
0.83124
0.83124
0.83124
0.83124
0.83124
0.83124
0.83124
0.83124
0.83124
0.83124
0.83124
0.83124
0.83124
0.83124
0.831228
0.830491
0.823849
0.81058
0.79949
0.79258
0.788776
0.786941
0.786155
0.78591
0.785742
0.785735
0.785847
0.785982
0.786087
0.786119
0.786027
0.785435
0.783443
0.778953
0.771846
0.763752
0.757096
0.753174
0.751561
0.75113
0.751079
0.751117
0.751205
0.751299
0.751357
0.751397
0.751268
0.750912
0.749882
0.747253
0.741281
0.729827
0.716262
0.711072
0.710721
0.710718
0.710718
0.710718
0.710718
0.710718
0.710718
0.710718
0.710718
0.710718
0.710718
0.710718
0.710718
0.710718
0.710718
0.710718
0.710718
0.710718
0.710718
0.710718
0.710718
0.710718
0.710718
0.710718
0.710718
0.710718
0.710718
0.710718
0.710718
0.710718
)
;

boundaryField
{
    sides1
    {
        type            calculated;
        value           nonuniform List<scalar> 
20
(
0.710718
0.710718
0.710718
0.710718
0.710718
0.710718
0.710718
0.710718
0.710718
0.710718
0.83124
0.83124
0.83124
0.83124
0.83124
0.83124
0.83124
0.83124
0.83124
0.83124
)
;
    }
    sides2
    {
        type            calculated;
        value           nonuniform List<scalar> 
200
(
0.83124
0.83124
0.83124
0.83124
0.83124
0.83124
0.83124
0.83124
0.83124
0.83124
0.83124
0.83124
0.83124
0.83124
0.83124
0.83124
0.83124
0.83124
0.83124
0.83124
0.83124
0.83124
0.83124
0.83124
0.83124
0.83124
0.83124
0.83124
0.83124
0.83124
0.831228
0.830512
0.823947
0.810675
0.799529
0.792581
0.788758
0.786918
0.786131
0.785894
0.785728
0.785723
0.785839
0.785977
0.786084
0.786114
0.786022
0.78543
0.783435
0.778943
0.771833
0.763738
0.757082
0.753159
0.751544
0.751113
0.751063
0.751101
0.75119
0.751284
0.751343
0.751383
0.751256
0.750902
0.749877
0.747257
0.741299
0.729863
0.716289
0.711076
0.710721
0.710718
0.710718
0.710718
0.710718
0.710718
0.710718
0.710718
0.710718
0.710718
0.710718
0.710718
0.710718
0.710718
0.710718
0.710718
0.710718
0.710718
0.710718
0.710718
0.710718
0.710718
0.710718
0.710718
0.710718
0.710718
0.710718
0.710718
0.710718
0.710718
0.83124
0.83124
0.83124
0.83124
0.83124
0.83124
0.83124
0.83124
0.83124
0.83124
0.83124
0.83124
0.83124
0.83124
0.83124
0.83124
0.83124
0.83124
0.83124
0.83124
0.83124
0.83124
0.83124
0.83124
0.83124
0.83124
0.83124
0.83124
0.83124
0.83124
0.831228
0.830491
0.823849
0.81058
0.79949
0.79258
0.788776
0.786941
0.786155
0.78591
0.785742
0.785735
0.785847
0.785982
0.786087
0.786119
0.786027
0.785435
0.783443
0.778953
0.771846
0.763752
0.757096
0.753174
0.751561
0.75113
0.751079
0.751117
0.751205
0.751299
0.751357
0.751397
0.751268
0.750912
0.749882
0.747253
0.741281
0.729827
0.716262
0.711072
0.710721
0.710718
0.710718
0.710718
0.710718
0.710718
0.710718
0.710718
0.710718
0.710718
0.710718
0.710718
0.710718
0.710718
0.710718
0.710718
0.710718
0.710718
0.710718
0.710718
0.710718
0.710718
0.710718
0.710718
0.710718
0.710718
0.710718
0.710718
0.710718
0.710718
)
;
    }
    empty
    {
        type            empty;
    }
}


// ************************************************************************* //
