/*--------------------------------*- C++ -*----------------------------------*\
| =========                 |                                                 |
| \\      /  F ield         | OpenFOAM: The Open Source CFD Toolbox           |
|  \\    /   O peration     | Version:  3.0.1                                 |
|   \\  /    A nd           | Web:      www.OpenFOAM.org                      |
|    \\/     M anipulation  |                                                 |
\*---------------------------------------------------------------------------*/
FoamFile
{
    version     2.0;
    format      ascii;
    class       volVectorField;
    location    "0.00015";
    object      U;
}
// * * * * * * * * * * * * * * * * * * * * * * * * * * * * * * * * * * * * * //

dimensions      [0 1 -1 0 0 0 0];

internalField   nonuniform List<vector> 
1000
(
(1.36734e-13 -5.9308e-13 0)
(3.31374e-13 -3.90487e-13 0)
(-6.37698e-14 -4.29461e-13 0)
(-6.33074e-13 -4.77575e-13 0)
(-3.00603e-13 -5.12662e-13 0)
(7.07853e-13 -7.02103e-13 0)
(-2.75728e-13 -1.11545e-12 0)
(-7.90698e-13 -8.78803e-13 0)
(-3.54394e-13 -7.26588e-13 0)
(-1.88628e-13 -4.23271e-13 0)
(-2.98383e-13 -3.01824e-13 0)
(-3.37375e-13 -6.17047e-14 0)
(-3.11621e-13 -8.8623e-14 0)
(-2.18413e-13 -3.86878e-13 0)
(-2.90518e-13 -4.28407e-13 0)
(-3.32693e-13 -2.51853e-13 0)
(3.60999e-14 -6.28704e-13 0)
(5.10584e-14 -1.1009e-12 0)
(-5.38141e-13 -1.27022e-12 0)
(-3.8994e-13 -1.12402e-12 0)
(-2.39453e-13 -9.80483e-13 0)
(-6.7428e-13 -5.79332e-13 0)
(-4.63395e-13 -5.1599e-13 0)
(-1.31607e-13 -6.81733e-13 0)
(-2.09873e-13 -7.48675e-13 0)
(-5.41813e-14 -7.05672e-13 0)
(5.63197e-13 -4.95032e-13 0)
(4.17172e-11 -7.95987e-13 0)
(2.48809e-08 -5.24355e-13 0)
(1.82726e-05 2.87771e-10 0)
(0.00649526 8.05444e-08 0)
(0.383596 9.35168e-06 0)
(3.50836 0.000423766 0)
(8.99584 0.001552 0)
(13.3804 0.00322217 0)
(16.1877 0.00505241 0)
(17.7727 0.00623792 0)
(18.546 0.00656933 0)
(18.8557 0.00607974 0)
(18.9823 0.0061593 0)
(18.9939 0.00195134 0)
(19.0063 0.0016915 0)
(19.018 -0.00104828 0)
(19.0214 -0.00200508 0)
(19.0138 -0.00212944 0)
(19.0062 -0.0017099 0)
(19.0088 -0.00185693 0)
(19.0129 -0.0020959 0)
(19.0142 -0.00221428 0)
(19.0145 -0.00219142 0)
(19.0124 -0.00207471 0)
(19.0132 -0.00194432 0)
(19.0133 -0.00159244 0)
(19.0136 -0.00140381 0)
(19.0144 -0.00121061 0)
(19.0116 -0.00103855 0)
(19.0101 -0.000950838 0)
(19.0075 -0.000951423 0)
(19.0085 -0.000981758 0)
(19.0151 -0.00106141 0)
(19.0132 -0.00113188 0)
(18.9914 -0.0014218 0)
(18.9654 -0.0016939 0)
(18.8147 -0.00168267 0)
(18.3598 -0.00137343 0)
(17.1873 -0.000709326 0)
(14.5769 0.000122209 0)
(9.65959 0.000591897 0)
(3.17014 0.000329911 0)
(0.225588 2.77053e-05 0)
(0.00216006 2.84778e-07 0)
(3.86389e-06 9.22201e-10 0)
(4.92029e-09 1.9297e-12 0)
(9.49019e-12 -8.33909e-14 0)
(-7.23376e-14 -3.9129e-13 0)
(-1.47474e-13 -3.89082e-13 0)
(-2.83299e-13 -4.20925e-13 0)
(-2.04825e-13 -2.10851e-13 0)
(4.5648e-13 -1.10071e-13 0)
(3.77238e-13 -2.84316e-13 0)
(8.26657e-14 -2.07908e-13 0)
(1.46823e-13 -1.45906e-13 0)
(1.1674e-13 -1.58745e-13 0)
(-1.87744e-13 -2.0638e-13 0)
(3.09212e-13 8.23502e-15 0)
(1.15133e-13 -2.5433e-13 0)
(7.07403e-15 -1.22805e-13 0)
(3.98404e-13 -1.8279e-13 0)
(4.33897e-13 4.07499e-14 0)
(3.80167e-13 -1.49163e-13 0)
(1.57642e-13 -2.06217e-13 0)
(-2.39444e-13 -1.28669e-13 0)
(-2.79456e-13 -5.29196e-14 0)
(-2.61617e-13 -5.98154e-14 0)
(-1.6163e-13 -1.81496e-13 0)
(-3.90222e-13 -2.12411e-13 0)
(3.5838e-14 -9.19895e-14 0)
(8.76985e-13 -1.69101e-13 0)
(8.07436e-13 -6.75731e-13 0)
(7.26576e-13 -9.45348e-13 0)
(-8.39613e-14 9.46988e-14 0)
(4.76791e-13 -9.71119e-14 0)
(-3.60855e-13 -3.86098e-13 0)
(-8.31115e-13 -4.58911e-13 0)
(-3.88654e-13 -1.5807e-13 0)
(-2.57745e-13 -3.16921e-13 0)
(-8.49654e-13 -2.94686e-13 0)
(-6.93428e-13 -2.97021e-13 0)
(-5.22727e-14 -1.25975e-13 0)
(1.86937e-13 -2.21459e-15 0)
(2.22229e-13 2.95649e-13 0)
(-8.81007e-14 1.55008e-13 0)
(-4.51714e-13 1.82216e-13 0)
(-4.96637e-13 1.60167e-13 0)
(-1.28341e-13 9.20337e-15 0)
(-5.01982e-13 -1.22783e-13 0)
(-8.31231e-13 -2.38224e-13 0)
(-6.81156e-13 -4.95718e-13 0)
(-4.60355e-13 -6.89349e-13 0)
(2.31318e-13 -6.66529e-13 0)
(9.39088e-14 -6.14223e-13 0)
(-1.7685e-13 -3.93055e-13 0)
(-3.9865e-13 -6.13156e-15 0)
(-4.08495e-13 2.84196e-14 0)
(-4.43387e-13 2.9861e-13 0)
(-1.54033e-13 4.76001e-14 0)
(1.32349e-12 -1.05947e-13 0)
(3.97287e-11 -2.60367e-13 0)
(2.4913e-08 4.14149e-11 0)
(1.83069e-05 2.18624e-08 0)
(0.00650242 6.00534e-06 0)
(0.383628 0.000356503 0)
(3.50752 0.0030715 0)
(8.99328 0.00766332 0)
(13.3762 0.011141 0)
(16.1826 0.0122013 0)
(17.768 0.011163 0)
(18.5424 0.00931976 0)
(18.8533 0.00667714 0)
(18.9812 0.00598125 0)
(18.9936 -0.000705855 0)
(19.0065 -0.00147321 0)
(19.0188 -0.00597542 0)
(19.0222 -0.00691613 0)
(19.0147 -0.00673616 0)
(19.0074 -0.00677302 0)
(19.0109 -0.00633318 0)
(19.0153 -0.00596815 0)
(19.0169 -0.00605364 0)
(19.0177 -0.00581559 0)
(19.0159 -0.00538107 0)
(19.0168 -0.00487033 0)
(19.0169 -0.0033459 0)
(19.0167 -0.00262849 0)
(19.0173 -0.00161617 0)
(19.014 -0.000960055 0)
(19.0123 -0.000487527 0)
(19.0094 -0.000109989 0)
(19.0097 0.00039203 0)
(19.0158 0.000474765 0)
(19.013 0.000312331 0)
(18.9904 -8.79012e-05 0)
(18.9633 -0.000919761 0)
(18.8112 -0.0013721 0)
(18.3545 -0.00190275 0)
(17.1801 -0.00225052 0)
(14.568 -0.00218915 0)
(9.65 -0.00148921 0)
(3.16387 -0.000508816 0)
(0.224857 -3.73176e-05 0)
(0.00215143 -4.06602e-07 0)
(3.84675e-06 -1.18719e-09 0)
(4.89787e-09 -2.23701e-12 0)
(7.10038e-12 4.7862e-13 0)
(-1.55494e-13 -1.51781e-13 0)
(-4.45968e-13 -1.27889e-13 0)
(-1.75928e-13 -3.26229e-13 0)
(3.27032e-13 6.85633e-15 0)
(1.67658e-13 -1.2016e-13 0)
(1.34035e-13 -3.46634e-13 0)
(3.82442e-13 -2.72031e-13 0)
(2.36954e-13 -3.06432e-13 0)
(-9.43232e-14 -2.01678e-13 0)
(2.39649e-13 -2.80758e-13 0)
(3.02286e-13 -1.42002e-13 0)
(9.46892e-14 -3.10274e-13 0)
(4.38901e-13 5.03212e-14 0)
(3.3834e-13 8.00405e-17 0)
(1.82206e-13 -3.34401e-14 0)
(-5.24532e-14 -1.92618e-13 0)
(-1.18873e-13 -1.6551e-13 0)
(4.16676e-14 -1.07848e-13 0)
(7.79027e-14 8.46176e-14 0)
(-2.53861e-13 -4.598e-16 0)
(-2.64444e-13 2.39069e-13 0)
(-2.83148e-13 2.78149e-13 0)
(1.80015e-13 2.75441e-13 0)
(1.7684e-13 1.02398e-13 0)
(1.73214e-13 -4.41444e-13 0)
(4.47951e-13 -7.2771e-13 0)
(-1.28835e-13 -5.18702e-13 0)
(4.00284e-14 -5.85725e-13 0)
(-2.84651e-13 -7.33283e-13 0)
(-1.99505e-13 -6.43563e-13 0)
(1.65444e-13 -3.98427e-13 0)
(-2.93453e-13 -3.40287e-13 0)
(-6.52438e-13 -2.05691e-13 0)
(-4.45883e-13 -1.20394e-13 0)
(1.65391e-15 5.17429e-14 0)
(-3.04598e-13 -1.05484e-13 0)
(-2.92579e-13 -4.07884e-13 0)
(-1.98079e-13 -4.27605e-13 0)
(-2.98198e-13 -3.94854e-13 0)
(-6.41537e-13 -4.42605e-13 0)
(-5.34919e-13 -4.43223e-13 0)
(-6.20115e-13 -4.88028e-13 0)
(-5.76645e-13 -2.27184e-13 0)
(-4.22703e-13 -2.242e-13 0)
(-2.83686e-13 -1.65429e-13 0)
(-1.29774e-13 -2.92976e-13 0)
(-2.87359e-14 -2.5938e-13 0)
(3.07697e-13 -4.24585e-13 0)
(2.81145e-13 -3.73825e-13 0)
(4.2033e-13 -2.24932e-13 0)
(-5.92891e-14 -1.13551e-13 0)
(-5.15541e-13 1.01891e-13 0)
(-5.27509e-14 -3.01497e-13 0)
(4.17826e-11 1.81866e-13 0)
(2.55208e-08 1.93995e-10 0)
(1.87794e-05 9.08843e-08 0)
(0.00663962 2.34494e-05 0)
(0.388797 0.00130678 0)
(3.53449 0.0106778 0)
(9.021 0.0222623 0)
(13.3957 0.0256897 0)
(16.1958 0.0230955 0)
(17.7778 0.0179016 0)
(18.5506 0.0125408 0)
(18.8608 0.00753296 0)
(18.9886 0.00664465 0)
(19.0009 -0.00280942 0)
(19.0131 -0.0026191 0)
(19.0254 -0.00745954 0)
(19.0281 -0.00887236 0)
(19.0204 -0.00857255 0)
(19.0126 -0.00790344 0)
(19.0158 -0.00774862 0)
(19.0201 -0.00790561 0)
(19.0221 -0.00820791 0)
(19.0232 -0.00820202 0)
(19.0219 -0.00781943 0)
(19.0231 -0.00720011 0)
(19.0232 -0.00515241 0)
(19.0226 -0.00434561 0)
(19.0228 -0.00278193 0)
(19.019 -0.0018355 0)
(19.0174 -0.00101556 0)
(19.0145 -0.000315032 0)
(19.0148 0.00061417 0)
(19.0214 0.00115259 0)
(19.0184 0.00162909 0)
(18.9957 0.00207477 0)
(18.969 0.00131342 0)
(18.8171 8.34633e-06 0)
(18.3609 -0.00257554 0)
(17.188 -0.00587827 0)
(14.5791 -0.00846521 0)
(9.66553 -0.00807221 0)
(3.17668 -0.00337204 0)
(0.226631 -0.000271757 0)
(0.00217612 -2.92417e-06 0)
(3.89911e-06 -8.52673e-09 0)
(4.96732e-09 -1.78743e-11 0)
(6.65328e-12 -7.44076e-13 0)
(-1.18137e-13 -1.0296e-13 0)
(-3.42343e-13 -1.29632e-13 0)
(-1.65476e-13 -2.72016e-14 0)
(-1.75058e-13 -2.54105e-13 0)
(-5.04785e-14 -5.1924e-13 0)
(2.29199e-13 -4.97128e-13 0)
(1.45639e-13 -4.46987e-13 0)
(1.25853e-13 -5.41762e-13 0)
(1.21031e-13 -4.35463e-13 0)
(1.0317e-13 -2.52442e-13 0)
(1.82566e-13 -3.74747e-13 0)
(3.1816e-13 -3.75888e-13 0)
(5.10678e-13 -3.59327e-13 0)
(2.238e-13 -4.97884e-13 0)
(-2.03573e-14 -4.12973e-13 0)
(3.715e-14 -4.21092e-13 0)
(1.30747e-13 -3.26238e-13 0)
(2.99944e-13 -2.4141e-13 0)
(4.88115e-14 -3.11619e-13 0)
(8.26565e-14 -4.41569e-13 0)
(4.42443e-13 -2.80257e-13 0)
(7.03038e-14 -1.32331e-13 0)
(-8.40472e-14 1.90654e-13 0)
(1.84796e-13 -2.76028e-13 0)
(-8.22343e-14 -6.35183e-14 0)
(3.97211e-13 -6.02059e-14 0)
(2.85517e-13 -9.05635e-13 0)
(9.18435e-14 -8.70666e-13 0)
(-4.15588e-13 -7.14042e-13 0)
(1.26033e-13 -7.12289e-13 0)
(1.26766e-13 -8.49365e-13 0)
(-2.14038e-13 -7.20911e-13 0)
(-7.07654e-13 -5.32283e-13 0)
(-2.57595e-13 -3.02641e-13 0)
(2.28418e-13 -5.0581e-13 0)
(-4.72285e-13 -5.15219e-13 0)
(-3.36828e-13 -7.88716e-13 0)
(-2.09664e-13 -7.84143e-13 0)
(-5.22561e-13 -1.03615e-12 0)
(-9.76447e-13 -7.28933e-13 0)
(-2.37271e-13 -7.71025e-13 0)
(4.75576e-13 -8.43155e-13 0)
(-3.39813e-13 -7.56263e-13 0)
(-4.96264e-13 -6.23302e-13 0)
(-2.34427e-13 -5.836e-13 0)
(6.63321e-14 -5.60106e-13 0)
(-2.67698e-13 -4.78865e-13 0)
(-2.94603e-13 -6.01544e-13 0)
(5.50931e-13 -6.93284e-13 0)
(2.90945e-13 -9.93249e-13 0)
(1.63074e-13 -1.25603e-12 0)
(-1.08002e-13 -1.06999e-12 0)
(-4.47029e-13 -8.59564e-13 0)
(4.28861e-11 -9.46917e-13 0)
(2.64407e-08 1.657e-10 0)
(1.94576e-05 7.64844e-08 0)
(0.00682781 1.88075e-05 0)
(0.395579 0.00099185 0)
(3.56288 0.00793901 0)
(9.04781 0.0171909 0)
(13.4135 0.0212056 0)
(16.2084 0.0205801 0)
(17.7884 0.0185237 0)
(18.5609 0.0151357 0)
(18.8715 0.0106391 0)
(19.0005 0.010011 0)
(19.0133 -0.000792411 0)
(19.0243 -0.000717686 0)
(19.0356 -0.00571356 0)
(19.0368 -0.00745083 0)
(19.0274 -0.00783391 0)
(19.0183 -0.00855437 0)
(19.0207 -0.00887615 0)
(19.0246 -0.00932047 0)
(19.0267 -0.00937257 0)
(19.0276 -0.00914521 0)
(19.0265 -0.00864485 0)
(19.0274 -0.00838942 0)
(19.0273 -0.00689275 0)
(19.0263 -0.006364 0)
(19.0264 -0.00495207 0)
(19.0223 -0.00400146 0)
(19.0207 -0.0031704 0)
(19.018 -0.0024572 0)
(19.0185 -0.00155313 0)
(19.0255 -0.00109504 0)
(19.0229 -0.000463642 0)
(19.0005 -8.9161e-05 0)
(18.9739 0.000464316 0)
(18.822 0.000695711 0)
(18.3659 0.000876151 0)
(17.1935 0.000930121 0)
(14.5863 0.000775582 0)
(9.67571 0.000507838 0)
(3.1852 0.00016719 0)
(0.227833 1.15979e-05 0)
(0.00219259 1.42305e-07 0)
(3.93301e-06 4.84713e-10 0)
(5.00896e-09 -8.56806e-13 0)
(9.36151e-12 -9.34768e-13 0)
(3.7536e-13 -5.74245e-13 0)
(-1.438e-14 -3.79392e-13 0)
(-2.67324e-13 -3.36834e-13 0)
(-6.24629e-13 -4.6745e-13 0)
(-1.81555e-13 -4.76033e-13 0)
(3.48143e-13 -3.80328e-13 0)
(3.04569e-13 -3.61245e-13 0)
(1.25452e-13 -6.05744e-13 0)
(6.18601e-13 -4.48885e-14 0)
(2.86183e-13 -1.64968e-13 0)
(-8.89895e-14 -2.52338e-13 0)
(2.45563e-13 -1.50065e-13 0)
(1.65937e-13 -1.77799e-13 0)
(9.55524e-14 -3.78503e-13 0)
(2.46842e-13 -2.82859e-13 0)
(2.51672e-13 -1.89002e-13 0)
(4.57702e-13 -1.33652e-13 0)
(1.18249e-13 -2.75033e-13 0)
(-3.82757e-13 -4.06561e-13 0)
(-5.61184e-14 -4.8808e-13 0)
(4.4244e-13 -4.76762e-13 0)
(4.52902e-13 -6.23279e-13 0)
(-2.19995e-16 -5.71812e-13 0)
(-2.06743e-13 -6.07633e-13 0)
(2.12927e-13 -5.77264e-13 0)
(1.48297e-13 -4.68483e-13 0)
(1.98755e-13 -6.64002e-13 0)
(4.08131e-13 -6.95546e-13 0)
(-3.28214e-14 -4.71659e-13 0)
(-3.43664e-13 -4.57322e-13 0)
(3.59967e-14 -5.89871e-13 0)
(8.73397e-15 -5.70688e-13 0)
(2.65272e-14 -4.00035e-13 0)
(-2.47901e-13 -6.34626e-14 0)
(-4.7904e-13 -4.7944e-13 0)
(-6.4023e-13 -5.70774e-13 0)
(-6.22019e-13 -6.97547e-13 0)
(-7.00119e-13 -7.98752e-13 0)
(-3.2509e-13 -1.01454e-12 0)
(1.11453e-13 -9.37841e-13 2.1126e-33)
(-5.3122e-13 -8.24048e-13 0)
(-6.34978e-13 -1.00269e-12 0)
(-3.30642e-13 -1.08583e-12 0)
(-1.57214e-13 -8.94906e-13 0)
(-3.84262e-13 -7.27902e-13 0)
(-2.42629e-13 -6.53635e-13 0)
(-1.79738e-15 -7.554e-13 0)
(-1.30784e-13 -7.85205e-13 0)
(-4.8554e-13 -7.42861e-13 0)
(-6.46518e-13 -7.67269e-13 0)
(-4.5024e-14 -9.95873e-13 0)
(9.61081e-14 -9.17618e-13 0)
(5.75485e-14 -7.43953e-13 0)
(4.24507e-11 -1.94651e-13 0)
(2.69785e-08 5.57931e-11 0)
(1.98475e-05 2.5894e-08 0)
(0.00693251 6.46219e-06 0)
(0.399185 0.000356045 2.1266e-33)
(3.57679 0.00312713 0)
(9.05987 0.00785946 0)
(13.4203 0.012093 0)
(16.2111 0.0142721 0)
(17.7891 0.0131791 -2.08377e-33)
(18.5614 0.0115749 0)
(18.8729 0.00979724 0)
(19.003 0.00993091 2.08592e-33)
(19.0176 0.0044565 0)
(19.0291 0.00383248 0)
(19.0407 0.000246501 0)
(19.0417 -0.00161474 -2.07565e-33)
(19.032 -0.00466351 0)
(19.0218 -0.00669032 0)
(19.0236 -0.00759346 0)
(19.027 -0.00858166 0)
(19.0288 -0.00869046 0)
(19.029 -0.00872194 0)
(19.0271 -0.00887069 0)
(19.0274 -0.00884309 0)
(19.027 -0.00848797 0)
(19.026 -0.00828761 0)
(19.026 -0.00772886 0)
(19.0218 -0.00685253 -1.08595e-33)
(19.0197 -0.00615494 1.08628e-33)
(19.0163 -0.00561475 0)
(19.0164 -0.00486592 0)
(19.023 -0.00443901 -1.07993e-33)
(19.0199 -0.00335987 0)
(18.997 -0.00283812 0)
(18.97 -0.000521029 0)
(18.8177 0.00153965 0)
(18.3612 0.00496586 0)
(17.1876 0.00881344 0)
(14.5779 0.0114531 0)
(9.66337 0.010487 0)
(3.17467 0.00431202 0)
(0.226327 0.000342297 0)
(0.00217269 3.38612e-06 0)
(3.89514e-06 7.80908e-09 1.06355e-33)
(4.97759e-09 1.0659e-11 0)
(8.33055e-12 3.91283e-13 0)
(5.13291e-13 -1.56686e-13 0)
(1.88402e-13 -1.38824e-13 0)
(-2.35368e-13 -1.07889e-13 0)
(-4.07615e-13 -1.93379e-13 0)
(3.74851e-13 2.91515e-13 0)
(5.04451e-13 2.74457e-13 0)
(1.18258e-14 1.14269e-13 0)
(6.16821e-13 1.59432e-13 0)
(7.28071e-13 -3.17392e-14 0)
(-2.40518e-13 -1.91679e-13 0)
(2.69384e-13 -1.90224e-13 0)
(5.63987e-13 -2.16617e-13 0)
(-1.33249e-13 -3.01539e-13 0)
(-1.67047e-13 -2.22737e-13 0)
(3.73092e-13 -2.89568e-13 0)
(3.43058e-13 -3.61052e-13 0)
(-1.41052e-13 -3.94279e-13 0)
(-2.4899e-13 -5.13888e-13 -1.05406e-33)
(-4.40529e-13 -4.24658e-13 0)
(-3.74157e-14 -2.37311e-13 -1.05439e-33)
(2.66637e-13 -7.98081e-14 0)
(-1.5006e-14 -3.62454e-13 0)
(1.87639e-14 -4.69101e-13 0)
(-8.68128e-14 -3.90429e-13 0)
(1.29659e-13 -5.65336e-13 0)
(2.09928e-13 -6.07682e-13 0)
(1.36953e-13 -4.3332e-14 0)
(3.71172e-13 -1.85405e-13 0)
(2.82528e-13 -3.84208e-13 0)
(-2.06105e-13 -1.18324e-13 0)
(-1.74895e-13 1.04064e-13 0)
(5.31542e-14 -6.86229e-15 0)
(1.24984e-13 7.32853e-14 0)
(-5.78521e-13 -3.19922e-13 0)
(-7.58546e-13 -5.0141e-13 0)
(-7.60409e-13 -5.64692e-13 0)
(-7.82206e-13 -5.98944e-13 0)
(-6.76634e-13 -5.57402e-13 0)
(-7.10046e-13 -1.3228e-13 0)
(-2.80906e-13 -4.37585e-13 -2.10511e-33)
(-4.03094e-13 -5.82321e-13 0)
(-4.46981e-13 -5.18955e-13 0)
(-2.37283e-13 -6.38386e-13 0)
(-2.21429e-13 -9.95406e-13 0)
(-3.05942e-13 -8.36653e-13 0)
(-2.33263e-13 -3.54949e-13 0)
(-4.13524e-13 -1.40766e-13 0)
(7.44444e-14 6.26745e-14 0)
(2.98112e-13 2.30552e-13 0)
(2.44108e-14 3.01951e-13 0)
(3.10003e-13 4.39884e-13 0)
(4.57052e-13 4.55719e-13 0)
(4.42704e-13 4.29633e-13 0)
(4.45288e-11 4.43754e-13 0)
(2.7106e-08 -1.39617e-13 0)
(1.99429e-05 -1.6534e-10 0)
(0.00695825 -3.06744e-08 0)
(0.400079 1.95796e-07 -2.12605e-33)
(3.58044 4.46945e-05 0)
(9.06323 0.000309925 0)
(13.4207 0.000855613 0)
(16.21 0.0023075 0)
(17.7874 0.00440378 2.08568e-33)
(18.5598 0.0053512 0)
(18.872 0.0059208 0)
(19.0028 0.00607478 -2.08507e-33)
(19.0173 0.00708611 0)
(19.0288 0.00729863 0)
(19.0415 0.00774002 0)
(19.0418 0.00617395 2.07634e-33)
(19.0319 0.00190031 0)
(19.023 -0.00270312 0)
(19.0247 -0.00465923 0)
(19.0278 -0.00634454 0)
(19.0291 -0.0069513 0)
(19.0288 -0.00735633 0)
(19.0262 -0.00760684 0)
(19.0261 -0.00769658 0)
(19.0254 -0.00759994 0)
(19.0243 -0.00760245 0)
(19.0241 -0.00697828 0)
(19.0197 -0.00614288 1.08564e-33)
(19.0171 -0.00542753 -1.08669e-33)
(19.0133 -0.00482856 0)
(19.0129 -0.00362384 0)
(19.0189 -0.00284961 1.08097e-33)
(19.0156 -0.00141053 0)
(18.9924 -0.00030638 0)
(18.965 0.00199823 0)
(18.8124 0.00331524 0)
(18.3548 0.00450021 0)
(17.1791 0.00511929 0)
(14.5652 0.00515107 0)
(9.64487 0.00362621 0)
(3.15912 0.00126017 0)
(0.224151 9.58487e-05 0)
(0.00215393 1.03287e-06 0)
(3.8631e-06 2.43186e-09 -1.06704e-33)
(4.95553e-09 5.31382e-12 0)
(6.80094e-12 7.29139e-13 0)
(-4.53501e-14 5.27541e-13 0)
(1.75105e-13 4.35674e-13 0)
(-2.68696e-13 4.03982e-13 0)
(-4.09462e-14 4.13955e-13 0)
(4.20936e-13 3.78161e-13 0)
(3.11913e-13 2.418e-13 0)
(6.83482e-15 1.62036e-13 0)
(7.59312e-14 2.89665e-13 0)
(8.98584e-14 -2.92004e-13 0)
(-1.80938e-14 4.95478e-14 0)
(-8.84714e-14 4.95915e-14 0)
(6.3616e-14 -1.8273e-13 0)
(7.52318e-14 -2.05933e-13 0)
(7.40381e-14 -2.89552e-13 0)
(8.91116e-14 -2.85448e-13 0)
(2.41134e-13 -3.26583e-13 0)
(1.24351e-13 -3.17338e-13 0)
(2.8345e-14 -3.87568e-13 1.05685e-33)
(2.77779e-13 -4.51878e-13 0)
(6.27553e-13 -6.13906e-14 1.05756e-33)
(5.12943e-13 1.10358e-14 0)
(-1.75073e-13 2.44706e-13 0)
(-3.7142e-13 1.52456e-13 0)
(-5.10297e-13 2.74875e-14 0)
(-5.1151e-13 5.80141e-14 0)
(-2.70559e-13 -1.31913e-13 0)
(-1.85497e-14 6.06928e-13 0)
(-1.1096e-13 5.1288e-13 0)
(3.83216e-13 4.06883e-13 0)
(2.73613e-13 5.61845e-13 0)
(-2.36838e-14 6.80411e-13 0)
(1.01695e-13 6.00468e-13 0)
(-3.01138e-13 6.15997e-13 0)
(-8.28585e-13 5.6981e-13 0)
(-7.15356e-13 5.77793e-13 0)
(-6.6233e-13 6.02997e-13 0)
(-4.58216e-13 7.85785e-13 0)
(5.28609e-14 8.65119e-13 0)
(-3.26613e-13 9.40419e-13 0)
(-4.32671e-13 9.04707e-13 0)
(-4.25331e-13 1.16369e-12 0)
(-7.67077e-13 1.22174e-12 0)
(-1.24022e-12 8.89739e-13 0)
(-5.65155e-13 1.15194e-12 0)
(3.31916e-13 8.66502e-13 0)
(6.05878e-13 7.61026e-13 0)
(4.38214e-13 1.1511e-12 0)
(6.55279e-13 1.25609e-12 0)
(1.14009e-13 1.24103e-12 0)
(-3.66992e-13 1.24137e-12 0)
(2.12118e-13 1.21645e-12 0)
(3.12156e-13 1.11661e-12 0)
(1.74945e-13 1.00507e-12 0)
(4.32326e-11 7.31087e-13 0)
(2.69736e-08 -5.27613e-11 0)
(1.98482e-05 -2.38164e-08 0)
(0.00693178 -5.94753e-06 0)
(0.399108 -0.000322269 0)
(3.57624 -0.00264346 0)
(9.0589 -0.00580461 0)
(13.4181 -0.00696678 0)
(16.2085 -0.00578368 0)
(17.7852 -0.0029356 0)
(18.5563 0.000820582 0)
(18.8679 0.00465006 0)
(18.9976 0.0063788 0)
(19.012 0.00944805 0)
(19.0242 0.00918349 0)
(19.0374 0.00852862 0)
(19.0397 0.00734623 0)
(19.0313 0.00533467 0)
(19.0224 0.00168136 0)
(19.0243 -0.000408824 0)
(19.0275 -0.0036119 0)
(19.0281 -0.00541339 0)
(19.0273 -0.00685958 0)
(19.0242 -0.00759822 0)
(19.024 -0.00783793 0)
(19.0231 -0.00756374 0)
(19.0225 -0.00739649 0)
(19.0224 -0.00666823 0)
(19.0185 -0.00552123 0)
(19.0162 -0.00417715 0)
(19.0129 -0.00302612 0)
(19.0127 -0.0015379 0)
(19.0188 -0.000581395 0)
(19.0159 0.000755824 0)
(18.9937 0.00190956 0)
(18.9675 0.00376212 0)
(18.8163 0.00454724 0)
(18.36 0.00504427 0)
(17.1851 0.00487886 0)
(14.571 0.0034041 0)
(9.64935 0.00164811 0)
(3.16111 0.000418588 0)
(0.224283 2.84242e-05 0)
(0.00215217 4.0497e-07 0)
(3.85449e-06 2.14355e-09 0)
(4.93462e-09 8.04264e-12 0)
(7.16767e-12 1.01858e-12 0)
(9.66403e-14 8.28141e-13 0)
(9.74775e-14 7.37387e-13 0)
(-2.47797e-13 5.95041e-13 0)
(-1.76457e-13 7.14809e-13 0)
(-1.36739e-15 4.90095e-13 0)
(-5.93836e-14 3.31975e-13 0)
(1.14696e-13 3.63681e-13 0)
(-1.09342e-13 4.77864e-13 0)
(1.766e-13 6.40915e-13 0)
(4.10676e-13 5.75584e-13 0)
(-3.07643e-13 5.63629e-13 0)
(1.26908e-13 4.54193e-13 0)
(-1.04415e-13 4.13134e-13 0)
(-1.66087e-13 3.58431e-13 0)
(3.12848e-13 3.59142e-13 0)
(4.64742e-13 3.39897e-13 0)
(-1.95876e-13 6.04741e-13 0)
(-5.83907e-13 5.27662e-13 0)
(3.99009e-13 6.9065e-13 0)
(9.1166e-13 4.60371e-13 0)
(4.69869e-13 1.99216e-13 0)
(3.52961e-15 1.03935e-13 0)
(-1.25162e-13 3.08194e-13 0)
(-3.09642e-13 4.27994e-13 0)
(-4.36616e-13 4.67395e-13 0)
(-4.17039e-13 5.61612e-13 0)
(-2.44809e-13 4.24773e-13 0)
(-1.73501e-13 5.65571e-13 0)
(3.46329e-13 5.42212e-13 0)
(4.80195e-13 4.98709e-13 0)
(6.44656e-14 4.92627e-13 0)
(9.97008e-14 4.1721e-13 0)
(-4.7699e-14 2.50722e-13 0)
(-1.02706e-12 1.24801e-13 0)
(-9.0266e-13 1.95774e-13 0)
(-6.79249e-13 2.12188e-13 0)
(-4.46854e-13 3.45433e-13 0)
(-1.95491e-13 3.6774e-13 0)
(-4.62008e-13 3.16269e-13 0)
(-2.36885e-13 4.90187e-13 0)
(2.6724e-13 8.90652e-13 0)
(-7.20908e-13 7.91613e-13 0)
(-1.20181e-13 9.89559e-13 0)
(-1.05117e-13 1.11207e-12 0)
(-5.57871e-13 8.25626e-13 0)
(5.32681e-13 8.04105e-13 0)
(2.95452e-13 9.5378e-13 0)
(-9.77166e-14 8.41482e-13 0)
(4.79287e-13 6.90824e-13 0)
(-3.92987e-14 5.70684e-13 0)
(-6.93334e-14 5.63879e-13 0)
(-1.01301e-13 7.02057e-13 0)
(-3.09449e-13 4.8942e-13 0)
(4.372e-11 2.34213e-13 0)
(2.65638e-08 -1.08359e-10 0)
(1.95564e-05 -4.73487e-08 0)
(0.00684996 -1.15507e-05 0)
(0.396057 -0.000616134 0)
(3.56272 -0.00483569 0)
(9.04387 -0.00977417 0)
(13.4055 -0.0104462 0)
(16.1969 -0.00798905 0)
(17.7744 -0.00407509 0)
(18.546 0.000489087 0)
(18.8579 0.0048718 0)
(18.9874 0.00650893 0)
(19.0028 0.0104899 0)
(19.0162 0.00926777 0)
(19.0305 0.0107234 0)
(19.0347 0.00940452 0)
(19.0278 0.00704141 0)
(19.0201 0.00381458 0)
(19.0226 0.00175406 0)
(19.0262 -0.00141393 0)
(19.0268 -0.00333255 0)
(19.026 -0.00502766 0)
(19.023 -0.00587688 0)
(19.023 -0.00620435 0)
(19.0222 -0.00576142 0)
(19.022 -0.00537654 0)
(19.0222 -0.00472536 0)
(19.0186 -0.00410653 0)
(19.0162 -0.00305169 0)
(19.0129 -0.00228107 0)
(19.0128 -0.00144992 0)
(19.0191 -0.000968862 0)
(19.0166 -0.000246095 0)
(18.9945 7.52784e-05 0)
(18.9681 0.00118113 0)
(18.8168 0.00213839 0)
(18.3604 0.00361965 0)
(17.1852 0.00516935 0)
(14.57 0.00645029 0)
(9.64654 0.00564147 0)
(3.15837 0.00220204 0)
(0.223862 0.000167037 0)
(0.00213571 1.94416e-06 0)
(3.81458e-06 7.09903e-09 0)
(4.87139e-09 1.71344e-11 0)
(5.93262e-12 4.22534e-13 0)
(-4.54484e-13 6.33256e-13 0)
(-4.95249e-13 4.08891e-13 0)
(-3.53696e-13 2.27761e-13 0)
(-2.96622e-13 3.31934e-13 0)
(-2.95125e-13 4.68949e-13 0)
(-1.358e-13 5.48545e-13 0)
(2.26361e-13 6.44329e-13 0)
(5.60094e-13 6.86138e-13 0)
(1.01794e-13 6.8125e-13 0)
(-5.72985e-14 3.93254e-13 0)
(-2.06403e-13 4.16891e-13 0)
(-1.18815e-13 4.36027e-13 0)
(-1.36331e-13 3.57807e-13 0)
(-2.26859e-13 5.76918e-13 0)
(3.22801e-13 6.00657e-13 0)
(6.28877e-13 4.41813e-13 0)
(3.67211e-13 3.59081e-13 0)
(1.57767e-13 4.98877e-13 0)
(1.843e-13 6.74254e-13 0)
(-4.42539e-13 2.40103e-13 0)
(-1.47452e-13 -4.66449e-14 0)
(2.06997e-13 -9.6511e-14 0)
(3.06865e-13 1.11446e-13 0)
(-1.07043e-13 2.71674e-13 0)
(-1.73282e-13 2.25238e-13 0)
(-1.43651e-13 4.04122e-13 0)
(3.33094e-13 -8.26107e-13 0)
(2.95935e-13 -4.18499e-13 0)
(3.27145e-13 -2.81344e-14 0)
(2.72551e-13 -2.28923e-14 0)
(-2.07698e-13 -1.05121e-13 0)
(-6.283e-13 9.86972e-14 0)
(-1.08016e-12 -1.07598e-14 0)
(-8.71004e-13 1.35731e-13 0)
(-5.90627e-13 5.00806e-13 0)
(-5.95516e-13 5.77992e-13 0)
(-4.25649e-13 3.50934e-13 0)
(-2.84502e-13 3.28604e-13 0)
(-4.14536e-13 -1.64866e-13 0)
(-9.55006e-14 -2.76707e-13 0)
(1.60126e-13 -7.27296e-13 0)
(-2.53983e-13 -6.52953e-13 0)
(-6.40507e-13 -6.15127e-13 0)
(-4.70184e-13 -7.52122e-13 0)
(1.86796e-13 -5.43302e-13 0)
(8.32587e-13 -4.07731e-13 0)
(6.95238e-13 -3.15989e-13 0)
(6.46662e-13 -1.29607e-13 0)
(-3.27578e-13 5.91528e-14 0)
(-8.24858e-13 -5.83464e-14 0)
(-7.56548e-14 -2.81892e-13 0)
(1.84028e-13 -6.34058e-13 0)
(-1.44319e-13 -3.15747e-13 0)
(4.19275e-11 -7.46448e-14 0)
(2.61392e-08 -1.25725e-11 0)
(1.92622e-05 -5.81278e-09 0)
(0.00676578 -1.43768e-06 0)
(0.392765 -8.1525e-05 0)
(3.54741 -0.000742244 0)
(9.02597 -0.00188609 0)
(13.3906 -0.00299917 0)
(16.1853 -0.00330724 0)
(17.7655 -0.00251175 0)
(18.539 -0.00136288 0)
(18.8521 0.000104138 0)
(18.982 0.000680471 0)
(18.9974 0.0034362 0)
(19.0113 0.00364684 0)
(19.0254 0.005609 0)
(19.0303 0.00588077 0)
(19.0242 0.00494664 0)
(19.0177 0.00333966 0)
(19.0211 0.00218674 0)
(19.0254 0.000171808 0)
(19.0263 -0.00123046 0)
(19.0257 -0.00238169 0)
(19.0228 -0.00324003 0)
(19.0229 -0.0035277 0)
(19.022 -0.0036445 0)
(19.0221 -0.00360697 0)
(19.0222 -0.00289849 0)
(19.0187 -0.0019235 0)
(19.0162 -0.00176723 0)
(19.0129 -0.00121952 0)
(19.0128 -0.000523528 0)
(19.019 -6.70453e-05 0)
(19.0161 0.000559394 0)
(18.9934 0.00107331 0)
(18.966 0.0016679 0)
(18.8131 0.00192031 0)
(18.3543 0.00205289 0)
(17.1758 0.00191643 0)
(14.5569 0.00131824 0)
(9.6302 0.0005872 0)
(3.1464 0.000140361 0)
(0.222335 6.55571e-06 0)
(0.00211589 -5.89852e-09 0)
(3.77254e-06 -2.2256e-10 0)
(4.81046e-09 -1.77054e-12 0)
(8.2586e-12 -7.26485e-13 0)
(-6.80919e-13 2.15687e-13 0)
(-7.22355e-13 -8.10061e-14 0)
(-3.37284e-13 1.01248e-13 0)
(1.77963e-13 1.70506e-13 0)
(2.06501e-13 2.49789e-13 0)
(2.91638e-13 3.32443e-13 0)
(3.17435e-13 2.8088e-13 0)
(1.66804e-14 3.0739e-13 0)
(-4.14284e-13 8.80774e-14 0)
(-2.30518e-13 -3.76465e-14 0)
(1.36277e-14 -5.01812e-15 0)
(-3.54654e-14 1.46707e-13 0)
(3.25302e-13 2.13014e-13 0)
(3.16262e-13 4.91624e-13 0)
(1.55774e-13 5.01385e-13 0)
(1.57328e-14 5.23154e-13 0)
(-1.74015e-13 2.35224e-13 0)
(-3.6858e-13 -8.65429e-14 0)
(-3.91794e-13 -5.64835e-13 0)
(-9.01004e-14 -3.56449e-13 0)
(2.3424e-13 -1.7487e-13 0)
(4.84244e-13 4.00339e-14 0)
(3.26304e-13 2.49534e-14 0)
(-1.86096e-13 -1.95602e-14 0)
(1.38446e-13 -4.49686e-14 0)
(4.36609e-13 -6.71856e-14 0)
(7.23922e-13 -5.14679e-13 0)
(1.0993e-12 -4.76113e-13 0)
(6.87977e-13 -1.55156e-13 0)
(2.85698e-13 -8.27244e-14 0)
(3.44852e-13 1.11832e-13 0)
(-5.96227e-14 5.56219e-13 0)
(-5.11206e-13 8.33073e-13 0)
(-5.27971e-13 1.00309e-12 0)
(-3.16165e-13 1.20189e-12 0)
(-7.53263e-13 1.21621e-12 0)
(-8.15736e-13 9.12156e-13 0)
(-7.11678e-13 8.47686e-13 0)
(-9.1006e-13 3.23263e-13 0)
(-4.7794e-13 2.09842e-13 0)
(-9.38732e-14 -8.62753e-14 0)
(-1.06677e-13 -7.13038e-14 0)
(-2.28799e-13 -4.15694e-14 0)
(-1.65019e-13 2.20829e-13 0)
(1.68164e-13 4.85944e-13 0)
(9.80222e-13 2.98967e-13 0)
(8.29937e-13 3.82949e-13 0)
(4.53302e-13 3.9389e-13 0)
(7.28887e-14 4.41647e-13 0)
(-6.88471e-13 6.1175e-13 0)
(-7.95131e-13 3.32505e-13 0)
(5.54113e-14 2.02939e-13 0)
(3.94434e-13 3.20346e-13 0)
(4.35049e-11 7.79818e-13 0)
(2.6239e-08 8.68205e-12 0)
(1.93265e-05 2.87766e-09 0)
(0.00678621 6.71581e-07 0)
(0.393689 3.69785e-05 0)
(3.55218 0.000251646 0)
(9.03206 0.000279304 0)
(13.3963 -7.59986e-05 0)
(16.1903 -0.000667024 0)
(17.7695 -0.00111741 0)
(18.5419 -0.00114264 0)
(18.8541 -0.000744409 0)
(18.983 -0.00057965 0)
(18.998 0.00114843 0)
(19.0112 0.000708164 0)
(19.0251 0.00190605 0)
(19.0297 0.00187703 0)
(19.0234 0.00177978 0)
(19.017 0.00129363 0)
(19.0208 0.000700271 0)
(19.0252 -0.000593921 0)
(19.0261 -0.00144341 0)
(19.0255 -0.0022261 0)
(19.0226 -0.00265697 0)
(19.0226 -0.00275971 0)
(19.0218 -0.00239549 0)
(19.0223 -0.00205738 0)
(19.0224 -0.00151991 0)
(19.0191 -0.000926181 0)
(19.0166 -0.000473162 0)
(19.0133 1.22994e-05 0)
(19.0134 0.000665189 0)
(19.0199 0.00104864 0)
(19.0176 0.00147231 0)
(18.9957 0.00180932 0)
(18.9694 0.00197448 0)
(18.818 0.00174776 0)
(18.3613 0.00106558 0)
(17.1852 -1.88746e-05 0)
(14.5687 -0.00113548 0)
(9.64376 -0.00146013 0)
(3.15573 -0.000667778 0)
(0.22347 -5.39836e-05 0)
(0.00212911 -5.70153e-07 0)
(3.79922e-06 -1.73065e-09 0)
(4.84704e-09 -4.35607e-12 0)
(1.042e-11 -9.27552e-14 0)
(-7.67107e-13 4.73255e-13 0)
(-7.96644e-13 3.49346e-13 0)
(2.12267e-14 4.24299e-13 0)
(-4.04017e-15 4.37402e-13 0)
(4.47831e-14 3.3894e-13 0)
(1.42613e-13 1.14688e-13 0)
(2.61702e-13 -4.10846e-14 0)
(8.69197e-14 -7.00853e-15 0)
(-4.20274e-13 3.71676e-14 0)
(-2.37071e-13 1.03592e-13 0)
(1.08689e-13 1.058e-13 0)
(1.16427e-13 2.95515e-13 0)
(3.8815e-13 3.3346e-13 0)
(1.5876e-13 3.94559e-13 0)
(2.27614e-13 2.63436e-13 0)
(4.08624e-13 3.76851e-13 0)
(-3.4721e-13 2.95852e-13 0)
(-7.96333e-13 1.18839e-13 0)
(-2.97307e-13 -2.94898e-14 0)
(3.95167e-14 2.11185e-13 0)
(3.36009e-13 9.96663e-14 0)
(6.26742e-13 1.98428e-13 0)
(2.482e-13 1.89713e-13 0)
(-3.07727e-13 1.38395e-13 0)
(-3.05589e-14 1.62335e-13 0)
(4.19215e-13 1.32e-13 0)
)
;

boundaryField
{
    sides1
    {
        type            zeroGradient;
    }
    sides2
    {
        type            slip;
    }
    empty
    {
        type            empty;
    }
}


// ************************************************************************* //
