/*--------------------------------*- C++ -*----------------------------------*\
| =========                 |                                                 |
| \\      /  F ield         | OpenFOAM: The Open Source CFD Toolbox           |
|  \\    /   O peration     | Version:  3.0.1                                 |
|   \\  /    A nd           | Web:      www.OpenFOAM.org                      |
|    \\/     M anipulation  |                                                 |
\*---------------------------------------------------------------------------*/
FoamFile
{
    version     2.0;
    format      ascii;
    class       surfaceScalarField;
    location    "0.0002";
    object      phi;
}
// * * * * * * * * * * * * * * * * * * * * * * * * * * * * * * * * * * * * * //

dimensions      [1 0 -1 0 0 0 0];

internalField   nonuniform List<scalar> 
1890
(
1.30104e-18
-2.46114e-17
2.50668e-16
-2.68882e-17
1.47972e-15
-2.26598e-17
7.26893e-15
-2.49366e-18
3.17571e-14
1.33357e-17
1.32866e-13
8.67362e-18
5.39836e-13
1.52873e-17
2.13425e-12
-1.75641e-17
8.20962e-12
-1.50704e-17
3.06989e-11
-6.39679e-18
1.11484e-10
-2.29851e-17
3.92743e-10
-7.26415e-18
1.34057e-09
2.93819e-17
4.42775e-09
6.46184e-17
1.41307e-08
3.09757e-16
4.35053e-08
9.70036e-16
1.28989e-07
2.89363e-15
3.67569e-07
8.23668e-15
1.00447e-06
2.23525e-14
2.6257e-06
5.76437e-14
6.5464e-06
1.40152e-13
1.55143e-05
3.19455e-13
3.48099e-05
6.76647e-13
7.35941e-05
1.31425e-12
0.000145768
2.28816e-12
0.000268589
3.41758e-12
0.000456125
3.93687e-12
0.000703353
2.06258e-12
0.000978302
-3.42539e-12
0.00124992
-1.5351e-11
0.00149097
-3.09399e-11
0.00167674
-4.58228e-11
0.00179155
-5.26534e-11
0.00183365
-4.10373e-11
0.00181817
-5.41616e-12
0.00181118
5.93784e-11
0.00180705
9.86064e-11
0.00179944
1.1669e-10
0.00180111
1.00445e-10
0.00179766
6.04837e-11
0.00179824
3.27101e-11
0.00179614
1.34072e-11
0.00179631
3.78884e-12
0.00179536
-9.22246e-12
0.00179541
-8.20646e-12
0.00179522
-2.25582e-11
0.0017949
-2.03177e-12
0.00179506
-2.13852e-11
0.00179482
5.97278e-11
0.00179495
-7.43763e-11
0.00177259
-6.4849e-12
0.00172936
-1.64253e-11
0.00171683
4.34204e-11
0.00171608
3.05944e-12
0.00171691
7.22623e-12
0.0017172
1.04111e-11
0.00171692
1.20194e-11
0.0017172
1.01607e-11
0.00171515
9.59173e-12
0.0017183
1.10569e-11
0.00172041
1.8102e-12
0.00171659
-7.0826e-12
0.00171947
-1.63353e-11
0.00171804
-2.37989e-11
0.00171129
-3.19611e-11
0.00173377
-4.59571e-11
0.00173254
-7.46468e-11
0.0016845
-7.51233e-11
0.00170994
-2.38401e-11
0.00181653
1.54021e-11
0.00175581
3.73748e-11
0.00126873
3.11807e-11
0.000754306
1.06312e-11
0.000408769
3.49038e-13
0.000206737
-1.87087e-12
9.85656e-05
-1.86017e-12
4.4533e-05
-1.20896e-12
1.91345e-05
-6.55576e-13
7.84029e-06
-3.17312e-13
3.07082e-06
-1.4112e-13
1.15216e-06
-5.85382e-14
4.14917e-07
-2.2866e-14
1.43676e-07
-8.44463e-15
4.79196e-08
-2.9821e-15
1.54177e-08
-1.00332e-15
4.79217e-09
-3.31007e-16
1.44089e-09
-1.12974e-16
4.19618e-10
-3.78387e-17
1.18497e-10
-9.21572e-18
3.24832e-11
4.44523e-18
8.65255e-12
7.37257e-18
2.24161e-12
-9.1073e-18
5.65262e-13
-1.35525e-17
1.38778e-13
-3.68629e-18
3.31202e-14
-1.56125e-17
7.63061e-15
-1.40946e-18
1.61243e-15
-8.13152e-18
2.50668e-16
-3.68629e-18
-5.1608e-17
-1.17094e-17
-1.86483e-17
1.21431e-17
3.67545e-17
2.73653e-16
2.9165e-17
1.54867e-15
6.61363e-18
7.30015e-15
1.40946e-17
3.17663e-14
-1.0842e-19
1.32854e-13
-2.1684e-19
5.39795e-13
-5.63785e-18
2.13425e-12
1.12757e-17
8.20964e-12
8.0231e-18
3.06989e-11
1.30104e-18
1.11484e-10
5.85469e-18
3.92743e-10
-2.05998e-17
1.34057e-09
-8.67362e-19
4.42775e-09
1.15793e-16
1.41307e-08
4.25875e-16
4.35054e-08
1.34343e-15
1.28989e-07
3.96439e-15
3.67569e-07
1.12589e-14
1.00447e-06
3.04627e-14
2.6257e-06
7.85282e-14
6.5464e-06
1.91492e-13
1.55143e-05
4.38318e-13
3.48099e-05
9.3255e-13
7.35941e-05
1.81378e-12
0.000145768
3.10727e-12
0.000268589
4.45524e-12
0.000456125
4.78142e-12
0.000703353
1.99681e-12
0.000978302
-5.92499e-12
0.00124992
-1.92571e-11
0.00149097
-3.71458e-11
0.00167674
-5.28565e-11
0.00179155
-5.787e-11
0.00183365
-4.34355e-11
0.00181817
1.96637e-12
0.00181118
6.79899e-11
0.00180705
1.06131e-10
0.00179944
1.19431e-10
0.00180111
9.9745e-11
0.00179766
6.4393e-11
0.00179824
3.59625e-11
0.00179614
1.48581e-11
0.00179631
1.18856e-12
0.00179536
-5.55812e-12
0.00179541
-1.45756e-11
0.00179522
-1.4189e-11
0.0017949
-1.93896e-11
0.00179506
-7.55926e-12
0.00179482
-3.4278e-11
0.00179495
1.87548e-11
0.00177259
4.03771e-12
0.00172936
-1.80877e-12
0.00171683
-2.00827e-12
0.00171608
-4.81257e-13
0.00171691
4.66122e-13
0.0017172
1.18762e-12
0.00171692
1.35691e-12
0.0017172
2.50055e-12
0.00171515
1.9324e-12
0.0017183
3.76195e-12
0.00172041
-4.23415e-13
0.00171659
-9.15616e-12
0.00171947
-2.09849e-11
0.00171804
-2.99107e-11
0.00171129
-3.29948e-11
0.00173377
-4.1565e-11
0.00173254
-6.55563e-11
0.0016845
-6.69198e-11
0.00170994
-2.77825e-11
0.00181653
1.68552e-11
0.00175581
4.21048e-11
0.00126873
3.43459e-11
0.000754306
1.21948e-11
0.000408769
1.46359e-12
0.000206737
-2.32975e-12
9.85656e-05
-2.42491e-12
4.4533e-05
-1.6355e-12
1.91345e-05
-9.02666e-13
7.84029e-06
-4.37873e-13
3.07082e-06
-1.94875e-13
1.15216e-06
-8.09761e-14
4.14917e-07
-3.17421e-14
1.43676e-07
-1.18205e-14
4.79196e-08
-4.20595e-15
1.54177e-08
-1.41955e-15
4.79217e-09
-4.6187e-16
1.44089e-09
-1.58836e-16
4.19618e-10
-6.40763e-17
1.18497e-10
-4.10913e-17
3.24832e-11
-3.08998e-17
8.65252e-12
-2.56956e-17
2.24159e-12
-8.13152e-18
5.65264e-13
2.32019e-17
1.38793e-13
1.82146e-17
3.31176e-14
-2.71051e-18
7.62151e-15
-7.15573e-18
1.60115e-15
-2.9165e-17
2.13805e-16
5.85469e-18
-1.04951e-16
3.14419e-18
3.81639e-17
-2.77556e-17
-2.81893e-17
1.9906e-16
-5.09575e-18
1.50747e-15
2.25514e-17
7.28627e-15
1.36609e-17
3.17585e-14
2.05998e-17
1.32842e-13
1.88651e-17
5.39801e-13
2.0383e-17
2.13423e-12
2.1684e-19
8.2096e-12
-4.11997e-18
3.06989e-11
-1.78893e-17
1.11484e-10
-2.86229e-17
3.92743e-10
7.58942e-18
1.34057e-09
8.47846e-17
4.42775e-09
3.11817e-16
1.41307e-08
9.45966e-16
4.35054e-08
2.74542e-15
1.28989e-07
7.63192e-15
3.67569e-07
2.03295e-14
1.00447e-06
5.12128e-14
2.6257e-06
1.21647e-13
6.5464e-06
2.70515e-13
1.55143e-05
5.57807e-13
3.48099e-05
1.05118e-12
7.35941e-05
1.76679e-12
0.000145768
2.51857e-12
0.000268589
2.66915e-12
0.000456125
1.31216e-12
0.000703353
-3.22886e-12
0.000978302
-1.22141e-11
0.00124992
-2.22484e-11
0.00149097
-2.90841e-11
0.00167674
-2.90423e-11
0.00179155
-2.04843e-11
0.00183365
-8.44179e-13
0.00181817
3.10695e-11
0.00181118
5.25312e-11
0.00180705
6.28142e-11
0.00179944
5.32203e-11
0.00180111
3.16445e-11
0.00179766
2.14135e-11
0.00179824
9.25692e-12
0.00179614
8.26989e-12
0.00179631
-1.29758e-11
0.00179536
3.38058e-12
0.00179541
-2.82931e-11
0.00179522
1.65371e-11
0.0017949
-6.53935e-11
0.00179506
4.37877e-11
0.00179482
-3.16172e-10
0.00179495
3.75728e-10
0.00177259
3.75155e-11
0.00172936
3.13316e-11
0.00171683
-1.47643e-10
0.00171608
-5.67316e-12
0.00171691
-9.54751e-12
0.0017172
-1.1123e-11
0.00171692
-1.42065e-11
0.0017172
-7.44807e-12
0.00171515
-7.16237e-12
0.0017183
-8.5968e-12
0.00172041
-3.38892e-12
0.00171659
-2.39828e-12
0.00171947
-6.9171e-12
0.00171804
-1.9882e-11
0.00171129
-1.49249e-11
0.00173377
-3.82753e-12
0.00173254
-1.00623e-11
0.0016845
-1.73353e-11
0.00170994
-2.56307e-11
0.00181653
-1.58031e-11
0.00175581
1.13764e-11
0.00126873
2.78105e-11
0.000754306
1.80029e-11
0.000408769
6.16873e-12
0.000206737
2.20215e-13
9.85656e-05
-1.09591e-12
4.4533e-05
-1.21492e-12
1.91346e-05
-8.57099e-13
7.84029e-06
-4.91457e-13
3.07082e-06
-2.48727e-13
1.15216e-06
-1.14785e-13
4.14917e-07
-4.91462e-14
1.43676e-07
-1.9728e-14
4.79196e-08
-7.49032e-15
1.54177e-08
-2.72081e-15
4.79217e-09
-9.59736e-16
1.44089e-09
-3.17888e-16
4.19618e-10
-1.11781e-16
1.18497e-10
-4.0766e-17
3.24832e-11
-1.48536e-17
8.65258e-12
1.24683e-17
2.24167e-12
1.84314e-18
5.65254e-13
4.98733e-18
1.38745e-13
-5.20417e-18
3.30825e-14
6.83047e-18
7.62021e-15
-3.57787e-18
1.661e-15
-3.25261e-19
2.91867e-16
-2.60209e-17
4.59702e-17
-2.6563e-17
-3.1984e-17
5.29091e-17
-5.42101e-19
2.87097e-16
1.00831e-17
1.52395e-15
-7.91468e-18
7.29061e-15
1.13841e-17
3.17463e-14
-3.03577e-18
1.32839e-13
7.15573e-18
5.39782e-13
2.60209e-18
2.13421e-12
-7.04731e-18
8.20957e-12
-4.22839e-18
3.06989e-11
-4.66207e-18
1.11484e-10
7.80626e-18
3.92743e-10
1.97325e-17
1.34057e-09
7.44847e-17
4.42776e-09
2.27249e-16
1.41307e-08
6.27536e-16
4.35054e-08
1.84314e-15
1.28989e-07
5.1119e-15
3.67569e-07
1.35149e-14
1.00447e-06
3.3791e-14
2.6257e-06
7.94816e-14
6.5464e-06
1.74364e-13
1.55143e-05
3.52454e-13
3.48099e-05
6.44344e-13
7.35941e-05
1.03034e-12
0.000145768
1.33532e-12
0.000268589
1.13526e-12
0.000456125
-6.16303e-14
0.000703353
-3.64543e-12
0.000978302
-8.76122e-12
0.00124992
-1.3465e-11
0.00149097
-1.50666e-11
0.00167674
-1.08947e-11
0.00179155
-6.53266e-13
0.00183365
1.98946e-11
0.00181817
3.31287e-11
0.00181118
2.97978e-11
0.00180705
2.72034e-11
0.00179944
1.12665e-11
0.00180111
-6.84543e-12
0.00179766
-9.70277e-12
0.00179824
-7.13638e-12
0.00179614
-2.32338e-12
0.00179631
-1.02898e-11
0.00179536
4.39012e-12
0.00179541
-1.41699e-11
0.00179522
1.94249e-11
0.0017949
-3.46323e-11
0.00179506
3.40396e-11
0.00179482
-2.09176e-10
0.00179496
2.24111e-10
0.00177259
2.76098e-11
0.00172936
3.0321e-11
0.00171683
-9.27753e-11
0.00171608
-6.86663e-12
0.00171691
-1.13379e-11
0.0017172
-1.34126e-11
0.00171692
-1.5905e-11
0.0017172
-9.77493e-12
0.00171515
-1.02295e-11
0.0017183
-9.41146e-12
0.00172041
-4.58484e-13
0.00171659
2.75587e-12
0.00171947
1.8575e-12
0.00171804
-5.7263e-12
0.00171129
1.74821e-12
0.00173377
1.78982e-11
0.00173254
1.75182e-11
0.0016845
1.34434e-12
0.00170994
-1.71187e-11
0.00181653
-2.21816e-11
0.00175581
7.56789e-14
0.00126873
1.3942e-11
0.000754306
1.12398e-11
0.000408769
4.69256e-12
0.000206737
8.99624e-13
9.85656e-05
-4.12581e-13
4.4533e-05
-6.52641e-13
1.91346e-05
-5.05362e-13
7.84029e-06
-3.03951e-13
3.07082e-06
-1.58273e-13
1.15216e-06
-7.43804e-14
4.14918e-07
-3.2263e-14
1.43676e-07
-1.3087e-14
4.79196e-08
-5.03287e-15
1.54177e-08
-1.83664e-15
4.79217e-09
-6.42823e-16
1.44089e-09
-2.14997e-16
4.19619e-10
-5.93059e-17
1.18497e-10
1.0842e-18
3.24833e-11
-4.01155e-18
8.65259e-12
-4.11997e-18
2.24163e-12
-1.89735e-17
5.65259e-13
-1.84314e-17
1.38737e-13
-2.71051e-17
3.30833e-14
-1.89735e-17
7.60112e-15
-3.11166e-17
1.5838e-15
-2.61293e-17
2.38524e-16
-3.38271e-17
1.34441e-17
-1.99493e-17
-2.02746e-17
9.15067e-17
2.89482e-17
2.78423e-16
3.14419e-17
1.55691e-15
4.02239e-17
7.275e-15
4.2067e-17
3.17571e-14
3.13334e-17
1.32821e-13
2.04914e-17
5.39742e-13
2.09251e-17
2.13419e-12
2.86229e-17
8.20959e-12
2.6563e-17
3.06989e-11
-3.03577e-18
1.11484e-10
7.58942e-18
3.92744e-10
8.99888e-18
1.34057e-09
-2.71051e-18
4.42776e-09
-2.42861e-17
1.41307e-08
-2.60208e-17
4.35054e-08
3.36103e-18
1.28989e-07
-1.24683e-17
3.67569e-07
-7.30752e-17
1.00447e-06
-2.65196e-16
2.6257e-06
-6.36969e-16
6.5464e-06
-1.52992e-15
1.55144e-05
-3.48365e-15
3.48099e-05
-7.44013e-15
7.35941e-05
-1.49193e-14
0.000145768
-2.77769e-14
0.000268589
-4.72529e-14
0.000456125
-7.18168e-14
0.000703353
-9.93496e-14
0.000978302
-1.17679e-13
0.00124992
-1.08688e-13
0.00149097
-6.26895e-14
0.00167674
2.08937e-14
0.00179155
1.37839e-13
0.00183365
2.72417e-13
0.00181817
3.72059e-13
0.00181118
3.74579e-13
0.00180705
3.40041e-13
0.00179944
2.25864e-13
0.00180111
1.09496e-13
0.00179766
1.28088e-15
0.00179824
-9.60859e-14
0.00179614
-1.75688e-13
0.00179631
-1.85818e-13
0.00179536
-1.9888e-13
0.00179541
-1.51303e-13
0.00179522
-1.83767e-13
0.0017949
-7.45142e-14
0.00179506
-2.569e-13
0.00179482
7.53944e-13
0.00179495
-1.25864e-12
0.00177259
-3.12111e-13
0.00172936
-1.8051e-13
0.00171683
9.44323e-13
0.00171608
-6.25937e-14
0.00171691
1.68332e-13
0.0017172
8.4769e-14
0.00171692
1.09009e-13
0.0017172
5.62699e-14
0.00171515
7.36379e-14
0.0017183
3.76801e-14
0.00172041
2.91887e-14
0.00171659
3.2131e-14
0.00171947
2.9661e-14
0.00171804
5.7699e-14
0.00171129
-3.8204e-15
0.00173377
-1.31004e-13
0.00173254
-1.20984e-13
0.0016845
-1.00762e-13
0.00170994
-1.86475e-13
0.00181653
-1.91897e-13
0.00175581
-6.16445e-14
0.00126873
2.40387e-14
0.000754306
1.57136e-14
0.000408769
-1.22956e-14
0.000206737
-2.33419e-14
9.85656e-05
-2.38785e-14
4.4533e-05
-1.84823e-14
1.91346e-05
-1.1819e-14
7.84029e-06
-6.63163e-15
3.07082e-06
-3.3851e-15
1.15216e-06
-1.60115e-15
4.14918e-07
-7.20669e-16
1.43676e-07
-3.10407e-16
4.79196e-08
-1.11998e-16
1.54177e-08
-7.53521e-17
4.79217e-09
-5.0307e-17
1.44089e-09
-3.57787e-17
4.19619e-10
-3.69713e-17
1.18497e-10
-1.33357e-17
3.24833e-11
-1.64799e-17
8.65257e-12
-2.28767e-17
2.24162e-12
-1.0842e-17
5.65261e-13
-2.46114e-17
1.38744e-13
-9.75782e-18
3.3063e-14
-1.31188e-17
7.57033e-15
-8.34836e-18
1.58424e-15
1.8323e-17
2.62377e-16
1.40946e-18
-3.42608e-17
1.40946e-17
3.18755e-17
9.15067e-17
4.23923e-17
2.94469e-16
1.31188e-17
1.55605e-15
6.83047e-18
7.24594e-15
7.91468e-18
3.17164e-14
1.0842e-19
1.32821e-13
3.68629e-18
5.39766e-13
1.6263e-17
2.13419e-12
1.50704e-17
8.20956e-12
-2.81893e-18
3.06989e-11
1.30104e-17
1.11484e-10
3.30682e-17
3.92743e-10
-8.67362e-19
1.34057e-09
-4.09828e-17
4.42776e-09
-1.96349e-16
1.41307e-08
-6.19947e-16
4.35054e-08
-1.86819e-15
1.28989e-07
-5.19756e-15
3.67569e-07
-1.3761e-14
1.00447e-06
-3.446e-14
2.6257e-06
-8.11636e-14
6.5464e-06
-1.78285e-13
1.55144e-05
-3.61097e-13
3.48099e-05
-6.62292e-13
7.35941e-05
-1.06492e-12
0.000145768
-1.39655e-12
0.000268589
-1.22896e-12
0.000456125
-1.8223e-14
0.000703353
3.47549e-12
0.000978302
8.58899e-12
0.00124992
1.33368e-11
0.00149097
1.50391e-11
0.00167674
1.09829e-11
0.00179155
8.10002e-13
0.00183365
-1.94847e-11
0.00181817
-3.26137e-11
0.00181118
-2.93732e-11
0.00180705
-2.68083e-11
0.00179944
-1.09937e-11
0.00180111
7.05784e-12
0.00179766
9.70605e-12
0.00179824
7.04686e-12
0.00179614
2.18359e-12
0.00179631
1.00957e-11
0.00179536
-4.68345e-12
0.00179541
1.39626e-11
0.00179522
-1.9693e-11
0.0017949
3.44748e-11
0.00179506
-3.43788e-11
0.00179482
2.09863e-10
0.00179495
-2.25475e-10
0.00177259
-2.79273e-11
0.00172936
-3.04563e-11
0.00171683
9.3886e-11
0.00171608
6.81561e-12
0.00171691
1.15423e-11
0.0017172
1.35238e-11
0.00171692
1.60379e-11
0.0017172
9.84961e-12
0.00171515
1.03321e-11
0.0017183
9.47668e-12
0.00172041
5.11811e-13
0.00171659
-2.71048e-12
0.00171947
-1.79854e-12
0.00171804
5.84806e-12
0.00171129
-1.74557e-12
0.00173377
-1.79885e-11
0.00173254
-1.76226e-11
0.0016845
-1.49402e-12
0.00170994
1.68724e-11
0.00181653
2.19804e-11
0.00175581
-8.35652e-14
0.00126873
-1.38799e-11
0.000754306
-1.12911e-11
0.000408769
-4.79412e-12
0.000206737
-9.93091e-13
9.85656e-05
3.45462e-13
4.4533e-05
6.03631e-13
1.91346e-05
4.77268e-13
7.84029e-06
2.89233e-13
3.07082e-06
1.51102e-13
1.15216e-06
7.11225e-14
4.14918e-07
3.08483e-14
1.43676e-07
1.24981e-14
4.79196e-08
4.77765e-15
1.54177e-08
1.75337e-15
4.79217e-09
6.24934e-16
1.44089e-09
2.23671e-16
4.19619e-10
8.01225e-17
1.18497e-10
1.81062e-17
3.24833e-11
3.36103e-18
8.65257e-12
5.09575e-18
2.24162e-12
-4.33681e-19
5.65258e-13
-8.23994e-18
1.38791e-13
-1.76725e-17
3.3138e-14
-7.58942e-18
7.63495e-15
4.44523e-18
1.62327e-15
-1.40946e-18
2.85796e-16
6.83047e-18
1.0842e-16
-1.06252e-17
-3.79471e-18
-1.77809e-17
-3.03577e-17
2.47632e-16
-1.0842e-17
1.53393e-15
-7.15573e-18
7.24811e-15
-3.1984e-17
3.17294e-14
3.14419e-18
1.32843e-13
1.24683e-17
5.39759e-13
-5.09575e-18
2.13416e-12
-8.99888e-18
8.20957e-12
6.72205e-18
3.06989e-11
7.58942e-18
1.11484e-10
-7.69784e-18
3.92743e-10
-1.52873e-17
1.34057e-09
-7.31836e-17
4.42776e-09
-3.02384e-16
1.41307e-08
-9.5258e-16
4.35054e-08
-2.82543e-15
1.28989e-07
-7.82686e-15
3.67569e-07
-2.08138e-14
1.00447e-06
-5.24135e-14
2.6257e-06
-1.2451e-13
6.5464e-06
-2.76958e-13
1.55143e-05
-5.71357e-13
3.48099e-05
-1.07761e-12
7.35941e-05
-1.81393e-12
0.000145768
-2.5931e-12
0.000268589
-2.77154e-12
0.000456125
-1.41843e-12
0.000703353
3.11625e-12
0.000978302
1.21764e-11
0.00124992
2.23059e-11
0.00149097
2.92276e-11
0.00167674
2.92464e-11
0.00179155
2.0684e-11
0.00183365
9.68758e-13
0.00181817
-3.10098e-11
0.00181118
-5.2588e-11
0.00180705
-6.2909e-11
0.00179944
-5.33088e-11
0.00180111
-3.16732e-11
0.00179766
-2.13469e-11
0.00179824
-9.20405e-12
0.00179614
-8.17423e-12
0.00179631
1.3019e-11
0.00179536
-3.31531e-12
0.00179541
2.82878e-11
0.00179522
-1.64735e-11
0.0017949
6.53117e-11
0.00179506
-4.36432e-11
0.00179482
3.15394e-10
0.00179496
-3.74566e-10
0.00177259
-3.7236e-11
0.00172936
-3.11531e-11
0.00171683
1.46784e-10
0.00171608
5.82502e-12
0.00171691
9.52313e-12
0.0017172
1.11708e-11
0.00171692
1.42353e-11
0.0017172
7.50953e-12
0.00171515
7.17968e-12
0.0017183
8.61938e-12
0.00172041
3.42781e-12
0.00171659
2.43671e-12
0.00171947
6.95567e-12
0.00171804
1.98558e-11
0.00171129
1.48803e-11
0.00173377
3.89149e-12
0.00173254
1.01931e-11
0.0016845
1.74248e-11
0.00170994
2.56235e-11
0.00181653
1.58685e-11
0.00175581
-1.12524e-11
0.00126873
-2.77608e-11
0.000754306
-1.81492e-11
0.000408769
-6.38575e-12
0.000206737
-3.87426e-13
9.85656e-05
9.96201e-13
4.4533e-05
1.15936e-12
1.91346e-05
8.27815e-13
7.84029e-06
4.77572e-13
3.07082e-06
2.42591e-13
1.15216e-06
1.12212e-13
4.14918e-07
4.81332e-14
1.43676e-07
1.93474e-14
4.79196e-08
7.35208e-15
1.54177e-08
2.67711e-15
4.79217e-09
9.49978e-16
1.44089e-09
3.19623e-16
4.19619e-10
1.3043e-16
1.18497e-10
3.18755e-17
3.24833e-11
2.29851e-17
8.65256e-12
1.48536e-17
2.24158e-12
2.10335e-17
5.6523e-13
6.28837e-18
1.38783e-13
3.79471e-18
3.31128e-14
1.84314e-18
7.62194e-15
9.75782e-19
1.5812e-15
-7.80626e-18
2.39392e-16
6.28837e-18
9.19403e-17
1.91904e-17
-9.75782e-19
9.62772e-17
3.36103e-18
2.86663e-16
1.6263e-18
1.52395e-15
1.0842e-18
7.31143e-15
5.31259e-18
3.17563e-14
1.12757e-17
1.3283e-13
-3.46945e-18
5.39754e-13
-9.86624e-18
2.13419e-12
-8.45678e-18
8.20956e-12
-5.85469e-18
3.06989e-11
-8.78204e-18
1.11484e-10
-1.50704e-17
3.92743e-10
-2.81893e-17
1.34057e-09
-6.10406e-17
4.42775e-09
-1.6816e-16
1.41307e-08
-4.96781e-16
4.35054e-08
-1.47083e-15
1.28989e-07
-4.29171e-15
3.67569e-07
-1.20895e-14
1.00447e-06
-3.25043e-14
2.6257e-06
-8.33475e-14
6.5464e-06
-2.02215e-13
1.55143e-05
-4.60643e-13
3.48099e-05
-9.75665e-13
7.35941e-05
-1.88257e-12
0.000145768
-3.19668e-12
0.000268589
-4.55198e-12
0.000456125
-4.85611e-12
0.000703353
-2.01092e-12
0.000978302
6.01821e-12
0.00124992
1.95006e-11
0.00149097
3.74598e-11
0.00167674
5.31296e-11
0.00179155
5.80314e-11
0.00183365
4.34108e-11
0.00181817
-2.19647e-12
0.00181118
-6.83739e-11
0.00180705
-1.06584e-10
0.00179944
-1.19805e-10
0.00180111
-9.99327e-11
0.00179766
-6.43716e-11
0.00179824
-3.58293e-11
0.00179614
-1.46094e-11
0.00179631
-1.02824e-12
0.00179536
5.91169e-12
0.00179541
1.47532e-11
0.00179522
1.45427e-11
0.0017949
1.94306e-11
0.00179506
7.99656e-12
0.00179482
3.33334e-11
0.00179495
-1.733e-11
0.00177259
-3.52825e-12
0.00172936
2.0039e-12
0.00171683
1.33059e-12
0.00171608
6.01508e-13
0.00171691
-5.37898e-13
0.0017172
-1.20917e-12
0.00171692
-1.42093e-12
0.0017172
-2.53331e-12
0.00171515
-1.97821e-12
0.0017183
-3.78116e-12
0.00172041
4.08545e-13
0.00171659
9.10166e-12
0.00171947
2.09023e-11
0.00171804
2.98388e-11
0.00171129
3.29979e-11
0.00173377
4.16603e-11
0.00173254
6.57876e-11
0.0016845
6.72565e-11
0.00170994
2.81413e-11
0.00181653
-1.6544e-11
0.00175581
-4.19191e-11
0.00126873
-3.43041e-11
0.000754306
-1.24209e-11
0.000408769
-1.71375e-12
0.000206737
2.11366e-12
9.85656e-05
2.28542e-12
4.4533e-05
1.54837e-12
1.91346e-05
8.51434e-13
7.84029e-06
4.13324e-13
3.07082e-06
1.8429e-13
1.15216e-06
7.65788e-14
4.14917e-07
2.99966e-14
1.43676e-07
1.11559e-14
4.79196e-08
3.96937e-15
1.54177e-08
1.33823e-15
4.79217e-09
4.41379e-16
1.44089e-09
1.29671e-16
4.19618e-10
5.48606e-17
1.18497e-10
2.81893e-17
3.24833e-11
3.11166e-17
8.65254e-12
1.10589e-17
2.24156e-12
6.07153e-18
5.65217e-13
1.45283e-17
1.38761e-13
1.11673e-17
3.31206e-14
2.41236e-29
7.63929e-15
5.42101e-18
1.65059e-15
3.68629e-18
2.89699e-16
-1.07336e-17
2.86229e-17
-7.69784e-18
-2.49366e-18
3.77302e-17
-2.30935e-17
2.39392e-16
-1.73472e-17
1.52439e-15
-9.43256e-18
7.30362e-15
-9.6494e-18
3.17337e-14
8.13152e-18
1.32791e-13
8.67362e-19
5.39759e-13
-4.77049e-18
2.13419e-12
9.54098e-18
8.20956e-12
6.93889e-18
3.06989e-11
2.60209e-18
1.11484e-10
-1.12757e-17
3.92743e-10
-3.46945e-17
1.34057e-09
-4.8247e-17
4.42775e-09
-1.21756e-16
1.41307e-08
-3.41741e-16
4.35054e-08
-1.02154e-15
1.28989e-07
-2.96106e-15
3.67569e-07
-8.38034e-15
1.00447e-06
-2.26529e-14
2.6257e-06
-5.82813e-14
6.5464e-06
-1.41417e-13
1.55143e-05
-3.21704e-13
3.48099e-05
-6.80241e-13
7.35941e-05
-1.31904e-12
0.000145768
-2.2919e-12
0.000268589
-3.41466e-12
0.000456125
-3.92037e-12
0.000703353
-2.03508e-12
0.000978302
3.48231e-12
0.00124992
1.53977e-11
0.00149097
3.09684e-11
0.00167674
4.58224e-11
0.00179155
5.26027e-11
0.00183365
4.09201e-11
0.00181817
5.23656e-12
0.00181118
-5.97373e-11
0.00180705
-9.89888e-11
0.00179944
-1.17006e-10
0.00180111
-1.00617e-10
0.00179766
-6.04375e-11
0.00179824
-3.26381e-11
0.00179614
-1.32108e-11
0.00179631
-3.6855e-12
0.00179536
9.58018e-12
0.00179541
8.30999e-12
0.00179522
2.29038e-11
0.0017949
1.95721e-12
0.00179506
2.17668e-11
0.00179482
-6.01636e-11
0.00179495
7.50867e-11
0.00177259
6.65664e-12
0.00172936
1.64774e-11
0.00171683
-4.35207e-11
0.00171608
-3.01735e-12
0.00171691
-7.245e-12
0.0017172
-1.04365e-11
0.00171692
-1.20845e-11
0.0017172
-1.02426e-11
0.00171515
-9.67725e-12
0.0017183
-1.1123e-11
0.00172041
-1.86051e-12
0.00171659
7.04037e-12
0.00171947
1.6259e-11
0.00171804
2.37331e-11
0.00171129
3.19667e-11
0.00173377
4.60315e-11
0.00173254
7.48249e-11
0.0016845
7.55066e-11
0.00170994
2.43425e-11
0.00181653
-1.51262e-11
0.00175581
-3.74537e-11
0.00126873
-3.1407e-11
0.000754306
-1.07642e-11
0.000408769
-4.13442e-13
0.000206737
1.87562e-12
9.85656e-05
1.86441e-12
4.4533e-05
1.21409e-12
1.91345e-05
6.59942e-13
7.84029e-06
3.20239e-13
3.07082e-06
1.42753e-13
1.15216e-06
5.93309e-14
4.14917e-07
2.32187e-14
1.43676e-07
8.60867e-15
4.79196e-08
3.05951e-15
1.54177e-08
1.03552e-15
4.79217e-09
3.30248e-16
1.44089e-09
9.45424e-17
4.19618e-10
1.61546e-17
1.18497e-10
-1.36609e-17
3.24832e-11
-4.11997e-18
8.65254e-12
4.33681e-18
2.24158e-12
1.32273e-17
5.65209e-13
1.78893e-17
1.38762e-13
2.28767e-17
3.31076e-14
2.01662e-17
7.61283e-15
2.60209e-18
1.6185e-15
-4.33681e-18
2.85796e-16
4.33681e-19
4.98733e-17
-4.77049e-18
-2.54788e-17
7.71952e-17
2.94036e-16
1.55128e-15
7.32704e-15
3.17394e-14
1.3278e-13
5.39774e-13
2.13421e-12
8.20955e-12
3.06988e-11
1.11484e-10
3.92743e-10
1.34057e-09
4.42775e-09
1.41307e-08
4.35053e-08
1.28989e-07
3.67569e-07
1.00447e-06
2.6257e-06
6.5464e-06
1.55143e-05
3.48099e-05
7.35941e-05
0.000145768
0.000268589
0.000456125
0.000703353
0.000978302
0.00124992
0.00149097
0.00167674
0.00179155
0.00183365
0.00181817
0.00181118
0.00180705
0.00179944
0.00180111
0.00179766
0.00179824
0.00179614
0.00179631
0.00179536
0.00179541
0.00179522
0.0017949
0.00179506
0.00179482
0.00179495
0.00177259
0.00172936
0.00171683
0.00171608
0.00171691
0.0017172
0.00171692
0.0017172
0.00171515
0.0017183
0.00172041
0.00171659
0.00171947
0.00171804
0.00171129
0.00173377
0.00173254
0.0016845
0.00170994
0.00181653
0.00175581
0.00126873
0.000754306
0.000408769
0.000206737
9.85656e-05
4.4533e-05
1.91345e-05
7.84029e-06
3.07082e-06
1.15216e-06
4.14917e-07
1.43676e-07
4.79196e-08
1.54177e-08
4.79217e-09
1.44089e-09
4.19618e-10
1.18497e-10
3.24833e-11
8.65256e-12
2.24159e-12
5.6522e-13
1.38743e-13
3.30738e-14
7.59245e-15
1.60375e-15
2.47198e-16
-2.55872e-17
)
;

boundaryField
{
    sides1
    {
        type            calculated;
        value           nonuniform List<scalar> 
20
(
-4.36809e-17
-8.38673e-17
1.10658e-17
2.32965e-18
-7.89168e-17
8.96915e-17
3.9604e-17
6.69774e-18
2.00932e-17
-3.34887e-17
5.41418e-31
4.6593e-18
2.9703e-17
-2.27141e-17
-5.53291e-17
-4.89226e-17
1.86372e-17
-4.9505e-17
1.16482e-17
-5.47467e-17
)
;
    }
    sides2
    {
        type            calculated;
        value           uniform 0;
    }
    empty
    {
        type            empty;
        value           nonuniform 0();
    }
}


// ************************************************************************* //
