/*--------------------------------*- C++ -*----------------------------------*\
| =========                 |                                                 |
| \\      /  F ield         | OpenFOAM: The Open Source CFD Toolbox           |
|  \\    /   O peration     | Version:  2012                                  |
|   \\  /    A nd           | Website:  www.openfoam.com                      |
|    \\/     M anipulation  |                                                 |
\*---------------------------------------------------------------------------*/
FoamFile
{
    version     2.0;
    format      ascii;
    class       volScalarField;
    location    "0.76";
    object      p;
}
// * * * * * * * * * * * * * * * * * * * * * * * * * * * * * * * * * * * * * //

dimensions      [1 -1 -2 0 0 0 0];


internalField   nonuniform List<scalar> 
2268
(
101916
101920
101929
101940
101955
101973
101992
102014
102034
102060
102079
102109
102126
102155
102170
102191
102201
102209
102209
102203
102195
102180
102170
101856
101860
101869
101881
101895
101913
101932
101955
101975
102001
102021
102050
102068
102097
102112
102134
102143
102151
102151
102144
102136
102121
102112
101795
101799
101808
101820
101835
101853
101873
101895
101916
101942
101961
101991
102009
102038
102054
102076
102086
102094
102094
102086
102076
102056
102043
101733
101737
101746
101758
101773
101792
101812
101835
101856
101882
101903
101932
101952
101982
101999
102022
102031
102039
102038
102028
102018
101997
101985
101668
101673
101682
101695
101711
101731
101751
101775
101796
101823
101843
101873
101892
101923
101941
101965
101977
101984
101983
101970
101957
101922
101907
101604
101609
101618
101632
101648
101668
101689
101714
101736
101763
101785
101814
101837
101868
101889
101914
101923
101931
101928
101914
101899
101862
101842
101536
101541
101552
101566
101584
101606
101628
101653
101675
101703
101724
101754
101776
101809
101831
101859
101873
101880
101877
101857
101838
101771
101743
101470
101476
101486
101501
101520
101541
101565
101591
101614
101642
101666
101696
101722
101755
101783
101810
101820
101826
101820
101801
101782
101708
101667
102930
102262
101942
101805
101993
102330
102412
102272
102150
102094
102052
102040
102016
102012
102002
102079
102193
102962
103264
102825
102133
101838
101726
101903
102337
102349
102217
102123
102051
102001
101988
101969
101968
101954
101996
102067
102829
103052
102444
101921
101683
101633
101820
102236
102352
102212
102013
101978
101947
101950
101945
101949
101943
101982
102013
102714
102897
102198
101764
101583
101599
101746
102163
102227
102116
102072
101992
101947
101943
101938
101947
101937
101960
101941
102580
102735
101937
101609
101564
101569
101680
102013
102113
102043
101908
101933
101925
101941
101940
101945
101940
101969
101994
102466
102619
101813
101571
101563
101569
101565
101913
101913
101851
101829
101857
101892
101925
101927
101937
101929
101960
101963
102483
102544
101702
101569
101563
101569
101577
101743
101744
101683
101663
101712
101762
101850
101968
102057
102023
102038
102127
102519
102534
101654
101548
101563
101548
101539
101612
101550
101506
101515
101577
101667
101826
102039
102186
102133
102133
102173
102471
102486
101379
101383
101393
101406
101423
101444
101468
101496
101520
101548
101570
101599
101623
101662
101689
101732
101754
101762
101753
101728
101691
101564
101502
101332
101333
101334
101338
101343
101352
101364
101382
101402
101425
101448
101476
101513
101548
101611
101625
101636
101628
101612
101595
101559
101457
101371
101330
101330
101330
101330
101330
101331
101332
101335
101342
101351
101360
101370
101389
101433
101467
101581
101611
101634
101596
101584
101540
101471
101459
101329
101329
101329
101330
101330
101330
101330
101330
101330
101331
101332
101348
101368
101403
101538
101509
101534
101471
101427
101437
101451
101455
101514
101329
101329
101329
101330
101330
101330
101330
101330
101331
101331
101331
101329
101340
101371
101385
101499
101490
101501
101455
101459
101447
101441
101443
101329
101329
101329
101329
101329
101329
101329
101329
101329
101329
101329
101328
101331
101341
101417
101377
101416
101339
101362
101377
101399
101412
101419
101329
101329
101329
101329
101329
101329
101329
101329
101329
101328
101328
101325
101325
101325
101338
101361
101361
101394
101385
101391
101390
101391
101392
101328
101328
101328
101328
101328
101328
101328
101328
101328
101327
101326
101325
101323
101324
101324
101331
101317
101298
101349
101365
101383
101392
101396
101328
101328
101328
101328
101328
101328
101328
101328
101328
101327
101326
101324
101323
101323
101323
101324
101323
101310
101325
101334
101370
101389
101396
101328
101328
101328
101328
101328
101328
101327
101327
101327
101326
101325
101324
101323
101324
101324
101325
101325
101325
101342
101358
101339
101349
101383
101327
101327
101327
101327
101327
101327
101327
101327
101327
101326
101325
101325
101324
101324
101324
101325
101325
101325
101325
101325
101335
101357
101364
101327
101327
101327
101327
101327
101327
101327
101327
101326
101326
101325
101325
101325
101325
101325
101325
101325
101325
101326
101325
101325
101325
101326
101327
101327
101327
101327
101327
101327
101326
101326
101326
101326
101326
101325
101325
101325
101325
101325
101325
101325
101325
101325
101325
101325
101325
101326
101326
101326
101326
101326
101326
101326
101326
101326
101326
101325
101325
101325
101325
101325
101325
101325
101325
101325
101325
101325
101325
101325
101326
101326
101326
101326
101326
101326
101326
101326
101326
101326
101325
101325
101325
101325
101325
101325
101325
101325
101325
101325
101325
101325
101325
101326
101326
101326
101326
101326
101326
101326
101326
101326
101325
101325
101325
101325
101325
101325
101325
101325
101325
101325
101325
101325
101325
101325
101326
101326
101326
101326
101326
101326
101325
101325
101325
101325
101325
101325
101325
101325
101325
101325
101325
101325
101325
101325
101325
101325
101325
101325
101325
101325
101325
101325
101325
101325
101325
101325
101325
101325
101325
101325
101325
101325
101325
101325
101325
101325
101325
101325
101325
101325
101325
101325
101325
101325
101325
101325
101325
101325
101325
101325
101325
101325
101325
101325
101325
101325
101325
101325
101325
101325
101325
101325
101325
101325
101325
101325
101325
101325
101325
101325
101325
101325
101325
101325
101325
101325
101325
101325
101325
101325
101325
101325
101325
101325
101325
101325
101325
101325
101325
101325
101325
101325
101325
101325
101325
101325
101325
101325
101325
101325
101325
101325
101325
101325
101325
101325
101325
101325
101325
101324
101324
101324
101324
101324
101324
101324
101324
101324
101324
101324
101324
101324
101324
101324
101324
101325
101325
101325
101325
101325
101325
101325
101324
101324
101324
101324
101324
101324
101324
101324
101324
101324
101324
101324
101324
101324
101324
101324
101324
101324
101324
101325
101325
101325
101325
101324
101324
101324
101324
101324
101324
101324
101324
101324
101324
101324
101324
101324
101324
101324
101324
101324
101324
101324
101324
101325
101325
101325
101324
101324
101324
101324
101324
101324
101324
101324
101324
101324
101324
101324
101324
101324
101324
101324
101324
101324
101324
101324
101324
101324
101324
101323
101323
101323
101323
101323
101323
101323
101323
101323
101324
101324
101324
101324
101324
101324
101324
101324
101324
101324
101324
101324
101324
101324
101323
101323
101323
101323
101323
101323
101323
101323
101323
101323
101323
101323
101323
101323
101324
101324
101324
101324
101324
101324
101324
101324
101324
101323
101323
101323
101323
101323
101323
101323
101323
101323
101323
101323
101323
101323
101323
101323
101323
101323
101323
101324
101324
101324
101324
101324
101323
101323
101323
101323
101323
101323
101323
101323
101323
101323
101323
101323
101323
101323
101323
101323
101323
101323
101323
101323
101323
101323
101323
101322
101322
101322
101322
101322
101322
101322
101322
101322
101322
101323
101323
101323
101323
101323
101323
101323
101323
101323
101323
101323
101323
101323
101322
101322
101322
101322
101322
101322
101322
101322
101322
101322
101322
101322
101322
101322
101322
101322
101322
101322
101322
101323
101323
101323
101323
101322
101322
101322
101322
101322
101322
101322
101322
101322
101322
101322
101322
101322
101322
101322
101322
101322
101322
101322
101322
101322
101322
101322
101321
101321
101321
101321
101321
101322
101322
101322
101322
101322
101322
101322
101322
101322
101322
101322
101322
101322
101322
101322
101322
101322
101322
101321
101321
101321
101321
101321
101321
101321
101321
101321
101321
101321
101321
101321
101321
101321
101321
101321
101321
101321
101321
101321
101321
101321
101321
101321
101321
101321
101321
101321
101321
101321
101321
101321
101321
101321
101321
101321
101321
101321
101321
101321
101321
101321
101321
101321
101321
101320
101320
101320
101320
101320
101320
101320
101320
101320
101320
101320
101320
101320
101320
101320
101320
101320
101320
101320
101320
101320
101320
101320
101320
101320
101320
101320
101320
101320
101320
101320
101320
101320
101320
101320
101320
101320
101320
101320
101320
101320
101320
101320
101320
101320
101320
101320
101320
101320
101320
101320
101320
101320
101320
101320
101320
101320
101320
101319
101319
101319
101319
101319
101319
101319
101319
101319
101319
101320
101319
101319
101319
101319
101319
101319
101319
101319
101319
101319
101319
101319
101319
101319
101319
101319
101319
101319
101319
101319
101319
101319
101319
101319
101319
101319
101319
101319
101319
101319
101319
101319
101319
101319
101319
101319
101319
101319
101319
101319
101319
101319
101319
101319
101319
101319
101318
101318
101318
101318
101318
101318
101318
101318
101318
101318
101318
101318
101318
101318
101318
101318
101318
101318
101318
101318
101318
101318
101318
101318
101318
101318
101318
101318
101318
101318
101318
101318
101318
101318
101318
101318
101318
101318
101318
101318
101318
101318
101318
101318
101318
101318
101350
101235
101317
101088
101345
101297
101175
101259
101406
101439
101445
101492
101487
101501
101493
101499
101446
101444
101439
101464
101424
101420
101412
101410
101393
101393
101393
101392
101396
101397
101397
101397
101396
101396
101396
101396
101394
101397
101400
101400
101359
101362
101381
101392
101328
101339
101355
101364
101325
101325
101325
101325
101325
101326
101326
101326
101325
101325
101325
101325
101325
101325
101326
101326
101325
101325
101325
101325
101325
101325
101325
101325
101325
101325
101325
101325
101325
101325
101325
101325
101325
101325
101325
101325
101325
101325
101325
101325
101325
101325
101325
101325
101325
101325
101325
101325
101325
101325
101325
101325
101324
101324
101324
101325
101324
101324
101324
101324
101324
101324
101324
101324
101324
101324
101324
101324
101323
101323
101323
101323
101323
101323
101323
101323
101322
101322
101322
101322
101322
101322
101322
101322
101321
101321
101322
101322
101321
101321
101321
101321
101320
101321
101321
101321
101320
101320
101320
101320
101320
101320
101320
101320
101319
101319
101319
101319
101319
101319
101319
101319
101318
101318
101318
101318
101318
101318
101318
101318
101580
101516
101563
101526
101510
101485
101453
101443
101452
101460
101499
101621
102090
102596
102374
102282
102282
102451
102372
101503
101519
101507
101478
101441
101435
101437
101437
101440
101462
101538
101786
102086
102195
102187
102171
102193
102277
102261
101446
101492
101477
101434
101450
101442
101439
101438
101444
101443
101472
101506
101945
102367
102368
102462
102270
102209
102218
101539
101395
101430
101410
101424
101433
101434
101438
101447
101442
101451
101508
101714
102018
102214
102210
102228
102194
102229
101462
101403
101391
101404
101413
101422
101414
101438
101449
101441
101446
101437
101621
101905
102040
102246
102217
102195
102209
101404
101394
101399
101391
101403
101415
101417
101432
101438
101441
101436
101429
101541
101685
101813
101989
102157
102171
102125
101394
101391
101396
101392
101394
101390
101393
101417
101416
101440
101413
101408
101431
101470
101613
101778
101918
101994
101970
101396
101397
101398
101393
101396
101392
101391
101413
101356
101434
101348
101371
101340
101341
101374
101524
101681
101844
101824
101397
101397
101398
101394
101394
101394
101389
101388
101348
101368
101338
101332
101328
101331
101331
101355
101460
101594
101642
101400
101400
101399
101397
101396
101399
101380
101369
101354
101355
101332
101329
101330
101330
101330
101330
101349
101507
101551
101394
101397
101399
101395
101381
101364
101350
101329
101328
101328
101329
101327
101328
101329
101329
101330
101332
101349
101423
101364
101363
101359
101360
101352
101332
101327
101329
101327
101328
101326
101327
101327
101327
101327
101328
101329
101349
101371
101326
101331
101332
101329
101327
101326
101327
101326
101326
101326
101326
101326
101326
101326
101326
101326
101327
101329
101348
101326
101326
101326
101326
101326
101326
101326
101326
101325
101325
101325
101326
101326
101326
101326
101326
101326
101327
101333
101326
101326
101326
101326
101326
101326
101326
101325
101325
101324
101325
101325
101325
101326
101326
101326
101326
101326
101326
101326
101326
101326
101326
101326
101326
101326
101325
101324
101324
101324
101325
101325
101325
101326
101326
101326
101326
101326
101325
101325
101326
101326
101326
101326
101325
101325
101325
101324
101324
101325
101325
101325
101326
101326
101326
101326
101326
101326
101326
101326
101326
101326
101325
101325
101325
101325
101324
101324
101325
101325
101326
101326
101326
101327
101327
101327
101325
101325
101325
101325
101326
101325
101325
101325
101325
101325
101325
101325
101326
101326
101326
101326
101327
101327
101327
101325
101325
101325
101325
101326
101325
101325
101325
101325
101325
101325
101325
101326
101326
101326
101326
101327
101327
101328
101325
101325
101325
101325
101325
101325
101325
101325
101325
101325
101325
101325
101326
101326
101326
101326
101327
101327
101328
101325
101325
101325
101325
101325
101325
101325
101325
101325
101325
101325
101325
101326
101326
101326
101326
101327
101326
101327
101325
101325
101325
101325
101325
101325
101325
101325
101325
101325
101325
101325
101326
101326
101326
101326
101327
101326
101327
101325
101325
101325
101325
101325
101325
101325
101325
101325
101325
101325
101325
101326
101326
101326
101326
101327
101326
101327
101325
101325
101325
101325
101325
101325
101325
101325
101325
101325
101325
101325
101326
101326
101326
101326
101327
101326
101327
101325
101325
101325
101325
101325
101325
101325
101325
101325
101325
101325
101325
101325
101325
101326
101326
101326
101325
101325
101324
101324
101324
101325
101325
101325
101325
101325
101325
101325
101325
101325
101325
101325
101326
101325
101326
101325
101325
101324
101324
101324
101324
101324
101324
101324
101324
101324
101324
101324
101325
101325
101325
101325
101325
101326
101326
101326
101324
101324
101324
101324
101324
101324
101324
101324
101324
101324
101324
101324
101324
101325
101325
101325
101325
101325
101326
101323
101323
101324
101324
101324
101324
101324
101324
101324
101324
101324
101324
101324
101324
101325
101325
101325
101325
101326
101323
101323
101323
101323
101323
101323
101323
101323
101324
101323
101324
101323
101324
101324
101324
101324
101325
101325
101325
101323
101323
101323
101323
101323
101323
101323
101323
101323
101323
101323
101323
101323
101323
101324
101324
101324
101324
101325
101322
101322
101322
101322
101322
101323
101323
101323
101323
101323
101323
101323
101323
101323
101323
101323
101324
101324
101324
101322
101322
101322
101322
101322
101322
101322
101322
101322
101322
101322
101322
101322
101322
101323
101323
101323
101323
101324
101321
101321
101321
101321
101321
101322
101322
101322
101322
101321
101321
101321
101321
101321
101322
101322
101322
101323
101323
101321
101321
101321
101321
101321
101321
101321
101321
101321
101321
101321
101320
101320
101321
101321
101321
101322
101322
101322
101320
101320
101320
101320
101320
101320
101320
101320
101320
101320
101320
101319
101319
101320
101320
101321
101321
101321
101321
101320
101320
101320
101320
101320
101320
101320
101320
101320
101319
101319
101319
101318
101319
101319
101320
101320
101320
101321
101319
101319
101319
101319
101319
101319
101319
101319
101319
101319
101318
101318
101317
101318
101318
101319
101319
101320
101320
101319
101319
101319
101319
101319
101319
101319
101319
101318
101318
101318
101317
101317
101317
101318
101318
101319
101319
101319
101318
101318
101319
101319
101319
101319
101318
101318
101318
101318
101317
101317
101316
101317
101317
101318
101318
101318
101318
101317
101317
101317
101317
101317
101317
101317
101317
101317
101317
101317
101317
101317
101317
101317
101318
101318
101318
101318
)
;

boundaryField
{
    leftWall
    {
        type            zeroGradient;
    }
    rightWall
    {
        type            zeroGradient;
    }
    lowerWall
    {
        type            zeroGradient;
    }
    atmosphere
    {
        type            fixedValue;
        value           uniform 101325;
    }
    defaultFaces
    {
        type            empty;
    }
}


// ************************************************************************* //
