/*--------------------------------*- C++ -*----------------------------------*\
| =========                 |                                                 |
| \\      /  F ield         | OpenFOAM: The Open Source CFD Toolbox           |
|  \\    /   O peration     | Version:  2012                                  |
|   \\  /    A nd           | Website:  www.openfoam.com                      |
|    \\/     M anipulation  |                                                 |
\*---------------------------------------------------------------------------*/
FoamFile
{
    version     2.0;
    format      ascii;
    class       surfaceScalarField;
    location    "0.76";
    object      phi;
}
// * * * * * * * * * * * * * * * * * * * * * * * * * * * * * * * * * * * * * //

dimensions      [0 3 -1 0 0 0 0];
oriented        oriented;


internalField   nonuniform List<scalar> 
4432
(
-2.25585e-06
2.25584e-06
-4.36491e-06
2.10906e-06
-6.54693e-06
2.18202e-06
-8.81259e-06
2.26566e-06
-1.0923e-05
2.11043e-06
-1.27269e-05
1.80383e-06
-1.44035e-05
1.67665e-06
-1.59845e-05
1.58102e-06
-1.72281e-05
1.24359e-06
-1.82464e-05
1.0183e-06
-1.89934e-05
7.46932e-07
-1.93603e-05
3.66969e-07
-1.93666e-05
6.22303e-09
-1.90213e-05
-3.45302e-07
-1.8321e-05
-7.00304e-07
-1.72413e-05
-1.07969e-06
-1.5547e-05
-1.69424e-06
-1.32804e-05
-2.26661e-06
-1.03606e-05
-2.91987e-06
-6.83009e-06
-3.53048e-06
-3.81273e-06
-3.01736e-06
5.0787e-07
-4.3206e-06
5.0786e-07
-2.28156e-06
4.53741e-06
-4.40125e-06
4.22875e-06
-6.5735e-06
4.35426e-06
-8.81368e-06
4.50584e-06
-1.09148e-05
4.21155e-06
-1.27394e-05
3.62842e-06
-1.44429e-05
3.38012e-06
-1.60253e-05
3.16348e-06
-1.72603e-05
2.47852e-06
-1.82904e-05
2.04839e-06
-1.9051e-05
1.50753e-06
-1.94375e-05
7.53515e-07
-1.94757e-05
4.43952e-08
-1.91559e-05
-6.65134e-07
-1.84635e-05
-1.39263e-06
-1.73708e-05
-2.17242e-06
-1.56888e-05
-3.37629e-06
-1.34413e-05
-4.51407e-06
-1.06088e-05
-5.75236e-06
-7.26217e-06
-6.87711e-06
-4.32585e-06
-5.95369e-06
-4.28023e-07
-8.21843e-06
7.98276e-08
-2.30474e-06
6.84215e-06
-4.41769e-06
6.3417e-06
-6.5782e-06
6.51477e-06
-8.81007e-06
6.73771e-06
-1.09603e-05
6.36181e-06
-1.28752e-05
5.54328e-06
-1.46365e-05
5.14147e-06
-1.62188e-05
4.74573e-06
-1.74532e-05
3.71295e-06
-1.8462e-05
3.05714e-06
-1.916e-05
2.20552e-06
-1.95199e-05
1.11341e-06
-1.9556e-05
8.05587e-08
-1.9263e-05
-9.58196e-07
-1.85763e-05
-2.07933e-06
-1.74719e-05
-3.27684e-06
-1.5736e-05
-5.1122e-06
-1.33799e-05
-6.87016e-06
-1.04105e-05
-8.72178e-06
-6.73458e-06
-1.0553e-05
-3.12617e-06
-9.5621e-06
1.28865e-06
-1.26333e-05
1.36846e-06
-2.33801e-06
9.18016e-06
-4.47394e-06
8.47763e-06
-6.65434e-06
8.69517e-06
-8.84209e-06
8.92545e-06
-1.09589e-05
8.47862e-06
-1.29049e-05
7.48923e-06
-1.47039e-05
6.94048e-06
-1.62999e-05
6.34172e-06
-1.7561e-05
4.97412e-06
-1.86091e-05
4.1052e-06
-1.93862e-05
2.98261e-06
-1.98588e-05
1.58602e-06
-1.99582e-05
1.79929e-07
-1.96967e-05
-1.2197e-06
-1.9033e-05
-2.74304e-06
-1.79671e-05
-4.34267e-06
-1.63256e-05
-6.75377e-06
-1.40172e-05
-9.17854e-06
-1.10869e-05
-1.1652e-05
-7.33834e-06
-1.43016e-05
-3.39011e-06
-1.35103e-05
1.20416e-06
-1.72275e-05
2.57261e-06
-2.31258e-06
1.14927e-05
-4.48508e-06
1.06501e-05
-6.69213e-06
1.09022e-05
-8.89686e-06
1.11302e-05
-1.10804e-05
1.06622e-05
-1.31761e-05
9.58498e-06
-1.50824e-05
8.84673e-06
-1.66805e-05
7.93984e-06
-1.79256e-05
6.21919e-06
-1.89178e-05
5.0974e-06
-1.9583e-05
3.64783e-06
-2.00136e-05
2.01663e-06
-2.01098e-05
2.76148e-07
-1.98825e-05
-1.44709e-06
-1.9253e-05
-3.37251e-06
-1.82298e-05
-5.36581e-06
-1.65547e-05
-8.42894e-06
-1.41252e-05
-1.1608e-05
-1.09364e-05
-1.48409e-05
-6.66886e-06
-1.85691e-05
-1.3585e-06
-1.88207e-05
4.50561e-06
-2.30916e-05
7.07822e-06
-2.31e-06
1.38027e-05
-4.61883e-06
1.2959e-05
-6.86356e-06
1.31469e-05
-9.00918e-06
1.32758e-05
-1.11046e-05
1.27576e-05
-1.31992e-05
1.16795e-05
-1.51415e-05
1.07891e-05
-1.67751e-05
9.57344e-06
-1.81134e-05
7.55745e-06
-1.92197e-05
6.20374e-06
-2.00325e-05
4.46063e-06
-2.06103e-05
2.59441e-06
-2.07634e-05
4.29268e-07
-2.05796e-05
-1.63089e-06
-2.00051e-05
-3.94707e-06
-1.90721e-05
-6.29877e-06
-1.7554e-05
-9.94701e-06
-1.52636e-05
-1.38985e-05
-1.20962e-05
-1.80082e-05
-7.63999e-06
-2.30253e-05
-1.66893e-06
-2.47917e-05
4.49093e-06
-2.92515e-05
1.15691e-05
-2.19849e-06
1.60012e-05
-4.60396e-06
1.53644e-05
-6.92542e-06
1.54684e-05
-9.10695e-06
1.54573e-05
-1.12897e-05
1.49403e-05
-1.36057e-05
1.39956e-05
-1.5702e-05
1.28853e-05
-1.73252e-05
1.11967e-05
-1.85992e-05
8.83142e-06
-1.95989e-05
7.20349e-06
-2.02641e-05
5.12574e-06
-2.07786e-05
3.10898e-06
-2.09496e-05
6.00194e-07
-2.08522e-05
-1.72827e-06
-2.03952e-05
-4.40411e-06
-1.96078e-05
-7.08609e-06
-1.80595e-05
-1.14954e-05
-1.5647e-05
-1.6311e-05
-1.21547e-05
-2.15005e-05
-6.98986e-06
-2.81902e-05
6.35426e-08
-3.18452e-05
7.63911e-06
-3.68271e-05
1.92083e-05
-2.17334e-06
1.81746e-05
-4.66434e-06
1.78554e-05
-7.04196e-06
1.7846e-05
-9.17399e-06
1.75894e-05
-1.13119e-05
1.70783e-05
-1.37383e-05
1.6422e-05
-1.59901e-05
1.51371e-05
-1.77269e-05
1.29334e-05
-1.90735e-05
1.01781e-05
-2.01184e-05
8.24839e-06
-2.09522e-05
5.95956e-06
-2.16289e-05
3.78561e-06
-2.17909e-05
7.6221e-07
-2.17208e-05
-1.79831e-06
-2.13499e-05
-4.7751e-06
-2.06723e-05
-7.76362e-06
-1.92961e-05
-1.28716e-05
-1.72483e-05
-1.83587e-05
-1.43695e-05
-2.43794e-05
-1.02859e-05
-3.22738e-05
-3.71794e-06
-3.84131e-05
1.30274e-06
-4.18478e-05
2.0511e-05
-7.40977e-05
7.40597e-05
-0.000110997
3.68605e-05
-0.000129653
1.86292e-05
-0.000131735
2.08715e-06
-0.000118693
-1.30146e-05
-0.000103086
-1.56061e-05
-0.000102823
-2.82481e-07
-0.000117004
1.41111e-05
-0.000131012
1.39404e-05
-0.000138465
7.36182e-06
-0.000144016
5.4908e-06
-0.000150319
6.2343e-06
-0.000157447
7.0672e-06
-0.000163246
5.73387e-06
-0.000166632
3.33284e-06
-0.000163757
-2.92359e-06
-0.000131411
-3.22784e-05
-7.30158e-05
-5.84247e-05
-7.30911e-05
-6.21299e-05
0.000136159
-9.44832e-05
6.91853e-05
-0.000109531
3.36591e-05
-0.000107617
1.76117e-07
-9.12515e-05
-2.93524e-05
-7.63398e-05
-3.05329e-05
-8.36912e-05
7.03685e-06
-0.000101211
3.15865e-05
-0.000112163
2.48147e-05
-0.000118536
1.36576e-05
-0.000124667
1.1559e-05
-0.000131201
1.26742e-05
-0.000136569
1.22907e-05
-0.000140445
9.39484e-06
-0.000142307
4.98363e-06
-0.000135262
-1.01733e-05
-0.000102098
-6.53159e-05
-6.17238e-05
-9.89235e-05
-0.000135013
-5.43312e-05
0.000190505
-7.74318e-05
9.22703e-05
-9.23386e-05
4.85463e-05
-8.67942e-05
-5.36607e-06
-5.80957e-05
-5.79937e-05
-2.97319e-05
-5.8905e-05
-3.2994e-05
1.02261e-05
-5.90057e-05
5.73983e-05
-8.6419e-05
5.20936e-05
-0.000108559
3.54604e-05
-0.000122073
2.48449e-05
-0.000129696
1.99933e-05
-0.000135602
1.7862e-05
-0.000141154
1.45866e-05
-0.000138536
2.01581e-06
-0.000113622
-3.54321e-05
-6.36961e-05
-0.00011536
-3.27733e-05
-0.000130026
-0.000167911
-4.06436e-05
0.00023116
-6.49242e-05
0.000116523
-9.06918e-05
7.43073e-05
-7.36271e-05
-2.24256e-05
-3.20573e-05
-9.95036e-05
-5.43488e-06
-8.55373e-05
1.85563e-05
-1.37662e-05
2.84385e-05
4.74744e-05
7.16301e-06
7.30982e-05
-3.61793e-05
7.85102e-05
-9.04689e-05
7.88602e-05
-0.000121225
5.04412e-05
-0.000132455
2.87744e-05
-0.000139042
2.08545e-05
-0.000118541
-1.87757e-05
-6.39359e-05
-9.03376e-05
-3.47498e-05
-0.000144681
-1.21885e-05
-0.000152645
-0.000180103
-2.81846e-05
0.000259474
-4.42888e-05
0.000132613
-6.42659e-05
0.000106084
-3.54159e-05
-5.12867e-05
6.12683e-07
-0.000135602
1.23413e-05
-9.72788e-05
2.85756e-05
-3.0001e-05
4.69929e-05
2.90563e-05
5.94597e-05
6.06203e-05
6.56303e-05
7.20364e-05
7.00125e-05
7.42186e-05
5.29055e-05
6.71888e-05
3.67047e-05
4.46565e-05
4.67738e-05
1.04849e-05
4.6415e-05
-1.87305e-05
1.61696e-05
-6.04365e-05
-4.08726e-06
-0.00012477
-3.32572e-07
-0.000156529
-0.00018044
-1.3906e-05
0.000273445
-7.1562e-06
0.000125834
-1.40157e-05
0.000112905
2.88369e-07
-6.56277e-05
1.83749e-05
-0.000153692
2.66175e-05
-0.000105528
4.09185e-05
-4.43023e-05
5.25094e-05
1.74654e-05
5.92982e-05
5.38306e-05
6.52672e-05
6.60598e-05
7.20957e-05
6.73006e-05
7.80456e-05
6.1029e-05
8.33094e-05
3.91475e-05
8.68146e-05
6.72242e-06
8.84782e-05
-2.06157e-05
7.36974e-05
-4.58822e-05
4.6387e-05
-9.75507e-05
1.22866e-05
-0.000122538
-0.000168155
-5.31325e-06
0.000278757
-3.06752e-06
0.000123556
1.51944e-05
9.46046e-05
3.70011e-05
-7.9987e-05
3.05821e-05
-0.000147324
3.58709e-05
-0.000110824
4.73862e-05
-5.58239e-05
5.48945e-05
9.95532e-06
5.77596e-05
5.09654e-05
6.2821e-05
6.09977e-05
6.91642e-05
6.09564e-05
7.42186e-05
5.59697e-05
7.83476e-05
3.50002e-05
8.40899e-05
9.59456e-07
8.78737e-05
-2.44176e-05
8.11306e-05
-3.9201e-05
5.88968e-05
-7.53559e-05
1.70921e-05
-8.07392e-05
-0.000151066
2.03775e-07
0.000278511
-1.7902e-05
0.000141766
1.01961e-05
6.64756e-05
4.19765e-05
-0.000111701
3.64036e-05
-0.00014178
4.1521e-05
-0.000116003
5.22822e-05
-6.66283e-05
5.68117e-05
5.44686e-06
5.61623e-05
5.15961e-05
5.96251e-05
5.75187e-05
6.45198e-05
5.60606e-05
6.85454e-05
5.19422e-05
7.20225e-05
3.15205e-05
7.80289e-05
-5.04859e-06
8.20652e-05
-2.84606e-05
7.53967e-05
-3.25409e-05
5.05214e-05
-5.049e-05
1.12144e-05
-4.14356e-05
-0.000139853
-4.43689e-06
2.26185e-05
-9.66442e-06
2.30872e-05
-1.47328e-05
2.29152e-05
-1.92783e-05
2.2133e-05
-2.35437e-05
2.13412e-05
-2.81907e-05
2.10674e-05
-3.27098e-05
1.96559e-05
-3.67633e-05
1.69869e-05
-4.02636e-05
1.36784e-05
-4.30796e-05
1.10644e-05
-4.51953e-05
8.07527e-06
-4.64705e-05
5.06077e-06
-4.6659e-05
9.50681e-07
-4.68471e-05
-1.61014e-06
-4.69728e-05
-4.6494e-06
-4.67446e-05
-7.99193e-06
-4.39789e-05
-1.56373e-05
-4.01592e-05
-2.21784e-05
-3.58448e-05
-2.86939e-05
-2.99707e-05
-3.81479e-05
-1.55823e-05
-5.28018e-05
3.21735e-06
-6.06632e-05
-3.11287e-05
5.4819e-05
-6.88405e-06
2.95551e-05
-1.42417e-05
3.05056e-05
-2.13428e-05
3.00881e-05
-2.75067e-05
2.8376e-05
-3.2332e-05
2.62467e-05
-3.6764e-05
2.55746e-05
-4.07078e-05
2.36607e-05
-4.34312e-05
1.9728e-05
-4.46919e-05
1.49398e-05
-4.49393e-05
1.13082e-05
-4.47289e-05
7.86133e-06
-4.50165e-05
5.34552e-06
-4.66138e-05
2.54719e-06
-4.97013e-05
1.47742e-06
-5.18056e-05
-2.54526e-06
-5.18605e-05
-7.93702e-06
-4.99029e-05
-1.7595e-05
-4.77616e-05
-2.43196e-05
-4.71435e-05
-2.9312e-05
-4.74652e-05
-3.78262e-05
-4.54838e-05
-5.47827e-05
-3.6417e-05
-6.97555e-05
-4.07293e-05
-2.66684e-05
-8.25532e-06
3.78071e-05
-1.67843e-05
3.90329e-05
-2.58312e-05
3.91368e-05
-3.43095e-05
3.6862e-05
-4.17725e-05
3.37265e-05
-4.9549e-05
3.33829e-05
-5.67128e-05
3.0877e-05
-6.09176e-05
2.40297e-05
-6.17315e-05
1.58509e-05
-6.0378e-05
1.00205e-05
-5.8165e-05
5.67085e-06
-5.69477e-05
4.12388e-06
-5.51365e-05
6.66493e-07
-5.2425e-05
-1.34832e-06
-5.15748e-05
-3.46607e-06
-5.12699e-05
-8.3688e-06
-4.92368e-05
-1.96666e-05
-4.81474e-05
-2.54447e-05
-5.00585e-05
-2.74073e-05
-5.95746e-05
-2.83116e-05
-7.43246e-05
-4.0036e-05
-9.6598e-05
-4.75441e-05
-1.89168e-05
-0.000118158
-1.06991e-05
4.84991e-05
-2.07798e-05
4.91066e-05
-3.07212e-05
4.90713e-05
-4.05043e-05
4.66382e-05
-5.13095e-05
4.45249e-05
-6.23253e-05
4.43938e-05
-7.2305e-05
4.08546e-05
-8.03179e-05
3.20474e-05
-8.39109e-05
1.94596e-05
-8.97878e-05
1.59193e-05
-0.000111273
2.71692e-05
-0.000155338
4.81097e-05
-0.000210398
5.57419e-05
-0.000237067
2.52968e-05
-0.000211627
-2.92959e-05
-0.000166426
-5.34505e-05
-0.000126029
-6.00472e-05
-9.64391e-05
-5.46267e-05
-7.97715e-05
-4.39743e-05
-7.71691e-05
-3.08959e-05
-8.81296e-05
-2.90751e-05
-0.000111494
-2.42072e-05
-8.3275e-06
-0.000122167
-1.48747e-05
6.33668e-05
-2.92455e-05
6.34704e-05
-4.30077e-05
6.28266e-05
-5.80635e-05
6.16867e-05
-7.656e-05
6.30144e-05
-9.68034e-05
6.46303e-05
-0.000119441
6.34851e-05
-0.000150944
6.35438e-05
-0.000204016
7.25263e-05
-0.000293718
0.000105626
-0.000392037
0.000125512
-0.000462943
0.000119061
-0.000483328
7.6096e-05
-0.000434974
-2.30237e-05
-0.000371961
-9.18967e-05
-0.000314309
-0.000110743
-0.000261674
-0.000111876
-0.000212714
-0.000103542
-0.000170093
-8.66553e-05
-0.000138932
-6.21018e-05
-0.000118462
-4.95696e-05
-0.000105609
-3.70726e-05
-2.19692e-05
-9.20443e-05
-1.30046e-05
7.63646e-05
-2.63966e-05
7.68556e-05
-4.07748e-05
7.7198e-05
-5.76502e-05
7.85554e-05
-7.80131e-05
8.33705e-05
-0.000101696
8.83064e-05
-0.000131513
9.32966e-05
-0.000177037
0.000109061
-0.000257591
0.000153077
-0.000364122
0.000212155
-0.000461108
0.000222486
-0.000511318
0.000169309
-0.000449184
1.39875e-05
-0.000366187
-0.00010514
-0.000339532
-0.000118095
-0.000326721
-0.000123464
-0.000314081
-0.000124682
-0.000294312
-0.000124087
-0.000255451
-0.000125666
-0.000206504
-0.000111099
-0.000162672
-9.34623e-05
-0.000124217
-7.56849e-05
-5.42397e-05
-9.19891e-05
-1.38659e-05
9.02238e-05
-2.82745e-05
9.12575e-05
-4.42092e-05
9.31261e-05
-6.26648e-05
9.70043e-05
-8.38157e-05
0.000104515
-0.000109762
0.000114246
-0.000142412
0.000125941
-0.000186611
0.000153255
-0.00024041
0.000206872
-0.000289858
0.000261598
-0.000341915
0.000274535
-0.000367352
0.000194744
-0.000353878
5.29604e-07
-0.000348195
-0.000110258
-0.000342234
-0.000122943
-0.0003406
-0.00012546
-0.000344867
-0.000121435
-0.000366453
-0.000102986
-0.000457045
-3.50187e-05
-0.000516213
-5.1868e-05
-0.000543161
-6.64779e-05
-0.000528064
-9.07318e-05
-0.00014049
-0.000441761
-1.19208e-05
0.000102138
-2.44389e-05
0.000103769
-3.83608e-05
0.000107042
-5.41856e-05
0.000112823
-7.22147e-05
0.000122538
-9.40782e-05
0.000136103
-0.000121507
0.000153364
-0.000152659
0.000184402
-0.000180016
0.000234226
-0.000199696
0.000281271
-0.00021929
0.000294125
-0.000247314
0.000222766
-0.000293918
4.71332e-05
-0.000318811
-8.53486e-05
-0.00031516
-0.00012642
-0.000312428
-0.000127838
-0.0003274
-0.000106933
-0.000354527
-7.63201e-05
-0.000342602
-4.62992e-05
-0.00035396
-4.01637e-05
-0.00037809
-4.21627e-05
-0.000403273
-6.54511e-05
-0.000128243
-0.000415446
-1.06811e-05
0.000112813
-2.16569e-05
0.000114738
-3.32534e-05
0.000118632
-4.56219e-05
0.000125185
-5.86162e-05
0.000135526
-7.28232e-05
0.000150305
-8.89538e-05
0.000169489
-0.000103509
0.000198953
-0.000110304
0.000241018
-0.000105624
0.000276588
-9.57395e-05
0.000284235
-0.000114564
0.00024159
-0.000180506
0.00011307
-0.000254015
-1.18452e-05
-0.000286963
-9.34737e-05
-0.000290094
-0.000124713
-0.000299366
-9.74392e-05
-0.000305232
-6.8829e-05
-0.000294028
-5.73994e-05
-0.000281076
-5.3443e-05
-0.000273878
-4.9717e-05
-0.000291634
-4.77398e-05
-4.45554e-05
-0.000375253
-8.38417e-06
0.000121191
-1.67541e-05
0.000123102
-2.51117e-05
0.000126983
-3.33674e-05
0.000133435
-4.09704e-05
0.000143123
-4.72865e-05
0.000156615
-5.16421e-05
0.000173839
-5.05769e-05
0.000197882
-3.7936e-05
0.000228373
-1.7094e-05
0.000255743
6.75512e-06
0.000260382
1.70546e-05
0.000231284
-1.84469e-05
0.000148566
-8.67754e-05
5.64772e-05
-0.000158285
-2.19691e-05
-0.000221763
-6.12402e-05
-0.000261871
-5.73153e-05
-0.000266286
-6.38795e-05
-0.000257338
-6.512e-05
-0.00025145
-5.95595e-05
-0.000249057
-5.22483e-05
-0.000254238
-4.34312e-05
-2.35502e-05
-0.000275323
-6.50405e-06
0.000127689
-1.28418e-05
0.000129434
-1.88727e-05
0.000133008
-2.41966e-05
0.000138753
-2.80749e-05
0.000146996
-2.94928e-05
0.000158027
-2.72029e-05
0.000171544
-1.81838e-05
0.000188858
1.7691e-06
0.000208416
3.18923e-05
0.000225616
6.68173e-05
0.000225454
9.46075e-05
0.000203491
9.55896e-05
0.000147578
6.77729e-05
8.42877e-05
1.4558e-05
3.12392e-05
-5.74409e-05
1.07512e-05
-0.000127644
1.28801e-05
-0.000189641
-1.89014e-06
-0.000238684
-1.61014e-05
-0.000253528
-4.43916e-05
-0.000236168
-6.85579e-05
-0.000225899
-5.34476e-05
-2.95358e-05
-0.000220046
-4.48844e-06
0.000132171
-8.69076e-06
0.00013363
-1.23162e-05
0.000136628
-1.48827e-05
0.000141313
-1.567e-05
0.000147777
-1.37893e-05
0.000156141
-8.05917e-06
0.000165808
3.50633e-06
0.000177287
2.34972e-05
0.00018842
5.16417e-05
0.000197467
8.27301e-05
0.000194362
0.000108074
0.000178142
0.000114558
0.000141089
0.000101386
9.7454e-05
7.34155e-05
5.92036e-05
4.53481e-05
3.88116e-05
1.98602e-05
3.83611e-05
-2.99905e-05
4.79528e-05
-9.83451e-05
5.22441e-05
-0.000167167
2.44225e-05
-0.000221707
-1.4033e-05
-0.000236116
-3.90541e-05
-4.6937e-05
-0.000218616
-3.06626e-06
0.000135232
-5.84067e-06
0.000136399
-7.98969e-06
0.000138771
-8.98549e-06
0.000142303
-8.21576e-06
0.000147002
-4.90005e-06
0.00015282
1.83638e-06
0.000159066
1.31766e-05
0.000165942
3.04425e-05
0.000171149
5.35914e-05
0.000174313
7.91533e-05
0.000168795
0.00010118
0.000156111
0.000110479
0.000131785
0.000105209
0.000102719
8.80793e-05
7.63274e-05
6.71536e-05
5.97308e-05
5.10994e-05
5.44086e-05
4.63724e-05
5.26729e-05
3.97951e-05
5.88141e-05
2.2512e-08
6.41882e-05
-6.81584e-05
5.41392e-05
-0.000122651
1.54322e-05
-1.39103e-05
-0.000155684
-1.78458e-06
0.000137011
-3.23401e-06
0.000137843
-4.00828e-06
0.000139539
-3.68276e-06
0.000141972
-1.75477e-06
0.000145068
2.25762e-06
0.000148802
8.96542e-06
0.000152353
1.89077e-05
0.000155994
3.25375e-05
0.000157513
4.94897e-05
0.000157356
6.74372e-05
0.000150842
8.3937e-05
0.000139606
9.39836e-05
0.000121733
9.49663e-05
0.00010173
8.84584e-05
8.28295e-05
7.91832e-05
6.89997e-05
7.15972e-05
6.19884e-05
6.54496e-05
5.8814e-05
6.63568e-05
5.79e-05
7.58525e-05
5.46865e-05
7.91924e-05
5.07929e-05
6.01707e-05
3.44476e-05
1.58847e-05
3.03694e-05
-9.85048e-07
0.00013799
-1.65961e-06
0.000138512
-1.72781e-06
0.000139602
-8.46307e-07
0.000141085
1.38165e-06
0.000142835
5.32454e-06
0.000144853
1.13832e-05
0.000146289
1.98598e-05
0.000147512
3.0728e-05
0.00014664
4.3728e-05
0.00014435
5.69469e-05
0.000137618
6.86968e-05
0.00012785
7.65762e-05
0.000113849
7.97108e-05
9.85902e-05
7.83215e-05
8.42133e-05
7.50825e-05
7.22328e-05
7.27906e-05
6.42746e-05
7.39949e-05
5.76038e-05
7.79808e-05
5.39084e-05
8.2413e-05
5.02485e-05
8.85241e-05
4.46758e-05
9.22016e-05
3.07645e-05
1.42764e-05
9.3804e-05
-3.43324e-07
0.000138328
-4.19632e-07
0.000138582
2.89032e-08
0.000139148
1.25611e-06
0.000139852
3.53883e-06
0.000140547
7.1159e-06
0.000141271
1.22468e-05
0.000141153
1.9072e-05
0.000140682
2.74721e-05
0.000138234
3.71455e-05
0.000134672
4.69179e-05
0.00012784
5.56646e-05
0.000119098
6.20566e-05
0.000107451
6.56157e-05
9.50255e-05
6.70872e-05
8.27361e-05
6.74441e-05
7.18702e-05
6.80914e-05
6.36214e-05
6.95842e-05
5.61052e-05
7.33667e-05
5.01199e-05
8.00226e-05
4.3587e-05
8.75998e-05
3.70927e-05
8.98132e-05
2.85455e-05
1.78225e-05
8.62615e-05
-7.75839e-08
0.0001384
8.46959e-08
0.000138415
6.91812e-07
0.000138535
1.97669e-06
0.000138562
4.1621e-06
0.000138356
7.38877e-06
0.000138039
1.17715e-05
0.000136765
1.73151e-05
0.000135133
2.38311e-05
0.000131713
3.11501e-05
0.000127347
3.84537e-05
0.000120531
4.51281e-05
0.000112418
5.03975e-05
0.000102176
5.40697e-05
9.13478e-05
5.64375e-05
8.0363e-05
5.84362e-05
6.9866e-05
6.10476e-05
6.10046e-05
6.45516e-05
5.25957e-05
6.91883e-05
4.54778e-05
7.46404e-05
3.81294e-05
8.14909e-05
3.02368e-05
8.8253e-05
2.17781e-05
1.3455e-05
9.26152e-05
-3.07181e-08
0.000138425
1.1661e-07
0.000138262
5.81815e-07
0.000138065
1.55819e-06
0.000137581
3.22592e-06
0.000136683
5.70198e-06
0.000135557
9.10273e-06
0.000133359
1.33312e-05
0.000130899
1.83407e-05
0.000126699
2.388e-05
0.000121803
2.95122e-05
0.000114894
3.48188e-05
0.000107107
3.93671e-05
9.76228e-05
4.2992e-05
8.77175e-05
4.58561e-05
7.74935e-05
4.83844e-05
6.73323e-05
5.12304e-05
5.81531e-05
5.47317e-05
4.9089e-05
5.92624e-05
4.09415e-05
6.43992e-05
3.29873e-05
6.97029e-05
2.49277e-05
7.50698e-05
1.64059e-05
8.96588e-06
7.95535e-05
-1.23532e-07
0.000138544
-1.01795e-07
0.000138235
1.82443e-07
0.000137776
8.71825e-07
0.000136886
2.08509e-06
0.000135465
3.96859e-06
0.000133669
6.57696e-06
0.000130745
9.81004e-06
0.000127661
1.36497e-05
0.000122854
1.7797e-05
0.00011765
2.20509e-05
0.000110635
2.61493e-05
0.000103003
2.98342e-05
9.39328e-05
3.31877e-05
8.43589e-05
3.62596e-05
7.44165e-05
3.93188e-05
6.42679e-05
4.28251e-05
5.46416e-05
4.68681e-05
4.50408e-05
5.19659e-05
3.58386e-05
5.78564e-05
2.70917e-05
6.39759e-05
1.8803e-05
7.0581e-05
9.79571e-06
1.75766e-06
7.77841e-05
-3.9188e-07
0.000138931
-6.61279e-07
0.0001385
-7.28816e-07
0.000137838
-4.82177e-07
0.000136634
1.51024e-07
0.000134826
1.26582e-06
0.000132549
2.88481e-06
0.000129121
4.97051e-06
0.00012557
7.53952e-06
0.00012028
1.03394e-05
0.000114845
1.34447e-05
0.000107525
1.66463e-05
9.97963e-05
1.97685e-05
9.08055e-05
2.28603e-05
8.1262e-05
2.58734e-05
7.13982e-05
2.90257e-05
6.11106e-05
3.26086e-05
5.10536e-05
3.66362e-05
4.10081e-05
4.14638e-05
3.10058e-05
4.72441e-05
2.13063e-05
5.34661e-05
1.25759e-05
5.99984e-05
3.25836e-06
-5.31095e-06
6.7062e-05
-8.21047e-07
0.000139747
-1.53068e-06
0.000139204
-2.06325e-06
0.000138366
-2.32248e-06
0.000136889
-2.26644e-06
0.000134766
-1.86431e-06
0.000132142
-1.09913e-06
0.000128351
9.63397e-08
0.00012437
1.72585e-06
0.000118645
3.65681e-06
0.000112909
5.90784e-06
0.000105269
8.28356e-06
9.74157e-05
1.07666e-05
8.83177e-05
1.33413e-05
7.86824e-05
1.61649e-05
6.85697e-05
1.93418e-05
5.79288e-05
2.31997e-05
4.71908e-05
2.76884e-05
3.65146e-05
3.30339e-05
2.56554e-05
3.94455e-05
1.48899e-05
4.67051e-05
5.31136e-06
5.48027e-05
-4.84417e-06
-1.42025e-05
6.36894e-05
-1.32514e-06
0.000141067
-2.57328e-06
0.000140448
-3.6826e-06
0.000139471
-4.58337e-06
0.000137785
-5.22769e-06
0.000135405
-5.58689e-06
0.000132496
-5.67723e-06
0.000128437
-5.38623e-06
0.000124074
-4.76138e-06
0.000118016
-3.7851e-06
0.000111929
-2.53318e-06
0.000104012
-1.02902e-06
9.59068e-05
8.19572e-07
8.64643e-05
2.88114e-06
7.66161e-05
5.39685e-06
6.60492e-05
8.33261e-06
5.49883e-05
1.19634e-05
4.35553e-05
1.63564e-05
3.21168e-05
2.16308e-05
2.03762e-05
2.8055e-05
8.46098e-06
3.54948e-05
-2.13321e-06
4.4177e-05
-1.35311e-05
-2.38567e-05
5.38265e-05
-1.97236e-06
0.000143035
-3.88881e-06
0.00014236
-5.66349e-06
0.000141241
-7.26736e-06
0.000139384
-8.65912e-06
0.000136792
-9.78513e-06
0.000133618
-1.06793e-05
0.000129327
-1.12303e-05
0.000124621
-1.15174e-05
0.000118298
-1.14136e-05
0.00011182
-1.10422e-05
0.000103636
-1.03624e-05
9.52225e-05
-9.29121e-06
8.53886e-05
-7.92249e-06
7.52428e-05
-5.83365e-06
6.39559e-05
-3.22896e-06
5.2379e-05
2.73489e-07
4.00483e-05
4.70985e-06
2.76759e-05
1.01478e-05
1.49336e-05
1.67987e-05
1.80548e-06
2.47258e-05
-1.00648e-05
3.42416e-05
-2.30515e-05
-3.46633e-05
4.50437e-05
-2.71026e-06
0.000145741
-5.39924e-06
0.000145045
-7.94993e-06
0.000143787
-1.0369e-05
0.000141799
-1.26102e-05
0.000139029
-1.45969e-05
0.0001356
-1.63723e-05
0.000131098
-1.78188e-05
0.000126063
-1.90784e-05
0.000119554
-1.99661e-05
0.000112704
-2.05949e-05
0.000104261
-2.08318e-05
9.54551e-05
-2.06057e-05
8.51581e-05
-1.99304e-05
7.45632e-05
-1.86047e-05
6.26258e-05
-1.67686e-05
5.05386e-05
-1.39408e-05
3.72161e-05
-1.02059e-05
2.39367e-05
-5.3457e-06
1.0069e-05
7.19742e-07
-4.2644e-06
8.18177e-06
-1.75313e-05
1.75387e-05
-3.24131e-05
-4.54046e-05
2.82753e-05
-3.57861e-06
0.000149316
-7.15148e-06
0.000148613
-1.05767e-05
0.000147208
-1.38883e-05
0.000145107
-1.70426e-05
0.000142179
-1.99823e-05
0.000138536
-2.27571e-05
0.000133869
-2.52472e-05
0.000128549
-2.75821e-05
0.000121884
-2.95787e-05
0.000114696
-3.13016e-05
0.000105979
-3.26779e-05
9.68272e-05
-3.3696e-05
8.61721e-05
-3.42495e-05
7.51126e-05
-3.41332e-05
6.25054e-05
-3.33685e-05
4.97698e-05
-3.17171e-05
3.55604e-05
-2.90533e-05
2.12687e-05
-2.49413e-05
5.95266e-06
-1.94528e-05
-9.75722e-06
-1.23349e-05
-2.46535e-05
-3.42157e-06
-4.13308e-05
-5.55486e-05
6.71812e-06
-4.56937e-06
0.000153881
-9.14649e-06
0.000153187
-1.35957e-05
0.000151654
-1.79505e-05
0.000149458
-2.21517e-05
0.000146377
-2.61579e-05
0.000142538
-3.00094e-05
0.000137716
-3.36085e-05
0.000132144
-3.70639e-05
0.000125336
-4.02247e-05
0.000117853
-4.31714e-05
0.000108922
-4.57687e-05
9.94207e-05
-4.80032e-05
8.84027e-05
-4.9764e-05
7.68694e-05
-5.10931e-05
6.38305e-05
-5.17075e-05
5.03801e-05
-5.14317e-05
3.52805e-05
-4.99993e-05
1.98321e-05
-4.75139e-05
3.46324e-06
-4.41611e-05
-1.31141e-05
-3.91372e-05
-2.96814e-05
-3.27374e-05
-4.77345e-05
-6.3557e-05
-2.47329e-05
-5.62909e-06
0.000159507
-1.12618e-05
0.000158816
-1.68015e-05
0.00015719
-2.22796e-05
0.000154932
-2.765e-05
0.000151744
-3.28996e-05
0.000147784
-3.80447e-05
0.000142858
-4.30116e-05
0.000137107
-4.78585e-05
0.000130179
-5.24841e-05
0.000122475
-5.69507e-05
0.000113385
-6.11803e-05
0.000103647
-6.51141e-05
9.23327e-05
-6.85292e-05
8.02807e-05
-7.13191e-05
6.66165e-05
-7.31968e-05
5.22539e-05
-7.44694e-05
3.65491e-05
-7.50902e-05
2.04492e-05
-7.54864e-05
3.85574e-06
-7.42202e-05
-1.4384e-05
-7.04897e-05
-3.34156e-05
-6.48671e-05
-5.33609e-05
-7.22292e-05
-5.61987e-05
-6.81732e-06
0.000166321
-1.36283e-05
0.000165623
-2.03776e-05
0.000163936
-2.7066e-05
0.000161617
-3.36472e-05
0.000158321
-4.0122e-05
0.000154256
-4.64831e-05
0.000149215
-5.27069e-05
0.000143328
-5.88264e-05
0.000136295
-6.47614e-05
0.000128407
-7.0539e-05
0.000119159
-7.60124e-05
0.000109116
-8.12643e-05
9.7581e-05
-8.6139e-05
8.51517e-05
-9.06792e-05
7.11529e-05
-9.48141e-05
5.63853e-05
-9.93069e-05
4.10386e-05
-0.000103872
2.50105e-05
-0.000105584
5.56442e-06
-0.000103636
-1.63359e-05
-9.88828e-05
-3.81719e-05
-9.12126e-05
-6.10349e-05
-8.34018e-05
-8.00439e-05
-7.96688e-06
0.000174284
-1.59383e-05
0.000173592
-2.39187e-05
0.000171913
-3.19021e-05
0.000169597
-3.98681e-05
0.000166284
-4.78131e-05
0.000162198
-5.56993e-05
0.000157098
-6.34967e-05
0.000151122
-7.12159e-05
0.000144011
-7.88161e-05
0.000136004
-8.63324e-05
0.000126672
-9.36442e-05
0.000116425
-0.000100548
0.000104481
-0.000107037
9.16372e-05
-0.000113718
7.78315e-05
-0.000121173
6.38368e-05
-0.000128216
4.80792e-05
-0.000130663
2.7454e-05
-0.000129029
3.92674e-06
-0.000125011
-2.03572e-05
-0.000117848
-4.53387e-05
-0.000107891
-7.09952e-05
-9.66879e-05
-9.46081e-05
-9.19085e-06
0.000183472
-1.83618e-05
0.00018276
-2.7531e-05
0.000181079
-3.66742e-05
0.000178738
-4.57839e-05
0.000175391
-5.48686e-05
0.000171279
-6.38948e-05
0.000166122
-7.2861e-05
0.000160085
-8.17247e-05
0.000152872
-9.04585e-05
0.000144734
-9.9056e-05
0.000135267
-0.000107596
0.000124962
-0.000116551
0.000113433
-0.000126365
0.000101449
-0.000137271
8.87346e-05
-0.000146944
7.35069e-05
-0.000150304
5.1436e-05
-0.000148599
2.57462e-05
-0.000145272
5.96321e-07
-0.000139151
-2.64812e-05
-0.000129727
-5.47663e-05
-0.000117539
-8.31863e-05
-0.000111279
-0.000102952
-1.0434e-05
0.000193904
-2.08805e-05
0.000193204
-3.13908e-05
0.000191587
-4.19437e-05
0.000189288
-5.25333e-05
0.000185978
-6.31408e-05
0.000181884
-7.37324e-05
0.000176711
-8.43144e-05
0.000170665
-9.48884e-05
0.000163444
-0.000105445
0.000155288
-0.000116012
0.00014583
-0.0001265
0.000135447
-0.000137241
0.000124172
-0.000149046
0.000113252
-0.00015997
9.96559e-05
-0.000163852
7.73861e-05
-0.000162349
4.99304e-05
-0.000160113
2.35076e-05
-0.000154589
-4.93056e-06
-0.00014563
-3.54431e-05
-0.000134507
-6.58928e-05
-0.00012157
-9.61266e-05
-0.000125267
-0.000107585
-1.13989e-05
0.000205301
-2.28148e-05
0.000204617
-3.42691e-05
0.000203039
-4.57358e-05
0.000200752
-5.72222e-05
0.000197462
-6.87168e-05
0.000193377
-8.0182e-05
0.000188174
-9.16422e-05
0.000182122
-0.000103116
0.000174915
-0.000114829
0.000166999
-0.000127109
0.000158108
-0.000140599
0.000148935
-0.000155157
0.000138727
-0.000167888
0.000125981
-0.000172916
0.000104681
-0.000171771
7.62383e-05
-0.00017029
4.84475e-05
-0.000165624
1.88389e-05
-0.000157102
-1.3455e-05
-0.000146964
-4.55838e-05
-0.000135644
-7.72155e-05
-0.000123569
-0.000108205
-0.000138253
-0.000110585
-1.29453e-05
0.000218244
-2.58652e-05
0.000217535
-3.88299e-05
0.000216002
-5.1811e-05
0.000213732
-6.4804e-05
0.000210453
-7.78107e-05
0.000206381
-9.07862e-05
0.000201147
-0.000103737
0.000195071
-0.000116676
0.000187852
-0.000129897
0.000180218
-0.000143885
0.000172094
-0.000158885
0.000163934
-0.000173593
0.000153434
-0.000181106
0.000133492
-0.000180104
0.000103677
-0.000177755
7.38877e-05
-0.000173278
4.3968e-05
-0.000165093
1.0652e-05
-0.000155765
-2.27862e-05
-0.000145606
-5.57455e-05
-0.000134727
-8.80963e-05
-0.00012321
-0.000119725
-0.000150369
-0.000111097
-1.34002e-05
0.000231642
-2.68362e-05
0.00023097
-4.03832e-05
0.000229547
-5.40247e-05
0.000227371
-6.77144e-05
0.000224141
-8.14542e-05
0.000220119
-9.5289e-05
0.00021498
-0.000109335
0.000209116
-0.000123762
0.000202277
-0.000138851
0.000195305
-0.000154755
0.000187996
-0.00017074
0.000179918
-0.00018124
0.000163931
-0.00018207
0.000134319
-0.000180017
0.000101622
-0.000176911
7.07802e-05
-0.000169944
3.69987e-05
-0.000161427
2.13282e-06
-0.000152203
-3.20122e-05
-0.000142232
-6.57188e-05
-0.000131689
-9.86418e-05
-0.000120694
-0.000130723
-0.000161626
-0.00010944
-1.5305e-05
0.000246946
-3.05986e-05
0.000246262
-4.57644e-05
0.000244711
-6.08215e-05
0.000242427
-7.58735e-05
0.000239192
-9.09525e-05
0.000235197
-0.000106132
0.000230158
-0.000121679
0.000224661
-0.000137924
0.000218521
-0.000154941
0.000212322
-0.000171622
0.000204676
-0.000184006
0.0001923
-0.000186658
0.000166582
-0.000183726
0.000131386
-0.000180096
9.79905e-05
-0.000173644
6.43262e-05
-0.000164964
2.83166e-05
-0.000155847
-6.98614e-06
-0.000146259
-4.1602e-05
-0.000136285
-7.56947e-05
-0.000126116
-0.000108813
-0.000115715
-0.000141127
-0.000172193
-0.00010515
-1.5266e-05
0.000262211
-3.05665e-05
0.000261561
-4.58995e-05
0.000260044
-6.13327e-05
0.000257859
-7.6918e-05
0.000254776
-9.26235e-05
0.000250902
-0.000108505
0.000246039
-0.000124858
0.000241013
-0.000142068
0.000235731
-0.000159961
0.000230213
-0.00017645
0.000221165
-0.000184733
0.000200582
-0.000183022
0.000164869
-0.000179679
0.000128042
-0.000174926
9.32359e-05
-0.000166696
5.60942e-05
-0.000158103
1.97223e-05
-0.000148926
-1.61648e-05
-0.0001395
-5.10298e-05
-0.000129993
-8.52033e-05
-0.000120324
-0.000118484
-0.000110652
-0.000150801
-0.000182105
-0.000100742
-1.7155e-05
0.000279365
-3.43824e-05
0.000278788
-5.17392e-05
0.000277399
-6.91104e-05
0.00027523
-8.63422e-05
0.000272007
-0.00010353
0.000268089
-0.000120923
0.000263432
-0.000138743
0.000258832
-0.000156746
0.000253734
-0.000173815
0.000247282
-0.000185331
0.00023268
-0.000186843
0.000202093
-0.000182668
0.000160693
-0.000176771
0.000122145
-0.000168612
8.50755e-05
-0.000159256
4.67374e-05
-0.000149717
1.01817e-05