/*--------------------------------*- C++ -*----------------------------------*\
| =========                 |                                                 |
| \\      /  F ield         | OpenFOAM: The Open Source CFD Toolbox           |
|  \\    /   O peration     | Version:  2012                                  |
|   \\  /    A nd           | Website:  www.openfoam.com                      |
|    \\/     M anipulation  |                                                 |
\*---------------------------------------------------------------------------*/
FoamFile
{
    version     2.0;
    format      ascii;
    class       volVectorField;
    location    "0.76";
    object      U;
}
// * * * * * * * * * * * * * * * * * * * * * * * * * * * * * * * * * * * * * //

dimensions      [0 1 -1 0 0 0 0];


internalField   nonuniform List<vector> 
2268
(
(-0.0139074 0.00507341 0)
(-0.0375915 0.00464379 0)
(-0.0620529 0.00470783 0)
(-0.0874002 0.00494887 0)
(-0.113782 0.00458093 0)
(-0.135556 0.00390192 0)
(-0.154978 0.00369097 0)
(-0.173787 0.00377312 0)
(-0.191111 0.00320693 0)
(-0.202068 0.00284564 0)
(-0.214456 0.00211212 0)
(-0.218921 0.0014556 0)
(-0.222979 -0.000233951 0)
(-0.218813 -0.00178727 0)
(-0.215221 -0.00345499 0)
(-0.202615 -0.005006 0)
(-0.190635 -0.00746082 0)
(-0.163816 -0.0091215 0)
(-0.138896 -0.0124027 0)
(-0.0971601 -0.014268 0)
(-0.0582994 -0.0161294 0)
(-0.0284248 -0.0211467 0)
(0.0402063 -0.013448 0)
(-0.014134 0.0192698 0)
(-0.0379522 0.0181137 0)
(-0.0625224 0.0188335 0)
(-0.0875376 0.0194918 0)
(-0.11367 0.0181821 0)
(-0.135482 0.0155503 0)
(-0.155339 0.0143873 0)
(-0.174325 0.013274 0)
(-0.191506 0.0101995 0)
(-0.20241 0.00812935 0)
(-0.215117 0.00593532 0)
(-0.219579 0.0024883 0)
(-0.22408 0.000291309 0)
(-0.220206 -0.00194901 0)
(-0.2169 -0.00411276 0)
(-0.204187 -0.0066513 0)
(-0.192021 -0.0108375 0)
(-0.165661 -0.0153457 0)
(-0.140719 -0.0191071 0)
(-0.100997 -0.0238045 0)
(-0.0643153 -0.0163793 0)
(-0.0341164 -0.0253518 0)
(0.0245535 0.0191244 0)
(-0.0145563 0.0296725 0)
(-0.0380592 0.0275011 0)
(-0.0627908 0.0281399 0)
(-0.0873775 0.0291203 0)
(-0.113748 0.0272572 0)
(-0.136445 0.0235981 0)
(-0.157477 0.0220797 0)
(-0.176611 0.0208469 0)
(-0.193639 0.0165213 0)
(-0.204686 0.0139404 0)
(-0.216762 0.0102842 0)
(-0.220428 0.00558934 0)
(-0.225115 0.000111246 0)
(-0.221008 -0.00531222 0)
(-0.218541 -0.0109993 0)
(-0.205124 -0.0168761 0)
(-0.193379 -0.0256406 0)
(-0.16538 -0.0333946 0)
(-0.139579 -0.0429587 0)
(-0.0976005 -0.0503755 0)
(-0.0556191 -0.0477881 0)
(-0.0154198 -0.0632736 0)
(0.0450698 -0.0182387 0)
(-0.0150132 0.0441676 0)
(-0.0383624 0.0409328 0)
(-0.0637729 0.0421521 0)
(-0.0881352 0.0435671 0)
(-0.113721 0.0413641 0)
(-0.136441 0.0361821 0)
(-0.15816 0.0333606 0)
(-0.177467 0.0303247 0)
(-0.194636 0.0235061 0)
(-0.206157 0.019008 0)
(-0.218648 0.0134787 0)
(-0.223721 0.00637804 0)
(-0.229554 0.000728418 0)
(-0.22576 -0.00505883 0)
(-0.223691 -0.0114694 0)
(-0.210391 -0.0185027 0)
(-0.199425 -0.0295778 0)
(-0.172779 -0.040764 0)
(-0.146717 -0.0511593 0)
(-0.105883 -0.0634175 0)
(-0.0610816 -0.055223 0)
(-0.0159432 -0.07262 0)
(0.0437159 0.0335948 0)
(-0.0145286 0.0548451 0)
(-0.0382657 0.050506 0)
(-0.0641248 0.0516414 0)
(-0.0886474 0.0527192 0)
(-0.11446 0.0501082 0)
(-0.138478 0.0446199 0)
(-0.162318 0.0415161 0)
(-0.181955 0.0380761 0)
(-0.198843 0.0301211 0)
(-0.21028 0.0252256 0)
(-0.22158 0.0186104 0)
(-0.22529 0.0106267 0)
(-0.231529 0.00105578 0)
(-0.227253 -0.00827444 0)
(-0.226436 -0.0183095 0)
(-0.212676 -0.0285334 0)
(-0.203109 -0.0433832 0)
(-0.174329 -0.0583436 0)
(-0.147593 -0.0745675 0)
(-0.101559 -0.0908723 0)
(-0.0500105 -0.0904231 0)
(0.0193502 -0.113205 0)
(0.0838843 -0.00568916 0)
(-0.0133621 0.0691967 0)
(-0.0393743 0.0644333 0)
(-0.0660711 0.0660025 0)
(-0.0906177 0.0673658 0)
(-0.115055 0.064908 0)
(-0.138441 0.0587542 0)
(-0.162883 0.0538832 0)
(-0.182743 0.0475376 0)
(-0.200219 0.0369245 0)
(-0.213203 0.0297093 0)
(-0.225549 0.0206908 0)
(-0.231606 0.0110602 0)
(-0.23883 0.00187786 0)
(-0.234892 -0.00739851 0)
(-0.234708 -0.0181298 0)
(-0.22156 -0.0294177 0)
(-0.213468 -0.0477027 0)
(-0.186754 -0.0669966 0)
(-0.161145 -0.0856338 0)
(-0.114435 -0.109397 0)
(-0.059244 -0.112399 0)
(0.0215985 -0.135155 0)
(0.0813767 0.0831115 0)
(-0.0114661 0.079659 0)
(-0.0387238 0.0753272 0)
(-0.0663833 0.0757976 0)
(-0.0917201 0.0758374 0)
(-0.116187 0.0727164 0)
(-0.141536 0.0672518 0)
(-0.169072 0.0625162 0)
(-0.189358 0.0557285 0)
(-0.20617 0.0445623 0)
(-0.218352 0.037144 0)
(-0.229069 0.0273046 0)
(-0.233385 0.0167639 0)
(-0.240913 0.00250096 0)
(-0.237062 -0.010461 0)
(-0.23877 -0.0247681 0)
(-0.226402 -0.0387971 0)
(-0.220815 -0.0597128 0)
(-0.190956 -0.0830237 0)
(-0.165641 -0.108631 0)
(-0.111262 -0.139013 0)
(-0.0473815 -0.154968 0)
(0.0492205 -0.180511 0)
(0.125856 0.0420449 0)
(-0.0106267 0.0930628 0)
(-0.0389896 0.0905109 0)
(-0.0674978 0.0911404 0)
(-0.09327 0.0909534 0)
(-0.11617 0.0884689 0)
(-0.142066 0.083706 0)
(-0.17157 0.0764371 0)
(-0.193444 0.0649943 0)
(-0.211258 0.0506403 0)
(-0.224111 0.0404856 0)
(-0.235174 0.0279164 0)
(-0.243023 0.0166868 0)
(-0.250675 0.00392899 0)
(-0.246554 -0.00828987 0)
(-0.24907 -0.0227852 0)
(-0.237908 -0.0378157 0)
(-0.233624 -0.0646167 0)
(-0.20634 -0.0932539 0)
(-0.186817 -0.123625 0)
(-0.140587 -0.165221 0)
(-0.0931874 -0.188353 0)
(0.00884702 -0.21575 0)
(0.0217513 0.166888 0)
(-0.591716 0.23518 0)
(-1.10422 0.0934539 0)
(-1.42934 0.0401287 0)
(-1.53196 0.00862639 0)
(-1.47788 -0.0207424 0)
(-1.23706 -0.0277074 0)
(-1.12458 0.0510539 0)
(-1.23118 0.070547 0)
(-1.44582 0.0167121 0)
(-1.5476 -0.00353194 0)
(-1.6144 0.0164965 0)
(-1.67375 0.0174798 0)
(-1.75842 0.0310557 0)
(-1.8362 0.0217538 0)
(-1.89131 0.00253245 0)
(-1.91293 -0.0310839 0)
(-1.82862 -0.12793 0)
(-1.16802 -0.199951 0)
(-0.501024 -0.173312 0)
(-0.485585 0.486599 0)
(-0.937433 0.264942 0)
(-1.21882 0.141335 0)
(-1.28276 0.0125401 0)
(-1.17683 -0.104633 0)
(-0.91091 -0.1217 0)
(-0.841878 -0.0546377 0)
(-1.07701 0.0659636 0)
(-1.23916 0.119398 0)
(-1.32385 0.0756089 0)
(-1.38298 0.0374356 0)
(-1.46335 0.0436433 0)
(-1.53236 0.0380743 0)
(-1.58549 0.0344592 0)
(-1.62164 0.0299526 0)
(-1.62727 0.00153256 0)
(-1.46674 -0.187598 0)
(-0.857552 -0.36844 0)
(-0.555035 -0.538794 0)
(-0.48645 0.832597 0)
(-0.75749 0.406236 0)
(-1.00993 0.185488 0)
(-1.09904 -0.00969504 0)
(-0.885835 -0.177378 0)
(-0.447236 -0.174856 0)
(-0.242628 0.125055 0)
(-0.526943 0.243578 0)
(-0.838526 0.114725 0)
(-1.1369 0.0553038 0)
(-1.34244 0.0747659 0)
(-1.44446 0.0805526 0)
(-1.51743 0.0832942 0)
(-1.5783 0.0591043 0)
(-1.64864 0.0225058 0)
(-1.51099 -0.0934098 0)
(-1.09983 -0.444347 0)
(-0.340732 -0.591039 0)
(-0.410843 -0.770212 0)
(-0.387703 1.01975 0)
(-0.543559 0.49097 0)
(-0.939585 0.28599 0)
(-1.13451 -0.0374069 0)
(-0.552531 -0.381028 0)
(-0.188206 -0.393859 0)
(0.054605 -0.0259366 0)
(0.359819 0.312052 0)
(0.277707 0.39651 0)
(-0.161243 0.341416 0)
(-0.764809 0.273822 0)
(-1.27826 0.127433 0)
(-1.53058 0.087732 0)
(-1.46663 0.100303 0)
(-1.82051 -0.0317948 0)
(-0.763677 -0.361447 0)
(-0.797411 -0.684601 0)
(0.0235915 -0.670538 0)
(-0.303824 -0.858714 0)
(-0.292832 1.22381 0)
(-0.354676 0.639635 0)
(-0.745515 0.396432 0)
(-0.720927 -0.215703 0)
(-0.0499871 -0.578252 0)
(0.0534166 -0.4374 0)
(0.219603 -0.105094 0)
(0.426596 0.154414 0)
(0.63962 0.314982 0)
(0.714885 0.378733 0)
(0.781782 0.392394 0)
(0.817281 0.348321 0)
(0.354791 0.21252 0)
(0.491329 0.0787159 0)
(0.492487 -0.0889544 0)
(0.606238 -0.35824 0)
(-0.273848 -0.699645 0)
(0.207453 -0.811993 0)
(-0.215958 -0.888232 0)
(-0.144714 1.29737 0)
(-0.175975 0.649071 0)
(-0.0248488 0.573205 0)
(-0.229365 -0.23203 0)
(0.1888 -0.740305 0)
(0.222314 -0.507573 0)
(0.376979 -0.186691 0)
(0.552407 0.130413 0)
(0.642485 0.283013 0)
(0.708635 0.3304 0)
(0.779636 0.338256 0)
(0.865191 0.315036 0)
(0.916155 0.21545 0)
(0.986108 0.0442674 0)
(0.995137 -0.114435 0)
(1.02591 -0.270143 0)
(0.650938 -0.526514 0)
(0.416008 -0.705498 0)
(-0.136948 -0.862249 0)
(-0.072939 1.35667 0)
(-0.0500522 0.573687 0)
(-0.0506256 0.423424 0)
(0.466974 -0.326597 0)
(0.335083 -0.750005 0)
(0.350826 -0.521533 0)
(0.461449 -0.243613 0)
(0.617235 0.0432412 0)
(0.633492 0.245996 0)
(0.683224 0.319105 0)
(0.749113 0.323268 0)
(0.828497 0.285731 0)
(0.865264 0.174334 0)
(0.923422 0.0326617 0)
(0.995396 -0.0750245 0)
(1.01002 -0.165377 0)
(0.841498 -0.411354 0)
(0.506273 -0.481119 0)
(-0.11695 -0.767616 0)
(-0.0562583 1.35058 0)
(0.0589309 0.625711 0)
(-0.362466 0.379331 0)
(0.545816 -0.540833 0)
(0.399855 -0.695471 0)
(0.4197 -0.561304 0)
(0.521401 -0.302413 0)
(0.669828 0.0546629 0)
(0.625777 0.255049 0)
(0.654988 0.28138 0)
(0.704732 0.278356 0)
(0.766859 0.268438 0)
(0.797286 0.174729 0)
(0.847032 -0.0159836 0)
(0.932779 -0.154637 0)
(0.939388 -0.209235 0)
(0.780517 -0.318124 0)
(0.375111 -0.301431 0)
(-0.119645 -0.69698 0)
(-0.00965853 0.108354 0)
(-0.0379624 0.108433 0)
(-0.0657712 0.106991 0)
(-0.092363 0.103114 0)
(-0.114561 0.0998207 0)
(-0.138126 0.0989388 0)
(-0.164443 0.0927631 0)
(-0.1866 0.0799076 0)
(-0.208003 0.0638905 0)
(-0.224094 0.0528773 0)
(-0.238295 0.0408935 0)
(-0.246681 0.0280043 0)
(-0.25207 0.0039095 0)
(-0.248451 -0.0132592 0)
(-0.254207 -0.0329144 0)
(-0.249428 -0.0509231 0)
(-0.251846 -0.0797384 0)
(-0.219603 -0.111192 0)
(-0.210792 -0.148049 0)
(-0.17319 -0.192774 0)
(-0.147194 -0.247144 0)
(-0.0194897 -0.247164 0)
(0.0569824 -0.00757887 0)
(-0.0168397 0.135273 0)
(-0.0570402 0.140243 0)
(-0.0957985 0.139891 0)
(-0.13324 0.1354 0)
(-0.161974 0.130198 0)
(-0.185019 0.128157 0)
(-0.209558 0.119144 0)
(-0.227335 0.103235 0)
(-0.238851 0.0835663 0)
(-0.240819 0.0663665 0)
(-0.241554 0.0461097 0)
(-0.238518 0.026498 0)
(-0.244567 0.00635636 0)
(-0.255764 -0.00429778 0)
(-0.277134 -0.0170861 0)
(-0.278709 -0.0358993 0)
(-0.277305 -0.0897382 0)
(-0.257753 -0.129114 0)
(-0.254282 -0.16253 0)
(-0.25085 -0.219707 0)
(-0.257304 -0.323174 0)
(-0.229577 -0.407651 0)
(-0.158638 -0.330787 0)
(-0.0217272 0.183796 0)
(-0.0665728 0.189094 0)
(-0.113319 0.18473 0)
(-0.163307 0.170595 0)
(-0.204584 0.152579 0)
(-0.243303 0.147142 0)
(-0.288405 0.135504 0)
(-0.319983 0.109378 0)
(-0.333651 0.0775585 0)
(-0.328813 0.0555578 0)
(-0.319292 0.0385212 0)
(-0.305143 0.0306406 0)
(-0.306278 0.020264 0)
(-0.285285 0.0194827 0)
(-0.277685 -0.0121419 0)
(-0.274509 -0.0496305 0)
(-0.275357 -0.0996327 0)
(-0.25215 -0.132113 0)
(-0.264446 -0.152892 0)
(-0.271943 -0.187889 0)
(-0.366518 -0.267827 0)
(-0.430128 -0.345417 0)
(-0.602557 -0.108445 0)
(-0.0299877 0.222 0)
(-0.0846295 0.229689 0)
(-0.137997 0.235042 0)
(-0.190999 0.2243 0)
(-0.24288 0.208303 0)
(-0.306651 0.20939 0)
(-0.361131 0.193882 0)
(-0.413806 0.146508 0)
(-0.447538 0.0911817 0)
(-0.452463 0.0512256 0)
(-0.513085 0.021773 0)
(-0.679604 0.0164221 0)
(-0.988319 -0.00913618 0)
(-1.27206 -0.0314988 0)
(-1.26291 -0.0170728 0)
(-1.01061 -0.0409411 0)
(-0.769798 -0.112806 0)
(-0.582261 -0.144821 0)
(-0.452903 -0.145072 0)
(-0.402861 -0.119785 0)
(-0.42474 -0.166034 0)
(-0.52036 -0.169679 0)
(-0.67305 -0.0996345 0)
(-0.0406655 0.302163 0)
(-0.118715 0.301317 0)
(-0.194845 0.295919 0)
(-0.265897 0.281167 0)
(-0.356661 0.275038 0)
(-0.463519 0.274008 0)
(-0.5746 0.251997 0)
(-0.705339 0.205282 0)
(-0.912642 0.125521 0)
(-1.27345 0.127238 0)
(-1.87795 0.274111 0)
(-2.33334 0.495852 0)
(-2.63522 0.603028 0)
(-2.53636 0.303966 0)
(-2.13847 -0.322329 0)
(-1.83462 -0.532707 0)
(-1.53887 -0.534439 0)
(-1.26993 -0.443395 0)
(-1.01432 -0.329155 0)
(-0.811096 -0.213671 0)
(-0.679941 -0.148727 0)
(-0.590979 -0.0936648 0)
(-0.541559 0.00410661 0)
(-0.0353888 0.378124 0)
(-0.103961 0.379882 0)
(-0.17891 0.378092 0)
(-0.258021 0.37991 0)
(-0.359833 0.3999 0)
(-0.476224 0.417155 0)
(-0.613884 0.426171 0)
(-0.795463 0.47168 0)
(-1.10188 0.646593 0)
(-1.66026 1.00061 0)
(-2.24325 1.07434 0)
(-2.71049 0.800784 0)
(-2.77673 0.211946 0)
(-2.03588 -0.562156 0)
(-1.86144 -0.651328 0)
(-1.78459 -0.667015 0)
(-1.7214 -0.676232 0)
(-1.65208 -0.679029 0)
(-1.50377 -0.609275 0)
(-1.23826 -0.459339 0)
(-0.9779 -0.388089 0)
(-0.768196 -0.30871 0)
(-0.5651 -0.244642 0)
(-0.0377648 0.446088 0)
(-0.110808 0.449754 0)
(-0.192301 0.455365 0)
(-0.281375 0.468661 0)
(-0.39051 0.500866 0)
(-0.50747 0.537788 0)
(-0.669597 0.582778 0)
(-0.855838 0.708593 0)
(-1.14519 1.00801 0)
(-1.43129 1.2931 0)
(-1.67144 1.3284 0)
(-2.0082 1.00411 0)
(-1.91738 -0.0743086 0)
(-1.88061 -0.576852 0)
(-1.84589 -0.625192 0)
(-1.8285 -0.665162 0)
(-1.82839 -0.670187 0)
(-1.86427 -0.647534 0)
(-2.09933 -0.516431 0)
(-2.72236 -0.584387 0)
(-2.81969 -0.581425 0)
(-2.98395 -0.518063 0)
(-2.66577 -0.378097 0)
(-0.032249 0.523905 0)
(-0.0954876 0.531302 0)
(-0.166378 0.545779 0)
(-0.244698 0.573976 0)
(-0.335953 0.622676 0)
(-0.437949 0.690018 0)
(-0.570201 0.771189 0)
(-0.732009 0.93887 0)
(-0.903069 1.21888 0)
(-1.02658 1.52222 0)
(-1.11558 1.62418 0)
(-1.23188 1.10486 0)
(-1.42852 0.0790642 0)
(-1.71487 -0.611571 0)
(-1.70955 -0.704524 0)
(-1.67029 -0.686416 0)
(-1.68412 -0.638535 0)
(-1.82938 -0.473826 0)
(-1.92508 -0.143324 0)
(-1.78634 -0.13819 0)
(-2.00172 -0.183635 0)
(-2.04828 -0.454525 0)
(-2.26323 -1.09445 0)
(-0.0289929 0.577382 0)
(-0.0854368 0.587606 0)
(-0.14663 0.608399 0)
(-0.209598 0.642692 0)
(-0.279302 0.698703 0)
(-0.348555 0.777992 0)
(-0.431787 0.882742 0)
(-0.52086 1.05034 0)
(-0.587545 1.30698 0)
(-0.594279 1.51165 0)
(-0.535934 1.54935 0)
(-0.493437 1.28512 0)
(-0.735181 0.425808 0)
(-1.19457 -0.319408 0)
(-1.53644 -0.671243 0)
(-1.52708 -0.69842 0)
(-1.56488 -0.476919 0)
(-1.65486 -0.349856 0)
(-1.61773 -0.311504 0)
(-1.53879 -0.29452 0)
(-1.47733 -0.270453 0)
(-1.46149 -0.253131 0)
(-1.66164 -0.297409 0)
(-0.0228817 0.636404 0)
(-0.0669321 0.646913 0)
(-0.112493 0.6681 0)
(-0.156491 0.704352 0)
(-0.200814 0.759885 0)
(-0.23797 0.839696 0)
(-0.268199 0.941956 0)
(-0.284482 1.09182 0)
(-0.256235 1.28911 0)
(-0.148896 1.46814 0)
(-0.0340714 1.51184 0)
(0.11037 1.32305 0)
(0.0683816 0.789821 0)
(-0.258665 0.190896 0)
(-0.67389 -0.335602 0)
(-1.01793 -0.649358 0)
(-1.36154 -0.612296 0)
(-1.45314 -0.389272 0)
(-1.39859 -0.307876 0)
(-1.36357 -0.281635 0)
(-1.33584 -0.267446 0)
(-1.33742 -0.266946 0)
(-1.38482 -0.195794 0)
(-0.0183098 0.669665 0)
(-0.0513389 0.679775 0)
(-0.0861468 0.700409 0)
(-0.115908 0.733758 0)
(-0.143113 0.782613 0)
(-0.157286 0.848397 0)
(-0.158224 0.931648 0)
(-0.132319 1.04113 0)
(-0.0613 1.17247 0)
(0.0818794 1.28837 0)
(0.261801 1.29519 0)
(0.456636 1.16579 0)
(0.558346 0.809052 0)
(0.471187 0.410673 0)
(0.255676 0.0881571 0)
(-0.0946006 -0.0204481 0)
(-0.520865 -0.0184281 0)
(-0.849267 -0.310515 0)
(-1.18774 -0.414737 0)
(-1.39551 -0.348884 0)
(-1.30433 -0.295027 0)
(-1.23025 -0.200684 0)
(-1.19454 -0.0616302 0)
(-0.0130223 0.704594 0)
(-0.035024 0.71328 0)
(-0.0579323 0.731169 0)
(-0.0738595 0.759701 0)
(-0.0852312 0.799735 0)
(-0.0822611 0.852772 0)
(-0.0647849 0.915347 0)
(-0.0206454 0.992449 0)
(0.059401 1.07206 0)
(0.194326 1.14175 0)
(0.360349 1.13259 0)
(0.529723 1.02669 0)
(0.629436 0.779083 0)
(0.602971 0.495931 0)
(0.485443 0.246012 0)
(0.304339 0.130166 0)
(0.183674 0.148345 0)
(0.0255507 0.276196 0)
(-0.342603 0.23928 0)
(-0.720012 -0.14381 0)
(-1.07353 -0.454825 0)
(-1.31135 -0.378001 0)
(-1.22624 -0.250668 0)
(-0.00940041 0.719404 0)
(-0.0234026 0.726447 0)
(-0.0390097 0.740854 0)
(-0.0464122 0.762825 0)
(-0.0495025 0.792413 0)
(-0.0380766 0.829542 0)
(-0.0138 0.871023 0)
(0.0344171 0.917623 0)
(0.107787 0.957741 0)
(0.220151 0.985161 0)
(0.355507 0.960364 0)
(0.49532 0.889722 0)
(0.590506 0.73713 0)
(0.597119 0.548538 0)
(0.531533 0.384682 0)
(0.415731 0.282311 0)
(0.304409 0.258708 0)
(0.244181 0.236719 0)
(0.251952 0.310943 0)
(0.172121 0.396893 0)
(-0.171284 0.294761 0)
(-0.564834 -0.0522545 0)
(-0.750998 -0.27705 0)
(-0.00606312 0.736187 0)
(-0.0130084 0.74171 0)
(-0.0214711 0.752848 0)
(-0.0212938 0.768928 0)
(-0.0177865 0.789963 0)
(-0.00061464 0.815477 0)
(0.0254564 0.841338 0)
(0.0713894 0.868748 0)
(0.132185 0.884764 0)
(0.217847 0.891315 0)
(0.313707 0.856492 0)
(0.411008 0.790345 0)
(0.48981 0.680223 0)
(0.519907 0.555181 0)
(0.499456 0.434638 0)
(0.449838 0.356106 0)
(0.40046 0.322833 0)
(0.365864 0.32384 0)
(0.337228 0.320757 0)
(0.371895 0.292185 0)
(0.441306 0.283717 0)
(0.404293 0.212365 0)
(0.241041 0.121701 0)
(-0.00404711 0.739629 0)
(-0.00646367 0.743069 0)
(-0.0111551 0.750206 0)
(-0.00720989 0.760301 0)
(-0.00150874 0.772586 0)
(0.0166536 0.787234 0)
(0.0409561 0.799505 0)
(0.0816739 0.811194 0)
(0.131916 0.811255 0)
(0.198464 0.802698 0)
(0.271084 0.766747 0)
(0.340693 0.711171 0)
(0.396562 0.627976 0)
(0.425793 0.536753 0)
(0.429326 0.45267 0)
(0.411506 0.382881 0)
(0.393491 0.339368 0)
(0.386971 0.305056 0)
(0.405822 0.295511 0)
(0.428979 0.289626 0)
(0.453961 0.256833 0)
(0.493179 0.15253 0)
(0.493488 0.0403598 0)
(-0.00234894 0.745707 0)
(-0.00129586 0.747869 0)
(-0.00306307 0.752452 0)
(0.00350654 0.758324 0)
(0.0102441 0.764841 0)
(0.0279517 0.7719 0)
(0.0487662 0.775039 0)
(0.082959 0.776444 0)
(0.122049 0.766873 0)
(0.173114 0.750582 0)
(0.225723 0.71382 0)
(0.278064 0.663857 0)
(0.319307 0.595867 0)
(0.346705 0.522311 0)
(0.357315 0.451361 0)
(0.362 0.39105 0)
(0.361468 0.349231 0)
(0.367645 0.310738 0)
(0.378338 0.281715 0)
(0.406659 0.24779 0)
(0.450311 0.220169 0)
(0.486637 0.17368 0)
(0.474248 0.108938 0)
(-0.00169277 0.744024 0)
(0.000883418 0.744592 0)
(0.000139232 0.746069 0)
(0.00735417 0.747716 0)
(0.0140721 0.748618 0)
(0.0307054 0.749245 0)
(0.0488488 0.744712 0)
(0.0776208 0.738058 0)
(0.108421 0.72105 0)
(0.147465 0.698686 0)
(0.186904 0.661464 0)
(0.225803 0.616845 0)
(0.258356 0.55886 0)
(0.282304 0.498146 0)
(0.297483 0.436102 0)
(0.307602 0.379357 0)
(0.318614 0.331558 0)
(0.335268 0.289148 0)
(0.356025 0.252703 0)
(0.384393 0.216039 0)
(0.414481 0.173371 0)
(0.457138 0.127517 0)
(0.48668 0.0759537 0)
(-0.00147491 0.745798 0)
(0.00115817 0.745382 0)
(0.000168832 0.745176 0)
(0.00611286 0.743799 0)
(0.0107388 0.740612 0)
(0.0239294 0.736517 0)
(0.0374066 0.727213 0)
(0.0603194 0.716185 0)
(0.0828356 0.696174 0)
(0.113971 0.671332 0)
(0.142259 0.634905 0)
(0.174292 0.591895 0)
(0.199119 0.539266 0)
(0.222913 0.483029 0)
(0.237938 0.426534 0)
(0.253261 0.369773 0)
(0.265086 0.322116 0)
(0.283177 0.273604 0)
(0.302728 0.233586 0)
(0.331104 0.190994 0)
(0.357711 0.148625 0)
(0.387481 0.103381 0)
(0.414718 0.0654545 0)
(-0.00159304 0.744768 0)
(0.00026566 0.743399 0)
(-0.00130849 0.741434 0)
(0.00325725 0.737515 0)
(0.00618248 0.730965 0)
(0.0161597 0.722819 0)
(0.0265077 0.708329 0)
(0.0439889 0.692688 0)
(0.0613031 0.667281 0)
(0.0850029 0.63914 0)
(0.105865 0.600889 0)
(0.130426 0.559683 0)
(0.149865 0.509841 0)
(0.169683 0.459029 0)
(0.18583 0.405044 0)
(0.202286 0.352072 0)
(0.218602 0.300465 0)
(0.239457 0.251065 0)
(0.261901 0.202907 0)
(0.293641 0.159489 0)
(0.324944 0.114773 0)
(0.3588 0.0678665 0)
(0.395443 0.0255195 0)
(-0.00221519 0.746673 0)
(-0.00199897 0.744714 0)
(-0.0050772 0.741705 0)
(-0.00277856 0.736003 0)
(-0.00237949 0.727163 0)
(0.00392367 0.715894 0)
(0.00964203 0.698765 0)
(0.0211712 0.681083 0)
(0.032067 0.654526 0)
(0.0485849 0.626478 0)
(0.0621217 0.588934 0)
(0.081724 0.547766 0)
(0.0964433 0.499636 0)
(0.114999 0.447127 0)
(0.129551 0.393762 0)
(0.147034 0.337228 0)
(0.163281 0.284981 0)
(0.185116 0.230861 0)
(0.206354 0.179839 0)
(0.23654 0.129066 0)
(0.268102 0.0844961 0)
(0.303023 0.0345446 0)
(0.337664 -0.0096333 0)
(-0.00321722 0.749244 0)
(-0.00561666 0.74653 0)
(-0.0108142 0.742372 0)
(-0.0113962 0.73504 0)
(-0.0135491 0.724338 0)
(-0.0109099 0.710967 0)
(-0.00916618 0.691065 0)
(-0.00286387 0.670332 0)
(0.00374174 0.639747 0)
(0.0144026 0.609033 0)
(0.0245429 0.567522 0)
(0.03828 0.525155 0)
(0.0501051 0.476221 0)
(0.064594 0.425617 0)
(0.0777732 0.372511 0)
(0.0945157 0.317914 0)
(0.11186 0.261593 0)
(0.135498 0.207187 0)
(0.159973 0.150228 0)
(0.192429 0.0962113 0)
(0.22864 0.0465884 0)
(0.269938 -0.00409584 0)
(0.315277 -0.0522371 0)
(-0.00437239 0.755247 0)
(-0.00987894 0.752104 0)
(-0.0177638 0.747204 0)
(-0.0218455 0.738579 0)
(-0.0274135 0.726334 0)
(-0.0288536 0.711372 0)
(-0.0312451 0.690323 0)
(-0.0299493 0.668078 0)
(-0.0281049 0.636836 0)
(-0.0234036 0.605655 0)
(-0.0176262 0.564656 0)
(-0.0101635 0.522306 0)
(-0.00150737 0.473006 0)
(0.00944193 0.419671 0)
(0.0205578 0.363602 0)
(0.0361766 0.303445 0)
(0.0519681 0.24391 0)
(0.0748431 0.183251 0)
(0.0989794 0.123132 0)
(0.131137 0.0612027 0)
(0.167708 0.00762397 0)
(0.210736 -0.0509608 0)
(0.260532 -0.103602 0)
(-0.00589708 0.763692 0)
(-0.0153084 0.76014 0)
(-0.0264715 0.754478 0)
(-0.0344173 0.744889 0)
(-0.0436772 0.731434 0)
(-0.0494523 0.71497 0)
(-0.0557402 0.692183 0)
(-0.0591907 0.667285 0)
(-0.0616213 0.633115 0)
(-0.0624628 0.598524 0)
(-0.0604675 0.554065 0)
(-0.0587232 0.508858 0)
(-0.0531333 0.456251 0)
(-0.0475199 0.403241 0)
(-0.0384168 0.345312 0)
(-0.0254356 0.286053 0)
(-0.0104718 0.222236 0)
(0.0118024 0.15941 0)
(0.0370898 0.0928501 0)
(0.0698097 0.026173 0)
(0.108364 -0.0345014 0)
(0.154568 -0.0988952 0)
(0.210312 -0.157506 0)
(-0.00764879 0.776359 0)
(-0.0214827 0.772619 0)
(-0.0365228 0.766198 0)
(-0.0489186 0.755741 0)
(-0.062496 0.741208 0)
(-0.0730577 0.723403 0)
(-0.0838227 0.699863 0)
(-0.0922266 0.673982 0)
(-0.0993532 0.639918 0)
(-0.105893 0.604626 0)
(-0.108894 0.560763 0)
(-0.11282 0.515223 0)
(-0.111463 0.461707 0)
(-0.110607 0.405279 0)
(-0.104265 0.341389 0)
(-0.0966237 0.275787 0)
(-0.0846152 0.206593 0)
(-0.0665614 0.136037 0)
(-0.0445952 0.0652303 0)
(-0.0147043 -0.00955946 0)
(0.0203912 -0.0767893 0)
(0.0651313 -0.152263 0)
(0.120613 -0.218738 0)
(-0.00981124 0.793027 0)
(-0.0286461 0.789245 0)
(-0.0481774 0.782092 0)
(-0.0654675 0.771086 0)
(-0.0837376 0.75572 0)
(-0.099405 0.736505 0)
(-0.1153 0.711435 0)
(-0.129302 0.682944 0)
(-0.142031 0.646737 0)
(-0.154511 0.608056 0)
(-0.163463 0.560786 0)
(-0.173192 0.511254 0)
(-0.178245 0.453654 0)
(-0.18434 0.395745 0)
(-0.184199 0.330882 0)
(-0.183346 0.266085 0)
(-0.176029 0.191565 0)
(-0.165898 0.118861 0)
(-0.147484 0.040062 0)
(-0.12206 -0.0397708 0)
(-0.0886427 -0.115635 0)
(-0.0459344 -0.200672 0)
(0.00690149 -0.274227 0)
(-0.0123866 0.814873 0)
(-0.0367098 0.811072 0)
(-0.0615346 0.80306 0)
(-0.0845196 0.791376 0)
(-0.108303 0.775147 0)
(-0.129685 0.755046 0)
(-0.151326 0.729754 0)
(-0.171119 0.700865 0)
(-0.189983 0.665181 0)
(-0.208327 0.626337 0)
(-0.223941 0.579576 0)
(-0.2401 0.530402 0)
(-0.251855 0.473059 0)
(-0.264266 0.411658 0)
(-0.270798 0.340477 0)
(-0.278748 0.267873 0)
(-0.277417 0.189136 0)
(-0.276062 0.10771 0)
(-0.262046 0.0214012 0)
(-0.249699 -0.0681348 0)
(-0.226064 -0.152761 0)
(-0.196053 -0.247448 0)
(-0.157481 -0.32708 0)
(-0.0152578 0.842391 0)
(-0.0452169 0.838696 0)
(-0.0757373 0.830169 0)
(-0.104729 0.818154 0)
(-0.134567 0.801136 0)
(-0.162441 0.779807 0)
(-0.190942 0.753046 0)
(-0.217755 0.721776 0)
(-0.244281 0.683965 0)
(-0.269892 0.642024 0)
(-0.29396 0.592399 0)
(-0.317972 0.539023 0)
(-0.339398 0.477487 0)
(-0.36035 0.414484 0)
(-0.3761 0.345064 0)
(-0.390473 0.272636 0)
(-0.396322 0.188511 0)
(-0.40432 0.103347 0)
(-0.403076 0.0130512 0)
(-0.408728 -0.0761515 0)
(-0.389632 -0.170295 0)
(-0.368822 -0.27031 0)
(-0.329441 -0.361323 0)
(-0.0185231 0.875537 0)
(-0.0547096 0.871773 0)
(-0.0916482 0.862752 0)
(-0.127203 0.8504 0)
(-0.163474 0.833016 0)
(-0.197902 0.811637 0)
(-0.233007 0.785262 0)
(-0.266252 0.754526 0)
(-0.299853 0.717624 0)
(-0.332025 0.676494 0)
(-0.363607 0.62808 0)
(-0.394142 0.576435 0)
(-0.422413 0.515928 0)
(-0.450647 0.448892 0)
(-0.474793 0.37086 0)
(-0.499533 0.288314 0)
(-0.519221 0.203049 0)
(-0.54797 0.114541 0)
(-0.568196 0.0259909 0)
(-0.566632 -0.0815568 0)
(-0.547282 -0.192517 0)
(-0.515814 -0.307529 0)
(-0.465054 -0.419853 0)
(-0.0216867 0.916035 0)
(-0.0638871 0.912278 0)
(-0.107265 0.903093 0)
(-0.14959 0.890427 0)
(-0.192994 0.872246 0)
(-0.235149 0.84974 0)
(-0.27831 0.821705 0)
(-0.319866 0.788877 0)
(-0.362041 0.749873 0)
(-0.40281 0.705848 0)
(-0.443656 0.654478 0)
(-0.483597 0.597755 0)
(-0.522183 0.533843 0)
(-0.557802 0.466863 0)
(-0.591894 0.393977 0)
(-0.629647 0.317302 0)
(-0.671994 0.237065 0)
(-0.705347 0.152758 0)
(-0.698399 0.0314618 0)
(-0.68787 -0.0971431 0)
(-0.655425 -0.221773 0)
(-0.611053 -0.353324 0)
(-0.548662 -0.482217 0)
(-0.0250486 0.961362 0)
(-0.0736669 0.957643 0)
(-0.123497 0.94872 0)
(-0.172129 0.936408 0)
(-0.221672 0.918862 0)
(-0.269959 0.897305 0)
(-0.319224 0.870367 0)
(-0.3669 0.838769 0)
(-0.415511 0.801107 0)
(-0.462102 0.758798 0)
(-0.50932 0.709523 0)
(-0.554444 0.655748 0)
(-0.601067 0.59079 0)
(-0.650641 0.51917 0)
(-0.706495 0.443065 0)
(-0.767773 0.368759 0)
(-0.810418 0.279015 0)
(-0.803953 0.1408 0)
(-0.79217 0.00842581 0)
(-0.768377 -0.124887 0)
(-0.726524 -0.269577 0)
(-0.667339 -0.41469 0)
(-0.595786 -0.562834 0)
(-0.0283915 1.01544 0)
(-0.0836698 1.01146 0)
(-0.140527 1.00225 0)
(-0.196519 0.98928 0)
(-0.253837 0.970694 0)
(-0.310228 0.947858 0)
(-0.367733 0.919111 0)
(-0.423971 0.885541 0)
(-0.481353 0.845356 0)
(-0.537538 0.799836 0)
(-0.594699 0.746975 0)
(-0.65105 0.689564 0)
(-0.707301 0.630232 0)
(-0.766426 0.572671 0)
(-0.834088 0.511712 0)
(-0.883767 0.421798 0)
(-0.875868 0.273468 0)
(-0.867633 0.134686 0)
(-0.85203 -0.00424822 0)
(-0.808378 -0.162979 0)
(-0.755968 -0.323408 0)
(-0.689066 -0.484833 0)
(-0.617174 -0.639664 0)
(-0.0309422 1.07359 0)
(-0.0914786 1.07002 0)
(-0.153473 1.06182 0)
(-0.214463 1.05002 0)
(-0.276582 1.03295 0)
(-0.337801 1.01167 0)
(-0.399992 0.984667 0)
(-0.460916 0.953073 0)
(-0.523041 0.915406 0)
(-0.584123 0.873011 0)
(-0.648825 0.823865 0)
(-0.71595 0.76934 0)
(-0.793724 0.706959 0)
(-0.872276 0.646656 0)
(-0.930393 0.560916 0)
(-0.926408 0.410532 0)
(-0.918031 0.262763 0)
(-0.910721 0.116414 0)
(-0.867937 -0.0513834 0)
(-0.819346 -0.22176 0)
(-0.759203 -0.389736 0)
(-0.697889 -0.554346 0)
(-0.629686 -0.713767 0)
(-0.0352184 1.13894 0)
(-0.103805 1.13511 0)
(-0.173887 1.12624 0)
(-0.242991 1.11333 0)
(-0.313256 1.09484 0)
(-0.382488 1.07199 0)
(-0.452897 1.04281 0)
(-0.52181 1.00907 0)
(-0.591934 0.968959 0)
(-0.660751 0.925924 0)
(-0.733873 0.879157 0)
(-0.810983 0.834696 0)
(-0.894854 0.787108 0)
(-0.968988 0.70996 0)
(-0.97556 0.566024 0)
(-0.958226 0.409706 0)
(-0.950453 0.257705 0)
(-0.910214 0.0847783 0)
(-0.862668 -0.0957316 0)
(-0.810165 -0.271903 0)
(-0.753666 -0.445077 0)
(-0.693476 -0.614736 0)
(-0.630113 -0.779385 0)
(-0.0363188 1.21268 0)
(-0.107592 1.20889 0)
(-0.180504 1.20129 0)
(-0.253042 1.18978 0)
(-0.326943 1.17299 0)
(-0.400031 1.152 0)
(-0.474433 1.1248 0)
(-0.548584 1.09305 0)
(-0.625215 1.05535 0)
(-0.703492 1.0161 0)
(-0.787195 0.975277 0)
(-0.874244 0.931774 0)
(-0.958901 0.865883 0)
(-0.986859 0.727947 0)
(-0.968069 0.550008 0)
(-0.964628 0.384953 0)
(-0.934967 0.21407 0)
(-0.889799 0.0275945 0)
(-0.843651 -0.152609 0)
(-0.790815 -0.331933 0)
(-0.736735 -0.507728 0)
(-0.677639 -0.679183 0)
(-0.618849 -0.845032 0)
(-0.0412987 1.284 0)
(-0.123063 1.28051 0)
(-0.205418 1.27271 0)
(-0.285869 1.26068 0)
(-0.367067 1.24253 0)
(-0.447459 1.22007 0)
(-0.528935 1.19177 0)
(-0.610441 1.16021 0)
(-0.695803 1.12413 0)
(-0.784884 1.08814 0)
(-0.878467 1.05009 0)
(-0.964062 1.00639 0)
(-1.01124 0.900134 0)
(-0.992905 0.718582 0)
(-0.979371 0.544318 0)
(-0.954356 0.376674 0)
(-0.909936 0.183361 0)
(-0.861364 -0.00627684 0)
(-0.812074 -0.194349 0)
(-0.758497 -0.378616 0)
(-0.705101 -0.557886 0)
(-0.649331 -0.732453 0)
(-0.593603 -0.899889 0)
(-0.0412353 1.37774 0)
(-0.122708 1.37387 0)
(-0.205423 1.365 0)
(-0.287315 1.35245 0)
(-0.371064 1.33582 0)
(-0.454666 1.31526 0)
(-0.539628 1.28929 0)
(-0.625199 1.26159 0)
(-0.715137 1.23146 0)
(-0.809992 1.20062 0)
(-0.907217 1.15625 0)
(-0.986972 1.06644 0)
(-0.996303 0.894924 0)
(-0.968495 0.696726 0)
(-0.960529 0.510193 0)
(-0.917491 0.314594 0)
(-0.872225 0.119295 0)
(-0.825252 -0.0718296 0)
(-0.773859 -0.257181 0)
(-0.724005 -0.440622 0)
(-0.672011 -0.618625 0)
(-0.620074 -0.792576 0)
(-0.568438 -0.960236 0)
(-0.0462324 1.44803 0)
(-0.137995 1.44488 0)
(-0.231074 1.43738 0)
(-0.32434 1.42632 0)
(-0.417514 1.40964 0)
(-0.509343 1.38836 0)
(-0.601995 1.36185 0)
(-0.696079 1.33535 0)
(-0.793257 1.30853 0)
(-0.889356 1.27987 0)
(-0.976604 1.22657 0)
(-1.01284 1.09455 0)
(-0.992987 0.881262 0)
(-0.967914 0.682491 0)
(-0.929797 0.494009 0)
(-0.880385 0.289099 0)
(-0.829402 0.0921811 0)
(-0.778024 -0.103859 0)
(-0.729836 -0.29454 0)
(-0.678175 -0.479724 0)
(-0.631072 -0.660621 0)
(-0.578471 -0.835236 0)
(-0.531919 -1.00514 0)
(-0.0455606 1.5648 0)
(-0.135547 1.56172 0)
(-0.227379 1.55423 0)
(-0.318735 1.54189 0)
(-0.411613 1.52382 0)
(-0.504432 1.50287 0)
(-0.600421 1.47916 0)
(-0.697769 1.45599 0)
(-0.79924 1.42774 0)
(-0.89654 1.3867 0)
(-0.973724 1.28239 0)
(-0.982727 1.08407 0)
(-0.947728 0.85017 0)
(-0.932231 0.632682 0)
(-0.881712 0.420827 0)
(-0.838019 0.21208 0)
(-0.789572 0.0145254 0)
(-0.739819 -0.17369 0)
(-0.693342 -0.359343 0)
(-0.645123 -0.541846 0)
(-0.59991 -0.720749 0)
(-0.551153 -0.894425 0)
(-0.505981 -1.06329 0)
(-0.0500158 1.62607 0)
(-0.149471 1.62382 0)
(-0.250893 1.61768 0)
(-0.353061 1.60774 0)
(-0.457704 1.59257 0)
(-0.562963 1.57447 0)
(-0.668227 1.5525 0)
(-0.774521 1.53188 0)
(-0.876918 1.50518 0)
(-0.966774 1.45269 0)
(-1.00476 1.31102 0)
(-0.9809 1.06732 0)
(-0.944666 0.830888 0)
(-0.902223 0.616909 0)
(-0.848194 0.401392 0)
(-0.793589 0.198299 0)
(-0.74371 -0.00405698 0)
(-0.695173 -0.198654 0)
(-0.648291 -0.387278 0)
(-0.602378 -0.571476 0)
(-0.55791 -0.75234 0)
(-0.511809 -0.927184 0)
(-0.468128 -1.09769 0)
(-0.0492489 1.77206 0)
(-0.147001 1.77044 0)
(-0.246119 1.76548 0)
(-0.345575 1.7562 0)
(-0.446265 1.74107 0)
(-0.548292 1.72055 0)
(-0.65091 1.69756 0)
(-0.757858 1.67111 0)
(-0.859308 1.62524 0)
(-0.945337 1.51904 0)
(-0.964864 1.29844 0)
(-0.926772 1.0243 0)
(-0.903099 0.770135 0)
(-0.852666 0.534082 0)
(-0.807716 0.309209 0)
(-0.757705 0.104481 0)
(-0.708757 -0.0871619 0)
(-0.662358 -0.27227 0)
(-0.6182 -0.455439 0)
(-0.57456 -0.635872 0)
(-0.533143 -0.815022 0)
(-0.489354 -0.988461 0)
(-0.448601 -1.15883 0)