/*--------------------------------*- C++ -*----------------------------------*\
| =========                 |                                                 |
| \\      /  F ield         | OpenFOAM: The Open Source CFD Toolbox           |
|  \\    /   O peration     | Version:  2012                                  |
|   \\  /    A nd           | Website:  www.openfoam.com                      |
|    \\/     M anipulation  |                                                 |
\*---------------------------------------------------------------------------*/
FoamFile
{
    version     2.0;
    format      ascii;
    class       volVectorField;
    location    "0.76";
    object      Uc;
}
// * * * * * * * * * * * * * * * * * * * * * * * * * * * * * * * * * * * * * //

dimensions      [0 1 -1 0 0 0 0];


internalField   nonuniform List<vector> 
2268
(
(-0.0128761 0.00608515 0)
(-0.0377905 0.00568921 0)
(-0.0622836 0.00588601 0)
(-0.0876704 0.00611162 0)
(-0.112649 0.00569289 0)
(-0.134991 0.00486584 0)
(-0.154857 0.00452278 0)
(-0.173451 0.00426481 0)
(-0.189574 0.00335458 0)
(-0.202485 0.00274687 0)
(-0.21256 0.00201485 0)
(-0.218918 0.000989899 0)
(-0.221049 1.67867e-05 0)
(-0.219113 -0.000931454 0)
(-0.213145 -0.00188907 0)
(-0.202985 -0.00291247 0)
(-0.187152 -0.00457022 0)
(-0.164544 -0.00611418 0)
(-0.13494 -0.00787636 0)
(-0.0981223 -0.00952347 0)
(-0.060748 -0.00813934 0)
(-0.0188638 -0.0116548 0)
(0.00289886 0.00136996 0)
(-0.0130229 0.0183248 0)
(-0.0381447 0.0170963 0)
(-0.0626426 0.0176316 0)
(-0.0878282 0.0182661 0)
(-0.112608 0.0170536 0)
(-0.135015 0.0146535 0)
(-0.155153 0.0136407 0)
(-0.173909 0.0127983 0)
(-0.18999 0.0100404 0)
(-0.202919 0.00827242 0)
(-0.21314 0.00608141 0)
(-0.219688 0.00302251 0)
(-0.222112 0.000136543 0)
(-0.220504 -0.00272566 0)
(-0.214727 -0.0056457 0)
(-0.204538 -0.00877258 0)
(-0.1887 -0.0136778 0)
(-0.166271 -0.0182909 0)
(-0.137275 -0.0233934 0)
(-0.102006 -0.0280745 0)
(-0.0661431 -0.0241994 0)
(-0.0271346 -0.0338241 0)
(-0.00244311 0.00158529 0)
(-0.0131552 0.0306964 0)
(-0.0383709 0.0285138 0)
(-0.0627633 0.0293193 0)
(-0.0878345 0.0303295 0)
(-0.112847 0.0285217 0)
(-0.13605 0.0247407 0)
(-0.157034 0.022987 0)
(-0.176119 0.0213351 0)
(-0.192196 0.0167015 0)
(-0.205 0.0137722 0)
(-0.214742 0.010016 0)
(-0.22078 0.00503605 0)
(-0.223041 0.000337064 0)
(-0.221575 -0.00437894 0)
(-0.215982 -0.00936562 0)
(-0.205759 -0.0146994 0)
(-0.189547 -0.0228977 0)
(-0.16619 -0.030709 0)
(-0.135792 -0.0390441 0)
(-0.0978619 -0.0470178 0)
(-0.0562841 -0.0418539 0)
(-0.0104884 -0.0562475 0)
(0.00735544 0.00390676 0)
(-0.0133451 0.0432202 0)
(-0.0388819 0.0399752 0)
(-0.063519 0.0410289 0)
(-0.0884519 0.0422514 0)
(-0.113022 0.0400321 0)
(-0.136212 0.0351553 0)
(-0.157588 0.0325911 0)
(-0.176966 0.0299085 0)
(-0.193274 0.0234334 0)
(-0.206455 0.0193205 0)
(-0.216873 0.013995 0)
(-0.224006 0.00728173 0)
(-0.227271 0.000702666 0)
(-0.226345 -0.00587489 0)
(-0.221064 -0.0130084 0)
(-0.211192 -0.0205537 0)
(-0.195739 -0.0320085 0)
(-0.173193 -0.0432915 0)
(-0.143292 -0.0549585 0)
(-0.105169 -0.0670453 0)
(-0.0612368 -0.062238 0)
(-0.0124772 -0.0805496 0)
(0.00687321 0.0106311 0)
(-0.0131999 0.0557652 0)
(-0.0388003 0.0515972 0)
(-0.0637982 0.052864 0)
(-0.0889802 0.0541001 0)
(-0.114028 0.0516323 0)
(-0.138454 0.0460577 0)
(-0.161296 0.0425861 0)
(-0.181299 0.0385246 0)
(-0.197528 0.030194 0)
(-0.210298 0.0248241 0)
(-0.219758 0.0178857 0)
(-0.226013 0.00971815 0)
(-0.22902 0.00123027 0)
(-0.228271 -0.00719369 0)
(-0.223381 -0.0164967 0)
(-0.213948 -0.0261887 0)
(-0.198546 -0.0409554 0)
(-0.175117 -0.0560718 0)
(-0.143049 -0.0714647 0)
(-0.100489 -0.088669 0)
(-0.0458193 -0.0872131 0)
(0.0179633 -0.108761 0)
(0.0257175 0.0260332 0)
(-0.0131852 0.0682346 0)
(-0.0395489 0.0636856 0)
(-0.0655402 0.0648727 0)
(-0.0905998 0.0658352 0)
(-0.114807 0.0631749 0)
(-0.138723 0.0573611 0)
(-0.161765 0.0529676 0)
(-0.182176 0.0472422 0)
(-0.199139 0.0371625 0)
(-0.213093 0.0304849 0)
(-0.224047 0.0218726 0)
(-0.231984 0.0124383 0)
(-0.236156 0.00190286 0)
(-0.235981 -0.00830287 0)
(-0.231653 -0.0197446 0)
(-0.223048 -0.0314653 0)
(-0.209058 -0.0495692 0)
(-0.187319 -0.0688038 0)
(-0.156166 -0.0886106 0)
(-0.112652 -0.112201 0)
(-0.0531343 -0.117645 0)
(0.0161076 -0.141196 0)
(0.0256337 0.0503014 0)
(-0.0125487 0.0803963 0)
(-0.0388276 0.0764025 0)
(-0.0658084 0.07719 0)
(-0.0915109 0.0775077 0)
(-0.116422 0.0747154 0)
(-0.1421 0.0692587 0)
(-0.167285 0.0638616 0)
(-0.188516 0.0560275 0)
(-0.205053 0.044209 0)
(-0.218031 0.036166 0)
(-0.227534 0.0258593 0)
(-0.234267 0.0153849 0)
(-0.23818 0.00277698 0)
(-0.2386 -0.00906134 0)
(-0.235435 -0.0225274 0)
(-0.228333 -0.0361057 0)
(-0.215001 -0.057841 0)
(-0.192393 -0.08149 0)
(-0.158689 -0.106575 0)
(-0.109275 -0.138154 0)
(-0.0395346 -0.152778 0)
(0.0439659 -0.178247 0)
(0.0436032 0.0830222 0)
(-0.0124052 0.0921893 0)
(-0.0390287 0.0896107 0)
(-0.0668182 0.0898658 0)
(-0.0925588 0.0891436 0)
(-0.116931 0.0863703 0)
(-0.142984 0.0820515 0)
(-0.169687 0.0755904 0)
(-0.192453 0.0650911 0)
(-0.210052 0.0512782 0)
(-0.223703 0.0416815 0)
(-0.234427 0.0299026 0)
(-0.243048 0.0185982 0)
(-0.247835 0.00367509 0)
(-0.24836 -0.00951296 0)
(-0.245843 -0.024761 0)
(-0.239858 -0.0400572 0)
(-0.228135 -0.0657301 0)
(-0.208591 -0.0935215 0)
(-0.180471 -0.123761 0)
(-0.14073 -0.163102 0)
(-0.0799324 -0.189522 0)
(-0.0137857 -0.212226 0)
(0.0074359 0.107143 0)
(-0.422941 0.179811 0)
(-1.0565 0.0894944 0)
(-1.3736 0.0452304 0)
(-1.49197 0.00506744 0)
(-1.42942 -0.0315984 0)
(-1.26589 -0.0378903 0)
(-1.1753 -0.000685843 0)
(-1.25475 0.0342607 0)
(-1.41565 0.0338463 0)
(-1.53815 0.0178739 0)
(-1.61237 0.0133312 0)
(-1.68003 0.0151364 0)
(-1.75669 0.0171586 0)
(-1.83048 0.0139214 0)
(-1.88291 0.00809188 0)
(-1.88582 -0.00709825 0)
(-1.68478 -0.0783695 0)
(-1.16684 -0.141851 0)
(-0.416766 -0.17746 0)
(-0.35463 0.510395 0)
(-0.89393 0.257471 0)
(-1.16449 0.126952 0)
(-1.23946 0.00549504 0)
(-1.13512 -0.102864 0)
(-0.956592 -0.112022 0)
(-0.913439 0.0163991 0)
(-1.0554 0.11095 0)
(-1.21792 0.0940947 0)
(-1.3168 0.0510335 0)
(-1.38818 0.0413955 0)
(-1.46047 0.0459083 0)
(-1.5284 0.0469995 0)
(-1.58116 0.0367313 0)
(-1.61391 0.0201918 0)
(-1.58433 -0.0317983 0)
(-1.35482 -0.236952 0)
(-0.935076 -0.382029 0)
(-0.352312 -0.50526 0)
(-0.310116 0.793117 0)
(-0.752088 0.392002 0)
(-0.96903 0.199588 0)
(-1.02247 -0.0126008 0)
(-0.827015 -0.21207 0)
(-0.50131 -0.217149 0)
(-0.358032 0.0419131 0)
(-0.525124 0.216048 0)
(-0.830067 0.186728 0)
(-1.11291 0.119255 0)
(-1.31642 0.0883858 0)
(-1.43706 0.0793141 0)
(-1.51429 0.0732084 0)
(-1.57969 0.058225 0)
(-1.59644 0.0169941 0)
(-1.43929 -0.110727 0)
(-1.01211 -0.438668 0)
(-0.550637 -0.555871 0)
(-0.187067 -0.735475 0)
(-0.231989 1.02377 0)
(-0.602569 0.506934 0)
(-0.888238 0.298279 0)
(-0.937914 -0.0674761 0)
(-0.603235 -0.382391 0)
(-0.214001 -0.350695 0)
(0.0748956 -0.0085952 0)
(0.268241 0.254623 0)
(0.203209 0.303956 0)
(-0.165622 0.276712 0)
(-0.722894 0.251788 0)
(-1.20832 0.17101 0)
(-1.44798 0.11323 0)
(-1.54967 0.0860482 0)
(-1.47025 -0.0406918 0)
(-1.04156 -0.305359 0)
(-0.563287 -0.631361 0)
(-0.267918 -0.686304 0)
(-0.0695704 -0.844952 0)
(-0.160874 1.19122 0)
(-0.41367 0.604883 0)
(-0.619618 0.437976 0)
(-0.568973 -0.178968 0)
(-0.198653 -0.570819 0)
(0.0739399 -0.443864 0)
(0.233549 -0.106263 0)
(0.431336 0.185811 0)
(0.607619 0.324658 0)
(0.714 0.365516 0)
(0.774233 0.371664 0)
(0.701602 0.285597 0)
(0.511485 0.178285 0)
(0.476485 0.0760898 0)
(0.531911 -0.0910622 0)
(0.357226 -0.366068 0)
(0.0689646 -0.654207 0)
(-0.0252279 -0.750652 0)
(-0.00189828 -0.875371 0)
(-0.0793736 1.29389 0)
(-0.12022 0.62749 0)
(-0.120847 0.531689 0)
(-0.0783538 -0.283859 0)
(0.106528 -0.702386 0)
(0.256812 -0.492399 0)
(0.385488 -0.180403 0)
(0.533275 0.112951 0)
(0.638185 0.277878 0)
(0.711005 0.335287 0)
(0.784052 0.343598 0)
(0.856989 0.311303 0)
(0.920996 0.20347 0)
(0.971048 0.0417782 0)
(1.00055 -0.0955294 0)
(0.92568 -0.258134 0)
(0.685428 -0.539778 0)
(0.334902 -0.677555 0)
(0.0701308 -0.846362 0)
(-0.0303274 1.34071 0)
(-0.0478365 0.605501 0)
(0.0692191 0.503818 0)
(0.297926 -0.353542 0)
(0.385757 -0.730845 0)
(0.379306 -0.525287 0)
(0.475222 -0.243099 0)
(0.583807 0.0665753 0)
(0.643017 0.254437 0)
(0.68826 0.308486 0)
(0.753357 0.311398 0)
(0.818413 0.284064 0)
(0.87083 0.180025 0)
(0.927175 0.018651 0)
(0.981549 -0.109337 0)
(0.964657 -0.206576 0)
(0.79926 -0.419804 0)
(0.433736 -0.493542 0)
(0.0975597 -0.775044 0)
(0.00116313 1.35301 0)
(-0.101019 0.644182 0)
(-0.0439842 0.39109 0)
(0.297795 -0.465404 0)
(0.447384 -0.701923 0)
(0.444785 -0.550718 0)
(0.535418 -0.297305 0)
(0.622696 0.0373953 0)
(0.644843 0.249012 0)
(0.660901 0.287749 0)
(0.708605 0.284108 0)
(0.759521 0.262002 0)
(0.802346 0.161507 0)
(0.856476 -0.0099281 0)
(0.913799 -0.128384 0)
(0.898774 -0.174184 0)
(0.718726 -0.305544 0)
(0.352381 -0.296631 0)
(0.0640105 -0.706329 0)
(-0.0119064 0.110039 0)
(-0.0378408 0.110443 0)
(-0.0654699 0.109954 0)
(-0.0912687 0.107151 0)
(-0.114912 0.103637 0)
(-0.138829 0.101128 0)
(-0.163426 0.0938541 0)
(-0.186431 0.0807103 0)
(-0.206701 0.0643529 0)
(-0.223651 0.0520963 0)
(-0.236885 0.037859 0)
(-0.245985 0.0238632 0)
(-0.249912 0.00462053 0)
(-0.250923 -0.00919432 0)
(-0.251765 -0.0254226 0)
(-0.25149 -0.0425007 0)
(-0.243456 -0.0769029 0)
(-0.225784 -0.109349 0)
(-0.203956 -0.143165 0)
(-0.176616 -0.189963 0)
(-0.122241 -0.246053 0)
(-0.0331814 -0.276524 0)
(0.15574 -0.0286414 0)
(-0.0184733 0.140738 0)
(-0.0566907 0.144567 0)
(-0.0954908 0.142977 0)
(-0.131088 0.136248 0)
(-0.160577 0.128368 0)
(-0.185419 0.125817 0)
(-0.207895 0.116847 0)
(-0.225787 0.0990386 0)
(-0.236478 0.0771976 0)
(-0.240525 0.0603501 0)
(-0.240624 0.042989 0)
(-0.240831 0.028071 0)
(-0.245889 0.00943553 0)
(-0.258461 -0.000358021 0)
(-0.272393 -0.0194076 0)
(-0.278187 -0.0429684 0)
(-0.273081 -0.0896442 0)
(-0.262082 -0.125429 0)
(-0.254677 -0.156471 0)
(-0.253882 -0.20494 0)
(-0.249428 -0.29021 0)
(-0.219781 -0.351805 0)
(-0.169289 -0.193837 0)
(-0.0221531 0.18171 0)
(-0.0671938 0.18758 0)
(-0.114359 0.186734 0)
(-0.161387 0.17598 0)
(-0.204166 0.161778 0)
(-0.245061 0.159038 0)
(-0.285153 0.147116 0)
(-0.315661 0.118036 0)
(-0.329128 0.0830579 0)
(-0.32768 0.0575342 0)
(-0.31811 0.0365031 0)
(-0.308904 0.0255437 0)
(-0.300777 0.00866893 0)
(-0.288641 0.000348244 0)
(-0.279083 -0.0162156 0)
(-0.275983 -0.043985 0)
(-0.269709 -0.100513 0)
(-0.26133 -0.134239 0)
(-0.263535 -0.153001 0)
(-0.2942 -0.178407 0)
(-0.359318 -0.255774 0)
(-0.45867 -0.316416 0)
(-0.576296 -0.160896 0)
(-0.0287109 0.232811 0)
(-0.0844736 0.237757 0)
(-0.138203 0.237942 0)
(-0.191133 0.225242 0)
(-0.246382 0.211084 0)
(-0.304938 0.209803 0)
(-0.36128 0.193496 0)
(-0.409563 0.151268 0)
(-0.440707 0.0952502 0)
(-0.46612 0.0699726 0)
(-0.539546 0.0885862 0)
(-0.715449 0.1409 0)
(-0.981451 0.152162 0)
(-1.20077 0.064601 0)
(-1.20407 -0.0883755 0)
(-1.0145 -0.166758 0)
(-0.784801 -0.215028 0)
(-0.596993 -0.215993 0)
(-0.47286 -0.192552 0)
(-0.421149 -0.159712 0)
(-0.443578 -0.186428 0)
(-0.535688 -0.19355 0)
(-0.627026 -0.0734915 0)
(-0.0399161 0.301759 0)
(-0.118396 0.303677 0)
(-0.193891 0.301845 0)
(-0.271224 0.292207 0)
(-0.361261 0.290088 0)
(-0.46522 0.294093 0)
(-0.580291 0.281457 0)
(-0.725576 0.257858 0)
(-0.952534 0.248132 0)
(-1.33567 0.327869 0)
(-1.84022 0.411858 0)
(-2.29433 0.450945 0)
(-2.53931 0.355633 0)
(-2.46426 0.00613153 0)
(-2.16541 -0.326918 0)
(-1.8416 -0.442913 0)
(-1.54565 -0.463763 0)
(-1.27302 -0.426661 0)
(-1.02726 -0.352374 0)
(-0.829267 -0.250862 0)
(-0.690717 -0.212145 0)
(-0.601293 -0.165303 0)
(-0.530401 -0.0817255 0)
(-0.0348978 0.376926 0)
(-0.105733 0.37853 0)
(-0.180254 0.377717 0)
(-0.264123 0.378304 0)
(-0.364052 0.394874 0)
(-0.482248 0.412547 0)
(-0.625816 0.422919 0)
(-0.827992 0.465602 0)
(-1.16632 0.608567 0)
(-1.66836 0.857217 0)
(-2.2145 0.938725 0)
(-2.6095 0.777879 0)
(-2.5775 0.243 0)
(-2.18804 -0.345722 0)
(-1.89379 -0.566454 0)
(-1.78789 -0.631774 0)
(-1.71959 -0.638114 0)
(-1.63262 -0.614032 0)
(-1.47528 -0.572737 0)
(-1.23965 -0.467211 0)
(-0.990683 -0.385829 0)
(-0.769867 -0.304164 0)
(-0.580188 -0.205574 0)
(-0.0372091 0.449373 0)
(-0.113084 0.453486 0)
(-0.19451 0.45945 0)
(-0.286796 0.473573 0)
(-0.39308 0.506822 0)
(-0.519464 0.546386 0)
(-0.676707 0.591394 0)
(-0.882932 0.707599 0)
(-1.14591 0.970965 0)
(-1.42297 1.27795 0)
(-1.69536 1.34072 0)
(-1.90331 0.982033 0)
(-1.93542 0.0391599 0)
(-1.88401 -0.581037 0)
(-1.85276 -0.650202 0)
(-1.83238 -0.671471 0)
(-1.83945 -0.6639 0)
(-1.90882 -0.612532 0)
(-2.20985 -0.433447 0)
(-2.61173 -0.439605 0)
(-2.84282 -0.431439 0)
(-2.87463 -0.44891 0)
(-2.60252 -0.525284 0)
(-0.0319894 0.518897 0)
(-0.0975711 0.526085 0)
(-0.168523 0.539953 0)
(-0.248348 0.566009 0)
(-0.339195 0.612476 0)
(-0.446246 0.675319 0)
(-0.578522 0.753426 0)
(-0.735723 0.910832 0)
(-0.892732 1.18987 0)
(-1.01896 1.46439 0)
(-1.12435 1.53396 0)
(-1.25213 1.12623 0)
(-1.45239 0.128571 0)
(-1.64426 -0.527649 0)
(-1.70126 -0.672659 0)
(-1.68413 -0.68327 0)
(-1.71698 -0.616022 0)
(-1.82995 -0.48368 0)
(-1.87074 -0.219355 0)
(-1.86922 -0.248256 0)
(-1.96445 -0.293058 0)
(-2.09678 -0.421304 0)
(-2.19703 -0.724907 0)
(-0.0286628 0.579831 0)
(-0.086779 0.589425 0)
(-0.147351 0.608755 0)
(-0.211662 0.642027 0)
(-0.279723 0.696128 0)
(-0.352717 0.772587 0)
(-0.434128 0.870898 0)
(-0.516473 1.0341 0)
(-0.573766 1.28197 0)
(-0.579442 1.50483 0)
(-0.540358 1.56013 0)
(-0.564349 1.2526 0)
(-0.79182 0.432149 0)
(-1.16604 -0.262181 0)
(-1.45171 -0.593165 0)
(-1.54853 -0.681257 0)
(-1.58181 -0.551294 0)
(-1.62243 -0.39154 0)
(-1.60811 -0.279727 0)
(-1.54329 -0.252504 0)
(-1.48922 -0.247846 0)
(-1.51755 -0.305333 0)
(-1.78959 -0.466124 0)
(-0.0224989 0.631226 0)
(-0.0674585 0.641577 0)
(-0.112347 0.662548 0)
(-0.156928 0.697628 0)
(-0.199485 0.751657 0)
(-0.236837 0.827917 0)
(-0.265474 0.926129 0)
(-0.274304 1.07046 0)
(-0.237524 1.26618 0)
(-0.147673 1.43596 0)
(-0.0277443 1.46911 0)
(0.0638932 1.27558 0)
(-0.00373637 0.705764 0)
(-0.282364 0.120395 0)
(-0.657618 -0.311407 0)
(-1.01986 -0.50161 0)
(-1.29783 -0.417451 0)
(-1.41731 -0.357982 0)
(-1.40514 -0.330497 0)
(-1.36533 -0.304825 0)
(-1.34311 -0.275052 0)
(-1.35059 -0.245934 0)
(-1.42107 -0.183715 0)
(-0.0174536 0.671354 0)
(-0.0519146 0.681218 0)
(-0.0851057 0.701328 0)
(-0.115576 0.734226 0)
(-0.14027 0.782597 0)
(-0.154483 0.848748 0)
(-0.152143 0.931672 0)
(-0.121795 1.04323 0)
(-0.0440487 1.17824 0)
(0.0903301 1.29847 0)
(0.264887 1.31054 0)
(0.433183 1.17281 0)
(0.510393 0.798849 0)
(0.438382 0.379714 0)
(0.220934 0.025006 0)
(-0.115076 -0.136194 0)
(-0.496675 -0.119864 0)
(-0.851435 -0.177414 0)
(-1.14941 -0.219095 0)
(-1.32085 -0.280409 0)
(-1.3141 -0.325875 0)
(-1.23995 -0.261331 0)
(-1.19669 -0.1432 0)
(-0.0120447 0.700974 0)
(-0.0353663 0.709617 0)
(-0.056372 0.727343 0)
(-0.0729881 0.755479 0)
(-0.0819882 0.795151 0)
(-0.0790539 0.847469 0)
(-0.0586302 0.910009 0)
(-0.0122175 0.987679 0)
(0.0724639 1.07046 0)
(0.201635 1.14127 0)
(0.360586 1.13245 0)
(0.512023 1.02946 0)
(0.597433 0.778681 0)
(0.579485 0.490249 0)
(0.469079 0.24397 0)
(0.318701 0.133696 0)
(0.174986 0.138223 0)
(-0.0271844 0.124254 0)
(-0.344388 0.0974951 0)
(-0.7125 -0.0538669 0)
(-1.04354 -0.222789 0)
(-1.22856 -0.249524 0)
(-1.22027 -0.206286 0)
(-0.0082283 0.721321 0)
(-0.0239017 0.728405 0)
(-0.0371137 0.742889 0)
(-0.0455528 0.765058 0)
(-0.0461595 0.795168 0)
(-0.0351962 0.833422 0)
(-0.00822135 0.876351 0)
(0.0402871 0.925862 0)
(0.117052 0.969937 0)
(0.225504 1.00288 0)
(0.35622 0.979616 0)
(0.483925 0.901649 0)
(0.567988 0.736081 0)
(0.578799 0.539967 0)
(0.518688 0.365596 0)
(0.416567 0.265818 0)
(0.317331 0.250247 0)
(0.261565 0.271438 0)
(0.23123 0.29958 0)
(0.10685 0.239028 0)
(-0.182842 0.108187 0)
(-0.512037 -0.0637202 0)
(-0.746912 -0.164136 0)
(-0.0047889 0.734375 0)
(-0.0134673 0.739768 0)
(-0.0194346 0.750743 0)
(-0.0206389 0.766835 0)
(-0.0145916 0.787861 0)
(0.00134938 0.813624 0)
(0.030117 0.840056 0)
(0.0747973 0.868424 0)
(0.138053 0.886567 0)
(0.22012 0.894678 0)
(0.313773 0.862222 0)
(0.406212 0.797696 0)
(0.477449 0.683868 0)
(0.507046 0.551503 0)
(0.492219 0.429327 0)
(0.449865 0.347251 0)
(0.404618 0.313981 0)
(0.367764 0.300737 0)
(0.353702 0.314837 0)
(0.381618 0.320665 0)
(0.416062 0.283055 0)
(0.37398 0.134551 0)
(0.242964 0.00532574 0)
(-0.00264337 0.741815 0)
(-0.00709692 0.745466 0)
(-0.00909013 0.752985 0)
(-0.00690764 0.763548 0)
(0.0014366 0.77662 0)
(0.017996 0.792135 0)
(0.0448352 0.805589 0)
(0.0838404 0.81871 0)
(0.135752 0.820455 0)
(0.199802 0.813853 0)
(0.270161 0.778122 0)
(0.337164 0.721463 0)
(0.389839 0.635483 0)
(0.419396 0.540365 0)
(0.424079 0.450599 0)
(0.411659 0.380975 0)
(0.396817 0.340595 0)
(0.393898 0.314038 0)
(0.407826 0.301604 0)
(0.430416 0.283063 0)
(0.458709 0.257527 0)
(0.484977 0.17591 0)
(0.499145 0.0813597 0)
(-0.000921309 0.745368 0)
(-0.00204739 0.747462 0)
(-0.00104852 0.751929 0)
(0.00344832 0.75783 0)
(0.0128672 0.764423 0)
(0.0285919 0.77182 0)
(0.0519598 0.775376 0)
(0.0840439 0.777405 0)
(0.124901 0.76845 0)
(0.173401 0.752663 0)
(0.225584 0.716074 0)
(0.27528 0.666145 0)
(0.315904 0.596957 0)
(0.342608 0.522279 0)
(0.356108 0.450347 0)
(0.361014 0.388718 0)
(0.363709 0.345 0)
(0.369452 0.306731 0)
(0.383608 0.280617 0)
(0.411619 0.253122 0)
(0.449814 0.220571 0)
(0.476087 0.159989 0)
(0.472496 0.086587 0)
(-0.000208196 0.746474 0)
(1.9085e-05 0.7472 0)
(0.00208375 0.749052 0)
(0.00716092 0.751025 0)
(0.0164734 0.752341 0)
(0.0309967 0.753438 0)
(0.0514164 0.749684 0)
(0.0780536 0.744011 0)
(0.110415 0.728185 0)
(0.147542 0.706796 0)
(0.186781 0.669983 0)
(0.224291 0.624517 0)
(0.256342 0.565471 0)
(0.280337 0.502743 0)
(0.296546 0.439961 0)
(0.308263 0.382334 0)
(0.320634 0.336179 0)
(0.337045 0.293221 0)
(0.35889 0.257875 0)
(0.385964 0.22043 0)
(0.418978 0.181622 0)
(0.455507 0.135748 0)
(0.485359 0.0843711 0)
(-8.24318e-05 0.746737 0)
(0.000230491 0.746336 0)
(0.00187422 0.746131 0)
(0.00574269 0.744896 0)
(0.0128381 0.741919 0)
(0.023958 0.738026 0)
(0.0397284 0.72866 0)
(0.0602014 0.717622 0)
(0.0849914 0.697067 0)
(0.113299 0.672082 0)
(0.143278 0.635061 0)
(0.172632 0.592169 0)
(0.199077 0.538959 0)
(0.22101 0.483029 0)
(0.238424 0.425819 0)
(0.252894 0.370093 0)
(0.267316 0.321428 0)
(0.284349 0.274295 0)
(0.305903 0.233116 0)
(0.331845 0.191838 0)
(0.359862 0.148807 0)
(0.388497 0.103001 0)
(0.414931 0.0604804 0)
(-0.000331499 0.747125 0)
(-0.000604665 0.745852 0)
(0.000216419 0.744081 0)
(0.00282912 0.740375 0)
(0.00793488 0.734119 0)
(0.016245 0.726238 0)
(0.0282989 0.712422 0)
(0.0439744 0.697467 0)
(0.0629541 0.673168 0)
(0.084387 0.645925 0)
(0.106932 0.608365 0)
(0.129345 0.566771 0)
(0.150232 0.516722 0)
(0.169119 0.464177 0)
(0.186361 0.409778 0)
(0.202814 0.354992 0)
(0.220433 0.304264 0)
(0.240691 0.253916 0)
(0.26522 0.207115 0)
(0.294707 0.162063 0)
(0.326936 0.117964 0)
(0.361083 0.0706789 0)
(0.398137 0.0289268 0)
(-0.00105161 0.748488 0)
(-0.00282615 0.746493 0)
(-0.00373031 0.74347 0)
(-0.00324969 0.737822 0)
(-0.000888648 0.729111 0)
(0.0038021 0.718123 0)
(0.0111382 0.700992 0)
(0.0210797 0.683092 0)
(0.0335706 0.655854 0)
(0.047978 0.627158 0)
(0.0638245 0.588486 0)
(0.0807491 0.547052 0)
(0.0977191 0.498332 0)
(0.114394 0.446763 0)
(0.130777 0.393336 0)
(0.147322 0.338209 0)
(0.165395 0.285113 0)
(0.185818 0.232117 0)
(0.209581 0.180313 0)
(0.238047 0.130554 0)
(0.270255 0.0846446 0)
(0.304482 0.0352134 0)
(0.340966 -0.00958502 0)
(-0.00220328 0.751734 0)
(-0.00631085 0.749108 0)
(-0.0096443 0.745062 0)
(-0.0117691 0.73783 0)
(-0.0123143 0.727225 0)
(-0.0110848 0.714005 0)
(-0.00795237 0.694534 0)
(-0.00269098 0.674214 0)
(0.00488984 0.644502 0)
(0.0144443 0.614369 0)
(0.0256667 0.574011 0)
(0.0380825 0.53198 0)
(0.0511209 0.483186 0)
(0.0646933 0.431451 0)
(0.0791798 0.377564 0)
(0.0952822 0.321109 0)
(0.11416 0.265015 0)
(0.136558 0.209118 0)
(0.162948 0.152844 0)
(0.194498 0.0976395 0)
(0.231185 0.0482509 0)
(0.272396 -0.00427772 0)
(0.317973 -0.0526376 0)
(-0.00355602 0.757497 0)
(-0.0104614 0.754363 0)
(-0.0167876 0.749465 0)
(-0.0221817 0.740933 0)
(-0.0263279 0.728787 0)
(-0.0290209 0.713863 0)
(-0.0302272 0.692688 0)
(-0.0296887 0.670179 0)
(-0.0272311 0.638395 0)
(-0.0229344 0.606501 0)
(-0.0169551 0.564536 0)
(-0.00955916 0.521488 0)
(-0.000562063 0.471475 0)
(0.00993084 0.418918 0)
(0.0222139 0.363135 0)
(0.0368429 0.304594 0)
(0.0544641 0.244788 0)
(0.0759958 0.185134 0)
(0.101938 0.12417 0)
(0.133332 0.0629891 0)
(0.170536 0.00857306 0)
(0.213799 -0.0495673 0)
(0.262992 -0.102665 0)
(-0.00529281 0.766368 0)
(-0.0157284 0.762875 0)
(-0.0256335 0.75722 0)
(-0.0346999 0.747665 0)
(-0.0427386 0.734254 0)
(-0.0494951 0.717845 0)
(-0.0549162 0.695319 0)
(-0.0587942 0.670856 0)
(-0.0610432 0.637459 0)
(-0.0615352 0.603563 0)
(-0.0602602 0.560132 0)
(-0.0574394 0.515572 0)
(-0.0527405 0.463574 0)
(-0.0461929 0.40964 0)
(-0.0369145 0.350689 0)
(-0.0243195 0.289624 0)
(-0.00793099 0.225521 0)
(0.0133728 0.161291 0)
(0.0398704 0.0952483 0)
(0.0723108 0.0276938 0)
(0.111431 -0.0329042 0)
(0.158239 -0.0986816 0)
(0.212762 -0.157858 0)
(-0.00727296 0.778976 0)
(-0.0217618 0.775275 0)
(-0.0358224 0.768865 0)
(-0.0491589 0.758494 0)
(-0.0616646 0.74403 0)
(-0.0730101 0.726218 0)
(-0.0831057 0.702496 0)
(-0.0917516 0.67622 0)
(-0.0990134 0.641607 0)
(-0.104776 0.605654 0)
(-0.108845 0.560802 0)
(-0.111168 0.514353 0)
(-0.111197 0.46005 0)
(-0.108778 0.404102 0)
(-0.103409 0.341455 0)
(-0.0949242 0.277621 0)
(-0.0824086 0.208421 0)
(-0.0647976 0.139225 0)
(-0.0417327 0.0674446 0)
(-0.0124137 -0.00663294 0)
(0.0238871 -0.0744407 0)
(0.0690209 -0.149616 0)
(0.122942 -0.215983 0)
(-0.00960317 0.795918 0)
(-0.0287941 0.792144 0)
(-0.0475736 0.784962 0)
(-0.0656518 0.77393 0)
(-0.0830028 0.758562 0)
(-0.099356 0.739485 0)
(-0.114691 0.714748 0)
(-0.128819 0.686816 0)
(-0.141767 0.651281 0)
(-0.153391 0.613412 0)
(-0.163372 0.567123 0)
(-0.171689 0.518682 0)
(-0.178114 0.462164 0)
(-0.182331 0.403751 0)
(-0.183504 0.337542 0)
(-0.18114 0.270582 0)
(-0.174657 0.196315 0)
(-0.163077 0.121942 0)
(-0.144894 0.0432184 0)
(-0.119131 -0.0378234 0)
(-0.0853021 -0.113794 0)
(-0.0422824 -0.198924 0)
(0.00884628 -0.272322 0)
(-0.0122619 0.817875 0)
(-0.0368064 0.814107 0)
(-0.0610285 0.806182 0)
(-0.0846541 0.794588 0)
(-0.107614 0.778382 0)
(-0.129639 0.7582 0)
(-0.150724 0.732601 0)
(-0.170718 0.703221 0)
(-0.189649 0.666878 0)
(-0.207404 0.627303 0)
(-0.223793 0.579698 0)
(-0.23867 0.529379 0)
(-0.251637 0.470916 0)
(-0.262358 0.409972 0)
(-0.270649 0.340792 0)
(-0.275865 0.270155 0)
(-0.276773 0.191094 0)
(-0.272189 0.11087 0)
(-0.261676 0.0253994 0)
(-0.246009 -0.0616955 0)
(-0.22353 -0.146569 0)
(-0.192875 -0.240254 0)
(-0.154221 -0.321288 0)
(-0.0151056 0.845366 0)
(-0.0453267 0.841628 0)
(-0.0753079 0.833107 0)
(-0.104874 0.821092 0)
(-0.133986 0.804181 0)
(-0.162485 0.783147 0)
(-0.190379 0.756849 0)
(-0.217514 0.726307 0)
(-0.243849 0.689253 0)
(-0.269269 0.648286 0)
(-0.293668 0.599675 0)
(-0.317004 0.547775 0)
(-0.33891 0.487535 0)
(-0.358631 0.423913 0)
(-0.375282 0.351881 0)
(-0.387808 0.276856 0)
(-0.396261 0.193761 0)
(-0.401342 0.108659 0)
(-0.404071 0.019743 0)
(-0.401737 -0.0741764 0)
(-0.388328 -0.170204 0)
(-0.363229 -0.272705 0)
(-0.32488 -0.366284 0)
(-0.0182943 0.878921 0)
(-0.0548658 0.875176 0)
(-0.0912548 0.866238 0)
(-0.127315 0.853892 0)
(-0.162924 0.836402 0)
(-0.197959 0.814754 0)
(-0.232404 0.787868 0)
(-0.266176 0.756475 0)
(-0.299299 0.718816 0)
(-0.331647 0.676755 0)
(-0.363078 0.627289 0)
(-0.39327 0.573929 0)
(-0.422051 0.512293 0)
(-0.449226 0.446255 0)
(-0.474491 0.371633 0)
(-0.49777 0.293055 0)
(-0.520923 0.209293 0)
(-0.545229 0.122628 0)
(-0.562073 0.0254109 0)
(-0.561439 -0.0828672 0)
(-0.543457 -0.193108 0)
(-0.51012 -0.308583 0)
(-0.459566 -0.419815 0)
(-0.0213791 0.918784 0)
(-0.0641493 0.915034 0)
(-0.106956 0.905954 0)
(-0.149795 0.893452 0)
(-0.192595 0.875625 0)
(-0.235292 0.853634 0)
(-0.277775 0.826283 0)
(-0.319862 0.794279 0)
(-0.361501 0.756129 0)
(-0.40261 0.713248 0)
(-0.443175 0.663131 0)
(-0.482966 0.608399 0)
(-0.521113 0.545063 0)
(-0.557052 0.476889 0)
(-0.592395 0.401886 0)
(-0.630329 0.3243 0)
(-0.669234 0.240396 0)
(-0.694702 0.141523 0)
(-0.696882 0.0256024 0)
(-0.681714 -0.0989798 0)
(-0.651709 -0.22527 0)
(-0.605767 -0.356152 0)
(-0.543405 -0.485793 0)
(-0.0246636 0.965051 0)
(-0.0739374 0.961259 0)
(-0.123153 0.952199 0)
(-0.172294 0.939635 0)
(-0.221276 0.921671 0)
(-0.270101 0.899556 0)
(-0.318701 0.871887 0)
(-0.366983 0.839483 0)
(-0.41483 0.800845 0)
(-0.462053 0.757292 0)
(-0.508561 0.706581 0)
(-0.55455 0.651143 0)
(-0.601498 0.587824 0)
(-0.651865 0.52085 0)
(-0.707467 0.449313 0)
(-0.762691 0.370485 0)
(-0.797664 0.268443 0)
(-0.802106 0.143508 0)
(-0.788603 0.012201 0)
(-0.763248 -0.126347 0)
(-0.721532 -0.270034 0)
(-0.663536 -0.415905 0)
(-0.591685 -0.560991 0)
(-0.0279997 1.01797 0)
(-0.0840325 1.01416 0)
(-0.14027 1.00527 0)
(-0.196793 0.992751 0)
(-0.253529 0.974795 0)
(-0.310411 0.952661 0)
(-0.367299 0.924792 0)
(-0.424118 0.892199 0)
(-0.48089 0.853263 0)
(-0.537594 0.809313 0)
(-0.594279 0.75826 0)
(-0.650778 0.702456 0)
(-0.707746 0.640939 0)
(-0.76825 0.579157 0)
(-0.829244 0.508184 0)
(-0.868975 0.407035 0)
(-0.875359 0.273436 0)
(-0.865327 0.132862 0)
(-0.844503 -0.0116916 0)
(-0.805638 -0.167041 0)
(-0.751747 -0.325479 0)
(-0.687181 -0.483697 0)
(-0.614936 -0.638082 0)
(-0.0305889 1.07686 0)
(-0.0918124 1.07312 0)
(-0.153184 1.06451 0)
(-0.214693 1.05214 0)
(-0.276287 1.03433 0)
(-0.337957 1.01227 0)
(-0.399569 0.984277 0)
(-0.461089 0.951644 0)
(-0.522633 0.912724 0)
(-0.584855 0.869372 0)
(-0.64924 0.819875 0)
(-0.718393 0.767123 0)
(-0.793659 0.709171 0)
(-0.866889 0.645332 0)
(-0.914545 0.5512 0)
(-0.924964 0.414402 0)
(-0.917918 0.265375 0)
(-0.901423 0.11423 0)
(-0.866033 -0.0495951 0)
(-0.81596 -0.218571 0)
(-0.758378 -0.386035 0)
(-0.695597 -0.551185 0)
(-0.628352 -0.710845 0)
(-0.0347387 1.14251 0)
(-0.104148 1.13876 0)
(-0.173609 1.13036 0)
(-0.243234 1.11807 0)
(-0.312936 1.10035 0)
(-0.382706 1.07835 0)
(-0.452429 1.05019 0)
(-0.522003 1.01748 0)
(-0.591478 0.978566 0)
(-0.661679 0.93662 0)
(-0.734693 0.89072 0)
(-0.812482 0.843966 0)
(-0.892205 0.788106 0)
(-0.951834 0.699929 0)
(-0.969305 0.562046 0)
(-0.960313 0.404965 0)
(-0.941996 0.249291 0)
(-0.908017 0.0795516 0)
(-0.861021 -0.0977607 0)
(-0.808726 -0.273336 0)
(-0.752272 -0.445929 0)
(-0.692174 -0.614842 0)
(-0.628762 -0.778559 0)
(-0.0359594 1.21357 0)
(-0.107974 1.20984 0)
(-0.180383 1.20187 0)
(-0.253343 1.18988 0)
(-0.326686 1.17232 0)
(-0.400293 1.15049 0)
(-0.474289 1.1225 0)
(-0.549108 1.0903 0)
(-0.625515 1.05238 0)
(-0.70472 1.01298 0)
(-0.78789 0.971345 0)
(-0.873465 0.927543 0)
(-0.944537 0.856093 0)
(-0.974939 0.722421 0)
(-0.971657 0.553794 0)
(-0.957816 0.390242 0)
(-0.930785 0.218408 0)
(-0.889233 0.0344871 0)
(-0.841626 -0.147819 0)
(-0.790116 -0.327651 0)
(-0.735067 -0.503727 0)
(-0.677269 -0.675584 0)
(-0.617563 -0.841606 0)
(-0.041071 1.29099 0)
(-0.123182 1.28733 0)
(-0.20492 1.27931 0)
(-0.286023 1.26728 0)
(-0.36682 1.24984 0)
(-0.447677 1.22822 0)
(-0.528876 1.20076 0)
(-0.61133 1.17012 0)
(-0.696644 1.13511 0)
(-0.785904 1.09958 0)
(-0.876333 1.05924 0)
(-0.954327 1.00406 0)
(-0.994675 0.89156 0)
(-0.993925 0.716741 0)
(-0.976317 0.538456 0)
(-0.949261 0.36445 0)
(-0.908652 0.176188 0)
(-0.860893 -0.0130918 0)
(-0.810699 -0.198575 0)
(-0.758206 -0.381464 0)
(-0.704153 -0.55961 0)
(-0.648952 -0.733315 0)
(-0.592688 -0.900476 0)
(-0.0409663 1.37345 0)
(-0.122991 1.36986 0)
(-0.205196 1.36158 0)
(-0.287757 1.34952 0)
(-0.370995 1.33248 0)
(-0.454964 1.31125 0)
(-0.539728 1.28454 0)
(-0.626228 1.25616 0)
(-0.716295 1.22535 0)
(-0.810494 1.19374 0)
(-0.902757 1.14871 0)
(-0.969234 1.0598 0)
(-0.986869 0.894091 0)
(-0.973308 0.699807 0)
(-0.951582 0.515834 0)
(-0.91674 0.324834 0)
(-0.871595 0.129585 0)
(-0.82391 -0.0624498 0)
(-0.773989 -0.249875 0)
(-0.723183 -0.434023 0)
(-0.671724 -0.613135 0)
(-0.619821 -0.787476 0)
(-0.567273 -0.955718 0)
(-0.0460354 1.46091 0)
(-0.1383 1.45759 0)
(-0.231107 1.44975 0)
(-0.324299 1.43801 0)
(-0.417156 1.421 0)
(-0.509521 1.39998 0)
(-0.602319 1.3743 0)
(-0.696813 1.34833 0)
(-0.792943 1.32033 0)
(-0.88706 1.28805 0)
(-0.963767 1.22425 0)
(-0.998727 1.08622 0)
(-0.99158 0.878206 0)
(-0.964552 0.674879 0)
(-0.926834 0.480996 0)
(-0.879833 0.277389 0)
(-0.829129 0.080666 0)
(-0.778623 -0.112251 0)
(-0.728759 -0.300396 0)
(-0.67908 -0.48453 0)
(-0.62945 -0.664266 0)
(-0.579712 -0.838539 0)
(-0.529787 -1.00769 0)
(-0.0452558 1.55267 0)
(-0.135984 1.54977 0)
(-0.227251 1.54261 0)
(-0.319104 1.53117 0)
(-0.411586 1.51415 0)
(-0.505216 1.49379 0)
(-0.600739 1.46978 0)
(-0.698775 1.44638 0)
(-0.798159 1.41882 0)
(-0.891468 1.37796 0)
(-0.95663 1.27694 0)
(-0.971628 1.08374 0)
(-0.952532 0.854294 0)
(-0.923387 0.642316 0)
(-0.883317 0.435355 0)
(-0.83672 0.228931 0)
(-0.789115 0.0302893 0)
(-0.740493 -0.161535 0)
(-0.69274 -0.349253 0)
(-0.64569 -0.532923 0)
(-0.598827 -0.712887 0)
(-0.551836 -0.887171 0)
(-0.504557 -1.05678 0)
(-0.0498552 1.64828 0)
(-0.149947 1.64598 0)
(-0.25108 1.6398 0)
(-0.353679 1.62943 0)
(-0.457855 1.61356 0)
(-0.562967 1.59416 0)
(-0.66848 1.5715 0)
(-0.773554 1.54883 0)
(-0.873753 1.517 0)
(-0.953784 1.45403 0)
(-0.989278 1.30204 0)
(-0.977772 1.06213 0)
(-0.943084 0.821825 0)
(-0.899265 0.601433 0)
(-0.847985 0.384403 0)
(-0.794685 0.179455 0)
(-0.74395 -0.0190983 0)
(-0.695472 -0.209767 0)
(-0.64842 -0.396334 0)
(-0.602602 -0.579211 0)
(-0.557359 -0.759203 0)
(-0.512255 -0.93345 0)
(-0.46698 -1.10356 0)
(-0.0490487 1.7477 0)
(-0.147333 1.74597 0)
(-0.246207 1.74086 0)
(-0.345891 1.73171 0)
(-0.446605 1.71724 0)
(-0.548462 1.69852 0)
(-0.652007 1.67729 0)
(-0.756495 1.6537 0)
(-0.855447 1.61232 0)
(-0.928711 1.5128 0)
(-0.950397 1.30074 0)
(-0.930375 1.03174 0)
(-0.896425 0.78322 0)
(-0.853995 0.553336 0)
(-0.806436 0.33314 0)
(-0.757919 0.128362 0)
(-0.70936 -0.0678277 0)
(-0.662846 -0.256537 0)
(-0.618258 -0.441694 0)
(-0.575027 -0.623377 0)
(-0.532456 -0.803325 0)