/*--------------------------------*- C++ -*----------------------------------*\
| =========                 |                                                 |
| \\      /  F ield         | OpenFOAM: The Open Source CFD Toolbox           |
|  \\    /   O peration     | Version:  2012                                  |
|   \\  /    A nd           | Website:  www.openfoam.com                      |
|    \\/     M anipulation  |                                                 |
\*---------------------------------------------------------------------------*/
FoamFile
{
    version     2.0;
    format      ascii;
    class       volScalarField;
    location    "0.04";
    object      maxKappa;
}
// * * * * * * * * * * * * * * * * * * * * * * * * * * * * * * * * * * * * * //

dimensions      [0 0 0 0 0 0 0];


internalField   nonuniform List<scalar> 
2268
(
3.74111e-07
7.36905e-07
1.11008e-06
1.51095e-06
1.92784e-06
2.39089e-06
2.89834e-06
3.47352e-06
4.16729e-06
4.97638e-06
6.12648e-06
8.52482e-06
3.08394e-05
0.000194851
0.000280273
0.000280273
0.000258591
0.000193693
0.000134186
9.64838e-05
6.94903e-05
4.6195e-05
2.39332e-05
4.55336e-07
7.77945e-07
1.13643e-06
1.53017e-06
1.94185e-06
2.40181e-06
2.90411e-06
3.4775e-06
4.15885e-06
4.96482e-06
6.04955e-06
1.02037e-05
6.38471e-05
0.000213606
0.000258044
0.000258044
0.000231268
0.000175408
0.000129437
9.58324e-05
7.05317e-05
4.86481e-05
2.94361e-05
5.74516e-07
8.52321e-07
1.18677e-06
1.56743e-06
1.96926e-06
2.42303e-06
2.91566e-06
3.48451e-06
4.14588e-06
4.93969e-06
5.95982e-06
1.13209e-05
8.09358e-05
0.000217858
0.000233
0.000233
0.000200643
0.000155035
0.000123345
9.44114e-05
7.20547e-05
5.25554e-05
3.6432e-05
7.11306e-07
9.50488e-07
1.25749e-06
1.62095e-06
2.00928e-06
2.45389e-06
2.93306e-06
3.49342e-06
4.12988e-06
4.901e-06
5.85449e-06
1.21167e-05
9.23612e-05
0.000207056
0.000207056
0.000199564
0.000169519
0.000141171
0.000118897
9.42983e-05
7.47317e-05
5.83391e-05
4.60805e-05
8.56443e-07
1.06414e-06
1.34402e-06
1.68792e-06
2.06017e-06
2.49275e-06
2.95592e-06
3.50387e-06
4.11326e-06
4.85499e-06
5.73609e-06
1.27062e-05
9.95638e-05
0.000187757
0.000187757
0.000164626
0.000145594
0.000134064
0.000114719
9.47097e-05
7.79258e-05
6.43287e-05
5.41916e-05
1.00559e-06
1.1879e-06
1.44281e-06
1.76629e-06
2.12115e-06
2.53939e-06
2.98537e-06
3.5173e-06
4.09871e-06
4.80565e-06
5.61399e-06
1.31461e-05
0.000103348
0.000164902
0.000164902
0.000137307
0.000128757
0.000127793
0.000110975
9.51468e-05
8.13123e-05
7.16243e-05
6.65289e-05
1.15533e-06
1.31699e-06
1.54953e-06
1.85247e-06
2.18911e-06
2.59067e-06
3.018e-06
3.52994e-06
4.08147e-06
4.74875e-06
5.4851e-06
1.34181e-05
0.00010491
0.000143027
0.000143027
0.000119601
0.00012249
0.00012249
0.000108215
9.60098e-05
8.52038e-05
7.83087e-05
7.37738e-05
1.3047e-06
1.44939e-06
1.66223e-06
1.94535e-06
2.26394e-06
2.64762e-06
3.05634e-06
3.54644e-06
4.06902e-06
4.69571e-06
5.36691e-06
1.35333e-05
0.000105149
0.000126843
0.000126843
0.000114498
0.000117331
0.000117331
0.000105535
9.62077e-05
8.83633e-05
9.2382e-05
9.2382e-05
6.48793e-06
1.19359e-05
1.5153e-05
1.68858e-05
1.74279e-05
1.74279e-05
1.71208e-05
1.63651e-05
1.52482e-05
1.39847e-05
1.26039e-05
1.11906e-05
9.75563e-06
8.32717e-06
6.90839e-06
5.50598e-06
4.11895e-06
2.74782e-06
1.40315e-06
8.03132e-06
1.2578e-05
1.54862e-05
1.70916e-05
1.7568e-05
1.7568e-05
1.72124e-05
1.64296e-05
1.52972e-05
1.40257e-05
1.26407e-05
1.12268e-05
9.79364e-06
8.36965e-06
6.95836e-06
5.56813e-06
4.20214e-06
2.87451e-06
1.66358e-06
9.61458e-06
1.38211e-05
1.6288e-05
1.76209e-05
1.79118e-05
1.79118e-05
1.74307e-05
1.65779e-05
1.54029e-05
1.41107e-05
1.27155e-05
1.12994e-05
9.86957e-06
8.45414e-06
7.05724e-06
5.69018e-06
4.36312e-06
3.10924e-06
2.05351e-06
1.29131e-05
1.56059e-05
1.72525e-05
1.81982e-05
1.83017e-05
1.83017e-05
1.76912e-05
1.6769e-05
1.5547e-05
1.42312e-05
1.28241e-05
1.14062e-05
9.98163e-06
8.5788e-06
7.2026e-06
5.86794e-06
4.59275e-06
3.42667e-06
2.50872e-06
1.47488e-05
1.79662e-05
1.88897e-05
1.92802e-05
1.92802e-05
1.89958e-05
1.81259e-05
1.70641e-05
1.57563e-05
1.43988e-05
1.2971e-05
1.15486e-05
1.01298e-05
8.74244e-06
7.39173e-06
6.09614e-06
4.88035e-06
3.80419e-06
3.00098e-06
2.02319e-05
2.07762e-05
2.07762e-05
2.03986e-05
2.0116e-05
1.95685e-05
1.85123e-05
1.73554e-05
1.59813e-05
1.45901e-05
1.31453e-05
1.17207e-05
1.03102e-05
8.94155e-06
7.62045e-06
6.3685e-06
5.2153e-06
4.22463e-06
3.51541e-06
2.20308e-05
2.48025e-05
2.48025e-05
2.30686e-05
2.18077e-05
2.06222e-05
1.91581e-05
1.77864e-05
1.62874e-05
1.48346e-05
1.33595e-05
1.19277e-05
1.05241e-05
9.17506e-06
7.88563e-06
6.67933e-06
5.58833e-06
4.67563e-06
4.04319e-06
3.40134e-05
3.40134e-05
2.87767e-05
2.50819e-05
2.26941e-05
2.12604e-05
1.9601e-05
1.81339e-05
1.65686e-05
1.50808e-05
1.3589e-05
1.21563e-05
1.07639e-05
9.43738e-06
8.18189e-06
7.02217e-06
5.99118e-06
5.14825e-06
4.57895e-06
1.65641e-06
1.73075e-06
1.88371e-06
2.1008e-06
2.39277e-06
2.74768e-06
3.12831e-06
3.58309e-06
4.06296e-06
4.62967e-06
5.21507e-06
1.35699e-05
0.000105525
0.000142128
0.000111519
0.000110214
0.000112454
0.000110932
0.000102605
9.66998e-05
9.78331e-05
0.00011504
0.00011504
1.95309e-06
2.01524e-06
2.14244e-06
2.31514e-06
2.57282e-06
2.88721e-06
3.22915e-06
3.63425e-06
4.0574e-06
4.54835e-06
5.04286e-06
1.35887e-05
0.000106074
0.000142128
9.76836e-05
0.000104791
0.000112454
0.000103063
9.7994e-05
9.17375e-05
9.16589e-05
9.33165e-05
0.000114752
2.22755e-06
2.28066e-06
2.38798e-06
2.5367e-06
2.75241e-06
3.02867e-06
3.33319e-06
3.68998e-06
4.06033e-06
4.48307e-06
4.90509e-06
1.35057e-05
0.000105468
0.000133447
8.98761e-05
0.00010162
0.000103784
9.72739e-05
9.32752e-05
8.84142e-05
8.70142e-05
8.3418e-05
9.32162e-05
2.47902e-06
2.52499e-06
2.61649e-06
2.74747e-06
2.92768e-06
3.16976e-06
3.43994e-06
3.75319e-06
4.07791e-06
4.44301e-06
4.80752e-06
1.34375e-05
0.000104816
0.00012639
8.68929e-05
9.85938e-05
9.67938e-05
9.25801e-05
8.84463e-05
8.39406e-05
8.21077e-05
7.74506e-05
7.9361e-05
2.70723e-06
2.74734e-06
2.82601e-06
2.94165e-06
3.09438e-06
3.30341e-06
3.542e-06
3.81573e-06
4.10042e-06
4.41528e-06
4.73232e-06
1.33802e-05
0.00010386
0.000120506
8.57144e-05
9.54244e-05
9.11157e-05
8.82319e-05
8.36081e-05
7.95773e-05
7.65321e-05
7.18562e-05
6.95459e-05
2.91228e-06
2.94743e-06
3.01549e-06
3.11772e-06
3.24966e-06
3.43009e-06
3.64063e-06
3.87979e-06
4.13018e-06
4.40242e-06
4.67981e-06
1.33477e-05
0.000102592
0.0001149
8.48565e-05
9.23428e-05
8.71035e-05
8.43255e-05
7.93625e-05
7.57029e-05
7.1949e-05
6.7559e-05
6.39042e-05
3.09591e-06
3.12686e-06
3.18609e-06
3.27664e-06
3.39114e-06
3.54442e-06
3.73021e-06
3.93915e-06
4.16012e-06
4.39626e-06
4.64096e-06
1.33306e-05
0.000100667
0.000108907
8.36739e-05
8.93793e-05
8.39436e-05
8.06995e-05
7.60497e-05
7.20245e-05
6.80159e-05
6.38811e-05
5.97434e-05
3.25702e-06
3.28433e-06
3.3361e-06
3.41639e-06
3.51613e-06
3.65197e-06
3.81617e-06
3.99879e-06
4.19413e-06
4.39912e-06
4.6152e-06
1.33249e-05
9.934e-05
0.000101749
8.14774e-05
8.6428e-05
8.07671e-05
7.73525e-05
7.27145e-05
6.88104e-05
6.47231e-05
6.06528e-05
5.66536e-05
3.40113e-06
3.42535e-06
3.47091e-06
3.5424e-06
3.6298e-06
3.74535e-06
3.88698e-06
4.0475e-06
4.22191e-06
4.40201e-06
4.59601e-06
1.33259e-05
0.000100772
9.36607e-05
7.82637e-05
8.32795e-05
7.7898e-05
7.42085e-05
7.00215e-05
6.59736e-05
6.22946e-05
5.83771e-05
5.45305e-05
3.52155e-06
3.5431e-06
3.58333e-06
3.64716e-06
3.72409e-06
3.83325e-06
3.96271e-06
4.10342e-06
4.25812e-06
4.41483e-06
4.58621e-06
1.33311e-05
0.000102025
8.80197e-05
7.61818e-05
7.98821e-05
7.47758e-05
7.1206e-05
6.71773e-05
6.33657e-05
5.98022e-05
5.60885e-05
5.24411e-05
3.63267e-06
3.65202e-06
3.68788e-06
3.74531e-06
3.81358e-06
3.90756e-06
4.00705e-06
4.13273e-06
4.27406e-06
4.41557e-06
4.57498e-06
1.33345e-05
0.000103144
8.15314e-05
7.53485e-05
7.59977e-05
7.18668e-05
6.85056e-05
6.50985e-05
6.15994e-05
5.80615e-05
5.44906e-05
5.09462e-05
3.71481e-06
3.73227e-06
3.7644e-06
3.81635e-06
3.89061e-06
3.97874e-06
4.08279e-06
4.19317e-06
4.31769e-06
4.43945e-06
4.57672e-06
1.3342e-05
0.00010411
7.21837e-05
7.4776e-05
7.21213e-05
6.91621e-05
6.58256e-05
6.26128e-05
5.94077e-05
5.60584e-05
5.2717e-05
4.93637e-05
3.80009e-06
3.81588e-06
3.84477e-06
3.89194e-06
3.94667e-06
4.02485e-06
4.09896e-06
4.20802e-06
4.30701e-06
4.43199e-06
4.56297e-06
1.33392e-05
0.000105191
6.61539e-05
7.40452e-05
6.96737e-05
6.77283e-05
6.49388e-05
6.15556e-05
5.85962e-05
5.50683e-05
5.17308e-05
4.83498e-05
3.85244e-06
3.87371e-06
3.90992e-06
3.95831e-06
4.02133e-06
4.09318e-06
4.17926e-06
4.26911e-06
4.37302e-06
4.47213e-06
4.58168e-06
1.33949e-05
0.000106041
5.39429e-05
7.11406e-05
6.57055e-05
6.60209e-05
6.23083e-05
5.96784e-05
5.65717e-05
5.33747e-05
5.02341e-05
4.70422e-05
3.91195e-06
3.92557e-06
3.95007e-06
3.99093e-06
4.03709e-06
4.10553e-06
4.16716e-06
4.2645e-06
4.33083e-06
4.45974e-06
4.54818e-06
1.33799e-05
0.000109697
6.03724e-05
7.11406e-05
6.86973e-05
6.59484e-05
6.42163e-05
6.03159e-05
5.71365e-05
5.32722e-05
4.98163e-05
4.6395e-05
3.98436e-06
4.00257e-06
4.03382e-06
4.07532e-06
4.12988e-06
4.1915e-06
4.26618e-06
4.34223e-06
4.43005e-06
4.50888e-06
4.58775e-06
1.40478e-05
0.000109697
6.66369e-05
7.2713e-05
6.96387e-05
6.7305e-05
6.2407e-05
5.84865e-05
5.52098e-05
5.18232e-05
4.84927e-05
4.52471e-05
4.27763e-06
4.29397e-06
4.32386e-06
4.3743e-06
4.43191e-06
4.51926e-06
4.59938e-06
4.73159e-06
4.82382e-06
5.03178e-06
5.24146e-06
1.34299e-05
0.000112869
6.91345e-05
7.82307e-05
7.82307e-05
7.36735e-05
6.78494e-05
6.19386e-05
5.69432e-05
5.22892e-05
4.82684e-05
4.46568e-05
1.15172e-05
1.15914e-05
1.17333e-05
1.19686e-05
1.2252e-05
1.26683e-05
1.30871e-05
1.37242e-05
1.42519e-05
1.53183e-05
1.77444e-05
3.88177e-05
0.000112869
9.18707e-05
7.25377e-05
8.72505e-05
7.27212e-05
6.59252e-05
6.07188e-05
5.58806e-05
5.14021e-05
4.72796e-05
4.3652e-05
6.41016e-05
6.44678e-05
6.51473e-05
6.62668e-05
6.76603e-05
6.95794e-05
7.18087e-05
7.45235e-05
7.81283e-05
8.24287e-05
9.56464e-05
0.000121667
0.000149172
0.000139671
0.000129391
0.000113952
9.18707e-05
7.28812e-05
6.3397e-05
5.60129e-05
5.06334e-05
4.61279e-05
4.24498e-05
8.09005e-05
8.15414e-05
8.26572e-05
8.42576e-05
8.63829e-05
8.91939e-05
9.2546e-05
9.72677e-05
0.00010325
0.0001173
0.000146479
0.000184795
0.000189608
0.000169678
0.000155924
0.000149229
0.000107646
8.39127e-05
6.80673e-05
5.82431e-05
5.09701e-05
4.57198e-05
4.15538e-05
7.34848e-05
7.38673e-05
7.45596e-05
7.57398e-05
7.72455e-05
7.92742e-05
8.20324e-05
8.4803e-05
9.04432e-05
9.4031e-05
0.000112649
0.000137191
0.000189608
0.000174041
0.000149789
0.000106337
8.45005e-05
6.83291e-05
5.8932e-05
5.18039e-05
4.66374e-05
4.25057e-05
3.91261e-05
7.03446e-05
7.07741e-05
7.15334e-05
7.264e-05
7.40998e-05
7.61389e-05
7.84996e-05
8.20905e-05
8.5898e-05
9.22797e-05
9.85219e-05
0.000107573
0.000144843
0.000145814
0.000108262
8.82395e-05
7.63571e-05
6.5957e-05
5.74607e-05
5.0904e-05
4.55492e-05
4.12818e-05
3.77913e-05
6.4987e-05
6.52478e-05
6.56813e-05
6.64781e-05
6.74559e-05
6.8788e-05
7.07205e-05
7.24312e-05
7.65975e-05
7.82847e-05
8.76834e-05
8.90055e-05
0.000106186
0.000106328
8.71642e-05
7.65525e-05
6.54288e-05
5.73554e-05
5.08111e-05
4.56212e-05
4.14073e-05
3.79797e-05
3.51319e-05
6.03664e-05
6.05991e-05
6.1028e-05
6.16356e-05
6.24255e-05
6.35143e-05
6.46398e-05
6.63287e-05
6.8061e-05
6.95917e-05
7.47716e-05
7.37576e-05
8.42893e-05
8.35479e-05
7.00535e-05
6.49967e-05
5.60779e-05
5.09536e-05
4.59382e-05
4.18697e-05
3.84858e-05
3.55205e-05
3.30215e-05
5.66354e-05
5.67827e-05
5.69756e-05
5.74197e-05
5.78609e-05
5.85593e-05
5.9466e-05
6.01647e-05
6.2111e-05
6.20671e-05
6.5722e-05
6.40874e-05
6.73996e-05
6.52742e-05
5.90311e-05
5.57002e-05
4.95021e-05
4.58334e-05
4.15006e-05
3.83484e-05
3.53549e-05
3.29373e-05
3.08044e-05
5.22049e-05
5.22962e-05
5.23772e-05
5.26477e-05
5.28353e-05
5.32311e-05
5.36598e-05
5.39433e-05
5.50098e-05
5.46302e-05
5.67484e-05
5.53081e-05
5.71714e-05
5.53777e-05
5.09465e-05
4.81452e-05
4.34938e-05
4.07049e-05
3.72455e-05
3.47725e-05
3.23195e-05
3.03428e-05
2.85635e-05
4.89566e-05
4.90048e-05
4.90081e-05
4.91495e-05
4.91674e-05
4.93548e-05
4.94622e-05
4.9492e-05
4.98859e-05
4.93161e-05
5.00493e-05
4.85957e-05
4.85081e-05
4.65975e-05
4.39091e-05
4.16505e-05
3.84604e-05
3.62402e-05
3.35652e-05
3.15576e-05
2.95522e-05
2.79118e-05
2.64272e-05
4.52102e-05
4.52154e-05
4.51441e-05
4.51556e-05
4.5013e-05
4.49916e-05
4.48211e-05
4.4622e-05
4.45562e-05
4.38973e-05
4.39762e-05
4.27149e-05
4.23181e-05
4.06788e-05
3.85852e-05
3.6606e-05
3.41305e-05
3.22385e-05
3.012e-05
2.84649e-05
2.68492e-05
2.55083e-05
2.43042e-05
4.22666e-05
4.22392e-05
4.21158e-05
4.20308e-05
4.17796e-05
4.16077e-05
4.12464e-05
4.0879e-05
4.04696e-05
3.97041e-05
3.92326e-05
3.79618e-05
3.70508e-05
3.54637e-05
3.37963e-05
3.21008e-05
3.02315e-05
2.86546e-05
2.69992e-05
2.56357e-05
2.43416e-05
2.32487e-05
2.22828e-05
3.92104e-05
3.91524e-05
3.89826e-05
3.88064e-05
3.84621e-05
3.81488e-05
3.76419e-05
3.71261e-05
3.65043e-05
3.56723e-05
3.49548e-05
3.37708e-05
3.27971e-05
3.13824e-05
2.9934e-05
2.84314e-05
2.688e-05
2.5504e-05
2.41525e-05
2.30078e-05
2.19674e-05
2.1086e-05
2.03302e-05
3.66823e-05
3.66014e-05
3.63983e-05
3.61553e-05
3.57456e-05
3.53308e-05
3.47213e-05
3.40964e-05
3.33179e-05
3.24167e-05
3.14924e-05
3.02997e-05
2.91699e-05
2.78116e-05
2.64834e-05
2.51361e-05
2.38243e-05
2.26376e-05
2.15274e-05
2.05752e-05
1.97436e-05
1.90459e-05
1.8471e-05
3.42507e-05
3.41493e-05
3.39169e-05
3.36137e-05
3.31485e-05
3.26421e-05
3.19543e-05
3.12312e-05
3.03548e-05
2.93946e-05
2.83757e-05
2.72044e-05
2.60608e-05
2.47835e-05
2.35427e-05
2.23032e-05
2.1135e-05
2.00759e-05
1.91283e-05
1.83232e-05
1.76549e-05
1.71136e-05
1.66966e-05
3.21852e-05
3.20686e-05
3.18145e-05
3.14671e-05
3.09613e-05
3.0388e-05
2.96433e-05
2.88474e-05
2.78974e-05
2.68842e-05
2.57807e-05
2.45905e-05
2.33888e-05
2.21339e-05
2.09254e-05
1.97565e-05
1.86827e-05
1.77255e-05
1.69013e-05
1.62204e-05
1.56875e-05
1.52842e-05
1.50073e-05
3.0295e-05
3.01651e-05
2.98916e-05
2.95055e-05
2.89639e-05
2.83319e-05
2.75399e-05
2.66782e-05
2.56748e-05
2.46114e-05
2.34606e-05
2.22563e-05
2.1038e-05
1.9802e-05
1.86157e-05
1.74883e-05
1.64699e-05
1.55786e-05
1.48394e-05
1.42546e-05
1.38322e-05
1.355e-05
1.34003e-05
2.86922e-05
2.85523e-05
2.82639e-05
2.78488e-05
2.72797e-05
2.66034e-05
2.57744e-05
2.48615e-05
2.38141e-05
2.27047e-05
2.15061e-05
2.02699e-05
1.9012e-05
1.77625e-05
1.65653e-05
1.54474e-05
1.44499e-05
1.35968e-05
1.29139e-05
1.24046e-05
1.20752e-05
1.19029e-05
1.18725e-05
2.72708e-05
2.71221e-05
2.68199e-05
2.63795e-05
2.57851e-05
2.50703e-05
2.42084e-05
2.325e-05
2.21655e-05
2.10128e-05
1.97765e-05
1.85071e-05
1.72171e-05
1.59447e-05
1.47256e-05
1.35952e-05
1.2594e-05
1.17529e-05
1.11021e-05
1.06501e-05
1.04016e-05
1.03328e-05
1.0419e-05
2.61051e-05
2.59498e-05
2.56367e-05
2.51769e-05
2.45622e-05
2.38169e-05
2.2927e-05
2.19306e-05
2.08119e-05
1.96179e-05
1.83413e-05
1.70294e-05
1.56938e-05
1.4378e-05
1.31131e-05
1.19422e-05
1.09063e-05
1.00466e-05
9.40022e-06
8.98586e-06
8.8083e-06
8.84101e-06
9.04728e-06
2.50994e-05
2.49382e-05
2.4615e-05
2.41383e-05
2.35054e-05
2.27343e-05
2.18199e-05
2.07909e-05
1.96422e-05
1.84108e-05
1.70978e-05
1.57439e-05
1.4363e-05
1.29965e-05
1.16748e-05
1.04437e-05
9.34836e-06
8.44147e-06
7.77384e-06
7.38068e-06
7.27109e-06
7.41225e-06
7.74892e-06
2.43346e-05
2.4169e-05
2.38383e-05
2.33489e-05
2.27013e-05
2.19449e-05
2.10746e-05
2.00694e-05
1.89416e-05
1.77066e-05
1.63822e-05
1.49884e-05
1.35492e-05
1.20906e-05
1.06444e-05
9.24699e-06
7.96744e-06
6.97346e-06
6.24443e-06
5.84609e-06
5.80276e-06
6.06916e-06
6.5572e-06
2.37097e-05
2.35407e-05
2.32033e-05
2.27033e-05
2.20433e-05
2.12352e-05
2.02827e-05
1.92207e-05
1.80818e-05
1.68352e-05
1.54971e-05
1.4086e-05
1.26227e-05
1.113e-05
9.63481e-06
8.16824e-06
6.77158e-06
5.62163e-06
4.77795e-06
4.3393e-06
4.37415e-06
4.80414e-06
5.47462e-06
2.33183e-05
2.31458e-05
2.28597e-05
2.24339e-05
2.18438e-05
2.10956e-05
2.01968e-05
1.91579e-05
1.7991e-05
1.67106e-05
1.53327e-05
1.38753e-05
1.23581e-05
1.08015e-05
9.2284e-06
7.66334e-06
6.13685e-06
4.69306e-06
3.44118e-06
2.88706e-06
3.03014e-06
3.70217e-06
4.5908e-06
2.30041e-05
2.28321e-05
2.24896e-05
2.19809e-05
2.13097e-05
2.04929e-05
1.9604e-05
1.85772e-05
1.74244e-05
1.61594e-05
1.47974e-05
1.3355e-05
1.185e-05
1.03007e-05
8.72591e-06
7.14405e-06
5.57381e-06
4.0344e-06
2.55392e-06
1.45362e-06
1.87515e-06
3.08147e-06
3.96389e-06
9.96693e-05
7.8539e-05
7.58262e-05
7.12559e-05
9.96693e-05
7.9545e-05
7.58262e-05
7.12559e-05
8.70255e-05
7.9545e-05
7.24672e-05
6.74183e-05
7.44951e-05
6.88463e-05
6.35052e-05
5.93351e-05
6.56129e-05
6.22408e-05
5.83136e-05
5.51945e-05
6.01358e-05
5.72209e-05
5.40268e-05
5.13579e-05
5.60734e-05
5.36889e-05
5.11092e-05
4.88353e-05
5.31969e-05
5.10451e-05
4.88016e-05
4.6752e-05
5.08888e-05
4.89604e-05
4.69892e-05
4.51422e-05
4.9063e-05
4.72839e-05
4.54935e-05
4.37902e-05
4.75286e-05
4.58749e-05
4.42274e-05
4.26461e-05
4.62127e-05
4.46577e-05
4.31173e-05
4.16322e-05
4.50737e-05
4.35932e-05
4.21334e-05
4.07248e-05
4.40386e-05
4.26165e-05
4.12201e-05
3.98731e-05
4.31061e-05
4.1718e-05
4.03642e-05
3.90617e-05
4.22163e-05
4.08475e-05
3.95253e-05
3.82561e-05
4.13139e-05
3.99558e-05
3.8659e-05
3.74175e-05
4.04183e-05
3.90543e-05
3.77703e-05
3.65454e-05
3.9325e-05
3.79843e-05
3.67358e-05
3.55457e-05
3.81972e-05
3.68693e-05
3.56425e-05
3.44826e-05
3.67302e-05
3.54786e-05
3.43212e-05
3.32311e-05
3.51271e-05
3.39667e-05
3.28932e-05
3.18826e-05
3.3348e-05
3.2295e-05
3.13211e-05
3.04056e-05
3.1396e-05
3.04794e-05
2.96279e-05
2.88257e-05
2.9461e-05
2.86614e-05
2.79179e-05
2.72182e-05
2.74378e-05
2.67672e-05
2.61412e-05
2.55525e-05
2.54827e-05
2.4923e-05
2.43993e-05
2.39089e-05
2.35335e-05
2.30817e-05
2.26579e-05
2.22637e-05
2.16628e-05
2.13052e-05
2.097e-05
2.06617e-05
1.98479e-05
1.95768e-05
1.93242e-05
1.90962e-05
1.81116e-05
1.79176e-05
1.77397e-05
1.75845e-05
1.64491e-05
1.63253e-05
1.62168e-05
1.61292e-05
1.48624e-05
1.48033e-05
1.47591e-05
1.47347e-05
1.33513e-05
1.3353e-05
1.337e-05
1.34055e-05
1.19156e-05
1.19762e-05
1.20525e-05
1.21463e-05
1.05534e-05
1.06725e-05
1.08073e-05
1.09586e-05
9.27601e-06
9.45557e-06
9.65064e-06
9.86052e-06
8.07812e-06
8.32097e-06
8.57789e-06
8.84695e-06
6.9986e-06
7.31015e-06
7.63252e-06
7.96277e-06
6.03926e-06
6.42221e-06
6.80991e-06
7.19913e-06
5.28605e-06
5.73955e-06
6.18892e-06
6.63176e-06
4.76431e-06
5.26996e-06
5.76264e-06
6.24149e-06
6.45802e-05
6.00483e-05
4.12583e-05
3.21008e-05
2.65016e-05
2.34459e-05
2.09216e-05
1.90052e-05
1.71951e-05
1.55829e-05
1.40319e-05
1.25824e-05
1.12011e-05
9.90726e-06
8.70352e-06
7.61357e-06
6.66817e-06
5.91777e-06
5.42602e-06
6.45802e-05
5.64445e-05
4.03377e-05
3.28813e-05
2.76831e-05
2.45414e-05
2.18762e-05
1.98155e-05
1.79139e-05
1.6241e-05
1.46674e-05
1.32214e-05
1.18692e-05
1.06259e-05
9.49287e-06
8.49106e-06
7.64582e-06
6.99486e-06
6.57999e-06
5.6844e-05
5.06606e-05
4.14061e-05
3.49823e-05
2.99004e-05
2.62766e-05
2.32718e-05
2.09067e-05
1.88252e-05
1.70367e-05
1.54115e-05
1.39528e-05
1.26208e-05
1.14207e-05
1.03498e-05
9.42297e-06
8.65843e-06
8.0825e-06
7.72226e-06
5.06958e-05
5.02942e-05
4.19799e-05
3.56713e-05
3.07972e-05
2.71411e-05
2.41291e-05
2.17027e-05
1.9593e-05
1.77783e-05
1.61536e-05
1.47092e-05
1.34103e-05
1.22564e-05
1.12435e-05
1.03813e-05
9.68229e-06
9.16409e-06
8.84414e-06
4.81833e-05
4.77984e-05
4.13763e-05
3.59076e-05
3.15415e-05
2.79775e-05
2.50065e-05
2.25327e-05
2.03964e-05
1.85552e-05
1.6929e-05
1.54972e-05
1.42282e-05
1.31154e-05
1.21526e-05
1.13444e-05
1.06982e-05
1.02248e-05
9.93532e-06
4.69054e-05
4.69054e-05
4.11801e-05
3.61566e-05
3.20328e-05
2.85767e-05
2.56772e-05
2.3225e-05
2.11119e-05
1.92844e-05
1.76815e-05
1.6277e-05
1.50442e-05
1.39729e-05
1.30561e-05
1.22945e-05
1.16919e-05
1.12544e-05
1.09887e-05
4.55028e-05
4.55028e-05
4.04983e-05
3.60258e-05
3.22608e-05
2.90046e-05
2.62326e-05
2.38438e-05
2.17775e-05
1.99813e-05
1.84111e-05
1.70398e-05
1.58444e-05
1.48131e-05
1.3938e-05
1.3217e-05
1.26509e-05
1.22428e-05
1.19962e-05
4.45443e-05
4.45443e-05
4.00396e-05
3.59631e-05
3.24409e-05
2.93548e-05
2.66963e-05
2.43841e-05
2.2377e-05
2.06266e-05
1.90991e-05
1.77675e-05
1.66124e-05
1.56208e-05
1.47847e-05
1.41e-05
1.35656e-05
1.31822e-05
1.29514e-05
4.35664e-05
4.35664e-05
3.94581e-05
3.57327e-05
3.24649e-05
2.95698e-05
2.70477e-05
2.48341e-05
2.29022e-05
2.12109e-05
1.97343e-05
1.84481e-05
1.73355e-05
1.63838e-05
1.55847e-05
1.49333e-05
1.44271e-05
1.40653e-05
1.3848e-05
4.2708e-05
4.2708e-05
3.89428e-05
3.55091e-05
3.2453e-05
2.97266e-05
2.73296e-05
2.52143e-05
2.33602e-05
2.17329e-05
2.03112e-05
1.90734e-05
1.80047e-05
1.70927e-05
1.63295e-05
1.57092e-05
1.52288e-05
1.48863e-05
1.46811e-05
4.19286e-05
4.19286e-05
3.84195e-05
3.52212e-05
3.23565e-05
2.97912e-05
2.75214e-05
2.55101e-05
2.374e-05
2.21829e-05
2.08208e-05
1.96347e-05
1.86115e-05
1.77398e-05
1.70117e-05
1.64213e-05
1.5965e-05
1.56404e-05
1.54461e-05
4.11497e-05
4.11497e-05
3.78812e-05
3.48965e-05
3.22069e-05
2.97909e-05
2.76422e-05
2.57326e-05
2.40469e-05
2.25615e-05
2.12607e-05
2.01279e-05
1.91511e-05
1.83197e-05
1.76263e-05
1.70649e-05
1.66317e-05
1.63239e-05
1.61399e-05
4.04604e-05
4.04604e-05
3.73623e-05
3.45433e-05
3.20027e-05
2.97208e-05
2.76869e-05
2.58771e-05
2.42763e-05
2.28642e-05
2.16266e-05
2.05485e-05
1.9619e-05
1.88284e-05
1.81695e-05
1.76367e-05
1.7226e-05
1.69344e-05
1.67601e-05
3.97e-05
3.97e-05
3.67787e-05
3.41235e-05
3.17287e-05
2.95769e-05
2.76557e-05
2.59445e-05
2.44288e-05
2.30908e-05
2.19171e-05
2.08946e-05
2.0013e-05
1.92635e-05
1.86393e-05
1.81348e-05
1.77461e-05
1.74704e-05
1.73057e-05
3.90103e-05
3.90103e-05
3.62074e-05
3.36777e-05
3.14053e-05
2.93692e-05
2.75532e-05
2.59368e-05
2.45048e-05
2.32406e-05
2.21315e-05
2.11652e-05
2.03322e-05
1.96241e-05
1.90346e-05
1.85583e-05
1.81916e-05
1.79316e-05
1.77763e-05
3.8203e-05
3.8203e-05
3.55394e-05
3.31451e-05
3.09999e-05
2.90815e-05
2.73716e-05
2.58506e-05
2.45031e-05
2.33135e-05
2.22698e-05
2.13604e-05
2.05765e-05
1.99103e-05
1.93557e-05
1.89078e-05
1.8563e-05
1.83186e-05
1.81727e-05
3.74138e-05
3.74138e-05
3.48515e-05
3.2569e-05
3.05367e-05
2.87271e-05
2.71186e-05
2.56905e-05
2.44265e-05
2.33115e-05
2.23334e-05
2.14815e-05
2.07472e-05
2.01232e-05
1.96039e-05
1.91846e-05
1.88619e-05
1.86331e-05
1.84965e-05
3.64959e-05
3.64959e-05
3.40562e-05
3.1899e-05
2.99876e-05
2.82915e-05
2.67873e-05
2.5454e-05
2.42749e-05
2.32355e-05
2.23241e-05
2.15304e-05
2.08464e-05
2.02652e-05
1.97815e-05
1.9391e-05
1.90905e-05
1.88774e-05
1.87503e-05
3.54936e-05
3.54936e-05
3.31844e-05
3.11545e-05
2.93647e-05
2.77827e-05
2.63835e-05
2.51455e-05
2.40521e-05
2.30891e-05
2.2245e-05
2.15102e-05
2.0877e-05
2.03391e-05
1.98915e-05
1.95301e-05
1.9252e-05
1.90548e-05
1.89371e-05
3.44213e-05
3.44213e-05
3.22339e-05
3.03314e-05
2.86655e-05
2.72e-05
2.59077e-05
2.47669e-05
2.37608e-05
2.28755e-05
2.20998e-05
2.14247e-05
2.08431e-05
2.0349e-05
1.99378e-05
1.96058e-05
1.93503e-05
1.91692e-05
1.9061e-05
3.31395e-05
3.31395e-05
3.11443e-05
2.94047e-05
2.78809e-05
2.65417e-05
2.53619e-05
2.43216e-05
2.34048e-05
2.25985e-05
2.18924e-05
2.1278e-05
2.07487e-05
2.02989e-05
1.99246e-05
1.96223e-05
1.93896e-05
1.92246e-05
1.91263e-05
3.18886e-05
3.18886e-05
3.00333e-05
2.84337e-05
2.70425e-05
2.58261e-05
2.4758e-05
2.38184e-05
2.29916e-05
2.22651e-05
2.16291e-05
2.1076e-05
2.05994e-05
2.01944e-05
1.98573e-05
1.9585e-05
1.93754e-05
1.92269e-05
1.91379e-05
3.03916e-05
3.03916e-05
2.87659e-05
2.73543e-05
2.61215e-05
2.5042e-05
2.40932e-05
2.32588e-05
2.25244e-05
2.18793e-05
2.13145e-05
2.08233e-05
2.03999e-05
2.00401e-05
1.97405e-05
1.94985e-05
1.9312e-05
1.91798e-05
1.91007e-05
2.89744e-05
2.89744e-05
2.75164e-05
2.62609e-05
2.51705e-05
2.42202e-05
2.33875e-05
2.26567e-05
2.20144e-05
2.14507e-05
2.09573e-05
2.05281e-05
2.01582e-05
1.98437e-05
1.95816e-05
1.93698e-05
1.92065e-05
1.90907e-05
1.90215e-05
2.739e-05
2.739e-05
2.61562e-05
2.50889e-05
2.41591e-05
2.33478e-05
2.26365e-05
2.20124e-05
2.14637e-05
2.09822e-05
2.05606e-05
2.01938e-05
1.98774e-05
1.96082e-05
1.93838e-05
1.92022e-05
1.90622e-05
1.89629e-05
1.89036e-05
2.58761e-05
2.58761e-05
2.48244e-05
2.39209e-05
2.31378e-05
2.2458e-05
2.18639e-05
2.13441e-05
2.08878e-05
2.04876e-05
2.01374e-05
1.98324e-05
1.95692e-05
1.9345e-05
1.91578e-05
1.90064e-05
1.88895e-05
1.88065e-05
1.87569e-05
2.42912e-05
2.42912e-05
2.34415e-05
2.27135e-05
2.20838e-05
2.15387e-05
2.10634e-05
2.06483e-05
2.02843e-05
1.99653e-05
1.96859e-05
1.94424e-05
1.92321e-05
1.90527e-05
1.89027e-05
1.8781e-05
1.86871e-05
1.86203e-05
1.85804e-05
2.27676e-05
2.27676e-05
2.20958e-05
2.15274e-05
2.10409e-05
2.06241e-05
2.02633e-05
1.995e-05
1.96762e-05
1.94366e-05
1.92267e-05
1.90436e-05
1.8885e-05
1.87493e-05
1.86357e-05
1.85433e-05
1.84718e-05
1.84208e-05
1.83904e-05
2.12337e-05
2.12337e-05
2.07402e-05
2.0331e-05
1.99869e-05
1.96971e-05
1.94492e-05
1.92362e-05
1.90511e-05
1.88896e-05
1.87481e-05
1.86243e-05
1.85167e-05
1.84242e-05
1.83463e-05
1.82827e-05
1.82332e-05
1.81978e-05
1.81766e-05
1.97678e-05
1.97678e-05
1.94382e-05
1.91779e-05
1.89685e-05
1.87998e-05
1.86604e-05
1.85441e-05
1.84446e-05
1.83585e-05
1.8283e-05
1.82165e-05
1.8158e-05
1.81071e-05
1.80636e-05
1.80276e-05
1.79994e-05
1.7979e-05
1.79667e-05
1.83188e-05
1.83188e-05
1.81471e-05
1.80308e-05
1.79522e-05
1.79012e-05
1.78674e-05
1.7845e-05
1.78288e-05
1.78162e-05
1.78049e-05
1.77941e-05
1.77835e-05
1.7773e-05
1.7763e-05
1.77539e-05
1.77463e-05
1.77404e-05
1.77368e-05
1.6954e-05
1.6954e-05
1.69514e-05
1.6997e-05
1.70579e-05
1.71244e-05
1.71913e-05
1.72541e-05
1.7311e-05
1.73604e-05
1.74022e-05
1.74366e-05
1.74642e-05
1.74857e-05
1.75019e-05
1.75137e-05
1.75215e-05
1.75261e-05
1.75261e-05
1.56169e-05
1.57373e-05
1.58893e-05
1.60552e-05
1.62246e-05
1.63882e-05
1.65415e-05
1.66807e-05
1.68047e-05
1.69127e-05
1.70053e-05
1.70832e-05
1.71474e-05
1.71993e-05
1.72399e-05
1.72702e-05
1.72913e-05
1.73037e-05
1.73037e-05
1.43803e-05
1.46376e-05
1.49146e-05
1.51935e-05
1.54639e-05
1.57175e-05
1.59502e-05
1.61595e-05
1.63448e-05
1.65062e-05
1.66449e-05
1.67622e-05
1.68597e-05
1.6939e-05
1.70015e-05
1.70488e-05
1.70817e-05
1.71012e-05
1.71012e-05
1.3188e-05
1.35801e-05
1.39801e-05
1.43699e-05
1.47393e-05
1.50807e-05
1.53908e-05
1.56681e-05
1.59127e-05
1.61257e-05
1.63089e-05
1.64641e-05
1.65936e-05
1.66992e-05
1.6783e-05
1.68464e-05
1.68907e-05
1.6917e-05
1.6917e-05
1.21012e-05
1.26201e-05
1.31329e-05
1.36223e-05
1.40789e-05
1.44966e-05
1.48734e-05
1.52087e-05
1.55038e-05
1.57605e-05
1.59812e-05
1.61684e-05
1.63248e-05
1.64527e-05
1.65542e-05
1.66312e-05
1.66851e-05
1.67171e-05
1.67171e-05
1.1107e-05
1.17558e-05
1.23832e-05
1.29732e-05
1.35174e-05
1.40116e-05
1.44548e-05
1.48478e-05
1.51928e-05
1.54925e-05
1.575e-05
1.59686e-05
1.61512e-05
1.63007e-05
1.64196e-05
1.65098e-05
1.6573e-05
1.66104e-05
1.66104e-05
1.01993e-05
1.09612e-05
1.16837e-05
1.23538e-05
1.29659e-05
1.35177e-05
1.40103e-05
1.44458e-05
1.48274e-05
1.51586e-05
1.54433e-05
1.56849e-05
1.58868e-05
1.60522e-05
1.61837e-05
1.62836e-05
1.63538e-05
1.63956e-05
1.63956e-05
9.48825e-06
1.03691e-05
1.1191e-05
1.1945e-05
1.26284e-05
1.32412e-05
1.3786e-05
1.42661e-05
1.46859e-05
1.50497e-05
1.53618e-05
1.56265e-05
1.58478e-05
1.60291e-05
1.61734e-05
1.62831e-05
1.63601e-05
1.64059e-05
1.64059e-05
8.81738e-06
9.78087e-06
1.06665e-05
1.14706e-05
1.2194e-05
1.28396e-05
1.34115e-05
1.39148e-05
1.43544e-05
1.47356e-05
1.5063e-05
1.53411e-05
1.55735e-05
1.57638e-05
1.59153e-05
1.60305e-05
1.61114e-05
1.61592e-05
1.61592e-05
8.49791e-06
9.54498e-06
1.04976e-05
1.13569e-05
1.21266e-05
1.28114e-05
1.34169e-05
1.39487e-05
1.44127e-05
1.48143e-05
1.51587e-05
1.54509e-05
1.56954e-05
1.58957e-05
1.60549e-05
1.61759e-05
1.62608e-05
1.63112e-05
1.63112e-05
8.12236e-06
9.1862e-06
1.01478e-05
1.10118e-05
1.17836e-05
1.24692e-05
1.30748e-05
1.36063e-05
1.40697e-05
1.44708e-05
1.48147e-05
1.51063e-05
1.535e-05
1.55497e-05
1.57087e-05
1.58297e-05
1.59145e-05
1.59648e-05
1.59648e-05
)
;

boundaryField
{
    leftWall
    {
        type            calculated;
        value           uniform 0;
    }
    rightWall
    {
        type            calculated;
        value           uniform 0;
    }
    lowerWall
    {
        type            calculated;
        value           uniform 0;
    }
    atmosphere
    {
        type            calculated;
        value           uniform 0;
    }
    defaultFaces
    {
        type            empty;
    }
}


// ************************************************************************* //
