/*--------------------------------*- C++ -*----------------------------------*\
| =========                 |                                                 |
| \\      /  F ield         | OpenFOAM: The Open Source CFD Toolbox           |
|  \\    /   O peration     | Version:  2012                                  |
|   \\  /    A nd           | Website:  www.openfoam.com                      |
|    \\/     M anipulation  |                                                 |
\*---------------------------------------------------------------------------*/
FoamFile
{
    version     2.0;
    format      ascii;
    class       volScalarField;
    location    "0.04";
    object      minKappa;
}
// * * * * * * * * * * * * * * * * * * * * * * * * * * * * * * * * * * * * * //

dimensions      [0 0 0 0 0 0 0];


internalField   nonuniform List<scalar> 
2268
(
1.24087e-07
2.67908e-07
4.48022e-07
6.13719e-07
8.23601e-07
1.00537e-06
1.25991e-06
1.4827e-06
1.80289e-06
2.13284e-06
2.56651e-06
3.18957e-06
6.7819e-06
3.08394e-05
0.000134024
0.000131135
0.000102312
7.24863e-05
5.22716e-05
3.87092e-05
2.75128e-05
1.73294e-05
7.89643e-06
1.24087e-07
2.67908e-07
4.48022e-07
6.13719e-07
8.23601e-07
1.00537e-06
1.25991e-06
1.4827e-06
1.80289e-06
2.11862e-06
2.56324e-06
3.11381e-06
6.7819e-06
6.28335e-05
0.000126775
0.000116993
8.78662e-05
6.85064e-05
5.10742e-05
3.87092e-05
2.75128e-05
1.73294e-05
7.89643e-06
1.85211e-07
3.0149e-07
4.68979e-07
6.28994e-07
8.35004e-07
1.01352e-06
1.26692e-06
1.48383e-06
1.8069e-06
2.09984e-06
2.55171e-06
3.0329e-06
1.13209e-05
8.08963e-05
0.000115228
9.98292e-05
7.54573e-05
6.46366e-05
4.99286e-05
3.89041e-05
2.85195e-05
1.93235e-05
1.18063e-05
2.57366e-07
3.50299e-07
5.01706e-07
6.53469e-07
8.5342e-07
1.02695e-06
1.27808e-06
1.48631e-06
1.81189e-06
2.07966e-06
2.53172e-06
2.94691e-06
1.21167e-05
8.70647e-05
9.93721e-05
8.00714e-05
6.90017e-05
6.11235e-05
4.9335e-05
3.93055e-05
3.00924e-05
2.23238e-05
1.66662e-05
3.32447e-07
4.08445e-07
5.43655e-07
6.85824e-07
8.7799e-07
1.04531e-06
1.29263e-06
1.49074e-06
1.81655e-06
2.06092e-06
2.50527e-06
2.85949e-06
1.27062e-05
8.49099e-05
8.22933e-05
6.37527e-05
6.59539e-05
5.78139e-05
4.88753e-05
4.00248e-05
3.21397e-05
2.58357e-05
2.15419e-05
4.08063e-07
4.71895e-07
5.92393e-07
7.24657e-07
9.07825e-07
1.06833e-06
1.30999e-06
1.49805e-06
1.82046e-06
2.04353e-06
2.47233e-06
2.77361e-06
1.31461e-05
8.05026e-05
6.82609e-05
5.41821e-05
6.3195e-05
5.5084e-05
4.85153e-05
4.0871e-05
3.43928e-05
2.9852e-05
2.71768e-05
4.83161e-07
5.38036e-07
6.45731e-07
7.68422e-07
9.41809e-07
1.09526e-06
1.32931e-06
1.50803e-06
1.82274e-06
2.02831e-06
2.43547e-06
2.69352e-06
1.34181e-05
7.58321e-05
5.73655e-05
5.02186e-05
6.04004e-05
5.29232e-05
4.80922e-05
4.18366e-05
3.68612e-05
3.39873e-05
3.22905e-05
5.57229e-07
6.05308e-07
7.02022e-07
8.15811e-07
9.79025e-07
1.12549e-06
1.35018e-06
1.52065e-06
1.82383e-06
2.02831e-06
2.43547e-06
2.69352e-06
1.35333e-05
7.58321e-05
5.73655e-05
5.02186e-05
6.04004e-05
5.29232e-05
4.80922e-05
4.27514e-05
3.92689e-05
3.89287e-05
3.95433e-05
1.81798e-06
4.35831e-06
6.07033e-06
6.96467e-06
7.49094e-06
7.39808e-06
7.20891e-06
6.7434e-06
6.25172e-06
5.66474e-06
5.07492e-06
4.46182e-06
3.85461e-06
3.24824e-06
2.65059e-06
2.06019e-06
1.47943e-06
9.12161e-07
3.92322e-07
1.81798e-06
4.35831e-06
6.07033e-06
6.96467e-06
7.49094e-06
7.39808e-06
7.20891e-06
6.7434e-06
6.25172e-06
5.66474e-06
5.07492e-06
4.46182e-06
3.85461e-06
3.24824e-06
2.65059e-06
2.06019e-06
1.47943e-06
9.12161e-07
3.92322e-07
2.64398e-06
4.8622e-06
6.36833e-06
7.14946e-06
7.61887e-06
7.47603e-06
7.26281e-06
6.77999e-06
6.28086e-06
5.68913e-06
5.09792e-06
4.48503e-06
3.87982e-06
3.277e-06
2.68512e-06
2.10399e-06
1.53948e-06
1.00584e-06
5.7528e-07
3.90684e-06
5.67552e-06
6.84286e-06
7.42627e-06
7.81286e-06
7.59421e-06
7.34832e-06
6.83884e-06
6.32823e-06
5.72914e-06
5.13584e-06
4.52334e-06
3.92141e-06
3.32433e-06
2.74164e-06
2.17497e-06
1.63463e-06
1.14553e-06
7.95062e-07
5.01681e-06
6.74942e-06
7.53234e-06
7.84373e-06
8.10143e-06
7.76689e-06
7.47139e-06
6.92253e-06
6.39485e-06
5.78501e-06
5.18861e-06
4.5765e-06
3.97889e-06
3.38944e-06
2.81878e-06
2.27049e-06
1.75911e-06
1.31665e-06
1.02695e-06
6.7892e-06
8.08916e-06
8.39183e-06
8.32273e-06
8.43848e-06
7.96891e-06
7.61871e-06
7.02464e-06
6.47744e-06
5.85503e-06
5.25515e-06
4.64371e-06
4.0514e-06
3.47118e-06
2.91474e-06
2.38742e-06
1.90696e-06
1.5082e-06
1.26358e-06
8.11594e-06
9.86009e-06
9.52931e-06
8.96342e-06
8.87334e-06
8.22617e-06
7.80058e-06
7.15003e-06
6.57789e-06
5.9399e-06
5.33546e-06
4.7246e-06
4.13819e-06
3.56837e-06
3.0276e-06
2.52259e-06
2.0729e-06
1.71291e-06
1.50216e-06
1.192e-05
1.19174e-05
1.08753e-05
9.6104e-06
9.32352e-06
8.49597e-06
7.99394e-06
7.28779e-06
6.6899e-06
6.03652e-06
5.4275e-06
4.81778e-06
4.23795e-06
3.67947e-06
3.15527e-06
2.67293e-06
2.25257e-06
1.92608e-06
1.74135e-06
9.84884e-07
1.05201e-06
1.18889e-06
1.35445e-06
1.59387e-06
1.81272e-06
2.14736e-06
2.40351e-06
2.85507e-06
3.15562e-06
3.753e-06
4.10693e-06
1.35699e-05
0.000105525
7.7309e-05
7.68876e-05
9.02566e-05
8.00806e-05
7.44816e-05
6.79236e-05
6.52425e-05
6.86192e-05
7.85517e-05
1.65641e-06
1.73075e-06
1.88371e-06
2.07854e-06
2.31514e-06
2.57282e-06
2.88721e-06
3.22915e-06
3.63425e-06
4.0574e-06
4.54835e-06
5.04286e-06
1.35887e-05
9.76836e-05
6.79307e-05
8.71464e-05
0.000103063
9.6983e-05
9.17375e-05
8.7783e-05
8.62051e-05
8.31004e-05
7.00352e-05
1.95309e-06
2.01524e-06
2.14244e-06
2.31203e-06
2.52546e-06
2.75241e-06
3.02867e-06
3.33319e-06
3.68998e-06
4.06033e-06
4.48307e-06
4.90509e-06
1.35057e-05
8.98761e-05
6.32885e-05
8.15337e-05
9.67938e-05
9.25801e-05
8.84142e-05
8.39406e-05
8.21077e-05
7.74506e-05
6.03079e-05
2.22755e-06
2.28066e-06
2.38798e-06
2.5367e-06
2.72779e-06
2.92768e-06
3.16976e-06
3.43994e-06
3.75319e-06
4.07791e-06
4.44301e-06
4.80752e-06
1.34375e-05
8.68929e-05
6.32885e-05
7.95552e-05
9.11157e-05
8.7519e-05
8.31203e-05
7.95773e-05
7.571e-05
7.1787e-05
5.10854e-05
2.47902e-06
2.52499e-06
2.61649e-06
2.74747e-06
2.9157e-06
3.0916e-06
3.30341e-06
3.542e-06
3.81573e-06
4.10042e-06
4.41528e-06
4.73232e-06
1.33802e-05
8.57144e-05
6.40561e-05
7.91647e-05
8.64177e-05
8.34971e-05
7.92667e-05
7.57029e-05
7.18562e-05
6.7559e-05
4.6873e-05
2.70723e-06
2.74734e-06
2.82601e-06
2.94165e-06
3.08968e-06
3.24468e-06
3.43009e-06
3.64063e-06
3.87979e-06
4.13018e-06
4.40242e-06
4.67981e-06
1.33477e-05
8.48565e-05
6.65435e-05
7.89795e-05
8.24447e-05
7.93625e-05
7.49966e-05
7.11728e-05
6.69528e-05
6.27637e-05
4.29951e-05
2.91228e-06
2.94743e-06
3.01549e-06
3.11772e-06
3.24547e-06
3.38206e-06
3.54442e-06
3.73021e-06
3.93915e-06
4.16012e-06
4.39626e-06
4.64096e-06
1.33306e-05
8.36739e-05
6.9226e-05
7.88985e-05
7.90248e-05
7.60497e-05
7.17682e-05
6.80159e-05
6.38811e-05
5.97434e-05
4.07617e-05
3.09591e-06
3.12686e-06
3.18609e-06
3.27664e-06
3.38865e-06
3.5094e-06
3.65197e-06
3.81617e-06
3.99879e-06
4.19413e-06
4.39912e-06
4.6152e-06
1.33249e-05
8.14774e-05
7.15188e-05
7.83342e-05
7.60971e-05
7.27145e-05
6.8482e-05
6.47231e-05
6.06528e-05
5.66536e-05
3.86894e-05
3.25702e-06
3.28433e-06
3.3361e-06
3.41639e-06
3.50897e-06
3.61577e-06
3.74124e-06
3.88698e-06
4.0475e-06
4.22191e-06
4.40201e-06
4.59601e-06
1.33259e-05
7.82637e-05
7.33872e-05
7.76317e-05
7.34587e-05
7.00215e-05
6.59736e-05
6.22946e-05
5.83771e-05
5.45305e-05
3.72698e-05
3.40113e-06
3.42535e-06
3.47091e-06
3.5424e-06
3.62722e-06
3.72234e-06
3.83325e-06
3.96271e-06
4.10342e-06
4.25812e-06
4.41483e-06
4.58621e-06
1.33311e-05
6.8385e-05
7.31469e-05
7.47758e-05
7.05659e-05
6.71773e-05
6.33657e-05
5.98022e-05
5.60885e-05
5.24411e-05
3.5929e-05
3.52155e-06
3.5431e-06
3.58333e-06
3.6414e-06
3.70709e-06
3.79193e-06
3.89055e-06
4.00705e-06
4.13273e-06
4.27406e-06
4.41557e-06
4.57498e-06
1.33345e-05
5.25729e-05
6.73685e-05
7.18668e-05
6.85056e-05
6.50985e-05
6.15994e-05
5.80615e-05
5.44906e-05
5.09462e-05
3.49468e-05
3.63267e-06
3.65202e-06
3.68788e-06
3.74531e-06
3.81358e-06
3.89061e-06
3.97874e-06
4.08279e-06
4.19317e-06
4.31769e-06
4.43945e-06
4.57672e-06
1.3342e-05
3.84113e-05
5.80442e-05
6.80101e-05
6.58256e-05
6.26128e-05
5.94077e-05
5.60584e-05
5.2717e-05
4.93637e-05
3.39406e-05
3.71481e-06
3.72563e-06
3.7488e-06
3.78826e-06
3.84125e-06
3.91047e-06
3.99016e-06
4.08636e-06
4.18801e-06
4.30701e-06
4.42327e-06
4.56297e-06
1.33392e-05
2.10879e-05
5.32326e-05
6.49619e-05
6.49388e-05
6.15556e-05
5.85962e-05
5.50683e-05
5.17308e-05
4.83498e-05
3.32347e-05
3.80009e-06
3.81588e-06
3.84477e-06
3.89194e-06
3.94667e-06
4.02133e-06
4.09318e-06
4.17926e-06
4.26911e-06
4.37302e-06
4.47213e-06
4.58168e-06
1.33949e-05
1.57816e-05
3.82805e-05
6.3856e-05
6.23083e-05
5.93706e-05
5.65717e-05
5.33747e-05
5.02341e-05
4.70422e-05
3.23885e-05
3.81423e-06
3.81423e-06
3.83394e-06
3.86773e-06
3.91281e-06
3.9723e-06
4.04011e-06
4.12363e-06
4.21046e-06
4.31696e-06
4.4172e-06
4.54818e-06
1.33799e-05
1.57816e-05
4.81328e-05
6.32031e-05
6.42163e-05
6.03159e-05
5.71365e-05
5.32722e-05
4.98163e-05
4.6395e-05
3.18514e-05
3.91195e-06
3.92557e-06
3.95007e-06
3.99093e-06
4.03709e-06
4.10553e-06
4.16563e-06
4.25773e-06
4.31779e-06
4.43005e-06
4.4857e-06
4.58775e-06
1.40478e-05
2.59965e-05
4.69718e-05
6.26828e-05
6.1294e-05
5.84144e-05
5.52098e-05
5.18232e-05
4.84927e-05
4.52471e-05
3.1073e-05
3.84124e-06
3.84124e-06
3.8588e-06
3.88901e-06
3.92908e-06
3.98208e-06
4.04183e-06
4.11571e-06
4.19115e-06
4.2853e-06
4.37373e-06
4.50545e-06
1.34299e-05
3.40485e-05
5.92452e-05
6.96387e-05
6.7305e-05
6.19386e-05
5.69432e-05
5.22892e-05
4.82684e-05
4.46568e-05
3.05225e-05
4.27763e-06
4.29397e-06
4.32386e-06
4.3743e-06
4.43191e-06
4.51926e-06
4.59938e-06
4.73159e-06
4.82382e-06
5.03178e-06
5.24146e-06
6.80178e-06
3.88177e-05
4.95245e-05
6.2272e-05
6.59433e-05
6.51484e-05
6.07188e-05
5.58806e-05
5.14021e-05
4.72796e-05
4.3652e-05
2.97677e-05
1.15172e-05
1.15914e-05
1.17333e-05
1.19686e-05
1.2252e-05
1.26683e-05
1.30871e-05
1.37242e-05
1.42519e-05
1.53183e-05
1.77444e-05
3.56966e-05
8.63345e-05
9.18707e-05
7.23611e-05
8.72505e-05
7.27212e-05
6.3397e-05
5.60129e-05
5.06334e-05
4.61279e-05
4.24498e-05
2.88998e-05
6.41016e-05
6.44678e-05
6.51473e-05
6.62668e-05
6.76603e-05
6.95794e-05
7.18087e-05
7.45235e-05
7.81283e-05
8.24287e-05
9.56464e-05
0.000121667
0.000149172
0.000139671
0.000129391
0.000106337
8.39127e-05
6.80673e-05
5.82431e-05
5.09701e-05
4.57198e-05
4.15538e-05
2.81241e-05
6.58331e-05
6.58331e-05
6.62553e-05
6.69965e-05
6.80626e-05
6.94484e-05
7.13923e-05
7.35363e-05
7.71685e-05
8.03705e-05
8.84231e-05
9.89349e-05
0.000137191
0.000145814
0.000105622
8.22722e-05
6.81757e-05
5.85708e-05
5.18039e-05
4.66374e-05
4.25057e-05
3.91261e-05
2.66959e-05
6.4987e-05
6.52478e-05
6.56813e-05
6.64781e-05
6.74559e-05
6.8788e-05
7.07205e-05
7.24312e-05
7.65975e-05
7.82847e-05
8.76834e-05
8.90055e-05
0.000106186
0.00010435
8.63945e-05
7.63571e-05
6.54288e-05
5.73554e-05
5.08111e-05
4.55492e-05
4.12818e-05
3.77913e-05
2.56977e-05
5.93255e-05
5.93255e-05
5.95803e-05
6.00385e-05
6.06906e-05
6.15217e-05
6.27219e-05
6.39772e-05
6.62199e-05
6.82243e-05
7.28496e-05
7.37576e-05
8.42893e-05
8.35479e-05
7.00535e-05
6.48434e-05
5.60779e-05
5.0141e-05
4.50317e-05
4.10354e-05
3.77031e-05
3.4952e-05
2.40028e-05
5.66354e-05
5.67827e-05
5.69756e-05
5.74197e-05
5.78609e-05
5.85593e-05
5.9466e-05
6.01647e-05
6.2111e-05
6.20671e-05
6.5722e-05
6.40874e-05
6.73996e-05
6.52742e-05
5.90311e-05
5.55464e-05
4.95021e-05
4.58334e-05
4.15006e-05
3.83484e-05
3.53549e-05
3.29373e-05
2.27213e-05
5.22049e-05
5.22962e-05
5.23772e-05
5.26477e-05
5.28353e-05
5.32311e-05
5.36598e-05
5.39433e-05
5.50098e-05
5.46302e-05
5.67484e-05
5.53081e-05
5.71714e-05
5.53777e-05
5.09465e-05
4.81452e-05
4.34938e-05
4.07049e-05
3.72455e-05
3.47725e-05
3.23195e-05
3.03428e-05
2.10729e-05
4.89566e-05
4.90048e-05
4.90081e-05
4.91495e-05
4.91674e-05
4.93548e-05
4.94622e-05
4.9492e-05
4.98859e-05
4.93161e-05
5.00493e-05
4.85957e-05
4.85081e-05
4.65975e-05
4.39091e-05
4.16505e-05
3.84604e-05
3.62402e-05
3.35652e-05
3.15576e-05
2.95522e-05
2.79118e-05
1.96533e-05
4.52102e-05
4.52154e-05
4.51441e-05
4.51556e-05
4.5013e-05
4.49916e-05
4.48211e-05
4.4622e-05
4.45562e-05
4.38973e-05
4.39762e-05
4.27149e-05
4.23181e-05
4.06788e-05
3.85852e-05
3.6606e-05
3.41305e-05
3.22385e-05
3.012e-05
2.84649e-05
2.68492e-05
2.55083e-05
1.81223e-05
4.22666e-05
4.22392e-05
4.21158e-05
4.20308e-05
4.17796e-05
4.16077e-05
4.12464e-05
4.0879e-05
4.04696e-05
3.97041e-05
3.92326e-05
3.79618e-05
3.70508e-05
3.54637e-05
3.37963e-05
3.21008e-05
3.02315e-05
2.86546e-05
2.69992e-05
2.56357e-05
2.43416e-05
2.32487e-05
1.67153e-05
3.92104e-05
3.91524e-05
3.89826e-05
3.88064e-05
3.84621e-05
3.81488e-05
3.76419e-05
3.71261e-05
3.65043e-05
3.56723e-05
3.49548e-05
3.37708e-05
3.27971e-05
3.13824e-05
2.9934e-05
2.84314e-05
2.688e-05
2.5504e-05
2.41525e-05
2.30078e-05
2.19674e-05
2.1086e-05
1.53105e-05
3.66823e-05
3.66014e-05
3.63983e-05
3.61553e-05
3.57456e-05
3.53308e-05
3.47213e-05
3.40964e-05
3.33179e-05
3.24167e-05
3.14924e-05
3.02997e-05
2.91699e-05
2.78116e-05
2.64834e-05
2.51361e-05
2.38243e-05
2.26376e-05
2.15274e-05
2.05752e-05
1.97436e-05
1.90459e-05
1.39915e-05
3.42507e-05
3.41493e-05
3.39169e-05
3.36137e-05
3.31485e-05
3.26421e-05
3.19543e-05
3.12312e-05
3.03548e-05
2.93946e-05
2.83757e-05
2.72044e-05
2.60608e-05
2.47835e-05
2.35427e-05
2.23032e-05
2.1135e-05
2.00759e-05
1.91283e-05
1.83232e-05
1.76549e-05
1.71136e-05
1.27091e-05
3.21852e-05
3.20686e-05
3.18145e-05
3.14671e-05
3.09613e-05
3.0388e-05
2.96433e-05
2.88474e-05
2.78974e-05
2.68842e-05
2.57807e-05
2.45905e-05
2.33888e-05
2.21339e-05
2.09254e-05
1.97565e-05
1.86827e-05
1.77255e-05
1.69013e-05
1.62204e-05
1.56875e-05
1.52842e-05
1.15033e-05
3.0295e-05
3.01651e-05
2.98916e-05
2.95055e-05
2.89639e-05
2.83319e-05
2.75399e-05
2.66782e-05
2.56748e-05
2.46114e-05
2.34606e-05
2.22563e-05
2.1038e-05
1.9802e-05
1.86157e-05
1.74883e-05
1.64699e-05
1.55786e-05
1.48394e-05
1.42546e-05
1.38322e-05
1.355e-05
1.03365e-05
2.86922e-05
2.85523e-05
2.82639e-05
2.78488e-05
2.72797e-05
2.66034e-05
2.57744e-05
2.48615e-05
2.38141e-05
2.27047e-05
2.15061e-05
2.02699e-05
1.9012e-05
1.77625e-05
1.65653e-05
1.54474e-05
1.44499e-05
1.35968e-05
1.29139e-05
1.24046e-05
1.20752e-05
1.19029e-05
9.24473e-06
2.72708e-05
2.71221e-05
2.68199e-05
2.63795e-05
2.57851e-05
2.50703e-05
2.42084e-05
2.325e-05
2.21655e-05
2.10128e-05
1.97765e-05
1.85071e-05
1.72171e-05
1.59447e-05
1.47256e-05
1.35952e-05
1.2594e-05
1.17529e-05
1.11021e-05
1.06501e-05
1.04016e-05
1.03328e-05
8.19014e-06
2.61051e-05
2.59498e-05
2.56367e-05
2.51769e-05
2.45622e-05
2.37739e-05
2.28518e-05
2.1818e-05
2.06876e-05
1.94804e-05
1.82157e-05
1.69236e-05
1.56311e-05
1.43761e-05
1.31131e-05
1.19422e-05
1.09063e-05
1.00466e-05
9.40022e-06
8.98586e-06
8.8083e-06
8.84101e-06
7.2064e-06
2.50994e-05
2.49382e-05
2.4615e-05
2.41383e-05
2.35054e-05
2.27343e-05
2.17812e-05
2.07092e-05
1.95374e-05
1.82854e-05
1.69738e-05
1.5631e-05
1.42849e-05
1.29718e-05
1.16748e-05
1.04437e-05
9.34836e-06
8.44147e-06
7.77384e-06
7.38068e-06
7.27109e-06
7.41225e-06
6.27468e-06
2.43346e-05
2.41204e-05
2.3715e-05
2.31539e-05
2.24449e-05
2.15953e-05
2.06166e-05
1.95206e-05
1.83233e-05
1.70429e-05
1.57002e-05
1.43213e-05
1.29334e-05
1.15715e-05
1.02738e-05
9.08705e-06
7.96744e-06
6.97346e-06
6.24443e-06
5.84609e-06
5.80276e-06
6.06916e-06
5.40446e-06
2.37097e-05
2.35407e-05
2.32033e-05
2.26692e-05
2.19449e-05
2.10746e-05
2.00694e-05
1.89416e-05
1.77066e-05
1.63822e-05
1.49884e-05
1.35492e-05
1.20906e-05
1.06444e-05
9.24699e-06
7.94532e-06
6.74541e-06
5.62163e-06
4.77795e-06
4.3393e-06
4.37415e-06
4.80414e-06
4.64061e-06
2.31191e-05
2.28633e-05
2.24408e-05
2.18569e-05
2.11196e-05
2.02372e-05
1.92207e-05
1.80818e-05
1.68352e-05
1.54971e-05
1.4086e-05
1.26227e-05
1.113e-05
9.63481e-06
8.16824e-06
6.77158e-06
5.50372e-06
4.45955e-06
3.44118e-06
2.88706e-06
3.03014e-06
3.69849e-06
3.94123e-06
2.30041e-05
2.28321e-05
2.24339e-05
2.18438e-05
2.10956e-05
2.01968e-05
1.91579e-05
1.7991e-05
1.67106e-05
1.53327e-05
1.38753e-05
1.23581e-05
1.08015e-05
9.2284e-06
7.66334e-06
6.13685e-06
4.69306e-06
3.41879e-06
2.34782e-06
1.45362e-06
1.84111e-06
2.7966e-06
3.47588e-06
2.24943e-05
2.22399e-05
2.18183e-05
2.12338e-05
2.04929e-05
1.9604e-05
1.85772e-05
1.74244e-05
1.61594e-05
1.47974e-05
1.3355e-05
1.185e-05
1.03007e-05
8.72591e-06
7.14405e-06
5.57381e-06
4.0344e-06
2.55392e-06
1.26485e-06
9.82722e-07
9.82722e-07
1.87515e-06
3.08147e-06
4.14006e-05
3.36504e-05
3.32086e-05
3.32086e-05
4.23223e-05
3.88637e-05
3.58817e-05
3.58817e-05
3.59469e-05
3.25604e-05
2.9843e-05
2.9843e-05
3.14222e-05
2.96403e-05
2.78859e-05
2.78859e-05
2.86773e-05
2.70257e-05
2.54666e-05
2.54666e-05
2.64947e-05
2.52725e-05
2.40741e-05
2.40741e-05
2.51119e-05
2.39987e-05
2.29142e-05
2.29142e-05
2.39033e-05
2.29486e-05
2.20135e-05
2.20135e-05
2.30496e-05
2.21696e-05
2.13083e-05
2.13083e-05
2.22592e-05
2.14596e-05
2.06771e-05
2.06771e-05
2.16678e-05
2.09139e-05
2.01771e-05
2.01771e-05
2.10699e-05
2.03671e-05
1.96802e-05
1.96802e-05
2.06332e-05
1.99522e-05
1.92893e-05
1.92893e-05
2.01253e-05
1.94797e-05
1.88515e-05
1.88515e-05
1.97732e-05
1.91283e-05
1.85063e-05
1.85063e-05
1.92985e-05
1.86768e-05
1.80791e-05
1.80791e-05
1.8929e-05
1.83013e-05
1.77045e-05
1.77045e-05
1.84513e-05
1.78332e-05
1.72496e-05
1.72496e-05
1.79095e-05
1.73096e-05
1.67461e-05
1.67461e-05
1.73946e-05
1.67929e-05
1.62339e-05
1.62339e-05
1.65635e-05
1.60324e-05
1.55345e-05
1.55345e-05
1.59279e-05
1.54087e-05
1.49267e-05
1.49267e-05
1.49391e-05
1.45055e-05
1.40993e-05
1.40993e-05
1.4155e-05
1.37575e-05
1.33864e-05
1.33864e-05
1.31734e-05
1.28455e-05
1.25384e-05
1.25384e-05
1.23122e-05
1.20307e-05
1.17671e-05
1.17671e-05
1.13864e-05
1.11588e-05
1.09459e-05
1.09459e-05
1.05296e-05
1.03458e-05
1.01744e-05
1.01744e-05
9.67133e-06
9.52969e-06
9.3988e-06
9.3988e-06
8.86349e-06
8.75921e-06
8.66439e-06
8.66439e-06
8.07489e-06
8.00457e-06
7.94305e-06
7.94305e-06
7.33323e-06
7.29454e-06
7.26409e-06
7.26409e-06
6.61337e-06
6.60369e-06
6.60208e-06
6.60208e-06
5.94106e-06
5.94106e-06
5.95968e-06
5.9861e-06
5.29118e-06
5.29118e-06
5.33703e-06
5.39067e-06
4.68775e-06
4.68775e-06
4.76141e-06
4.84242e-06
4.11862e-06
4.11862e-06
4.22118e-06
4.33064e-06
3.59122e-06
3.59122e-06
3.72371e-06
3.86161e-06
3.13594e-06
3.13594e-06
3.30156e-06
3.47054e-06
2.7228e-06
2.7228e-06
2.91956e-06
3.1159e-06
2.46094e-06
2.46094e-06
2.68871e-06
2.9119e-06
2.25679e-06
2.25679e-06
2.49843e-06
2.73206e-06
3.27008e-05
2.36241e-05
1.99688e-05
1.63877e-05
1.54258e-05
1.37896e-05
1.2849e-05
1.16459e-05
1.06619e-05
9.61328e-06
8.6518e-06
7.70009e-06
6.80404e-06
5.94923e-06
5.15585e-06
4.43614e-06
3.82078e-06
3.35419e-06
3.09645e-06
5.54283e-05
4.01169e-05
3.28813e-05
2.5835e-05
2.32029e-05
2.02239e-05
1.85047e-05
1.66239e-05
1.51451e-05
1.36507e-05
1.23171e-05
1.10305e-05
9.84342e-06
8.73459e-06
7.72893e-06
6.8418e-06
6.10865e-06
5.57376e-06
5.28824e-06
4.57467e-05
4.01169e-05
3.38718e-05
2.75486e-05
2.45635e-05
2.14238e-05
1.94307e-05
1.74177e-05
1.58256e-05
1.42851e-05
1.29306e-05
1.16565e-05
1.05016e-05
9.44535e-06
8.50741e-06
7.70013e-06
7.05076e-06
6.58994e-06
6.34933e-06
4.36313e-05
4.05882e-05
3.47888e-05
2.91518e-05
2.57757e-05
2.25622e-05
2.03296e-05
1.82255e-05
1.65364e-05
1.49646e-05
1.35953e-05
1.23375e-05
1.12145e-05
1.02073e-05
9.32904e-06
8.58841e-06
8.00469e-06
7.59832e-06
7.38911e-06
4.00055e-05
3.9962e-05
3.47407e-05
2.99284e-05
2.64813e-05
2.33936e-05
2.10663e-05
1.89589e-05
1.72237e-05
1.56504e-05
1.42818e-05
1.30477e-05
1.19581e-05
1.09966e-05
1.01705e-05
9.48508e-06
8.95311e-06
8.58781e-06
8.40151e-06
3.82504e-05
3.93204e-05
3.4582e-05
3.0467e-05
2.70574e-05
2.41141e-05
2.17448e-05
1.96564e-05
1.78993e-05
1.63366e-05
1.49774e-05
1.37701e-05
1.27135e-05
1.17937e-05
1.10128e-05
1.03733e-05
9.88267e-06
9.54909e-06
9.3801e-06
3.65471e-05
3.85555e-05
3.43098e-05
3.07285e-05
2.74438e-05
2.46548e-05
2.23116e-05
2.02744e-05
1.85299e-05
1.69954e-05
1.56588e-05
1.44836e-05
1.34617e-05
1.25811e-05
1.18403e-05
1.12396e-05
1.07827e-05
1.04744e-05
1.03189e-05
3.53062e-05
3.78762e-05
3.40435e-05
3.0819e-05
2.77169e-05
2.50831e-05
2.28034e-05
2.08298e-05
1.91179e-05
1.76208e-05
1.63151e-05
1.51751e-05
1.41884e-05
1.33448e-05
1.264e-05
1.20728e-05
1.16442e-05
1.13566e-05
1.1212e-05
3.42658e-05
3.72039e-05
3.37197e-05
3.07289e-05
2.79011e-05
2.5408e-05
2.32142e-05
2.13134e-05
1.96506e-05
1.81995e-05
1.69326e-05
1.58311e-05
1.48808e-05
1.40728e-05
1.34013e-05
1.28638e-05
1.24597e-05
1.21895e-05
1.20541e-05
3.33487e-05
3.65898e-05
3.33907e-05
3.05922e-05
2.79995e-05
2.56438e-05
2.35496e-05
2.17277e-05
2.01246e-05
1.87254e-05
1.75025e-05
1.64419e-05
1.5529e-05
1.47557e-05
1.41155e-05
1.36051e-05
1.32227e-05
1.29678e-05
1.28402e-05
3.25949e-05
3.59909e-05
3.30262e-05
3.03999e-05
2.80031e-05
2.5806e-05
2.38143e-05
2.20732e-05
2.05359e-05
1.91924e-05
1.80176e-05
1.69996e-05
1.6125e-05
1.53859e-05
1.47757e-05
1.42906e-05
1.39281e-05
1.36869e-05
1.35664e-05
3.1848e-05
3.54149e-05
3.26432e-05
3.01672e-05
2.79137e-05
2.58948e-05
2.40067e-05
2.23483e-05
2.08808e-05
1.95961e-05
1.8472e-05
1.74984e-05
1.66627e-05
1.59577e-05
1.53766e-05
1.49157e-05
1.45718e-05
1.43434e-05
1.42293e-05
3.12391e-05
3.4834e-05
3.22246e-05
2.98847e-05
2.7762e-05
2.58754e-05
2.4131e-05
2.25548e-05
2.11585e-05
1.9934e-05
1.88623e-05
1.7934e-05
1.71379e-05
1.64668e-05
1.59145e-05
1.54769e-05
1.51509e-05
1.49345e-05
1.48266e-05
3.0564e-05
3.42414e-05
3.17707e-05
2.95539e-05
2.75508e-05
2.57673e-05
2.41714e-05
2.26911e-05
2.13667e-05
2.02037e-05
1.91857e-05
1.83037e-05
1.75475e-05
1.69105e-05
1.63867e-05
1.59721e-05
1.56635e-05
1.54588e-05
1.53567e-05
3.00047e-05
3.36192e-05
3.12704e-05
2.91679e-05
2.72764e-05
2.55925e-05
2.40882e-05
2.27554e-05
2.15055e-05
2.04046e-05
1.94409e-05
1.86058e-05
1.78901e-05
1.72873e-05
1.6792e-05
1.64002e-05
1.61086e-05
1.59154e-05
1.58191e-05
2.93299e-05
3.29484e-05
3.07134e-05
2.87209e-05
2.69367e-05
2.53504e-05
2.39364e-05
2.26837e-05
2.15747e-05
2.05364e-05
1.96276e-05
1.884e-05
1.81651e-05
1.75969e-05
1.71302e-05
1.6761e-05
1.64865e-05
1.63046e-05
1.6214e-05
2.87137e-05
3.22242e-05
3.00963e-05
2.82104e-05
2.65308e-05
2.5041e-05
2.37165e-05
2.25442e-05
2.15075e-05
2.0596e-05
1.97464e-05
1.90068e-05
1.83732e-05
1.78399e-05
1.74019e-05
1.70556e-05
1.67981e-05
1.66274e-05
1.65424e-05
2.79788e-05
3.14133e-05
2.94013e-05
2.7627e-05
2.60544e-05
2.46631e-05
2.34291e-05
2.23381e-05
2.13744e-05
2.05275e-05
1.97869e-05
1.91078e-05
1.8516e-05
1.80179e-05
1.76088e-05
1.72855e-05
1.70451e-05
1.68858e-05
1.68064e-05
2.71716e-05
3.05319e-05
2.86366e-05
2.69756e-05
2.55114e-05
2.42197e-05
2.30773e-05
2.20686e-05
2.11788e-05
2.03971e-05
1.9714e-05
1.91223e-05
1.85957e-05
1.81332e-05
1.77534e-05
1.74532e-05
1.723e-05
1.70821e-05
1.70085e-05
2.63342e-05
2.95417e-05
2.77836e-05
2.62476e-05
2.48987e-05
2.37109e-05
2.26629e-05
2.17384e-05
2.09238e-05
2.02085e-05
1.95837e-05
1.90425e-05
1.8579e-05
1.81889e-05
1.78388e-05
1.75619e-05
1.73561e-05
1.72198e-05
1.71519e-05
2.52509e-05
2.84754e-05
2.68614e-05
2.54549e-05
2.42246e-05
2.31433e-05
2.21914e-05
2.13527e-05
2.06143e-05
1.99664e-05
1.94005e-05
1.89104e-05
1.84907e-05
1.81374e-05
1.78473e-05
1.76154e-05
1.74271e-05
1.73024e-05
1.72403e-05
2.42663e-05
2.73216e-05
2.58655e-05
2.45975e-05
2.34917e-05
2.25207e-05
2.16674e-05
2.0916e-05
2.02552e-05
1.96754e-05
1.91692e-05
1.87307e-05
1.83552e-05
1.8039e-05
1.77793e-05
1.75739e-05
1.74211e-05
1.73199e-05
1.72691e-05
2.29907e-05
2.61006e-05
2.48114e-05
2.36875e-05
2.27096e-05
2.18511e-05
2.1098e-05
2.04351e-05
1.98527e-05
1.93417e-05
1.88956e-05
1.85091e-05
1.8178e-05
1.78991e-05
1.767e-05
1.74887e-05
1.73537e-05
1.72642e-05
1.72196e-05
2.18534e-05
2.48378e-05
2.37148e-05
2.2736e-05
2.1887e-05
2.11421e-05
2.049e-05
1.99163e-05
1.94126e-05
1.89707e-05
1.8585e-05
1.82506e-05
1.79641e-05
1.77226e-05
1.7524e-05
1.73668e-05
1.72497e-05
1.71721e-05
1.71335e-05
2.053e-05
2.35355e-05
2.25831e-05
2.17519e-05
2.10331e-05
2.04027e-05
1.98519e-05
1.93675e-05
1.89427e-05
1.85699e-05
1.82444e-05
1.79621e-05
1.772e-05
1.75158e-05
1.73477e-05
1.72145e-05
1.71153e-05
1.70495e-05
1.70168e-05
1.93061e-05
2.22265e-05
2.14372e-05
2.07498e-05
2.01586e-05
1.96412e-05
1.91909e-05
1.87952e-05
1.84486e-05
1.81444e-05
1.78789e-05
1.76483e-05
1.74503e-05
1.72831e-05
1.71453e-05
1.7036e-05
1.69545e-05
1.69005e-05
1.68736e-05
1.801e-05
2.09122e-05
2.02838e-05
1.97385e-05
1.92735e-05
1.88679e-05
1.85167e-05
1.82087e-05
1.79395e-05
1.77031e-05
1.74967e-05
1.73172e-05
1.71628e-05
1.70321e-05
1.69242e-05
1.68384e-05
1.67744e-05
1.67319e-05
1.67107e-05
1.6783e-05
1.96145e-05
1.91383e-05
1.87294e-05
1.83863e-05
1.80895e-05
1.78352e-05
1.76131e-05
1.74198e-05
1.725e-05
1.71017e-05
1.69723e-05
1.68607e-05
1.67659e-05
1.66873e-05
1.66246e-05
1.65777e-05
1.65465e-05
1.65309e-05
1.55486e-05
1.83394e-05
1.80096e-05
1.77329e-05
1.75083e-05
1.73175e-05
1.71576e-05
1.70192e-05
1.68998e-05
1.6795e-05
1.67033e-05
1.66228e-05
1.65528e-05
1.64929e-05
1.64429e-05
1.64027e-05
1.63724e-05
1.63522e-05
1.6342e-05
1.43761e-05
1.70973e-05
1.69061e-05
1.67558e-05
1.66449e-05
1.65565e-05
1.64879e-05
1.64307e-05
1.63829e-05
1.63411e-05
1.63042e-05
1.6271e-05
1.62414e-05
1.62153e-05
1.61929e-05
1.61745e-05
1.61603e-05
1.61507e-05
1.61458e-05
1.32218e-05
1.58971e-05
1.58384e-05
1.58095e-05
1.5808e-05
1.5818e-05
1.58371e-05
1.58579e-05
1.5879e-05
1.58976e-05
1.59132e-05
1.59255e-05
1.59345e-05
1.59408e-05
1.59448e-05
1.59471e-05
1.59484e-05
1.59489e-05
1.59491e-05
1.21349e-05
1.47439e-05
1.48116e-05
1.48991e-05
1.50024e-05
1.51069e-05
1.52102e-05
1.53057e-05
1.53927e-05
1.5469e-05
1.55349e-05
1.55904e-05
1.56363e-05
1.56733e-05
1.57025e-05
1.57246e-05
1.57404e-05
1.57506e-05
1.57556e-05
1.10733e-05
1.36458e-05
1.38347e-05
1.40334e-05
1.42366e-05
1.44308e-05
1.46136e-05
1.47797e-05
1.49286e-05
1.50591e-05
1.51721e-05
1.52681e-05
1.53485e-05
1.54143e-05
1.54669e-05
1.55075e-05
1.5537e-05
1.55562e-05
1.55657e-05
1.00874e-05
1.26113e-05
1.29175e-05
1.32233e-05
1.35221e-05
1.38017e-05
1.40599e-05
1.42925e-05
1.44997e-05
1.46812e-05
1.48382e-05
1.49721e-05
1.50845e-05
1.51772e-05
1.52517e-05
1.53095e-05
1.53517e-05
1.53793e-05
1.53929e-05
9.1348e-06
1.16425e-05
1.2061e-05
1.24679e-05
1.2856e-05
1.32147e-05
1.35424e-05
1.38359e-05
1.40962e-05
1.43239e-05
1.45209e-05
1.4689e-05
1.48305e-05
1.49474e-05
1.50417e-05
1.51149e-05
1.51686e-05
1.52037e-05
1.52211e-05
8.26079e-06
1.07627e-05
1.12903e-05
1.17939e-05
1.22664e-05
1.2699e-05
1.30909e-05
1.34405e-05
1.37495e-05
1.40193e-05
1.42526e-05
1.44518e-05
1.46195e-05
1.47583e-05
1.48703e-05
1.49575e-05
1.50215e-05
1.50635e-05
1.50842e-05
7.44957e-06
9.96142e-06
1.05907e-05
1.11823e-05
1.17303e-05
1.22281e-05
1.26762e-05
1.30745e-05
1.34254e-05
1.37315e-05
1.3996e-05
1.42218e-05
1.44121e-05
1.45696e-05
1.46968e-05
1.47959e-05
1.48687e-05
1.49166e-05
1.49402e-05
6.7083e-06
9.28633e-06
1.00111e-05
1.06833e-05
1.12991e-05
1.18549e-05
1.23525e-05
1.27931e-05
1.31805e-05
1.35179e-05
1.38091e-05
1.40576e-05
1.42669e-05
1.44403e-05
1.45804e-05
1.46896e-05
1.47699e-05
1.48228e-05
1.4849e-05
6.10118e-06
8.71177e-06
9.51764e-06
1.02563e-05
1.09269e-05
1.15287e-05
1.2065e-05
1.25388e-05
1.29544e-05
1.33161e-05
1.36281e-05
1.38945e-05
1.41189e-05
1.43048e-05
1.4455e-05
1.45722e-05
1.46584e-05
1.4715e-05
1.4743e-05
5.54661e-06
8.30612e-06
9.17761e-06
9.96886e-06
1.06822e-05
1.13194e-05
1.18854e-05
1.23844e-05
1.28216e-05
1.32017e-05
1.35295e-05
1.38093e-05
1.40452e-05
1.42406e-05
1.43985e-05
1.45216e-05
1.46121e-05
1.46715e-05
1.47009e-05
5.24357e-06
8.0177e-06
8.92787e-06
9.74923e-06
1.04866e-05
1.11436e-05
1.17261e-05
1.22389e-05
1.26878e-05
1.30777e-05
1.34137e-05
1.37003e-05
1.39417e-05
1.41418e-05
1.43035e-05
1.44296e-05
1.45223e-05
1.45832e-05
1.46133e-05
4.95525e-06
8.0177e-06
8.92787e-06
9.74923e-06
1.04866e-05
1.11436e-05
1.17261e-05
1.22389e-05
1.26878e-05
1.30777e-05
1.34137e-05
1.37003e-05
1.39417e-05
1.41418e-05
1.43035e-05
1.44296e-05
1.45223e-05
1.45832e-05
1.46133e-05
)
;

boundaryField
{
    leftWall
    {
        type            calculated;
        value           uniform 0;
    }
    rightWall
    {
        type            calculated;
        value           uniform 0;
    }
    lowerWall
    {
        type            calculated;
        value           uniform 0;
    }
    atmosphere
    {
        type            calculated;
        value           uniform 0;
    }
    defaultFaces
    {
        type            empty;
    }
}


// ************************************************************************* //
