/*--------------------------------*- C++ -*----------------------------------*\
| =========                 |                                                 |
| \\      /  F ield         | OpenFOAM: The Open Source CFD Toolbox           |
|  \\    /   O peration     | Version:  2012                                  |
|   \\  /    A nd           | Website:  www.openfoam.com                      |
|    \\/     M anipulation  |                                                 |
\*---------------------------------------------------------------------------*/
FoamFile
{
    version     2.0;
    format      ascii;
    class       volScalarField;
    location    "0.04";
    object      rhogh;
}
// * * * * * * * * * * * * * * * * * * * * * * * * * * * * * * * * * * * * * //

dimensions      [1 -1 -2 0 0 0 0];


internalField   nonuniform List<scalar> 
2268
(
-29.4294
-29.4294
-29.4294
-29.4294
-29.4294
-29.4294
-29.4294
-29.4294
-29.4294
-29.4294
-29.4294
-29.4294
-28.8787
-15.2378
-0.787776
-0.00100157
-9.82363e-10
-1.89884e-13
-2.42597e-14
-1.58454e-15
-5.78862e-17
-1.17746e-18
-1.06344e-20
-88.2881
-88.2881
-88.2881
-88.2881
-88.2881
-88.2881
-88.2881
-88.2881
-88.2881
-88.2881
-88.2881
-88.2881
-81.2667
-29.9131
-1.17636
-0.0014821
-1.70509e-09
-7.10897e-13
-8.46206e-14
-5.15129e-15
-1.77938e-16
-3.46701e-18
-3.03295e-20
-147.147
-147.147
-147.147
-147.147
-147.147
-147.147
-147.147
-147.147
-147.147
-147.147
-147.147
-147.147
-126.187
-30.9991
-0.582787
-0.000378616
-9.07511e-10
-1.96702e-12
-1.70862e-13
-8.32773e-15
-2.48647e-16
-4.4191e-18
-3.68255e-20
-206.006
-206.006
-206.006
-206.006
-206.006
-206.006
-206.006
-206.006
-206.006
-206.006
-206.006
-206.006
-163.629
-27.6843
-0.230796
-3.4168e-05
-1.40265e-10
-2.57743e-12
-1.56085e-13
-6.04808e-15
-1.56909e-16
-2.62281e-18
-2.1838e-20
-264.864
-264.864
-264.864
-264.864
-264.864
-264.864
-264.864
-264.864
-264.864
-264.864
-264.864
-264.864
-194.101
-22.7747
-0.0897189
-2.66755e-06
-2.61667e-11
-1.27928e-12
-5.92205e-14
-2.16492e-15
-6.09481e-17
-1.19042e-18
-1.19093e-20
-323.723
-323.723
-323.723
-323.723
-323.723
-323.723
-323.723
-323.723
-323.723
-323.723
-323.723
-323.723
-218.374
-17.6285
-0.0341391
-2.13894e-07
-5.59448e-12
-3.53737e-13
-1.99073e-14
-8.98101e-16
-2.95957e-17
-6.43461e-19
-6.885e-21
-382.582
-382.582
-382.582
-382.582
-382.582
-382.582
-382.582
-382.582
-382.582
-382.582
-382.582
-382.582
-237.254
-13.0517
-0.0129541
-1.88426e-08
-1.72658e-12
-1.56779e-13
-1.09557e-14
-5.52585e-16
-1.95992e-17
-4.74546e-19
-5.86488e-21
-441.44
-441.44
-441.44
-441.44
-441.44
-441.44
-441.44
-441.44
-441.44
-441.44
-441.44
-441.44
-252.537
-9.6804
-0.00537389
-2.33958e-09
-1.03025e-12
-1.1189e-13
-7.78397e-15
-3.76579e-16
-1.2871e-17
-3.05999e-19
-6.56616e-21
-4.34708e-47
-6.4045e-49
-2.22275e-51
-6.80945e-54
-1.73788e-56
-4.1083e-59
-9.31513e-62
-1.9605e-64
-3.75209e-67
-6.41395e-70
-9.64783e-73
-1.2573e-75
-1.39558e-78
-1.2919e-81
-9.70014e-85
-5.67544e-88
-2.4285e-91
-6.76281e-95
-1.84131e-98
-1.2509e-43
-1.92096e-45
-6.98567e-48
-2.22871e-50
-5.89227e-53
-1.44121e-55
-3.36771e-58
-7.28431e-61
-1.42984e-63
-2.50307e-66
-3.85108e-69
-5.1284e-72
-5.81231e-75
-5.49031e-78
-4.20428e-81
-2.50762e-84
-1.09341e-87
-3.10215e-91
-4.30137e-95
-9.60469e-41
-1.53066e-42
-5.90636e-45
-1.98006e-47
-5.47774e-50
-1.40295e-52
-3.40378e-55
-7.60201e-58
-1.53477e-60
-2.75615e-63
-4.34155e-66
-5.9109e-69
-6.84148e-72
-6.59405e-75
-5.14867e-78
-3.12943e-81
-1.38987e-84
-4.01494e-88
-5.66642e-92
-3.87637e-38
-6.39875e-40
-2.63524e-42
-9.33804e-45
-2.71341e-47
-7.30762e-50
-1.84861e-52
-4.27999e-55
-8.91694e-58
-1.64711e-60
-2.66213e-63
-3.71183e-66
-4.39333e-69
-4.32521e-72
-3.44633e-75
-2.13602e-78
-9.66771e-82
-2.84458e-85
-4.08746e-89
-1.01777e-35
-1.71876e-37
-7.70159e-40
-2.92134e-42
-9.06832e-45
-2.60728e-47
-6.93056e-50
-1.66962e-52
-3.59469e-55
-6.83113e-58
-1.13222e-60
-1.61521e-63
-1.95266e-66
-1.96096e-69
-1.59222e-72
-1.00482e-75
-4.62765e-79
-1.3848e-82
-2.02289e-86
-1.85576e-33
-3.14103e-35
-1.51748e-37
-6.15776e-40
-2.02477e-42
-6.18976e-45
-1.72968e-47
-4.347e-50
-9.70352e-53
-1.90341e-55
-3.24522e-58
-4.75005e-61
-5.87994e-64
-6.03679e-67
-5.00474e-70
-3.22155e-73
-1.51211e-76
-4.60858e-80
-6.85287e-84
-2.54088e-31
-4.20193e-33
-2.26964e-35
-1.00837e-37
-3.69098e-40
-1.22528e-42
-3.63471e-45
-9.56467e-48
-2.21504e-50
-4.48086e-53
-7.84499e-56
-1.17561e-58
-1.48652e-61
-1.55631e-64
-1.31396e-67
-8.60432e-71
-4.10507e-74
-1.27085e-77
-1.91852e-81
-2.53138e-29
-3.7601e-31
-2.18899e-33
-1.05501e-35
-4.16897e-38
-1.47517e-40
-4.61055e-43
-1.26834e-45
-3.05113e-48
-6.38081e-51
-1.15051e-53
-1.77039e-56
-2.29335e-59
-2.45518e-62
-2.11641e-65
-1.41333e-68
-6.86945e-72
-2.1648e-75
-3.32455e-79
-533.467
-533.467
-533.467
-533.467
-533.467
-533.467
-533.467
-533.467
-533.467
-533.467
-533.467
-533.467
-271.83
-6.93828
-0.00221912
-5.32749e-10
-9.27288e-13
-8.87252e-14
-5.39687e-15
-2.40853e-16
-8.54565e-18
-2.60762e-19
-7.99265e-21
-658.662
-658.662
-658.662
-658.662
-658.662
-658.662
-658.662
-658.662
-658.662
-658.662
-658.662
-658.662
-285.628
-5.11002
-0.000813616
-2.04669e-10
-9.1327e-13
-6.46099e-14
-3.09956e-15
-1.15072e-16
-3.56677e-18
-9.93491e-20
-3.04195e-21
-783.856
-783.856
-783.856
-783.856
-783.856
-783.856
-783.856
-783.856
-783.856
-783.856
-783.856
-783.856
-290.789
-3.72189
-0.00030651
-9.91399e-11
-8.28858e-13
-4.24421e-14
-1.60212e-15
-4.95579e-17
-1.33504e-18
-3.27578e-20
-7.89485e-22
-909.051
-909.051
-909.051
-909.051
-909.051
-909.051
-909.051
-909.051
-909.051
-909.051
-909.051
-909.051
-290.222
-2.71237
-0.000119666
-5.11645e-11
-6.52207e-13
-2.39758e-14
-7.04698e-16
-1.78114e-17
-4.04297e-19
-8.4744e-21
-1.69495e-22
-1034.25
-1034.25
-1034.25
-1034.25
-1034.25
-1034.25
-1034.25
-1034.25
-1034.25
-1034.25
-1034.25
-1034.25
-284.712
-1.95757
-4.64443e-05
-2.61633e-11
-4.25534e-13
-1.15244e-14
-2.69167e-16
-5.64963e-18
-1.09288e-19
-1.97748e-21
-3.37882e-23
-1159.44
-1159.44
-1159.44
-1159.44
-1159.44
-1159.44
-1159.44
-1159.44
-1159.44
-1159.44
-1159.44
-1159.44
-275.561
-1.40146
-1.77159e-05
-1.28661e-11
-2.22007e-13
-4.60799e-15
-8.74224e-17
-1.5436e-18
-2.56959e-20
-4.05725e-22
-6.08472e-24
-1284.63
-1284.63
-1284.63
-1284.63
-1284.63
-1284.63
-1284.63
-1284.63
-1284.63
-1284.63
-1284.63
-1284.63
-263.482
-0.992318
-6.49363e-06
-5.92258e-12
-9.42961e-14
-1.56992e-15
-2.50095e-17
-3.82378e-19
-5.63045e-21
-7.95696e-23
-1.07248e-24
-1409.83
-1409.83
-1409.83
-1409.83
-1409.83
-1409.83
-1409.83
-1409.83
-1409.83
-1409.83
-1409.83
-1409.83
-249.18
-0.694256
-2.23631e-06
-2.47429e-12
-3.35371e-14
-4.62158e-16
-6.37904e-18
-8.71178e-20
-1.16888e-21
-1.51904e-23
-1.88746e-25
-1535.02
-1535.02
-1535.02
-1535.02
-1535.02
-1535.02
-1535.02
-1535.02
-1535.02
-1535.02
-1535.02
-1535.02
-233.163
-0.478952
-6.96432e-07
-9.01784e-13
-1.01958e-14
-1.22336e-16
-1.54989e-18
-1.98735e-20
-2.51503e-22
-3.05851e-24
-3.51409e-26
-1660.22
-1660.22
-1660.22
-1660.22
-1660.22
-1660.22
-1660.22
-1660.22
-1660.22
-1660.22
-1660.22
-1660.22
-215.719
-0.324178
-1.8685e-07
-2.77436e-13
-2.75052e-15
-3.12378e-17
-3.86555e-19
-4.77715e-21
-5.69219e-23
-6.36939e-25
-6.61849e-27
-1785.41
-1785.41
-1785.41
-1785.41
-1785.41
-1785.41
-1785.41
-1785.41
-1785.41
-1785.41
-1785.41
-1785.41
-197.238
-0.215095
-3.5024e-08
-6.66234e-14
-7.31924e-16
-9.08078e-18
-1.13675e-19
-1.3261e-21
-1.42811e-23
-1.40687e-25
-1.26838e-27
-1910.61
-1910.61
-1910.61
-1910.61
-1910.61
-1910.61
-1910.61
-1910.61
-1910.61
-1910.61
-1910.61
-1910.61
-177.058
-0.136572
-4.40578e-09
-2.03053e-14
-2.72091e-16
-3.29977e-18
-3.65015e-20
-3.60876e-22
-3.24546e-24
-2.66275e-26
-2.00385e-28
-2035.8
-2035.8
-2035.8
-2035.8
-2035.8
-2035.8
-2035.8
-2035.8
-2035.8
-2035.8
-2035.8
-2035.8
-156.456
-0.0860366
-1.03095e-14
-1.03099e-14
-1.88372e-16
-1.71857e-18
-1.49184e-20
-1.15645e-22
-8.12317e-25
-5.20541e-27
-3.07923e-29
-2161
-2161
-2161
-2161
-2161
-2161
-2161
-2161
-2161
-2161
-2161
-2161
-134.929
-0.0478135
-6.87378e-10
-1.3658e-14
-1.16657e-16
-7.59332e-19
-4.21234e-21
-2.20539e-23
-1.09688e-25
-5.28474e-28
-2.45218e-30
-2286.19
-2286.19
-2286.19
-2286.19
-2286.19
-2286.19
-2286.19
-2286.19
-2286.19
-2286.19
-2286.19
-2286.19
-121.587
-0.0456058
-1.80995e-14
-1.8099e-14
-1.55608e-16
-7.04532e-19
-2.29044e-21
-6.2354e-24
-1.71731e-26
-4.99501e-29
-1.55702e-31
-2411.38
-2411.38
-2411.38
-2411.38
-2411.38
-2411.38
-2411.38
-2411.38
-2411.38
-2411.38
-2411.38
-2411.38
-102.412
-0.0127635
-4.34259e-10
-5.42644e-14
-1.27685e-16
-2.03684e-19
-3.43312e-22
-4.73968e-25
-8.90793e-28
-1.87785e-30
-4.36138e-33
-2536.57
-2536.57
-2536.57
-2536.57
-2536.57
-2536.57
-2536.56
-2536.56
-2536.56
-2536.55
-2536.51
-2534.5
-162.256
-0.14647
-2.10715e-08
-5.96585e-16
-5.96585e-16
-3.03955e-19
-3.34043e-23
-2.46282e-26
-3.39833e-29
-5.65658e-32
-1.0395e-34
-2624.47
-2624.07
-2623.26
-2621.93
-2620.25
-2617.83
-2615.23
-2611.36
-2607.88
-2600.52
-2579.86
-2393.38
-148.149
-2.20897e-09
-2.20518e-09
-3.81751e-11
-1.32652e-16
-9.79512e-20
-3.0339e-24
-9.98433e-28
-1.04392e-30
-1.4203e-33
-2.14133e-36
-1317.62
-1313.81
-1306.56
-1295.41
-1281.68
-1263.58
-1245.16
-1220.49
-1199.38
-1158.63
-1061.51
-822.306
-364.291
-8.23216
-0.000855577
-2.68115e-10
-9.16851e-21
-9.16839e-21
-2.28301e-25
-3.30442e-29
-2.65342e-32
-3.01257e-35
-3.81665e-38
-1.17904e-33
-7.68869e-34
4.11376e-34
-1.74847e-33
1.0692e-34
-1.55454e-33
8.20127e-34
-5.30622e-31
5.39407e-29
5.10672e-27
-4.44359e-26
-1.18715e-24
2.05267e-18
-1.03282
-1.28011e-21
-5.11586e-11
-3.23851e-15
-5.13099e-22
-1.33219e-26
-9.18563e-31
-5.75286e-34
-5.48149e-37
-5.93211e-40
-1.04757e-15
-1.02213e-15
-9.7418e-16
-9.1205e-16
-8.61313e-16
-1.1658e-15
-2.6985e-14
-1.48862e-12
-6.19539e-11
-1.85988e-09
-3.77475e-08
-4.87822e-07
-3.60765e-06
-9.909e-06
-8.15695e-21
-3.15591e-12
-6.84882e-16
-2.11377e-23
-5.62322e-28
-2.04677e-32
-1.03594e-35
-8.4064e-39
-7.93093e-42
-1.12463e-35
-1.10889e-35
-3.31886e-26
-6.40782e-24
-7.9364e-22
-6.81851e-20
-4.11795e-18
-1.74752e-16
-5.20277e-15
-5.3028e-14
-5.0154e-14
-5.00574e-14
-5.0154e-14
-8.79715e-10
-7.31245e-15
-1.01944e-13
-3.07388e-17
-6.11914e-25
-1.69464e-29
-3.65855e-34
-1.54847e-37
-1.09006e-40
-9.12039e-44
-3.04043e-34
-2.35177e-31
-8.50229e-29
-1.9372e-26
-3.03712e-24
-3.44521e-22
-2.90517e-20
-1.83537e-18
-8.65802e-17
-3.00057e-15
-7.39064e-14
-1.17302e-12
-1.05391e-11
-2.64641e-11
-2.76331e-16
-1.90299e-15
-7.46837e-19
-1.21815e-26
-3.64157e-31
-5.12291e-36
-1.885e-39
-1.17558e-42
-8.90087e-46
-6.89027e-42
-4.92255e-39
-1.62962e-36
-3.29533e-34
-4.52033e-32
-4.42289e-30
-3.16347e-28
-1.6691e-26
-6.49411e-25
-1.83268e-23
-3.57066e-22
-1.96416e-21
-1.6277e-24
-1.62637e-24
-2.09316e-18
-1.93509e-17
-1.0341e-20
-1.65871e-28
-5.54485e-33
-5.58986e-38
-1.85832e-41
-1.05262e-44
-7.35534e-48
-5.56826e-47
-4.33465e-44
-1.57341e-41
-3.51524e-39
-5.38291e-37
-5.94503e-35
-4.86462e-33
-2.97448e-31
-1.35906e-29
-4.59248e-28
-1.14917e-26
-2.29904e-25
-5.2258e-24
-1.81692e-22
-7.8838e-21
-1.1396e-19
-8.73461e-23
-1.57255e-30
-6.04266e-35
-4.73294e-40
-1.47377e-43
-7.77217e-47
-5.11256e-50
-4.87301e-52
-3.96785e-49
-1.50602e-46
-3.52493e-44
-5.67204e-42
-6.64429e-40
-5.88096e-38
-4.08046e-36
-2.36807e-34
-1.29165e-32
-7.64985e-31
-4.963e-29
-3.26192e-27
-2.0063e-25
-1.16487e-23
-3.30858e-22
-4.38406e-25
-1.01818e-32
-4.68684e-37
-3.08644e-42
-9.3505e-46
-4.71743e-49
-2.98214e-52
-2.12184e-57
-1.92366e-54
-8.36858e-52
-2.3657e-49
-5.02911e-47
-8.91585e-45
-1.41514e-42
-2.06341e-40
-2.73603e-38
-3.2246e-36
-3.35082e-34
-3.05525e-32
-2.49348e-30
-1.83663e-28
-1.27563e-26
-4.29973e-25
-1.32312e-27
-4.54573e-35
-2.61091e-39
-1.5509e-44
-4.73813e-48
-2.3487e-51
-1.45644e-54
-7.66585e-63
-9.46929e-60
-6.07505e-57
-2.69963e-54
-9.21702e-52
-2.53126e-49
-5.71995e-47
-1.08033e-44
-1.73079e-42
-2.37955e-40
-2.85877e-38
-3.02633e-36
-2.88534e-34
-2.48336e-32
-1.95488e-30
-7.14214e-29
-2.17262e-30
-1.35318e-37
-1.03442e-41
-5.96286e-47
-1.91003e-50
-9.57272e-54
-5.95055e-57
-7.79775e-69
-8.11381e-66
-3.95678e-63
-1.20191e-60
-2.55238e-58
-4.07216e-56
-5.23189e-54
-6.02309e-52
-7.19944e-50
-9.68913e-48
-1.38108e-45
-1.89545e-43
-2.41742e-41
-2.84601e-39
-3.15359e-37
-3.31835e-35
-1.69909e-33
-2.64014e-40
-2.91404e-44
-1.75467e-49
-6.12433e-53
-3.19448e-56
-2.03457e-59
-8.60717e-75
-1.01402e-71
-5.79377e-69
-2.21098e-66
-6.69315e-64
-1.82572e-61
-4.77029e-59
-1.1823e-56
-2.68294e-54
-5.45215e-52
-9.90797e-50
-1.61754e-47
-2.40754e-45
-3.28683e-43
-4.16012e-41
-4.87672e-39
-2.68994e-37
-3.13163e-43
-5.72025e-47
-3.9223e-52
-1.55703e-55
-8.72369e-59
-5.82608e-62
-4.60177e-81
-5.78355e-78
-3.40615e-75
-1.2481e-72
-3.17872e-70
-5.96305e-68
-8.49594e-66
-9.3507e-64
-7.97941e-62
-5.23885e-60
-2.57974e-58
-8.9761e-57
-1.92199e-55
-2.10756e-54
-1.29875e-52
-1.92018e-50
-2.78503e-48
-2.01589e-46
-7.66916e-50
-6.6354e-55
-3.13718e-58
-1.95233e-61
-1.40022e-64
-6.37363e-87
-8.8432e-84
-5.7475e-81
-2.32388e-78
-6.53228e-76
-1.35289e-73
-2.129e-71
-2.5885e-69
-2.43957e-67
-1.76798e-65
-9.64222e-64
-3.8849e-62
-1.41997e-60
-1.21296e-58
-2.03568e-56
-3.46377e-54
-5.69999e-52
-4.6116e-50
-6.69782e-53
-8.40138e-58
-4.99541e-61
-3.5842e-64
-2.83166e-67
-8.87688e-93
-1.37069e-89
-9.90114e-87
-4.44303e-84
-1.3841e-81
-3.17133e-79
-5.50881e-77
-7.3705e-75
-7.60808e-73
-5.99341e-71
-3.49188e-69
-1.40746e-67
-3.39348e-66
-3.86093e-65
-1.20026e-63
-8.48206e-62
-4.81879e-60
-3.74023e-58
-3.54603e-56
-7.86634e-61
-6.27819e-64
-5.41173e-67
-4.83726e-70
-1.20988e-98
-2.12275e-95
-1.74197e-92
-8.87952e-90
-3.14268e-87
-8.18128e-85
-1.61484e-82
-2.4546e-80
-2.87774e-78
-2.57406e-76
-1.70407e-74
-7.82767e-73
-2.12351e-71
-1.53401e-70
-3.1473e-69
-9.15115e-67
-2.5717e-64
-7.02891e-62
-9.48108e-60
-5.33341e-64
-6.21202e-67
-6.73962e-70
-7.01319e-73
-6.01538e-105
-1.22554e-101
-1.16784e-98
-6.91272e-96
-2.84154e-93
-8.59249e-91
-1.97033e-88
-3.47899e-86
-4.7353e-84
-4.90984e-82
-3.75318e-80
-1.97304e-78
-6.05404e-77
-8.47966e-76
-1.38905e-73
-4.68178e-71
-1.49824e-68
-4.55207e-66
-6.70912e-64
-2.54313e-67
-4.8327e-70
-6.95515e-73
-8.68393e-76
-3.04526e-111
-7.25986e-108
-8.09404e-105
-5.60527e-102
-2.69601e-99
-9.53823e-97
-2.55817e-94
-5.27742e-92
-8.37506e-90
-1.00844e-87
-8.89225e-86
-5.33952e-84
-1.85569e-82
-1.22283e-81
-1.03747e-83
-4.38586e-81
-1.90142e-78
-8.30762e-76
-3.64858e-73
-8.14809e-71
-2.95277e-73
-5.98382e-76
-9.25409e-79
-8.236e-121
-2.08392e-117
-2.43336e-114
-1.73624e-111
-8.43162e-109
-2.935e-106
-7.48775e-104
-1.40283e-101
-1.89016e-99
-1.73411e-97
-9.36448e-96
-1.19664e-94
-2.05792e-93
-1.3287e-90
-7.43615e-88
-4.0542e-85
-2.16969e-82
-1.14791e-79
-6.04932e-77
-1.6153e-74
-1.41912e-76
-4.33004e-79
-8.57094e-82
-4.25984e-137
-8.61648e-133
-4.62104e-129
-1.37264e-125
-3.01523e-122
-5.18868e-119
-7.41384e-116
-9.08246e-113
-9.77339e-110
-9.43451e-107
-8.3143e-104
-6.79771e-101
-5.22913e-98
-3.83241e-95
-2.70318e-92
-1.84856e-89
-1.23195e-86
-8.04217e-84
-5.17684e-81
-1.68152e-78
-5.39051e-80
-2.66619e-82
-6.98048e-85
-3.30936e-143
-3.96016e-139
-2.34708e-135
-9.13081e-132
-2.62897e-128
-5.99524e-125
-1.13164e-121
-1.82633e-118
-2.58346e-115
-3.27125e-112
-3.77363e-109
-4.02945e-106
-4.03612e-103
-3.83401e-100
-3.47787e-97
-3.01948e-94
-2.50301e-91
-1.97472e-88
-1.47991e-85
-5.48497e-83
-1.6385e-83
-1.41976e-85
-5.07288e-88
-1.49709e-150
-1.19228e-146
-4.74975e-143
-2.49974e-139
-9.7111e-136
-2.95881e-132
-7.36982e-129
-1.54468e-125
-2.78052e-122
-4.36563e-119
-6.04486e-116
-7.44203e-113
-8.18488e-110
-8.05632e-107
-7.08061e-104
-5.51924e-101
-3.76997e-98
-2.23166e-95
-1.18484e-92
-7.28049e-90
-4.07398e-87
-6.66892e-89
-3.34375e-91
-1.34901e-161
-1.58026e-157
-9.65665e-154
-4.19577e-150
-1.47076e-146
-4.42336e-143
-2.31664e-139
-1.07141e-135
-4.43587e-132
-1.67182e-128
-5.81798e-125
-1.89407e-121
-5.83366e-118
-1.71713e-114
-4.87121e-111
-1.34152e-107
-3.6082e-104
-9.53772e-101
-2.49476e-97
-6.5058e-94
-8.60514e-91
-2.83668e-92
-2.03945e-94
-2.24976e-175
-1.15295e-170
-2.93913e-166
-5.01633e-162
-6.49869e-158
-6.84912e-154
-6.12834e-150
-4.78997e-146
-3.40879e-142
-4.3616e-138
-5.14152e-134
-5.66501e-130
-5.90935e-126
-5.90012e-122
-5.68997e-118
-5.33984e-114
-4.90513e-110
-4.44013e-106
-3.98411e-102
-3.56289e-98
-1.62501e-94
-1.1233e-95
-1.17369e-97
-3.79123e-22
-2.11642e-23
-9.96672e-25
-4.20469e-26
-1.31862e-22
-7.63155e-24
-3.79311e-25
-1.61086e-26
-2.56658e-23
-1.14218e-24
-4.48258e-26
-1.5383e-27
-4.50284e-24
-1.6997e-25
-5.8397e-27
-1.79405e-28
-7.4581e-25
-2.35915e-26
-6.89989e-28
-1.83861e-29
-1.17985e-25
-3.3134e-27
-8.6862e-29
-2.095e-30
-1.86094e-26
-4.69053e-28
-1.10719e-29
-2.41604e-31
-3.00989e-27
-6.94807e-29
-1.49636e-30
-2.97307e-32
-5.1137e-28
-1.06684e-29
-2.06168e-31
-3.66353e-33
-8.6059e-29
-1.59032e-30
-2.70747e-32
-4.23145e-34
-1.42038e-29
-2.25158e-31
-3.28393e-33
-4.40562e-35
-1.88338e-30
-2.51147e-32
-3.09209e-34
-3.52173e-36
-2.30028e-31
-2.45721e-33
-2.44768e-35
-2.28395e-37
-1.49138e-32
-1.3145e-34
-1.0961e-36
-8.68677e-39
-6.97825e-34
-4.7533e-36
-3.21209e-38
-2.14482e-40
-1.54294e-35
-8.8537e-38
-5.35185e-40
-3.23673e-42
-3.02487e-37
-1.49214e-39
-7.7515e-42
-4.09396e-44
-5.26864e-39
-2.2614e-41
-1.02109e-43
-4.75195e-46
-8.1068e-41
-3.06091e-43
-1.21548e-45
-5.0285e-48
-1.10098e-42
-3.696e-45
-1.30497e-47
-4.84009e-50
-1.30345e-44
-3.93715e-47
-1.25027e-49
-4.19612e-52
-1.34235e-46
-3.68986e-49
-1.06531e-51
-3.26467e-54
-1.18901e-48
-3.00962e-51
-7.98863e-54
-2.25722e-56
-9.03721e-51
-2.13015e-53
-5.25412e-56
-1.38184e-58
-5.85953e-53
-1.30021e-55
-3.01152e-58
-7.44256e-61
-3.23461e-55
-6.82866e-58
-1.50038e-60
-3.51693e-63
-1.51705e-57
-3.07811e-60
-6.47902e-63
-1.45362e-65
-6.04192e-60
-1.19e-62
-2.42267e-65
-5.24914e-68
-2.04416e-62
-3.94596e-65
-7.84256e-68
-1.65525e-70
-5.88207e-65
-1.12347e-67
-2.19982e-70
-4.56129e-73
-1.44283e-67
-2.75226e-70
-5.35678e-73
-1.10024e-75
-3.02596e-70
-5.81845e-73
-1.13561e-75
-2.32921e-78
-5.44854e-73
-1.06582e-75
-2.10408e-78
-4.3437e-81
-8.4659e-76
-1.70023e-78
-3.42395e-81
-7.16935e-84
-1.14247e-78
-2.37701e-81
-4.92355e-84
-1.05344e-86
-1.34944e-81
-2.93448e-84
-6.30193e-87
-1.38758e-89
-1.40838e-84
-3.22829e-87
-7.2425e-90
-1.65203e-92
-1.31314e-87
-3.19803e-90
-7.54744e-93
-1.79436e-95
-1.10831e-90
-2.8882e-93
-7.21478e-96
-1.79734e-98
-8.59002e-94
-2.40967e-96
-6.40444e-99
-1.67926e-101
-6.2188e-97
-1.88638e-99
-5.35524e-102
-1.48288e-104
-4.27353e-100
-1.40575e-102
-4.27344e-105
-1.25237e-107
-9.67217e-28
-1.11043e-29
-8.69519e-32
-5.23584e-34
-2.5191e-36
-1.01343e-38
-3.4599e-41
-1.01508e-43
-2.56365e-46
-5.57117e-49
-1.03627e-51
-1.63654e-54
-2.16733e-57
-2.36526e-60
-2.07378e-63
-1.4061e-66
-6.9297e-70
-2.21195e-73
-3.43795e-77
-3.58893e-28
-3.93722e-30
-2.97712e-32
-1.73971e-34
-8.21677e-37
-3.25836e-39
-1.09793e-41
-3.17648e-44
-7.90132e-47
-1.68893e-49
-3.08699e-52
-4.78762e-55
-6.22506e-58
-6.6704e-61
-5.74429e-64
-3.82754e-67
-1.85499e-70
-5.82738e-74
-8.92182e-78
-2.7405e-29
-2.70642e-31
-2.09279e-33
-1.29984e-35
-6.57211e-38
-2.75941e-40
-9.72967e-43
-2.91098e-45
-7.41949e-48
-1.61346e-50
-2.98455e-53
-4.66651e-56
-6.10009e-59
-6.55815e-62
-5.65792e-65
-3.77266e-68
-1.82817e-71
-5.73883e-75
-8.77556e-79
-2.94489e-30
-2.74933e-32
-2.0543e-34
-1.24592e-36
-6.22568e-39
-2.60197e-41
-9.18085e-44
-2.75489e-46
-7.04899e-49
-1.53824e-51
-2.85273e-54
-4.46589e-57
-5.83668e-60
-6.26452e-63
-5.38798e-66
-3.57685e-69
-1.72354e-72
-5.37389e-76
-8.15401e-80
-2.66892e-31
-2.31552e-33
-1.67528e-35
-1.00734e-37
-5.06497e-40
-2.14043e-42
-7.64572e-45
-2.31766e-47
-5.97382e-50
-1.3087e-52
-2.42864e-55
-3.7929e-58
-4.93185e-61
-5.25358e-64
-4.47491e-67
-2.9365e-70
-1.39637e-73
-4.29036e-77
-6.40711e-81
-2.7834e-32
-2.25554e-34
-1.55121e-36
-8.98183e-39
-4.39439e-41
-1.81911e-43
-6.3944e-46
-1.91158e-48
-4.86293e-51
-1.05098e-53
-1.92204e-56
-2.95368e-59
-3.77297e-62
-3.94165e-65
-3.28748e-68
-2.10923e-71
-9.79326e-75
-2.9346e-78
-4.26975e-82
-2.91993e-33
-2.19565e-35
-1.42462e-37
-7.8863e-40
-3.72236e-42
-1.4944e-44
-5.10919e-47
-1.48687e-49
-3.68197e-52
-7.7399e-55
-1.37537e-57
-2.0513e-60
-2.54014e-63
-2.56974e-66
-2.07341e-69
-1.2858e-72
-5.76603e-76
-1.66768e-79
-2.34071e-83
-3.26866e-34
-2.2545e-36
-1.35269e-38
-6.98131e-41
-3.09382e-43
-1.17304e-45
-3.80505e-48
-1.05416e-50
-2.49099e-53
-5.00445e-56
-8.50717e-59
-1.21438e-61
-1.4396e-64
-1.39427e-67
-1.07694e-70
-6.39247e-74
-2.74351e-77
-7.59294e-81
-1.01968e-84
-3.59604e-35
-2.23291e-37
-1.21643e-39
-5.7527e-42
-2.35366e-44
-8.29196e-47
-2.51172e-49
-6.52376e-52
-1.44965e-54
-2.7451e-57
-4.40636e-60
-5.94772e-63
-6.67442e-66
-6.12456e-69
-4.48514e-72
-2.5256e-75
-1.02878e-78
-2.70349e-82
-3.44846e-86
-3.65041e-36
-2.00683e-38
-9.75541e-41
-4.15223e-43
-1.54095e-45
-4.96036e-48
-1.38149e-50
-3.31693e-53
-6.84374e-56
-1.20776e-58
-1.81214e-61
-2.29201e-64
-2.41494e-67
-2.08407e-70
-1.43733e-73
-7.63136e-77
-2.93391e-80
-7.2833e-84
-8.78298e-88
-3.26928e-37
-1.56102e-39
-6.65617e-42
-2.51067e-44
-8.3327e-47
-2.41908e-49
-6.12017e-52
-1.34331e-54
-2.54736e-57
-4.1508e-60
-5.77289e-63
-6.79063e-66
-6.67304e-69
-5.38407e-72
-3.47897e-75
-1.73376e-78
-6.26652e-82
-1.46461e-85
-1.66507e-89
-2.22815e-38
-9.18107e-41
-3.41632e-43
-1.13669e-45
-3.3597e-48
-8.76285e-51
-2.00707e-53
-4.01541e-56
-6.98127e-59
-1.04826e-61
-1.34933e-64
-1.47454e-67
-1.35052e-70
-1.01846e-73
-6.16615e-77
-2.88552e-80
-9.81264e-84
-2.16153e-87
-2.31981e-91
-1.19676e-39
-4.16279e-42
-1.33003e-44
-3.85785e-47
-1.00697e-49
-2.34571e-52
-4.84442e-55
-8.81105e-58
-1.40239e-60
-1.93926e-63
-2.31057e-66
-2.34744e-69
-2.00635e-72
-1.41657e-75
-8.05259e-79
-3.54702e-82
-1.13793e-85
-2.36956e-89
-2.40835e-93
-3.89629e-41
-1.18298e-43
-3.34433e-46
-8.67578e-49
-2.04306e-51
-4.32668e-54
-8.1771e-57
-1.36902e-59
-2.01607e-62
-2.5912e-65
-2.88105e-68
-2.7411e-71
-2.20085e-74
-1.4638e-77
-7.85792e-81
-3.27595e-84
-9.96698e-88
-1.97197e-91
-1.90757e-95
-8.27087e-43
-2.2242e-45
-5.66158e-48
-1.33668e-50
-2.88679e-53
-5.64146e-56
-9.889e-59
-1.54247e-61
-2.12448e-64
-2.56268e-67
-2.68242e-70
-2.40923e-73
-1.83063e-76
-1.15482e-79
-5.89168e-83
-2.3387e-86
-6.78648e-90
-1.28264e-93
-1.18709e-97
-1.12194e-44
-2.79832e-47
-6.6306e-50
-1.46055e-52
-2.94964e-55
-5.40399e-58
-8.9032e-61
-1.30856e-63
-1.70244e-66
-1.94436e-69
-1.93115e-72
-1.64917e-75
-1.19373e-78
-7.18612e-82
-3.50435e-85
-1.33161e-88
-3.70429e-92
-6.72048e-96
-5.97817e-100
-1.23252e-46
-2.64874e-49
-5.79137e-52
-1.20474e-54
-2.30086e-57
-3.9916e-60
-6.23651e-63
-8.70736e-66
-1.07798e-68
-1.17356e-71
-1.1129e-74
-9.08894e-78
-6.30097e-81
-3.63803e-84
-1.70384e-87
-6.22571e-91
-1.66733e-94
-2.91561e-98
-2.50249e-102
-1.25291e-48
-2.33586e-51
-4.50695e-54
-8.30611e-57
-1.41967e-59
-2.35268e-62
-3.51375e-65
-4.69327e-68
-5.56405e-71
-5.80723e-74
-5.28591e-77
-4.14849e-80
-2.76696e-83
-1.53877e-86
-6.94875e-90
-2.45073e-93
-6.34135e-97
-1.07242e-100
-8.9105e-105
-1.17105e-50
-1.90883e-53
-3.27131e-56
-5.37539e-59
-8.27966e-62
-1.24104e-64
-1.68669e-67
-2.1092e-70
-2.40491e-73
-2.41726e-76
-2.12094e-79
-1.60604e-82
-1.03449e-85
-5.56093e-89
-2.42945e-92
-8.29645e-96
-2.08033e-99
-3.41196e-103
-2.75154e-107
-1.00369e-52
-1.44143e-55
-2.20641e-58
-3.25294e-61
-4.5443e-64
-6.19544e-67
-7.70321e-70
-8.87957e-73
-9.36421e-76
-8.74959e-79
-7.33697e-82
-5.3782e-85
-3.35662e-88
-1.7495e-91
-7.41584e-95
-2.45873e-98
-5.98966e-102
-9.55e-106
-7.49197e-110
-7.82246e-55
-9.99408e-58
-1.3757e-60
-1.83262e-63
-2.33669e-66
-2.91484e-69
-3.3341e-72
-3.56229e-75
-3.49079e-78
-3.0449e-81
-2.39759e-84
-1.65571e-87
-9.77747e-91
-4.86856e-94
-2.00718e-97
-6.47621e-101
-1.53601e-104
-2.38552e-108
-1.82368e-112
-5.52373e-57
-6.33999e-60
-7.90336e-63
-9.58144e-66
-1.12212e-68
-1.28864e-71
-1.36368e-74
-1.35734e-77
-1.24183e-80
-1.01558e-83
-7.54172e-87
-4.92339e-90
-2.75937e-93
-1.31027e-96
-5.16726e-100
-1.60095e-103
-3.66003e-107
-5.49967e-111
-4.08287e-115
-3.50439e-59
-3.65581e-62
-4.16275e-65
-4.62998e-68
-5.01519e-71
-5.33704e-74
-5.2562e-77
-4.89931e-80
-4.20544e-83
-3.23882e-86
-2.27709e-89
-1.41022e-92
-7.5246e-96
-3.41805e-99
-1.29235e-102
-3.85215e-106
-8.50159e-110
-1.23741e-113
-8.92784e-118
-1.99022e-61
-1.90948e-64
-2.00411e-67
-2.06213e-70
-2.08097e-73
-2.06591e-76
-1.90502e-79
-1.6716e-82
-1.35289e-85
-9.85607e-89
-6.58625e-92
-3.88334e-95
-1.97882e-98
-8.62196e-102
-3.13264e-105
-9.00034e-109
-1.92042e-112
-2.71049e-116
-1.90199e-120
-1.00591e-63
-8.99031e-67
-8.7859e-70
-8.43895e-73
-7.99589e-76
-7.45755e-79
-6.47936e-82
-5.38127e-85
-4.12727e-88
-2.85726e-91
-1.82179e-94
-1.0263e-97
-5.00999e-101
-2.09956e-104
-7.34732e-108
-2.03857e-111
-4.21166e-115
-5.77067e-119
-3.94127e-123
-4.51231e-66
-3.80569e-69
-3.49955e-72
-3.16685e-75
-2.84005e-78
-2.50642e-81
-2.06499e-84
-1.63232e-87
-1.19246e-90
-7.88085e-94
-4.81271e-97
-2.59968e-100
-1.21954e-103
-4.92848e-107
-1.66493e-110
-4.46943e-114
-8.95383e-118
-1.19227e-121
-7.93124e-126
-1.79105e-68
-1.44458e-71
-1.26379e-74
-1.08783e-77
-9.31098e-81
-7.8328e-84
-6.15949e-87
-4.66053e-90
-3.25968e-93
-2.06613e-96
-1.21312e-99
-6.30563e-103
-2.85138e-106
-1.114e-109
-3.64103e-113
-9.47395e-117
-1.84305e-120
-2.38755e-124
-1.54796e-128
-6.28302e-71
-4.91137e-74
-4.13389e-77
-3.4176e-80
-2.81543e-83
-2.27445e-86
-1.7184e-89
-1.25173e-92
-8.42524e-96
-5.14554e-99
-2.91592e-102
-1.46358e-105
-6.39908e-109
-2.42287e-112
-7.67847e-116
-1.94003e-119
-3.67005e-123
-4.62988e-127
-2.92746e-131
-1.94679e-73
-1.49476e-76
-1.22429e-79
-9.81673e-83
-7.8498e-86
-6.13523e-89
-4.48286e-92
-3.16172e-95
-2.0585e-98
-1.21693e-101
-6.68136e-105
-3.24957e-108
-1.37785e-111
-5.06821e-115
-1.56075e-118
-3.83572e-122
-7.06562e-126
-8.68865e-130
-5.361e-134
-5.33122e-76
-4.07462e-79
-3.28459e-82
-2.57934e-85
-2.01893e-88
-1.53792e-91
-1.09387e-94
-7.5123e-98
-4.75488e-101
-2.73328e-104
-1.4594e-107
-6.90124e-111
-2.84611e-114
-1.0195e-117
-3.05704e-121
-7.32021e-125
-1.31471e-128
-1.57739e-132
-9.50279e-137
-1.29223e-78
-9.96161e-82
-7.9926e-85
-6.20643e-88
-4.79483e-91
-3.58571e-94
-2.49856e-97
-1.68012e-100
-1.03892e-103
-5.83268e-107
-3.03984e-110
-1.40223e-113
-5.64059e-117
-1.97226e-120
-5.77011e-124
-1.3484e-127
-2.36413e-131
-2.76996e-135
-1.63018e-139
-2.77933e-81
-2.18922e-84
-1.76769e-87
-1.37019e-90
-1.05327e-93
-7.78741e-97
-5.34928e-100
-3.54088e-103
-2.14924e-106
-1.18347e-109
-6.04194e-113
-2.7273e-116
-1.073e-119
-3.67059e-123
-1.04977e-126
-2.39778e-130
-4.1089e-134
-4.7053e-138
-2.70613e-142
-5.3227e-84
-4.33847e-87
-3.5635e-90
-2.78255e-93
-2.14494e-96
-1.5786e-99
-1.07538e-102
-7.04311e-106
-4.21544e-109
-2.28591e-112
-1.14706e-115
-5.08201e-119
-1.96058e-122
-6.576e-126
-1.8418e-129
-4.11792e-133
-6.90474e-137
-7.73425e-141
-6.24942e-145
-9.11674e-87
-7.7843e-90
-6.57164e-93
-5.21487e-96
-4.06124e-99
-2.99454e-102
-2.03463e-105
-1.32486e-108
-7.85257e-112
-4.20946e-115
-2.08283e-118
-9.0828e-122
-3.44437e-125
-1.13504e-128
-3.11858e-132
-6.83445e-136
-1.12249e-139
-1.24744e-143
-2.22654e-147
-1.40425e-89
-1.27084e-92
-1.11359e-95
-9.05541e-99
-7.17471e-102
-5.33249e-105
-3.63302e-108
-2.36259e-111
-1.3923e-114
-7.4042e-118
-3.62326e-121
-1.55926e-124
-5.82545e-128
-1.88962e-131
-5.1011e-135
-1.09717e-138
-1.76707e-142
-3.93039e-146
-7.50432e-150
-1.95773e-92
-1.89869e-95
-1.74289e-98
-1.46362e-101
-1.18746e-104
-8.94616e-108
-6.14182e-111
-4.00541e-114
-2.35549e-117
-1.24669e-120
-6.05009e-124
-2.57557e-127
-9.49944e-131
-3.03828e-134
-8.07022e-138
-1.70554e-141
-4.41529e-145
-1.27105e-148
-2.3954e-152
-2.48925e-95
-2.61366e-98
-2.53456e-101
-2.21364e-104
-1.84987e-107
-1.4199e-110
-9.86683e-114
-6.47686e-117
-3.81343e-120
-2.01456e-123
-9.71917e-127
-4.10167e-130
-1.49624e-133
-4.72583e-137
-1.23668e-140
-2.73442e-144
-1.43208e-147
-4.12281e-151
-7.35041e-155
-2.9111e-98
-3.33955e-101
-3.44708e-104
-3.15095e-107
-2.72629e-110
-2.14158e-113
-1.51225e-116
-1.00244e-119
-5.92622e-123
-3.13276e-126
-1.50577e-129
-6.31135e-133
-2.28079e-136
-7.12338e-140
-1.8574e-143
-8.96411e-147
-4.48102e-150
-1.31623e-153
-2.21725e-157
-3.16207e-101
-3.99456e-104
-4.41725e-107
-4.24888e-110
-3.8231e-113
-3.0852e-116
-2.22124e-119
-1.49095e-122
-8.87183e-126
-4.70294e-129
-2.25616e-132
-9.40691e-136
-3.37231e-139
-1.04314e-142
-5.42385e-146
-2.95108e-149
-1.35655e-152
-4.08842e-156
-6.57765e-160
-3.22255e-104
-4.512e-107
-5.37381e-110
-5.46349e-113
-5.13075e-116
-4.26685e-119
-3.14073e-122
-2.13943e-125
-1.28393e-128
-6.83682e-132
-3.27847e-135
-1.36153e-138
-4.84726e-142
-2.68567e-145
-1.63662e-148
-9.50234e-152
-4.01645e-155
-1.22746e-158
-1.91536e-162
-3.11777e-107
-4.86126e-110
-6.26055e-113
-6.75019e-116
-6.63358e-119
-5.6982e-122
-4.29692e-125
-2.97529e-128
-1.80343e-131
-9.65891e-135
-4.63491e-138
-1.91908e-141
-9.00718e-145
-7.91867e-148
-4.97346e-151
-2.90285e-154
-1.17687e-157
-3.55331e-161
-5.45938e-165
-2.89279e-110
-5.03784e-113
-7.03349e-116
-8.06034e-119
-8.30342e-122
-7.37878e-125
-5.70837e-128
-4.02221e-131
-2.46488e-134
-1.32898e-137
-6.3865e-141
-2.84567e-144
-2.90485e-147
-2.2998e-150
-1.50144e-153
-8.47867e-157
-3.40116e-160
-9.98793e-164
-1.51915e-167
)
;

boundaryField
{
    leftWall
    {
        type            calculated;
        value           nonuniform List<scalar> 
50
(
-29.4294
-88.2881
-147.147
-206.006
-264.864
-323.723
-382.582
-441.44
-533.467
-658.662
-783.856
-909.051
-1034.25
-1159.44
-1284.63
-1409.83
-1535.02
-1660.22
-1785.41
-1910.61
-2035.8
-2161
-2286.19
-2411.38
-2536.57
-2624.47
-1317.62
-1.17904e-33
-1.04757e-15
-1.12463e-35
-3.04043e-34
-6.89027e-42
-5.56826e-47
-4.87301e-52
-2.12184e-57
-7.66585e-63
-7.79775e-69
-8.60717e-75
-4.60177e-81
-6.37363e-87
-8.87688e-93
-1.20988e-98
-6.01538e-105
-3.04526e-111
-8.236e-121
-4.25984e-137
-3.30936e-143
-1.49709e-150
-1.34901e-161
-2.24976e-175
)
;
    }
    rightWall
    {
        type            calculated;
        value           nonuniform List<scalar> 
50
(
-1.84131e-98
-4.30137e-95
-5.66642e-92
-4.08746e-89
-2.02289e-86
-6.85287e-84
-1.91852e-81
-3.32455e-79
-3.43795e-77
-8.92182e-78
-8.77556e-79
-8.15401e-80
-6.40711e-81
-4.26975e-82
-2.34071e-83
-1.01968e-84
-3.44846e-86
-8.78298e-88
-1.66507e-89
-2.31981e-91
-2.40835e-93
-1.90757e-95
-1.18709e-97