/*--------------------------------*- C++ -*----------------------------------*\
| =========                 |                                                 |
| \\      /  F ield         | OpenFOAM: The Open Source CFD Toolbox           |
|  \\    /   O peration     | Version:  2012                                  |
|   \\  /    A nd           | Website:  www.openfoam.com                      |
|    \\/     M anipulation  |                                                 |
\*---------------------------------------------------------------------------*/
FoamFile
{
    version     2.0;
    format      ascii;
    class       volVectorField;
    location    "0.04";
    object      Uc;
}
// * * * * * * * * * * * * * * * * * * * * * * * * * * * * * * * * * * * * * //

dimensions      [0 1 -1 0 0 0 0];


internalField   nonuniform List<vector> 
2268
(
(0.0152114 -0.00718879 0)
(0.0458642 -0.00729754 0)
(0.0772192 -0.00752065 0)
(0.109791 -0.00787249 0)
(0.144223 -0.00839968 0)
(0.181215 -0.00908249 0)
(0.221931 -0.0101598 0)
(0.26752 -0.0113853 0)
(0.320622 -0.0137104 0)
(0.383905 -0.0161965 0)
(0.465639 -0.0224303 0)
(0.579472 -0.0313667 0)
(0.721721 -0.0358597 0)
(0.883696 -0.0406856 0)
(1.05413 -0.0397949 0)
(1.11869 0.00935064 0)
(0.968161 0.0617926 0)
(0.70874 0.0608086 0)
(0.498973 0.0383249 0)
(0.359018 0.0278156 0)
(0.249733 0.023831 0)
(0.149976 0.023312 0)
(0.0503237 0.0237821 0)
(0.0151591 -0.0215417 0)
(0.0457048 -0.0218666 0)
(0.0769396 -0.0225311 0)
(0.109373 -0.0235829 0)
(0.143623 -0.025148 0)
(0.180393 -0.0271934 0)
(0.220755 -0.0303659 0)
(0.265902 -0.0340604 0)
(0.318068 -0.0407846 0)
(0.380023 -0.0483088 0)
(0.457436 -0.0655296 0)
(0.558715 -0.0899284 0)
(0.685476 -0.104432 0)
(0.832715 -0.118172 0)
(0.980857 -0.112673 0)
(1.01422 0.0360735 0)
(0.860204 0.179005 0)
(0.643434 0.168642 0)
(0.474561 0.109432 0)
(0.350551 0.081454 0)
(0.247006 0.0707729 0)
(0.149314 0.069681 0)
(0.0502624 0.0713173 0)
(0.0150553 -0.0358209 0)
(0.0453876 -0.036358 0)
(0.0763838 -0.0374496 0)
(0.108542 -0.0391897 0)
(0.142435 -0.0417454 0)
(0.178762 -0.045141 0)
(0.21844 -0.0502448 0)
(0.262703 -0.056436 0)
(0.313221 -0.0669364 0)
(0.372659 -0.0795267 0)
(0.444621 -0.104905 0)
(0.533028 -0.140197 0)
(0.644179 -0.166596 0)
(0.775475 -0.187441 0)
(0.897163 -0.17063 0)
(0.886544 0.0833805 0)
(0.720552 0.282938 0)
(0.553937 0.245894 0)
(0.43569 0.167871 0)
(0.334224 0.129572 0)
(0.241703 0.115312 0)
(0.148907 0.115163 0)
(0.0507271 0.119043 0)
(0.0149023 -0.0499786 0)
(0.04492 -0.0507213 0)
(0.0755654 -0.0522177 0)
(0.107319 -0.054626 0)
(0.140692 -0.0580985 0)
(0.176371 -0.0628173 0)
(0.215067 -0.0696079 0)
(0.258017 -0.0782893 0)
(0.306312 -0.0917808 0)
(0.362252 -0.10921 0)
(0.427927 -0.140268 0)
(0.503953 -0.182545 0)
(0.598094 -0.221257 0)
(0.704695 -0.244916 0)
(0.784306 -0.207938 0)
(0.733031 0.150011 0)
(0.586724 0.363902 0)
(0.482498 0.292928 0)
(0.403958 0.213837 0)
(0.319473 0.171484 0)
(0.235763 0.156684 0)
(0.147414 0.159398 0)
(0.050632 0.166944 0)
(0.0147012 -0.063969 0)
(0.0443056 -0.0649079 0)
(0.0744921 -0.0667798 0)
(0.105717 -0.0698274 0)
(0.138419 -0.0741235 0)
(0.173257 -0.0801178 0)
(0.210732 -0.0883055 0)
(0.252029 -0.0994066 0)
(0.297745 -0.115092 0)
(0.349664 -0.136872 0)
(0.408573 -0.171482 0)
(0.473259 -0.21783 0)
(0.550448 -0.266909 0)
(0.630131 -0.286964 0)
(0.663261 -0.218821 0)
(0.588103 0.220693 0)
(0.483183 0.411951 0)
(0.427904 0.320259 0)
(0.373687 0.249245 0)
(0.306798 0.207613 0)
(0.23456 0.194253 0)
(0.152407 0.202406 0)
(0.0537752 0.216285 0)
(0.0144576 -0.0777493 0)
(0.0435611 -0.0788727 0)
(0.0731952 -0.0810859 0)
(0.103785 -0.084735 0)
(0.135695 -0.0897509 0)
(0.169537 -0.0969478 0)
(0.205623 -0.10624 0)
(0.245017 -0.119606 0)
(0.287924 -0.136775 0)
(0.335538 -0.162228 0)
(0.387615 -0.198578 0)
(0.442312 -0.247154 0)
(0.502802 -0.30257 0)
(0.559322 -0.3153 0)
(0.556463 -0.204475 0)
(0.471552 0.282021 0)
(0.406337 0.431029 0)
(0.384192 0.337771 0)
(0.345623 0.275583 0)
(0.291558 0.238436 0)
(0.22707 0.228045 0)
(0.149364 0.244162 0)
(0.0529329 0.266714 0)
(0.0141708 -0.0912788 0)
(0.0426844 -0.0925727 0)
(0.0716708 -0.0950896 0)
(0.101517 -0.099293 0)
(0.132511 -0.104921 0)
(0.165199 -0.113219 0)
(0.199732 -0.123343 0)
(0.236997 -0.138731 0)
(0.276907 -0.156789 0)
(0.320073 -0.185116 0)
(0.365496 -0.221767 0)
(0.411173 -0.271402 0)
(0.45653 -0.328193 0)
(0.494853 -0.334078 0)
(0.470358 -0.172488 0)
(0.388097 0.329054 0)
(0.35298 0.431413 0)
(0.350495 0.349026 0)
(0.325566 0.294337 0)
(0.286822 0.263542 0)
(0.237732 0.256614 0)
(0.169352 0.284631 0)
(0.0636089 0.321791 0)
(0.0138478 -0.10452 0)
(0.0416974 -0.105968 0)
(0.0699602 -0.10875 0)
(0.0989794 -0.113452 0)
(0.128975 -0.119585 0)
(0.160414 -0.128861 0)
(0.193324 -0.139575 0)
(0.228379 -0.156677 0)
(0.265312 -0.175158 0)
(0.304185 -0.205519 0)
(0.343518 -0.241419 0)
(0.381186 -0.291138 0)
(0.414192 -0.345257 0)
(0.438919 -0.346322 0)
(0.403647 -0.131734 0)
(0.330741 0.361642 0)
(0.314904 0.422907 0)
(0.320697 0.355968 0)
(0.303747 0.307186 0)
(0.273803 0.283154 0)
(0.233164 0.279407 0)
(0.170989 0.323537 0)
(0.0653992 0.382759 0)
(0.0123909 -0.0052707 0)
(0.0358051 -0.00468904 0)
(0.0529186 -0.00259062 0)
(0.0626165 -0.00153472 0)
(0.0671136 -0.000378321 0)
(0.0675223 0.000204369 0)
(0.0654761 0.000665862 0)
(0.0617776 0.000907194 0)
(0.0571397 0.00106542 0)
(0.0519521 0.00114094 0)
(0.0464948 0.00118019 0)
(0.040919 0.00119138 0)
(0.0353212 0.00118955 0)
(0.0297507 0.00117972 0)
(0.0242323 0.00116742 0)
(0.0187719 0.0011551 0)
(0.0133654 0.00114458 0)
(0.00800116 0.001137 0)
(0.0026639 0.00113312 0)
(0.0125745 -0.0158902 0)
(0.0364528 -0.0141865 0)
(0.0538371 -0.00776768 0)
(0.0634298 -0.00456349 0)
(0.0677419 -0.00109691 0)
(0.0679646 0.000654181 0)
(0.0657552 0.00202593 0)
(0.0619469 0.00273986 0)
(0.0572381 0.00320804 0)
(0.0520047 0.00343058 0)
(0.0465182 0.00354527 0)
(0.0409249 0.00357685 0)
(0.0353173 0.00357005 0)
(0.0297422 0.00353976 0)
(0.0242224 0.00350238 0)
(0.0187627 0.00346497 0)
(0.013358 0.00343319 0)
(0.00799644 0.00341038 0)
(0.00266229 0.00339872 0)
(0.0136083 -0.0270277 0)
(0.0390654 -0.024035 0)
(0.0567883 -0.0128528 0)
(0.0657933 -0.00738937 0)
(0.0693987 -0.00163901 0)
(0.06904 0.00125394 0)
(0.0664106 0.00348413 0)
(0.0623307 0.00463663 0)
(0.057451 0.00538945 0)
(0.0521149 0.00574474 0)
(0.0465662 0.0059248 0)
(0.0409369 0.00597057 0)
(0.0353096 0.0059548 0)
(0.029725 0.00590163 0)
(0.0242022 0.00583752 0)
(0.0187436 0.00577386 0)
(0.0133428 0.0057202 0)
(0.00798684 0.00568192 0)
(0.00265904 0.00566223 0)
(0.013971 -0.0387591 0)
(0.0407205 -0.0345106 0)
(0.0594233 -0.0178714 0)
(0.0681601 -0.00991752 0)
(0.0711729 -0.00192612 0)
(0.0702747 0.00207546 0)
(0.0672019 0.0050879 0)
(0.0628149 0.00663413 0)
(0.0577259 0.00763203 0)
(0.0522578 0.00809764 0)
(0.0466263 0.00832722 0)
(0.0409482 0.00837746 0)
(0.035294 0.00834626 0)
(0.0296969 0.00826622 0)
(0.0241707 0.00817265 0)
(0.0187145 0.00808109 0)
(0.0133199 0.00800464 0)
(0.00797233 0.00795026 0)
(0.00265408 0.00792209 0)
(0.0168347 -0.0518628 0)
(0.0475194 -0.0458375 0)
(0.0664846 -0.0225673 0)
(0.0733967 -0.0118783 0)
(0.0746274 -0.00177061 0)
(0.072416 0.0032424 0)
(0.0684687 0.00690684 0)
(0.0635422 0.00877658 0)
(0.0581192 0.00996081 0)
(0.0524541 0.0105043 0)
(0.0467056 0.0107608 0)
(0.040961 0.0108022 0)
(0.035271 0.0107466 0)
(0.0296577 0.0106343 0)
(0.0241272 0.0105076 0)
(0.0186747 0.0103859 0)
(0.0132887 0.0102853 0)
(0.00795255 0.0102139 0)
(0.00264731 0.0101769 0)
(0.0166105 -0.0660892 0)
(0.0492008 -0.058526 0)
(0.0705929 -0.0270454 0)
(0.077137 -0.0131242 0)
(0.0772626 -0.00110199 0)
(0.0742054 0.0048145 0)
(0.0695944 0.00897489 0)
(0.0642227 0.0110888 0)
(0.0584966 0.0123908 0)
(0.0526408 0.0129745 0)
(0.0467734 0.0132312 0)
(0.0409598 0.013248 0)
(0.0352324 0.0131572 0)
(0.0296027 0.0130059 0)
(0.0240694 0.0128418 0)
(0.0186229 0.0126875 0)
(0.0132484 0.0125609 0)
(0.00792715 0.0124713 0)
(0.00263864 0.0124253 0)
(0.0251001 -0.0838315 0)
(0.0660593 -0.0720692 0)
(0.0845604 -0.0304717 0)
(0.0861473 -0.013157 0)
(0.0826861 0.00034919 0)
(0.0773449 0.00693528 0)
(0.0713565 0.0113624 0)
(0.0651928 0.0136077 0)
(0.0590004 0.0149412 0)
(0.0528763 0.0155193 0)
(0.046853 0.0157437 0)
(0.0409533 0.0157175 0)
(0.035181 0.015579 0)
(0.0295327 0.0153812 0)
(0.0239971 0.0151746 0)
(0.0185588 0.0149844 0)
(0.0131988 0.0148298 0)
(0.00789602 0.0147212 0)
(0.00262808 0.0146656 0)
(0.0368661 -0.11019 0)
(0.0817182 -0.0822123 0)
(0.0918078 -0.0324905 0)
(0.0912287 -0.0115674 0)
(0.0855974 0.00262674 0)
(0.0792447 0.00963153 0)
(0.0725101 0.0140778 0)
(0.0658716 0.0163376 0)
(0.0593585 0.0176154 0)
(0.0530316 0.0181408 0)
(0.0468824 0.0182996 0)
(0.0409105 0.0182111 0)
(0.0351011 0.0180115 0)
(0.0294394 0.017759 0)
(0.0239059 0.0175047 0)
(0.0184798 0.0172753 0)
(0.0131385 0.0170906 0)
(0.00785846 0.0169617 0)
(0.00261538 0.0168959 0)
(0.0132976 -0.124432 0)
(0.0400172 -0.126078 0)
(0.0670578 -0.129179 0)
(0.0946885 -0.134512 0)
(0.123043 -0.141203 0)
(0.152448 -0.151658 0)
(0.182828 -0.162871 0)
(0.214515 -0.181801 0)
(0.247141 -0.200284 0)
(0.280172 -0.231967 0)
(0.311899 -0.265452 0)
(0.340268 -0.313423 0)
(0.362395 -0.360293 0)
(0.378673 -0.358437 0)
(0.339038 -0.062723 0)
(0.278858 0.387591 0)
(0.27755 0.405758 0)
(0.289201 0.358668 0)
(0.286311 0.315403 0)
(0.281074 0.294353 0)
(0.281386 0.2871 0)
(0.30729 0.319188 0)
(0.37448 0.369469 0)
(0.01242 -0.150284 0)
(0.0373414 -0.152136 0)
(0.0624631 -0.155555 0)
(0.0879475 -0.161528 0)
(0.113843 -0.168721 0)
(0.140289 -0.180283 0)
(0.167153 -0.191788 0)
(0.194408 -0.212134 0)
(0.22163 -0.230112 0)
(0.247994 -0.261845 0)
(0.271901 -0.291499 0)
(0.291938 -0.336036 0)
(0.306087 -0.373307 0)
(0.314953 -0.369377 0)
(0.275522 0.0281872 0)
(0.23043 0.402515 0)
(0.238117 0.384424 0)
(0.25022 0.356125 0)
(0.253061 0.317997 0)
(0.254116 0.295965 0)
(0.258321 0.280947 0)
(0.281781 0.275721 0)
(0.338573 0.288308 0)
(0.0114798 -0.174308 0)
(0.034481 -0.176284 0)
(0.0575781 -0.179878 0)
(0.0808385 -0.186205 0)
(0.10425 -0.193609 0)
(0.127806 -0.205659 0)
(0.151351 -0.217085 0)
(0.174627 -0.237632 0)
(0.197196 -0.254664 0)
(0.218245 -0.284953 0)
(0.236403 -0.310675 0)
(0.250698 -0.351372 0)
(0.259764 -0.38034 0)
(0.263984 -0.374103 0)
(0.230151 0.106996 0)
(0.199001 0.400356 0)
(0.210526 0.367275 0)
(0.222396 0.349178 0)
(0.229539 0.314909 0)
(0.23541 0.292092 0)
(0.243187 0.272774 0)
(0.256545 0.246885 0)
(0.279193 0.237289 0)
(0.010502 -0.196405 0)
(0.0315146 -0.198431 0)
(0.0525386 -0.202082 0)
(0.0735668 -0.208521 0)
(0.0945456 -0.215916 0)
(0.11537 -0.227963 0)
(0.135885 -0.23907 0)
(0.15572 -0.258983 0)
(0.174457 -0.274835 0)
(0.191421 -0.302993 0)
(0.205504 -0.325045 0)
(0.216014 -0.361935 0)
(0.222441 -0.384291 0)
(0.224661 -0.375191 0)
(0.197322 0.169958 0)
(0.174793 0.391362 0)
(0.185186 0.35424 0)
(0.195005 0.340413 0)
(0.202443 0.309017 0)
(0.208584 0.285912 0)
(0.215383 0.264303 0)
(0.222919 0.234354 0)
(0.234067 0.215846 0)
(0.00952177 -0.216533 0)
(0.0285482 -0.218551 0)
(0.0475215 -0.222169 0)
(0.06638 -0.228529 0)
(0.085042 -0.235755 0)
(0.103346 -0.247456 0)
(0.121137 -0.258084 0)
(0.138011 -0.276871 0)
(0.15359 -0.291442 0)
(0.167339 -0.317259 0)
(0.178391 -0.336045 0)
(0.186239 -0.36939 0)
(0.190887 -0.386841 0)
(0.191327 -0.373862 0)
(0.169375 0.218508 0)
(0.153441 0.381483 0)
(0.1628 0.344267 0)
(0.171594 0.331678 0)
(0.179154 0.302678 0)
(0.185253 0.279949 0)
(0.191015 0.25764 0)
(0.195506 0.228928 0)
(0.198903 0.206652 0)
(0.00856236 -0.234712 0)
(0.0256518 -0.236677 0)
(0.0426417 -0.240194 0)
(0.0594344 -0.246341 0)
(0.0759314 -0.253285 0)
(0.0919427 -0.26442 0)
(0.107317 -0.274459 0)
(0.12167 -0.291885 0)
(0.134672 -0.305157 0)
(0.145909 -0.328661 0)
(0.154726 -0.344615 0)
(0.160747 -0.374762 0)
(0.164245 -0.388491 0)
(0.162502 -0.369459 0)
(0.143769 0.255284 0)
(0.132502 0.372057 0)
(0.14065 0.336099 0)
(0.148259 0.32336 0)
(0.155111 0.296511 0)
(0.160509 0.274561 0)
(0.165251 0.252472 0)
(0.168572 0.226244 0)
(0.170548 0.203934 0)
(0.00763286 -0.250992 0)
(0.022852 -0.252875 0)
(0.0379428 -0.256244 0)
(0.0527877 -0.262094 0)
(0.0672801 -0.268684 0)
(0.0812228 -0.279132 0)
(0.0944728 -0.288522 0)
(0.106684 -0.304526 0)
(0.117575 -0.316533 0)
(0.126819 -0.337873 0)
(0.133933 -0.351417 0)
(0.138625 -0.378728 0)
(0.14127 -0.389515 0)
(0.13638 -0.360352 0)
(0.118841 0.282876 0)
(0.111667 0.363009 0)
(0.119549 0.329038 0)
(0.126757 0.31553 0)
(0.13339 0.290787 0)
(0.138527 0.269697 0)
(0.142653 0.248423 0)
(0.145057 0.224541 0)
(0.145593 0.203112 0)
(0.00676235 -0.265462 0)
(0.0202333 -0.267244 0)
(0.0335566 -0.270437 0)
(0.0466045 -0.275939 0)
(0.0592663 -0.282135 0)
(0.0713501 -0.291844 0)
(0.082723 -0.300561 0)
(0.0930856 -0.315179 0)
(0.102203 -0.325994 0)
(0.109824 -0.345366 0)
(0.115603 -0.356885 0)
(0.119312 -0.381705 0)
(0.12131 -0.390025 0)
(0.112094 -0.34429 0)
(0.0938276 0.303003 0)
(0.0904737 0.353469 0)
(0.098593 0.322496 0)
(0.105508 0.307877 0)
(0.111912 0.285336 0)
(0.116787 0.265086 0)
(0.120646 0.245009 0)
(0.122965 0.22321 0)
(0.123675 0.20319 0)
(0.00591483 -0.278205 0)
(0.0176908 -0.27988 0)
(0.0293195 -0.282884 0)
(0.0406759 -0.288024 0)
(0.0516545 -0.293814 0)
(0.062077 -0.302788 0)
(0.0718231 -0.310846 0)
(0.0806366 -0.324171 0)
(0.0883228 -0.333893 0)
(0.0946733 -0.35151 0)
(0.0994424 -0.361344 0)
(0.10242 -0.383968 0)
(0.103915 -0.390117 0)
(0.0890841 -0.318712 0)
(0.0686944 0.316442 0)
(0.0694361 0.34266 0)
(0.078501 0.316034 0)
(0.0857198 0.300134 0)
(0.0922803 0.280049 0)
(0.0971438 0.260585 0)
(0.100889 0.241867 0)
(0.103117 0.221783 0)
(0.103858 0.203159 0)
(0.00517005 -0.289348 0)
(0.0154544 -0.290912 0)
(0.0255846 -0.293724 0)
(0.0354362 -0.298503 0)
(0.044905 -0.303889 0)
(0.0538282 -0.31216 0)
(0.0620953 -0.319581 0)
(0.0694928 -0.331731 0)
(0.0758654 -0.340466 0)
(0.0810586 -0.356542 0)
(0.084912 -0.36498 0)
(0.0872798 -0.385706 0)
(0.0883409 -0.389833 0)
(0.0677974 -0.282198 0)
(0.0448526 0.323614 0)
(0.0495322 0.330041 0)
(0.0595803 0.309442 0)
(0.0668122 0.292202 0)
(0.0733075 0.274859 0)
(0.078077 0.256094 0)
(0.0818529 0.238799 0)
(0.0843026 0.22015 0)
(0.0855105 0.202834 0)
(0.00438216 -0.29895 0)
(0.0130997 -0.300411 0)
(0.0216877 -0.303041 0)
(0.0300422 -0.307487 0)
(0.0380761 -0.312499 0)
(0.0456541 -0.320137 0)
(0.052684 -0.326981 0)
(0.0589832 -0.338099 0)
(0.0644192 -0.345967 0)
(0.0688388 -0.360703 0)
(0.0721194 -0.36799 0)
(0.0740866 -0.387053 0)
(0.0748222 -0.389232 0)
(0.0477445 -0.233775 0)
(0.0218599 0.324372 0)
(0.030793 0.315602 0)
(0.042016 0.302501 0)
(0.0497372 0.284114 0)
(0.0563958 0.269725 0)
(0.0611911 0.251614 0)
(0.0649539 0.235703 0)
(0.0674916 0.218234 0)
(0.0689681 0.202052 0)
(0.00378394 -0.307159 0)
(0.0113015 -0.308523 0)
(0.0186772 -0.310977 0)
(0.0258028 -0.315112 0)
(0.0325884 -0.319771 0)
(0.0389046 -0.326832 0)
(0.0446665 -0.333145 0)
(0.0497372 -0.343364 0)
(0.0540202 -0.350472 0)
(0.0574199 -0.364059 0)
(0.0598697 -0.370395 0)
(0.0613498 -0.388114 0)
(0.0617503 -0.388331 0)
(0.0335664 -0.178072 0)
(0.0080328 0.320429 0)
(0.0178704 0.300679 0)
(0.028109 0.295851 0)
(0.0344534 0.276626 0)
(0.0400464 0.2649 0)
(0.044326 0.247319 0)
(0.04797 0.232554 0)
(0.050767 0.216022 0)
(0.0527674 0.200771 0)
(0.00304991 -0.314029 0)
(0.00910988 -0.315302 0)
(0.015059 -0.317592 0)
(0.0208148 -0.321445 0)
(0.0263114 -0.325785 0)
(0.0314572 -0.33234 0)
(0.0361955 -0.338192 0)
(0.0404259 -0.347668 0)
(0.0440886 -0.354156 0)
(0.0471097 -0.366829 0)
(0.0494666 -0.372456 0)
(0.0508887 -0.38897 0)
(0.0515262 -0.387631 0)
(0.018453 -0.116256 0)
(-0.00908295 0.312012 0)
(0.00380697 0.286252 0)
(0.0140286 0.289713 0)
(0.0204659 0.269918 0)
(0.025947 0.260478 0)
(0.0300641 0.243301 0)
(0.0335434 0.229412 0)
(0.036324 0.213558 0)
(0.0385242 0.199013 0)
(0.00252498 -0.319633 0)
(0.00753808 -0.320828 0)
(0.012444 -0.322977 0)
(0.0171637 -0.32659 0)
(0.0216257 -0.33065 0)
(0.0257349 -0.336778 0)
(0.0294207 -0.342222 0)
(0.0325827 -0.351068 0)
(0.0351625 -0.35703 0)
(0.0371254 -0.368965 0)
(0.0383598 -0.37393 0)
(0.0389548 -0.389523 0)
(0.039333 -0.387314 0)
(0.022058 -0.0651399 0)
(0.00490358 0.305858 0)
(0.00564206 0.278708 0)
(0.00695088 0.285668 0)
(0.00868359 0.265752 0)
(0.0110328 0.256775 0)
(0.0140517 0.239833 0)
(0.0172493 0.22617 0)
(0.020467 0.210771 0)
(0.0233607 0.196679 0)
(0.00199427 -0.324175 0)
(0.00595783 -0.325309 0)
(0.00984733 -0.327338 0)
(0.0136129 -0.330759 0)
(0.0172102 -0.334582 0)
(0.0205939 -0.340378 0)
(0.0237259 -0.345476 0)
(0.0265686 -0.353851 0)
(0.0290577 -0.359343 0)
(0.0311212 -0.370699 0)
(0.0326464 -0.37497 0)
(0.0332698 -0.389708 0)
(0.0386956 -0.39228 0)
(0.0139538 -0.0172242 0)
(-0.0130611 0.302373 0)
(-0.00678908 0.275148 0)
(-0.00318869 0.284296 0)
(-0.00184095 0.26403 0)
(-9.4746e-05 0.254382 0)
(0.0020859 0.237001 0)
(0.00482952 0.223032 0)
(0.00777641 0.207714 0)
(0.0107661 0.193823 0)
(0.00144993 -0.327638 0)
(0.00432369 -0.32872 0)
(0.00712151 -0.33065 0)
(0.00978433 -0.33391 0)
(0.0122599 -0.337536 0)
(0.0144651 -0.343042 0)
(0.0163419 -0.347847 0)
(0.0177602 -0.355763 0)
(0.0186564 -0.360834 0)
(0.0188564 -0.371484 0)
(0.0183319 -0.375191 0)
(0.0165913 -0.388285 0)
(0.0153239 -0.39718 0)
(0.0239095 0.0045626 0)
(0.0267972 0.304862 0)
(0.00580397 0.287459 0)
(-0.0122724 0.286538 0)
(-0.0179832 0.266174 0)
(-0.019786 0.252296 0)
(-0.0172855 0.234383 0)
(-0.0136445 0.219233 0)
(-0.00905789 0.203941 0)
(-0.00456612 0.190077 0)
(0.000963774 -0.330064 0)
(0.00287954 -0.331108 0)
(0.00475991 -0.332964 0)
(0.00658666 -0.336108 0)
(0.00834325 -0.339592 0)
(0.0100384 -0.344907 0)
(0.0116716 -0.34951 0)
(0.0133559 -0.357219 0)
(0.0151302 -0.362063 0)
(0.0174378 -0.372775 0)
(0.020182 -0.376131 0)
(0.0241715 -0.389528 0)
(0.0355222 -0.405383 0)
(0.0226681 0.0176971 0)
(-0.00104625 0.312692 0)
(-0.0073546 0.307075 0)
(-0.0169581 0.294749 0)
(-0.0244842 0.271272 0)
(-0.0272741 0.251817 0)
(-0.0270269 0.232101 0)
(-0.0243204 0.215135 0)
(-0.0203613 0.199449 0)
(-0.0158121 0.185481 0)
(0.000503491 -0.331558 0)
(0.00149687 -0.332577 0)
(0.00245229 -0.334385 0)
(0.00333536 -0.337452 0)
(0.00412136 -0.340848 0)
(0.00473605 -0.34602 0)
(0.00515654 -0.350513 0)
(0.0051541 -0.357965 0)
(0.00471988 -0.36273 0)
(0.00314797 -0.372924 0)
(0.00129158 -0.376979 0)
(0.00155497 -0.393278 0)
(-0.019801 -0.391037 0)
(-0.0330368 0.0303979 0)
(-0.012799 0.303509 0)
(-0.0310867 0.340985 0)
(-0.0638401 0.303418 0)
(-0.0680643 0.274415 0)
(-0.0649764 0.248375 0)
(-0.0569615 0.227238 0)
(-0.0485163 0.208789 0)
(-0.0398982 0.193154 0)
(-0.0321024 0.179368 0)
(5.57324e-05 -0.333756 0)
(0.000166023 -0.334767 0)
(0.000272552 -0.336562 0)
(0.000373107 -0.3396 0)
(0.000464436 -0.342964 0)
(0.000544059 -0.348031 0)
(0.000613499 -0.352467 0)
(0.000722039 -0.35964 0)
(0.00141123 -0.364886 0)
(0.00537657 -0.376823 0)
(0.0288245 -0.398575 0)
(0.109301 -0.456904 0)
(0.261578 -0.460961 0)
(0.307007 0.0684548 0)
(0.16762 0.385549 0)
(0.0285302 0.417153 0)
(-0.0366604 0.325708 0)
(-0.0610029 0.280843 0)
(-0.0665428 0.244414 0)
(-0.0638487 0.220436 0)
(-0.0572555 0.200475 0)
(-0.0495467 0.185056 0)
(-0.0417116 0.171754 0)
(-0.00912971 -0.326274 0)
(-0.027609 -0.327071 0)
(-0.046727 -0.328456 0)
(-0.0669672 -0.330805 0)
(-0.0887048 -0.333386 0)
(-0.112528 -0.33717 0)
(-0.138592 -0.340664 0)
(-0.167681 -0.345822 0)
(-0.198921 -0.351552 0)
(-0.233804 -0.362701 0)
(-0.270165 -0.40345 0)
(-0.314146 -0.492498 0)
(-0.362745 -0.531722 0)
(-0.413253 0.14439 0)
(-0.410796 0.447592 0)
(-0.313419 0.397053 0)
(-0.218203 0.31563 0)
(-0.166744 0.263666 0)
(-0.130364 0.230591 0)
(-0.105221 0.206278 0)
(-0.0856285 0.188312 0)
(-0.0702357 0.173998 0)
(-0.0575556 0.162191 0)
(-0.00873183 -0.308344 0)
(-0.0263507 -0.308763 0)
(-0.0444849 -0.309365 0)
(-0.0634711 -0.310513 0)
(-0.083701 -0.31154 0)
(-0.10565 -0.313053 0)
(-0.129749 -0.314406 0)
(-0.157012 -0.315482 0)
(-0.188032 -0.319354 0)
(-0.228158 -0.319546 0)
(-0.291024 -0.346907 0)
(-0.424182 -0.371024 0)
(-0.63294 -0.394454 0)
(-0.677606 0.102863 0)
(-0.500931 0.309064 0)
(-0.333578 0.269477 0)
(-0.235762 0.249169 0)
(-0.176663 0.218995 0)
(-0.139055 0.200891 0)
(-0.112531 0.184043 0)
(-0.0929472 0.171167 0)
(-0.0773927 0.160034 0)
(-0.0646808 0.15063 0)
(-0.00933029 -0.290188 0)
(-0.0281774 -0.290264 0)
(-0.0475792 -0.290134 0)
(-0.0679388 -0.290194 0)
(-0.0896436 -0.289706 0)
(-0.11318 -0.289164 0)
(-0.139039 -0.288077 0)
(-0.167849 -0.285445 0)
(-0.200887 -0.284999 0)
(-0.238733 -0.275521 0)
(-0.285439 -0.280788 0)
(-0.342797 -0.245631 0)
(-0.41418 -0.238241 0)
(-0.448206 0.0257587 0)
(-0.392674 0.152752 0)
(-0.309466 0.173923 0)
(-0.246924 0.18353 0)
(-0.197605 0.175651 0)
(-0.160409 0.169042 0)
(-0.131531 0.160201 0)
(-0.108649 0.152322 0)
(-0.0902868 0.144787 0)
(-0.0752453 0.13798 0)
(-0.00884674 -0.271916 0)
(-0.0266666 -0.271677 0)
(-0.0449098 -0.270879 0)
(-0.0638467 -0.269947 0)
(-0.0838366 -0.268041 0)
(-0.105261 -0.265634 0)
(-0.128655 -0.262097 0)
(-0.154806 -0.256177 0)
(-0.184808 -0.250899 0)
(-0.220581 -0.235618 0)
(-0.264842 -0.229249 0)
(-0.318961 -0.185109 0)
(-0.381692 -0.163949 0)
(-0.395064 -0.00088579 0)
(-0.343845 0.0720903 0)
(-0.285525 0.11232 0)
(-0.234297 0.13077 0)
(-0.191828 0.136144 0)
(-0.158648 0.137807 0)
(-0.131961 0.135581 0)
(-0.110633 0.1325 0)
(-0.0931763 0.128603 0)
(-0.0787527 0.124545 0)
(-0.00891293 -0.254064 0)
(-0.0268706 -0.253565 0)
(-0.0452177 -0.25221 0)
(-0.0642192 -0.250481 0)
(-0.0841301 -0.247399 0)
(-0.105194 -0.243566 0)
(-0.127668 -0.238057 0)
(-0.151622 -0.229849 0)
(-0.177393 -0.221163 0)
(-0.204261 -0.202385 0)
(-0.232717 -0.189384 0)
(-0.258441 -0.144712 0)
(-0.280346 -0.119268 0)
(-0.288308 -0.0241196 0)
(-0.271659 0.0271044 0)
(-0.242981 0.0698541 0)
(-0.211719 0.0903166 0)
(-0.181874 0.103906 0)
(-0.155644 0.110327 0)
(-0.132801 0.113274 0)
(-0.113351 0.113816 0)
(-0.0967403 0.113043 0)
(-0.0825802 0.111373 0)
(-0.00833705 -0.236724 0)
(-0.0250964 -0.236007 0)
(-0.0421287 -0.234204 0)
(-0.0596016 -0.231822 0)
(-0.0777258 -0.227824 0)
(-0.0966686 -0.222926 0)
(-0.116672 -0.215998 0)
(-0.137871 -0.206518 0)
(-0.160506 -0.195835 0)
(-0.184212 -0.176875 0)
(-0.209056 -0.161314 0)
(-0.232337 -0.12352 0)
(-0.252512 -0.0981609 0)
(-0.256879 -0.0328326 0)
(-0.24214 0.00426639 0)
(-0.22016 0.0417699 0)
(-0.194874 0.0615587 0)
(-0.170507 0.078169 0)
(-0.148131 0.0872057 0)
(-0.128239 0.0934384 0)
(-0.110878 0.0966486 0)
(-0.0957726 0.0983305 0)
(-0.0826809 0.098692 0)
(-0.00800069 -0.220301 0)
(-0.024075 -0.219426 0)
(-0.0403458 -0.217309 0)
(-0.0569401 -0.214472 0)
(-0.0739523 -0.209854 0)
(-0.0914239 -0.204292 0)
(-0.109391 -0.196464 0)
(-0.127638 -0.1864 0)
(-0.146148 -0.174593 0)
(-0.164006 -0.156337 0)
(-0.181085 -0.139709 0)
(-0.194843 -0.107894 0)
(-0.204181 -0.0841203 0)
(-0.206883 -0.039767 0)
(-0.200498 -0.0100339 0)
(-0.188027 0.0214397 0)
(-0.172079 0.0404408 0)
(-0.155017 0.0576419 0)
(-0.138003 0.0681375 0)
(-0.121925 0.0763501 0)
(-0.107154 0.0814368 0)
(-0.0938184 0.0849529 0)
(-0.0819096 0.0869387 0)
(-0.00739449 -0.204825 0)
(-0.0222254 -0.203835 0)
(-0.0371694 -0.201522 0)
(-0.0522959 -0.198373 0)
(-0.0676596 -0.193409 0)
(-0.0832754 -0.187477 0)
(-0.0991491 -0.179262 0)
(-0.115131 -0.169195 0)
(-0.131134 -0.157105 0)
(-0.146524 -0.140403 0)
(-0.160998 -0.123925 0)
(-0.172904 -0.09788 0)
(-0.181306 -0.0763004 0)
(-0.1834 -0.0427667 0)
(-0.178396 -0.0184822 0)
(-0.168821 0.00772702 0)
(-0.15608 0.0253156 0)
(-0.142237 0.041701 0)
(-0.128095 0.0527595 0)
(-0.114499 0.0619002 0)
(-0.101735 0.0682087 0)
(-0.0900089 0.0729881 0)
(-0.0793509 0.0762188 0)
(-0.00687541 -0.190481 0)
(-0.0206531 -0.189422 0)
(-0.034484 -0.187011 0)
(-0.0484012 -0.183689 0)
(-0.0623958 -0.178582 0)
(-0.0764208 -0.172509 0)
(-0.0904002 -0.164221 0)
(-0.10409 -0.154409 0)
(-0.11733 -0.142496 0)
(-0.129465 -0.127343 0)
(-0.14021 -0.111634 0)
(-0.148428 -0.0899419 0)
(-0.153608 -0.0705851 0)
(-0.155126 -0.0448517 0)
(-0.15242 -0.0241467 0)
(-0.146334 -0.00235096 0)
(-0.137712 0.0139188 0)
(-0.127671 0.0290897 0)
(-0.116858 0.0402855 0)
(-0.105977 0.0497696 0)
(-0.0953698 0.0568471 0)
(-0.0853247 0.0624649 0)
(-0.0759643 0.0666193 0)
(-0.00626225 -0.177275 0)
(-0.0187955 -0.17618 0)
(-0.0313304 -0.17375 0)
(-0.0438694 -0.170356 0)
(-0.056376 -0.165275 0)
(-0.0687976 -0.159231 0)
(-0.0810386 -0.151142 0)
(-0.0929156 -0.141788 0)
(-0.104254 -0.13041 0)
(-0.114614 -0.116817 0)
(-0.123721 -0.102206 0)
(-0.130823 -0.0839708 0)
(-0.135468 -0.0666798 0)
(-0.136916 -0.0457758 0)
(-0.134993 -0.0278754 0)
(-0.130362 -0.00939452 0)
(-0.123583 0.00548019 0)
(-0.115516 0.0193268 0)
(-0.106666 0.0302827 0)
(-0.0975994 0.0397204 0)
(-0.0886067 0.0471943 0)
(-0.0799501 0.0533185 0)
(-0.0717577 0.0581213 0)
(-0.00569467 -0.165256 0)
(-0.0170818 -0.164154 0)
(-0.0284368 -0.161761 0)
(-0.0397397 -0.158379 0)
(-0.0509309 -0.153431 0)
(-0.0619347 -0.147527 0)
(-0.072638 -0.139782 0)
(-0.0828499 -0.130944 0)
(-0.0923956 -0.120261 0)
(-0.100897 -0.108006 0)
(-0.108126 -0.094594 0)
(-0.113581 -0.0789604 0)
(-0.117036 -0.0635478 0)
(-0.118268 -0.0462143 0)
(-0.11716 -0.0304837 0)
(-0.114005 -0.0146127 0)
(-0.10913 -0.00101611 0)
(-0.103059 0.0116111 0)
(-0.0961614 0.0221694 0)
(-0.0888634 0.0313837 0)
(-0.0814306 0.0390196 0)
(-0.0741071 0.0454297 0)
(-0.0670405 0.0506714 0)
(-0.00510638 -0.154399 0)
(-0.0153076 -0.153311 0)
(-0.0254527 -0.150992 0)
(-0.0355071 -0.147679 0)
(-0.045402 -0.142935 0)
(-0.0550643 -0.137249 0)
(-0.0643816 -0.129935 0)
(-0.0732066 -0.121655 0)
(-0.0813791 -0.111739 0)
(-0.0886436 -0.10068 0)
(-0.0948086 -0.0884555 0)
(-0.0995352 -0.0748646 0)
(-0.10262 -0.0610699 0)
(-0.103833 -0.0462349 0)
(-0.103149 -0.0322646 0)
(-0.100783 -0.0183814 0)
(-0.0969896 -0.00596068 0)
(-0.0921477 0.00558528 0)
(-0.0865515 0.0156368 0)
(-0.0805274 0.0245247 0)
(-0.0743 0.0321472 0)
(-0.0680734 0.0386814 0)
(-0.0619847 0.0441956 0)
(-0.00455971 -0.144682 0)
(-0.0136617 -0.143623 0)
(-0.0226936 -0.141403 0)
(-0.0316109 -0.138198 0)
(-0.0403408 -0.133694 0)
(-0.0488072 -0.128267 0)
(-0.0569028 -0.121413 0)
(-0.0644944 -0.113675 0)
(-0.0714412 -0.104522 0)
(-0.0775357 -0.0944687 0)
(-0.0826293 -0.0833492 0)
(-0.0864949 -0.071334 0)
(-0.0890236 -0.0589577 0)
(-0.0901225 -0.0460234 0)
(-0.0897787 -0.0335096 0)
(-0.0881133 -0.0211883 0)
(-0.0852871 -0.00980813 0)
(-0.0815503 0.000809428 0)
(-0.0771206 0.0103344 0)
(-0.0722416 0.0188671 0)
(-0.0671009 0.0263775 0)
(-0.0618707 0.0329349 0)
(-0.0566798 0.0386038 0)
(-0.0040148 -0.136063 0)
(-0.012024 -0.135042 0)
(-0.0199582 -0.132929 0)
(-0.0277693 -0.129855 0)
(-0.0353871 -0.125603 0)
(-0.0427411 -0.120455 0)
(-0.0497352 -0.114056 0)
(-0.0562634 -0.106837 0)
(-0.0622063 -0.098402 0)
(-0.0674176 -0.0892236 0)
(-0.0717752 -0.0790938 0)
(-0.0751209 -0.0683405 0)
(-0.0773621 -0.0571566 0)
(-0.0784166 -0.04566 0)
(-0.0782913 -0.0343448 0)
(-0.0770738 -0.023251 0)
(-0.0748921 -0.0127796 0)
(-0.0719287 -0.00295419 0)
(-0.0683555 0.00605322 0)
(-0.0643582 0.0142253 0)
(-0.0600914 0.0215623 0)
(-0.0556956 0.0280738 0)
(-0.0512832 0.0338115 0)
(-0.00351692 -0.128492 0)
(-0.010528 -0.127514 0)
(-0.0174609 -0.125512 0)
(-0.0242654 -0.12258 0)
(-0.0308753 -0.118576 0)
(-0.0372248 -0.113707 0)
(-0.0432297 -0.107738 0)
(-0.0487999 -0.100995 0)
(-0.0538368 -0.0932079 0)
(-0.058227 -0.0847662 0)
(-0.0618778 -0.0755013 0)
(-0.0646809 -0.0657521 0)
(-0.0665807 -0.0555826 0)
(-0.0675355 -0.0452143 0)
(-0.0675535 -0.0348984 0)
(-0.0666932 -0.024786 0)
(-0.0650433 -0.0150962 0)
(-0.0627318 -0.00594009 0)
(-0.0598876 0.00258823 0)
(-0.0566505 0.0104183 0)
(-0.0531459 0.017557 0)
(-0.0494885 0.0239834 0)
(-0.0457753 0.0297337 0)
(-0.00301768 -0.121923 0)
(-0.00903215 -0.120989 0)
(-0.0149765 -0.119092 0)
(-0.0208044 -0.116301 0)
(-0.0264571 -0.112528 0)
(-0.0318764 -0.107924 0)
(-0.0369897 -0.102344 0)
(-0.0417232 -0.0960309 0)
(-0.0459955 -0.0888138 0)
(-0.0497216 -0.0810016 0)
(-0.0528263 -0.0724754 0)
(-0.0552324 -0.0635418 0)
(-0.0568947 -0.0542125 0)
(-0.0577805 -0.0447343 0)
(-0.0578999 -0.0352402 0)
(-0.0572961 -0.0259159 0)
(-0.056039 -0.0168884 0)
(-0.0542234 -0.0082967 0)
(-0.0519504 -0.000199283 0)
(-0.0493278 0.00731568 0)
(-0.0464563 0.01425 0)
(-0.0434285 0.0205696 0)
(-0.0403259 0.0262956 0)
(-0.00257105 -0.116305 0)
(-0.00769209 -0.115413 0)
(-0.0127448 -0.113613 0)
(-0.0176849 -0.110956 0)
(-0.0224603 -0.107391 0)
(-0.0270203 -0.10303 0)
(-0.0313052 -0.0977908 0)
(-0.0352553 -0.0918549 0)
(-0.0388065 -0.0851256 0)
(-0.0418943 -0.0778404 0)
(-0.044463 -0.0699336 0)
(-0.0464596 -0.061658 0)
(-0.047854 -0.0530237 0)
(-0.0486274 -0.0442551 0)
(-0.0487894 -0.0354363 0)
(-0.0483709 -0.0267472 0)
(-0.0474229 -0.0182736 0)
(-0.0460141 -0.0101527 0)
(-0.0442208 -0.00243085 0)
(-0.0421245 0.00480352 0)
(-0.0398041 0.011543 0)
(-0.0373338 0.0177492 0)
(-0.0347807 0.0234303 0)
(-0.00211505 -0.111594 0)
(-0.00632876 -0.11074 0)
(-0.0104893 -0.109024 0)
(-0.0145605 -0.106486 0)
(-0.0184992 -0.103101 0)
(-0.0222621 -0.0989534 0)
(-0.0257991 -0.0940045 0)
(-0.0290612 -0.0883911 0)
(-0.0319964 -0.082069 0)
(-0.034555 -0.0752211 0)
(-0.0366919 -0.0678227 0)
(-0.0383675 -0.0600777 0)
(-0.0395572 -0.0520062 0)
(-0.040247 -0.0438013 0)
(-0.0404448 -0.0355281 0)
(-0.0401738 -0.0273482 0)
(-0.0394728 -0.0193298 0)
(-0.0383932 -0.0115975 0)
(-0.0369941 -0.00419518 0)
(-0.0353379 0.00279545 0)
(-0.033487 0.00935796 0)
(-0.0314998 0.0154531 0)
(-0.0294305 0.0210795 0)
(-0.00171114 -0.107747 0)
(-0.00511743 -0.106926 0)
(-0.00847328 -0.105282 0)
(-0.0117456 -0.102846 0)
(-0.0148988 -0.0996116 0)
(-0.0178988 -0.0956442 0)
(-0.020708 -0.0909342 0)
(-0.0232899 -0.0855867 0)
(-0.0256065 -0.079594 0)
(-0.0276222 -0.0730979 0)
(-0.0293053 -0.0661058 0)
(-0.0306283 -0.0587802 0)
(-0.0315751 -0.0511559 0)
(-0.0321369 -0.0433931 0)
(-0.0323198 -0.0355531 0)
(-0.0321409 -0.0277754 0)
(-0.0316282 -0.0201224 0)
(-0.0308185 -0.0127036 0)
(-0.0297555 -0.00556427 0)
(-0.028485 0.00122205 0)
(-0.0270536 0.0076316 0)
(-0.0255059 0.0136259 0)
(-0.0238845 0.0191966 0)
(-0.00129201 -0.104728 0)
(-0.00386528 -0.103934 0)
(-0.00640574 -0.102347 0)
(-0.00889206 -0.099992 0)
(-0.0112986 -0.0968761 0)