/*--------------------------------*- C++ -*----------------------------------*\
| =========                 |                                                 |
| \\      /  F ield         | OpenFOAM: The Open Source CFD Toolbox           |
|  \\    /   O peration     | Version:  2012                                  |
|   \\  /    A nd           | Website:  www.openfoam.com                      |
|    \\/     M anipulation  |                                                 |
\*---------------------------------------------------------------------------*/
FoamFile
{
    version     2.0;
    format      ascii;
    class       volScalarField;
    location    "0.04";
    object      volumeFraction1;
}
// * * * * * * * * * * * * * * * * * * * * * * * * * * * * * * * * * * * * * //

dimensions      [0 0 0 0 0 0 0];


internalField   nonuniform List<scalar> 
2268
(
1
1
1
1
1
1
1
1
1
1
1
1
0.981289
0.517774
0.0267684
3.4033e-05
3.33804e-11
6.45219e-15
8.24338e-16
5.38422e-17
1.96695e-18
4.00098e-20
3.61353e-22
1
1
1
1
1
1
1
1
1
1
1
1
0.920472
0.338813
0.0133241
1.67871e-05
1.93128e-11
8.05201e-15
9.5846e-16
5.83464e-17
2.01542e-18
3.92693e-20
3.43529e-22
1
1
1
1
1
1
1
1
1
1
1
1
0.857556
0.210668
0.00396058
2.57305e-06
6.16738e-12
1.33677e-14
1.16117e-15
5.65947e-17
1.68979e-18
3.00319e-20
2.50263e-22
1
1
1
1
1
1
1
1
1
1
1
1
0.794292
0.134386
0.00112034
1.6586e-07
6.8088e-13
1.25115e-14
7.57674e-16
2.93588e-17
7.61674e-19
1.27317e-20
1.06007e-22
1
1
1
1
1
1
1
1
1
1
1
1
0.732832
0.0859862
0.000338735
1.00714e-08
9.87929e-14
4.82995e-15
2.23588e-16
8.1737e-18
2.30111e-19
4.49446e-21
4.49639e-23
1
1
1
1
1
1
1
1
1
1
1
1
0.67457
0.0544556
0.000105458
6.60732e-10
1.72817e-14
1.09271e-15
6.14949e-17
2.77429e-18
9.14229e-20
1.98769e-21
2.12682e-23
1
1
1
1
1
1
1
1
1
1
1
1
0.620139
0.0341149
3.38596e-05
4.92512e-11
4.51296e-15
4.09793e-16
2.86363e-17
1.44436e-18
5.12287e-20
1.24038e-21
1.53297e-23
1
1
1
1
1
1
1
1
1
1
1
1
0.572076
0.0219291
1.21735e-05
5.29988e-12
2.33383e-15
2.53466e-16
1.76331e-17
8.53069e-19
2.91568e-20
6.93183e-22
1.48744e-23
1.47712e-48
2.17623e-50
7.55284e-53
2.31383e-55
5.90525e-58
1.39599e-60
3.16525e-63
6.66173e-66
1.27495e-68
2.17944e-71
3.2783e-74
4.27227e-77
4.74213e-80
4.38982e-83
3.29608e-86
1.9285e-89
8.25197e-93
2.29798e-96
6.2567e-100
1.41684e-45
2.17579e-47
7.91236e-50
2.52436e-52
6.67392e-55
1.63239e-57
3.81446e-60
8.25061e-63
1.61952e-65
2.83512e-68
4.36195e-71
5.80871e-74
6.58335e-77
6.21864e-80
4.762e-83
2.84027e-86
1.23845e-89
3.51367e-93
4.87197e-97
6.52728e-43
1.04022e-44
4.01392e-47
1.34564e-49
3.72263e-52
9.53438e-55
2.31319e-57
5.16627e-60
1.04302e-62
1.87306e-65
2.95049e-68
4.01701e-71
4.64943e-74
4.48127e-77
3.499e-80
2.12674e-83
9.44548e-87
2.72853e-90
3.85086e-94
1.88168e-40
3.1061e-42
1.27921e-44
4.53291e-47
1.31716e-49
3.54729e-52
8.97358e-55
2.07761e-57
4.32849e-60
7.99545e-63
1.29226e-65
1.80181e-68
2.13263e-71
2.09956e-74
1.67293e-77
1.03687e-80
4.69294e-84
1.38083e-87
1.98415e-91
3.84262e-38
6.4892e-40
2.90775e-42
1.10296e-44
3.42376e-47
9.84384e-50
2.61665e-52
6.30367e-55
1.35718e-57
2.57911e-60
4.27471e-63
6.09824e-66
7.37231e-69
7.40366e-72
6.01147e-75
3.7937e-78
1.74718e-81
5.22835e-85
7.63747e-89
5.73255e-36
9.70283e-38
4.6876e-40
1.90217e-42
6.25462e-45
1.91205e-47
5.34308e-50
1.34282e-52
2.99748e-55
5.87975e-58
1.00247e-60
1.46732e-63
1.81635e-66
1.8648e-69
1.54599e-72
9.95156e-76
4.67101e-79
1.42362e-82
2.11689e-86
6.6414e-34
1.09831e-35
5.93244e-38
2.6357e-40
9.64756e-43
3.20266e-45
9.50048e-48
2.50003e-50
5.78971e-53
1.17122e-55
2.05054e-58
3.07284e-61
3.88551e-64
4.06792e-67
3.43445e-70
2.24901e-73
1.07299e-76
3.32178e-80
5.01467e-84
5.73436e-32
8.5178e-34
4.95874e-36
2.38993e-38
9.44401e-41
3.34171e-43
1.04443e-45
2.87319e-48
6.91177e-51
1.44545e-53
2.60625e-56
4.01049e-59
5.19516e-62
5.56174e-65
4.79434e-68
3.20163e-71
1.55615e-74
4.90395e-78
7.53115e-82
1
1
1
1
1
1
1
1
1
1
1
1
0.509553
0.013006
4.1598e-06
9.98654e-13
1.73823e-15
1.66318e-16
1.01166e-17
4.51486e-19
1.60191e-20
4.88806e-22
1.49825e-23
1
1
1
1
1
1
1
1
1
1
1
1
0.433649
0.00775819
1.23526e-06
3.10735e-13
1.38655e-15
9.80927e-17
4.70585e-18
1.74706e-19
5.41518e-21
1.50835e-22
4.61838e-24
1
1
1
1
1
1
1
1
1
1
1
1
0.370972
0.00474818
3.91028e-07
1.26477e-13
1.05741e-15
5.41452e-17
2.04389e-18
6.32233e-20
1.70317e-21
4.17906e-23
1.00718e-24
1
1
1
1
1
1
1
1
1
1
1
1
0.319258
0.00298374
1.31638e-07
5.62835e-14
7.17459e-16
2.63746e-17
7.75202e-19
1.95934e-20
4.44746e-22
9.32226e-24
1.86453e-25
1
1
1
1
1
1
1
1
1
1
1
1
0.275285
0.00189275
4.49065e-08
2.5297e-14
4.11444e-16
1.11428e-17
2.60254e-19
5.46256e-21
1.05669e-22
1.91201e-24
3.26694e-26
1
1
1
1
1
1
1
1
1
1
1
1
0.237667
0.00120874
1.52797e-08
1.10968e-14
1.91478e-16
3.97433e-18
7.54005e-20
1.33133e-21
2.21623e-23
3.49932e-25
5.24798e-27
1
1
1
1
1
1
1
1
1
1
1
1
0.205103
0.000772452
5.05484e-09
4.61032e-15
7.34031e-17
1.22207e-18
1.94682e-20
2.97655e-22
4.38292e-24
6.19395e-26
8.34853e-28
1
1
1
1
1
1
1
1
1
1
1
1
0.176745
0.00049244
1.58622e-09
1.75503e-15
2.37881e-17
3.27811e-19
4.52469e-21
6.17932e-23
8.29092e-25
1.07747e-26
1.33879e-28
1
1
1
1
1
1
1
1
1
1
1
1
0.151896
0.000312016
4.53694e-10
5.87472e-16
6.64211e-18
7.96963e-20
1.00968e-21
1.29467e-23
1.63843e-25
1.99248e-27
2.28927e-29
1
1
1
1
1
1
1
1
1
1
1
1
0.129934
0.000195262
1.12545e-10
1.67108e-16
1.65672e-18
1.88155e-20
2.32834e-22
2.87742e-24
3.42858e-26
3.83648e-28
3.98652e-30
1
1
1
1
1
1
1
1
1
1
1
1
0.110472
0.000120473
1.96168e-11
3.73154e-17
4.09947e-19
5.0861e-21
6.36687e-23
7.4274e-25
7.99879e-27
7.87979e-29
7.10413e-31
1
1
1
1
1
1
1
1
1
1
1
1
0.0926713
7.1481e-05
2.30596e-12
1.06277e-17
1.42411e-19
1.72708e-21
1.91047e-23
1.8888e-25
1.69865e-27
1.39367e-29
1.0488e-31
1
1
1
1
1
1
1
1
1
1
1
1
0.0768524
4.22618e-05
5.06408e-18
5.06431e-18
9.25297e-20
8.44172e-22
7.328e-24
5.68056e-26
3.99016e-28
2.55693e-30
1.51254e-32
1
1
1
1
1
1
1
1
1
1
1
1
0.0624381
2.21257e-05
3.18084e-13
6.32024e-18
5.39832e-20
3.5138e-22
1.94926e-24
1.02054e-26
5.0758e-29
2.44551e-31
1.13474e-33
1
1
1
1
1
1
1
1
1
1
1
1
0.0531831
1.99484e-05
7.91686e-18
7.91668e-18
6.80644e-20
3.08169e-22
1.00186e-24
2.72742e-27
7.51165e-30
2.18486e-32
6.81054e-35
1
1
1
1
1
1
1
1
1
1
1
1
0.0424703
5.29303e-06
1.80087e-13
2.25034e-17
5.29508e-20
8.44676e-23
1.42371e-25
1.96554e-28
3.69411e-31
7.78745e-34
1.80866e-36
0.999996
0.999996
0.999996
0.999996
0.999995
0.999995
0.999994
0.999993
0.999992
0.99999
0.999971
0.999182
0.0639666
5.77429e-05
8.30705e-12
2.35193e-19
2.35193e-19
1.19829e-22
1.3169e-26
9.70922e-30
1.33973e-32
2.23e-35
4.09805e-38
0.985985
0.985835
0.98553
0.985029
0.9844
0.983491
0.982513
0.981061
0.979754
0.976988
0.969227
0.899166
0.0556579
8.29885e-13
8.28463e-13
1.4342e-14
4.98358e-20
3.67992e-23
1.1398e-27
3.75101e-31
3.9219e-34
5.33592e-37
8.04475e-40
0.472778
0.471413
0.468812
0.464811
0.459882
0.453388
0.446778
0.437928
0.430353
0.415731
0.380884
0.295054
0.130712
0.0029538
3.06992e-07
9.62029e-14
3.28978e-24
3.28974e-24
8.19173e-29
1.18567e-32
9.5208e-36
1.08095e-38
1.36946e-41
4.04868e-37
2.6402e-37
-1.41261e-37
6.00402e-37
-3.6715e-38
5.33809e-37
-2.81621e-37
1.82209e-34
-1.85226e-32
-1.75358e-30
1.52587e-29
4.07651e-28
-7.04861e-22
0.000354656
4.39572e-25
1.75672e-14
1.11206e-18
1.76192e-25
4.57458e-30
3.15423e-34
1.97546e-37
1.88227e-40
2.03701e-43
3.44895e-19
3.3652e-19
3.20733e-19
3.00277e-19
2.83573e-19
3.8382e-19
8.88438e-18
4.90103e-16
2.03973e-14
6.12336e-13
1.24277e-11
1.60608e-10
1.18776e-09
3.26237e-09
2.68554e-24
1.03903e-15
2.25486e-19
6.95922e-27
1.85135e-31
6.73867e-36
3.41066e-39
2.76767e-42
2.61113e-45
3.55608e-39
3.50632e-39
1.04943e-29
2.02615e-27
2.50949e-25
2.15601e-23
1.3021e-21
5.52568e-20
1.64512e-18
1.67675e-17
1.58587e-17
1.58282e-17
1.58587e-17
2.78166e-13
2.3122e-18
3.22347e-17
9.71962e-21
1.93487e-28
5.35847e-33
1.15684e-37
4.89627e-41
3.44676e-44
2.88387e-47
9.24775e-38
7.15312e-35
2.58605e-32
5.89219e-30
9.23768e-28
1.04789e-25
8.83635e-24
5.58247e-22
2.63342e-20
9.12653e-19
2.24794e-17
3.56786e-16
3.20556e-15
8.04932e-15
8.40487e-20
5.78813e-19
2.27158e-22
3.70512e-30
1.10762e-34
1.55818e-39
5.73341e-43
3.57563e-46
2.70729e-49
2.01887e-45
1.44232e-42
4.77482e-40
9.65541e-38
1.32447e-35
1.29592e-33
9.26905e-32
4.8905e-30
1.90279e-28
5.3698e-27
1.04621e-25
5.75504e-25
4.76919e-28
4.76531e-28
6.13301e-22
5.66985e-21
3.02995e-24
4.86005e-32
1.62465e-36
1.63784e-41
5.44494e-45
3.0842e-48
2.15513e-51
1.57378e-50
1.22512e-47
4.44701e-45
9.93528e-43
1.5214e-40
1.68027e-38
1.37491e-36
8.40692e-35
3.84118e-33
1.29799e-31
3.24795e-30
6.49789e-29
1.47699e-27
5.13525e-26
2.22823e-24
3.22091e-23
2.4687e-26
4.44459e-34
1.70787e-38
1.33769e-43
4.16537e-47
2.19669e-50
1.44499e-53
1.33021e-55
1.08313e-52
4.11107e-50
9.62219e-48
1.54833e-45
1.81373e-43
1.60536e-41
1.11387e-39
6.46425e-38
3.52589e-36
2.08822e-34
1.35478e-32
8.90424e-31
5.4767e-29
3.17981e-27
9.03161e-26
1.19674e-28
2.77939e-36
1.27939e-40
8.42523e-46
2.55246e-49
1.28774e-52
8.14051e-56
5.60069e-61
5.0776e-58
2.20893e-55
6.24437e-53
1.32746e-50
2.35338e-48
3.73533e-46
5.44648e-44
7.22189e-42
8.51148e-40
8.84466e-38
8.06449e-36
6.58166e-34
4.84788e-32
3.36709e-30
1.13493e-28
3.49244e-31
1.19987e-38
6.89163e-43
4.09367e-48
1.25065e-51
6.19951e-55
3.84435e-58
1.95871e-66
2.41951e-63
1.55224e-60
6.89787e-58
2.35505e-55
6.46766e-53
1.46151e-50
2.76036e-48
4.42238e-46
6.08001e-44
7.30449e-42
7.73263e-40
7.37236e-38
6.34526e-36
4.99494e-34
1.8249e-32
5.5513e-34
3.45752e-41
2.64306e-45
1.52358e-50
4.88033e-54
2.44594e-57
1.52043e-60
1.93066e-72
2.00891e-69
9.79664e-67
2.97582e-64
6.31947e-62
1.00823e-59
1.29537e-57
1.49126e-55
1.78252e-53
2.39894e-51
3.41944e-49
4.69298e-47
5.98533e-45
7.04648e-43
7.80801e-41
8.21595e-39
4.2068e-37
6.53676e-44
7.2149e-48
4.34441e-53
1.51633e-56
7.90926e-60
5.03741e-63
2.06699e-78
2.43515e-75
1.39136e-72
5.3096e-70
1.60734e-67
4.38443e-65
1.14557e-62
2.83926e-60
6.44301e-58
1.30932e-55
2.37937e-53
3.88447e-51
5.78164e-49
7.89323e-47
9.99042e-45
1.17113e-42
6.45982e-41
7.52053e-47
1.3737e-50
9.41931e-56
3.73917e-59
2.09497e-62
1.39912e-65
1.07285e-84
1.34837e-81
7.94103e-79
2.9098e-76
7.41082e-74
1.39022e-71
1.98073e-69
2.18001e-67
1.86031e-65
1.22138e-63
6.01436e-62
2.09267e-60
4.48089e-59
4.91352e-58
3.02787e-56
4.47667e-54
6.49297e-52
4.6998e-50
1.78797e-53
1.54696e-58
7.31397e-62
4.55162e-65
3.26446e-68
1.4438e-90
2.00322e-87
1.30196e-84
5.26421e-82
1.47973e-79
3.06466e-77
4.82274e-75
5.86364e-73
5.52626e-71
4.00494e-69
2.18422e-67
8.80032e-66
3.2166e-64
2.74768e-62
4.61135e-60
7.84635e-58
1.2912e-55
1.04465e-53
1.51723e-56
1.90313e-61
1.13159e-64
8.11916e-68
6.41445e-71
1.95539e-96
3.01935e-93
2.18101e-90
9.78707e-88
3.04889e-85
6.98578e-83
1.21348e-80
1.62357e-78
1.6759e-76
1.32022e-74
7.69188e-73
3.10034e-71
7.47513e-70
8.50482e-69
2.64393e-67
1.86842e-65
1.06148e-63
8.23895e-62
7.81117e-60
1.73279e-64
1.38295e-67
1.19209e-70
1.06555e-73
2.59358e-102
4.55048e-99
3.73421e-96
1.90348e-93
6.73688e-91
1.7538e-88
3.4617e-86
5.26186e-84
6.16893e-82
5.51795e-80
3.65297e-78
1.678e-76
4.55212e-75
3.28842e-74
6.74678e-73
1.96171e-70
5.51289e-68
1.50677e-65
2.03243e-63
1.14331e-67
1.33165e-70
1.44476e-73
1.5034e-76
1.2558e-108
2.5585e-105
2.43804e-102
1.44313e-99
5.93214e-97
1.79381e-94
4.11336e-92
7.26291e-90
9.88564e-88
1.025e-85
7.83532e-84
4.11901e-82
1.26387e-80
1.77025e-79
2.89985e-77
9.7739e-75
3.12779e-72
9.50311e-70
1.40063e-67
5.30915e-71
1.0089e-73
1.45199e-76
1.8129e-79
6.1955e-115
1.477e-111
1.64671e-108
1.14038e-105
5.48496e-103
1.94053e-100
5.20453e-98
1.07368e-95
1.70388e-93
2.05164e-91
1.80911e-89
1.08631e-87
3.77536e-86
2.48782e-85
2.1107e-87
8.92291e-85
3.86838e-82
1.69016e-79
7.42293e-77
1.65771e-74
6.00734e-77
1.21739e-79
1.88272e-82
1.63397e-124
4.13438e-121
4.82764e-118
3.44461e-115
1.67278e-112
5.82287e-110
1.48553e-107
2.78313e-105
3.74996e-103
3.44037e-101
1.85786e-99
2.37406e-98
4.08279e-97
2.63607e-94
1.47529e-91
8.04329e-89
4.30454e-86
2.27738e-83
1.20015e-80
3.20467e-78
2.81546e-80
8.59055e-83
1.70043e-85
8.24646e-141
1.66803e-136
8.94569e-133
2.65724e-129
5.83706e-126
1.00446e-122
1.43522e-119
1.75824e-116
1.89199e-113
1.82639e-110
1.60953e-107
1.31594e-104
1.01229e-101
7.419e-99
5.23297e-96
3.57855e-93
2.38489e-90
1.55685e-87
1.00216e-84
3.25519e-82
1.04353e-83
5.16137e-86
1.35132e-88
6.25486e-147
7.48491e-143
4.43611e-139
1.72577e-135
4.96889e-132
1.13313e-128
2.13885e-125
3.45185e-122
4.88288e-119
6.18283e-116
7.13235e-113
7.61586e-110
7.62848e-107
7.24647e-104
6.57336e-101
5.70697e-98
4.73083e-95
3.73232e-92
2.7971e-89
1.03669e-86
3.09685e-87
2.68342e-89
9.58801e-92
2.76418e-154
2.20138e-150
8.76977e-147
4.61543e-143
1.79302e-139
5.46303e-136
1.36074e-132
2.85203e-129
5.13385e-126
8.06054e-123
1.1161e-119
1.37407e-116
1.51123e-113
1.48749e-110
1.30734e-107
1.01905e-104
6.96074e-102
4.12046e-99
2.18764e-96
1.34424e-93
7.52204e-91
1.23133e-92
6.17377e-95
2.43449e-165
2.85182e-161
1.74268e-157
7.57189e-154
2.6542e-150
7.98261e-147
4.18072e-143
1.93352e-139
8.00519e-136
3.01704e-132
1.04994e-128
3.41813e-125
1.05277e-121
3.09881e-118
8.79081e-115
2.42097e-111
6.51153e-108
1.72122e-104
4.50216e-101
1.17407e-97
1.55292e-94
5.1192e-96
3.68049e-98
3.97033e-179
2.0347e-174
5.1869e-170
8.8527e-166
1.14687e-161
1.20872e-157
1.08151e-153
8.45322e-150
6.01575e-146
7.69724e-142
9.07363e-138
9.99747e-134
1.04287e-129
1.04124e-125
1.00415e-121
9.42362e-118
8.65645e-114
7.83583e-110
7.03106e-106
6.28769e-102
2.86777e-98
1.98237e-99
2.0713e-101
7.10677e-25
3.96729e-26
1.86829e-27
7.88182e-29
2.00198e-25
1.15865e-26
5.75882e-28
2.44565e-29
3.2743e-26
1.45712e-27
5.71862e-29
1.96248e-30
4.95334e-27
1.86975e-28
6.42395e-30
1.97354e-31
7.21116e-28
2.28103e-29
6.67143e-31
1.77774e-32
1.01761e-28
2.85776e-30
7.49172e-32
1.80691e-33
1.44862e-29
3.65125e-31
8.61869e-33
1.88072e-34
2.13493e-30
4.92831e-32
1.06138e-33
2.10882e-35
3.33135e-31
6.94997e-33
1.3431e-34
2.38663e-36
5.1836e-32
9.57897e-34
1.63079e-35
2.54873e-37
7.95548e-33
1.2611e-34
1.83931e-36
2.46757e-38
9.85752e-34
1.31449e-35
1.61838e-37
1.84325e-39
1.12991e-34
1.207e-36
1.20232e-38
1.12189e-40
6.90137e-36
6.08285e-38
5.0722e-40
4.0198e-42
3.05235e-37
2.07913e-39
1.405e-41
9.38164e-44
6.39858e-39
3.67162e-41
2.21941e-43
1.34227e-45
1.1925e-40
5.8825e-43
3.05589e-45
1.61397e-47
1.97937e-42
8.49582e-45
3.83612e-47
1.78526e-49
2.90882e-44
1.09829e-46
4.36129e-49
1.80429e-51
3.78064e-46
1.26916e-48
4.48109e-51
1.66202e-53
4.29138e-48
1.29624e-50
4.11631e-53
1.3815e-55
4.24452e-50
1.16673e-52
3.3685e-55
1.03229e-57
3.61649e-52
9.15404e-55
2.42982e-57
6.86555e-60
2.64792e-54
6.24139e-57
1.53947e-59
4.04883e-62
1.65611e-56
3.67485e-59
8.5116e-62
2.10353e-64
8.82969e-59
1.86406e-61
4.09566e-64
9.60037e-67
4.00434e-61
8.12482e-64
1.71017e-66
3.83691e-69
1.54378e-63
3.04058e-66
6.19021e-69
1.34122e-71
5.06117e-66
9.76986e-69
1.94175e-71
4.09825e-74
1.41256e-68
2.69799e-71
5.28281e-74
1.09538e-76
3.36379e-71
6.41657e-74
1.24887e-76
2.56507e-79
6.85459e-74
1.31803e-76
2.57247e-79
5.27627e-82
1.2002e-76
2.34778e-79
4.63486e-82
9.56827e-85
1.81481e-79
3.64475e-82
7.33983e-85
1.53688e-87
2.38507e-82
4.96235e-85
1.02786e-87
2.1992e-90
2.7454e-85
5.97012e-88
1.28211e-90
2.823e-93
2.79414e-88
6.40473e-91
1.43687e-93
3.27753e-96
2.54206e-91
6.19094e-94
1.46108e-96
3.47362e-99
2.09476e-94
5.45885e-97
1.36363e-99
3.39707e-102
1.58603e-97
4.44913e-100
1.18249e-102
3.10052e-105
1.12227e-100
3.40424e-103
9.66431e-106
2.67607e-108
7.54183e-104
2.48083e-106
7.54166e-109
2.21016e-111
1.81308e-30
2.08153e-32
1.62994e-34
9.81473e-37
4.72214e-39
1.89971e-41
6.48569e-44
1.90281e-46
4.80564e-49
1.04433e-51
1.94251e-54
3.06774e-57
4.06273e-60
4.43374e-63
3.88737e-66
2.63579e-69
1.29899e-72
4.14636e-76
6.44454e-80
5.44882e-31
5.9776e-33
4.51995e-35
2.64128e-37
1.24749e-39
4.94695e-42
1.66691e-44
4.82262e-47
1.1996e-49
2.56419e-52
4.68677e-55
7.26872e-58
9.45108e-61
1.01272e-63
8.72115e-67
5.81109e-70
2.8163e-73
8.84731e-77
1.35454e-80
3.49618e-32
3.45271e-34
2.66987e-36
1.65826e-38
8.38433e-41
3.5203e-43
1.24126e-45
3.71366e-48
9.46537e-51
2.05836e-53
3.80752e-56
5.95328e-59
7.78215e-62
8.36652e-65
7.21806e-68
4.81295e-71
2.33228e-74
7.32128e-78
1.11954e-81
3.23952e-33
3.02439e-35
2.25983e-37
1.37057e-39
6.84855e-42
2.86229e-44
1.00994e-46
3.03051e-49
7.75423e-52
1.69214e-54
3.13814e-57
4.9127e-60
6.42063e-63
6.89128e-66
5.92705e-69
3.93471e-72
1.89598e-75
5.91154e-79
8.9698e-83
2.58055e-34
2.23885e-36
1.61981e-38
9.73986e-41
4.89726e-43
2.06956e-45
7.39256e-48
2.24092e-50
5.77602e-53
1.26537e-55
2.34823e-58
3.66732e-61
4.76855e-64
5.07963e-67
4.32674e-70
2.83927e-73
1.35014e-76
4.1483e-80
6.19496e-84
2.40064e-35
1.94537e-37
1.33789e-39
7.7467e-42
3.79009e-44
1.56895e-46
5.51508e-49
1.64871e-51
4.19421e-54
9.06452e-57
1.65773e-59
2.54751e-62
3.25413e-65
3.39962e-68
2.83541e-71
1.81918e-74
8.44654e-78
2.53105e-81
3.6826e-85
2.27297e-36
1.70916e-38
1.10897e-40
6.13894e-43
2.8976e-45
1.16329e-47
3.97715e-50
1.15743e-52
2.86616e-55
6.02498e-58
1.07063e-60
1.5968e-63
1.97733e-66
2.00037e-69
1.61401e-72
1.00091e-75
4.48846e-79
1.29818e-82
1.82209e-86
2.31848e-37
1.59913e-39
9.59468e-42
4.95188e-44
2.19447e-46
8.32047e-49
2.69894e-51
7.4772e-54
1.76688e-56
3.54969e-59
6.03419e-62
8.61369e-65
1.02112e-67
9.88966e-71
7.63878e-74
4.53422e-77
1.94599e-80
5.38572e-84
7.23267e-88
2.34266e-38
1.45464e-40
7.92453e-43
3.74763e-45
1.5333e-47
5.40185e-50
1.63628e-52
4.24994e-55
9.44382e-58
1.78831e-60
2.87055e-63
3.87468e-66
4.34809e-69
3.98988e-72
2.92187e-75
1.64532e-78
6.70203e-82
1.7612e-85
2.24652e-89
2.19875e-39
1.20878e-41
5.87598e-44
2.50102e-46
9.28162e-49
2.98778e-51
8.32115e-54
1.99789e-56
4.12219e-59
7.27469e-62
1.09151e-64
1.38055e-67
1.45459e-70
1.2553e-73
8.65748e-77
4.5966e-80
1.76718e-83
4.38695e-87
5.29026e-91
1.8311e-40
8.74317e-43
3.72809e-45
1.40621e-47
4.6671e-50
1.35492e-52
3.42787e-55
7.52383e-58
1.42676e-60
2.32484e-63
3.23336e-66
3.8034e-69
3.73754e-72
3.01559e-75
1.94855e-78
9.71069e-82
3.50984e-85
8.20322e-89
9.32597e-93
1.1662e-41
4.80531e-44
1.78808e-46
5.94937e-49
1.75844e-51
4.58642e-54
1.05049e-56
2.10164e-59
3.65395e-62
5.48655e-65
7.06231e-68
7.71765e-71
7.06853e-74
5.33054e-77
3.22733e-80
1.51026e-83
5.13587e-87
1.13133e-90
1.21418e-94
5.87856e-43
2.04479e-45
6.53319e-48
1.895e-50
4.94633e-53
1.15223e-55
2.37961e-58
4.32805e-61
6.88865e-64
9.52576e-67
1.13497e-69
1.15308e-72
9.85532e-76
6.95828e-79
3.95549e-82
1.74232e-85
5.58961e-89
1.16395e-92
1.183e-96
1.80301e-44
5.47423e-47
1.54759e-49
4.01471e-52
9.45426e-55
2.00217e-57
3.78395e-60
6.33514e-63
9.32935e-66
1.19908e-68
1.33321e-71
1.26844e-74
1.01844e-77
6.77371e-81
3.63625e-84
1.51595e-87
4.61222e-91
9.12527e-95
8.82726e-99
3.61775e-46
9.72886e-49
2.47643e-51
5.84674e-54
1.26271e-56
2.46763e-59
4.32554e-62
6.7469e-65
9.29266e-68
1.12094e-70
1.17331e-73
1.05382e-76
8.00732e-80
5.05126e-83
2.57707e-86
1.02297e-89
2.96847e-93
5.6104e-97
5.19242e-101
4.65267e-48
1.16046e-50
2.74971e-53
6.05688e-56
1.22322e-58
2.24103e-61
3.69215e-64
5.42658e-67
7.06002e-70
8.06323e-73
8.00847e-76
6.83911e-79
4.95039e-82
2.98008e-85
1.45325e-88
5.52218e-92
1.53617e-95
2.78698e-99
2.47914e-103
4.85898e-50
1.04422e-52
2.28314e-55
4.74945e-58
9.07073e-61
1.57362e-63
2.45863e-66
3.43272e-69
4.24973e-72
4.62654e-75
4.38742e-78
3.58315e-81
2.48404e-84
1.43423e-87
6.71706e-91
2.45437e-94
6.57316e-98
1.14943e-101
9.86562e-106
4.70705e-52
8.77558e-55
1.69321e-57
3.12052e-60
5.33354e-63
8.83878e-66
1.32008e-68
1.76321e-71
2.09035e-74
2.18171e-77
1.98586e-80
1.55854e-83
1.03952e-86
5.78098e-90
2.61057e-93
9.20712e-97
2.38238e-100
4.02896e-104
3.34758e-108
4.20187e-54
6.84914e-57
1.17379e-59
1.92876e-62
2.97085e-65
4.45302e-68
6.05207e-71
7.56807e-74
8.62911e-77
8.67345e-80
7.61022e-83
5.76266e-86
3.71188e-89
1.99533e-92
8.71718e-96
2.97687e-99
7.46451e-103
1.22426e-106
9.87289e-111
3.44654e-56
4.9497e-59
7.57654e-62
1.11702e-64
1.56046e-67
2.12744e-70
2.64518e-73
3.04913e-76
3.21555e-79
3.0045e-82
2.51942e-85
1.84681e-88
1.15262e-91
6.00755e-95
2.5465e-98
8.44298e-102
2.05677e-105
3.27935e-109
2.57265e-113
2.57542e-58
3.29039e-61
4.52927e-64
6.03361e-67
7.69316e-70
9.59663e-73
1.0977e-75
1.17283e-78
1.14929e-81
1.00248e-84
7.89368e-88
5.45114e-91
3.21907e-94
1.60289e-97
6.60832e-101
2.13219e-104
5.05707e-108
7.85394e-112
6.00416e-116
1.74661e-60
2.00471e-63
2.49904e-66
3.02965e-69
3.54815e-72
4.07468e-75
4.31196e-78
4.2919e-81
3.92668e-84
3.21128e-87
2.38469e-90
1.55678e-93
8.72515e-97
4.14306e-100
1.63389e-103
5.0622e-107
1.1573e-110
1.739e-114
1.291e-118
1.0659e-62
1.11195e-65
1.26614e-68
1.40825e-71
1.52542e-74
1.62331e-77
1.59872e-80
1.49017e-83
1.27912e-86
9.85118e-90
6.92597e-93
4.28933e-96
2.28868e-99
1.03963e-102
3.93082e-106
1.17167e-109
2.58584e-113
3.76369e-117
2.71549e-121
5.83139e-65
5.59482e-68
5.87208e-71
6.0421e-74
6.0973e-77
6.05316e-80
5.58175e-83
4.89781e-86
3.96399e-89
2.88785e-92
1.92979e-95
1.13783e-98
5.79799e-102
2.52626e-105
9.1787e-109
2.63712e-112
5.62688e-116
7.9418e-120
5.57288e-124
2.84306e-67
2.54097e-70
2.4832e-73
2.38514e-76
2.25992e-79
2.10776e-82
1.83129e-85
1.52093e-88
1.16651e-91
8.0756e-95
5.149e-98
2.90068e-101
1.416e-104
5.93409e-108
2.07661e-111
5.76171e-115
1.19036e-118
1.63099e-122
1.11394e-126
1.23175e-69
1.03886e-72
9.55293e-76
8.64474e-79
7.75265e-82
6.84192e-85
5.63691e-88
4.45582e-91
3.25513e-94
2.15128e-97
1.31375e-100
7.0965e-104
3.32904e-107
1.34536e-110
4.54486e-114
1.22005e-117
2.44418e-121
3.25462e-125
2.16504e-129
4.72756e-72
3.81304e-75
3.33583e-78
2.87138e-81
2.45768e-84
2.06751e-87
1.62583e-90
1.23017e-93
8.60409e-97
5.45365e-100
3.2021e-103
1.6644e-106
7.52636e-110
2.94046e-113
9.61068e-117
2.5007e-120
4.86483e-124
6.30205e-128
4.08592e-132
1.60538e-74
1.25491e-77
1.05626e-80
8.73236e-84
7.19375e-87
5.81149e-90
4.39071e-93
3.1983e-96
2.15274e-99
1.31474e-102
7.4505e-106
3.73961e-109
1.63504e-112
6.19071e-116
1.96194e-119
4.957e-123
9.37739e-127
1.18299e-130
7.47999e-135
4.82008e-77
3.7009e-80
3.03124e-83
2.43054e-86
1.94354e-89
1.51903e-92
1.10992e-95
7.82815e-99
5.09667e-102
3.01301e-105
1.65425e-108
8.04564e-112
3.41145e-115
1.25485e-118
3.86429e-122
9.49691e-126
1.74939e-129
2.15124e-133
1.32734e-137
1.28028e-79
9.7851e-83
7.88786e-86
6.19423e-89
4.84841e-92
3.69328e-95
2.62689e-98
1.80406e-101
1.14187e-104
6.5639e-108
3.50472e-111
1.65731e-114
6.83487e-118
2.4483e-121
7.34141e-125
1.75793e-128
3.15725e-132
3.78807e-136
2.28207e-140
3.01268e-82
2.32243e-85
1.86338e-88
1.44696e-91
1.11786e-94
8.35965e-98
5.8251e-101
3.91701e-104
2.42211e-107
1.35982e-110
7.08703e-114
3.26914e-117
1.31504e-120
4.5981e-124
1.34523e-127
3.14363e-131
5.51169e-135
6.45783e-139
3.80057e-143
6.29591e-85
4.95916e-88
4.00429e-91
3.10385e-94
2.38594e-97
1.76405e-100
1.21175e-103
8.02102e-107
4.8686e-110
2.68088e-113
1.36866e-116
6.17805e-120
2.43062e-123
8.31485e-127
2.37799e-130
5.4316e-134
9.30775e-138
1.06587e-141
6.13009e-146
1.17248e-87
9.55675e-91
7.84965e-94
6.12938e-97
4.72485e-100
3.47732e-103
2.36885e-106
1.55145e-109
9.28573e-113
5.03539e-116
2.52674e-119
1.11946e-122
4.31875e-126
1.44856e-129
4.05711e-133
9.07093e-137
1.52097e-140
1.70369e-144
1.37662e-148
1.95433e-90
1.6687e-93
1.40875e-96
1.1179e-99
8.70597e-103
6.41932e-106
4.36158e-109
2.84006e-112
1.68334e-115
9.02372e-119
4.46491e-122
1.94706e-125
7.38361e-129
2.43316e-132
6.68521e-136
1.46508e-139
2.40625e-143
2.6741e-147
4.77297e-151
2.93159e-93
2.65306e-96
2.32479e-99
1.89045e-102
1.49783e-105
1.11324e-108
7.58447e-112
4.93225e-115
2.90662e-118
1.54574e-121
7.56409e-125
3.25519e-128
1.21615e-131
3.94485e-135
1.06493e-138
2.2905e-142
3.68902e-146
8.20527e-150
1.56664e-153
3.98295e-96
3.86284e-99
3.54586e-102
2.97769e-105
2.41585e-108
1.82007e-111
1.24954e-114
8.14889e-118
4.79218e-121
2.53636e-124
1.23088e-127
5.23993e-131
1.93264e-134
6.18131e-138
1.64187e-141
3.46989e-145
8.9828e-149
2.58591e-152
4.87337e-156
4.93852e-99
5.18535e-102
5.02842e-105
4.39174e-108
3.67004e-111
2.817e-114
1.95752e-117
1.28497e-120
7.56562e-124
3.99677e-127
1.92823e-130
8.13747e-134
2.96845e-137
9.37578e-141
2.4535e-144
5.42493e-148
2.84116e-151
8.17942e-155
1.45828e-158
5.63548e-102
6.4649e-105
6.67306e-108
6.0998e-111
5.27771e-114
4.14581e-117
2.9275e-120
1.94058e-123
1.14723e-126
6.06459e-130
2.91495e-133
1.22179e-136
4.41529e-140
1.37899e-143
3.59567e-147
1.73533e-150
8.67462e-154
2.54803e-157
4.29229e-161
5.97647e-105
7.54993e-108
8.34884e-111
8.03061e-114
7.22586e-117
5.8312e-120
4.19826e-123
2.81798e-126
1.67682e-129
8.8888e-133
4.26426e-136
1.77796e-139
6.37384e-143
1.97159e-146
1.02514e-149
5.5777e-153
2.56396e-156
7.72733e-160
1.24321e-163
5.94999e-108
8.33079e-111
9.92199e-114
1.00876e-116
9.47322e-120
7.87816e-123
5.79894e-126
3.95017e-129
2.37059e-132
1.26232e-135
6.05324e-139
2.51387e-142
8.9498e-146
4.95873e-149
3.0218e-152
1.75448e-155
7.41583e-159
2.26634e-162
3.53645e-166
5.62648e-111
8.77287e-114
1.12981e-116
1.21817e-119
1.19713e-122
1.02832e-125
7.75443e-129
5.36935e-132
3.25455e-135
1.74309e-138
8.36437e-142
3.46326e-145
1.62548e-148
1.42904e-151
8.97534e-155
5.23862e-158
2.12383e-161
6.41246e-165
9.85226e-169
5.10512e-114
8.89065e-117
1.24125e-119
1.42247e-122
1.46537e-125
1.30219e-128
1.0074e-131
7.09831e-135
4.34995e-138
2.34535e-141
1.12707e-144
5.02197e-148
5.1264e-151
4.05863e-154
2.6497e-157
1.49629e-160
6.00228e-164
1.76265e-167
2.68096e-171
)
;

boundaryField
{
    leftWall
    {
        type            zeroGradient;
    }
    rightWall
    {
        type            zeroGradient;
    }
    lowerWall
    {
        type            zeroGradient;
    }
    atmosphere
    {
        type            inletOutlet;
        inletValue      uniform 0;
        value           nonuniform List<scalar> 
46
(
0
0
0
0
0
0
0
0
0
0
0
0
0
0
0
0
0
0
0
0
2.86777e-98
1.98237e-99
2.0713e-101
7.54183e-104
2.48083e-106
7.54166e-109
2.21016e-111
5.10512e-114
8.89065e-117
1.24125e-119
1.42247e-122
1.46537e-125
1.30219e-128
1.0074e-131
7.09831e-135
4.34995e-138
2.34535e-141
1.12707e-144
5.02197e-148
5.1264e-151
4.05863e-154
2.6497e-157
1.49629e-160
6.00228e-164
1.76265e-167
2.68096e-171
)
;
    }
    defaultFaces
    {
        type            empty;
    }
}


// ************************************************************************* //
