/*--------------------------------*- C++ -*----------------------------------*\
| =========                 |                                                 |
| \\      /  F ield         | OpenFOAM: The Open Source CFD Toolbox           |
|  \\    /   O peration     | Version:  2012                                  |
|   \\  /    A nd           | Website:  www.openfoam.com                      |
|    \\/     M anipulation  |                                                 |
\*---------------------------------------------------------------------------*/
FoamFile
{
    version     2.0;
    format      ascii;
    class       volScalarField;
    location    "0.18";
    object      rhogh;
}
// * * * * * * * * * * * * * * * * * * * * * * * * * * * * * * * * * * * * * //

dimensions      [1 -1 -2 0 0 0 0];


internalField   nonuniform List<scalar> 
2268
(
-29.4294
-29.4294
-29.4294
-29.4294
-29.4294
-29.4294
-29.4294
-29.4294
-29.4294
-29.4294
-29.4294
-29.4294
-29.4294
-29.4294
-29.4294
-29.4294
-29.4294
-29.4294
-29.4294
-29.4294
-29.4294
-29.4294
-28.8441
-88.2881
-88.2881
-88.2881
-88.2881
-88.2881
-88.2881
-88.2881
-88.2881
-88.2881
-88.2881
-88.2881
-88.2881
-88.2881
-88.2881
-88.2881
-88.2881
-88.2881
-88.2881
-88.2881
-88.2881
-88.2881
-88.2881
-86.7829
-147.147
-147.147
-147.147
-147.147
-147.147
-147.147
-147.147
-147.147
-147.147
-147.147
-147.147
-147.147
-147.147
-147.147
-147.147
-147.147
-147.147
-147.147
-147.147
-147.147
-147.147
-147.147
-146.57
-206.006
-206.006
-206.006
-206.006
-206.006
-206.006
-206.006
-206.006
-206.006
-206.006
-206.006
-206.006
-206.006
-206.006
-206.006
-206.006
-206.006
-206.006
-206.006
-206.006
-206.006
-206.006
-203.959
-264.864
-264.864
-264.864
-264.864
-264.864
-264.864
-264.864
-264.864
-264.864
-264.864
-264.864
-264.864
-264.864
-264.864
-264.864
-264.864
-264.864
-264.864
-264.864
-264.864
-264.864
-264.864
-256.845
-323.723
-323.723
-323.723
-323.723
-323.723
-323.723
-323.723
-323.723
-323.723
-323.723
-323.723
-323.723
-323.723
-323.723
-323.723
-323.723
-323.723
-323.723
-323.723
-323.723
-323.723
-323.723
-313.589
-382.582
-382.582
-382.582
-382.582
-382.582
-382.582
-382.582
-382.582
-382.582
-382.582
-382.582
-382.582
-382.582
-382.582
-382.582
-382.582
-382.582
-382.582
-382.582
-382.582
-382.581
-382.582
-370.607
-441.44
-441.44
-441.44
-441.44
-441.44
-441.44
-441.44
-441.44
-441.44
-441.44
-441.44
-441.44
-441.44
-441.44
-441.44
-441.44
-441.44
-441.44
-441.44
-441.439
-441.438
-441.44
-427.626
-9.30357e-24
-2.06613e-23
-5.93839e-24
-2.66515e-23
-2.35764e-25
-4.29779e-26
-4.47379e-28
-3.91424e-30
-2.33048e-32
-6.5961e-35
-2.24999e-37
-3.96288e-40
-1.14943e-42
-2.17127e-45
-7.16002e-48
-1.71605e-50
-4.91392e-53
-8.94367e-56
-1.92453e-58
-3.33668e-21
-8.69399e-21
-2.34059e-21
-1.1286e-20
-1.50873e-22
-1.77026e-23
-2.2106e-25
-2.05278e-27
-1.42978e-29
-4.79773e-32
-1.89526e-34
-3.85368e-37
-1.21095e-39
-2.38241e-42
-7.83196e-45
-1.8156e-47
-5.10732e-50
-9.19218e-53
-9.85838e-56
-3.76027e-19
-9.50017e-19
-3.03324e-19
-1.35605e-18
-2.534e-20
-1.9254e-21
-2.83214e-23
-2.81791e-25
-2.27902e-27
-9.16518e-30
-4.22442e-32
-1.00914e-34
-3.49387e-37
-7.37541e-40
-2.48406e-42
-5.66996e-45
-1.5632e-47
-2.65142e-50
-2.7822e-53
-1.87763e-17
-5.2878e-17
-1.56616e-17
-7.62481e-17
-1.91977e-18
-1.03708e-19
-1.80394e-21
-1.95939e-23
-1.85704e-25
-9.05821e-28
-4.94378e-30
-1.41439e-32
-5.48399e-35
-1.26669e-37
-4.44935e-40
-1.05606e-42
-2.99581e-45
-5.39803e-48
-5.80907e-51
-6.11e-16
-1.50372e-15
-6.90719e-16
-2.66727e-15
-8.76356e-17
-3.53765e-18
-7.12322e-20
-8.59792e-22
-9.51278e-24
-5.70032e-26
-3.72888e-28
-1.30922e-30
-5.80169e-33
-1.48623e-35
-5.50041e-38
-1.31815e-40
-3.69862e-43
-6.1824e-46
-6.45331e-49
-1.11079e-14
-3.48963e-14
-1.68478e-14
-5.52403e-14
-2.35731e-15
-8.03825e-17
-1.8633e-18
-2.5489e-20
-3.29873e-22
-2.45462e-24
-1.95476e-26
-8.69175e-29
-4.53339e-31
-1.32612e-33
-5.27223e-36
-1.36211e-38
-4.19678e-41
-8.99979e-44
-1.02996e-46
-1.90717e-13
-5.00412e-13
-8.63198e-13
-7.7723e-13
-4.19805e-14
-1.31296e-15
-3.42934e-17
-5.40249e-19
-8.10828e-21
-7.54946e-23
-7.39604e-25
-4.31848e-27
-2.75586e-29
-9.74686e-32
-4.29882e-34
-1.11869e-36
-3.32983e-39
-6.01123e-42
-6.31653e-45
-2.20046e-13
-2.20042e-13
-3.25363e-11
-7.2681e-12
-4.95496e-13
-1.57665e-14
-4.55215e-16
-8.35784e-18
-1.43419e-19
-1.66733e-21
-2.02153e-23
-1.60474e-25
-1.30198e-27
-6.18115e-30
-3.40783e-32
-1.23666e-34
-4.17042e-37
-8.85513e-40
-1.04037e-42
-533.467
-533.467
-533.467
-533.467
-533.467
-533.467
-533.467
-533.467
-533.467
-533.467
-533.467
-533.467
-533.467
-533.467
-533.467
-533.467
-533.467
-533.467
-533.467
-533.466
-533.466
-533.467
-526.919
-658.662
-658.662
-658.662
-658.662
-658.662
-658.662
-658.662
-658.662
-658.662
-658.662
-658.662
-658.662
-658.662
-658.662
-658.662
-658.662
-658.662
-658.662
-658.04
-658.662
-658.662
-658.662
-658.662
-783.856
-783.856
-783.856
-783.856
-783.856
-783.856
-783.856
-783.856
-783.856
-783.856
-783.856
-783.856
-783.856
-783.856
-783.856
-783.856
-783.856
-782.883
-765.49
-728.753
-625.816
-644.555
-742.736
-909.051
-909.051
-909.051
-909.051
-909.051
-909.051
-909.051
-909.051
-909.051
-909.051
-909.051
-909.051
-909.051
-909.051
-909.051
-908.994
-909.051
-791.618
-474.665
-159.21
-95.5473
-98.2518
-378.245
-1034.25
-1034.25
-1034.25
-1034.25
-1034.25
-1034.25
-1034.25
-1034.25
-1034.25
-1034.25
-1034.25
-1034.25
-1034.25
-1034.24
-1033.88
-1033.96
-704.649
-152.213
-0.888508
-0.159127
-0.291281
-0.221636
-2.84659
-1159.44
-1159.44
-1159.44
-1159.44
-1159.44
-1159.44
-1159.44
-1159.44
-1159.44
-1159.44
-1159.44
-1159.44
-1159.44
-1159.13
-1117.24
-592.215
-12.8316
-1.41053e-06
-1.41052e-06
-1.41053e-06
-2.9879e-06
-5.10454e-06
-1.27884e-07
-1284.63
-1284.63
-1284.63
-1284.63
-1284.63
-1284.63
-1284.63
-1284.63
-1284.63
-1284.63
-1284.63
-1284.58
-1284.46
-1176.94
-478.496
-1.56241e-06
-1.56238e-06
-1.57392e-06
-2.53378e-06
-2.30129e-06
-5.84833e-07
-4.30841e-07
-1.41812e-07
-1409.83
-1409.83
-1409.83
-1409.83
-1409.83
-1409.83
-1409.83
-1409.83
-1409.83
-1409.8
-1409.11
-1398.6
-1222.25
-410.654
-0.166854
-0.470625
-0.223573
-4.06549e-06
-5.28419e-07
-9.25237e-07
-1.54036e-06
-2.21414e-07
-1.41253e-07
-1535.02
-1535.02
-1535.02
-1535.02
-1535.02
-1535.02
-1535.01
-1534.77
-1531.89
-1513.69
-1401.29
-1054.94
-316.526
-0.181671
-0.181668
-0.0794624
-5.50529e-07
-5.50526e-07
-2.22987e-07
-9.89445e-06
-0.000113117
-1.74705e-07
-1.53797e-07
-1660.05
-1659.97
-1659.77
-1659.02
-1657.11
-1650.87
-1635.32
-1561.51
-1363.25
-980.901
-453.913
-84.004
9.18519e-18
-0.939946
-1.92447
-0.197675
-7.01008e-07
-9.67663e-08
-1.68134e-07
-2.04357e-06
-9.3066e-05
-0.000428483
-1.6634e-07
-1667.51
-1646.25
-1609.07
-1525.36
-1411.7
-1214.53
-962.74
-574.067
-267.7
-29.6979
1.11579e-17
-8.99721e-28
-7.19876e-29
-15.0036
-3.37285
2.56301e-19
-9.47933e-09
-3.68932e-08
-1.28568e-07
-5.40306e-07
-6.22508e-06
-0.000695989
-0.00838548
-557.897
-513.988
-449.17
-337.133
-227.782
-101.573
-2.75874
4.17311e-19
3.06269e-26
-3.23487e-25
-6.01514e-09
-3.39185e-09
8.01787e-28
-20.1111
-2.62184
-7.68908e-29
-3.6479e-09
-8.41009e-09
-2.63796e-08
-1.43135e-07
-2.50306e-06
-0.000287043
-0.0112011
-2.21737e-34
5.93636e-35
-3.91982e-34
2.54324e-31
8.57631e-30
-2.13091e-28
-5.74908e-27
-7.88827e-09
-1.35825e-07
-6.10736e-08
-3.68808e-06
-1.93074e-06
9.6538e-25
-21.421
-0.972503
-1.78426e-28
-1.15551e-09
-2.25636e-09
-6.06181e-09
-5.90613e-08
-1.2563e-06
-0.000100774
-0.00101332
-5.85945e-18
-2.67582e-16
-1.5344e-14
-6.29293e-13
-1.99471e-11
-4.55285e-10
-7.02103e-09
-7.41466e-08
-2.48151e-07
-6.48283e-08
-0.00640158
-0.0124308
-1.7339e-20
-10.9341
-0.059588
-2.48975e-28
-3.6965e-10
-6.07328e-10
-9.60159e-10
-4.34051e-09
-4.93352e-08
-5.22123e-07
-3.52374e-07
-4.50703e-17
-2.38612e-15
-1.27748e-13
-4.83757e-12
-1.4212e-10
-2.93448e-09
-3.85236e-08
-3.12518e-07
-2.37957e-07
-0.000556635
-0.0957519
-0.121648
-0.0214603
-1.42686e-17
-1.94069e-20
-3.26639e-11
-1.18931e-10
-1.57432e-10
-1.98351e-10
-6.41845e-10
-3.05659e-09
-1.28243e-08
-2.2269e-08
-1.46109e-16
-1.05431e-14
-6.06866e-13
-2.39614e-11
-6.8327e-10
-1.2666e-08
-1.35006e-07
-1.14304e-06
-2.50839e-07
-0.0236787
-0.143804
-0.143842
-0.0389568
-2.04696e-20
-2.10129e-12
-1.89411e-11
-3.12952e-11
-3.60629e-11
-3.73951e-11
-1.03779e-10
-4.51664e-10
-1.83091e-09
-4.9412e-09
-3.80565e-16
-4.20383e-14
-2.66433e-12
-1.07446e-10
-2.83467e-09
-4.45305e-08
-3.79066e-07
-4.34934e-06
-0.000422983
-0.03497
-0.126215
-0.0729865
-1.78071e-13
-1.78046e-13
-1.74904e-12
-5.34354e-12
-6.78608e-12
-6.9998e-12
-6.10296e-12
-1.43204e-11
-5.86778e-11
-2.3786e-10
-6.45694e-10
-6.39614e-16
-8.78812e-14
-5.9401e-12
-2.3699e-10
-5.93429e-09
-9.32818e-08
-9.62898e-07
-1.71941e-05
-0.00140339
-0.00546035
-2.98399e-09
-5.83876e-09
-5.55273e-08
-3.64732e-23
-6.31494e-13
-1.07354e-12
-1.1665e-12
-1.09732e-12
-8.2671e-13
-1.64413e-12
-6.26613e-12
-2.48982e-11
-6.21619e-11
-7.76823e-16
-1.15991e-13
-7.93867e-12
-3.163e-10
-7.99595e-09
-1.36544e-07
-2.27065e-06
-2.97591e-05
-3.44019e-05
-3.44079e-05
-0.00230051
-0.00510372
-0.000182545
-3.44711e-23
-9.45513e-14
-1.50652e-13
-1.52601e-13
-1.34122e-13
-9.07898e-14
-1.55117e-13
-5.46977e-13
-2.10296e-12
-4.74053e-12
-4.08687e-16
-6.10216e-14
-4.44175e-12
-2.00314e-10
-6.03448e-09
-1.20952e-07
-1.11266e-06
-1.4464e-06
-1.03348e-06
-0.000825167
-0.013239
-0.0155396
-0.0118887
-3.99042e-23
-3.60196e-23
-1.48143e-14
-1.56986e-14
-1.20916e-14
-7.97319e-15
-1.20536e-14
-3.92323e-14
-1.44294e-13
-2.95992e-13
-1.19766e-17
-7.8333e-16
-2.30756e-14
-3.73207e-13
-1.50052e-12
-2.96177e-13
-2.9616e-13
-2.96177e-13
-1.07791e-06
-0.00017458
-0.00187769
-0.00557265
-0.00459481
-7.31455e-11
-4.61442e-08
-4.89998e-21
-1.88137e-15
-8.39953e-16
-5.53009e-16
-7.64063e-16
-2.29612e-15
-8.00024e-15
-1.54121e-14
-3.10546e-20
-2.75233e-18
-1.09634e-16
-2.57712e-15
-3.99353e-14
-4.38184e-13
-2.88517e-12
-6.98774e-12
-2.96932e-12
-2.97035e-12
-2.96932e-12
-2.97035e-12
-6.47881e-09
-0.000192487
-1.35582e-05
-4.51343e-21
-4.33575e-16
-4.52576e-17
-3.02997e-17
-3.93636e-17
-1.10507e-16
-3.58389e-16
-6.78109e-16
-8.78577e-21
-8.03538e-19
-3.31175e-17
-8.06287e-16
-1.29903e-14
-1.50171e-13
-1.38402e-12
-1.09851e-11
-6.34633e-11
-3.03846e-10
-1.29978e-09
-4.03298e-09
-2.50858e-08
-5.82745e-07
-4.23033e-06
-5.30391e-21
-1.20215e-16
-1.85988e-18
-1.31357e-18
-1.63721e-18
-4.39977e-18
-1.31255e-17
-2.52737e-17
-4.32022e-23
-5.94504e-21
-4.07052e-19
-1.81223e-17
-5.76371e-16
-1.3656e-14
-2.46599e-13
-3.43195e-12
-3.7382e-11
-3.10266e-10
-1.77671e-09
-7.71084e-09
-1.41458e-08
-8.91814e-09
-1.23609e-18
-5.55478e-18
-1.80361e-17
-5.85442e-20
-4.51088e-20
-5.47567e-20
-1.45556e-19
-3.96122e-19
-7.98467e-19
-3.87365e-27
-3.81209e-25
-1.74976e-23
-4.95104e-22
-9.63442e-21
-1.35988e-19
-1.42341e-18
-1.03125e-17
-2.17315e-17
-6.41493e-20
-6.41468e-20
-6.41493e-20
-6.41468e-20
-6.41493e-20
-7.2439e-18
-2.49004e-17
-1.40873e-18
-1.42223e-21
-1.21324e-21
-1.47206e-21
-3.99983e-21
-9.89209e-21
-2.1431e-20
-7.93333e-32
-9.48311e-30
-5.33811e-28
-1.87504e-26
-4.59103e-25
-8.30597e-24
-1.15367e-22
-1.26175e-21
-1.12319e-20
-8.45234e-20
-4.76291e-19
-1.84215e-18
-3.57237e-18
-4.28251e-18
-4.06621e-18
-1.79349e-18
-4.21532e-20
-2.65873e-23
-2.52174e-23
-3.21161e-23
-9.13112e-23
-2.05623e-22
-4.89837e-22
-5.33606e-35
-6.47716e-33
-3.70254e-31
-1.32155e-29
-3.28876e-28
-6.03785e-27
-8.4567e-26
-9.19023e-25
-7.85821e-24
-5.2687e-23
-2.76405e-22
-1.08011e-21
-2.26493e-21
-2.91051e-21
-2.43386e-21
-1.38269e-21
-1.01535e-21
-3.76899e-25
-4.01049e-25
-5.72709e-25
-1.72599e-24
-3.57889e-24
-9.54792e-24
-5.05113e-41
-7.08356e-39
-4.77882e-37
-2.0601e-35
-6.34388e-34
-1.48028e-32
-2.71232e-31
-3.98869e-30
-4.79176e-29
-4.73334e-28
-3.88784e-27
-2.65337e-26
-1.52346e-25
-7.39853e-25
-3.17579e-24
-9.68496e-24
-1.27613e-23
-4.09316e-27
-4.8916e-27
-8.32489e-27
-2.69416e-26
-5.26716e-26
-1.59037e-25
-1.1993e-44
-1.92865e-42
-1.47194e-40
-7.08604e-39
-2.40704e-37
-6.1266e-36
-1.21181e-34
-1.9041e-33
-2.41738e-32
-2.49714e-31
-2.13221e-30
-1.53157e-29
-9.89663e-29
-6.35381e-28
-4.22859e-27
-2.22769e-26
-3.65028e-26
-3.60178e-29
-4.54724e-29
-9.70736e-29
-3.4578e-28
-6.60815e-28
-2.26973e-27
-8.03164e-51
-1.25399e-48
-9.27257e-47
-4.31768e-45
-1.41726e-43
-3.48287e-42
-6.65297e-41
-1.01314e-39
-1.27023e-38
-1.39254e-37
-1.56015e-36
-2.14058e-35
-3.43658e-34
-5.13436e-33
-5.99487e-32
-4.59086e-31
-9.63563e-31
-2.44072e-31
-3.19783e-31
-8.98391e-31
-3.65593e-30
-7.11606e-30
-2.78271e-29
-8.26856e-58
-2.0146e-55
-2.37176e-53
-1.79988e-51
-9.89234e-50
-4.20342e-48
-1.44058e-46
-4.10714e-45
-1.00103e-43
-2.13628e-42
-4.10593e-41
-7.28142e-40
-1.21806e-38
-1.92055e-37
-2.78583e-36
-3.47603e-35
-3.23584e-34
-1.11e-33
-1.67392e-33
-6.54928e-33
-3.19459e-32
-6.58817e-32
-2.93447e-31
-2.01024e-63
-4.77798e-61
-5.48646e-59
-4.10971e-57
-2.33011e-55
-1.14092e-53
-5.50677e-52
-2.79545e-50
-1.42715e-48
-6.77357e-47
-2.84199e-45
-1.02753e-43
-3.14941e-42
-8.00357e-41
-1.63222e-39
-2.51254e-38
-2.63148e-37
-1.58559e-36
-6.73662e-36
-3.75707e-35
-2.31766e-34
-5.25839e-34
-2.67346e-33
-7.3506e-69
-2.71718e-66
-4.92445e-64
-5.86003e-62
-5.17753e-60
-3.65478e-58
-2.17279e-56
-1.13612e-54
-5.41924e-53
-2.42054e-51
-1.02513e-49
-4.1077e-48
-1.54093e-46
-5.3167e-45
-1.65336e-43
-4.48892e-42
-1.01556e-40
-1.75802e-39
-2.0366e-38
-1.69939e-37
-1.40177e-36
-3.62619e-36
-2.11795e-35
-2.83774e-73
-1.23292e-70
-2.6588e-68
-3.82982e-66
-4.19192e-64
-3.77235e-62
-2.94863e-60
-2.08104e-58
-1.35641e-56
-8.23657e-55
-4.65069e-53
-2.42106e-51
-1.14867e-49
-4.89031e-48
-1.83723e-46
-5.93958e-45
-1.59611e-43
-3.34277e-42
-4.98032e-41
-6.10841e-40
-7.11154e-39
-2.17209e-38
-1.47164e-37
-2.34161e-79
-1.65927e-76
-6.34764e-74
-1.72106e-71
-3.63765e-69
-6.2672e-67
-9.02228e-65
-1.1044e-62
-1.16368e-60
-1.0665e-58
-8.55897e-57
-6.04871e-55
-3.78004e-53
-2.09112e-51
-1.02162e-49
-4.34612e-48
-1.56499e-46
-4.49371e-45
-9.61382e-44
-1.77352e-42
-3.05579e-41
-1.13878e-40
-9.05467e-40
-5.28996e-84
-4.54196e-81
-2.03381e-78
-6.3982e-76
-1.59041e-73
-3.30044e-71
-5.85569e-69
-8.98599e-67
-1.19934e-64
-1.40004e-62
-1.43527e-60
-1.29653e-58
-1.03348e-56
-7.2564e-55
-4.47527e-53
-2.40302e-51
-1.10911e-49
-4.30295e-48
-1.40922e-46
-4.26409e-45
-1.12848e-43
-5.28035e-43
-4.99062e-42
-6.05486e-89
-6.29284e-86
-3.35972e-83
-1.25134e-80
-3.70769e-78
-9.35268e-76
-2.06643e-73
-4.03108e-71
-6.92821e-69
-1.04736e-66
-1.38978e-64
-1.61997e-62
-1.664e-60
-1.51493e-58
-1.23451e-56
-9.09136e-55
-6.10783e-53
-3.71652e-51
-2.00199e-49
-9.15684e-48
-3.65845e-46
-2.19376e-45
-2.49578e-44
-1.18327e-94
-1.89729e-91
-1.57018e-88
-8.98896e-86
-4.00084e-83
-1.47065e-80
-4.6018e-78
-1.24728e-75
-2.95288e-73
-6.14987e-71
-1.13336e-68
-1.86255e-66
-2.74831e-64
-3.6624e-62
-4.4333e-60
-4.86805e-58
-4.80447e-56
-4.14564e-54
-3.02262e-52
-1.8311e-50
-1.0693e-48
-8.28973e-48
-1.1495e-46
-4.61299e-101
-1.29932e-97
-1.89737e-94
-1.91538e-91
-1.49074e-88
-9.45473e-86
-5.02077e-83
-2.2736e-80
-8.85377e-78
-2.98756e-75
-8.75647e-73
-2.23887e-70
-5.02106e-68
-9.94302e-66
-1.74858e-63
-2.72425e-61
-3.72282e-59
-4.34993e-57
-4.237e-55
-3.48707e-53
-2.91746e-51
-2.89502e-50
-4.95213e-49
-1.80147e-108
-9.23006e-105
-2.52118e-101
-4.83431e-98
-7.15844e-95
-8.60073e-92
-8.58067e-89
-7.23512e-86
-5.19704e-83
-3.21093e-80
-1.71459e-77
-7.95172e-75
-3.20587e-72
-1.12109e-69
-3.39026e-67
-8.78948e-65
-1.92898e-62
-3.49445e-60
-5.12906e-58
-6.26959e-56
-7.69061e-54
-9.50226e-53
-2.03144e-51
-7.26327e-117
-8.12474e-113
-4.64525e-109
-1.79304e-105
-5.18487e-102
-1.19706e-98
-2.28376e-95
-3.71153e-92
-5.21396e-89
-6.41362e-86
-6.90737e-83
-6.51244e-80
-5.35137e-77
-3.81814e-74
-2.34776e-71
-1.22355e-68
-5.28429e-66
-1.82581e-63
-4.90056e-61
-1.03309e-58
-2.03742e-56
-2.96742e-55
-8.0631e-54
-7.08617e-125
-1.84001e-120
-2.15215e-116
-1.53154e-112
-7.56265e-109
-2.80579e-105
-8.22947e-102
-1.98947e-98
-4.09906e-95
-7.43577e-92
-1.221e-88
-1.85497e-85
-2.6393e-82
-3.51472e-79
-4.34551e-76
-4.88968e-73
-4.86704e-70
-4.0853e-67
-2.7302e-64
-1.36565e-61
-5.60356e-59
-8.83811e-58
-3.14695e-56
-533.467
-155.473
-4.55807e-13
-4.55813e-13
-658.662
-601.917
-358.087
-34.5833
-783.856
-782.104
-783.293
-460.82
-717.352
-902.664
-908.258
-860.188
-279.734
-840.556
-1033.11
-1025.04
-1.77413
-601.675
-1152.32
-1132.74
-1.2871e-07
-354.041
-1205.19
-1242.2
-1.41253e-07
-148.593
-1165.73
-1363.34
-1.53797e-07
-1.53797e-07
-798.681
-1336.68
-1.6634e-07
-1.6634e-07
-171.492
-456.674
-0.0290717
-1.34432
-6.1416
-7.74857
-0.0506881
-0.165594
-0.000902715
-0.0010729
-0.00186167
-6.68937e-06
-4.2257e-08
-1.68975e-08
-1.26114e-07
-4.90829e-08
-2.90385e-08
-1.49349e-08
-3.22324e-08
-3.60743e-08
-2.31867e-08
-1.23194e-08
-7.26077e-09
-8.04333e-09
-5.63214e-09
-3.14545e-09
-9.30639e-10
-9.89857e-10
-6.91648e-10
-3.86798e-10
-8.59291e-11
-9.05794e-11
-6.20218e-11
-3.43781e-11
-6.13425e-12
-6.39173e-12
-4.23097e-12
-2.30435e-12
-3.50153e-13
-3.58656e-13
-2.27245e-13
-1.21236e-13
-1.63073e-14
-1.63587e-14
-9.88536e-15
-5.17492e-15
-6.29525e-16
-6.16208e-16
-3.55441e-16
-1.8317e-16
-2.03775e-17
-1.94723e-17
-1.07375e-17
-5.47092e-18
-5.57473e-19
-5.21825e-19
-2.75289e-19
-1.39317e-19
-1.29727e-20
-1.19643e-20
-6.04272e-21
-3.05298e-21
-2.58354e-22
-2.36381e-22
-1.14387e-22
-5.79761e-23
-4.42517e-24
-4.04793e-24
-1.8796e-24
-9.6059e-25
-6.55334e-26
-6.04042e-26
-2.69757e-26
-1.39692e-26
-8.43249e-28
-7.8935e-28
-3.40144e-28
-1.7934e-28
-9.48996e-30
-9.07974e-30
-3.79243e-30
-2.04445e-30
-9.40378e-32
-9.2387e-32
-3.76245e-32
-2.08106e-32
-8.26075e-34
-8.36291e-34
-3.34432e-34
-1.90257e-34
-6.46613e-36
-6.77001e-36
-2.67985e-36
-1.57213e-36
-4.53906e-38
-4.93603e-38
-1.94911e-38
-1.18328e-38
-2.87837e-40
-3.26683e-40
-1.29635e-40
-8.17784e-41
-1.66392e-42
-1.98113e-42
-7.95161e-43
-5.23713e-43
-8.8573e-45
-1.11184e-44
-4.53669e-45
-3.13697e-45
-4.39404e-47
-5.84205e-47
-2.43272e-47
-1.77476e-47
-2.05656e-49
-2.90733e-49
-1.23871e-49
-9.57213e-50
-9.21369e-52
-1.38919e-51
-6.06227e-52
-4.97598e-52
-4.00149e-54
-6.44882e-54
-2.88196e-54
-2.5165e-54
-1.70759e-56
-2.94e-56
-1.34276e-56
-1.24758e-56
-3.22052e-08
-5.84769e-07
-1.43005e-10
-8.92874e-11
-6.46015e-12
-2.25021e-13
-7.12263e-15
-1.54488e-16
-2.98379e-18
-4.29877e-20
-6.48189e-22
-7.2494e-24
-7.72418e-26
-5.47495e-28
-3.89715e-30
-1.71417e-32
-6.33637e-35
-9.60865e-38
-8.31801e-41
-3.97755e-08
-0.000104671
-1.76707e-10
-9.19408e-10
-7.19618e-11
-2.93492e-12
-1.05124e-13
-2.71865e-15
-5.96198e-17
-1.04546e-18
-2.01773e-20
-3.21774e-22
-4.59346e-24
-5.37224e-26
-5.23229e-28
-3.90969e-30
-2.09363e-32
-6.98799e-35
-1.08824e-37
-27.8028
-0.0493182
-5.1498e-08
-5.03521e-09
-5.14618e-10
-2.61796e-11
-1.13343e-12
-3.62731e-14
-9.50488e-16
-2.02464e-17
-4.07677e-19
-6.43818e-21
-8.31099e-23
-7.89681e-25
-5.19449e-27
-2.10477e-29
-6.48896e-32
-1.45532e-34
-1.72773e-37
-148.349
-0.639869
-4.1776e-06
-2.6703e-08
-3.17704e-09
-2.11426e-10
-1.17591e-11
-4.85155e-13
-1.64791e-14
-4.47755e-16
-1.02175e-17
-1.89369e-19
-2.86314e-21
-3.39841e-23
-3.11584e-25
-2.09352e-27
-9.7344e-30
-2.7702e-32
-3.68314e-35
-234.372
-1.36201
-1.81234e-05
-8.18663e-08
-1.26344e-08
-1.20887e-09
-7.906e-11
-3.68277e-12
-1.22698e-13
-3.05359e-15
-5.74347e-17
-7.97948e-19
-8.09919e-21
-5.99439e-23
-3.40219e-25
-1.5143e-27
-5.02936e-30
-1.1105e-32
-2.41036e-35
-241.707
-1.20173
-1.11496e-05
-1.45645e-07
-3.41363e-08
-4.62589e-09
-4.01674e-10
-2.4197e-11
-1.03019e-12
-3.18323e-14
-7.3605e-16
-1.2797e-17
-1.69939e-19
-1.70375e-21
-1.27753e-23
-6.92626e-26
-2.60153e-28
-6.05778e-31
-6.69371e-34
-244.466
-1.02278
-9.25057e-06
-1.89719e-07
-5.88514e-08
-1.05094e-08
-1.0445e-09
-6.63095e-11
-2.65294e-12
-7.31405e-14
-1.38424e-15
-1.88354e-17
-1.88521e-19
-1.423e-21
-8.07674e-24
-3.37271e-26
-9.92122e-29
-1.85009e-31
-3.29564e-34
-277.541
-1.22717
-2.15961e-05
-2.70519e-07
-9.00727e-08
-2.18362e-08
-3.02783e-09
-2.55556e-10
-1.38252e-11
-5.03933e-13
-1.2749e-14
-2.28982e-16
-2.95681e-18
-2.75547e-20
-1.84971e-22
-8.74281e-25
-2.79168e-27
-5.42112e-30
-4.91305e-33
-284.282
-1.30364
-0.000121563
-9.0755e-07
-8.56569e-08
-2.04379e-08
-2.6196e-09
-1.9429e-10
-8.86747e-12
-2.69964e-13
-5.64866e-15
-8.45446e-17
-9.17558e-19
-7.2934e-21
-4.21784e-23
-1.74013e-25
-4.89541e-28
-8.46622e-31
-1.21896e-33
-184.72
-3.74876
-0.00320557
-5.64525e-06
-6.04013e-08
-2.69389e-08
-4.55737e-09
-3.92425e-10
-1.97898e-11
-6.43603e-13
-1.40695e-14
-2.1561e-16
-2.35137e-18
-1.84746e-20
-1.0415e-22
-4.13179e-25
-1.1047e-27
-1.7961e-30
-1.36234e-33
-15.1669
-3.96821
-0.332512
-8.17071e-05
-4.2968e-07
-5.66068e-08
-6.26953e-09
-3.74278e-10
-1.36103e-11
-3.28747e-13
-5.49922e-15
-6.62729e-17
-5.83546e-19
-3.80024e-21
-1.81577e-23
-6.24459e-26
-1.47167e-28
-2.14449e-31
-1.47091e-34
-0.00392501
-0.5657
-0.120781
-0.00558468
-1.42265e-06
-4.08162e-08
-5.09557e-09
-2.74524e-10
-8.39233e-12
-1.65888e-13
-2.24163e-15
-2.17538e-17
-1.54456e-19
-8.16033e-22
-3.19928e-24
-9.16295e-27
-1.8348e-29
-2.32e-32
-1.41336e-35
-9.9656e-08
-1.16717e-05
-0.000876525
-0.000700234
-3.94209e-05
-1.82281e-07
-4.46138e-09
-1.04481e-10
-1.7496e-12
-2.24202e-14
-2.21881e-16
-1.71002e-18
-1.01643e-20
-4.6561e-23
-1.61854e-25
-4.18446e-28
-7.65793e-31
-8.97151e-34
-5.12026e-37
-4.33117e-09
-9.17627e-10
-1.30392e-08
-7.15044e-07
-2.1819e-06
-7.06416e-08
-9.57423e-10
-1.14791e-11
-1.27081e-13
-1.2774e-15
-1.08815e-17
-7.58136e-20
-4.17616e-22
-1.80086e-24
-5.95082e-27
-1.4734e-29
-2.59694e-32
-2.94549e-35
-1.63626e-38
-2.93785e-09
-3.91416e-10
-4.89784e-10
-1.40214e-08
-4.38495e-08
-2.22203e-09
-3.23993e-11
-3.92489e-13
-4.21333e-15
-4.03463e-17
-3.22851e-19
-2.11188e-21
-1.09405e-23
-4.46903e-26
-1.40751e-28
-3.35056e-31
-5.71703e-34
-6.33526e-37
-3.46526e-40
-6.54995e-10
-7.86706e-11
-7.79825e-11
-1.22829e-09
-1.14939e-09
-5.05246e-11
-7.50816e-13
-9.49034e-15
-1.02869e-16
-9.67436e-19
-7.41236e-21
-4.62477e-23
-2.28317e-25
-8.9544e-28
-2.72329e-30
-6.31619e-33
-1.05758e-35
-1.16067e-38
-6.34228e-42
-8.14596e-11
-9.70476e-12
-7.46809e-12
-6.61272e-11
-2.69535e-11
-9.3838e-13
-1.44744e-14
-1.89806e-16
-2.03956e-18
-1.85942e-20
-1.35266e-22
-8.02938e-25
-3.77476e-27
-1.42382e-29
-4.19335e-32
-9.52379e-35
-1.57553e-37
-1.72893e-40
-9.54969e-44
-7.20982e-12
-8.41135e-13
-5.09183e-13
-2.55951e-12
-5.57735e-13
-1.63961e-14
-2.52852e-16
-3.36182e-18
-3.49472e-20
-3.05669e-22
-2.10338e-24
-1.19193e-26
-5.35941e-29
-1.95852e-31
-5.62665e-34
-1.26305e-36
-2.08489e-39
-2.31415e-42
-1.30797e-45
-4.80535e-13
-5.49315e-14
-2.57118e-14
-7.70325e-14
-1.0412e-14
-2.69034e-16
-3.9688e-18
-5.21023e-20
-5.11156e-22
-4.26443e-24
-2.76679e-26
-1.50336e-28
-6.49387e-31
-2.31738e-33
-6.55026e-36
-1.46936e-38
-2.45029e-41
-2.7892e-44
-1.63439e-47
-2.50667e-14
-2.82448e-15
-1.01288e-15
-1.8968e-15
-1.77945e-16
-4.25011e-18
-5.68397e-20
-7.1934e-22
-6.57042e-24
-5.25368e-26
-3.22057e-28
-1.69356e-30
-7.07641e-33
-2.49312e-35
-6.99988e-38
-1.5888e-40
-2.70606e-43
-3.19244e-46
-1.95177e-49
-1.0519e-15
-1.18092e-16
-3.21752e-17
-3.93026e-17
-2.78033e-18
-6.29262e-20
-7.56827e-22
-9.00309e-24
-7.31597e-26
-5.67178e-28
-3.28837e-30
-1.69571e-32
-6.90899e-35
-2.43808e-37
-6.88226e-40
-1.60401e-42
-2.82211e-45
-3.47736e-48
-2.21626e-51
-3.62328e-17
-4.10953e-18
-8.45855e-19
-6.99375e-19
-3.95899e-20
-8.58519e-22
-9.28111e-24
-1.04658e-25
-7.63754e-28
-5.61333e-30
-3.07063e-32
-1.57985e-34
-6.33407e-37
-2.2758e-39
-6.52965e-42
-1.58227e-44
-2.89054e-47
-3.72522e-50
-2.46086e-53
-1.04157e-18
-1.21124e-19
-1.87249e-20
-1.08429e-20
-5.08673e-22
-1.06537e-23
-1.04187e-25
-1.12836e-27
-7.49395e-30
-5.34442e-32
-2.72473e-34
-1.38406e-36
-5.43917e-39
-2.02871e-41
-5.96305e-44
-1.51661e-46
-2.87272e-49
-3.85541e-52
-2.61694e-55
-2.53098e-20
-3.06508e-21
-3.54821e-22
-1.48756e-22
-5.88561e-24
-1.20228e-25
-1.07561e-27
-1.13572e-29
-6.96931e-32
-4.92851e-34
-2.37648e-36
-1.22002e-38
-4.71813e-41
-1.81499e-43
-5.44131e-46
-1.45672e-48
-2.8356e-51
-3.93106e-54
-2.70975e-57
-5.25664e-22
-6.73599e-23
-5.84399e-24
-1.82479e-24
-6.13013e-26
-1.23738e-27
-1.02498e-29
-1.07482e-31
-6.196e-34
-4.44309e-36
-2.06208e-38
-1.09416e-40
-4.20745e-43
-1.69181e-45
-5.12383e-48
-1.41443e-50
-2.76559e-53
-3.89072e-56
-2.68803e-59
-9.41809e-24
-1.29696e-24
-8.48216e-26
-2.02337e-26
-5.78507e-28
-1.17264e-29
-9.11783e-32
-9.6962e-34
-5.34546e-36
-3.96902e-38
-1.8028e-40
-1.00556e-42
-3.86715e-45
-1.6312e-47
-4.94813e-50
-1.39953e-52
-2.72328e-55
-3.86472e-58
-2.65991e-61
-1.46781e-25
-2.20545e-26
-1.09869e-27
-2.05515e-28
-4.99652e-30
-1.03605e-31
-7.65999e-34
-8.45513e-36
-4.53401e-38
-3.55497e-40
-1.601e-42
-9.48302e-45
-3.64884e-47
-1.60824e-49
-4.84062e-52
-1.39401e-54
-2.68095e-57
-3.82132e-60
-2.60865e-63
-2.00577e-27
-3.33541e-28
-1.28511e-29
-1.94327e-30
-4.00942e-32
-8.68115e-34
-6.17935e-36
-7.2499e-38
-3.838e-40
-3.22509e-42
-1.44983e-44
-9.13396e-47
-3.4994e-49
-1.599e-51
-4.73688e-54
-1.38204e-56
-2.61509e-59
-3.73114e-62
-2.51946e-65
-2.42041e-29
-4.51533e-30
-1.37179e-31
-1.74228e-32
-3.04507e-34
-7.03604e-36
-4.86794e-38
-6.20203e-40
-3.26975e-42
-2.96854e-44
-1.33122e-46
-8.88779e-49
-3.36615e-51
-1.58313e-53
-4.59096e-56
-1.35333e-58
-2.51333e-61
-3.58247e-64
-2.38966e-67
-2.59862e-31
-5.506e-32
-1.34897e-33
-1.50819e-34
-2.23519e-36
-5.62961e-38
-3.80579e-40
-5.3474e-42
-2.81187e-44
-2.76065e-46
-1.22796e-48
-8.63504e-51
-3.2104e-53
-1.54566e-55
-4.37417e-58
-1.30061e-60
-2.36796e-63
-3.36856e-66
-2.2184e-69
-2.50004e-33
-6.08511e-34
-1.23161e-35
-1.27859e-36
-1.61685e-38
-4.51824e-40
-2.98324e-42
-4.65589e-44
-2.42905e-46
-2.56918e-48
-1.12471e-50
-8.28317e-53
-3.00645e-55
-1.47767e-57
-4.07601e-60
-1.22212e-62
-2.18112e-65
-3.09656e-68
-2.01366e-71
-2.17318e-35
-6.13092e-36
-1.05103e-37
-1.06907e-38
-1.16833e-40
-3.66369e-42
-2.35115e-44
-4.07342e-46
-2.09078e-48
-2.36909e-50
-1.0136e-52
-7.78436e-55
-2.74873e-57
-1.3776e-59
-3.70379e-62
-1.11992e-64
-1.96025e-67
-2.77817e-70
-1.78467e-73
-1.72257e-37
-5.65965e-38
-8.43148e-40
-8.81179e-41
-8.47116e-43
-2.9936e-44
-1.85495e-46
-3.54901e-48
-1.77705e-50
-2.14616e-52
-8.92809e-55
-7.13102e-57
-2.44532e-59
-1.24984e-61
-3.27713e-64
-9.99899e-67
-1.71789e-69
-2.43205e-72
-1.54417e-75
-1.2569e-39
-4.81271e-40
-6.3913e-42
-7.12072e-43
-6.14123e-45
-2.44288e-46
-1.45372e-48
-3.05134e-50
-1.4812e-52
-1.89926e-54
-7.66017e-57
-6.35321e-59
-2.11489e-61
-1.10307e-63
-2.82327e-66
-8.69757e-69
-1.46815e-71
-2.07744e-74
-1.30439e-77
-8.51309e-42
-3.79284e-42
-4.6007e-44
-5.6031e-45
-4.41833e-47
-1.97069e-48
-1.12312e-50
-2.5711e-52
-1.20553e-54
-1.63705e-56
-6.39391e-59
-5.50254e-61
-1.77903e-63
-9.477e-66
-2.3701e-68
-7.37747e-71
-1.22465e-73
-1.73303e-76
-1.07661e-79
-5.39752e-44
-2.79005e-44
-3.16138e-46
-4.27069e-47
-3.13217e-49
-1.55902e-50
-8.50844e-53
-2.11454e-54
-9.56388e-57
-1.37317e-58
-5.19465e-61
-4.63704e-63
-1.45774e-65
-7.93746e-68
-1.94178e-70
-6.11078e-73
-9.98441e-76
-1.4137e-78
-8.69312e-82
-3.22805e-46
-1.93122e-46
-2.0844e-48
-3.14565e-49
-2.17786e-51
-1.20402e-52
-6.30528e-55
-1.69519e-56
-7.39828e-59
-1.12198e-60
-4.11486e-63
-3.80939e-65
-1.16609e-67
-6.49425e-70
-1.55573e-72
-4.95232e-75
-7.97051e-78
-1.12963e-80
-6.87867e-84
-1.83774e-48
-1.26734e-48
-1.32615e-50
-2.24038e-51
-1.48315e-53
-9.06396e-55
-4.5708e-57
-1.3255e-58
-5.59009e-61
-8.94659e-63
-3.18569e-65
-3.05795e-67
-9.12932e-70
-5.20244e-72
-1.22174e-74
-3.93533e-77
-6.24343e-80
-8.86011e-83
-5.34474e-86
-1.00453e-50
-7.94525e-51
-8.18801e-53
-1.54694e-53
-9.902e-56
-6.65891e-57
-3.24757e-59
-1.01317e-60
-4.13772e-63
-6.98239e-65
-2.41794e-67
-2.40584e-69
-7.0158e-72
-4.09174e-74
-9.42943e-77
-3.07397e-79
-4.81026e-82
-6.8371e-85
-4.0873e-88
-5.32411e-53
-4.79975e-53
-4.93839e-55
-1.04001e-55
-6.49941e-58
-4.78772e-59
-2.26863e-61
-7.59335e-63
-3.01057e-65
-5.35075e-67
-1.80516e-69
-1.8608e-71
-5.30829e-74
-3.16836e-76
-7.17195e-79
-2.36632e-81
-3.65426e-84
-5.20335e-87
-3.0837e-90
-2.75953e-55
-2.81657e-55
-2.92744e-57
-6.84247e-58
-4.21013e-60
-3.38233e-61
-1.5643e-63
-5.60167e-65
-2.16175e-67
-4.04119e-69
-1.33046e-71
-1.41983e-73
-3.96726e-76
-2.42285e-78
-5.39164e-81
-1.80026e-83
-2.74489e-86
-3.91624e-89
-2.30157e-92
-1.4067e-57
-1.61171e-57
-1.70839e-59
-4.40603e-60
-2.68827e-62
-2.34349e-63
-1.06251e-65
-4.0567e-67
-1.52795e-69
-2.99824e-71
-9.64946e-74
-1.06477e-75
-2.91763e-78
-1.82205e-80
-3.98934e-83
-1.34756e-85
-2.0295e-88
-2.90146e-91
-1.69146e-94
)
;

boundaryField
{
    leftWall
    {
        type            calculated;
        value           nonuniform List<scalar> 
50
(
-29.4294
-88.2881
-147.147
-206.006
-264.864
-323.723
-382.582
-441.44
-533.467
-658.662
-783.856
-909.051
-1034.25
-1159.44
-1284.63
-1409.83
-1535.02
-1660.05
-1667.51
-557.897
-2.21737e-34
-5.85945e-18
-4.50703e-17
-1.46109e-16
-3.80565e-16
-6.39614e-16
-7.76823e-16
-4.08687e-16
-1.19766e-17
-3.10546e-20
-8.78577e-21
-4.32022e-23
-3.87365e-27
-7.93333e-32
-5.33606e-35
-5.05113e-41
-1.1993e-44
-8.03164e-51
-8.26856e-58
-2.01024e-63
-7.3506e-69
-2.83774e-73
-2.34161e-79
-5.28996e-84
-6.05486e-89
-1.18327e-94
-4.61299e-101
-1.80147e-108
-7.26327e-117
-7.08617e-125
)
;
    }
    rightWall
    {
        type            calculated;
        value           nonuniform List<scalar> 
50
(
-1.92453e-58
-9.85838e-56
-2.7822e-53
-5.80907e-51
-6.45331e-49
-1.02996e-46
-6.31653e-45
-1.04037e-42
-8.31801e-41
-1.08824e-37
-1.72773e-37
-3.68314e-35
-2.41036e-35
-6.69371e-34
-3.29564e-34
-4.91305e-33
-1.21896e-33
-1.36234e-33
-1.47091e-34
-1.41336e-35
-5.12026e-37
-1.63626e-38
-3.46526e-40
-6.34228e-42
-9.54969e-44
-1.30797e-45
-1.63439e-47
-1.95177e-49
-2.21626e-51
-2.46086e-53
-2.61694e-55
-2.70975e-57
-2.68803e-59
-2.65991e-61
-2.60865e-63
-2.51946e-65
-2.38966e-67
-2.2184e-69
-2.01366e-71
-1.78467e-73
-1.54417e-75
-1.30439e-77
-1.07661e-79
-8.69312e-82
-6.87867e-84
-5.34474e-86
-4.0873e-88
-3.0837e-90
-2.30157e-92
-1.69146e-94
)
;
    }
    lowerWall
    {
        type            calculated;
        value           nonuniform List<scalar> 
62
(
0
0
0
0
0
0
0
0
0
0
0
0
0
0
0
0
0
0
0
0
0
0
0
-28.8441
-86.7829
-146.57
-203.959
-256.845
-313.589
-370.607
-427.626
-470.87
-137.23
-4.02322e-13
-4.02328e-13
-9.30357e-24