/*--------------------------------*- C++ -*----------------------------------*\
| =========                 |                                                 |
| \\      /  F ield         | OpenFOAM: The Open Source CFD Toolbox           |
|  \\    /   O peration     | Version:  2012                                  |
|   \\  /    A nd           | Website:  www.openfoam.com                      |
|    \\/     M anipulation  |                                                 |
\*---------------------------------------------------------------------------*/
FoamFile
{
    version     2.0;
    format      ascii;
    class       volVectorField;
    location    "0.18";
    object      Uc;
}
// * * * * * * * * * * * * * * * * * * * * * * * * * * * * * * * * * * * * * //

dimensions      [0 1 -1 0 0 0 0];


internalField   nonuniform List<vector> 
2268
(
(0.0296468 -0.0140108 0)
(0.0890213 -0.0140491 0)
(0.148938 -0.0142672 0)
(0.2098 -0.0144956 0)
(0.271546 -0.014685 0)
(0.334766 -0.015192 0)
(0.399625 -0.01546 0)
(0.465714 -0.015773 0)
(0.533354 -0.0161932 0)
(0.602335 -0.0164064 0)
(0.671646 -0.0163495 0)
(0.739928 -0.0159201 0)
(0.8049 -0.0147855 0)
(0.866717 -0.0144287 0)
(0.921915 -0.0116572 0)
(0.961019 -0.00682312 0)
(0.976027 -0.000269448 0)
(0.95985 0.00791461 0)
(0.906113 0.0174809 0)
(0.807443 0.0291497 0)
(0.653413 0.0436437 0)
(0.439463 0.0574677 0)
(0.158931 0.0751259 0)
(0.0296045 -0.0420125 0)
(0.0889263 -0.0421422 0)
(0.148785 -0.0427792 0)
(0.20957 -0.0434728 0)
(0.271262 -0.0440437 0)
(0.334442 -0.0455689 0)
(0.399299 -0.0463861 0)
(0.465436 -0.0473356 0)
(0.533134 -0.0485906 0)
(0.602241 -0.0492682 0)
(0.671924 -0.0491753 0)
(0.740569 -0.0478045 0)
(0.806141 -0.0445953 0)
(0.868615 -0.043358 0)
(0.924257 -0.0351096 0)
(0.964841 -0.0210306 0)
(0.982378 -0.00144244 0)
(0.968873 0.0231153 0)
(0.917431 0.0519866 0)
(0.820218 0.0872166 0)
(0.667005 0.130778 0)
(0.453057 0.172555 0)
(0.165567 0.228511 0)
(0.0295255 -0.0699569 0)
(0.0887354 -0.0702149 0)
(0.148469 -0.0712249 0)
(0.209104 -0.0724093 0)
(0.270696 -0.0733698 0)
(0.333799 -0.0759232 0)
(0.39865 -0.0773307 0)
(0.46489 -0.0789508 0)
(0.532737 -0.0810331 0)
(0.602145 -0.082287 0)
(0.672499 -0.0823367 0)
(0.742068 -0.0799615 0)
(0.809301 -0.0752009 0)
(0.873271 -0.0725091 0)
(0.930261 -0.0591875 0)
(0.97433 -0.0369585 0)
(0.997453 -0.00473002 0)
(0.991836 0.0354396 0)
(0.950309 0.0835987 0)
(0.862734 0.142934 0)
(0.713989 0.217763 0)
(0.491535 0.29181 0)
(0.180558 0.392105 0)
(0.0294132 -0.0978109 0)
(0.0884308 -0.0982342 0)
(0.147952 -0.0995642 0)
(0.208376 -0.101282 0)
(0.269818 -0.102642 0)
(0.332795 -0.106236 0)
(0.397612 -0.108299 0)
(0.463965 -0.110645 0)
(0.532016 -0.113563 0)
(0.601813 -0.115545 0)
(0.672867 -0.115908 0)
(0.743618 -0.112705 0)
(0.813051 -0.107045 0)
(0.879322 -0.102216 0)
(0.937705 -0.0840048 0)
(0.98465 -0.0551535 0)
(1.01344 -0.0110703 0)
(1.01428 0.0440385 0)
(0.977484 0.112015 0)
(0.889796 0.197345 0)
(0.735359 0.306633 0)
(0.50244 0.418146 0)
(0.182767 0.563823 0)
(0.0292649 -0.125542 0)
(0.0879897 -0.126147 0)
(0.147208 -0.127766 0)
(0.207368 -0.130067 0)
(0.268617 -0.13184 0)
(0.331427 -0.136483 0)
(0.396183 -0.139287 0)
(0.462676 -0.14244 0)
(0.531037 -0.146235 0)
(0.601404 -0.149112 0)
(0.673419 -0.149953 0)
(0.745881 -0.14634 0)
(0.818233 -0.140416 0)
(0.888026 -0.133148 0)
(0.950585 -0.110229 0)
(1.00345 -0.0761011 0)
(1.04116 -0.0215484 0)
(1.05592 0.0471419 0)
(1.03738 0.135068 0)
(0.969915 0.247614 0)
(0.832619 0.394235 0)
(0.599988 0.55056 0)
(0.228355 0.758154 0)
(0.0290713 -0.153111 0)
(0.0874102 -0.153902 0)
(0.146238 -0.1558 0)
(0.206054 -0.158733 0)
(0.267041 -0.160942 0)
(0.329617 -0.166637 0)
(0.394244 -0.170278 0)
(0.460837 -0.174344 0)
(0.529506 -0.17909 0)
(0.600462 -0.183046 0)
(0.673477 -0.18456 0)
(0.747775 -0.181092 0)
(0.8229 -0.175361 0)
(0.896128 -0.165793 0)
(0.963971 -0.13921 0)
(1.02359 -0.100282 0)
(1.06904 -0.0366655 0)
(1.09516 0.0429353 0)
(1.08931 0.150808 0)
(1.0269 0.293247 0)
(0.883978 0.481034 0)
(0.631122 0.693199 0)
(0.236289 0.977817 0)
(0.0288292 -0.180474 0)
(0.0866908 -0.181454 0)
(0.145048 -0.183628 0)
(0.204444 -0.187244 0)
(0.26511 -0.189923 0)
(0.327408 -0.196669 0)
(0.39187 -0.201252 0)
(0.458567 -0.206361 0)
(0.527637 -0.212167 0)
(0.59938 -0.217408 0)
(0.673803 -0.219876 0)
(0.750511 -0.21714 0)
(0.829105 -0.211959 0)
(0.90714 -0.200681 0)
(0.982318 -0.171914 0)
(1.05157 -0.128482 0)
(1.11041 -0.0577519 0)
(1.15553 0.0303543 0)
(1.17168 0.158524 0)
(1.13329 0.333166 0)
(1.01513 0.564499 0)
(0.774377 0.843012 0)
(0.307959 1.23514 0)
(0.0285456 -0.207589 0)
(0.0858474 -0.208764 0)
(0.143659 -0.211218 0)
(0.202556 -0.215558 0)
(0.262793 -0.218747 0)
(0.324698 -0.226543 0)
(0.388885 -0.232177 0)
(0.455593 -0.238483 0)
(0.525001 -0.245489 0)
(0.597462 -0.252235 0)
(0.673195 -0.256011 0)
(0.752156 -0.254573 0)
(0.83405 -0.250372 0)
(0.916716 -0.238214 0)
(0.998586 -0.2086 0)
(1.07689 -0.161529 0)
(1.1491 -0.0866364 0)
(1.21169 0.0083349 0)
(1.24514 0.157103 0)
(1.22158 0.363864 0)
(1.11138 0.641722 0)
(0.852626 1.00186 0)
(0.337488 1.5403 0)
(-0.0888269 0.0377584 0)
(-0.22787 0.0213372 0)
(-0.288501 0.00440858 0)
(-0.293805 -0.00219198 0)
(-0.266023 -0.00966155 0)
(-0.223872 -0.00830066 0)
(-0.180444 -0.0102027 0)
(-0.139191 -0.00737343 0)
(-0.104905 -0.00723738 0)
(-0.0758995 -0.00512688 0)
(-0.0536291 -0.00437136 0)
(-0.0362229 -0.00305751 0)
(-0.0235385 -0.0023623 0)
(-0.0143712 -0.00156123 0)
(-0.00818203 -0.00109525 0)
(-0.0041904 -0.00062641 0)
(-0.00188331 -0.000378543 0)
(-0.000678303 -0.000157572 0)
(-0.000167723 -8.30915e-05 0)
(-0.0920644 0.114652 0)
(-0.232666 0.0632968 0)
(-0.286654 0.0111153 0)
(-0.286466 -0.00680186 0)
(-0.258908 -0.0286634 0)
(-0.218278 -0.0245761 0)
(-0.176164 -0.030375 0)
(-0.135907 -0.0219295 0)
(-0.102368 -0.0215853 0)
(-0.0738822 -0.0152865 0)
(-0.0520118 -0.0130381 0)
(-0.0349255 -0.00911236 0)
(-0.0225009 -0.00703651 0)
(-0.0135489 -0.00464255 0)
(-0.007545 -0.00324806 0)
(-0.00371681 -0.00184738 0)
(-0.0015554 -0.00110547 0)
(-0.000486518 -0.000444955 0)
(-0.000104473 -0.000222357 0)
(-0.113905 0.202213 0)
(-0.282097 0.106987 0)
(-0.339458 0.0147002 0)
(-0.329791 -0.0146581 0)
(-0.285976 -0.0512382 0)
(-0.232049 -0.0422872 0)
(-0.183075 -0.0514701 0)
(-0.138656 -0.0369092 0)
(-0.103138 -0.0360338 0)
(-0.0737753 -0.025497 0)
(-0.0515101 -0.0216517 0)
(-0.0343434 -0.0151184 0)
(-0.0219453 -0.0116377 0)
(-0.0130967 -0.00766129 0)
(-0.00719228 -0.0053423 0)
(-0.00346281 -0.00301534 0)
(-0.00138584 -0.00178744 0)
(-0.000389402 -0.00068853 0)
(-7.4756e-05 -0.000322043 0)
(-0.115838 0.299884 0)
(-0.282167 0.151508 0)
(-0.3241 0.0123267 0)
(-0.303039 -0.025434 0)
(-0.263182 -0.0761248 0)
(-0.215376 -0.0607384 0)
(-0.170379 -0.0730504 0)
(-0.12869 -0.0520128 0)
(-0.0952685 -0.0503083 0)
(-0.0675171 -0.0355688 0)
(-0.0465152 -0.0300344 0)
(-0.0303769 -0.0209519 0)
(-0.0187807 -0.0160591 0)
(-0.0105974 -0.0105328 0)
(-0.00525925 -0.00730054 0)
(-0.00202629 -0.00406599 0)
(-0.000390435 -0.00236311 0)
(0.000192619 -0.000831695 0)
(0.000117117 -0.000327435 0)
(-0.180921 0.42606 0)
(-0.419239 0.197352 0)
(-0.45145 -0.00206656 0)
(-0.393428 -0.0447576 0)
(-0.313895 -0.107656 0)
(-0.238858 -0.0815232 0)
(-0.181557 -0.0958387 0)
(-0.133051 -0.0676466 0)
(-0.0963216 -0.0645672 0)
(-0.0671036 -0.0455944 0)
(-0.0454694 -0.0381947 0)
(-0.0292391 -0.0266092 0)
(-0.0177351 -0.020276 0)
(-0.00976383 -0.0132353 0)
(-0.0046209 -0.00910366 0)
(-0.00157563 -0.00498064 0)
(-9.48176e-05 -0.00282114 0)
(0.000360445 -0.000862216 0)
(0.000167825 -0.000229616 0)
(-0.170106 0.575317 0)
(-0.390389 0.24306 0)
(-0.404781 -0.0280399 0)
(-0.3428 -0.0699061 0)
(-0.276378 -0.144661 0)
(-0.211474 -0.104106 0)
(-0.160725 -0.119275 0)
(-0.116711 -0.0836199 0)
(-0.0832091 -0.0785205 0)
(-0.056694 -0.0553991 0)
(-0.03713 -0.045964 0)
(-0.0226006 -0.031973 0)
(-0.0124288 -0.0241805 0)
(-0.00557432 -0.0156851 0)
(-0.00137895 -0.0106734 0)
(0.000833057 -0.00569434 0)
(0.0015753 -0.00309994 0)
(0.00133747 -0.000722699 0)
(0.000489729 2.67211e-05 0)
(-0.317043 0.78247 0)
(-0.67581 0.282101 0)
(-0.625756 -0.0823367 0)
(-0.471115 -0.107827 0)
(-0.342458 -0.189788 0)
(-0.240895 -0.129848 0)
(-0.173709 -0.143756 0)
(-0.12136 -0.100183 0)
(-0.0837485 -0.0922591 0)
(-0.0555371 -0.0649899 0)
(-0.0353915 -0.0533137 0)
(-0.0209117 -0.0370117 0)
(-0.0109697 -0.0277455 0)
(-0.00444595 -0.0178583 0)
(-0.000538326 -0.011994 0)
(0.00141382 -0.00619204 0)
(0.00194922 -0.00319242 0)
(0.00154851 -0.000405248 0)
(0.000552766 0.000446862 0)
(-0.272005 1.03298 0)
(-0.570259 0.310963 0)
(-0.514454 -0.156312 0)
(-0.395066 -0.150487 0)
(-0.300415 -0.242183 0)
(-0.209522 -0.159376 0)
(-0.148158 -0.168966 0)
(-0.10066 -0.117497 0)
(-0.0664039 -0.105567 0)
(-0.0415931 -0.0742861 0)
(-0.0239466 -0.0601419 0)
(-0.0116598 -0.0416174 0)
(-0.00353088 -0.0308741 0)
(0.00143635 -0.0196649 0)
(0.00401792 -0.0129945 0)
(0.00480126 -0.00640184 0)
(0.00428306 -0.00303646 0)
(0.00292025 0.000142437 0)
(0.00101057 0.00108866 0)
(0.0280384 -0.249264 0)
(0.0843352 -0.25076 0)
(0.141177 -0.253682 0)
(0.19915 -0.259204 0)
(0.25856 -0.263288 0)
(0.319748 -0.272765 0)
(0.383421 -0.280294 0)
(0.450049 -0.288867 0)
(0.51997 -0.298192 0)
(0.593704 -0.307895 0)
(0.671833 -0.314679 0)
(0.754938 -0.31676 0)
(0.843195 -0.315604 0)
(0.935436 -0.304772 0)
(1.03131 -0.277107 0)
(1.12918 -0.228415 0)
(1.23071 -0.155926 0)
(1.32701 -0.0487659 0)
(1.39868 0.126354 0)
(1.43447 0.369769 0)
(1.42946 0.692936 0)
(1.39244 1.11014 0)
(1.32341 1.74512 0)
(0.0271829 -0.304774 0)
(0.0817746 -0.306718 0)
(0.136942 -0.310319 0)
(0.193273 -0.317467 0)
(0.251154 -0.322928 0)
(0.310966 -0.334758 0)
(0.373474 -0.345141 0)
(0.439437 -0.357305 0)
(0.509498 -0.370468 0)
(0.584455 -0.385087 0)
(0.665295 -0.397286 0)
(0.753346 -0.406202 0)
(0.849712 -0.411747 0)
(0.954991 -0.40718 0)
(1.06936 -0.386041 0)
(1.19389 -0.343049 0)
(1.32594 -0.276076 0)
(1.45205 -0.152203 0)
(1.56538 0.0438354 0)
(1.66669 0.315242 0)
(1.73966 0.67992 0)
(1.77721 1.12262 0)
(1.81636 1.76837 0)
(0.0260629 -0.358297 0)
(0.0784093 -0.36069 0)
(0.131344 -0.365012 0)
(0.185452 -0.373788 0)
(0.241218 -0.380847 0)
(0.299073 -0.395122 0)
(0.359825 -0.408679 0)
(0.424443 -0.42503 0)
(0.493879 -0.442967 0)
(0.569335 -0.463785 0)
(0.652338 -0.483287 0)
(0.745011 -0.501869 0)
(0.85035 -0.518838 0)
(0.970746 -0.526944 0)
(1.10749 -0.518699 0)
(1.26046 -0.489346 0)
(1.42206 -0.424956 0)
(1.5873 -0.296201 0)
(1.75655 -0.0962248 0)
(1.89818 0.21193 0)
(1.96821 0.641023 0)
(1.96502 1.12878 0)
(1.91631 1.77887 0)
(0.0247641 -0.40939 0)
(0.0744962 -0.41221 0)
(0.124817 -0.417287 0)
(0.17627 -0.427626 0)
(0.229369 -0.436442 0)
(0.284565 -0.453168 0)
(0.342621 -0.470061 0)
(0.404647 -0.490954 0)
(0.471799 -0.514343 0)
(0.545692 -0.542538 0)
(0.628432 -0.571143 0)
(0.72283 -0.602059 0)
(0.833261 -0.635544 0)
(0.963382 -0.662064 0)
(1.11297 -0.671396 0)
(1.27586 -0.654164 0)
(1.44219 -0.589781 0)
(1.59698 -0.453132 0)
(1.72046 -0.232178 0)
(1.82656 0.102541 0)
(1.91211 0.598963 0)
(1.92254 1.16987 0)
(1.86597 1.84702 0)
(0.0231737 -0.457578 0)
(0.0697037 -0.460786 0)
(0.116799 -0.466635 0)
(0.164927 -0.478379 0)
(0.214595 -0.488992 0)
(0.266295 -0.50807 0)
(0.320709 -0.528215 0)
(0.378981 -0.553726 0)
(0.442335 -0.582759 0)
(0.51237 -0.618802 0)
(0.592004 -0.658101 0)
(0.685154 -0.703627 0)
(0.796857 -0.75727 0)
(0.92963 -0.804605 0)
(1.07806 -0.828422 0)
(1.22875 -0.812355 0)
(1.35778 -0.728449 0)
(1.46218 -0.572805 0)
(1.57393 -0.344597 0)
(1.73552 -0.0495505 0)
(1.88382 0.520609 0)
(1.9006 1.22608 0)
(1.80849 1.94545 0)
(0.0214087 -0.502393 0)
(0.0644013 -0.505961 0)
(0.107945 -0.512572 0)
(0.152384 -0.525492 0)
(0.198183 -0.537845 0)
(0.24571 -0.558963 0)
(0.29545 -0.582018 0)
(0.348289 -0.611613 0)
(0.405438 -0.646004 0)
(0.468376 -0.689224 0)
(0.540424 -0.740153 0)
(0.627001 -0.802241 0)
(0.73201 -0.8765 0)
(0.854695 -0.942168 0)
(0.983321 -0.969423 0)
(1.10103 -0.941187 0)
(1.22827 -0.855132 0)
(1.41477 -0.734187 0)
(1.59708 -0.475727 0)
(1.70228 -0.185592 0)
(1.76503 0.445007 0)
(1.75481 1.29589 0)
(1.66967 2.05727 0)
(0.0194851 -0.5435 0)
(0.0585944 -0.547384 0)
(0.0981089 -0.554641 0)
(0.13821 -0.568406 0)
(0.17934 -0.582314 0)
(0.221726 -0.604877 0)
(0.265731 -0.630339 0)
(0.311976 -0.662894 0)
(0.36144 -0.701892 0)
(0.41499 -0.750431 0)
(0.475303 -0.811997 0)
(0.549465 -0.891974 0)
(0.640652 -0.983988 0)
(0.741579 -1.05968 0)
(0.851345 -1.09202 0)
(1.00545 -1.09073 0)
(1.19161 -1.01722 0)
(1.25978 -0.825935 0)
(1.17147 -0.478298 0)
(1.08684 -0.203573 0)
(1.16337 0.323111 0)
(1.30761 1.28323 0)
(1.38166 2.08125 0)
(0.0174655 -0.580644 0)
(0.0525289 -0.5848 0)
(0.0878886 -0.592489 0)
(0.123664 -0.60683 0)
(0.160218 -0.621979 0)
(0.197541 -0.645337 0)
(0.235707 -0.67248 0)
(0.274987 -0.706725 0)
(0.316277 -0.74929 0)
(0.360376 -0.801193 0)
(0.409714 -0.87146 0)
(0.470502 -0.968169 0)
(0.543999 -1.07386 0)
(0.637046 -1.16607 0)
(0.764412 -1.224 0)
(0.895574 -1.2434 0)
(0.867898 -1.02245 0)
(0.617964 -0.637869 0)
(0.37103 -0.329239 0)
(0.339534 -0.235761 0)
(0.561174 0.0557069 0)
(0.885789 1.0795 0)
(1.09208 2.00332 0)
(0.0156892 -0.613971 0)
(0.0471183 -0.618312 0)
(0.0785577 -0.626125 0)
(0.109998 -0.640761 0)
(0.141672 -0.656632 0)
(0.173726 -0.680422 0)
(0.206441 -0.708645 0)
(0.240584 -0.744365 0)
(0.276809 -0.789571 0)
(0.315327 -0.843971 0)
(0.354384 -0.917826 0)
(0.400655 -1.03133 0)
(0.488274 -1.17562 0)
(0.625185 -1.29669 0)
(0.751105 -1.34691 0)
(0.692198 -1.1921 0)
(0.369106 -0.72103 0)
(0.0699431 -0.387202 0)
(0.0337998 -0.295231 0)
(0.131484 -0.336173 0)
(0.305234 -0.241208 0)
(0.590721 0.763282 0)
(0.84257 1.85917 0)
(0.0139214 -0.643737 0)
(0.0417712 -0.648136 0)
(0.0697429 -0.656023 0)
(0.0978069 -0.670678 0)
(0.126242 -0.687139 0)
(0.155284 -0.711336 0)
(0.185068 -0.740575 0)
(0.215558 -0.777578 0)
(0.246854 -0.825129 0)
(0.281341 -0.884506 0)
(0.319873 -0.959267 0)
(0.396154 -1.11682 0)
(0.496374 -1.27551 0)
(0.565063 -1.39755 0)
(0.532878 -1.33943 0)
(0.276908 -0.882909 0)
(-0.0499492 -0.376755 0)
(-0.182352 -0.297539 0)
(-0.178135 -0.352679 0)
(-0.139117 -0.416007 0)
(-0.0441169 -0.431393 0)
(0.183599 0.437751 0)
(0.541564 1.57187 0)
(0.013038 -0.671027 0)
(0.0389897 -0.675358 0)
(0.0649919 -0.68363 0)
(0.0905587 -0.697876 0)
(0.115577 -0.71514 0)
(0.140768 -0.740225 0)
(0.167597 -0.772285 0)
(0.197846 -0.811299 0)
(0.239682 -0.868966 0)
(0.333448 -0.97334 0)
(0.464029 -1.04229 0)
(0.557449 -1.20448 0)
(0.526616 -1.2517 0)
(0.400215 -1.35722 0)
(0.224856 -1.17088 0)
(-0.0470142 -0.520633 0)
(-0.266048 -0.190119 0)
(-0.344373 -0.272234 0)
(-0.382893 -0.343384 0)
(-0.408393 -0.438763 0)
(-0.424772 -0.487535 0)
(-0.297986 0.137692 0)
(0.0598866 1.15251 0)
(0.0118125 -0.698176 0)
(0.0351895 -0.702071 0)
(0.0590429 -0.711196 0)
(0.0839557 -0.725018 0)
(0.111907 -0.745042 0)
(0.150784 -0.778407 0)
(0.224374 -0.839143 0)
(0.342139 -0.897442 0)
(0.481418 -0.967945 0)
(0.620154 -1.10911 0)
(0.719504 -1.13578 0)
(0.689071 -1.17253 0)
(0.490924 -1.05342 0)
(0.27787 -1.21424 0)
(0.0600083 -0.918454 0)
(-0.20682 -0.231305 0)
(-0.374203 -0.0908493 0)
(-0.475934 -0.190398 0)
(-0.597459 -0.264222 0)
(-0.737045 -0.351847 0)
(-0.91189 -0.382084 0)
(-1.01209 0.00567917 0)
(-0.916249 0.828638 0)
(0.0170038 -0.72912 0)
(0.0520164 -0.733662 0)
(0.0924404 -0.7478 0)
(0.141234 -0.765564 0)
(0.200321 -0.7943 0)
(0.272657 -0.842214 0)
(0.361186 -0.938675 0)
(0.469697 -1.02534 0)
(0.600186 -1.1111 0)
(0.706076 -1.2118 0)
(0.744464 -1.17148 0)
(0.664438 -1.02574 0)
(0.441323 -0.776701 0)
(0.216256 -1.05059 0)
(-0.0381862 -0.607291 0)
(-0.322416 0.0116271 0)
(-0.472494 -0.0145655 0)
(-0.573942 -0.0623375 0)
(-0.708536 -0.134717 0)
(-0.876505 -0.172067 0)
(-1.09948 -0.161831 0)
(-1.30872 0.0966478 0)
(-1.38691 0.720115 0)
(0.0163307 -0.762608 0)
(0.0504907 -0.769666 0)
(0.089837 -0.791938 0)
(0.136081 -0.816907 0)
(0.192264 -0.858767 0)
(0.258074 -0.916531 0)
(0.31932 -1.01483 0)
(0.378774 -1.11797 0)
(0.462405 -1.23366 0)
(0.56624 -1.30002 0)
(0.656105 -1.21214 0)
(0.631724 -0.880067 0)
(0.434194 -0.499467 0)
(0.166944 -0.833021 0)
(-0.132233 -0.268387 0)
(-0.39102 0.218699 0)
(-0.520172 0.0591402 0)
(-0.619752 0.0661297 0)
(-0.743301 -0.00359288 0)
(-0.88911 0.0123356 0)
(-1.06516 0.0549924 0)
(-1.23276 0.258765 0)
(-1.28763 0.691888 0)
(0.00898193 -0.788017 0)
(0.0279048 -0.797545 0)
(0.0466897 -0.822422 0)
(0.0664644 -0.852713 0)
(0.0886261 -0.90164 0)
(0.116162 -0.967412 0)
(0.152152 -1.06162 0)
(0.208696 -1.18772 0)
(0.288469 -1.3281 0)
(0.382516 -1.40443 0)
(0.462424 -1.27832 0)
(0.464825 -0.791723 0)
(0.376388 -0.300287 0)
(0.111271 -0.49707 0)
(-0.260967 0.070583 0)
(-0.473476 0.353574 0)
(-0.561993 0.143154 0)
(-0.648043 0.168802 0)
(-0.735382 0.105818 0)
(-0.835919 0.150657 0)
(-0.945543 0.203946 0)
(-1.04481 0.378182 0)
(-1.06344 0.646477 0)
(0.00163899 -0.79866 0)
(0.00509514 -0.80933 0)
(0.00786811 -0.832238 0)
(0.0110976 -0.865951 0)
(0.014181 -0.913708 0)
(0.01838 -0.987171 0)
(0.0209218 -1.08052 0)
(0.0296315 -1.23435 0)
(0.0426018 -1.37463 0)
(0.0539116 -1.46374 0)
(0.0321005 -1.27735 0)
(0.00521164 -0.768011 0)
(-0.0290729 -0.20057 0)
(-0.26177 -0.0963048 0)
(-0.537665 0.321405 0)
(-0.616396 0.395585 0)
(-0.639253 0.213175 0)
(-0.682173 0.228504 0)
(-0.726676 0.178728 0)
(-0.780711 0.23321 0)
(-0.831861 0.283093 0)
(-0.863468 0.43068 0)
(-0.845028 0.594255 0)
(-0.00544307 -0.794801 0)
(-0.0155999 -0.806384 0)
(-0.0264191 -0.827027 0)
(-0.0395578 -0.861131 0)
(-0.0571249 -0.903899 0)
(-0.0814116 -0.976717 0)
(-0.11482 -1.05988 0)
(-0.164013 -1.21423 0)
(-0.235393 -1.33597 0)
(-0.337211 -1.41136 0)
(-0.480477 -1.16373 0)
(-0.617861 -0.716439 0)
(-0.705128 -0.129892 0)
(-0.79202 0.154341 0)
(-0.819594 0.375876 0)
(-0.756979 0.357381 0)
(-0.715672 0.232903 0)
(-0.708741 0.245026 0)
(-0.71545 0.213759 0)
(-0.73271 0.269923 0)
(-0.747823 0.313067 0)
(-0.746668 0.431393 0)
(-0.711852 0.540078 0)
(-0.00896441 -0.780285 0)
(-0.0278763 -0.791612 0)
(-0.0502106 -0.808405 0)
(-0.0775778 -0.838968 0)
(-0.112288 -0.873444 0)
(-0.158673 -0.936063 0)
(-0.224335 -1.00088 0)
(-0.325013 -1.12251 0)
(-0.468833 -1.2113 0)
(-0.651391 -1.2501 0)
(-0.850302 -0.980957 0)
(-1.02206 -0.588394 0)
(-1.08934 -0.102522 0)
(-1.03582 0.160577 0)
(-0.928174 0.289212 0)
(-0.818544 0.270964 0)
(-0.74684 0.205783 0)
(-0.712183 0.230407 0)
(-0.696344 0.219267 0)
(-0.688223 0.273668 0)
(-0.679076 0.315383 0)
(-0.658874 0.407669 0)
(-0.616126 0.485887 0)
(-0.0121046 -0.759073 0)
(-0.038839 -0.766874 0)
(-0.0707871 -0.778512 0)
(-0.108915 -0.802958 0)
(-0.155634 -0.827535 0)
(-0.216131 -0.874467 0)
(-0.297726 -0.914385 0)
(-0.414714 -0.990141 0)
(-0.579151 -1.03375 0)
(-0.782876 -1.0393 0)
(-0.975159 -0.798466 0)
(-1.08925 -0.483485 0)
(-1.0935 -0.13547 0)
(-1.0189 0.0647985 0)
(-0.913101 0.170486 0)
(-0.806527 0.172417 0)
(-0.732278 0.157675 0)
(-0.688836 0.20007 0)
(-0.660776 0.205535 0)
(-0.639477 0.257885 0)
(-0.617997 0.300435 0)
(-0.588978 0.373191 0)
(-0.544957 0.433188 0)
(-0.0172652 -0.729518 0)
(-0.0521512 -0.734423 0)
(-0.0892003 -0.741542 0)
(-0.131247 -0.759271 0)
(-0.181594 -0.773587 0)
(-0.244827 -0.803977 0)
(-0.326673 -0.820521 0)
(-0.436114 -0.856336 0)
(-0.582303 -0.855247 0)
(-0.759475 -0.834856 0)
(-0.916119 -0.652104 0)
(-0.999909 -0.430879 0)
(-0.999694 -0.183966 0)
(-0.936509 -0.0251482 0)
(-0.846959 0.064115 0)
(-0.759297 0.0835935 0)
(-0.698276 0.110578 0)
(-0.659267 0.16434 0)
(-0.627538 0.181216 0)
(-0.59981 0.232973 0)
(-0.571512 0.275358 0)
(-0.537472 0.334924 0)
(-0.493962 0.383503 0)
(-0.018724 -0.693311 0)
(-0.0566422 -0.697385 0)
(-0.0967115 -0.700998 0)
(-0.141458 -0.712509 0)
(-0.193154 -0.717714 0)
(-0.254755 -0.734305 0)
(-0.328995 -0.733233 0)
(-0.41922 -0.742858 0)
(-0.527493 -0.712877 0)
(-0.649552 -0.676376 0)
(-0.759871 -0.542171 0)
(-0.826117 -0.389938 0)
(-0.834341 -0.216803 0)
(-0.795488 -0.0948299 0)
(-0.735426 -0.0165429 0)
(-0.679734 0.0202017 0)
(-0.641831 0.0745805 0)
(-0.610794 0.129977 0)
(-0.580678 0.15346 0)
(-0.552087 0.204162 0)
(-0.521945 0.245467 0)
(-0.487415 0.295925 0)
(-0.446439 0.337607 0)
(-0.0184907 -0.655873 0)
(-0.0565865 -0.658355 0)
(-0.097262 -0.658805 0)
(-0.141825 -0.664869 0)
(-0.191663 -0.663232 0)
(-0.24873 -0.669442 0)
(-0.314204 -0.657597 0)
(-0.389094 -0.652462 0)
(-0.47179 -0.611252 0)
(-0.558628 -0.567961 0)
(-0.636514 -0.461347 0)
(-0.687938 -0.352425 0)
(-0.702039 -0.231823 0)
(-0.682743 -0.138212 0)
(-0.648921 -0.0674837 0)
(-0.617634 -0.016242 0)
(-0.592252 0.0474555 0)
(-0.56445 0.0980023 0)
(-0.536582 0.127192 0)
(-0.509534 0.174542 0)
(-0.480223 0.215363 0)
(-0.447544 0.258501 0)
(-0.410254 0.296384 0)
(-0.0193375 -0.617819 0)
(-0.0586046 -0.618586 0)
(-0.0994608 -0.616561 0)
(-0.143159 -0.618335 0)
(-0.190711 -0.611812 0)
(-0.243347 -0.610532 0)
(-0.301515 -0.592167 0)
(-0.365277 -0.578463 0)
(-0.432256 -0.534741 0)
(-0.497868 -0.491175 0)
(-0.551613 -0.405764 0)
(-0.584358 -0.323351 0)
(-0.595791 -0.235181 0)
(-0.589489 -0.160539 0)
(-0.573363 -0.0953193 0)
(-0.555977 -0.0372889 0)
(-0.5371 0.0240567 0)
(-0.513874 0.0701486 0)
(-0.490803 0.10388 0)
(-0.466469 0.146239 0)
(-0.439407 0.187033 0)
(-0.409202 0.223647 0)
(-0.375509 0.259908 0)
(-0.0192603 -0.578993 0)
(-0.0581193 -0.578825 0)
(-0.0979342 -0.575177 0)
(-0.139664 -0.573793 0)
(-0.183866 -0.564069 0)
(-0.231211 -0.557721 0)
(-0.281472 -0.535931 0)
(-0.334111 -0.51764 0)
(-0.386496 -0.475528 0)
(-0.43506 -0.435568 0)
(-0.47527 -0.366876 0)
(-0.503429 -0.30097 0)
(-0.518402 -0.23097 0)
(-0.52087 -0.168559 0)
(-0.515136 -0.109231 0)
(-0.504446 -0.0515588 0)
(-0.48889 0.0037551 0)
(-0.469995 0.0481473 0)
(-0.450307 0.0829347 0)
(-0.428416 0.120751 0)
(-0.404318 0.161124 0)
(-0.37712 0.191879 0)
(-0.347217 0.227769 0)
(-0.018191 -0.541321 0)
(-0.0549314 -0.540452 0)
(-0.0925058 -0.535705 0)
(-0.131513 -0.532056 0)
(-0.172118 -0.520507 0)
(-0.214507 -0.511032 0)
(-0.258104 -0.488224 0)
(-0.302182 -0.468078 0)
(-0.345032 -0.429311 0)
(-0.384915 -0.39283 0)
(-0.418403 -0.335486 0)
(-0.441411 -0.280883 0)
(-0.454583 -0.222722 0)
(-0.459844 -0.168996 0)
(-0.458826 -0.11554 0)
(-0.452372 -0.062445 0)
(-0.440723 -0.0126688 0)
(-0.425664 0.0304757 0)
(-0.408579 0.0636731 0)
(-0.389765 0.0991253 0)
(-0.369228 0.137909 0)
(-0.345334 0.163758 0)
(-0.319216 0.199595 0)
(-0.0169724 -0.50595 0)
(-0.0511624 -0.504474 0)
(-0.085879 -0.498967 0)
(-0.121528 -0.4937 0)
(-0.158142 -0.481193 0)
(-0.195782 -0.469852 0)
(-0.23386 -0.447255 0)
(-0.271713 -0.426642 0)
(-0.308032 -0.391119 0)
(-0.341054 -0.357691 0)
(-0.36861 -0.30922 0)
(-0.388967 -0.263515 0)
(-0.402485 -0.213219 0)
(-0.409654 -0.165963 0)
(-0.411288 -0.117917 0)
(-0.407629 -0.0701973 0)
(-0.398952 -0.025315 0)
(-0.3864 0.0154001 0)
(-0.371505 0.0466309 0)
(-0.355733 0.0814278 0)
(-0.338115 0.117275 0)
(-0.317282 0.139452 0)
(-0.294609 0.174872 0)
(-0.0160897 -0.472692 0)
(-0.0484 -0.470839 0)
(-0.0809072 -0.464982 0)
(-0.113793 -0.458747 0)
(-0.146965 -0.445952 0)
(-0.180389 -0.433615 0)
(-0.213552 -0.411836 0)
(-0.245871 -0.39148 0)
(-0.27629 -0.359153 0)
(-0.303599 -0.328968 0)
(-0.326662 -0.287021 0)
(-0.344184 -0.247598 0)
(-0.356343 -0.203288 0)
(-0.36354 -0.161417 0)
(-0.366122 -0.11819 0)
(-0.36411 -0.0755905 0)
(-0.357658 -0.0350985 0)
(-0.34761 0.00249601 0)
(-0.335589 0.0325053 0)
(-0.32256 0.0666264 0)
(-0.307164 0.0989112 0)
(-0.289332 0.118968 0)
(-0.270029 0.153176 0)
(-0.0145922 -0.441828 0)
(-0.0438617 -0.439758 0)
(-0.0732166 -0.433834 0)
(-0.102757 -0.4271 0)
(-0.132341 -0.414474 0)
(-0.161837 -0.401802 0)
(-0.190772 -0.381185 0)
(-0.218649 -0.36158 0)
(-0.244791 -0.332158 0)
(-0.268434 -0.304705 0)
(-0.288727 -0.267665 0)
(-0.304755 -0.23319 0)
(-0.316458 -0.193673 0)
(-0.323823 -0.15636 0)
(-0.327145 -0.11728 0)
(-0.326465 -0.0791756 0)
(-0.321885 -0.0425748 0)
(-0.314048 -0.00797814 0)
(-0.304357 0.0211788 0)
(-0.293161 0.053624 0)
(-0.279374 0.0825968 0)
(-0.264093 0.102014 0)
(-0.247692 0.134253 0)
(-0.0133335 -0.413737 0)
(-0.0400424 -0.411539 0)
(-0.0667393 -0.405669 0)
(-0.0934605 -0.39867 0)
(-0.120038 -0.38641 0)
(-0.146287 -0.373791 0)
(-0.171809 -0.354417 0)
(-0.196206 -0.335764 0)
(-0.218893 -0.308853 0)
(-0.239158 -0.283837 0)
(-0.256407 -0.25076 0)
(-0.270132 -0.220151 0)
(-0.280383 -0.184612 0)
(-0.287176 -0.151159 0)
(-0.290617 -0.115652 0)
(-0.290653 -0.0814219 0)
(-0.287455 -0.0481208 0)
(-0.281489 -0.0162827 0)
(-0.273731 0.0119655 0)
(-0.264236 0.042059 0)
(-0.252387 0.0684098 0)
(-0.239552 0.0879528 0)
(-0.225579 0.117793 0)
(-0.0120396 -0.388212 0)
(-0.0361151 -0.385976 0)
(-0.0600725 -0.380276 0)
(-0.0838727 -0.373241 0)
(-0.107337 -0.361498 0)
(-0.130289 -0.349208 0)
(-0.152428 -0.331055 0)
(-0.173448 -0.313437 0)
(-0.192927 -0.288759 0)
(-0.210474 -0.265887 0)
(-0.22572 -0.236013 0)
(-0.238262 -0.208463 0)
(-0.247963 -0.176213 0)
(-0.254601 -0.146028 0)
(-0.258246 -0.113631 0)
(-0.258936 -0.0826868 0)
(-0.256912 -0.0520802 0)
(-0.252473 -0.0227612 0)
(-0.246231 0.00439108 0)
(-0.238181 0.0320154 0)
(-0.228178 0.0565035 0)
(-0.217356 0.0760918 0)
(-0.205211 0.103412 0)
(-0.0106999 -0.365337 0)
(-0.03209 -0.363113 0)
(-0.0533642 -0.357636 0)
(-0.0744675 -0.350708 0)
(-0.0952435 -0.339525 0)
(-0.115529 -0.327684 0)
(-0.135065 -0.310654 0)
(-0.153591 -0.294053 0)
(-0.170745 -0.271286 0)
(-0.186163 -0.250192 0)
(-0.199474 -0.222973 0)
(-0.210344 -0.19794 0)
(-0.21874 -0.168516 0)
(-0.224626 -0.141108 0)
(-0.228124 -0.111345 0)
(-0.229203 -0.0831703 0)
(-0.228012 -0.0548063 0)
(-0.224708 -0.0277987 0)
(-0.219682 -0.00187984 0)
(-0.212968 0.0234616 0)
(-0.204677 0.0466818 0)
(-0.195617 0.0659402 0)
(-0.185219 0.0909127 0)
(-0.00948578 -0.34503 0)
(-0.0284315 -0.342842 0)
(-0.0472354 -0.337588 0)
(-0.0658148 -0.330834 0)
(-0.0840094 -0.320194 0)
(-0.101661 -0.308849 0)
(-0.118549 -0.292844 0)
(-0.134485 -0.277192 0)
(-0.149183 -0.256099 0)
(-0.162409 -0.236558 0)
(-0.173964 -0.211583 0)
(-0.183668 -0.18862 0)
(-0.191466 -0.161533 0)
(-0.197163 -0.136423 0)
(-0.200733 -0.108902 0)
(-0.202137 -0.0830957 0)
(-0.201587 -0.0566106 0)
(-0.199229 -0.0316675 0)
(-0.1953 -0.00699627 0)
(-0.189808 0.0163233 0)
(-0.182958 0.0386134 0)
(-0.175319 0.057233 0)
(-0.166447 0.0802585 0)
(-0.00824184 -0.327195 0)
(-0.0246954 -0.325063 0)
(-0.0410172 -0.320028 0)
(-0.0571293 -0.313492 0)
(-0.072905 -0.303359 0)
(-0.0882283 -0.292508 0)
(-0.102921 -0.277411 0)
(-0.116816 -0.26261 0)
(-0.129687 -0.24294 0)
(-0.141364 -0.224657 0)
(-0.151627 -0.201526 0)
(-0.160217 -0.180263 0)
(-0.167041 -0.15517 0)
(-0.172025 -0.132026 0)
(-0.175291 -0.106406 0)
(-0.176835 -0.0826094 0)
(-0.176765 -0.0577016 0)
(-0.175135 -0.0345686 0)
(-0.172094 -0.0110873 0)
(-0.167681 0.0104714 0)
(-0.162098 0.0319797 0)
(-0.155728 0.0497942 0)
(-0.148286 0.0713062 0)
(-0.00709262 -0.311767 0)
(-0.0212547 -0.309689 0)
(-0.035312 -0.304838 0)
(-0.0491904 -0.298509 0)
(-0.0627699 -0.288808 0)
(-0.0759335 -0.278398 0)
(-0.0885061 -0.264089 0)
(-0.100362 -0.250021 0)
(-0.111319 -0.231553 0)
(-0.121217 -0.214334 0)
(-0.129924 -0.192757 0)
(-0.137341 -0.172919 0)
(-0.14347 -0.149473 0)
(-0.148196 -0.127942 0)
(-0.151472 -0.103895 0)
(-0.15322 -0.0817945 0)
(-0.153555 -0.0582339 0)
(-0.152525 -0.0366953 0)
(-0.15026 -0.0142807 0)
(-0.146818 0.00578094 0)
(-0.142341 0.0265679 0)
(-0.137093 0.0435372 0)
(-0.130906 0.06387 0)
(-0.00591943 -0.298675 0)
(-0.0177495 -0.29663 0)
(-0.0295199 -0.291912 0)
(-0.0411747 -0.285746 0)
(-0.0526141 -0.276399 0)
(-0.0637395 -0.266369 0)
(-0.0744155 -0.252726 0)
(-0.0845327 -0.239275 0)
(-0.0939355 -0.221812 0)
(-0.102539 -0.205456 0)
(-0.110237 -0.185126 0)
(-0.11686 -0.166418 0)
(-0.122303 -0.144323 0)
(-0.126466 -0.124139 0)
(-0.129421 -0.101416 0)
(-0.131163 -0.0807498 0)
(-0.131757 -0.0583308 0)
(-0.131218 -0.0381623 0)
(-0.129627 -0.0166776 0)
(-0.127022 0.00211058 0)
(-0.123517 0.0222232 0)
(-0.1193 0.0383765 0)
(-0.114278 0.0577687 0)
(-0.00481498 -0.287874 0)
(-0.0144552 -0.285828 0)
(-0.0240868 -0.28118 0)
(-0.0336713 -0.275107 0)
(-0.0431222 -0.266018 0)
(-0.0523565 -0.256264 0)
(-0.0612549 -0.243134 0)
(-0.0697186 -0.230169 0)
(-0.0776059 -0.213519 0)
(-0.0847903 -0.197861 0)
(-0.0911796 -0.178542 0)
(-0.0967139 -0.160764 0)
(-0.101412 -0.139767 0)
(-0.105222 -0.120665 0)
(-0.108108 -0.0990035 0)
(-0.109983 -0.0795126 0)
(-0.110888 -0.0580488 0)
(-0.11082 -0.0390433 0)
(-0.109843 -0.0183681 0)
(-0.108001 -0.000659562 0)
(-0.10537 0.0188337 0)
(-0.102086 0.0342336 0)
(-0.098099 0.0528604 0)
(-0.00366481 -0.279342 0)
(-0.0110208 -0.277258 0)
(-0.0184114 -0.272621 0)
(-0.0258151 -0.266572 0)
(-0.0331745 -0.257638 0)
(-0.0404443 -0.248037 0)
(-0.0475551 -0.235252 0)
(-0.0544487 -0.222598 0)
(-0.0610203 -0.20654 0)
(-0.06719 -0.1914 0)
(-0.0728745 -0.172851 0)
(-0.0779347 -0.155791 0)
(-0.0822528 -0.135662 0)
(-0.085728 -0.117434 0)
(-0.0883968 -0.0966393 0)
(-0.0902491 -0.0781178 0)
(-0.0913193 -0.0574474 0)
(-0.0916006 -0.039421 0)
(-0.0911307 -0.0194363 0)
(-0.0899363 -0.00263566 0)
(-0.0880759 0.0163023 0)
(-0.0856538 0.031035 0)
(-0.0826407 0.0490271 0)
(-0.00262083 -0.273016 0)
(-0.00787455 -0.270893 0)
(-0.0131353 -0.266253 0)
(-0.0184003 -0.26019 0)
(-0.0236623 -0.251318 0)
(-0.0289405 -0.241729 0)
(-0.0342316 -0.229079 0)
(-0.0395204 -0.216511 0)
(-0.0447414 -0.200759 0)
(-0.0497863 -0.185895 0)
(-0.0545072 -0.167884 0)
(-0.0587908 -0.151354 0)
(-0.0626118 -0.131907 0)
(-0.0658915 -0.114388 0)
(-0.0685845 -0.0942848 0)
(-0.0706243 -0.0765501 0)
(-0.0720183 -0.0565292 0)
(-0.0727522 -0.0393103 0)
(-0.0728563 -0.0199072 0)
(-0.0723467 -0.00387093 0)
(-0.0712497 0.0145705 0)
(-0.0696329 0.0287117 0)
(-0.0674836 0.0461651 0)
(-0.00163394 -0.268733 0)
(-0.00489886 -0.266601 0)
(-0.00814826 -0.261979 0)
(-0.011401 -0.255891 0)
(-0.0146806 -0.247019 0)
(-0.0180255 -0.237348 0)
(-0.0214466 -0.224691 0)
(-0.0249625 -0.212037 0)
(-0.0285803 -0.196337 0)
(-0.0323192 -0.181477 0)
(-0.0361706 -0.163675 0)
(-0.0400233 -0.147374 0)
(-0.0437173 -0.128323 0)
(-0.0470599 -0.111307 0)
(-0.049939 -0.0917568 0)
(-0.0522535 -0.0746931 0)
(-0.0539678 -0.0552544 0)
(-0.0550561 -0.0387468 0)
(-0.0555514 -0.0198622 0)
(-0.0555226 -0.00445188 0)