/*--------------------------------*- C++ -*----------------------------------*\
| =========                 |                                                 |
| \\      /  F ield         | OpenFOAM: The Open Source CFD Toolbox           |
|  \\    /   O peration     | Version:  2012                                  |
|   \\  /    A nd           | Website:  www.openfoam.com                      |
|    \\/     M anipulation  |                                                 |
\*---------------------------------------------------------------------------*/
FoamFile
{
    version     2.0;
    format      ascii;
    class       volScalarField;
    location    "0.18";
    object      volumeFraction1;
}
// * * * * * * * * * * * * * * * * * * * * * * * * * * * * * * * * * * * * * //

dimensions      [0 0 0 0 0 0 0];


internalField   nonuniform List<scalar> 
2268
(
1
1
1
1
1
1
1
1
1
1
1
1
1
1
1
1
1
1
1
1
1
1
0.980111
1
1
1
1
1
1
1
1
1
1
1
1
1
1
1
1
1
1
1
1
1
1
0.982951
1
1
1
1
1
1
1
1
1
1
1
1
1
1
1
1
1
1
1
1
1
1
0.996082
1
1
1
1
1
1
1
1
1
1
1
1
1
1
1
1
1
1
1
1
1
1
0.990066
1
1
1
1
1
1
1
1
1
1
1
1
1
1
1
1
1
1
1
1
1
1
0.969725
1
1
1
1
1
1
1
1
1
1
1
1
1
1
1
1
1
1
1
1
1
1
0.968696
1
1
1
1
1
1
1
1
1
1
1
1
1
1
1
1
1
1
1
1
0.999998
1
0.9687
1
1
1
1
1
1
1
1
1
1
1
1
1
1
1
1
1
1
1
0.999996
0.999995
1
0.968705
3.16132e-25
7.02064e-25
2.01784e-25
9.05609e-25
8.0112e-27
1.46038e-27
1.52018e-29
1.33005e-31
7.91888e-34
2.24133e-36
7.64539e-39
1.34657e-41
3.90572e-44
7.37791e-47
2.43295e-49
5.83107e-52
1.66973e-54
3.03903e-57
6.53949e-60
3.7793e-23
9.84729e-23
2.65108e-23
1.27832e-22
1.70887e-24
2.00509e-25
2.50384e-27
2.32509e-29
1.61945e-31
5.43418e-34
2.14667e-36
4.36489e-39
1.37159e-41
2.69845e-44
8.87091e-47
2.05645e-49
5.78483e-52
1.04116e-54
1.11661e-57
2.55546e-21
6.45625e-21
2.06137e-21
9.21563e-21
1.72209e-22
1.30849e-23
1.9247e-25
1.91503e-27
1.54881e-29
6.2286e-32
2.87089e-34
6.85802e-37
2.37441e-39
5.01228e-42
1.68815e-44
3.85327e-47
1.06234e-49
1.80189e-52
1.89077e-55
9.11448e-20
2.56683e-19
7.60249e-20
3.70126e-19
9.319e-21
5.03425e-22
8.75674e-24
9.51134e-26
9.01451e-28
4.39707e-30
2.39983e-32
6.86578e-35
2.66206e-37
6.14879e-40
2.15982e-42
5.12638e-45
1.45424e-47
2.62033e-50
2.81986e-53
2.30684e-18
5.67733e-18
2.60782e-18
1.00703e-17
3.3087e-19
1.33564e-20
2.68939e-22
3.24616e-24
3.59157e-26
2.15217e-28
1.40784e-30
4.94297e-33
2.19044e-35
5.61129e-38
2.07669e-40
4.9767e-43
1.39642e-45
2.33418e-48
2.43646e-51
3.43129e-17
1.07797e-16
5.20438e-17
1.70641e-16
7.28186e-18
2.48307e-19
5.75586e-21
7.87371e-23
1.019e-24
7.58248e-27
6.03836e-29
2.68493e-31
1.40039e-33
4.09647e-36
1.62862e-38
4.20764e-41
1.29641e-43
2.78009e-46
3.1816e-49
4.985e-16
1.30799e-15
2.25625e-15
2.03154e-15
1.0973e-16
3.43183e-18
8.96368e-20
1.41211e-21
2.11936e-23
1.97329e-25
1.93319e-27
1.12877e-29
7.20333e-32
2.54765e-34
1.12363e-36
2.92405e-39
8.70358e-42
1.57123e-44
1.65103e-47
4.98474e-16
4.98463e-16
7.37048e-14
1.64645e-14
1.12245e-15
3.5716e-17
1.0312e-18
1.89331e-20
3.24889e-22
3.77703e-24
4.57939e-26
3.63523e-28
2.94939e-30
1.40022e-32
7.7198e-35
2.80143e-37
9.4473e-40
2.00596e-42
2.35677e-45
1
1
1
1
1
1
1
1
1
1
1
1
1
1
1
1
1
1
1
0.999998
0.999998
1
0.987726
1
1
1
1
1
1
1
1
1
1
1
1
1
1
1
1
1
1
0.999056
1
1
1
1
1
1
1
1
1
1
1
1
1
1
1
1
1
1
1
1
1
0.998759
0.97657
0.929703
0.798381
0.822287
0.947541
1
1
1
1
1
1
1
1
1
1
1
1
1
1
1
0.999937
1
0.870818
0.522154
0.175139
0.105107
0.108082
0.416088
1
1
1
1
1
1
1
1
1
1
1
1
1
0.999999
0.999649
0.999729
0.681317
0.147173
0.000859088
0.000153858
0.000281636
0.000214297
0.00275233
1
1
1
1
1
1
1
1
1
1
1
1
1
0.999729
0.963606
0.510777
0.0110671
1.21656e-09
1.21656e-09
1.21656e-09
2.57702e-09
4.40259e-09
1.10298e-10
1
1
1
1
1
1
1
1
1
1
1
0.999955
0.999866
0.916168
0.372476
1.21623e-09
1.21621e-09
1.22519e-09
1.97238e-09
1.7914e-09
4.55252e-10
3.35381e-10
1.10391e-10
1
1
1
1
1
1
1
1
1
0.999981
0.999492
0.992033
0.866952
0.291279
0.00011835
0.000333817
0.000158581
2.88368e-09
3.74811e-10
6.56276e-10
1.09258e-09
1.57051e-10
1.00192e-10
1
1
1
1
1
0.999999
0.99999
0.999835
0.99796
0.986105
0.912882
0.687249
0.206203
0.00011835
0.000118349
5.17663e-05
3.58645e-10
3.58644e-10
1.45266e-10
6.4458e-09
7.36905e-08
1.13813e-10
1.00192e-10
0.999901
0.999853
0.99973
0.99928
0.998126
0.99437
0.985006
0.940545
0.821127
0.590827
0.273406
0.0505982
-5.53252e-21
0.000566158
0.00115916
0.000119066
4.22239e-10
5.82853e-11
1.01272e-10
1.2309e-09
5.60565e-08
2.58088e-07
1.00192e-10
0.933966
0.922056
0.901234
0.854347
0.790684
0.680253
0.539226
0.321532
0.149937
0.0166336
-6.24948e-21
5.03929e-31
4.03199e-32
0.00840346
0.00188911
-1.43553e-22
5.30932e-12
2.06637e-11
7.201e-11
3.02623e-10
3.48664e-09
3.8982e-07
4.69666e-06
0.292
0.269018
0.235093
0.176453
0.11922
0.0531626
0.00144391
-2.18418e-22
-1.60299e-29
1.69311e-28
3.14829e-12
1.77527e-12
-4.1965e-31
0.010526
0.00137226
4.02442e-32
1.90929e-12
4.40179e-12
1.38069e-11
7.4916e-11
1.31009e-09
1.50237e-07
5.86257e-06
1.08919e-37
-2.91598e-38
1.92545e-37
-1.24926e-34
-4.21274e-33
1.04672e-31
2.82399e-30
3.87478e-12
6.6718e-11
2.99998e-11
1.81161e-09
9.48391e-10
-4.74201e-28
0.0105221
0.0004777
8.76442e-32
5.67597e-13
1.10834e-12
2.97761e-12
2.90113e-11
6.17103e-10
4.9501e-08
4.97749e-07
2.71146e-21
1.23824e-19
7.10045e-18
2.91205e-16
9.2305e-15
2.10683e-13
3.24898e-12
3.43113e-11
1.14832e-10
2.99993e-11
2.96233e-06
5.75235e-06
8.02362e-24
0.00505975
2.75743e-05
1.15213e-31
1.71056e-13
2.81041e-13
4.44313e-13
2.00857e-12
2.28299e-11
2.41612e-10
1.63061e-10
1.97142e-20
1.04371e-18
5.58779e-17
2.116e-15
6.21646e-14
1.28357e-12
1.68505e-11
1.36698e-10
1.04085e-10
2.43477e-07
4.18827e-05
5.321e-05
9.38693e-06
6.24119e-21
8.48873e-24
1.42875e-14
5.20217e-14
6.8862e-14
8.67605e-14
2.80749e-13
1.33698e-12
5.60945e-12
9.74067e-12
6.05914e-20
4.37223e-18
2.51667e-16
9.93677e-15
2.83352e-13
5.25257e-12
5.59869e-11
4.74019e-10
1.04023e-10
9.81954e-06
5.96354e-05
5.96512e-05
1.61554e-05
8.48873e-24
8.71404e-16
7.85484e-15
1.29781e-14
1.49553e-14
1.55077e-14
4.3037e-14
1.87305e-13
7.59279e-13
2.04911e-12
1.50031e-19
1.65728e-17
1.05036e-15
4.23588e-14
1.11752e-12
1.75554e-11
1.4944e-10
1.71465e-09
1.66753e-07
1.37863e-05
4.97578e-05
2.87736e-05
7.02013e-17
7.01913e-17
6.89528e-16
2.10659e-15
2.67529e-15
2.75954e-15
2.40598e-15
5.64554e-15
2.31327e-14
9.37718e-14
2.54553e-13
2.40296e-19
3.3016e-17
2.23163e-15
8.90346e-14
2.22945e-12
3.5045e-11
3.6175e-10
6.45965e-09
5.27239e-07
2.0514e-06
1.12105e-12
2.19356e-12
2.0861e-11
1.37026e-26
2.37246e-16
4.03317e-16
4.38242e-16
4.1225e-16
3.10586e-16
6.17682e-16
2.35412e-15
9.35398e-15
2.33535e-14
2.78734e-19
4.1619e-17
2.8485e-15
1.13493e-13
2.86905e-12
4.89938e-11
8.1474e-10
1.06779e-08
1.23438e-08
1.2346e-08
8.25452e-07
1.83128e-06
6.54994e-08
1.23687e-26
3.39262e-17
5.4056e-17
5.4755e-17
4.81247e-17
3.25765e-17
5.56581e-17
1.96262e-16
7.5457e-16
1.70096e-15
1.40338e-19
2.0954e-17
1.52524e-15
6.87854e-14
2.07216e-12
4.15335e-11
3.82072e-10
4.96675e-10
3.54882e-10
2.83352e-07
4.54611e-06
5.33609e-06
4.08242e-06
1.37026e-26
1.23687e-26
5.08704e-18
5.39072e-18
4.1521e-18
2.73789e-18
4.13906e-18
1.34719e-17
4.95486e-17
1.0164e-16
3.9431e-21
2.57899e-19
7.59725e-18
1.22872e-16
4.94022e-16
9.75114e-17
9.75058e-17
9.75114e-17
3.54885e-10
5.74775e-08
6.18197e-07
1.8347e-06
1.51277e-06
2.40819e-14
1.51922e-11
1.61324e-24
6.1941e-19
2.76541e-19
1.82069e-19
2.51555e-19
7.55958e-19
2.63395e-18
5.07418e-18
9.81948e-24
8.70286e-22
3.46662e-20
8.14885e-19
1.26275e-17
1.38554e-16
9.12291e-16
2.20953e-15
9.389e-16
9.39225e-16
9.389e-16
9.39225e-16
2.0486e-12
6.08646e-08
4.28712e-09
1.42715e-24
1.37097e-19
1.43105e-20
9.58077e-21
1.24468e-20
3.49424e-20
1.13323e-19
2.14418e-19
2.67228e-24
2.44404e-22
1.0073e-20
2.4524e-19
3.95114e-18
4.5676e-17
4.20964e-16
3.34124e-15
1.9303e-14
9.24176e-14
3.9534e-13
1.22667e-12
7.63009e-12
1.77248e-10
1.2867e-09
1.61324e-24
3.65645e-20
5.65702e-22
3.99536e-22
4.97972e-22
1.33823e-21
3.99225e-21
7.68723e-21
1.26583e-26
1.74191e-24
1.19267e-22
5.30988e-21
1.68878e-19
4.00125e-18
7.22542e-17
1.00557e-15
1.0953e-14
9.09086e-14
5.20582e-13
2.2593e-12
4.14477e-12
2.61304e-12
3.62178e-22
1.62756e-21
5.28463e-21
1.71536e-23
1.3217e-23
1.60438e-23
4.26481e-23
1.16065e-22
2.33953e-22
1.09483e-30
1.07743e-28
4.94543e-27
1.39933e-25
2.72302e-24
3.84349e-23
4.02305e-22
2.91467e-21
6.14209e-21
1.81308e-23
1.81301e-23
1.81308e-23
1.81301e-23
1.81308e-23
2.04738e-21
7.03772e-21
3.98157e-22
4.01972e-25
3.42903e-25
4.16055e-25
1.13049e-24
2.79585e-24
6.05714e-24
2.16561e-35
2.58866e-33
1.45717e-31
5.11839e-30
1.25324e-28
2.26733e-27
3.14925e-26
3.44426e-25
3.06605e-24
2.30728e-23
1.30016e-22
5.02861e-22
9.75171e-22
1.16902e-21
1.10998e-21
4.89578e-22
1.15068e-23
7.25768e-27
6.88373e-27
8.76692e-27
2.49257e-26
5.613e-26
1.33714e-25
1.40848e-38
1.70968e-36
9.77304e-35
3.4883e-33
8.68085e-32
1.59372e-30
2.23219e-29
2.42581e-28
2.07421e-27
1.3907e-26
7.29585e-26
2.85101e-25
5.97839e-25
7.68244e-25
6.42429e-25
3.64967e-25
2.68007e-25
9.94843e-29
1.05859e-28
1.51169e-28
4.55584e-28
9.44665e-28
2.52022e-27
1.29062e-44
1.80993e-42
1.22104e-40
5.26379e-39
1.62093e-37
3.78229e-36
6.9303e-35
1.01916e-33
1.22435e-32
1.20942e-31
9.93387e-31
6.77967e-30
3.89262e-29
1.89041e-28
8.1145e-28
2.47462e-27
3.26066e-27
1.04585e-30
1.24986e-30
2.1271e-30
6.88387e-30
1.34582e-29
4.06358e-29
2.96936e-48
4.77516e-46
3.64439e-44
1.75444e-42
5.95963e-41
1.51689e-39
3.00034e-38
4.71438e-37
5.98522e-36
6.18271e-35
5.27918e-34
3.79204e-33
2.45032e-32
1.57315e-31
1.04696e-30
5.51556e-30
9.03778e-30
8.91769e-33
1.12586e-32
2.40346e-32
8.56122e-32
1.63612e-31
5.61965e-31
1.92878e-54
3.01144e-52
2.22678e-50
1.03688e-48
3.40351e-47
8.36403e-46
1.59769e-44
2.43302e-43
3.05044e-42
3.34415e-41
3.74667e-40
5.14056e-39
8.25287e-38
1.233e-36
1.43965e-35
1.10248e-34
2.31397e-34
5.86132e-35
7.67951e-35
2.15746e-34
8.77962e-34
1.7089e-33
6.68261e-33
1.92772e-61
4.6968e-59
5.52949e-57
4.1962e-55
2.30628e-53
9.79977e-52
3.35853e-50
9.57531e-49
2.33377e-47
4.98047e-46
9.57249e-45
1.69758e-43
2.83975e-42
4.47753e-41
6.49483e-40
8.10394e-39
7.54397e-38
2.58784e-37
3.90256e-37
1.52689e-36
7.4478e-36
1.53595e-35
6.84137e-35
4.55372e-67
1.08234e-64
1.24283e-62
9.30958e-61
5.27831e-59
2.58448e-57
1.24743e-55
6.33244e-54
3.23286e-52
1.53439e-50
6.43787e-49
2.32763e-47
7.13424e-46
1.81302e-44
3.6974e-43
5.69156e-42
5.96101e-41
3.59178e-40
1.52602e-39
8.51074e-39
5.25012e-38
1.19116e-37
6.05608e-37
1.61918e-72
5.98539e-70
1.08476e-67
1.29084e-65
1.1405e-63
8.05073e-62
4.78621e-60
2.50263e-58
1.19375e-56
5.33195e-55
2.25814e-53
9.04842e-52
3.39436e-50
1.17116e-48
3.64202e-47
9.88817e-46
2.23707e-44
3.87255e-43
4.48621e-42
3.7434e-41
3.0878e-40
7.98773e-40
4.66539e-39
6.0832e-77
2.64297e-74
5.6996e-72
8.20989e-70
8.98611e-68
8.08669e-66
6.32091e-64
4.46107e-62
2.90769e-60
1.76565e-58
9.96957e-57
5.18997e-55
2.46238e-53
1.04832e-51
3.93842e-50
1.27325e-48
3.42154e-47
7.1658e-46
1.06762e-44
1.30945e-43
1.52448e-42
4.65625e-42
3.15472e-41
4.88845e-83
3.46397e-80
1.32516e-77
3.59297e-75
7.59413e-73
1.30837e-70
1.88353e-68
2.30559e-66
2.42935e-64
2.22647e-62
1.78681e-60
1.26276e-58
7.89138e-57
4.36552e-55
2.13278e-53
9.07316e-52
3.26715e-50
9.38127e-49
2.00703e-47
3.70248e-46
6.37941e-45
2.37738e-44
1.8903e-43
1.07623e-87
9.2405e-85
4.13773e-82
1.3017e-79
3.23564e-77
6.71465e-75
1.19133e-72
1.82818e-70
2.44002e-68
2.84834e-66
2.92002e-64
2.63776e-62
2.10259e-60
1.4763e-58
9.10483e-57
4.88889e-55
2.25645e-53
8.75423e-52
2.86702e-50
8.67518e-49
2.29586e-47
1.07427e-46
1.01533e-45
1.20125e-92
1.24846e-89
6.66549e-87
2.48259e-84
7.35585e-82
1.85552e-79
4.09968e-77
7.99744e-75
1.37452e-72
2.0779e-70
2.75724e-68
3.21393e-66
3.30128e-64
3.00553e-62
2.44919e-60
1.80367e-58
1.21176e-56
7.37335e-55
3.97183e-53
1.81666e-51
7.25816e-50
4.35229e-49
4.95148e-48
2.29064e-98
3.67289e-95
3.03965e-92
1.74014e-89
7.74506e-87
2.84697e-84
8.90845e-82
2.41455e-79
5.71637e-77
1.19053e-74
2.19403e-72
3.60563e-70
5.32035e-68
7.0899e-66
8.58224e-64
9.42386e-62
9.30078e-60
8.02538e-58
5.85137e-56
3.54476e-54
2.07002e-52
1.60477e-51
2.22527e-50
8.71879e-105
2.45579e-101
3.58613e-98
3.62016e-95
2.81757e-92
1.78699e-89
9.48951e-87
4.29721e-84
1.67341e-81
5.64664e-79
1.65502e-76
4.23158e-74
9.49006e-72
1.87928e-69
3.30491e-67
5.14898e-65
7.03633e-63
8.2216e-61
8.00816e-59
6.59074e-57
5.51416e-55
5.47174e-54
9.35978e-53
3.32618e-112
1.7042e-108
4.65501e-105
8.92589e-102
1.32171e-98
1.58801e-95
1.5843e-92
1.33586e-89
9.59562e-87
5.92854e-84
3.16576e-81
1.46818e-78
5.9192e-76
2.06993e-73
6.25965e-71
1.62286e-68
3.5616e-66
6.45202e-64
9.4701e-62
1.15759e-59
1.41997e-57
1.75446e-56
3.75077e-55
1.31076e-120
1.46623e-116
8.38304e-113
3.23581e-109
9.35687e-106
2.16027e-102
4.12138e-99
6.698e-96
9.40936e-93
1.15743e-89
1.24654e-86
1.17527e-83
9.65735e-81
6.8904e-78
4.23688e-75
2.20808e-72
9.53628e-70
3.29494e-67
8.84379e-65
1.86436e-62
3.67683e-60
5.35514e-59
1.45511e-57
1.25055e-128
3.2472e-124
3.79806e-120
2.70282e-116
1.33464e-112
4.95159e-109
1.45232e-105
3.51097e-102
7.23393e-99
1.31225e-95
2.1548e-92
3.2736e-89
4.65777e-86
6.2027e-83
7.66884e-80
8.6292e-77
8.58924e-74
7.20963e-71
4.81818e-68
2.41006e-65
9.88903e-63
1.55973e-61
5.55366e-60
1
0.291439
8.54424e-16
8.54436e-16
1
0.913848
0.543658
0.0525055
1
0.997765
0.999282
0.587888
0.789122
0.992975
0.999128
0.946249
0.270471
0.812725
0.998906
0.9911
0.00153016
0.518936
0.993863
0.976976
1.00192e-10
0.275596
0.938161
0.966964
1.00192e-10
0.105398
0.826859
0.967025
1.00192e-10
1.00192e-10
0.520305
0.870786
1.00192e-10
1.00192e-10
0.103295
0.275068
1.62829e-05
0.000752948
0.00343988
0.00433993
2.65298e-05
8.66709e-05
4.72476e-07
5.61548e-07
9.14463e-07
3.28587e-09
2.0757e-11
8.30018e-12
5.83592e-11
2.27131e-11
1.34375e-11
6.91112e-12
1.40987e-11
1.57792e-11
1.01421e-11
5.38861e-12
3.01104e-12
3.33556e-12
2.33565e-12
1.30442e-12
3.66887e-13
3.90233e-13
2.7267e-13
1.52488e-13
3.22827e-14
3.40297e-14
2.33009e-14
1.29155e-14
2.20105e-15
2.29343e-15
1.51813e-15
8.26831e-16
1.20238e-16
1.23158e-16
7.8033e-17
4.16309e-17
5.3689e-18
5.38584e-18
3.25459e-18
1.70376e-18
1.99056e-19
1.94845e-19
1.1239e-19
5.79184e-20
6.19803e-21
5.9227e-21
3.26591e-21
1.66403e-21
1.63341e-22
1.52896e-22
8.06604e-23
4.08203e-23
3.66652e-24
3.38153e-24
1.70788e-24
8.62878e-25
7.05243e-26
6.45262e-26
3.12249e-26
1.58261e-26
1.16804e-27
1.06847e-27
4.96129e-28
2.53552e-28
1.67445e-29
1.5434e-29
6.89261e-30
3.56929e-30
2.08781e-31
1.95436e-31
8.42166e-32
4.4403e-32
2.27899e-33
2.18048e-33
9.10743e-34
4.90969e-34
2.19238e-35
2.15389e-35
8.7717e-36
4.85174e-36
1.87128e-37
1.89442e-37
7.57576e-38
4.30982e-38
1.42435e-39
1.49129e-39
5.90316e-40
3.46307e-40
9.73026e-42
1.05812e-41
4.17826e-42
2.53656e-42
6.00902e-44
6.82e-44
2.70631e-44
1.70724e-44
3.38521e-46
4.03055e-46
1.61774e-46
1.06548e-46
1.75724e-48
2.20582e-48
9.00052e-49
6.22356e-49
8.50625e-51
1.13094e-50
4.70941e-51
3.43568e-51
3.887e-53
5.49501e-53
2.34122e-53
1.80918e-53
1.70118e-55
2.56495e-55
1.11932e-55
9.18746e-56
7.22128e-58
1.16378e-57
5.20092e-58
4.54139e-58
3.01352e-60
5.18844e-60
2.36967e-60
2.2017e-60
6.03696e-11
1.09617e-09
2.68067e-13
1.67372e-13
1.21098e-14
4.21809e-16
1.33516e-17
2.89593e-19
5.5932e-21
8.05817e-23
1.21505e-24
1.35892e-26
1.44792e-28
1.0263e-30
7.30533e-33
3.21327e-35
1.18777e-37
1.80117e-40
1.55924e-43
6.03884e-11
1.58915e-07
2.68282e-13
1.39587e-12
1.09255e-13
4.45588e-15
1.59602e-16
4.12754e-18
9.05165e-20
1.58725e-21
3.06338e-23
4.88527e-25
6.97393e-27
8.1563e-29
7.94382e-31
5.9358e-33
3.17861e-35
1.06094e-37
1.65219e-40
0.0354693
6.29174e-05
6.56983e-11
6.42364e-12
6.56521e-13
3.33985e-14
1.44596e-15
4.62753e-17
1.21258e-18
2.58293e-20
5.20092e-22
8.21347e-24
1.06027e-25
1.00743e-27
6.62684e-30
2.68515e-32
8.27825e-35
1.85661e-37
2.20414e-40
0.163192
0.000703887
4.59557e-09
2.93746e-11
3.4949e-12
2.32578e-13
1.29355e-14
5.33695e-16
1.81278e-17
4.92552e-19
1.12398e-20
2.08315e-22
3.1496e-24
3.73841e-26
3.42758e-28
2.30297e-30
1.07083e-32
3.04736e-35
4.05163e-38
0.226612
0.00131691
1.75233e-08
7.91556e-11
1.2216e-11
1.16885e-12
7.64422e-14
3.56083e-15
1.18635e-16
2.95248e-18
5.5533e-20
7.71527e-22
7.83101e-24
5.7959e-26
3.28954e-28
1.46416e-30
4.86283e-33
1.07373e-35
2.33055e-38
0.208468
0.00103647
9.61637e-09
1.25617e-10
2.94421e-11
3.98976e-12
3.46438e-13
2.08695e-14
8.88527e-16
2.74549e-17
6.34833e-19
1.10372e-20
1.4657e-22
1.46946e-24
1.10185e-26
5.9738e-29
2.24379e-31
5.22475e-34
5.77323e-37
0.1903
0.000796168
7.20093e-09
1.47683e-10
4.58118e-11
8.18082e-12
8.13076e-13
5.16174e-14
2.06513e-15
5.69349e-17
1.07753e-18
1.46621e-20
1.46751e-22
1.10771e-24
6.28719e-27
2.62542e-29
7.72299e-32
1.44017e-34
2.56543e-37
0.196862
0.000870438
1.53182e-08
1.91881e-10
6.38891e-11
1.54885e-11
2.14766e-12
1.81267e-13
9.8063e-15
3.57442e-16
9.04296e-18
1.62419e-19
2.09728e-21
1.95447e-23
1.31201e-25
6.20132e-28
1.98016e-30
3.84523e-33
3.48486e-36
0.185197
0.000849263
7.91931e-08
5.91229e-10
5.58017e-11
1.33144e-11
1.70655e-12
1.26571e-13
5.77677e-15
1.7587e-16
3.67985e-18
5.50771e-20
5.97748e-22
4.75133e-24
2.74774e-26
1.13362e-28
3.18914e-31
5.51537e-34
7.94097e-37
0.111263
0.00225799
1.93081e-06
3.40031e-09
3.63815e-11
1.62261e-11
2.74504e-12
2.36369e-13
1.192e-14
3.87662e-16
8.47447e-18
1.29869e-19
1.4163e-21
1.11278e-23
6.2733e-26
2.4887e-28
6.65392e-31
1.08184e-33
8.20578e-37
0.00849493
0.00222257
0.000186238
4.57637e-08
2.40661e-10
3.17052e-11
3.51153e-12
2.09631e-13
7.62303e-15
1.84129e-16
3.08008e-18
3.71191e-20
3.26841e-22
2.1285e-24
1.017e-26
3.49756e-29
8.24277e-32
1.20112e-34
8.23849e-38
2.05433e-06
0.000296084
6.3216e-05
2.92299e-06
7.44604e-10
2.1363e-11
2.66699e-12
1.43684e-13
4.39249e-15
8.68249e-17
1.17326e-18
1.13858e-20
8.08415e-23
4.27107e-25
1.67448e-27
4.79583e-30
9.60324e-33
1.21427e-35
7.39742e-39
4.89518e-11
5.73324e-09
4.30555e-07
3.4396e-07
1.93638e-08
8.95378e-11
2.19146e-12
5.13216e-14
8.59415e-16
1.1013e-17
1.08989e-19
8.39975e-22
4.99276e-24
2.28711e-26
7.95038e-29
2.05543e-31
3.76163e-34
4.40687e-37
2.51511e-40
2.00425e-12
4.24632e-13
6.03388e-12
3.30886e-10
1.00967e-09
3.26894e-11
4.43047e-13
5.31196e-15
5.88067e-17
5.91116e-19
5.0354e-21
3.50827e-23
1.93252e-25
8.33348e-28
2.75374e-30
6.81815e-33
1.20173e-35
1.36303e-38
7.57177e-42
1.28504e-12
1.71209e-13
2.14236e-13
6.13308e-12
1.91801e-11
9.71935e-13
1.41718e-14
1.71678e-16
1.84295e-18
1.76478e-20
1.41218e-22
9.23753e-25
4.78548e-27
1.95479e-29
6.15656e-32
1.46556e-34
2.50068e-37
2.7711e-40
1.51574e-43
2.71626e-13
3.26247e-14
3.23393e-14
5.09372e-13
4.7665e-13
2.09525e-14
3.11363e-16
3.93564e-18
4.26598e-20
4.01195e-22
3.0739e-24
1.91789e-26
9.46828e-29
3.71339e-31
1.12935e-33
2.61932e-36
4.38578e-39
4.81331e-42
2.63014e-45
3.21139e-14
3.82592e-15
2.94416e-15
2.60694e-14
1.06259e-14
3.69939e-16
5.70627e-18
7.48275e-20
8.04059e-22
7.33043e-24
5.33262e-26
3.16544e-28
1.48813e-30
5.61314e-33
1.65315e-35
3.75458e-38
6.21124e-41
6.81597e-44
3.76479e-47
2.70865e-15
3.16005e-16
1.91295e-16
9.61579e-16
2.09535e-16
6.15983e-18
9.49936e-20
1.263e-21
1.31293e-23
1.14837e-25
7.90217e-28
4.47794e-30
2.01347e-32
7.35794e-35
2.11387e-37
4.74514e-40
7.83269e-43
8.69403e-46
4.91389e-49
1.72422e-16
1.97101e-17
9.22572e-18
2.76402e-17
3.73594e-18
9.65328e-20
1.42406e-21
1.8695e-23
1.83409e-25
1.53013e-27
9.92758e-30
5.39423e-32
2.33008e-34
8.31506e-37
2.35032e-39
5.27224e-42
8.79196e-45
1.0008e-47
5.86442e-51
8.60759e-18
9.6989e-19
3.4781e-19
6.51336e-19
6.11039e-20
1.45943e-21
1.9518e-23
2.47012e-25
2.2562e-27
1.80405e-29
1.1059e-31
5.81547e-34
2.42995e-36
8.56107e-39
2.40367e-41
5.45573e-44
9.29227e-47
1.09624e-49
6.70212e-53
3.4632e-19
3.88798e-20
1.05932e-20
1.29397e-20
9.15379e-22
2.07174e-23
2.49173e-25
2.96412e-27
2.40866e-29
1.86734e-31
1.08264e-33
5.58284e-36
2.27467e-38
8.02698e-41
2.26587e-43
5.28093e-46
9.29133e-49
1.14486e-51
7.29666e-55
1.14568e-20
1.29944e-21
2.67459e-22
2.21143e-22
1.25183e-23
2.71464e-25
2.93469e-27
3.3093e-29
2.41499e-31
1.77494e-33
9.70936e-36
4.99548e-38
2.00283e-40
7.19608e-43
2.06468e-45
5.00314e-48
9.1399e-51
1.17792e-53
7.78123e-57
3.16805e-22
3.6841e-23
5.69537e-24
3.29798e-24
1.54718e-25
3.24041e-27
3.16893e-29
3.43203e-31
2.27936e-33
1.62556e-35
8.28754e-38
4.20975e-40
1.65438e-42
6.1705e-45
1.81372e-47
4.61292e-50
8.73767e-53
1.17266e-55
7.95966e-59
7.41583e-24
8.98077e-25
1.03963e-25
4.35858e-26
1.7245e-27
3.52271e-29
3.15157e-31
3.32769e-33
2.04202e-35
1.44406e-37
6.96316e-40
3.57469e-42
1.38242e-44
5.31798e-47
1.59432e-49
4.26822e-52
8.30838e-55
1.15181e-57
7.93962e-61
1.48571e-25
1.90382e-26
1.65171e-27
5.15749e-28
1.73259e-29
3.49726e-31
2.89695e-33
3.03781e-35
1.75121e-37
1.25577e-39
5.82816e-42
3.09248e-44
1.18917e-46
4.78165e-49
1.44817e-51
3.99767e-54
7.81653e-57
1.09965e-59
7.59731e-63
2.57091e-27
3.54039e-28
2.31542e-29
5.52332e-30
1.57918e-31
3.20103e-33
2.48895e-35
2.64683e-37
1.45918e-39
1.08344e-41
4.9212e-44
2.74493e-46
1.05564e-48
4.45279e-51
1.35072e-53
3.82037e-56
7.43389e-59
1.05497e-61
7.26092e-65
3.87436e-29
5.82139e-30
2.90004e-31
5.42467e-32
1.31886e-33
2.73471e-35
2.02189e-37
2.23177e-39
1.19678e-41
9.38352e-44
4.22591e-46
2.50309e-48
9.63129e-51
4.24503e-53
1.27771e-55
3.67956e-58
7.0765e-61
1.00866e-63
6.88567e-67
5.12496e-31
8.52235e-32
3.2836e-33
4.96529e-34
1.02445e-35
2.21813e-37
1.5789e-39
1.85243e-41
9.80653e-44
8.24047e-46
3.70447e-48
2.33383e-50
8.94137e-53
4.08562e-55
1.21033e-57
3.53127e-60
6.68186e-63
9.53348e-66
6.4375e-69
5.99272e-33
1.11796e-33
3.39642e-35
4.31374e-36
7.53933e-38
1.74206e-39
1.20526e-41
1.53557e-43
8.09562e-46
7.34984e-48
3.29598e-50
2.20054e-52
8.33428e-55
3.91969e-57
1.13668e-59
3.35072e-62
6.22278e-65
8.86988e-68
5.9166e-71
6.24051e-35
1.32225e-35
3.23952e-37
3.62188e-38
5.36775e-40
1.35194e-41
9.13951e-44
1.28416e-45
6.75263e-48
6.62964e-50
2.94892e-52
2.07368e-54
7.70968e-57
3.71187e-59
1.05044e-61
3.12338e-64
5.68658e-67
8.0895e-70
5.32744e-73
5.82854e-37
1.41867e-37
2.87135e-39
2.98087e-40
3.76949e-42
1.05337e-43
6.95506e-46
1.08547e-47
5.66304e-50
5.98973e-52
2.62212e-54
1.93112e-56
7.00917e-59
3.44501e-61
9.50274e-64
2.84922e-66
5.08503e-69
7.21927e-72
4.69461e-75
4.92282e-39
1.38881e-39
2.38087e-41
2.42173e-42
2.64658e-44
8.29923e-46
5.32597e-48
9.22737e-50
4.73617e-52
5.36661e-54
2.29607e-56
1.76336e-58
6.22659e-61
3.12062e-63
8.39005e-66
2.53691e-68
4.44048e-71
6.2933e-74
4.04275e-77
3.79447e-41
1.2467e-41
1.85728e-43
1.94105e-44
1.86602e-46
6.59428e-48
4.08606e-50
7.81774e-52
3.91448e-54
4.72754e-56
1.96667e-58
1.57082e-60
5.38653e-63
2.75314e-65
7.21884e-68
2.20257e-70
3.78416e-73
5.35731e-76
3.40149e-79
2.69438e-43
1.03169e-43
1.37009e-45
1.52645e-46
1.31648e-48
5.23673e-50
3.1163e-52
6.54108e-54
3.17521e-56
4.07139e-58
1.64209e-60
1.36192e-62
4.53363e-65
2.36461e-67
6.05217e-70
1.86448e-72
3.14724e-75
4.45335e-78
2.79619e-81
1.77723e-45
7.91812e-46
9.60465e-48
1.16973e-48
9.22392e-51
4.11411e-52
2.34467e-54
5.36754e-56
2.51673e-58
3.41758e-60
1.33482e-62
1.14874e-64
3.71398e-67
1.97846e-69
4.94794e-72
1.54016e-74
2.55665e-77
3.61796e-80
2.24757e-83
1.09811e-47
5.67629e-48
6.43175e-50
8.68861e-51
6.37232e-53
3.17179e-54
1.73102e-56
4.30197e-58
1.94575e-60
2.79369e-62
1.05684e-64
9.43393e-67
2.96574e-69
1.61486e-71
3.95051e-74
1.24322e-76
2.0313e-79
2.87613e-82
1.76859e-85
6.40426e-50
3.83144e-50
4.13534e-52
6.24079e-53
4.32075e-55
2.3887e-56
1.25093e-58
3.36315e-60
1.46778e-62
2.22594e-64
8.16364e-67
7.55761e-69
2.31346e-71
1.28842e-73
3.08649e-76
9.82512e-79
1.5813e-81
2.24112e-84
1.36469e-87
3.55762e-52
2.45339e-52
2.56724e-54
4.33707e-55
2.87116e-57
1.75465e-58
8.84843e-61
2.56599e-62
1.08216e-64
1.73193e-66
6.16705e-69
5.91976e-71
1.76731e-73
1.00712e-75
2.36512e-78
7.61825e-81
1.20864e-83
1.71519e-86
1.03467e-89
1.89862e-54
1.50169e-54
1.54758e-56
2.92379e-57
1.87153e-59
1.25857e-60
6.13807e-63
1.91494e-64
7.82051e-67
1.31971e-68
4.57004e-71
4.54716e-73
1.32602e-75
7.73359e-78
1.78221e-80
5.80997e-83
9.09165e-86
1.29225e-88
7.72521e-92
9.83023e-57
8.86209e-57
9.11805e-59
1.92023e-59
1.20003e-61
8.83988e-63
4.18872e-65
1.40201e-66
5.55861e-69
9.87943e-71
3.33297e-73
3.43571e-75
9.80103e-78
5.84994e-80
1.3242e-82
4.36908e-85
6.74709e-88
9.60727e-91
5.69364e-94
4.97997e-59
5.08291e-59
5.283e-61
1.23482e-61
7.5978e-64
6.10392e-65
2.82301e-67
1.0109e-68
3.9012e-71
7.29293e-73
2.40101e-75
2.5623e-77
7.15951e-80
4.37239e-82
9.73002e-85
3.24884e-87
4.95355e-90
7.06742e-93
4.15353e-96
2.48251e-61
2.8443e-61
3.01493e-63
7.77566e-64
4.74419e-66
4.13573e-67
1.87509e-69
7.15917e-71
2.69649e-73
5.29122e-75
1.70291e-77
1.87909e-79
5.14897e-82
3.21552e-84
7.04028e-87
2.37814e-89
3.5816e-92
5.12043e-95
2.98505e-98
)
;

boundaryField
{
    leftWall
    {
        type            zeroGradient;
    }
    rightWall
    {
        type            zeroGradient;
    }
    lowerWall
    {
        type            zeroGradient;
    }
    atmosphere
    {
        type            inletOutlet;
        inletValue      uniform 0;
        value           nonuniform List<scalar> 
46
(
0
0
0
0
0
0
0
0
0
0
0
0
0
0
0
0
0
0
0
0
9.88903e-63
1.55973e-61
5.55366e-60
3.01352e-60
5.18844e-60
2.36967e-60
2.2017e-60
2.48251e-61
2.8443e-61
3.01493e-63
7.77566e-64
4.74419e-66
4.13573e-67
1.87509e-69
7.15917e-71
2.69649e-73
5.29122e-75
1.70291e-77
1.87909e-79
5.14897e-82
3.21552e-84
7.04028e-87
2.37814e-89
3.5816e-92
5.12043e-95
2.98505e-98
)
;
    }
    defaultFaces
    {
        type            empty;
    }
}


// ************************************************************************* //
