/*--------------------------------*- C++ -*----------------------------------*\
| =========                 |                                                 |
| \\      /  F ield         | OpenFOAM: The Open Source CFD Toolbox           |
|  \\    /   O peration     | Version:  2012                                  |
|   \\  /    A nd           | Website:  www.openfoam.com                      |
|    \\/     M anipulation  |                                                 |
\*---------------------------------------------------------------------------*/
FoamFile
{
    version     2.0;
    format      ascii;
    class       volScalarField;
    location    "0.77";
    object      maxKappa;
}
// * * * * * * * * * * * * * * * * * * * * * * * * * * * * * * * * * * * * * //

dimensions      [0 0 0 0 0 0 0];


internalField   nonuniform List<scalar> 
2268
(
1.83275e-06
3.49176e-06
5.20564e-06
6.94622e-06
8.53639e-06
9.89734e-06
1.11474e-05
1.22871e-05
1.31747e-05
1.38782e-05
1.43482e-05
1.45178e-05
1.45178e-05
1.43955e-05
1.39718e-05
1.32371e-05
1.21984e-05
1.07188e-05
8.87947e-06
6.63986e-06
4.15017e-06
2.30199e-06
2.15631e-06
2.29151e-06
3.73688e-06
5.3766e-06
7.05603e-06
8.60446e-06
9.9592e-06
1.1215e-05
1.23431e-05
1.32173e-05
1.39258e-05
1.44056e-05
1.45873e-05
1.45873e-05
1.44805e-05
1.40666e-05
1.33314e-05
1.22917e-05
1.08392e-05
9.04122e-06
6.90434e-06
4.49777e-06
2.62764e-06
2.06453e-06
2.7917e-06
4.04587e-06
5.59755e-06
7.22147e-06
8.75903e-06
1.01393e-05
1.14079e-05
1.25161e-05
1.33748e-05
1.40575e-05
1.44928e-05
1.46698e-05
1.46698e-05
1.45813e-05
1.4209e-05
1.34986e-05
1.24715e-05
1.10307e-05
9.26127e-06
7.24373e-06
4.92441e-06
3.61412e-06
3.18712e-06
3.58228e-06
4.61895e-06
6.05291e-06
7.55153e-06
8.97988e-06
1.03189e-05
1.15735e-05
1.26575e-05
1.35104e-05
1.42163e-05
1.47064e-05
1.49492e-05
1.49492e-05
1.48849e-05
1.45103e-05
1.38079e-05
1.28439e-05
1.15319e-05
9.88298e-06
8.01647e-06
5.68783e-06
4.15597e-06
3.89977e-06
4.20332e-06
5.10471e-06
6.45622e-06
7.89e-06
9.301e-06
1.0682e-05
1.19546e-05
1.29971e-05
1.38064e-05
1.44553e-05
1.48699e-05
1.51086e-05
1.51086e-05
1.50842e-05
1.47889e-05
1.41478e-05
1.32263e-05
1.19607e-05
1.03911e-05
8.74429e-06
6.79413e-06
6.13144e-06
5.79255e-06
5.1144e-06
5.89643e-06
7.14049e-06
8.42979e-06
9.68358e-06
1.09711e-05
1.21925e-05
1.32032e-05
1.40438e-05
1.47588e-05
1.52688e-05
1.55934e-05
1.55934e-05
1.55745e-05
1.52575e-05
1.46431e-05
1.38585e-05
1.28255e-05
1.15177e-05
1.01299e-05
8.40744e-06
7.87798e-06
7.87798e-06
5.80112e-06
6.50615e-06
7.66032e-06
8.87994e-06
1.01409e-05
1.15098e-05
1.27439e-05
1.3679e-05
1.44356e-05
1.50569e-05
1.54734e-05
1.57965e-05
1.58719e-05
1.58719e-05
1.57236e-05
1.52218e-05
1.44838e-05
1.34604e-05
1.22583e-05
1.1261e-05
1.02445e-05
1.0132e-05
9.63667e-06
8.24894e-06
8.43116e-06
8.86127e-06
9.54224e-06
1.06973e-05
1.20343e-05
1.32465e-05
1.41519e-05
1.48987e-05
1.55356e-05
1.60665e-05
1.64838e-05
1.64955e-05
1.64955e-05
1.6263e-05
1.58075e-05
1.52728e-05
1.45766e-05
1.38793e-05
1.35755e-05
1.31398e-05
1.42563e-05
1.36387e-05
0.000157578
0.00023504
0.000277844
0.00028258
0.00028258
0.000265552
0.000430248
0.000493725
0.00050614
0.000525821
0.000551897
0.000579076
0.000602425
0.000632168
0.000680242
0.000680242
0.000660669
0.000519676
0.00030511
0.00015042
0.000204789
0.000238826
0.000251997
0.000268348
0.000303923
0.000361258
0.000406383
0.000428048
0.000459023
0.000588854
0.00108186
0.0014491
0.00166719
0.00174634
0.00174634
0.00152353
0.000839108
0.000309727
0.00016583
0.000223841
0.000582712
0.000613149
0.000613149
0.000186912
0.000540202
0.000840873
0.00108466
0.0013375
0.00182405
0.00218955
0.00252935
0.00277486
0.00277486
0.00260284
0.00176468
0.000347636
6.70529e-05
0.000186507
0.000468439
0.00133096
0.00133096
0.000907044
0.000118143
8.49243e-05
0.000491457
0.00107018
0.00193409
0.00253587
0.00287163
0.00311605
0.00311605
0.00305331
0.00212044
0.00140711
0.000533727
8.16694e-05
0.000248835
0.000742777
0.00110204
0.00110204
0.000729824
0.000176687
3.31944e-05
0.00020075
0.000658855
0.000985036
0.000985036
0.000759242
0.000781061
0.00130258
0.00139939
0.00139939
0.00119698
0.000586411
0.000103474
0.00034152
0.000615872
0.000733385
0.000733385
0.000683875
0.000170248
3.50081e-05
4.60459e-05
9.12659e-05
0.000380458
0.000776938
0.000985967
0.000985967
0.000969508
0.000825321
0.000782123
0.000547247
0.00021853
7.01612e-05
0.000564024
0.000564024
0.000720644
0.000783093
0.000783093
0.000216185
9.11984e-05
5.9274e-05
5.26886e-05
5.79533e-05
8.26291e-05
0.0001396
0.00012441
9.75086e-05
9.79722e-05
9.79722e-05
8.25551e-05
6.2752e-05
5.09614e-05
0.000794791
0.000794791
0.00075061
0.00075061
0.000658978
0.000474947
0.000487647
0.000487647
0.000321591
7.58907e-05
5.05138e-05
4.89801e-05
6.86155e-05
0.000174702
0.000273678
0.000273678
0.000242578
7.90188e-05
0.000113772
0.000118043
0.000120206
0.000116992
0.00010792
9.12903e-05
5.30632e-05
3.26699e-05
2.85159e-05
2.47628e-05
2.17331e-05
1.9594e-05
1.78353e-05
1.73063e-05
1.73737e-05
1.78303e-05
1.74268e-05
1.7559e-05
1.67576e-05
1.7408e-05
1.88223e-05
3.10886e-05
0.000178901
0.000166111
0.000244846
0.000266733
0.000288815
0.000309851
0.000322442
0.000323271
0.000299485
0.000241724
0.000185419
0.000137647
8.95176e-05
6.00325e-05
4.81692e-05
4.23512e-05
3.81558e-05
3.22592e-05
3.02246e-05
2.58094e-05
2.36547e-05
2.87144e-05
0.000112768
0.00037906
0.000399705
0.000283941
0.000305278
0.00034467
0.000385656
0.000427266
0.000476752
0.000557379
0.000571547
0.000582661
0.000653418
0.000800794
0.00107321
0.00111319
0.000860461
0.000644655
0.000477253
0.000338861
0.000168589
7.55278e-05
3.7845e-05
0.000159163
0.000462129
0.000598656
0.000355661
0.000381944
0.000420977
0.000465541
0.000542496
0.000650367
0.000798865
0.00101004
0.00150013
0.00201623
0.00261948
0.00313757
0.00286105
0.00230006
0.00176649
0.00133767
0.000977715
0.000529024
0.00025196
0.000120715
0.000102859
0.000448014
0.000598656
0.000465987
0.000490884
0.000534196
0.000598524
0.00072438
0.000897492
0.00115459
0.00174115
0.0026095
0.00340608
0.00397448
0.00397448
0.00376849
0.00303467
0.00232472
0.00168358
0.00106339
0.000945778
0.00102289
0.00078564
0.000566994
0.000324548
0.00039397
0.000565271
0.000586792
0.00062846
0.00070969
0.000854618
0.0010588
0.00140975
0.00204948
0.00276472
0.00324889
0.00358963
0.00358947
0.0030093
0.00179838
0.00141972
0.0014229
0.00233939
0.00244482
0.0025365
0.00246038
0.00234895
0.00201249
0.00150215
0.000664586
0.000687291
0.000733287
0.000816494
0.00096412
0.00116973
0.00151338
0.00197699
0.00239016
0.00276311
0.00297428
0.00257997
0.00272016
0.00250548
0.00172555
0.00220462
0.00248007
0.00280181
0.00312785
0.00334282
0.00334282
0.0032599
0.00293602
0.000755162
0.000777366
0.000830096
0.000932928
0.00107636
0.00127737
0.00159939
0.00200309
0.00226082
0.00244958
0.00215715
0.00199434
0.00236147
0.00218856
0.00211792
0.00234558
0.00236329
0.00245526
0.0026167
0.00281946
0.00309814
0.00318904
0.00318904
0.000826634
0.000847974
0.000890723
0.000980119
0.00110815
0.00127715
0.00153267
0.00183696
0.00209836
0.00220498
0.00190862
0.00138202
0.0017896
0.00206589
0.00206165
0.00209964
0.00221135
0.00150654
0.00145893
0.00182904
0.0025069
0.00265034
0.00303143
0.000885239
0.000905374
0.000957993
0.00103787
0.00114854
0.00128984
0.00148472
0.00171284
0.00190557
0.00199062
0.00178709
0.00135691
0.000959851
0.00143429
0.00175869
0.00199169
0.00206129
0.00196811
0.00124115
0.00113104
0.00117561
0.00201206
0.00223775
0.000924191
0.000939291
0.000975486
0.00103902
0.00112459
0.00123075
0.00136623
0.00152921
0.00172102
0.00179527
0.00165195
0.00144018
0.00104632
0.00061299
0.000777747
0.00114116
0.0014452
0.00151804
0.00172073
0.00172073
0.00153751
0.000911457
0.00093287
0.000950916
0.000970658
0.00100545
0.00105496
0.00111966
0.0011973
0.00128937
0.00139452
0.00153195
0.00160365
0.00154469
0.00137714
0.00114603
0.000869688
0.000592403
0.000397425
0.000569415
0.000840773
0.00115245
0.001472
0.00150757
0.00151249
0.00151249
0.000963698
0.000972255
0.000996972
0.0010322
0.00107688
0.00113133
0.00120005
0.00128092
0.00136457
0.00141593
0.00139363
0.00126275
0.00113278
0.000949762
0.000740945
0.000551314
0.000440879
0.00041798
0.000533388
0.000764343
0.000980516
0.00116216
0.00126913
0.00097272
0.000984172
0.00100226
0.00102605
0.00105483
0.00108853
0.00113176
0.00117823
0.00122147
0.00124568
0.00122762
0.00115441
0.001027
0.00090891
0.00077492
0.000658035
0.000573169
0.000509833
0.000500168
0.000501754
0.000535702
0.000608831
0.000634975
0.000969142
0.000975061
0.000987047
0.00100369
0.00102459
0.00104859
0.00107173
0.00109426
0.00110736
0.00110926
0.00107765
0.00102123
0.000929444
0.000832964
0.000737062
0.000647611
0.000580882
0.000537331
0.000533538
0.000530364
0.000535702
0.000531607
0.000514133
0.000967879
0.000971409
0.000978091
0.000987209
0.000997817
0.0010092
0.00101704
0.00102276
0.00101681
0.00100394
0.000965037
0.000910283
0.000835618
0.000756432
0.000678407
0.000613837
0.000564126
0.000524445
0.000522944
0.000511457
0.000530459
0.000531607
0.00051672
0.000963798
0.000965391
0.000968467
0.00097179
0.000974468
0.000976327
0.000972332
0.00096593
0.000946726
0.000923085
0.000879098
0.000826345
0.000758099
0.000690592
0.000625588
0.000565797
0.000524696
0.000491747
0.000484387
0.000476995
0.000500345
0.000514115
0.000507567
0.000957281
0.000957016
0.000956852
0.000955376
0.000951793
0.000946524
0.000934194
0.000919415
0.000892145
0.000861626
0.000814771
0.00076317
0.00070263
0.000640815
0.000579287
0.000521381
0.000478853
0.000446588
0.000435221
0.000425624
0.000433722
0.000452779
0.000469148
0.000952337
0.000950639
0.000947869
0.00094255
0.000933895
0.000923055
0.000904332
0.000883604
0.000850423
0.000814567
0.000764702
0.000712636
0.000654719
0.000594597
0.0005349
0.0004771
0.000429524
0.000393305
0.000373814
0.000367369
0.000373937
0.000392391
0.000415074
0.000947644
0.000945008
0.000940524
0.000932452
0.000920162
0.000904907
0.000883033
0.0008571
0.000824708
0.000785774
0.000740061
0.000687466
0.000629581
0.00056697
0.000503392
0.000440401
0.000382278
0.000338728
0.000311279
0.000302336
0.000311283
0.000337079
0.000370056
0.000947287
0.000943097
0.000936717
0.000926797
0.00091343
0.000895647
0.000871571
0.00084247
0.000806461
0.000763964
0.000714903
0.000659071
0.000599298
0.00053565
0.000471149
0.000406327
0.000343252
0.000285808
0.000247412
0.000234109
0.000246447
0.000289081
0.000328113
0.000952511
0.000948016
0.000940689
0.000929024
0.000914373
0.000895132
0.000869803
0.000839657
0.000803016
0.00076063
0.000712072
0.000656786
0.000596774
0.000530702
0.000461152
0.000388556
0.000315248
0.00024426
0.000184281
0.000161412
0.000180791
0.000241044
0.000299454
0.00096219
0.00095747
0.000949701
0.000936518
0.000918943
0.000898875
0.000872666
0.000841029
0.000802238
0.000757422
0.000706321
0.000648768
0.000586727
0.00052019
0.000451105
0.000378472
0.00030231
0.000223863
0.000143854
7.99219e-05
0.000130384
0.000219604
0.000273318
0.000977073
0.000972397
0.00096438
0.000951122
0.00093301
0.000910348
0.000883975
0.000852908
0.00081537
0.000772333
0.000723518
0.000668867
0.000609003
0.000543114
0.000471772
0.0003957
0.000317675
0.000237827
0.000174424
0.000136606
0.000158697
0.000230796
0.000302465
0.000997582
0.000993126
0.000984913
0.000971937
0.000954283
0.000932067
0.00090381
0.000871752
0.000832277
0.00078951
0.000739884
0.000687007
0.000627474
0.000569048
0.000504224
0.000445161
0.000383312
0.000333971
0.000292585
0.000280809
0.000295139
0.000342632
0.000397642
0.00102459
0.00102059
0.00101242
0.00100014
0.000983346
0.000962135
0.000935821
0.000905669
0.00086918
0.000830414
0.000784742
0.000739044
0.000687583
0.000638567
0.000585508
0.000539859
0.000493437
0.000463722
0.000443672
0.000452858
0.000466793
0.000504526
0.000542468
0.00105833
0.00105487
0.00104705
0.00103594
0.00102064
0.00100142
0.000978085
0.000951103
0.000919369
0.00088549
0.000846792
0.000808611
0.000766355
0.000727389
0.000687408
0.000655927
0.00062823
0.000623215
0.000624888
0.000634145
0.000642399
0.000666429
0.000692546
0.00109982
0.00109694
0.00108981
0.00108013
0.00106664
0.00105001
0.00103025
0.00100751
0.000981576
0.000953997
0.000923662
0.000894391
0.000863171
0.000834914
0.0008083
0.000793915
0.000791879
0.000800655
0.000791054
0.000786901
0.000783832
0.000795312
0.000817191
0.00114859
0.0011464
0.00114048
0.00113277
0.00112184
0.00110858
0.00109294
0.00107501
0.00105517
0.0010342
0.00101205
0.000990582
0.000969021
0.000953582
0.000947913
0.000956787
0.000962611
0.000938882
0.000908856
0.000891784
0.000878347
0.000884243
0.000911855
0.00120556
0.00120394
0.00119932
0.00119357
0.00118533
0.00117572
0.00116445
0.00115181
0.00113822
0.00112416
0.00111006
0.00109748
0.00108836
0.00109009
0.00110594
0.00111178
0.00107196
0.00102161
0.000985403
0.000950266
0.000936498
0.000947382
0.000988297
0.00127025
0.00126936
0.00126643
0.00126295
0.00125764
0.00125165
0.00124447
0.00123669
0.0012285
0.00122049
0.00121378
0.00121102
0.0012177
0.0012374
0.00124564
0.001194
0.00113379
0.00107203
0.00102687
0.000982611
0.000968342
0.000995889
0.00105195
0.0013419
0.00134173
0.00134035
0.00133904
0.00133658
0.00133408
0.00133078
0.00132757
0.00132459
0.00132341
0.00132679
0.00133844
0.00136125
0.00137526
0.001321
0.0012465
0.00116623
0.00110463
0.00104167
0.000991274
0.000994061
0.00104525
0.0011049
0.00142276
0.00142307
0.00142313
0.00142361
0.00142352
0.00142378
0.0014234
0.00142381
0.00142547
0.00143198
0.00144635
0.00146987
0.00149045
0.00144579
0.00138165
0.00128255
0.00119454
0.00110799
0.00102883
0.000985351
0.00101455
0.00108072
0.00114731
0.00150747
0.0015087
0.00151075
0.00151331
0.00151546
0.00151857
0.00152153
0.00152658
0.00153447
0.00155028
0.00157398
0.00159862
0.00157201
0.0014895
0.00137791
0.00126626
0.00116682
0.00106928
0.00100119
0.000984233
0.00103453
0.00111504
0.0011794
0.00160439
0.00160581
0.00160787
0.00161086
0.00161459
0.00161981
0.00162556
0.00163499
0.0016492
0.00167159
0.00169639
0.00169238
0.00162344
0.00151549
0.00137845
0.00125691
0.00113462
0.0010283
0.000966672
0.000970087
0.00103656
0.001132
0.00121006
0.00170086
0.0017028
0.00170566
0.00171077
0.00171694
0.00172425
0.00173331
0.00174827
0.00176934
0.00179497
0.00180652
0.00173717
0.00164105
0.00148419
0.00133619
0.00119802
0.00106811
0.00097571
0.000934328
0.000972533
0.00105517
0.00116409
0.00123713
0.00181167
0.00181397
0.00181755
0.00182295
0.00182844
0.00183684
0.00184845
0.00186746
0.00189037
0.00190899
0.00187679
0.00179752
0.0016482
0.00147045
0.00130741
0.00114904
0.00101204
0.00091842
0.00089924
0.000954488
0.00105268
0.00117388
0.00126769
0.0019174
0.00192015
0.00192475
0.00193085
0.00193851
0.00194992
0.00196533
0.00198919
0.00201108
0.00201142
0.00191977
0.00179494
0.00159694
0.00140312
0.00122515
0.00106525
0.000946181
0.000873562
0.000892096
0.000972859
0.00108496
0.001216
0.00129669
0.00204128
0.00204484
0.00205054
0.00205792
0.00206625
0.00207688
0.00209335
0.00211456
0.00212453
0.00208187
0.0019884
0.00180204
0.00157687
0.00137142
0.00118107
0.00101444
0.00089088
0.000830924
0.000863184
0.000958455
0.00108308
0.00122432
0.00133174
0.00215306
0.00215712
0.00216348
0.00217181
0.00218099
0.00219475
0.00221523
0.00223494
0.00223005
0.0021322
0.00198227
0.00173851
0.0014955
0.00127781
0.00108684
0.000937294
0.000836979
0.000812361
0.00088365
0.000994594
0.00112994
0.00127867
0.0013639
0.00229087
0.00229606
0.00230465
0.00231564
0.00232844
0.00234417
0.00236014
0.00236486
0.00231505
0.00220985
0.00200552
0.0017325
0.00147831
0.00125004
0.00105233
0.000896389
0.00079254
0.000781928
0.000864001
0.000984684
0.00112768
0.00128259
0.00140363
0.00241112
0.00241764
0.00242681
0.0024372
0.0024473
0.00245391
0.00245391
0.00244664
0.0023901
0.00222293
0.00194115
0.00163833
0.00137445
0.00114683
0.000961697
0.000825669
0.000749958
0.000798108
0.000901731
0.00103744
0.00119052
0.00135243
0.00140363
0.00011452
0.000143642
0.000216553
0.000240215
0.000131719
0.000199425
0.000340927
0.00048206
0.000321513
0.000351909
0.000723986
0.000938024
0.000608822
0.000607707
0.000723986
0.000938024
0.000608822
0.000607707
0.000521961
0.000374705
0.0010981
0.000943428
0.000783066
0.000811518
0.00266672
0.00238484
0.00213671
0.00219908
0.00318273
0.00324085
0.00320488
0.00322705
0.00318273
0.00324085
0.00320488
0.00322705
0.00242518
0.00282009
0.00274747
0.0028196
0.00124179
0.0020341
0.00169074
0.00170369
0.00118519
0.000875569
0.000669097
0.00064514
0.00118519
0.000757693
0.000681286
0.00105878
0.000628727
0.000628776
0.000681286
0.000795801
0.000513423
0.000507907
0.000510471
0.000483185
0.000513423
0.000507907
0.000510471
0.00048545
0.000506958
0.000501913
0.000503686
0.000504486
0.000488205
0.000494126
0.000503686
0.000504486
0.000443411
0.000454395
0.00047214
0.000482199
0.000407921
0.000427803
0.000451988
0.000473036
0.000372872
0.000399206
0.000428749
0.00045734
0.000354026
0.000387536
0.000422301
0.00045734
0.000335846
0.000376302
0.00041783
0.000459627
0.000358968
0.00039651
0.000436256
0.000475556
0.000440497
0.000471641
0.000505746
0.000539063
0.000574994
0.000600357
0.000627784
0.00065573
0.000717562
0.000739802
0.000763408
0.000791644
0.000841654
0.000865334
0.000891863
0.00092335
0.000944451
0.000973044
0.00100559
0.00104036
0.00103308
0.001067
0.00110512
0.00114349
0.00110888
0.00114814
0.00119075
0.00123243
0.00117137
0.00121583
0.00126141
0.00130619
0.0012222
0.00127158
0.0013202
0.00136835
0.00126252
0.00131674
0.00136906
0.00142105
0.00129984
0.00135871
0.00141447
0.00147035
0.00133251
0.00139542
0.00145454
0.00151394
0.00136874
0.00143451
0.00149686
0.0015589
0.00140269
0.00147097
0.00153595
0.00160038
0.00144157
0.00151242
0.0015795
0.00164622
0.00147678
0.00154964
0.00161839
0.00168683
0.00151944
0.00159453
0.00166484
0.00173533
0.00151944
0.00159453
0.00166484
0.00173533
0.000654363
0.000859425
0.00071887
0.000583641
0.000609984
0.00086769
0.000913935
0.00111238
0.00127471
0.00168925
0.00159269
0.00113129
0.000781815
0.000975862
0.000904415
0.000838582
0.000488492
9.56057e-05
0.000519665
0.00119938
0.00110764
0.000582147
0.000575815
0.000831612
0.00224283
0.00309898
0.00343425
0.00317876
0.00402636
0.00352635
0.00333523
0.00246749
0.00184115
0.00138998
0.000555535
0.000181439
0.000430048
0.000885326
0.00119938
0.000811422
0.000417935
0.000652501
0.00252018
0.00540241
0.0059982
0.0059982
0.005587
0.0052946
0.00483241
0.00277806
0.000996354
0.000887466
0.000852242
0.00055735
0.000360845
0.00103426
0.00106357
0.00089167
0.00046009
0.000468738
0.00270799
0.0062974
0.00701303
0.00701303
0.00493053
0.00406005
0.00358091
0.00286879
0.00144185
0.000210158
0.000163304
0.000619173
0.000808178
0.000541957
0.000682047
0.00106357
0.000275333
0.000576361
0.00280447
0.00666245
0.00666245
0.00636606
0.00334697
0.00237918
0.0020094
0.00133302
0.00180435
0.00109371
0.000184108
0.000111911
0.000183378
0.000822447
0.000822447
0.000704933
0.000458484
0.000531011
0.00217007
0.00515274
0.00533924
0.00591262
0.00274359
0.00114281
0.00102921
0.00085369
0.000847569
0.00133274
0.000759557
0.00037587
0.000440891
0.000135153
0.00015761
0.000549524
0.000484765
0.000121038
0.00250536
0.00440381
0.00489265
0.00499778
0.00359976
0.00155821
0.000851608
0.000518124
0.00085369
0.000539857
0.00084639
0.000798403
0.00124313
0.00124313
0.000699332
0.000148391
0.000109062
0.000108518
8.00388e-05
0.00407004
0.00438565
0.00438565
0.00387265
0.00178696
0.000935881
0.000888678
0.000440371
0.000526356
0.000629186
0.000845175
0.00110514
0.00120943
0.00152512
0.00154663
0.000945411
0.000259487
0.000202894
0.000247937
0.00352961
0.00356048
0.00343133
0.00220076
0.000982533
0.000839952
0.000511947
0.000355263
0.000425208
0.000623918
0.00106053
0.00114157
0.00127564
0.00149276
0.00199195
0.00205356
0.00162066
0.00139128
0.00163032
0.00268412
0.00246798
0.00206331
0.00105776
0.000671212
0.000463624
0.000422135
0.000702731
0.000906287
0.000967247
0.00117326
0.00141569
0.00187031
0.00218759
0.00261344
0.00261344
0.0025706
0.00258471
0.00271606
0.00169564
0.00139158
0.000714645
0.000509709
0.000377148
0.000194863
0.000568444
0.000852957
0.00120219
0.0014191
0.00168049
0.00189648
0.0019175
0.00217621
0.00272507
0.00304788
0.0033396
0.0033396
0.00333268
0.000618832
0.000499767
0.000411975
0.000364551
0.000364551
0.000582986
0.00105629
0.00144644
0.00164777
0.00192661
0.00198524
0.00198524
0.00161742
0.00142906
0.00210474
0.00283323
0.00332866
0.00348059
0.00348059
0.00118959
0.00118959
0.000972133
0.000719904
0.000378287
0.000835654
0.00165472
0.0021002
0.0021002
0.00199657
0.00197372
0.00163245
0.00122381
0.0012753
0.00179058
0.00246036
0.00345035
0.00383446
0.00383446
0.000710604
0.000597374
0.000541149
0.000529062
0.000579093
0.00093286
0.00118243
0.00158767
0.00144463
0.0014692
0.00144348
0.00132964
0.00118331
0.0014742
0.00182302
0.00219454
0.00274736
0.00322751
0.00322751
0.000459256
0.000459256
0.000370344
0.000345835
0.000507569
0.000752388
0.00103611
0.00103962
0.000760366
0.000821583
0.000968042
0.00111216
0.00141148
0.00170256
0.00194611
0.00216839
0.00252697
0.00312779
0.00312779
0.000465257
0.000413535
0.000351418
0.000279568
0.000266071
0.000511664
0.000772409
0.000872282
0.000823504
0.000705737
0.000899589
0.00132347
0.00164638
0.00185737
0.0020194
0.00215353
0.00241822
0.0029415
0.003045
0.000561908
0.000561908
0.000519564
0.000503686
0.000593687
0.000618239
0.000739507
0.00087166
0.00100456
0.00102906
0.00130248
0.00165334
0.00185964
0.00195645
0.00201632
0.00207151
0.00226163
0.00271824
0.00284827
0.000554322
0.000587546
0.000630203
0.000710174
0.000849969
0.000956649
0.0010748
0.00120983
0.001364
0.00152424
0.00176918
0.00191672
0.00195234
0.00195866
0.00195866
0.00193542
0.00211705
0.00263392
0.00275983
0.00060506
0.000662566
0.00074662
0.000875584
0.00104531
0.00125897
0.00145921
0.00163349
0.00179485
0.00195057
0.00204951
0.0020671
0.0020671
0.00199555
0.00190048
0.00175621
0.00181054
0.00266913
0.00278483
0.000592019
0.000677623
0.000783737
0.00091985
0.00109652
0.00130729
0.00154502
0.00177248
0.00193797
0.00204497
0.00207209
0.00207209
0.00201203
0.00185796
0.00169418
0.00149284
0.00150931
0.00236341
0.00278483
0.000618832
0.000718227
0.000832737
0.000971653
0.00113142
0.00131088
0.00150352
0.0016921
0.00184163
0.00192761
0.00192761
0.00191983
0.00183496
0.0016747
0.00150645
0.0012847
0.00123738
0.00220407
0.00270757
0.000631206
0.000746044
0.000874204
0.00101957
0.00118083
0.00135063
0.00152649
0.00167924
0.00179239
0.00184067
0.00184067
0.00180097
0.00170783
0.00154333
0.00137089
0.00113247
0.000973063
0.00201248
0.00268708
0.000644025
0.000768684
0.000904143
0.00105644
0.00121351
0.00137595
0.00153279
0.00167051
0.00177324
0.00179975
0.00179975
0.001749
0.00164843
0.00147904
0.00130135
0.00104485
0.000822931
0.00173891
0.00273624
0.000657992
0.000786503
0.000928282
0.00108205
0.00124101
0.00139927
0.00155014
0.00167813
0.00176857
0.00179334
0.00179334
0.00174245
0.00163819
0.00145929
0.00127033
0.00100861
0.000786008
0.00160951
0.00273624
0.000676396
0.00080225
0.000940116
0.00108762
0.00122952
0.00137311
0.00151167
0.0016317
0.00171868
0.0017617
0.0017617
0.00173964
0.00164658
0.00148138
0.00130616
0.00107969
0.00090548
0.00148409
0.00240295
0.000778239
0.000897834
0.00103068
0.00116024
0.00127107
0.00138449
0.00148759
0.00158597
0.00166404
0.00171218
0.00172425
0.00172425
0.00166842
0.00152919
0.0013729
0.00117877
0.00102234
0.00133518
0.00199245
0.000916642
0.00103324
0.00116177
0.00127033
0.00134144
0.00141401
0.00147684
0.00153718
0.00158673
0.0016229
0.00165242
0.00165242
0.00165023
0.00156259
0.00143076
0.00125638
0.00109404
0.00107779
0.0014989
0.001075
0.00119127
0.00131679
0.0013946
0.00143182
0.00148668
0.00152997
0.00156257
0.00157377
0.00157512
0.00158226
0.00161056
0.00161056
0.00159639
0.00151282
0.00136579
0.0012002
0.00100626
0.0010031
0.00121386
0.00132925
0.00143938
0.0014834
0.00151507
0.00158898
0.0016383
0.00165837
0.00165837
0.00163288
0.00158524
0.00154435
0.00158772
0.00158772
0.00157941
0.00147188
0.00131972
0.00112655
0.000706499
0.00134313
0.00145307
0.00154543
0.00157708
0.0016316
0.0017421
0.00181504
0.00183874
0.00183874
0.0017881
0.00169057
0.00157592
0.00157984
0.0016498
0.0016498
0.00160269
0.00148031
0.00130831
0.00077118
0.00144989
0.00155197
0.00163318
0.00166903
0.00175567
0.00190784
0.00201645
0.00205298
0.00205298
0.00198426
0.00184352
0.00166343
0.00157533
0.00170906
0.00173366
0.00173366
0.00165133
0.00150932
0.00102554
0.00154258
0.00164184
0.00172683
0.00178093
0.00189446
0.0020799
0.00222894
0.00228442
0.00228442
0.00220697
0.00203013
0.00178964
0.00159531
0.00178205
0.00188973
0.00188973
0.00185581
0.00173996
0.00131628
0.00161916
0.00172326
0.00181664
0.00188858
0.00202284
0.00223809
0.00242888
0.00250851
0.00250851
0.0024355
0.00223404
0.00193198
0.00166906
0.00186204
0.00205806
0.00208428
0.00208428
0.00200028
0.00161906
0.0016945
0.00180458
0.00190594
0.00199641
0.00215072
0.00238954
0.00261842
0.00272785
0.00272785
0.00267112
0.00245783
0.0020903
0.00173971
0.00194498
0.00222565
0.00231069
0.00231069
0.00226016
0.00192909
0.00175424
0.00187289
0.00198461
0.00209549
0.0022717
0.00253045
0.00279508
0.00294079
0.00294079
0.00291066
0.00270106
0.0022725
0.00182264
0.00203022
0.00240984
0.00255172
0.00255172
0.00252241
0.00220779
0.00182344
0.00195037
0.00207121
0.00219675
0.00239066
0.00266491
0.00295831
0.00313835
0.00314312
0.00314312
0.00294772
0.00246252
0.00189088
0.00210703
0.00258083
0.00278799
0.00279232
0.00279232
0.00250298
0.00187258
0.00200914
0.00214064
0.00228105
0.00249462
0.0027855
0.00310522
0.00332034
0.00336847
0.00336847
0.00320638
0.00267632
0.00199924
0.00217041
0.00276182
0.00301034
0.00302964
0.00302964
0.00275437
0.00194372
0.00208689
0.00222521
0.00237356
0.0025996
0.00290143
0.00323817
0.00348164
0.00357407
0.00357407
0.00344761
0.00285779
0.00201217
0.00220397
0.00289985
0.00322135
0.00327277
0.00327277
0.00300992
0.0019824
0.00213387
0.00228146
0.00243902
0.00267883
0.00299462
0.00334687
0.00362054
0.0037557
0.0037557
0.00366528
0.00301939
0.00194672
0.00224628
0.00303881
0.00337281
0.00343657
0.00343657
0.00316724
0.00206103
0.00221682
0.00236992
0.0025309
0.00277427
0.00309416
0.00344897
0.00374139
0.00389816
0.00389816
0.00383182
0.00311192
0.00172748
0.00221648
0.00311322
0.00352186
0.00361077
0.00361077
0.00335402
0.00208445
0.00224489
0.00240378
0.00256978
0.0028189
0.00314593
0.00350469
0.00381297
0.00398348
0.00398348
0.00394464
0.00320004
0.00158757
0.00220963
0.00317
0.00357518
0.00367405
0.00367405
0.00342326
0.00218155
0.00234608
0.00250934
0.00267877
0.00292567
0.00325179
0.00360132
0.00390942
0.00407285
0.00407285
0.00404335
0.00322758
0.00138005
0.00209921
0.00310764
0.00362536
0.0037927
0.0037927
0.00357444
)
;

boundaryField
{
    leftWall
    {
        type            calculated;
        value           uniform 0;
    }
    rightWall
    {
        type            calculated;
        value           uniform 0;
    }
    lowerWall
    {
        type            calculated;
        value           uniform 0;
    }
    atmosphere
    {
        type            calculated;
        value           uniform 0;
    }
    defaultFaces
    {
        type            empty;
    }
}


// ************************************************************************* //
