/*--------------------------------*- C++ -*----------------------------------*\
| =========                 |                                                 |
| \\      /  F ield         | OpenFOAM: The Open Source CFD Toolbox           |
|  \\    /   O peration     | Version:  2012                                  |
|   \\  /    A nd           | Website:  www.openfoam.com                      |
|    \\/     M anipulation  |                                                 |
\*---------------------------------------------------------------------------*/
FoamFile
{
    version     2.0;
    format      ascii;
    class       volScalarField;
    location    "0.77";
    object      minKappa;
}
// * * * * * * * * * * * * * * * * * * * * * * * * * * * * * * * * * * * * * //

dimensions      [0 0 0 0 0 0 0];


internalField   nonuniform List<scalar> 
2268
(
6.31713e-07
1.3174e-06
2.0989e-06
2.90242e-06
3.7154e-06
4.38596e-06
4.99908e-06
5.57048e-06
6.07117e-06
6.40328e-06
6.73875e-06
6.85225e-06
6.90488e-06
6.74397e-06
6.50884e-06
6.0491e-06
5.52627e-06
4.66303e-06
3.80691e-06
2.59441e-06
1.49269e-06
8.37285e-07
1.15894e-06
6.31713e-07
1.3174e-06
2.0989e-06
2.90242e-06
3.7154e-06
4.38596e-06
4.99908e-06
5.57048e-06
6.07117e-06
6.40328e-06
6.73875e-06
6.85225e-06
6.90488e-06
6.74397e-06
6.50884e-06
6.0491e-06
5.52627e-06
4.66303e-06
3.80691e-06
2.59441e-06
1.49269e-06
8.37285e-07
1.15894e-06
9.32262e-07
1.47003e-06
2.20812e-06
2.97839e-06
3.76946e-06
4.43707e-06
5.06227e-06
5.63037e-06
6.11949e-06
6.44949e-06
6.77728e-06
6.88209e-06
6.9469e-06
6.78971e-06
6.57517e-06
6.10632e-06
5.59807e-06
4.73859e-06
3.9117e-06
2.77491e-06
1.67802e-06
1.27252e-06
1.21188e-06
1.30714e-06
1.70513e-06
2.38985e-06
3.11624e-06
3.86573e-06
4.51815e-06
5.15112e-06
5.71091e-06
6.18745e-06
6.52004e-06
6.844e-06
6.95757e-06
7.0425e-06
6.88529e-06
6.68934e-06
6.21736e-06
5.748e-06
4.91602e-06
4.13205e-06
3.08012e-06
1.9352e-06
1.73697e-06
1.61627e-06
1.69827e-06
1.98109e-06
2.61426e-06
3.2976e-06
4.00028e-06
4.6397e-06
5.28605e-06
5.83434e-06
6.2913e-06
6.62017e-06
6.93187e-06
7.0479e-06
7.15961e-06
7.00592e-06
6.84276e-06
6.37075e-06
5.9513e-06
5.15222e-06
4.42976e-06
3.49147e-06
2.40735e-06
2.4542e-06
2.12632e-06
2.09723e-06
2.30613e-06
2.8929e-06
3.53289e-06
4.17999e-06
4.79249e-06
5.44144e-06
5.97147e-06
6.41209e-06
6.75147e-06
7.05699e-06
7.18861e-06
7.32342e-06
7.16808e-06
7.03382e-06
6.57448e-06
6.22706e-06
5.48778e-06
4.86671e-06
4.05323e-06
3.13072e-06
3.35556e-06
3.10494e-06
2.49657e-06
2.66183e-06
3.19945e-06
3.79534e-06
4.38533e-06
4.98402e-06
5.6411e-06
6.14479e-06
6.56103e-06
6.89987e-06
7.1929e-06
7.33796e-06
7.49924e-06
7.36461e-06
7.27913e-06
6.83682e-06
6.55907e-06
5.86457e-06
5.37234e-06
4.73692e-06
4.07701e-06
4.29958e-06
3.97758e-06
2.89539e-06
3.04857e-06
3.53479e-06
4.08422e-06
4.6221e-06
5.22626e-06
5.90126e-06
6.38272e-06
6.77144e-06
7.09352e-06
7.36644e-06
7.54148e-06
7.71666e-06
7.58258e-06
7.53643e-06
7.12988e-06
6.93446e-06
6.3167e-06
6.03622e-06
5.70175e-06
5.34917e-06
5.28748e-06
4.95996e-06
4.97096e-05
8.14197e-05
0.000105904
0.000114202
0.000110398
0.000100028
0.000148378
0.000189068
0.000194878
0.000203319
0.000216535
0.000261853
0.000301366
0.000327161
0.000357674
0.000363751
0.000312544
0.000175475
9.05559e-05
4.97096e-05
7.24575e-05
0.000105904
0.000114202
0.000110398
7.96316e-05
0.000111006
0.000183254
0.000194878
0.000203319
0.000216535
0.000261853
0.000301366
0.000327161
0.000357674
0.000363751
0.000312544
7.70749e-05
3.67881e-05
6.20947e-05
7.22736e-05
0.000110034
0.000144923
0.000124313
2.60667e-05
3.93457e-05
0.000183254
0.000210865
0.000245585
0.000296476
0.000571035
0.000752209
0.00089186
0.000958193
0.000799099
0.000347636
5.1034e-05
2.6691e-05
7.75721e-05
7.22736e-05
0.00029178
0.000473252
0.000118143
2.08744e-05
4.95409e-06
7.18648e-05
0.000216878
0.000532852
0.000707
0.000703199
0.000721049
0.000949773
0.000897754
0.000589865
0.000513671
5.1034e-05
2.6691e-05
8.97266e-05
0.000139661
0.000390869
0.000389327
0.000176687
2.08744e-05
4.95409e-06
1.96958e-05
4.66259e-05
0.000203739
0.000323722
0.000334718
0.000304302
0.000451034
0.000445187
0.000436491
0.000258403
8.53745e-05
2.64345e-05
0.000112024
0.000178759
0.000306527
0.00031181
0.000170248
2.24903e-05
8.56838e-06
1.88174e-05
2.18028e-05
3.59968e-05
6.16538e-05
0.0001396
0.00012441
8.61027e-05
8.02544e-05
8.04108e-05
5.10057e-05
2.78933e-05
2.36248e-05
0.000223758
0.000169453
0.000257898
0.00031181
0.000216185
2.91367e-05
1.68504e-05
1.88174e-05
2.18028e-05
2.25126e-05
2.36178e-05
2.7651e-05
2.82632e-05
4.14604e-05
5.36916e-05
5.66708e-05
4.00948e-05
1.82075e-05
2.36248e-05
0.000396387
0.000169453
0.000257898
0.000368788
0.000263265
7.62725e-05
8.84514e-05
5.01843e-05
3.21925e-05
2.25126e-05
2.36178e-05
2.7651e-05
2.70402e-05
4.14604e-05
5.36916e-05
5.66708e-05
4.00948e-05
1.82075e-05
2.57295e-05
8.24894e-06
8.43116e-06
8.86127e-06
9.18377e-06
9.23426e-06
9.11408e-06
9.45384e-06
1.01595e-05
1.0769e-05
1.13012e-05
1.17688e-05
1.21328e-05
1.23908e-05
1.22335e-05
1.22522e-05
1.16991e-05
1.15037e-05
1.06207e-05
1.05578e-05
1.05087e-05
1.10126e-05
1.42563e-05
1.36387e-05
0.000118043
0.000120206
0.000116992
0.00010792
9.12903e-05
5.30632e-05
3.26699e-05
2.85159e-05
2.47628e-05
2.17331e-05
1.9594e-05
1.78353e-05
1.73063e-05
1.73737e-05
1.78303e-05
1.74268e-05
1.7559e-05
1.67576e-05
1.7408e-05
1.88223e-05
2.87144e-05
0.000112768
6.22409e-05
0.000244846
0.000266733
0.000288815
0.000309851
0.000322442
0.000323271
0.000299485
0.000241724
0.000185419
0.000137647
8.95176e-05
6.00325e-05
4.81692e-05
4.23512e-05
3.81558e-05
3.22592e-05
3.02246e-05
2.58094e-05
2.36547e-05
2.28549e-05
3.7845e-05
0.000159163
0.000195178
0.000283941
0.000303634
0.000329878
0.00035981
0.000402278
0.000464807
0.000557379
0.000571547
0.000582661
0.000653418
0.000800794
0.00107321
0.00111319
0.000860461
0.000644655
0.000477253
0.000338861
0.000168589
6.76669e-05
3.60581e-05
5.55039e-05
0.000102859
0.00039397
0.000355661
0.000381944
0.000420977
0.000465541
0.000542496
0.000650367
0.000798865
0.00101004
0.00150013
0.00201623
0.00261948
0.00313757
0.00286105
0.00178198
0.00141972
0.000919486
0.000586384
0.000410062
0.00025196
0.000120715
9.51278e-05
0.00019509
0.000195135
0.000465987
0.000490884
0.000534196
0.000598524
0.00070969
0.000854618
0.0010588
0.00140975
0.00204948
0.00276311
0.00297428
0.00257997
0.00179838
0.00130734
0.00123208
0.00123208
0.00106339
0.000945778
0.00102289
0.00078564
0.000566994
0.000324548
0.000327174
0.000565271
0.000586792
0.00062846
0.000703255
0.000816494
0.00096412
0.00116973
0.00151338
0.00197699
0.00239016
0.00215715
0.00199434
0.00236147
0.00165129
0.001344
0.0014229
0.00217017
0.00244482
0.0025365
0.00246038
0.00234895
0.00201249
0.00150215
0.000664586
0.000687291
0.000733287
0.000814753
0.000932928
0.00107636
0.00127737
0.00159939
0.00200309
0.00208107
0.00175654
0.00135802
0.0017896
0.00206512
0.00172555
0.00209964
0.00221135
0.00150654
0.00145893
0.00182904
0.0025069
0.00265034
0.00245796
0.000755162
0.000777366
0.000822974
0.000887623
0.000980119
0.00110815
0.00127715
0.00153267
0.00183696
0.00190862
0.00138202
0.00103558
0.000959851
0.00143429
0.00175869
0.00187754
0.00138878
0.00117089
0.00110028
0.00104281
0.00117561
0.00201206
0.00211425
0.000826634
0.000847974
0.000890723
0.000957993
0.00103787
0.00114854
0.00128984
0.00148472
0.00171284
0.00178709
0.00135691
0.00072408
0.000621659
0.00061299
0.000777747
0.00114116
0.0014452
0.00124115
0.000943991
0.000908898
0.000908898
0.000911457
0.00093287
0.000885239
0.000903599
0.000932674
0.000975486
0.00103902
0.00112459
0.00123075
0.00136623
0.00152921
0.00160365
0.00144018
0.00104632
0.000590555
0.000240819
0.000240819
0.000306549
0.000569415
0.000840773
0.00115245
0.00113104
0.000783285
0.000648011
0.000547139
0.000924191
0.000939291
0.000969553
0.00100545
0.00105496
0.00111966
0.0011973
0.00128092
0.00136457
0.00141593
0.00137714
0.00114603
0.000869688
0.00054829
0.000289749
0.000261223
0.000261223
0.000305959
0.000504313
0.000764343
0.000980516
0.000856091
0.000837195
0.000950916
0.00095792
0.000972255
0.000996972
0.0010322
0.00107688
0.0011287
0.00117823
0.00122147
0.00124568
0.00122762
0.00113278
0.000949762
0.000740945
0.000544212
0.000389025
0.000283028
0.000344379
0.000394882
0.000405831
0.00041658
0.000608831
0.000634975
0.000963698
0.000972217
0.000984172
0.00100226
0.00102459
0.00104859
0.00107173
0.00109426
0.00110736
0.00110926
0.00107765
0.00102123
0.00090891
0.00077492
0.000658035
0.000544814
0.000440879
0.00041798
0.000449231
0.000417976
0.000488014
0.000335317
0.000121944
0.000966218
0.000966218
0.00097266
0.000983184
0.000996891
0.0010092
0.00101704
0.00102276
0.00101681
0.00100394
0.000965037
0.000910283
0.000832964
0.000737062
0.000647611
0.000580882
0.000537331
0.000506658
0.000500168
0.000492523
0.000520558
0.00048219
0.000372466
0.000963798
0.000965391
0.000968467
0.00097179
0.000974468
0.000976327
0.000972332
0.00096593
0.000946726
0.000923085
0.000879098
0.000823434
0.000751219
0.000678407
0.000613837
0.000564126
0.000524445
0.000491747
0.000484387
0.000476995
0.000500345
0.000514115
0.000360059
0.000956253
0.000956253
0.000956852
0.000955376
0.000951793
0.000946524
0.000934194
0.000919415
0.000892145
0.000859786
0.000811507
0.00075399
0.000690592
0.000625588
0.000565797
0.000519711
0.000478853
0.000446588
0.000435221
0.000425624
0.000433722
0.000452779
0.000381995
0.000952337
0.000950639
0.000947869
0.00094255
0.000933895
0.000923055
0.000904332
0.00088313
0.000850423
0.000810319
0.000760094
0.00070263
0.000640815
0.000579287
0.000521381
0.000472843
0.000429524
0.000393305
0.000373814
0.000367369
0.000373937
0.000392391
0.000323393
0.000944949
0.000941813
0.000936366
0.00092745
0.000915368
0.000897818
0.000875078
0.000845167
0.000807874
0.000763117
0.000711452
0.000654719
0.000594597
0.0005349
0.0004771
0.000426609
0.000381247
0.000338728
0.000311279
0.000302336
0.000311283
0.000337079
0.000312186
0.000942428
0.000938434
0.000931303
0.000919828
0.000904328
0.000883033
0.0008571
0.000824708
0.000785774
0.000740061
0.000687466
0.000629581
0.00056697
0.000503392
0.000440401
0.000382278
0.000331803
0.000285291
0.000247412
0.000234109
0.000246447
0.000282498
0.000267115
0.000940806
0.000935517
0.000926797
0.00091343
0.000895647
0.000871571
0.00084247
0.000806461
0.000763964
0.000714903
0.000659071
0.000599298
0.00053565
0.000471149
0.000406327
0.000343252
0.000285808
0.000235441
0.000184281
0.000161412
0.000180791
0.000233642
0.000257756
0.000944308
0.000938641
0.000929024
0.000914373
0.000895132
0.000869803
0.000839657
0.000803016
0.00076063
0.000712072
0.000656786
0.000596774
0.000530702
0.000461152
0.000388556
0.000315248
0.00024426
0.000179265
0.000126747
7.99219e-05
0.000114519
0.000172281
0.00023504
0.000950926
0.000944741
0.00093441
0.000918943
0.000898875
0.000872666
0.000841029
0.000802238
0.000757422
0.000706321
0.000648768
0.000586727
0.00052019
0.000451105
0.000378472
0.00030231
0.000223863
0.000143854
7.18041e-05
5.64849e-05
6.3681e-05
0.000130384
0.000219604
0.00096219
0.000957051
0.000946382
0.000930545
0.000910077
0.000883975
0.000852908
0.00081537
0.000772333
0.000723518
0.000668867
0.000609003
0.000543114
0.000471772
0.0003957
0.000317675
0.000237827
0.000160253
9.74129e-05
5.64849e-05
8.79533e-05
0.000145612
0.000230796
0.000977073
0.000972397
0.000963596
0.000947994
0.000927633
0.000901554
0.000870142
0.000832277
0.000788954
0.000739884
0.000685535
0.000626578
0.0005646
0.000500653
0.000435218
0.000368758
0.000304651
0.000237592
0.000174424
0.000136606
0.000158697
0.00022657
0.000265799
0.000997582
0.000993126
0.000984913
0.000971937
0.000952876
0.000928405
0.000899448
0.000865146
0.000826243
0.000782295
0.000734256
0.000682284
0.000626543
0.000567547
0.000504224
0.000445161
0.000383312
0.000333971
0.000292585
0.000280809
0.000295139
0.000342632
0.0003597
0.00102459
0.00102059
0.00101242
0.00100014
0.000983346
0.000962135
0.000935731
0.000903309
0.000866904
0.000826403
0.0007831
0.000737987
0.000687583
0.000638567
0.000585508
0.000539859
0.000493437
0.000463722
0.000443672
0.000452858
0.000466793
0.000504526
0.00046747
0.00105833
0.00105487
0.00104705
0.00103594
0.00102064
0.00100142
0.000978085
0.000951103
0.000919369
0.00088549
0.000846792
0.000808611
0.000766355
0.000727389
0.000687408
0.000655927
0.00062823
0.000623215
0.000624888
0.000634145
0.000642399
0.000666429
0.00057193
0.00109982
0.00109694
0.00108981
0.00108013
0.00106664
0.00105001
0.00103025
0.00100751
0.000981576
0.000953997
0.000923662
0.000894391
0.000863171
0.000834914
0.0008083
0.000793915
0.000791879
0.000800655
0.000791054
0.000786901
0.000783832
0.000795312
0.000649402
0.00114859
0.0011464
0.00114048
0.00113277
0.00112184
0.00110858
0.00109294
0.00107501
0.00105517
0.0010342
0.00101205
0.000990582
0.000969021
0.000953582
0.000947913
0.000956787
0.000962611
0.000938882
0.000908856
0.000891784
0.000878347
0.000884243
0.000718826
0.00120556
0.00120394
0.00119932
0.00119357
0.00118533
0.00117572
0.00116445
0.00115181
0.00113822
0.00112416
0.00111006
0.00109748
0.00108836
0.00109009
0.00110594
0.00111178
0.00107196
0.00102161
0.000982611
0.000950266
0.000936498
0.000947382
0.000773708
0.00127025
0.00126936
0.00126643
0.00126295
0.00125764
0.00125165
0.00124447
0.00123669
0.0012285
0.00122049
0.00121378
0.00121102
0.0012177
0.0012374
0.00124564
0.00116623
0.00110463
0.00104167
0.000991274
0.00097511
0.000968342
0.000994061
0.000824458
0.0013419
0.00134173
0.00134035
0.00133904
0.00133658
0.00133408
0.00133078
0.00132757
0.00132459
0.00132341
0.00132679
0.00133844
0.00136125
0.00137526
0.00128255
0.00119454
0.00110799
0.00102883
0.000985351
0.000976781
0.000981003
0.00101455
0.00086108
0.00142276
0.00142307
0.00142313
0.00142361
0.00142352
0.00142378
0.0014234
0.00142381
0.00142547
0.00143198
0.00144635
0.00146987
0.0014895
0.00137791
0.00126626
0.00116682
0.00106928
0.00100119
0.000966672
0.00096261
0.000984233
0.00103453
0.000895395
0.00150747
0.0015087
0.00151075
0.00151331
0.00151546
0.00151857
0.00152153
0.00152658
0.00153447
0.00155028
0.00157398
0.00159862
0.00151549
0.00137845
0.00125691
0.00113462
0.0010283
0.000962837
0.000934328
0.000943562
0.000970087
0.00103656
0.000916729
0.00160439
0.00160581
0.00160787
0.00161086
0.00161459
0.00161981
0.00162556
0.00163499
0.0016492
0.00167159
0.00169639
0.00164105
0.00148419
0.00133619
0.00119802
0.00106811
0.00097571
0.000918069
0.00089924
0.000926412
0.000972533
0.00105517
0.000947469
0.00170086
0.0017028
0.00170566
0.00171077
0.00171694
0.00172425
0.00173331
0.00174827
0.00176934
0.00179497
0.00179752
0.0016482
0.00147045
0.00130741
0.00114904
0.00101204
0.00091842
0.000873117
0.000872806
0.000891846
0.000954488
0.00105268
0.000962473
0.00181167
0.00181397
0.00181755
0.00182295
0.00182844
0.00183684
0.00184845
0.00186746
0.00189037
0.00190899
0.00179494
0.00159694
0.00140312
0.00122515
0.00106525
0.000946181
0.000873562
0.000830924
0.00084897
0.000892096
0.000972859
0.00108496
0.000998487
0.0019174
0.00192015
0.00192475
0.00193085
0.00193851
0.00194992
0.00196533
0.00198919
0.00201108
0.0019884
0.00180204
0.00157687
0.00137142
0.00118107
0.00101444
0.00089088
0.000820505
0.000799059
0.000812635
0.000863184
0.000958455
0.00108308
0.00101038
0.00204128
0.00204484
0.00205054
0.00205792
0.00206625
0.00207688
0.00209335
0.00211456
0.00212453
0.00198227
0.00173851
0.0014955
0.00127781
0.00108684
0.000937294
0.000836979
0.000784886
0.000774896
0.000812361
0.00088365
0.000994594
0.00112994
0.00105434
0.00215306
0.00215712
0.00216348
0.00217181
0.00218099
0.00219475
0.00221523
0.00223494
0.00220985
0.00200552
0.0017325
0.00147831
0.00125004
0.00105233
0.000896389
0.00079254
0.000748313
0.00075443
0.000781928
0.000864001
0.000984684
0.00112768
0.00106095
0.00229087
0.00229606
0.00230465
0.00231564
0.00232844
0.00234417
0.00236014
0.00236486
0.00222293
0.00194115
0.00163833
0.00137445
0.00114683
0.000961697
0.000825669
0.000749958
0.000742511
0.000742511
0.000798108
0.000901731
0.00103744
0.00119052
0.0011163
7.77239e-05
7.77239e-05
6.65101e-05
6.65101e-05
3.63315e-05
3.63315e-05
9.04339e-05
0.00014832
0.000119287
0.000119287
0.000163573
0.000368523
0.000321513
0.000322336
0.000353064
0.000374705
0.000241236
0.000184154
8.55244e-05
8.55244e-05
0.000163473
0.000126383
9.15864e-05
9.15864e-05
0.000856015
0.000705325
0.000657304
0.000657304
0.00150997
0.00141179
0.00137417
0.00137417
0.00150699
0.00150699
0.00159967
0.0016344
0.00102011
0.000986468
0.000964689
0.000964689
0.000547139
0.000575544
0.000669097
0.00064514
0.000385427
0.000236206
0.000207298
0.000207298
0.000548629
0.000548629
0.000577867
0.000591998
4.14545e-05
3.67588e-05
3.67588e-05
0.000101268
0.000255395
0.000255395
0.00025836
0.00025836
0.000224289
0.000217067
0.000208525
0.000208525
0.000249434
0.000249434
0.000252122
0.000252977
0.000211843
0.000211843
0.000216435
0.000220459
0.000209811
0.000209811
0.00021871
0.000227748
0.000182773
0.000182773
0.000194568
0.000206769
0.000179987
0.000179987
0.000194436
0.000209396
0.000168524
0.000168524
0.000186155
0.000203989
0.000165509
0.000165509
0.000184815
0.00020433
0.000169239
0.000169239
0.000188664
0.00020833
0.000186208
0.000186208
0.000203183
0.00022073
0.000242931
0.000242931
0.000256738
0.000270987
0.000309844
0.000309844
0.000321001
0.000332944
0.00037546
0.00037546
0.000386035
0.00039866
0.000427195
0.000427195
0.00044047
0.000455385
0.000474557
0.000474557
0.000490319
0.000507361
0.000513194
0.000513194
0.000531625
0.000550883
0.000548556
0.000548556
0.000568963
0.000589692
0.000574621
0.000574621
0.000596908
0.000619038
0.000598961
0.000598961
0.000623133
0.000646894
0.000615118
0.000615118
0.000641447
0.00066715
0.000636607
0.000636607
0.000664608
0.000691842
0.000648093
0.000648093
0.000677927
0.00070689
0.000672436
0.000672436
0.000703329
0.000733354
0.000681541
0.000681541
0.000713818
0.00074517
0.000710684
0.000710684
0.000743806
0.000775926
0.000715884
0.000715884
0.00074991
0.000782878
0.000752418
0.000752418
0.000787362
0.000821219
0.000172561
0.000407752
0.000330162
0.000503484
0.000378798
0.000345247
0.000398735
0.000395859
0.000228467
6.25846e-05
4.82658e-05
3.09738e-05
2.70402e-05
0.000101311
0.000251797
0.000254345
7.87165e-05
2.02881e-05
9.56057e-05
0.000392707
0.000453487
0.000360216
0.000446693
0.000544429
0.000831612
0.000764617
0.00111238
0.00127471
0.00168925
0.00159269
0.00113129
0.000781815
0.000887466
0.000555535
0.000173594
0.000134812
7.80849e-05
0.000388146
0.000811422
0.000291529
0.000309983
0.000417935
0.000652501
0.00224283
0.00309898
0.00343425
0.00317876
0.00358091
0.00277806
0.000906515
0.000171394
0.000163304
0.000528733
0.000243045
0.000107342
0.000360845
0.000885326
0.000275333
0.000291529
0.000315188
0.000468738
0.00252018
0.00540241
0.00334697
0.00237918
0.0020094
0.00133302
0.00144185
0.000210158
9.5833e-05
9.53054e-05
0.000139527
0.000476098
0.000107342
0.0001494
0.000458484
9.8241e-05
0.000257429
0.000435283
0.00270799
0.00583529
0.00249573
0.00114281
0.00102921
0.000509118
0.000475879
0.00105041
0.000184108
9.5833e-05
9.53054e-05
9.20915e-05
0.00015761
0.000407847
0.000216456
9.20242e-05
0.000111613
0.000132556
0.00217007
0.00494571
0.00274359
0.000783633
0.000851608
0.000481621
0.000771721
0.00038042
0.000759557
0.000249838
0.000108015
0.000111911
9.20915e-05
7.86597e-05
0.000109062
0.000108518
6.68606e-05
0.000531011
0.00185798
0.0040913
0.00359976
0.00113954
0.000783633
0.000518124
0.000369737
0.000503978
0.00038042
0.000463682
0.000477241
0.00037587
0.000440891
0.000135153
7.86597e-05
7.25448e-05
7.25448e-05
6.68606e-05
0.00215904
0.00356048
0.00343133
0.00178696
0.000439565
0.000658501
0.000440371
0.000327412
0.000362761
0.000408795
0.000569877
0.000741817
0.000840129
0.00118078
0.000699332
0.000148391
8.05923e-05
7.33786e-05
8.00388e-05
0.00268412
0.00246798
0.00206331
0.000885001
0.000439565
0.000419142
0.000339873
0.000327412
0.000355263
0.000388546
0.000617075
0.00104087
0.000840129
0.00102372
0.00149276
0.000945411
0.000259487
0.000202894
0.000247937
0.00164187
0.00139158
0.000714645
0.000509709
0.000377148
0.000151983
0.000261787
0.00034613
0.000425208
0.000542299
0.000826114
0.000998081
0.00127564
0.00134909
0.00199195
0.00205356
0.00162066
0.00139128
0.00163032
0.000618832
0.000499767
0.000225457
0.000294958
0.000156291
0.000128586
0.000194863
0.000440357
0.000852957
0.000966079
0.00117326
0.00125643
0.00150575
0.00138622
0.00195871
0.00242497
0.00256585
0.00258471
0.00271606
0.000328996
0.000361959
0.000225457
0.000303806
0.000258386
0.000128586
0.000568444
0.000780498
0.00112134
0.00136108
0.00153205
0.00148817
0.00109076
0.00097417
0.00142906
0.00198938
0.00279436
0.00310836
0.00309974
0.000558283
0.000475266
0.000411975
0.000360457
0.000258386
0.000292565
0.000835654
0.00144644
0.00144463
0.0014692
0.00144348
0.00122381
0.000937753
0.00097417
0.0012753
0.00179058
0.00235896
0.00293475
0.00311884
0.00025073
0.000328875
0.000313472
0.000345835
0.000261782
0.00056435
0.00093286
0.00103962
0.000760366
0.000821583
0.000968042
0.0010232
0.000937753
0.00102716
0.00145364
0.00179337
0.00212087
0.00262401
0.00308447
0.000378318
0.000334799
0.000220211
0.000126338
0.000266071
0.000384565
0.000752388
0.000720325
0.000401295
0.000401295
0.000593143
0.000871423
0.00104604
0.00127739
0.00158816
0.00181011
0.00204449
0.00240972
0.003045
0.000335036
0.000325275
0.000215632
9.63438e-05
9.63438e-05
0.000211382
0.000511664
0.000766221
0.000520308
0.000476889
0.000674187
0.000899589
0.00126716
0.00149412
0.00172296
0.00183905
0.00197374
0.00224263
0.00284827
0.000419502
0.000413535
0.000351418
0.000279568
0.000261756
0.000370852
0.000542845
0.000718764
0.000766481
0.000705737
0.0008284
0.00116395
0.00152654
0.00164528
0.00180297
0.00175304
0.00186276
0.00210277
0.00267233
0.000377534
0.000499805
0.000503105
0.000503686
0.000593687
0.000618239
0.000739507
0.00087166
0.00100456
0.00102906
0.00126831
0.00151311
0.00171884
0.00172352
0.00175167
0.0015826
0.00167726
0.00200088
0.00263392
0.000395692
0.000537335
0.000595219
0.000652324
0.000784648
0.000933067
0.0010748
0.00120983
0.001364
0.00146522
0.0016737
0.00177229
0.00183101
0.00165869
0.0015937
0.00134428
0.00141116
0.00168328
0.00266913
0.000368197
0.000569969
0.000644048
0.0007427
0.000884887
0.00105744
0.00127074
0.00145618
0.00163686
0.00175063
0.00183673
0.00178485
0.00170289
0.00149804
0.00139969
0.00111362
0.00115404
0.00140837
0.00236341
0.000376722
0.000585318
0.000678935
0.000785611
0.000928799
0.00109148
0.00128391
0.00145808
0.00160161
0.00169677
0.00172292
0.00165275
0.00155987
0.00135691
0.00124932
0.000939259
0.000938541
0.00111472
0.00220407
0.000373316
0.000610745
0.000715103
0.000830933
0.000973244
0.00112265
0.00129095
0.00145808
0.00158039
0.00165527
0.00164804
0.00157281
0.00147127
0.00126908
0.00113247
0.00082024
0.000777488
0.000762779
0.00201248
0.000376036
0.000627653
0.000743428
0.00086673
0.00101363
0.00115591
0.00131583
0.00145874
0.00157576
0.00163761
0.00162266
0.00154549
0.0014363
0.0012289
0.00104485
0.000758914
0.000698672
0.000466071
0.00173891
0.000383671
0.000642884
0.000764143
0.000894149
0.00104186
0.00118113
0.0013266
0.00144749
0.00155286
0.0016099
0.00161566
0.00154437
0.0014363
0.0012289
0.00100861
0.000758914
0.000556582
0.000383216
0.00160951
0.000400644
0.000657508
0.000778937
0.000910741
0.00105212
0.00118385
0.00131061
0.00140465
0.00151026
0.00155606
0.00159513
0.00154437
0.0014367
0.00123175
0.00107969
0.000788843
0.00068756
0.000383216
0.00148409
0.000480187
0.000710105
0.000825761
0.000955
0.00107684
0.00118439
0.00131061
0.00136923
0.00145766
0.00148675
0.00153677
0.00152709
0.00146092
0.0012722
0.00115884
0.000889898
0.000857155
0.000550961
0.00133518
0.000581606
0.000816466
0.000927059
0.0010525
0.00114272
0.00121767
0.00131202
0.00136923
0.00142949
0.00143091
0.00146646
0.00146728
0.00148594
0.00132108
0.00122257
0.000985557
0.000915462
0.000682068
0.0010031
0.000694042
0.000949397
0.00105855
0.00117794
0.00122716
0.00127641
0.00134323
0.00137371
0.00142949
0.0014307
0.00143032
0.00139806
0.00146533
0.00137462
0.00129518
0.00108164
0.000997211
0.000741124
0.000575639
0.000791141
0.00108228
0.00119266
0.00129353
0.00130219
0.0013561
0.00141915
0.00144098
0.00146876
0.0014307
0.00143032
0.0013656
0.00141674
0.00142437
0.00137934
0.00119174
0.00109406
0.000706499
0.000363693
0.000880519
0.00120354
0.00130752
0.00138484
0.00137484
0.00146227
0.00154123
0.00157375
0.00158298
0.00150801
0.00145537
0.0013656
0.00138503
0.00145769
0.00146938
0.00131505
0.00122464
0.00077118
0.000363693
0.000955509
0.00131019
0.0014018
0.0014655
0.0014618
0.00159173
0.00169736
0.00175643
0.00175406
0.00165213
0.00154312
0.00138996
0.00138211
0.00147782
0.00156599
0.00145412
0.00138195
0.00102554
0.000463971
0.00102175
0.0013997
0.00148251
0.00154833
0.00156254
0.00172723
0.00186446
0.0019602
0.00194972
0.00183227
0.00166806
0.00145741
0.00138211
0.00149423
0.00166857
0.00160983
0.0015605
0.00131628
0.000743403
0.00107276
0.00147719
0.00155924
0.00163661
0.00167151
0.00185804
0.00202949
0.00216464
0.00215315
0.00203322
0.00181766
0.00154929
0.00140918
0.00151908
0.00178156
0.00178863
0.00177068
0.00160545
0.00104409
0.00112176
0.00154844
0.00163419
0.00172245
0.001779
0.0019803
0.00218438
0.00235829
0.00235601
0.00224571
0.00198899
0.00164807
0.00144127
0.0015506
0.00189663
0.0019753
0.00199235
0.00185081
0.00134964
0.00115857
0.00161243
0.00170447
0.00180283
0.00188411
0.00209809
0.00232824
0.00254189
0.00255864
0.00246786
0.00218454
0.00175908
0.00146677
0.00157999
0.00201823
0.00216924
0.00221739
0.00209365
0.00163517
0.00120254
0.00167367
0.00177385
0.00188147
0.00198485
0.00221203
0.00246057
0.00271311
0.00275375
0.00269408
0.00239632
0.00188443
0.00146875
0.00160476
0.00210703
0.00236543
0.00244816
0.00233878
0.00190438
0.00123075
0.00173016
0.00183936
0.00195563
0.00207677
0.00231948
0.00258118
0.00286928
0.00293598
0.00291993
0.00262149
0.00199924
0.00144395
0.00160393
0.00217041
0.00255537
0.00266777
0.0025724
0.00215902
0.00127686
0.00178716
0.00190442
0.00202823
0.00216221
0.00242068
0.00269118
0.00300864
0.00310216
0.00313712
0.00284939
0.00201217
0.00129843
0.00158523
0.00220397
0.00273408
0.00287467
0.00280057
0.00238509
0.00129894
0.00183948
0.00196373
0.00209492
0.00223681
0.00251072
0.002788
0.00312715
0.00325058
0.00333324
0.00301939
0.00194672
0.00103962
0.00152772
0.00224628
0.00288256
0.00304984
0.00298921
0.00256812
0.00135176
0.00189472
0.00202444
0.00216332
0.00230871
0.00259446
0.00287595
0.00322643
0.00338161
0.0034898
0.00311192
0.00172748
0.000728099
0.00131035
0.00221648
0.00300589
0.00319172
0.00314592
0.00272138
0.0013648
0.00194284
0.00207577
0.00222155
0.00236754
0.00266092
0.00294473
0.00329825
0.00348076
0.00359222
0.00320004
0.00158757
0.000416704
0.00110647
0.00220963
0.00308572
0.00328935
0.00325082
0.00283646
0.0014304
0.0019994
0.00213427
0.00228706
0.00243347
0.00272941
0.00301614
0.00336165
0.00356562
0.00366076
0.00322758
0.00138005
0.000416704
0.000876829
0.00209921
0.00310764
0.00335351
0.00334673
0.00293455
)
;

boundaryField
{
    leftWall
    {
        type            calculated;
        value           uniform 0;
    }
    rightWall
    {
        type            calculated;
        value           uniform 0;
    }
    lowerWall
    {
        type            calculated;
        value           uniform 0;
    }
    atmosphere
    {
        type            calculated;
        value           uniform 0;
    }
    defaultFaces
    {
        type            empty;
    }
}


// ************************************************************************* //
