/*--------------------------------*- C++ -*----------------------------------*\
| =========                 |                                                 |
| \\      /  F ield         | OpenFOAM: The Open Source CFD Toolbox           |
|  \\    /   O peration     | Version:  2012                                  |
|   \\  /    A nd           | Website:  www.openfoam.com                      |
|    \\/     M anipulation  |                                                 |
\*---------------------------------------------------------------------------*/
FoamFile
{
    version     2.0;
    format      ascii;
    class       volScalarField;
    location    "0.77";
    object      p;
}
// * * * * * * * * * * * * * * * * * * * * * * * * * * * * * * * * * * * * * //

dimensions      [1 -1 -2 0 0 0 0];


internalField   nonuniform List<scalar> 
2268
(
101940
101944
101953
101966
101981
102000
102021
102044
102068
102095
102119
102148
102171
102194
102214
102224
102236
102231
102236
102218
102214
102191
102187
101880
101884
101893
101905
101921
101940
101961
101985
102008
102036
102060
102089
102113
102135
102155
102164
102177
102171
102175
102158
102152
102130
102125
101818
101823
101832
101845
101861
101880
101901
101925
101949
101976
102001
102030
102055
102079
102100
102110
102124
102118
102122
102102
102098
102068
102066
101756
101760
101769
101782
101799
101818
101840
101864
101889
101917
101943
101973
101998
102022
102041
102050
102062
102055
102059
102038
102031
102001
101995
101691
101696
101705
101719
101736
101757
101779
101804
101829
101857
101884
101914
101942
101967
101992
102002
102016
102008
102011
101985
101980
101934
101934
101626
101631
101641
101655
101672
101693
101716
101742
101768
101797
101826
101857
101885
101912
101931
101940
101951
101942
101944
101920
101907
101861
101850
101557
101563
101574
101589
101608
101630
101654
101680
101707
101736
101766
101799
101830
101860
101890
101899
101915
101901
101905
101870
101857
101779
101775
101491
101496
101507
101523
101542
101565
101590
101617
101645
101676
101707
101742
101776
101806
101826
101835
101842
101830
101830
101801
101781
101703
101672
102920
102293
101957
101825
102059
102390
102425
102357
102236
102250
102231
102219
102199
102199
102213
102307
102508
103304
103513
102820
102164
101852
101741
101974
102381
102373
102305
102228
102199
102178
102169
102158
102159
102163
102225
102355
103144
103328
102468
101954
101679
101665
101887
102303
102388
102245
102084
102138
102139
102144
102134
102139
102160
102202
102316
103062
103140
102259
101780
101583
101615
101800
102197
102280
102228
102192
102134
102127
102136
102137
102142
102145
102181
102208
102817
102935
101998
101618
101566
101577
101716
102059
102142
102089
101998
102103
102129
102138
102130
102136
102156
102196
102305
102873
102840
101848
101578
101565
101576
101585
101928
101951
101920
101986
102062
102112
102127
102129
102126
102132
102180
102286
102719
102702
101722
101571
101565
101571
101594
101758
101738
101734
101743
101877
102025
102196
102279
102238
102272
102291
102346
102734
102673
101660
101550
101565
101551
101551
101615
101543
101524
101611
101759
102026
102321
102489
102383
102355
102288
102336
102561
102534
101392
101397
101408
101423
101441
101465
101492
101520
101548
101580
101611
101650
101688
101731
101778
101787
101806
101784
101787
101739
101712
101564
101548
101335
101336
101338
101343
101349
101360
101376
101398
101421
101451
101491
101527
101588
101618
101629
101635
101616
101605
101596
101575
101517
101431
101332
101331
101331
101331
101331
101332
101333
101335
101340
101348
101362
101378
101434
101456
101571
101654
101654
101664
101611
101610
101571
101545
101450
101436
101330
101330
101330
101331
101331
101331
101331
101332
101332
101339
101368
101391
101500
101514
101527
101514
101453
101409
101419
101415
101427
101422
101459
101330
101330
101331
101331
101331
101331
101331
101332
101332
101332
101332
101378
101378
101479
101526
101506
101466
101405
101415
101431
101431
101418
101429
101330
101330
101330
101330
101330
101330
101330
101331
101330
101331
101326
101337
101373
101402
101397
101387
101344
101337
101335
101368
101385
101394
101399
101330
101330
101330
101330
101330
101330
101330
101330
101329
101327
101326
101322
101325
101338
101349
101347
101353
101358
101363
101374
101373
101375
101374
101329
101329
101329
101329
101329
101329
101329
101329
101328
101327
101325
101324
101325
101324
101325
101321
101339
101332
101332
101367
101377
101379
101379
101329
101329
101329
101329
101329
101329
101328
101328
101327
101326
101324
101323
101324
101324
101325
101325
101328
101328
101316
101343
101370
101378
101376
101328
101328
101328
101328
101328
101328
101328
101328
101327
101326
101325
101324
101324
101324
101325
101326
101325
101336
101356
101325
101328
101365
101375
101328
101328
101328
101328
101328
101328
101327
101327
101327
101326
101325
101324
101324
101324
101325
101326
101326
101326
101325
101327
101349
101365
101355
101328
101328
101328
101328
101327
101327
101327
101327
101326
101326
101326
101325
101325
101325
101325
101326
101325
101326
101326
101326
101325
101325
101326
101327
101327
101327
101327
101327
101327
101327
101327
101326
101326
101326
101325
101325
101325
101325
101325
101326
101326
101325
101325
101326
101325
101326
101327
101327
101327
101327
101327
101327
101327
101326
101326
101326
101326
101325
101325
101325
101325
101325
101325
101326
101325
101325
101325
101325
101325
101327
101327
101327
101327
101327
101326
101326
101326
101326
101326
101326
101326
101325
101325
101325
101325
101325
101325
101325
101325
101325
101325
101326
101326
101326
101326
101326
101326
101326
101326
101326
101326
101326
101326
101325
101325
101325
101325
101325
101325
101325
101325
101325
101325
101325
101325
101326
101326
101326
101326
101326
101326
101326
101326
101326
101326
101325
101325
101325
101325
101325
101325
101325
101325
101325
101325
101325
101325
101326
101326
101326
101326
101326
101326
101326
101326
101326
101325
101325
101325
101325
101325
101325
101325
101325
101325
101325
101325
101325
101325
101325
101325
101326
101326
101325
101325
101325
101325
101325
101325
101325
101325
101325
101325
101325
101325
101325
101325
101325
101325
101325
101325
101325
101325
101325
101325
101325
101325
101325
101325
101325
101325
101325
101325
101325
101325
101325
101325
101325
101325
101325
101325
101325
101325
101325
101325
101325
101325
101325
101325
101325
101325
101325
101325
101325
101325
101325
101325
101325
101325
101325
101325
101325
101325
101325
101325
101325
101325
101325
101325
101325
101325
101325
101325
101325
101325
101325
101325
101325
101325
101325
101325
101325
101325
101325
101325
101325
101325
101325
101325
101325
101325
101325
101325
101324
101324
101324
101324
101324
101324
101324
101324
101324
101324
101324
101324
101325
101325
101325
101325
101325
101325
101325
101325
101325
101325
101325
101324
101324
101324
101324
101324
101324
101324
101324
101324
101324
101324
101324
101324
101324
101324
101324
101325
101325
101325
101325
101325
101325
101325
101324
101324
101324
101324
101324
101324
101324
101324
101324
101324
101324
101324
101324
101324
101324
101324
101324
101324
101324
101324
101325
101325
101325
101324
101324
101324
101324
101324
101324
101324
101324
101324
101324
101324
101324
101324
101324
101324
101324
101324
101324
101324
101324
101324
101324
101325
101323
101323
101323
101323
101323
101323
101323
101323
101323
101324
101324
101324
101324
101324
101324
101324
101324
101324
101324
101324
101324
101324
101324
101323
101323
101323
101323
101323
101323
101323
101323
101323
101323
101323
101323
101323
101323
101323
101324
101324
101324
101324
101324
101324
101324
101324
101323
101323
101323
101323
101323
101323
101323
101323
101323
101323
101323
101323
101323
101323
101323
101323
101323
101323
101323
101323
101323
101324
101324
101323
101323
101323
101323
101323
101323
101323
101323
101323
101323
101323
101323
101323
101323
101323
101323
101323
101323
101323
101323
101323
101323
101323
101322
101322
101322
101322
101322
101322
101322
101322
101322
101322
101322
101322
101322
101322
101322
101322
101323
101323
101323
101323
101323
101323
101323
101322
101322
101322
101322
101322
101322
101322
101322
101322
101322
101322
101322
101322
101322
101322
101322
101322
101322
101322
101322
101322
101322
101322
101322
101322
101322
101322
101322
101322
101322
101322
101322
101322
101322
101322
101322
101322
101322
101322
101322
101322
101322
101322
101322
101322
101322
101321
101321
101321
101321
101321
101321
101321
101321
101321
101321
101321
101321
101321
101321
101321
101321
101321
101321
101321
101321
101321
101321
101321
101321
101321
101321
101321
101321
101321
101321
101321
101321
101321
101321
101321
101321
101321
101321
101321
101321
101321
101321
101321
101321
101321
101321
101321
101321
101321
101321
101321
101321
101321
101321
101321
101321
101321
101320
101320
101320
101320
101320
101320
101320
101320
101320
101320
101320
101320
101320
101320
101320
101320
101320
101320
101320
101320
101320
101320
101320
101320
101320
101320
101320
101320
101320
101320
101320
101320
101320
101320
101320
101320
101320
101320
101320
101320
101320
101320
101320
101320
101320
101320
101320
101320
101319
101319
101319
101319
101319
101319
101319
101319
101320
101320
101319
101319
101319
101319
101319
101319
101319
101319
101319
101319
101319
101319
101319
101319
101319
101319
101319
101319
101319
101319
101319
101319
101319
101319
101319
101319
101319
101319
101319
101319
101319
101319
101319
101319
101319
101319
101319
101319
101319
101319
101319
101319
101319
101319
101319
101319
101318
101318
101318
101318
101318
101318
101318
101318
101318
101318
101318
101318
101318
101318
101318
101318
101318
101318
101318
101318
101318
101318
101318
101318
101318
101318
101318
101318
101318
101318
101318
101318
101318
101318
101318
101318
101318
101318
101318
101318
101318
101318
101318
101318
101318
101318
101358
101318
101361
101265
101328
101231
101191
101089
101363
101397
101383
101479
101446
101456
101465
101483
101425
101425
101417
101443
101404
101401
101392
101392
101375
101374
101374
101372
101380
101381
101381
101380
101379
101380
101380
101380
101385
101386
101386
101386
101365
101375
101380
101381
101338
101356
101367
101360
101325
101325
101325
101326
101325
101325
101325
101325
101326
101326
101326
101326
101325
101326
101326
101326
101326
101326
101326
101326
101326
101326
101326
101326
101325
101326
101326
101326
101325
101325
101325
101326
101325
101325
101325
101325
101325
101325
101325
101325
101325
101325
101325
101325
101325
101325
101325
101325
101325
101325
101325
101325
101325
101325
101325
101325
101324
101324
101324
101324
101324
101324
101324
101324
101324
101324
101324
101324
101323
101323
101323
101323
101323
101323
101323
101323
101322
101322
101322
101323
101322
101322
101322
101322
101321
101322
101322
101322
101321
101321
101321
101321
101321
101321
101321
101321
101320
101320
101320
101320
101320
101320
101320
101320
101319
101319
101319
101319
101319
101319
101319
101319
101318
101318
101318
101318
101318
101318
101318
101318
101642
101516
101565
101523
101510
101487
101442
101454
101465
101543
101769
102488
102971
102501
102447
102352
102278
102451
102411
101489
101496
101518
101469
101429
101436
101431
101440
101466
101548
101989
102375
102560
102519
102422
102305
102300
102303
102312
101396
101492
101461
101420
101444
101440
101436
101446
101453
101474
101551
102194
102412
102230
102417
102350
102309
102236
102319
101504
101352
101407
101393
101413
101431
101421
101447
101460
101451
101491
101649
102002
102088
102251
102154
102219
102178
102230
101469
101396
101385
101389
101401
101413
101412
101443
101458
101438
101453
101516
101793
101827
102023
102201
102245
102200
102232
101390
101381
101386
101378
101391
101403
101392
101434
101446
101434
101444
101429
101553
101613
101775
101896
102088
102100
102051
101378
101381
101382
101379
101376
101379
101374
101416
101407
101437
101401
101410
101349
101383
101472
101699
101825
101949
101910
101379
101383
101383
101381
101382
101379
101371
101405
101355
101421
101352
101338
101331
101336
101344
101422
101565
101684
101646
101382
101383
101382
101380
101378
101381
101367
101385
101353
101359
101332
101329
101331
101330
101330
101338
101366
101482
101545
101386
101387
101385
101383
101383
101371
101362
101351
101340
101338
101330
101330
101330
101332
101332
101333
101334
101352
101389
101383
101384
101384
101382
101384
101359
101343
101327
101329
101328
101328
101328
101328
101328
101328
101330
101333
101349
101374
101353
101344
101345
101351
101345
101330
101327
101329
101327
101327
101328
101328
101328
101328
101328
101328
101328
101329
101340
101329
101332
101332
101328
101327
101328
101326
101327
101327
101326
101327
101327
101327
101327
101327
101327
101328
101328
101331
101326
101326
101326
101326
101327
101326
101327
101326
101325
101326
101326
101327
101327
101327
101327
101327
101327
101327
101328
101326
101326
101326
101327
101326
101327
101326
101326
101325
101325
101326
101326
101326
101326
101327
101327
101327
101327
101328
101326
101326
101326
101326
101326
101326
101326
101326
101325
101325
101325
101326
101326
101326
101327
101327
101327
101327
101328
101326
101326
101326
101326
101326
101326
101326
101326
101326
101325
101325
101325
101326
101326
101327
101327
101327
101327
101328
101326
101326
101326
101326
101326
101326
101326
101326
101325
101325
101325
101326
101326
101326
101327
101327
101328
101328
101328
101326
101326
101326
101326
101326
101326
101326
101326
101326
101326
101326
101326
101326
101327
101327
101327
101328
101327
101329
101326
101326
101326
101326
101326
101326
101326
101326
101326
101326
101326
101326
101326
101327
101327
101327
101328
101327
101328
101325
101326
101326
101326
101326
101326
101326
101326
101326
101326
101326
101326
101327
101327
101327
101327
101328
101327
101328
101325
101326
101326
101326
101326
101326
101326
101326
101326
101326
101326
101326
101326
101327
101327
101327
101328
101327
101328
101325
101325
101325
101326
101326
101326
101326
101326
101326
101326
101326
101326
101326
101326
101327
101327
101328
101327
101329
101325
101325
101325
101325
101326
101326
101326
101326
101326
101326
101326
101326
101326
101326
101327
101327
101327
101326
101326
101325
101325
101325
101325
101325
101325
101325
101325
101325
101325
101326
101326
101326
101326
101326
101326
101327
101326
101326
101325
101325
101325
101325
101325
101325
101325
101325
101325
101325
101325
101325
101326
101326
101326
101326
101326
101326
101326
101324
101325
101325
101325
101325
101325
101325
101325
101325
101325
101325
101325
101326
101326
101326
101326
101326
101326
101327
101324
101324
101324
101324
101325
101325
101325
101325
101325
101325
101325
101325
101325
101325
101326
101326
101326
101326
101327
101324
101324
101324
101324
101324
101324
101324
101324
101325
101325
101325
101325
101325
101325
101325
101326
101326
101326
101327
101323
101324
101324
101324
101324
101324
101324
101324
101324
101324
101324
101324
101325
101325
101325
101325
101326
101326
101326
101323
101323
101323
101323
101323
101324
101324
101324
101324
101324
101324
101324
101324
101324
101325
101325
101325
101325
101326
101323
101323
101323
101323
101323
101323
101323
101323
101323
101324
101324
101324
101324
101324
101324
101324
101325
101325
101325
101322
101322
101322
101322
101323
101323
101323
101323
101323
101323
101323
101323
101323
101323
101323
101324
101324
101324
101324
101322
101322
101322
101322
101322
101322
101322
101322
101322
101322
101322
101322
101322
101323
101323
101323
101323
101324
101324
101321
101321
101321
101321
101322
101322
101322
101322
101322
101322
101322
101322
101322
101322
101322
101322
101323
101323
101323
101321
101321
101321
101321
101321
101321
101321
101321
101321
101321
101321
101321
101321
101321
101321
101321
101322
101322
101322
101320
101320
101320
101320
101320
101321
101321
101321
101320
101320
101320
101320
101320
101320
101320
101321
101321
101321
101321
101320
101320
101320
101320
101320
101320
101320
101320
101320
101320
101319
101319
101319
101319
101319
101320
101320
101320
101321
101319
101319
101319
101319
101319
101320
101319
101319
101319
101319
101319
101318
101317
101318
101318
101319
101319
101320
101320
101319
101319
101319
101319
101319
101319
101319
101319
101319
101318
101318
101317
101317
101317
101318
101318
101319
101319
101319
101318
101318
101319
101319
101319
101319
101319
101319
101318
101318
101318
101317
101316
101317
101317
101318
101318
101318
101318
101318
101317
101317
101317
101317
101317
101317
101317
101317
101317
101317
101317
101317
101317
101317
101318
101318
101318
101318
)
;

boundaryField
{
    leftWall
    {
        type            zeroGradient;
    }
    rightWall
    {
        type            zeroGradient;
    }
    lowerWall
    {
        type            zeroGradient;
    }
    atmosphere
    {
        type            fixedValue;
        value           uniform 101325;
    }
    defaultFaces
    {
        type            empty;
    }
}


// ************************************************************************* //
