/*--------------------------------*- C++ -*----------------------------------*\
| =========                 |                                                 |
| \\      /  F ield         | OpenFOAM: The Open Source CFD Toolbox           |
|  \\    /   O peration     | Version:  2012                                  |
|   \\  /    A nd           | Website:  www.openfoam.com                      |
|    \\/     M anipulation  |                                                 |
\*---------------------------------------------------------------------------*/
FoamFile
{
    version     2.0;
    format      ascii;
    class       surfaceScalarField;
    location    "0.77";
    object      phi;
}
// * * * * * * * * * * * * * * * * * * * * * * * * * * * * * * * * * * * * * //

dimensions      [0 3 -1 0 0 0 0];
oriented        oriented;


internalField   nonuniform List<scalar> 
4432
(
-2.59497e-06
2.59497e-06
-5.0368e-06
2.44183e-06
-7.52891e-06
2.49212e-06
-1.00564e-05
2.52753e-06
-1.23663e-05
2.30987e-06
-1.43413e-05
1.97496e-06
-1.61554e-05
1.81409e-06
-1.78081e-05
1.65268e-06
-1.9098e-05
1.28994e-06
-2.01168e-05
1.01879e-06
-2.08023e-05
6.85535e-07
-2.10465e-05
2.44199e-07
-2.08702e-05
-1.76304e-07
-2.02553e-05
-6.14888e-07
-1.91842e-05
-1.07117e-06
-1.76788e-05
-1.50537e-06
-1.55173e-05
-2.16152e-06
-1.28433e-05
-2.67402e-06
-9.54861e-06
-3.29468e-06
-5.87766e-06
-3.67095e-06
-2.85214e-06
-3.02552e-06
1.07494e-06
-3.92708e-06
1.07493e-06
-2.62023e-06
5.2152e-06
-5.07336e-06
4.89496e-06
-7.55714e-06
4.97589e-06
-1.00622e-05
5.03259e-06
-1.23673e-05
4.615e-06
-1.43664e-05
3.97407e-06
-1.62068e-05
3.65441e-06
-1.78596e-05
3.30553e-06
-1.91436e-05
2.57395e-06
-2.01776e-05
2.0528e-06
-2.08828e-05
1.39072e-06
-2.11472e-05
5.08639e-07
-2.09928e-05
-3.30742e-07
-2.0389e-05
-1.21872e-06
-1.93098e-05
-2.15037e-06
-1.77863e-05
-3.02885e-06
-1.56327e-05
-4.31509e-06
-1.29734e-05
-5.33335e-06
-9.75777e-06
-6.5103e-06
-6.23762e-06
-7.19111e-06
-3.25821e-06
-6.00493e-06
2.14504e-07
-7.39979e-06
1.28944e-06
-2.65622e-06
7.87142e-06
-5.1103e-06
7.34903e-06
-7.58485e-06
7.45044e-06
-1.00883e-05
7.53599e-06
-1.24493e-05
6.97607e-06
-1.45299e-05
6.05463e-06
-1.64127e-05
5.53727e-06
-1.80599e-05
4.95272e-06
-1.9341e-05
3.85502e-06
-2.03511e-05
3.06292e-06
-2.10028e-05
2.04237e-06
-2.12656e-05
7.71473e-07
-2.11316e-05
-4.64724e-07
-2.05704e-05
-1.77996e-06
-1.94948e-05
-3.22597e-06
-1.79291e-05
-4.59454e-06
-1.56912e-05
-6.55296e-06
-1.28907e-05
-8.13388e-06
-9.51555e-06
-9.88544e-06
-5.60391e-06
-1.11028e-05
-1.90939e-06
-9.69945e-06
1.95164e-06
-1.12608e-05
3.24107e-06
-2.6916e-06
1.0563e-05
-5.1688e-06
9.82623e-06
-7.66334e-06
9.94498e-06
-1.01292e-05
1.00018e-05
-1.24692e-05
9.31608e-06
-1.45888e-05
8.17422e-06
-1.65137e-05
7.46221e-06
-1.8179e-05
6.61804e-06
-1.94915e-05
5.16746e-06
-2.0559e-05
4.13045e-06
-2.13056e-05
2.78894e-06
-2.16702e-05
1.1361e-06
-2.15713e-05
-5.6362e-07
-2.09964e-05
-2.35489e-06
-1.99071e-05
-4.31526e-06
-1.83768e-05
-6.12482e-06
-1.62253e-05
-8.70453e-06
-1.34662e-05
-1.08929e-05
-1.0086e-05
-1.32657e-05
-6.00768e-06
-1.51811e-05
-1.84179e-06
-1.38653e-05
2.12356e-06
-1.52262e-05
5.36463e-06
-2.6964e-06
1.32594e-05
-5.22388e-06
1.23537e-05
-7.75443e-06
1.24755e-05
-1.02473e-05
1.24947e-05
-1.26657e-05
1.17344e-05
-1.49205e-05
1.04291e-05
-1.69224e-05
9.4641e-06
-1.85735e-05
8.26906e-06
-1.98575e-05
6.45155e-06
-2.08669e-05
5.1398e-06
-2.1526e-05
3.44801e-06
-2.18979e-05
1.50804e-06
-2.18469e-05
-6.14617e-07
-2.13548e-05
-2.84697e-06
-2.02986e-05
-5.37153e-06
-1.87352e-05
-7.68815e-06
-1.6476e-05
-1.09637e-05
-1.3509e-05
-1.38599e-05
-9.82255e-06
-1.69521e-05
-5.09727e-06
-1.99064e-05
4.95573e-07
-1.94582e-05
5.36859e-06
-2.00992e-05
1.07332e-05
-2.70461e-06
1.5964e-05
-5.36274e-06
1.50118e-05
-7.92626e-06
1.5039e-05
-1.03633e-05
1.49318e-05
-1.27124e-05
1.40834e-05
-1.49845e-05
1.27012e-05
-1.70374e-05
1.1517e-05
-1.874e-05
9.97165e-06
-2.01337e-05
7.84527e-06
-2.12778e-05
6.28393e-06
-2.20963e-05
4.26647e-06
-2.25998e-05
2.01152e-06
-2.25599e-05
-6.54496e-07
-2.20185e-05
-3.38842e-06
-2.09535e-05
-6.43649e-06
-1.94832e-05
-9.1585e-06
-1.73841e-05
-1.30628e-05
-1.45813e-05
-1.66627e-05
-1.08562e-05
-2.06772e-05
-5.74762e-06
-2.5015e-05
7.79248e-07
-2.59851e-05
5.96981e-06
-2.52898e-05
1.6703e-05
-2.6417e-06
1.86057e-05
-5.43167e-06
1.78018e-05
-8.08712e-06
1.76945e-05
-1.05729e-05
1.74176e-05
-1.30251e-05
1.65357e-05
-1.54883e-05
1.51644e-05
-1.76274e-05
1.36561e-05
-1.92792e-05
1.16235e-05
-2.05945e-05
9.16061e-06
-2.1639e-05
7.32845e-06
-2.23592e-05
4.98668e-06
-2.28862e-05
2.53845e-06
-2.29723e-05
-5.68366e-07
-2.26386e-05
-3.72211e-06
-2.16821e-05
-7.39304e-06
-2.02021e-05
-1.06385e-05
-1.7935e-05
-1.53299e-05
-1.48811e-05
-1.97166e-05
-1.08151e-05
-2.47432e-05
-4.91946e-06
-3.09106e-05
2.58459e-06
-3.34891e-05
8.66501e-06
-3.13702e-05
2.5368e-05
-2.62238e-06
2.12281e-05
-5.51053e-06
2.069e-05
-8.22291e-06
2.04069e-05
-1.06663e-05
1.9861e-05
-1.31119e-05
1.89812e-05
-1.57394e-05
1.77919e-05
-1.80638e-05
1.59805e-05
-1.98175e-05
1.33772e-05
-2.11962e-05
1.05393e-05
-2.23085e-05
8.44068e-06
-2.32122e-05
5.89041e-06
-2.38817e-05
3.20791e-06
-2.3887e-05
-5.63036e-07
-2.34063e-05
-4.20285e-06
-2.24392e-05
-8.36009e-06
-2.10682e-05
-1.20095e-05
-1.90014e-05
-1.73967e-05
-1.6433e-05
-2.2285e-05
-1.30794e-05
-2.80968e-05
-8.16674e-06
-3.58233e-05
-5.91459e-07
-4.10644e-05
4.41588e-06
-3.63776e-05
2.97839e-05
-7.07583e-05
7.07418e-05
-0.000108824
3.80382e-05
-0.000128867
2.00302e-05
-0.000131172
2.32006e-06
-0.000118747
-1.23836e-05
-0.000105423
-1.33221e-05
-0.000109382
3.96652e-06
-0.000124365
1.49359e-05
-0.0001363
1.19342e-05
-0.000144036
7.71574e-06
-0.000151199
7.1548e-06
-0.000158661
7.46069e-06
-0.000164844
6.18384e-06
-0.000168725
3.88538e-06
-0.000169257
5.45571e-07
-0.000160735
-8.49833e-06
-0.000123493
-3.71036e-05
-6.60796e-05
-5.74019e-05
-6.60979e-05
-5.90618e-05
0.000129794
-9.28555e-05
7.18153e-05
-0.00010923
3.63989e-05
-0.000107462
5.67059e-07
-9.28761e-05
-2.69225e-05
-8.24055e-05
-2.37911e-05
-9.23344e-05
1.38982e-05
-0.000108144
3.07063e-05
-0.000116827
2.06047e-05
-0.00012424
1.51048e-05
-0.000131617
1.45226e-05
-0.000137783
1.36211e-05
-0.000142225
1.0615e-05
-0.000145049
6.72033e-06
-0.000145336
8.55214e-07
-0.000135007
-1.88179e-05
-9.81364e-05
-7.36808e-05
-5.47599e-05
-0.000100782
-0.000120884
-5.11091e-05
0.000180933
-7.72235e-05
9.7924e-05
-9.38139e-05
5.30147e-05
-8.56661e-05
-7.53482e-06
-5.72711e-05
-5.52179e-05
-3.60916e-05
-4.4971e-05
-4.77317e-05
2.55307e-05
-7.87134e-05
6.16204e-05
-0.000104078
4.59932e-05
-0.000120366
3.13102e-05
-0.000129367
2.34913e-05
-0.000136422
2.06633e-05
-0.000147288
2.14812e-05
-0.000158237
1.76915e-05
-0.000147707
-9.64802e-06
-0.000108504
-5.80086e-05
-5.68183e-05
-0.000125236
-2.87518e-05
-0.000128863
-0.000149639
-3.82163e-05
0.000219167
-6.37575e-05
0.000123461
-8.67562e-05
7.61246e-05
-6.84833e-05
-2.56595e-05
-3.11178e-05
-9.25095e-05
-6.98945e-06
-6.90999e-05
8.92116e-06
9.62073e-06
-8.25237e-07
7.12781e-05
-4.70331e-05
9.21338e-05
-0.000109758
9.39326e-05
-0.000144711
5.84342e-05
-0.000162154
3.8147e-05
-0.000182164
4.15164e-05
-0.00017669
1.22653e-05
-0.000120641
-6.56746e-05
-6.01999e-05
-0.000118488
-2.98736e-05
-0.000155508
-1.17035e-05
-0.000147032
-0.000161343
-2.89303e-05
0.000248124
-4.12361e-05
0.000135815
-6.54168e-05
0.000100402
-3.53254e-05
-5.56223e-05
-2.65711e-06
-0.000125198
9.68157e-06
-8.14419e-05
2.59085e-05
-6.60623e-06
4.12166e-05
5.59727e-05
4.80957e-05
8.52632e-05
4.13458e-05
0.000100496
5.76209e-06
9.40027e-05
-1.9725e-05
6.36504e-05
1.99205e-05
1.87552e-06
6.81746e-05
-3.5953e-05
6.89478e-05
-6.64314e-05
4.42101e-05
-9.37865e-05
1.99969e-05
-0.000131294
3.55278e-06
-0.000130642
-0.000157792
-1.87569e-05
0.000266911
-6.20362e-06
0.000123291
-1.86958e-05
0.000112958
-7.0525e-06
-6.71907e-05
1.55065e-05
-0.000147712
2.49022e-05
-9.08419e-05
3.76268e-05
-1.93309e-05
4.68769e-05
4.67225e-05
5.3261e-05
7.88764e-05
5.88957e-05
9.4798e-05
6.55469e-05
8.72595e-05
7.20572e-05
5.7132e-05
7.83788e-05
-4.44722e-06
8.28134e-05
-4.03212e-05
8.36326e-05
-6.71702e-05
7.26918e-05
-8.27775e-05
4.86921e-05
-0.000107307
1.56647e-05
-9.76298e-05
-0.000142127
-1.0059e-05
0.000277108
-2.35604e-06
0.000115598
1.83603e-05
9.23021e-05
3.3495e-05
-8.2227e-05
3.03888e-05
-0.000144555
3.56573e-05
-9.61293e-05
4.56397e-05
-2.93179e-05
5.15426e-05
4.08196e-05
5.29212e-05
7.7498e-05
5.60825e-05
9.16361e-05
6.07727e-05
8.25643e-05
6.61257e-05
5.17459e-05
7.21434e-05
-1.04616e-05
7.8985e-05
-4.71578e-05
8.3456e-05
-7.16398e-05
7.70319e-05
-7.63532e-05
5.60191e-05
-8.62949e-05
1.97162e-05
-6.1328e-05
-0.000122411
-1.26012e-06
0.000278484
-1.09509e-05
0.000125339
1.861e-05
6.28125e-05
4.23113e-05
-0.000105785
3.7421e-05
-0.000139663
4.32949e-05
-0.000102096
5.15466e-05
-3.75893e-05
5.26884e-05
3.97113e-05
5.02107e-05
7.99389e-05
5.07084e-05
9.11373e-05
5.27982e-05
8.04728e-05
5.73066e-05
4.72353e-05
6.41645e-05
-1.73195e-05
7.32126e-05
-5.62078e-05
7.92404e-05
-7.76558e-05
7.26434e-05
-6.97511e-05
4.81619e-05
-6.1823e-05
1.31711e-05
-2.6338e-05
-0.000109252
-5.57406e-06
2.68099e-05
-1.17599e-05
2.68811e-05
-1.75355e-05
2.61848e-05
-2.26602e-05
2.49857e-05
-2.74988e-05
2.38191e-05
-3.25948e-05
2.28874e-05
-3.73481e-05
2.07338e-05
-4.13892e-05
1.74183e-05
-4.48527e-05
1.40028e-05
-4.77665e-05
1.13544e-05
-5.01733e-05
8.29721e-06
-5.17717e-05
4.80631e-06
-5.23008e-05
-3.39121e-08
-5.25198e-05
-3.9839e-06
-5.13023e-05
-9.57756e-06
-4.86489e-05
-1.46628e-05
-4.37865e-05
-2.22592e-05
-3.85368e-05
-2.75347e-05
-3.29332e-05
-3.37004e-05
-2.3906e-05
-4.48505e-05
-5.99833e-06
-5.89727e-05
1.93499e-05
-6.17529e-05
-1.7711e-05
6.6828e-05
-8.12617e-06
3.50337e-05
-1.62777e-05
3.51361e-05
-2.36386e-05
3.36549e-05
-2.99923e-05
3.14483e-05
-3.54184e-05
2.93467e-05
-4.05028e-05
2.80572e-05
-4.46525e-05
2.49305e-05
-4.73616e-05
2.01393e-05
-4.88767e-05
1.55177e-05
-4.97341e-05
1.22102e-05
-5.03277e-05
8.88758e-06
-5.15782e-05
6.0564e-06
-5.32344e-05
1.62189e-06
-5.41865e-05
-3.03177e-06
-5.34198e-05
-1.03443e-05
-5.09812e-05
-1.71015e-05
-4.76837e-05
-2.55567e-05
-4.54923e-05
-2.97262e-05
-4.38947e-05
-3.5298e-05
-4.17563e-05
-4.69889e-05
-3.53603e-05
-6.53664e-05
-2.26119e-05
-7.45091e-05
-2.78591e-05
-1.23481e-05
-9.15123e-06
4.42031e-05
-1.87173e-05
4.47233e-05
-2.84899e-05
4.3455e-05
-3.75915e-05
4.05869e-05
-4.58458e-05
3.76517e-05
-5.41169e-05
3.6398e-05
-6.07358e-05
3.16611e-05
-6.39981e-05
2.35345e-05
-6.47313e-05
1.63625e-05
-6.4531e-05
1.20691e-05
-6.56726e-05
1.00698e-05
-6.74252e-05
7.74417e-06
-6.91233e-05
3.36361e-06
-6.85982e-05
-3.75991e-06
-6.26075e-05
-1.63465e-05
-5.47075e-05
-2.50549e-05
-4.85739e-05
-3.16906e-05
-4.69436e-05
-3.13594e-05
-4.99095e-05
-3.23322e-05
-5.97485e-05
-3.71498e-05
-7.46773e-05
-5.04516e-05
-9.55792e-05
-5.35846e-05
-6.17318e-06
-0.000117068
-1.11143e-05
5.53265e-05
-2.23387e-05
5.59569e-05
-3.40757e-05
5.52013e-05
-4.58903e-05
5.24104e-05
-5.80498e-05
4.9821e-05
-7.01879e-05
4.85486e-05
-8.0762e-05
4.22546e-05
-9.05869e-05
3.33916e-05
-0.000113866
3.9692e-05
-0.000159516
5.77727e-05
-0.00023637
8.69832e-05
-0.000304768
7.6406e-05
-0.000300152
-1.36474e-06
-0.0002545
-4.91403e-05
-0.000205695
-6.52463e-05
-0.000161411
-6.90991e-05
-0.000125847
-6.68772e-05
-0.000100434
-5.66874e-05
-8.75165e-05
-4.52462e-05
-8.65089e-05
-3.81593e-05
-9.93632e-05
-3.75998e-05
-0.000121019
-3.20301e-05
-2.88865e-06
-0.000124169
-1.80294e-05
7.33651e-05
-3.56923e-05
7.3629e-05
-5.3671e-05
7.3189e-05
-7.43589e-05
7.31069e-05
-9.99486e-05
7.54196e-05
-0.000131339
7.99474e-05
-0.000172386
8.33099e-05
-0.000239366
0.000100385
-0.000331913
0.000132279
-0.000424572
0.000150478
-0.00050054
0.000163175
-0.000481717
5.76139e-05
-0.000418042
-6.42996e-05
-0.000360119
-0.00010635
-0.000311349
-0.000113378
-0.000266612
-0.000113248
-0.000225358
-0.000108261
-0.000187997
-9.41941e-05
-0.000157319
-7.60513e-05
-0.000132324
-6.32245e-05
-0.000113313
-5.66695e-05
-0.000101541
-4.38464e-05
-1.64258e-05
-8.81541e-05
-1.52684e-05
8.86428e-05
-3.10222e-05
8.93919e-05
-4.81067e-05
9.02828e-05
-6.87989e-05
9.3808e-05
-9.49268e-05
0.000101557
-0.000128309
0.000113338
-0.000177303
0.000132314
-0.000259557
0.000182651
-0.000360985
0.000233725
-0.000455814
0.000245316
-0.000466951
0.000174364
-0.000392068
-1.69554e-05
-0.000351321
-0.000103547
-0.000337964
-0.000119535
-0.000327526
-0.000124007
-0.000316449
-0.000124973
-0.000305818
-0.000120761
-0.000290415
-0.000109661
-0.000253617
-0.00011279
-0.000199415
-0.000117392
-0.000151508
-0.000104642
-0.000111934
-8.35279e-05
-4.64039e-05
-8.20143e-05
-1.62503e-05
0.000104903
-3.31979e-05
0.000106349
-5.19213e-05
0.000109016
-7.31328e-05
0.000115029
-9.73735e-05
0.000125807
-0.000125455
0.00014143
-0.000161025
0.000167894
-0.000206462
0.000228101
-0.000261239
0.00028851
-0.000319095
0.00030319
-0.000342701
0.000197965
-0.000352211
-7.41015e-06
-0.000350031
-0.000105226
-0.000343982
-0.000124817
-0.000341537
-0.000127074
-0.00035205
-0.000116086
-0.000389264
-8.32897e-05
-0.000441511
-5.72814e-05
-0.000494407
-5.9798e-05
-0.000517056
-9.47002e-05
-0.000512424
-0.000109259
-0.00043894
-0.00015701
-0.000145543
-0.000339797
-1.40329e-05
0.000118945
-2.8788e-05
0.000121114
-4.52183e-05
0.000125456
-6.38042e-05
0.000133624
-8.46759e-05
0.000146688
-0.000108414
0.000165177
-0.000133153
0.000192644
-0.000153933
0.000248892
-0.000170919
0.000305508
-0.00019099
0.000323267
-0.000230895
0.000237883
-0.000281662
4.33665e-05
-0.000307638
-7.92392e-05
-0.000305209
-0.000127242
-0.000302524
-0.000129645
-0.00032126
-9.70627e-05
-0.000332298
-7.35845e-05
-0.000326603
-6.26799e-05
-0.00032739
-5.88266e-05
-0.000364813
-5.71561e-05
-0.000412938
-6.11018e-05
-0.000459973
-0.000109961
-0.00011077
-0.000494734
-1.16819e-05
0.000130637
-2.37567e-05
0.000133199
-3.66174e-05
0.000138327
-5.02132e-05
0.00014723
-6.43577e-05
0.000160843
-7.93175e-05
0.000180147
-9.21306e-05
0.000205468
-9.31942e-05
0.000249968
-8.20877e-05
0.000294413
-6.93966e-05
0.000310589
-9.73258e-05
0.000265821
-0.000182951
0.000128998
-0.000260855
-1.32702e-06
-0.000296176
-9.19105e-05
-0.000298664
-0.000127145
-0.000299148
-9.62514e-05
-0.000293807
-7.74052e-05
-0.000286663
-6.99325e-05
-0.000278827
-6.67152e-05
-0.000275837
-6.08618e-05
-0.000285012
-5.18802e-05
-0.000357526
-3.74229e-05
-1.99213e-05
-0.00044836
-9.06959e-06
0.000139717
-1.80636e-05
0.000142203
-2.69263e-05
0.000147199
-3.53058e-05
0.00015562
-4.25576e-05
0.000168105
-4.78292e-05
0.000185428
-4.93914e-05
0.000207041
-3.82848e-05
0.000238872
-1.52941e-05
0.000271435
1.35105e-05
0.000281792
2.68781e-05
0.000252463
-1.10676e-05
0.000166951
-8.40604e-05
7.16736e-05
-0.000159482
-1.64798e-05
-0.000221339
-6.52812e-05
-0.000258895
-5.86694e-05
-0.00026541
-7.05473e-05
-0.000255778
-7.83089e-05
-0.000250074
-7.25969e-05
-0.000248433
-6.26418e-05
-0.000252119
-4.88389e-05
-0.000253994
-3.6011e-05
-1.96124e-05
-0.000253903
-6.40194e-06
0.000146129
-1.25242e-05
0.000148335
-1.81059e-05
0.000152792
-2.24597e-05
0.000159984
-2.45097e-05
0.000170166
-2.27746e-05
0.000183704
-1.54647e-05
0.000199742
3.09536e-06
0.000220323
3.39586e-05
0.000240583
6.97058e-05
0.000246058
9.76052e-05
0.000224575
9.858e-05
0.000165985
7.16622e-05
9.85994e-05
2.00146e-05
3.51764e-05
-4.42715e-05
-9.86738e-07
-0.000104048
1.11626e-06
-0.000157537
-1.70452e-05
-0.000217626
-1.82125e-05
-0.000252435
-3.77106e-05
-0.000241421
-7.28404e-05
-0.00022794
-6.14548e-05
-0.000221324
-4.27849e-05
-2.1693e-05
-0.00021955
-4.06441e-06
0.000150204
-7.68662e-06
0.000151968
-1.04643e-05
0.00015558
-1.17168e-05
0.000161247
-1.0514e-05
0.000168973
-5.49741e-06
0.000178697
4.66968e-06
0.000189585
2.33345e-05
0.000201669
5.19174e-05
0.000212011
8.5345e-05
0.000212642
0.000114162
0.000195769
0.000123848
0.000156309
0.000114626
0.000107832
8.86411e-05
6.11708e-05
5.8605e-05
2.90585e-05
3.62582e-05
2.34742e-05
-5.49157e-06
2.47157e-05
-6.61872e-05
4.24968e-05
-0.000130907
2.70251e-05
-0.00019216
-1.15704e-05
-0.00022793
-2.56713e-05
-0.000223959
-4.67155e-05
-4.53904e-05
-0.00019971
-2.18936e-06
0.000152404
-3.95127e-06
0.00015374
-4.81598e-06
0.000156455
-4.05189e-06
0.000160493
-8.67739e-07
0.000165799
5.78532e-06
0.000172055
1.68972e-05
0.000178484
3.40365e-05
0.00018454
5.79619e-05
0.000188096
8.55835e-05
0.000185031
0.000110354
0.00017101
0.000121948
0.000144725
0.00011853
0.00011126
0.00010156
7.81511e-05
7.79244e-05
5.27041e-05
5.73711e-05
4.40387e-05
4.64421e-05
3.56566e-05
4.76368e-05
4.13157e-05
2.90649e-05
4.56126e-05
-2.92128e-05
4.67245e-05
-9.27672e-05
3.7904e-05
-0.00013702
-2.43551e-06
-1.90112e-05
-0.000163364
-7.24116e-07
0.000153138
-1.05068e-06
0.000154077
-5.66267e-07
0.000155981
1.32338e-06
0.000158614
5.24777e-06
0.000161885
1.18448e-05
0.000165468
2.17734e-05
0.000168566
3.56336e-05
0.00017069
5.38039e-05
0.000169936
7.39854e-05
0.00016486
9.30307e-05
0.000151975
0.000105131
0.000132636
0.000107525
0.000108876
0.000100667
8.50204e-05
8.85232e-05
6.48584e-05
7.73307e-05
5.52429e-05
6.53253e-05
4.76745e-05
5.90724e-05
4.75822e-05
6.15392e-05
4.31614e-05
7.00327e-05
3.82485e-05
7.00917e-05
3.78662e-05
4.9502e-05
1.81786e-05
7.04975e-06
2.34733e-05
8.61006e-08
0.000153062
5.74281e-07
0.000153599
1.89848e-06
0.000154667
4.45291e-06
0.000156069
8.69598e-06
0.000157653
1.50147e-05
0.00015916
2.37923e-05
0.000159798
3.51068e-05
0.000159386
4.88715e-05
0.000156182
6.35154e-05
0.000150226
7.67835e-05
0.000138717
8.60719e-05
0.000123358
8.97238e-05
0.000105234
8.71536e-05
8.76014e-05
8.09237e-05
7.10992e-05
7.52817e-05
6.08967e-05
7.13865e-05
5.1582e-05
7.24282e-05
4.65541e-05
7.31032e-05
4.25013e-05
7.41081e-05
3.72599e-05
7.97018e-05
3.22916e-05
8.14194e-05
1.64825e-05
4.95172e-06
8.35424e-05
7.35185e-07
0.000152337
1.75931e-06
0.000152585
3.36891e-06
0.000153067
5.9058e-06
0.000153543
9.69771e-06
0.000153871
1.49891e-05
0.000153879
2.2049e-05
0.000152749
3.0766e-05
0.000150679
4.09302e-05
0.000146028
5.15691e-05
0.000139598
6.11566e-05
0.00012914
6.8016e-05
0.000116509
7.16749e-05
0.000101586
7.2233e-05
8.70541e-05
7.02269e-05
7.31166e-05
6.83129e-05
6.28223e-05
6.63947e-05
5.35127e-05
6.66878e-05
4.62742e-05
6.96487e-05
3.95549e-05
7.50081e-05
3.19162e-05
8.0597e-05
2.67204e-05
8.08948e-05
1.62038e-05
7.9826e-06
7.78854e-05
9.73506e-07
0.000151374
2.24465e-06
0.000151324
4.03685e-06
0.000151285
6.59332e-06
0.000150996
1.01355e-05
0.000150339
1.47632e-05
0.000149261
2.05946e-05
0.000146927
2.74732e-05
0.000143811
3.51125e-05
0.000138399
4.29291e-05
0.000131791
4.99157e-05
0.000122164
5.51798e-05
0.000111255
5.82846e-05
9.84918e-05
5.93939e-05
8.59557e-05
5.92181e-05
7.33033e-05
5.95087e-05
6.25433e-05
6.0133e-05
5.29005e-05
6.22298e-05
4.41901e-05
6.4961e-05
3.68373e-05
6.84365e-05
2.84552e-05
7.40891e-05
2.10835e-05
7.90187e-05
1.12911e-05
4.16797e-06
8.28513e-05
8.30626e-07
0.000150553
1.88362e-06
0.000150281
3.33937e-06
0.000149839
5.38029e-06
0.000148965
8.1814e-06
0.000147548
1.17713e-05
0.000145681
1.62137e-05
0.000142495
2.1302e-05
0.000138733
2.68556e-05
0.000132855
3.25478e-05
0.000126109
3.77577e-05
0.000116964
4.19737e-05
0.00010705
4.49544e-05
9.55214e-05
4.68028e-05
8.41179e-05
4.76515e-05
7.24656e-05
4.84875e-05
6.17185e-05
4.96555e-05
5.17443e-05
5.16586e-05
4.21993e-05
5.48189e-05
3.36901e-05
5.84657e-05
2.48222e-05
6.25284e-05
1.70355e-05
6.62676e-05
7.56729e-06
3.25505e-07
7.01261e-05
7.16598e-07
0.000149846
1.58104e-06
0.000149426
2.71441e-06
0.000148716
4.26831e-06
0.000147421
6.37085e-06
0.000145455
9.09956e-06
0.000142962
1.24825e-05
0.000139122
1.63281e-05
0.000134897
2.051e-05
0.000128683
2.47008e-05
0.000121929
2.85319e-05
0.000113143
3.17444e-05
0.000103847
3.41432e-05
9.31328e-05
3.59814e-05
8.22902e-05
3.73329e-05
7.11247e-05
3.88959e-05
6.01665e-05
4.07928e-05
4.98588e-05
4.34319e-05
3.9572e-05
4.70318e-05
3.01024e-05
5.13305e-05
2.05362e-05
5.62236e-05
1.21557e-05
6.13075e-05
2.49721e-06
-5.76158e-06
6.74088e-05
2.95765e-07
0.00014956
7.23134e-07
0.000149008
1.35148e-06
0.000148097
2.27719e-06
0.000146505
3.57374e-06
0.000144168
5.31912e-06
0.000141226
7.49893e-06
0.000136952
9.98777e-06
0.000132418
1.27302e-05
0.00012595
1.54466e-05
0.000119222
1.80791e-05
0.00011052
2.04893e-05
0.000101447
2.25158e-05
9.11164e-05
2.43411e-05
8.04751e-05
2.59219e-05
6.95543e-05
2.76006e-05
5.84985e-05
2.97166e-05
4.77537e-05
3.22578e-05
3.70421e-05
3.57634e-05
2.66087e-05
4.01393e-05
1.61724e-05
4.51708e-05
7.13672e-06
5.03952e-05
-2.71428e-06
-1.17719e-05
5.64187e-05
-2.18564e-07
0.000149788
-3.25354e-07
0.000149124
-2.71095e-07
0.000148052
2.13787e-08
0.000146222
5.80419e-07
0.000143618
1.44939e-06
0.000140367
2.60573e-06
0.000135805
4.04592e-06
0.000130987
5.71433e-06
0.000124291
7.43921e-06
0.000117507
9.20791e-06
0.000108761
1.08827e-05
9.9782e-05
1.23994e-05
8.96095e-05
1.39055e-05
7.89789e-05
1.54727e-05
6.79973e-05
1.73965e-05
5.6585e-05
1.99015e-05
4.52593e-05
2.30454e-05
3.39089e-05
2.70311e-05
2.2634e-05
3.20277e-05
1.11872e-05
3.79949e-05
1.18111e-06
4.47382e-05
-9.44573e-06
-1.9409e-05
5.23872e-05
-7.93943e-07
0.000150591
-1.53447e-06
0.000149874
-2.16975e-06
0.000148696
-2.62726e-06
0.000146689
-2.891e-06
0.000143891
-2.94447e-06
0.00014043
-2.82916e-06
0.000135699
-2.45159e-06
0.000130619
-1.89073e-06
0.00012374
-1.17549e-06
0.000116801
-3.67299e-07
0.000107962
4.93425e-07
9.89307e-05
1.47639e-06
8.8636e-05
2.53773e-06
7.79272e-05
3.87524e-06
6.66695e-05
5.54895e-06
5.49212e-05
7.88058e-06
4.29378e-05
1.08763e-05
3.09236e-05
1.48119e-05
1.8709e-05
1.98022e-05
6.20769e-06
2.59193e-05
-4.92495e-06
3.32977e-05
-1.68129e-05
-2.7839e-05
4.17391e-05
-1.53688e-06
0.000152137
-3.02155e-06
0.000151368
-4.40261e-06
0.000150086
-5.64541e-06
0.00014794
-6.73051e-06
0.000144985
-7.64053e-06
0.000141348
-8.43322e-06
0.0001365
-8.9938e-06
0.000131188
-9.41248e-06
0.000124167
-9.59504e-06
0.000116992
-9.67753e-06
0.000108054
-9.61088e-06
9.88732e-05
-9.33791e-06
8.83723e-05
-8.88022e-06
7.74789e-05
-7.85988e-06
6.56587e-05
-6.3758e-06
5.34468e-05
-4.10052e-06
4.06723e-05
-9.5368e-07
2.77866e-05
3.15391e-06
1.46114e-05
8.346e-06
1.02574e-06
1.4749e-05
-1.13176e-05
2.27098e-05
-2.47633e-05
-3.70394e-05
3.19207e-05
-2.32548e-06
0.000154471
-4.63191e-06
0.000153683
-6.84663e-06
0.00015231
-8.97218e-06
0.000150075
-1.09831e-05
0.000147005
-1.28225e-05
0.000143197
-1.45526e-05
0.000138239
-1.60553e-05
0.0001327
-1.74827e-05
0.000125604
-1.86544e-05
0.000118173
-1.97263e-05
0.000109135
-2.0556e-05
9.97117e-05
-2.10806e-05
8.89058e-05
-2.13177e-05
7.7725e-05
-2.10387e-05
6.53888e-05
-2.03593e-05
5.27765e-05
-1.88194e-05
3.91419e-05
-1.65026e-05
2.54793e-05
-1.31301e-05
1.12486e-05
-8.71333e-06
-3.38138e-06
-2.8867e-06
-1.71345e-05
4.72724e-06
-3.23675e-05
-4.57917e-05
1.34892e-05
-3.24051e-06
0.00015772
-6.47584e-06
0.000156926
-9.60035e-06
0.000155442
-1.2649e-05
0.000153132
-1.56033e-05
0.000149967
-1.84154e-05
0.000146017
-2.1152e-05
0.000140984
-2.37008e-05
0.000135257
-2.62155e-05
0.000128127
-2.85034e-05
0.000120469
-3.06697e-05
0.000111309
-3.26202e-05
0.000101671
-3.43292e-05
9.06234e-05
-3.56905e-05
7.9095e-05
-3.65019e-05
6.6209e-05
-3.68344e-05
5.31179e-05
-3.64344e-05
3.87508e-05
-3.51787e-05
2.42324e-05
-3.2684e-05
8.76286e-06
-2.90114e-05
-7.04497e-06
-2.39286e-05
-2.22082e-05
-1.74592e-05
-3.88278e-05
-5.31204e-05
-1.01211e-05
-4.24571e-06
0.000161973
-8.50969e-06
0.000161198
-1.26732e-05
0.000159614
-1.67827e-05
0.000157249
-2.07985e-05
0.000153991
-2.46795e-05
0.000149906
-2.84875e-05
0.0001448
-3.21288e-05
0.000138906
-3.57473e-05
0.000131753
-3.91774e-05
0.000123907
-4.25139e-05
0.000114654
-4.56279e-05
0.000104793
-4.85485e-05
9.35523e-05
-5.11952e-05
8.17501e-05
-5.35836e-05
6.86057e-05
-5.5427e-05
5.49696e-05
-5.65819e-05
3.9914e-05
-5.67809e-05
2.44398e-05
-5.62258e-05
8.21623e-06
-5.50425e-05
-8.21958e-06
-5.24186e-05
-2.48232e-05
-4.85468e-05
-4.26907e-05
-5.89024e-05
-4.27558e-05
-5.32645e-06
0.000167307
-1.06703e-05
0.00016655
-1.59303e-05
0.000164882
-2.11605e-05
0.000162487
-2.63328e-05
0.000159171
-3.14402e-05
0.000155021
-3.65308e-05
0.000149898
-4.15291e-05
0.000143912
-4.6528e-05
0.00013676
-5.1421e-05
0.000128808
-5.6299e-05
0.00011954
-6.1085e-05
0.000109587
-6.56759e-05
9.8151e-05
-6.98609e-05
8.59429e-05
-7.36046e-05
7.23572e-05
-7.67452e-05
5.81179e-05
-7.94641e-05
4.26408e-05
-8.19242e-05
2.6908e-05
-8.42906e-05
1.05909e-05
-8.48831e-05
-7.61885e-06
-8.30086e-05
-2.66893e-05
-7.88574e-05
-4.68335e-05
-6.64781e-05
-7.12734e-05
-6.53396e-06
0.000173849
-1.30802e-05
0.000173103
-1.95665e-05
0.000171375
-2.6022e-05
0.00016895
-3.24054e-05
0.000165562
-3.87291e-05
0.000161352
-4.50169e-05
0.000156193
-5.12511e-05
0.000150154
-5.74878e-05
0.000143004
-6.36545e-05
0.000134982
-6.97964e-05
0.000125689
-7.58217e-05
0.00011562
-8.18333e-05
0.00010417
-8.77094e-05
9.18262e-05
-9.34121e-05
7.80671e-05
-9.88907e-05
6.36041e-05
-0.000105044
4.88015e-05
-0.000111027
3.28992e-05
-0.000113662
1.32332e-05
-0.000112667
-8.60529e-06
-0.000108754
-3.05952e-05
-0.000101612
-5.39679e-05
-7.71104e-05
-9.0972e-05
-7.70855e-06
0.000181564
-1.54363e-05
0.000180838
-2.31713e-05
0.000179117
-3.09384e-05
0.000176724
-3.87228e-05
0.000173353
-4.65398e-05
0.000169176
-5.43758e-05
0.000164036
-6.22166e-05
0.000158002
-7.01038e-05
0.000150898
-7.8004e-05
0.000142889
-8.59516e-05
0.000133644
-9.37419e-05
0.000123417
-0.000101185
0.00011162
-0.000108408
9.90557e-05
-0.000116132
8.57991e-05
-0.000124761
7.22399e-05
-0.000132501
5.65496e-05
-0.000135427
3.58316e-05
-0.000134562
1.23754e-05
-0.00013123
-1.19293e-05
-0.000124425
-3.7393e-05
-0.000114832
-6.35538e-05
-8.97293e-05
-0.000102206
-8.97295e-06
0.000190544
-1.79374e-05
0.000189809
-2.68999e-05
0.000188086
-3.58583e-05
0.000185689
-4.48073e-05
0.000182309
-5.37777e-05
0.000178153
-6.27484e-05
0.000173014
-7.17335e-05
0.000166993
-8.07177e-05
0.000159889
-8.97023e-05
0.000151881
-9.87131e-05
0.000142661
-0.000107906
0.000132616
-0.000117706
0.000121427
-0.000128404
0.000109761
-0.000139846
9.7248e-05
-0.000149441
8.18421e-05
-0.000152679
5.97941e-05
-0.000151621
3.47807e-05
-0.000148907
9.66772e-06
-0.000142701
-1.81283e-05
-0.000133311
-4.67765e-05
-0.000121658
-7.52003e-05
-0.000103095
-0.000108286
-1.02527e-05
0.000200803
-2.05272e-05
0.00020009
-3.08817e-05
0.000198447
-4.13106e-05
0.000196124
-5.18147e-05
0.000192819
-6.23974e-05
0.000188742
-7.30278e-05
0.00018365
-8.3716e-05
0.000177688
-9.44223e-05
0.000170602
-0.000105093
0.000162558
-0.000115681
0.000153254
-0.000126235
0.000143177
-0.000137458
0.000132656
-0.000150065
0.000122375
-0.000161063
0.000108253
-0.000164634
8.5419e-05
-0.00016367
5.88364e-05
-0.000161614
3.27315e-05
-0.000155568
3.62815e-06
-0.000146572
-2.71184e-05
-0.000136095
-5.72471e-05
-0.000124338
-8.69514e-05
-0.000115519
-0.000111908
-1.12792e-05
0.000212088
-2.25684e-05
0.000211385
-3.38935e-05
0.000209778
-4.52502e-05
0.000207486
-5.66497e-05
0.000204224
-6.80999e-05
0.000200198
-7.95773e-05
0.000195134
-9.11344e-05
0.000189251
-0.000102814
0.000182287
-0.000114813
0.000174562
-0.000127385
0.000165833
-0.000140865
0.000156662
-0.00015504
0.000146838
-0.000167173
0.000134514
-0.000171771
0.000112856
-0.00017115
8.48043e-05
-0.000169868
5.75598e-05
-0.000164599
2.74684e-05
-0.000156101
-4.86393e-06
-0.000146718
-3.64958e-05
-0.000136444
-6.75159e-05
-0.000125518
-9.78709e-05
-0.000127165
-0.000113867
-1.28444e-05
0.000224937
-2.56849e-05
0.000224231
-3.8585e-05
0.000222684
-5.1512e-05
0.000220419
-6.44709e-05
0.000217189
-7.74434e-05
0.000213176
-9.03662e-05
0.000208062
-0.000103258
0.000202148
-0.000116194
0.000195227
-0.000129599
0.000187973
-0.00014395
0.00018019
-0.000159274
0.000171993
-0.000173361
0.00016093
-0.00017946
0.000140618
-0.00017824
0.000111642
-0.000176118
8.26882e-05
-0.000171131
5.25785e-05
-0.000162889
1.92316e-05
-0.000154046
-1.37017e-05
-0.000144538
-4.59987e-05
-0.000134391
-7.76578e-05
-0.000123809
-0.000108449
-0.000138112
-0.000112856
-1.33617e-05
0.000238304
-2.67691e-05
0.000237643
-4.03099e-05
0.000236229
-5.39264e-05
0.00023404
-6.75815e-05
0.000230849
-8.12954e-05
0.000226895
-9.50754e-05
0.000221847
-0.00010901
0.000216088
-0.000123213
0.000209435
-0.000138019
0.000202784
-0.000153704
0.000195881
-0.000169411
0.000187704
-0.000179044
0.000170568
-0.000179359
0.000140937
-0.000177398
0.000109685
-0.000173958
7.9253e-05
-0.000166786
4.54117e-05
-0.000158584
1.10344e-05
-0.000149691
-2.25904e-05
-0.000140175
-5.55093e-05
-0.000130277
-8.75516e-05
-0.000120097
-0.000118624
-0.000148405
-0.0001098
-1.53709e-05
0.00025368
-3.07018e-05
0.000252978
-4.59011e-05
0.000251433
-6.09878e-05
0.000249132
-7.60713e-05
0.000245937
-9.119e-05
0.000242018
-0.000106411
0.000237072
-0.000121907
0.000231589
-0.000137871
0.000225403
-0.000154134
0.000219051
-0.000169826
0.000211578
-0.000180926
0.000198809
-0.000182821
0.000172468
-0.000180183
0.000138303
-0.000176477
0.000105985
-0.000169661
7.24416e-05
-0.000160998
3.67522e-05
-0.000152081
2.12206e-06
-0.000142852
-3.18158e-05
-0.000133321
-6.50362e-05
-0.000123677
-9.71911e-05
-0.000113923
-0.000128374
-0.000158273
-0.000104052
-1.53409e-05
0.000269025
-3.06988e-05
0.000268341
-4.60514e-05
0.00026679
-6.15147e-05
0.000264599
-7.71001e-05
0.000261527
-9.27252e-05
0.000257648
-0.000108542
0.000252894
-0.000124873
0.000247924
-0.000141937
0.000242471
-0.000159346
0.000236465
-0.000174458
0.000226694
-0.000180881
0.000205235
-0.00017877
0.000170361
-0.000175608
0.000135145
-0.000170523
0.000100903
-0.000162343
6.42657e-05
-0.000153956
2.83682e-05
-0.000144969
-6.86038e-06
-0.00013584
-4.0942e-05
-0.000126678
-7.41947e-05
-0.000117394
-0.000106472
-0.000108183
-0.000137582
-0.000167632
-9.88208e-05
-1.74267e-05
0.000286455
-3.4866e-05
0.000285784
-5.23279e-05
0.000284256
-6.96798e-05
0.000281955
-8.67636e-05
0.000278614
-0.000103778
0.000274666
-0.000120966
0.000270086
-0.000138509
0.000265471
-0.000156123
0.000260089
-0.000172562
0.000252908
-0.000182366
0.000236502
-0.000182493
0.000205365
-0.000178064
0.000165935
-0.000172021
0.000129106
-0.000163642
9.25279e-05
-0.000154231
5.48581e-05
-0.000144976