/*--------------------------------*- C++ -*----------------------------------*\
| =========                 |                                                 |
| \\      /  F ield         | OpenFOAM: The Open Source CFD Toolbox           |
|  \\    /   O peration     | Version:  2012                                  |
|   \\  /    A nd           | Website:  www.openfoam.com                      |
|    \\/     M anipulation  |                                                 |
\*---------------------------------------------------------------------------*/
FoamFile
{
    version     2.0;
    format      ascii;
    class       volScalarField;
    location    "0.77";
    object      rho2;
}
// * * * * * * * * * * * * * * * * * * * * * * * * * * * * * * * * * * * * * //

dimensions      [1 -3 0 0 0 0 0];


internalField   nonuniform List<scalar> 
2268
(
1.30107
1.30112
1.30124
1.30139
1.30159
1.30183
1.3021
1.30239
1.3027
1.30304
1.30335
1.30372
1.30401
1.3043
1.30456
1.30469
1.30485
1.30479
1.30484
1.30462
1.30457
1.30428
1.30422
1.3003
1.30036
1.30047
1.30063
1.30082
1.30107
1.30133
1.30164
1.30194
1.30229
1.3026
1.30297
1.30327
1.30356
1.30381
1.30393
1.30409
1.30402
1.30407
1.30384
1.30378
1.30349
1.30343
1.29951
1.29957
1.29969
1.29985
1.30005
1.3003
1.30057
1.30087
1.30118
1.30153
1.30185
1.30222
1.30254
1.30284
1.30311
1.30324
1.30341
1.30334
1.30339
1.30313
1.30308
1.3027
1.30268
1.29872
1.29878
1.29889
1.29906
1.29926
1.29951
1.29979
1.3001
1.30042
1.30077
1.30111
1.30148
1.3018
1.30211
1.30236
1.30247
1.30262
1.30254
1.30258
1.30232
1.30222
1.30185
1.30177
1.29789
1.29795
1.29807
1.29825
1.29847
1.29873
1.29901
1.29933
1.29965
1.30001
1.30035
1.30074
1.30109
1.30141
1.30173
1.30186
1.30204
1.30193
1.30198
1.30164
1.30157
1.30099
1.30099
1.29707
1.29713
1.29726
1.29743
1.29765
1.29792
1.29821
1.29854
1.29887
1.29925
1.29961
1.30001
1.30037
1.3007
1.30096
1.30107
1.3012
1.30109
1.30112
1.30081
1.30065
1.30006
1.29991
1.2962
1.29628
1.29641
1.2966
1.29684
1.29712
1.29743
1.29776
1.29809
1.29847
1.29884
1.29926
1.29967
1.30005
1.30043
1.30055
1.30074
1.30058
1.30061
1.30017
1.3
1.29897
1.29896
1.29538
1.29546
1.29559
1.29578
1.29602
1.29631
1.29662
1.29696
1.29731
1.2977
1.29811
1.29854
1.29897
1.29936
1.29962
1.29972
1.29982
1.29966
1.29966
1.29928
1.29901
1.29789
1.29763
1.31295
1.30491
1.30057
1.29883
1.30174
1.30586
1.30621
1.30528
1.3037
1.30385
1.3036
1.30345
1.30324
1.3033
1.30355
1.3048
1.30739
1.31754
1.32018
1.3117
1.30336
1.2994
1.29798
1.30087
1.30586
1.30553
1.30459
1.30357
1.30319
1.30293
1.30284
1.30279
1.30292
1.30307
1.30394
1.30564
1.31572
1.31787
1.30725
1.30079
1.29729
1.2971
1.29995
1.30528
1.30598
1.30382
1.3017
1.3024
1.30246
1.30263
1.30259
1.3027
1.30295
1.30347
1.30523
1.31485
1.31549
1.30461
1.29857
1.29598
1.29635
1.29881
1.30397
1.30509
1.30387
1.30316
1.30191
1.30163
1.30184
1.3018
1.30174
1.30177
1.3026
1.30377
1.31185
1.31289
1.3013
1.29647
1.29573
1.29586
1.29773
1.3022
1.30332
1.30255
1.3011
1.30202
1.30202
1.30187
1.3016
1.30169
1.30217
1.30294
1.30495
1.31265
1.3117
1.29939
1.29598
1.29572
1.29588
1.29608
1.30053
1.30084
1.30051
1.30131
1.3021
1.30245
1.30242
1.30248
1.30261
1.30286
1.30361
1.30511
1.31075
1.30995
1.29779
1.2959
1.29577
1.29587
1.29622
1.29837
1.29809
1.29808
1.29824
1.29996
1.30179
1.30393
1.30506
1.3046
1.30509
1.30533
1.30606
1.31102
1.30952
1.297
1.29566
1.2959
1.29565
1.29569
1.29654
1.29559
1.29533
1.2965
1.29844
1.30187
1.30567
1.30787
1.30656
1.30622
1.30538
1.306
1.30884
1.30771
1.29415
1.29423
1.29436
1.29454
1.29478
1.29507
1.2954
1.29576
1.2961
1.2965
1.29689
1.29739
1.29787
1.29842
1.29901
1.29912
1.29937
1.29908
1.29911
1.29849
1.29804
1.29593
1.29569
1.29343
1.29344
1.29347
1.29352
1.29361
1.29375
1.29396
1.29424
1.29454
1.29491
1.29542
1.29586
1.29663
1.29701
1.29714
1.2972
1.29697
1.29683
1.29669
1.29638
1.29549
1.29407
1.29265
1.29336
1.29337
1.29336
1.29336
1.29337
1.29339
1.29342
1.2935
1.2936
1.29378
1.29399
1.29471
1.29498
1.29645
1.2975
1.2975
1.29761
1.29692
1.29689
1.29637
1.29587
1.2943
1.29401
1.29332
1.29333
1.29332
1.29332
1.29333
1.29336
1.29336
1.29337
1.29338
1.29347
1.29384
1.29414
1.29552
1.29564
1.29577
1.29559
1.29481
1.29428
1.29444
1.29439
1.29442
1.29405
1.29431
1.29329
1.29329
1.29329
1.29329
1.29332
1.29334
1.29335
1.29336
1.29334
1.29331
1.29327
1.29376
1.29366
1.29491
1.2955
1.29524
1.29475
1.29401
1.2942
1.29443
1.29445
1.29422
1.29411
1.29327
1.29327
1.29327
1.29327
1.29329
1.29331
1.29332
1.29332
1.29326
1.29317
1.29302
1.29308
1.29353
1.29389
1.29381
1.29367
1.29314
1.29307
1.29304
1.29346
1.2937
1.29382
1.29389
1.29326
1.29326
1.29326
1.29326
1.29327
1.29329
1.2933
1.29329
1.29322
1.29311
1.29305
1.29301
1.29305
1.2932
1.29329
1.29323
1.29333
1.29339
1.29341
1.29354
1.29356
1.29359
1.29357
1.29325
1.29325
1.29325
1.29325
1.29326
1.29327
1.29328
1.29327
1.29321
1.29312
1.29307
1.29308
1.29312
1.29313
1.29311
1.29295
1.29306
1.29289
1.29285
1.29329
1.2935
1.29362
1.29364
1.29325
1.29325
1.29325
1.29325
1.29325
1.29326
1.29326
1.29326
1.29321
1.29313
1.29309
1.29308
1.29313
1.29314
1.29315
1.29308
1.29297
1.29287
1.29265
1.29296
1.29333
1.29358
1.29361
1.29324
1.29324
1.29324
1.29324
1.29324
1.29324
1.29325
1.29325
1.29323
1.29317
1.29312
1.2931
1.29312
1.29315
1.29317
1.29317
1.29311
1.29321
1.29342
1.29298
1.29297
1.29341
1.29353
1.29324
1.29324
1.29324
1.29324
1.29324
1.29324
1.29324
1.29324
1.29324
1.29321
1.29317
1.29314
1.29314
1.29315
1.29318
1.2932
1.2932
1.29317
1.29312
1.29311
1.29336
1.29347
1.29321
1.29323
1.29323
1.29323
1.29323
1.29323
1.29323
1.29323
1.29323
1.29323
1.29322
1.29321
1.29319
1.29318
1.29319
1.2932
1.29321
1.29321
1.29321
1.2932
1.29317
1.29315
1.29313
1.29313
1.29323
1.29323
1.29323
1.29323
1.29323
1.29323
1.29323
1.29323
1.29323
1.29322
1.29322
1.29321
1.29321
1.29321
1.29321
1.29321
1.29322
1.29322
1.29321
1.29321
1.29319
1.29319
1.29319
1.29323
1.29323
1.29323
1.29323
1.29323
1.29323
1.29322
1.29322
1.29322
1.29322
1.29322
1.29322
1.29322
1.29321
1.29321
1.29322
1.29322
1.29322
1.29322
1.29322
1.29321
1.2932
1.2932
1.29323
1.29323
1.29323
1.29322
1.29322
1.29322
1.29322
1.29322
1.29322
1.29322
1.29322
1.29322
1.29322
1.29321
1.29322
1.29322
1.29322
1.29322
1.29322
1.29322
1.29322
1.29321
1.29321
1.29322
1.29322
1.29322
1.29322
1.29322
1.29322
1.29322
1.29322
1.29322
1.29322
1.29322
1.29322
1.29321
1.29321
1.29321
1.29321
1.29321
1.29322
1.29322
1.29322
1.29322
1.29322
1.29322
1.29322
1.29322
1.29322
1.29322
1.29322
1.29322
1.29322
1.29322
1.29322
1.29322
1.29321
1.29321
1.29321
1.29321
1.29321
1.29321
1.29321
1.29321
1.29321
1.29321
1.29322
1.29322
1.29322
1.29322
1.29322
1.29322
1.29322
1.29322
1.29321
1.29321
1.29321
1.29321
1.29321
1.29321
1.29321
1.29321
1.29321
1.29321
1.29321
1.29321
1.29321
1.29321
1.29321
1.29321
1.29321
1.29321
1.29321
1.29321
1.29321
1.29321
1.29321
1.29321
1.29321
1.29321
1.29321
1.29321
1.29321
1.29321
1.29321
1.29321
1.29321
1.29321
1.29321
1.29321
1.29321
1.29321
1.29321
1.29321
1.29321
1.29321
1.29321
1.29321
1.29321
1.29321
1.29321
1.29321
1.29321
1.29321
1.29321
1.29321
1.29321
1.29321
1.29321
1.29321
1.29321
1.29321
1.29321
1.29321
1.29321
1.29321
1.29321
1.29321
1.2932
1.2932
1.2932
1.2932
1.2932
1.2932
1.2932
1.29321
1.29321
1.29321
1.29321
1.29321
1.29321
1.29321
1.29321
1.29321
1.29321
1.29321
1.29321
1.29321
1.29321
1.29321
1.29321
1.2932
1.2932
1.2932
1.2932
1.2932
1.2932
1.2932
1.2932
1.2932
1.2932
1.2932
1.2932
1.2932
1.2932
1.2932
1.2932
1.2932
1.2932
1.2932
1.2932
1.2932
1.2932
1.2932
1.29319
1.29319
1.29319
1.29319
1.29319
1.29319
1.29319
1.29319
1.29319
1.2932
1.2932
1.2932
1.2932
1.2932
1.2932
1.2932
1.29319
1.29319
1.29319
1.29319
1.29319
1.29318
1.29317
1.29318
1.29318
1.29318
1.29318
1.29318
1.29319
1.29319
1.29319
1.29319
1.29319
1.29319
1.29319
1.29319
1.29318
1.29318
1.29318
1.29318
1.29317
1.29317
1.29315
1.29315
1.29315
1.29315
1.29317
1.29317
1.29317
1.29317
1.29317
1.29317
1.29317
1.29317
1.29317
1.29317
1.29317
1.29317
1.29317
1.29317
1.29316
1.29315
1.29315
1.29314
1.29313
1.29313
1.29314
1.29314
1.29314
1.29316
1.29316
1.29316
1.29316
1.29316
1.29316
1.29316
1.29316
1.29316
1.29316
1.29315
1.29315
1.29315
1.29314
1.29313
1.29313
1.29312
1.29312
1.29313
1.29314
1.29314
1.29314
1.29314
1.29314
1.29314
1.29314
1.29314
1.29314
1.29314
1.29314
1.29314
1.29314
1.29314
1.29313
1.29313
1.29312
1.29312
1.29312
1.29312
1.29312
1.29313
1.29314
1.29314
1.29314
1.29313
1.29313
1.29313
1.29313
1.29313
1.29313
1.29313
1.29312
1.29312
1.29312
1.29312
1.29312
1.29312
1.29311
1.29311
1.29311
1.29312
1.29312
1.29313
1.29314
1.29313
1.29313
1.29312
1.29311
1.2931
1.29311
1.29311
1.29311
1.29311
1.29311
1.29311
1.29311
1.29311
1.29311
1.29311
1.29311
1.29311
1.29311
1.29312
1.29312
1.29313
1.29313
1.29312
1.29312
1.29311
1.2931
1.29309
1.29309
1.2931
1.2931
1.2931
1.2931
1.2931
1.2931
1.2931
1.2931
1.2931
1.2931
1.2931
1.29311
1.29311
1.29312
1.29312
1.29312
1.29312
1.29311
1.2931
1.2931
1.29309
1.29308
1.29308
1.2931
1.2931
1.2931
1.2931
1.2931
1.2931
1.2931
1.2931
1.2931
1.2931
1.2931
1.29311
1.29312
1.29312
1.29312
1.29311
1.2931
1.2931
1.29309
1.29309
1.29308
1.29308
1.29307
1.29309
1.29309
1.29309
1.29309
1.29309
1.29309
1.29309
1.29309
1.29309
1.2931
1.29311
1.29311
1.29311
1.29311
1.2931
1.2931
1.2931
1.29309
1.29308
1.29308
1.29308
1.29307
1.29307
1.29309
1.29309
1.29309
1.29309
1.29309
1.29309
1.29309
1.29309
1.29309
1.2931
1.29311
1.29311
1.2931
1.2931
1.29309
1.29309
1.29309
1.29308
1.29308
1.29308
1.29307
1.29307
1.29307
1.29308
1.29308
1.29308
1.29308
1.29308
1.29308
1.29308
1.29309
1.29309
1.2931
1.29311
1.2931
1.29309
1.29309
1.29309
1.29308
1.29308
1.29308
1.29308
1.29307
1.29307
1.29307
1.29307
1.29308
1.29308
1.29308
1.29308
1.29308
1.29308
1.29308
1.29309
1.2931
1.2931
1.2931
1.29309
1.29308
1.29308
1.29308
1.29308
1.29308
1.29308
1.29308
1.29307
1.29307
1.29307
1.29306
1.29307
1.29307
1.29307
1.29307
1.29308
1.29308
1.29308
1.29309
1.2931
1.2931
1.29309
1.29308
1.29307
1.29307
1.29307
1.29307
1.29307
1.29307
1.29307
1.29307
1.29307
1.29307
1.29306
1.29307
1.29307
1.29307
1.29307
1.29307
1.29308
1.29308
1.29309
1.29309
1.29308
1.29307
1.29307
1.29307
1.29307
1.29307
1.29307
1.29307
1.29307
1.29307
1.29307
1.29307
1.29307
1.29306
1.29307
1.29307
1.29307
1.29307
1.29307
1.29308
1.29308
1.29309
1.29309
1.29307
1.29306
1.29306
1.29306
1.29306
1.29306
1.29307
1.29307
1.29307
1.29307
1.29307
1.29307
1.29307
1.29306
1.29306
1.29306
1.29306
1.29307
1.29307
1.29307
1.29308
1.29308
1.29307
1.29306
1.29305
1.29305
1.29305
1.29306
1.29306
1.29307
1.29307
1.29307
1.29307
1.29308
1.29307
1.29307
1.29307
1.29307
1.29307
1.29307
1.29307
1.29307
1.29308
1.29308
1.29308
1.29306
1.29305
1.29304
1.29304
1.29304
1.29305
1.29306
1.29306
1.29307
1.29307
1.29307
1.29307
1.29307
1.29307
1.29306
1.29306
1.29306
1.29306
1.29306
1.29307
1.29307
1.29307
1.29306
1.29304
1.29303
1.29303
1.29303
1.29304
1.29305
1.29306
1.29307
1.29307
1.29307
1.29308
1.29308
1.29307
1.29307
1.29306
1.29307
1.29307
1.29308
1.29308
1.29308
1.29308
1.29307
1.29305
1.29303
1.29301
1.29301
1.29301
1.29303
1.29304
1.29306
1.29306
1.29307
1.29307
1.29307
1.29307
1.29307
1.29306
1.29306
1.2932
1.29266
1.29312
1.2919
1.29262
1.29148
1.29101
1.28974
1.29315
1.29364
1.2935
1.29475
1.29414
1.29433
1.29446
1.2947
1.29393
1.29393
1.29385
1.29422
1.29392
1.29382
1.29368
1.29365
1.29355
1.29353
1.29353
1.29349
1.29363
1.29363
1.29363
1.29362
1.29363
1.29363
1.29362
1.29363
1.29368
1.29375
1.29374
1.29373
1.2933
1.29347
1.29348
1.29349
1.29327
1.29349
1.29359
1.29346
1.29317
1.29316
1.29314
1.29313
1.2932
1.29319
1.29319
1.2932
1.29321
1.29321
1.29321
1.29321
1.29322
1.29322
1.29322
1.29322
1.29322
1.29322
1.29322
1.29322
1.29322
1.29322
1.29322
1.29322
1.29321
1.29321
1.29322
1.29322
1.29321
1.29321
1.29321
1.29321
1.29321
1.29321
1.29321
1.29321
1.2932
1.2932
1.2932
1.2932
1.29317
1.29317
1.29316
1.29316
1.29315
1.29315
1.29315
1.29315
1.29314
1.29314
1.29314
1.29314
1.29314
1.29314
1.29314
1.29314
1.29312
1.29311
1.29311
1.29311
1.2931
1.29309
1.29309
1.29309
1.29308
1.29308
1.29308
1.29308
1.29308
1.29307
1.29307
1.29307
1.29307
1.29307
1.29306
1.29306
1.29306
1.29306
1.29306
1.29306
1.29306
1.29306
1.29306
1.29305
1.29306
1.29306
1.29306
1.29305
1.29306
1.29306
1.29306
1.29305
1.29306
1.29306
1.29306
1.29305
1.29306
1.29306
1.29306
1.29305
1.29306
1.29306
1.29306
1.29305
1.29306
1.29306
1.29306
1.29305
1.29306
1.29306
1.29305
1.29305
1.29306
1.29306
1.29306
1.29305
1.29305
1.29305
1.29305
1.29304
1.29679
1.29526
1.29591
1.29532
1.29519
1.2949
1.29429
1.2944
1.29453
1.29555
1.29848
1.30769
1.31386
1.30779
1.30718
1.30609
1.30524
1.30744
1.30609
1.29491
1.29511
1.2952
1.29463
1.29416
1.29424
1.29417
1.29429
1.29452
1.29544
1.30096
1.30582
1.30814
1.30769
1.30666
1.30539
1.30521
1.30485
1.30476
1.29371
1.29491
1.29456
1.29404
1.29433
1.29422
1.29409
1.2941
1.29407
1.29423
1.29517
1.30338
1.30623
1.30396
1.30635
1.30545
1.30491
1.30339
1.30481
1.29499
1.2932
1.2939
1.29366
1.29384
1.29402
1.29376
1.29398
1.2941
1.29397
1.29454
1.2966
1.30121
1.30233
1.30427
1.30269
1.30311
1.30159
1.30377
1.29458
1.29371
1.29358
1.29361
1.29373
1.29375
1.2937
1.2941
1.29429
1.29402
1.29419
1.29503
1.29874
1.29923
1.30168
1.3035
1.303
1.30174
1.30415
1.29359
1.29358
1.29362
1.2935
1.29356
1.29362
1.29343
1.29401
1.29417
1.29405
1.29417
1.29402
1.29585
1.29667
1.29871
1.30015
1.30237
1.30231
1.30215
1.29356
1.2936
1.29362
1.29351
1.29341
1.29343
1.29321
1.29385
1.29373
1.29412
1.2937
1.29396
1.29339
1.29384
1.29493
1.29776
1.29932
1.30089
1.30044
1.29361
1.29365
1.29364
1.29357
1.29357
1.29359
1.29325
1.29382
1.29314
1.29394
1.29315
1.29324
1.29325
1.29331
1.29334
1.29429
1.29609
1.29761
1.29713
1.29364
1.29366
1.29363
1.2936
1.29364
1.29361
1.2933
1.29366
1.2932
1.29327
1.29308
1.29324
1.29325
1.29321
1.29316
1.29324
1.29358
1.29506
1.2959
1.29372
1.29371
1.29369
1.29368
1.2937
1.29344
1.29336
1.29334
1.29322
1.29327
1.29325
1.29325
1.29323
1.29319
1.29316
1.29318
1.2932
1.29343
1.294
1.29353
1.2936
1.29362
1.29355
1.29348
1.29331
1.29328
1.29312
1.2932
1.29325
1.29326
1.29324
1.29318
1.29314
1.29313
1.29313
1.29316
1.29337
1.29387
1.29331
1.29316
1.29316
1.29328
1.2933
1.29317
1.29315
1.29317
1.29323
1.29325
1.29326
1.29324
1.2932
1.29318
1.29319
1.29317
1.29314
1.29313
1.29345
1.29317
1.29321
1.29322
1.2932
1.29318
1.29312
1.2931
1.29317
1.29321
1.29321
1.29322
1.29322
1.29321
1.2932
1.2932
1.29319
1.29318
1.29315
1.29331
1.2932
1.2932
1.29319
1.29316
1.29314
1.29308
1.29309
1.29313
1.29313
1.29312
1.29315
1.29317
1.29319
1.29319
1.2932
1.2932
1.29319
1.29314
1.29315
1.29321
1.29321
1.29321
1.29318
1.29312
1.29308
1.29305
1.29307
1.29306
1.29306
1.29311
1.29315
1.29318
1.29318
1.2932
1.2932
1.2932
1.29316
1.29306
1.29322
1.29322
1.29322
1.29318
1.29316
1.29312
1.29306
1.29304
1.29303
1.29304
1.29309
1.29315
1.29318
1.29319
1.2932
1.2932
1.29321
1.29317
1.293
1.29322
1.29322
1.29322
1.29321
1.29318
1.29316
1.29312
1.29308
1.29307
1.2931
1.29314
1.29317
1.29319
1.2932
1.29321
1.29321
1.29321
1.29318
1.29295
1.29322
1.29322
1.29322
1.29322
1.2932
1.29318
1.29317
1.29315
1.29315
1.29315
1.29317
1.29318
1.2932
1.29321
1.29321
1.29321
1.29322
1.29318
1.29288
1.29322
1.29322
1.29322
1.29322
1.29322
1.29321
1.2932
1.29319
1.29318
1.29318
1.29319
1.2932
1.29321
1.29321
1.29322
1.29322
1.29323
1.29319
1.29285
1.29322
1.29322
1.29322
1.29322
1.29322
1.29322
1.29321
1.29321
1.29321
1.29321
1.29321
1.29321
1.29322
1.29322
1.29322
1.29322
1.29323
1.29319
1.29287
1.29321
1.29321
1.29321
1.29321
1.29322
1.29322
1.29322
1.29322
1.29322
1.29321
1.29322
1.29322
1.29322
1.29322
1.29323
1.29322
1.29323
1.2932
1.29298
1.2932
1.2932
1.2932
1.2932
1.2932
1.2932
1.2932
1.29321
1.29321
1.29321
1.29321
1.29322
1.29322
1.29322
1.29322
1.29322
1.29323
1.29321
1.29314
1.29316
1.29316
1.29317
1.29317
1.29317
1.29317
1.29317
1.29318
1.29318
1.29319
1.2932
1.2932
1.29321
1.29322
1.29322
1.29322
1.29323
1.29321
1.2933
1.29315
1.29315
1.29315
1.29315
1.29315
1.29315
1.29316
1.29316
1.29316
1.29316
1.29317
1.29318
1.2932
1.29321
1.29322
1.29322
1.29322
1.2932
1.29334
1.29314
1.29314
1.29314
1.29314
1.29314
1.29314
1.29314
1.29314
1.29315
1.29315
1.29316
1.29316
1.29318
1.29319
1.29321
1.29321
1.29322
1.2932
1.29328
1.29313
1.29312
1.29311
1.29311
1.2931
1.2931
1.29311
1.29311
1.29312
1.29313
1.29315
1.29315
1.29316
1.29317
1.2932
1.29321
1.29321
1.2932
1.29323
1.2931
1.29309
1.29309
1.29308
1.29307
1.29307
1.29307
1.29307
1.29308
1.2931
1.29312
1.29314
1.29316
1.29317
1.29318
1.2932
1.29321
1.2932
1.29322
1.29308
1.29307
1.29307
1.29306
1.29305
1.29304
1.29304
1.29304
1.29305
1.29306
1.29308
1.29311
1.29314
1.29316
1.29317
1.29319
1.29321
1.2932
1.29321
1.29307
1.29306
1.29305
1.29304
1.29303
1.29302
1.29302
1.29301
1.29302
1.29303
1.29305
1.29308
1.29312
1.29314
1.29316
1.29318
1.2932
1.2932
1.2932
1.29306
1.29305
1.29304
1.29303
1.29302
1.29301
1.293
1.29299
1.29299
1.293
1.29301
1.29304
1.29309
1.29313
1.29315
1.29317
1.2932
1.2932
1.29319
1.29306
1.29305
1.29303
1.29302
1.29301
1.293
1.29298
1.29297
1.29297
1.29298
1.29299
1.29301
1.29305
1.2931
1.29314
1.29316
1.29319
1.29319
1.29318
1.29305
1.29304
1.29303
1.29301
1.293
1.29299
1.29297
1.29296
1.29295
1.29295
1.29296
1.29298
1.29302
1.29307
1.29312
1.29315
1.29318
1.29319
1.29317
1.29305
1.29304
1.29302
1.29301
1.29299
1.29298
1.29296
1.29295
1.29293
1.29294
1.29294
1.29296
1.29299
1.29304
1.2931
1.29314
1.29317
1.29318
1.29317
1.29305
1.29304
1.29302
1.293
1.29299
1.29297
1.29296
1.29294
1.29292
1.29292
1.29292
1.29294
1.29297
1.29301
1.29308
1.29313
1.29316
1.29317
1.29316
1.29305
1.29304
1.29302
1.293
1.29298
1.29297
1.29295
1.29293
1.29291
1.2929
1.29291
1.29292
1.29295
1.29299
1.29306
1.29311
1.29315
1.29317
1.29315
1.29305
1.29304
1.29302
1.293
1.29298
1.29296
1.29294
1.29292
1.2929
1.29288
1.29289
1.29291
1.29293
1.29297
1.29304
1.2931
1.29315
1.29316
1.29314
1.29305
1.29304
1.29302
1.293
1.29298
1.29296
1.29294
1.29291
1.29289
1.29287
1.29287
1.29289
1.29292
1.29296
1.29302
1.29309
1.29313
1.29315
1.29313
1.29305
1.29303
1.29302
1.293
1.29298
1.29296
1.29293
1.2929
1.29288
1.29285
1.29285
1.29287
1.29291
1.29295
1.29301
1.29308
1.29313
1.29314
1.29312
1.29305
1.29304
1.29302
1.293
1.29298
1.29295
1.29293
1.2929
1.29287
1.29284
1.29283
1.29286
1.29291
1.29295
1.293
1.29307
1.29312
1.29313
1.29311
1.29304
1.29303
1.29302
1.29299
1.29297
1.29295
1.29292
1.29289
1.29286
1.29283
1.29282
1.29284
1.29291
1.29295
1.293
1.29306
1.29311
1.29313
1.2931
1.29305
1.29304
1.29302
1.293
1.29297
1.29295
1.29292
1.29289
1.29286
1.29283
1.29281
1.29283
1.29291
1.29297
1.29301
1.29306
1.29311
1.29312
1.29309
1.29304
1.29303
1.29301
1.29299
1.29296
1.29294
1.29291
1.29288
1.29284
1.29282
1.2928
1.29282
1.2929
1.29297
1.29302
1.29307
1.29311
1.29312
1.29309
)
;

boundaryField
{
    leftWall
    {
        type            calculated;
        value           nonuniform List<scalar> 
50
(
1.30107
1.3003
1.29951
1.29872
1.29789
1.29707
1.2962
1.29538
1.29415
1.29343
1.29336
1.29332
1.29329
1.29327
1.29326
1.29325
1.29325
1.29324
1.29324
1.29323
1.29323
1.29323
1.29323
1.29322
1.29322
1.29322
1.29321
1.29321
1.2932
1.2932
1.29319
1.29318
1.29317
1.29316
1.29314
1.29313
1.29311
1.2931
1.2931
1.29309
1.29309
1.29308
1.29308
1.29307
1.29307
1.29307
1.29306
1.29307
1.29306
1.29307
)
;
    }
    rightWall
    {
        type            calculated;
        value           nonuniform List<scalar> 
50
(
1.32018
1.31787
1.31549
1.31289
1.3117
1.30995
1.30952
1.30771
1.30609
1.30476
1.30481
1.30377
1.30415
1.30215
1.30044
1.29713
1.2959
1.294
1.29387
1.29345
1.29331
1.29315
1.29306
1.293
1.29295
1.29288
1.29285
1.29287
1.29298
1.29314
1.2933
1.29334
1.29328
1.29323
1.29322
1.29321
1.2932
1.29319
1.29318
1.29317
1.29317
1.29316
1.29315
1.29314
1.29313
1.29312
1.29311
1.2931
1.29309
1.29309
)
;
    }
    lowerWall
    {
        type            calculated;
        value           nonuniform List<scalar> 
62
(
1.30145
1.3015
1.30161
1.30177
1.30197
1.30221
1.30247
1.30277
1.30307
1.30342
1.30373
1.30409
1.30439
1.30468
1.30494
1.30506
1.30523
1.30516
1.30522
1.30499
1.30494
1.30465
1.3046
1.30422
1.30343
1.30268
1.30177
1.30099
1.29991
1.29896
1.29763
1.29381
1.2933
1.29375
1.29254
1.31295
1.3117
1.30725
1.30461
1.3013
1.29939
1.29779
1.297
1.3133
1.30525
1.30092
1.29917
1.30208
1.30621
1.30652
1.30558
1.304
1.30416
1.30392
1.30377
1.30355
1.30362
1.30386
1.3051
1.30769
1.31784
1.32048
)
;
    }
    atmosphere
    {
        type            calculated;
        value           nonuniform List<scalar> 
46
(
1.29316
1.29316
1.29316
1.29316
1.29316
1.29317
1.29316
1.29314
1.29312
1.2931
1.2931
1.2931
1.29312
1.29314
1.29315
1.29316
1.29316
1.29316
1.29316
1.29316
1.29316
1.29316
1.29315
1.29315
1.29315
1.29314
1.29314
1.29313
1.29312
1.2931
1.29308
1.29306
1.29303
1.29301
1.29298
1.29294
1.29291
1.2929
1.29292
1.293
1.29307
1.29311
1.29316
1.2932
1.29321
1.29318
)
;
    }
    defaultFaces
    {
        type            empty;
    }
}


// ************************************************************************* //
