/*--------------------------------*- C++ -*----------------------------------*\
| =========                 |                                                 |
| \\      /  F ield         | OpenFOAM: The Open Source CFD Toolbox           |
|  \\    /   O peration     | Version:  2012                                  |
|   \\  /    A nd           | Website:  www.openfoam.com                      |
|    \\/     M anipulation  |                                                 |
\*---------------------------------------------------------------------------*/
FoamFile
{
    version     2.0;
    format      ascii;
    class       volScalarField;
    location    "0.77";
    object      volumeFraction1;
}
// * * * * * * * * * * * * * * * * * * * * * * * * * * * * * * * * * * * * * //

dimensions      [0 0 0 0 0 0 0];


internalField   nonuniform List<scalar> 
2268
(
1
1
1
1
1
1
1
1
1
1
1
1
1
1
1
1
1
1
1
1
1
0.999975
0.999776
1
1
1
1
1
1
1
1
1
1
1
1
1
1
1
1
1
1
1
1
1
0.999921
0.999711
1
1
1
1
1
1
1
1
1
1
1
1
1
1
1
1
1
1
1
1
1
0.999963
0.999711
1
1
1
1
1
1
1
1
1
1
1
1
1
1
1
1
1
1
1
1
1
0.999994
0.99975
1
1
1
1
1
1
1
1
1
1
1
1
1
1
1
1
1
1
1
1
1
1
0.999995
1
1
1
1
1
1
1
1
1
1
1
1
1
1
1
1
1
1
1
1
1
1
1
1
1
1
1
1
1
1
1
1
1
1
1
1
1
1
1
1
1
1
0.999995
0.999978
0.999998
1
1
1
1
1
1
1
1
1
1
1
1
1
1
1
1
1
1
1
1
0.999984
0.999016
0.996121
1
0.921353
0.92151
0.921511
0.92151
0.92151
0.920834
0.826823
0.815838
0.821765
0.836892
0.836891
0.836891
0.83689
0.8357
0.819467
0.812483
0.809749
0.793656
0.780822
0.921353
0.921511
0.921511
0.916618
0.89818
0.8417
0.829872
0.815838
0.836893
0.836892
0.827827
0.67187
0.514066
0.415633
0.368972
0.356737
0.461315
0.702236
0.819372
0.921489
0.921511
0.786498
0.577598
0.704359
0.914086
0.461094
0.418052
0.454835
0.452325
0.307831
0.181296
0.0871553
0.0519064
0.0429228
0.0482074
0.282191
0.942015
0.991295
0.921489
0.847385
0.290206
0.101029
0.574487
0.963695
0.955553
0.490304
0.145789
0.00132478
0.00132453
0.0021838
0.00100161
0.000587251
0.00058725
0.000587251
0.130912
0.884483
0.991295
0.921489
0.605527
3.87352e-20
0.0138348
0.514701
0.933782
0.997373
0.936239
0.651979
0.204935
0.00211327
0.00058725
0.000587251
0.00403188
0.0161429
0.0260777
0.185239
0.757642
0.991255
0.855829
0.569596
3.85229e-23
0.00080149
0.433366
0.96865
0.997373
0.997373
0.991378
0.851698
0.567209
0.293001
0.297428
0.40202
0.541258
0.565538
0.774796
0.932113
0.991341
0.670081
0.613213
2.47279e-26
0.000144476
0.411359
0.931081
0.930206
0.98689
0.997322
0.997322
0.987972
0.939373
0.949286
0.974901
0.980078
0.981567
0.991341
0.991341
0.991341
0.51236
0.508862
-1.24963e-14
0.218058
0.583965
0.634985
0.501068
0.564466
0.843572
0.997373
0.997373
0.997373
0.99564
0.951245
0.876835
0.849032
0.892268
0.984522
0.917178
0.727178
0.755416
0.806145
0.864244
0.923136
0.977351
1
1
1
1
1
1
1
1
1
1
1
1
1
0.999993
0.992488
0.823332
0.735932
0.0565647
0.0741655
0.112148
0.175804
0.269531
0.401407
0.576965
0.74278
0.853296
0.920508
0.960667
0.986857
0.997989
0.999862
0.99935
0.999308
0.999102
0.99947
0.999637
0.999885
0.962293
0.517631
0.350608
8.4637e-05
0.000179546
0.000552812
0.00182409
0.00543599
0.0151918
0.041138
0.109559
0.209907
0.319667
0.407219
0.478986
0.550017
0.668873
0.757502
0.81027
0.833477
0.889216
0.951381
0.991975
0.941053
0.528182
0.406302
1.67926e-10
3.3734e-09
8.30855e-08
1.37104e-06
1.55422e-05
0.000126278
0.000756462
0.0033604
0.011386
0.0298639
0.0485073
0.0654289
0.0944619
0.146879
0.175828
0.189108
0.324577
0.657646
0.873876
0.965623
0.960299
0.730645
0.325259
6.54762e-13
3.41071e-11
1.03674e-09
2.04465e-08
2.61612e-07
2.3783e-06
1.70588e-05
0.000141716
0.00212019
0.0104209
0.0129494
0.00775126
0.0188027
0.131571
0.287158
0.428187
0.686712
0.7306
0.730663
0.783889
0.821361
0.821365
0.6721
2.05903e-13
6.7447e-12
7.56013e-11
5.20673e-10
8.22437e-09
1.0201e-07
1.09037e-06
2.19447e-05
0.000116773
0.000145654
6.06854e-05
0.000434736
0.0887547
0.505389
0.572552
0.571626
0.153968
0.00918948
0.0335478
0.0917829
0.147453
0.221839
0.298674
9.06806e-14
2.56077e-12
2.93164e-11
2.00096e-10
1.7846e-09
1.86664e-08
9.50555e-08
3.66279e-07
1.61144e-07
3.70555e-08
1.00771e-07
6.37877e-05
0.0134255
0.22852
0.46848
0.305942
3.36385e-08
3.36385e-08
3.36385e-08
3.36385e-08
3.36385e-08
3.36385e-08
3.36385e-08
3.88873e-14
1.08077e-12
1.32129e-11
1.10216e-10
9.79435e-10
4.14668e-09
4.70908e-09
1.32853e-09
6.12669e-10
6.28609e-10
8.62887e-06
9.99149e-05
3.04239e-05
1.43519e-08
1.4416e-08
0.0618246
0.114744
0.0877734
0.0729461
0.0242805
0.000681853
8.22668e-05
6.95103e-07
1.76479e-14
4.85293e-13
5.84085e-12
4.42397e-11
3.00914e-10
2.13311e-09
7.41018e-09
5.53898e-09
6.12669e-10
2.10124e-09
1.31253e-06
9.46977e-06
1.07267e-07
3.40086e-07
1.7322e-07
1.73192e-07
0.141743
0.511285
0.513069
0.411672
0.0662495
0.00361078
6.96494e-07
7.43987e-15
2.10452e-13
2.59028e-12
1.86066e-11
9.79927e-11
5.53353e-10
7.97027e-09
5.17822e-08
4.42986e-08
7.15527e-10
3.596e-08
6.22428e-08
1.19923e-06
2.31932e-06
1.0446e-06
0.000177624
0.00744712
0.156351
0.513033
0.567697
0.567479
0.140789
0.00664523
2.86597e-15
8.68964e-14
1.16787e-12
9.05369e-12
4.52488e-11
1.7402e-10
1.95813e-09
4.56085e-08
4.8725e-07
3.7568e-07
2.27807e-07
6.22412e-08
5.19281e-07
1.14509e-06
4.25024e-07
1.59031e-08
1.80232e-09
1.80232e-09
1.80232e-09
0.0328998
0.363398
0.653225
0.653275
9.72022e-16
3.21079e-14
4.85357e-13
4.38892e-12
2.58369e-11
9.99234e-11
4.01056e-10
7.70904e-09
3.84579e-07
1.36285e-06
1.36245e-06
1.23106e-06
7.30352e-07
4.48385e-08
7.41259e-09
1.27724e-08
2.81537e-09
1.56388e-07
4.50417e-07
2.81392e-07
2.81389e-07
2.81392e-07
0.0103271
2.95672e-16
1.06461e-14
1.81096e-13
1.92705e-12
1.42067e-11
7.25924e-11
2.41149e-10
7.20846e-10
7.06371e-08
5.68088e-07
1.23944e-06
1.31219e-06
8.52377e-07
4.42846e-08
1.58968e-09
1.58991e-09
1.58861e-09
2.11838e-08
1.5372e-07
5.2888e-07
2.29675e-06
1.68718e-06
2.81414e-07
8.09833e-17
3.13457e-15
5.8728e-14
7.13297e-13
6.37293e-12
4.67275e-11
2.06795e-10
8.39061e-10
5.65002e-09
2.27816e-08
2.13239e-07
3.56293e-07
1.87125e-07
3.64734e-08
4.18863e-09
1.78529e-09
2.48287e-09
4.6379e-09
4.71604e-09
5.62137e-08
5.70572e-07
7.26152e-07
3.04648e-06
2.05642e-17
8.43691e-16
1.71235e-14
2.31942e-13
2.37834e-12
2.06499e-11
1.46979e-10
6.62398e-10
9.03664e-10
6.96812e-10
1.25855e-09
9.71357e-10
1.30835e-09
5.92804e-09
2.71025e-09
1.86507e-09
2.8215e-09
2.89974e-09
1.45558e-09
1.74683e-09
5.69332e-09
1.65389e-08
2.52953e-07
4.95738e-18
2.1274e-16
4.58024e-15
6.70599e-14
7.57967e-13
7.22921e-12
6.14048e-11
3.05306e-10
4.01835e-10
2.71389e-10
1.12336e-10
7.29348e-11
1.12937e-10
4.73919e-10
6.46156e-10
1.18988e-09
1.949e-09
1.57004e-09
9.2522e-10
6.34349e-10
4.3161e-10
4.65091e-10
8.30349e-10
1.14684e-18
5.07135e-17
1.13671e-15
1.75516e-14
2.12002e-13
2.14771e-12
1.83442e-11
9.61782e-11
1.55841e-10
1.30294e-10
8.34947e-11
6.57884e-11
7.65201e-11
1.32416e-10
2.13053e-10
4.68915e-10
6.28712e-10
5.43613e-10
4.47262e-10
4.24838e-10
3.52327e-10
2.78386e-10
2.3554e-10
2.56424e-19
1.15449e-17
2.65303e-16
4.23844e-15
5.35155e-14
5.65559e-13
4.8709e-12
2.68665e-11
4.95804e-11
4.75583e-11
4.11861e-11
4.05778e-11
3.6069e-11
4.78289e-11
7.51412e-11
1.45155e-10
1.77122e-10
1.70682e-10
1.6665e-10
1.74948e-10
1.68027e-10
1.53967e-10
1.58484e-10
5.5764e-20
2.5311e-18
5.8886e-17
9.57723e-16
1.24148e-14
1.34983e-13
1.16855e-12
6.72168e-12
1.35044e-11
1.44432e-11
1.29384e-11
1.32157e-11
1.23296e-11
1.55232e-11
2.35538e-11
3.96949e-11
4.73874e-11
4.7995e-11
4.88181e-11
5.02764e-11
4.90296e-11
4.77953e-11
5.04237e-11
1.19031e-20
5.40659e-19
1.26106e-17
2.06043e-16
2.70225e-15
2.98648e-14
2.58807e-13
1.53597e-12
3.26842e-12
3.78867e-12
3.42268e-12
3.52255e-12
3.46826e-12
4.33333e-12
6.32359e-12
9.54206e-12
1.10584e-11
1.12724e-11
1.11885e-11
1.09396e-11
1.03466e-11
9.48266e-12
8.77046e-12
2.55457e-21
1.15322e-19
2.67403e-18
4.33521e-17
5.66725e-16
6.27215e-15
5.39657e-14
3.25771e-13
7.19937e-13
8.81205e-13
7.98375e-13
8.25044e-13
8.3412e-13
1.03422e-12
1.44147e-12
1.97869e-12
2.17394e-12
2.13466e-12
1.96767e-12
1.73074e-12
1.4663e-12
1.11719e-12
8.68399e-13
5.54087e-22
2.48438e-20
5.72491e-19
9.20997e-18
1.19646e-16
1.30799e-15
1.09906e-14
6.52898e-14
1.46724e-13
1.85033e-13
1.67971e-13
1.73316e-13
1.74964e-13
2.13291e-13
2.80736e-13
3.4974e-13
3.52121e-13
3.16736e-13
2.53755e-13
1.74723e-13
1.07415e-13
1.19024e-13
3.20745e-13
1.21624e-22
5.41222e-21
1.23794e-19
1.9762e-18
2.54751e-17
2.72983e-16
2.21402e-15
1.25409e-14
2.80558e-14
3.56029e-14
3.24363e-14
3.29785e-14
3.25697e-14
3.84293e-14
4.69239e-14
5.21643e-14
4.64339e-14
3.43416e-14
2.17595e-14
1.58612e-14
9.53235e-14
1.56998e-12
6.24219e-12
2.70328e-23
1.19482e-21
2.71208e-20
4.29815e-19
5.47783e-18
5.69661e-17
4.40356e-16
2.32987e-15
5.08882e-15
6.37554e-15
5.80723e-15
5.73408e-15
5.45274e-15
6.1206e-15
6.72188e-15
6.46423e-15
4.52712e-15
4.20171e-15
4.96432e-15
2.16222e-13
4.51896e-12
3.53703e-11
8.3465e-11
6.13126e-24
2.69357e-22
6.06592e-21
9.53458e-20
1.19275e-18
1.18911e-17
8.64488e-17
4.22023e-16
8.83851e-16
1.07847e-15
9.72134e-16
9.06014e-16
8.10148e-16
7.92429e-16
7.92406e-16
1.00485e-15
5.51498e-15
7.00608e-14
1.04603e-12
1.81332e-11
2.39595e-10
1.53712e-09
3.47665e-09
1.43022e-24
6.24977e-23
1.39761e-21
2.17486e-20
2.64609e-19
2.49707e-18
1.68705e-17
7.55364e-17
1.47738e-16
1.70097e-16
1.3854e-16
1.38536e-16
1.91124e-16
1.05555e-15
1.05414e-14
1.20311e-13
1.10132e-12
3.25451e-12
1.04602e-12
3.47456e-09
4.68039e-08
1.07793e-07
1.38755e-07
3.47011e-25
1.51141e-23
3.34352e-22
5.08862e-21
5.88098e-20
5.08306e-19
3.03939e-18
1.14469e-17
2.22456e-17
3.41171e-17
1.1281e-16
6.75512e-16
4.70564e-15
2.74873e-14
9.04145e-14
1.29117e-13
1.9808e-13
1.98069e-13
5.32007e-08
2.92331e-07
3.62442e-07
3.62177e-07
2.29799e-07
7.39931e-26
3.21432e-24
7.14155e-23
1.10101e-21
1.31956e-20
1.29223e-19
1.12118e-18
1.00359e-17
9.80297e-17
1.2032e-15
1.4296e-14
1.55541e-13
1.51247e-12
7.30544e-12
1.02664e-11
1.17626e-13
1.1763e-13
4.10476e-07
9.81382e-07
8.32163e-07
1.54014e-07
1.32231e-11
1.32235e-11
7.19056e-26
3.81326e-24
1.89894e-22
7.36261e-21
2.2521e-19
5.50275e-18
1.09311e-16
1.7897e-15
2.43304e-14
2.73781e-13
2.5045e-12
1.75057e-11
3.69627e-11
3.0952e-11
1.02664e-11
1.23844e-07
1.3464e-06
1.43826e-06
9.93828e-07
1.32235e-11
1.32231e-11
3.07077e-11
5.13342e-11
1.60947e-24
1.78868e-22
9.64105e-21
3.31654e-19
8.14655e-18
1.51364e-16
2.19767e-15
2.53246e-14
2.31139e-13
1.6245e-12
8.23238e-12
1.82626e-11
2.0133e-11
2.0133e-11
3.45905e-07
1.63937e-06
1.63957e-06
6.79743e-07
4.0693e-11
4.06924e-11
7.55932e-11
9.17131e-11
9.37753e-11
5.21244e-23
4.85939e-21
2.17235e-19
6.16235e-18
1.24008e-16
1.87263e-15
2.19232e-14
2.0296e-13
1.49764e-12
8.43676e-12
1.82801e-11
1.8117e-11
1.81169e-11
3.34481e-07
1.64233e-06
1.64268e-06
6.16593e-07
3.52627e-11
4.49394e-11
7.1761e-11
6.34764e-11
3.81013e-11
2.19249e-11
6.75938e-22
5.39088e-20
2.04112e-18
4.85491e-17
8.10262e-16
1.00396e-14
9.59756e-14
7.38513e-13
4.901e-12
3.02315e-11
1.67205e-10
3.20861e-09
2.47996e-07
1.55022e-06
1.64268e-06
6.66364e-07
2.09555e-11
3.52625e-11
4.50529e-11
2.9778e-11
1.09966e-11
5.10878e-12
2.96983e-12
6.93663e-21
4.86432e-19
1.62584e-17
3.42198e-16
5.0388e-15
5.40902e-14
4.25411e-13
2.41155e-12
1.01212e-11
4.41162e-11
1.53027e-09
1.44011e-07
1.24223e-06
1.55039e-06
8.15807e-07
9.14713e-12
2.09553e-11
2.78794e-11
1.11334e-11
3.57514e-12
1.56091e-12
8.65044e-13
5.08452e-13
3.86856e-20
2.5183e-18
7.84311e-17
1.56253e-15
2.26115e-14
2.55629e-13
2.31577e-12
1.55626e-11
3.49731e-11
2.43069e-11
2.83248e-11
5.82579e-07
1.79599e-06
1.14206e-06
2.0838e-12
9.14708e-12
1.47416e-11
7.19539e-12
1.41165e-12
5.36001e-13
2.71474e-13
1.4762e-13
7.77457e-14
2.08521e-19
1.20924e-17
3.32505e-16
5.81327e-15
7.35722e-14
7.32532e-13
6.11961e-12
4.46951e-11
2.95924e-10
6.34855e-09
1.12982e-07
1.28572e-06
1.79231e-06
1.6302e-07
2.08375e-12
5.03423e-12
5.00784e-12
7.88909e-13
2.03405e-13
8.67065e-14
4.335e-14
2.15439e-14
9.84962e-15
7.51916e-19
4.08982e-17
1.04156e-15
1.65048e-14
1.825e-13
1.49967e-12
9.44779e-12
4.31837e-11
3.01069e-10
5.22807e-08
1.09245e-06
1.80686e-06
8.52579e-07
4.60917e-13
2.23392e-12
2.89534e-12
7.66178e-13
9.51631e-14
2.89867e-14
1.22851e-14
5.71877e-15
2.54287e-15
9.9873e-16
2.72912e-18
1.39345e-16
3.30699e-15
4.80949e-14
4.7423e-13
3.27355e-12
1.52773e-11
4.03996e-11
8.8225e-11
5.27264e-09
9.84516e-07
1.80623e-06
3.8256e-13
4.60933e-13
1.25954e-12
8.56796e-13
1.0428e-13
1.18408e-14
3.49675e-15
1.40941e-15
6.02745e-16
2.38735e-16
8.06694e-17
7.2941e-18
3.59123e-16
8.18011e-15
1.13709e-13
1.07395e-12
7.27987e-12
2.48642e-11
3.14998e-11
3.1501e-11
1.57553e-07
1.63821e-06
2.9053e-07
3.82439e-13
3.82435e-13
5.45334e-13
1.73576e-13
1.45715e-14
1.34918e-15
3.22252e-16
1.20463e-16
4.70261e-17
1.65691e-17
4.89355e-18
1.88684e-17
8.99316e-16
1.96596e-14
2.58373e-13
2.24913e-12
1.3485e-11
6.00579e-11
2.38865e-09
2.15608e-07
1.56666e-06
1.63778e-06
3.82439e-13
3.82435e-13
3.82436e-13
3.44438e-13
6.30077e-14
5.10527e-15
1.68479e-16
2.15367e-17
7.14967e-18
2.50628e-18
7.91443e-19
2.1449e-19
3.82611e-17
1.79428e-15
3.87611e-14
5.0485e-13
4.30911e-12
2.40977e-11
7.67894e-11
1.18477e-09
6.73428e-07
2.15874e-06
1.33755e-06
3.8256e-13
3.82439e-13
5.62812e-13
3.11389e-13
4.75367e-14
2.85361e-15
2.27579e-17
8.95959e-19
2.40396e-19
7.12639e-20
1.95754e-20
5.15684e-21
6.96216e-17
3.14478e-15
6.56184e-14
8.36855e-13
7.43703e-12
5.69309e-11
1.82783e-09
1.30826e-07
1.71855e-06
2.1612e-06
4.49329e-07
3.8256e-13
6.47216e-13
9.2988e-13
3.10445e-13
3.89166e-14
7.34776e-16
1.92413e-18
1.8244e-20
3.20218e-21
6.37793e-22
1.17919e-22
3.09564e-23
1.89957e-16
7.76688e-15
1.42605e-13
1.53811e-12
1.07798e-11
5.94149e-11
7.08802e-09
8.83796e-07
1.72106e-06
1.09625e-06
6.40247e-13
1.62016e-12
2.73442e-12
1.9386e-12
3.42809e-13
2.12358e-14
2.80092e-17
2.15021e-43
4.7379e-25
1.41904e-27
1.54758e-29
8.77022e-30
1.73727e-29
0.751785
0.797964
0.797936
0.797943
0.736721
0.797958
0.797964
0.797936
0.797958
0.797985
0.534546
0.362433
0.335822
0.38652
0.271015
0.271037
0.297415
0.297399
0.460751
0.665699
0.349771
0.303848
0.168704
0.21593
3.73344e-08
3.36385e-08
3.36385e-08
3.36385e-08
3.73346e-08
7.24228e-07
1.00414e-05
1.92055e-05
2.50624e-05
2.32442e-05
7.70062e-09
5.7691e-08
0.0181378
0.00137543
5.81848e-09
2.60154e-07
0.450038
0.0013758
0.0136555
0.0323615
0.188569
0.587504
0.683738
0.683879
2.81389e-07
2.81414e-07
2.81389e-07
0.00414664
5.36872e-06
5.36775e-06
1.91576e-06
3.84073e-10
5.1634e-07
3.89979e-07
1.21783e-06
2.11639e-06
1.15528e-09
2.40841e-10
2.15579e-08
5.53285e-08
2.35892e-10
2.40846e-10
1.96504e-10
1.46185e-10
1.66443e-10
1.68712e-10
1.65909e-10
1.56014e-10
5.26191e-11
5.46985e-11
5.51608e-11
5.4433e-11
8.60367e-12
8.68276e-12
8.89451e-12
8.88576e-12
7.97329e-13
8.20764e-13
8.99645e-13
1.04904e-12
7.00045e-13
1.39791e-12
3.33363e-12
6.31659e-12
1.25669e-11
2.46465e-11
5.76119e-11
9.85559e-11
2.03455e-10
5.31205e-10
1.63528e-09
3.36221e-09
1.41344e-08
2.85214e-08
6.05542e-08
1.02226e-07
1.55608e-07
1.72846e-07
1.95122e-07
1.95083e-07
1.45559e-07
7.22324e-08
2.89055e-08
3.92265e-09
1.32231e-11
1.32235e-11
1.32231e-11
1.32235e-11
9.15066e-11
1.17618e-10
1.44821e-10
1.67483e-10
9.34134e-11
8.77425e-11
6.94534e-11
5.75622e-11
1.63254e-11
1.2377e-11
9.98729e-12
8.56515e-12
2.12093e-12
1.78469e-12
1.53421e-12
1.3485e-12
3.44257e-13
2.79069e-13
2.32387e-13
1.99968e-13
4.74684e-14
3.68509e-14
2.96927e-14
2.50199e-14
5.32193e-15
3.95432e-15
3.09773e-15
2.58827e-15
4.75797e-16
3.41733e-16
2.6586e-16
2.26874e-16
3.45433e-17
2.47211e-17
1.97863e-17
1.76901e-17
1.99294e-18
1.48458e-18
1.26514e-18
1.19873e-18
8.94951e-20
7.04608e-20
6.38718e-20
6.36947e-20
2.49568e-21
2.16186e-21
2.09664e-21
2.45381e-21
2.34606e-23
2.76726e-23
3.48029e-23
4.38881e-23
2.70196e-29
3.41082e-29
3.97934e-29
4.5103e-29
0.783745
0.0674057
1.48043e-21
0.458224
0.58397
0.304553
0.100651
0.0800527
0.167617
0.353618
0.53581
0.646767
0.517762
0.347558
0.261153
0.349077
0.62421
0.955272
0.413117
0.478317
0.0124638
0.454548
0.545196
0.439012
0.0425935
1.72101e-05
0.00131349
0.0136281
0.0331044
0.0372665
0.038602
0.0704248
0.0816362
0.0816339
0.638156
0.810801
0.688761
0.0550755
0.349537
0.407205
0.559698
0.488503
0.0159319
3.36669e-08
1.72118e-05
4.72968e-05
7.61839e-05
0.000294516
0.0333624
0.394106
0.752871
0.768522
0.492576
0.609996
0.653881
0.112149
0.0551241
0.349499
0.512603
0.441602
0.00714342
3.36669e-08
3.36669e-08
3.36669e-08
1.54891e-05
1.54727e-05
5.94675e-05
0.0355741
0.588895
0.990103
0.990097
0.824921
0.100699
0.1007
0.00611326
0.275969
0.665868
0.274327
1.27588e-05
0.00116483
6.43654e-05
0.000917466
0.00877813
0.0254417
0.00103358
3.78582e-05
0.0451465
0.680646
0.990097
0.990103
0.987226
0.546215
0.0298537
0.013633
0.881042
0.267345
1.27588e-05
1.27488e-05
8.45346e-07
5.5623e-05
0.0120236
0.200442
0.441799
0.049477
2.86176e-07
0.0631856
0.732134
0.934065
0.923778
0.987321
0.987496
0.681956
0.490826
0.990217
0.000699068
2.48674e-05
1.24729e-06
8.01415e-07
2.98193e-05
0.0109033
0.37689
0.696842
0.35392
2.86176e-07
0.121604
0.582318
0.26325
0.324419
0.838036
0.990217
0.990217
0.990217
0.990217
1.92047e-05
2.04652e-05
7.25976e-07
8.01354e-07
2.19931e-05
0.00834598
0.448811
0.696842
0.618866
0.123536
0.204818
0.153747
2.02096e-05
2.02096e-05
0.23818
0.739056
0.973592
0.984279
0.978196
3.85374e-07
1.70429e-06
7.26133e-07
1.13319e-06
1.13326e-06
0.0123401
0.516213
0.696842
0.691626
0.49175
0.186378
2.02096e-05
2.02096e-05
2.02096e-05
2.02096e-05
0.111273
0.409571
0.545628
0.519767
5.85001e-24
-1.38717e-26
1.02648e-07
7.37418e-09
0.0026384
0.100592
0.515832
0.408238
0.199204
0.176304
0.0194967
2.02096e-05
2.02096e-05
4.14375e-05
0.000141519
0.000103244
0.000103265
0.032316
0.120983
0.0224556
0.000139774
7.37418e-09
7.37418e-09
0.227774
0.483877
0.289426
4.08218e-08
3.89475e-08
4.08218e-08
3.89475e-08
0.00050722
3.71367e-05
4.12132e-06
0.000524926
0.000988063
0.00176276
0.0138291
0.0891157
0.683884
0.683879
0.649356
0.520169
0.288223
0.0658947
1.04972e-05
1.04956e-05
0.000284895
0.000921396
0.000953014
0.000771546
8.60837e-09
9.74546e-07
0.000105635
0.00149167
0.00367072
0.033504
0.0891224
0.0424394
0.0886839
0.0873355
0.027479
3.84073e-10
3.84073e-10
3.47906e-05
0.0010114
0.00151244
0.00150342
0.000359281
8.60837e-09
8.60546e-09
9.58339e-07
1.28785e-05
3.88332e-05
0.00110592
0.00539912
0.0427338
3.84073e-10
3.84073e-10
3.84073e-10
3.84073e-10
3.84073e-10
2.26649e-08
4.21659e-05
0.000225634
7.47342e-05
8.60546e-09
8.60817e-09
5.46236e-08
1.72082e-07
1.48844e-06
1.4693e-06
1.58593e-08
1.58553e-08
1.58593e-08
1.58553e-08
1.17473e-06
2.43403e-07
1.18763e-06
7.94766e-07
3.84073e-10
6.81548e-08
7.76546e-06
1.69288e-05
1.18823e-05
8.60817e-09
6.14771e-07
1.09056e-05
1.78612e-05
6.32933e-06
1.58593e-08
1.58553e-08
1.73633e-06
1.63518e-07
1.58593e-08
2.06497e-08
3.04521e-10
5.51671e-07
9.01496e-07
3.9238e-07
4.43923e-09
8.59461e-07
6.03649e-07
1.63517e-07
1.33478e-08
2.6938e-06
3.0933e-05
3.09077e-05
1.19774e-05
1.03208e-07
1.80815e-08
3.23339e-06
1.12987e-06
2.58624e-07
1.46181e-10
3.04519e-10
2.79231e-10
3.58175e-07
1.2632e-10
4.08794e-06
5.81136e-06
2.49726e-06
1.63517e-07
1.27535e-06
2.83242e-05
3.09543e-05
2.43103e-05
5.36734e-06
1.72275e-07
1.80797e-08
2.22788e-06
1.8685e-05
2.24832e-06
1.46183e-10
2.50947e-10
2.79229e-10
1.12585e-09
1.26687e-10
1.29926e-06
2.70194e-06
8.5896e-09
7.23916e-06
4.06497e-05
4.06831e-05
3.09374e-05
9.68748e-07
2.57771e-11
7.69881e-08
1.88267e-08
7.87941e-12
0.00044252
9.38944e-05
5.21311e-11
7.90232e-11
1.08991e-10
1.63267e-11
1.17489e-08
2.9557e-08
1.41292e-08
8.52596e-09
2.28715e-06
5.8843e-06
4.16517e-06
1.45211e-11
1.43758e-11
2.57743e-11
1.25647e-11
4.62839e-09
7.84036e-12
0.000603369
0.0271393
8.93044e-12
1.2824e-11
3.5846e-11
1.63269e-11
5.07157e-09
4.62244e-09
7.30054e-09
2.50646e-08
9.38883e-12
8.85809e-12
8.78626e-12
4.66378e-11
1.25447e-10
1.49681e-10
2.44656e-11
5.74303e-10
7.87941e-12
0.000344082
0.105086
1.62121e-12
4.07419e-12
9.89297e-12
2.47338e-11
2.47353e-11
4.2592e-11
4.41354e-10
4.97246e-10
4.26135e-10
2.70111e-10
1.24323e-10
1.49036e-10
1.93658e-10
1.92879e-10
7.02293e-12
3.41605e-08
7.84036e-12
0.000338643
0.105087
1.48714e-11
5.13422e-11
1.27543e-10
3.24152e-10
3.28166e-10
2.37396e-10
1.15323e-10
5.05994e-11
4.39636e-11
4.33184e-11
4.51939e-11
5.81537e-11
9.39759e-11
7.26875e-11
7.02292e-12
4.39465e-07
7.87941e-12
0.000175632
0.105086
2.3785e-10
1.00077e-09
3.23623e-09
5.78707e-09
4.19045e-09
2.2088e-09
9.6025e-10
4.6874e-10
2.50547e-10
1.32505e-10
7.17902e-11
4.08398e-11
2.90782e-11
1.57369e-11
7.02293e-12
7.10961e-07
1.00341e-07
2.32129e-09
0.0856764
1.33084e-08
3.62365e-08
4.07476e-08
2.38513e-08
9.43739e-09
6.13156e-09
4.24115e-09
1.72111e-09
8.11056e-10
4.51326e-10
2.4948e-10
1.14439e-10
4.37025e-11
1.16092e-11
7.02292e-12
7.11711e-07
3.10354e-07
2.30716e-09
0.000771345
1.40218e-07
1.30581e-07
5.32766e-08
1.12907e-08
6.09751e-09
6.72406e-09
7.92584e-09
5.81226e-09
1.973e-09
8.93836e-10
5.29923e-10
3.24542e-10
1.40859e-10
3.29487e-11
7.02293e-12
7.12519e-07
3.24742e-07
1.0689e-08
1.06905e-08
1.44843e-07
2.6511e-08
4.17124e-11
1.34629e-10
6.69574e-10
1.22347e-09
4.61706e-09
4.21765e-08
6.27606e-08
4.64636e-08
9.92596e-09
1.87957e-09
4.81461e-10
1.15149e-10
7.02292e-12
7.25239e-07
9.66648e-07
3.03541e-07
8.22256e-08
1.49247e-11
1.49192e-11
4.17066e-11
2.56506e-11
1.53802e-11
1.55022e-11
1.49373e-11
7.15286e-08
5.38766e-07
6.24123e-07
3.40908e-07
3.68226e-08
2.9431e-09
3.86286e-10
7.02293e-12
9.09288e-08
1.7611e-06
1.46271e-06
4.86372e-07
1.23797e-10
1.95689e-10
1.9569e-10
1.00579e-10
2.57602e-11
2.38818e-10
1.49334e-11
4.67601e-08
5.66348e-07
7.4854e-07
7.49539e-07
3.81612e-07
1.6855e-08
7.62368e-10
1.48313e-10
7.02293e-12
7.64913e-06
9.13229e-06
2.05291e-06
1.79541e-10
1.78711e-10
1.06005e-10
5.13149e-11
1.97504e-11
5.42816e-10
5.73999e-10
8.82479e-12
8.75057e-12
3.05045e-07
7.4854e-07
7.09604e-07
1.36051e-07
1.62408e-09
1.30385e-10
7.02292e-12
1.29851e-05
1.70641e-05
4.41793e-06
5.48698e-11
4.87341e-11
2.00755e-11
1.2804e-11
1.08296e-11
4.57342e-10
1.74992e-10
9.31428e-11
2.3923e-11
2.39267e-11
1.79499e-07
6.0926e-07
1.83279e-07
1.25343e-09
9.19232e-11
7.02293e-12
1.21371e-05
1.70712e-05
4.79101e-06
7.24362e-12
5.80435e-12
4.07177e-12
3.41173e-12
4.13378e-12
1.53451e-11
1.01464e-10
1.73729e-10
9.23263e-11
2.00601e-10
2.00601e-10
8.26415e-08
1.21288e-07
1.92837e-08
1.05141e-09
7.02292e-12
4.60549e-06
1.48352e-05
2.95329e-06
1.13074e-12
9.03853e-13
7.84906e-13
7.93404e-13
1.44874e-12
6.05143e-12
4.14115e-11
1.28876e-10
6.42369e-11
2.50372e-10
1.65535e-08
2.87338e-08
3.91339e-07
2.07343e-07
6.74667e-09
7.02293e-12
2.08519e-07
1.69425e-06
5.24368e-07
1.66639e-13
1.37312e-13
1.30983e-13
1.71209e-13
4.00664e-13
1.47427e-12
7.63845e-12
3.56787e-11
1.61545e-11
1.20175e-13
5.49492e-07
3.11583e-07
5.99883e-07
3.565e-07
1.39084e-08
2.39053e-10
1.11193e-09
5.09686e-10
5.26932e-08
2.07832e-14
1.77363e-14
2.08284e-14
3.56618e-14
8.86985e-14
2.71475e-13
1.19611e-12
6.63705e-12
4.68503e-12
1.20165e-13
6.91303e-07
1.57646e-06
1.39894e-06
5.52123e-07
5.52696e-08
1.27312e-09
1.59178e-10
1.31279e-10
1.31234e-10
2.21464e-15
2.05075e-15
3.2528e-15
6.56016e-15
1.60738e-14
4.12562e-14
1.59726e-13
1.29815e-12
1.13155e-12
1.78529e-13
1.10697e-31
4.40703e-06
7.06289e-06
2.67343e-06
1.43812e-07
1.18741e-09
1.31279e-10
1.31234e-10
4.24132e-07
2.07112e-16
2.36544e-16
4.71027e-16
1.02632e-15
2.44512e-15
5.3225e-15
1.84228e-14
2.20811e-13
2.085e-13
9.49103e-14
2.76008e-32
1.65861e-05
1.95583e-05
7.67965e-06
4.21411e-07
6.70644e-10
1.31234e-10
1.31279e-10
7.77631e-06
1.71216e-17
2.65345e-17
5.78857e-17
1.31762e-16
3.11741e-16
6.06432e-16
1.89707e-15
2.9472e-14
2.65251e-14
1.41379e-14
-5.79573e-33
4.3921e-05
9.86178e-05
2.94603e-05
7.07636e-07
9.52778e-12
3.19519e-08
6.72257e-06
9.31085e-06
1.3353e-18
2.508e-18
5.738e-18
1.36974e-17
3.32059e-17
6.16832e-17
1.83965e-16
3.01257e-15
2.45123e-15
8.67151e-16
2.01351e-34
6.36829e-05
0.000158416
7.26371e-05
1.06841e-06
9.52765e-12
1.15444e-06
1.03241e-05
7.48903e-06
8.72202e-20
1.72498e-19
4.1899e-19
1.07317e-18
2.76708e-18
5.24706e-18
1.53731e-17
2.20154e-16
1.61216e-16
4.35108e-17
7.64759e-36
4.90452e-05
0.000158373
0.000126627
8.06805e-06
9.52778e-12
1.64251e-06
1.03249e-05
1.87385e-06
3.74219e-21
7.93703e-21
2.13187e-20
5.99257e-20
1.66807e-19
3.29284e-19
9.28725e-19
1.0353e-17
6.41985e-18
1.29452e-18
7.61733e-36
1.6019e-06
0.000157996
0.000137138
9.36763e-06
4.03359e-09
1.07778e-06
8.088e-06
4.35053e-07
7.41705e-23
1.86008e-22
5.7314e-22
1.77477e-21
5.34614e-21
1.10057e-20
2.80528e-20
2.29654e-19
1.07852e-19
1.66735e-20
8.058e-22
-5.86945e-41
0.000140776
0.000100778
5.39065e-06
6.97081e-09
2.1998e-07
6.3357e-07
1.59575e-07
5.33199e-29
6.79696e-29
7.15258e-29
4.68222e-29
1.14679e-29
-2.24863e-76
-6.03648e-76
-6.4349e-75
-7.90676e-37
-1.02957e-36
-1.65878e-36
-6.32423e-37
9.43977e-05
3.17243e-05
9.77251e-07
1.87207e-08
1.16713e-08
3.57061e-08
1.82278e-07
)
;

boundaryField
{
    leftWall
    {
        type            zeroGradient;
    }
    rightWall
    {
        type            zeroGradient;
    }
    lowerWall
    {
        type            zeroGradient;
    }
    atmosphere
    {
        type            inletOutlet;
        inletValue      uniform 0;
        value           nonuniform List<scalar> 
46
(
1.89957e-16
7.76688e-15
1.42605e-13
1.53811e-12
1.07798e-11
5.94149e-11
7.08802e-09
8.83796e-07
1.72106e-06
1.09625e-06
6.40247e-13
1.62016e-12
2.73442e-12
1.9386e-12
3.42809e-13
2.12358e-14
0
0
0
0
0
0
0
0
0
0
0
0
0
0
0
0
0
0
0
0
0
0
0
0
3.17243e-05
9.77251e-07
1.87207e-08
1.16713e-08
3.57061e-08
1.82278e-07
)
;
    }
    defaultFaces
    {
        type            empty;
    }
}


// ************************************************************************* //
