# vtk DataFile Version 2.0
gauge_2
ASCII
DATASET POLYDATA
POINTS 43 double
0.2 0.0359992 0.005
0.2 0.0419991 0.005
0.2 0.047999 0.005
0.2 0.0607609 0.005
0.2 0.0735228 0.005
0.2 0.0862847 0.005
0.2 0.0990467 0.005
0.2 0.111809 0.005
0.2 0.124571 0.005
0.2 0.137332 0.005
0.2 0.150094 0.005
0.2 0.162856 0.005
0.2 0.175618 0.005
0.2 0.18838 0.005
0.2 0.201142 0.005
0.2 0.213904 0.005
0.2 0.226666 0.005
0.2 0.239428 0.005
0.2 0.25219 0.005
0.2 0.264952 0.005
0.2 0.277714 0.005
0.2 0.290476 0.005
0.2 0.303238 0.005
0.2 0.315999 0.005
0.2 0.328761 0.005
0.2 0.341523 0.005
0.2 0.354285 0.005
0.2 0.367047 0.005
0.2 0.379809 0.005
0.2 0.392571 0.005
0.2 0.405333 0.005
0.2 0.418095 0.005
0.2 0.430857 0.005
0.2 0.443619 0.005
0.2 0.456381 0.005
0.2 0.469143 0.005
0.2 0.481905 0.005
0.2 0.494666 0.005
0.2 0.507428 0.005
0.2 0.52019 0.005
0.2 0.532952 0.005
0.2 0.545714 0.005
0.2 0.558476 0.005
POINT_DATA 43
 FIELD attributes 1
alpha.water 1 43 float
1 1 1 1 0.777555 0.290075 0.0125207 2.93394e-05 4.73266e-05 1.84431e-05 5.70046e-10 7.09787e-09 1.74479e-08 1.07786e-08 4.37376e-12 1.49212e-12 3.04516e-13 5.25172e-14 1.00563e-14 5.49983e-16 7.16652e-17 1.40268e-17 2.69609e-18 4.1271e-19 5.29568e-20 6.69927e-21 7.6872e-22 9.6252e-23 1.81711e-23 3.57635e-24 6.56551e-25 1.07293e-25 1.5328e-26 1.95315e-27 2.29107e-28 2.48905e-29 2.43938e-30 2.036e-31 1.32254e-32 6.00405e-34 1.7152e-35 2.74165e-37 2.35786e-39
