/*--------------------------------*- C++ -*----------------------------------*\
| =========                 |                                                 |
| \\      /  F ield         | OpenFOAM: The Open Source CFD Toolbox           |
|  \\    /   O peration     | Version:  3.0.1                                 |
|   \\  /    A nd           | Web:      www.OpenFOAM.org                      |
|    \\/     M anipulation  |                                                 |
\*---------------------------------------------------------------------------*/
FoamFile
{
    version     2.0;
    format      ascii;
    class       surfaceScalarField;
    location    "5e-05";
    object      phi;
}
// * * * * * * * * * * * * * * * * * * * * * * * * * * * * * * * * * * * * * //

dimensions      [1 0 -1 0 0 0 0];

internalField   nonuniform List<scalar> 
1890
(
-3.46945e-18
-6.07153e-18
3.46945e-18
-5.20417e-18
-3.46945e-18
-6.07153e-18
-3.46945e-18
-4.33681e-18
0
-2.60209e-18
2.77556e-17
2.60209e-18
3.81639e-17
-2.60209e-18
1.11022e-16
1.73472e-18
2.91434e-16
1.73472e-18
7.25114e-16
8.67362e-19
1.81799e-15
-1.73472e-18
4.53804e-15
8.67362e-19
1.12965e-14
1.73472e-18
2.80297e-14
2.10568e-30
6.93369e-14
8.67362e-19
1.70787e-13
-8.67362e-18
4.19283e-13
-1.99493e-17
1.02559e-12
-5.0307e-17
2.49912e-12
-1.02349e-16
6.06555e-12
-2.08167e-16
1.46593e-11
-4.23273e-16
3.52694e-11
-8.82974e-16
8.44477e-11
-1.85615e-15
2.01155e-10
-3.94389e-15
4.76497e-10
-8.44724e-15
1.12199e-09
-1.83404e-14
2.62484e-09
-4.04763e-14
6.09772e-09
-9.09229e-14
1.40577e-08
-2.07878e-13
3.21391e-08
-4.82925e-13
7.2808e-08
-1.13671e-12
1.63285e-07
-2.70138e-12
3.62133e-07
-6.45758e-12
7.93229e-07
-1.54727e-11
1.71355e-06
-3.70435e-11
3.64421e-06
-8.83775e-11
7.61384e-06
-2.09628e-10
1.55883e-05
-4.93268e-10
3.11774e-05
-1.14863e-09
6.06837e-05
-2.63863e-09
0.000114401
-5.95247e-09
0.000207643
-1.30965e-08
0.000360122
-2.781e-08
0.000591053
-5.59574e-08
0.000906601
-1.04438e-07
0.00127859
-1.73272e-07
0.00162352
-2.32123e-07
0.00181731
-1.74013e-07
0.00181551
2.67197e-07
0.00179636
2.38044e-07
0.00174655
-3.65306e-07
0.0017937
-1.39539e-07
0.00166454
9.83952e-08
0.00134647
1.34629e-07
0.000966758
1.07014e-07
0.000631743
6.24275e-08
0.00038372
3.18971e-08
0.000220077
1.50897e-08
0.000120555
6.81603e-09
6.36042e-05
2.99284e-09
3.25228e-05
1.29083e-09
1.61948e-05
5.53022e-10
7.88272e-06
2.36593e-10
3.76181e-06
1.01359e-10
1.76441e-06
4.35305e-11
8.15003e-07
1.87444e-11
3.71374e-07
8.09187e-12
1.67176e-07
3.50191e-12
7.44345e-08
1.51944e-12
3.28144e-08
6.61126e-13
1.43362e-08
2.88575e-13
6.21192e-09
1.26378e-13
2.67138e-09
5.55372e-14
1.14084e-09
2.4496e-14
4.84091e-10
1.08412e-14
2.04195e-10
4.81473e-15
8.56574e-11
2.14065e-15
3.57477e-11
9.47159e-16
1.48471e-11
4.15466e-16
6.13872e-12
1.83881e-16
2.52739e-12
7.80626e-17
1.03641e-12
3.55618e-17
4.23387e-13
1.30104e-17
1.7232e-13
5.20417e-18
6.98816e-14
8.67362e-19
2.82482e-14
0
1.13659e-14
-4.33681e-18
4.54844e-15
-2.60209e-18
1.8284e-15
-1.73472e-18
7.32053e-16
-2.60209e-18
2.87964e-16
-5.20417e-18
1.14492e-16
-8.67362e-19
4.16334e-17
-3.46945e-18
3.46945e-18
-2.60209e-18
-3.46945e-18
-6.84775e-33
-1.04083e-17
-2.60209e-18
-3.46945e-18
-8.67362e-19
-1.04083e-17
-8.67362e-19
0
-1.73472e-18
8.67362e-19
0
-2.60209e-18
0
2.60209e-18
0
0
3.46945e-18
3.46945e-18
1.04083e-17
3.46945e-18
2.08167e-17
1.73472e-18
4.16334e-17
3.46945e-18
1.07553e-16
3.46945e-18
2.81025e-16
-8.67362e-19
7.18176e-16
1.73472e-18
1.82146e-15
9.54098e-18
4.53804e-15
2.60209e-18
1.13035e-14
4.33681e-18
2.80262e-14
8.67362e-19
6.92987e-14
-7.80626e-18
1.70745e-13
-1.56125e-17
4.19172e-13
-3.72966e-17
1.02538e-12
-6.67869e-17
2.49871e-12
-1.47451e-16
6.0647e-12
-3.21791e-16
1.46576e-11
-6.7394e-16
3.52657e-11
-1.42768e-15
8.44395e-11
-3.00628e-15
2.01137e-10
-6.37077e-15
4.76458e-10
-1.36419e-14
1.1219e-09
-2.95684e-14
2.62464e-09
-6.50304e-14
6.09726e-09
-1.453e-13
1.40566e-08
-3.29597e-13
3.21365e-08
-7.5746e-13
7.28019e-08
-1.75759e-12
1.6327e-07
-4.10018e-12
3.62097e-07
-9.57092e-12
7.93144e-07
-2.22437e-11
1.71335e-06
-5.12062e-11
3.64372e-06
-1.16113e-10
7.6127e-06
-2.57891e-10
1.55856e-05
-5.57606e-10
3.11713e-05
-1.16546e-09
6.06698e-05
-2.33832e-09
0.00011437
-4.48029e-09
0.000207576
-8.17833e-09
0.000359987
-1.47933e-08
0.000590796
-2.32032e-08
0.000906165
-3.35558e-08
0.00127799
-4.77909e-08
0.00162299
-8.38118e-08
0.0018177
-2.07335e-07
0.00181644
-5.92524e-07
0.00179294
-5.69189e-07
0.00174981
2.90017e-07
0.0017942
5.02982e-07
0.0016642
1.49795e-07
0.00134604
5.8473e-08
0.000966449
1.78337e-08
0.000631571
1.02912e-08
0.000383636
8.24562e-09
0.000220039
6.16374e-09
0.000120539
4.03909e-09
6.3597e-05
2.35007e-09
3.25198e-05
1.23147e-09
1.61935e-05
6.33717e-10
7.88218e-06
3.12355e-10
3.76158e-06
1.48214e-10
1.76431e-06
6.80691e-11
8.14961e-07
3.04199e-11
3.71356e-07
1.32882e-11
1.67168e-07
5.69305e-12
7.44311e-08
2.39741e-12
3.28129e-08
9.93692e-13
1.43356e-08
4.05837e-13
6.21164e-09
1.63255e-13
2.67125e-09
6.46046e-14
1.14079e-09
2.51405e-14
4.84067e-10
9.57914e-15
2.04185e-10
3.55879e-15
8.56527e-11
1.27589e-15
3.57456e-11
4.36283e-16
1.48462e-11
1.36176e-16
6.13831e-12
3.46945e-17
2.52722e-12
6.93889e-18
1.03632e-12
-8.67362e-19
4.23352e-13
-1.73472e-18
1.7231e-13
1.73472e-18
6.98712e-14
-8.67362e-19
2.82309e-14
-3.46945e-18
1.13694e-14
-3.46945e-18
4.56579e-15
-4.33681e-18
1.8284e-15
-8.67362e-19
7.28584e-16
-3.46945e-18
2.87964e-16
-1.73472e-18
1.14492e-16
-2.60209e-18
4.16334e-17
-8.67362e-19
1.04083e-17
-1.73472e-18
-3.46945e-18
-2.60209e-18
-6.93889e-18
-8.67362e-19
-6.93889e-18
-8.67362e-19
-3.46945e-18
0
-3.46945e-18
1.73472e-18
4.33681e-18
6.93889e-18
-2.60209e-18
-3.46945e-18
-2.60209e-18
6.93889e-18
-1.36955e-32
1.04083e-17
1.73472e-18
3.46945e-18
2.60209e-18
2.42861e-17
7.80626e-18
4.16334e-17
4.33681e-18
1.07553e-16
6.93889e-18
2.91434e-16
6.93889e-18
7.42462e-16
3.46945e-18
1.81799e-15
2.60209e-18
4.52763e-15
-2.60209e-18
1.12861e-14
8.67362e-19
2.80054e-14
-2.60209e-18
6.92536e-14
-6.07153e-18
1.70673e-13
-1.38778e-17
4.19043e-13
-3.20924e-17
1.02507e-12
-8.32667e-17
2.49805e-12
-1.77809e-16
6.06333e-12
-3.75568e-16
1.46546e-11
-7.88432e-16
3.52595e-11
-1.65059e-15
8.44265e-11
-3.44429e-15
2.01109e-10
-7.20431e-15
4.76396e-10
-1.51684e-14
1.12176e-09
-3.23474e-14
2.62433e-09
-7.00126e-14
6.09654e-09
-1.54362e-13
1.40549e-08
-3.47026e-13
3.21326e-08
-7.94797e-13
7.27927e-08
-1.84963e-12
1.63249e-07
-4.35655e-12
3.62048e-07
-1.03389e-11
7.93031e-07
-2.46116e-11
1.7131e-06
-5.85286e-11
3.64317e-06
-1.38558e-10
7.61154e-06
-3.25561e-10
1.55833e-05
-7.57195e-10
3.1167e-05
-1.7387e-09
6.06626e-05
-3.93018e-09
0.00011436
-8.71193e-09
0.00020757
-1.88321e-08
0.000360002
-3.93628e-08
0.000590879
-7.83675e-08
0.000906402
-1.459e-07
0.00127848
-2.44938e-07
0.00162367
-3.44099e-07
0.0018178
-3.14723e-07
0.00181568
1.40285e-07
0.00179554
2.33804e-07
0.00174726
-3.59461e-07
0.00179383
-1.72636e-07
0.00166465
1.53624e-07
0.00134643
2.12265e-07
0.000966682
1.77377e-07
0.000631673
1.12452e-07
0.00038367
6.23151e-08
0.000220046
3.18011e-08
0.000120538
1.53586e-08
6.35946e-05
7.13187e-09
3.25179e-05
3.21422e-09
1.61924e-05
1.41684e-09
7.88157e-06
6.13434e-10
3.76127e-06
2.61513e-10
1.76416e-06
1.09912e-10
8.14895e-07
4.55542e-11
3.71327e-07
1.86104e-11
1.67156e-07
7.48193e-12
7.44257e-08
2.95144e-12
3.28106e-08
1.1368e-12
1.43346e-08
4.25458e-13
6.21125e-09
1.52232e-13
2.6711e-09
5.05412e-14
1.14073e-09
1.53133e-14
4.84043e-10
3.4972e-15
2.04176e-10
9.1073e-17
8.56494e-11
-6.02816e-16
3.57444e-11
-5.44703e-16
1.48458e-11
-3.60822e-16
6.1382e-12
-2.12504e-16
2.52719e-12
-1.16226e-16
1.03632e-12
-6.33174e-17
4.23356e-13
-3.20924e-17
1.723e-13
-1.64799e-17
6.98677e-14
-6.93889e-18
2.82413e-14
8.67362e-19
1.13555e-14
1.73472e-18
4.5762e-15
8.33714e-31
1.82146e-15
-8.67362e-19
7.28584e-16
1.73472e-18
2.91434e-16
-9.24446e-32
1.21431e-16
0
3.81639e-17
4.33681e-18
1.04083e-17
5.20417e-18
-1.04083e-17
7.80626e-18
4.14067e-34
6.93889e-18
3.46945e-18
5.20417e-18
3.46945e-18
5.20417e-18
1.04083e-17
6.07153e-18
3.46945e-18
3.46945e-18
6.93889e-18
3.46945e-18
7.80626e-18
1.73472e-17
6.93889e-18
1.38778e-17
6.07153e-18
1.38778e-17
2.60209e-18
1.38778e-17
-1.73472e-18
4.85723e-17
8.67362e-19
1.00614e-16
0
2.91434e-16
1.73472e-18
7.21645e-16
0
1.80064e-15
2.60209e-18
4.54498e-15
1.73472e-18
1.12722e-14
8.67362e-19
2.7988e-14
3.46945e-18
6.92259e-14
-6.07153e-18
1.70596e-13
-1.47451e-17
4.18846e-13
-4.16334e-17
1.0247e-12
-8.84709e-17
2.49729e-12
-1.8735e-16
6.0617e-12
-4.05058e-16
1.46513e-11
-8.37871e-16
3.52525e-11
-1.71651e-15
8.44119e-11
-3.50674e-15
2.01078e-10
-7.16614e-15
4.7633e-10
-1.46385e-14
1.12162e-09
-3.00055e-14
2.624e-09
-6.20346e-14
6.09579e-09
-1.29949e-13
1.40532e-08
-2.7698e-13
3.21285e-08
-6.02612e-13
7.27829e-08
-1.33964e-12
1.63225e-07
-3.03866e-12
3.61992e-07
-7.00651e-12
7.92898e-07
-1.63374e-11
1.71278e-06
-3.83312e-11
3.64243e-06
-9.00123e-11
7.60983e-06
-2.10586e-10
1.55794e-05
-4.88451e-10
3.11582e-05
-1.11769e-09
6.06433e-05
-2.50988e-09
0.000114319
-5.49768e-09
0.000207483
-1.16574e-08
0.000359831
-2.36878e-08
0.000590563
-4.54656e-08
0.000905877
-8.05149e-08
0.00127775
-1.26678e-07
0.00162302
-1.67232e-07
0.00181821
-1.69977e-07
0.00181666
-1.29711e-07
0.00179257
-3.37828e-07
0.00175026
1.20041e-08
0.00179471
1.17558e-07
0.0016644
8.78041e-08
0.00134599
1.05332e-07
0.000966298
9.2901e-08
0.000631427
6.51367e-08
0.000383533
3.90535e-08
0.000219975
2.11609e-08
0.000120503
1.07033e-08
6.35786e-05
5.14862e-09
3.25107e-05
2.3832e-09
1.61891e-05
1.0698e-09
7.88016e-06
4.68279e-10
3.76067e-06
2.00535e-10
1.76391e-06
8.41327e-11
8.14788e-07
3.45603e-11
3.71283e-07
1.38625e-11
1.67138e-07
5.40032e-12
7.44185e-08
2.02007e-12
3.28078e-08
7.11228e-13
1.43336e-08
2.26699e-13
6.21085e-09
5.73395e-14
2.67096e-09
4.91534e-15
1.14068e-09
-7.43156e-15
4.8403e-10
-7.75595e-15
2.04173e-10
-5.48259e-15
8.56496e-11
-3.35669e-15
3.57451e-11
-1.90386e-15
1.48464e-11
-1.02522e-15
6.13857e-12
-5.34295e-16
2.52739e-12
-2.75821e-16
1.03644e-12
-1.35308e-16
4.23408e-13
-6.59195e-17
1.72338e-13
-3.55618e-17
6.98989e-14
-1.56125e-17
2.82413e-14
-6.07153e-18
1.13659e-14
-3.46945e-18
4.5762e-15
1.73472e-18
1.81799e-15
1.73472e-18
7.21645e-16
4.33681e-18
2.87964e-16
2.60209e-18
1.249e-16
1.73472e-18
4.85723e-17
1.73472e-18
1.04083e-17
8.67362e-19
0
1.73472e-18
-3.46945e-18
4.33681e-18
3.46945e-18
3.46945e-18
-3.46945e-18
6.93889e-18
3.46945e-18
3.46945e-18
-8.67362e-19
3.46945e-18
-2.60209e-18
3.46945e-18
-4.33681e-18
1.73472e-17
-2.60209e-18
4.14067e-34
-3.46945e-18
3.46945e-18
-6.93889e-18
1.73472e-17
-7.80626e-18
4.85723e-17
-4.33681e-18
1.07553e-16
-6.07153e-18
2.91434e-16
-6.07153e-18
7.28584e-16
-8.67362e-18
1.80758e-15
-1.04083e-17
4.5311e-15
-6.07153e-18
1.12896e-14
-2.60209e-18
2.79499e-14
-1.12757e-17
6.91912e-14
-6.93889e-18
1.70509e-13
-1.82146e-17
4.18641e-13
-4.42354e-17
1.02432e-12
-7.45931e-17
2.49644e-12
-1.5786e-16
6.06003e-12
-3.18322e-16
1.46479e-11
-6.4098e-16
3.52456e-11
-1.28023e-15
8.43977e-11
-2.50668e-15
2.01049e-10
-4.82427e-15
4.7627e-10
-9.09342e-15
1.12149e-09
-1.6767e-14
2.62374e-09
-3.014e-14
6.09522e-09
-5.25005e-14
1.40519e-08
-8.79028e-14
3.21256e-08
-1.3936e-13
7.27763e-08
-2.03575e-13
1.6321e-07
-2.60611e-13
3.61955e-07
-2.41767e-13
7.92811e-07
1.73757e-13
1.71258e-06
1.69995e-12
3.64196e-06
6.70952e-12
7.60873e-06
2.01975e-11
1.55769e-05
5.41404e-11
3.11527e-05
1.35206e-10
6.06315e-05
3.18581e-10
0.000114294
7.08708e-10
0.000207436
1.47761e-09
0.000359746
2.84286e-09
0.000590426
4.89928e-09
0.000905697
7.10262e-09
0.00127761
7.36479e-09
0.00162312
3.43949e-09
0.0018187
-3.71462e-09
0.00181705
-1.07668e-08
0.00179162
-2.8702e-08
0.00175042
-1.50378e-08
0.00179519
-1.97004e-08
0.00166468
-5.83619e-10
0.00134598
3.22148e-10
0.000966198
2.90226e-10
0.000631326
6.52144e-10
0.000383463
6.10528e-10
0.000219934
5.25208e-10
0.000120481
3.92134e-10
6.35677e-05
2.59749e-10
3.25055e-05
1.5695e-10
1.61868e-05
8.53838e-11
7.87911e-06
4.51286e-11
3.76021e-06
2.27941e-11
1.76371e-06
1.09171e-11
8.14707e-07
4.9319e-12
3.71249e-07
2.04725e-12
1.67124e-07
7.46978e-13
7.44134e-08
2.15928e-13
3.28059e-08
1.8382e-14
1.43329e-08
-3.84762e-14
6.21065e-09
-4.35546e-14
2.67091e-09
-3.36866e-14
1.14068e-09
-2.24447e-14
4.84039e-10
-1.37555e-14
2.04181e-10
-7.97799e-15
8.56552e-11
-4.44176e-15
3.57485e-11
-2.39479e-15
1.48483e-11
-1.25507e-15
6.13959e-12
-6.45317e-16
2.52792e-12
-3.25261e-16
1.03671e-12
-1.60462e-16
4.23543e-13
-8.1532e-17
1.72411e-13
-3.81639e-17
6.99267e-14
-1.64799e-17
2.82552e-14
-6.93889e-18
1.13833e-14
-8.67362e-19
4.57967e-15
-1.73472e-18
1.82493e-15
-3.46945e-18
7.25114e-16
-1.73472e-18
2.91434e-16
-8.67362e-19
1.2837e-16
-2.60209e-18
4.51028e-17
-5.20417e-18
1.04083e-17
-5.20417e-18
3.46945e-18
-4.33681e-18
-2.07034e-34
-4.33681e-18
-3.46945e-18
1.73472e-18
-3.46945e-18
-1.73472e-18
-1.73472e-17
1.73472e-18
6.93889e-18
6.93889e-18
-8.67362e-18
6.93889e-18
-5.20417e-18
3.46945e-18
-8.67362e-19
1.38778e-17
8.67362e-19
6.93889e-18
-2.60209e-18
2.77556e-17
-8.67362e-19
4.85723e-17
-3.46945e-18
1.17961e-16
-3.46945e-18
2.84495e-16
-1.73472e-18
7.25114e-16
8.67362e-19
1.82146e-15
-1.73472e-18
4.5311e-15
-2.60209e-18
1.12618e-14
-2.60209e-18
2.79637e-14
-4.33681e-18
6.91391e-14
-8.67362e-18
1.70426e-13
-1.56125e-17
4.18523e-13
-2.68882e-17
1.02398e-12
-6.59195e-17
2.49582e-12
-1.30104e-16
6.05878e-12
-2.55872e-16
1.46454e-11
-5.10009e-16
3.52408e-11
-1.00354e-15
8.43887e-11
-1.92554e-15
2.01033e-10
-3.56139e-15
4.7624e-10
-6.27449e-15
1.12144e-09
-1.02158e-14
2.62365e-09
-1.43392e-14
6.09509e-09
-1.32524e-14
1.40517e-08
1.17311e-14
3.21254e-08
1.16896e-13
7.27762e-08
4.55113e-13
1.6321e-07
1.44958e-12
3.61958e-07
4.17359e-12
7.92819e-07
1.13604e-11
1.7126e-06
2.97714e-11
3.64202e-06
7.5823e-11
7.60888e-06
1.88423e-10
1.55772e-05
4.57583e-10
3.11535e-05
1.08519e-09
6.06331e-05
2.50634e-09
0.000114298
5.61024e-09
0.000207442
1.20829e-08
0.000359754
2.47737e-08
0.000590435
4.75821e-08
0.000905697
8.34092e-08
0.00127758
1.26851e-07
0.00162306
1.48454e-07
0.00181869
8.28529e-08
0.00181717
6.4689e-08
0.00179162
3.22905e-07
0.00175038
6.11114e-10
0.00179515
-7.37787e-08
0.00166465
-1.27561e-07
0.00134599
-1.07628e-07
0.000966209
-8.23207e-08
0.000631333
-5.37241e-08
0.000383466
-3.12047e-08
0.000219935
-1.6491e-08
0.000120481
-8.12327e-09
6.35675e-05
-3.79676e-09
3.25053e-05
-1.70356e-09
1.61866e-05
-7.40203e-10
7.87903e-06
-3.13533e-10
3.76017e-06
-1.30296e-10
1.76369e-06
-5.35011e-11
8.14696e-07
-2.18897e-11
3.71244e-07
-9.01812e-12
1.67122e-07
-3.7865e-12
7.44126e-08
-1.63957e-12
3.28057e-08
-7.38855e-13
1.43329e-08
-3.47528e-13
6.21068e-09
-1.69905e-13
2.67095e-09
-8.55331e-14
1.14071e-09
-4.38521e-14
4.84061e-10
-2.2665e-14
2.04195e-10
-1.17189e-14
8.56631e-11
-6.02903e-15
3.57529e-11
-3.0748e-15
1.48507e-11
-1.55258e-15
6.14083e-12
-7.75421e-16
2.52857e-12
-3.7817e-16
1.03703e-12
-1.83881e-16
4.23706e-13
-9.02056e-17
1.72494e-13
-3.98986e-17
6.99683e-14
-2.25514e-17
2.82829e-14
-1.30104e-17
1.13833e-14
-6.07153e-18
4.57273e-15
-1.73472e-18
1.83187e-15
8.67362e-19
7.25114e-16
-4.33681e-18
2.98372e-16
0
1.11022e-16
0
4.51028e-17
-2.60209e-18
1.73472e-17
-8.67362e-19
1.04083e-17
-1.73472e-18
2.08167e-17
8.67362e-19
-3.46945e-18
-4.33681e-18
9.31651e-34
-4.33681e-18
-2.07034e-34
-6.07153e-18
-8.67362e-18
1.04083e-17
-1.21431e-17
1.73472e-17
-7.80626e-18
1.38778e-17
-7.80626e-18
-3.46945e-18
-4.33681e-18
1.38778e-17
-1.73472e-18
1.73472e-17
-8.67362e-19
5.20417e-17
-4.33681e-18
1.11022e-16
-1.73472e-18
2.84495e-16
-1.73472e-18
7.14706e-16
-4.33681e-18
1.81799e-15
2.60209e-18
4.52763e-15
-2.60209e-18
1.12584e-14
-2.60209e-18
2.79429e-14
-3.46945e-18
6.91149e-14
-6.93889e-18
1.70364e-13
-6.93889e-18
4.18391e-13
-1.30104e-17
1.02373e-12
-1.64799e-17
2.49535e-12
-3.90313e-17
6.05779e-12
-7.97973e-17
1.46435e-11
-1.63931e-16
3.52373e-11
-2.89699e-16
8.43823e-11
-5.01335e-16
2.01022e-10
-7.44196e-16
4.76225e-10
-7.84962e-16
1.12142e-09
2.64545e-16
2.62366e-09
5.22152e-15
6.09519e-09
2.19469e-14
1.40521e-08
7.25305e-14
3.21268e-08
2.17577e-13
7.27801e-08
6.07313e-13
1.63221e-07
1.6278e-12
3.61986e-07
4.24212e-12
7.92893e-07
1.08134e-11
1.71278e-06
2.70699e-11
3.64247e-06
6.67472e-11
7.60996e-06
1.62362e-10
1.55798e-05
3.89792e-10
3.11592e-05
9.2306e-10
6.06457e-05
2.15239e-09
0.000114324
4.92619e-09
0.000207493
1.10099e-08
0.000359847
2.38586e-08
0.000590583
4.95265e-08
0.00090588
9.65911e-08
0.00127769
1.70975e-07
0.00162285
2.54035e-07
0.00181805
2.42766e-07
0.001817
-1.72217e-07
0.0017923
-3.20906e-07
0.00175021
2.98844e-07
0.0017947
2.21611e-07
0.00166453
-4.64008e-08
0.00134603
-1.28405e-07
0.000966304
-1.21939e-07
0.000631419
-7.97116e-08
0.000383523
-4.40196e-08
0.000219968
-2.19979e-08
0.000120498
-1.02918e-08
6.35758e-05
-4.59947e-09
3.25091e-05
-1.98838e-09
1.61883e-05
-8.38654e-10
7.87976e-06
-3.4731e-10
3.76047e-06
-1.41906e-10
1.76382e-06
-5.75219e-11
8.14747e-07
-2.32787e-11
3.71265e-07
-9.47816e-12
1.67131e-07
-3.91712e-12
7.44162e-08
-1.66232e-12
3.28072e-08
-7.31037e-13
1.43336e-08
-3.34809e-13
6.21101e-09
-1.59535e-13
2.67112e-09
-7.85804e-14
1.14079e-09
-3.96237e-14
4.84103e-10
-2.02503e-14
2.04217e-10
-1.04005e-14
8.56746e-11
-5.33427e-15
3.57589e-11
-2.72091e-15
1.48537e-11
-1.37737e-15
6.14235e-12
-6.9042e-16
2.52934e-12
-3.39138e-16
1.0374e-12
-1.67401e-16
4.2389e-13
-7.97973e-17
1.72563e-13
-4.0766e-17
7.00065e-14
-1.64799e-17
2.83037e-14
-1.12757e-17
1.13867e-14
-6.93889e-18
4.57967e-15
-1.73472e-18
1.82493e-15
-2.60209e-18
7.35523e-16
-1.73472e-18
2.94903e-16
-1.73472e-18
1.07553e-16
-1.73472e-18
4.85723e-17
0
1.04083e-17
-8.67362e-19
-6.21019e-48
8.67362e-19
3.46945e-18
8.67362e-19
-6.93889e-18
-3.46945e-18
-1.65627e-33
-2.60209e-18
-3.46945e-18
-4.33681e-18
-8.67362e-18
2.77556e-17
4.33681e-18
1.38778e-17
-2.60209e-18
1.38778e-17
-3.46945e-18
3.46945e-18
-8.67362e-18
1.38778e-17
-7.80626e-18
0
-1.12757e-17
5.89806e-17
-6.93889e-18
1.17961e-16
-6.07153e-18
2.84495e-16
-6.07153e-18
7.38992e-16
8.67362e-19
1.79717e-15
-3.46945e-18
4.52069e-15
3.21844e-31
1.12549e-14
8.67362e-19
2.79325e-14
6.07153e-18
6.91253e-14
7.80626e-18
1.70343e-13
1.73472e-18
4.18363e-13
4.33681e-18
1.02365e-12
4.33681e-18
2.49517e-12
1.9082e-17
6.05748e-12
4.68375e-17
1.4643e-11
1.1189e-16
3.52364e-11
2.47198e-16
8.43814e-11
5.50775e-16
2.01022e-10
1.23512e-15
4.76229e-10
2.77903e-15
1.12144e-09
6.25194e-15
2.62372e-09
1.40131e-14
6.09539e-09
3.12805e-14
1.40527e-08
6.93421e-14
3.21283e-08
1.51934e-13
7.27842e-08
3.27015e-13
1.63232e-07
6.87635e-13
3.62012e-07
1.40527e-12
7.92957e-07
2.80595e-12
1.71294e-06
5.13225e-12
3.64285e-06
7.91583e-12
7.61087e-06
7.76598e-12
1.55819e-05
-9.09433e-12
3.11642e-05
-8.72125e-11
6.06571e-05
-3.53035e-10
0.000114349
-1.14245e-09
0.000207549
-3.3255e-09
0.000359963
-8.61393e-09
0.00059081
-1.99869e-08
0.000906287
-4.07465e-08
0.00127831
-6.86385e-08
0.00162348
-7.80523e-08
0.00181775
1.96779e-08
0.00181595
4.41864e-07
0.00179594
4.26444e-07
0.00174752
-3.00772e-07
0.00179387
-3.57008e-07
0.00166462
-1.83565e-08
0.00134637
5.78372e-08
0.000966616
6.52371e-08
0.000631619
4.13357e-08
0.000383633
2.12124e-08
0.000220022
9.60513e-09
0.000120524
3.98564e-09
6.3587e-05
1.53969e-09
3.2514e-05
5.56243e-10
1.61904e-05
1.86474e-10
7.8806e-06
5.61361e-11
3.76082e-06
1.4844e-11
1.76395e-06
2.45988e-12
8.14802e-07
-6.18877e-13
3.71287e-07
-1.00375e-12
1.6714e-07
-7.26428e-13
7.44199e-08
-4.77079e-13
3.28088e-08
-2.87586e-13
1.43342e-08
-1.65603e-13
6.21133e-09
-9.28571e-14
2.67127e-09
-5.11275e-14
1.14087e-09
-2.77512e-14
4.84142e-10
-1.48657e-14
2.04237e-10
-7.86263e-15
8.56847e-11
-4.10262e-15
3.57641e-11
-2.11203e-15
1.48563e-11
-1.07293e-15
6.14372e-12
-5.38632e-16
2.53e-12
-2.68015e-16
1.03774e-12
-1.30972e-16
4.2405e-13
-6.67869e-17
1.72643e-13
-2.94903e-17
7.00412e-14
-1.30104e-17
2.83211e-14
-3.46945e-18
1.14075e-14
-1.73472e-18
4.58314e-15
8.67362e-19
1.8284e-15
-9.8094e-31
7.32053e-16
4.33681e-18
2.98372e-16
2.60209e-18
1.11022e-16
-2.7391e-32
4.51028e-17
-2.60209e-18
1.38778e-17
-2.60209e-18
1.2422e-33
-3.46945e-18
-6.93889e-18
-8.67362e-19
-4.14067e-34
0
-3.46945e-18
1.73472e-18
-1.38778e-17
8.67362e-19
8.67362e-19
1.38778e-17
7.80626e-18
3.46945e-18
5.20417e-18
3.46945e-18
6.07153e-18
1.04083e-17
8.67362e-19
6.93889e-18
4.33681e-18
1.38778e-17
9.54098e-18
6.245e-17
9.54098e-18
1.21431e-16
3.46945e-18
2.98372e-16
1.73472e-18
7.32053e-16
-1.73472e-18
1.81452e-15
-2.60209e-18
4.53457e-15
-1.73472e-18
1.12584e-14
-1.73472e-18
2.7936e-14
8.67362e-19
6.91079e-14
4.33681e-18
1.70346e-13
9.54098e-18
4.1837e-13
1.73472e-17
1.0237e-12
2.68882e-17
2.49527e-12
5.81132e-17
6.05772e-12
1.27502e-16
1.46435e-11
2.56739e-16
3.52376e-11
5.42968e-16
8.43841e-11
1.1241e-15
2.01028e-10
2.29504e-15
4.76243e-10
4.60482e-15
1.12147e-09
9.12811e-15
2.62379e-09
1.78755e-14
6.09554e-09
3.4495e-14
1.4053e-08
6.54607e-14
3.2129e-08
1.21798e-13
7.27855e-08
2.21509e-13
1.63234e-07
3.92515e-13
3.62017e-07
6.762e-13
7.92962e-07
1.13373e-12
1.71294e-06
1.85897e-12
3.64281e-06
3.02576e-12
7.61071e-06
5.13887e-12
1.55813e-05
1.07364e-11
3.11623e-05
2.82271e-11
6.06517e-05
8.52746e-11
0.000114335
2.61516e-10
0.000207513
7.60598e-10
0.000359879
2.04599e-09
0.000590632
4.95365e-09
0.000905953
1.0396e-08
0.00127779
1.76081e-08
0.00162294
1.77012e-08
0.00181793
-1.92552e-08
0.0018167
-1.7405e-07
0.00179286
-1.55245e-07
0.00175019
2.07029e-07
0.00179457
1.30405e-07
0.00166434
1.40677e-08
0.00134599
6.56993e-09
0.00096633
6.8934e-09
0.000631459
7.24713e-09
0.000383555
6.274e-09
0.000219988
4.57007e-09
0.00012051
2.70126e-09
6.35816e-05
1.37819e-09
3.2512e-05
6.43173e-10
1.61897e-05
2.81854e-10
7.88036e-06
1.17459e-10
3.76074e-06
4.68826e-11
1.76393e-06
1.79131e-11
8.14798e-07
6.4978e-12
3.71287e-07
2.18607e-12
1.67141e-07
6.3168e-13
7.44206e-08
1.39529e-13
3.28092e-08
-2.81025e-16
1.43345e-08
-3.28236e-14
6.21149e-09
-3.06647e-14
2.67136e-09
-2.13623e-14
1.14092e-09
-1.32047e-14
4.84169e-10
-7.6484e-15
2.04251e-10
-4.24921e-15
8.56925e-11
-2.29417e-15
3.57681e-11
-1.2117e-15
1.48584e-11
-6.26235e-16
6.14477e-12
-3.17454e-16
2.53053e-12
-1.59595e-16
1.038e-12
-7.71952e-17
4.24182e-13
-3.46945e-17
1.72709e-13
-1.38778e-17
7.00724e-14
-7.80626e-18
2.83246e-14
-6.07153e-18
1.14145e-14
-1.73472e-18
4.57967e-15
-8.67362e-19
1.83881e-15
2.60209e-18
7.32053e-16
-8.67362e-19
2.84495e-16
-8.67362e-19
1.04083e-16
2.7391e-32
4.85723e-17
8.67362e-19
2.08167e-17
8.67362e-19
6.93889e-18
8.67362e-19
0
2.60209e-18
-3.46945e-18
8.67362e-19
-3.46945e-18
0
-1.04083e-17
-1.73472e-18
8.67362e-19
3.46945e-18
1.04083e-17
-3.46945e-18
6.93889e-18
3.46945e-17
1.73472e-17
3.46945e-17
1.21431e-16
2.87964e-16
7.21645e-16
1.80411e-15
4.54151e-15
1.12618e-14
2.79429e-14
6.91357e-14
1.70364e-13
4.18422e-13
1.02384e-12
2.49554e-12
6.05824e-12
1.46446e-11
3.52399e-11
8.43887e-11
2.01037e-10
4.76261e-10
1.12151e-09
2.62386e-09
6.09566e-09
1.40532e-08
3.21294e-08
7.27862e-08
1.63235e-07
3.62018e-07
7.92965e-07
1.71295e-06
3.64283e-06
7.61074e-06
1.55815e-05
3.11628e-05
6.06532e-05
0.000114339
0.000207525
0.000359911
0.000590708
0.00090611
0.00127806
0.0016233
0.00181804
0.00181639
0.00179397
0.00174836
0.00179473
0.00166469
0.00134621
0.000966421
0.000631479
0.000383551
0.000219981
0.000120505
6.35787e-05
3.25105e-05
1.6189e-05
7.88008e-06
3.76062e-06
1.76389e-06
8.1478e-07
3.71281e-07
1.67138e-07
7.44199e-08
3.28091e-08
1.43345e-08
6.21152e-09
2.67139e-09
1.14094e-09
4.84182e-10
2.04259e-10
8.56967e-11
3.57704e-11
1.48596e-11
6.14538e-12
2.53085e-12
1.03816e-12
4.24244e-13
1.72751e-13
7.00794e-14
2.83454e-14
1.1411e-14
4.59008e-15
1.82493e-15
7.25114e-16
2.84495e-16
1.07553e-16
4.85723e-17
1.38778e-17
3.46945e-18
0
-3.46945e-18
-1.73472e-17
0
)
;

boundaryField
{
    sides1
    {
        type            calculated;
        value           nonuniform List<scalar> 
20
(
2.91206e-18
-5.82412e-18
-7.76805e-34
-9.71007e-34
-1.74724e-17
1.16482e-17
-2.13622e-33
-5.82412e-18
-9.92243e-34
2.91206e-18
5.82412e-18
-5.82412e-18
1.24533e-34
3.85003e-34
-5.82412e-18
-5.82412e-18
-1.16482e-17
-2.32965e-17
-6.2048e-34
-3.18219e-33
)
;
    }
    sides2
    {
        type            calculated;
        value           uniform 0;
    }
    empty
    {
        type            empty;
        value           nonuniform 0();
    }
}


// ************************************************************************* //
