/*--------------------------------*- C++ -*----------------------------------*\
| =========                 |                                                 |
| \\      /  F ield         | OpenFOAM: The Open Source CFD Toolbox           |
|  \\    /   O peration     | Version:  3.0.1                                 |
|   \\  /    A nd           | Web:      www.OpenFOAM.org                      |
|    \\/     M anipulation  |                                                 |
\*---------------------------------------------------------------------------*/
FoamFile
{
    version     2.0;
    format      ascii;
    class       volScalarField;
    location    "0.0001";
    object      minKappa;
}
// * * * * * * * * * * * * * * * * * * * * * * * * * * * * * * * * * * * * * //

dimensions      [0 0 0 0 0 0 0];

internalField   nonuniform List<scalar> 
1000
(
0.894825
0.894825
0.894825
0.894825
0.894825
0.894825
0.894825
0.894825
0.894825
0.894825
0.894825
0.894825
0.894825
0.894825
0.894825
0.894825
0.894825
0.894825
0.894825
0.894825
0.894825
0.894825
0.894825
0.894825
0.894825
0.894825
0.894825
0.894825
0.894825
0.894826
0.894827
0.894831
0.894836
0.894852
0.894881
0.894935
0.895033
0.895215
0.895541
0.896075
0.896892
0.898158
0.899882
0.901305
0.902573
0.903701
0.904684
0.904719
0.902727
0.897923
0.891985
0.887482
0.885483
0.884945
0.884922
0.884922
0.885412
0.886933
0.888823
0.890632
0.892038
0.893266
0.893794
0.894432
0.894636
0.894696
0.89477
0.894798
0.894812
0.894818
0.894822
0.894823
0.894824
0.894825
0.894825
0.894825
0.894825
0.894825
0.894825
0.894825
0.894825
0.894825
0.894825
0.894825
0.894825
0.894825
0.894825
0.894825
0.894825
0.894825
0.894825
0.894825
0.894825
0.894825
0.894825
0.894825
0.894825
0.894825
0.894825
0.894825
0.894825
0.894825
0.894825
0.894825
0.894825
0.894825
0.894825
0.894825
0.894825
0.894825
0.894825
0.894825
0.894825
0.894825
0.894825
0.894825
0.894825
0.894825
0.894825
0.894825
0.894825
0.894825
0.894825
0.894825
0.894825
0.894825
0.894825
0.894825
0.894825
0.894826
0.894827
0.89483
0.894836
0.894849
0.894878
0.894923
0.89501
0.895201
0.895546
0.896044
0.896908
0.898201
0.899901
0.901426
0.90262
0.903702
0.90445
0.904441
0.902716
0.898262
0.892392
0.887648
0.885543
0.884899
0.884863
0.884863
0.885407
0.886979
0.888729
0.890572
0.892046
0.893253
0.893888
0.894402
0.894618
0.894698
0.89477
0.8948
0.894812
0.894819
0.894822
0.894823
0.894824
0.894825
0.894825
0.894825
0.894825
0.894825
0.894825
0.894825
0.894825
0.894825
0.894825
0.894825
0.894825
0.894825
0.894825
0.894825
0.894825
0.894825
0.894825
0.894825
0.894825
0.894825
0.894825
0.894825
0.894825
0.894825
0.894825
0.894825
0.894825
0.894825
0.894825
0.894825
0.894825
0.894825
0.894825
0.894825
0.894825
0.894825
0.894825
0.894825
0.894825
0.894825
0.894825
0.894825
0.894825
0.894825
0.894825
0.894825
0.894825
0.894825
0.894825
0.894825
0.894825
0.894825
0.894825
0.894825
0.894825
0.894826
0.894827
0.89483
0.894834
0.894847
0.894881
0.894908
0.894942
0.895178
0.895559
0.895961
0.896923
0.898132
0.899904
0.901611
0.903105
0.903859
0.903828
0.903376
0.902077
0.898699
0.893333
0.888331
0.88581
0.884977
0.884927
0.884927
0.885369
0.886918
0.888655
0.890608
0.892111
0.893284
0.893963
0.89432
0.894593
0.894703
0.894775
0.894802
0.89481
0.894818
0.894822
0.894823
0.894824
0.894825
0.894825
0.894825
0.894825
0.894825
0.894825
0.894825
0.894825
0.894825
0.894825
0.894825
0.894825
0.894825
0.894825
0.894825
0.894825
0.894825
0.894825
0.894825
0.894825
0.894825
0.894825
0.894825
0.894825
0.894825
0.894825
0.894825
0.894825
0.894825
0.894825
0.894825
0.894825
0.894825
0.894825
0.894825
0.894825
0.894825
0.894825
0.894825
0.894825
0.894825
0.894825
0.894825
0.894825
0.894825
0.894825
0.894825
0.894825
0.894825
0.894825
0.894825
0.894825
0.894825
0.894825
0.894825
0.894825
0.894826
0.894826
0.894829
0.894833
0.894842
0.894864
0.894904
0.894967
0.895133
0.895489
0.895911
0.89677
0.898022
0.899812
0.901795
0.903572
0.90393
0.903081
0.902201
0.900925
0.898493
0.894094
0.88901
0.886091
0.885169
0.88512
0.88512
0.885489
0.886858
0.888683
0.890662
0.892175
0.893281
0.893927
0.894317
0.894568
0.894701
0.89476
0.8948
0.894813
0.894818
0.894822
0.894823
0.894824
0.894825
0.894825
0.894825
0.894825
0.894825
0.894825
0.894825
0.894825
0.894825
0.894825
0.894825
0.894825
0.894825
0.894825
0.894825
0.894825
0.894825
0.894825
0.894825
0.894825
0.894825
0.894825
0.894825
0.894825
0.894825
0.894825
0.894825
0.894825
0.894825
0.894825
0.894825
0.894825
0.894825
0.894825
0.894825
0.894825
0.894825
0.894825
0.894825
0.894825
0.894825
0.894825
0.894825
0.894825
0.894825
0.894825
0.894825
0.894825
0.894825
0.894825
0.894825
0.894825
0.894825
0.894825
0.894825
0.894825
0.894826
0.894826
0.894829
0.894831
0.894841
0.89486
0.89489
0.894974
0.895124
0.895474
0.895914
0.896738
0.898001
0.899701
0.901864
0.903812
0.90414
0.903007
0.901842
0.900376
0.898113
0.894255
0.889169
0.886142
0.885191
0.885173
0.885173
0.885756
0.886929
0.888693
0.890802
0.892261
0.893269
0.893915
0.894354
0.894533
0.894699
0.894786
0.894799
0.89481
0.894817
0.894822
0.894823
0.894824
0.894825
0.894825
0.894825
0.894825
0.894825
0.894825
0.894825
0.894825
0.894825
0.894825
0.894825
0.894825
0.894825
0.894825
0.894825
0.894825
0.894825
0.894825
0.894825
0.894825
0.894825
0.894825
0.894825
0.894825
0.894825
0.894825
0.894825
0.894825
0.894825
0.894825
0.894825
0.894825
0.894825
0.894825
0.894825
0.894825
0.894825
0.894825
0.894825
0.894825
0.894825
0.894825
0.894825
0.894825
0.894825
0.894825
0.894825
0.894825
0.894825
0.894825
0.894825
0.894825
0.894825
0.894825
0.894825
0.894825
0.894826
0.894826
0.894829
0.894833
0.894844
0.894854
0.894883
0.894964
0.895131
0.895466
0.89586
0.896779
0.898074
0.899765
0.90176
0.903656
0.904296
0.903608
0.902682
0.900998
0.898046
0.89342
0.888506
0.885809
0.885149
0.885149
0.885181
0.885908
0.887142
0.888823
0.890589
0.892139
0.893189
0.893953
0.89438
0.894539
0.894712
0.894758
0.894798
0.894816
0.894816
0.894822
0.894824
0.894824
0.894825
0.894825
0.894825
0.894825
0.894825
0.894825
0.894825
0.894825
0.894825
0.894825
0.894825
0.894825
0.894825
0.894825
0.894825
0.894825
0.894825
0.894825
0.894825
0.894825
0.894825
0.894825
0.894825
0.894825
0.894825
0.894825
0.894825
0.894825
0.894825
0.894825
0.894825
0.894825
0.894825
0.894825
0.894825
0.894825
0.894825
0.894825
0.894825
0.894825
0.894825
0.894825
0.894825
0.894825
0.894825
0.894825
0.894825
0.894825
0.894825
0.894825
0.894825
0.894825
0.894825
0.894825
0.894825
0.894825
0.894826
0.894826
0.894828
0.894833
0.894843
0.894843
0.894882
0.894985
0.89511
0.895472
0.895866
0.896702
0.898137
0.899825
0.901744
0.903416
0.904406
0.904361
0.903745
0.901921
0.897889
0.892366
0.887688
0.88545
0.885064
0.885064
0.885115
0.885858
0.887202
0.888896
0.89064
0.892239
0.893106
0.894133
0.894469
0.894519
0.894697
0.894761
0.894794
0.89481
0.894816
0.894823
0.894824
0.894824
0.894825
0.894825
0.894825
0.894825
0.894825
0.894825
0.894825
0.894825
0.894825
0.894825
0.894825
0.894825
0.894825
0.894825
0.894825
0.894825
0.894825
0.894825
0.894825
0.894825
0.894825
0.894825
0.894825
0.894825
0.894825
0.894825
0.894825
0.894825
0.894825
0.894825
0.894825
0.894825
0.894825
0.894825
0.894825
0.894825
0.894825
0.894825
0.894825
0.894825
0.894825
0.894825
0.894825
0.894825
0.894825
0.894825
0.894825
0.894825
0.894825
0.894825
0.894825
0.894825
0.894825
0.894825
0.894825
0.894825
0.894825
0.894826
0.894828
0.894833
0.894848
0.894851
0.89488
0.895004
0.895128
0.895477
0.895868
0.89661
0.898297
0.899772
0.901751
0.903437
0.904433
0.90462
0.904045
0.902086
0.897775
0.892002
0.887512
0.885462
0.884999
0.884999
0.885032
0.88565
0.887021
0.888917
0.890725
0.892343
0.893282
0.894024
0.894401
0.894593
0.89471
0.894768
0.894794
0.894812
0.89482
0.894822
0.894823
0.894824
0.894825
0.894825
0.894825
0.894825
0.894825
0.894825
0.894825
0.894825
0.894825
0.894825
0.894825
0.894825
0.894825
0.894825
0.894825
0.894825
0.894825
0.894825
0.894825
0.894825
0.894825
0.894825
0.894825
0.894825
0.894825
0.894825
0.894825
0.894825
0.894825
0.894825
0.894825
0.894825
0.894825
0.894825
0.894825
0.894825
0.894825
0.894825
0.894825
0.894825
0.894825
0.894825
0.894825
0.894825
0.894825
0.894825
0.894825
0.894825
0.894825
0.894825
0.894825
0.894825
0.894825
0.894825
0.894825
0.894825
0.894826
0.894826
0.894828
0.894834
0.894844
0.894857
0.894887
0.894985
0.895162
0.895553
0.895916
0.896614
0.898249
0.899722
0.90168
0.903552
0.904414
0.904302
0.903712
0.901894
0.897971
0.892444
0.887823
0.885606
0.884918
0.884891
0.884891
0.885281
0.886992
0.888948
0.890652
0.892473
0.893323
0.894106
0.894453
0.894566
0.894742
0.894784
0.894797
0.894814
0.894819
0.894823
0.894824
0.894824
0.894825
0.894825
0.894825
0.894825
0.894825
0.894825
0.894825
0.894825
0.894825
0.894825
0.894825
0.894825
0.894825
0.894825
0.894825
0.894825
0.894825
0.894825
0.894825
0.894825
0.894825
0.894825
0.894825
0.894825
0.894825
0.894825
0.894825
0.894825
0.894825
0.894825
0.894825
0.894825
0.894825
0.894825
0.894825
0.894825
0.894825
0.894825
0.894825
0.894825
0.894825
0.894825
0.894825
0.894825
0.894825
0.894825
0.894825
0.894825
0.894825
0.894825
0.894825
0.894825
0.894825
0.894825
0.894825
0.894825
0.894826
0.894826
0.894829
0.894833
0.894843
0.894861
0.894896
0.894984
0.895191
0.895501
0.896095
0.896775
0.897986
0.89969
0.901528
0.903613
0.904309
0.903976
0.903353
0.90165
0.898126
0.892907
0.888107
0.885661
0.884879
0.884857
0.884857
0.885378
0.886852
0.888752
0.890394
0.89272
0.893588
0.894006
0.894437
0.894586
0.894732
0.894777
0.894801
0.894815
0.894819
0.894822
0.894824
0.894824
0.894825
0.894825
0.894825
0.894825
0.894825
0.894825
0.894825
0.894825
0.894825
0.894825
0.894825
0.894825
0.894825
0.894825
0.894825
0.894825
0.894825
0.894825
0.894825
0.894825
0.894825
0.894825
0.894825
0.894825
0.894825
0.894825
0.894825
)
;

boundaryField
{
    sides1
    {
        type            calculated;
        value           uniform 0;
    }
    sides2
    {
        type            calculated;
        value           uniform 0;
    }
    empty
    {
        type            empty;
    }
}


// ************************************************************************* //
