/*--------------------------------*- C++ -*----------------------------------*\
| =========                 |                                                 |
| \\      /  F ield         | OpenFOAM: The Open Source CFD Toolbox           |
|  \\    /   O peration     | Version:  3.0.1                                 |
|   \\  /    A nd           | Web:      www.OpenFOAM.org                      |
|    \\/     M anipulation  |                                                 |
\*---------------------------------------------------------------------------*/
FoamFile
{
    version     2.0;
    format      ascii;
    class       volScalarField;
    location    "0.0001";
    object      p;
}
// * * * * * * * * * * * * * * * * * * * * * * * * * * * * * * * * * * * * * //

dimensions      [1 -1 -2 0 0 0 0];

internalField   nonuniform List<scalar> 
1000
(
68970
68970
68970
68970
68970
68970
68970
68970
68970
68970
68970
68970
68970
68970
68970
68970
68970
68970
68970
68970
68970
68970
68970
68970
68969.9
68969.9
68969.7
68969.4
68968.6
68966.9
68963.3
68956.4
68942.2
68915.1
68867.3
68782.4
68642.9
68397.9
68041
67509.9
66817
66011.7
65254.4
64643.8
64269.4
64035.9
63911.4
63843
63785.1
63750.4
63722.3
63698.3
63661.5
63599
63515
63412.8
63182.4
62922
62280.6
61532.3
60684.4
60012.5
59608
59289.5
59149.7
59060.2
59017.6
58993.7
58981.7
58975.7
58972.7
58971.4
58970.5
58970.3
58970.1
58970.1
58970
58970
58970
58970
58970
58970
58970
58970
58970
58970
58970
58970
58970
58970
58970
58970
58970
58970
58970
58970
58970
58970
58970
58970
68970
68970
68970
68970
68970
68970
68970
68970
68970
68970
68970
68970
68970
68970
68970
68970
68970
68970
68970
68970
68970
68970
68970
68970
68969.9
68969.9
68969.7
68969.4
68968.7
68967.1
68963.9
68957.3
68944.4
68918.6
68873.5
68788.7
68655.6
68404.7
68043.6
67502.5
66800.1
66030.9
65200.7
64588.7
64233.8
64008.7
63898.2
63842.3
63790
63761.4
63743.7
63720.5
63695.5
63635.6
63582
63466.9
63216.3
62914.4
62264.9
61518.4
60655.8
59995.4
59585.1
59293
59147
59062.1
59016.6
58993.6
58981.3
58975.5
58972.6
58971.3
58970.5
58970.3
58970.1
58970
58970
58970
58970
58970
58970
58970
58970
58970
58970
58970
58970
58970
58970
58970
58970
58970
58970
58970
58970
58970
58970
58970
58970
58970
68970
68970
68970
68970
68970
68970
68970
68970
68970
68970
68970
68970
68970
68970
68970
68970
68970
68970
68970
68970
68970
68970
68970
68970
68970
68969.9
68969.8
68969.5
68968.9
68967.5
68964.6
68958.6
68947
68921.8
68882.4
68805.2
68688.6
68414.5
68095.5
67513.4
66848
65978.1
65133.8
64479.4
64157.4
63989.2
63924.9
63873.4
63825.8
63788.3
63737.5
63730.6
63720.7
63703.2
63681.8
63576.7
63296.1
62871.2
62189.9
61397.4
60631
59999.5
59587.9
59321.1
59154.3
59069.8
59020.5
58995.3
58981.9
58975.9
58972.6
58971.3
58970.6
58970.3
58970.1
58970.1
58970
58970
58970
58970
58970
58970
58970
58970
58970
58970
58970
58970
58970
58970
58970
58970
58970
58970
58970
58970
58970
58970
58970
58970
68970
68970
68970
68970
68970
68970
68970
68970
68970
68970
68970
68970
68970
68970
68970
68970
68970
68970
68970
68970
68970
68970
68970
68970
68970
68969.9
68969.8
68969.6
68969
68967.9
68965.3
68960.1
68949.1
68923.5
68888.6
68817.2
68689.5
68444.8
68114
67591.5
66941.9
65981.4
65082.7
64413.8
64046.3
63954.9
63932
63893.8
63855.5
63842.7
63789.6
63762.7
63789.3
63789
63762.3
63651.5
63364.3
62874.3
62134.1
61310.3
60587.7
60009
59600.9
59333.8
59178
59073
59025
58997
58982.6
58975.8
58972.7
58971.3
58970.6
58970.3
58970.1
58970.1
58970
58970
58970
58970
58970
58970
58970
58970
58970
58970
58970
58970
58970
58970
58970
58970
58970
58970
58970
58970
58970
58970
58970
58970
68970
68970
68970
68970
68970
68970
68970
68970
68970
68970
68970
68970
68970
68970
68970
68970
68970
68970
68970
68970
68970
68970
68970
68970
68970
68969.9
68969.8
68969.6
68969.2
68968.1
68966
68960.9
68951.1
68927.5
68896
68826.8
68706
68472.2
68125.3
67611.2
66929.6
66008.5
65081.6
64372
63990.3
63916.9
63905.9
63874.8
63854.6
63873.8
63826.4
63796.5
63827.7
63831.3
63785.6
63646.8
63361.1
62902
62141.5
61302
60557.6
60010.3
59603.6
59330
59188.3
59069.9
59024.6
58996.6
58982.6
58976
58972.8
58971.3
58970.6
58970.3
58970.1
58970.1
58970
58970
58970
58970
58970
58970
58970
58970
58970
58970
58970
58970
58970
58970
58970
58970
58970
58970
58970
58970
58970
58970
58970
58970
68970
68970
68970
68970
68970
68970
68970
68970
68970
68970
68970
68970
68970
68970
68970
68970
68970
68970
68970
68970
68970
68970
68970
68970
68970
68969.9
68969.8
68969.6
68969.2
68968.1
68966.1
68961.2
68951.4
68933.7
68902.5
68830.9
68722
68482.5
68159.1
67605.5
66870.9
65973.8
65097.2
64410.6
64011.3
63904.6
63882.3
63840.8
63841.1
63868.2
63827
63819.1
63821.8
63805.2
63732.6
63578.1
63293.3
62871
62167.9
61387.9
60575.5
60025.5
59582.7
59302.6
59166.5
59075.6
59028
58994.1
58982.2
58976.3
58972.8
58971.4
58970.6
58970.3
58970.1
58970.1
58970
58970
58970
58970
58970
58970
58970
58970
58970
58970
58970
58970
58970
58970
58970
58970
58970
58970
58970
58970
58970
58970
58970
58970
68970
68970
68970
68970
68970
68970
68970
68970
68970
68970
68970
68970
68970
68970
68970
68970
68970
68970
68970
68970
68970
68970
68970
68970
68970
68969.9
68969.8
68969.6
68969.2
68968.2
68966.3
68961.7
68952.9
68937.1
68905.3
68823.6
68715.4
68488
68141.6
67606.1
66832.6
65951
65111.8
64447.5
64070.5
63908.1
63862.1
63840.4
63828.8
63823.8
63820
63805.8
63817.7
63779.9
63678.4
63536.1
63252.9
62816.6
62166.5
61415.4
60598.8
60035.3
59535.3
59291.1
59155.7
59075.5
59025.1
58997.5
58982.7
58976.7
58972.7
58971.4
58970.6
58970.3
58970.1
58970.1
58970
58970
58970
58970
58970
58970
58970
58970
58970
58970
58970
58970
58970
58970
58970
58970
58970
58970
58970
58970
58970
58970
58970
58970
68970
68970
68970
68970
68970
68970
68970
68970
68970
68970
68970
68970
68970
68970
68970
68970
68970
68970
68970
68970
68970
68970
68970
68970
68970
68969.9
68969.8
68969.6
68969.2
68968.3
68966.3
68961.7
68953.1
68936.6
68903.5
68816.2
68700
68481.5
68092.5
67586.7
66762.7
65964.8
65147.5
64488
64136.6
63965.7
63875.5
63826.9
63823.7
63796.9
63792.1
63794.5
63781.7
63748.5
63654.8
63517.1
63284.8
62813
62199.1
61386.4
60569.4
59974.5
59547.5
59291.4
59146.2
59064.8
59018
58995
58981.3
58975.6
58972.6
58971.3
58970.5
58970.3
58970.1
58970.1
58970
58970
58970
58970
58970
58970
58970
58970
58970
58970
58970
58970
58970
58970
58970
58970
58970
58970
58970
58970
58970
58970
58970
58970
68970
68970
68970
68970
68970
68970
68970
68970
68970
68970
68970
68970
68970
68970
68970
68970
68970
68970
68970
68970
68970
68970
68970
68970
68970
68969.9
68969.9
68969.7
68969.2
68968.3
68966.4
68961.6
68953
68935.1
68900.5
68817.8
68694.4
68449.7
68057.5
67538.6
66738.8
65937.7
65155.8
64508.1
64178.9
63995.2
63910
63833.7
63795.7
63770.1
63763
63768.7
63765.7
63745.3
63700.1
63587.3
63342.1
62832.4
62246.6
61352.8
60502.2
59948.2
59494.7
59266.9
59138
59049.7
59012.5
58990.6
58980.1
58974.9
58972.3
58971.1
58970.5
58970.2
58970.1
58970
58970
58970
58970
58970
58970
58970
58970
58970
58970
58970
58970
58970
58970
58970
58970
58970
58970
58970
58970
58970
58970
58970
58970
58970
68970
68970
68970
68970
68970
68970
68970
68970
68970
68970
68970
68970
68970
68970
68970
68970
68970
68970
68970
68970
68970
68970
68970
68970
68970
68970
68969.9
68969.7
68969.2
68968.2
68966.1
68961.4
68951.9
68932.5
68893.9
68818.7
68679.3
68449
68047.2
67477.2
66773.2
65888.5
65166.8
64536.6
64199.3
64017.6
63913.5
63825.7
63782
63761.8
63754.6
63772.8
63774.7
63750.7
63702.2
63596.8
63334.9
62886.8
62218
61451.5
60464.1
59931.9
59501.8
59272.5
59136.5
59052.2
59013.6
58990.5
58980.2
58974.8
58972.3
58971
58970.5
58970.2
58970.1
58970
58970
58970
58970
58970
58970
58970
58970
58970
58970
58970
58970
58970
58970
58970
58970
58970
58970
58970
58970
58970
58970
58970
58970
58970
)
;

boundaryField
{
    sides1
    {
        type            zeroGradient;
    }
    sides2
    {
        type            slip;
    }
    empty
    {
        type            empty;
    }
}


// ************************************************************************* //
