/*--------------------------------*- C++ -*----------------------------------*\
| =========                 |                                                 |
| \\      /  F ield         | OpenFOAM: The Open Source CFD Toolbox           |
|  \\    /   O peration     | Version:  3.0.1                                 |
|   \\  /    A nd           | Web:      www.OpenFOAM.org                      |
|    \\/     M anipulation  |                                                 |
\*---------------------------------------------------------------------------*/
FoamFile
{
    version     2.0;
    format      ascii;
    class       surfaceScalarField;
    location    "0.0001";
    object      phi;
}
// * * * * * * * * * * * * * * * * * * * * * * * * * * * * * * * * * * * * * //

dimensions      [1 0 -1 0 0 0 0];

internalField   nonuniform List<scalar> 
1890
(
-6.02847e-10
-7.93863e-11
-5.22963e-10
-7.52861e-11
-5.15674e-10
-5.01376e-11
-5.23934e-10
-2.69461e-12
-5.17687e-10
3.69721e-11
-5.19985e-10
4.66708e-11
-2.86829e-10
-1.26133e-11
3.76582e-11
-1.30303e-10
1.30345e-10
-9.22994e-11
1.11162e-10
-9.0966e-12
9.1205e-11
-1.47661e-11
6.00176e-11
-1.75885e-11
-3.0251e-11
-1.41601e-11
-4.76947e-11
-4.06745e-11
-1.01757e-10
-5.27035e-11
-2.44278e-10
-2.72877e-11
-4.46995e-10
2.24983e-11
-8.29507e-10
4.15054e-11
-1.39377e-09
4.13828e-11
-1.53825e-09
1.10052e-10
-1.22525e-09
7.63774e-11
2.83644e-10
9.12974e-11
2.85425e-09
1.33652e-10
1.28438e-08
-7.43895e-10
3.06911e-08
-4.56444e-10
6.66172e-08
-9.14842e-10
1.56822e-07
-3.50723e-09
3.47626e-07
-9.50888e-09
7.75582e-07
-1.30965e-08
1.68869e-06
-2.94538e-08
3.52398e-06
-5.78484e-08
7.09428e-06
-1.65811e-07
1.40924e-05
-3.30964e-07
2.715e-05
-5.82707e-07
5.02215e-05
-9.47199e-07
8.93906e-05
-1.16018e-06
0.000152569
-2.27147e-06
0.00025341
-2.06947e-06
0.000399309
-2.71361e-06
0.000605567
-1.26464e-06
0.00086538
-3.62173e-06
0.0011235
-1.31915e-05
0.00130777
-5.03904e-07
0.00145299
-3.12597e-06
0.00152256
-3.75447e-06
0.0015751
2.43758e-08
0.00158908
4.94736e-06
0.00159949
-3.96598e-07
0.00159492
2.6412e-06
0.00158215
5.08499e-06
0.00155368
5.21044e-06
0.00152554
3.53887e-06
0.00150268
2.66767e-06
0.00148439
3.85044e-06
0.0014644
4.52956e-06
0.0014371
4.14515e-06
0.00135601
4.24202e-06
0.00121204
4.17604e-06
0.000968119
4.43231e-06
0.000696658
2.61981e-06
0.000435073
5.82718e-06
0.000264716
3.63731e-06
0.000146058
3.46754e-06
7.88571e-05
2.10238e-08
4.11225e-05
4.87812e-07
2.18004e-05
-8.31838e-08
1.11476e-05
1.78531e-07
5.49753e-06
6.87784e-08
2.75745e-06
8.563e-08
1.30741e-06
4.41974e-08
6.26814e-07
2.73155e-08
2.8834e-07
1.35814e-08
1.27507e-07
3.19188e-09
5.76358e-08
9.06377e-10
2.6083e-08
1.131e-09
1.17188e-08
4.53992e-10
5.13698e-09
2.72555e-10
2.25225e-09
8.94358e-11
9.56969e-10
6.10439e-11
4.12039e-10
-1.65105e-12
1.6795e-10
2.79317e-12
7.21221e-11
-1.11777e-12
2.87399e-11
-2.4072e-12
1.02027e-11
-3.42195e-12
1.35354e-12
-4.51161e-12
-3.57456e-12
-5.19178e-12
-6.43328e-12
-6.38138e-12
-7.79006e-12
-8.24359e-12
-8.98644e-12
-9.1449e-12
-9.49654e-12
-9.58884e-12
-1.18388e-11
-1.16031e-11
-1.36466e-11
-1.22163e-11
-1.65809e-11
-1.34912e-11
-1.63558e-11
-1.56063e-11
-1.35839e-11
-1.85137e-11
-1.10135e-11
-1.95289e-11
-8.13519e-12
-2.30875e-11
-5.50526e-12
-2.47782e-11
-2.44942e-12
-2.79372e-11
-3.0129e-11
-3.78024e-10
-9.24518e-11
-2.98033e-10
-7.20008e-11
-3.06574e-10
-2.99056e-11
-3.47372e-10
7.35219e-12
-3.89832e-10
1.56589e-11
-3.74454e-10
-5.22473e-12
-2.38707e-10
-1.19629e-10
-9.54245e-11
-2.44813e-10
-1.18183e-11
-2.36754e-10
7.44962e-11
-1.71189e-10
8.39883e-11
-8.97723e-11
3.86624e-11
-1.66483e-11
-1.57529e-11
-2.87417e-11
-1.01303e-10
1.59603e-12
-9.73076e-11
-2.77613e-11
-1.39099e-10
-7.71292e-12
-2.82644e-10
4.56158e-11
-6.60631e-10
8.63172e-11
-1.09037e-09
1.45862e-10
-1.28617e-09
1.6111e-10
-9.59132e-10
1.09513e-10
-1.36826e-11
1.23606e-10
2.75632e-09
-9.9511e-12
9.65032e-09
-3.63855e-10
2.64425e-08
-1.68777e-09
6.27278e-08
-3.8329e-09
1.43778e-07
-6.92047e-09
3.18846e-07
-1.42879e-08
7.10633e-07
-2.59152e-08
1.52824e-06
-5.22487e-08
3.22205e-06
-1.17766e-07
6.45016e-06
-1.9625e-07
1.28224e-05
-4.34127e-07
2.46203e-05
-7.81259e-07
4.64935e-05
-1.86194e-06
8.60737e-05
-3.29967e-06
0.000145638
-2.57532e-06
0.000246392
-5.7486e-06
0.000397212
-6.49517e-06
0.000611379
-7.95969e-06
0.000882902
-1.76532e-05
0.00109964
-2.65546e-06
0.00129612
1.37834e-06
0.00144235
1.97846e-06
0.00151518
1.23778e-05
0.00153909
1.20208e-05
0.00156784
-9.3355e-07
0.00157097
-4.87672e-06
0.00156341
2.73955e-06
0.00155558
6.80471e-06
0.00152972
1.14963e-05
0.00150903
2.11346e-06
0.00149145
-4.64459e-06
0.00147517
-4.58339e-07
0.00145453
1.00734e-06
0.00143219
5.22607e-06
0.00134978
3.84498e-06
0.00118863
1.40325e-05
0.000956698
2.01047e-05
0.000656695
1.68411e-05
0.000410611
5.0714e-06
0.000247789
-5.51429e-07
0.00013851
-1.02912e-06
7.43551e-05
-2.19054e-06
3.93137e-05
-1.59854e-06
2.02681e-05
-7.26847e-07
1.00353e-05
-3.96678e-07
4.79761e-06
-2.94094e-07
2.3907e-06
-1.17284e-07
1.11611e-06
-2.59645e-08
5.36085e-07
-1.44659e-08
2.4609e-07
-5.56968e-09
1.11885e-07
-5.35513e-09
4.87074e-08
-2.49516e-09
2.21163e-08
-1.19361e-09
9.73099e-09
-4.60774e-10
4.324e-09
-2.27597e-10
1.90184e-09
-1.4108e-10
8.54795e-10
-6.7365e-11
3.65181e-10
-4.10156e-11
1.60471e-10
-1.59827e-11
7.07316e-11
-6.96181e-12
2.66424e-11
-4.85897e-12
8.09398e-12
-7.29137e-12
-2.12375e-12
-7.42554e-12
-8.19099e-12
-1.04132e-11
-1.08015e-11
-1.26359e-11
-1.3207e-11
-1.58336e-11
-1.47209e-11
-1.69251e-11
-1.82422e-11
-1.71541e-11
-2.09266e-11
-1.88579e-11
-2.07274e-11
-2.2762e-11
-2.27116e-11
-2.06677e-11
-2.48308e-11
-1.87012e-11
-2.80382e-11
-1.9798e-11
-2.622e-11
-2.3602e-11
-2.40237e-11
-2.81754e-11
-1.82142e-11
-3.29628e-11
-5.05938e-12
-4.12775e-11
-4.4477e-11
-1.5389e-10
-1.32289e-10
-3.7785e-11
-1.27531e-10
-2.22818e-11
-8.25802e-11
-7.65916e-11
-4.63512e-11
-1.54057e-10
-7.06642e-11
-2.01342e-10
-1.07658e-10
-1.7111e-10
-1.58283e-10
-6.36874e-11
-2.1955e-10
6.38293e-11
-1.90583e-10
1.05443e-10
-1.61311e-10
1.33026e-10
-1.14187e-10
5.84571e-11
-8.70689e-11
-7.77351e-11
-3.95119e-11
-1.39586e-10
-5.82921e-11
-1.46442e-10
-4.54557e-11
-2.51283e-10
-2.17948e-11
-4.83095e-10
-4.59407e-14
-7.24245e-10
5.2542e-12
-1.01766e-09
3.89519e-11
-1.18552e-09
6.90286e-11
-9.67882e-10
-4.68222e-11
-2.17555e-10
-4.14035e-12
2.0899e-09
-2.67824e-10
7.94895e-09
-7.29734e-10
2.09272e-08
-2.14425e-09
5.03353e-08
-3.73099e-09
1.15161e-07
-6.39633e-09
2.67149e-07
-1.25275e-08
5.91549e-07
-2.70054e-08
1.2742e-06
-5.33047e-08
2.72273e-06
-1.2084e-07
5.69783e-06
-1.77995e-07
1.15653e-05
-3.29189e-07
2.21036e-05
-1.47763e-07
4.04491e-05
-9.78728e-07
7.62024e-05
-2.37626e-06
0.000132942
-2.01585e-06
0.000229519
-5.39035e-06
0.000369085
-6.22599e-06
0.00058599
-1.57678e-05
0.000830136
-2.30088e-05
0.00108532
-5.11521e-06
0.00129854
2.19803e-06
0.00144911
1.06326e-05
0.00149193
1.98498e-05
0.00151438
1.57243e-05
0.00151464
6.39045e-06
0.00151052
-2.02745e-07
0.00151746
-7.41214e-06
0.00150594
8.61967e-06
0.00150279
4.9483e-06
0.00149021
-5.28647e-06
0.00147741
-9.60635e-06
0.0014723
-1.10731e-05
0.0014497
-1.93198e-06
0.00142425
-2.23685e-06
0.0013321
6.69331e-06
0.00116996
1.52071e-05
0.00095682
1.437e-05
0.000678072
2.18651e-05
0.000439481
7.61726e-06
0.000265009
-1.19182e-06
0.000153847
-2.12929e-06
8.4092e-05
-2.84818e-06
4.59879e-05
-2.29543e-06
2.41837e-05
-7.71323e-07
1.18388e-05
-6.85355e-07
5.54246e-06
-2.66939e-07
2.72123e-06
-1.16002e-07
1.23526e-06
-1.15374e-08
5.71917e-07
-1.18867e-09
2.7334e-07
-5.82747e-09
1.29106e-07
-4.62977e-09
5.84505e-08
-1.8133e-09
2.62604e-08
-6.38745e-10
1.19495e-08
-1.49225e-10
5.50838e-09
-1.65643e-10
2.48217e-09
-2.12416e-12
1.08728e-09
-1.50886e-11
4.53638e-10
-1.59083e-11
1.97917e-10
-1.02699e-11
7.67731e-11
3.25349e-12
2.94773e-11
-2.73471e-12
1.46212e-12
-4.78232e-12
-1.12774e-11
-9.47825e-12
-1.76508e-11
-1.27557e-11
-1.9444e-11
-1.71329e-11
-1.88303e-11
-2.02363e-11
-2.16065e-11
-2.08169e-11
-2.34251e-11
-2.24478e-11
-2.88411e-11
-2.4468e-11
-3.23239e-11
-2.47826e-11
-2.9859e-11
-2.20254e-11
-3.12324e-11
-1.55134e-11
-3.55202e-11
-1.30571e-11
-3.80524e-11
-1.48023e-11
-3.53952e-11
-2.04767e-11
-2.78121e-11
-2.30847e-11
-8.24341e-12
-3.19693e-11
-3.68864e-11
-7.36901e-11
-1.3231e-10
-3.23151e-11
-1.32479e-10
-2.9871e-11
-1.20711e-10
-4.74444e-11
-1.09829e-10
-1.20982e-10
-1.24395e-10
-2.8196e-10
-1.31588e-10
-2.7353e-10
-1.01188e-10
-1.58006e-10
-2.46179e-11
8.90519e-11
-6.67673e-11
2.33466e-10
-2.76633e-11
2.42142e-10
-3.67532e-11
1.16542e-10
-7.54605e-11
2.52585e-11
-9.15378e-11
-1.31094e-10
-1.35543e-10
-2.28637e-10
-2.15094e-10
-3.03868e-10
-2.61944e-10
-5.1227e-10
-2.60263e-10
-7.12336e-10
-2.51568e-10
-1.02279e-09
-2.17056e-10
-1.13169e-09
-1.6213e-10
-7.87022e-10
-3.07508e-10
-1.03778e-10
5.62129e-12
1.80906e-09
1.28118e-10
5.88438e-09
-4.15468e-11
1.57517e-08
-6.97061e-10
3.64771e-08
-9.72424e-10
9.03027e-08
-2.53774e-09
2.17544e-07
-6.284e-09
4.86417e-07
-1.79583e-08
1.06676e-06
-2.61158e-08
2.32595e-06
-6.81413e-08
4.76783e-06
-9.51405e-08
1.00944e-05
-1.02886e-07
2.25441e-05
-6.214e-07
4.19423e-05
-1.14849e-06
7.52595e-05
-1.21532e-06
0.000137291
-2.56396e-06
0.000232425
-1.76956e-06
0.000375561
-3.20278e-06
0.000562744
-3.2133e-06
0.000777062
-1.46458e-06
0.00104077
3.18389e-07
0.00128271
3.12059e-06
0.00142175
1.11368e-05
0.00148103
1.4011e-05
0.00149707
1.27828e-05
0.0014944
8.00204e-06
0.00147037
2.69909e-07
0.00146591
-1.29316e-05
0.00149239
-1.21918e-05
0.00150252
1.17663e-06
0.00149299
-4.38425e-06
0.00148432
-5.56413e-06
0.0014816
-4.83979e-06
0.00145871
1.27958e-06
0.00140777
6.64002e-06
0.00131247
1.17129e-05
0.00114092
7.4176e-06
0.000924263
5.3037e-06
0.000678836
1.1721e-06
0.000458834
1.6073e-06
0.000281923
-4.74978e-07
0.000171048
-6.89842e-07
9.73541e-05
-2.63867e-07
5.00519e-05
-1.31446e-06
2.73168e-05
-4.08909e-07
1.37399e-05
-1.95495e-07
6.00013e-06
1.66889e-07
2.74486e-06
2.01797e-08
1.28262e-06
-1.79025e-08
6.11846e-07
-3.07338e-09
2.91631e-07
-2.42597e-09
1.36517e-07
-8.19077e-10
6.22096e-08
-9.1833e-10
2.8239e-08
4.19039e-10
1.29354e-08
2.43542e-11
5.86999e-09
1.09633e-10
2.69917e-09
4.04588e-11
1.16998e-09
5.16378e-11
4.77205e-10
4.13817e-11
1.72119e-10
2.07629e-11
4.91111e-11
4.64177e-12
4.31192e-12
-6.44045e-12
-1.64971e-11
-9.58653e-12
-2.82371e-11
-1.35305e-11
-3.1272e-11
-2.05592e-11
-3.17963e-11
-2.20898e-11
-3.03613e-11
-2.5523e-11
-2.91002e-11
-2.48958e-11
-3.02019e-11
-3.00255e-11
-2.88225e-11
-3.10792e-11
-2.66771e-11
-2.88847e-11
-2.66936e-11
-2.2345e-11
-2.27625e-11
-1.91511e-11
-2.21912e-11
-1.34066e-11
-3.25302e-11
-7.12425e-12
-4.00461e-11
-3.75877e-12
-2.92537e-11
-6.58806e-12
-5.64462e-12
-2.01308e-11
-1.9858e-11
5.05781e-12
-7.73598e-11
2.24053e-11
-5.81854e-11
1.6893e-11
-8.72689e-11
-4.43227e-11
-7.86198e-11
-1.52746e-10
-7.83346e-11
-2.23068e-10
-5.25616e-11
-2.35054e-10
2.68034e-11
-7.96138e-11
1.29331e-10
8.21056e-11
1.67741e-10
1.92597e-10
1.15432e-10
1.90222e-10
4.10758e-11
9.86535e-11
-1.14087e-10
-1.53129e-10
-1.78986e-10
-4.09491e-10
-3.15309e-10
-6.77974e-10
-4.98952e-10
-8.07373e-10
-8.30266e-10
-7.2662e-10
-8.6957e-10
-7.03586e-10
-9.22248e-10
-3.92549e-10
-8.70156e-10
1.5701e-10
-7.71319e-10
5.70416e-10
-4.55076e-10
1.32172e-09
-1.53324e-10
3.8242e-09
1.11177e-10
9.21483e-09
-8.13881e-11
1.75732e-08
9.18172e-10
3.84741e-08
8.62469e-10
8.87852e-08
-3.83554e-10
1.93468e-07
-3.08839e-09
4.11044e-07
-3.05904e-09
9.33213e-07
-1.09356e-08
2.02067e-06
-3.09408e-08
4.17781e-06
-1.97162e-08
9.37488e-06
-1.6484e-07
2.02598e-05
-7.83507e-07
3.78774e-05
-9.42542e-07
6.9232e-05
-5.67218e-07
0.000124409
-2.82019e-06
0.000216769
-1.64153e-06
0.000357488
-3.88429e-07
0.000550074
1.73141e-06
0.000769753
1.2801e-05
0.00104126
5.99125e-06
0.00128779
6.52083e-06
0.00142727
6.54937e-06
0.00148462
3.09964e-06
0.0015137
3.27627e-06
0.00150928
6.02582e-06
0.00147462
-4.61682e-08
0.00145767
-8.22313e-06
0.00149085
-1.16004e-05
0.0015222
-6.48411e-06
0.00151383
3.26433e-06
0.00150166
3.2745e-06
0.00149701
6.54858e-06
0.00148377
8.34452e-06
0.00142904
1.27734e-05
0.0013288
1.4548e-05
0.00115739
6.21534e-08
0.000920094
-5.62158e-06
0.00066844
-1.30367e-05
0.00046095
-4.25933e-06
0.000293164
-9.07601e-07
0.000177898
3.28583e-06
0.000100366
6.98674e-06
4.84145e-05
2.41234e-06
2.59516e-05
-7.35247e-07
1.25237e-05
-1.36211e-07
5.84819e-06
6.72149e-08
2.78048e-06
-2.40011e-09
1.31333e-06
-2.73729e-08
6.21753e-07
-1.45595e-08
2.94217e-07
-7.34272e-09
1.36696e-07
5.0432e-10
5.83232e-08
5.49663e-10
2.67017e-08
-5.67908e-10
1.12817e-08
-2.36758e-10
5.05741e-09
-2.51607e-10
2.2549e-09
-5.32706e-11
9.85346e-10
-2.15973e-11
4.44143e-10
-8.94789e-13
1.64063e-10
1.25413e-11
3.5823e-11
-1.17131e-11
-1.94765e-11
-2.09595e-11
-3.81806e-11
-3.09449e-11
-3.50949e-11
-4.42882e-11
-3.82053e-11
-3.39053e-11
-4.0803e-11
-3.46456e-11
-3.74428e-11
-3.58994e-11
-3.80054e-11
-3.59775e-11
-2.76779e-11
-3.93833e-11
-2.28229e-11
-3.85807e-11
-1.27961e-11
-3.7644e-11
2.76612e-13
-3.06886e-11
1.31259e-11
-3.25139e-11
1.00768e-11
-2.41851e-11
-1.34596e-12
-1.74173e-11
-2.4181e-11
-1.26367e-11
-3.66933e-11
-7.10074e-12
-2.67636e-11
-5.78821e-12
-1.17657e-11
9.65316e-11
-3.93421e-11
9.84133e-11
-4.49119e-12
4.69359e-11
-2.61676e-12
-1.99596e-11
-5.47726e-12
-4.43492e-11
-1.1689e-11
-3.13485e-11
-4.55235e-13
-3.34447e-11
9.53914e-11
-5.03331e-12
1.62435e-10
9.27401e-12
1.96419e-10
1.44769e-11
1.3219e-10
-2.91545e-11
6.02914e-11
-2.6525e-10
-9.50282e-11
-6.13217e-10
-2.79666e-10
-9.57054e-10
-5.13117e-10
-1.23687e-09
-8.11936e-10
-1.25876e-09
-1.10896e-09
-1.0569e-09
-1.33561e-09
-7.5254e-10
-1.36851e-09
3.04765e-11
-1.4198e-09
8.92962e-10
-1.23181e-09
1.58398e-09
-7.99728e-10
2.23244e-09
-4.15376e-10
4.40702e-09
-3.64381e-10
7.90997e-09
-3.84835e-10
1.96182e-08
-3.37574e-10
4.30326e-08
-2.57244e-11
9.18076e-08
-8.00435e-11
1.82111e-07
1.9198e-09
3.99055e-07
2.25388e-09
9.01303e-07
-8.78676e-09
1.89367e-06
-2.09324e-08
4.07071e-06
-4.75353e-08
8.89228e-06
-2.12018e-07
1.70692e-05
-2.4174e-07
3.2191e-05
-1.93631e-07
6.18768e-05
2.8828e-07
0.000107162
1.20593e-06
0.000193872
-1.96957e-07
0.000325519
1.73575e-06
0.000527295
2.32904e-06
0.000779094
9.25624e-06
0.00105977
7.93329e-06
0.00130664
5.14324e-06
0.00144313
9.53299e-07
0.00149979
-5.41937e-06
0.00152396
-3.50703e-07
0.00152577
3.65198e-06
0.00150972
3.10883e-06
0.00150025
5.13195e-06
0.0015168
-1.65325e-05
0.00152579
-1.11483e-05
0.00151539
1.99662e-06
0.00150199
4.11565e-06
0.00150067
5.13821e-06
0.00148428
5.66521e-06
0.00144169
3.07021e-06
0.00134004
6.57583e-06
0.00116655
1.15005e-06
0.000920846
1.11054e-06
0.000646111
-3.28437e-06
0.000430845
1.0997e-06
0.000258748
1.12497e-06
0.000148743
-9.21307e-07
9.28659e-05
2.82509e-06
5.18727e-05
2.87709e-06
2.60781e-05
4.84702e-07
1.24973e-05
1.50124e-07
5.92776e-06
3.25433e-09
3.00728e-06
-2.78237e-08
1.45861e-06
-1.46602e-08
6.61518e-07
7.18871e-09
2.98899e-07
8.38729e-10
1.41471e-07
1.08965e-09
6.42086e-08
1.28387e-09
2.93561e-08
4.11008e-10
1.33054e-08
2.89005e-10
5.86315e-09
2.38048e-11
2.62407e-09
3.01091e-11
1.16491e-09
1.49729e-11
4.37743e-10
-2.45784e-11
8.55201e-11
5.97761e-12
-2.43562e-11
-5.24394e-11
-3.33359e-11
-7.632e-11
-1.60788e-11
-8.03489e-11
-7.95425e-12
-5.70152e-11
-2.8521e-11
-2.25005e-11
-6.10568e-11
-9.7526e-12
-7.31309e-11
-2.91779e-11
-5.94484e-11
-4.40786e-11
-5.04209e-11
-4.67851e-11
-1.94594e-11
-4.8185e-11
1.1191e-13
-5.0255e-11
1.88232e-11
-4.00766e-11
2.18295e-11
-2.70384e-11
3.05222e-11
-2.59459e-11
4.9155e-12
-2.62328e-11
-3.55407e-11
-2.94656e-11
-6.83985e-11
-1.82814e-11
-6.08357e-11
-6.9412e-12
-8.37679e-12
8.69342e-11
-8.88902e-12
8.29444e-11
-1.3519e-11
3.10761e-11
-2.00322e-11
-1.44426e-11
-1.67963e-11
-1.88669e-11
-4.20818e-12
2.28142e-11
-5.07747e-12
6.47641e-11
2.39222e-11
1.98649e-11
7.02384e-11
-7.73519e-11
9.82553e-11
-1.63129e-10
6.84301e-11
-2.57942e-10
5.08367e-11
-6.18232e-10
-5.29907e-11
-1.14589e-09
-2.06228e-10
-1.72776e-09
-4.75843e-10
-2.14882e-09
-7.78031e-10
-2.25724e-09
-1.25642e-09
-2.01667e-09
-1.52635e-09
-1.59716e-09
-1.63214e-09
-9.39633e-10
-1.82864e-09
-2.97051e-10
-1.82298e-09
9.06576e-10
-1.99635e-09
2.06413e-09
-1.44415e-09
3.60849e-09
-1.32151e-09
7.10522e-09
-1.29151e-09
1.7478e-08
-1.49076e-09
4.14147e-08
-1.18885e-09
8.78205e-08
-7.52397e-10
1.9083e-07
4.59855e-11
4.30167e-07
-4.80991e-09
9.0161e-07
1.08646e-09
1.77992e-06
6.98284e-09
3.8055e-06
-6.79515e-09
7.79242e-06
-2.83676e-08
1.50459e-05
2.67775e-08
3.107e-05
3.38911e-07
6.20574e-05
1.36861e-06
0.000112422
2.47336e-06
0.000197413
2.62357e-06
0.000329676
8.23467e-06
0.000534025
7.83249e-06
0.000790985
1.04136e-05
0.00106661
3.4485e-06
0.00129693
-4.0037e-06
0.00144336
-4.21035e-06
0.00149992
-7.76976e-06
0.00152641
-3.46047e-06
0.00153857
1.22669e-06
0.00155018
2.72537e-06
0.00154995
1.09817e-05
0.00153881
-5.39398e-06
0.00152012
-9.96456e-06
0.00149429
-5.29184e-06
0.00148096
-1.12292e-05
0.00147626
-1.0626e-05
0.00146635
-9.87338e-06
0.00141991
-1.04485e-05
0.00133898
-1.15082e-05
0.00117787
-4.49668e-06
0.000946971
1.96509e-06
0.000657186
1.06876e-05
0.000436894
9.18983e-06
0.00025658
1.16561e-05
0.000141697
3.34268e-06
8.8748e-05
9.92576e-07
5.24665e-05
1.94792e-06
2.78215e-05
1.77024e-06
1.36246e-05
1.09466e-06
6.39768e-06
4.49738e-07
3.31641e-06
1.73777e-07
1.54949e-06
9.67091e-08
7.08472e-07
6.43732e-08
3.20913e-07
2.60749e-08
1.44283e-07
7.93727e-09
6.395e-08
5.35705e-09
2.88629e-08
2.25614e-09
1.43685e-08
7.61475e-10
6.40722e-09
5.46167e-10
2.82535e-09
2.04319e-10
1.21853e-09
1.11997e-10
3.35431e-10
6.83565e-11
7.57867e-11
-3.58723e-11
-4.2814e-11
-4.89981e-11
-1.38818e-11
-6.89043e-11
3.09306e-11
-5.66029e-11
1.90596e-11
-1.13072e-11
-2.84393e-11
2.82573e-11
-8.78621e-11
3.38456e-11
-1.17399e-10
-8.6312e-12
-9.75852e-11
-3.43209e-11
-4.66097e-11
-5.07765e-11
-2.2604e-11
-5.01442e-11
6.5288e-12
-4.61735e-11
2.99634e-11
-4.28717e-11
2.90852e-11
-2.17e-11
3.22612e-11
-2.16893e-11
1.40631e-11
-2.94315e-11
-3.55573e-11
-3.29811e-11
-6.62271e-11
-3.04005e-11
-6.43788e-11
-1.75074e-11
-5.42682e-12
8.76989e-11
-2.61024e-11
7.55372e-11
-2.8394e-11
4.21638e-11
-2.84023e-11
9.12086e-12
-8.76208e-12
1.10542e-11
1.50491e-11
2.00921e-11
2.41274e-11
5.27515e-11
-5.26532e-12
5.65781e-11
-7.91922e-12
2.4849e-11
1.80312e-11
-5.03139e-11
4.44063e-11
-3.31223e-10
1.11395e-10
-9.07789e-10
1.75364e-11
-1.58222e-09
-1.30434e-10
-2.27215e-09
-3.44738e-10
-2.63011e-09
-7.04136e-10
-2.67413e-09
-1.16106e-09
-2.58952e-09
-1.5201e-09
-2.31027e-09
-1.9168e-09
-1.51152e-09
-2.45522e-09
-8.90349e-10
-2.90941e-09
2.20749e-10
-2.93735e-09
2.3793e-09
-2.79255e-09
4.36051e-09
-2.37334e-09
6.25891e-09
-4.63696e-11
1.36196e-08
-2.95476e-10
3.37565e-08
-4.89338e-10
7.85957e-08
-7.39069e-10
1.80835e-07
3.17959e-10
4.12465e-07
-4.64254e-09
8.58541e-07
-1.2806e-09
1.80962e-06
-6.73577e-09
3.84495e-06
7.20206e-09
7.80031e-06
1.3686e-08
1.43818e-05
3.24572e-07
3.05148e-05
1.46118e-07
6.6711e-05
1.32482e-07
0.000120552
1.05345e-06
0.000208022
2.8365e-07
0.000354351
6.3748e-06
0.000572064
4.56313e-06
0.000841861
7.22257e-06
0.00107293
7.78377e-06
0.0013022
-1.19104e-06
0.00142849
-2.34073e-06
0.001496
-8.58198e-07
0.00151176
5.61038e-06
0.0015266
3.41395e-06
0.00154362
-1.78424e-06
0.00156083
-2.24757e-06
0.00154241
-3.24604e-06
0.00150909
-5.32464e-06
0.00147673
-7.33408e-06
0.00145939
-1.52521e-05
0.00144882
-1.38724e-05
0.00143601
-1.38191e-05
0.00139822
-1.58228e-05
0.00130565
-1.30064e-05
0.0011541
-9.66873e-06
0.000924998
-4.68683e-06
0.000648318
7.40267e-06
0.000416511
5.43778e-06
0.000253994
7.85421e-06
0.000140226
5.95317e-06
8.05437e-05
4.17184e-06
4.31691e-05
2.17944e-06
2.27083e-05
1.60458e-06
1.1615e-05
1.00272e-06
5.60105e-06
5.72579e-07
2.72128e-06
2.17592e-07
1.24868e-06
1.17159e-07
6.22275e-07
4.57351e-08
2.92672e-07
2.60331e-08
1.28438e-07
1.38666e-08
5.63021e-08
5.40043e-09
2.58337e-08
2.0837e-09
1.14393e-08
1.19178e-09
5.15706e-09
5.4408e-10
2.15103e-09
2.54627e-10
8.13544e-10
1.24031e-10
2.76429e-10
5.02564e-11
2.56824e-12
1.59779e-11
-4.78184e-11
9.74485e-12
2.04299e-11
7.53782e-12
8.08106e-11
1.25274e-11
3.80037e-11
4.82681e-11
-4.32942e-11
7.88496e-11
-1.28694e-10
5.13845e-11
-1.81692e-10
1.11503e-12
-1.71562e-10
-3.60134e-11
-1.45533e-10
-2.0259e-11
-3.62356e-11
-6.51359e-11
4.26027e-11
-4.94653e-11
7.71009e-11
-3.67976e-11
5.34943e-11
-2.54674e-11
4.53858e-11
-1.34702e-11
2.12814e-11
-1.92773e-11
-2.04037e-11
-7.83576e-12
-4.75047e-11
-1.12382e-11
-5.30088e-11
-9.85852e-14
6.54851e-12
9.59548e-11
-2.92921e-11
9.71689e-11
-2.17029e-11
9.31693e-11
2.11699e-13
9.97289e-11
2.10561e-11
1.28039e-10
3.77096e-11
1.83699e-10
1.75842e-11
1.9999e-10
5.04616e-12
1.69651e-10
-5.22184e-11
9.32957e-11
-5.5791e-11
-1.48641e-10
4.79808e-11
-3.18827e-10
6.27591e-11
-9.11033e-10
3.68177e-11
-1.7286e-09
-5.54392e-13
-2.65154e-09
-1.57836e-10
-3.54936e-09
-3.25175e-10
-4.41628e-09
-6.34229e-10
-4.79655e-09
-9.41557e-10
-4.6226e-09
-1.52404e-09
-4.3719e-09
-1.81854e-09
-4.01224e-09
-2.18317e-09
-4.06114e-09
-1.85069e-09
-4.2911e-09
-1.82708e-09
-3.95118e-09
-1.89833e-09
-1.40926e-09
-7.61433e-11
4.75591e-09
-1.24066e-10
2.44984e-08
2.63879e-10
5.96135e-08
2.0967e-09
1.50204e-07
3.5918e-09
3.35432e-07
1.39767e-08
7.94495e-07
1.38929e-08
1.65837e-06
4.80399e-08
3.69145e-06
7.56746e-08
7.52683e-06
2.12007e-07
1.5006e-05
5.3981e-07
2.9711e-05
1.06949e-06
6.52875e-05
3.16467e-07
0.000118282
2.6535e-06
0.000210205
4.89357e-07
0.000367171
1.57546e-06
0.000591053
3.69563e-06
0.000865131
2.4646e-06
0.00109501
9.39742e-06
0.00132346
2.54513e-06
0.00145324
-1.38422e-06
0.0015123
2.84742e-06
0.00153454
1.7825e-06
0.00153749
2.78706e-06
0.00153992
-2.80661e-06
0.00154219
-6.2983e-06
0.00152931
-1.78851e-06
0.00150637
-1.25824e-06
0.00148391
-5.80995e-06
0.00146659
-8.62788e-06
0.00145307
-5.61076e-06
0.0014265
-5.08931e-06
0.00138099
-5.29247e-06
0.00129015
-3.51306e-06
0.00110136
-2.31359e-06
0.00088028
2.6462e-06
0.000590113
-4.13294e-06
0.000376562
-1.988e-06
0.000213624
3.33018e-06
0.000118438
-5.86382e-08
6.71933e-05
-2.7611e-07
3.42821e-05
1.81519e-07
1.75201e-05
-1.86923e-07
8.77145e-06
3.17612e-08
4.40754e-06
3.51954e-08
2.12558e-06
1.33821e-08
1.01884e-06
1.14292e-08
4.70126e-07
3.98861e-09
2.18265e-07
2.2993e-09
9.95541e-08
8.94801e-10
4.47807e-08
3.84195e-10
2.01424e-08
2.41125e-10
8.47218e-09
3.8176e-10
3.63563e-09
5.93441e-11
1.47327e-09
-3.97685e-12
5.45133e-10
-1.37906e-12
1.52464e-10
1.25484e-11
-1.37122e-11
2.53183e-11
-1.80132e-12
2.40832e-11
1.03899e-10
1.42361e-11
1.59193e-10
2.08242e-11
6.63823e-11
6.19566e-11
-6.85211e-11
6.46332e-11
-1.51644e-10
-1.2227e-11
-1.92055e-10
-3.83256e-11
-1.2176e-10
-5.12109e-11
-4.16239e-11
-3.69873e-11
5.44763e-11
-2.90944e-11
1.27707e-10
-2.89964e-11
1.48299e-10
-2.58227e-11
1.30607e-10
-8.61096e-12
7.05434e-11
-8.80606e-12
3.06183e-11
-9.75969e-12
-1.9974e-13
-1.65468e-13
-2.4161e-11
2.63629e-12
-3.23365e-11
6.41269e-12
7.79453e-12
8.72491e-11
1.03851e-10
1.60168e-10
2.35118e-10
2.91701e-10
2.97688e-10
2.95702e-10
6.53956e-11
-2.34779e-10
-4.17857e-10
-5.51027e-10
-1.06535e-09
-1.84697e-09
-2.92517e-09
-4.17208e-09
-5.28983e-09
-6.30528e-09
-7.19701e-09
-7.59552e-09
-7.93363e-09
-7.68802e-09
-6.40419e-09
-4.9904e-09
-1.52907e-10
7.54419e-09
2.74605e-08
6.99505e-08
1.64176e-07
4.05027e-07
9.036e-07
1.93706e-06
4.19353e-06
8.72248e-06
1.80078e-05
3.61961e-05
6.99135e-05
0.000131173
0.000226074
0.000391477
0.000604067
0.000886983
0.00113133
0.00137379
0.00149353
0.0015437
0.00154772
0.00154825
0.00153638
0.00152043
0.00151357
0.00150316
0.0014915
0.00148178
0.00147591
0.00145262
0.00140437
0.00132688
0.0011458
0.00093294
0.000625189
0.000390943
0.000229369
0.000131247
7.29767e-05
3.8365e-05
1.96557e-05
9.74415e-06
4.75759e-06
2.30052e-06
1.09896e-06
5.11178e-07
2.37059e-07
1.06919e-07
4.776e-08
2.13161e-08
9.46034e-09
4.12675e-09
1.66325e-09
6.39176e-10
2.21522e-10
7.32443e-11
8.38174e-11
1.32626e-10
1.31106e-10
8.06466e-11
3.79594e-11
-7.16866e-11
-1.17505e-10
-1.25383e-10
-4.62953e-11
8.65682e-11
1.78868e-10
1.88233e-10
1.60403e-10
1.03394e-10
2.93363e-11
-1.24699e-13
-1.79805e-11
-2.22038e-11
)
;

boundaryField
{
    sides1
    {
        type            calculated;
        value           nonuniform List<scalar> 
20
(
2.61052e-13
3.69051e-12
1.26399e-11
2.04817e-11
1.16057e-11
-2.47963e-11
-4.772e-11
-4.13374e-11
-2.79983e-11
-1.92762e-11
6.93453e-10
4.75578e-10
2.72703e-10
1.50296e-10
5.78846e-11
-4.04753e-11
-6.09459e-11
-6.44524e-11
-8.18245e-11
-6.63811e-11
)
;
    }
    sides2
    {
        type            calculated;
        value           uniform 0;
    }
    empty
    {
        type            empty;
        value           nonuniform 0();
    }
}


// ************************************************************************* //
