/*--------------------------------*- C++ -*----------------------------------*\
| =========                 |                                                 |
| \\      /  F ield         | OpenFOAM: The Open Source CFD Toolbox           |
|  \\    /   O peration     | Version:  3.0.1                                 |
|   \\  /    A nd           | Web:      www.OpenFOAM.org                      |
|    \\/     M anipulation  |                                                 |
\*---------------------------------------------------------------------------*/
FoamFile
{
    version     2.0;
    format      ascii;
    class       volScalarField;
    location    "0.0001";
    object      T;
}
// * * * * * * * * * * * * * * * * * * * * * * * * * * * * * * * * * * * * * //

dimensions      [0 0 0 1 0 0 0];

internalField   nonuniform List<scalar> 
1000
(
289
289
289
289
289
289
289
289
289
289
289
289
289
289
289
289
289
289
289
289
289
289
289
289
289
289
289
289
289
288.999
288.997
288.995
288.988
288.973
288.947
288.895
288.812
288.636
288.378
287.913
287.308
286.284
285.292
284.476
283.698
283.086
282.635
282.64
283.293
285.484
288.931
292.369
294.511
295.319
295.508
295.424
294.552
293.667
292.177
291.359
290.357
289.822
289.531
289.131
289.116
289.048
289.029
289.012
289.007
289.003
289.001
289.001
289
289
289
289
289
289
289
289
289
289
289
289
289
289
289
289
289
289
289
289
289
289
289
289
289
289
289
289
289
289
289
289
289
289
289
289
289
289
289
289
289
289
289
289
289
289
289
289
289
289
289
289
289
289
289
289
289
288.999
288.998
288.994
288.99
288.973
288.953
288.905
288.83
288.629
288.391
287.923
287.274
286.275
285.258
284.395
283.722
283.107
282.836
282.83
283.385
285.375
288.68
292.174
294.457
295.301
295.55
295.442
294.549
293.634
292.296
291.326
290.392
289.797
289.471
289.178
289.114
289.059
289.024
289.013
289.006
289.003
289.001
289.001
289
289
289
289
289
289
289
289
289
289
289
289
289
289
289
289
289
289
289
289
289
289
289
289
289
289
289
289
289
289
289
289
289
289
289
289
289
289
289
289
289
289
289
289
289
289
289
289
289
289
289
289
289
289
289
289
289
288.999
288.998
288.995
288.992
288.972
288.956
288.933
288.9
288.583
288.458
287.894
287.32
286.275
285.223
284.2
283.477
283.216
283.237
283.422
283.93
285.409
288.205
291.648
294.14
295.191
295.506
295.414
294.627
293.613
292.392
291.215
290.417
289.741
289.454
289.24
289.107
289.062
289.02
289.013
289.007
289.003
289.001
289.001
289
289
289
289
289
289
289
289
289
289
289
289
289
289
289
289
289
289
289
289
289
289
289
289
289
289
289
289
289
289
289
289
289
289
289
289
289
289
289
289
289
289
289
289
289
289
289
289
289
289
289
289
289
289
289
289
289
288.999
288.998
288.996
288.994
288.979
288.967
288.92
288.885
288.646
288.469
287.993
287.386
286.345
285.218
283.993
283.235
283.125
283.52
284.025
284.693
285.83
288
291.132
293.847
295.041
295.379
295.279
294.661
293.59
292.386
291.162
290.398
289.755
289.474
289.237
289.128
289.057
289.032
289.009
289.007
289.003
289.001
289.001
289
289
289
289
289
289
289
289
289
289
289
289
289
289
289
289
289
289
289
289
289
289
289
289
289
289
289
289
289
289
289
289
289
289
289
289
289
289
289
289
289
289
289
289
289
289
289
289
289
289
289
289
289
289
289
289
289
288.999
288.999
288.996
288.996
288.979
288.974
288.921
288.872
288.675
288.447
288.04
287.357
286.43
285.216
283.909
283.07
282.976
283.478
284.176
284.968
286.176
288.011
291.039
293.775
295.023
295.363
295.149
294.535
293.628
292.286
291.11
290.352
289.783
289.464
289.228
289.159
289.035
289.022
289.013
289.007
289.003
289.001
289.001
289
289
289
289
289
289
289
289
289
289
289
289
289
289
289
289
289
289
289
289
289
289
289
289
289
289
289
289
289
289
289
289
289
289
289
289
289
289
289
289
289
289
289
289
289
289
289
289
289
289
289
289
289
289
289
289
289
288.999
288.999
288.996
288.992
288.983
288.979
288.926
288.883
288.66
288.484
288.032
287.323
286.384
285.212
284.006
283.104
282.918
283.23
283.697
284.512
285.976
288.343
291.545
294.072
295.167
295.369
295.095
294.403
293.523
292.273
291.303
290.342
289.861
289.39
289.24
289.142
289.047
289.04
289
289.006
289.004
289.001
289
289
289
289
289
289
289
289
289
289
289
289
289
289
289
289
289
289
289
289
289
289
289
289
289
289
289
289
289
289
289
289
289
289
289
289
289
289
289
289
289
289
289
289
289
289
289
289
289
289
289
289
289
289
289
289
289
289
288.999
288.998
288.996
288.992
288.986
288.991
288.911
288.877
288.678
288.454
288.094
287.303
286.351
285.191
284.06
283.22
282.85
282.892
283.127
283.87
285.703
288.825
292.137
294.465
295.314
295.415
295.128
294.42
293.433
292.281
291.227
290.33
289.922
289.227
289.233
289.123
289.061
289.031
289.015
289.007
289.005
289
289.001
289
289
289
289
289
289
289
289
289
289
289
289
289
289
289
289
289
289
289
289
289
289
289
289
289
289
289
289
289
289
289
289
289
289
289
289
289
289
289
289
289
289
289
289
289
289
289
289
289
289
289
289
289
289
289
289
289
288.999
288.998
288.996
288.992
288.982
288.984
288.911
288.849
288.708
288.415
288.183
287.229
286.296
285.281
283.971
283.247
282.785
282.757
282.949
283.728
285.681
288.981
292.346
294.505
295.319
295.464
295.217
294.591
293.442
292.271
291.142
290.268
289.806
289.357
289.228
289.103
289.06
289.026
289.016
289.004
289.002
289.001
289.001
289
289
289
289
289
289
289
289
289
289
289
289
289
289
289
289
289
289
289
289
289
289
289
289
289
289
289
289
289
289
289
289
289
289
289
289
289
289
289
289
289
289
289
289
289
289
289
289
289
289
289
289
289
289
289
289
289
288.999
288.999
288.996
288.992
288.982
288.974
288.922
288.848
288.658
288.387
288.145
287.278
286.299
285.345
283.958
283.189
282.85
282.921
283.148
283.895
285.688
288.751
292.102
294.364
295.282
295.536
295.407
294.791
293.311
292.387
291.063
290.217
289.786
289.298
289.212
289.122
289.028
289.025
289.011
289.005
289.003
289.001
289.001
289
289
289
289
289
289
289
289
289
289
289
289
289
289
289
289
289
289
289
289
289
289
289
289
289
289
289
289
289
289
289
289
289
289
289
289
289
289
289
289
289
289
289
289
289
289
289
289
289
289
289
289
289
289
289
289
289
288.999
288.998
288.996
288.992
288.982
288.965
288.929
288.828
288.66
288.4
287.908
287.497
286.261
285.473
283.953
283.182
282.94
283.093
283.361
284.087
285.73
288.523
291.854
294.256
295.278
295.566
295.386
294.727
293.546
292.402
291.309
289.89
289.738
289.335
289.208
289.113
289.039
289.027
289.009
289.006
289.002
289.001
289
289
289
289
289
289
289
289
289
289
289
289
289
289
289
289
289
289
289
289
289
289
289
289
289
289
289
289
289
)
;

boundaryField
{
    sides1
    {
        type            zeroGradient;
    }
    sides2
    {
        type            slip;
    }
    empty
    {
        type            empty;
    }
}


// ************************************************************************* //
