/*--------------------------------*- C++ -*----------------------------------*\
| =========                 |                                                 |
| \\      /  F ield         | OpenFOAM: The Open Source CFD Toolbox           |
|  \\    /   O peration     | Version:  3.0.1                                 |
|   \\  /    A nd           | Web:      www.OpenFOAM.org                      |
|    \\/     M anipulation  |                                                 |
\*---------------------------------------------------------------------------*/
FoamFile
{
    version     2.0;
    format      ascii;
    class       volVectorField;
    location    "0.0001";
    object      U;
}
// * * * * * * * * * * * * * * * * * * * * * * * * * * * * * * * * * * * * * //

dimensions      [0 1 -1 0 0 0 0];

internalField   nonuniform List<vector> 
1000
(
(-6.86453e-06 -3.58505e-06 0)
(-6.07533e-06 -3.36949e-06 0)
(-5.78336e-06 -3.16741e-06 0)
(-5.55476e-06 -2.77587e-06 0)
(-5.43405e-06 -1.92805e-06 0)
(-5.14221e-06 -1.99168e-06 0)
(-4.26537e-06 -3.5533e-06 0)
(-1.0548e-06 -4.84828e-06 0)
(1.05753e-06 -3.41474e-06 0)
(1.89718e-06 -1.19018e-06 0)
(1.80094e-06 -6.69979e-07 0)
(1.59859e-06 -1.33946e-06 0)
(1.67268e-07 -1.17822e-06 0)
(-3.35329e-07 -5.83499e-07 0)
(-7.37561e-07 -4.69849e-08 0)
(-1.31845e-06 1.38158e-07 0)
(-3.2859e-06 1.63959e-07 0)
(-7.07266e-06 -7.7636e-07 0)
(-1.48795e-05 -1.88455e-06 0)
(-1.33915e-05 -1.18992e-06 0)
(-1.58177e-05 -5.70164e-06 0)
(-8.60905e-06 -7.15145e-06 0)
(1.11678e-05 -9.61333e-06 0)
(8.2184e-05 -2.06336e-05 0)
(0.000206582 -2.64878e-05 0)
(0.000421285 -3.1795e-05 0)
(0.00107793 -3.34834e-05 0)
(0.0023843 -3.61713e-05 0)
(0.00504546 -5.51713e-05 0)
(0.0123227 -6.41383e-05 0)
(0.0244565 -0.000295303 0)
(0.051376 -0.000718655 0)
(0.105264 -0.00168658 0)
(0.20297 -0.00336689 0)
(0.392511 -0.00541371 0)
(0.701955 -0.00831782 0)
(1.25637 -0.0135186 0)
(2.03652 -0.0250218 0)
(3.4963 -0.0255856 0)
(5.20961 -0.04842 0)
(7.82716 -0.0975383 0)
(10.7229 -0.163506 0)
(12.7338 -0.182324 0)
(14.6566 -0.178364 0)
(15.68 -0.154628 0)
(16.4061 -0.0767285 0)
(16.7845 0.00812919 0)
(16.8218 -0.0371758 0)
(16.8378 0.0649646 0)
(16.8076 0.1992 0)
(16.7595 0.246135 0)
(16.7118 0.203121 0)
(16.6825 0.15182 0)
(16.5165 0.183605 0)
(16.4185 0.268792 0)
(16.2704 0.182486 0)
(15.5473 0.140475 0)
(14.4964 0.0656483 0)
(12.4527 -0.0102354 0)
(9.7203 0.00482571 0)
(6.88301 0.040462 0)
(4.07799 0.036657 0)
(2.52626 0.0279494 0)
(1.38098 0.00676653 0)
(0.704507 0.00382351 0)
(0.376913 0.00174428 0)
(0.187799 0.00184995 0)
(0.0970879 0.000825335 0)
(0.0466795 0.000711214 0)
(0.0233658 0.000372266 0)
(0.0106154 0.000177369 0)
(0.00542999 8.73406e-05 0)
(0.00240997 1.18388e-06 0)
(0.000979368 5.43091e-06 0)
(0.000474102 6.41262e-06 0)
(0.000206697 2.82562e-06 0)
(9.29426e-05 1.73388e-06 0)
(3.91686e-05 5.85514e-07 0)
(1.86505e-05 4.28808e-07 0)
(7.62929e-06 2.49511e-08 0)
(2.95554e-06 -8.56265e-09 0)
(1.35797e-06 -2.31385e-08 0)
(5.27335e-07 -2.93101e-08 0)
(2.0461e-07 -3.25131e-08 0)
(3.9636e-08 -4.12532e-08 0)
(-2.83946e-08 -4.32013e-08 0)
(-5.93808e-08 -5.51076e-08 0)
(-9.07458e-08 -7.91003e-08 0)
(-9.58821e-08 -7.42756e-08 0)
(-1.35205e-07 -9.58184e-08 0)
(-1.32832e-07 -9.12862e-08 0)
(-1.5126e-07 -1.31618e-07 0)
(-1.91673e-07 -1.49678e-07 0)
(-1.9707e-07 -2.05157e-07 0)
(-1.89706e-07 -2.49348e-07 0)
(-1.55948e-07 -2.60648e-07 0)
(-1.08315e-07 -2.7649e-07 0)
(-8.55081e-08 -3.06983e-07 0)
(-3.86947e-08 -3.13255e-07 0)
(-1.12681e-09 -3.34462e-07 0)
(-4.61837e-06 -2.91113e-06 0)
(-3.5953e-06 -2.49441e-06 0)
(-3.2855e-06 -1.22432e-06 0)
(-3.86279e-06 2.64463e-07 0)
(-3.9504e-06 2.20789e-07 0)
(-3.57208e-06 3.06456e-07 0)
(-3.74996e-06 -2.5867e-07 0)
(-7.3758e-07 -3.9405e-06 0)
(-1.03681e-06 -2.45154e-06 0)
(1.03899e-07 -4.3096e-07 0)
(8.82687e-07 5.47045e-08 0)
(7.71161e-07 6.83204e-07 0)
(2.80033e-07 2.96344e-07 0)
(-9.78612e-08 -4.16391e-07 0)
(-1.19289e-06 -9.09351e-07 0)
(-1.04427e-06 -7.11351e-07 0)
(-2.4222e-06 -2.55492e-07 0)
(-5.65965e-06 5.22126e-07 0)
(-1.06097e-05 1.43944e-06 0)
(-1.36386e-05 1.313e-06 0)
(-1.29653e-05 9.06211e-07 0)
(-6.8097e-06 9.43706e-08 0)
(1.25416e-05 -4.24101e-06 0)
(5.77944e-05 -1.35581e-05 0)
(0.000166833 -1.72619e-05 0)
(0.000421167 -2.95869e-05 0)
(0.000952364 -5.59258e-05 0)
(0.00216971 -0.000156231 0)
(0.00487603 -0.000341792 0)
(0.0104284 -0.000724621 0)
(0.0231804 -0.00171819 0)
(0.0468471 -0.00367708 0)
(0.094239 -0.00805892 0)
(0.191328 -0.0146303 0)
(0.343485 -0.0285568 0)
(0.678388 -0.049229 0)
(1.22131 -0.0877721 0)
(1.92057 -0.0652438 0)
(3.55917 -0.111173 0)
(4.96643 -0.0936033 0)
(8.22154 -0.141411 0)
(10.5532 -0.20815 0)
(12.6323 -0.132976 0)
(14.415 -0.0310833 0)
(15.7362 -0.0129056 0)
(16.1031 0.0350212 0)
(16.4315 0.0917832 0)
(16.6231 -0.061117 0)
(16.5167 0.047194 0)
(16.5241 0.164444 0)
(16.4778 0.157519 0)
(16.4395 0.10746 0)
(16.5009 -0.00566235 0)
(16.4494 0.0544162 0)
(16.2665 0.0780028 0)
(16.0682 0.159504 0)
(15.6424 0.165541 0)
(14.1373 0.174366 0)
(12.46 0.076058 0)
(9.3865 0.142628 0)
(6.35531 0.101621 0)
(3.95145 0.0390885 0)
(2.28559 0.0145907 0)
(1.29492 -0.0219693 0)
(0.641563 -0.0018965 0)
(0.355629 -0.00756718 0)
(0.174757 0.000205692 0)
(0.082959 -0.000157858 0)
(0.0425647 0.000187225 0)
(0.0193893 6.4642e-05 0)
(0.0094954 0.000120954 0)
(0.00439223 2.52314e-05 0)
(0.00211331 -3.45238e-05 0)
(0.000879838 -8.9832e-06 0)
(0.000402014 1.91547e-06 0)
(0.000172901 8.13283e-07 0)
(7.92316e-05 5.75628e-07 0)
(3.31421e-05 6.12812e-08 0)
(1.5498e-05 1.31154e-07 0)
(6.69356e-06 -3.04748e-07 0)
(2.65547e-06 -9.24868e-08 0)
(1.37443e-06 -7.56011e-08 0)
(4.60795e-07 -9.95227e-08 0)
(1.46094e-07 -1.36627e-07 0)
(-2.22036e-09 -1.6031e-07 0)
(-6.52587e-08 -2.1891e-07 0)
(-1.12124e-07 -2.55395e-07 0)
(-1.40533e-07 -3.08356e-07 0)
(-1.72012e-07 -3.65431e-07 0)
(-1.84997e-07 -3.35149e-07 0)
(-2.56081e-07 -4.16239e-07 0)
(-2.39242e-07 -4.25799e-07 0)
(-2.68404e-07 -4.61857e-07 0)
(-2.8702e-07 -4.78979e-07 0)
(-3.11708e-07 -5.37737e-07 0)
(-3.33741e-07 -6.04384e-07 0)
(-2.78031e-07 -7.25112e-07 0)
(-3.17184e-07 -7.69223e-07 0)
(-1.26619e-07 -9.0814e-07 0)
(3.1036e-08 -9.69847e-07 0)
(-2.45808e-06 -3.26611e-06 0)
(-1.1206e-06 -3.10098e-06 0)
(-1.80618e-08 -2.18448e-06 0)
(-1.11e-06 -1.17385e-06 0)
(-1.45337e-06 -2.66223e-07 0)
(-1.3063e-06 -6.44877e-07 0)
(-1.06195e-06 -2.3894e-06 0)
(-5.29284e-07 -2.96887e-06 0)
(-1.59841e-07 -2.74395e-06 0)
(-1.15884e-07 -2.85284e-06 0)
(1.0153e-06 -1.58329e-06 0)
(1.3059e-06 -1.12172e-06 0)
(1.56726e-07 -5.02479e-07 0)
(-7.30731e-07 -8.40226e-07 0)
(-1.01378e-06 -5.81082e-07 0)
(-1.76038e-06 -4.80473e-07 0)
(-5.16866e-06 6.79071e-07 0)
(-5.38583e-06 8.44844e-07 0)
(-1.07614e-05 2.37607e-06 0)
(-1.0536e-05 1.96026e-06 0)
(-1.29402e-05 -1.3225e-08 0)
(-8.6272e-06 2.86547e-06 0)
(5.83529e-06 1.33267e-06 0)
(4.22256e-05 -8.2391e-06 0)
(0.000138173 -3.28306e-05 0)
(0.00034496 -7.27663e-05 0)
(0.00077588 -0.000127444 0)
(0.00178609 -0.000238614 0)
(0.00422692 -0.000516615 0)
(0.00835847 -0.00102883 0)
(0.0197717 -0.00212564 0)
(0.0397564 -0.00397575 0)
(0.0864479 -0.0076421 0)
(0.169701 -0.0103607 0)
(0.321202 -0.0287354 0)
(0.56834 -0.0579107 0)
(1.1362 -0.0671132 0)
(1.92017 -0.113506 0)
(3.14255 -0.17916 0)
(5.05143 -0.221973 0)
(7.51762 -0.359465 0)
(10.3378 -0.13968 0)
(12.6195 -0.0663624 0)
(14.5032 0.10247 0)
(15.6517 0.372901 0)
(15.7943 0.291676 0)
(16.1083 -0.0846506 0)
(16.0106 -0.122352 0)
(16.0861 -0.03949 0)
(16.0856 0.191623 0)
(16.0635 0.483803 0)
(16.1504 0.0696537 0)
(16.2398 -0.0552778 0)
(16.3238 -0.110314 0)
(16.1136 0.0497716 0)
(15.9918 0.0626536 0)
(15.4028 0.184878 0)
(14.0706 0.382268 0)
(12.1664 0.494125 0)
(9.7436 0.465795 0)
(6.43129 0.117856 0)
(4.36093 -0.0152663 0)
(2.37401 -0.0577681 0)
(1.46575 -0.073673 0)
(0.738268 -0.0389044 0)
(0.411937 -0.0178505 0)
(0.21524 -0.0135232 0)
(0.0944828 -0.00451763 0)
(0.0481253 -0.00193816 0)
(0.0209954 -0.000330567 0)
(0.0110742 -0.000300126 0)
(0.00452753 -0.00013213 0)
(0.00237637 -0.000114669 0)
(0.00104734 -4.88705e-05 0)
(0.000491221 -2.02405e-05 0)
(0.000198265 -6.32771e-06 0)
(0.000103088 -4.99151e-06 0)
(4.0894e-05 -2.37495e-06 0)
(2.0082e-05 -1.05835e-06 0)
(8.21166e-06 -6.44945e-07 0)
(3.48275e-06 -2.80868e-07 0)
(1.47852e-06 -1.13198e-07 0)
(4.7338e-07 -8.07609e-08 0)
(8.6347e-08 -1.35889e-07 0)
(-9.58405e-08 -2.13784e-07 0)
(-1.81256e-07 -2.82294e-07 0)
(-2.25857e-07 -3.59362e-07 0)
(-2.24789e-07 -4.57228e-07 0)
(-2.28322e-07 -4.4308e-07 0)
(-2.70851e-07 -4.76628e-07 0)
(-2.99869e-07 -4.77868e-07 0)
(-3.7866e-07 -5.80173e-07 0)
(-3.89052e-07 -4.96336e-07 0)
(-3.85995e-07 -4.50265e-07 0)
(-4.12381e-07 -4.48653e-07 0)
(-4.20674e-07 -5.59622e-07 0)
(-4.16667e-07 -6.52963e-07 0)
(-3.82864e-07 -7.64354e-07 0)
(-2.18325e-07 -9.71638e-07 0)
(9.98159e-08 -1.07961e-06 0)
(-1.29258e-06 -3.2513e-06 0)
(-4.08005e-07 -2.98313e-06 0)
(-5.20779e-07 -2.15413e-06 0)
(-4.13814e-07 -1.35054e-06 0)
(-1.2338e-06 -1.71968e-06 0)
(-1.34503e-06 -1.59638e-06 0)
(-1.38925e-06 -1.73275e-06 0)
(-1.09537e-06 -1.9977e-06 0)
(6.02871e-07 -1.2149e-06 0)
(8.46853e-07 -5.36033e-07 0)
(1.80635e-06 -7.81142e-07 0)
(1.54303e-06 -9.47377e-07 0)
(1.05715e-06 -1.73824e-06 0)
(-3.31427e-07 -2.14991e-06 0)
(-1.85601e-06 -1.7604e-06 0)
(-2.21936e-06 -9.24278e-07 0)
(-4.02624e-06 -1.00755e-06 0)
(-7.1943e-06 -8.45886e-07 0)
(-8.85394e-06 -4.68084e-07 0)
(-1.165e-05 1.00318e-06 0)
(-9.84585e-06 2.99536e-06 0)
(-6.81023e-06 5.357e-06 0)
(2.7342e-06 4.1138e-06 0)
(2.72848e-05 -2.14227e-06 0)
(0.000109728 -2.10163e-05 0)
(0.000240926 -3.20896e-05 0)
(0.000587134 -5.97803e-05 0)
(0.0014111 -0.000143095 0)
(0.00333676 -0.000410752 0)
(0.00719816 -0.000717312 0)
(0.0161223 -0.0017524 0)
(0.0343878 -0.00286255 0)
(0.0727268 -0.0048986 0)
(0.158121 -0.00782152 0)
(0.329911 -0.0230914 0)
(0.577553 -0.0355662 0)
(1.0353 -0.0353474 0)
(2.08429 -0.120569 0)
(2.88608 -0.0809826 0)
(5.31111 -0.219068 0)
(6.91143 -0.152351 0)
(9.68312 -0.0766073 0)
(12.5695 -0.0161584 0)
(14.3721 0.19047 0)
(15.1961 0.391963 0)
(15.7268 0.370265 0)
(15.8074 0.0962732 0)
(15.8106 -0.0870674 0)
(15.6811 -0.328849 0)
(15.7602 0.111548 0)
(15.9828 0.152897 0)
(16.0986 -0.0282317 0)
(16.2681 -0.151765 0)
(16.3201 -0.164288 0)
(16.2513 0.0213285 0)
(15.8668 0.146177 0)
(15.1432 0.276654 0)
(13.9991 0.318203 0)
(11.3968 0.213533 0)
(9.81234 0.166932 0)
(6.5059 0.101281 0)
(4.61922 -0.0122601 0)
(2.50836 -0.0291799 0)
(1.67829 -0.0199821 0)
(0.838961 -0.0435584 0)
(0.443682 -0.00529833 0)
(0.247644 -0.00253945 0)
(0.109524 -0.000702721 0)
(0.0487079 -0.000121861 0)
(0.0227018 -0.000184611 0)
(0.010509 -0.000139315 0)
(0.00525649 -5.73169e-05 0)
(0.00234478 -2.93884e-05 0)
(0.00113417 -1.35607e-05 0)
(0.000503245 -2.05784e-07 0)
(0.000216894 2.93563e-07 0)
(0.000107367 2.21699e-07 0)
(4.41721e-05 3.14363e-07 0)
(2.1917e-05 1.21523e-07 0)
(9.07689e-06 2.07316e-07 0)
(3.52087e-06 2.68727e-07 0)
(1.15425e-06 1.63845e-07 0)
(1.96371e-07 -1.02985e-08 0)
(-1.49908e-07 -1.16923e-07 0)
(-2.83888e-07 -2.48316e-07 0)
(-3.81187e-07 -3.68462e-07 0)
(-3.73496e-07 -4.84079e-07 0)
(-3.54017e-07 -5.04019e-07 0)
(-3.63614e-07 -5.54865e-07 0)
(-3.33372e-07 -6.11332e-07 0)
(-3.81958e-07 -7.06492e-07 0)
(-3.24739e-07 -6.23056e-07 0)
(-3.43862e-07 -5.16307e-07 0)
(-2.97874e-07 -4.50337e-07 0)
(-2.9512e-07 -3.6984e-07 0)
(-3.97682e-07 -3.53525e-07 0)
(-3.17657e-07 -5.1617e-07 0)
(-5.45814e-07 -4.51156e-07 0)
(-6.08705e-08 -8.00677e-07 0)
(1.77738e-07 -7.89668e-07 0)
(-4.92445e-07 -2.0277e-06 0)
(2.47277e-07 -1.79686e-06 0)
(5.53087e-07 -1.6986e-06 0)
(-1.48715e-07 -1.59187e-06 0)
(-1.57675e-06 -1.55255e-06 0)
(-1.3387e-06 -9.67477e-07 0)
(-1.22115e-06 -1.52207e-07 0)
(-3.64173e-07 5.91257e-07 0)
(3.69853e-08 9.466e-07 0)
(8.61747e-07 7.48e-07 0)
(1.55226e-06 -9.15263e-08 0)
(1.09994e-06 -1.19916e-06 0)
(-1.27982e-06 -3.39965e-06 0)
(-2.67615e-06 -5.16624e-06 1.45275e-31)
(-4.71347e-06 -7.59776e-06 0)
(-7.12453e-06 -1.33378e-05 0)
(-8.05142e-06 -1.32537e-05 0)
(-7.80682e-06 -1.30365e-05 0)
(-6.12127e-06 -1.27873e-05 0)
(-8.97376e-07 -1.3023e-05 0)
(2.62013e-06 -7.16921e-06 0)
(7.08021e-06 -1.60656e-06 0)
(2.13925e-05 2.27039e-06 0)
(5.98718e-05 1.03037e-07 0)
(0.000110057 3.44948e-06 0)
(0.000276642 5.93562e-07 0)
(0.000560985 -2.05123e-05 0)
(0.00136279 -6.39538e-05 0)
(0.00285225 -8.91029e-05 0)
(0.00630524 -0.00016963 0)
(0.0145295 -0.000546986 0)
(0.0301712 -0.000854336 1.57733e-31)
(0.0673319 -0.00183798 0)
(0.154874 -0.0131344 0)
(0.285658 -0.0209226 0)
(0.553279 -0.0170002 0)
(0.915107 -0.0363512 -1.58583e-31)
(1.87766 -0.0315872 0)
(2.825 -0.0446382 0)
(4.90675 0.0270693 2.03808e-31)
(7.06586 0.0770292 0)
(9.4673 0.048881 0)
(12.8018 0.151088 0)
(14.1673 0.192429 -1.29674e-31)
(15.4578 0.161033 0)
(15.7458 0.143224 0)
(15.9978 0.137323 0)
(15.8313 0.0504276 0)
(15.6289 -0.146521 0)
(15.6918 -0.268559 0)
(16.2053 -0.155721 0)
(16.2772 -0.114138 0)
(16.4308 -0.0332744 0)
(16.4513 0.0226978 0)
(16.4147 0.112475 0)
(16.242 0.161943 -8.63479e-32)
(15.2447 0.2173 7.91914e-32)
(14.1864 0.121469 0)
(11.4289 -0.0144636 0)
(9.85285 -0.0934675 -9.27536e-32)
(6.19425 -0.06059 0)
(4.89898 -0.0186549 0)
(2.51634 0.0140905 0)
(1.77372 0.0480659 0)
(0.860118 0.0136567 0)
(0.460894 -0.00388736 0)
(0.214821 -0.00383478 0)
(0.107661 0.00298724 0)
(0.0471033 0.000268346 0)
(0.0241426 -0.00049295 0)
(0.0102949 -9.69532e-05 0)
(0.00537224 -8.25961e-07 8.33084e-32)
(0.00245525 -1.66508e-06 0)
(0.00107505 -3.45821e-06 0)
(0.00047677 -1.90739e-06 0)
(0.000202048 -1.0429e-06 0)
(9.21276e-05 -3.96858e-07 0)
(3.8716e-05 5.15817e-07 0)
(1.82275e-05 5.63815e-07 0)
(8.21103e-06 8.49546e-07 0)
(2.82622e-06 5.79578e-07 0)
(1.15951e-06 3.57292e-07 0)
(-1.6832e-08 -8.67259e-08 0)
(-4.54874e-07 -3.36353e-07 0)
(-4.61195e-07 -5.13554e-07 0)
(-4.39564e-07 -5.71091e-07 0)
(-5.04962e-07 -6.01935e-07 0)
(-4.88027e-07 -7.68445e-07 0)
(-4.36066e-07 -7.99654e-07 0)
(-4.79345e-07 -8.27983e-07 0)
(-3.99491e-07 -7.55237e-07 0)
(-2.82e-07 -7.05443e-07 -6.70179e-32)
(-1.94809e-07 -5.92486e-07 0)
(9.10286e-08 -5.23301e-07 -1.59716e-31)
(1.70388e-08 -4.08501e-07 0)
(-2.06961e-07 -4.78309e-07 0)
(-2.93575e-07 -4.92356e-07 0)
(-2.85465e-07 -5.50884e-07 0)
(-2.3469e-07 -5.77376e-07 0)
(1.06316e-07 -6.14905e-07 0)
(4.8639e-07 -7.10557e-07 0)
(9.98368e-07 -6.97206e-07 0)
(5.53518e-07 -1.12241e-06 0)
(1.46886e-07 -1.07749e-06 0)
(-2.50038e-07 -8.93356e-07 0)
(-2.54297e-07 -3.40459e-07 0)
(-2.13865e-07 4.37328e-07 0)
(2.6718e-07 1.51325e-06 0)
(2.47139e-07 2.12083e-06 0)
(1.0187e-07 1.72951e-06 0)
(-4.3247e-08 9.04518e-07 0)
(-2.29562e-06 -1.43032e-06 0)
(-5.69824e-06 -4.93657e-06 0)
(-8.48136e-06 -8.89802e-06 -1.83474e-31)
(-1.13553e-05 -1.42793e-05 0)
(-1.24898e-05 -2.00876e-05 0)
(-1.28541e-05 -2.33846e-05 0)
(-9.37964e-06 -2.50838e-05 0)
(-3.78269e-06 -2.49435e-05 0)
(6.00966e-06 -2.293e-05 0)
(1.29599e-05 -1.52278e-05 0)
(1.7362e-05 -1.00362e-05 0)
(3.38722e-05 -3.73228e-06 0)
(5.40528e-05 -2.50527e-06 0)
(0.000124652 6.53358e-06 0)
(0.000301378 7.13103e-06 0)
(0.000623182 -2.2907e-06 0)
(0.00135328 7.61988e-06 0)
(0.00260859 1.76318e-05 0)
(0.00633686 -2.86653e-05 0)
(0.0136558 -0.000250689 0)
(0.0275466 -0.000705987 -1.32933e-31)
(0.0658561 -0.0020789 0)
(0.129281 -0.0108803 0)
(0.247196 -0.0106671 0)
(0.495657 0.000606162 0)
(0.808225 -0.00482234 1.3612e-31)
(1.69095 -0.0166879 0)
(2.51666 -0.0131835 0)
(4.74467 0.0134649 -1.62181e-31)
(6.69919 0.105295 0)
(10.1195 0.150569 0)
(12.408 0.148157 0)
(14.8477 0.0689281 1.45477e-31)
(15.3399 -0.0119304 0)
(16.007 -0.0152018 0)
(16.1354 0.17025 0)
(16.1335 0.249309 0)
(16.0167 0.125628 0)
(16.1256 -0.0834588 0)
(16.2764 -0.265911 0)
(16.4046 0.00193218 0)
(16.4399 0.055908 0)
(16.5319 0.159059 0)
(16.5005 0.0985674 0)
(16.2838 0.230188 8.00741e-32)
(15.5025 0.18302 -7.39969e-32)
(14.1566 0.0032485 0)
(11.7562 -0.0991695 0)
(9.47753 -0.225712 8.43341e-32)
(6.14177 -0.0749457 0)
(4.32946 0.0169851 0)
(2.40578 0.0922484 0)
(1.39611 0.0592898 0)
(0.876825 0.0505821 0)
(0.458873 -0.00313232 0)
(0.231342 -0.00428518 0)
(0.11381 -0.00214548 0)
(0.0459034 -0.000748512 0)
(0.0282847 -0.00085668 0)
(0.0121342 2.31367e-05 0)
(0.00530796 -7.8595e-06 -7.66468e-32)
(0.00249778 -1.22608e-05 0)
(0.00115591 7.56384e-07 0)
(0.000529402 -6.20171e-06 0)
(0.000219144 -2.39678e-06 0)
(0.000113982 -6.3808e-07 0)
(4.23972e-05 6.03197e-08 0)
(2.1762e-05 5.44614e-07 0)
(8.98373e-06 3.20272e-07 0)
(1.90487e-06 2.83851e-07 0)
(4.36006e-07 -8.6896e-07 0)
(-3.89134e-07 -1.06408e-06 0)
(-3.27888e-07 -1.05379e-06 0)
(-1.17949e-07 -1.1558e-06 0)
(-3.1027e-07 -8.04089e-07 0)
(-4.92786e-07 -8.58581e-07 0)
(-8.32987e-07 -8.51842e-07 0)
(-8.14724e-07 -9.44056e-07 0)
(-7.12464e-07 -1.1101e-06 0)
(-2.75581e-07 -1.11052e-06 0)
(-1.79006e-07 -1.13326e-06 1.02164e-31)
(6.4201e-08 -7.60854e-07 0)
(2.47107e-07 -6.51033e-07 8.74191e-32)
(1.0873e-07 -5.46384e-07 0)
(-1.90822e-07 -3.85383e-07 0)
(-3.35339e-07 -4.12451e-07 0)
(-4.5274e-07 -3.58804e-07 0)
(-5.11337e-07 -3.49369e-07 0)
(-3.14281e-07 -3.54332e-07 0)
(6.07004e-07 -1.19792e-07 0)
(8.40454e-07 -2.22905e-07 0)
(3.56574e-07 -3.92637e-07 0)
(2.68689e-07 -3.79976e-07 0)
(2.63927e-07 -3.94974e-09 0)
(3.17994e-07 -2.05059e-07 0)
(1.57232e-07 7.52058e-07 0)
(6.43414e-07 1.15591e-06 0)
(2.66633e-07 1.84464e-06 0)
(-1.99262e-07 1.74888e-06 0)
(-1.36646e-06 9.9883e-07 0)
(-4.85872e-06 -9.91297e-07 0)
(-1.09901e-05 -4.77438e-06 0)
(-1.54827e-05 -1.05254e-05 0)
(-2.06636e-05 -1.66791e-05 0)
(-2.16932e-05 -2.30005e-05 0)
(-2.29426e-05 -2.9125e-05 0)
(-1.8298e-05 -3.05493e-05 0)
(-1.50033e-05 -3.09754e-05 0)
(-4.24229e-06 -2.9788e-05 0)
(-4.73724e-06 -3.25448e-05 0)
(2.27397e-05 -2.2309e-05 0)
(2.19925e-05 -2.23266e-05 0)
(5.20525e-05 -1.15139e-05 0)
(0.000111863 -6.75322e-06 0)
(0.00027244 1.63303e-06 0)
(0.000630064 1.20328e-05 0)
(0.00125033 6.31636e-06 0)
(0.00295021 4.82428e-06 0)
(0.00648972 -0.000150477 0)
(0.0127958 -5.01989e-05 0)
(0.0265327 -0.000265739 0)
(0.0600916 -0.00139768 0)
(0.109117 0.000154404 0)
(0.243295 0.00162828 0)
(0.486832 0.0179016 0)
(0.875401 0.0209948 0)
(1.67496 0.0138588 0)
(2.59689 0.0630529 0)
(4.73397 0.0603225 0)
(6.92271 0.135944 0)
(10.0955 0.119992 0)
(12.471 0.0226777 0)
(14.6654 -0.090459 0)
(15.4769 -0.153601 0)
(16.0135 0.000685252 0)
(16.1969 0.0947882 0)
(16.3719 0.15582 0)
(16.4494 0.274573 0)
(16.339 -0.331079 0)
(16.3813 -0.35203 0)
(16.2494 -0.192728 0)
(16.2694 -0.166973 0)
(16.2952 -0.146248 0)
(16.373 -0.125977 0)
(16.0043 -0.178906 0)
(15.386 -0.194949 0)
(14.1133 -0.0410493 0)
(12.141 0.0233868 0)
(9.57088 0.119071 0)
(6.35447 0.0789337 0)
(4.27078 0.0628379 0)
(2.58333 0.0478421 0)
(1.23753 0.0228572 0)
(0.940796 0.0373017 0)
(0.442861 0.0147416 0)
(0.243908 0.0136664 0)
(0.114365 -0.000769317 0)
(0.0526525 0.000874421 0)
(0.0299823 0.000849801 0)
(0.01262 0.000532797 0)
(0.00588353 8.78541e-05 0)
(0.00243915 7.20695e-05 0)
(0.00122591 4.6379e-05 0)
(0.00049744 1.35062e-05 0)
(0.000238076 6.51537e-06 0)
(0.000121878 7.50255e-06 0)
(4.62695e-05 2.66088e-06 0)
(2.25337e-05 1.45865e-06 0)
(8.4777e-06 3.80044e-07 0)
(6.53688e-07 -5.84233e-07 0)
(-5.99176e-07 -1.06727e-06 0)
(-3.68521e-07 -1.5575e-06 0)
(-6.14149e-09 -1.58453e-06 0)
(4.07549e-07 -9.39348e-07 0)
(-2.24708e-07 -3.05177e-07 0)
(-9.56087e-07 2.7172e-07 0)
(-1.03721e-06 -6.47326e-07 0)
(-1.30197e-06 -1.18614e-06 0)
(-9.00254e-07 -1.2804e-06 0)
(-3.73687e-07 -1.27216e-06 0)
(2.84348e-08 -1.05629e-06 0)
(2.00891e-07 -8.91114e-07 0)
(4.02531e-07 -5.55562e-07 0)
(2.12583e-07 -4.4065e-07 0)
(-2.20184e-08 -4.07364e-07 0)
(-2.88256e-07 -4.56736e-07 0)
(-5.30338e-07 -2.36924e-07 0)
(-6.05396e-07 8.43352e-08 0)
(-5.54156e-07 1.82664e-07 0)
(6.41711e-07 -3.39653e-07 0)
(8.39891e-07 -3.43744e-07 0)
(4.54593e-07 -3.55085e-07 0)
(4.09526e-07 -4.60437e-08 0)
(2.9223e-07 5.13116e-07 0)
(4.80328e-07 6.88634e-07 0)
(-1.99682e-07 1.20216e-07 0)
(6.10064e-07 8.80957e-07 0)
(8.07115e-07 1.41745e-06 0)
(3.88449e-07 1.44345e-06 0)
(-1.23698e-06 1.30405e-06 0)
(-6.63729e-06 -7.87679e-07 0)
(-1.45625e-05 -3.52716e-06 0)
(-2.11894e-05 -8.52963e-06 0)
(-2.47952e-05 -1.56512e-05 0)
(-2.84236e-05 -2.80065e-05 0)
(-2.52593e-05 -3.37616e-05 0)
(-2.66262e-05 -3.62085e-05 0)
(-2.097e-05 -4.3581e-05 0)
(-1.60552e-05 -5.15096e-05 0)
(-2.8025e-06 -5.42882e-05 0)
(7.04559e-06 -5.38697e-05 0)
(4.16391e-05 -3.98415e-05 0)
(6.15083e-05 -3.07197e-05 0)
(7.65262e-05 -2.16167e-05 0)
(0.000222277 -1.7735e-05 0)
(0.0005245 -2.39233e-05 0)
(0.00118717 6.79222e-06 0)
(0.0028471 -6.88353e-05 0)
(0.00589721 -0.000134566 0)
(0.0133504 -0.000117531 0)
(0.0252592 -2.27578e-05 0)
(0.0651636 0.000219764 0)
(0.102752 0.00197352 0)
(0.242534 0.00628105 0)
(0.479185 0.00500158 0)
(0.993054 0.0303455 0)
(1.62151 0.0578767 0)
(3.05242 0.131243 0)
(4.70802 0.138083 0)
(8.03647 0.191334 0)
(9.58745 0.121954 0)
(13.2282 -0.0256653 0)
(14.0028 -0.0427722 0)
(15.746 -0.0022766 0)
(15.8475 0.0809402 0)
(16.0772 0.059259 0)
(16.2181 -0.0919052 0)
(16.4443 -0.150366 0)
(16.4521 -0.103449 0)
(16.2609 -0.136607 0)
(16.2231 -0.120311 0)
(16.08 -0.302804 0)
(16.0542 -0.297072 0)
(15.9795 -0.323948 0)
(15.8588 -0.384759 0)
(14.9026 -0.36904 0)
(14.0601 -0.156919 0)
(11.7357 0.145717 0)
(9.27075 0.349536 0)
(6.40017 0.255828 0)
(4.00553 0.182063 0)
(2.33369 0.0948701 0)
(1.32434 0.0660892 0)
(0.711409 0.049258 0)
(0.389211 0.0514009 0)
(0.196841 0.024417 0)
(0.100166 0.0131331 0)
(0.0480401 0.00566151 0)
(0.021921 0.00308812 0)
(0.0104753 0.000944335 0)
(0.00541514 0.000667089 0)
(0.00234559 0.000300462 0)
(0.000990567 0.000131381 0)
(0.000462987 6.00388e-05 0)
(0.000203115 2.23902e-05 0)
(9.01219e-05 1.2403e-05 0)
(3.82771e-05 6.2431e-06 0)
(1.60289e-05 2.51201e-06 0)
(3.30399e-06 1.11291e-06 0)
(2.19643e-07 8.39568e-08 0)
(-7.24205e-07 -5.97662e-07 0)
(-3.78144e-07 -1.04595e-06 0)
(3.15377e-07 -1.1969e-06 0)
(7.60436e-07 -5.65573e-07 0)
(-2.70593e-07 4.46729e-07 0)
(-9.09171e-07 5.43389e-07 0)
(-1.70411e-06 -3.58879e-07 0)
(-1.74901e-06 -9.62105e-07 0)
(-2.21657e-06 -1.06835e-06 0)
(-4.89198e-07 -1.17134e-06 0)
(3.59181e-07 -1.16484e-06 0)
(7.7854e-07 -8.82601e-07 0)
(1.0377e-06 -5.62511e-07 0)
(5.03094e-07 -4.24937e-07 0)
(2.0097e-07 -4.52761e-07 0)
(-1.324e-07 -2.57292e-07 0)
(-4.58499e-07 -2.222e-07 0)
(-5.7944e-07 8.58667e-08 0)
(-4.84199e-07 1.70961e-07 0)
(8.19554e-07 -5.91123e-07 0)
(9.72082e-07 -5.29759e-07 0)
(8.81161e-07 -3.73685e-07 0)
(1.10523e-06 1.70752e-07 0)
(1.68834e-06 1.57079e-07 0)
(1.87615e-06 3.91796e-08 0)
(1.83592e-06 2.02101e-07 0)
(1.23405e-06 -1.1672e-06 0)
(1.28983e-06 -9.63005e-07 0)
(6.99821e-07 2.97453e-07 0)
(-1.97727e-06 1.30399e-06 0)
(-6.17652e-06 1.48166e-06 0)
(-1.54646e-05 -3.22892e-07 0)
(-2.40199e-05 -4.72068e-06 0)
(-3.30662e-05 -9.83524e-06 0)
(-3.93313e-05 -1.72261e-05 0)
(-4.76327e-05 -2.33851e-05 0)
(-4.83555e-05 -3.56415e-05 0)
(-5.24825e-05 -5.31698e-05 0)
(-4.88077e-05 -6.53581e-05 0)
(-4.36394e-05 -7.1528e-05 0)
(-3.36172e-05 -6.18685e-05 0)
(-3.67763e-05 -4.72992e-05 0)
(-3.38092e-05 4.02853e-07 0)
(1.46423e-05 -9.74141e-06 0)
(0.00011491 -8.70663e-06 0)
(0.000368124 1.48276e-05 0)
(0.000961063 3.66145e-05 0)
(0.00250505 0.000103737 0)
(0.0051272 5.00615e-05 0)
(0.0120934 0.000185989 0)
(0.0254408 0.000427031 0)
(0.0573297 0.00137837 0)
(0.106276 0.00413552 0)
(0.235109 0.0112676 0)
(0.469868 0.00490967 0)
(0.949073 0.0228 0)
(1.68779 0.0336376 0)
(3.02709 0.0435708 0)
(5.09684 0.151805 0)
(7.92733 0.0673342 0)
(10.2312 0.110075 0)
(13.1259 0.0333939 0)
(14.5813 0.0251748 0)
(15.7056 0.110875 0)
(16.0602 0.0955535 0)
(16.2968 0.0389319 0)
(16.2953 -0.0746775 0)
(16.3752 -0.137143 0)
(16.2666 -0.0504031 0)
(16.2314 -0.00682158 0)
(16.1853 -0.124042 0)
(16.1631 -0.193556 0)
(16.1556 -0.207585 0)
(15.8931 -0.188407 0)
(15.6384 -0.16327 0)
(14.903 -0.143817 0)
(13.6276 -0.14284 0)
(11.1217 -0.00239817 0)
(8.89663 0.00898701 0)
(5.71045 0.135463 0)
(3.54863 0.0778609 0)
(2.02998 0.0538862 0)
(1.08033 0.027343 0)
(0.60536 0.0131589 0)
(0.320599 0.00796733 0)
(0.150377 0.00378144 0)
(0.0788123 0.00363248 0)
(0.0368988 0.00101771 0)
(0.0176101 0.000595006 0)
(0.008554 0.000321443 0)
(0.00377276 0.000233613 0)
(0.0017712 5.73674e-05 0)
(0.000799641 4.25401e-05 0)
(0.000350613 1.63915e-05 0)
(0.000157498 1.0497e-05 0)
(6.76962e-05 2.54121e-06 0)
(2.69504e-05 1.10761e-06 0)
(1.13506e-05 6.34086e-07 0)
(1.781e-06 4.58386e-07 0)
(-5.24931e-07 4.09253e-07 0)
(-4.41735e-07 5.73445e-07 0)
(8.0363e-08 5.69223e-08 0)
(8.7282e-07 -2.32624e-07 0)
(1.29407e-06 2.88655e-07 0)
(-5.759e-08 1.91926e-07 0)
(-1.04318e-06 -3.28035e-07 0)
(-1.52278e-06 -9.02597e-07 0)
(-1.94148e-06 -1.13701e-06 0)
(-1.0616e-06 -1.35022e-06 0)
(2.52581e-07 -1.43778e-06 0)
(1.26432e-06 -1.15877e-06 0)
(1.9187e-06 -9.76039e-07 0)
(1.52474e-06 -2.75207e-07 0)
(1.45647e-06 -2.40806e-07 0)
(5.3902e-07 -1.1262e-07 0)
(-1.41585e-09 4.415e-08 0)
(-1.784e-07 1.14618e-07 0)
(-3.65131e-07 2.7245e-07 0)
(-3.35201e-07 2.97421e-07 0)
(6.99314e-07 4.04868e-07 0)
(8.99947e-07 4.22396e-07 0)
(1.27371e-06 1.74367e-07 0)
(2.15129e-06 2.8945e-07 0)
(2.78651e-06 2.50882e-07 0)
(3.46465e-06 -6.39492e-07 0)
(3.30277e-06 -1.02753e-06 0)
(1.59806e-06 -2.53901e-06 0)
(2.73931e-10 -2.13977e-06 0)
(-3.09125e-06 -9.95069e-08 0)
(-4.38891e-06 1.23596e-06 0)
(-7.7989e-06 1.93007e-06 0)
(-1.62305e-05 1.43226e-06 0)
(-2.66074e-05 -1.11405e-06 0)
(-3.82279e-05 -4.35062e-06 0)
(-4.85466e-05 -6.93593e-06 0)
(-5.72625e-05 -9.1379e-06 0)
(-7.0939e-05 -1.38374e-05 0)
(-7.86455e-05 -1.7559e-05 0)
(-8.46924e-05 -2.31142e-05 0)
(-8.0669e-05 -1.60854e-05 0)
(-6.71723e-05 -1.01272e-05 0)
(-5.11561e-05 -3.67722e-07 0)
(-4.33679e-05 1.78199e-05 0)
(-5.95246e-06 2.41322e-05 0)
(0.000106928 2.28649e-05 0)
(0.000443095 3.26493e-05 0)
(0.00109585 4.51036e-05 0)
(0.00280899 0.000110501 0)
(0.00613285 9.07276e-05 0)
(0.0134464 0.000310287 0)
(0.0295087 0.000399504 0)
(0.0624935 0.00121176 0)
(0.130259 0.00193679 0)
(0.265916 0.006129 0)
(0.533184 0.00809853 0)
(1.02936 0.0108798 0)
(1.82331 0.0068056 0)
(3.21136 0.00689011 0)
(5.3308 0.02498 0)
(7.95405 0.0234541 0)
(11.0344 0.0271368 0)
(13.0671 0.0420337 0)
(15.5543 0.0945897 0)
(15.8182 0.119151 0)
(16.4141 0.0562308 0)
(16.3431 0.00839198 0)
(16.4 -0.22072 0)
(16.214 -0.243192 0)
(16.1392 -0.0964646 0)
(16.1425 0.0359187 0)
(16.1757 0.0703022 0)
(16.2754 -0.117195 0)
(16.3295 -0.0633167 0)
(16.2441 -0.0738951 0)
(15.803 -0.0363087 0)
(15.2705 -0.0126112 0)
(13.9915 -0.0575255 0)
(11.732 -0.103156 0)
(9.38341 -0.107498 0)
(6.36515 -0.00233056 0)
(3.67203 0.00596885 0)
(2.22597 -0.00822388 0)
(1.16471 -0.00555401 0)
(0.671501 -0.00224012 0)
(0.337483 -0.00268042 0)
(0.170303 -0.000559267 0)
(0.0849177 0.000143023 0)
(0.0396352 3.85198e-05 0)
(0.0192264 4.05376e-05 0)
(0.00904562 6.47571e-06 0)
(0.00414128 1.24582e-05 0)
(0.00189346 7.26804e-06 0)
(0.000859529 4.06583e-06 0)
(0.000365931 1.95165e-06 0)
(0.000168971 1.00346e-06 0)
(7.26828e-05 -6.173e-07 0)
(3.15675e-05 -3.6914e-08 0)
(1.24883e-05 -2.16121e-07 0)
(2.40657e-06 -2.07539e-07 0)
(-1.90613e-07 -3.86581e-07 0)
(4.92592e-07 -1.19381e-06 0)
(7.00918e-07 -1.50019e-06 0)
(9.05656e-07 -1.25174e-06 0)
(1.06608e-06 1.52573e-06 0)
(9.20221e-07 1.89689e-06 0)
(3.52168e-07 1.5445e-06 0)
(-9.03575e-07 -8.84248e-07 0)
(-1.16254e-06 -1.05098e-06 0)
(-7.14706e-07 -1.05881e-06 0)
(4.99455e-07 -7.4423e-07 0)
(1.80133e-06 -4.60266e-07 0)
(2.45794e-06 -2.87834e-07 0)
(1.98174e-06 7.68068e-08 0)
(1.73e-06 1.28092e-07 0)
(1.07832e-06 1.93974e-07 0)
(1.07193e-07 3.03313e-07 0)
(-1.8397e-07 3.31122e-07 0)
(-2.73301e-07 4.06086e-07 0)
(-2.31278e-07 4.22309e-07 0)
)
;

boundaryField
{
    sides1
    {
        type            zeroGradient;
    }
    sides2
    {
        type            slip;
    }
    empty
    {
        type            empty;
    }
}


// ************************************************************************* //
