/*--------------------------------*- C++ -*----------------------------------*\
| =========                 |                                                 |
| \\      /  F ield         | OpenFOAM: The Open Source CFD Toolbox           |
|  \\    /   O peration     | Version:  2012                                  |
|   \\  /    A nd           | Website:  www.openfoam.com                      |
|    \\/     M anipulation  |                                                 |
\*---------------------------------------------------------------------------*/
FoamFile
{
    version     2.0;
    format      ascii;
    class       volScalarField;
    location    "0.0002";
    object      pcorr;
}
// * * * * * * * * * * * * * * * * * * * * * * * * * * * * * * * * * * * * * //

dimensions      [1 -1 -2 0 0 0 0];


internalField   nonuniform List<scalar> 
5000
(
0.005437680038
0.00543767913
0.005437318648
0.005436935212
0.00543705049
0.00543709196
0.005436232936
0.005435382167
0.005434657183
0.005433955982
0.00543245541
0.005431361264
0.005430166091
0.005428864877
0.005427453961
0.00542609765
0.00542466385
0.005423281592
0.005421887376
0.00542052447
0.005419545815
0.005418215551
0.005416965195
0.005415763174
0.005414700952
0.005413666373
0.00541268106
0.005411562831
0.005410430627
0.005409253428
0.005407924684
0.005406578184
0.005404974057
0.005403566268
0.00540213032
0.005400950004
0.005399918887
0.005398915942
0.00539794918
0.005396874913
0.005395693824
0.005394271546
0.005392863713
0.005391405105
0.00539005675
0.005388708536
0.005387401636
0.005386234019
0.005385121533
0.005383819352
0.005382723177
0.005381508851
0.005380812843
0.005380097688
0.005379490114
0.005378557233
0.005378004341
0.005377575082
0.005377097299
0.005376698407
0.005376252823
0.005375719684
0.005375226219
0.005374617652
0.005374125555
0.005373629021
0.005373115617
0.005372958058
0.005372769083
0.005371402929
0.005370550337
0.005369019371
0.005367360912
0.005365829373
0.005364437176
0.005362427132
0.005361212589
0.005359543252
0.005357836645
0.005356285045
0.005354783909
0.005352996588
0.00535126476
0.005349744437
0.005347720451
0.005345752537
0.005343725101
0.005341790791
0.00533923885
0.005336707308
0.005334225535
0.005331533582
0.005328586512
0.005325680315
0.005323017838
0.005320612708
0.005318719371
0.005317165921
0.005314972631
0.005312611061
0.005310544539
0.00530836298
0.005305918066
0.005303512772
0.00530115661
0.005298671545
0.005296577625
0.005293448099
0.005289414078
0.005285130718
0.005279685825
0.005273872912
0.005269922129
0.00526701062
0.005263335486
0.005258686093
0.005253487325
0.005247997454
0.005243152392
0.005237605214
0.00523105679
0.005224725775
0.00521844543
0.005212506698
0.005206195405
0.005198593081
0.005191127299
0.005183957527
0.005177309013
0.005170774006
0.005163043672
0.005154870421
0.005147927559
0.005140336854
0.005132583384
0.005125265406
0.005118088255
0.005110371611
0.005103128425
0.005095766969
0.005090627599
0.00508529405
0.005079229906
0.005073560011
0.005068328019
0.005063066969
0.005058004498
0.005052955193
0.005047710753
0.005041948203
0.005036119058
0.005030362301
0.005024779934
0.005019494561
0.005013743144
0.005008169565
0.00500253423
0.004996093416
0.004989443339
0.004982995623
0.004977089304
0.004971631897
0.004966022938
0.004960080058
0.004953644144
0.004946259643
0.004938491388
0.004931789618
0.004926215916
0.004920362646
0.004913385671
0.004905598928
0.004897531991
0.00488972906
0.004883223188
0.004877580965
0.004871386931
0.004864155338
0.004857714125
0.004852168393
0.004846817332
0.004841188605
0.004835129586
0.004828954249
0.004822863802
0.004817231542
0.004812063843
0.004806982081
0.004801767172
0.0047967508
0.004791746699
0.004786758163
0.004781811538
0.004777089051
0.004772443928
0.004767534181
0.004762425074
0.004756917662
0.004751070369
0.004744504731
0.00473686555
0.004729270094
0.004722949218
0.004717750219
0.004712633556
0.004706527817
0.004699531201
0.004693058664
0.004687175251
0.004681378796
0.004676139616
0.004671165652
0.004665990017
0.004660882785
0.004655880025
0.004650723644
0.004645330501
0.00463935078
0.004633509347
0.004627860757
0.004621776936
0.00461560904
0.004609758889
0.004604218135
0.004598804959
0.004593700464
0.004588338332
0.004582864573
0.004577131307
0.004570918075
0.004564699338
0.004558737914
0.004552641132
0.004546675795
0.004541025651
0.004535355172
0.0045299262
0.004524637711
0.00451965573
0.004514542294
0.004508772803
0.004502747111
0.004496649544
0.00449057294
0.004484861278
0.004479418824
0.004473840546
0.004468191545
0.004462695587
0.004457490576
0.004452589762
0.00444770147
0.004442299504
0.004436583007
0.004430509355
0.004424304299
0.004418434858
0.0044131749
0.004408374452
0.004403623935
0.004398891548
0.004394192865
0.004389430262
0.00438416602
0.004377676581
0.00436976898
0.004362635845
0.004356494101
0.00435025404
0.004343616374
0.004337201876
0.004331244346
0.004325874506
0.004320645156
0.004315384139
0.004309944088
0.004303930741
0.004297611833
0.004291481265
0.0042855487
0.004279965116
0.004274345447
0.004268458194
0.004262351374
0.004256218642
0.004250143215
0.004244075204
0.004237757034
0.004231231763
0.004224971483
0.004219067914
0.004213778089
0.004208778176
0.004203604994
0.004198367755
0.004192770942
0.004187064809
0.004181308208
0.004175489101
0.004169909325
0.004164577692
0.004159356999
0.00415442891
0.004149895125
0.004145326239
0.004140470837
0.004134798394
0.004128680332
0.004122571324
0.004116835602
0.004111486651
0.004106301792
0.004100869602
0.004095298818
0.004089850457
0.004083989544
0.004077352162
0.004069615851
0.004061932983
0.004055380491
0.004049774876
0.004044496262
0.00403874147
0.004032148031
0.00402444471
0.004016246301
0.004007945925
0.003999538507
0.003991593885
0.00398463236
0.003978363107
0.003972690867
0.003967101133
0.003961246504
0.003955507461
0.003949609574
0.003943923514
0.003938286759
0.003932205261
0.003925880855
0.003919679138
0.003913820374
0.003908127032
0.003902704218
0.003897401649
0.00389229482
0.003887064884
0.003881560558
0.003875878972
0.003869662996
0.003863206616
0.003857375861
0.003851912654
0.003846365733
0.003840900014
0.003835426327
0.003829899918
0.003824005114
0.003817587093
0.003811255406
0.003805595902
0.003800457219
0.003795274886
0.003789680508
0.003783584596
0.003777411412
0.00377150252
0.003765908903
0.003760600225
0.003755122758
0.003749586097
0.00374407085
0.003738222708
0.003732283663
0.003726752888
0.003721132841
0.003715235902
0.003709105371
0.003703216339
0.003698039106
0.00369312544
0.003687950134
0.003682116151
0.003675603728
0.003668432126
0.003661528321
0.003655135811
0.003648825935
0.003642681969
0.003636774548
0.003630883751
0.003624757905
0.003619064677
0.003613451934
0.003607237165
0.003600514448
0.003593671063
0.003587236439
0.003581220338
0.00357509341
0.003569138271
0.003563633982
0.003557719631
0.003551871941
0.003546408237
0.003540928877
0.00353522413
0.003529317087
0.003523410141
0.003517534892
0.003511920429
0.003506873322
0.003501717407
0.003496203721
0.003490803319
0.003484616185
0.003477562967
0.00347151511
0.003466484651
0.003461362776
0.003455464791
0.003449347827
0.003443124268
0.003437052477
0.003430939255
0.003424410145
0.00341749673
0.003411490673
0.003406502598
0.003401841952
0.003396698416
0.00339083247
0.00338471055
0.003378650407
0.003372845305
0.003367273249
0.003362265174
0.003357345166
0.003351714461
0.003345566675
0.003339173638
0.003333112921
0.003327953417
0.003322843264
0.003317033524
0.003311256351
0.003305819134
0.003300553168
0.003295228787
0.003289711229
0.003284289138
0.003278072525
0.003271345892
0.003265847637
0.003260871018
0.003255392817
0.003250078619
0.003245098868
0.00323960602
0.003233786393
0.003228244427
0.003222824013
0.003217529311
0.00321183142
0.003205457925
0.003198981995
0.003193057476
0.003187282727
0.003180567008
0.003174207944
0.00316863736
0.003163323593
0.0031581741
0.003153077385
0.003147509332
0.003141266432
0.003135012422
0.003129118536
0.003123692604
0.003118256484
0.003112738002
0.003106918667
0.003100812496
0.003094626518
0.003088787335
0.003083314383
0.003078564537
0.003073943864
0.003069048829
0.003063939503
0.003058534351
0.003052875479
0.003046841248
0.003040739871
0.003034840797
0.003029852751
0.003025119349
0.00302003533
0.003014706326
0.003008644622
0.00300145702
0.002993750572
0.002986523269
0.002980004608
0.00297438806
0.002969151559
0.002963318808
0.002957419254
0.002952316627
0.002947211982
0.002941854664
0.002936862763
0.002931897893
0.002926681933
0.002920840037
0.002914450399
0.002908177292
0.002902378675
0.002896939326
0.00289165441
0.002886532939
0.002881164969
0.002875551887
0.002869784796
0.002863902883
0.002857590634
0.00285088105
0.002843892911
0.002837178145
0.002830722177
0.00282420749
0.002817901432
0.002811958476
0.002806393609
0.002800816492
0.002794865332
0.002788435917
0.0027820749
0.002776218194
0.002770661921
0.002765176497
0.002759788435
0.002754106581
0.002747857789
0.002741449839
0.002735625555
0.002729890016
0.002724021529
0.002718324236
0.002712583581
0.002707398686
0.002702223501
0.002696392405
0.002690210068
0.002683752338
0.002677232009
0.002671401502
0.002665831315
0.002660071514
0.002654408664
0.002648377458
0.002641857147
0.002635106413
0.002628016144
0.002621170143
0.002614791038
0.002608823389
0.002602986225
0.00259730434
0.002591758928
0.002586067096
0.002580077003
0.002573274903
0.002566418851
0.002560443935
0.002555104706
0.002550027874
0.002544338399
0.002538610549
0.002532967629
0.002526836751
0.002520835391
0.00251555794
0.002510454523
0.002504778385
0.002498938777
0.002492385473
0.002484601738
0.002476713073
0.002469747714
0.002463618116
0.002457799192
0.002451970413
0.002446692113
0.002441755486
0.002436720705
0.002431201324
0.002425274249
0.002419817911
0.002414543468
0.002408731694
0.002402449293
0.002396359187
0.002390811081
0.00238564781
0.002380537941
0.002375712851
0.002370628968
0.002365296567
0.002360100594
0.002354421276
0.002348197805
0.002342197998
0.002336255011
0.002330274078
0.002324676809
0.00231911526
0.002312946385
0.002306164048
0.00229958671
0.002293580326
0.002288277423
0.002282958426
0.002277223483
0.002271328583
0.002265219659
0.002259298693
0.00225425832
0.00224925405
0.002243296392
0.002237116547
0.002231472983
0.002225968803
0.002220114591
0.002213568009
0.002206805382
0.00220040738
0.002194500199
0.002188891777
0.002183501736
0.002178127017
0.002172661922
0.002167251665
0.002161214958
0.002155129296
0.002149036424
0.002141896969
0.002134845334
0.002129068077
0.002123626985
0.002117909396
0.002112425895
0.002107113249
0.002101543065
0.002095573079
0.002089319654
0.002083032207
0.002077252482
0.002071930591
0.00206628259
0.002059922956
0.002053391625
0.002046808294
0.002040142479
0.002033717831
0.002027382026
0.002021198315
0.002014486095
0.002006636516
0.001998732507
0.001991840495
0.001985537445
0.001979132544
0.0019728502
0.001967041728
0.001961709962
0.001956022341
0.001949976471
0.001943196469
0.001935071774
0.001926763925
0.00191929853
0.001912738316
0.001906249353
0.001899942002
0.001893916009
0.001887818457
0.00188102527
0.001873259005
0.001865513391
0.001858694109
0.00185230725
0.001846266565
0.001840597131
0.001834924786
0.001829007748
0.00182277777
0.001816011388
0.00180892377
0.001801578578
0.001794017426
0.001786866251
0.001780597582
0.001774664116
0.001768572873
0.001762792321
0.001756959318
0.001750502709
0.001743976874
0.001737092141
0.001730346699
0.001724429471
0.001718833486
0.001713363816
0.001707737919
0.00170173183
0.001695440501
0.001688876935
0.001682586231
0.001676600683
0.001670802002
0.001665257664
0.001659757628
0.00165458503
0.001649353856
0.001643638856
0.00163765612
0.001631321171
0.001625112761
0.001619504394
0.001614070448
0.001608582203
0.00160318973
0.001597538129
0.001591410177
0.001584931642
0.001578286714
0.001572111334
0.001566355906
0.001560583465
0.001554724645
0.001549180194
0.00154358345
0.001537653644
0.001530930755
0.001522869402
0.001514807072
0.001507984241
0.001502131015
0.001496410131
0.001490582404
0.001484918387
0.001479680357
0.001474342799
0.001468162238
0.001461939234
0.001456242728
0.001450695291
0.001444969113
0.001439434831
0.001433705106
0.001427327436
0.001420987813
0.00141519047
0.001409844425
0.001404300916
0.001397584125
0.001389851905
0.001383260293
0.001377367933
0.00137136716
0.001365635744
0.00136012687
0.00135354637
0.001346365055
0.00134002689
0.001333584766
0.001326227537
0.001318520822
0.001311573467
0.001305463039
0.001299694903
0.001293943643
0.001288054948
0.001281789754
0.001275226448
0.001268510635
0.001261965135
0.001255567337
0.001249621696
0.001244074763
0.001238413358
0.001232441433
0.001226153898
0.001219997573
0.00121465311
0.001209445908
0.001203573994
0.001197612251
0.001192014852
0.001186475784
0.001180912774
0.001175343878
0.001169481897
0.001163107866
0.001157218653
0.001151637827
0.001145770578
0.001139733045
0.001133557048
0.001127246083
0.001121151438
0.001115574742
0.001110240035
0.001105400034
0.001100650027
0.001095448062
0.001089796176
0.001084458223
0.001079033445
0.001072951755
0.001066536139
0.001060289304
0.001054428489
0.001048739662
0.001042940014
0.00103672156
0.001030298266
0.00102375814
0.001017735441
0.001012097911
0.001006139219
0.0009998153478
0.0009934295617
0.0009870210189
0.0009810460794
0.0009755079758
0.0009704374847
0.00096550063
0.0009603038497
0.0009549409368
0.0009495676971
0.000944204806
0.0009385100154
0.0009321498289
0.0009254998017
0.0009190545994
0.0009131779398
0.0009076331027
0.0009021186003
0.0008969479851
0.0008919821425
0.0008869373699
0.0008815085945
0.0008753828609
0.0008689704242
0.0008626521494
0.000856754319
0.000850646841
0.0008445189375
0.0008375755827
0.0008300813715
0.0008230359855
0.0008172341286
0.0008114744619
0.0008055932652
0.0007994779202
0.0007927260557
0.0007856890221
0.0007790522048
0.0007729835053
0.0007673449593
0.0007614370608
0.0007557283777
0.0007505436896
0.000745435591
0.0007402876851
0.0007346062168
0.0007283616581
0.0007222254565
0.0007165236249
0.0007113707604
0.0007064403833
0.0007017398465
0.000697177369
0.0006923955425
0.0006871905685
0.0006819197791
0.0006767231394
0.0006712381201
0.0006650441081
0.0006593247105
0.0006543599382
0.0006499085282
0.0006461319269
0.0006427659682
0.0006391812443
0.0006356797208
0.0006320901007
0.0006280603013
0.0006240511822
0.0006202677008
0.0006161622505
0.0006116358249
0.0006069374018
0.0006023703742
0.0005980131611
0.0005940354254
0.0005901034837
0.0005857433407
0.0005817862603
0.0005780537757
0.000574153849
0.0005697612125
0.0005653675096
0.0005610628021
0.0005568685211
0.0005529236416
0.000549044489
0.000544996885
0.0005410314133
0.0005375384297
0.0005338361898
0.0005302751425
0.0005268058935
0.0005236347399
0.0005201585192
0.0005168391656
0.000513511815
0.0005098201992
0.0005060964669
0.0005024596838
0.0004982634148
0.0004941857801
0.0004908408205
0.0004878409286
0.000484466796
0.0004806091543
0.0004771364589
0.0004738118338
0.0004701435798
0.0004666605241
0.0004634230778
0.0004601182326
0.0004566294709
0.0004530073525
0.0004493290895
0.000446059748
0.0004424927187
0.0004387233582
0.0004350595356
0.0004317117797
0.0004284385168
0.0004250624153
0.0004217121847
0.0004182107511
0.000414108436
0.000409582003
0.0004056123297
0.0004021697382
0.0003987443526
0.000395585211
0.0003925848595
0.0003894427929
0.0003862027602
0.0003828242786
0.0003794587506
0.0003759511503
0.0003719404082
0.0003673146906
0.000362719226
0.0003589238703
0.0003557825094
0.0003528147802
0.0003497327012
0.0003467543808
0.0003438010058
0.0003404241193
0.000336249142
0.0003315869239
0.000327296022
0.0003235435188
0.0003198128617
0.0003158206026
0.000311856123
0.0003082305066
0.0003042439991
0.0002997347178
0.000295861195
0.0002923001458
0.0002885649302
0.000284801357
0.0002815907103
0.0002785379164
0.0002755582987
0.0002726328444
0.0002698627684
0.0002669532828
0.0002639666642
0.0002605714832
0.0002571318117
0.0002540733936
0.0002515154462
0.0002489495062
0.0002464538797
0.0002438355903
0.0002415192706
0.0002392321026
0.0002370011398
0.000234804665
0.0002327122552
0.0002304007369
0.0002279622073
0.0002257057719
0.0002233441901
0.000220658976
0.0002178450599
0.0002153771956
0.0002130353348
0.000210699797
0.0002081781824
0.0002055326766
0.000202754158
0.0001999782582
0.0001973069864
0.0001947425939
0.0001921769178
0.0001896026361
0.000186879948
0.0001841347859
0.0001815061634
0.0001787932142
0.0001759064081
0.0001726512614
0.0001696533362
0.0001671242081
0.0001645455041
0.0001620653265
0.0001598348261
0.0001576044785
0.0001554140644
0.0001532854212
0.0001510957075
0.0001488354076
0.0001462292711
0.0001434498091
0.0001405050209
0.0001375273838
0.0001344034624
0.0001311401937
0.0001282169325
0.0001256935806
0.0001229738409
0.0001201587601
0.0001174759678
0.0001149818426
0.000112327464
0.0001096272959
0.0001068310685
0.0001039241583
0.0001009455222
9.829723316e-05
9.569462269e-05
9.331595407e-05
9.089681119e-05
8.861064934e-05
8.622099457e-05
8.365182447e-05
8.089572362e-05
7.823334554e-05
7.549694935e-05
7.304577327e-05
7.072177104e-05
6.851169765e-05
6.625219203e-05
6.40998335e-05
6.185266831e-05
5.937413602e-05
5.691371194e-05
5.472059943e-05
5.272781499e-05
5.074764887e-05
4.888912141e-05
4.690019524e-05
4.494059818e-05
4.283602687e-05
4.077170738e-05
3.871384606e-05
3.668585022e-05
3.487594383e-05
3.311316813e-05
3.135067329e-05
2.952865296e-05
2.775068696e-05
2.597900231e-05
2.416051954e-05
2.20140956e-05
1.974225303e-05
1.740500592e-05
1.511248136e-05
1.273884919e-05
1.070172407e-05
8.775086033e-06
7.01405339e-06
5.400630028e-06
3.682035824e-06
2.029905042e-06
9.544334867e-07
4.656120942e-08
-8.857130722e-07
-1.469812954e-06
-1.826679275e-06
-2.40503233e-06
-3.207773145e-06
-3.86762619e-06
-4.262513376e-06
-4.372549461e-06
-4.45537718e-06
-4.582066341e-06
-4.381505642e-06
-3.952282948e-06
-3.578805191e-06
-3.212358937e-06
-2.815161278e-06
-2.551546113e-06
-2.243742191e-06
-1.948724832e-06
-1.498092789e-06
-1.169766523e-06
-8.080681386e-07
-5.832397211e-07
-1.959386736e-07
-5.487415702e-08
1.669336184e-07
2.159178791e-07
3.785224088e-07
4.495901714e-07
5.440516415e-07
6.767403014e-08
2.979645549e-07
-2.641538319e-07
-6.668863216e-07
-6.772729766e-07
-6.869501257e-07
-6.839097718e-07
-6.903764343e-07
-6.931241585e-07
-6.917803846e-07
-7.067190163e-07
-7.23367127e-07
-7.250225603e-07
-7.428693471e-07
-7.327738275e-07
-7.304355633e-07
-7.193415681e-07
-7.082194029e-07
-6.95673924e-07
-6.868230959e-07
-6.848532363e-07
-6.791192801e-07
-6.927472142e-07
-6.938962924e-07
-7.122469627e-07
-7.158578079e-07
-7.189792731e-07
-7.112454822e-07
-7.070532624e-07
-6.932577007e-07
-6.904459897e-07
-6.887579645e-07
-6.800173679e-07
-6.866020754e-07
-6.750915709e-07
-6.787253272e-07
-6.643021008e-07
-6.640337375e-07
-6.499734435e-07
-6.405814826e-07
-6.320630152e-07
-6.135327129e-07
-6.119684538e-07
-5.974341742e-07
-5.931495379e-07
-5.887318666e-07
-5.813506732e-07
-5.756502084e-07
-5.950613482e-07
-6.01550521e-07
-6.369505807e-07
-6.674468888e-07
-6.730044802e-07
-6.956701753e-07
-6.829541488e-07
-6.795561948e-07
-6.708887758e-07
-6.651217547e-07
-6.701605631e-07
-6.739488586e-07
-6.924778142e-07
-7.040416743e-07
-7.299437992e-07
-7.450715649e-07
-7.611053096e-07
-7.730586537e-07
-7.585288473e-07
-7.597387362e-07
-7.301444305e-07
-7.141426637e-07
-6.952418895e-07
-6.7719918e-07
-6.706780995e-07
-6.599463032e-07
-6.566736932e-07
-6.478747168e-07
-6.495734986e-07
-6.411444907e-07
-6.45414914e-07
-6.403934638e-07
-6.441890433e-07
-6.431292481e-07
-6.471346397e-07
-6.578676019e-07
-6.554413651e-07
-6.713919917e-07
-6.69293304e-07
-6.777105086e-07
-6.802926568e-07
-6.818820001e-07
-6.852105758e-07
-6.828499318e-07
-6.888035317e-07
-6.850369822e-07
-6.882161799e-07
-6.853552213e-07
-6.781780548e-07
-6.692284052e-07
-6.583041324e-07
-6.453924693e-07
-7.331976445e-07
-7.240791137e-07
-5.229100098e-07
-1.621936573e-07
2.277102002e-07
4.419344505e-07
6.108739196e-07
7.871736949e-07
1.138163381e-06
1.619449702e-06
2.249929199e-06
3.11387927e-06
4.067755329e-06
4.945547006e-06
5.625863918e-06
6.288133018e-06
6.825144919e-06
7.2423873e-06
7.770194695e-06
8.229206085e-06
8.585750486e-06
9.04580076e-06
9.540271327e-06
9.737690204e-06
9.943519267e-06
1.027714575e-05
1.039611956e-05
1.042765929e-05
1.057716889e-05
1.068260387e-05
1.062961711e-05
1.05150747e-05
1.02681181e-05
1.018886474e-05
9.892598178e-06
9.454723646e-06
9.016192577e-06
8.462581266e-06
7.775686117e-06
7.113744391e-06
6.363840191e-06
5.523038308e-06
4.816900145e-06
4.223949362e-06
3.511772078e-06
2.709976212e-06
2.150834926e-06
1.699890663e-06
1.327123778e-06
7.630225355e-07
2.847932636e-07
-8.325496073e-08
-4.885825682e-07
-1.010172023e-06
-1.304023442e-06
-1.681984795e-06
-1.797828172e-06
-2.165011256e-06
-2.380401831e-06
-2.66637512e-06
-2.980544464e-06
-3.252898838e-06
-3.310235657e-06
-3.55638405e-06
-3.627393188e-06
-3.842017765e-06
-3.845280984e-06
-4.109831454e-06
-4.386230624e-06
-4.676709227e-06
-4.608164021e-06
-4.608317282e-06
-4.445921856e-06
-4.467507942e-06
-4.361418793e-06
-4.393882393e-06
-4.449653796e-06
-4.571476133e-06
-4.46949738e-06
-4.555554477e-06
-4.559720453e-06
-4.47759336e-06
-4.255812421e-06
-3.931679467e-06
-3.821692145e-06
-3.746488567e-06
-3.820561756e-06
-3.90569266e-06
-3.8674893e-06
-3.762520569e-06
-3.537939459e-06
-3.147757628e-06
-2.76376755e-06
-2.427968506e-06
-2.339041479e-06
-2.126347711e-06
-1.96478335e-06
-1.863868852e-06
-1.70876946e-06
-1.739512674e-06
-1.87388528e-06
-1.772255233e-06
-1.750655037e-06
-1.98377818e-06
-2.335249694e-06
-2.728206173e-06
-3.24632426e-06
-3.722839463e-06
-4.209652251e-06
-4.63880784e-06
-5.231049315e-06
-5.75416098e-06
-6.134998216e-06
-6.300222687e-06
-6.618980742e-06
-6.872982199e-06
-6.958490692e-06
-7.268674066e-06
-7.504873446e-06
-7.793450005e-06
-8.038231406e-06
-8.304001e-06
-8.359889633e-06
-8.409481287e-06
-8.268248951e-06
-8.173342582e-06
-8.300459032e-06
-8.543808965e-06
-8.538316812e-06
-8.685175197e-06
-8.786779084e-06
-9.049302216e-06
-9.269959234e-06
-9.386742387e-06
-9.445803101e-06
-9.689057086e-06
-9.894227505e-06
-1.030153413e-05
-1.054756128e-05
-1.094443272e-05
-1.133743167e-05
-1.188299353e-05
-1.227775257e-05
-1.264447618e-05
-1.297083589e-05
-1.341083024e-05
-1.406037181e-05
-1.478757201e-05
-1.540727125e-05
-1.605107536e-05
-1.644621102e-05
-1.679834899e-05
-1.712760324e-05
-1.752134921e-05
-1.79305614e-05
-1.825215343e-05
-1.863649389e-05
-1.892607842e-05
-1.91925098e-05
-1.925688178e-05
-1.934719483e-05
-1.931445146e-05
-1.922820628e-05
-1.878078313e-05
-1.844242928e-05
-1.799466025e-05
-1.781413136e-05
-1.758197074e-05
-1.728084126e-05
-1.673266956e-05
-1.625406994e-05
-1.561411344e-05
-1.498300755e-05
-1.43792031e-05
-1.380349966e-05
-1.315862641e-05
-1.23822076e-05
-1.142300197e-05
-1.037601544e-05
-9.387141685e-06
-8.311914575e-06
-7.529287358e-06
-6.734164242e-06
-6.026297698e-06
-5.05142859e-06
-4.237172437e-06
-3.45897281e-06
-2.638299163e-06
-1.648532888e-06
-8.754486508e-07
2.162038135e-07
1.177638326e-06
2.217684426e-06
3.244119138e-06
4.476351465e-06
5.72718562e-06
7.167124483e-06
8.423963076e-06
9.587391829e-06
1.088047118e-05
1.220988974e-05
1.353767378e-05
1.492951504e-05
1.627322875e-05
1.764928796e-05
1.918481121e-05
2.095847899e-05
2.285981751e-05
2.48555357e-05
2.686535146e-05
2.925216341e-05
3.174616591e-05
3.409497561e-05
3.640247474e-05
3.865002053e-05
4.13496719e-05
4.405714016e-05
4.687297279e-05
4.969293062e-05
5.236762195e-05
5.483589213e-05
5.753481699e-05
6.010034345e-05
6.253815116e-05
6.502960648e-05
6.737348624e-05
6.965152932e-05
7.179050097e-05
7.411187532e-05
7.65946413e-05
7.933885296e-05
8.199657296e-05
8.442291045e-05
8.685736619e-05
8.944666516e-05
9.220003524e-05
9.509435128e-05
9.783292661e-05
0.0001005892869
0.0001030839059
0.0001055418368
0.0001079102133
0.0001104622197
0.0001132698076
0.0001164252647
0.0001191891299
0.0001216976096
0.0001240160912
0.000126669914
0.0001293888033
0.0001319182455
0.0001340879598
0.0001362672291
0.0001383062186
0.0001402425172
0.0001420192345
0.0001438748505
0.0001458231596
0.0001475597147
0.0001495539314
0.0001519053072
0.0001546450027
0.0001571806011
51.66377025
104.8265465
110.7012178
116.2385815
140.2216677
164.0307346
190.8373491
217.6355744
250.6198966
282.3254677
315.7703784
350.1271505
389.3248423
431.8658786
479.0398518
524.4206232
564.5529285
603.9566863
645.7997397
688.1728834
732.8176118
777.2573041
820.9426052
868.280058
918.655212
966.4710986
1008.719104
1049.84427
1087.844005
1124.844343
1161.883947
1200.191515
1246.846132
1303.183281
1357.488001
1403.450708
1441.030929
1476.984278
1513.571562
1550.261767
1590.370897
1632.343076
1675.871556
1721.064885
1763.644356
1803.29024
1837.621122
1870.671975
1902.071393
1933.92439
1969.00883
2005.64101
2043.685995
2081.2656
2121.50764
2162.324123
2198.172967
2233.941928
2266.784461
2297.224149
2328.618798
2360.888029
2398.571748
2439.219885
2479.381011
2518.18644
2557.363336
2599.266482
2637.713216
2672.654173
2709.266919
2752.231088
2802.248524
2850.016488
2895.288203
2937.500575
2974.694397
3009.881596
3044.710348
3078.839355
3112.851766
3147.18252
3179.916863
3214.858598
3250.971614
3288.955913
3333.561765
3381.191955
3427.960793
3472.251963
3516.153954
3556.670458
3593.93235
3630.123128
3666.01665
3705.23245
3748.257713
3789.968707
3827.47911
3865.592119
3917.672012
3978.231276
4035.567401
4085.26348
4128.260101
4167.280476
4206.332425
4248.570793
4290.129637
4333.206126
4377.714639
4420.427214
4461.568522
4501.321941
4538.472303
4574.514471
4608.602121
4642.60703
4679.352159
4717.128497
4758.077226
4800.508575
4847.445164
4903.211428
4963.227265
5022.563213
5074.322399
5120.654558
5165.451955
5210.598686
5258.422261
5303.445981
5345.147905
5386.913944
5424.523578
5464.106815
5501.60109
5537.96295
5578.457316
5615.933108
5652.681332
5693.533452
5734.554172
5776.244086
5815.239315
5851.500682
5887.635723
5922.369499
5957.897535
5994.421465
6029.10483
6061.658497
6094.620719
6128.45064
6166.729699
6205.637358
6247.200769
6292.582975
6337.911584
6379.882673
6420.336381
6464.096442
6504.379964
6541.684907
6583.384499
6628.761554
6672.917103
6718.703695
6767.714883
6819.372509
6867.758978
6912.033291
6954.554841
6994.03365
7030.652639
7066.959899
7102.098727
7137.744293
7174.411435
7211.048703
7249.143592
7287.860304
7325.192676
7364.616545
7402.992493
7438.961456
7472.269596
7504.063158
7538.31329
7572.469122
7608.011884
7644.047191
7678.302088
7713.992531
7744.821659
7773.141308
7805.717819
7844.737309
7892.176471
7938.012809
7978.223865
8016.365794
8056.78471
8095.37675
8133.141284
8178.651698
8227.055377
8274.179489
8323.804292
8372.086848
8416.960125
8459.446777
8503.46931
8546.392156
8582.976966
8616.834891
8650.261201
8684.116296
8720.133865
8760.297124
8801.755005
8840.034897
8874.587048
8909.166487
8946.292186
8982.360201
9021.373114
9061.954361
9101.860951
9143.855106
9187.69498
9231.754817
9273.708325
9312.135082
9351.422502
9391.742408
9429.815273
9467.913744
9507.239667
9549.599129
9591.111903
9631.112929
9667.99779
9704.096009
9742.261967
9782.472785
9823.081627
9869.532483
9915.956351
9954.30213
9985.131842
10014.67481
10044.57272
10075.28033
10110.31511
10147.36208
10188.33717
10231.27411
10276.54698
10320.38363
10364.85062
10410.43657
10454.98487
10495.64547
10533.3657
10570.27362
10605.38181
10640.29462
10674.51683
10708.87059
10740.84066
10771.89474
10804.62071
10839.37012
10879.87059
10919.63483
10958.68228
11003.47976
11046.80131
11083.69342
11120.0976
11157.36477
11194.13507
11230.53409
11269.02358
11307.16308
11344.66178
11382.61048
11417.37492
11450.59596
11484.95995
11519.3104
11553.41089
11587.57549
11622.08714
11658.75644
11697.33573
11734.98464
11772.74862
11811.4494
11853.27948
11898.38507
11948.06365
11995.39905
12036.81592
12076.32675
12117.05359
12158.96126
12199.21883
12238.57671
12276.7405
12318.68267
12358.26671
12393.78183
12427.44979
12462.76796
12502.16571
12542.45381
12578.02926
12613.30757
12651.1207
12687.68286
12720.03512
12752.66217
12788.45197
12827.60407
12869.06814
12907.67588
12946.84636
12987.93717
13025.82536
13061.97566
13095.60701
13128.44338
13161.82266
13194.48268
13228.78852
13267.4833
13306.08209
13339.07211
13373.92866
13411.13244
13449.61757
13487.08336
13524.32119
13560.69466
13598.46332
13635.75821
13674.21849
13714.26916
13750.37485
13785.02566
13823.78305
13865.56694
13907.53608
13949.78306
13987.37154
14023.30417
14058.31282
14092.68314
14130.4164
14168.96094
14205.27168
14240.73746
14280.1483
14325.21498
14374.31422
14426.77314
14474.43536
14518.36234
14563.04622
14605.45931
14643.55606
14682.15223
14722.66169
14760.64117
14797.37339
14834.33577
14870.80036
14907.49611
14946.03593
14984.65494
15026.51351
15072.82783
15123.85936
15177.42297
15228.79616
15277.27899
15318.79493
15357.44031
15398.83369
15444.74891
15489.50527
15527.35829
15562.06482
15601.2521
15636.94653
15671.22204
15704.29414
15735.88212
15770.16139
15804.44801
15842.79014
15885.09959
15928.28235
15972.79606
16014.12095
16052.19077
16090.80199
16129.91873
16166.09936
16204.31732
16244.13141
16283.46929
16323.4468
16360.86995
16396.68089
16431.00119
16463.06498
16496.34534
16532.53097
16571.69142
16616.82717
16663.1963
16708.2875
16746.30851
16780.61832
16816.16105
16850.72003
16887.02036
16924.78059
16960.99025
16997.43481
17035.79589
17078.92403
17128.16353
17182.35605
17231.5138
17274.54699
17312.98292
17348.23222
17384.76425
17422.418
17460.86615
17501.09143
17541.46627
17584.17838
17625.22913
17663.53395
17704.47854
17746.28965
17788.2979
17831.86221
17875.73983
17914.41781
17952.92007
17998.80608
18053.25309
18111.89853
18167.12826
18214.58668
18255.82013
18293.94993
18331.68393
18368.76396
18405.7269
18444.32846
18482.5303
18520.48799
18560.58039
18602.87499
18646.90535
18688.80001
18727.95112
18766.3116
18802.95075
18839.20511
18875.68024
18912.85299
18952.55672
18994.94476
19039.45901
19084.71316
19128.71044
19168.63238
19204.89248
19238.41899
19271.82866
19304.84826
19338.36076
19371.5593
19405.25221