/*--------------------------------*- C++ -*----------------------------------*\
| =========                 |                                                 |
| \\      /  F ield         | OpenFOAM: The Open Source CFD Toolbox           |
|  \\    /   O peration     | Version:  2012                                  |
|   \\  /    A nd           | Website:  www.openfoam.com                      |
|    \\/     M anipulation  |                                                 |
\*---------------------------------------------------------------------------*/
FoamFile
{
    version     2.0;
    format      ascii;
    class       volVectorField;
    location    "0.0002";
    object      U;
}
// * * * * * * * * * * * * * * * * * * * * * * * * * * * * * * * * * * * * * //

dimensions      [0 1 -1 0 0 0 0];


internalField   nonuniform List<vector> 
5000
(
(-1.536945629e-13 0 0)
(-1.518376172e-13 0 0)
(-1.084782151e-13 0 0)
(-1.324145439e-13 0 0)
(-1.261526814e-13 0 0)
(-1.586286611e-13 0 0)
(-1.845631251e-13 0 0)
(-1.752189717e-13 0 0)
(-1.588674482e-13 0 0)
(-1.383083412e-13 0 0)
(-6.113417859e-14 0 0)
(6.517702751e-14 0 0)
(9.562175574e-14 0 0)
(1.028182567e-13 0 0)
(8.966826175e-14 0 0)
(6.147383186e-14 0 0)
(4.424858693e-14 0 0)
(5.575318683e-14 0 0)
(7.871568622e-14 0 0)
(8.119814203e-14 0 0)
(6.925289108e-14 0 0)
(3.345703288e-14 0 0)
(9.413015794e-15 0 0)
(4.169906485e-15 0 0)
(1.441171333e-14 0 0)
(3.521063099e-14 0 0)
(4.609671776e-14 0 0)
(4.448250004e-14 0 0)
(2.508905713e-14 0 0)
(2.485632303e-15 0 0)
(-4.138346555e-14 0 0)
(-7.344805637e-14 0 0)
(-9.335468641e-14 0 0)
(-9.840248077e-14 0 0)
(-9.034575433e-14 0 0)
(-6.701989261e-14 0 0)
(-3.104602244e-14 0 0)
(6.988049491e-15 0 0)
(2.469096095e-14 0 0)
(4.331597159e-14 0 0)
(5.619350595e-14 0 0)
(6.31656349e-14 0 0)
(5.806350365e-14 0 0)
(3.783409881e-14 0 0)
(-3.154883133e-15 0 0)
(-2.982889943e-14 0 0)
(1.413118785e-14 0 0)
(7.53025969e-14 0 0)
(1.399394415e-13 0 0)
(1.721211319e-13 0 0)
(1.350498719e-13 0 0)
(1.520531065e-13 0 0)
(2.300909553e-13 0 0)
(1.965241656e-13 0 0)
(1.554484947e-13 0 0)
(1.578379848e-13 0 0)
(1.76149036e-13 0 0)
(1.942470675e-13 0 0)
(1.867279126e-13 0 0)
(1.702929842e-13 0 0)
(1.586996137e-13 0 0)
(1.575049491e-13 0 0)
(1.608565641e-13 0 0)
(1.677355937e-13 0 0)
(1.910307518e-13 0 0)
(2.221943464e-13 0 0)
(2.585355529e-13 0 0)
(3.242958164e-13 0 0)
(4.029788453e-13 0 0)
(4.461655223e-13 0 0)
(4.226417243e-13 0 0)
(4.031077099e-13 0 0)
(3.961950136e-13 0 0)
(3.736859415e-13 0 0)
(2.615506587e-13 0 0)
(1.482950782e-13 0 0)
(3.488072297e-14 0 0)
(2.191135602e-14 0 0)
(2.936436042e-14 0 0)
(1.806287491e-14 0 0)
(-8.154220488e-14 0 0)
(-1.261222896e-13 0 0)
(-1.361624983e-13 0 0)
(-1.016043472e-13 0 0)
(-4.333542907e-14 0 0)
(9.293655847e-14 0 0)
(1.188830422e-13 0 0)
(1.051805004e-13 0 0)
(9.460769871e-14 0 0)
(1.00061796e-13 0 0)
(1.103737013e-13 0 0)
(1.183662633e-13 0 0)
(1.339053561e-13 0 0)
(1.005878154e-13 0 0)
(6.975527008e-14 0 0)
(1.162627735e-13 0 0)
(2.433986897e-13 0 0)
(2.482853541e-13 0 0)
(2.309269952e-13 0 0)
(2.540948776e-13 0 0)
(2.213471512e-13 0 0)
(1.913205737e-13 0 0)
(1.742700096e-13 0 0)
(1.507773457e-13 0 0)
(1.564978854e-13 0 0)
(1.961403768e-13 0 0)
(1.965685364e-13 0 0)
(1.213738829e-13 0 0)
(9.136381417e-14 0 0)
(9.722290139e-14 0 0)
(6.511789555e-14 0 0)
(1.020072998e-13 0 0)
(1.379549921e-13 0 0)
(1.790620877e-13 0 0)
(1.433827862e-13 0 0)
(1.650698174e-13 0 0)
(1.943670091e-13 0 0)
(1.192875689e-13 0 0)
(7.616473386e-14 0 0)
(1.813150025e-13 0 0)
(2.367893288e-13 0 0)
(2.359352354e-13 0 0)
(2.126342144e-13 0 0)
(1.87345982e-13 0 0)
(1.843163707e-13 0 0)
(2.182102931e-13 0 0)
(1.915328226e-13 0 0)
(9.398821786e-14 0 0)
(3.933965419e-14 0 0)
(7.671741275e-14 0 0)
(5.45322573e-14 0 0)
(7.452928316e-14 0 0)
(9.441989198e-14 0 0)
(1.565900254e-13 0 0)
(2.02060465e-13 0 0)
(1.55847126e-13 0 0)
(1.565830467e-13 0 0)
(2.010574507e-13 0 0)
(2.093342591e-13 0 0)
(1.42794987e-13 0 0)
(1.482879104e-13 0 0)
(6.673891387e-14 0 0)
(4.879209161e-14 0 0)
(1.862077939e-14 0 0)
(2.062600242e-15 0 0)
(-1.410479822e-14 0 0)
(-2.631092389e-14 0 0)
(-4.141961499e-14 0 0)
(-6.107906599e-14 0 0)
(-7.82771754e-14 0 0)
(-9.60511818e-14 0 0)
(-1.105366083e-13 0 0)
(-1.203802429e-13 0 0)
(-1.260819067e-13 0 0)
(-1.284162411e-13 0 0)
(-1.339202308e-13 0 0)
(-1.348055957e-13 0 0)
(-1.385792475e-13 0 0)
(-1.367322928e-13 0 0)
(-1.316879533e-13 0 0)
(-1.259942831e-13 0 0)
(-1.165493888e-13 0 0)
(-1.078157267e-13 0 0)
(-1.02014828e-13 0 0)
(-1.038333306e-13 0 0)
(-1.040405479e-13 0 0)
(-1.019235126e-13 0 0)
(-1.03063047e-13 0 0)
(-1.029633195e-13 0 0)
(-1.051226403e-13 0 0)
(-1.068230143e-13 0 0)
(-1.052210743e-13 0 0)
(-1.04824524e-13 0 0)
(-1.065750653e-13 0 0)
(-1.068893738e-13 0 0)
(-1.134705799e-13 0 0)
(-1.136625846e-13 0 0)
(-1.143471057e-13 0 0)
(-1.14918997e-13 0 0)
(-1.160152311e-13 0 0)
(-1.19127269e-13 0 0)
(-1.240898738e-13 0 0)
(-1.299649068e-13 0 0)
(-1.393784365e-13 0 0)
(-1.365072021e-13 0 0)
(-1.335271666e-13 0 0)
(-1.223337738e-13 0 0)
(-1.108081415e-13 0 0)
(-8.8377473e-14 0 0)
(-6.128713945e-14 0 0)
(-3.461852062e-14 0 0)
(1.457571997e-15 0 0)
(2.700951876e-14 0 0)
(5.821388701e-14 0 0)
(8.07070512e-14 0 0)
(9.86673214e-14 0 0)
(1.119034147e-13 0 0)
(1.201189076e-13 0 0)
(1.20902771e-13 0 0)
(1.212567215e-13 0 0)
(1.22051434e-13 0 0)
(1.198443214e-13 0 0)
(1.173557995e-13 0 0)
(1.071436023e-13 0 0)
(9.680875883e-14 0 0)
(8.890534384e-14 0 0)
(8.828828646e-14 0 0)
(8.901030293e-14 0 0)
(8.627017495e-14 0 0)
(8.038152564e-14 0 0)
(7.298068837e-14 0 0)
(6.813585034e-14 0 0)
(5.99785747e-14 0 0)
(4.41462439e-14 0 0)
(2.65014275e-14 0 0)
(1.656091541e-14 0 0)
(1.571748436e-15 0 0)
(-6.443850243e-15 0 0)
(-1.728986263e-14 0 0)
(-1.843227142e-14 0 0)
(-1.935090159e-14 0 0)
(-1.625653607e-14 0 0)
(-4.180742109e-15 0 0)
(2.382730062e-14 0 0)
(4.96424793e-14 0 0)
(7.619757872e-14 0 0)
(9.622529359e-14 0 0)
(1.071339785e-13 0 0)
(1.113144369e-13 0 0)
(1.121734542e-13 0 0)
(1.068333098e-13 0 0)
(9.30038504e-14 0 0)
(8.03667574e-14 0 0)
(7.357319776e-14 0 0)
(6.855557703e-14 0 0)
(6.317324007e-14 0 0)
(5.247884693e-14 0 0)
(4.663568257e-14 0 0)
(4.23957222e-14 0 0)
(3.681279594e-14 0 0)
(2.592730226e-14 0 0)
(1.505602087e-14 0 0)
(1.085680667e-14 0 0)
(1.344528856e-14 0 0)
(1.485422534e-14 0 0)
(1.718855408e-14 0 0)
(3.141465177e-14 0 0)
(5.377898297e-14 0 0)
(8.013369742e-14 0 0)
(9.45231023e-14 0 0)
(1.053274422e-13 0 0)
(1.108917746e-13 0 0)
(1.181618175e-13 0 0)
(1.213627762e-13 0 0)
(1.229851897e-13 0 0)
(1.203830284e-13 0 0)
(1.11947547e-13 0 0)
(9.615196436e-14 0 0)
(7.381439605e-14 0 0)
(4.859098181e-14 0 0)
(2.971179676e-14 0 0)
(1.311227092e-14 0 0)
(-7.381260294e-17 0 0)
(-7.777521883e-15 0 0)
(-1.30426884e-14 0 0)
(-1.681008496e-14 0 0)
(-1.910882173e-14 0 0)
(-2.560445818e-14 0 0)
(-2.963708049e-14 0 0)
(-3.25109933e-14 0 0)
(-3.089291788e-14 0 0)
(-2.716888205e-14 0 0)
(-2.142203963e-14 0 0)
(-1.203956942e-14 0 0)
(3.489493809e-15 0 0)
(1.418346384e-14 0 0)
(1.846544112e-14 0 0)
(1.855250802e-14 0 0)
(1.554334247e-14 0 0)
(3.510910748e-15 0 0)
(-1.300047222e-14 0 0)
(-2.942042136e-14 0 0)
(-3.598215693e-14 0 0)
(-3.689205608e-14 0 0)
(-3.199681517e-14 0 0)
(-2.738202803e-14 0 0)
(-2.49258541e-14 0 0)
(-2.525259063e-14 0 0)
(-2.620065059e-14 0 0)
(-2.610340636e-14 0 0)
(-2.248835155e-14 0 0)
(-1.510002652e-14 0 0)
(-3.94156099e-15 0 0)
(4.821759137e-15 0 0)
(1.827333893e-14 0 0)
(2.657984871e-14 0 0)
(3.243954877e-14 0 0)
(3.423740607e-14 0 0)
(3.347779076e-14 0 0)
(3.168325718e-14 0 0)
(2.65735706e-14 0 0)
(1.437561442e-14 0 0)
(3.104893139e-16 0 0)
(-9.04419397e-15 0 0)
(-2.03151093e-14 0 0)
(-3.175561136e-14 0 0)
(-4.163980822e-14 0 0)
(-4.297363686e-14 0 0)
(-4.048692434e-14 0 0)
(-3.472866387e-14 0 0)
(-2.208597018e-14 0 0)
(-1.238184678e-15 0 0)
(1.531028535e-14 0 0)
(3.206850173e-14 0 0)
(4.054041743e-14 0 0)
(4.417297958e-14 0 0)
(4.641373914e-14 0 0)
(4.541931161e-14 0 0)
(4.574806095e-14 0 0)
(4.348250666e-14 0 0)
(3.930217593e-14 0 0)
(3.042949681e-14 0 0)
(1.973763727e-14 0 0)
(1.428516163e-14 0 0)
(1.460977338e-14 0 0)
(1.614712134e-14 0 0)
(1.575958786e-14 0 0)
(1.365269141e-14 0 0)
(1.366124082e-14 0 0)
(1.387338574e-14 0 0)
(9.759661083e-15 0 0)
(2.29537871e-15 0 0)
(-1.243314568e-14 0 0)
(-2.057627837e-14 0 0)
(-3.165856705e-14 0 0)
(-3.72854496e-14 0 0)
(-4.711585151e-14 0 0)
(-5.28520326e-14 0 0)
(-6.234755889e-14 0 0)
(-6.721425705e-14 0 0)
(-6.527555859e-14 0 0)
(-5.930006591e-14 0 0)
(-4.221709775e-14 0 0)
(-1.685237371e-14 0 0)
(-5.586591303e-16 0 0)
(9.991844438e-15 0 0)
(2.225020727e-14 0 0)
(3.41643785e-14 0 0)
(4.88285766e-14 0 0)
(5.486615522e-14 0 0)
(5.476236507e-14 0 0)
(4.602822612e-14 0 0)
(3.394321415e-14 0 0)
(2.484644431e-14 0 0)
(7.900654639e-15 0 0)
(-2.024564666e-15 0 0)
(-1.259060963e-14 0 0)
(-1.675395041e-14 0 0)
(-1.870171323e-14 0 0)
(-1.403712592e-14 0 0)
(-4.421389594e-15 0 0)
(9.196406412e-15 0 0)
(2.112546774e-14 0 0)
(2.803980462e-14 0 0)
(3.205477795e-14 0 0)
(3.219103262e-14 0 0)
(2.528517243e-14 0 0)
(1.739594866e-14 0 0)
(-3.344983964e-16 0 0)
(-1.175292793e-14 0 0)
(-1.694652298e-14 0 0)
(-2.106656817e-14 0 0)
(-2.069210367e-14 0 0)
(-1.694440561e-14 0 0)
(-1.138105367e-14 0 0)
(-3.957412572e-16 0 0)
(3.096667112e-15 0 0)
(3.26043831e-15 0 0)
(-4.896599377e-16 0 0)
(-3.703665836e-15 0 0)
(-4.733403263e-15 0 0)
(-7.074051548e-15 0 0)
(-8.670873009e-15 0 0)
(-6.081430403e-15 0 0)
(-5.813977553e-15 0 0)
(-6.51380103e-15 0 0)
(-9.987406245e-15 0 0)
(-7.908725001e-15 0 0)
(-2.676226544e-15 0 0)
(5.857296159e-15 0 0)
(1.001399436e-14 0 0)
(1.003528989e-14 0 0)
(9.52254356e-15 0 0)
(6.462362389e-15 0 0)
(3.166736113e-15 0 0)
(2.304190359e-15 0 0)
(2.666740301e-15 0 0)
(1.992269596e-16 0 0)
(-5.248657236e-15 0 0)
(-1.739124532e-15 0 0)
(4.683882908e-15 0 0)
(1.30506131e-14 0 0)
(1.395560015e-14 0 0)
(9.932579137e-15 0 0)
(6.30777578e-15 0 0)
(-9.290253003e-15 0 0)
(-3.204578904e-14 0 0)
(-4.138040274e-14 0 0)
(-4.105901186e-14 0 0)
(-3.301731304e-14 0 0)
(-2.86462955e-14 0 0)
(-2.219127827e-14 0 0)
(-2.059145192e-14 0 0)
(-1.619677401e-14 0 0)
(-8.485463998e-15 0 0)
(-5.858618973e-15 0 0)
(-4.271153545e-15 0 0)
(-8.823446202e-16 0 0)
(5.595249376e-15 0 0)
(1.541803839e-14 0 0)
(2.243300299e-14 0 0)
(2.535354318e-14 0 0)
(2.377854992e-14 0 0)
(1.391331644e-14 0 0)
(4.833084193e-15 0 0)
(5.434415411e-15 0 0)
(5.924461056e-15 0 0)
(3.781384795e-15 0 0)
(-1.151432976e-16 0 0)
(-5.830803811e-15 0 0)
(-1.113984692e-14 0 0)
(-1.777242906e-14 0 0)
(-2.425095513e-14 0 0)
(-2.315795751e-14 0 0)
(-1.677324796e-14 0 0)
(-1.024824456e-14 0 0)
(-5.20399413e-15 0 0)
(6.601742634e-16 0 0)
(4.567227302e-15 0 0)
(6.371080389e-15 0 0)
(9.694152042e-16 0 0)
(-7.897802615e-15 0 0)
(-1.65955641e-14 0 0)
(-2.199448179e-14 0 0)
(-2.35456499e-14 0 0)
(-2.203700812e-14 0 0)
(-1.718390003e-14 0 0)
(-9.671678335e-15 0 0)
(7.834667578e-15 0 0)
(1.888987557e-14 0 0)
(3.457235513e-14 0 0)
(4.19755764e-14 0 0)
(3.906709215e-14 0 0)
(3.695724831e-14 0 0)
(3.593783634e-14 0 0)
(3.350867746e-14 0 0)
(3.018261278e-14 0 0)
(2.731114867e-14 0 0)
(1.955772043e-14 0 0)
(1.522076916e-14 0 0)
(8.746144496e-15 0 0)
(7.297771197e-15 0 0)
(6.601187944e-15 0 0)
(4.973304927e-15 0 0)
(6.423051028e-15 0 0)
(7.33409266e-15 0 0)
(6.637798453e-15 0 0)
(7.333088448e-15 0 0)
(6.820463927e-15 0 0)
(2.743375518e-15 0 0)
(-6.13953222e-15 0 0)
(-1.938473056e-14 0 0)
(-3.724262476e-14 0 0)
(-4.552585926e-14 0 0)
(-5.541664845e-14 0 0)
(-5.909563983e-14 0 0)
(-5.539675451e-14 0 0)
(-4.390901492e-14 0 0)
(-2.003934235e-14 0 0)
(9.304618323e-15 0 0)
(3.23512963e-14 0 0)
(4.289216579e-14 0 0)
(4.810281275e-14 0 0)
(4.783551368e-14 0 0)
(4.263422024e-14 0 0)
(3.74799187e-14 0 0)
(2.882030173e-14 0 0)
(2.583683183e-14 0 0)
(1.499762005e-14 0 0)
(1.90377355e-15 0 0)
(-1.283358084e-14 0 0)
(-2.385875191e-14 0 0)
(-2.253435616e-14 0 0)
(-1.808728455e-14 0 0)
(-1.083483807e-14 0 0)
(-7.945272218e-15 0 0)
(-4.324283168e-15 0 0)
(-1.435012301e-15 0 0)
(4.187365671e-15 0 0)
(5.230038445e-15 0 0)
(5.962187186e-15 0 0)
(6.094359517e-15 0 0)
(3.6393852e-15 0 0)
(4.070579841e-15 0 0)
(6.947183741e-15 0 0)
(1.167443068e-14 0 0)
(1.246499601e-14 0 0)
(1.091996396e-14 0 0)
(9.177103637e-15 0 0)
(5.508290698e-15 0 0)
(-2.719357753e-15 0 0)
(-1.213473499e-14 0 0)
(-1.685507558e-14 0 0)
(-2.422651653e-14 0 0)
(-3.154977562e-14 0 0)
(-3.387953956e-14 0 0)
(-3.218633373e-14 0 0)
(-2.540472799e-14 0 0)
(-1.697635211e-14 0 0)
(-6.954698112e-15 0 0)
(1.229680372e-14 0 0)
(2.603754087e-14 0 0)
(3.316954411e-14 0 0)
(3.728657953e-14 0 0)
(3.914673706e-14 0 0)
(3.98392681e-14 0 0)
(3.776392453e-14 0 0)
(3.614481838e-14 0 0)
(3.888771344e-14 0 0)
(4.587866135e-14 0 0)
(4.788904288e-14 0 0)
(4.347986357e-14 0 0)
(3.277788916e-14 0 0)
(1.032319603e-14 0 0)
(-9.378293019e-15 0 0)
(-2.113081647e-14 0 0)
(-2.425330067e-14 0 0)
(-2.152305979e-14 0 0)
(-1.654611844e-14 0 0)
(-8.886280676e-15 0 0)
(-6.176534783e-17 0 0)
(7.241889401e-15 0 0)
(1.170595031e-14 0 0)
(1.274643843e-14 0 0)
(1.257442197e-14 0 0)
(8.432847216e-15 0 0)
(-6.313528396e-15 0 0)
(-1.611533569e-14 0 0)
(-3.259043272e-14 0 0)
(-3.991360701e-14 0 0)
(-4.864486447e-14 0 0)
(-5.621339942e-14 0 0)
(-6.202353283e-14 0 0)
(-6.452617356e-14 0 0)
(-6.457638796e-14 0 0)
(-6.201883997e-14 0 0)
(-5.3452367e-14 0 0)
(-3.78151738e-14 0 0)
(-2.521840782e-14 0 0)
(-8.77768651e-15 0 0)
(-2.663067618e-16 0 0)
(6.793315436e-15 0 0)
(7.636608798e-15 0 0)
(2.445625207e-15 0 0)
(-1.159981014e-16 0 0)
(5.812204665e-15 0 0)
(1.441353779e-14 0 0)
(2.264790336e-14 0 0)
(2.88824905e-14 0 0)
(2.938672441e-14 0 0)
(2.987612214e-14 0 0)
(3.085050011e-14 0 0)
(3.168696426e-14 0 0)
(3.004393346e-14 0 0)
(2.568886116e-14 0 0)
(1.637842872e-14 0 0)
(8.660768443e-15 0 0)
(-4.152631105e-15 0 0)
(-1.520628699e-14 0 0)
(-1.987981201e-14 0 0)
(-2.01978277e-14 0 0)
(-1.211295912e-14 0 0)
(-2.035688646e-15 0 0)
(1.213514526e-14 0 0)
(2.066441007e-14 0 0)
(2.973274876e-14 0 0)
(3.188913021e-14 0 0)
(3.117314509e-14 0 0)
(3.120137531e-14 0 0)
(2.880479162e-14 0 0)
(2.293626532e-14 0 0)
(1.367165125e-14 0 0)
(7.692791598e-15 0 0)
(2.736366155e-15 0 0)
(9.601897336e-16 0 0)
(-1.704911425e-15 0 0)
(-8.617554646e-15 0 0)
(-1.715989369e-14 0 0)
(-2.549182339e-14 0 0)
(-3.043214313e-14 0 0)
(-3.310942834e-14 0 0)
(-3.474977671e-14 0 0)
(-2.996123917e-14 0 0)
(-2.224324709e-14 0 0)
(-9.611330762e-15 0 0)
(2.340939181e-15 0 0)
(1.1881389e-14 0 0)
(1.881128872e-14 0 0)
(2.318915499e-14 0 0)
(2.253703801e-14 0 0)
(2.770983657e-14 0 0)
(3.231924291e-14 0 0)
(3.796931032e-14 0 0)
(3.877979402e-14 0 0)
(3.222129064e-14 0 0)
(2.578107946e-14 0 0)
(2.049281038e-14 0 0)
(1.823934671e-14 0 0)
(1.999993075e-14 0 0)
(1.954131251e-14 0 0)
(1.704035376e-14 0 0)
(1.568143703e-14 0 0)
(9.813961428e-15 0 0)
(-1.727993483e-15 0 0)
(-1.196689385e-14 0 0)
(-1.763384637e-14 0 0)
(-1.471279167e-14 0 0)
(-1.303926948e-14 0 0)
(-1.463343403e-14 0 0)
(-5.237280224e-15 0 0)
(1.05553438e-15 0 0)
(4.344493167e-15 0 0)
(5.960386543e-15 0 0)
(1.024285782e-14 0 0)
(9.819999149e-15 0 0)
(1.29591774e-14 0 0)
(1.220601107e-14 0 0)
(1.213136089e-14 0 0)
(8.117931438e-15 0 0)
(2.337181492e-15 0 0)
(-7.881748859e-15 0 0)
(-1.812500979e-14 0 0)
(-2.385568215e-14 0 0)
(-3.221299013e-14 0 0)
(-3.412699646e-14 0 0)
(-3.526468566e-14 0 0)
(-3.396246209e-14 0 0)
(-3.276491897e-14 0 0)
(-3.04328596e-14 0 0)
(-2.545872819e-14 0 0)
(-1.385831225e-14 0 0)
(-2.422002647e-15 0 0)
(1.570132263e-14 0 0)
(2.669001001e-14 0 0)
(3.278503881e-14 0 0)
(3.488511602e-14 0 0)
(3.089925241e-14 0 0)
(2.358903214e-14 0 0)
(1.057950129e-14 0 0)
(-3.114729153e-15 0 0)
(-9.798433802e-15 0 0)
(-9.629067975e-15 0 0)
(-8.592111996e-15 0 0)
(-4.65275479e-15 0 0)
(-4.292862298e-15 0 0)
(-7.182781023e-15 0 0)
(-1.081890978e-14 0 0)
(-1.042382597e-14 0 0)
(-1.007321255e-14 0 0)
(-9.914862271e-15 0 0)
(-3.927023252e-15 0 0)
(2.108820771e-15 0 0)
(3.276096976e-15 0 0)
(2.44257251e-15 0 0)
(2.821097207e-15 0 0)
(-9.644722006e-16 0 0)
(-9.625419686e-16 0 0)
(-2.002597358e-15 0 0)
(-1.466571511e-15 0 0)
(-9.268485144e-16 0 0)
(2.622518497e-16 0 0)
(2.629722911e-15 0 0)
(5.642566285e-15 0 0)
(6.437582189e-15 0 0)
(4.075243078e-15 0 0)
(1.334276679e-15 0 0)
(-5.646788005e-15 0 0)
(-1.144257366e-14 0 0)
(-1.212270967e-14 0 0)
(-1.345294328e-14 0 0)
(-1.397747861e-14 0 0)
(-5.658539095e-15 0 0)
(8.20417659e-15 0 0)
(1.455397828e-14 0 0)
(2.124137913e-14 0 0)
(2.190140731e-14 0 0)
(2.354786741e-14 0 0)
(2.303231319e-14 0 0)
(1.994990746e-14 0 0)
(1.637299265e-14 0 0)
(1.7142208e-14 0 0)
(1.496795049e-14 0 0)
(1.301356792e-14 0 0)
(1.110749629e-14 0 0)
(6.082067959e-15 0 0)
(2.110773443e-15 0 0)
(-3.946574196e-15 0 0)
(-1.023014201e-14 0 0)
(-1.072924538e-14 0 0)
(-8.390088696e-15 0 0)
(-6.145819177e-15 0 0)
(-1.305331624e-15 0 0)
(5.227550649e-15 0 0)
(1.325867834e-14 0 0)
(2.151906617e-14 0 0)
(3.081020382e-14 0 0)
(3.321092385e-14 0 0)
(3.486330349e-14 0 0)
(3.249602441e-14 0 0)
(2.242103696e-14 0 0)
(1.200435942e-14 0 0)
(-4.869950133e-15 0 0)
(-1.735886697e-14 0 0)
(-3.311322499e-14 0 0)
(-4.366041453e-14 0 0)
(-5.116159393e-14 0 0)
(-5.431218245e-14 0 0)
(-5.480627034e-14 0 0)
(-4.745778227e-14 0 0)
(-3.600613172e-14 0 0)
(-1.399814612e-14 0 0)
(4.389848171e-15 0 0)
(2.551478466e-14 0 0)
(3.66850535e-14 0 0)
(4.294668446e-14 0 0)
(4.74355254e-14 0 0)
(4.466841562e-14 0 0)
(4.195926358e-14 0 0)
(3.554357034e-14 0 0)
(2.454221633e-14 0 0)
(1.223445707e-14 0 0)
(-6.983869619e-15 0 0)
(-1.823167726e-14 0 0)
(-2.9171467e-14 0 0)
(-2.940519193e-14 0 0)
(-3.099125619e-14 0 0)
(-3.090232869e-14 0 0)
(-2.45920231e-14 0 0)
(-1.385199139e-14 0 0)
(-1.164960407e-15 0 0)
(1.215867709e-14 0 0)
(1.775928666e-14 0 0)
(1.74866874e-14 0 0)
(2.001764197e-14 0 0)
(2.016038469e-14 0 0)
(1.813836997e-14 0 0)
(1.519764535e-14 0 0)
(2.237779024e-15 0 0)
(-1.275820518e-14 0 0)
(-2.904175514e-14 0 0)
(-4.001980302e-14 0 0)
(-4.475708221e-14 0 0)
(-4.378178648e-14 0 0)
(-3.722290218e-14 0 0)
(-3.131212018e-14 0 0)
(-2.102003157e-14 0 0)
(-1.55023949e-14 0 0)
(-1.315195651e-14 0 0)
(-1.163172539e-14 0 0)
(-2.030301991e-15 0 0)
(1.982769591e-15 0 0)
(7.120314939e-15 0 0)
(1.04251283e-14 0 0)
(1.052030497e-14 0 0)
(8.009963812e-15 0 0)
(5.442994703e-15 0 0)
(3.73489159e-15 0 0)
(1.185853687e-15 0 0)
(2.810567981e-15 0 0)
(1.616987944e-15 0 0)
(-1.423241474e-15 0 0)
(-7.492691566e-15 0 0)
(-1.580548367e-14 0 0)
(-2.096319944e-14 0 0)
(-2.453234839e-14 0 0)
(-2.404395577e-14 0 0)
(-2.430549474e-14 0 0)
(-2.108371129e-14 0 0)
(-1.181467168e-14 0 0)
(-1.454214753e-15 0 0)
(1.023679433e-14 0 0)
(1.47148106e-14 0 0)
(1.971814948e-14 0 0)
(1.999058055e-14 0 0)
(1.676894336e-14 0 0)
(1.572385964e-14 0 0)
(7.672155533e-15 0 0)
(6.242790572e-15 0 0)
(6.719117667e-15 0 0)
(1.46603702e-14 0 0)
(1.816734589e-14 0 0)
(2.107996852e-14 0 0)
(2.540012834e-14 0 0)
(2.630936533e-14 0 0)
(2.705741345e-14 0 0)
(2.873059223e-14 0 0)
(2.946272319e-14 0 0)
(3.211001567e-14 0 0)
(3.818900951e-14 0 0)
(4.263921665e-14 0 0)
(4.694848797e-14 0 0)
(3.935795722e-14 0 0)
(2.850852834e-14 0 0)
(1.61278471e-14 0 0)
(1.004025427e-14 0 0)
(-1.303576006e-15 0 0)
(-1.561743791e-14 0 0)
(-2.811818855e-14 0 0)
(-4.304251613e-14 0 0)
(-5.088631834e-14 0 0)
(-5.75321946e-14 0 0)
(-6.020710983e-14 0 0)
(-5.377335203e-14 0 0)
(-4.067414597e-14 0 0)
(-2.676296033e-14 0 0)
(-1.875481755e-14 0 0)
(-1.630148926e-14 0 0)
(-1.605526279e-14 0 0)
(-2.160378337e-14 0 0)
(-2.768618009e-14 0 0)
(-3.741579058e-14 0 0)
(-4.224757251e-14 0 0)
(-4.631640611e-14 0 0)
(-4.708167282e-14 0 0)
(-4.382067356e-14 0 0)
(-3.502050008e-14 0 0)
(-2.96704783e-14 0 0)
(-2.212679241e-14 0 0)
(-1.875366647e-14 0 0)
(-1.177891608e-14 0 0)
(-4.395838821e-15 0 0)
(1.344210655e-14 0 0)
(3.923255328e-14 0 0)
(5.991876773e-14 0 0)
(7.102806405e-14 0 0)
(7.323898525e-14 0 0)
(7.018113646e-14 0 0)
(5.962154224e-14 0 0)
(4.333128615e-14 0 0)
(2.478637429e-14 0 0)
(7.646197991e-16 0 0)
(-1.663450277e-14 0 0)
(-3.498561116e-14 0 0)
(-4.755344087e-14 0 0)
(-5.578617001e-14 0 0)
(-5.646447905e-14 0 0)
(-5.013679238e-14 0 0)
(-3.336844555e-14 0 0)
(-1.702469197e-14 0 0)
(-5.553123268e-15 0 0)
(-6.325631206e-16 0 0)
(-7.570304649e-16 0 0)
(-1.183688013e-15 0 0)
(7.655896728e-15 0 0)
(1.556155811e-14 0 0)
(2.343250447e-14 0 0)
(3.107841979e-14 0 0)
(3.450528416e-14 0 0)
(3.756044959e-14 0 0)
(3.218935398e-14 0 0)
(2.502250776e-14 0 0)
(1.417736971e-14 0 0)
(1.072639293e-15 0 0)
(-1.047355167e-14 0 0)
(-2.00932359e-14 0 0)
(-2.587943689e-14 0 0)
(-3.178795433e-14 0 0)
(-3.782999775e-14 0 0)
(-4.023897042e-14 0 0)
(-3.739845396e-14 0 0)
(-3.59993967e-14 0 0)
(-3.422919319e-14 0 0)
(-2.931549861e-14 0 0)
(-2.69639402e-14 0 0)
(-1.525573515e-14 0 0)
(-8.647863797e-15 0 0)
(-3.498537361e-15 0 0)
(-3.355856244e-15 0 0)
(-4.501305499e-15 0 0)
(-4.875805245e-15 0 0)
(-4.332497996e-15 0 0)
(-4.762526267e-15 0 0)
(-6.055007207e-15 0 0)
(-2.149507875e-15 0 0)
(-1.931090565e-16 0 0)
(8.026294067e-15 0 0)
(1.63619143e-14 0 0)
(2.354615519e-14 0 0)
(3.168406095e-14 0 0)
(3.546354495e-14 0 0)
(3.397544535e-14 0 0)
(2.686848384e-14 0 0)
(2.098633793e-14 0 0)
(1.841864262e-14 0 0)
(2.423714099e-14 0 0)
(2.502658203e-14 0 0)
(2.387676988e-14 0 0)
(1.979323892e-14 0 0)
(1.212165017e-14 0 0)
(9.162885278e-15 0 0)
(1.460491538e-15 0 0)
(8.759855305e-16 0 0)
(-3.982346598e-15 0 0)
(-8.576997262e-15 0 0)
(-9.403161452e-15 0 0)
(-3.266596484e-15 0 0)
(8.435118807e-15 0 0)
(1.855587386e-14 0 0)
(2.429193797e-14 0 0)
(2.363612529e-14 0 0)
(2.46385548e-14 0 0)
(2.424684372e-14 0 0)
(2.418088208e-14 0 0)
(2.109331783e-14 0 0)
(1.698416781e-14 0 0)
(8.685522586e-15 0 0)
(2.070973826e-15 0 0)
(-2.296759747e-15 0 0)
(-7.237622715e-15 0 0)
(-7.26682383e-15 0 0)
(-7.247769062e-15 0 0)
(-6.965265153e-15 0 0)
(-5.156901574e-15 0 0)
(-4.088748844e-15 0 0)
(-1.276220972e-15 0 0)
(2.231544807e-15 0 0)
(3.362790758e-15 0 0)
(2.195244358e-15 0 0)
(1.642940073e-15 0 0)
(4.249913443e-15 0 0)
(6.485546354e-15 0 0)
(-7.043175703e-16 0 0)
(-1.219187575e-14 0 0)
(-2.005769957e-14 0 0)
(-2.147452306e-14 0 0)
(-1.723545654e-14 0 0)
(-1.40293412e-14 0 0)
(-5.561950237e-15 0 0)
(-6.371209615e-16 0 0)
(2.492436576e-15 0 0)
(1.335940471e-15 0 0)
(-1.414542235e-15 0 0)
(-1.67355763e-15 0 0)
(-2.364699547e-15 0 0)
(-5.679120808e-15 0 0)
(-1.326418886e-14 0 0)
(-1.813171331e-14 0 0)
(-1.922693079e-14 0 0)
(-2.092568661e-14 0 0)
(-3.266478913e-14 0 0)
(-3.706937257e-14 0 0)
(-4.479208259e-14 0 0)
(-5.050060576e-14 0 0)
(-6.50901177e-14 0 0)
(-8.761986976e-14 0 0)
(-1.076977351e-13 0 0)
(-1.255119986e-13 0 0)
(-1.351490567e-13 0 0)
(-1.373217349e-13 0 0)
(-1.376915582e-13 0 0)
(-1.377048778e-13 0 0)
(-1.348403671e-13 0 0)
(-1.262651205e-13 0 0)
(-1.20431333e-13 0 0)
(-1.185837331e-13 0 0)
(-1.149909437e-13 0 0)
(-1.121395865e-13 0 0)
(-1.072667916e-13 0 0)
(-9.944895194e-14 0 0)
(-9.842651536e-14 0 0)
(-9.696219507e-14 0 0)
(-9.252567656e-14 0 0)
(-9.13616501e-14 0 0)
(-9.521066798e-14 0 0)
(-9.914203699e-14 0 0)
(-1.03913534e-13 0 0)
(-1.026896669e-13 0 0)
(-1.013777424e-13 0 0)
(-1.017185709e-13 0 0)
(-1.056710268e-13 0 0)
(-1.069473246e-13 0 0)
(-1.067258328e-13 0 0)
(-1.023047362e-13 0 0)
(-9.225847889e-14 0 0)
(-7.653389166e-14 0 0)
(-5.229046188e-14 0 0)
(-3.502127549e-14 0 0)
(-1.694897735e-14 0 0)
(-1.150986949e-14 0 0)
(-1.006779343e-14 0 0)
(-1.136413758e-14 0 0)
(-8.760317846e-15 0 0)
(8.944711918e-16 0 0)
(3.896948659e-15 0 0)
(5.959262384e-15 0 0)
(1.102921864e-14 0 0)
(2.139547804e-14 0 0)
(3.708178331e-14 0 0)
(6.280854558e-14 0 0)
(8.101930124e-14 0 0)
(1.028807434e-13 0 0)
(1.184004978e-13 0 0)
(1.270511658e-13 0 0)
(1.271830411e-13 0 0)
(1.279918508e-13 0 0)
(1.28346865e-13 0 0)
(1.243862048e-13 0 0)
(1.109321783e-13 0 0)
(8.577528037e-14 0 0)
(5.692338767e-14 0 0)
(3.555561809e-14 0 0)
(2.545152041e-14 0 0)
(2.329110874e-14 0 0)
(2.715202889e-14 0 0)
(4.074326054e-14 0 0)
(6.245538335e-14 0 0)
(7.99866516e-14 0 0)
(9.072369424e-14 0 0)
(9.069787277e-14 0 0)
(8.504959731e-14 0 0)
(7.754651307e-14 0 0)
(7.310847879e-14 0 0)
(7.292417568e-14 0 0)
(7.461215516e-14 0 0)
(7.264237123e-14 0 0)
(7.131650401e-14 0 0)
(6.498659278e-14 0 0)
(5.847152177e-14 0 0)
(4.881469949e-14 0 0)
(3.63054838e-14 0 0)
(1.863228588e-14 0 0)
(-5.445547586e-15 0 0)
(-2.680412621e-14 0 0)
(-4.116120552e-14 0 0)
(-5.110284574e-14 0 0)
(-5.429004565e-14 0 0)
(-5.122291458e-14 0 0)
(-5.020238601e-14 0 0)
(-5.239028864e-14 0 0)
(-4.974921673e-14 0 0)
(-4.883145587e-14 0 0)
(-4.8000317e-14 0 0)
(-4.236520224e-14 0 0)
(-2.562948429e-14 0 0)
(1.1270285e-15 0 0)
(3.996357144e-14 0 0)
(6.252639264e-14 0 0)
(7.533587712e-14 0 0)
(7.999558841e-14 0 0)
(8.22633971e-14 0 0)
(7.837899269e-14 0 0)
(6.8171242e-14 0 0)
(5.446478872e-14 0 0)
(3.412281394e-14 0 0)
(9.73159827e-15 0 0)
(-1.515669738e-14 0 0)
(-4.119140344e-14 0 0)
(-5.517345131e-14 0 0)
(-6.25411269e-14 0 0)
(-6.317678413e-14 0 0)
(-6.169920838e-14 0 0)
(-4.938427211e-14 0 0)
(-3.256655913e-14 0 0)
(-1.109223833e-14 0 0)
(4.152629285e-15 0 0)
(1.464930249e-14 0 0)
(1.65519756e-14 0 0)
(1.589903702e-14 0 0)
(1.216940276e-14 0 0)
(-5.928341535e-16 0 0)
(-2.336302698e-14 0 0)
(-4.390505966e-14 0 0)
(-6.980750094e-14 0 0)
(-8.488945839e-14 0 0)
(-9.23598851e-14 0 0)
(-9.553519127e-14 0 0)
(-9.506853189e-14 0 0)
(-9.356055353e-14 0 0)
(-9.196617205e-14 0 0)
(-8.871989655e-14 0 0)
(-8.828603396e-14 0 0)
(-8.273009455e-14 0 0)
(-7.39737435e-14 0 0)
(-5.893437224e-14 0 0)
(-3.280375884e-14 0 0)
(-1.553371849e-14 0 0)
(-3.593964883e-15 0 0)
(-2.425774192e-15 0 0)
(-5.781144113e-15 0 0)
(-8.012441611e-15 0 0)
(-7.074577857e-15 0 0)
(-6.819513714e-15 0 0)
(-1.358929578e-14 0 0)
(-1.914469139e-14 0 0)
(-2.064357227e-14 0 0)
(-2.000493576e-14 0 0)
(-1.402355714e-14 0 0)
(-1.536339857e-15 0 0)
(1.83339029e-14 0 0)
(4.429158913e-14 0 0)
(8.32073347e-14 0 0)
(1.097397703e-13 0 0)
(1.241988528e-13 0 0)
(1.261039877e-13 0 0)
(1.205500103e-13 0 0)
(1.134064357e-13 0 0)
(1.034002365e-13 0 0)
(9.991566679e-14 0 0)
(1.008659415e-13 0 0)
(1.02989653e-13 0 0)
(1.006615584e-13 0 0)
(9.826216463e-14 0 0)
(1.020814567e-13 0 0)
(1.057969828e-13 0 0)
(1.129834125e-13 0 0)
(1.175425905e-13 0 0)
(1.175845868e-13 0 0)
(1.139916739e-13 0 0)
(1.026264354e-13 0 0)
(9.124561899e-14 0 0)
(6.327841963e-14 0 0)
(2.644779336e-14 0 0)
(-1.939603827e-14 0 0)
(-9.138530065e-14 0 0)
(-1.337929777e-13 0 0)
(-1.337555169e-13 0 0)
(-1.233427328e-13 0 0)
(-1.173427592e-13 0 0)
(-7.803883988e-14 0 0)
(-1.045451158e-13 0 0)
(-9.20974785e-14 0 0)
(-1.059877696e-13 0 0)
(-1.375139732e-13 0 0)
(-1.428348659e-13 0 0)
(-1.107938886e-13 0 0)
(-6.051282703e-14 0 0)
(-2.110182375e-14 0 0)
(7.759675825e-15 0 0)
(1.867015176e-14 0 0)
(2.278483186e-14 0 0)
(2.153747438e-14 0 0)
(1.144597799e-14 0 0)
(6.495487943e-16 0 0)
(-1.509547641e-14 0 0)
(-1.718681293e-14 0 0)
(-1.487619001e-14 0 0)
(-1.210677363e-14 0 0)
(-1.089328511e-14 0 0)
(-1.768017163e-14 0 0)
(-3.774802149e-14 0 0)
(-5.560653642e-14 0 0)
(-6.298691881e-14 0 0)
(-6.327245861e-14 0 0)
(-6.32957409e-14 0 0)
(-5.962370438e-14 0 0)
(-5.794277639e-14 0 0)
(-5.29422235e-14 0 0)
(-4.168285857e-14 0 0)
(-2.70291542e-14 0 0)
(-1.043368421e-14 0 0)
(6.583649793e-15 0 0)
(2.199593663e-14 0 0)
(3.074546289e-14 0 0)
(3.66804576e-14 0 0)
(3.535596567e-14 0 0)
(2.757164519e-14 0 0)
(1.410194428e-14 0 0)
(-4.147214939e-15 0 0)
(-2.313215509e-14 0 0)
(-4.681488062e-14 0 0)
(-6.422201077e-14 0 0)
(-8.577996354e-14 0 0)
(-1.044155761e-13 0 0)
(-1.165497056e-13 0 0)
(-1.181975239e-13 0 0)
(-1.20958974e-13 0 0)
(-1.225312473e-13 0 0)
(-1.220773802e-13 0 0)
(-1.201303447e-13 0 0)
(-1.179419688e-13 0 0)
(-1.18926569e-13 0 0)
(-1.14648202e-13 0 0)
(-1.042132354e-13 0 0)
(-7.653826138e-14 0 0)
(-3.297416562e-14 0 0)
(1.717197728e-14 0 0)
(5.525007253e-14 0 0)
(8.325601127e-14 0 0)
(1.041414083e-13 0 0)
(1.164995197e-13 0 0)
(1.20180157e-13 0 0)
(1.187818439e-13 0 0)
(1.208605409e-13 0 0)
(1.251145698e-13 0 0)
(1.248448763e-13 0 0)
(1.227259232e-13 0 0)
(1.135703919e-13 0 0)
(9.524994424e-14 0 0)
(6.953715002e-14 0 0)
(4.128003619e-14 0 0)
(1.898523789e-14 0 0)
(2.291915797e-15 0 0)
(-9.756217148e-15 0 0)
(-1.571677688e-14 0 0)
(-2.785454296e-14 0 0)
(-4.375786904e-14 0 0)
(-5.297684747e-14 0 0)
(-6.228956332e-14 0 0)
(-7.139846637e-14 0 0)
(-8.11920906e-14 0 0)
(-9.191947414e-14 0 0)
(-1.020535805e-13 0 0)
(-1.055270376e-13 0 0)
(-1.106074415e-13 0 0)
(-1.096506268e-13 0 0)
(-1.049479194e-13 0 0)
(-9.504662876e-14 0 0)
(-7.257900524e-14 0 0)
(-3.039207862e-14 0 0)
(6.287514188e-15 0 0)
(4.497623152e-14 0 0)
(6.996833604e-14 0 0)
(9.041998996e-14 0 0)
(1.034179407e-13 0 0)
(1.114793339e-13 0 0)
(1.14428629e-13 0 0)
(1.186980348e-13 0 0)
(1.16402052e-13 0 0)
(1.104106641e-13 0 0)
(9.220679811e-14 0 0)
(5.824868069e-14 0 0)
(1.858498621e-14 0 0)
(-1.467122776e-14 0 0)
(-4.108428475e-14 0 0)
(-5.58495245e-14 0 0)
(-5.854010298e-14 0 0)
(-6.05310099e-14 0 0)
(-5.702102961e-14 0 0)
(-5.568350042e-14 0 0)
(-5.42065681e-14 0 0)
(-5.465283138e-14 0 0)
(-5.52329598e-14 0 0)
(-4.462198498e-14 0 0)
(-2.128192016e-14 0 0)
(4.992711512e-15 0 0)
(4.395754527e-14 0 0)
(6.993218149e-14 0 0)
(8.671079463e-14 0 0)
(9.754853461e-14 0 0)
(1.018436118e-13 0 0)
(9.597672395e-14 0 0)
(8.249082804e-14 0 0)
(6.198864592e-14 0 0)
(3.474434169e-14 0 0)
(1.35331134e-14 0 0)
(2.985414844e-15 0 0)
(6.207507746e-18 0 0)
(8.728946308e-16 0 0)
(3.920385505e-15 0 0)
(1.334925521e-14 0 0)
(3.079852433e-14 0 0)
(5.861141921e-14 0 0)
(8.891841411e-14 0 0)
(1.070548513e-13 0 0)
(1.199172188e-13 0 0)
(1.283385925e-13 0 0)
(1.291199579e-13 0 0)
(1.29176586e-13 0 0)
(1.254543658e-13 0 0)
(1.223833561e-13 0 0)
(1.202351616e-13 0 0)
(1.195330061e-13 0 0)
(1.148136062e-13 0 0)
(9.860701215e-14 0 0)
(7.249367719e-14 0 0)
(4.763914239e-14 0 0)
(1.653396345e-14 0 0)
(-3.06816159e-15 0 0)
(-1.491314164e-14 0 0)
(-1.882763656e-14 0 0)
(-2.489839084e-14 0 0)
(-2.690741663e-14 0 0)
(-2.720605736e-14 0 0)
(-2.170416419e-14 0 0)
(-1.382011238e-14 0 0)
(-4.998321608e-15 0 0)
(2.519335723e-15 0 0)
(8.184010779e-15 0 0)
(7.703637787e-15 0 0)
(-3.338763862e-15 0 0)
(-1.184778977e-14 0 0)
(-1.846110536e-14 0 0)
(-2.379625252e-14 0 0)