/*--------------------------------*- C++ -*----------------------------------*\
| =========                 |                                                 |
| \\      /  F ield         | OpenFOAM: The Open Source CFD Toolbox           |
|  \\    /   O peration     | Version:  3.0.1                                 |
|   \\  /    A nd           | Web:      www.OpenFOAM.org                      |
|    \\/     M anipulation  |                                                 |
\*---------------------------------------------------------------------------*/
FoamFile
{
    version     2.0;
    format      ascii;
    class       volScalarField;
    location    "0.0001";
    object      p;
}
// * * * * * * * * * * * * * * * * * * * * * * * * * * * * * * * * * * * * * //

dimensions      [1 -1 -2 0 0 0 0];

internalField   nonuniform List<scalar> 
1000
(
68970
68970
68970
68970
68970
68970
68970
68970
68970
68970
68970
68970
68970
68970
68970
68970
68970
68970
68970
68970
68970
68970
68970
68970
68970
68970
68970
68970
68970
68970
68970
68970
68970
68970
68970
68969.9
68958
68663.4
67383.7
65766.8
64671.4
64089.7
63839.2
63775.2
63740.2
63739.3
63748.1
63748.6
63747.4
63744
63744.3
63745.6
63746.8
63748.3
63747
63744.3
63745.2
63743.4
63669.2
63432.8
62819.6
61558.9
59877.2
59054
58971.2
58970
58970
58970
58970
58970
58970
58970
58970
58970
58970
58970
58970
58970
58970
58970
58970
58970
58970
58970
58970
58970
58970
58970
58970
58970
58970
58970
58970
58970
58970
58970
58970
58970
58970
58970
68970
68970
68970
68970
68970
68970
68970
68970
68970
68970
68970
68970
68970
68970
68970
68970
68970
68970
68970
68970
68970
68970
68970
68970
68970
68970
68970
68970
68970
68970
68970
68970
68970
68970
68970
68969.9
68958
68663.6
67383.8
65766.5
64670.9
64089.4
63839.1
63775.4
63740.6
63739.8
63748.7
63749
63747.7
63744.2
63744.4
63745.6
63746.7
63748.2
63746.8
63744.2
63745.1
63743.6
63669.6
63433.4
62820
61558.6
59876.5
59053.8
58971.2
58970
58970
58970
58970
58970
58970
58970
58970
58970
58970
58970
58970
58970
58970
58970
58970
58970
58970
58970
58970
58970
58970
58970
58970
58970
58970
58970
58970
58970
58970
58970
58970
58970
58970
58970
68970
68970
68970
68970
68970
68970
68970
68970
68970
68970
68970
68970
68970
68970
68970
68970
68970
68970
68970
68970
68970
68970
68970
68970
68970
68970
68970
68970
68970
68970
68970
68970
68970
68970
68970
68969.9
68957.8
68661.2
67378.8
65763.7
64670.5
64090.3
63840.5
63776.9
63742.2
63741.2
63749.7
63749.6
63747.9
63744.2
63744.4
63745.6
63746.8
63748.2
63746.7
63743.9
63744.5
63742.7
63668.5
63432.4
62819.9
61560.4
59878.9
59054.3
58971.2
58970
58970
58970
58970
58970
58970
58970
58970
58970
58970
58970
58970
58970
58970
58970
58970
58970
58970
58970
58970
58970
58970
58970
58970
58970
58970
58970
58970
58970
58970
58970
58970
58970
58970
58970
68970
68970
68970
68970
68970
68970
68970
68970
68970
68970
68970
68970
68970
68970
68970
68970
68970
68970
68970
68970
68970
68970
68970
68970
68970
68970
68970
68970
68970
68970
68970
68970
68970
68970
68970
68969.9
68957.6
68658.4
67373.2
65761.1
64671
64091.8
63842
63778.2
63743.8
63742.8
63750.9
63750.4
63748.4
63744.2
63744.4
63745.6
63746.8
63748.2
63746.6
63743.7
63744.2
63742.2
63667.9
63432
62820.3
61562.1
59880.7
59054.7
58971.2
58970
58970
58970
58970
58970
58970
58970
58970
58970
58970
58970
58970
58970
58970
58970
58970
58970
58970
58970
58970
58970
58970
58970
58970
58970
58970
58970
58970
58970
58970
58970
58970
58970
58970
58970
68970
68970
68970
68970
68970
68970
68970
68970
68970
68970
68970
68970
68970
68970
68970
68970
68970
68970
68970
68970
68970
68970
68970
68970
68970
68970
68970
68970
68970
68970
68970
68970
68970
68970
68970
68969.9
68957.5
68656.7
67369.7
65758.7
64669.9
64091.7
63842.5
63778.8
63744.4
63743.2
63751.2
63750.6
63748.7
63744.8
63745
63746.1
63747.3
63748.7
63747.1
63744.3
63744.7
63742.9
63668.7
63432.5
62819.9
61560.3
59878.7
59054.2
58971.2
58970
58970
58970
58970
58970
58970
58970
58970
58970
58970
58970
58970
58970
58970
58970
58970
58970
58970
58970
58970
58970
58970
58970
58970
58970
58970
58970
58970
58970
58970
58970
58970
58970
58970
58970
68970
68970
68970
68970
68970
68970
68970
68970
68970
68970
68970
68970
68970
68970
68970
68970
68970
68970
68970
68970
68970
68970
68970
68970
68970
68970
68970
68970
68970
68970
68970
68970
68970
68970
68970
68969.9
68957.4
68655.9
67368
65757.3
64669
64091.3
63842.3
63779.6
63744.6
63743.3
63751.4
63751.1
63749.5
63745.6
63745.7
63746.7
63747.7
63749.1
63747.7
63745.1
63745.8
63744.2
63670.1
63433.7
62820.1
61558.1
59876
59053.7
58971.2
58970
58970
58970
58970
58970
58970
58970
58970
58970
58970
58970
58970
58970
58970
58970
58970
58970
58970
58970
58970
58970
58970
58970
58970
58970
58970
58970
58970
58970
58970
58970
58970
58970
58970
58970
68970
68970
68970
68970
68970
68970
68970
68970
68970
68970
68970
68970
68970
68970
68970
68970
68970
68970
68970
68970
68970
68970
68970
68970
68970
68970
68970
68970
68970
68970
68970
68970
68970
68970
68970
68969.9
68957.4
68655.6
67367.5
65757
64668.9
64091.3
63842.5
63779.4
63743.8
63742.5
63751.1
63751.4
63750
63746.4
63746.4
63747.4
63748.2
63749.5
63748.1
63745.6
63746.2
63744.2
63669.9
63433.2
62819.5
61558.1
59876.2
59053.7
58971.2
58970
58970
58970
58970
58970
58970
58970
58970
58970
58970
58970
58970
58970
58970
58970
58970
58970
58970
58970
58970
58970
58970
58970
58970
58970
58970
58970
58970
58970
58970
58970
58970
58970
58970
58970
68970
68970
68970
68970
68970
68970
68970
68970
68970
68970
68970
68970
68970
68970
68970
68970
68970
68970
68970
68970
68970
68970
68970
68970
68970
68970
68970
68970
68970
68970
68970
68970
68970
68970
68970
68969.9
68957.4
68655.6
67367.7
65757.4
64669
64091.1
63842.1
63779
63743.5
63742.1
63750.9
63751.4
63750.3
63746.7
63746.7
63747.7
63748.6
63750
63748.5
63745.8
63746.3
63744.4
63669.9
63433
62818.8
61557
59875.4
59053.6
58971.2
58970
58970
58970
58970
58970
58970
58970
58970
58970
58970
58970
58970
58970
58970
58970
58970
58970
58970
58970
58970
58970
58970
58970
58970
58970
58970
58970
58970
58970
58970
58970
58970
58970
58970
58970
68970
68970
68970
68970
68970
68970
68970
68970
68970
68970
68970
68970
68970
68970
68970
68970
68970
68970
68970
68970
68970
68970
68970
68970
68970
68970
68970
68970
68970
68970
68970
68970
68970
68970
68970
68969.9
68957.4
68655.6
67368.1
65757.8
64669.1
64090.9
63841.7
63778.3
63743.3
63742
63751.2
63751.6
63750.5
63746.8
63746.9
63747.8
63748.7
63750.2
63748.7
63746.1
63746.7
63745
63670.7
63433.7
62819
61555.6
59873.6
59053.2
58971.2
58970
58970
58970
58970
58970
58970
58970
58970
58970
58970
58970
58970
58970
58970
58970
58970
58970
58970
58970
58970
58970
58970
58970
58970
58970
58970
58970
58970
58970
58970
58970
58970
58970
58970
58970
68970
68970
68970
68970
68970
68970
68970
68970
68970
68970
68970
68970
68970
68970
68970
68970
68970
68970
68970
68970
68970
68970
68970
68970
68970
68970
68970
68970
68970
68970
68970
68970
68970
68970
68970
68969.9
68957.4
68655.5
67367.6
65757.3
64669
64091.2
63842
63778.6
63743.7
63742.4
63751.7
63751.9
63750.8
63747
63747.1
63748
63749
63750.3
63748.8
63746.1
63746.5
63744.5
63669.9
63432.8
62818.5
61556.5
59875
59053.5
58971.2
58970
58970
58970
58970
58970
58970
58970
58970
58970
58970
58970
58970
58970
58970
58970
58970
58970
58970
58970
58970
58970
58970
58970
58970
58970
58970
58970
58970
58970
58970
58970
58970
58970
58970
58970
)
;

boundaryField
{
    sides1
    {
        type            zeroGradient;
    }
    sides2
    {
        type            slip;
    }
    empty
    {
        type            empty;
    }
}


// ************************************************************************* //
