/*--------------------------------*- C++ -*----------------------------------*\
| =========                 |                                                 |
| \\      /  F ield         | OpenFOAM: The Open Source CFD Toolbox           |
|  \\    /   O peration     | Version:  3.0.1                                 |
|   \\  /    A nd           | Web:      www.OpenFOAM.org                      |
|    \\/     M anipulation  |                                                 |
\*---------------------------------------------------------------------------*/
FoamFile
{
    version     2.0;
    format      ascii;
    class       surfaceScalarField;
    location    "0.0001";
    object      phi;
}
// * * * * * * * * * * * * * * * * * * * * * * * * * * * * * * * * * * * * * //

dimensions      [1 0 -1 0 0 0 0];

internalField   nonuniform List<scalar> 
1890
(
-5.20417e-17
-2.94903e-17
-5.20417e-17
-1.56125e-17
-6.245e-17
-8.67362e-18
-7.28584e-17
-1.56125e-17
-2.08167e-17
2.77556e-17
-1.73472e-17
-6.93889e-18
1.04083e-17
3.46945e-18
-4.16334e-17
0
1.04083e-17
-1.56125e-17
3.46945e-17
-1.04083e-17
-1.38778e-17
-2.25514e-17
-2.08167e-17
-2.94903e-17
-4.85723e-17
-4.16334e-17
-8.67362e-17
-1.56125e-17
-3.1225e-17
6.93889e-18
-3.81639e-17
5.20417e-18
-2.08167e-17
2.08167e-17
1.73472e-17
1.73472e-17
-3.46945e-18
-3.46945e-18
6.93889e-18
-2.08167e-17
-5.89806e-17
-1.04083e-17
-5.89806e-17
1.38778e-17
-6.93889e-17
4.51028e-17
2.42861e-17
4.16334e-17
-1.38778e-17
1.21431e-17
-2.42861e-17
4.16334e-17
-3.46945e-17
3.29597e-17
-4.16334e-17
5.20417e-18
-6.93889e-18
1.73472e-17
-5.20417e-17
3.46945e-18
-3.81639e-17
1.21431e-17
-6.93889e-18
1.38778e-17
1.66533e-15
1.21431e-17
8.30266e-13
-7.45931e-17
3.66417e-10
-2.65794e-14
1.00249e-07
-5.49627e-12
1.34541e-05
-4.89979e-10
0.000249741
-1.85943e-09
0.000848975
5.00418e-08
0.00134172
1.14007e-07
0.00161721
1.65968e-07
0.0017416
1.65986e-07
0.00178559
8.29429e-08
0.00179351
4.18775e-08
0.00178943
9.69095e-08
0.00179246
8.47093e-08
0.00179611
8.27625e-08
0.0017962
4.09189e-08
0.00179113
8.94273e-09
0.00177987
-2.71193e-08
0.00176119
-4.76165e-08
0.00174019
-5.80647e-08
0.00172303
-6.46965e-08
0.00171336
-6.93234e-08
0.00171185
-7.7726e-08
0.00171597
-8.89047e-08
0.00171559
-9.94818e-08
0.00170687
-1.26845e-07
0.00166699
-1.51477e-07
0.00153548
-1.37575e-07
0.00121283
-7.77701e-08
0.000608325
2.82009e-08
8.71886e-05
8.01473e-08
1.46952e-06
1.45276e-08
6.16446e-09
2.43799e-10
1.65852e-11
1.03837e-12
3.06543e-14
2.77989e-15
-6.76542e-17
7.80626e-18
-9.36751e-17
-1.9082e-17
-1.09288e-16
-1.73472e-18
-5.89806e-17
-7.80626e-18
1.9082e-17
1.47451e-17
-8.67362e-18
-5.20417e-18
-2.25514e-17
-5.20417e-18
-3.29597e-17
-4.33681e-18
-3.81639e-17
-6.07153e-18
1.56125e-17
1.12757e-17
-5.20417e-18
5.20417e-18
1.73472e-17
-6.93889e-18
-5.20417e-18
-3.55618e-17
-2.25514e-17
-4.85723e-17
3.1225e-17
-1.30104e-17
5.55112e-17
-1.82146e-17
1.56125e-17
-4.25007e-17
1.73472e-17
-2.86229e-17
-1.73472e-18
-2.08167e-17
5.89806e-17
6.07153e-18
5.89806e-17
-9.54098e-18
4.85723e-17
-2.94903e-17
-1.56125e-17
-2.86229e-17
-3.81639e-17
-4.33681e-17
-3.98986e-17
-2.68882e-17
-1.38778e-17
1.04083e-17
4.16334e-17
6.07153e-18
-3.29597e-17
-5.20417e-18
-2.42861e-17
-1.30104e-17
-4.16334e-17
-1.99493e-17
2.60209e-17
-6.07153e-18
4.68375e-17
-3.46945e-18
-1.21431e-17
-5.89806e-17
-3.64292e-17
-7.28584e-17
-5.20417e-17
-1.00614e-16
-3.46945e-17
-7.97973e-17
-4.16334e-17
-7.28584e-17
-5.20417e-18
-2.42861e-17
-2.25514e-17
-1.73472e-17
-1.21431e-17
-5.20417e-17
-8.67362e-18
6.93889e-18
-2.77556e-17
3.1225e-17
-2.42861e-17
6.93889e-18
-2.60209e-17
-4.85723e-17
-2.25514e-17
-3.46945e-18
-2.42861e-17
1.38778e-17
6.93889e-18
-3.46945e-18
-1.9082e-17
1.04083e-17
1.73472e-18
-3.1225e-17
-1.21431e-17
-1.73472e-17
5.20417e-18
-3.81639e-17
-6.93889e-18
-3.1225e-17
-4.51028e-17
-2.08167e-17
-5.0307e-17
-1.73472e-17
-2.08167e-17
-7.63278e-17
-1.56125e-17
-1.38778e-17
1.04083e-17
-1.38778e-17
-2.42861e-17
-6.59195e-17
-1.73472e-18
-7.97973e-17
-1.56125e-17
-7.28584e-17
-6.93889e-18
-3.81639e-17
1.04083e-17
-1.73472e-17
-3.29597e-17
-2.77556e-17
5.20417e-18
-4.16334e-17
3.46945e-18
1.59595e-15
-1.9082e-17
8.27803e-13
4.52763e-16
3.65595e-10
1.84811e-13
1.00057e-07
5.41851e-11
1.34343e-05
7.45885e-09
0.000249495
1.51077e-07
0.000848478
4.81584e-07
0.00134117
5.12631e-07
0.00161668
3.89704e-07
0.00174119
2.11816e-07
0.00178533
-8.45199e-09
0.00179332
-1.14844e-07
0.00178935
-3.00919e-08
0.00179245
-1.45987e-09
0.00179616
-1.51929e-09
0.00179633
-3.22841e-08
0.00179128
-5.60512e-08
0.00178005
-9.523e-08
0.00176138
-1.10097e-07
0.00174037
-1.03916e-07
0.00172319
-8.92022e-08
0.00171343
-6.33287e-08
0.00171183
-4.62069e-08
0.00171589
-3.61896e-08
0.00171545
-3.36524e-08
0.00170659
-2.49344e-08
0.00166653
-6.13658e-08
0.00153482
-1.10191e-07
0.001212
-2.08332e-07
0.000607495
-2.89089e-07
8.69496e-05
-2.03518e-07
1.46346e-06
-3.01965e-08
6.13644e-09
-4.98426e-10
1.65032e-11
-2.04551e-12
3.04704e-14
-5.47999e-15
-1.04083e-17
1.73472e-18
-7.11237e-17
-2.08167e-17
-9.36751e-17
-4.59702e-17
-3.98986e-17
-1.73472e-17
-2.42861e-17
-1.99493e-17
-1.21431e-17
-1.56125e-17
-5.20417e-17
-9.54098e-18
-6.245e-17
-1.12757e-17
-2.94903e-17
-7.80626e-18
-2.94903e-17
-2.1684e-17
2.77556e-17
-2.08167e-17
3.46945e-18
-2.60209e-17
-3.64292e-17
-3.03577e-17
3.64292e-17
-1.47451e-17
2.60209e-17
-1.64799e-17
2.42861e-17
-2.25514e-17
5.55112e-17
-2.08167e-17
2.08167e-17
-2.25514e-17
3.64292e-17
-9.54098e-18
1.04083e-17
-2.86229e-17
5.55112e-17
-2.60209e-17
5.89806e-17
-3.81639e-17
1.73472e-17
-3.55618e-17
1.73472e-17
-3.55618e-17
2.42861e-17
-2.1684e-17
-3.98986e-17
-3.38271e-17
-3.64292e-17
-3.38271e-17
-2.77556e-17
-8.67362e-19
-2.42861e-17
5.20417e-18
-3.1225e-17
3.46945e-18
-4.33681e-17
-6.93889e-18
-3.64292e-17
-1.73472e-17
-1.12757e-17
-2.42861e-17
-2.25514e-17
-5.20417e-17
-7.45931e-17
-1.00614e-16
-7.28584e-17
-3.46945e-17
-2.25514e-17
-2.08167e-17
-1.21431e-17
-1.04083e-17
1.73472e-18
3.81639e-17
6.93889e-18
-6.59195e-17
-6.93889e-18
-3.46945e-17
0
-2.42861e-17
-1.21431e-17
-3.81639e-17
-1.56125e-17
2.77556e-17
-2.60209e-17
4.85723e-17
-3.29597e-17
-3.46945e-18
-1.38778e-17
-2.08167e-17
4.16334e-17
2.08167e-17
1.9082e-17
-1.73472e-17
-4.33681e-17
-3.46945e-18
-4.33681e-17
-5.55112e-17
-2.42861e-17
-2.08167e-17
-2.77556e-17
1.04083e-17
-2.94903e-17
4.51028e-17
1.73472e-18
7.28584e-17
1.56125e-17
-2.42861e-17
1.9082e-17
6.93889e-18
-1.38778e-17
-2.42861e-17
-1.56125e-17
-6.245e-17
-3.46945e-18
-3.1225e-17
-1.38778e-17
-9.36751e-17
-1.56125e-17
-9.71445e-17
-2.08167e-17
-7.97973e-17
-2.77556e-17
7.28584e-17
-4.51028e-17
1.63064e-15
-8.67362e-18
8.47725e-13
2.498e-16
3.73546e-10
1.46362e-13
1.0208e-07
4.89094e-11
1.36345e-05
7.1953e-09
0.000251336
1.62296e-07
0.000850939
5.88037e-07
0.00134283
7.52285e-07
0.00161773
6.3346e-07
0.00174194
3.35948e-07
0.00178596
5.35258e-09
0.0017939
-1.71891e-07
0.00178999
-1.26722e-07
0.00179308
-9.33897e-08
0.00179667
-8.05957e-08
0.00179685
-1.07634e-07
0.00179173
-1.18117e-07
0.00178051
-1.79421e-07
0.00176185
-1.8418e-07
0.00174088
-1.70924e-07
0.00172373
-1.44866e-07
0.00171397
-1.1206e-07
0.00171238
-8.42183e-08
0.00171646
-5.76036e-08
0.00171598
-3.76204e-08
0.00170712
-2.80045e-08
0.00166715
-4.12027e-08
0.00153566
-6.89704e-08
0.00121326
-1.27143e-07
0.000609086
-1.59859e-07
8.74936e-05
-1.10822e-07
1.47868e-06
-1.61326e-08
6.20744e-09
-2.62093e-10
1.6715e-11
-1.03252e-12
3.0911e-14
-2.74e-15
9.19403e-17
-6.59195e-17
-1.38778e-17
-6.245e-17
-5.55112e-17
-2.25514e-17
-4.51028e-17
8.67362e-19
-5.89806e-17
-1.99493e-17
-1.73472e-17
-1.21431e-17
-3.46945e-17
-2.42861e-17
-2.25514e-17
-1.21431e-17
-2.60209e-17
7.80626e-18
-1.04083e-17
-9.54098e-18
-1.73472e-17
0
6.93889e-18
-2.60209e-18
5.20417e-18
-3.46945e-18
2.42861e-17
-1.21431e-17
-6.93889e-18
4.33681e-18
0
1.04083e-17
5.20417e-17
-8.67362e-19
3.46945e-17
-2.42861e-17
2.77556e-17
-1.64799e-17
1.04083e-17
-1.38778e-17
2.77556e-17
8.67362e-18
4.16334e-17
-1.04083e-17
1.21431e-17
-2.60209e-17
7.80626e-17
-3.20924e-17
1.56125e-17
-5.46438e-17
8.67362e-18
-2.86229e-17
-1.73472e-18
-3.72966e-17
-7.63278e-17
-2.34188e-17
-5.37764e-17
-2.34188e-17
-5.0307e-17
-3.20924e-17
-6.93889e-18
-1.99493e-17
-2.42861e-17
9.54098e-18
-3.46945e-18
-2.08167e-17
-7.80626e-17
-2.08167e-17
-4.16334e-17
1.38778e-17
-4.33681e-17
0
-4.85723e-17
4.16334e-17
-2.42861e-17
4.51028e-17
-3.1225e-17
1.38778e-17
-1.38778e-17
-3.46945e-18
-1.38778e-17
-1.21431e-16
-2.42861e-17
-3.81639e-17
-1.73472e-18
-3.46945e-17
-3.29597e-17
6.93889e-18
-2.77556e-17
2.77556e-17
5.20417e-18
-1.04083e-17
-1.56125e-17
1.73472e-17
-3.29597e-17
-2.42861e-17
-3.98986e-17
2.77556e-17
-3.1225e-17
-6.93889e-18
-4.16334e-17
3.46945e-18
-1.9082e-17
-1.04083e-17
-2.60209e-17
3.46945e-18
-1.21431e-17
6.245e-17
1.56125e-17
5.89806e-17
-2.42861e-17
-2.08167e-17
-1.21431e-17
-4.85723e-17
-8.67362e-18
-3.1225e-17
1.04083e-17
-7.97973e-17
-5.20417e-18
-5.55112e-17
-2.60209e-17
-3.1225e-17
1.9082e-17
-4.51028e-17
-1.21431e-17
-1.11022e-16
-2.60209e-17
-4.16334e-17
-1.21431e-17
1.66533e-15
-1.21431e-17
8.70786e-13
8.32667e-17
3.82944e-10
5.85886e-14
1.04462e-07
2.11546e-11
1.38669e-05
3.14497e-09
0.000253354
7.68356e-08
0.000853419
3.13605e-07
0.00134445
4.76942e-07
0.00161898
5.13156e-07
0.00174303
3.86534e-07
0.00178684
2.35177e-07
0.0017946
1.65374e-07
0.00179073
-9.67874e-08
0.00179379
-1.78812e-07
0.00179724
-2.69498e-07
0.00179733
-3.15095e-07
0.00179219
-3.73125e-07
0.00178086
-2.59709e-07
0.00176218
-2.56016e-07
0.00174125
-2.47429e-07
0.00172415
-2.16306e-07
0.00171441
-1.84497e-07
0.00171284
-1.47594e-07
0.00171695
-1.24301e-07
0.00171645
-8.24839e-08
0.00170759
-5.0677e-08
0.00166764
6.83561e-09
0.00153626
6.3629e-08
0.00121411
1.43036e-07
0.000610172
1.87397e-07
8.78727e-05
1.28561e-07
1.48937e-06
1.85689e-08
6.25607e-09
3.02672e-10
1.68585e-11
1.19846e-12
3.13465e-14
3.02189e-15
4.33681e-17
-3.72966e-17
-1.04083e-17
-2.60209e-18
-2.08167e-17
-3.20924e-17
-3.81639e-17
-1.47451e-17
-2.94903e-17
-1.38778e-17
-1.38778e-17
-1.47451e-17
-3.81639e-17
-2.60209e-18
6.93889e-18
-3.1225e-17
-1.56125e-17
4.33681e-18
1.38778e-17
0
-2.77556e-17
-3.46945e-18
1.9082e-17
3.46945e-18
-1.38778e-17
8.67362e-19
2.77556e-17
3.46945e-18
8.67362e-18
-1.47451e-17
-1.73472e-18
-1.12757e-17
3.1225e-17
2.25514e-17
5.72459e-17
-1.12757e-17
2.25514e-17
-7.80626e-18
3.29597e-17
4.33681e-18
3.46945e-18
-5.20417e-18
-1.04083e-17
1.73472e-18
-3.46945e-18
-1.21431e-17
3.64292e-17
-1.9082e-17
1.38778e-17
-3.03577e-17
8.67362e-18
-1.04083e-17
5.55112e-17
-2.42861e-17
-1.56125e-17
-3.64292e-17
-2.60209e-17
-1.9082e-17
-1.73472e-18
-5.20417e-18
1.9082e-17
-2.86229e-17
-5.20417e-18
-1.73472e-18
-2.34188e-17
-6.93889e-18
5.20417e-18
0
-5.20417e-18
5.20417e-17
-3.46945e-18
3.1225e-17
5.20417e-18
3.1225e-17
6.93889e-18
3.1225e-17
-5.20417e-18
2.08167e-17
-3.46945e-18
-3.1225e-17
-1.9082e-17
-7.63278e-17
0
-5.55112e-17
-6.93889e-18
-4.51028e-17
2.60209e-17
2.77556e-17
-6.93889e-18
1.04083e-17
1.73472e-18
-4.85723e-17
-5.20417e-18
1.04083e-17
1.21431e-17
-1.73472e-17
-2.77556e-17
0
-1.38778e-17
1.38778e-17
-1.21431e-17
2.08167e-17
-2.25514e-17
-2.08167e-17
-3.81639e-17
2.77556e-17
-2.25514e-17
2.42861e-17
3.46945e-18
3.1225e-17
-3.46945e-18
-6.93889e-18
-8.67362e-18
-5.89806e-17
-1.9082e-17
-6.59195e-17
-3.29597e-17
-8.32667e-17
5.20417e-18
-8.67362e-17
3.46945e-18
-5.89806e-17
-8.67362e-18
-1.07553e-16
8.67362e-18
-1.73472e-17
-1.38778e-17
6.93889e-17
-1.73472e-17
1.7833e-15
-1.21431e-17
8.84556e-13
6.245e-17
3.88603e-10
2.47389e-14
1.05885e-07
9.32287e-12
1.40011e-05
1.47024e-09
0.000254432
3.6204e-08
0.000854565
1.41612e-07
0.00134508
2.36441e-07
0.00161938
2.96007e-07
0.00174328
4.0247e-07
0.00178706
3.66215e-07
0.00179477
4.36589e-07
0.0017909
-2.02724e-07
0.00179391
-2.18887e-07
0.00179734
-3.3872e-07
0.0017974
-3.87782e-07
0.00179217
-4.12252e-07
0.00178087
-3.6944e-07
0.00176216
-3.25817e-07
0.00174116
-2.85701e-07
0.001724
-2.40361e-07
0.00171421
-2.08924e-07
0.00171259
-1.62905e-07
0.00171665
-1.26015e-07
0.00171613
-6.41677e-08
0.00170723
-3.14709e-08
0.00166722
4.9471e-08
0.00153569
1.29962e-07
0.00121325
2.56656e-07
0.000608998
3.51331e-07
8.74523e-05
2.48872e-07
1.47738e-06
3.5659e-08
6.20111e-09
5.86718e-10
1.66955e-11
2.39263e-12
3.10758e-14
6.37424e-15
2.60209e-17
-3.46945e-18
-4.68375e-17
-1.73472e-18
-1.38778e-17
7.80626e-18
-1.73472e-17
-1.73472e-18
-3.1225e-17
-1.73472e-18
-2.42861e-17
1.12757e-17
0
1.38778e-17
4.68375e-17
-2.60209e-18
-2.08167e-17
1.47451e-17
-1.21431e-17
-1.30104e-17
-1.04083e-17
-9.54098e-18
6.93889e-18
-1.12757e-17
-2.25514e-17
-5.20417e-18
-4.16334e-17
-7.80626e-18
1.21431e-17
-2.51535e-17
3.98986e-17
-1.99493e-17
1.21431e-17
-1.21431e-17
7.28584e-17
1.64799e-17
2.94903e-17
2.60209e-18
-1.38778e-17
-9.54098e-18
3.29597e-17
1.73472e-18
-4.68375e-17
-1.82146e-17
-4.33681e-17
-1.47451e-17
4.85723e-17
6.07153e-18
-5.20417e-18
-1.12757e-17
3.81639e-17
-2.42861e-17
2.60209e-17
-3.20924e-17
1.21431e-17
-1.73472e-17
-3.81639e-17
-2.51535e-17
-1.38778e-17
-1.56125e-17
6.245e-17
6.07153e-18
2.25514e-17
-1.47451e-17
-9.54098e-18
1.38778e-17
1.9082e-17
4.85723e-17
2.25514e-17
7.97973e-17
3.46945e-18
4.16334e-17
-1.73472e-17
6.93889e-18
1.21431e-17
3.1225e-17
2.25514e-17
-1.38778e-17
-5.20417e-18
-3.46945e-18
1.73472e-18
-6.245e-17
-1.56125e-17
-1.73472e-17
2.42861e-17
1.38778e-17
8.67362e-18
2.42861e-17
-2.60209e-17
4.51028e-17
5.20417e-18
-3.81639e-17
3.46945e-18
-6.245e-17
2.25514e-17
-7.97973e-17
5.20417e-18
-5.89806e-17
1.21431e-17
-4.85723e-17
1.56125e-17
5.55112e-17
1.56125e-17
9.71445e-17
4.16334e-17
2.42861e-17
0
1.04083e-17
-6.93889e-18
1.04083e-17
3.46945e-18
-1.73472e-17
1.73472e-18
-5.89806e-17
6.93889e-18
-1.73472e-17
3.46945e-18
-1.73472e-17
1.04083e-17
-6.93889e-17
-1.73472e-18
-3.81639e-17
3.98986e-17
-3.81639e-17
3.1225e-17
-8.67362e-17
2.77556e-17
-4.51028e-17
1.9082e-17
1.59942e-15
3.46945e-18
8.9034e-13
1.43982e-16
3.91256e-10
1.23998e-14
1.06585e-07
3.14376e-12
1.40672e-05
4.04182e-10
0.000254952
1.08684e-08
0.000855074
4.66867e-08
0.00134525
1.84272e-07
0.00161936
2.48353e-07
0.00174325
3.49788e-07
0.001787
4.82077e-07
0.00179489
4.49969e-07
0.00179087
-1.22758e-07
0.00179382
-1.85597e-07
0.00179729
-2.85425e-07
0.00179739
-3.70583e-07
0.0017922
-3.68311e-07
0.00178088
-3.82249e-07
0.00176208
-3.34957e-07
0.00174095
-2.33254e-07
0.00172369
-1.61885e-07
0.00171388
-1.67462e-07
0.00171222
-9.65947e-08
0.00171624
-2.05182e-08
0.00171574
5.2962e-08
0.00170679
1.18108e-07
0.00166664
1.91466e-07
0.00153484
1.94766e-07
0.00121191
1.42928e-07
0.000607251
7.34484e-08
8.68441e-05
-3.7164e-10
1.46019e-06
-4.24506e-09
6.12077e-09
-8.20988e-11
1.64547e-11
-4.07851e-13
3.06647e-14
-1.37737e-15
1.21431e-17
6.93889e-18
6.93889e-18
9.54098e-18
-4.16334e-17
-1.38778e-17
-2.77556e-17
-7.80626e-18
3.46945e-18
-5.20417e-18
-1.9082e-17
-2.1684e-17
-2.08167e-17
9.54098e-18
3.46945e-18
-2.1684e-17
-5.20417e-17
8.67362e-19
6.245e-17
-1.12757e-17
5.20417e-18
-1.30104e-17
-3.46945e-18
-1.12757e-17
-1.56125e-17
-3.46945e-18
0
1.04083e-17
-1.04083e-17
1.12757e-17
3.29597e-17
8.67362e-19
6.93889e-17
-3.46945e-18
2.42861e-17
-2.34188e-17
0
-5.20417e-18
3.46945e-17
-6.07153e-18
-5.37764e-17
-3.46945e-18
-4.68375e-17
9.54098e-18
-1.9082e-17
3.46945e-18
2.94903e-17
2.86229e-17
2.94903e-17
2.94903e-17
4.33681e-17
3.46945e-18
0
2.34188e-17
-3.98986e-17
1.47451e-17
-2.42861e-17
1.38778e-17
-2.08167e-17
1.12757e-17
8.67362e-18
6.93889e-18
1.56125e-17
-8.67362e-19
3.20924e-17
5.55112e-17
2.25514e-17
5.55112e-17
1.21431e-17
6.59195e-17
1.56125e-17
6.245e-17
2.60209e-17
1.73472e-17
2.77556e-17
-1.04083e-17
1.9082e-17
-3.46945e-17
-8.67362e-18
-3.46945e-17
-1.73472e-18
1.73472e-17
3.46945e-18
-4.51028e-17
-2.77556e-17
-6.245e-17
1.56125e-17
-2.08167e-17
2.77556e-17
3.46945e-18
2.60209e-17
-4.85723e-17
-3.46945e-18
-5.20417e-17
1.38778e-17
-3.46945e-17
1.38778e-17
-4.51028e-17
-6.93889e-18
-7.28584e-17
1.9082e-17
-1.04083e-17
2.08167e-17
5.55112e-17
1.56125e-17
2.08167e-17
-2.77556e-17
5.89806e-17
-2.25514e-17
1.38778e-17
-3.64292e-17
1.38778e-17
-3.46945e-17
1.38778e-17
-8.67362e-18
-4.85723e-17
1.73472e-18
0
2.94903e-17
1.73472e-17
1.73472e-17
-7.63278e-17
-6.93889e-18
-1.00614e-16
8.67362e-18
-1.31839e-16
2.77556e-17
-6.93889e-17
4.51028e-17
1.60982e-15
6.07153e-17
8.92567e-13
4.68375e-17
3.92278e-10
2.0383e-15
1.06852e-07
1.53238e-12
1.40891e-05
2.89263e-10
0.000255058
9.60772e-09
0.000855039
1.93099e-08
0.0013451
4.12459e-08
0.00161912
1.12808e-07
0.00174301
2.12615e-07
0.00178699
3.27747e-07
0.00179497
3.52864e-07
0.00179075
7.60364e-08
0.00179365
-1.49032e-08
0.00179723
-2.23469e-07
0.00179733
-2.96223e-07
0.00179223
-3.15436e-07
0.00178091
-3.06844e-07
0.00176208
-2.74387e-07
0.00174093
-2.22275e-07
0.00172372
-1.5703e-07
0.00171391
-1.17511e-07
0.0017123
-7.67141e-08
0.00171641
-3.83038e-08
0.00171595
1.98574e-08
0.0017071
4.04502e-08
0.00166708
1.06623e-07
0.00153537
1.75122e-07
0.00121247
1.52363e-07
0.000607739
8.92419e-08
8.69651e-05
3.55025e-08
1.46298e-06
3.3577e-09
6.13375e-09
5.07388e-11
1.6495e-11
1.75364e-13
3.06109e-14
3.6169e-16
4.51028e-17
2.60209e-17
-3.1225e-17
-1.56125e-17
-3.29597e-17
1.64799e-17
8.67362e-18
2.94903e-17
-1.21431e-17
1.38778e-17
1.73472e-18
2.60209e-18
-4.16334e-17
-6.07153e-18
2.94903e-17
1.38778e-17
-8.67362e-18
2.1684e-17
5.89806e-17
3.64292e-17
-3.46945e-18
3.46945e-17
3.46945e-18
9.54098e-18
6.93889e-18
-3.46945e-18
-3.46945e-17
1.38778e-17
-2.42861e-17
1.82146e-17
1.04083e-17
1.64799e-17
2.60209e-17
2.60209e-18
4.33681e-17
-1.04083e-17
-1.73472e-17
-3.46945e-18
-2.08167e-17
6.07153e-18
-6.93889e-18
1.47451e-17
6.93889e-18
8.67362e-19
-5.20417e-18
1.99493e-17
8.67362e-18
1.99493e-17
0
1.73472e-18
6.93889e-18
6.93889e-18
1.21431e-17
1.12757e-17
1.21431e-17
1.12757e-17
-3.29597e-17
6.07153e-18
-8.67362e-18
2.77556e-17
8.67362e-18
1.82146e-17
4.16334e-17
9.54098e-18
-1.99493e-17
6.93889e-18
8.67362e-18
1.04083e-17
8.67362e-18
3.46945e-18
3.46945e-18
1.73472e-17
-2.25514e-17
6.93889e-18
1.73472e-18
1.38778e-17
1.21431e-17
-1.73472e-17
-3.46945e-18
3.1225e-17
4.33681e-17
2.08167e-17
2.08167e-17
2.08167e-17
1.38778e-17
-6.93889e-18
1.38778e-17
3.46945e-18
3.1225e-17
3.1225e-17
5.0307e-17
-1.73472e-17
1.73472e-17
-6.93889e-18
4.85723e-17
3.46945e-18
4.33681e-17
-2.42861e-17
2.94903e-17
-2.42861e-17
3.1225e-17
-6.93889e-18
8.67362e-18
-1.04083e-17
8.67362e-18
3.1225e-17
-1.21431e-17
1.73472e-17
-4.16334e-17
-1.04083e-17
-1.73472e-17
-1.38778e-17
8.67362e-18
0
1.38778e-17
-3.46945e-17
1.38778e-17
-2.77556e-17
1.73472e-18
-2.42861e-17
2.42861e-17
-3.1225e-17
1.04083e-17
-1.73472e-17
3.29597e-17
-4.16334e-17
3.1225e-17
-8.32667e-17
2.60209e-17
1.55084e-15
5.37764e-17
8.91887e-13
-1.04083e-16
3.92354e-10
-1.22541e-14
1.06968e-07
5.83122e-13
1.4097e-05
9.90262e-11
0.000254951
3.12508e-10
0.000854508
-7.92427e-09
0.00134447
6.59299e-09
0.00161855
4.95475e-08
0.00174252
1.03968e-07
0.00178656
1.46088e-07
0.00179455
1.92486e-07
0.00179044
1.26454e-07
0.00179361
6.41213e-08
0.00179728
-5.68631e-08
0.00179744
-1.30373e-07
0.00179239
-1.67989e-07
0.00178102
-1.91285e-07
0.00176215
-1.95549e-07
0.00174097
-1.8519e-07
0.00172374
-1.47292e-07
0.00171396
-1.10368e-07
0.00171236
-6.32977e-08
0.00171647
-5.94137e-08
0.001716
-1.92433e-08
0.00170712
-2.75912e-08
0.00166709
-1.23041e-08
0.00153534
3.8638e-08
0.0012123
1.35688e-07
0.000607447
2.09626e-07
8.6858e-05
1.78505e-07
1.45993e-06
2.80167e-08
6.12067e-09
4.63854e-10
1.64572e-11
1.96515e-12
3.03611e-14
5.56239e-15
9.71445e-17
-1.30104e-17
2.25514e-17
1.56125e-17
-5.20417e-18
1.12757e-17
-6.93889e-18
5.20417e-18
-1.21431e-17
0
1.73472e-18
1.82146e-17
-5.20417e-18
4.16334e-17
-3.46945e-18
2.86229e-17
3.46945e-18
1.56125e-17
-2.60209e-17
2.1684e-17
-4.51028e-17
1.12757e-17
-4.33681e-17
1.82146e-17
1.04083e-17
2.94903e-17
-2.42861e-17
2.68882e-17
1.38778e-17
3.29597e-17
1.56125e-17
2.08167e-17
1.73472e-17
2.08167e-17
1.56125e-17
1.30104e-17
2.08167e-17
4.33681e-18
8.67362e-18
-4.33681e-18
5.20417e-18
8.67362e-19
6.07153e-17
2.60209e-18
4.68375e-17
2.25514e-17
-1.9082e-17
2.42861e-17
1.04083e-17
4.59702e-17
-2.60209e-17
-2.60209e-18
1.73472e-18
1.04083e-17
2.77556e-17
7.80626e-18
1.73472e-18
-7.80626e-18
-3.64292e-17
-3.46945e-18
3.81639e-17
9.54098e-18
4.33681e-17
7.80626e-18
6.07153e-18
5.20417e-17
1.9082e-17
6.93889e-18
1.04083e-17
4.16334e-17
1.9082e-17
1.73472e-17
2.08167e-17
-1.04083e-17
2.42861e-17
-3.46945e-17
1.21431e-17
1.04083e-17
1.9082e-17
-2.42861e-17
1.38778e-17
-6.93889e-18
6.93889e-18
6.245e-17
3.98986e-17
2.77556e-17
2.42861e-17
1.04083e-17
4.51028e-17
1.38778e-17
5.89806e-17
7.63278e-17
1.73472e-17
-6.93889e-18
1.04083e-17
-1.38778e-17
1.21431e-17
-6.93889e-17
8.67362e-18
-9.36751e-17
8.67362e-18
-9.02056e-17
3.46945e-18
-7.97973e-17
1.21431e-17
-3.81639e-17
-3.46945e-18
1.04083e-17
-1.73472e-18
7.63278e-17
-2.25514e-17
5.55112e-17
1.73472e-18
4.51028e-17
6.93889e-18
-5.20417e-17
-6.93889e-18
-2.77556e-17
1.04083e-17
-9.36751e-17
1.38778e-17
-8.67362e-17
1.73472e-17
1.04083e-17
8.67362e-18
1.73472e-17
-1.04083e-17
6.93889e-18
-1.04083e-17
1.72432e-15
-3.46945e-18
8.89351e-13
6.07153e-17
3.92102e-10
1.4929e-14
1.07011e-07
-9.82102e-13
1.4097e-05
-1.40263e-10
0.000254808
6.30053e-09
0.000853912
5.37828e-08
0.00134375
7.47541e-08
0.0016179
5.62895e-08
0.001742
3.77019e-08
0.00178611
3.14714e-08
0.00179411
3.16834e-08
0.00179017
5.22437e-08
0.00179356
2.56358e-08
0.00179739
-6.26934e-09
0.0017977
-5.22931e-08
0.00179263
-7.67787e-08
0.0017812
-1.00367e-07
0.00176227
-1.06417e-07
0.00174104
-9.48203e-08
0.00172378
-6.27352e-08
0.00171395
-2.69094e-08
0.0017123
2.79467e-09
0.00171633
4.31323e-08
0.0017158
7.56531e-08
0.00170677
1.25184e-07
0.00166647
1.40908e-07
0.00153437
1.10191e-07
0.00121094
9.06159e-09
0.000605939
-1.47472e-07
8.63919e-05
-1.67753e-07
1.44758e-06
-2.7982e-08
6.06285e-09
-4.79669e-10
1.62837e-11
-2.07691e-12
3.00055e-14
-5.75061e-15
1.68268e-16
-4.59702e-17
1.04083e-16
-1.47451e-17
3.46945e-18
-1.9082e-17
-1.73472e-18
-1.30104e-17
2.42861e-17
0
4.68375e-17
5.20417e-18
-1.21431e-17
5.20417e-18
5.20417e-18
2.77556e-17
-3.46945e-18
2.1684e-17
-3.1225e-17
2.42861e-17
3.46945e-18
1.30104e-17
6.93889e-18
1.21431e-17
2.60209e-17
1.73472e-17
-5.20417e-18
1.82146e-17
-1.73472e-17
2.60209e-17
-2.42861e-17
1.99493e-17
-1.9082e-17
1.9082e-17
1.38778e-17
1.30104e-17
1.56125e-17
6.93889e-18
2.08167e-17
2.1684e-17
1.04083e-17
4.33681e-18
3.81639e-17
1.64799e-17
4.33681e-17
3.38271e-17
1.56125e-17
2.94903e-17
-6.76542e-17
9.54098e-18
6.93889e-18
2.68882e-17
-3.46945e-18
1.9082e-17
-1.04083e-17
2.68882e-17
-5.20417e-18
3.46945e-18
-2.08167e-17
-1.38778e-17
3.81639e-17
-2.60209e-18
1.73472e-18
7.80626e-18
2.34188e-17
-3.46945e-18
2.08167e-17
1.04083e-17
-2.08167e-17
-1.38778e-17
3.46945e-17
5.89806e-17
-6.93889e-18
1.38778e-17
-3.81639e-17
4.85723e-17
5.20417e-17
-3.81639e-17
-3.46945e-18
-3.46945e-17
-1.14492e-16
-5.20417e-17
-1.38778e-17
-2.42861e-17
-6.93889e-17
-3.81639e-17
-1.04083e-17
7.28584e-17
5.20417e-17
2.08167e-17
1.04083e-17
-5.20417e-17
-7.97973e-17
-1.2837e-16
4.16334e-17
2.42861e-17
4.51028e-17
1.79023e-15
8.91807e-13
3.92461e-10
1.07001e-07
1.40997e-05
0.000254984
0.000854493
0.00134429
0.00161825
0.00174216
0.00178615
0.00179407
0.00179018
0.00179359
0.00179747
0.00179785
0.00179276
0.00178132
0.00176238
0.00174117
0.00172392
0.00171408
0.00171245
0.00171655
0.00171605
0.00170716
0.00166709
0.00153528
0.00121218
0.00060725
8.67855e-05
1.4579e-06
6.11187e-09
1.64326e-11
3.03611e-14
1.96024e-16
6.93889e-17
3.64292e-17
4.85723e-17
6.41848e-17
5.20417e-17
1.73472e-18
5.20417e-18
-5.72459e-17
-6.41848e-17
-5.20417e-18
3.64292e-17
-1.73472e-18
6.93889e-18
-8.67362e-18
6.93889e-18
-2.60209e-17
-1.73472e-18
8.67362e-18
1.9082e-17
6.07153e-17
6.245e-17
5.72459e-17
-3.46945e-18
-4.51028e-17
-5.20417e-18
-8.67362e-18
-1.38778e-17
1.73472e-17
5.20417e-18
4.33681e-17
1.38778e-17
)
;

boundaryField
{
    sides1
    {
        type            calculated;
        value           nonuniform List<scalar> 
20
(
4.33681e-17
-3.46945e-17
-2.42861e-17
-1.73472e-18
0
1.9082e-17
1.9082e-17
1.14492e-16
4.68375e-17
2.60209e-17
-2.77556e-17
6.59195e-17
5.55112e-17
3.46945e-18
6.93889e-18
-3.46945e-17
-4.51028e-17
-2.42861e-17
-5.89806e-17
-5.20417e-17
)
;
    }
    sides2
    {
        type            calculated;
        value           uniform 0;
    }
    empty
    {
        type            empty;
        value           nonuniform 0();
    }
}


// ************************************************************************* //
