/*--------------------------------*- C++ -*----------------------------------*\
| =========                 |                                                 |
| \\      /  F ield         | OpenFOAM: The Open Source CFD Toolbox           |
|  \\    /   O peration     | Version:  2012                                  |
|   \\  /    A nd           | Website:  www.openfoam.com                      |
|    \\/     M anipulation  |                                                 |
\*---------------------------------------------------------------------------*/
FoamFile
{
    version     2.0;
    format      ascii;
    class       surfaceScalarField;
    location    "0.5";
    object      alphaPhi0.water;
}
// * * * * * * * * * * * * * * * * * * * * * * * * * * * * * * * * * * * * * //

dimensions      [0 3 -1 0 0 0 0];
oriented        oriented;


internalField   nonuniform List<scalar> 
4432
(
-3.79116e-06
3.79116e-06
-5.24143e-06
1.45027e-06
-3.1831e-06
-2.05833e-06
1.12805e-06
-4.31115e-06
6.66323e-06
-5.53518e-06
1.22728e-05
-5.60952e-06
1.70681e-05
-4.79536e-06
2.06472e-05
-3.57905e-06
2.30232e-05
-2.37608e-06
2.43973e-05
-1.37408e-06
2.49877e-05
-5.90327e-07
2.4927e-05
6.06377e-08
2.42248e-05
7.02242e-07
2.2827e-05
1.39773e-06
2.04895e-05
2.33755e-06
1.6771e-05
3.7185e-06
1.11829e-05
5.58808e-06
3.90635e-06
7.27655e-06
-2.41596e-06
6.57821e-06
-7.67945e-06
5.20909e-06
-1.46846e-05
6.89099e-06
-1.55237e-05
-6.12347e-07
-1.55262e-05
-4.06621e-06
7.85737e-06
-4.91023e-06
2.29429e-06
-2.689e-06
-4.27956e-06
1.60526e-06
-8.6054e-06
7.06556e-06
-1.09955e-05
1.26012e-05
-1.11452e-05
1.73132e-05
-9.50741e-06
2.08077e-05
-7.07348e-06
2.31239e-05
-4.6923e-06
2.44854e-05
-2.7356e-06
2.51298e-05
-1.23469e-06
2.52925e-05
-1.02093e-07
2.51797e-05
8.15091e-07
2.48877e-05
1.68968e-06
2.44433e-05
2.78191e-06
2.36489e-05
4.51298e-06
2.17746e-05
7.46232e-06
1.73014e-05
1.17498e-05
8.9741e-06
1.49055e-05
-2.02994e-06
1.69358e-05
-9.97232e-06
1.44133e-05
-9.08505e-06
-1.91143e-06
-2.46151e-05
-3.44804e-06
1.13054e-05
-3.99189e-06
2.83814e-06
-1.799e-06
-6.47245e-06
2.2482e-06
-1.26526e-05
7.4741e-06
-1.62214e-05
1.28449e-05
-1.65159e-05
1.73834e-05
-1.4046e-05
2.06808e-05
-1.03708e-05
2.28275e-05
-6.83906e-06
2.40929e-05
-4.00097e-06
2.47214e-05
-1.8632e-06
2.4876e-05
-2.56644e-07
2.46709e-05
1.02015e-06
2.41872e-05
2.17334e-06
2.35323e-05
3.43686e-06
2.29089e-05
5.13637e-06
2.2598e-05
7.77323e-06
2.20066e-05
1.23412e-05
1.87236e-05
1.81885e-05
1.13378e-05
2.42981e-05
1.98217e-06
2.30429e-05
-1.95419e-07
3.76456e-07
-2.48152e-05
-2.5476e-06
1.3853e-05
-2.66738e-06
2.95791e-06
-5.95795e-07
-8.54403e-06
2.95722e-06
-1.62056e-05
7.80228e-06
-2.10664e-05
1.29555e-05
-2.16691e-05
1.73014e-05
-1.83919e-05
2.03855e-05
-1.34549e-05
2.23518e-05
-8.8054e-06
2.35229e-05
-5.17204e-06
2.41565e-05
-2.49685e-06
2.44037e-05
-5.03838e-07
2.43472e-05
1.07666e-06
2.40262e-05
2.49438e-06
2.34675e-05
3.99549e-06
2.27567e-05
5.84718e-06
2.22085e-05
8.32145e-06
2.24354e-05
1.21143e-05
2.28561e-05
1.77678e-05
2.16098e-05
2.55444e-05
1.68468e-05
2.90304e-05
9.48872e-06
8.59386e-06
-1.53271e-05
-1.35681e-06
1.52098e-05
-7.80534e-07
2.38163e-06
1.10136e-06
-1.04259e-05
4.20986e-06
-1.93141e-05
8.53216e-06
-2.53887e-05
1.32287e-05
-2.63657e-05
1.71727e-05
-2.23359e-05
1.99332e-05
-1.62154e-05
2.17036e-05
-1.05758e-05
2.28163e-05
-6.28478e-06
2.35053e-05
-3.18584e-06
2.38892e-05
-8.87735e-07
2.40233e-05
9.42517e-07
2.39327e-05
2.58496e-06
2.36342e-05
4.29401e-06
2.31752e-05
6.30623e-06
2.26693e-05
8.82733e-06
2.25974e-05
1.21862e-05
2.36814e-05
1.66838e-05
2.56233e-05
2.36025e-05
2.52045e-05
2.9467e-05
1.61379e-05
1.76835e-05
8.09617e-07
1.58728e-07
1.50511e-05
1.98201e-06
5.58354e-07
4.18533e-06
-1.26292e-05
7.22399e-06
-2.23528e-05
1.0847e-05
-2.90117e-05
1.45069e-05
-3.00256e-05
1.74948e-05
-2.53238e-05
1.95861e-05
-1.83066e-05
2.10104e-05
-1.20001e-05
2.20421e-05
-7.31652e-06
2.28264e-05
-3.97008e-06
2.34034e-05
-1.46479e-06
2.37782e-05
5.67725e-07
2.39297e-05
2.43351e-06
2.38708e-05
4.35287e-06
2.36647e-05
6.5123e-06
2.34379e-05
9.05417e-06
2.33512e-05
1.2273e-05
2.3915e-05
1.61199e-05
2.60582e-05
2.14593e-05
2.72191e-05
2.83061e-05
1.91958e-05
2.57063e-05
1.99998e-05
2.47766e-06
1.25734e-05
5.88415e-06
-2.84813e-06
9.60413e-06
-1.63492e-05
1.30465e-05
-2.57952e-05
1.55421e-05
-3.15072e-05
1.73279e-05
-3.18114e-05
1.87188e-05
-2.67147e-05
1.98018e-05
-1.93896e-05
2.06967e-05
-1.2895e-05
2.1518e-05
-8.13781e-06
2.2301e-05
-4.75313e-06
2.30045e-05
-2.16825e-06
2.36059e-05
-3.36606e-08
2.40204e-05
2.01899e-06
2.42136e-05
4.1597e-06
2.4228e-05
6.49789e-06
2.42251e-05
9.05701e-06
2.43311e-05
1.2167e-05
2.45908e-05
1.58602e-05
2.58776e-05
2.01726e-05
2.7147e-05
2.70367e-05
2.16732e-05
3.11801e-05
4.16671e-05
4.7919e-06
7.78151e-06
1.10343e-05
-9.09055e-06
1.73107e-05
-2.2625e-05
2.09358e-05
-2.94185e-05
2.14777e-05
-3.20469e-05
2.07717e-05
-3.11037e-05
2.04061e-05
-2.63485e-05
2.0617e-05
-1.96003e-05
2.11529e-05
-1.34308e-05
2.18219e-05
-8.8068e-06
2.25325e-05
-5.46376e-06
2.32092e-05
-2.845e-06
2.37173e-05
-5.41676e-07
2.42016e-05
1.53468e-06
2.45262e-05
3.83503e-06
2.47519e-05
6.27226e-06
2.50038e-05
8.80513e-06
2.535e-05
1.18208e-05
2.5721e-05
1.54892e-05
2.64613e-05
1.94322e-05
2.72636e-05
2.62344e-05
2.3024e-05
3.54197e-05
6.46851e-05
6.52866e-07
-9.90932e-07
6.0946e-07
-2.25751e-07
5.83243e-07
-8.73206e-08
5.36772e-07
-3.71327e-08
2.95398e-07
1.67193e-07
1.38028e-08
2.59335e-07
2.33805e-10
1.33869e-08
-8.09127e-12
1.50349e-10
2.86926e-11
-4.60296e-11
1.73118e-11
7.76803e-13
-6.54012e-08
6.59539e-08
-1.53727e-06
1.33971e-06
-9.55932e-06
2.22513e-06
-5.3684e-05
1.46806e-06
-6.86632e-05
-6.15848e-06
-7.00015e-05
-1.68924e-05
-6.24811e-05
-4.2329e-05
-3.77095e-05
-7.84078e-05
-5.94163e-05
1.33991e-06
-3.1145e-06
1.49604e-06
-3.95794e-06
2.40048e-07
-4.33999e-07
4.58583e-08
-2.54507e-07
4.98974e-07
-2.18806e-07
2.84467e-07
5.12266e-07
8.21262e-09
3.15079e-07
5.64036e-10
7.61411e-09
9.94438e-10
-5.67905e-10
-3.7841e-08
3.94008e-08
-1.19011e-06
8.14173e-07
-7.49358e-06
2.50772e-06
-5.9971e-06
1.0739e-06
-2.52029e-06
-2.86311e-07
-7.88135e-06
-8.02134e-07
-2.52467e-05
-2.67331e-06
-5.65998e-05
-1.58695e-05
-3.94039e-05
-8.47709e-05
-9.80516e-05
4.63898e-06
-6.10614e-05
-4.75527e-07
-3.04254e-07
5.20911e-08
-4.9506e-08
2.11103e-07
-3.9499e-09
4.38174e-07
-1.62893e-09
6.6434e-07
2.07991e-07
3.5563e-08
5.90385e-07
1.59501e-10
3.5043e-08
-3.58289e-09
2.59833e-09
-2.88619e-07
3.26538e-07
-2.24804e-06
1.70294e-06
-1.6886e-06
2.15856e-07
-1.6798e-07
1.80493e-07
-4.16258e-07
-3.31631e-08
-1.06243e-06
-1.54139e-07
-3.01076e-06
-7.34746e-07
-1.33542e-05
-5.60179e-06
-3.91414e-05
-6.66246e-05
-0.000136459
-8.97893e-07
-7.47319e-05
-3.10091e-09
-1.20663e-06
4.13405e-09
-5.8383e-08
2.64331e-09
-3.58495e-09
2.76694e-09
-2.48474e-09
2.30485e-07
-1.27232e-08
1.16824e-07
3.15344e-07
-6.98033e-09
9.76088e-08
-1.49576e-07
1.24026e-07
-1.39173e-06
1.20107e-06
-1.78507e-06
2.33062e-06
-2.62747e-07
-5.12095e-08
-4.96784e-08
1.34253e-08
-7.30311e-08
-7.1986e-09
-1.98069e-07
-2.88458e-08
-7.53347e-07
-1.86724e-07
-4.313e-06
-2.0565e-06
-3.16575e-05
-4.07922e-05
-0.000167284
-4.45321e-06
-6.23893e-05
-1.19897e-07
-5.58799e-06
2.95932e-09
-1.83923e-07
2.54928e-09
-4.81696e-09
6.71161e-09
-2.20207e-09
6.77286e-08
-2.9323e-09
2.68996e-08
-9.26889e-09
-5.53106e-08
1.10587e-07
-8.9175e-07
1.01462e-06
-1.43238e-06
1.88619e-06
-1.17968e-06
2.11537e-06
-2.6909e-08
3.21798e-07
-9.1521e-09
-9.19101e-10
-8.34328e-09
-6.33464e-09
-3.27448e-08
-3.27392e-09
-2.02168e-07
-2.19531e-08
-1.73024e-06
-5.25863e-07
-2.24375e-05
-2.00002e-05
-0.0001877
-7.09171e-06
-6.06486e-05
-3.62305e-07
-1.34507e-05
-3.22552e-09
-5.46943e-07
4.15423e-10
-8.91063e-09
3.31671e-09
-1.9973e-10
1.12618e-08
1.9422e-10
-1.02358e-09
-8.44051e-09
-1.36009e-07
1.33251e-07
-1.0858e-06
1.21937e-06
-1.32236e-06
2.27067e-06
-1.08186e-06
2.01989e-06
-1.23272e-08
3.65993e-07
-7.19301e-09
-7.36127e-09
-5.78065e-10
-1.75207e-08
-1.2687e-09
-1.55736e-09
-2.2396e-08
-2.43857e-10
-5.48233e-07
-1.48891e-10
-1.30681e-05
-7.53824e-06
-0.000124191
-6.9934e-06
-6.74561e-05
-3.09131e-06
-0.000103332
-6.91451e-08
-3.59369e-06
-1.12866e-11
-7.83995e-08
-1.83474e-10
-2.80497e-10
-3.58191e-09
-3.69546e-10
-2.57443e-09
5.0851e-09
-5.42806e-08
6.99533e-08
-8.47664e-07
6.10791e-07
-1.00476e-06
2.54601e-06
-6.11971e-07
1.78139e-06
-4.29506e-08
1.68194e-07
-6.69247e-09
-3.9984e-08
-3.64789e-11
-8.17472e-09
1.25435e-11
-5.53265e-10
2.45789e-11
-2.04844e-10
3.20682e-11
-1.264e-10
-3.32287e-06
-3.78551e-06
-8.09306e-05
9.07623e-06
-7.65334e-05
-2.96617e-06
-0.000121371
-2.41137e-07
-3.06945e-05
-7.88969e-10
-3.20194e-07
-2.03873e-10
-1.11943e-09
-1.26078e-09
7.67524e-10
-1.49828e-09
4.05765e-09
1.46022e-09
2.4513e-08
-2.50856e-07
1.14638e-07
-5.10373e-07
1.5525e-06
-1.16136e-07
1.58157e-06
-1.06327e-09
1.13159e-08
-2.88081e-09
-2.81971e-08
-1.74869e-10
-8.42165e-09
5.36266e-11
-5.93885e-10
4.42721e-11
-1.4277e-10
8.98753e-11
-1.15836e-10
-5.84965e-06
-1.04981e-08
-0.000217933
1.84077e-05
-1.06261e-05
4.18651e-05
-3.25442e-05
5.69488e-05
-3.28805e-05
5.78091e-05
-2.126e-05
5.24318e-05
-1.83789e-05
4.65397e-05
-1.97159e-05
4.31298e-05
-2.00128e-05
4.31503e-05
-1.81415e-05
4.52299e-05
-1.52129e-05
4.81225e-05
-1.16993e-05
5.09365e-05
-8.27782e-06
5.3143e-05
-5.0515e-06
5.45567e-05
-1.9554e-06
5.49703e-05
1.12109e-06
5.4828e-05
3.97731e-06
5.45976e-05
6.5026e-06
5.51133e-05
8.28951e-06
5.62445e-05
1.06896e-05
5.79537e-05
1.37799e-05
6.07715e-05
1.66145e-05
6.66709e-05
2.0335e-05
7.89446e-05
2.31461e-05
3.45308e-05
0.000109067
2.26221e-05
-1.6388e-05
2.3568e-05
-3.92313e-06
1.59827e-05
-7.01548e-08
1.32007e-05
-3.5319e-14
1.36623e-05
-1.2737e-12
1.33764e-05
-4.60101e-11
1.24991e-05
-1.61741e-09
1.41108e-05
-4.30058e-08
1.98946e-05
-9.1484e-07
2.85593e-05
-5.07635e-06
3.82654e-05
-5.41589e-06
4.75999e-05
-4.92985e-06
5.49665e-05
-3.32262e-06
5.93206e-05
-5.89253e-07
5.9745e-05
3.55296e-06
5.88939e-05
7.35364e-06
5.94094e-05
7.77398e-06
6.01162e-05
9.98276e-06
6.17632e-05
1.21329e-05
6.5759e-05
1.26187e-05
7.299e-05
1.3104e-05
8.35944e-05
1.25417e-05
1.29195e-05
0.000105204
3.99329e-06
-1.38222e-21
7.01548e-08
-1.18267e-19
-2.52193e-16
-7.99499e-18
-3.55737e-14
6.85226e-18
-1.30928e-12
-6.92785e-19
-4.73194e-11
-1.10471e-17
-1.66473e-09
-9.37303e-18
-4.46705e-08
-1.07296e-15
-9.5951e-07
-4.83105e-14
-8.63868e-07
-7.75688e-13
-6.54829e-07
-1.60484e-11
1.02084e-06
-3.14481e-10
5.75838e-06
-5.21492e-09
1.46837e-05
-7.60689e-08
2.98695e-05
-6.41341e-07
5.00212e-05
-5.83302e-07
6.35105e-05
1.16137e-06
6.44339e-05
9.05939e-06
6.31387e-05
1.34281e-05
6.51891e-05
1.05683e-05
6.92183e-05
9.07484e-06
7.46476e-05
7.11234e-06
2.03141e-06
8.55357e-05
-1.32317e-21
-8.57899e-23
-1.18132e-19
-1.51026e-21
-8.10332e-18
-1.16492e-20
-1.23886e-18
3.39593e-20
-9.21312e-19
-3.54391e-18
-1.25432e-18
-1.32494e-17
-9.8693e-18
-2.94842e-18
-7.40581e-16
-3.4332e-16
-1.86475e-14
-3.03895e-14
-6.28711e-13
-1.65273e-13
-1.64245e-11
-2.63526e-13
-3.30917e-10
-6.09972e-14
-5.54142e-09
-4.52161e-12
-8.14473e-08
-1.61403e-10
-7.16946e-07
-5.78584e-09
-3.16776e-07
-3.00245e-08
4.12828e-06
-3.03246e-07
2.02432e-05
-1.03501e-06
4.46205e-05
1.52694e-08
6.60446e-05
-2.84021e-07
7.26827e-05
2.43668e-06
7.72921e-05
2.50299e-06
-2.09975e-06
8.14232e-05
-8.21944e-23
-2.77231e-23
-1.25219e-21
-3.67009e-22
-9.83822e-21
-3.13263e-21
-5.85228e-19
-9.84428e-20
-7.39118e-18
-1.68792e-17
-1.43201e-17
-4.32587e-17
-1.51475e-17
-4.39935e-17
-1.9931e-15
-3.01209e-16
-6.74851e-14
-9.43124e-14
-1.27769e-13
-5.83646e-13
-1.19362e-13
-6.65831e-13
-2.81378e-13
-2.17709e-14
-4.94885e-12
2.30747e-14
-1.5218e-10
-1.42741e-11
-9.20161e-10
-5.01622e-09
-1.87745e-08
-1.21141e-08
-3.10756e-07
-1.02882e-08
-5.05277e-07
-8.89219e-09
3.48482e-07
-8.77553e-09
4.79879e-06
-2.34113e-08
1.68145e-05
-9.50732e-07
4.17166e-05
-2.55946e-06
-5.90102e-06
7.36556e-05
-1.53915e-23
-9.44228e-24
-5.64599e-22
-1.93574e-21
-2.21701e-20
-1.77807e-19
-6.78698e-18
-4.22957e-18
-5.91145e-17
-4.11476e-17
-1.10905e-16
-1.0918e-16
-6.50724e-17
-1.36683e-16
3.52621e-17
-4.52961e-16
-5.10536e-13
-8.8231e-14
-2.2673e-12
-2.11258e-12
-1.22517e-12
-3.5528e-12
4.68154e-14
-1.10066e-12
-8.31848e-14
5.06814e-14
-2.56073e-10
4.19269e-12
-1.62025e-09
-3.08986e-09
-1.16311e-09
-7.04932e-09
-2.14662e-10
-3.71626e-09
-1.18227e-10
-4.89822e-09
-4.67222e-11
-4.71282e-09
-1.75469e-08
-1.73228e-09
-1.17222e-07
-2.08843e-09
1.43205e-07
-1.85007e-08
-1.62542e-08
2.21277e-06
-6.57062e-24
-1.31284e-24
-3.53028e-21
-6.58521e-22
-4.76127e-19
-1.15411e-19
-1.24743e-17
-4.42382e-18
-8.55649e-17
-4.1902e-17
-1.60452e-16
-1.33298e-16
-1.25015e-16
-1.80083e-16
-4.27538e-16
-1.83845e-16
-6.33373e-13
-5.05628e-15
-2.99846e-12
-2.39683e-12
-3.00167e-12
-3.29555e-12
-1.41285e-12
-2.70742e-12
2.89035e-15
-9.89032e-14
7.44575e-12
-1.96881e-12
1.03729e-09
-6.93789e-12
2.71736e-10
-8.68235e-14
6.39997e-11
-1.72017e-14
1.26732e-09
-2.03344e-09
2.38283e-09
-1.73793e-09
6.20227e-09
1.50697e-10
8.5133e-09
-2.93855e-09
7.79058e-09
-1.35961e-08
-7.20664e-09
5.21331e-09
-9.86549e-25
-6.82363e-26
-6.4032e-22
-1.27527e-22
-2.17531e-19
-3.50967e-20
-8.94587e-18
-2.67545e-18
-6.84411e-17
-3.56002e-17
-1.49875e-16
-1.31737e-16
-1.29586e-16
-1.96643e-16
-1.03253e-16
-1.83192e-16
-4.70916e-15
-3.62266e-16
-1.41571e-12
-5.83604e-13
-1.87934e-12
-2.57788e-12
-6.5286e-13
-8.19554e-14
2.54465e-13
-1.50209e-12
2.98015e-12
-1.3591e-11
4.67718e-14
-4.00623e-12
2.03833e-15
-4.22446e-14
2.06682e-15
-1.78214e-14
5.99456e-10
-1.72291e-11
2.7598e-09
-1.19304e-08
6.66812e-09
-1.5209e-08
1.27574e-08
-4.84599e-09
2.01484e-08
-1.01147e-08
-4.49724e-09
1.97435e-08
-1.35555e-25
2.57388e-26
-1.08134e-22
-2.10811e-23
-5.90425e-20
-8.46959e-21
-3.8782e-18
-1.09747e-18
-3.61102e-17
-1.80386e-17
-9.29206e-17
-7.39417e-17
-8.7895e-17
-1.40875e-16
-4.55727e-17
-2.04609e-16
7.92944e-17
-4.62175e-16
-2.07383e-13
-5.1182e-16
2.67053e-15
-8.99408e-16
-7.86786e-14
-6.5117e-16
5.06365e-13
-1.68887e-12
8.39013e-12
-1.0174e-11
3.62415e-14
-2.1522e-12
3.61172e-15
-9.19054e-15
1.43934e-14
-2.85394e-14
1.6536e-10
-1.82576e-10
2.13513e-09
-1.30746e-08
4.6492e-09
-1.71209e-08
6.76382e-09
-1.5518e-08
9.19094e-09
-2.23188e-10
-4.94493e-09
1.20689e-08
-3.12163e-26
4.19849e-26
-1.81688e-23
-3.11911e-24
-1.43266e-20
-1.65534e-21
-1.27988e-18
-3.35527e-19
-1.13932e-17
-6.3637e-18
-2.62475e-17
-2.71664e-17
-4.075e-17
-5.8187e-17
-7.944e-17
-1.44097e-16
-7.03409e-18
-3.49547e-16
3.5295e-17
-5.98211e-16
6.90763e-17
-9.77101e-16
1.84601e-16
-8.10756e-16
9.9101e-13
-1.04256e-15
2.42825e-12
-7.06757e-15
1.18014e-14
-2.06984e-13
3.70223e-15
-6.91628e-16
1.562e-12
-1.58641e-12
7.3996e-11
-1.62794e-10
-4.33155e-10
-6.64269e-10
-9.97992e-10
-1.59539e-08
-1.0909e-10
-1.58778e-08
4.01448e-10
-2.41983e-08
-6.04822e-09
1.3714e-09
-1.42441e-26
4.52369e-26
-2.7541e-24
-4.05916e-25
-2.791e-21
-2.64794e-22
-3.21467e-19
-7.67756e-20
-2.94861e-18
-1.66629e-18
-6.83497e-18
-7.5951e-18
-1.23332e-17
-1.78761e-17
-3.52502e-17
-5.17543e-17
3.75703e-18
-3.08444e-16
6.39255e-17
-8.52902e-16
1.04674e-16
-1.16563e-15
1.49978e-16
-1.22112e-15
1.67043e-16
-1.17146e-15
1.76918e-16
-7.19043e-15
2.26957e-15
-3.89519e-14
2.40174e-15
-5.99301e-16
-3.91039e-12
-8.80424e-16
4.0366e-12
-1.7648e-13
-6.52043e-10
-7.50756e-12
-5.50782e-10
-8.70478e-10
-9.53764e-09
-1.07387e-08
-6.34842e-09
-2.19867e-08
-1.42805e-08
-5.46692e-09
-2.5648e-27
2.29022e-26
-3.78179e-25
-3.81688e-26
-4.37317e-22
-4.14e-23
-6.29521e-20
-1.42e-20
-6.29444e-19
-3.3872e-19
-1.64268e-18
-1.67282e-18
-3.17135e-18
-4.71378e-18
-1.3352e-17
-1.64787e-17
-5.1711e-17
-1.07535e-16
2.75984e-18
-6.77586e-16
5.55974e-17
-1.16282e-15
6.58484e-17
-1.41885e-15
2.76414e-17
-1.24604e-15
-4.07418e-16
-7.21449e-15
-3.92371e-17
-4.83751e-15
-2.1626e-18
-4.16881e-16
-8.7558e-16
-5.61995e-18
-1.76725e-13
-6.16321e-16
-7.63147e-12
-5.15341e-14
-8.74099e-10
-3.9319e-12
-6.37839e-09
-1.71356e-10
-1.53118e-08
-6.39357e-09
-7.8785e-09
-1.82348e-08
-1.25463e-27
-1.58198e-28
-3.43193e-26
-5.18439e-27
-6.27424e-23
-7.34657e-24
-1.02963e-20
-2.2107e-21
-1.08559e-19
-5.52401e-20
-3.54716e-19
-2.97659e-19
-9.67839e-19
-1.12698e-18
-3.90367e-18
-5.39196e-18
-3.93169e-17
-2.33909e-17
-1.36041e-16
-1.65454e-16
-1.42151e-16
-7.7273e-16
-1.24921e-16
-1.10952e-15
-8.77385e-16
-7.27694e-16
-7.58841e-16
-2.79038e-16
-1.26481e-16
-1.39528e-16
-1.01425e-18
-1.0571e-16
-2.75298e-18
-2.64633e-18
-6.1688e-16
-2.07584e-18
-5.21425e-14
-8.48061e-18
-3.98402e-12
-2.67195e-17
-1.7534e-10
-5.01162e-17
-6.56891e-09
-5.39943e-17
-6.95387e-17
-5.83357e-09
-1.30679e-28
-8.85304e-27
-4.37852e-27
-9.46505e-28
-8.65312e-24
-1.59207e-24
-1.45104e-21
-2.90334e-22
-1.53637e-20
-7.1704e-21
-6.76811e-20
-4.29081e-20
-3.55369e-19
-2.50175e-19
-1.3356e-18
-1.68968e-18
-7.50344e-18
-6.365e-18
-6.89439e-17
-2.40347e-17
-2.52417e-16
-1.63609e-16
-1.92267e-16
-5.07998e-16
-1.06895e-16
-4.93259e-16
-3.18988e-17
-2.68766e-16
-2.81419e-17
-9.17637e-17
-1.34521e-18
-1.36103e-17
-8.59748e-19
-1.80613e-18
-1.13177e-18
-1.6871e-18
-1.94295e-18
-7.55177e-18
-3.15309e-18
-2.56913e-17
-5.52475e-18
-4.81415e-17
-8.46885e-18
-5.21404e-17
-6.75973e-17
-1.28886e-17
-2.09213e-29
-1.22236e-26
-6.18216e-28
-3.4908e-28
-1.17599e-24
-3.57432e-25
-1.71901e-22
-3.22288e-23
-1.76704e-21
-7.32659e-22
-1.15489e-20
-5.08063e-21
-1.19225e-19
-5.23301e-20
-5.89994e-19
-4.67825e-19
-1.78859e-18
-1.8104e-18
-1.27737e-17
-4.56516e-18
-9.26438e-17
-1.69269e-17
-1.34365e-16
-5.0328e-17
-1.3493e-16
-7.34081e-17
-6.36833e-17
-7.66786e-17
-6.99227e-18
-3.20699e-17
-6.67314e-19
-3.33219e-18
-8.45483e-19
-1.66516e-19
-2.17066e-18
-4.22619e-19
-1.33926e-17
-5.88636e-18
-4.3773e-17
-2.59564e-17
-8.39397e-17
-6.49083e-17
-1.15539e-16
-1.22801e-16
-1.70486e-16
-1.90241e-16
-3.08288e-30
-1.19123e-26
-5.51879e-27
5.16663e-27
-1.59246e-25
-6.61844e-26
-1.64301e-23
-3.04904e-24
-1.66808e-22
-5.80689e-23
-1.84553e-21
-5.36395e-22
-3.3532e-20
-1.02585e-20
-2.28225e-19
-1.04104e-19
-6.17182e-19
-4.43325e-19
-2.10307e-18
-1.14311e-18
-9.49726e-18
-2.70068e-18
-1.87724e-17
-4.24102e-18
-2.23569e-17
-4.84963e-18
-1.58789e-17
-3.06086e-18
-2.22539e-18
-1.03408e-18
-6.19408e-20
-1.38379e-19
-7.91946e-20
-1.36911e-20
-9.88583e-19
-1.93245e-20
-1.27182e-17
-3.22253e-19
-5.01815e-17
-3.66363e-18
-1.27408e-16
-2.68585e-17
-3.20489e-16
-8.97463e-17
-2.05936e-16
-8.45508e-16
1.07276e-28
-9.34328e-27
-3.40433e-27
4.00967e-27
-2.1163e-26
-8.52727e-27
-1.176e-24
-2.53524e-25
-1.34075e-23
-3.48021e-24
-3.06558e-22
-5.75267e-23
-7.55518e-21
-1.82209e-21
-5.96953e-20
-1.93112e-20
-2.08208e-19
-9.03448e-20
-6.4612e-19
-2.6312e-19
-1.29979e-18
-5.60151e-19
-1.58502e-18
-7.01455e-19
-1.44875e-18
-6.1532e-19
-6.30899e-19
-3.50003e-19
-1.0231e-19
-9.6326e-20
-6.57623e-21
-1.07358e-20
-7.93657e-21
-1.64127e-21
-3.12778e-20
-5.8593e-21
-5.73141e-19
-9.31081e-20
-8.0218e-18
-1.01614e-18
-7.15889e-17
-7.34255e-18
-3.36969e-16
-3.48527e-17
-1.10145e-16
-1.01797e-15
9.23485e-29
-6.02214e-27
-4.54266e-28
1.88731e-27
-2.69985e-27
-6.51496e-28
-6.3884e-26
-1.81013e-26
-9.4382e-25
-1.54487e-25
-5.20573e-23
-6.47822e-24
-1.45807e-21
-2.72896e-22
-1.25264e-20
-3.06964e-21
-5.45973e-20
-1.53612e-20
-1.82968e-19
-4.79085e-20
-2.78687e-19
-1.05201e-19
-3.03558e-19
-1.32146e-19
-2.26569e-19
-1.18048e-19
-8.04948e-20
-6.25971e-20
-1.02262e-20
-1.55784e-20
-1.01288e-21
-1.4803e-21
-1.35991e-21
-2.45896e-22
-1.22521e-20
-1.46173e-21
-2.19415e-19
-2.18042e-20
-2.68367e-18
-2.58501e-19
-2.1822e-17
-2.05156e-18
-1.36444e-16
-1.00678e-17
-3.44134e-17
-6.79829e-16
4.76455e-29
-3.18085e-27
-3.63193e-29
6.64858e-28
-3.05901e-28
-1.96636e-29
-3.42269e-27
-8.69911e-28
-6.30087e-26
-5.16212e-27
-7.75526e-24
-6.50188e-25
-2.43641e-22
-3.1697e-23
-2.27478e-21
-4.02879e-22
-1.0805e-20
-2.17233e-21
-3.85095e-20
-7.01493e-21
-6.1845e-20
-1.53969e-20
-6.86799e-20
-1.91962e-20
-5.03993e-20
-1.70711e-20
-1.64159e-20
-9.08118e-21
-1.78005e-21
-2.26716e-21
-1.91757e-22
-2.1559e-22
-2.85763e-22
-4.16026e-23
-3.20764e-21
-2.83638e-22
-5.95221e-20
-4.32194e-21
-8.83529e-19
-5.82719e-20
-8.11645e-18
-5.74641e-19
-5.05743e-17
-2.98893e-18
-7.38786e-18
-3.00033e-16
1.80195e-29
-1.3488e-27
-7.16e-32
1.76276e-28
-4.64973e-29
2.67622e-29
-1.61118e-28
-1.59865e-29
-4.29742e-27
-1.2931e-28
-8.71647e-25
-4.66113e-26
-3.27064e-23
-2.66481e-24
-3.46885e-22
-4.10171e-23
-1.77211e-21
-2.47559e-22
-6.36186e-21
-8.00795e-22
-1.01809e-20
-1.54792e-21
-1.1259e-20
-1.81045e-21
-8.36372e-21
-1.57565e-21
-2.78989e-21
-8.39199e-22
-3.06191e-22
-2.15488e-22
-4.01069e-23
-2.2428e-23
-6.06998e-23
-6.02809e-24
-7.12361e-22
-4.81093e-23
-1.39148e-20
-7.47628e-22
-2.79157e-19
-1.14287e-20
-3.69884e-18
-1.40748e-19
-2.30724e-17
-8.05239e-19
-1.26401e-18
-9.01522e-17
5.01133e-30
-4.44219e-28
3.46811e-30
3.27158e-29
-2.20881e-30
7.78151e-30
-3.01154e-30
9.41657e-31
-2.43346e-28
-2.86224e-30
-6.71187e-26
-1.93199e-27
-3.25886e-24
-1.50094e-25
-4.29175e-23
-2.97448e-24
-2.44654e-22
-2.11631e-23
-7.58289e-22
-6.99039e-23
-1.09545e-21
-1.13358e-22
-1.19975e-21
-1.19122e-22
-8.89929e-22
-9.70982e-23
-3.07506e-22
-4.94051e-23
-3.61677e-23
-1.2605e-23
-7.17387e-24
-1.55326e-24
-1.129e-23
-7.41375e-25
-1.43622e-22
-7.15098e-24
-2.97415e-21
-1.16647e-22
-7.8666e-20
-2.08443e-21
-1.51846e-18
-2.99055e-20
-1.21521e-17
-1.22751e-19
6.81677e-19
-4.82149e-17
9.53855e-31
-1.09142e-28
1.11533e-30
3.82196e-30
3.05348e-31
8.7712e-31
-1.21365e-30
1.30326e-31
-7.86971e-30
-5.03971e-32
-3.22594e-27
-3.58837e-29
-2.2074e-25
-5.04946e-27
-3.89679e-24
-1.3984e-25
-2.67195e-23
-1.19203e-24
-6.91053e-23
-4.11639e-24
-8.4162e-23
-6.11705e-24
-8.96629e-23
-6.14534e-24
-6.31394e-23
-4.73191e-24
-2.16716e-23
-2.35569e-24
-2.71574e-24
-6.20692e-25
-1.13549e-24
-1.0472e-25
-1.86663e-24
-7.87392e-26
-2.68615e-23
-9.57619e-25
-6.47209e-22
-1.67134e-23
-2.41949e-20
-3.17777e-22
-6.58269e-19
-2.50525e-21
-6.87694e-18
8.35618e-20
1.36979e-18
-3.20153e-17
1.12273e-31
-1.92056e-29
1.37985e-31
2.39311e-31
4.74817e-32
5.29311e-32
-2.54296e-32
7.9464e-33
-9.77168e-32
-3.66967e-34
-8.30882e-29
-2.02403e-31
-9.4853e-27
-8.14883e-29
-2.30465e-25
-3.61944e-27
-1.87521e-24
-3.61193e-26
-4.44925e-24
-1.37723e-25
-5.16306e-24
-2.17213e-25
-5.38006e-24
-2.17702e-25
-3.71667e-24
-1.70457e-25
-1.32275e-24
-8.67137e-26
-1.861e-25
-2.32543e-26
-1.67085e-25
-5.17286e-27
-2.88904e-25
-7.29505e-27
-5.16024e-24
-1.08735e-25
-1.58786e-22
-1.62563e-24
-8.60547e-21
8.47142e-24
-3.14503e-19
3.66294e-21
-3.93394e-18
1.33481e-19
1.4595e-18
-2.18138e-17
6.92202e-33
-2.35804e-30
9.04709e-33
-1.05146e-40
3.24644e-33
-6.24419e-38
-2.09765e-34
-1.21597e-36
-5.72682e-34
-4.04993e-36
-8.80513e-31
-8.94353e-34
-2.25887e-28
-4.89461e-31
-7.18835e-27
-4.04111e-29
-6.81706e-26
-4.42509e-28
-1.83771e-25
-1.78614e-27
-2.21871e-25
-3.19363e-27
-2.35499e-25
-3.14469e-27
-1.72322e-25
-2.21786e-27
-6.39592e-26
-9.36446e-28
-1.17106e-26
-2.17741e-28
-1.32389e-26
-7.96831e-29
-4.54925e-26
-5.09918e-28
-1.10453e-24
-3.50748e-27
-4.48039e-23
3.59139e-25
-3.37371e-21
4.78227e-23
-1.61873e-19
4.03945e-21
-2.27667e-18
1.21741e-19
1.18814e-18
-1.33827e-17
-2.90092e-42
-1.94396e-31
-3.91511e-40
4.68634e-45
-3.91026e-37
-2.46967e-43
-7.56416e-37
-9.24511e-42
-2.69678e-36
-3.65501e-39
-3.39956e-33
-1.83664e-36
-2.47248e-30
-1.05032e-33
-9.64558e-29
-9.42515e-32
-9.47043e-28
-1.02125e-30
-3.26978e-27
-3.9368e-30
-4.06298e-27
-7.42835e-30
-4.18361e-27
-7.84441e-30
-2.68717e-27
-6.25538e-30
-8.227e-28
-3.19613e-30
-3.22245e-28
-1.33832e-30
-4.70672e-28
-1.36614e-30
-8.02953e-27
3.25887e-29
-2.60818e-25
4.25087e-27
-1.30149e-23
3.48655e-25
-1.22738e-21
3.10337e-23
-7.71942e-20
2.5756e-21
-1.22512e-18
8.18384e-20
7.74953e-19
-7.0952e-18
1.16104e-46
-1.17684e-32
-2.18775e-45
5.89538e-44
-4.7739e-43
2.28236e-43
-5.09026e-42
2.31789e-42
-3.96783e-39
-5.50939e-41
-7.82313e-36
-3.68037e-39
-6.7601e-33
-1.36322e-36
-2.75531e-31
-2.07661e-34
-2.48953e-30
-3.32306e-33
-9.03709e-30
-1.6814e-32
-1.41326e-29
-4.44594e-32
-1.57421e-29
-6.50403e-32
-1.33403e-29
-4.98197e-32
-7.91804e-30
-2.0703e-32
-9.16914e-30
8.06392e-33
-4.80164e-29
3.69783e-31
-1.557e-27
3.1749e-29
-6.18924e-26
2.17566e-27
-3.48307e-24
1.54236e-25
-3.78901e-22
1.30635e-23
-3.12802e-20
1.16819e-21
-5.69911e-19
4.20606e-20
4.05532e-19
-3.15464e-18
1.12468e-45
-5.63281e-34
4.62686e-44
1.55614e-42
1.366e-42
1.49659e-43
-3.57778e-42
3.53952e-42
-1.4219e-40
8.35187e-41
-7.65575e-39
1.15275e-39
-1.20538e-35
6.72338e-39
-8.52238e-34
-3.3994e-38
-1.06329e-32
-2.34399e-36
-5.7796e-32
-3.93501e-35
-1.76255e-31
-1.62589e-34
-2.49771e-31
-2.11757e-34
-2.6673e-31
1.0182e-34
-2.95804e-31
7.3159e-34
-4.25968e-31
3.16813e-33
-6.84424e-30
1.46543e-31
-2.97437e-28
1.06122e-29
-1.35733e-26
7.00451e-28
-8.22296e-25
4.89871e-26
-9.83487e-23
4.19381e-24
-1.03753e-20
4.1269e-22
-2.21522e-19
1.72873e-20
1.78849e-19
-1.25189e-18
1.43387e-44
-2.23482e-35
3.12339e-44
5.72681e-41
2.44588e-42
3.09339e-44
8.58221e-41
7.14971e-43
1.58993e-39
1.9156e-41
1.24878e-38
3.31235e-40
-1.21085e-38
3.2931e-39
-1.90026e-37
1.63863e-38
-1.97732e-35
2.51137e-38
-2.95787e-34
-1.91497e-38
-1.63521e-33
6.33744e-38
-3.15133e-33
2.29356e-36
-3.59095e-33
7.18831e-36
-4.21966e-33
1.54221e-35
-2.18872e-32
3.57364e-34
-1.00478e-30
3.49718e-32
-5.19888e-29
2.54254e-30
-2.58743e-27
1.6805e-28
-1.63696e-25
1.17655e-26
-2.111e-23
1.03396e-24
-2.88345e-21
1.14885e-22
-7.3201e-20
5.84172e-21
6.59997e-20
-4.26374e-19
-2.37766e-39
-7.56245e-37
6.59016e-45
5.56791e-42
6.09118e-43
4.04903e-45
2.51016e-41
8.12844e-44
6.07654e-40
2.25382e-42
8.71117e-39
3.97905e-41
6.53368e-38
3.86581e-40
1.67821e-37
1.68218e-39
-2.23237e-38
-1.40087e-40
-6.86191e-37
1.56455e-39
-6.0342e-36
2.8836e-37
-8.80041e-36
1.52142e-36
-1.23463e-35
1.34904e-38
-4.80384e-35
6.26078e-37
-2.28764e-33
7.53226e-35
-1.41062e-31
6.67044e-33
-7.89504e-30
4.76109e-31
-4.06324e-28
3.09055e-29
-2.55664e-26
2.0962e-27
-3.40003e-24
1.84721e-25
-6.1715e-22
2.31238e-23
-1.95127e-20
1.53021e-21
2.01257e-20
-1.23281e-19
-3.25917e-40
-2.2166e-38
8.73948e-46
2.14724e-43
9.45533e-44
2.60765e-46
4.25456e-42
3.6897e-45
1.14306e-40
9.70671e-44
1.90425e-39
1.35397e-42
1.86249e-38
1.88339e-42
9.42213e-38
-1.42852e-39
2.28155e-37
-1.39865e-38
1.94962e-37
-4.84164e-38
7.68107e-38
-5.27245e-38
-2.20894e-38
-2.52729e-38
-3.809e-38
2.47352e-40
-3.71552e-36
1.14275e-37
-2.59548e-34
1.25258e-35
-1.74866e-32
9.9524e-34
-1.03378e-30
7.33185e-32
-5.29562e-29
4.65151e-30
-3.09788e-27
2.95469e-28
-3.96254e-25
2.4609e-26
-9.88986e-23
3.3693e-24
-4.24471e-21
3.0747e-22
4.89063e-21
-2.76555e-20
-1.57734e-41
-5.66617e-40
5.7834e-47
5.94591e-45
7.51068e-45
7.77514e-54
3.64791e-43
4.88732e-52
1.06853e-41
-1.0636e-44
1.98993e-40
-1.16374e-42
2.28457e-39
-3.67341e-41
1.45022e-38
-5.70805e-40
3.86499e-38
-4.47311e-39
3.35e-38
-1.40787e-38
1.56005e-38
-1.40208e-38
-8.97533e-40
-7.38636e-39
-2.76543e-39
1.93527e-40
-3.28799e-37
1.55874e-38
-2.60187e-35
1.44315e-36
-1.94836e-33
1.29534e-34
-1.20738e-31
9.81429e-33
-6.14787e-30
6.22248e-31
-3.13369e-28
3.68936e-29
-3.48231e-26
2.71392e-27
-1.17289e-23
3.77063e-25
-7.29341e-22
4.78109e-23
9.54669e-22
-4.88483e-21
-5.46806e-43
-1.26273e-41
1.86618e-54
1.27493e-46
7.69005e-51
2.5752e-57
1.1651e-47
-2.95703e-51
1.55823e-45
-3.90077e-48
7.48026e-44
-5.5444e-46
1.76827e-42
-2.96087e-44
2.03157e-41
-7.69431e-43
9.07393e-41
-9.68873e-42
1.19694e-40
-4.73527e-41
2.65946e-42
-6.81815e-41
-4.61706e-40
-1.65201e-42
-6.14279e-40
2.30001e-40
-2.70411e-38
1.4269e-39
-2.47015e-36
1.56706e-37
-2.00023e-34
1.49037e-35
-1.30665e-32
1.17272e-33
-6.78192e-31
7.62332e-32
-3.02524e-29
4.4308e-30
-2.6925e-27
2.90002e-28
-1.12288e-24
3.77675e-26
-1.03496e-22
6.22594e-24
1.53167e-22
-6.88029e-22
-1.49666e-44
-2.43778e-43
7.81385e-58
2.08961e-48
4.28558e-54
3.31508e-60
4.11238e-51
-3.79838e-54
7.18237e-49
-2.76845e-51
5.20031e-47
-4.50469e-49
1.8123e-45
-3.18228e-47
3.03708e-44
-1.13071e-45
1.9576e-43
-1.95835e-44
3.50935e-43
-1.3223e-43
-4.18632e-43
-2.49532e-43
-6.14023e-43
3.02379e-43
-2.43053e-41
8.1067e-43
-2.20688e-39
1.27246e-40
-2.23167e-37
1.5023e-38
-1.927e-35
1.50076e-36
-1.32407e-33
1.23419e-34
-7.22396e-32
8.38784e-33
-3.05788e-30
5.06586e-31
-2.21729e-28
3.21996e-29
-1.02271e-25
3.91914e-27
-1.32183e-23
7.44102e-25
2.07947e-23
-8.21226e-23
-3.26761e-46
-4.03535e-45
2.58647e-60
2.536e-50
3.82366e-57
-5.21027e-60
2.82353e-54
-5.53789e-57
5.73741e-52
-2.94307e-54
5.25943e-50
-5.19784e-52
2.38934e-48
-4.39145e-50
5.24014e-47
-1.92927e-48
4.46686e-46
-4.22299e-47
9.51742e-46
-3.65935e-46
-6.33623e-45
-8.02051e-46
-1.1183e-44
2.52348e-46
-1.3578e-42
5.53437e-44
-1.69232e-40
9.46435e-42
-1.85192e-38
1.20245e-39
-1.70407e-36
1.26369e-37
-1.23129e-34
1.10231e-35
-7.15454e-33
7.8466e-34
-3.15404e-31
5.14805e-32
-2.12063e-29
3.5019e-30
-1.0098e-26
4.2242e-28
-1.58636e-24
8.22044e-26
2.37484e-24
-9.06981e-24
-5.70644e-48
-5.65691e-47
3.40841e-61
2.1182e-52
2.38788e-59
-2.52174e-60
2.98772e-57
-4.91799e-59
6.555e-55
-4.34258e-57
6.99362e-53
-7.80718e-55
3.82147e-51
-7.42825e-53
1.03138e-49
-3.8186e-51
1.08544e-48
-9.96724e-50
1.28113e-48
-1.04449e-48
-2.78008e-46
-1.24544e-48
-4.84429e-46
1.60973e-47
-7.70424e-44
3.1715e-45
-1.08023e-41
5.39015e-43
-1.29171e-39
7.22715e-41
-1.28443e-37
8.2814e-39
-9.67164e-36
7.64663e-37
-6.09341e-34
5.79899e-35
-2.99423e-32
4.2657e-33
-2.09362e-30
3.23309e-31
-1.01298e-27
3.98664e-29
-1.70351e-25
7.51122e-27
2.14593e-25
-9.16724e-25
-7.96238e-50
-6.62676e-49
3.11041e-62
9.14709e-55
2.12547e-60
-4.59919e-61
1.49609e-59
-5.96478e-60
1.26693e-57
-2.86062e-59
1.13255e-55
-1.92528e-57
7.11169e-54
-1.49209e-55
2.23033e-52
-8.58805e-54
2.53239e-51
-2.56987e-52
-3.9632e-50
-2.84275e-51
-7.74885e-50
3.0807e-50
-1.73308e-47
5.15075e-49
-3.31732e-45
1.09658e-46
-5.07837e-43
2.08504e-44
-6.76085e-41
2.97774e-42
-7.18644e-39
3.7423e-40
-5.73563e-37
3.65701e-38
-4.04195e-35
3.11581e-36
-2.29532e-33
2.60843e-34
-1.72105e-31
2.16319e-32
-8.12707e-29
2.61814e-30
-1.41505e-26
4.71943e-28
1.40362e-26
-7.61199e-26
-8.77451e-52
-6.40692e-51
6.96126e-65
-3.35085e-55
8.85299e-63
-2.00957e-63
5.94604e-62
-3.26591e-62
3.41297e-60
-1.48987e-61
2.09865e-58
-6.53706e-60