/*--------------------------------*- C++ -*----------------------------------*\
| =========                 |                                                 |
| \\      /  F ield         | OpenFOAM: The Open Source CFD Toolbox           |
|  \\    /   O peration     | Version:  2012                                  |
|   \\  /    A nd           | Website:  www.openfoam.com                      |
|    \\/     M anipulation  |                                                 |
\*---------------------------------------------------------------------------*/
FoamFile
{
    version     2.0;
    format      ascii;
    class       volScalarField;
    location    "0.5";
    object      p;
}
// * * * * * * * * * * * * * * * * * * * * * * * * * * * * * * * * * * * * * //

dimensions      [1 -1 -2 0 0 0 0];


internalField   nonuniform List<scalar> 
2268
(
644.925
641.709
644.551
651.702
661.986
670.415
676.281
680.996
686.936
695.514
707.047
721.401
738.287
757.373
778.408
800.914
823.722
844.733
859.379
868.945
853.965
846.354
886.988
585.71
581.753
584.321
591.284
601.566
610.222
616.268
621.107
627.183
635.895
647.509
661.771
678.494
697.394
718.166
740.41
763.281
785.185
801.822
814.691
799.365
776.993
821.829
525.841
521.076
522.952
529.374
539.659
548.749
555.148
560.228
566.569
575.549
587.376
601.85
618.676
637.601
658.233
680.003
701.987
723.072
740.313
752.987
743.634
713.651
761.038
465.898
459.964
460.566
466.11
476.369
486.118
493.042
498.473
505.197
514.556
526.677
541.351
558.332
577.319
597.946
619.595
641.226
661.576
678.302
690.091
687.176
670.852
710.439
406.546
398.882
397.457
401.569
411.751
422.459
430.088
435.949
443.163
453.005
465.479
480.392
497.572
516.682
537.438
559.185
580.889
601.124
617.811
629.814
633.613
629.784
665.603
348.499
338.597
334.084
336.055
346.202
358.108
366.521
372.778
380.507
390.906
403.795
419.01
436.446
455.713
476.718
498.758
520.815
541.369
558.577
571.482
579.778
584.678
618.857
292.505
279.527
271.27
270.692
280.72
293.522
302.485
309.128
317.391
328.307
341.547
357.065
375.003
394.435
415.797
438.297
460.943
482.081
500.026
513.804
523.76
531.117
554.124
238.723
223.91
210.737
205.652
214.969
228.161
237.255
244.622
253.954
265.608
279.11
294.578
311.621
332.582
354.578
377.92
401.545
423.476
442.165
456.606
466.05
471.831
473.962
313.945
301.838
289.965
286.983
287.268
287.531
288.025
288.304
287.937
287.139
287.288
288.351
290.714
289.84
284.119
323.465
638.713
1300.21
1671.1
313.055
298.624
287.695
285.283
285.469
286.563
287.891
288.419
287.846
286.813
286.344
280.7
266.021
262.321
265.539
279.306
388.474
951.98
1521.86
304.249
285.967
284.298
283.969
283.701
284.286
286.975
288.69
287.747
285.807
281.771
265.074
259.342
261.273
264.873
270.196
314.739
605.689
1319.4
290.046
284.076
283.756
283.604
283.305
283.22
285.365
289.072
288.103
284.442
271.838
257.224
256.766
260.326
264.542
268.196
285.512
399.115
1094.29
268.872
283.718
283.611
283.404
283.076
282.781
284.46
289.036
288.936
282.491
262.275
252.498
254.776
259.576
264.263
267.454
273.175
307.529
824.478
225.901
281.75
283.289
283.214
282.842
282.522
284.08
287.958
288.747
278.761
254.637
248.146
253.006
258.924
264.023
267.028
269.078
281.649
554.523
136.778
269.336
282.844
283.156
282.664
282.379
283.571
286.275
286.132
274.134
248.186
244.764
251.813
258.705
263.825
266.49
268.112
275.279
404.739
43.2172
216.199
282.675
283.187
282.539
282.326
283.089
284.703
283.392
271.331
246.115
244.243
251.862
259.005
263.729
266.045
267.5
266.477
352.894
157.389
140.719
119.213
105.766
112.808
125.218
133.072
141.218
152.858
166.76
181.651
198.341
216.844
236.239
258.384
282.684
308.211
331.976
352.297
368.189
375.056
365.556
293.608
64.5155
41.1025
22.9234
14.7396
18.374
24.6035
28.0712
31.148
36.0653
44.4312
53.2896
64.7762
79.891
100.288
124.957
154.238
185.074
211.574
234.395
253.812
265.5
266.636
261.058
5.37696
0.134426
-0.206175
-0.0318905
-0.0235637
0.00354592
0.0329195
0.0548011
0.149235
0.669863
2.5482
5.39424
9.42489
15.4528
25.393
42.5822
66.4547
92.6906
121.937
148.549
165.314
177.957
191.054
-0.254265
-0.276566
-0.293896
-0.224366
-0.193742
-0.166921
-0.160575
-0.145294
-0.130282
-0.167179
-0.213493
-0.236211
-0.253598
-0.259986
-0.108447
0.757655
4.79936
15.8701
34.5228
59.7992
73.6755
86.9915
102.111
-0.350501
-0.324349
-0.330221
-0.337871
-0.336697
-0.326857
-0.321676
-0.327575
-0.351832
-0.398458
-0.416082
-0.421141
-0.41906
-0.414392
-0.364034
-0.321615
-0.315612
-0.0827151
1.59712
4.92821
12.5547
29.3055
50.3999
-0.482619
-0.483159
-0.486549
-0.483255
-0.477499
-0.471814
-0.469733
-0.472191
-0.482875
-0.503068
-0.518776
-0.531535
-0.551316
-0.581563
-0.580966
-0.553969
-0.523782
-0.486813
-0.459207
-0.419535
-0.520646
-0.106141
1.76401
-0.625569
-0.624448
-0.621232
-0.623245
-0.622572
-0.620743
-0.621215
-0.625762
-0.635306
-0.64724
-0.657046
-0.664692
-0.669496
-0.675175
-0.682784
-0.672312
-0.662943
-0.662384
-0.660591
-0.645796
-0.67559
-0.695429
-0.556934
-0.767868
-0.767105
-0.765612
-0.766645
-0.76683
-0.767093
-0.76881
-0.773035
-0.779915
-0.787939
-0.79527
-0.801468
-0.807734
-0.815621
-0.820985
-0.817605
-0.805869
-0.799749
-0.789279
-0.776983
-0.796548
-0.88671
-0.914681
-0.911939
-0.911111
-0.909992
-0.910676
-0.911269
-0.912265
-0.914267
-0.91777
-0.922776
-0.928484
-0.933732
-0.937833
-0.940663
-0.943536
-0.947756
-0.948422
-0.946009
-0.946794
-0.953689
-0.971892
-1.01811
-1.10348
-1.17709
-1.0559
-1.05492
-1.05417
-1.0547
-1.05542
-1.05657
-1.05841
-1.06114
-1.06467
-1.06878
-1.07251
-1.07559
-1.07792
-1.08009
-1.08222
-1.08347
-1.08476
-1.08708
-1.10244
-1.1285
-1.17492
-1.25617
-1.35766
-1.19938
-1.19854
-1.19807
-1.19849
-1.19919
-1.20025
-1.20178
-1.20382
-1.20628
-1.20901
-1.21153
-1.21363
-1.21525
-1.21661
-1.21803
-1.21965
-1.22215
-1.22624
-1.24092
-1.26779
-1.30717
-1.367
-1.43019
-1.34256
-1.34193
-1.34167
-1.34202
-1.34262
-1.3435
-1.34468
-1.34614
-1.34782
-1.34956
-1.35114
-1.35245
-1.35346
-1.35429
-1.35526
-1.35676
-1.35911
-1.36336
-1.37453
-1.39561
-1.42836
-1.47093
-1.49534
-1.48556
-1.48513
-1.48502
-1.4853
-1.48577
-1.48644
-1.4873
-1.48831
-1.48939
-1.49045
-1.49135
-1.49205
-1.49253
-1.49291
-1.49344
-1.49441
-1.49609
-1.49937
-1.50675
-1.52059
-1.54415
-1.57577
-1.59018
-1.62847
-1.6282
-1.62819
-1.62839
-1.62874
-1.62921
-1.62978
-1.63041
-1.63105
-1.63161
-1.63202
-1.63224
-1.63229
-1.63223
-1.63224
-1.6325
-1.63325
-1.63506
-1.63899
-1.64635
-1.65872
-1.6736
-1.68127
-1.77137
-1.77122
-1.77123
-1.77137
-1.77159
-1.77188
-1.77221
-1.77254
-1.77283
-1.77301
-1.77305
-1.7729
-1.77257
-1.77211
-1.77163
-1.77123
-1.77109
-1.77158
-1.7731
-1.77614
-1.78092
-1.78525
-1.78377
-1.91428
-1.91421
-1.91422
-1.91429
-1.9144
-1.91453
-1.91465
-1.91474
-1.91475
-1.91465
-1.91438
-1.91394
-1.91331
-1.91252
-1.91164
-1.91073
-1.9099
-1.90931
-1.90915
-1.90951
-1.91013
-1.90948
-1.90493
-2.05725
-2.0572
-2.0572
-2.0572
-2.05721
-2.0572
-2.05715
-2.05705
-2.05685
-2.05652
-2.05602
-2.05535
-2.05448
-2.05344
-2.05224
-2.05094
-2.04957
-2.04821
-2.04687
-2.0455
-2.04372
-2.04055
-2.03465
-2.20027
-2.20023
-2.20019
-2.20014
-2.20005
-2.19993
-2.19975
-2.19949
-2.19913
-2.19863
-2.19796
-2.19712
-2.19608
-2.19485
-2.19344
-2.19187
-2.19015
-2.18827
-2.18621
-2.18387
-2.18096
-2.17687
-2.17088
-2.34336
-2.34331
-2.34324
-2.34313
-2.34297
-2.34276
-2.34247
-2.3421
-2.34161
-2.34098
-2.34019
-2.33923
-2.33808
-2.33674
-2.33521
-2.33349
-2.33158
-2.32946
-2.32708
-2.32433
-2.32102
-2.31679
-2.31126
-2.48653
-2.48646
-2.48635
-2.4862
-2.48599
-2.4857
-2.48534
-2.48487
-2.48429
-2.48358
-2.48271
-2.48168
-2.48047
-2.47908
-2.4775
-2.47574
-2.47378
-2.47159
-2.46914
-2.46637
-2.46313
-2.45925
-2.45453
-2.62978
-2.6297
-2.62955
-2.62937
-2.62911
-2.62877
-2.62835
-2.62782
-2.62718
-2.62641
-2.6255
-2.62444
-2.62321
-2.62182
-2.62026
-2.61854
-2.61663
-2.61453
-2.61221
-2.60965
-2.60677
-2.60351
-2.59981
-2.77313
-2.77302
-2.77285
-2.77264
-2.77235
-2.77198
-2.77151
-2.77095
-2.77027
-2.76948
-2.76855
-2.76749
-2.76628
-2.76493
-2.76344
-2.7618
-2.76003
-2.75811
-2.75604
-2.75383
-2.75146
-2.74896
-2.74627
-2.91658
-2.91645
-2.91626
-2.91603
-2.91572
-2.91532
-2.91483
-2.91425
-2.91356
-2.91276
-2.91184
-2.91081
-2.90964
-2.90836
-2.90697
-2.90546
-2.90386
-2.90218
-2.90042
-2.89861
-2.89685
-2.89506
-2.8934
-3.06013
-3.05999
-3.05978
-3.05954
-3.05921
-3.0588
-3.05831
-3.05772
-3.05703
-3.05625
-3.05536
-3.05436
-3.05326
-3.05207
-3.05079
-3.04944
-3.04803
-3.0466
-3.04519
-3.04385
-3.04257
-3.04151
-3.04077
-3.2038
-3.20364
-3.20341
-3.20316
-3.20283
-3.20242
-3.20193
-3.20134
-3.20067
-3.19991
-3.19906
-3.19812
-3.1971
-3.196
-3.19484
-3.19365
-3.19244
-3.19127
-3.19015
-3.18918
-3.18842
-3.18798
-3.18803
-3.34757
-3.3474
-3.34715
-3.34691
-3.34658
-3.34617
-3.34568
-3.34511
-3.34447
-3.34374
-3.34294
-3.34206
-3.34112
-3.34012
-3.33908
-3.33804
-3.33702
-3.33605
-3.33521
-3.33456
-3.33421
-3.33427
-3.33492
-3.49145
-3.49127
-3.491
-3.49076
-3.49044
-3.49004
-3.48956
-3.48902
-3.4884
-3.48772
-3.48697
-3.48616
-3.4853
-3.4844
-3.48348
-3.48256
-3.48169
-3.48091
-3.48028
-3.47988
-3.47983
-3.48022
-3.48126
-3.6354
-3.63525
-3.63495
-3.63472
-3.6344
-3.63402
-3.63356
-3.63304
-3.63244
-3.63182
-3.63113
-3.63041
-3.62963
-3.62881
-3.62798
-3.62718
-3.62643
-3.62579
-3.62531
-3.62508
-3.6252
-3.62577
-3.62699
-3.77941
-3.77933
-3.77899
-3.77878
-3.77847
-3.7781
-3.77767
-3.77717
-3.77654
-3.77607
-3.77548
-3.77478
-3.77406
-3.77332
-3.77258
-3.77187
-3.77122
-3.77067
-3.77029
-3.77014
-3.77032
-3.77093
-3.77211
-3.92349
-3.92347
-3.92311
-3.92292
-3.92262
-3.92229
-3.92187
-3.9215
-3.92113
-3.92049
-3.91988
-3.91925
-3.91859
-3.91792
-3.91725
-3.91662
-3.91604
-3.91556
-3.91522
-3.91508
-3.91524
-3.91575
-3.91674
-4.06764
-4.06765
-4.06729
-4.06713
-4.06685
-4.06658
-4.06628
-4.06586
-4.06543
-4.0649
-4.06435
-4.06378
-4.06319
-4.06259
-4.06199
-4.06142
-4.0609
-4.06046
-4.06013
-4.05996
-4.06001
-4.06034
-4.06102
-4.21184
-4.21188
-4.21153
-4.21143
-4.21119
-4.21092
-4.21061
-4.21024
-4.20983
-4.20938
-4.20889
-4.20838
-4.20785
-4.20731
-4.20677
-4.20626
-4.20578
-4.20536
-4.20502
-4.20479
-4.20471
-4.20482
-4.20513
-4.35608
-4.35614
-4.35581
-4.35576
-4.35553
-4.35529
-4.35501
-4.35468
-4.35431
-4.35391
-4.35348
-4.35303
-4.35255
-4.35207
-4.35159
-4.35112
-4.35068
-4.35026
-4.3499
-4.34961
-4.34939
-4.34926
-4.3492
-4.50038
-4.50044
-4.5002
-4.50016
-4.49993
-4.49973
-4.49948
-4.49919
-4.49886
-4.4985
-4.49812
-4.49772
-4.4973
-4.49687
-4.49644
-4.49601
-4.49559
-4.49518
-4.49479
-4.49442
-4.49407
-4.49373
-4.49333
-4.64472
-4.64476
-4.64458
-4.64458
-4.64437
-4.64421
-4.64399
-4.64373
-4.64345
-4.64313
-4.64279
-4.64244
-4.64207
-4.64169
-4.6413
-4.6409
-4.64051
-4.6401
-4.63969
-4.63926
-4.63879
-4.63826
-4.63758
-4.78911
-4.78913
-4.78898
-4.78904
-4.78885
-4.78873
-4.78853
-4.78832
-4.78807
-4.7878
-4.7875
-4.78719
-4.78686
-4.78652
-4.78617
-4.78581
-4.78543
-4.78504
-4.78461
-4.78414
-4.78359
-4.78293
-4.78205
-4.93355
-4.93355
-4.93348
-4.93355
-4.93338
-4.93329
-4.93313
-4.93295
-4.93274
-4.9325
-4.93225
-4.93197
-4.93169
-4.93138
-4.93107
-4.93075
-4.9304
-4.93002
-4.9296
-4.92911
-4.92853
-4.9278
-4.92682
-5.07809
-5.07816
-5.07803
-5.07814
-5.07798
-5.07793
-5.07779
-5.07764
-5.07746
-5.07726
-5.07705
-5.07682
-5.07658
-5.07632
-5.07604
-5.07575
-5.07545
-5.07511
-5.07472
-5.07426
-5.07369
-5.07296
-5.07199
-5.22271
-5.2228
-5.22265
-5.22277
-5.22263
-5.2226
-5.22249
-5.22237
-5.22222
-5.22207
-5.22189
-5.22171
-5.22152
-5.22131
-5.22109
-5.22085
-5.22059
-5.22031
-5.21999
-5.21959
-5.21909
-5.21845
-5.21759
-5.36735
-5.36744
-5.36731
-5.36741
-5.3673
-5.36729
-5.36721
-5.36712
-5.36701
-5.36689
-5.36677
-5.36664
-5.3665
-5.36634
-5.36618
-5.366
-5.36581
-5.3656
-5.36535
-5.36505
-5.36467
-5.36418
-5.36352
-5.51201
-5.51203
-5.51199
-5.51204
-5.51197
-5.51197
-5.51192
-5.51187
-5.5118
-5.51173
-5.51165
-5.51157
-5.51148
-5.51138
-5.51128
-5.51117
-5.51105
-5.51092
-5.51077
-5.51058
-5.51035
-5.51004
-5.50963
-5.65668
-5.65668
-5.65668
-5.6567
-5.65667
-5.65667
-5.65665
-5.65664
-5.65661
-5.65659
-5.65656
-5.65653
-5.6565
-5.65646
-5.65643
-5.65639
-5.65635
-5.6563
-5.65625
-5.65618
-5.6561
-5.656
-5.65585
136.34
132.079
144.131
122.55
239.082
228.033
215.849
200.221
185.601
180.216
179.764
183.098
109.688
114.515
122.084
133.347
57.845
60.6836
67.6683
79.9642
4.23753
6.974
12.2142
24.7219
-0.452461
-0.43568
-0.304865
-0.245664
-0.874592
-0.862244
-0.924105
-1.02308
-1.18476
-1.1749
-1.17432
-1.17643
-1.37161
-1.34335
-1.28587
-1.21724
-1.42854
-1.40503
-1.35783
-1.29966
-1.47926
-1.45738
-1.42797
-1.39335
-1.58106
-1.56913
-1.54856
-1.51917
-1.67561
-1.66884
-1.6576
-1.64126
-1.77674
-1.77051
-1.7617
-1.75014
-1.89808
-1.89256
-1.88576
-1.87781
-2.02798
-2.02299
-2.01726
-2.01084
-2.16493
-2.16066
-2.15599
-2.15097
-2.30617
-2.30262
-2.29889
-2.29496
-2.45045
-2.44769
-2.44482
-2.44195
-2.59674
-2.59472
-2.59275
-2.59087
-2.74423
-2.74297
-2.74183
-2.74088
-2.89235
-2.89178
-2.8914
-2.89127
-3.04058
-3.04063
-3.04091
-3.04149
-3.18856
-3.1891
-3.18992
-3.19108
-3.33597
-3.33688
-3.33809
-3.33967
-3.48265
-3.48378
-3.48522
-3.48703
-3.62851
-3.62972
-3.63122
-3.63307
-3.77357
-3.77471
-3.77611
-3.77783
-3.91796
-3.91892
-3.92008
-3.9215
-4.06189
-4.06258
-4.06341
-4.06441
-4.20559
-4.20596
-4.20642
-4.20695
-4.34925
-4.3493
-4.34938
-4.34946
-4.493
-4.49277
-4.49251
-4.4922
-4.63696
-4.6365
-4.63596
-4.63535
-4.78121
-4.7806
-4.77987
-4.77904
-4.92587
-4.92517
-4.92436
-4.92343
-5.07104
-5.07034
-5.06952
-5.06859
-5.21674
-5.21611
-5.21538
-5.21454
-5.36286
-5.36237
-5.36179
-5.36113
-5.5092
-5.50889
-5.50853
-5.5081
-5.6557
-5.65559
-5.65546
-5.65531
56.5311
184.052
265.197
283.148
282.332
282.187
282.375
282.476
280.517
271.003
253.054
248.682
254.023
260.122
263.876
265.725
266.658
264.861
272.275
172.064
227.167
274.643
281.405
281.638
281.414
281.133
280.254
277.568
271.41
263.264
259.624
260.227
262.85
264.872
266.089
266.662
266.204
269.763
191.59
230.3
274.225
280.363
280.753
280.266
279.778
278.702
276.436
272.685
268.248
265.157
264.313
264.992
265.9
266.68
266.95
266.718
268.534
156.411
202.327
262.052
279.635
279.482
278.991
278.548
277.476
275.53
272.942
270.079
267.788
266.669
266.514
266.757
267.167
267.285
267.802
273.816
105.885
152.975
230.913
278.622
279.262
278.064
277.814
276.745
274.816
272.828
270.903
269.199
268.022
267.523
267.309
267.32
267.548
267.787
318.589
51.2677
83.3105
155.717
244.249
275.215
277.268
277.317
275.745
273.872
272.716
271.42
269.798
268.683
268.204
267.602
267.367
267.547
267.164
395.122
0.88428
22.0856
61.8351
132.086
193.475
226.328
250.034
272.22
272.789
272.44
271.633
270.031
268.541
262.32
262.275
265.999
253.135
289.102
513.971
-1.27733
-0.95316
4.47988
30.0244
71.7096
129.867
174.17
207.613
236.947
256.019
254.863
235.516
228.642
197.629
206.212
226.51
273.722
429.989
671.437
-1.26858
-0.902971
-0.868242
-0.143784
8.99011
27.5063
55.1669
90.6891
141.208
179.159
170.787
140.644
132.809
132.047
169.862
251.545
381.613
575.867
781.225
-1.13806
-1.04446
-1.01524
-0.964988
-0.892256
-0.721195
2.78545
12.212
23.4262
35.0274
42.2678
43.0809
53.3824
71.3855
104.017
183.579
325.207
571.886
753.816
-1.18752
-1.11452
-1.09665
-1.10273
-1.10936
-0.971485
-0.990715
-0.972604
-0.607165
0.391989
0.918719
-1.80079
7.55827
35.974
77.6746
131.896
218.284
413.061
562.964
-1.32962
-1.29446
-1.24425
-1.20908
-1.16089
-1.07682
-1.0594
-0.943856
-0.595221
-0.0629687
-0.232692
-1.64008
0.671641
13.7116
38.8126
91.9926
149.858
288.638
384.169
-1.46934
-1.41855
-1.38674
-1.35751
-1.30278
-1.23053
-1.17477
-1.09061
-0.905502
-0.719174
-0.960771
-1.84851
-2.3896
-2.8087
20.3539
101.95
200.892
248.484
290.887
-1.61219
-1.57649
-1.53084
-1.4857
-1.43675
-1.3812
-1.31964
-1.24151
-1.13966
-1.10161
-1.48868
-2.62981
-3.51878
2.60769
39.6505
112.099
214.839
243.912
247.907
-1.72767
-1.69691
-1.66556
-1.62978
-1.58786
-1.53998
-1.48452
-1.42105
-1.36409
-1.40712
-1.87827
-3.17996
-5.15981
-6.96697
0.610968
41.9693
184.577
215.669
202.501
-1.86286
-1.83733
-1.80984
-1.77987
-1.7456
-1.70645
-1.66301
-1.61968
-1.59822
-1.68414
-2.08494
-3.11255
-3.95819
-4.29292
-1.96694
3.38231
111.851
150.846
143.435
-1.99904
-1.97959
-1.95822
-1.93456
-1.9077
-1.87714
-1.84497
-1.81859
-1.81737
-1.8961
-2.15382
-2.66876
-3.00666
-2.9086
-2.28173
-1.91724
47.2624
46.7582
84.2894
-2.14161
-2.12641
-2.11018
-2.09253
-2.07244
-2.04928
-2.02541
-2.00871
-2.01383
-2.06472
-2.192
-2.412
-2.54752
-2.42427
-2.15902
-1.91741
6.59231
-30.8764
37.316
-2.28789
-2.27664
-2.26501
-2.25272
-2.23853
-2.2216
-2.204
-2.19237
-2.19667
-2.2251
-2.27737
-2.34738
-2.36106
-2.24257
-2.00601
-1.82335
-8.57744
-4.98845
32.2427
-2.4369
-2.4292
-2.42171
-2.41411
-2.40507
-2.3936
-2.38132
-2.37315
-2.3745
-2.38519
-2.39371
-2.3884
-2.32309
-2.15157
-1.99678
-2.08091
-1.16003
15.3433
44.1095
-2.58769
-2.5832
-2.5794
-2.57596
-2.57156
-2.56522
-2.5581
-2.5533
-2.55233
-2.55032
-2.53219
-2.48709
-2.36717
-2.16527
-2.16149
-1.98791
8.22561
21.9933
29.5844
-2.73941
-2.73782
-2.73736
-2.7377
-2.7377
-2.73655
-2.73508
-2.73466
-2.73408
-2.72611
-2.69418
-2.62525
-2.48129
-2.27632
-2.23311
-2.26808
7.84011
20.6436
28.2168
-2.89133
-2.89236
-2.89494
-2.89882
-2.90321
-2.90764
-2.91294
-2.9186
-2.92313
-2.91779
-2.88796
-2.81871
-2.6752
-2.40998
-2.18266
-2.41126
12.2708
20.3623
29.1389
-3.04286
-3.04619
-3.0515
-3.05876
-3.06767
-3.07845
-3.09142
-3.10488
-3.1211
-3.12833
-3.11723
-3.07416
-2.99908
-2.97102
-2.80791
-0.721798
17.7162
25.9328
22.7583
-3.19351
-3.1987
-3.20635
-3.21668
-3.23009
-3.24762
-3.2702
-3.29783
-3.3283
-3.35731
-3.37869
-3.39133
-3.45693
-3.78999
-4.15269
-3.286
8.67643
20.555
17.3966
-3.34287
-3.3494
-3.35877
-3.37151
-3.38875
-3.41266
-3.44539
-3.48879
-3.54079
-3.59991
-3.65833
-3.72696
-3.88217
-4.26295
-4.57716
-4.80537
-3.20812
9.8093
11.693
-3.49066
-3.49788
-3.5082
-3.52228
-3.54185
-3.57032
-3.61071
-3.6664
-3.74269
-3.83309
-3.91724
-4.00186
-4.14581
-4.40095
-4.57488
-4.56858
-3.57899
2.22411
7.04513
-3.63676
-3.64399
-3.65435
-3.66852
-3.68837
-3.7182
-3.76038
-3.81902
-3.9086
-4.01936
-4.11356
-4.18556
-4.29327
-4.48426
-4.63791
-4.52459
-3.89378
-3.66007
1.82894
-3.78122
-3.78779
-3.79727
-3.81033
-3.82825
-3.85584
-3.8931
-3.94324
-4.02691
-4.14089
-4.23909
-4.30512
-4.39902
-4.56416
-4.72911
-4.64589
-4.16152
-4.17561
0.00898147
-3.92429
-3.92959
-3.93726
-3.94796
-3.96159
-3.98309
-4.01063
-4.04476
-4.10684
-4.21007
-4.31934
-4.40647
-4.51032
-4.65393
-4.81332
-4.71966
-4.47247
-4.5153
4.0048
-4.06638
-4.07002
-4.0751
-4.08245
-4.09109
-4.10264
-4.11734
-4.13529
-4.17644
-4.26913
-4.40425
-4.53358
-4.6314
-4.73361
-4.82079
-4.52225
-3.79224
-2.23436
8.6254
-4.20799
-4.20984
-4.2122
-4.21577
-4.21968
-4.2219
-4.22395
-4.23017
-4.26279
-4.35396
-4.51505
-4.67861
-4.72763
-4.70504
-4.6498
-4.24719
-1.34511
5.2437
9.00774
-4.3496
-4.34978
-4.3497
-4.34976
-4.34946
-4.34568
-4.33778
-4.33433
-4.3638
-4.45208
-4.61407
-4.76594
-4.78119
-4.67755
-4.35661
-2.89248
0.614726
3.97221
7.87429
-4.49157
-4.49032
-4.4883
-4.48555
-4.48142
-4.47512
-4.4626
-4.45095
-4.46968
-4.54405
-4.6821
-4.7931
-4.78977
-4.61679
-4.34613
-2.47455
0.29257
2.34758
8.18365
-4.63412
-4.63176
-4.62844
-4.62369
-4.61713
-4.60893
-4.59785
-4.58504
-4.59082
-4.6412
-4.73926
-4.81625
-4.82021
-4.58435
-3.98984
-2.20857
-0.299889
0.102615
3.62964
-4.77741
-4.77418
-4.77031
-4.76417
-4.75632
-4.74685
-4.7367
-4.72723
-4.72982
-4.76041
-4.82088
-4.87996
-4.92774
-4.91057
-4.08841
-2.3116
-1.06366
-1.11548
1.02376
-4.92162
-4.91807
-4.91371
-4.90693
-4.8986
-4.88862
-4.87764
-4.86914
-4.87135
-4.89282
-4.93612
-5.00058
-5.05226
-5.19009
-4.62723
-2.35647
-1.46212
-1.51547
0.060289
-5.06679
-5.06324
-5.0589
-5.05202
-5.04387
-5.03423
-5.0213
-5.01276
-5.0136
-5.02791
-5.05976
-5.11319
-5.1399
-5.20554
-4.83328
-2.56393
-1.75372
-1.77567
-0.95511
-5.21292
-5.2097
-5.20579
-5.19941
-5.19205
-5.1831
-5.16956
-5.16008
-5.1564
-5.15834
-5.17148
-5.20611
-5.22279
-5.33194
-4.90002
-3.32637
-2.3502
-2.32297
-1.16955
-5.35984
-5.35729
-5.3541
-5.34895
-5.34301
-5.33535
-5.32349
-5.31454
-5.30554
-5.29461
-5.29779
-5.32796
-5.42498
-5.74001
-5.28275
-4.37413
-3.14402
-3.28425
0.756638
-5.50729
-5.50566
-5.50349
-5.50015
-5.4965
-5.49046
-5.48354
-5.47957
-5.47595
-5.47231
-5.49034
-5.54557
-5.81644
-6.44196
-5.7089
-5.17655
-5.88598
-6.01126
-10.72
-5.65503
-5.65445
-5.65365
-5.65226
-5.65034
-5.649
-5.6485
-5.65208
-5.65909
-5.67643
-5.72822
-5.86153
-6.33339
-7.11337
-6.38237
-7.03319
-10.5004
-11.1737
-32.9524
)
;

boundaryField
{
    leftWall
    {
        type            calculated;
        value           nonuniform List<scalar> 
50
(
644.925
585.71
525.841
465.898
406.546
348.499
292.505
238.723
157.389
64.5155
5.37696
-0.254265
-0.350501
-0.482619
-0.625569
-0.767868
-0.911939
-1.0559
-1.19938
-1.34256
-1.48556
-1.62847
-1.77137
-1.91428
-2.05725
-2.20027
-2.34336
-2.48653
-2.62978
-2.77313
-2.91658
-3.06013
-3.2038
-3.34757
-3.49145
-3.6354
-3.77941
-3.92349
-4.06764
-4.21184
-4.35608
-4.50038
-4.64472
-4.78911
-4.93355
-5.07809
-5.22271
-5.36735
-5.51201
-5.65668
)
;
    }
    rightWall
    {
        type            calculated;
        value           nonuniform List<scalar> 
50
(
1671.1
1521.86
1319.4
1094.29
824.478
554.523
404.739
352.894
272.275
269.763
268.534
273.816
318.589
395.122
513.971
671.437
781.225
753.816
562.964
384.169
290.887
247.907
202.501
143.435
84.2894
37.316
32.2427
44.1095
29.5844
28.2168
29.1389
22.7583
17.3966
11.693
7.04513
1.82894
0.00898147
4.0048
8.6254
9.00774
7.87429
8.18365
3.62964
1.02376
0.060289
-0.95511
-1.16955
0.756638
-10.72
-32.9524
)
;
    }
    lowerWall
    {
        type            calculated;
        value           nonuniform List<scalar> 
62
(
674.354
671.139
673.981
681.131
691.415
699.844
705.711
710.425
716.365
724.944
736.476
750.831
767.717
786.802
807.838
830.344
853.152
874.162
888.723
895.251
880.27
874.628
916.376
886.988
821.829
761.038
710.439
665.603
618.857
554.124
473.962
198.905
194.644
206.696
185.124
313.945
313.055
304.249
290.046
268.872
225.901
136.778
43.2172
314.108
301.976
290.091
287.106
287.37
287.564
288.054
288.333
287.967
287.168
287.318
288.39
291.039
293.753
291.077
332.15
650.462
1315.58
1684.12
)
;
    }
    atmosphere
    {
        type            calculated;
        value           nonuniform List<scalar> 
46
(
-5.72904
-5.72904
-5.72904
-5.72904
-5.72904
-5.72904
-5.72904
-5.72904
-5.72904
-5.72904
-5.72904
-5.72904
-5.72904
-5.72904
-5.72904
-5.72904
-5.72904
-5.72904
-5.72904
-5.72904
-5.72904
-5.72904
-5.72904
-5.72904
-5.72904
-5.72904
-5.72904
-5.72904
-5.72904
-5.72904
-5.72904
-5.72904
-5.7296
-5.73289
-5.74154
-5.75438
-5.78462
-5.85448
-6.04599
-6.67549
-7.28458
-6.16876
-6.74587
-10.6201
-10.7029
-258.927
)
;
    }
    defaultFaces
    {
        type            empty;
    }
}


// ************************************************************************* //
