/*--------------------------------*- C++ -*----------------------------------*\
| =========                 |                                                 |
| \\      /  F ield         | OpenFOAM: The Open Source CFD Toolbox           |
|  \\    /   O peration     | Version:  2012                                  |
|   \\  /    A nd           | Website:  www.openfoam.com                      |
|    \\/     M anipulation  |                                                 |
\*---------------------------------------------------------------------------*/
FoamFile
{
    version     2.0;
    format      ascii;
    class       volScalarField;
    location    "0.5";
    object      p_rgh;
}
// * * * * * * * * * * * * * * * * * * * * * * * * * * * * * * * * * * * * * //

dimensions      [1 -1 -2 0 0 0 0];


internalField   nonuniform List<scalar> 
2268
(
674.354
671.139
673.981
681.131
691.415
699.844
705.711
710.425
716.365
724.944
736.476
750.831
767.717
786.802
807.838
830.344
853.152
874.162
888.723
895.251
880.27
874.628
916.376
673.998
670.042
672.609
679.572
689.854
698.51
704.556
709.395
715.471
724.183
735.797
750.059
766.782
785.682
806.454
828.698
851.569
873.473
890.11
900.77
878.313
862.073
909.995
672.988
668.223
670.099
676.521
686.806
695.896
702.295
707.375
713.716
722.696
734.522
748.997
765.823
784.748
805.38
827.15
849.134
870.218
887.459
900.117
875.27
854.043
907.981
671.904
665.969
666.571
672.116
682.375
692.123
699.047
704.479
711.203
720.562
732.683
747.356
764.338
783.324
803.952
825.601
847.231
867.581
884.308
896.096
882.14
872.204
916.224
671.411
663.746
662.322
666.433
676.615
687.324
694.953
700.814
708.028
717.869
730.343
745.256
762.436
781.547
802.302
824.049
845.753
865.988
882.676
894.679
898.471
894.618
930.385
672.222
662.32
657.807
659.778
669.925
681.831
690.244
696.501
704.23
714.629
727.518
742.733
760.169
779.436
800.441
822.481
844.538
865.092
882.3
895.205
903.501
908.401
942.478
675.086
662.109
653.851
653.273
663.301
676.103
685.066
691.71
699.973
710.888
724.128
739.647
757.584
777.017
798.379
820.879
843.525
864.662
882.608
896.386
906.342
913.698
936.585
680.163
665.35
652.173
647.073
656.387
669.589
678.691
686.061
695.394
707.048
720.551
736.019
753.062
774.022
796.019
819.361
842.986
864.917
883.606
898.046
907.49
913.272
915.264
314.108
301.976
290.091
287.106
287.37
287.564
288.054
288.333
287.967
287.168
287.318
288.39
291.039
293.753
291.077
332.15
650.462
1315.58
1684.12
313.757
300.913
289.127
286.483
286.479
287.201
287.997
288.507
287.934
286.901
286.477
281.886
267.822
263.083
265.731
282.247
415.266
1001.72
1580.56
345.79
291.821
285.718
284.448
284.354
285.379
287.535
288.842
287.894
285.958
282.431
266.577
259.802
261.431
265.06
270.515
315.514
627.592
1417.33
421.694
284.294
283.968
283.816
283.517
283.846
286.152
289.333
288.319
285.055
272.894
258.075
256.978
260.537
264.755
268.456
286.022
418.147
1231.24
447.761
284.063
283.885
283.677
283.348
283.222
285.154
289.386
289.387
283.799
263.63
253.057
255.046
259.844
264.529
267.724
273.498
320.218
999.068
462.172
282.963
283.624
283.545
283.174
282.952
284.66
288.37
289.91
280.335
256.235
248.957
253.335
259.253
264.347
267.352
269.402
288.009
709.492
500.125
454.141
283.259
283.539
283.048
282.766
284.019
286.737
287.618
275.991
250.043
245.875
252.204
259.11
264.208
266.873
268.495
277.49
452.915
484.632
642.35
310.682
283.629
282.982
282.769
283.533
285.174
284.327
273.475
248.206
245.05
252.393
259.449
264.171
266.487
267.941
269.401
594.778
690.856
674.164
640.748
603.278
615.65
642.91
660.361
672.561
686.132
700.219
715.116
731.807
750.311
769.706
791.851
816.151
841.678
865.443
885.764
901.656
908.523
899.023
826.994
640.472
460.453
267.53
171.488
211.529
282.047
322.475
357.723
411.103
475.603
540.544
607.223
673.367
734.984
783.618
812.9
843.735
870.235
893.057
912.473
924.162
925.298
919.709
76.5267
0.918282
0.577681
0.751966
0.760292
0.787402
0.816776
0.838657
0.933091
13.4646
40.0197
77.8577
132.171
212.699
341.707
544.435
800.499
876.547
905.793
932.405
949.171
961.813
974.91
0.654786
0.632485
0.615155
0.684685
0.715308
0.74213
0.748476
0.763757
0.778769
0.741872
0.695558
0.672842
0.655459
0.649126
0.801891
20.0786
85.1275
247.338
523.954
888.701
982.726
996.042
1011.16
0.683745
0.709896
0.704024
0.696374
0.697548
0.707388
0.712569
0.70667
0.682415
0.635794
0.61817
0.61311
0.615191
0.619861
0.67028
0.714095
0.72855
4.76682
37.1496
95.5046
232.709
484.67
860.117
0.676821
0.676281
0.672891
0.676184
0.68194
0.687626
0.689707
0.687249
0.676573
0.656523
0.640877
0.627943
0.608132
0.580169
0.697703
0.764938
0.735196
0.728413
0.757731
0.799391
1.28022
14.6688
44.6925
0.659065
0.660186
0.663403
0.661389
0.662062
0.663891
0.663419
0.658872
0.649337
0.637642
0.627895
0.620229
0.615177
0.609499
0.676257
0.780836
0.656752
0.683319
0.685853
0.745069
0.724156
0.70655
0.84966
0.641961
0.642723
0.644216
0.643184
0.642999
0.642736
0.641019
0.636794
0.629914
0.622022
0.614896
0.608634
0.602189
0.594533
0.588845
0.592224
0.60396
0.62534
0.777577
0.829126
0.742061
0.783897
0.810138
0.623085
0.623912
0.625032
0.624347
0.623755
0.622759
0.620756
0.617253
0.612247
0.606558
0.60143
0.597191
0.594536
0.592678
0.587397
0.586601
0.589015
0.588229
0.903721
0.88613
0.762015
0.659921
0.70027
0.60432
0.605299
0.606048
0.605521
0.604802
0.603648
0.601804
0.59908
0.595543
0.591435
0.587712
0.584632
0.582383
0.580841
0.578074
0.576752
0.575461
0.578403
0.656351
0.881058
0.832387
0.604142
0.44113
0.586035
0.586874
0.587346
0.586918
0.586225
0.58516
0.583634
0.581597
0.579128
0.576399
0.573887
0.571782
0.570163
0.568802
0.567387
0.56576
0.563326
0.563315
0.544503
0.629029
0.800708
0.984701
0.678587
0.568049
0.568678
0.568936
0.56859
0.567991
0.56711
0.56593
0.564463
0.562788
0.561046
0.55947
0.558157
0.55715
0.556312
0.555344
0.55385
0.551497
0.547242
0.536079
0.515001
0.56546
1.04446
1.0695
0.550242
0.550676
0.550781
0.550505
0.550029
0.549357
0.5485
0.547494
0.546412
0.545356
0.544448
0.543753
0.543268
0.542889
0.542366
0.541392
0.539711
0.536435
0.529053
0.515215
0.491652
0.460034
0.6981
0.532524
0.532793
0.532811
0.532603
0.532256
0.531786
0.531215
0.530581
0.529947
0.529386
0.528975
0.528752
0.528708
0.528766
0.52876
0.528495
0.52775
0.525939
0.522008
0.51465
0.502275
0.487394
0.479729
0.514824
0.514975
0.514956
0.514818
0.514596
0.51431
0.513982
0.513649
0.513362
0.513177
0.513145
0.513295
0.513622
0.514076
0.514563
0.514964
0.515097
0.514614
0.513087
0.510046
0.505271
0.500944
0.502422
0.4971
0.49718
0.497161
0.497091
0.496985
0.496859
0.496735
0.496645
0.496631
0.496737
0.497001
0.497447
0.498076
0.498861
0.499746
0.50066
0.501488
0.50207
0.502238
0.501878
0.501253
0.501908
0.506455
0.479331
0.479377
0.47938
0.479376
0.479373
0.479383
0.479426
0.479531
0.479731
0.480063
0.480555
0.481231
0.482096
0.48314
0.484336
0.485643
0.487005
0.488368
0.489708
0.491082
0.492856
0.496032
0.50193
0.461504
0.461543
0.461579
0.461635
0.46172
0.461842
0.462021
0.462279
0.462645
0.463148
0.463811
0.464656
0.465693
0.466921
0.468331
0.469906
0.471629
0.473504
0.475564
0.477904
0.480817
0.484902
0.490892
0.443609
0.443657
0.44373
0.443837
0.443996
0.444209
0.444494
0.44487
0.445361
0.445989
0.446774
0.447737
0.448886
0.450226
0.451757
0.453478
0.455388
0.45751
0.459893
0.462635
0.465952
0.470181
0.475711
0.425636
0.4257
0.425811
0.425961
0.426177
0.426461
0.426828
0.427293
0.427873
0.428587
0.429453
0.430485
0.431694
0.433084
0.43466
0.436425
0.438388
0.440572
0.443019
0.445796
0.449036
0.452915
0.457635
0.407578
0.407661
0.407804
0.407989
0.40825
0.408586
0.409012
0.409538
0.410178
0.410947
0.411857
0.41292
0.414145
0.415534
0.417093
0.418822
0.420728
0.422827
0.425143
0.427708
0.430584
0.433845
0.437545
0.389425
0.389528
0.389699
0.389909
0.390202
0.390576
0.391041
0.391606
0.392281
0.393075
0.394001
0.395064
0.396269
0.397619
0.399112
0.400748
0.402523
0.404443
0.406511
0.408725
0.411093
0.413597
0.416287
0.371171
0.371293
0.371488
0.371715
0.37203
0.372426
0.372914
0.373499
0.374187
0.374986
0.375902
0.376941
0.378103
0.379383
0.38078
0.382283
0.383883
0.38557
0.387325
0.389132
0.390897
0.392684
0.394348
0.352809
0.352951
0.353165
0.353403
0.35373
0.354138
0.354635
0.355225
0.355909
0.356695
0.357586
0.358582
0.359681
0.360874
0.362154
0.363506
0.364909
0.366343
0.367754
0.369094
0.370367
0.371436
0.372171
0.334337
0.334498
0.334728
0.334971
0.335303
0.335714
0.33621
0.336792
0.337462
0.338222
0.339074
0.340015
0.341039
0.342136
0.343293
0.34449
0.345692
0.346869
0.347987
0.348957
0.349717
0.350156
0.350106
0.315756
0.315931
0.316179
0.316423
0.316754
0.31716
0.317648
0.318216
0.318862
0.319586
0.32039
0.321267
0.322212
0.32321
0.324246
0.325289
0.326315
0.327278
0.328123
0.328768
0.329118
0.329064
0.328414
0.297077
0.297253
0.297523
0.297762
0.298089
0.298486
0.29896
0.299509
0.300128
0.300806
0.301555
0.302362
0.303227
0.304124
0.305045
0.305963
0.306834
0.307616
0.308249
0.308644
0.308697
0.308303
0.307264
0.278318
0.278468
0.278766
0.278996
0.279316
0.2797
0.280158
0.280684
0.281284
0.281896
0.28259
0.283311
0.284088
0.284909
0.285736
0.286543
0.28729
0.287933
0.288411
0.288641
0.288519
0.287946
0.286732
0.259504
0.259586
0.25992
0.260135
0.260445
0.260811
0.261247
0.261743
0.262377
0.262843
0.263437
0.264129
0.264849
0.265592
0.266334
0.267048
0.267699
0.268243
0.268627
0.268775
0.268592
0.267988
0.266803
0.240618
0.240642
0.240998
0.24119
0.241485
0.241822
0.242238
0.242607
0.242974
0.243621
0.244227
0.244861
0.245518
0.246189
0.246855
0.247491
0.248067
0.248549
0.248888
0.249024
0.248873
0.248362
0.247372
0.221664
0.221653
0.222012
0.222175
0.222449
0.222719
0.223023
0.223445
0.223878
0.224401
0.22495
0.225522
0.226114
0.226717
0.227314
0.227884
0.228405
0.228848
0.229175
0.229345
0.229291
0.228961
0.228282
0.202659
0.202622
0.202968
0.203067
0.20331
0.20358
0.203892
0.20426
0.204667
0.205122
0.205609
0.206121
0.20665
0.207189
0.207724
0.208239
0.208718
0.209141
0.209479
0.209706
0.209783
0.209677
0.209364
0.183609
0.183557
0.183883
0.183932
0.184166
0.184397
0.184683
0.185012
0.185379
0.185781
0.186212
0.186667
0.187137
0.187618
0.188098
0.188568
0.189015
0.189428
0.189789
0.190086
0.190302
0.190429
0.190488
0.16451
0.16445
0.16469
0.164728
0.164956
0.165154
0.165411
0.165701
0.166027
0.166385
0.166767
0.167168
0.167586
0.168015
0.168448
0.168878
0.169299
0.169706
0.170095
0.170463
0.170813
0.171161
0.171561
0.145363
0.145323
0.145505
0.145505
0.14571
0.145869
0.146095
0.146349
0.146635
0.14695
0.147287
0.147641
0.148011
0.148393
0.148783
0.149177
0.149576
0.149978
0.15039
0.150821
0.151287
0.15182
0.152499
0.126169
0.12615
0.126292
0.126237
0.126427
0.126548
0.126741
0.126958
0.127206
0.12748
0.127775
0.128087
0.128415
0.128755
0.129104
0.129465
0.129842
0.130239
0.130664
0.131137
0.131682
0.132345
0.133223
0.106918
0.106921
0.106993
0.10692
0.107089
0.107178
0.107342
0.107523
0.107735
0.10797
0.108224
0.108496
0.108784
0.109086
0.109399
0.109724
0.110073
0.110454
0.110874
0.111357
0.11194
0.112668
0.113647
0.0875754
0.0875093
0.0876325
0.0875271
0.087681
0.0877395
0.0878765
0.0880279
0.0882045
0.0884018
0.0886156
0.0888437
0.0890862
0.0893455
0.0896221
0.0899111
0.0902176
0.0905587
0.0909485
0.0914088
0.0919774
0.0927034
0.0936789
0.06815
0.0680631
0.0682092
0.0680931
0.0682305
0.0682605
0.0683693
0.0684917
0.0686343
0.0687931
0.0689644
0.0691455
0.0693377
0.0695449
0.0697666
0.0700063
0.0702647
0.0705475
0.0708738
0.0712735
0.0717687
0.0724058
0.0732687
0.0487002
0.0486179
0.0487414
0.0486397
0.0487554
0.0487666
0.0488471
0.0489373
0.0490434
0.0491602
0.0492848
0.0494158
0.0495545
0.0497102
0.0498773
0.0500532
0.0502439
0.0504574
0.0507006
0.0510003
0.0513806
0.0518688
0.0525334
0.0292429
0.029221
0.0292545
0.0292086
0.0292751
0.0292824
0.0293312
0.0293807
0.0294455
0.029518
0.029597
0.0296823
0.0297729
0.0298667
0.0299695
0.0300777
0.0301949
0.0303288
0.0304805
0.0306668
0.0308984
0.0312037
0.0316223
0.00976379
0.00976538
0.00976535
0.00974767
0.00977754
0.00977205
0.00979027
0.00980754
0.00982801
0.00985231
0.00988052
0.00991188
0.00994673
0.00998019
0.0100131
0.0100514
0.010094
0.0101405
0.0101952
0.0102617
0.0103396
0.0104466
0.0105959
669.536
665.274
677.326
655.812
897.727
886.694
874.287
858.596
969.457
964.072
963.619
966.923
1018.74
1023.56
1031.13
1042.38
1047.81
1070.88
1089.05
1110.14
94.4524
152.331
259.195
526.103
0.958057
0.978643
2.29135
1.18496
0.849657
0.701329
0.604713
0.505596
0.619258
0.487678
0.488107
0.485996
0.426562
0.454607
0.512052
0.580673
0.507975
0.528468
0.575669
0.633832
1.08645
1.10825
1.13657
0.817174
0.687676
0.754205
1.03609
1.04243
0.485384
0.492153
0.503396
0.519731
0.509448
0.515684
0.524492
0.536047
0.513301
0.518827
0.52563
0.533579
0.508601
0.513594
0.519321
0.525735
0.496849
0.501112
0.505781
0.510808
0.480801
0.484347
0.48808
0.492011
0.461713
0.464471
0.467341
0.470217
0.440615
0.442634
0.44461
0.446484
0.418319
0.419583
0.420723
0.421675
0.395398
0.395967
0.396347
0.396476
0.372357
0.372316
0.372035
0.371451
0.34958
0.349039
0.34822
0.34706
0.327356
0.326451
0.32524
0.32366
0.30587
0.304742
0.303305
0.301491
0.285209
0.284003
0.282504
0.280645
0.265346
0.264201
0.262801
0.261084
0.246152
0.245191
0.244023
0.242606
0.227414
0.226723
0.22589
0.22489
0.208908
0.208535
0.208082
0.207546
0.190445
0.19039
0.190316
0.19023
0.171887
0.172115
0.17238
0.172687
0.153125
0.153583
0.154118
0.154736
0.134062
0.13468
0.135402
0.136232
0.1146
0.115298
0.116108
0.117039
0.0946293
0.0953289
0.0961409
0.0970708
0.074118
0.0747456
0.0754767
0.0763169
0.0531941
0.0536863
0.0542626
0.0549274
0.0320473
0.0323608
0.032723
0.0331438
0.0107448
0.0108517
0.0109787
0.0111282
589.971
717.512
544.133
286.794
282.87
282.722
282.909
283.015
281.063
271.93
254.411
249.467
254.578
260.657
264.409
266.259
267.191
265.395
700.63
830.58
885.821
875.282
343.114
282.3
282.074
281.793
280.913
278.23
272.082
263.935
260.315
260.895
263.509
265.531
266.748
267.321
266.863
807.543
975.42
1014.15
1033.64
385.547
281.548
281.051
280.562
279.486
277.22
273.471
269.033
265.945
265.098
265.776
266.684
267.464
267.734
267.503
910.969
1065.45
1111.37
1163.47
416.426
280.415
279.901
279.457
278.385
276.44
273.851
270.989
268.698
267.579
267.423
267.666
268.076
268.194
285.072
1080.19
1140.11
1187.21
1265.14
793.889
280.436
279.099
278.849
277.779
275.85
273.863
271.938
270.234
269.056
268.557
268.345
268.357
268.583
652.4
1280.8
1064.09
1242.03
1315.14
1365.62
713.146
278.429
278.769
276.905
275.202
273.883
272.58
270.958
269.842
269.364
268.762
268.526
268.707
1091.44
1482.94
62.7078
553.201
1299.18
1397.22
1455.8
1271.39
870.567
324.531
274.075
273.725
272.918
272.979
276.046
405.294
366.459
283.576
544.344
1444.84
1720.23
0.249526
0.575044
155.615
748.436
1445.65
1498.68
1537.22
1453.9
1071.09
632.608
627.363
890.044
1047
1246.22
1264
1258.64
1453.56
1753.9
1995.39
0.393758
0.759364
0.795669
24.0708
258.49
721.142
1235.29
1444.7
1491.55
1537.16
1552.8
1553.16
1557.89
1563.69
1606.99
1692.3
1823.09
2017.39
2222.75
0.659849
0.75345
0.783399
0.835348
0.913314
6.30977
103.284
358.17
652.929
902.982
1092.91
1204.35
1204.52
1163.81
1082.7
1230.16
1688.09
2130.92
2312.91
0.745973
0.877314
1.41525
1.3481
0.832875
0.813939
0.794749
0.812885
1.81303
25.2347
70.6335
111.661
117.836
121.898
162.385
226.655
651.491
1923.22
2239.28
1.22496
1.41741
1.44383
0.910627
0.749716
0.833789
0.851244
0.967121
1.32291
1.91715
2.15582
2.17046
7.38169
26.5423
115.239
274.474
901.333
1953.15
2176.37
0.773693
0.672577
0.649065
0.678288
0.733021
0.805274
0.861033
0.945239
1.13092
1.32498
1.14936
0.696458
2.83265
337.352
1236.11
1647.68
1924.73
2091.8
2139.75
0.548801
0.584504
0.630159
0.675299
0.72425
0.779802
0.841361
0.919508
1.02163
1.06364
0.723962
0.0537166
3.76492
649.346
1663.67
2088.36
2192.38
2222.91
1876
0.558522
0.589281
0.620635
0.656416
0.698333
0.746208
0.801673
0.865143
0.922179
0.880303
0.484268
3.72241
8.67395
-0.997954
60.762
1343.29
2278.3
2309.65
1924.51
0.548525
0.574055
0.60155
0.631513
0.665783
0.704935
0.748377
0.791713
0.813273
0.727534
0.375726
0.497735
2.19918
1.7356
2.37764
196.362
1926.16
2359.41
1959.86
0.53754
0.556989
0.578362
0.602027
0.628882
0.65944
0.691612
0.717988
0.719403
0.645872
0.389228
-0.12224
0.472585
3.36809
0.396981
343.832
1469.65
2132.33
2191.26
0.520161
0.535361
0.5516
0.569247
0.589338
0.612496
0.636366
0.653069
0.647952
0.601138
0.497196
0.274816
0.230527
0.295348
0.562539
619.026
1589.14
1553.46
2347.04
0.499081
0.510325
0.52196
0.534257
0.548448
0.565379
0.582972
0.594602
0.590302
0.562075
0.540736
0.51489
0.483146
0.604188
2.39792
691.372
1130.85
757.591
2449.93
0.475265
0.482967
0.490458
0.498056
0.5071
0.518575
0.531583
0.540407
0.538095
0.527328
0.533045
0.607156
0.648667
0.820338
6.51362
477.456
714.445
302.774
1317.43
0.449666
0.454163
0.457961
0.461401
0.465798
0.472144
0.480669
0.486497
0.487422
0.487469
0.507111
0.603934
0.726707
0.921582
2.93967
303.539
624.403
233.282
239.73
0.423147
0.424731
0.425195
0.424852
0.424852
0.426007
0.42768
0.429835
0.431033
0.438656
0.469196
0.538939
0.70689
0.921234
1.1061
154.741
429.398
239.944
247.024
0.396422
0.395389
0.392818
0.388931
0.384546
0.380177
0.374976
0.369476
0.367042
0.37237
0.400646
0.4699
0.613875
0.892651
1.44294
234.221
830.838
844.8
256.608
0.370082
0.36676
0.361451
0.354189
0.345326
0.335004
0.3221
0.30848
0.292628
0.28699
0.297741
0.34035
0.417958
0.517979
4.27506
523.738
994.724
1003.56
906.82
0.34463
0.339438
0.331787
0.321453
0.308145
0.291073
0.26853
0.2409
0.210251
0.18156
0.160863
0.148107
0.0841781
-0.210694
-0.444713
137.635
761.72
1035.36
1032.2
0.320459
0.313937
0.304559
0.29182
0.27458
0.250683
0.218172
0.174953
0.12296
0.0635368
0.00512966
-0.0633947
-0.10626
0.00392893
-0.775559
-0.997476
22.4221
1060.51
1062.41
0.297866
0.290644
0.280331
0.266244
0.24668
0.218252
0.177918
0.122241
0.0459572
-0.0444488
-0.128594
-0.210061
-0.266226
-0.513054
-0.779527
-0.767253
10.545
603.83
1093.66
0.276963
0.26973
0.259372
0.2452
0.225356
0.195979
0.155896
0.0962374
0.00524165
-0.105519
-0.199717
-0.267723
-0.370076
-0.567887
-0.717374
-0.603814
0.0331671
32.5156
1124.17
0.257694
0.251125
0.241645
0.228586
0.210663
0.183687
0.150499
0.0972318
0.0121331
-0.101849
-0.199873
-0.264049
-0.357886
-0.522759
-0.687454
-0.602007
-0.0879947
39.44
1111.67
0.239816
0.234515
0.226852
0.216149
0.20252
0.181031
0.160243
0.131433
0.0573968
-0.045833
-0.155097
-0.242049
-0.196824
0.00131718
-0.644124
-0.51987
-0.227656
104.465
1027.05
0.222926
0.219287
0.2142
0.206856
0.19821
0.186667
0.182907
0.17703
0.116763
0.020311
-0.114791
-0.243996
-0.158591
0.103997
0.90526
2.54646
0.794418
198.971
1059.85
0.206512
0.204653
0.202294
0.19873
0.194822
0.192598
0.197962
0.20802
0.173143
0.0606984
-0.100383
-0.242335
0.0330562
-0.269385
5.35113
49.5833
18.3984
109.016
1086.47
0.190095
0.189914
0.189991
0.189933
0.190228
0.194014
0.202281
0.220242
0.19933
0.0924578
-0.0740296
-0.208248
-0.241247
-0.137417
20.2868
71.041
59.5654
14.5519
1036.86
0.17332
0.174565
0.176586
0.179341
0.183467
0.189767
0.202346
0.214318
0.208743
0.129844
-0.0160297
-0.127839
-0.124882
0.0481223
55.5161
73.9781
62.9802
11.7721
1000.78
0.155959
0.158325
0.161644
0.166396
0.172947
0.18115
0.192449
0.205691
0.199966
0.150797
0.0516172
-0.0261662
-0.0301247
16.389
74.5146
76.2959
38.1413
9.25796
1023.96
0.137861
0.141092
0.144968
0.151108
0.158955
0.168428
0.178598
0.188445
0.186436
0.155554
0.0945007
0.0353125
-0.0124615
59.1881
76.1527
78.2447
20.1603
8.26868
1052.13
0.118851
0.122402
0.126763
0.133539
0.14187
0.15185
0.162832
0.171342
0.169274
0.147769
0.104388
0.0398897
-0.0117896
11.7613
76.7078
71.8377
8.88817
5.84901
1051.5
0.0988729
0.102428
0.10676
0.113641
0.121794
0.131431
0.144361
0.15291
0.152063
0.137753
0.105905
0.0524708
0.0257674
-0.0398717
47.4255
60.1315
8.76277
5.77938
502.934
0.0779415
0.0811586
0.0850673
0.0914512
0.0988121
0.107762
0.121304
0.130783
0.134458
0.132521
0.11938
0.0847473
0.0680668
-0.0410779
11.5207
52.8004
9.50369
5.41204
638.439
0.0562149
0.0587597
0.0619518
0.0671026
0.0730431
0.0807062
0.0925606
0.10151
0.110515
0.121447
0.118264
0.0880982
-0.00892741
-0.323954
2.91197
48.6256
14.0828
6.80724
807.821
0.0339622
0.0355896
0.0377595
0.0411002
0.0447504
0.0507857
0.0577108
0.061682
0.0653022
0.0689342
0.0509108
-0.0043254
-0.275191
-0.899103
2.79091
32.1492
30.6513
4.39353
809.381
0.0114153
0.0119942
0.0127943
0.0141779
0.0161001
0.0174467
0.0179417
0.0143632
0.0073559
-0.00998757
-0.0617733
-0.195087
-0.666951
0.0916151
-0.715927
-1.36674
0.00370844
-0.58775
223.145
)
;

boundaryField
{
    leftWall
    {
        type            fixedFluxPressure;
        gradient        uniform 0;
        value           nonuniform List<scalar> 
50
(
674.354
673.998
672.988
671.904
671.411
672.222
675.086
680.163
690.856
640.472
76.5267
0.654786
0.683745
0.676821
0.659065
0.641961
0.623085
0.60432
0.586035
0.568049
0.550242
0.532524
0.514824
0.4971
0.479331
0.461504
0.443609
0.425636
0.407578
0.389425
0.371171
0.352809
0.334337
0.315756
0.297077
0.278318
0.259504
0.240618
0.221664
0.202659
0.183609
0.16451
0.145363
0.126169
0.106918
0.0875754
0.06815
0.0487002
0.0292429
0.00976379
)
;
    }
    rightWall
    {
        type            fixedFluxPressure;
        gradient        uniform 0;
        value           nonuniform List<scalar> 
50
(
1684.12
1580.56
1417.33
1231.24
999.068
709.492
452.915
594.778
700.63
807.543
910.969
1080.19
1280.8
1482.94
1720.23
1995.39
2222.75
2312.91
2239.28
2176.37
2139.75
1876
1924.51
1959.86
2191.26
2347.04
2449.93
1317.43
239.73
247.024
256.608
906.82
1032.2
1062.41
1093.66
1124.17
1111.67
1027.05
1059.85
1086.47
1036.86
1000.78
1023.96
1052.13
1051.5
502.934
638.439
807.821
809.381
223.145
)
;
    }
    lowerWall
    {
        type            fixedFluxPressure;
        gradient        uniform 0;
        value           nonuniform List<scalar> 
62
(
674.354
671.139
673.981
681.131
691.415
699.844
705.711
710.425
716.365
724.944
736.476
750.831
767.717
786.802
807.838
830.344
853.152
874.162
888.723
895.251
880.27
874.628
916.376
916.376
909.995
907.981
916.224
930.385
942.478
936.585
915.264
669.536
665.274
677.326
655.812
314.108
313.757
345.79
421.694
447.761
462.172
500.125
484.632
314.108
301.976
290.091
287.106
287.37
287.564
288.054
288.333
287.967
287.168
287.318
288.39
291.039
293.753
291.077
332.15
650.462
1315.58
1684.12
)
;
    }
    atmosphere
    {
        type            totalPressure;
        rho             rho;
        psi             none;
        gamma           1;
        p0              uniform 0;
        value           nonuniform List<scalar> 
46
(
0
0
0
0
0
0
0
0
0
0
0
0
0
0
0
0
0
0
0
0
0
0
0
0
0
0
0
0
0
0
0
0
-0.000564159
-0.00384577
-0.0124951
-0.0253439
-0.0555828
-0.125444
-0.31695
-0.946446
0
-0.439724
-1.01683
0
0
0
)
;
    }
    defaultFaces
    {
        type            empty;
    }
}


// ************************************************************************* //
