/*--------------------------------*- C++ -*----------------------------------*\
| =========                 |                                                 |
| \\      /  F ield         | OpenFOAM: The Open Source CFD Toolbox           |
|  \\    /   O peration     | Version:  2012                                  |
|   \\  /    A nd           | Website:  www.openfoam.com                      |
|    \\/     M anipulation  |                                                 |
\*---------------------------------------------------------------------------*/
FoamFile
{
    version     2.0;
    format      ascii;
    class       surfaceScalarField;
    location    "0.5";
    object      phi;
}
// * * * * * * * * * * * * * * * * * * * * * * * * * * * * * * * * * * * * * //

dimensions      [0 3 -1 0 0 0 0];
oriented        oriented;


internalField   nonuniform List<scalar> 
4432
(
-3.78497e-06
3.78497e-06
-5.25734e-06
1.47237e-06
-3.23737e-06
-2.01997e-06
1.0312e-06
-4.26857e-06
6.53341e-06
-5.50221e-06
1.21296e-05
-5.59621e-06
1.69249e-05
-4.7953e-06
2.0507e-05
-3.58204e-06
2.28835e-05
-2.37655e-06
2.42543e-05
-1.37077e-06
2.48379e-05
-5.83612e-07
2.47664e-05
7.14765e-08
2.40516e-05
7.14764e-07
2.26428e-05
1.40881e-06
2.02986e-05
2.3442e-06
1.65809e-05
3.71773e-06
1.10064e-05
5.57445e-06
3.76301e-06
7.24343e-06
-2.77496e-06
6.53797e-06
-8.52101e-06
5.74605e-06
-1.62015e-05
7.6805e-06
-1.55446e-05
-6.56888e-07
-1.55446e-05
-4.06378e-06
7.84875e-06
-4.92613e-06
2.33472e-06
-2.74029e-06
-4.20581e-06
1.50885e-06
-8.51772e-06
6.93557e-06
-1.09289e-05
1.24584e-05
-1.11191e-05
1.71712e-05
-9.50806e-06
2.06687e-05
-7.07954e-06
2.29848e-05
-4.69264e-06
2.43423e-05
-2.72833e-06
2.49801e-05
-1.22143e-06
2.51358e-05
-8.42072e-08
2.5017e-05
8.33582e-07
2.47183e-05
1.70751e-06
2.42667e-05
2.79583e-06
2.34645e-05
4.51994e-06
2.1583e-05
7.45594e-06
1.71103e-05
1.17161e-05
8.83049e-06
1.48177e-05
-2.35976e-06
1.69363e-05
-1.05145e-05
1.58352e-05
-9.11397e-06
-2.05737e-06
-2.46586e-05
-3.44003e-06
1.12888e-05
-3.99839e-06
2.89308e-06
-1.84527e-06
-6.35893e-06
2.15068e-06
-1.25137e-05
7.33885e-06
-1.61171e-05
1.26982e-05
-1.64785e-05
1.72409e-05
-1.40507e-05
2.0543e-05
-1.03816e-05
2.26891e-05
-6.83879e-06
2.3949e-05
-3.98818e-06
2.45688e-05
-1.84121e-06
2.47137e-05
-2.29171e-07
2.44991e-05
1.04821e-06
2.40082e-05
2.1984e-06
2.33506e-05
3.45342e-06
2.27307e-05
5.13982e-06
2.24272e-05
7.75943e-06
2.1838e-05
1.23054e-05
1.85522e-05
1.81035e-05
1.13052e-05
2.41833e-05
2.07403e-06
2.50663e-05
-2.54808e-07
2.71477e-07
-2.49134e-05
-2.53153e-06
1.38203e-05
-2.66128e-06
3.02283e-06
-6.32987e-07
-8.38722e-06
2.86346e-06
-1.60101e-05
7.66401e-06
-2.09177e-05
1.28043e-05
-2.16187e-05
1.71562e-05
-1.84027e-05
2.02468e-05
-1.34722e-05
2.22126e-05
-8.80461e-06
2.33769e-05
-5.15243e-06
2.40001e-05
-2.46443e-06
2.42358e-05
-4.6486e-07
2.41686e-05
1.11542e-06
2.38386e-05
2.52831e-06
2.32755e-05
4.01658e-06
2.2567e-05
5.84829e-06
2.20305e-05
8.29591e-06
2.22744e-05
1.20615e-05
2.27013e-05
1.76766e-05
2.14756e-05
2.5409e-05
1.76125e-05
2.89294e-05
9.46792e-06
8.41609e-06
-1.54455e-05
-1.32974e-06
1.515e-05
-7.52546e-07
2.44563e-06
1.09694e-06
-1.02367e-05
4.15158e-06
-1.90648e-05
8.42466e-06
-2.51907e-05
1.3097e-05
-2.62911e-05
1.70364e-05
-2.23421e-05
1.97962e-05
-1.62319e-05
2.15619e-05
-1.05704e-05
2.26658e-05
-6.25634e-06
2.3343e-05
-3.14157e-06
2.3714e-05
-8.3585e-07
2.38369e-05
9.92468e-07
2.37366e-05
2.6286e-06
2.3433e-05
4.32025e-06
2.29749e-05
6.30639e-06
2.2478e-05
8.79277e-06
2.24255e-05
1.2114e-05
2.35302e-05
1.65718e-05
2.54884e-05
2.34509e-05
2.51251e-05
2.92927e-05
1.6095e-05
1.74462e-05
6.49498e-07
2.18002e-07
1.4932e-05
2.04622e-06
6.17416e-07
4.24505e-06
-1.24355e-05
7.25365e-06
-2.20734e-05
1.08285e-05
-2.87656e-05
1.44411e-05
-2.99036e-05
1.73968e-05
-2.52978e-05
1.94657e-05
-1.83008e-05
2.08717e-05
-1.19764e-05
2.18873e-05
-7.27198e-06
2.26561e-05
-3.91034e-06
2.32186e-05
-1.39842e-06
2.35823e-05
6.2876e-07
2.37233e-05
2.48765e-06
2.36592e-05
4.38437e-06
2.34538e-05
6.51176e-06
2.32352e-05
9.01135e-06
2.31659e-05
1.21833e-05
2.37546e-05
1.59832e-05
2.59258e-05
2.12797e-05
2.71222e-05
2.80963e-05
1.9138e-05
2.54303e-05
1.97875e-05
2.54093e-06
1.23911e-05
5.99514e-06
-2.83679e-06
9.75379e-06
-1.61942e-05
1.32015e-05
-2.55211e-05
1.56504e-05
-3.12145e-05
1.73569e-05
-3.16102e-05
1.86798e-05
-2.66207e-05
1.97146e-05
-1.93357e-05
2.05745e-05
-1.28362e-05
2.13687e-05
-8.06612e-06
2.21279e-05
-4.66961e-06
2.28099e-05
-2.08043e-06
2.34005e-05
3.82062e-08
2.38018e-05
2.08632e-06
2.39894e-05
4.19683e-06
2.40045e-05
6.49665e-06
2.40108e-05
9.00498e-06
2.41343e-05
1.20598e-05
2.44182e-05
1.56993e-05
2.57367e-05
1.99612e-05
2.70453e-05
2.67876e-05
2.16178e-05
3.08578e-05
4.14054e-05
4.86574e-06
7.52536e-06
1.11833e-05
-9.15436e-06
1.75604e-05
-2.25713e-05
2.1239e-05
-2.91997e-05
2.17237e-05
-3.16992e-05
2.08881e-05
-3.07745e-05
2.04176e-05
-2.61502e-05
2.05606e-05
-1.94786e-05
2.10516e-05
-1.33273e-05
2.1688e-05
-8.70252e-06
2.23703e-05
-5.35184e-06
2.30269e-05
-2.73707e-06
2.34984e-05
-4.33329e-07
2.39731e-05
1.61162e-06
2.4288e-05
3.88193e-06
2.45121e-05
6.27258e-06
2.47742e-05
8.74284e-06
2.51406e-05
1.16935e-05
2.55369e-05
1.5303e-05
2.63097e-05
1.91884e-05
2.71548e-05
2.59425e-05
2.29619e-05
3.50507e-05
6.43672e-05
0.000101647
-0.000101647
0.00017763
-7.59832e-05
0.000189912
-1.22821e-05
0.00019366
-3.74742e-06
0.000170239
2.34208e-05
9.29637e-05
7.72753e-05
1.18879e-05
8.10761e-05
-4.73653e-06
1.66241e-05
3.84167e-05
-4.31532e-05
2.67912e-05
1.16253e-05
-8.87313e-05
0.000115523
-0.000266761
0.00017803
-0.000394467
0.000127706
-0.000396038
1.57188e-06
-0.000333663
-6.2375e-05
-0.000262791
-7.08728e-05
-0.000189648
-7.31428e-05
-8.27627e-05
-0.000106885
-8.27627e-05
4.87306e-05
-0.000150378
8.81723e-05
-0.000115425
9.91497e-05
-2.32594e-05
0.000112731
-1.73284e-05
0.00014877
-1.26183e-05
0.000153458
7.25872e-05
8.41369e-05
0.000150397
2.84944e-05
7.22664e-05
2.50402e-05
-3.96987e-05
-0.000108848
0.000145514
-0.000317606
0.000324281
-0.000448378
0.000308802
-0.000438878
0.000118205
-0.000341921
-9.53849e-05
-0.000276653
-0.000127643
-0.00023422
-0.000113305
-0.000156088
-0.000151275
-5.78569e-05
-0.000205116
-0.00014062
1.76846e-05
-0.000168063
4.69886e-05
-0.000144729
7.29654e-05
-4.92358e-05
8.08377e-05
-2.52008e-05
0.000107883
-3.96634e-05
0.000134232
4.62385e-05
9.37247e-05
0.000190904
3.52192e-05
0.000130772
-4.21969e-05
3.77174e-05
-0.00021925
0.000322567
-0.000395069
0.0005001
-0.00046346
0.000377193
-0.000408827
6.35722e-05
-0.000363826
-0.000140386
-0.000325258
-0.000166211
-0.000261314
-0.00017725
-0.000181637
-0.000230952
-5.8326e-05
-0.000328427
-0.000198946
-2.07823e-05
-0.00014728
-1.79606e-05
-0.00014755
4.54366e-05
-0.000112633
8.32908e-05
-6.30551e-05
9.3435e-05
-4.98075e-05
0.000100579
3.90945e-05
6.47132e-05
0.00022677
-2.43419e-05
0.000219827
-0.000178356
0.000191731
-0.000330073
0.000474284
-0.00041753
0.000587556
-0.000409069
0.000368733
-0.000349472
3.97504e-06
-0.000298498
-0.00019136
-0.000238492
-0.000226217
-0.000201631
-0.00021411
-0.000153883
-0.0002787
-5.12492e-05
-0.000431061
-0.000250195
-4.06823e-05
-0.000106598
-3.08442e-05
-0.000157389
1.27021e-05
-0.000156179
4.71308e-05
-9.74836e-05
5.81463e-05
-6.08233e-05
5.29744e-05
4.42667e-05
1.51434e-05
0.000264601
-0.000114007
0.000348977
-0.00029014
0.000367864
-0.000383687
0.000567831
-0.000399871
0.00060374
-0.000348985
0.000317847
-0.00027945
-6.55594e-05
-0.000212271
-0.000258539
-0.000149295
-0.000289193
-0.000121704
-0.000241701
-0.000105059
-0.000295346
-4.28893e-05
-0.000493231
-0.000293084
-3.2762e-05
-7.38363e-05
-3.17892e-05
-0.000158362
-1.1308e-05
-0.00017666
1.70389e-05
-0.00012583
2.48844e-05
-6.8669e-05
1.32817e-05
5.58695e-05
-2.97704e-05
0.000307652
-0.000164316
0.000483523
-0.000317066
0.000520614
-0.000371189
0.000621954
-0.000350862
0.000583413
-0.00027813
0.000245116
-0.000192832
-0.000150858
-0.000114225
-0.000337146
-6.67617e-05
-0.000336656
-4.77834e-05
-0.000260679
-6.0674e-05
-0.000282455
-3.66136e-05
-0.000517291
-0.000329698
-7.3282e-06
-6.6508e-05
-2.92433e-05
-0.000136447
-1.45976e-05
-0.000191306
-3.46714e-06
-0.000136961
-5.74447e-06
-6.63914e-05
-1.88882e-05
6.90133e-05
-5.36767e-05
0.00034244
-0.000151237
0.000581083
-0.00027151
0.000640887
-0.000304757
0.000655201
-0.000254581
0.000533236
-0.000152457
0.000142992
-6.4255e-05
-0.00023906
-1.1498e-05
-0.000389903
7.23174e-06
-0.000355386
3.03757e-05
-0.000283824
-8.77934e-06
-0.000243299
-4.08548e-05
-0.000485216
-0.000370553
1.02484e-05
-7.67565e-05
-5.22635e-06
-0.000120972
-9.79423e-06
-0.000186738
-8.33993e-06
-0.000138415
-2.05593e-05
-5.4172e-05
-4.28246e-05
9.12788e-05
-5.76017e-05
0.000357217
-9.5688e-05
0.00061917
-0.000163809
0.000709008
-0.000192966
0.000684359
-0.000120371
0.00046064
-8.50275e-06
3.11244e-05
4.78065e-05
-0.00029537
6.0723e-05
-0.000402819
5.83641e-05
-0.000353027
6.02768e-05
-0.000285736
6.56766e-05
-0.000248699
-1.18996e-05
-0.00040764
-0.000382452
1.85738e-05
-1.10484e-05
4.24092e-05
-3.29898e-05
6.00643e-05
-4.02265e-05
6.24941e-05
-3.16294e-05
5.53558e-05
-2.4561e-05
4.7535e-05
-2.29538e-05
4.33936e-05
-2.20088e-05
4.30913e-05
-1.91764e-05
4.50576e-05
-1.52935e-05
4.78645e-05
-1.15095e-05
5.06012e-05
-8.08851e-06
5.27447e-05
-4.88062e-06
5.41318e-05
-1.82044e-06
5.44978e-05
1.24562e-06
5.43218e-05
4.05799e-06
5.40635e-05
6.53082e-06
5.45843e-05
8.22207e-06
5.57514e-05
1.05264e-05
5.75121e-05
1.35423e-05
6.04029e-05
1.62976e-05
6.64262e-05
1.99192e-05
7.88641e-05
2.26128e-05
3.38796e-05
0.000109352
2.84008e-05
-3.94493e-05
5.75525e-05
-6.21414e-05
6.70233e-05
-4.96973e-05
5.17853e-05
-1.63914e-05
3.65352e-05
-9.3109e-06
2.82766e-05
-1.46951e-05
2.40459e-05
-1.77781e-05
2.42962e-05
-1.94266e-05
2.97364e-05
-2.07338e-05
3.81085e-05
-1.98816e-05
4.64551e-05
-1.64351e-05
5.32827e-05
-1.17082e-05
5.76407e-05
-6.17842e-06
5.9663e-05
-7.76625e-07
5.92387e-05
4.48224e-06
5.82778e-05
7.4918e-06
5.88131e-05
7.68669e-06
5.95693e-05
9.77017e-06
6.12541e-05
1.18575e-05
6.52975e-05
1.22541e-05
7.25781e-05
1.26387e-05
8.31978e-05
1.19931e-05
1.22654e-05
0.000104812
4.13174e-05
-8.07667e-05
2.94081e-05
-5.02321e-05
-1.2894e-05
-7.39527e-06
-4.71025e-05
1.7817e-05
-4.82224e-05
-8.19106e-06
-5.02764e-05
-1.26413e-05
-6.57851e-05
-2.26943e-06
-7.35316e-05
-1.16801e-05
-6.35813e-05
-3.06841e-05
-3.54859e-05
-4.79769e-05
-1.35059e-05
-3.84151e-05
5.84109e-06
-3.10552e-05
2.3774e-05
-2.41113e-05
3.76949e-05
-1.46975e-05
4.8496e-05
-6.31892e-06
5.84303e-05
-2.44251e-06
6.46367e-05
1.4803e-06
6.40943e-05
1.03126e-05
6.26721e-05
1.32798e-05
6.47265e-05
1.01997e-05
6.87366e-05
8.6286e-06
7.41213e-05
6.60845e-06
1.25885e-06
8.51278e-05
-1.91732e-05
-6.15936e-05
-2.58292e-05
-4.35764e-05
-3.8194e-05
4.96937e-06
-2.43545e-05
3.97736e-06
-1.70503e-05
-1.54953e-05
-1.96564e-05
-1.00352e-05
-2.0886e-05
-1.03982e-06
-2.59525e-05
-6.61369e-06
-3.98138e-05
-1.68228e-05
-6.4973e-05
-2.28177e-05
-8.75382e-05
-1.585e-05
-0.000107689
-1.0904e-05
-0.000118126
-1.36743e-05
-0.000105919
-2.69052e-05
-7.21243e-05
-4.01132e-05
-1.31046e-05
-6.14622e-05
2.06046e-05
-3.22289e-05
4.09553e-05
-1.00381e-05
5.46127e-05
-3.77657e-07
6.62618e-05
-1.44934e-06
7.23631e-05
2.52727e-06
7.68175e-05
2.15401e-06
-2.95761e-06
8.1034e-05
-3.18928e-05
-2.9701e-05
-3.84702e-05
-3.69991e-05
-1.74276e-05
-1.60734e-05
-5.62519e-06
-7.82518e-06
-9.67949e-06
-1.14411e-05
-1.14345e-05
-8.28026e-06
-7.21005e-06
-5.2643e-06
-6.35986e-06
-7.46387e-06
-1.03737e-05
-1.2809e-05
-1.67924e-05
-1.63989e-05
-2.09467e-05
-1.16955e-05
-3.1578e-05
-2.72606e-07
-4.95987e-05
4.34656e-06
-7.16393e-05
-4.86451e-06
-7.87543e-05
-3.29982e-05
-8.52646e-05
-5.4952e-05
-8.15113e-05
-3.59822e-05
-4.47836e-05
-4.67659e-05
4.15879e-06
-4.93201e-05
2.83475e-05
-2.5638e-05
4.1733e-05
-1.08583e-05
5.82243e-05
-1.43372e-05
-2.09102e-05
7.61769e-05
-1.39084e-05
-1.57926e-05
-1.61312e-05
-3.47766e-05
-1.39075e-05
-1.82971e-05
-1.02375e-05
-1.14953e-05
-1.11034e-05
-1.05752e-05
-1.10799e-05
-8.30377e-06
-9.94711e-06
-6.39713e-06
-1.02879e-05
-7.1231e-06
-1.23879e-05
-1.07089e-05
-1.41429e-05
-1.46439e-05
-1.12435e-05
-1.45948e-05
-3.81098e-06
-7.70507e-06
-3.2849e-06
3.82054e-06
-9.83171e-06
1.68231e-06
-1.11147e-05
-3.17153e-05
-1.25692e-05
-5.34976e-05
-4.10777e-06
-4.44437e-05
-2.09334e-06
-4.87804e-05
-5.36376e-07
-5.08771e-05
-1.32423e-05
-1.29322e-05
-2.87723e-05
4.67181e-06
5.57984e-06
-4.86893e-05
-4.7821e-05
3.24907e-05
-7.95009e-06
-7.84269e-06
-1.15378e-05
-3.1189e-05
-1.1319e-05
-1.85161e-05
-9.92831e-06
-1.2886e-05
-9.72498e-06
-1.07786e-05
-8.97203e-06
-9.0567e-06
-8.03034e-06
-7.33882e-06
-8.06495e-06
-7.0885e-06
-9.7555e-06
-9.01835e-06
-1.23058e-05
-1.20936e-05
-1.33346e-05
-1.3566e-05
-1.03908e-05
-1.06488e-05
-1.36557e-06
-5.20467e-06
9.01343e-06
-8.69669e-06
8.23549e-06
-3.09373e-05
2.98141e-06
-4.82436e-05
5.55377e-06
-4.70162e-05
1.27223e-05
-5.59489e-05
2.87185e-05
-6.68732e-05
6.19837e-05
-4.61972e-05
8.81679e-05
-2.15124e-05
8.08262e-05
-4.13475e-05
-1.87684e-05
5.17737e-05
-6.04953e-06
-1.79326e-06
-8.54988e-06
-2.86888e-05
-8.45303e-06
-1.8613e-05
-7.97669e-06
-1.33624e-05
-7.42253e-06
-1.13327e-05
-6.57344e-06
-9.90577e-06
-5.56852e-06
-8.34373e-06
-5.18231e-06
-7.47471e-06
-5.98439e-06
-8.21628e-06
-7.55642e-06
-1.05215e-05
-8.00782e-06
-1.31146e-05
-4.39137e-06
-1.42652e-05
4.25298e-06
-1.3849e-05
1.29384e-05
-1.73821e-05
1.31941e-05
-3.1193e-05
7.55322e-06
-4.26027e-05
6.85185e-06
-4.63148e-05
7.64673e-06
-5.67438e-05
1.51382e-05
-7.43647e-05
4.13717e-05
-7.24306e-05
8.11115e-05
-6.12521e-05
9.69637e-05
-5.71996e-05
-2.02158e-05
9.84111e-05
-4.31737e-06
2.52402e-06
-6.15993e-06
-2.68463e-05
-6.33072e-06
-1.84422e-05
-6.25573e-06
-1.34373e-05
-5.84986e-06
-1.17385e-05
-5.08942e-06
-1.06662e-05
-3.96202e-06
-9.47111e-06
-2.86867e-06
-8.56805e-06
-2.33273e-06
-8.75223e-06
-2.44514e-06
-1.04091e-05
-2.46027e-06
-1.30994e-05
-6.40208e-07
-1.60852e-05
4.49175e-06
-1.89809e-05
1.0789e-05
-2.36793e-05
1.19197e-05
-3.23237e-05
9.66207e-06
-4.0345e-05
9.61628e-06
-4.6269e-05
8.91331e-06
-5.60407e-05
1.02453e-05
-7.56966e-05
2.14883e-05
-8.36736e-05
3.95596e-05
-7.93233e-05
5.27468e-05
-7.03867e-05
-3.69646e-05
6.94958e-05
-2.77801e-06
5.302e-06
-4.29678e-06
-2.53275e-05
-4.78445e-06
-1.79545e-05
-4.89089e-06
-1.33308e-05
-4.64401e-06
-1.19853e-05
-4.02334e-06
-1.12868e-05
-2.93177e-06
-1.05626e-05
-1.49291e-06
-1.00069e-05
-9.0772e-08
-1.01543e-05
9.76744e-07
-1.14766e-05
1.81981e-06
-1.39425e-05
2.97749e-06
-1.72428e-05
5.13235e-06
-2.11357e-05
7.45895e-06
-2.60059e-05
7.55067e-06
-3.24154e-05
5.82487e-06
-3.86192e-05
4.38906e-06
-4.48331e-05
2.27289e-06
-5.39245e-05
-3.66845e-06
-6.97552e-05
-5.24121e-06
-8.21008e-05
-1.1421e-06
-8.34224e-05
4.89875e-06
-7.64275e-05
-4.86127e-05
1.65468e-05
-1.72819e-06
7.03019e-06
-3.03391e-06
-2.40216e-05
-3.64273e-06
-1.73455e-05
-3.88894e-06
-1.30844e-05
-3.81066e-06
-1.20635e-05
-3.40131e-06
-1.1696e-05
-2.57226e-06
-1.13916e-05
-1.31879e-06
-1.12603e-05
1.42391e-07
-1.16155e-05
1.48044e-06
-1.28146e-05
2.50556e-06
-1.49676e-05
3.25375e-06
-1.7991e-05
3.78714e-06
-2.16691e-05
3.8515e-06
-2.60702e-05
2.57954e-06
-3.11434e-05
2.62457e-07
-3.63021e-05
-2.53104e-06
-4.20396e-05
-6.46463e-06
-4.99909e-05
-1.44632e-05
-6.17566e-05
-2.35234e-05
-7.30407e-05
-3.01435e-05
-7.68022e-05
-3.55418e-05
-7.10293e-05
-4.68642e-05
-3.72901e-05
-1.06575e-06
8.096e-06
-2.20083e-06
-2.28863e-05
-2.86963e-06
-1.66765e-05
-3.22414e-06
-1.27297e-05
-3.31032e-06
-1.19771e-05
-3.14213e-06
-1.18641e-05
-2.67952e-06
-1.18541e-05
-1.89958e-06
-1.20402e-05
-9.0119e-07
-1.26138e-05
5.89215e-08
-1.37747e-05
7.30026e-07
-1.56387e-05
9.28875e-07
-1.81898e-05
5.78274e-07
-2.13185e-05
-5.40408e-07
-2.49515e-05
-2.62609e-06
-2.90577e-05
-5.45797e-06
-3.34702e-05
-9.23179e-06
-3.82658e-05
-1.44327e-05
-4.479e-05
-2.232e-05
-5.38694e-05
-3.27946e-05
-6.25661e-05
-4.28591e-05
-6.67378e-05
-5.15455e-05
-6.23428e-05
-4.32892e-05
-5.51206e-05
-6.76177e-07
8.77229e-06
-1.67339e-06
-2.18889e-05
-2.38698e-06
-1.59627e-05
-2.83125e-06
-1.22853e-05
-3.06173e-06
-1.17465e-05
-3.11678e-06
-1.18089e-05
-2.99893e-06
-1.19719e-05
-2.70785e-06
-1.23312e-05
-2.30706e-06
-1.30146e-05
-1.95697e-06
-1.41248e-05
-1.86269e-06
-1.5733e-05
-2.20555e-06
-1.7847e-05
-3.10857e-06
-2.04155e-05
-4.65481e-06
-2.34053e-05
-6.91346e-06
-2.67991e-05
-9.90753e-06
-3.04762e-05
-1.37688e-05
-3.44045e-05
-1.93503e-05
-3.92086e-05
-2.79308e-05
-4.52889e-05
-3.90182e-05
-5.14788e-05
-5.04538e-05
-5.53022e-05
-6.01842e-05
-5.26125e-05
-4.12458e-05
-6.22276e-05
-4.79647e-07
9.25209e-06
-1.37351e-06
-2.09947e-05
-2.11344e-06
-1.52226e-05
-2.63622e-06
-1.17623e-05
-2.99861e-06
-1.13839e-05
-3.24247e-06
-1.15649e-05
-3.39503e-06
-1.18192e-05
-3.48407e-06
-1.22421e-05
-3.56574e-06
-1.29329e-05
-3.74018e-06
-1.39504e-05
-4.14605e-06
-1.53272e-05
-4.9183e-06
-1.70749e-05
-6.15391e-06
-1.918e-05
-7.94131e-06
-2.1618e-05
-1.03836e-05
-2.43569e-05
-1.35253e-05
-2.73346e-05
-1.74196e-05
-3.05102e-05
-2.2751e-05
-3.38773e-05
-3.07884e-05
-3.72516e-05
-4.20347e-05
-4.02326e-05
-5.54744e-05
-4.18625e-05
-6.80641e-05
-4.00228e-05
-3.26944e-05
-7.66155e-05
-4.03744e-07
9.65599e-06
-1.23162e-06
-2.01666e-05
-1.99377e-06
-1.44602e-05
-2.58279e-06
-1.11731e-05
-3.05727e-06
-1.09093e-05
-3.46099e-06
-1.11611e-05
-3.82313e-06
-1.1457e-05
-4.18162e-06
-1.18836e-05
-4.5914e-06
-1.25231e-05
-5.12772e-06
-1.34141e-05
-5.88141e-06
-1.45736e-05
-6.95071e-06
-1.60058e-05
-8.43085e-06
-1.77e-05
-1.04226e-05
-1.96265e-05
-1.30446e-05
-2.1735e-05
-1.64299e-05
-2.39494e-05
-2.07102e-05
-2.623e-05
-2.60927e-05
-2.84949e-05
-3.28776e-05
-3.04668e-05
-4.14247e-05
-3.16856e-05
-5.17723e-05
-3.15149e-05
-6.27387e-05
-2.90565e-05
-2.36225e-05
-7.18107e-05
-3.92515e-07
1.00487e-05
-1.1904e-06
-1.93685e-05
-1.97571e-06
-1.36747e-05
-2.62091e-06
-1.05278e-05
-3.19009e-06
-1.034e-05
-3.72642e-06
-1.06247e-05
-4.25607e-06
-1.09273e-05
-4.81332e-06
-1.13263e-05
-5.4483e-06
-1.18882e-05
-6.2235e-06
-1.26391e-05
-7.20943e-06
-1.35879e-05
-8.48312e-06
-1.47323e-05
-1.01274e-05
-1.6056e-05
-1.22285e-05
-1.75256e-05
-1.48725e-05
-1.9091e-05
-1.81587e-05
-2.06633e-05
-2.22167e-05
-2.21721e-05
-2.7195e-05
-2.35167e-05
-3.31414e-05
-2.45204e-05
-3.99796e-05
-2.48475e-05
-4.75359e-05
-2.39586e-05
-5.52693e-05
-2.13232e-05
-1.69227e-05
-6.19692e-05
-4.10744e-07
1.04595e-05
-1.20561e-06
-1.85734e-05
-2.01703e-06
-1.28632e-05
-2.71041e-06
-9.8343e-06
-3.35682e-06
-9.69356e-06
-4.00084e-06
-9.98062e-06
-4.66469e-06
-1.02635e-05
-5.37686e-06
-1.06142e-05
-6.17864e-06
-1.10865e-05
-7.12274e-06
-1.16951e-05
-8.26587e-06
-1.24449e-05
-9.67392e-06
-1.33245e-05
-1.14143e-05
-1.43158e-05
-1.35537e-05
-1.53864e-05
-1.61614e-05
-1.64835e-05
-1.92912e-05
-1.75336e-05
-2.30138e-05
-1.84496e-05
-2.74129e-05
-1.91176e-05
-3.25452e-05
-1.93882e-05
-3.83359e-05
-1.9057e-05
-4.4485e-05
-1.78095e-05
-5.04495e-05
-1.53588e-05
-1.17543e-05
-5.5618e-05
-4.37419e-07
1.08971e-05
-1.24861e-06
-1.77621e-05
-2.08707e-06
-1.20246e-05
-2.82111e-06
-9.10021e-06
-3.52888e-06
-8.98576e-06
-4.25618e-06
-9.25332e-06
-5.02201e-06
-9.49765e-06
-5.85008e-06
-9.78619e-06
-6.77457e-06
-1.01621e-05
-7.83677e-06
-1.06331e-05
-9.08562e-06
-1.11963e-05
-1.05707e-05
-1.18396e-05
-1.23455e-05
-1.25412e-05
-1.44637e-05
-1.32683e-05
-1.69753e-05
-1.39719e-05
-1.99238e-05
-1.45851e-05
-2.33439e-05
-1.50296e-05
-2.72572e-05
-1.52044e-05
-3.16382e-05
-1.50072e-05
-3.6402e-05
-1.42933e-05
-4.1357e-05
-1.28546e-05
-4.61732e-05
-1.05427e-05
-7.46341e-06
-5.04642e-05
-4.59269e-07
1.13564e-05
-1.30024e-06
-1.69211e-05
-2.16481e-06
-1.116e-05
-2.93097e-06
-8.33405e-06
-3.68555e-06
-8.2312e-06
-4.47437e-06
-8.46453e-06
-5.31403e-06
-8.65805e-06
-6.22335e-06
-8.87694e-06
-7.22963e-06
-9.15596e-06
-8.36563e-06
-9.49722e-06
-9.67054e-06
-9.89151e-06
-1.11846e-05
-1.03257e-05
-1.2949e-05
-1.0777e-05
-1.49985e-05
-1.12189e-05
-1.73705e-05
-1.16e-05
-2.0084e-05
-1.18717e-05
-2.31613e-05
-1.19524e-05
-2.65965e-05
-1.17693e-05
-3.03568e-05
-1.1247e-05
-3.43562e-05
-1.0294e-05
-3.84347e-05
-8.77617e-06
-4.23745e-05
-6.60302e-06
-3.88148e-06
-4.59565e-05
-4.70629e-07
1.18271e-05
-1.34837e-06
-1.60433e-05
-2.23552e-06
-1.02729e-05
-3.02482e-06
-7.54477e-06
-3.8124e-06
-7.44366e-06
-4.64262e-06
-7.63436e-06
-5.52859e-06
-7.77214e-06
-6.4868e-06
-7.9188e-06
-7.53977e-06
-8.10306e-06
-8.71424e-06
-8.32284e-06
-1.0039e-05
-8.56685e-06
-1.15455e-05
-8.8193e-06
-1.32604e-05
-9.06217e-06
-1.52159e-05
-9.26342e-06
-1.74302e-05
-9.38567e-06
-1.99199e-05
-9.38192e-06
-2.26779e-05
-9.19448e-06
-2.56935e-05
-8.75378e-06
-2.89289e-05
-8.0117e-06
-3.23065e-05
-6.91647e-06
-3.57041e-05
-5.37862e-06
-3.89742e-05
-3.33293e-06
-8.8174e-07
-4.1974e-05
-4.69091e-07
1.22962e-05
-1.38447e-06
-1.51279e-05
-2.28832e-06
-9.36902e-06
-3.09185e-06
-6.74129e-06
-3.9001e-06
-6.63547e-06
-4.75539e-06
-6.77913e-06
-5.66795e-06
-6.85962e-06
-6.65079e-06
-6.93599e-06
-7.7223e-06
-7.03159e-06
-8.90402e-06
-7.14117e-06
-1.0219e-05
-7.25188e-06
-1.16884e-05
-7.35002e-06
-1.33348e-05
-7.41579e-06
-1.51777e-05
-7.42049e-06
-1.72291e-05
-7.33424e-06
-1.94926e-05
-7.11838e-06
-2.19621e-05
-6.72505e-06
-2.46133e-05
-6.10265e-06
-2.74097e-05
-5.21541e-06
-3.02856e-05
-4.04065e-06
-3.31445e-05
-2.51973e-06
-3.58793e-05
-5.98254e-07
1.62733e-06
-3.83884e-05
-4.54801e-07
1.2751e-05
-1.40191e-06
-1.41808e-05
-2.314e-06
-8.45697e-06
-3.12378e-06
-5.93157e-06
-3.94158e-06
-5.81774e-06
-4.80755e-06
-5.9132e-06
-5.72942e-06
-5.93777e-06
-6.7176e-06
-5.94782e-06
-7.78729e-06
-5.96189e-06
-8.95533e-06
-5.97314e-06
-1.02365e-05
-5.97075e-06
-1.16489e-05
-5.93761e-06
-1.32107e-05
-5.85399e-06
-1.49326e-05
-5.69854e-06
-1.68207e-05
-5.44608e-06
-1.88745e-05
-5.06456e-06
-2.10824e-05
-4.51711e-06
-2.34187e-05
-3.76645e-06
-2.58484e-05
-2.78575e-06
-2.83186e-05
-1.57057e-06
-3.07523e-05
-8.60566e-08
-3.30522e-05
1.7016e-06
3.768e-06
-3.51929e-05
-4.30771e-07
1.31818e-05
-1.3953e-06
-1.32163e-05
-2.30511e-06
-7.54722e-06
-3.11232e-06
-5.1244e-06
-3.92957e-06
-5.00054e-06
-4.79396e-06
-5.04883e-06
-5.71066e-06
-5.02107e-06
-6.68806e-06
-4.9704e-06
-7.73809e-06
-4.91185e-06
-8.87345e-06
-4.83778e-06
-1.01077e-05
-4.73653e-06
-1.14538e-05
-4.59148e-06
-1.29231e-05
-4.38459e-06
-1.45229e-05
-4.09876e-06
-1.62556e-05
-3.71331e-06
-1.81143e-05
-3.20573e-06
-2.00854e-05
-2.54606e-06
-2.21486e-05
-1.70334e-06
-2.42749e-05
-6.59544e-07
-2.64165e-05
5.71036e-07
-2.85004e-05
1.99777e-06
-3.04957e-05
3.6969e-06
5.59736e-06
-3.2325e-05
-3.9665e-07
1.35784e-05
-1.36052e-06
-1.22525e-05
-2.25523e-06
-6.65253e-06
-3.05285e-06
-4.32681e-06
-3.86042e-06
-4.19298e-06
-4.71216e-06
-4.19708e-06
-5.61187e-06
-4.12134e-06
-6.5663e-06
-4.01595e-06
-7.58514e-06
-3.893e-06
-8.67825e-06
-3.74468e-06
-9.85657e-06
-3.5582e-06
-1.11299e-05
-3.31811e-06
-1.25007e-05
-3.0137e-06
-1.39757e-05
-2.62375e-06
-1.55557e-05
-2.13323e-06
-1.72354e-05
-1.526e-06
-1.90051e-05
-7.76383e-07
-2.08423e-05
1.33798e-07
-2.27073e-05
1.20532e-06
-2.45857e-05
2.44941e-06
-2.64198e-05
3.83188e-06
-2.81549e-05
5.4319e-06
7.20122e-06
-2.97587e-05
-3.52161e-07
1.39306e-05
-1.29623e-06
-1.13084e-05
-2.1647e-06
-5.78404e-06
-2.94404e-06
-3.54746e-06
-3.73254e-06
-3.40447e-06
-4.56133e-06
-3.36825e-06
-5.43357e-06
-3.24908e-06
-6.35473e-06
-3.09477e-06
-7.33271e-06
-2.91502e-06
-8.3765e-06
-2.7009e-06
-9.49232e-06
-2.44237e-06
-1.06823e-05
-2.12813e-06
-1.19567e-05
-1.7392e-06
-1.33152e-05
-1.26526e-06
-1.47577e-05
-6.90681e-07
-1.62817e-05
-1.98527e-09
-1.78631e-05
8.05009e-07
-1.94961e-05
1.76672e-06
-2.1167e-05
2.87617e-06
-2.28292e-05
4.11152e-06
-2.44667e-05
5.46943e-06
-2.60113e-05
6.97657e-06
8.64911e-06
-2.74592e-05
-2.93386e-07
1.4224e-05
-1.20427e-06
-1.03975e-05
-2.03781e-06
-4.95046e-06
-2.7898e-06
-2.79543e-06
-3.54899e-06
-2.64526e-06
-4.34475e-06
-2.57248e-06
-5.17924e-06
-2.41458e-06
-6.05763e-06
-2.21637e-06
-6.98741e-06
-1.98524e-06
-7.97069e-06
-1.71763e-06
-9.01452e-06
-1.39852e-06
-1.01252e-05
-1.01742e-06
-1.13035e-05
-5.60886e-07
-1.255e-05
-1.8709e-08
-1.38632e-05
6.22522e-07
-1.52343e-05
1.3692e-06
-1.6665e-05
2.23559e-06
-1.81339e-05
3.23563e-06
-1.9622e-05
4.36415e-06
-2.11207e-05
5.61029e-06
-2.2602e-05
6.95065e-06
-2.40247e-05
8.39937e-06
9.99684e-06
-2.53724e-05
-2.09511e-07
1.44335e-05
-1.0875e-06
-9.5194e-06
-1.88123e-06
-4.15669e-06
-2.59871e-06
-2.07792e-06
-3.31956e-06
-1.92439e-06
-4.07198e-06
-1.82006e-06
-4.85922e-06
-1.62732e-06
-5.68476e-06
-1.39082e-06
-6.55105e-06
-1.11895e-06
-7.46678e-06
-8.019e-07
-8.43485e-06
-4.30411e-07
-9.45817e-06
5.92843e-09
-1.05383e-05
5.19304e-07
-1.16728e-05
1.11572e-06
-1.28603e-05
1.81002e-06
-1.40988e-05
2.60764e-06
-1.53834e-05
3.52022e-06
-1.66951e-05
4.54721e-06
-1.80353e-05
5.70428e-06
-1.93982e-05
6.97325e-06
-2.07573e-05
8.30977e-06
-2.20855e-05
9.72759e-06
1.12946e-05
-2.33832e-05
-9.47866e-08
1.45283e-05
-9.54067e-07
-8.66005e-06
-1.71004e-06
-3.40068e-06
-2.38349e-06
-1.40446e-06
-3.05517e-06
-1.25272e-06
-3.75588e-06
-1.11935e-06
-4.48497e-06
-8.98206e-07
-5.24568e-06
-6.30085e-07
-6.04279e-06
-3.21828e-07
-6.88027e-06
3.55915e-08
-7.76157e-06
4.50906e-07
-8.68993e-06
9.34288e-07
-9.65971e-06
1.48907e-06
-1.06779e-05
2.13391e-06
-1.17382e-05
2.87033e-06
-1.28397e-05
3.70908e-06
-1.39765e-05
4.65697e-06
-1.51455e-05
5.71614e-06
-1.63451e-05
6.90392e-06
-1.75627e-05
8.19086e-06
-1.88088e-05
9.55585e-06
-2.00619e-05
1.09808e-05
1.25491e-05
-2.13163e-05
4.11803e-08
1.44872e-05
-8.12992e-07
-7.80585e-06
-1.53432e-06
-2.67935e-06
-2.15918e-06
-7.79609e-07
-2.77788e-06
-6.34028e-07
-3.42003e-06
-4.77183e-07
-4.08535e-06
-2.32826e-07
-4.77798e-06
6.25963e-08
-5.49163e-06
3.91854e-07
-6.23742e-06
7.81391e-07
-7.02221e-06
1.23569e-06
-7.84133e-06
1.75337e-06
-8.69459e-06
2.34226e-06
-9.5826e-06
3.02188e-06
-1.05053e-05
3.79298e-06
-1.1454e-05
4.65772e-06
-1.24367e-05
5.63967e-06
-1.34484e-05
6.7278e-06
-1.44762e-05
7.93166e-06
-1.55361e-05
9.25081e-06
-1.66362e-05
1.06559e-05
-1.77675e-05
1.21122e-05
1.3724e-05
-1.89424e-05
2.01718e-07
1.42855e-05
-6.67985e-07
-6.93616e-06
-1.36724e-06
-1.98012e-06
-1.94184e-06
-2.05023e-07
-2.50455e-06
-7.13342e-08
-3.08938e-06
1.07687e-07
-3.68745e-06
3.65328e-07
-4.3021e-06
6.77315e-07
-4.9416e-06
1.03139e-06
-5.6025e-06
1.4423e-06
-6.27625e-06
1.90941e-06
-6.98235e-06
2.4594e-06
-7.7075e-06
3.06734e-06
-8.46139e-06
3.7757e-06
-9.23353e-06
4.56508e-06
-1.00207e-05
5.44479e-06
-1.08301e-05
6.44902e-06
-1.16443e-05
7.54194e-06
-1.24796e-05
8.76694e-06
-1.33314e-05
1.01026e-05
-1.42164e-05
1.1541e-05
-1.51586e-05
1.30546e-05
1.47078e-05
-1.61423e-05
3.74025e-07
1.39115e-05
-5.30973e-07
-6.03121e-06
-1.22072e-06
-1.29042e-06
-1.74895e-06
3.23178e-07
-2.26402e-06
4.43724e-07
-2.79671e-06
6.40427e-07
-3.34073e-06
9.09427e-07
-3.89127e-06
1.22793e-06
-4.45325e-06
1.59341e-06
-5.02639e-06
2.01544e-06
-5.61437e-06
2.49736e-06
-6.20715e-06
3.05213e-06
-6.82145e-06
3.68159e-06
-7.43654e-06
4.39076e-06
-8.0582e-06
5.18671e-06
-8.69041e-06
6.07693e-06
-9.30697e-06
7.06549e-06
-9.93262e-06
8.16752e-06
-1.05476e-05
9.38187e-06
-1.11416e-05
1.06967e-05
-1.17511e-05
1.21507e-05
-1.23877e-05
1.36913e-05
1.53709e-05
-1.30507e-05
5.58976e-07
1.33525e-05
-4.0832e-07
-5.06399e-06
-1.10335e-06
-5.95454e-07
-1.59696e-06
8.16745e-07
-2.08045e-06
9.27192e-07
-2.57341e-06
1.13343e-06
-3.07552e-06
1.41161e-06
-3.57879e-06
1.73125e-06
-4.08517e-06
2.09983e-06
-4.59478e-06
2.52506e-06
-5.10821e-06
3.01078e-06
-5.6229e-06
3.56678e-06
-6.13826e-06
4.19691e-06
-6.64954e-06
4.902e-06
-7.15002e-06
5.68714e-06
-7.63592e-06
6.56276e-06
-8.09994e-06
7.52943e-06
-8.53385e-06
8.6014e-06
-8.9314e-06
9.77944e-06
-9.28662e-06
1.1052e-05
-9.59948e-06
1.24637e-05
-9.87504e-06
1.39669e-05
1.56199e-05
-1.01241e-05
7.4755e-07
1.26049e-05
-3.03723e-07
-4.01285e-06
-1.013e-06
1.13745e-07
-1.4864e-06
1.29007e-06
-1.95221e-06
1.39298e-06
-2.43582e-06
1.61707e-06
-2.90769e-06
1.88355e-06
-3.38343e-06
2.20705e-06
-3.85831e-06
2.57475e-06
-4.33268e-06
2.99944e-06
-4.79636e-06
3.47445e-06
-5.26636e-06
4.03674e-06
-5.72239e-06
4.6529e-06
-6.16627e-06
5.34585e-06
-6.58629e-06
6.10712e-06
-6.98072e-06
6.95714e-06
-7.32221e-06
7.87088e-06
-7.62638e-06
8.90556e-06
-7.86147e-06
1.00146e-05
-8.01264e-06
1.12032e-05
-8.07557e-06
1.25267e-05
-8.046e-06
1.39375e-05
1.54653e-05
-7.89127e-06
9.12954e-07
1.16919e-05
-2.20442e-07
-2.87961e-06
-9.42162e-07
8.35363e-07
-1.40776e-06
1.75557e-06
-1.87426e-06
1.85946e-06
-2.34767e-06
2.09052e-06
-2.8172e-06
2.35313e-06
-3.27801e-06
2.66791e-06
-3.73828e-06
3.03505e-06
-4.19486e-06
3.45604e-06
-4.64941e-06
3.92901e-06
-5.09338e-06
4.48071e-06
-5.5255e-06
5.08502e-06
-5.93702e-06
5.75737e-06
-6.31884e-06
6.48893e-06
-6.65756e-06
7.29584e-06
-6.95951e-06
8.1728e-06
-7.18257e-06
9.12862e-06
-7.32297e-06
1.0155e-05
-7.37376e-06
1.12541e-05
-7.28564e-06
1.24387e-05
-7.04261e-06
1.36946e-05
1.50589e-05
-6.63609e-06
1.03348e-06
1.06583e-05
-1.58856e-07
-1.68744e-06
-8.82779e-07
1.55917e-06
-1.33776e-06
2.21046e-06
-1.81467e-06
2.33635e-06
-2.27839e-06
2.55427e-06
-2.73838e-06
2.81315e-06
-3.2001e-06
3.12964e-06
-3.65132e-06
3.48629e-06
-4.1027e-06
3.90748e-06
-4.55626e-06
4.38263e-06
-4.98682e-06
4.91134e-06
-5.40701e-06
5.50527e-06
-5.80605e-06
6.15647e-06
-6.17747e-06
6.86036e-06
-6.50447e-06
7.62282e-06
-6.77685e-06
8.44516e-06
-6.97847e-06
9.33025e-06
-7.09142e-06
1.0268e-05
-7.09086e-06
1.12536e-05
-6.94941e-06
1.22974e-05
-6.63558e-06
1.33809e-05
1.45397e-05
-6.11631e-06
1.09907e-06
9.55913e-06
-1.25132e-07
-4.63405e-07
-8.0837e-07
2.24227e-06
-1.25891e-06
2.66091e-06
-1.72262e-06
2.80002e-06
-2.1792e-06
3.01084e-06
-2.63048e-06
3.26443e-06
-3.07114e-06
3.57032e-06
-3.51739e-06
3.93258e-06
-3.95256e-06
4.34273e-06
-4.38328e-06
4.81345e-06
-4.80604e-06
5.33417e-06
-5.21415e-06
5.91345e-06
-5.60153e-06
6.54389e-06
-5.96049e-06
7.21931e-06
-6.27587e-06
7.93819e-06
-6.53727e-06
8.70659e-06
-6.72961e-06
9.52267e-06
-6.8386e-06
1.03772e-05
-6.8319e-06
1.12472e-05
-6.69008e-06
1.21559e-05
-6.377e-06
1.3068e-05
1.40014e-05
-5.83856e-06
1.10218e-06
8.45685e-06
-8.67837e-08
7.25391e-07
-7.26235e-07
2.88156e-06
-1.13944e-06