/*--------------------------------*- C++ -*----------------------------------*\
| =========                 |                                                 |
| \\      /  F ield         | OpenFOAM: The Open Source CFD Toolbox           |
|  \\    /   O peration     | Version:  3.0.1                                 |
|   \\  /    A nd           | Web:      www.OpenFOAM.org                      |
|    \\/     M anipulation  |                                                 |
\*---------------------------------------------------------------------------*/
FoamFile
{
    version     2.0;
    format      ascii;
    class       surfaceScalarField;
    location    "0.00015";
    object      phi;
}
// * * * * * * * * * * * * * * * * * * * * * * * * * * * * * * * * * * * * * //

dimensions      [1 0 -1 0 0 0 0];

internalField   nonuniform List<scalar> 
1890
(
1.54499e-17
-2.58704e-16
-1.0842e-17
-2.63976e-16
-1.91904e-16
-2.33483e-16
-2.1516e-16
-2.48486e-16
-1.56667e-16
-1.77416e-16
1.02891e-16
-2.36397e-16
1.74014e-16
-2.09265e-16
5.59448e-17
-2.43945e-16
1.98409e-17
-3.03753e-16
4.90222e-16
-2.0467e-16
3.10667e-15
-2.75279e-16
1.62972e-14
-2.18372e-16
8.04024e-14
-2.23386e-16
3.69965e-13
-2.15201e-16
1.65866e-12
-1.70111e-16
7.11458e-12
-1.06265e-16
2.98299e-11
-7.51623e-17
1.19699e-10
-8.41341e-17
4.67617e-10
-1.03135e-16
1.74694e-09
-4.65665e-17
6.32361e-09
-1.38927e-16
2.1861e-08
-1.45825e-16
7.28355e-08
-4.33085e-16
2.31286e-07
-8.26989e-16
7.03487e-07
-2.07333e-15
2.03285e-06
-5.21883e-15
5.58566e-06
-1.28955e-14
1.45026e-05
-3.04756e-14
3.54507e-05
-6.55975e-14
8.09124e-05
-1.28019e-13
0.000169374
-2.13583e-13
0.000312379
-2.83882e-13
0.000519728
-2.55761e-13
0.000784492
-1.07642e-13
0.00108135
2.24539e-13
0.00137236
6.49622e-13
0.00161952
1.00991e-12
0.0018136
1.12179e-12
0.00194974
1.05911e-12
0.002011
6.98776e-13
0.00194299
3.01349e-13
0.0018724
-9.53195e-14
0.00182686
-1.75767e-13
0.00176171
-2.38386e-13
0.00176671
3.34036e-14
0.00177201
3.21193e-14
0.00178339
1.02221e-13
0.00179567
7.23e-16
0.00178623
5.0009e-14
0.00179451
4.3776e-14
0.00176343
-1.80447e-14
0.00172175
5.19019e-14
0.00171256
-1.54376e-14
0.00171612
2.60277e-14
0.00171912
-3.82071e-14
0.0017223
-1.78195e-14
0.0017102
-1.93391e-14
0.00170997
-3.86084e-14
0.00172893
-2.08034e-14
0.0017274
5.49897e-14
0.00172541
1.1264e-13
0.00173069
1.85463e-13
0.00176194
2.54084e-13
0.00182155
2.06467e-13
0.00183918
-4.50002e-15
0.00149768
-2.44298e-13
0.000800298
-1.41915e-13
0.000396175
1.69695e-14
0.000185513
4.44583e-14
8.26135e-05
3.24223e-14
3.49749e-05
1.78669e-14
1.40148e-05
8.23239e-15
5.34079e-06
3.48644e-15
1.92858e-06
1.31789e-15
6.65517e-07
4.59343e-16
2.18198e-07
9.69616e-17
6.8748e-08
-9.08358e-17
2.06262e-08
-1.04111e-16
5.97865e-09
-6.02816e-17
1.65296e-09
-1.71372e-17
4.43662e-10
-4.07863e-17
1.13723e-10
8.06714e-17
2.84238e-11
6.95109e-17
6.7909e-12
5.42304e-17
1.58865e-12
-3.3529e-17
3.55911e-13
-4.63496e-17
7.87158e-14
-1.44118e-16
1.70158e-14
-1.90603e-16
3.94519e-15
-1.75268e-16
1.26846e-15
-2.16373e-16
4.46556e-16
-1.46211e-16
6.51118e-16
-8.65126e-17
1.02763e-15
-1.27353e-16
7.11914e-16
-1.90576e-16
6.20435e-16
-2.23346e-16
3.27185e-16
-2.21516e-16
1.90359e-16
-2.20222e-16
7.80626e-18
-1.65571e-16
4.38018e-17
-2.33842e-16
-8.43374e-17
1.53198e-16
2.40286e-16
1.2387e-16
2.23942e-16
1.43657e-17
2.036e-16
-1.29671e-16
1.93598e-16
-1.44524e-16
1.73635e-16
1.62359e-16
1.80438e-16
3.29977e-16
1.17744e-16
7.83336e-17
2.5533e-17
2.88723e-16
2.37305e-17
6.11598e-16
-1.08989e-16
3.26139e-15
-9.26722e-17
1.65614e-14
-1.28871e-16
8.05553e-14
-1.66805e-16
3.70174e-13
-1.14722e-16
1.65896e-12
-2.0055e-16
7.11476e-12
-2.08248e-16
2.983e-11
-1.52493e-16
1.19699e-10
-1.85155e-16
4.67617e-10
-1.88529e-16
1.74694e-09
-2.00455e-16
6.32361e-09
-2.45531e-16
2.1861e-08
-2.66023e-16
7.28355e-08
-4.12878e-16
2.31286e-07
-6.04294e-16
7.03487e-07
-1.25083e-15
2.03285e-06
-2.95253e-15
5.58566e-06
-7.11749e-15
1.45026e-05
-1.69656e-14
3.54507e-05
-3.7216e-14
8.09124e-05
-7.52359e-14
0.000169374
-1.32527e-13
0.000312379
-1.94184e-13
0.000519728
-2.22335e-13
0.000784492
-1.69267e-13
0.00108135
2.5635e-14
0.00137236
2.71391e-13
0.00161952
5.45722e-13
0.0018136
7.2602e-13
0.00194974
8.54873e-13
0.002011
8.03715e-13
0.00194299
6.28617e-13
0.0018724
3.91974e-13
0.00182686
3.43366e-13
0.00176171
2.60027e-13
0.00176671
4.04769e-13
0.00177201
3.80511e-13
0.00178339
4.45828e-13
0.00179567
3.36212e-13
0.00178623
3.32562e-13
0.00179451
2.58585e-13
0.00176343
2.24663e-13
0.00172175
2.26697e-13
0.00171256
1.71435e-13
0.00171612
1.63827e-13
0.00171912
1.18066e-13
0.0017223
9.13553e-14
0.0017102
6.4849e-14
0.00170997
3.14772e-14
0.00172893
3.12143e-14
0.0017274
4.8125e-14
0.00172541
7.02371e-14
0.00173069
9.286e-14
0.00176194
9.05212e-14
0.00182155
3.47443e-14
0.00183918
-8.57531e-14
0.00149768
-1.76642e-13
0.000800298
-7.90538e-14
0.000396175
8.27347e-15
0.000185513
2.26266e-14
8.26135e-05
1.62494e-14
3.49749e-05
9.01015e-15
1.40148e-05
4.141e-15
5.34079e-06
1.68302e-15
1.92858e-06
5.82962e-16
6.65517e-07
1.5725e-16
2.18198e-07
5.05509e-18
6.8748e-08
-1.17026e-16
2.06262e-08
-1.08454e-16
5.97865e-09
-3.19162e-17
1.65296e-09
1.30375e-17
4.43663e-10
4.49334e-17
1.13723e-10
7.7263e-17
2.84235e-11
1.87025e-18
6.7906e-12
-6.97955e-18
1.58833e-12
-1.74692e-17
3.55464e-13
-5.7788e-17
7.84732e-14
-6.25585e-17
1.69967e-14
-3.8435e-17
4.04031e-15
-8.61195e-17
1.62907e-15
-1.00614e-16
6.50955e-16
-2.03457e-16
4.54985e-16
-8.35446e-17
7.88188e-16
-1.22793e-16
7.19639e-16
-2.58616e-16
8.19711e-16
-3.07033e-16
8.28087e-16
-3.47704e-16
5.16595e-16
-4.22324e-16
3.512e-16
-2.56089e-16
5.71646e-16
-3.2461e-16
-2.40835e-16
1.30646e-17
2.06676e-16
-1.02566e-16
1.97406e-16
-1.20672e-16
1.6713e-16
-1.06902e-16
1.83027e-16
-2.4156e-16
8.48388e-17
-2.18467e-16
1.241e-16
-2.39771e-16
2.51399e-17
-3.83265e-16
-4.77184e-17
-1.86537e-16
6.58653e-17
2.88831e-16
-9.29026e-17
3.10407e-15
1.73066e-17
1.6404e-14
-1.36867e-16
8.05338e-14
-1.53401e-16
3.70101e-13
-1.1994e-16
1.65896e-12
-2.21706e-16
7.11483e-12
-3.15923e-16
2.98299e-11
-2.66619e-16
1.19699e-10
-3.83387e-16
4.67617e-10
-2.77393e-16
1.74694e-09
-4.39942e-16
6.32361e-09
-2.9161e-16
2.1861e-08
-3.64726e-16
7.28355e-08
-3.34937e-16
2.31286e-07
-4.17093e-16
7.03487e-07
-6.80581e-16
2.03285e-06
-1.37458e-15
5.58566e-06
-2.97638e-15
1.45026e-05
-7.11357e-15
3.54507e-05
-1.60537e-14
8.09124e-05
-3.45672e-14
0.000169374
-6.64238e-14
0.000312379
-1.1029e-13
0.000519728
-1.51459e-13
0.000784492
-1.6825e-13
0.00108135
-1.21319e-13
0.00137236
-1.99805e-14
0.00161952
1.69601e-13
0.0018136
3.84531e-13
0.00194974
6.29511e-13
0.002011
8.07227e-13
0.00194299
9.16749e-13
0.0018724
9.21618e-13
0.00182686
9.26404e-13
0.00176171
8.35097e-13
0.00176671
8.53702e-13
0.00177201
7.63254e-13
0.00178339
7.80609e-13
0.00179567
6.60315e-13
0.00178623
5.8851e-13
0.00179451
4.36301e-13
0.00176343
4.27365e-13
0.00172175
3.6269e-13
0.00171256
3.19045e-13
0.00171612
2.62598e-13
0.00171912
2.3624e-13
0.0017223
1.69444e-13
0.0017102
1.42183e-13
0.00170997
8.59244e-14
0.00172893
6.26192e-14
0.0017274
8.69046e-15
0.00172541
-2.05369e-14
0.00173069
-6.3056e-14
0.00176194
-1.06076e-13
0.00182155
-1.52884e-13
0.00183918
-1.68836e-13
0.00149768
-1.39294e-13
0.000800298
-6.11334e-14
0.000396175
-1.31681e-14
0.000185513
9.39319e-16
8.26135e-05
2.65017e-15
3.49749e-05
1.92175e-15
1.40148e-05
9.20244e-16
5.34079e-06
3.07941e-16
1.92858e-06
-2.86627e-18
6.65517e-07
-1.17507e-16
2.18198e-07
-1.86381e-16
6.8748e-08
-1.68553e-16
2.06262e-08
-1.6135e-16
5.97865e-09
-1.44544e-16
1.65296e-09
-1.05825e-16
4.43663e-10
-1.13435e-16
1.13723e-10
-1.67543e-16
2.84236e-11
-2.32521e-16
6.79056e-12
-1.61587e-16
1.58824e-12
-1.72022e-16
3.55514e-13
-1.85643e-16
7.85259e-14
-1.50752e-16
1.68885e-14
-1.45642e-16
3.82151e-15
-1.52351e-16
1.27388e-15
-1.19669e-16
8.24753e-16
-2.23095e-16
4.71574e-16
-2.2876e-16
2.98291e-16
-2.74141e-16
2.94171e-16
-1.94472e-16
3.6497e-16
-2.23705e-16
3.72423e-16
-2.12246e-16
5.11933e-16
-2.77969e-16
1.74611e-16
-2.70007e-16
4.91686e-16
-2.77915e-16
-2.61144e-16
-1.40946e-18
2.69695e-18
-6.15285e-17
3.33392e-18
-2.14022e-16
2.38524e-18
-4.53955e-16
-5.36545e-17
-2.15214e-16
2.74168e-17
-3.65701e-16
-3.29597e-17
-2.34296e-16
-6.95245e-18
-1.06469e-16
5.36138e-17
-3.31115e-16
-3.87196e-17
2.79236e-16
1.37612e-16
2.66052e-15
8.5923e-18
1.60954e-14
1.54851e-16
8.03415e-14
6.7478e-17
3.69668e-13
1.10833e-16
1.65869e-12
3.53314e-17
7.11475e-12
-9.68464e-17
2.98298e-11
-1.17365e-16
1.19699e-10
-2.06513e-16
4.67617e-10
-1.61655e-16
1.74694e-09
-2.02e-16
6.32361e-09
-1.6301e-16
2.1861e-08
-2.23305e-16
7.28355e-08
-1.20346e-16
2.31286e-07
-2.01594e-16
7.03487e-07
-2.36858e-16
2.03285e-06
-4.86712e-16
5.58566e-06
-1.15209e-15
1.45026e-05
-3.03697e-15
3.54507e-05
-7.04944e-15
8.09124e-05
-1.56989e-14
0.000169374
-3.0937e-14
0.000312379
-5.29725e-14
0.000519728
-7.47727e-14
0.000784492
-8.58805e-14
0.00108135
-5.98058e-14
0.00137236
2.53864e-14
0.00161952
1.69297e-13
0.0018136
3.59993e-13
0.00194974
5.95183e-13
0.002011
8.24633e-13
0.00194299
1.05578e-12
0.0018724
1.17344e-12
0.00182686
1.23641e-12
0.00176171
1.18512e-12
0.00176671
1.08931e-12
0.00177201
9.07739e-13
0.00178339
8.00505e-13
0.00179567
6.79081e-13
0.00178623
5.76921e-13
0.00179451
4.30912e-13
0.00176343
3.84888e-13
0.00172175
3.03288e-13
0.00171256
2.43857e-13
0.00171612
1.81665e-13
0.00171912
1.35551e-13
0.0017223
6.67176e-14
0.0017102
2.67834e-14
0.00170997
-5.26506e-14
0.00172893
-9.68506e-14
0.0017274
-1.84808e-13
0.00172541
-2.48209e-13
0.00173069
-3.21842e-13
0.00176194
-3.80333e-13
0.00182155
-4.08394e-13
0.00183918
-3.6257e-13
0.00149768
-2.59283e-13
0.000800298
-1.24598e-13
0.000396175
-4.72216e-14
0.000185513
-1.72879e-14
8.26135e-05
-6.17464e-15
3.49749e-05
-2.18652e-15
1.40148e-05
-7.75021e-16
5.34079e-06
-4.02307e-16
1.92858e-06
-2.10342e-16
6.65517e-07
-2.34567e-16
2.18198e-07
-1.82566e-16
6.8748e-08
-1.57311e-16
2.06262e-08
-1.49749e-16
5.97865e-09
-1.85114e-16
1.65296e-09
-1.11754e-16
4.43663e-10
-1.72171e-16
1.13723e-10
-9.51726e-17
2.84235e-11
-1.7621e-16
6.79066e-12
-9.34176e-17
1.58844e-12
-1.28722e-16
3.55707e-13
-1.95793e-16
7.85754e-14
-1.34434e-16
1.68735e-14
-2.11453e-16
3.62427e-15
-2.47035e-16
9.14253e-16
-2.08065e-16
4.86563e-16
-1.86029e-16
3.4895e-16
-1.49342e-16
3.83916e-16
-1.62915e-16
2.76987e-16
-9.41697e-17
2.51752e-16
-1.68654e-16
3.53775e-16
-6.75729e-17
5.18818e-16
-9.53556e-17
2.57417e-16
-1.76671e-16
5.11987e-16
-1.47506e-16
-1.71785e-16
-1.19804e-17
-2.54245e-17
-1.79598e-16
-2.83112e-17
-3.74158e-16
-6.74916e-18
-2.66063e-16
5.15132e-17
-5.7788e-16
1.18219e-16
-5.03612e-16
1.51599e-16
-3.02601e-16
2.19741e-16
-2.72839e-16
2.42807e-16
1.06794e-17
2.4156e-16
4.11292e-16
3.15123e-16
3.12245e-15
2.49556e-16
1.64137e-14
2.61564e-16
8.04918e-14
2.10213e-16
3.69583e-13
1.75952e-16
1.65827e-12
1.82783e-16
7.11437e-12
6.70037e-17
2.98296e-11
4.95074e-17
1.19699e-10
3.58464e-17
4.67617e-10
1.77538e-17
1.74694e-09
5.05645e-17
6.32361e-09
7.38748e-17
2.1861e-08
-2.27005e-17
7.28355e-08
9.54233e-17
2.31286e-07
4.86129e-17
7.03487e-07
1.91633e-17
2.03285e-06
-1.31866e-17
5.58566e-06
-2.38945e-16
1.45026e-05
-6.59439e-16
3.54507e-05
-1.52878e-15
8.09124e-05
-3.19785e-15
0.000169374
-5.45557e-15
0.000312379
-6.6784e-15
0.000519728
-1.64803e-15
0.000784492
1.86216e-14
0.00108135
6.95538e-14
0.00137236
1.66055e-13
0.00161952
3.22603e-13
0.0018136
5.34329e-13
0.00194974
7.89644e-13
0.002011
1.06306e-12
0.00194299
1.32422e-12
0.0018724
1.46871e-12
0.00182686
1.47383e-12
0.00176171
1.32519e-12
0.00176671
1.03624e-12
0.00177201
7.69025e-13
0.00178339
5.60929e-13
0.00179567
4.63705e-13
0.00178623
3.73363e-13
0.00179451
2.80111e-13
0.00176343
2.15323e-13
0.00172175
1.35643e-13
0.00171256
7.5996e-14
0.00171612
1.86741e-14
0.00171912
-3.41947e-14
0.0017223
-9.03683e-14
0.0017102
-1.32113e-13
0.00170997
-2.27884e-13
0.00172893
-2.78084e-13
0.0017274
-3.77482e-13
0.00172541
-4.64867e-13
0.00173069
-5.67462e-13
0.00176194
-6.61345e-13
0.00182155
-7.1356e-13
0.00183918
-6.63122e-13
0.00149768
-5.0926e-13
0.000800298
-2.7658e-13
0.000396175
-1.19804e-13
0.000185513
-5.17712e-14
8.26135e-05
-2.15677e-14
3.49749e-05
-8.80931e-15
1.40148e-05
-3.37917e-15
5.34079e-06
-1.3221e-15
1.92858e-06
-4.79922e-16
6.65517e-07
-1.86747e-16
2.18198e-07
-1.45825e-17
6.8748e-08
2.97478e-18
2.06262e-08
2.72203e-17
5.97865e-09
-1.96444e-17
1.65296e-09
-7.94652e-17
4.43662e-10
-1.18652e-16
1.13723e-10
8.05698e-18
2.84237e-11
-5.61075e-18
6.79047e-12
2.04033e-17
1.58803e-12
3.57245e-17
3.55493e-13
3.84756e-17
7.8339e-14
-1.13977e-17
1.68383e-14
7.23027e-17
4.02255e-15
1.00905e-16
1.36387e-15
1.00966e-16
8.20091e-16
1.31819e-16
5.74736e-16
-6.83725e-18
7.16278e-16
2.91379e-19
6.53205e-16
-1.37287e-17
6.24094e-16
-7.88418e-17
5.23778e-16
-1.58524e-16
4.78973e-16
-1.78663e-16
4.14382e-16
-2.35821e-16
5.47305e-16
-1.61458e-16
-1.37294e-16
1.70762e-17
-6.74374e-17
-4.2826e-18
-7.17064e-17
-6.72205e-18
-5.57822e-17
9.97466e-18
-2.37305e-17
-1.07336e-17
-1.25903e-17
-4.25549e-17
3.02357e-17
-5.70832e-17
7.76424e-17
-4.85723e-17
9.20894e-17
1.78893e-17
1.37341e-16
2.80917e-16
1.33804e-16
2.76894e-15
1.54309e-16
1.60583e-14
1.54851e-16
8.02217e-14
2.094e-16
3.69394e-13
1.1769e-16
1.65807e-12
1.50433e-16
7.1143e-12
1.65707e-16
2.98296e-11
1.72049e-16
1.19699e-10
2.32209e-16
4.67617e-10
1.93652e-16
1.74694e-09
2.01485e-16
6.32361e-09
1.07987e-16
2.1861e-08
1.82688e-16
7.28355e-08
9.63991e-17
2.31286e-07
1.86781e-16
7.03487e-07
1.48576e-16
2.03285e-06
1.80262e-16
5.58566e-06
2.33795e-16
1.45026e-05
6.7127e-16
3.54507e-05
1.89163e-15
8.09124e-05
5.48269e-15
0.000169374
1.48136e-14
0.000312379
3.63084e-14
0.000519728
8.01007e-14
0.000784492
1.60074e-13
0.00108135
2.91109e-13
0.00137236
4.82903e-13
0.00161952
7.34071e-13
0.0018136
1.02244e-12
0.00194974
1.32796e-12
0.002011
1.59419e-12
0.00194299
1.69221e-12
0.0018724
1.63658e-12
0.00182686
1.3451e-12
0.00176171
8.72773e-13
0.00176671
3.85819e-13
0.00177201
1.45263e-14
0.00178339
-1.11025e-13
0.00179567
-1.34764e-13
0.00178623
-4.45339e-14
0.00179451
1.25586e-14
0.00176343
-2.87153e-14
0.00172175
-8.71889e-14
0.00171256
-1.0739e-13
0.00171612
-1.45203e-13
0.00171912
-1.68592e-13
0.0017223
-1.81974e-13
0.0017102
-2.10253e-13
0.00170997
-2.84829e-13
0.00172893
-3.41884e-13
0.0017274
-4.2399e-13
0.00172541
-5.28813e-13
0.00173069
-6.72581e-13
0.00176194
-8.71439e-13
0.00182155
-1.0761e-12
0.00183918
-1.19964e-12
0.00149768
-1.10298e-12
0.000800298
-6.79794e-13
0.000396175
-3.15077e-13
0.000185513
-1.44039e-13
8.26135e-05
-6.27407e-14
3.49749e-05
-2.6581e-14
1.40148e-05
-1.05517e-14
5.34079e-06
-4.00984e-15
1.92858e-06
-1.38035e-15
6.65517e-07
-4.11245e-16
2.18198e-07
-5.38984e-17
6.8748e-08
6.24365e-17
2.06262e-08
1.42993e-16
5.97865e-09
8.32803e-17
1.65296e-09
6.21045e-17
4.43663e-10
1.27068e-16
1.13723e-10
1.75736e-16
2.84237e-11
1.83542e-16
6.79063e-12
1.27224e-16
1.58826e-12
1.44788e-16
3.55714e-13
1.69027e-16
7.86045e-14
5.11743e-17
1.68478e-14
8.64245e-17
3.7306e-15
8.74274e-17
9.97845e-16
1.995e-16
3.43042e-16
2.26117e-16
3.38786e-16
2.20046e-16
3.45698e-16
1.78751e-16
2.13263e-16
1.92514e-16
1.7415e-16
9.58299e-17
1.37097e-16
2.11148e-17
-1.17392e-16
-5.379e-17
1.88868e-16
5.12286e-18
5.13966e-16
2.03762e-17
-4.78811e-17
1.4962e-17
-1.72239e-16
3.3014e-17
-2.01391e-16
6.33716e-17
-1.59161e-16
1.19533e-16
-1.97447e-16
9.59519e-18
-1.86212e-16
2.75387e-17
-2.07476e-16
-6.23416e-18
-1.95048e-16
6.90095e-17
-1.99168e-16
7.378e-17
-1.53577e-16
3.74104e-16
-1.49308e-16
2.90929e-15
-1.37653e-16
1.60671e-14
-6.80743e-17
8.00539e-14
5.16216e-17
3.69257e-13
9.70225e-17
1.65804e-12
1.81509e-16
7.11434e-12
2.75902e-16
2.98297e-11
2.74886e-16
1.19699e-10
3.83333e-16
4.67617e-10
2.03735e-16
1.74694e-09
3.41551e-16
6.32361e-09
1.97596e-16
2.1861e-08
2.89563e-16
7.28355e-08
1.95848e-16
2.31286e-07
2.74113e-16
7.03487e-07
3.00975e-16
2.03285e-06
4.54145e-16
5.58566e-06
9.07044e-16
1.45026e-05
2.33617e-15
3.54507e-05
6.11711e-15
8.09124e-05
1.61757e-14
0.000169374
4.03698e-14
0.000312379
9.18168e-14
0.000519728
1.88234e-13
0.000784492
3.50429e-13
0.00108135
5.92645e-13
0.00137236
9.12702e-13
0.00161952
1.27968e-12
0.0018136
1.63859e-12
0.00194974
1.96173e-12
0.002011
2.13975e-12
0.00194299
1.84073e-12
0.0018724
1.46222e-12
0.00182686
8.62258e-13
0.00176171
1.69795e-13
0.00176671
-3.96333e-13
0.00177201
-7.34696e-13
0.00178339
-7.00964e-13
0.00179567
-6.45059e-13
0.00178623
-3.66579e-13
0.00179451
-1.85988e-13
0.00176343
-2.05162e-13
0.00172175
-2.28089e-13
0.00171256
-2.10422e-13
0.00171612
-2.13334e-13
0.00171912
-2.18575e-13
0.0017223
-2.10734e-13
0.0017102
-2.11354e-13
0.00170997
-2.38349e-13
0.00172893
-3.04908e-13
0.0017274
-3.62806e-13
0.00172541
-4.62274e-13
0.00173069
-6.06666e-13
0.00176194
-8.58536e-13
0.00182155
-1.20374e-12
0.00183918
-1.72616e-12
0.00149768
-1.90664e-12
0.000800298
-1.32597e-12
0.000396175
-6.40258e-13
0.000185513
-3.01053e-13
8.26135e-05
-1.34119e-13
3.49749e-05
-5.7902e-14
1.40148e-05
-2.34747e-14
5.34079e-06
-9.09459e-15
1.92858e-06
-3.24241e-15
6.65517e-07
-1.04523e-15
2.18198e-07
-2.6092e-16
6.8748e-08
6.0817e-17
2.06262e-08
1.4697e-16
5.97865e-09
2.47517e-16
1.65296e-09
2.73659e-16
4.43663e-10
3.10522e-16
1.13723e-10
3.36299e-16
2.84236e-11
3.43062e-16
6.79064e-12
3.11864e-16
1.58812e-12
3.25105e-16
3.55381e-13
3.24895e-16
7.85207e-14
1.84131e-16
1.71207e-14
2.51759e-16
4.22852e-15
1.83047e-16
1.33435e-15
2.32724e-16
3.28242e-16
2.14543e-16
2.18006e-16
2.53961e-16
3.454e-16
2.70563e-16
-1.06008e-16
2.17511e-16
-2.9371e-16
2.76743e-16
1.90549e-16
2.51298e-16
7.72928e-16
2.34547e-16
7.06195e-16
1.64345e-16
7.09312e-16
1.9994e-16
1.86706e-16
-6.23416e-18
-3.03712e-16
1.38236e-17
-3.16248e-16
2.85687e-17
-2.79331e-16
-4.08744e-17
-2.11528e-16
-7.54063e-17
-1.96119e-16
1.78351e-17
-1.92066e-16
5.53485e-17
-2.08817e-16
7.04731e-18
-1.99805e-16
2.80808e-17
-1.95224e-16
4.68701e-16
-1.76305e-16
3.21471e-15
-1.27462e-16
1.65557e-14
-1.26093e-16
8.04955e-14
-1.26581e-17
3.69709e-13
-4.74474e-17
1.6585e-12
5.31666e-17
7.1146e-12
7.98244e-17
2.98297e-11
7.41459e-17
1.19699e-10
1.66398e-16
4.67616e-10
1.58443e-16
1.74694e-09
2.69031e-16
6.32361e-09
2.25812e-16
2.1861e-08
2.59707e-16
7.28355e-08
2.94591e-16
2.31286e-07
2.10796e-16
7.03487e-07
4.03025e-16
2.03285e-06
7.1434e-16
5.58566e-06
1.70466e-15
1.45026e-05
4.76228e-15
3.54507e-05
1.27153e-14
8.09124e-05
3.29313e-14
0.000169374
7.9916e-14
0.000312379
1.76142e-13
0.000519728
3.48251e-13
0.000784492
6.21875e-13
0.00108135
1.00121e-12
0.00137236
1.44627e-12
0.00161952
1.86505e-12
0.0018136
2.14073e-12
0.00194974
2.26918e-12
0.002011
2.15126e-12
0.00194299
1.42498e-12
0.0018724
5.6037e-13
0.00182686
-2.4679e-13
0.00176171
-8.10158e-13
0.00176671
-8.1264e-13
0.00177201
-7.07615e-13
0.00178339
-2.015e-13
0.00179567
-2.59227e-13
0.00178623
-3.10202e-14
0.00179451
-1.31577e-13
0.00176343
-2.77951e-15
0.00172175
-2.62042e-14
0.00171256
-5.0818e-15
0.00171612
6.62526e-14
0.00171912
-4.00812e-14
0.0017223
-4.51837e-14
0.0017102
-6.22204e-14
0.00170997
1.26881e-13
0.00172893
6.50772e-14
0.0017274
3.49601e-14
0.00172541
6.21232e-15
0.00173069
4.28449e-14
0.00176194
-5.39686e-14
0.00182155
-5.2076e-13
0.00183918
-1.8977e-12
0.00149768
-3.09684e-12
0.000800298
-2.53781e-12
0.000396175
-1.31369e-12
0.000185513
-6.3661e-13
8.26135e-05
-2.91417e-13
3.49749e-05
-1.29209e-13
1.40148e-05
-5.41669e-14
5.34079e-06
-2.18417e-14
1.92858e-06
-8.23796e-15
6.65517e-07
-2.9272e-15
2.18198e-07
-9.26186e-16
6.8748e-08
-2.08397e-16
2.06262e-08
8.30702e-17
5.97865e-09
1.34089e-16
1.65296e-09
2.69472e-16
4.43663e-10
3.19318e-16
1.13723e-10
2.97078e-16
2.84236e-11
4.43134e-16
6.79066e-12
4.093e-16
1.588e-12
4.11014e-16
3.55227e-13
4.55101e-16
7.84753e-14
4.30699e-16
1.71252e-14
4.43222e-16
4.16017e-15
4.25834e-16
1.32359e-15
3.23052e-16
5.78151e-16
2.79765e-16
2.77339e-16
2.73341e-16
3.76814e-16
3.69394e-16
9.18861e-18
2.67947e-16
-1.73743e-16
3.86294e-16
-3.09404e-16
3.73792e-16
-1.39645e-16
4.86834e-16
-5.84656e-17
3.52793e-16
-8.10441e-18
4.37726e-16
4.87932e-16
-4.56991e-17
6.44016e-17
7.35631e-17
1.2181e-16
9.55182e-17
6.1027e-17
-7.86047e-18
2.13696e-16
-1.14925e-17
1.32706e-16
-6.19622e-17
2.22492e-16
2.08221e-16
1.91822e-16
2.41181e-16
1.61438e-16
3.05691e-16
2.01824e-16
5.62321e-16
1.81956e-16
3.40017e-15
2.32399e-16
1.67539e-14
1.5725e-16
8.06716e-14
1.74028e-16
3.70003e-13
1.76386e-16
1.65867e-12
1.67645e-16
7.11481e-12
1.11198e-16
2.983e-11
9.62229e-17
1.19699e-10
9.171e-17
4.67617e-10
1.26391e-16
1.74694e-09
8.28059e-17
6.32361e-09
1.44633e-16
2.1861e-08
1.80696e-16
7.28355e-08
2.56658e-16
2.31286e-07
2.84684e-16
7.03487e-07
4.99871e-16
2.03285e-06
1.11525e-15
5.58566e-06
2.94313e-15
1.45026e-05
8.1233e-15
3.54507e-05
2.16986e-14
8.09124e-05
5.52085e-14
0.000169374
1.3159e-13
0.000312379
2.82915e-13
0.000519728
5.45628e-13
0.000784492
9.47025e-13
0.00108135
1.47367e-12
0.00137236
2.03324e-12
0.00161952
2.45637e-12
0.0018136
2.55847e-12
0.00194974
2.36831e-12
0.002011
1.84802e-12
0.00194299
7.47421e-13
0.0018724
-3.57326e-13
0.00182686
-1.22265e-12
0.00176171
-1.58456e-12
0.00176671
-9.51729e-13
0.00177201
-5.01337e-13
0.00178339
3.5653e-13
0.00179567
1.65458e-13
0.00178623
3.06547e-13
0.00179451
-3.95895e-14
0.00176343
2.11973e-13
0.00172175
1.57374e-13
0.00171256
1.85518e-13
0.00171612
3.55794e-13
0.00171912
1.5208e-13
0.0017223
1.48423e-13
0.0017102
4.79064e-14
0.00170997
3.97645e-13
0.00172893
4.48814e-13
0.0017274
3.98187e-13
0.00172541
4.09087e-13
0.00173069
6.04207e-13
0.00176194
7.26531e-13
0.00182155
2.91362e-13
0.00183918
-1.49526e-12
0.00149768
-3.78703e-12
0.000800298
-4.08986e-12
0.000396175
-2.21555e-12
0.000185513
-1.08834e-12
8.26135e-05
-5.03989e-13
3.49749e-05
-2.26195e-13
1.40148e-05
-9.62515e-14
5.34079e-06
-3.95296e-14
1.92858e-06
-1.52226e-14
6.65517e-07
-5.61061e-15
2.18198e-07
-1.86462e-15
6.8748e-08
-5.32445e-16
2.06262e-08
-9.71513e-17
5.97865e-09
5.78896e-17
1.65296e-09
1.11788e-16
4.43663e-10
2.08722e-16
1.13723e-10
1.583e-16
2.84236e-11
3.17434e-16
6.79056e-12
2.69167e-16
1.58793e-12
3.12969e-16
3.55102e-13
4.24933e-16
7.83858e-14
5.63446e-16
1.69484e-14
5.37507e-16
4.01277e-15
5.6964e-16
1.24366e-15
4.54105e-16
6.14282e-16
3.08103e-16
3.32769e-16
3.64055e-16
2.86609e-16
3.63147e-16
1.22677e-16
2.48784e-16
6.18808e-17
3.41327e-16
1.7518e-16
3.7718e-16
3.67273e-16
4.18726e-16
1.032e-15
3.09269e-16
1.23382e-15
3.23539e-16
2.56604e-16
1.00722e-16
2.93277e-16
4.95643e-16
2.14509e-16
5.42643e-17
-1.3932e-17
4.98733e-18
7.81168e-17
2.20798e-16
6.2385e-16
3.24296e-15
1.66007e-14
8.06299e-14
3.69763e-13
1.65838e-12
7.11451e-12
2.98298e-11
1.19699e-10
4.67617e-10
1.74694e-09
6.32361e-09
2.1861e-08
7.28355e-08
2.31286e-07
7.03487e-07
2.03285e-06
5.58566e-06
1.45026e-05
3.54507e-05
8.09124e-05
0.000169374
0.000312379
0.000519728
0.000784492
0.00108135
0.00137236
0.00161952
0.0018136
0.00194974
0.002011
0.00194299
0.0018724
0.00182686
0.00176171
0.00176671
0.00177201
0.00178339
0.00179567
0.00178623
0.00179451
0.00176343
0.00172175
0.00171256
0.00171612
0.00171912
0.0017223
0.0017102
0.00170997
0.00172893
0.0017274
0.00172541
0.00173069
0.00176194
0.00182155
0.00183918
0.00149768
0.000800298
0.000396175
0.000185513
8.26135e-05
3.49749e-05
1.40148e-05
5.34079e-06
1.92858e-06
6.65517e-07
2.18198e-07
6.8748e-08
2.06262e-08
5.97865e-09
1.65296e-09
4.43663e-10
1.13724e-10
2.84238e-11
6.79084e-12
1.58858e-12
3.55688e-13
7.85496e-14
1.68446e-14
3.46722e-15
6.10487e-16
5.62538e-16
2.90702e-16
6.58653e-17
3.37865e-16
2.48852e-16
2.57498e-18
-2.48147e-16
1.95183e-16
3.55862e-16
)
;

boundaryField
{
    sides1
    {
        type            calculated;
        value           nonuniform List<scalar> 
20
(
5.42226e-17
5.46681e-16
6.08795e-16
6.34538e-16
7.13076e-16
5.6063e-16
7.77782e-16
-3.72744e-18
1.15326e-15
2.73501e-16
-8.44498e-17
-6.88411e-17
-3.17415e-17
-1.3512e-17
-6.17357e-18
-1.08329e-17
-6.40653e-19
-3.78568e-18
1.91555e-16
-1.13046e-16
)
;
    }
    sides2
    {
        type            calculated;
        value           uniform 0;
    }
    empty
    {
        type            empty;
        value           nonuniform 0();
    }
}


// ************************************************************************* //
