/*--------------------------------*- C++ -*----------------------------------*\
| =========                 |                                                 |
| \\      /  F ield         | OpenFOAM: The Open Source CFD Toolbox           |
|  \\    /   O peration     | Version:  3.0.1                                 |
|   \\  /    A nd           | Web:      www.OpenFOAM.org                      |
|    \\/     M anipulation  |                                                 |
\*---------------------------------------------------------------------------*/
FoamFile
{
    version     2.0;
    format      ascii;
    class       volVectorField;
    location    "0.00015";
    object      U;
}
// * * * * * * * * * * * * * * * * * * * * * * * * * * * * * * * * * * * * * //

dimensions      [0 1 -1 0 0 0 0];

internalField   nonuniform List<vector> 
1000
(
(8.43705e-13 -8.74417e-12 0)
(-7.7072e-14 -8.74651e-12 0)
(-7.25178e-13 -7.5408e-12 0)
(-2.40266e-12 -7.95973e-12 0)
(-2.61753e-12 -6.6244e-12 0)
(8.81657e-14 -7.83828e-12 0)
(1.76098e-12 -7.03195e-12 0)
(1.90228e-12 -6.60951e-12 0)
(-1.14499e-12 -7.17441e-12 0)
(1.74638e-12 -5.48875e-12 0)
(1.06424e-11 -6.23699e-12 0)
(5.89677e-11 -5.40292e-12 0)
(3.00106e-10 -4.22028e-12 0)
(1.46338e-09 -4.89086e-12 0)
(6.60851e-09 -3.85623e-12 0)
(2.95341e-08 -2.87152e-12 0)
(1.24796e-07 -2.49842e-12 0)
(5.2139e-07 -2.15831e-12 0)
(2.05984e-06 -2.42164e-12 0)
(8.00744e-06 -1.17593e-12 0)
(2.94303e-05 -2.77459e-12 0)
(0.000105819 -2.8394e-12 0)
(0.000359586 -6.64133e-12 0)
(0.00118731 -1.36368e-11 0)
(0.00370179 -3.35413e-11 0)
(0.0111249 -8.70145e-11 0)
(0.0315093 -2.18717e-10 0)
(0.0851672 -5.20456e-10 0)
(0.215919 -1.12889e-09 0)
(0.514582 -2.21856e-09 0)
(1.12363 -3.74273e-09 0)
(2.20819 -5.07863e-09 0)
(3.90291 -4.94468e-09 0)
(6.28101 -2.17245e-09 0)
(9.21877 4.07202e-09 0)
(12.4729 1.20171e-08 0)
(15.6066 1.91493e-08 0)
(18.4013 2.1807e-08 0)
(20.585 2.16436e-08 0)
(21.946 1.45866e-08 0)
(21.8624 6.0435e-09 0)
(21.0323 -2.51942e-09 0)
(19.7978 -4.17119e-09 0)
(18.82 -5.76493e-09 0)
(18.1472 -5.40247e-10 0)
(18.4929 -6.11861e-10 0)
(18.6062 1.00506e-09 0)
(19.1103 -1.09272e-09 0)
(19.0327 2.63637e-11 0)
(19.0374 -2.1643e-11 0)
(19.4252 -1.17942e-09 0)
(18.9977 3.46717e-10 0)
(19.2388 -1.02962e-09 0)
(18.7979 3.04238e-11 0)
(19.1027 -1.18401e-09 0)
(19.0836 -6.56315e-10 0)
(19.1323 -7.38002e-10 0)
(19.1144 -8.67542e-10 0)
(19.2071 -3.40456e-10 0)
(19.2469 1.40333e-09 0)
(19.3205 2.74309e-09 0)
(19.3967 4.3984e-09 0)
(19.6502 5.5018e-09 0)
(20.0718 4.33345e-09 0)
(20.2797 1.8394e-11 0)
(18.1821 -4.97846e-09 0)
(12.5471 -2.63439e-09 0)
(6.60275 4.76197e-10 0)
(3.13384 9.48041e-10 0)
(1.40724 6.68587e-10 0)
(0.606837 3.61609e-10 0)
(0.246092 1.62839e-10 0)
(0.0958213 6.74494e-11 0)
(0.0350073 2.38895e-11 0)
(0.0123353 6.72332e-12 0)
(0.00408276 -2.92121e-13 0)
(0.00131176 -2.87446e-12 0)
(0.000396435 -3.28642e-12 0)
(0.000117035 -2.29913e-12 0)
(3.25342e-05 -1.80488e-12 0)
(8.88468e-06 -2.09289e-12 0)
(2.28644e-06 2.30305e-13 0)
(5.80913e-07 -2.39524e-13 0)
(1.39172e-07 -6.48064e-13 0)
(3.30651e-08 -2.25115e-12 0)
(7.41661e-09 -2.47173e-12 0)
(1.66165e-09 -4.49974e-12 0)
(3.5578e-10 -5.35677e-12 0)
(8.09742e-11 -4.58135e-12 0)
(2.16378e-11 -5.75148e-12 0)
(7.11641e-12 -3.11108e-12 0)
(5.17222e-12 -2.72115e-12 0)
(1.10717e-11 -3.73439e-12 0)
(1.12623e-11 -4.36078e-12 0)
(7.12461e-12 -4.65698e-12 0)
(6.00125e-12 -3.63486e-12 0)
(2.77698e-12 -2.81625e-12 0)
(6.60015e-13 -5.66117e-13 0)
(2.14428e-13 -1.04448e-12 0)
(6.36455e-13 1.96161e-12 0)
(6.90729e-13 -3.27264e-13 0)
(2.13408e-12 -6.48397e-13 0)
(6.33509e-13 -5.51766e-13 0)
(-5.95556e-13 -9.87631e-13 0)
(-1.9776e-12 5.32498e-13 0)
(-8.12176e-13 -8.36406e-13 0)
(4.33472e-12 -6.5336e-13 0)
(1.62552e-12 -2.44908e-12 0)
(9.20193e-13 -3.83054e-12 0)
(3.95928e-12 -3.00581e-12 0)
(1.08006e-11 -5.35796e-12 0)
(6.20967e-11 -3.73974e-12 0)
(3.02694e-10 -4.6722e-12 0)
(1.46388e-09 -3.29454e-12 0)
(6.61227e-09 -3.80514e-12 0)
(2.95367e-08 -2.40762e-12 0)
(1.24797e-07 -1.55253e-12 0)
(5.21391e-07 -1.86024e-12 0)
(2.05984e-06 -2.08474e-12 0)
(8.00744e-06 -9.66028e-13 0)
(2.94303e-05 -2.89195e-12 0)
(0.000105819 -2.88086e-12 0)
(0.000359586 -8.45953e-12 0)
(0.00118731 -1.50939e-11 0)
(0.00370179 -3.92218e-11 0)
(0.0111249 -9.79889e-11 0)
(0.0315093 -2.41973e-10 0)
(0.0851672 -5.75726e-10 0)
(0.215919 -1.24704e-09 0)
(0.514582 -2.46168e-09 0)
(1.12363 -4.18084e-09 0)
(2.20819 -5.74945e-09 0)
(3.90291 -5.74731e-09 0)
(6.28101 -2.85258e-09 0)
(9.21877 3.83799e-09 0)
(12.4729 1.24538e-08 0)
(15.6066 2.04303e-08 0)
(18.4013 2.38055e-08 0)
(20.585 2.4253e-08 0)
(21.946 1.72494e-08 0)
(21.8624 8.23447e-09 0)
(21.0323 -7.69298e-10 0)
(19.7978 -2.48671e-09 0)
(18.82 -3.96742e-09 0)
(18.1472 1.74129e-09 0)
(18.4929 1.91914e-09 0)
(18.6062 3.45609e-09 0)
(19.1103 1.09964e-09 0)
(19.0327 1.88078e-09 0)
(19.0374 1.65979e-09 0)
(19.4252 3.84256e-10 0)
(18.9977 1.77487e-09 0)
(19.2388 2.68226e-10 0)
(18.7979 1.0963e-09 0)
(19.1027 -3.3063e-10 0)
(19.0836 -6.10238e-12 0)
(19.1323 -3.10991e-10 0)
(19.1144 -7.63655e-10 0)
(19.2071 -3.76935e-10 0)
(19.2469 1.29844e-09 0)
(19.3205 2.65168e-09 0)
(19.3967 4.32701e-09 0)
(19.6502 5.40312e-09 0)
(20.0718 4.04734e-09 0)
(20.2797 -4.30564e-10 0)
(18.1821 -5.51615e-09 0)
(12.5471 -2.90374e-09 0)
(6.60275 4.44512e-10 0)
(3.13384 9.88326e-10 0)
(1.40724 7.08672e-10 0)
(0.606837 3.89863e-10 0)
(0.246092 1.80093e-10 0)
(0.0958213 7.56351e-11 0)
(0.0350073 2.87706e-11 0)
(0.0123353 1.04488e-11 0)
(0.00408276 2.69775e-12 0)
(0.00131176 -2.08299e-12 0)
(0.000396435 -1.83732e-12 0)
(0.000117035 -1.04858e-12 0)
(3.25342e-05 1.19496e-15 0)
(8.88468e-06 -1.01017e-12 0)
(2.28644e-06 2.02904e-12 0)
(5.8091e-07 1.32566e-12 0)
(1.39169e-07 1.30125e-12 0)
(3.30618e-08 -6.73161e-13 0)
(7.41193e-09 -1.14709e-12 0)
(1.65557e-09 -3.27259e-12 0)
(3.55971e-10 -3.02982e-12 0)
(8.01387e-11 -3.96692e-12 0)
(2.47231e-11 -4.14908e-12 0)
(1.29712e-11 -4.4977e-12 0)
(3.98604e-12 -1.99421e-12 0)
(7.70131e-12 -2.99243e-12 0)
(9.34708e-12 -5.67346e-12 0)
(8.81203e-12 -6.92657e-12 0)
(9.40957e-12 -7.35252e-12 0)
(8.84925e-12 -8.30345e-12 0)
(4.48626e-12 -5.07832e-12 0)
(5.15344e-12 -7.19358e-12 0)
(6.43318e-12 -3.75744e-12 0)
(3.2055e-13 8.70009e-12 0)
(-2.51652e-13 8.4099e-12 0)
(-1.88943e-12 7.43278e-12 0)
(-2.91356e-13 7.71684e-12 0)
(-2.18312e-12 5.2698e-12 0)
(-2.28472e-12 7.2293e-12 0)
(-1.59632e-12 4.59629e-12 0)
(-4.16072e-12 2.46952e-12 0)
(-2.37989e-12 4.53907e-12 0)
(-1.68332e-12 -6.70001e-13 0)
(9.5762e-12 2.29406e-12 0)
(5.9955e-11 -2.08941e-12 0)
(3.01562e-10 -2.60206e-12 0)
(1.46445e-09 -2.22516e-12 0)
(6.61036e-09 -4.57498e-12 0)
(2.95386e-08 -5.57342e-12 0)
(1.24797e-07 -4.22728e-12 0)
(5.21389e-07 -5.92287e-12 0)
(2.05984e-06 -4.8097e-12 0)
(8.00744e-06 -7.17587e-12 0)
(2.94303e-05 -5.84696e-12 0)
(0.000105819 -6.85853e-12 0)
(0.000359586 -7.8339e-12 0)
(0.00118731 -9.71838e-12 0)
(0.00370179 -1.53768e-11 0)
(0.0111249 -3.00413e-11 0)
(0.0315093 -6.47885e-11 0)
(0.0851672 -1.51182e-10 0)
(0.215919 -3.38872e-10 0)
(0.514582 -7.23353e-10 0)
(1.12363 -1.38031e-09 0)
(2.20819 -2.27737e-09 0)
(3.90291 -3.09493e-09 0)
(6.28101 -3.38953e-09 0)
(9.21877 -2.5169e-09 0)
(12.4729 -3.06017e-10 0)
(15.6066 3.46093e-09 0)
(18.4013 7.59957e-09 0)
(20.585 1.22668e-08 0)
(21.946 1.53212e-08 0)
(21.8624 1.68365e-08 0)
(21.0323 1.62783e-08 0)
(19.7978 1.61913e-08 0)
(18.82 1.45634e-08 0)
(18.1472 1.53337e-08 0)
(18.4929 1.39968e-08 0)
(18.6062 1.47857e-08 0)
(19.1103 1.26187e-08 0)
(19.0327 1.17773e-08 0)
(19.0374 8.8918e-09 0)
(19.4252 8.84739e-09 0)
(18.9977 7.79669e-09 0)
(19.2388 7.02428e-09 0)
(18.7979 5.79879e-09 0)
(19.1027 5.20844e-09 0)
(19.0836 3.82225e-09 0)
(19.1323 3.26921e-09 0)
(19.1144 2.03702e-09 0)
(19.2071 1.55591e-09 0)
(19.2469 6.0579e-10 0)
(19.3205 1.60422e-10 0)
(19.3967 -5.52969e-10 0)
(19.6502 -1.34125e-09 0)
(20.0718 -2.35633e-09 0)
(20.2797 -2.77034e-09 0)
(18.1821 -2.43203e-09 0)
(12.5471 -1.04332e-09 0)
(6.60275 -1.53348e-10 0)
(3.13384 9.25187e-11 0)
(1.40724 9.48285e-11 0)
(0.606837 6.17101e-11 0)
(0.246092 2.99194e-11 0)
(0.0958213 1.14848e-11 0)
(0.0350073 2.52365e-12 0)
(0.0123353 -6.95722e-13 0)
(0.00408276 -2.03076e-12 0)
(0.00131176 -2.83691e-12 0)
(0.000396435 -2.6713e-12 0)
(0.000117035 -1.00283e-12 0)
(3.25342e-05 1.22579e-13 0)
(8.88468e-06 1.89007e-12 0)
(2.28645e-06 -1.31798e-13 0)
(5.80911e-07 -1.07146e-12 0)
(1.39169e-07 -7.83789e-13 0)
(3.30602e-08 -3.97102e-13 0)
(7.41149e-09 -6.51137e-13 0)
(1.65741e-09 1.07846e-12 0)
(3.54972e-10 8.32616e-13 0)
(7.88262e-11 5.40509e-13 0)
(2.04567e-11 1.24628e-13 0)
(1.1112e-11 -3.9198e-12 0)
(8.22236e-12 -2.68428e-12 0)
(3.89795e-12 -3.1705e-12 0)
(3.38031e-12 -4.80551e-12 0)
(4.31485e-12 -5.72758e-12 0)
(2.87975e-12 -7.54544e-12 0)
(7.34792e-12 -9.58695e-12 0)
(3.02077e-12 -8.48203e-12 0)
(2.69196e-12 -9.89886e-12 0)
(7.16592e-12 -9.33769e-12 0)
(1.3546e-13 7.79478e-14 0)
(-2.85517e-13 7.85317e-14 0)
(-5.50014e-13 -3.15295e-14 0)
(-4.52915e-12 -8.84576e-13 0)
(-3.60312e-12 -1.12572e-12 0)
(-1.60392e-12 -2.1332e-12 0)
(-5.13989e-12 -3.13806e-12 0)
(1.34175e-12 -2.99296e-12 0)
(-4.79306e-12 -2.87823e-12 0)
(-3.8536e-13 -2.32793e-12 0)
(7.86426e-12 -1.84068e-12 0)
(5.25497e-11 -1.92038e-12 0)
(3.02261e-10 -2.34719e-12 0)
(1.45994e-09 -1.24804e-12 0)
(6.60573e-09 -3.07208e-12 0)
(2.95373e-08 -5.99644e-12 0)
(1.24796e-07 -6.02446e-12 0)
(5.21389e-07 -8.41574e-12 0)
(2.05984e-06 -6.60513e-12 0)
(8.00743e-06 -9.00137e-12 0)
(2.94303e-05 -6.86408e-12 0)
(0.000105819 -8.15387e-12 0)
(0.000359586 -6.24488e-12 0)
(0.00118731 -8.0403e-12 0)
(0.00370179 -1.04897e-11 0)
(0.0111249 -2.04078e-11 0)
(0.0315093 -4.41901e-11 0)
(0.0851672 -1.10066e-10 0)
(0.215919 -2.52226e-10 0)
(0.514582 -5.54542e-10 0)
(1.12363 -1.0893e-09 0)
(2.20819 -1.8646e-09 0)
(3.90291 -2.66684e-09 0)
(6.28101 -3.15154e-09 0)
(9.21877 -2.61938e-09 0)
(12.4729 -7.17232e-10 0)
(15.6066 2.90492e-09 0)
(18.4013 7.34106e-09 0)
(20.585 1.26859e-08 0)
(21.946 1.71066e-08 0)
(21.8624 2.06673e-08 0)
(21.0323 2.15538e-08 0)
(19.7978 2.20581e-08 0)
(18.82 2.02069e-08 0)
(18.1472 1.98018e-08 0)
(18.4929 1.72992e-08 0)
(18.6062 1.72781e-08 0)
(19.1103 1.47916e-08 0)
(19.0327 1.33669e-08 0)
(19.0374 9.86312e-09 0)
(19.4252 9.63773e-09 0)
(18.9977 8.33369e-09 0)
(19.2388 7.35214e-09 0)
(18.7979 6.06293e-09 0)
(19.1027 5.4121e-09 0)
(19.0836 3.86112e-09 0)
(19.1323 3.28566e-09 0)
(19.1144 1.90351e-09 0)
(19.2071 1.27094e-09 0)
(19.2469 -1.92929e-10 0)
(19.3205 -1.08981e-09 0)
(19.3967 -2.34466e-09 0)
(19.6502 -3.5294e-09 0)
(20.0718 -4.56063e-09 0)
(20.2797 -4.48379e-09 0)
(18.1821 -3.40636e-09 0)
(12.5471 -1.50941e-09 0)
(6.60275 -4.10187e-10 0)
(3.13384 -5.71598e-11 0)
(1.40724 1.48679e-11 0)
(0.606837 1.80489e-11 0)
(0.246092 7.46093e-12 0)
(0.0958213 -3.76284e-14 0)
(0.0350073 -3.56104e-12 0)
(0.0123353 -6.02225e-12 0)
(0.00408276 -6.94757e-12 0)
(0.00131176 -5.66305e-12 0)
(0.000396435 -5.9374e-12 0)
(0.000117035 -6.32665e-12 0)
(3.25342e-05 -4.38177e-12 0)
(8.88468e-06 -5.3228e-12 0)
(2.28644e-06 -5.33731e-12 0)
(5.80909e-07 -7.97054e-12 0)
(1.3917e-07 -5.73356e-12 0)
(3.30618e-08 -6.62456e-12 0)
(7.41501e-09 -7.8355e-12 0)
(1.65865e-09 -7.08022e-12 0)
(3.54843e-10 -8.05198e-12 0)
(7.85025e-11 -8.89927e-12 0)
(1.58571e-11 -7.05052e-12 0)
(7.70746e-12 -7.60588e-12 0)
(5.11281e-12 -6.59332e-12 0)
(3.69137e-12 -8.21246e-12 0)
(4.37392e-12 -4.96616e-12 0)
(3.01155e-12 -5.60296e-12 0)
(1.84278e-12 -3.06157e-12 0)
(7.53844e-12 -4.30632e-12 0)
(3.6125e-12 -3.39722e-12 0)
(3.46124e-12 -3.15291e-12 0)
(7.44932e-12 -2.35324e-12 0)
(5.89718e-14 2.91939e-14 0)
(-4.73526e-13 -4.70022e-14 0)
(-3.84192e-12 2.32092e-13 0)
(-2.36354e-12 1.6407e-13 0)
(-4.09182e-12 2.65081e-12 0)
(-6.83022e-12 1.78171e-12 0)
(-3.3176e-12 3.33482e-12 0)
(-3.11091e-12 4.29735e-12 0)
(-1.48948e-12 2.46134e-12 0)
(7.32768e-13 6.69505e-12 0)
(1.01332e-11 2.67942e-12 0)
(5.9544e-11 6.59287e-12 0)
(3.02351e-10 4.16773e-12 0)
(1.46279e-09 4.77467e-12 2.13188e-33)
(6.60122e-09 4.05416e-12 0)
(2.95331e-08 1.69938e-12 0)
(1.24793e-07 1.24337e-12 0)
(5.21388e-07 -7.64881e-14 0)
(2.05984e-06 9.75078e-14 0)
(8.00744e-06 4.64184e-14 0)
(2.94303e-05 1.13506e-12 0)
(0.000105819 -1.18849e-12 0)
(0.000359586 1.50174e-12 0)
(0.00118731 2.86978e-13 0)
(0.00370179 -1.59983e-13 0)
(0.0111249 -1.30177e-12 0)
(0.0315093 -6.21056e-12 0)
(0.0851672 -2.03371e-11 0)
(0.215919 -4.81006e-11 0)
(0.514582 -1.09991e-10 0)
(1.12363 -2.12719e-10 0)
(2.20819 -3.4659e-10 2.12621e-33)
(3.90291 -4.23077e-10 0)
(6.28101 -2.81043e-10 0)
(9.21877 4.03736e-10 0)
(12.4729 1.93958e-09 0)
(15.6066 4.67583e-09 -2.09367e-33)
(18.4013 8.59114e-09 0)
(20.585 1.3521e-08 0)
(21.946 1.90131e-08 2.07942e-33)
(21.8624 2.48935e-08 0)
(21.0323 2.86941e-08 0)
(19.7978 3.01771e-08 0)
(18.82 2.87092e-08 -2.08682e-33)
(18.1472 2.45858e-08 0)
(18.4929 1.9651e-08 0)
(18.6062 1.52679e-08 0)
(19.1103 1.27942e-08 0)
(19.0327 1.01092e-08 0)
(19.0374 7.56206e-09 0)
(19.4252 6.16758e-09 0)
(18.9977 4.3916e-09 0)
(19.2388 2.94205e-09 0)
(18.7979 1.55927e-09 0)
(19.1027 2.71601e-10 0)
(19.0836 -1.10879e-09 -1.09021e-33)
(19.1323 -2.19284e-09 1.09017e-33)
(19.1144 -4.30131e-09 0)
(19.2071 -5.57024e-09 0)
(19.2469 -7.82914e-09 -1.09103e-33)
(19.3205 -9.64573e-09 0)
(19.3967 -1.16578e-08 0)
(19.6502 -1.32153e-08 0)
(20.0718 -1.36391e-08 0)
(20.2797 -1.18593e-08 0)
(18.1821 -8.51818e-09 0)
(12.5471 -4.43605e-09 0)
(6.60275 -1.89261e-09 0)
(3.13384 -7.97283e-10 0)
(1.40724 -3.22823e-10 0)
(0.606837 -1.28184e-10 0)
(0.246092 -4.68876e-11 1.06625e-33)
(0.0958213 -1.91449e-11 0)
(0.0350073 -6.37292e-12 0)
(0.0123353 -3.80712e-12 0)
(0.00408276 -4.94409e-13 0)
(0.00131176 -8.8247e-13 0)
(0.000396435 -3.20953e-14 0)
(0.000117035 -1.26762e-12 0)
(3.25342e-05 -1.54538e-12 0)
(8.88468e-06 -4.18869e-12 0)
(2.28644e-06 -5.43923e-13 0)
(5.80911e-07 -1.25362e-12 0)
(1.39172e-07 5.67995e-13 0)
(3.30558e-08 -2.20233e-14 0)
(7.41099e-09 -1.26454e-12 0)
(1.65692e-09 -8.39445e-13 0)
(3.51326e-10 -8.09227e-13 0)
(8.11771e-11 -8.09397e-13 0)
(2.27205e-11 -9.18148e-13 0)
(1.20537e-11 4.0615e-13 0)
(6.93925e-12 -1.47197e-12 -1.06594e-33)
(7.27345e-12 -7.70814e-13 0)
(8.79775e-12 -4.27832e-13 -1.06594e-33)
(7.70537e-12 -1.98824e-12 0)
(5.85372e-12 -1.0648e-12 0)
(6.24509e-12 -1.24833e-12 0)
(5.33984e-12 -5.49916e-12 0)
(4.9517e-12 -3.57289e-12 0)
(8.35313e-12 -4.2662e-12 0)
(1.08601e-13 -1.47926e-12 0)
(1.50641e-13 -1.53005e-12 0)
(-3.32227e-13 -1.04514e-12 0)
(2.77926e-13 4.18933e-13 0)
(-4.26232e-14 8.70563e-13 0)
(-3.00698e-13 2.89195e-12 0)
(-5.44175e-13 4.29735e-12 0)
(-5.47678e-13 4.56418e-12 0)
(-2.14867e-13 5.99001e-12 0)
(5.08558e-13 5.74216e-12 0)
(7.16419e-12 6.25685e-12 0)
(5.55345e-11 4.91042e-12 0)
(2.98762e-10 4.95129e-12 0)
(1.46066e-09 2.48149e-12 -2.13188e-33)
(6.5993e-09 2.64935e-12 0)
(2.95312e-08 1.40277e-12 0)
(1.24793e-07 1.32716e-12 0)
(5.21387e-07 2.1078e-12 0)
(2.05984e-06 1.43722e-12 0)
(8.00744e-06 1.54086e-12 0)
(2.94303e-05 1.38146e-12 0)
(0.000105819 5.90302e-13 0)
(0.000359586 1.58523e-12 0)
(0.00118731 1.47867e-12 0)
(0.00370179 6.12199e-13 0)
(0.0111249 5.15866e-13 0)
(0.0315093 -2.63211e-12 0)
(0.0851672 -3.95257e-12 0)
(0.215919 -8.74463e-12 0)
(0.514582 -9.52888e-12 0)
(1.12363 8.18593e-12 0)
(2.20819 9.54088e-11 -2.12621e-33)
(3.90291 3.62981e-10 0)
(6.28101 9.97625e-10 0)
(9.21877 2.29082e-09 0)
(12.4729 4.54395e-09 0)
(15.6066 8.04028e-09 2.09367e-33)
(18.4013 1.26757e-08 0)
(20.585 1.81838e-08 0)
(21.946 2.39013e-08 -2.07942e-33)
(21.8624 2.86086e-08 0)
(21.0323 3.08181e-08 0)
(19.7978 2.9749e-08 0)
(18.82 2.55412e-08 2.08682e-33)
(18.1472 1.93474e-08 0)
(18.4929 1.34856e-08 0)
(18.6062 9.26014e-09 0)
(19.1103 7.49179e-09 0)
(19.0327 6.11893e-09 0)
(19.0374 4.75796e-09 0)
(19.4252 3.39703e-09 0)
(18.9977 1.80971e-09 0)
(19.2388 6.19967e-10 0)
(18.7979 -6.08764e-10 0)
(19.1027 -1.62267e-09 0)
(19.0836 -2.6188e-09 1.09021e-33)
(19.1323 -3.47426e-09 -1.09017e-33)
(19.1144 -5.41292e-09 0)
(19.2071 -6.54073e-09 0)
(19.2469 -8.51136e-09 1.09103e-33)
(19.3205 -1.03507e-08 0)
(19.3967 -1.25696e-08 0)
(19.6502 -1.47639e-08 0)
(20.0718 -1.62114e-08 0)
(20.2797 -1.56672e-08 0)
(18.1821 -1.26377e-08 0)
(12.5471 -7.26195e-09 0)
(6.60275 -3.27361e-09 0)
(3.13384 -1.45934e-09 0)
(1.40724 -6.22464e-10 0)
(0.606837 -2.59287e-10 0)
(0.246092 -1.0212e-10 -1.06625e-33)
(0.0958213 -3.98511e-11 0)
(0.0350073 -1.52165e-11 0)
(0.0123353 -5.69615e-12 0)
(0.00408276 -8.12644e-13 0)
(0.00131176 3.77808e-13 0)
(0.000396435 1.53053e-12 0)
(0.000117035 4.76147e-13 0)
(3.25342e-05 -1.17884e-12 0)
(8.88469e-06 1.40164e-13 0)
(2.28645e-06 2.1453e-12 0)
(5.80911e-07 2.19396e-12 0)
(1.39172e-07 1.44517e-12 0)
(3.30588e-08 2.36588e-12 0)
(7.41356e-09 3.31305e-12 0)
(1.65994e-09 1.51585e-12 0)
(3.54636e-10 3.02709e-12 0)
(7.79586e-11 3.84161e-12 0)
(1.89854e-11 4.36265e-12 0)
(6.65e-12 5.05135e-12 0)
(2.73396e-12 2.31381e-12 1.06594e-33)
(5.6383e-12 2.1016e-12 0)
(1.99234e-12 1.15375e-12 1.06594e-33)
(2.0695e-12 -1.38866e-12 0)
(3.3571e-12 -4.71503e-12 0)
(-1.38729e-12 -5.64905e-12 0)
(-5.63044e-13 -4.25868e-12 0)
(5.23846e-12 -3.23161e-12 0)
(6.57283e-12 -3.01343e-12 0)
(2.33552e-15 -3.64632e-13 0)
(3.98789e-13 -4.93962e-13 0)
(-6.2475e-14 -4.67103e-13 0)
(1.30555e-12 -3.6872e-13 0)
(9.19025e-13 -4.55134e-13 0)
(-1.33708e-13 -5.92053e-13 0)
(1.16776e-13 -3.78645e-13 0)
(1.47721e-13 -2.0027e-13 0)
(8.75234e-13 5.83879e-16 0)
(1.11521e-12 -8.81657e-14 0)
(8.55324e-12 5.92345e-13 0)
(5.69708e-11 1.31694e-12 0)
(2.97544e-10 3.73887e-12 0)
(1.45849e-09 3.55174e-12 0)
(6.59857e-09 4.65585e-12 0)
(2.95311e-08 6.12985e-12 0)
(1.24794e-07 6.24108e-12 0)
(5.21388e-07 7.8558e-12 0)
(2.05984e-06 5.37694e-12 0)
(8.00744e-06 7.12391e-12 0)
(2.94303e-05 3.32753e-12 0)
(0.000105819 6.28779e-12 0)
(0.000359586 2.75562e-12 0)
(0.00118731 6.26356e-12 0)
(0.00370179 5.55473e-12 0)
(0.0111249 7.40126e-12 0)
(0.0315093 1.34609e-11 0)
(0.0851672 3.3633e-11 0)
(0.215919 9.08584e-11 0)
(0.514582 2.44688e-10 0)
(1.12363 6.23855e-10 0)
(2.20819 1.44931e-09 0)
(3.90291 3.04477e-09 0)
(6.28101 5.82704e-09 0)
(9.21877 1.01678e-08 0)
(12.4729 1.62136e-08 0)
(15.6066 2.36232e-08 0)
(18.4013 3.15109e-08 0)
(20.585 3.92634e-08 0)
(21.946 4.48553e-08 0)
(21.8624 4.282e-08 0)
(21.0323 3.68108e-08 0)
(19.7978 2.4578e-08 0)
(18.82 8.87735e-09 0)
(18.1472 -4.51121e-09 0)
(18.4929 -1.31209e-08 0)
(18.6062 -1.42555e-08 0)
(19.1103 -1.34009e-08 0)
(19.0327 -8.03543e-09 0)
(19.0374 -4.1843e-09 0)
(19.4252 -4.64299e-09 0)
(18.9977 -5.5199e-09 0)
(19.2388 -5.15901e-09 0)
(18.7979 -5.52456e-09 0)
(19.1027 -5.52552e-09 0)
(19.0836 -5.16786e-09 0)
(19.1323 -5.35994e-09 0)
(19.1144 -6.51341e-09 0)
(19.2071 -7.8801e-09 0)
(19.2469 -9.38395e-09 0)
(19.3205 -1.1954e-08 0)
(19.3967 -1.58002e-08 0)
(19.6502 -2.20456e-08 0)
(20.0718 -2.96404e-08 0)
(20.2797 -3.72357e-08 0)
(18.1821 -3.75094e-08 0)
(12.5471 -2.49511e-08 0)
(6.60275 -1.19942e-08 0)
(3.13384 -5.6091e-09 0)
(1.40724 -2.48012e-09 0)
(0.606837 -1.06217e-09 0)
(0.246092 -4.25403e-10 0)
(0.0958213 -1.62346e-10 0)
(0.0350073 -5.58116e-11 0)
(0.0123353 -1.64315e-11 0)
(0.00408276 -3.13548e-12 0)
(0.00131176 2.785e-12 0)
(0.000396435 4.29368e-12 0)
(0.000117035 3.89043e-12 0)
(3.25342e-05 4.01131e-12 0)
(8.88469e-06 4.58954e-12 0)
(2.28644e-06 4.90214e-12 0)
(5.80909e-07 4.93867e-12 0)
(1.39172e-07 3.70708e-12 0)
(3.30598e-08 4.60884e-12 0)
(7.40876e-09 4.52569e-12 0)
(1.65676e-09 1.21999e-12 0)
(3.55911e-10 2.36793e-12 0)
(8.34166e-11 1.67189e-12 0)
(2.55098e-11 5.16556e-12 0)
(7.81945e-12 4.4248e-12 0)
(1.37295e-12 6.64351e-12 0)
(4.77853e-12 4.83146e-12 0)
(1.91005e-12 6.21756e-12 0)
(-3.41992e-12 5.14644e-12 0)
(-2.97741e-12 4.37682e-12 0)
(7.54971e-12 2.09716e-12 0)
(9.78994e-12 3.11791e-12 0)
(7.53093e-12 2.80822e-12 0)
(9.11865e-12 -3.24544e-13 0)
(3.73682e-14 -7.47073e-12 0)
(4.67103e-15 -8.49515e-12 0)
(2.17203e-13 -6.69008e-12 0)
(9.86755e-14 -7.95301e-12 0)
(-8.07504e-13 -7.32826e-12 0)
(-3.63173e-13 -8.21226e-12 0)
(4.85203e-13 -7.7977e-12 0)
(3.17046e-13 -7.95739e-12 0)
(-6.42267e-14 -6.62527e-12 0)
(1.28804e-12 -6.25393e-12 0)
(1.02786e-11 -6.50324e-12 0)
(6.16418e-11 -4.8424e-12 0)
(3.03147e-10 -2.68701e-12 0)
(1.4619e-09 -1.55545e-12 0)
(6.60479e-09 7.08537e-13 0)
(2.95345e-08 2.98742e-12 0)
(1.24796e-07 3.04376e-12 0)
(5.21386e-07 5.88754e-12 0)
(2.05984e-06 3.40577e-12 0)
(8.00743e-06 7.04304e-12 0)
(2.94303e-05 4.85262e-12 0)
(0.000105819 5.7985e-12 0)
(0.000359586 5.42803e-12 0)
(0.00118731 4.37413e-12 0)
(0.00370179 7.09354e-12 0)
(0.0111249 1.00553e-11 0)
(0.0315093 1.93962e-11 0)
(0.0851672 5.12667e-11 0)
(0.215919 1.32858e-10 0)
(0.514582 3.49847e-10 0)
(1.12363 8.67465e-10 0)
(2.20819 1.96683e-09 0)
(3.90291 4.01951e-09 0)
(6.28101 7.46715e-09 0)
(9.21877 1.26029e-08 0)
(12.4729 1.93447e-08 0)
(15.6066 2.69397e-08 0)
(18.4013 3.40831e-08 0)
(20.585 4.01984e-08 0)
(21.946 4.28692e-08 0)
(21.8624 3.65814e-08 0)
(21.0323 2.74874e-08 0)
(19.7978 1.42836e-08 0)
(18.82 -3.31064e-10 0)
(18.1472 -1.0214e-08 0)
(18.4929 -1.54394e-08 0)
(18.6062 -1.38499e-08 0)
(19.1103 -1.29113e-08 0)
(19.0327 -7.81241e-09 0)
(19.0374 -4.16133e-09 0)
(19.4252 -4.45015e-09 0)
(18.9977 -4.83352e-09 0)
(19.2388 -4.58292e-09 0)
(18.7979 -4.39656e-09 0)
(19.1027 -4.52601e-09 0)
(19.0836 -4.413e-09 0)
(19.1323 -4.53325e-09 0)
(19.1144 -4.69146e-09 0)
(19.2071 -6.05648e-09 0)
(19.2469 -7.26312e-09 0)
(19.3205 -9.33722e-09 0)
(19.3967 -1.21687e-08 0)
(19.6502 -1.74378e-08 0)
(20.0718 -2.50622e-08 0)
(20.2797 -3.6509e-08 0)
(18.1821 -4.20576e-08 0)
(12.5471 -3.0332e-08 0)
(6.60275 -1.51482e-08 0)
(3.13384 -7.2653e-09 0)
(1.40724 -3.27604e-09 0)
(0.606837 -1.4249e-09 0)
(0.246092 -5.81713e-10 0)
(0.0958213 -2.26552e-10 0)
(0.0350073 -8.17282e-11 0)
(0.0123353 -2.71317e-11 0)
(0.00408276 -7.69665e-12 0)
(0.00131176 -4.45412e-13 0)
(0.000396435 3.51331e-12 0)
(0.000117035 5.91828e-12 0)
(3.25342e-05 7.96696e-12 0)
(8.88469e-06 9.00581e-12 0)
(2.28645e-06 9.32915e-12 0)
(5.80909e-07 1.04187e-11 0)
(1.39172e-07 9.93386e-12 0)
(3.30597e-08 9.04388e-12 0)
(7.4064e-09 9.74299e-12 0)
(1.65542e-09 7.15483e-12 0)
(3.55955e-10 8.19965e-12 0)
(8.35699e-11 7.09985e-12 0)
(2.36649e-11 6.17368e-12 0)
(9.68648e-12 6.44616e-12 0)
(3.73405e-12 5.92477e-12 0)
(4.71503e-12 8.97456e-12 0)
(2.32764e-12 5.20927e-12 0)
(-1.34803e-12 8.65429e-12 0)
(-3.04228e-12 8.24831e-12 0)
(-3.78254e-12 1.00351e-11 0)
(6.09139e-13 6.00637e-12 0)
(-1.17389e-12 8.27887e-12 0)
(-2.32183e-14 1.04139e-11 0)
(-1.92155e-12 -3.33658e-12 0)
(1.23841e-12 -2.7416e-12 0)
(8.82241e-13 -3.15849e-12 0)
(5.89718e-14 -2.82597e-13 0)
(3.9587e-13 -9.44716e-13 0)
(-8.05169e-13 2.83765e-13 0)
(4.02876e-13 -3.0858e-13 0)
(2.28705e-12 -7.24886e-13 0)
(4.20626e-12 -1.0685e-13 0)
(1.42642e-12 2.62745e-15 0)
(1.18206e-11 1.26322e-12 0)
(6.42553e-11 2.66249e-13 0)
(3.04301e-10 1.3581e-12 0)
(1.46484e-09 9.26032e-13 0)
(6.60779e-09 1.97293e-12 0)
(2.9535e-08 8.45165e-13 0)
(1.248e-07 5.95848e-13 0)
(5.21389e-07 1.22118e-12 0)
(2.05984e-06 1.81411e-12 0)
(8.00744e-06 2.07219e-12 0)
(2.94303e-05 3.46415e-12 0)
(0.000105819 3.83404e-12 0)
(0.000359586 5.96286e-12 0)
(0.00118731 4.46726e-12 0)
(0.00370179 9.45418e-12 0)
(0.0111249 2.1027e-11 0)
(0.0315093 5.50791e-11 0)
(0.0851672 1.54491e-10 0)
(0.215919 4.13258e-10 0)
(0.514582 1.05905e-09 0)
(1.12363 2.54256e-09 0)
(2.20819 5.5298e-09 0)
(3.90291 1.07989e-08 0)
(6.28101 1.90332e-08 0)
(9.21877 3.01682e-08 0)
(12.4729 4.25576e-08 0)
(15.6066 5.28382e-08 0)
(18.4013 5.71448e-08 0)
(20.585 5.57935e-08 0)
(21.946 4.49844e-08 0)
(21.8624 1.94679e-08 0)
(21.0323 -6.42126e-09 0)
(19.7978 -2.58178e-08 0)
(18.82 -3.5336e-08 0)
(18.1472 -2.37086e-08 0)
(18.4929 -1.2978e-08 0)
(18.6062 6.24174e-09 0)
(19.1103 2.80817e-09 0)
(19.0327 6.48747e-09 0)
(19.0374 -9.70666e-10 0)
(19.4252 4.39075e-09 0)
(18.9977 3.66794e-09 0)
(19.2388 4.31551e-09 0)
(18.7979 7.55092e-09 0)
(19.1027 3.0685e-09 0)
(19.0836 2.80053e-09 0)
(19.1323 1.40333e-09 0)
(19.1144 9.8134e-09 0)
(19.2071 9.31489e-09 0)
(19.2469 8.99411e-09 0)
(19.3205 9.66113e-09 0)
(19.3967 1.41808e-08 0)
(19.6502 1.55343e-08 0)
(20.0718 4.96667e-09 0)
(20.2797 -3.9488e-08 0)
(18.1821 -9.19149e-08 0)
(12.5471 -8.95898e-08 0)
(6.60275 -4.8727e-08 0)
(3.13384 -2.40896e-08 0)
(1.40724 -1.11807e-08 0)
(0.606837 -5.0152e-09 0)
(0.246092 -2.12933e-09 0)
(0.0958213 -8.71292e-10 0)
(0.0350073 -3.34888e-10 0)
(0.0123353 -1.22692e-10 0)
(0.00408276 -4.0858e-11 0)
(0.00131176 -1.1905e-11 0)
(0.000396435 -1.53241e-12 0)
(0.000117035 1.53804e-12 0)
(3.25342e-05 3.9186e-12 0)
(8.88469e-06 6.56583e-12 0)
(2.28645e-06 5.73749e-12 0)
(5.80911e-07 9.7674e-12 0)
(1.39169e-07 8.8962e-12 0)
(3.30597e-08 9.25387e-12 0)
(7.405e-09 1.19153e-11 0)
(1.65351e-09 1.32561e-11 0)
(3.55749e-10 1.32911e-11 0)
(7.93582e-11 1.30243e-11 0)
(2.43765e-11 1.00491e-11 0)
(7.20109e-12 7.31582e-12 0)
(6.34884e-12 7.60912e-12 0)
(3.56708e-12 8.78779e-12 0)
(1.36237e-12 5.96745e-12 0)
(2.11389e-12 8.49688e-12 0)
(-6.14603e-15 8.73572e-12 0)
(3.21744e-12 1.12337e-11 0)
(6.78248e-12 9.34418e-12 0)
(1.6021e-11 1.04966e-11 0)
(1.35288e-11 1.20366e-11 0)
(1.1374e-12 5.02311e-12 0)
(4.70022e-13 6.55025e-12 0)
(5.70742e-12 4.5998e-12 0)
(4.2664e-12 8.92692e-12 0)
(1.65822e-13 6.88101e-12 0)
(5.10894e-13 8.81715e-12 0)
(-3.45656e-13 7.74924e-12 0)
(3.14127e-13 8.07621e-12 0)
(1.2279e-12 7.14493e-12 0)
(3.76252e-12 6.48835e-12 0)
(1.11235e-11 8.46858e-12 0)
(6.13295e-11 6.23962e-12 0)
(3.04359e-10 6.76657e-12 0)
(1.46339e-09 6.24721e-12 0)
(6.60474e-09 5.95907e-12 0)
(2.95321e-08 4.99275e-12 0)
(1.24797e-07 4.49441e-12 0)
(5.21388e-07 3.24753e-12 0)
(2.05984e-06 4.01125e-12 0)
(8.00744e-06 2.28238e-12 0)
(2.94303e-05 2.64322e-12 0)
(0.000105819 3.98964e-12 0)
(0.000359586 3.54064e-12 0)
(0.00118731 5.77865e-12 0)
(0.00370179 7.81728e-12 0)
(0.0111249 1.77865e-11 0)
(0.0315093 4.83594e-11 0)
(0.0851672 1.34162e-10 0)
(0.215919 3.62936e-10 0)
(0.514582 9.27341e-10 0)
(1.12363 2.22504e-09 0)
(2.20819 4.82739e-09 0)
(3.90291 9.41258e-09 0)
(6.28101 1.65561e-08 0)
(9.21877 2.61816e-08 0)
(12.4729 3.67965e-08 0)
(15.6066 4.54318e-08 0)
(18.4013 4.87482e-08 0)
(20.585 4.71669e-08 0)
(21.946 3.76333e-08 0)
(21.8624 1.5969e-08 0)
(21.0323 -6.24787e-09 0)
(19.7978 -2.26468e-08 0)
(18.82 -3.0401e-08 0)
(18.1472 -1.95175e-08 0)
(18.4929 -1.03274e-08 0)
(18.6062 6.90028e-09 0)
(19.1103 3.25569e-09 0)
(19.0327 6.8107e-09 0)
(19.0374 -8.42287e-10 0)
(19.4252 4.61447e-09 0)
(18.9977 3.59849e-09 0)
(19.2388 4.43617e-09 0)
(18.7979 7.26111e-09 0)
(19.1027 2.90621e-09 0)
(19.0836 2.86666e-09 0)
(19.1323 1.41479e-09 0)
(19.1144 9.13271e-09 0)
(19.2071 8.78339e-09 0)
(19.2469 8.45906e-09 0)
(19.3205 9.09105e-09 0)
(19.3967 1.33245e-08 0)
(19.6502 1.47619e-08 0)
(20.0718 5.45131e-09 0)
(20.2797 -3.42443e-08 0)
(18.1821 -8.1735e-08 0)
(12.5471 -8.06473e-08 0)
(6.60275 -4.39035e-08 0)
(3.13384 -2.1662e-08 0)
(1.40724 -1.00453e-08 0)
(0.606837 -4.5061e-09 0)
(0.246092 -1.91231e-09 0)
(0.0958213 -7.82886e-10 0)
(0.0350073 -2.98721e-10 0)
(0.0123353 -1.08577e-10 0)
(0.00408276 -3.41916e-11 0)
(0.00131176 -7.77624e-12 0)
(0.000396435 -4.95778e-13 0)
(0.000117035 1.90902e-12 0)
(3.25343e-05 2.30698e-12 0)
(8.88469e-06 4.11067e-12 0)
(2.28645e-06 2.53558e-12 0)
(5.80915e-07 6.24726e-12 0)
(1.39171e-07 4.71059e-12 0)
(3.30657e-08 7.12751e-12 0)
(7.4147e-09 7.95654e-12 0)
(1.65798e-09 1.17415e-11 0)
(3.55285e-10 1.00411e-11 0)
(7.74259e-11 1.17461e-11 0)
(1.25717e-11 9.05156e-12 0)
(4.84273e-12 5.9765e-12 0)
(6.48986e-12 7.69278e-12 0)
(1.38593e-12 6.04547e-12 0)
(1.68982e-12 6.552e-12 0)
(4.26978e-12 6.30463e-12 0)
(2.7302e-12 7.66085e-12 0)
(-3.26934e-12 7.58659e-12 0)
(-1.08648e-12 4.28156e-12 0)
(4.39782e-12 3.73098e-12 0)
(3.22803e-12 -1.54043e-12 0)
)
;

boundaryField
{
    sides1
    {
        type            zeroGradient;
    }
    sides2
    {
        type            slip;
    }
    empty
    {
        type            empty;
    }
}


// ************************************************************************* //
