/*--------------------------------*- C++ -*----------------------------------*\
| =========                 |                                                 |
| \\      /  F ield         | OpenFOAM: The Open Source CFD Toolbox           |
|  \\    /   O peration     | Version:  3.0.1                                 |
|   \\  /    A nd           | Web:      www.OpenFOAM.org                      |
|    \\/     M anipulation  |                                                 |
\*---------------------------------------------------------------------------*/
FoamFile
{
    version     2.0;
    format      ascii;
    class       volScalarField;
    location    "0.0001";
    object      p;
}
// * * * * * * * * * * * * * * * * * * * * * * * * * * * * * * * * * * * * * //

dimensions      [1 -1 -2 0 0 0 0];

internalField   nonuniform List<scalar> 
1000
(
68970
68970
68970
68970
68970
68970
68970
68970
68970
68970
68970
68970
68970
68970
68970
68970
68970
68970
68970
68970
68970
68969.9
68969.9
68969.8
68969.5
68969
68968.1
68966.2
68962.5
68955.6
68942.8
68919.5
68878.3
68807.5
68689.8
68501.6
68213.8
67796.3
67228.3
66514.5
65713.5
64935.3
64392.6
64030.3
63919.9
63852.1
63793.9
63787.9
63763.2
63767
63695.1
63725.4
63709
63700.1
63686.9
63658.2
63613.4
63415.9
63129.5
62536.2
61790.4
61025.6
60370.7
59873.5
59527.2
59301
59160.5
59076.7
59028.4
59001.3
58986.4
58978.5
58974.3
58972.2
58971.1
58970.5
58970.3
58970.1
58970.1
58970
58970
58970
58970
58970
58970
58970
58970
58970
58970
58970
58970
58970
58970
58970
58970
58970
58970
58970
58970
58970
68970
68970
68970
68970
68970
68970
68970
68970
68970
68970
68970
68970
68970
68970
68970
68970
68970
68970
68970
68970
68970
68969.9
68969.9
68969.8
68969.5
68969
68968.1
68966.2
68962.5
68955.6
68942.8
68919.5
68878.4
68807.6
68690.1
68502
68214.3
67797.1
67229.4
66516
65715
64936
64387.3
64022.3
63914.4
63844.4
63788
63782.8
63759.2
63761.5
63707.5
63726.9
63711.1
63705.4
63686.8
63661.5
63624.1
63427.3
63134.4
62538.5
61790.3
61024.8
60369.7
59872.6
59526.5
59300.6
59160.3
59076.6
59028.3
59001.2
58986.4
58978.5
58974.3
58972.2
58971.1
58970.5
58970.3
58970.1
58970.1
58970
58970
58970
58970
58970
58970
58970
58970
58970
58970
58970
58970
58970
58970
58970
58970
58970
58970
58970
58970
58970
68970
68970
68970
68970
68970
68970
68970
68970
68970
68970
68970
68970
68970
68970
68970
68970
68970
68970
68970
68970
68970
68969.9
68969.9
68969.8
68969.5
68969
68968.1
68966.2
68962.6
68955.7
68942.8
68919.6
68878.5
68807.8
68690.4
68502.4
68215
67798
67230.5
66516.6
65714.2
64932.9
64384.8
64019.2
63910.1
63842.7
63787.9
63786.5
63768.7
63784.1
63700.7
63726.9
63706.3
63702.2
63685.3
63659.7
63623.3
63428.7
63140.4
62543.2
61792.5
61025.1
60369
59871.7
59525.7
59300
59159.9
59076.4
59028.2
59001.2
58986.4
58978.5
58974.3
58972.2
58971.1
58970.5
58970.3
58970.1
58970.1
58970
58970
58970
58970
58970
58970
58970
58970
58970
58970
58970
58970
58970
58970
58970
58970
58970
58970
58970
58970
58970
68970
68970
68970
68970
68970
68970
68970
68970
68970
68970
68970
68970
68970
68970
68970
68970
68970
68970
68970
68970
68970
68969.9
68969.9
68969.8
68969.5
68969.1
68968.1
68966.2
68962.6
68955.7
68942.9
68919.7
68878.6
68808
68690.7
68503
68215.9
67799.3
67232.2
66518.8
65716.2
64934.2
64381.1
64013.1
63906.8
63838
63783.4
63781.8
63761.8
63773.1
63710.5
63730
63711.1
63706.2
63687.4
63664.3
63632.3
63437.9
63145.4
62545.1
61792.1
61023.8
60367.5
59870.3
59524.7
59299.3
59159.5
59076.1
59028
59001.1
58986.3
58978.4
58974.3
58972.2
58971.1
58970.5
58970.3
58970.1
58970.1
58970
58970
58970
58970
58970
58970
58970
58970
58970
58970
58970
58970
58970
58970
58970
58970
58970
58970
58970
58970
58970
68970
68970
68970
68970
68970
68970
68970
68970
68970
68970
68970
68970
68970
68970
68970
68970
68970
68970
68970
68970
68970
68969.9
68969.9
68969.8
68969.5
68969.1
68968.1
68966.2
68962.6
68955.7
68942.9
68919.7
68878.7
68808.2
68691
68503.5
68216.7
67800.5
67233.6
66520.2
65716.5
64932
64375.8
64006.3
63901
63831.5
63777.2
63775.2
63753.9
63758.6
63707.9
63732.7
63714.5
63711.3
63693.7
63668.5
63638.7
63444.8
63147.9
62547.3
61792.3
61022.8
60366.2
59869.2
59523.8
59298.7
59159.1
59075.9
59027.9
59001
58986.3
58978.4
58974.3
58972.2
58971.1
58970.5
58970.3
58970.1
58970.1
58970
58970
58970
58970
58970
58970
58970
58970
58970
58970
58970
58970
58970
58970
58970
58970
58970
58970
58970
58970
58970
68970
68970
68970
68970
68970
68970
68970
68970
68970
68970
68970
68970
68970
68970
68970
68970
68970
68970
68970
68970
68970
68969.9
68969.9
68969.8
68969.5
68969.1
68968.1
68966.2
68962.6
68955.7
68942.9
68919.8
68878.8
68808.4
68691.3
68503.9
68217.3
67801.3
67234.8
66521.6
65717.9
64932.6
64375.1
64005.2
63899.9
63830.6
63775.2
63772.2
63751
63759.3
63709.3
63731.1
63713.8
63710.6
63691.5
63669
63641.4
63447.7
63150.1
62547.3
61791.5
61021.8
60365.3
59868.4
59523.2
59298.3
59158.8
59075.7
59027.8
59000.9
58986.3
58978.4
58974.3
58972.1
58971.1
58970.5
58970.3
58970.1
58970.1
58970
58970
58970
58970
58970
58970
58970
58970
58970
58970
58970
58970
58970
58970
58970
58970
58970
58970
58970
58970
58970
68970
68970
68970
68970
68970
68970
68970
68970
68970
68970
68970
68970
68970
68970
68970
68970
68970
68970
68970
68970
68970
68969.9
68969.9
68969.8
68969.5
68969.1
68968.1
68966.2
68962.6
68955.7
68943
68919.8
68878.8
68808.4
68691.4
68504.1
68217.5
67801.5
67234.9
66521.6
65717.9
64932.9
64375.6
64005.3
63899.8
63831.6
63777
63775.6
63756.4
63763.7
63711.8
63733.5
63715.6
63711.3
63693.3
63669.3
63639.1
63444.4
63148.2
62546.9
61792
61022.3
60365.5
59868.3
59523
59298.1
59158.6
59075.6
59027.7
59000.9
58986.2
58978.4
58974.3
58972.1
58971.1
58970.5
58970.3
58970.1
58970.1
58970
58970
58970
58970
58970
58970
58970
58970
58970
58970
58970
58970
58970
58970
58970
58970
58970
58970
58970
58970
58970
68970
68970
68970
68970
68970
68970
68970
68970
68970
68970
68970
68970
68970
68970
68970
68970
68970
68970
68970
68970
68970
68969.9
68969.9
68969.8
68969.5
68969.1
68968.1
68966.2
68962.6
68955.7
68943
68919.8
68878.8
68808.4
68691.4
68504.1
68217.5
67801.5
67234.8
66521.1
65717.3
64932.2
64379.3
64010.3
63902.3
63835.2
63781.1
63780.9
63766
63777.4
63699.2
63729.6
63709.6
63707.6
63692.6
63668
63633.4
63438.3
63147.9
62547.2
61792.9
61022.8
60365.7
59868.4
59523
59298
59158.5
59075.5
59027.6
59000.8
58986.2
58978.4
58974.3
58972.1
58971.1
58970.5
58970.3
58970.1
58970.1
58970
58970
58970
58970
58970
58970
58970
58970
58970
58970
58970
58970
58970
58970
58970
58970
58970
58970
58970
58970
58970
68970
68970
68970
68970
68970
68970
68970
68970
68970
68970
68970
68970
68970
68970
68970
68970
68970
68970
68970
68970
68970
68969.9
68969.9
68969.8
68969.5
68969.1
68968.1
68966.2
68962.6
68955.7
68943
68919.8
68878.8
68808.4
68691.4
68504.1
68217.5
67801.4
67234.7
66521.3
65717.7
64933.7
64378.4
64008.9
63902.3
63833.8
63779.7
63777.7
63756.7
63763.3
63710.7
63732.1
63714.2
63709.3
63690.2
63666.9
63635.3
63440.6
63146.4
62546.4
61792.5
61023
60365.9
59868.5
59523
59298
59158.5
59075.4
59027.6
59000.8
58986.2
58978.4
58974.2
58972.1
58971.1
58970.5
58970.2
58970.1
58970.1
58970
58970
58970
58970
58970
58970
58970
58970
58970
58970
58970
58970
58970
58970
58970
58970
58970
58970
58970
58970
58970
68970
68970
68970
68970
68970
68970
68970
68970
68970
68970
68970
68970
68970
68970
68970
68970
68970
68970
68970
68970
68970
68969.9
68969.9
68969.8
68969.5
68969.1
68968.1
68966.2
68962.6
68955.7
68943
68919.8
68878.8
68808.4
68691.4
68504.1
68217.4
67801.4
67234.6
66521.1
65717.4
64932.7
64379.2
64010.5
63904
63835.7
63779.9
63775.4
63753.6
63764.1
63706.3
63728.5
63714
63709.4
63692.5
63665.9
63633.8
63439.6
63145.8
62546.7
61792.7
61023.1
60366
59868.5
59523
59297.9
59158.5
59075.4
59027.6
59000.8
58986.2
58978.4
58974.2
58972.1
58971.1
58970.5
58970.2
58970.1
58970.1
58970
58970
58970
58970
58970
58970
58970
58970
58970
58970
58970
58970
58970
58970
58970
58970
58970
58970
58970
58970
58970
)
;

boundaryField
{
    sides1
    {
        type            zeroGradient;
    }
    sides2
    {
        type            slip;
    }
    empty
    {
        type            empty;
    }
}


// ************************************************************************* //
