/*--------------------------------*- C++ -*----------------------------------*\
| =========                 |                                                 |
| \\      /  F ield         | OpenFOAM: The Open Source CFD Toolbox           |
|  \\    /   O peration     | Version:  3.0.1                                 |
|   \\  /    A nd           | Web:      www.OpenFOAM.org                      |
|    \\/     M anipulation  |                                                 |
\*---------------------------------------------------------------------------*/
FoamFile
{
    version     2.0;
    format      ascii;
    class       surfaceScalarField;
    location    "0.0001";
    object      phi;
}
// * * * * * * * * * * * * * * * * * * * * * * * * * * * * * * * * * * * * * //

dimensions      [1 0 -1 0 0 0 0];

internalField   nonuniform List<scalar> 
1890
(
1.04777e-15
5.20417e-18
2.87617e-15
-1.56125e-17
6.53297e-15
2.42861e-17
1.54911e-14
-4.51028e-17
3.60129e-14
-3.46945e-18
8.32667e-14
8.67362e-18
1.92457e-13
-6.59195e-17
4.425e-13
-9.71445e-17
1.01271e-12
-4.85723e-17
2.30999e-12
-5.06539e-16
5.24021e-12
-6.15827e-16
1.18336e-11
-1.51441e-15
2.65826e-11
-3.54577e-15
5.93912e-11
-8.11157e-15
1.3193e-10
-1.84748e-14
2.91296e-10
-4.22058e-14
6.39023e-10
-9.54774e-14
1.39228e-09
-2.14002e-13
3.01155e-09
-4.82147e-13
6.4636e-09
-1.05914e-12
1.37587e-08
-2.35218e-12
2.90287e-08
-5.10133e-12
6.06679e-08
-1.1013e-11
1.25501e-07
-2.36226e-11
2.56779e-07
-4.96245e-11
5.19134e-07
-1.039e-10
1.03605e-06
-2.13871e-10
2.03865e-06
-4.34777e-10
3.94992e-06
-8.72207e-10
7.52395e-06
-1.71846e-09
1.40651e-05
-3.33718e-09
2.575e-05
-6.35401e-09
4.60575e-05
-1.18494e-08
8.02575e-05
-2.15941e-08
0.000135802
-3.82809e-08
0.000222279
-6.58493e-08
0.000350376
-1.09309e-07
0.000529144
-1.74704e-07
0.000760986
-2.68767e-07
0.00103482
-4.24789e-07
0.00131698
-6.36208e-07
0.00155509
-6.53934e-07
0.00168816
9.24065e-09
0.00173542
4.51599e-07
0.00176458
7.43586e-07
0.00177181
7.53873e-07
0.00177058
7.16343e-07
0.00177897
1.15657e-07
0.00178804
1.44847e-06
0.00177655
1.00171e-05
0.00172406
1.55493e-06
0.00169934
-8.2853e-06
0.00169566
-1.001e-06
0.00170008
-2.0838e-06
0.00169655
-2.61844e-07
0.00168091
-5.9479e-07
0.00167063
-1.82458e-06
0.0016137
-1.69011e-06
0.0014528
4.36192e-08
0.00120096
8.41666e-08
0.00090866
4.70546e-07
0.000638853
4.06398e-07
0.000423127
3.1076e-07
0.000266943
2.1886e-07
0.000161776
1.42463e-07
9.47799e-05
8.68502e-08
5.39404e-05
5.0196e-08
2.99312e-05
2.7817e-08
1.62416e-05
1.48653e-08
8.63908e-06
7.69108e-09
4.51338e-06
3.88352e-09
2.3199e-06
1.91085e-09
1.17486e-06
9.22817e-10
5.86957e-07
4.36947e-10
2.89598e-07
2.03198e-10
1.41247e-07
9.31075e-11
6.81596e-08
4.22068e-11
3.25662e-08
1.88551e-11
1.54169e-08
8.37541e-12
7.2358e-09
3.66141e-12
3.36877e-09
1.59577e-12
1.55658e-09
6.84928e-13
7.1414e-10
2.91755e-13
3.25456e-10
1.23505e-13
1.47387e-10
5.22186e-14
6.63487e-11
2.15834e-14
2.97011e-11
8.92342e-15
1.3224e-11
3.51368e-15
5.85844e-12
1.43462e-15
2.5828e-12
1.10936e-15
1.13346e-12
1.83881e-16
4.9522e-13
2.28116e-16
2.15572e-13
-1.73472e-17
9.33333e-14
6.41848e-17
4.03618e-14
-1.82146e-17
1.73299e-14
1.56125e-17
7.37778e-15
1.82146e-17
3.09822e-15
6.07153e-18
1.13277e-15
-6.93889e-18
4.33681e-18
1.02002e-15
-8.67362e-18
2.79984e-15
-6.93889e-18
6.59542e-15
-5.20417e-18
1.54356e-14
-8.67362e-18
3.59122e-14
-2.77556e-17
8.33118e-14
-1.9082e-17
1.92374e-13
-5.72459e-17
4.42139e-13
-1.40513e-16
1.0126e-12
-2.06432e-16
2.30849e-12
-6.29705e-16
5.23761e-12
-1.16053e-15
1.18273e-11
-2.5431e-15
2.65682e-11
-6.50695e-15
5.93588e-11
-1.43791e-14
1.31856e-10
-3.38098e-14
2.91128e-10
-7.63244e-14
6.38649e-10
-1.69458e-13
1.39144e-09
-3.84753e-13
3.00968e-09
-8.49437e-13
6.45955e-09
-1.87734e-12
1.37496e-08
-4.13828e-12
2.90098e-08
-8.83718e-12
6.06266e-08
-1.9314e-11
1.25415e-07
-4.05187e-11
2.566e-07
-8.57191e-11
5.18761e-07
-1.78589e-10
1.03531e-06
-3.64442e-10
2.03713e-06
-7.44267e-10
3.94696e-06
-1.47594e-09
7.51821e-06
-2.9234e-09
1.40542e-05
-5.64672e-09
2.57297e-05
-1.07308e-08
4.60206e-05
-2.00251e-08
8.01924e-05
-3.63789e-08
0.000135691
-6.44689e-08
0.000222096
-1.10348e-07
0.000350087
-1.81651e-07
0.000528712
-2.83288e-07
0.000760369
-4.0967e-07
0.00103387
-5.24754e-07
0.00131571
-6.4399e-07
0.00155372
-1.33878e-07
0.00168877
-2.88787e-07
0.00173721
-5.51985e-09
0.00176639
9.09062e-09
0.00177339
2.96829e-07
0.00177231
6.00581e-07
0.00177719
3.09909e-06
0.00178777
1.29179e-07
0.00179844
-7.99548e-06
0.00175506
1.94315e-06
0.00170705
7.03283e-06
0.00169872
1.84068e-06
0.00169995
-1.58473e-06
0.00169836
-2.08285e-06
0.00168426
-9.82371e-07
0.00167328
-9.24434e-07
0.00161425
-2.13623e-07
0.0014527
-4.57829e-07
0.00120017
-2.16377e-07
0.000908015
2.47396e-07
0.000638218
5.65891e-07
0.000422608
4.52952e-07
0.00026657
3.29533e-07
0.000161532
2.19175e-07
9.46306e-05
1.35836e-07
5.3854e-05
7.97485e-08
2.98832e-05
4.46517e-08
1.62159e-05
2.41204e-08
8.62577e-06
1.26522e-08
4.50665e-06
6.42898e-09
2.31659e-06
3.21571e-09
1.17326e-06
1.56173e-09
5.86195e-07
7.50695e-10
2.89245e-07
3.56526e-10
1.41083e-07
1.65907e-10
6.80858e-08
7.6605e-11
3.25329e-08
3.48389e-11
1.54022e-08
1.56423e-11
7.22934e-09
6.9725e-12
3.36594e-09
3.04021e-12
1.55537e-09
1.33966e-12
7.13622e-10
5.77255e-13
3.25235e-10
2.51855e-13
1.47294e-10
1.06955e-13
6.63097e-11
4.74152e-14
2.96841e-11
1.98478e-14
1.32176e-11
9.26342e-15
5.85505e-12
3.52929e-15
2.58203e-12
1.81365e-15
1.13285e-12
5.51642e-16
4.95239e-13
3.20056e-16
2.15335e-13
1.38778e-17
9.34478e-14
5.89806e-17
4.02872e-14
5.72459e-17
1.72761e-14
1.21431e-17
7.3986e-15
6.07153e-18
3.11903e-15
4.33681e-18
1.12063e-15
9.54098e-18
3.46945e-18
1.06512e-15
-8.67362e-18
2.81719e-15
0
6.60236e-15
-3.46945e-18
1.5498e-14
-1.73472e-18
3.59088e-14
-2.25514e-17
8.31765e-14
-2.08167e-17
1.9218e-13
-8.32667e-17
4.41681e-13
-1.26635e-16
1.01152e-12
-3.33067e-16
2.30632e-12
-8.1532e-16
5.23218e-12
-1.64278e-15
1.18151e-11
-4.11476e-15
2.65399e-11
-8.08208e-15
5.92957e-11
-1.967e-14
1.31714e-10
-4.17253e-14
2.90811e-10
-9.46639e-14
6.37937e-10
-2.11629e-13
1.38989e-09
-4.67586e-13
3.00624e-09
-1.02145e-12
6.45212e-09
-2.25707e-12
1.37337e-08
-4.83706e-12
2.89755e-08
-1.05966e-11
6.0555e-08
-2.22867e-11
1.25265e-07
-4.77429e-11
2.5629e-07
-9.91031e-11
5.18136e-07
-2.06586e-10
1.03404e-06
-4.22165e-10
2.03466e-06
-8.50424e-10
3.94213e-06
-1.71254e-09
7.50903e-06
-3.33455e-09
1.4037e-05
-6.48132e-09
2.56984e-05
-1.23235e-08
4.5965e-05
-2.28912e-08
8.00969e-05
-4.18447e-08
0.000135533
-7.42737e-08
0.00022185
-1.28661e-07
0.000349731
-2.14892e-07
0.000528261
-3.44979e-07
0.00075995
-5.28477e-07
0.00103393
-7.81494e-07
0.00131671
-9.95425e-07
0.00155663
-1.142e-06
0.00169128
-2.30316e-07
0.00173987
-7.32075e-07
0.00176921
-1.45948e-07
0.00177626
-1.25731e-07
0.00177443
8.60135e-08
0.00178254
1.4154e-06
0.00178845
3.79314e-06
0.00177261
8.00286e-06
0.00172502
-1.56139e-08
0.00170566
-8.75748e-06
0.00170295
-1.57227e-06
0.0017033
-6.05805e-07
0.00169843
1.4656e-07
0.00168366
-3.20147e-07
0.00167466
-1.2835e-06
0.00161927
-1.19305e-06
0.0014562
1.04291e-06
0.00120195
5.50003e-07
0.000908326
7.78371e-07
0.000638013
7.39407e-07
0.000422215
5.67545e-07
0.000266194
3.92704e-07
0.000161247
2.52501e-07
9.4439e-05
1.53508e-07
5.37352e-05
8.93516e-08
2.98139e-05
5.01757e-08
1.61773e-05
2.73218e-08
8.60497e-06
1.44313e-08
4.49584e-06
7.49267e-09
2.31107e-06
3.78275e-09
1.17053e-06
1.89034e-09
5.84862e-07
9.22126e-10
2.88605e-07
4.43537e-10
1.40782e-07
2.10442e-10
6.79452e-08
9.89321e-11
3.24682e-08
4.57764e-11
1.53729e-08
2.11142e-11
7.2161e-09
9.61e-12
3.36006e-09
4.36546e-12
1.55277e-09
1.95834e-12
7.12484e-10
8.74614e-13
3.24738e-10
3.83273e-13
1.4708e-10
1.70276e-13
6.62174e-11
7.28593e-14
2.96447e-11
3.23413e-14
1.32012e-11
1.38535e-14
5.84794e-12
6.05072e-15
2.57902e-12
2.66974e-15
1.13153e-12
1.2039e-15
4.94695e-13
4.52763e-16
2.15135e-13
2.25514e-16
9.32709e-14
-7.80626e-18
4.03271e-14
4.42354e-17
1.73004e-14
3.55618e-17
7.38645e-15
1.64799e-17
3.09995e-15
-1.73472e-18
1.15359e-15
-8.67362e-18
-3.46945e-18
1.0339e-15
-3.46945e-18
2.72005e-15
-6.93889e-18
6.58501e-15
-8.67362e-18
1.54494e-14
-3.46945e-17
3.58255e-14
-1.73472e-18
8.30759e-14
-1.04083e-17
1.91954e-13
-1.63064e-16
4.4106e-13
-1.35308e-16
1.0101e-12
-3.86843e-16
2.30326e-12
-6.33174e-16
5.22431e-12
-1.88217e-15
1.18002e-11
-3.2474e-15
2.65031e-11
-9.24087e-15
5.92148e-11
-1.83707e-14
1.31536e-10
-4.41331e-14
2.90408e-10
-9.39873e-14
6.37062e-10
-2.10556e-13
1.38797e-09
-4.51731e-13
3.00206e-09
-1.00784e-12
6.44312e-09
-2.1344e-12
1.37144e-08
-4.66242e-12
2.89347e-08
-9.79194e-12
6.04693e-08
-2.10471e-11
1.25088e-07
-4.35909e-11
2.55925e-07
-9.18111e-11
5.17402e-07
-1.86929e-10
1.03257e-06
-3.83319e-10
2.03175e-06
-7.73374e-10
3.93654e-06
-1.51881e-09
7.49832e-06
-3.01007e-09
1.4017e-05
-5.75033e-09
2.5662e-05
-1.09086e-08
4.58999e-05
-2.02626e-08
7.99846e-05
-3.67086e-08
0.000135345
-6.51317e-08
0.000221547
-1.118e-07
0.000349268
-1.85974e-07
0.00052759
-2.96814e-07
0.000759035
-4.47358e-07
0.00103267
-6.25839e-07
0.00131528
-7.51961e-07
0.00155507
-8.90474e-07
0.0016911
-1.33169e-07
0.00173912
-7.41705e-08
0.00176723
1.70647e-07
0.0017731
6.67474e-08
0.0017708
6.62625e-07
0.00177777
1.14864e-06
0.00178689
1.77629e-06
0.00179492
-6.0182e-06
0.00174763
2.99158e-06
0.00170623
-1.46608e-06
0.00169863
-9.61292e-07
0.00170053
-9.19343e-07
0.00169936
-6.54843e-07
0.00168669
-3.23695e-07
0.00167692
4.83556e-07
0.0016192
1.42417e-07
0.00145622
7.32566e-07
0.0012013
7.47796e-07
0.000907588
6.71771e-07
0.000637217
5.92152e-07
0.000421534
4.63502e-07
0.000265683
3.25775e-07
0.000160896
2.14292e-07
9.42154e-05
1.33292e-07
5.35995e-05
7.9376e-08
2.9735e-05
4.56736e-08
1.6133e-05
2.54615e-08
8.58092e-06
1.38836e-08
4.48309e-06
7.34662e-09
2.30449e-06
3.82522e-09
1.16719e-06
1.951e-09
5.83204e-07
9.80504e-10
2.87791e-07
4.86692e-10
1.40391e-07
2.38425e-10
6.77583e-08
1.14821e-10
3.23805e-08
5.50234e-11
1.5332e-08
2.59081e-11
7.19728e-09
1.21373e-11
3.35148e-09
5.62649e-12
1.54889e-09
2.57732e-12
7.10738e-10
1.18318e-12
3.23964e-10
5.33919e-13
1.46736e-10
2.42106e-13
6.60661e-11
1.08267e-13
2.95784e-11
4.79426e-14
1.31719e-11
2.13657e-14
5.8354e-12
9.31633e-15
2.57352e-12
4.09915e-15
1.12906e-12
1.75814e-15
4.93699e-13
8.37871e-16
2.14717e-13
2.97505e-16
9.30644e-14
1.56992e-16
4.02057e-14
6.245e-17
1.72657e-14
5.9848e-17
7.37431e-15
1.73472e-18
3.09822e-15
3.46945e-18
1.13277e-15
8.67362e-18
-7.80626e-18
1.02349e-15
-3.46945e-18
2.78944e-15
-1.38778e-17
6.64746e-15
-1.04083e-17
1.53905e-14
0
3.57665e-14
-2.08167e-17
8.30967e-14
-3.64292e-17
1.91434e-13
-1.04083e-16
4.40342e-13
-1.83881e-16
1.0086e-12
-2.498e-16
2.2994e-12
-8.13585e-16
5.21702e-12
-1.51962e-15
1.17823e-11
-3.87711e-15
2.64668e-11
-7.30145e-15
5.91306e-11
-1.78729e-14
1.31357e-10
-3.62089e-14
2.90007e-10
-8.20351e-14
6.36208e-10
-1.72834e-13
1.38608e-09
-3.79452e-13
2.99808e-09
-7.97376e-13
6.43445e-09
-1.72394e-12
1.36964e-08
-3.63348e-12
2.88962e-08
-7.71825e-12
6.039e-08
-1.59513e-11
1.24924e-07
-3.36492e-11
2.5559e-07
-6.80567e-11
5.16727e-07
-1.41133e-10
1.03123e-06
-2.81239e-10
2.02913e-06
-5.6221e-10
3.93144e-06
-1.10908e-09
7.48873e-06
-2.12473e-09
1.39992e-05
-4.08132e-09
2.56295e-05
-7.58214e-09
4.58426e-05
-1.39492e-08
7.98856e-05
-2.48166e-08
0.000135181
-4.31779e-08
0.000221287
-7.32548e-08
0.000348879
-1.18545e-07
0.000527055
-1.8293e-07
0.000758382
-2.58607e-07
0.00103208
-3.34059e-07
0.00131526
-3.68526e-07
0.00155603
-3.49449e-07
0.00169293
-1.01138e-07
0.00174135
-2.62082e-09
0.00176925
6.08699e-08
0.00177468
3.19258e-07
0.00177346
3.17904e-07
0.00178124
-4.84527e-08
0.00179054
-1.53118e-06
0.00178154
-3.36631e-06
0.0017401
2.22443e-06
0.00170664
-6.89268e-07
0.00169879
5.98371e-07
0.00169983
6.81367e-07
0.00169782
7.00797e-07
0.00168613
-2.81721e-07
0.00167729
-4.02749e-07
0.00161982
-1.63225e-07
0.00145695
-6.50678e-09
0.00120163
3.07771e-07
0.000907329
3.3594e-07
0.000636725
3.11674e-07
0.000421044
2.70616e-07
0.000265286
2.08712e-07
0.00016061
1.47222e-07
9.4026e-05
9.74801e-08
5.3481e-05
6.12164e-08
2.96641e-05
3.68664e-08
1.60922e-05
2.15547e-08
8.55802e-06
1.21619e-08
4.47065e-06
6.72562e-09
2.29787e-06
3.62614e-09
1.16374e-06
1.90919e-09
5.81446e-07
9.92307e-10
2.86907e-07
5.02936e-10
1.39953e-07
2.52638e-10
6.75446e-08
1.24701e-10
3.22776e-08
6.09879e-11
1.52829e-08
2.9381e-11
7.17414e-09
1.40649e-11
3.34067e-09
6.62586e-12
1.54389e-09
3.12605e-12
7.08438e-10
1.43707e-12
3.22918e-10
6.71222e-13
1.46262e-10
3.01989e-13
6.58537e-11
1.39042e-13
2.94832e-11
6.25246e-14
1.31298e-11
2.78336e-14
5.81677e-12
1.25204e-14
2.56527e-12
5.49994e-15
1.12563e-12
2.35315e-15
4.9202e-13
9.75782e-16
2.14042e-13
5.1955e-16
9.27418e-14
2.11636e-16
4.0086e-14
8.50015e-17
1.72674e-14
3.98986e-17
7.29104e-15
4.68375e-17
3.01842e-15
1.12757e-17
1.079e-15
7.80626e-18
1.30104e-17
1.08594e-15
1.9082e-17
2.81025e-15
1.21431e-17
6.57113e-15
1.56125e-17
1.5387e-14
-2.60209e-17
3.56347e-14
1.38778e-17
8.30655e-14
-9.02056e-17
1.90958e-13
-1.21431e-17
4.39891e-13
-2.77556e-16
1.0071e-12
-2.8276e-16
2.29636e-12
-6.41848e-16
5.21031e-12
-1.2889e-15
1.17674e-11
-2.85189e-15
2.64338e-11
-6.22419e-15
5.90609e-11
-1.26843e-14
1.31202e-10
-2.79204e-14
2.89682e-10
-5.83214e-14
6.35495e-10
-1.23745e-13
1.38458e-09
-2.5982e-13
2.99487e-09
-5.5368e-13
6.42768e-09
-1.14394e-12
1.36822e-08
-2.41302e-12
2.88667e-08
-4.93202e-12
6.03291e-08
-1.04046e-11
1.248e-07
-2.06271e-11
2.55339e-07
-4.32188e-11
5.16226e-07
-8.39092e-11
1.03024e-06
-1.70175e-10
2.02721e-06
-3.26202e-10
3.92781e-06
-6.34805e-10
7.48185e-06
-1.19628e-09
1.39867e-05
-2.19992e-09
2.56069e-05
-3.95813e-09
4.58032e-05
-6.78434e-09
7.98185e-05
-1.13659e-08
0.00013507
-1.73658e-08
0.000221107
-2.4093e-08
0.000348593
-2.57205e-08
0.000526663
-6.03398e-08
0.000757879
-5.27866e-08
0.00103154
-3.19038e-08
0.00131492
-4.04884e-08
0.00155637
-8.30499e-08
0.00169357
1.46067e-07
0.00174227
-8.78179e-08
0.0017699
2.16635e-07
0.00177546
3.62253e-07
0.00177464
-5.06503e-07
0.00178294
-1.48954e-06
0.00179082
-2.66044e-06
0.0017793
2.44498e-06
0.0017411
-1.56025e-06
0.00170818
-2.03266e-07
0.00170151
9.05203e-07
0.00170347
8.88731e-08
0.00170147
7.68591e-07
0.00168916
8.32898e-08
0.00167971
2.54581e-07
0.00162187
3.35984e-07
0.00145737
3.36602e-08
0.0012013
1.21818e-07
0.00090692
-2.35079e-08
0.000636326
1.08963e-08
0.000420699
7.60008e-08
0.000265026
5.97775e-08
0.00016042
7.04553e-08
9.38926e-05
5.76404e-08
5.33931e-05
4.1088e-08
2.96089e-05
2.71833e-08
1.60587e-05
1.68774e-08
8.53854e-06
1.01185e-08
4.4596e-06
5.83028e-09
2.29179e-06
3.25515e-09
1.16047e-06
1.78237e-09
5.79718e-07
9.45958e-10
2.86015e-07
4.95502e-10
1.395e-07
2.53278e-10
6.73169e-08
1.28445e-10
3.21657e-08
6.34097e-11
1.52281e-08
3.13705e-11
7.14781e-09
1.50908e-11
3.32812e-09
7.28238e-12
1.53794e-09
3.42969e-12
7.05679e-10
1.62456e-12
3.21627e-10
7.47759e-13
1.45673e-10
3.49915e-13
6.55836e-11
1.57869e-13
2.93607e-11
7.22521e-14
1.30752e-11
3.24549e-14
5.7921e-12
1.47026e-14
2.55426e-12
6.402e-15
1.12082e-12
2.96291e-15
4.89898e-13
1.29497e-15
2.13125e-13
4.94396e-16
9.23445e-14
2.05565e-16
3.99073e-14
1.15359e-16
1.71581e-14
5.20417e-18
7.36043e-15
1.9082e-17
3.08954e-15
1.56125e-17
1.15186e-15
-6.93889e-18
5.20417e-18
1.00614e-15
2.42861e-17
2.74086e-15
0
6.56766e-15
5.20417e-18
1.52968e-14
-5.20417e-18
3.56937e-14
-6.93889e-18
8.27498e-14
-6.245e-17
1.9099e-13
-3.29597e-17
4.39149e-13
-1.59595e-16
1.006e-12
-1.70003e-16
2.29374e-12
-3.72966e-16
5.2052e-12
-9.21138e-16
1.17553e-11
-1.84922e-15
2.64101e-11
-3.9118e-15
5.90086e-11
-8.72045e-15
1.31092e-10
-1.68563e-14
2.89452e-10
-3.68785e-14
6.35003e-10
-7.45966e-14
1.38357e-09
-1.55041e-13
2.99271e-09
-3.0773e-13
6.42328e-09
-6.54159e-13
1.3673e-08
-1.26463e-12
2.88479e-08
-2.62876e-12
6.02909e-08
-5.31025e-12
1.24722e-07
-1.05003e-11
2.55187e-07
-2.12143e-11
5.15923e-07
-4.01698e-11
1.02966e-06
-7.96698e-11
2.0261e-06
-1.45585e-10
3.92575e-06
-2.72212e-10
7.4781e-06
-4.82345e-10
1.398e-05
-8.43069e-10
2.55957e-05
-1.37747e-09
4.57847e-05
-2.10191e-09
7.97907e-05
-2.84725e-09
0.000135032
-2.84774e-09
0.000221072
-4.08554e-09
0.000348599
-3.79084e-10
0.000526698
1.03664e-08
0.000758013
4.54695e-08
0.00103179
1.37082e-07
0.00131514
2.16004e-07
0.00155626
3.47987e-07
0.0016936
2.57681e-07
0.0017426
-3.93515e-07
0.00177081
-1.22297e-07
0.0017771
-4.68943e-07
0.00177513
-1.27087e-07
0.00177975
9.97311e-07
0.00178698
-2.56666e-06
0.00179147
-7.88054e-06
0.0017483
-2.58636e-07
0.00170733
8.15816e-06
0.00170029
1.51407e-06
0.00170154
3.27714e-07
0.00170088
-7.13542e-07
0.00168814
1.89024e-07
0.00167859
6.0768e-07
0.00162071
5.24748e-07
0.00145713
-3.37833e-07
0.00120178
-2.478e-07
0.00090738
-2.11929e-07
0.000636586
-9.34514e-08
0.00042079
-2.49595e-08
0.000264988
1.74559e-08
0.000160348
3.13642e-08
9.38246e-05
3.16993e-08
5.33398e-05
2.60853e-08
2.9571e-05
1.88359e-08
1.6034e-05
1.26102e-08
8.52312e-06
7.90381e-09
4.45041e-06
4.73126e-09
2.28652e-06
2.73942e-09
1.15751e-06
1.52779e-09
5.78123e-07
8.31923e-10
2.85162e-07
4.43233e-10
1.39059e-07
2.30681e-10
6.70897e-08
1.17652e-10
3.20524e-08
5.9655e-11
1.51715e-08
2.93105e-11
7.12029e-09
1.4477e-11
3.31473e-09
6.94985e-12
1.53157e-09
3.33618e-12
7.02649e-10
1.57221e-12
3.20217e-10
7.37682e-13
1.45014e-10
3.40377e-13
6.52816e-11
1.57248e-13
2.92227e-11
7.15218e-14
1.30123e-11
3.24896e-14
5.76399e-12
1.42577e-14
2.54172e-12
6.52863e-15
1.11528e-12
2.86403e-15
4.87452e-13
1.16573e-15
2.12051e-13
6.06286e-16
9.18831e-14
2.40259e-16
3.96367e-14
9.88792e-17
1.71183e-14
3.81639e-17
7.23553e-15
1.82146e-17
3.05311e-15
1.73472e-17
1.079e-15
-8.67362e-19
-3.46945e-18
1.09635e-15
1.56125e-17
2.7478e-15
1.04083e-17
6.60583e-15
2.42861e-17
1.53211e-14
1.38778e-17
3.56139e-14
1.56125e-17
8.25937e-14
-2.08167e-17
1.90816e-13
-1.73472e-17
4.38746e-13
-1.11022e-16
1.00523e-12
-1.2837e-16
2.29181e-12
-2.93168e-16
5.20198e-12
-6.66134e-16
1.17473e-11
-1.13971e-15
2.63949e-11
-2.50668e-15
5.89755e-11
-4.59355e-15
1.31025e-10
-9.61904e-15
2.89312e-10
-1.8506e-14
6.3472e-10
-3.61551e-14
1.38299e-09
-7.31741e-14
2.99151e-09
-1.36169e-13
6.42094e-09
-2.85614e-13
1.36681e-08
-5.26757e-13
2.88385e-08
-1.06809e-12
6.02712e-08
-1.8427e-12
1.24685e-07
-3.55377e-12
2.55112e-07
-7.2392e-12
5.15784e-07
-1.27516e-11
1.0294e-06
-2.69881e-11
2.02563e-06
-4.49977e-11
3.92489e-06
-8.72182e-11
7.47669e-06
-1.35759e-10
1.39777e-05
-2.0628e-10
2.55923e-05
-2.73016e-10
4.57808e-05
-4.8273e-10
7.97878e-05
-3.10413e-10
0.000135035
3.29857e-10
0.000221084
2.26662e-09
0.000348626
6.42733e-09
0.000526795
1.22605e-08
0.000758243
1.48158e-08
0.00103234
2.05882e-08
0.0013161
-6.49549e-08
0.00155765
-2.66421e-07
0.00169383
2.46629e-07
0.00174179
1.22063e-07
0.00177054
-1.60959e-07
0.00177657
-4.6681e-07
0.00177353
2.29749e-07
0.00178116
-1.09271e-06
0.00178466
2.01116e-06
0.00177003
8.94327e-06
0.00172227
-1.05042e-06
0.00170389
-8.1969e-06
0.0017013
-1.34601e-06
0.00170386
-1.715e-07
0.00170016
7.9328e-07
0.0016865
2.56338e-07
0.00167786
-6.66827e-08
0.00162192
-4.99282e-07
0.00145819
3.26105e-07
0.00120261
1.64761e-07
0.000907863
7.29547e-09
0.000636843
6.04896e-09
0.000420894
-1.69564e-09
0.000265027
9.0987e-09
0.00016034
2.15559e-08
9.37967e-05
2.02068e-08
5.33099e-05
1.67147e-08
2.95469e-05
1.24593e-08
1.60165e-05
8.5346e-09
8.51159e-06
5.49578e-09
4.44324e-06
3.37239e-09
2.28223e-06
1.98098e-09
1.15506e-06
1.12625e-09
5.76758e-07
6.23837e-10
2.84422e-07
3.34062e-10
1.38666e-07
1.77028e-10
6.68875e-08
9.11325e-11
3.1948e-08
4.63049e-11
1.51197e-08
2.31474e-11
7.09445e-09
1.13811e-11
3.30221e-09
5.53581e-12
1.52551e-09
2.65685e-12
6.99766e-10
1.25922e-12
3.18854e-10
5.93129e-13
1.4438e-10
2.74801e-13
6.49864e-11
1.26972e-13
2.90891e-11
5.78817e-14
1.29501e-11
2.59385e-14
5.73685e-12
1.21006e-14
2.529e-12
5.09228e-15
1.10974e-12
2.35662e-15
4.84973e-13
1.03303e-15
2.10991e-13
3.73833e-16
9.14564e-14
1.8735e-16
3.94337e-14
6.245e-17
1.7002e-14
3.1225e-17
7.18349e-15
3.55618e-17
3.05832e-15
-3.46945e-18
1.12063e-15
-1.73472e-18
-3.46945e-18
9.88792e-16
6.93889e-18
2.67841e-15
3.46945e-18
6.53297e-15
1.73472e-18
1.5269e-14
1.73472e-17
3.56729e-14
-1.21431e-17
8.2493e-14
-1.21431e-17
1.90806e-13
-1.56125e-17
4.38379e-13
-3.1225e-17
1.00484e-12
-6.59195e-17
2.29065e-12
-5.20417e-17
5.19993e-12
-5.3603e-16
1.17429e-11
-3.7817e-16
2.6387e-11
-1.04083e-15
5.8957e-11
-1.97238e-15
1.30994e-10
-3.63945e-15
2.89243e-10
-7.54952e-15
6.34594e-10
-1.3288e-14
1.38273e-09
-2.71137e-14
2.99104e-09
-4.55816e-14
6.41991e-09
-9.24451e-14
1.36662e-08
-1.62119e-13
2.88349e-08
-3.18077e-13
6.02641e-08
-6.4763e-13
1.24673e-07
-1.11996e-12
2.55085e-07
-2.21403e-12
5.15742e-07
-3.55688e-12
1.02931e-06
-6.58594e-12
2.0255e-06
-1.02208e-11
3.92465e-06
-1.66915e-11
7.47638e-06
-2.65428e-11
1.39774e-05
-3.29343e-11
2.55922e-05
-3.42641e-11
4.57811e-05
-6.5428e-12
7.97896e-05
1.84845e-10
0.00013504
6.19218e-10
0.000221097
1.37761e-09
0.000348652
2.5321e-09
0.000526832
4.034e-09
0.000758241
9.17429e-09
0.00103211
3.14272e-08
0.00131536
7.96631e-08
0.00155585
1.85234e-07
0.00169303
-2.11278e-07
0.001742
-3.82572e-07
0.00177032
-4.19377e-07
0.00177607
-4.83403e-07
0.00177473
-1.79623e-07
0.00177971
1.564e-06
0.00178893
1.41883e-06
0.00179268
-1.64038e-06
0.00174851
4.62818e-07
0.00170692
3.22794e-07
0.00169968
-6.96719e-07
0.00170143
-4.32584e-07
0.00170052
-6.71675e-07
0.00168761
1.52508e-07
0.00167793
5.28012e-07
0.00162008
1.57415e-07
0.00145695
2.17937e-07
0.00120205
-2.64832e-08
0.000907772
-2.22723e-08
0.000636899
7.52725e-10
0.000420949
3.60039e-09
0.000265047
9.83181e-09
0.000160339
1.14105e-08
9.37836e-05
1.0458e-08
5.32937e-05
8.56152e-09
2.95323e-05
6.3647e-09
1.60054e-05
4.38959e-09
8.50396e-06
2.85387e-09
4.43832e-06
1.76353e-09
2.27923e-06
1.04739e-09
1.15331e-06
6.0136e-10
5.75758e-07
3.34309e-10
2.8388e-07
1.81574e-10
1.38372e-07
9.62564e-11
6.67345e-08
4.98799e-11
3.18692e-08
2.55614e-11
1.50799e-08
1.27406e-11
7.07465e-09
6.33631e-12
3.29249e-09
3.07194e-12
1.5208e-09
1.48201e-12
6.9752e-10
7.03641e-13
3.17786e-10
3.31097e-13
1.43884e-10
1.53847e-13
6.47541e-11
7.10413e-14
2.89834e-11
3.24263e-14
1.29017e-11
1.46428e-14
5.71502e-12
6.64659e-15
2.51918e-12
2.87877e-15
1.10561e-12
1.35569e-15
4.82893e-13
5.34295e-16
2.10186e-13
2.68882e-16
9.10071e-14
9.36751e-17
3.9347e-14
3.38271e-17
1.69031e-14
1.30104e-17
7.19563e-15
2.68882e-17
3.02883e-15
-4.33681e-18
1.09461e-15
6.93889e-18
-8.67362e-18
9.92262e-16
2.69576e-15
6.5295e-15
1.52586e-14
3.56312e-14
8.25173e-14
1.90729e-13
4.38278e-13
1.00459e-12
2.29063e-12
5.19823e-12
1.17419e-11
2.63829e-11
5.89506e-11
1.30982e-10
2.89218e-10
6.34553e-10
1.38264e-09
2.99091e-09
6.41958e-09
1.36658e-08
2.88338e-08
6.02621e-08
1.2467e-07
2.55078e-07
5.15735e-07
1.02929e-06
2.02548e-06
3.92462e-06
7.47636e-06
1.39774e-05
2.55922e-05
4.57816e-05
7.97909e-05
0.000135043
0.000221103
0.00034866
0.000526841
0.000758264
0.00103223
0.00131574
0.00155685
0.00169288
0.00174075
0.00176891
0.00177497
0.0017737
0.0017827
0.00179213
0.00178353
0.00173883
0.00170701
0.00169993
0.00170122
0.00169877
0.00168604
0.00167674
0.0016197
0.00145718
0.00120221
0.000907822
0.000636915
0.000420956
0.000265043
0.000160327
9.37695e-05
5.32809e-05
2.95223e-05
1.59983e-05
8.49925e-06
4.43537e-06
2.27746e-06
1.15229e-06
5.75189e-07
2.83566e-07
1.38208e-07
6.66474e-08
3.18256e-08
1.50576e-08
7.06375e-09
3.28713e-09
1.51823e-09
6.96291e-10
3.17213e-10
1.43613e-10
6.46307e-11
2.89271e-11
1.28754e-11
5.70395e-12
2.51368e-12
1.10341e-12
4.81849e-13
2.09773e-13
9.08232e-14
3.92845e-14
1.68338e-14
7.21471e-15
2.97332e-15
1.0842e-15
)
;

boundaryField
{
    sides1
    {
        type            calculated;
        value           nonuniform List<scalar> 
20
(
1.56125e-17
3.1225e-17
5.0307e-17
2.60209e-17
-3.98986e-17
5.55112e-17
0
2.42861e-17
2.42861e-17
1.73472e-18
-4.16334e-17
-2.42861e-17
-6.93889e-17
-3.46945e-17
-4.16334e-17
-1.04083e-16
-3.1225e-17
-1.00614e-16
-6.93889e-18
-1.38778e-17
)
;
    }
    sides2
    {
        type            calculated;
        value           uniform 0;
    }
    empty
    {
        type            empty;
        value           nonuniform 0();
    }
}


// ************************************************************************* //
