/*--------------------------------*- C++ -*----------------------------------*\
| =========                 |                                                 |
| \\      /  F ield         | OpenFOAM: The Open Source CFD Toolbox           |
|  \\    /   O peration     | Version:  3.0.1                                 |
|   \\  /    A nd           | Web:      www.OpenFOAM.org                      |
|    \\/     M anipulation  |                                                 |
\*---------------------------------------------------------------------------*/
FoamFile
{
    version     2.0;
    format      ascii;
    class       volScalarField;
    location    "0.0001";
    object      rho;
}
// * * * * * * * * * * * * * * * * * * * * * * * * * * * * * * * * * * * * * //

dimensions      [1 -3 0 0 0 0 0];

internalField   nonuniform List<scalar> 
1000
(
0.83124
0.83124
0.83124
0.83124
0.83124
0.83124
0.83124
0.83124
0.83124
0.83124
0.83124
0.83124
0.83124
0.83124
0.83124
0.83124
0.83124
0.83124
0.83124
0.83124
0.83124
0.831239
0.831239
0.831237
0.831235
0.831229
0.831219
0.831198
0.831159
0.831085
0.830948
0.830701
0.830268
0.829531
0.828318
0.826402
0.823514
0.819398
0.813918
0.807225
0.800031
0.793497
0.78968
0.78738
0.786949
0.786583
0.786353
0.786018
0.78602
0.78398
0.768897
0.754754
0.751401
0.751011
0.751011
0.750943
0.750748
0.749732
0.748362
0.744074
0.737912
0.731022
0.724818
0.719951
0.716481
0.714177
0.712726
0.711851
0.711342
0.711054
0.710896
0.71081
0.710765
0.710742
0.71073
0.710724
0.710721
0.710719
0.710719
0.710718
0.710718
0.710718
0.710718
0.710718
0.710718
0.710718
0.710718
0.710718
0.710718
0.710718
0.710718
0.710718
0.710718
0.710718
0.710718
0.710718
0.710718
0.710718
0.710718
0.710718
0.83124
0.83124
0.83124
0.83124
0.83124
0.83124
0.83124
0.83124
0.83124
0.83124
0.83124
0.83124
0.83124
0.83124
0.83124
0.83124
0.83124
0.83124
0.83124
0.83124
0.83124
0.831239
0.831239
0.831237
0.831235
0.831229
0.831219
0.831198
0.831159
0.831085
0.830948
0.830702
0.830269
0.829532
0.82832
0.826406
0.82352
0.819406
0.813929
0.807239
0.800042
0.793495
0.789614
0.787302
0.786912
0.78654
0.786285
0.786075
0.785949
0.782883
0.769247
0.755567
0.751432
0.751043
0.75099
0.75096
0.750828
0.749831
0.748417
0.744104
0.737916
0.731017
0.72481
0.719942
0.716475
0.714173
0.712724
0.71185
0.711341
0.711054
0.710895
0.71081
0.710765
0.710742
0.71073
0.710724
0.710721
0.710719
0.710719
0.710718
0.710718
0.710718
0.710718
0.710718
0.710718
0.710718
0.710718
0.710718
0.710718
0.710718
0.710718
0.710718
0.710718
0.710718
0.710718
0.710718
0.710718
0.710718
0.710718
0.710718
0.83124
0.83124
0.83124
0.83124
0.83124
0.83124
0.83124
0.83124
0.83124
0.83124
0.83124
0.83124
0.83124
0.83124
0.83124
0.83124
0.83124
0.83124
0.83124
0.83124
0.83124
0.831239
0.831239
0.831237
0.831235
0.831229
0.831219
0.831198
0.831159
0.831085
0.830948
0.830702
0.83027
0.829534
0.828323
0.826411
0.823527
0.819415
0.813938
0.807241
0.80003
0.793463
0.789593
0.787275
0.78687
0.786512
0.78632
0.78602
0.786142
0.784128
0.769041
0.754725
0.751318
0.75103
0.75098
0.750933
0.750809
0.749831
0.748467
0.744152
0.737941
0.731024
0.724806
0.719935
0.716468
0.714167
0.71272
0.711848
0.71134
0.711053
0.710895
0.71081
0.710765
0.710742
0.71073
0.710724
0.710721
0.710719
0.710719
0.710718
0.710718
0.710718
0.710718
0.710718
0.710718
0.710718
0.710718
0.710718
0.710718
0.710718
0.710718
0.710718
0.710718
0.710718
0.710718
0.710718
0.710718
0.710718
0.710718
0.710718
0.83124
0.83124
0.83124
0.83124
0.83124
0.83124
0.83124
0.83124
0.83124
0.83124
0.83124
0.83124
0.83124
0.83124
0.83124
0.83124
0.83124
0.83124
0.83124
0.83124
0.83124
0.831239
0.831239
0.831237
0.831235
0.831229
0.831219
0.831198
0.831159
0.831085
0.830949
0.830703
0.830271
0.829536
0.828327
0.826416
0.823535
0.819427
0.813953
0.80726
0.800044
0.793465
0.789544
0.78721
0.786844
0.786484
0.786252
0.78607
0.785973
0.783079
0.769245
0.755518
0.751446
0.751058
0.750981
0.750965
0.750882
0.749918
0.748527
0.744179
0.737945
0.731015
0.724793
0.719922
0.716458
0.71416
0.712715
0.711845
0.711338
0.711052
0.710895
0.71081
0.710765
0.710742
0.71073
0.710724
0.710721
0.710719
0.710719
0.710718
0.710718
0.710718
0.710718
0.710718
0.710718
0.710718
0.710718
0.710718
0.710718
0.710718
0.710718
0.710718
0.710718
0.710718
0.710718
0.710718
0.710718
0.710718
0.710718
0.710718
0.83124
0.83124
0.83124
0.83124
0.83124
0.83124
0.83124
0.83124
0.83124
0.83124
0.83124
0.83124
0.83124
0.83124
0.83124
0.83124
0.83124
0.83124
0.83124
0.83124
0.83124
0.831239
0.831239
0.831237
0.831235
0.831229
0.831219
0.831199
0.831159
0.831085
0.830949
0.830703
0.830272
0.829538
0.82833
0.826421
0.823543
0.819438
0.813966
0.807271
0.800042
0.793435
0.789487
0.787149
0.786798
0.78643
0.786196
0.786009
0.785908
0.782925
0.769157
0.755521
0.751471
0.751089
0.75102
0.750988
0.750951
0.749989
0.748553
0.744208
0.737954
0.73101
0.724782
0.719912
0.716449
0.714154
0.712711
0.711842
0.711337
0.711051
0.710894
0.710809
0.710765
0.710741
0.71073
0.710724
0.710721
0.710719
0.710719
0.710718
0.710718
0.710718
0.710718
0.710718
0.710718
0.710718
0.710718
0.710718
0.710718
0.710718
0.710718
0.710718
0.710718
0.710718
0.710718
0.710718
0.710718
0.710718
0.710718
0.710718
0.83124
0.83124
0.83124
0.83124
0.83124
0.83124
0.83124
0.83124
0.83124
0.83124
0.83124
0.83124
0.83124
0.83124
0.83124
0.83124
0.83124
0.83124
0.83124
0.83124
0.83124
0.831239
0.831239
0.831237
0.831235
0.831229
0.831219
0.831199
0.831159
0.831086
0.830949
0.830704
0.830273
0.82954
0.828333
0.826425
0.823549
0.819446
0.813978
0.807284
0.800053
0.793436
0.789476
0.787137
0.786789
0.786424
0.786179
0.785978
0.785879
0.782924
0.769165
0.755494
0.751464
0.751098
0.751011
0.750999
0.750967
0.750014
0.748579
0.744212
0.737947
0.731001
0.724773
0.719905
0.716444
0.71415
0.712708
0.71184
0.711336
0.711051
0.710894
0.710809
0.710765
0.710741
0.71073
0.710724
0.710721
0.710719
0.710719
0.710718
0.710718
0.710718
0.710718
0.710718
0.710718
0.710718
0.710718
0.710718
0.710718
0.710718
0.710718
0.710718
0.710718
0.710718
0.710718
0.710718
0.710718
0.710718
0.710718
0.710718
0.83124
0.83124
0.83124
0.83124
0.83124
0.83124
0.83124
0.83124
0.83124
0.83124
0.83124
0.83124
0.83124
0.83124
0.83124
0.83124
0.83124
0.83124
0.83124
0.83124
0.83124
0.831239
0.831239
0.831237
0.831235
0.831229
0.831219
0.831199
0.831159
0.831086
0.83095
0.830704
0.830274
0.82954
0.828334
0.826427
0.823551
0.819448
0.813979
0.807284
0.800053
0.793441
0.789482
0.787137
0.786788
0.786435
0.786193
0.786057
0.785969
0.782878
0.769157
0.755542
0.751482
0.751109
0.751034
0.751009
0.750951
0.749986
0.748558
0.744204
0.73795
0.731005
0.724776
0.719904
0.716442
0.714148
0.712707
0.711839
0.711335
0.71105
0.710893
0.710809
0.710764
0.710741
0.71073
0.710724
0.710721
0.710719
0.710719
0.710718
0.710718
0.710718
0.710718
0.710718
0.710718
0.710718
0.710718
0.710718
0.710718
0.710718
0.710718
0.710718
0.710718
0.710718
0.710718
0.710718
0.710718
0.710718
0.710718
0.710718
0.83124
0.83124
0.83124
0.83124
0.83124
0.83124
0.83124
0.83124
0.83124
0.83124
0.83124
0.83124
0.83124
0.83124
0.83124
0.83124
0.83124
0.83124
0.83124
0.83124
0.83124
0.831239
0.831239
0.831237
0.831235
0.831229
0.831219
0.831199
0.831159
0.831086
0.83095
0.830704
0.830274
0.829541
0.828334
0.826427
0.823551
0.819447
0.813977
0.80728
0.800049
0.793438
0.789528
0.787186
0.786803
0.786451
0.78626
0.785975
0.786126
0.78405
0.769041
0.754758
0.751338
0.751071
0.751037
0.751
0.750898
0.749922
0.748547
0.744203
0.737957
0.731011
0.724778
0.719905
0.716442
0.714147
0.712706
0.711839
0.711334
0.71105
0.710893
0.710809
0.710764
0.710741
0.71073
0.710724
0.710721
0.710719
0.710719
0.710718
0.710718
0.710718
0.710718
0.710718
0.710718
0.710718
0.710718
0.710718
0.710718
0.710718
0.710718
0.710718
0.710718
0.710718
0.710718
0.710718
0.710718
0.710718
0.710718
0.710718
0.83124
0.83124
0.83124
0.83124
0.83124
0.83124
0.83124
0.83124
0.83124
0.83124
0.83124
0.83124
0.83124
0.83124
0.83124
0.83124
0.83124
0.83124
0.83124
0.83124
0.83124
0.831239
0.831239
0.831237
0.831235
0.831229
0.831219
0.831199
0.831159
0.831086
0.83095
0.830704
0.830274
0.829541
0.828334
0.826427
0.82355
0.819447
0.813977
0.807282
0.800054
0.793452
0.789513
0.787173
0.786808
0.786453
0.786217
0.78603
0.785936
0.782884
0.76922
0.755584
0.75147
0.751085
0.751009
0.750992
0.750915
0.749947
0.748535
0.744194
0.737953
0.731011
0.72478
0.719906
0.716442
0.714147
0.712706
0.711838
0.711334
0.711049
0.710893
0.710809
0.710764
0.710741
0.71073
0.710724
0.710721
0.710719
0.710719
0.710718
0.710718
0.710718
0.710718
0.710718
0.710718
0.710718
0.710718
0.710718
0.710718
0.710718
0.710718
0.710718
0.710718
0.710718
0.710718
0.710718
0.710718
0.710718
0.710718
0.710718
0.83124
0.83124
0.83124
0.83124
0.83124
0.83124
0.83124
0.83124
0.83124
0.83124
0.83124
0.83124
0.83124
0.83124
0.83124
0.83124
0.83124
0.83124
0.83124
0.83124
0.83124
0.831239
0.831239
0.831237
0.831235
0.831229
0.831219
0.831199
0.831159
0.831086
0.83095
0.830704
0.830274
0.829541
0.828334
0.826427
0.82355
0.819447
0.813976
0.80728
0.80005
0.793443
0.789525
0.78719
0.78682
0.786456
0.786227
0.785977
0.785887
0.783068
0.769068
0.755566
0.751494
0.751082
0.751018
0.750974
0.750907
0.749936
0.748526
0.744196
0.737955
0.731013
0.724781
0.719906
0.716442
0.714147
0.712705
0.711838
0.711334
0.711049
0.710893
0.710809
0.710764
0.710741
0.71073
0.710724
0.710721
0.710719
0.710719
0.710718
0.710718
0.710718
0.710718
0.710718
0.710718
0.710718
0.710718
0.710718
0.710718
0.710718
0.710718
0.710718
0.710718
0.710718
0.710718
0.710718
0.710718
0.710718
0.710718
0.710718
)
;

boundaryField
{
    sides1
    {
        type            calculated;
        value           nonuniform List<scalar> 
20
(
0.710718
0.710718
0.710718
0.710718
0.710718
0.710718
0.710718
0.710718
0.710718
0.710718
0.83124
0.83124
0.83124
0.83124
0.83124
0.83124
0.83124
0.83124
0.83124
0.83124
)
;
    }
    sides2
    {
        type            calculated;
        value           nonuniform List<scalar> 
200
(
0.83124
0.83124
0.83124
0.83124
0.83124
0.83124
0.83124
0.83124
0.83124
0.83124
0.83124
0.83124
0.83124
0.83124
0.83124
0.83124
0.83124
0.83124
0.83124
0.83124
0.83124
0.831239
0.831239
0.831237
0.831235
0.831229
0.831219
0.831198
0.831159
0.831085
0.830948
0.830701
0.830268
0.829531
0.828318
0.826402
0.823514
0.819398
0.813918
0.807225
0.800031
0.793497
0.78968
0.78738
0.786949
0.786583
0.786353
0.786018
0.78602
0.78398
0.768897
0.754754
0.751401
0.751011
0.751011
0.750943
0.750748
0.749732
0.748362
0.744074
0.737912
0.731022
0.724818
0.719951
0.716481
0.714177
0.712726
0.711851
0.711342
0.711054
0.710896
0.71081
0.710765
0.710742
0.71073
0.710724
0.710721
0.710719
0.710719
0.710718
0.710718
0.710718
0.710718
0.710718
0.710718
0.710718
0.710718
0.710718
0.710718
0.710718
0.710718
0.710718
0.710718
0.710718
0.710718
0.710718
0.710718
0.710718
0.710718
0.710718
0.83124
0.83124
0.83124
0.83124
0.83124
0.83124
0.83124
0.83124
0.83124
0.83124
0.83124
0.83124
0.83124
0.83124
0.83124
0.83124
0.83124
0.83124
0.83124
0.83124
0.83124
0.831239
0.831239
0.831237
0.831235
0.831229
0.831219
0.831199
0.831159
0.831086
0.83095
0.830704
0.830274
0.829541
0.828334
0.826427
0.82355
0.819447
0.813976
0.80728
0.80005
0.793443
0.789525
0.78719
0.78682
0.786456
0.786227
0.785977
0.785887
0.783068
0.769068
0.755566
0.751494
0.751082
0.751018
0.750974
0.750907
0.749936
0.748526
0.744196
0.737955
0.731013
0.724781
0.719906
0.716442
0.714147
0.712705
0.711838
0.711334
0.711049
0.710893
0.710809
0.710764
0.710741
0.71073
0.710724
0.710721
0.710719
0.710719
0.710718
0.710718
0.710718
0.710718
0.710718
0.710718
0.710718
0.710718
0.710718
0.710718
0.710718
0.710718
0.710718
0.710718
0.710718
0.710718
0.710718
0.710718
0.710718
0.710718
0.710718
)
;
    }
    empty
    {
        type            empty;
    }
}


// ************************************************************************* //
