/*--------------------------------*- C++ -*----------------------------------*\
| =========                 |                                                 |
| \\      /  F ield         | OpenFOAM: The Open Source CFD Toolbox           |
|  \\    /   O peration     | Version:  3.0.1                                 |
|   \\  /    A nd           | Web:      www.OpenFOAM.org                      |
|    \\/     M anipulation  |                                                 |
\*---------------------------------------------------------------------------*/
FoamFile
{
    version     2.0;
    format      ascii;
    class       volScalarField;
    location    "0.0001";
    object      T;
}
// * * * * * * * * * * * * * * * * * * * * * * * * * * * * * * * * * * * * * //

dimensions      [0 0 0 1 0 0 0];

internalField   nonuniform List<scalar> 
1000
(
289
289
289
289
289
289
289
289
289
289
289
289
289
289
289
289
289
289
289
289
289
289
289
289
289
289
288.999
288.998
288.997
288.994
288.988
288.976
288.954
288.913
288.841
288.718
288.513
288.187
287.697
287.002
286.096
285.036
284.02
283.247
282.913
282.745
282.569
282.663
282.554
283.306
288.537
294.084
295.32
295.432
295.371
295.265
295.133
294.616
293.822
292.738
291.662
290.767
290.109
289.665
289.384
289.215
289.117
289.062
289.032
289.017
289.008
289.004
289.002
289.001
289
289
289
289
289
289
289
289
289
289
289
289
289
289
289
289
289
289
289
289
289
289
289
289
289
289
289
289
289
289
289
289
289
289
289
289
289
289
289
289
289
289
289
289
289
289
289
289
289
289
289
289
288.999
288.998
288.997
288.994
288.988
288.976
288.954
288.913
288.841
288.718
288.513
288.188
287.698
287.004
286.098
285.04
284.02
283.24
282.902
282.726
282.568
282.62
282.561
283.678
288.462
293.774
295.317
295.444
295.379
295.273
295.152
294.63
293.823
292.737
291.66
290.766
290.108
289.664
289.383
289.214
289.117
289.062
289.032
289.017
289.008
289.004
289.002
289.001
289
289
289
289
289
289
289
289
289
289
289
289
289
289
289
289
289
289
289
289
289
289
289
289
289
289
289
289
289
289
289
289
289
289
289
289
289
289
289
289
289
289
289
289
289
289
289
289
289
289
289
289
288.999
288.998
288.997
288.994
288.988
288.976
288.954
288.913
288.842
288.718
288.514
288.189
287.699
287.006
286.099
285.038
284.017
283.236
282.898
282.729
282.555
282.657
282.534
283.328
288.509
294.102
295.34
295.434
295.376
295.276
295.155
294.637
293.832
292.74
291.66
290.764
290.106
289.663
289.382
289.214
289.116
289.062
289.032
289.016
289.008
289.004
289.002
289.001
289
289
289
289
289
289
289
289
289
289
289
289
289
289
289
289
289
289
289
289
289
289
289
289
289
289
289
289
289
289
289
289
289
289
289
289
289
289
289
289
289
289
289
289
289
289
289
289
289
289
289
289
288.999
288.998
288.997
288.994
288.988
288.976
288.954
288.913
288.842
288.719
288.514
288.19
287.701
287.008
286.103
285.043
284.018
283.232
282.893
282.718
282.559
282.618
282.564
283.658
288.477
293.808
295.312
295.442
295.385
295.284
295.169
294.645
293.832
292.738
291.657
290.761
290.104
289.661
289.381
289.213
289.116
289.062
289.032
289.016
289.008
289.004
289.002
289.001
289
289
289
289
289
289
289
289
289
289
289
289
289
289
289
289
289
289
289
289
289
289
289
289
289
289
289
289
289
289
289
289
289
289
289
289
289
289
289
289
289
289
289
289
289
289
289
289
289
289
289
289
288.999
288.998
288.997
288.994
288.988
288.976
288.954
288.914
288.842
288.719
288.515
288.191
287.703
287.011
286.105
285.044
284.015
283.224
282.884
282.708
282.552
282.61
282.553
283.65
288.497
293.819
295.318
295.453
295.399
295.294
295.171
294.649
293.833
292.737
291.655
290.759
290.102
289.66
289.38
289.213
289.116
289.062
289.032
289.016
289.008
289.004
289.002
289.001
289
289
289
289
289
289
289
289
289
289
289
289
289
289
289
289
289
289
289
289
289
289
289
289
289
289
289
289
289
289
289
289
289
289
289
289
289
289
289
289
289
289
289
289
289
289
289
289
289
289
289
289
288.999
288.998
288.997
288.994
288.988
288.976
288.954
288.914
288.842
288.719
288.516
288.192
287.704
287.012
286.107
285.046
284.016
283.223
282.882
282.707
282.55
282.608
282.55
283.653
288.501
293.822
295.318
295.447
295.392
295.293
295.177
294.653
293.833
292.736
291.654
290.758
290.101
289.659
289.38
289.212
289.115
289.061
289.032
289.016
289.008
289.004
289.002
289.001
289
289
289
289
289
289
289
289
289
289
289
289
289
289
289
289
289
289
289
289
289
289
289
289
289
289
289
289
289
289
289
289
289
289
289
289
289
289
289
289
289
289
289
289
289
289
289
289
289
289
289
289
288.999
288.998
288.997
288.994
288.988
288.976
288.954
288.914
288.842
288.719
288.516
288.192
287.704
287.012
286.107
285.046
284.017
283.224
282.882
282.707
282.552
282.595
282.542
283.69
288.515
293.815
295.319
295.446
295.392
295.29
295.173
294.649
293.832
292.737
291.655
290.758
290.101
289.659
289.38
289.212
289.115
289.061
289.032
289.016
289.008
289.004
289.002
289.001
289
289
289
289
289
289
289
289
289
289
289
289
289
289
289
289
289
289
289
289
289
289
289
289
289
289
289
289
289
289
289
289
289
289
289
289
289
289
289
289
289
289
289
289
289
289
289
289
289
289
289
289
288.999
288.998
288.997
288.994
288.988
288.976
288.954
288.914
288.842
288.719
288.516
288.192
287.704
287.012
286.106
285.043
284.016
283.228
282.888
282.718
282.546
282.648
282.528
283.326
288.502
294.102
295.347
295.443
295.387
295.288
295.167
294.645
293.835
292.739
291.656
290.759
290.101
289.659
289.379
289.212
289.115
289.061
289.032
289.016
289.008
289.004
289.002
289.001
289
289
289
289
289
289
289
289
289
289
289
289
289
289
289
289
289
289
289
289
289
289
289
289
289
289
289
289
289
289
289
289
289
289
289
289
289
289
289
289
289
289
289
289
289
289
289
289
289
289
289
289
288.999
288.998
288.997
288.994
288.988
288.976
288.954
288.914
288.842
288.719
288.516
288.192
287.704
287.012
286.106
285.045
284.017
283.227
282.886
282.71
282.556
282.614
282.555
283.686
288.487
293.792
295.317
295.445
295.387
295.286
295.169
294.646
293.833
292.739
291.656
290.759
290.101
289.659
289.379
289.212
289.115
289.061
289.032
289.016
289.008
289.004
289.002
289.001
289
289
289
289
289
289
289
289
289
289
289
289
289
289
289
289
289
289
289
289
289
289
289
289
289
289
289
289
289
289
289
289
289
289
289
289
289
289
289
289
289
289
289
289
289
289
289
289
289
289
289
289
288.999
288.998
288.997
288.994
288.988
288.976
288.954
288.914
288.842
288.719
288.516
288.192
287.704
287.012
286.106
285.044
284.016
283.228
282.889
282.718
282.553
282.623
282.559
283.623
288.524
293.782
295.307
295.447
295.394
295.288
295.166
294.646
293.834
292.739
291.656
290.759
290.101
289.659
289.379
289.212
289.115
289.061
289.032
289.016
289.008
289.004
289.002
289.001
289
289
289
289
289
289
289
289
289
289
289
289
289
289
289
289
289
289
289
289
289
289
289
289
289
289
)
;

boundaryField
{
    sides1
    {
        type            zeroGradient;
    }
    sides2
    {
        type            slip;
    }
    empty
    {
        type            empty;
    }
}


// ************************************************************************* //
