/*--------------------------------*- C++ -*----------------------------------*\
| =========                 |                                                 |
| \\      /  F ield         | OpenFOAM: The Open Source CFD Toolbox           |
|  \\    /   O peration     | Version:  3.0.1                                 |
|   \\  /    A nd           | Web:      www.OpenFOAM.org                      |
|    \\/     M anipulation  |                                                 |
\*---------------------------------------------------------------------------*/
FoamFile
{
    version     2.0;
    format      ascii;
    class       volScalarField;
    location    "5e-05";
    object      p;
}
// * * * * * * * * * * * * * * * * * * * * * * * * * * * * * * * * * * * * * //

dimensions      [1 -1 -2 0 0 0 0];

internalField   nonuniform List<scalar> 
1000
(
68970
68970
68970
68969.9
68970
68970
68970.1
68970
68969.9
68970
68970.1
68970.1
68969.9
68969.6
68969.9
68970.6
68970.4
68969.5
68969.5
68970
68970.2
68969.9
68969.9
68970
68970
68970
68970
68970.1
68970
68969.9
68970
68970
68969.9
68969.8
68969.4
68968.6
68966
68960.5
68947.3
68917.6
68855.5
68746
68518.6
68117.4
67459.4
66456.6
65291.9
64519.1
64048.4
63813
63837.6
63715.8
63761
62521
61322.5
60565.1
59883.5
59431.5
59156.1
59051.6
59006
58984.2
58976.3
58972.5
58971
58970.4
58970.2
58970.1
58970
58970
58970
58970
58970
58970
58970
58970
58970
58970
58970
58970
58970
58970
58970
58970
58970
58970
58970
58970
58970
58970
58970
58970
58970
58970
58970
58970
58970
58970
58970
58970
68970
68970
68970
68969.9
68970
68970
68970.1
68970.1
68969.9
68970
68970.1
68970
68970
68969.9
68969.9
68970.1
68969.6
68969.5
68969.7
68969.9
68970.1
68970
68970
68970
68969.9
68969.9
68970
68970.1
68970
68970
68970.1
68970.1
68970
68969.8
68969.4
68968.5
68966.3
68961.1
68947.9
68919.8
68857.6
68750.8
68533.5
68135.5
67579.6
66540.5
65281.7
64328.3
63975.7
64004.3
63892.5
63728.1
63737.7
62426.8
61323.1
60533.4
59891.7
59404.2
59161
59050.8
59003.5
58984.6
58975.9
58972.4
58971
58970.4
58970.1
58970.1
58970
58970
58970
58970
58970
58970
58970
58970
58970
58970
58970
58970
58970
58970
58970
58970
58970
58970
58970
58970
58970
58970
58970
58970
58970
58970
58970
58970
58970
58970
58970
58970
68970
68970
68970
68970
68970
68970
68970.1
68970
68969.9
68970
68970.2
68970.2
68970.1
68970.1
68970.1
68970.1
68969.9
68970
68970
68969.9
68969.9
68970
68970
68970
68970
68970
68970
68970
68970
68969.9
68970
68970
68969.9
68969.7
68969.3
68968.6
68967.3
68961.1
68947.8
68919.7
68859.3
68730.3
68527.8
68204.9
67698.9
66807.9
65365
64229.8
63873.7
63884.8
63840.1
63706.5
63358.1
62575.7
61506.4
60636.9
59786.8
59380.5
59158.2
59051.7
59006.3
58984.3
58976.2
58972.4
58971
58970.4
58970.2
58970.1
58970
58970
58970
58970
58970
58970
58970
58970
58970
58970
58970
58970
58970
58970
58970
58970
58970
58970
58970
58970
58970
58970
58970
58970
58970
58970
58970
58970
58970
58970
58970
58970
68970
68970
68970
68970
68970
68970
68970.1
68969.9
68969.9
68969.9
68970
68970.1
68970.1
68970
68970.1
68970.1
68970
68970
68970
68970
68970
68970
68969.9
68969.9
68970
68970.1
68970
68970
68970
68970
68970
68970
68969.8
68969.8
68969.5
68968.9
68967.5
68962.4
68953.5
68924
68878.1
68782.1
68559.4
68234.8
67618.7
66699.7
65413.9
64227.2
63807.8
63915.2
63820
63575.6
63304.8
62669.5
61584.5
60480.4
59778.1
59384.5
59163.6
59050.1
59004.6
58984.4
58976.1
58972.5
58971
58970.4
58970.2
58970.1
58970
58970
58970
58970
58970
58970
58970
58970
58970
58970
58970
58970
58970
58970
58970
58970
58970
58970
58970
58970
58970
58970
58970
58970
58970
58970
58970
58970
58970
58970
58970
58970
68970
68970
68970
68970
68970
68970
68970
68970
68970
68969.9
68969.9
68970
68970.1
68970
68970
68970
68970
68970
68970
68970
68969.9
68969.9
68969.9
68969.9
68969.8
68970.1
68970.2
68970.1
68969.9
68969.9
68969.9
68969.9
68969.8
68969.8
68969.7
68969.4
68967.8
68965
68960
68942.3
68901.5
68825.7
68612.3
68259.4
67641.3
66581.4
65361.1
64202.4
63793.4
64032.3
63920.6
63571.2
63293.4
62629.8
61475.6
60519.4
59746.3
59365.3
59161.1
59051.1
59002.4
58984.2
58976.2
58972.5
58971
58970.4
58970.2
58970.1
58970
58970
58970
58970
58970
58970
58970
58970
58970
58970
58970
58970
58970
58970
58970
58970
58970
58970
58970
58970
58970
58970
58970
58970
58970
58970
58970
58970
58970
58970
58970
58970
68970
68970
68970
68970
68970
68970
68970
68970.1
68970.2
68970
68969.9
68969.9
68970
68970
68970
68970
68970
68970
68969.9
68969.9
68970
68970.1
68970.1
68970.1
68969.6
68969.7
68969.9
68970.2
68970.3
68970.1
68970.1
68969.9
68969.7
68969.7
68969.6
68969.2
68968.8
68966.7
68959.1
68946
68910
68842.4
68596.9
68284
67645.8
66543.2
65390.8
64281.4
63925.7
64013.1
63850.9
63536.6
63259
62597.2
61554.4
60495.8
59751.5
59366
59155.8
59054.6
59004.7
58984.2
58976.1
58972.5
58971.1
58970.4
58970.2
58970.1
58970
58970
58970
58970
58970
58970
58970
58970
58970
58970
58970
58970
58970
58970
58970
58970
58970
58970
58970
58970
58970
58970
58970
58970
58970
58970
58970
58970
58970
58970
58970
58970
68970
68970
68970
68970
68970.1
68970.1
68970
68970
68970.2
68970.1
68970
68970
68970
68970
68970
68970
68970
68970
68970
68970
68970.1
68970.1
68970.1
68970
68969.9
68970
68970.3
68970.3
68970.1
68969.9
68969.9
68969.7
68969.7
68970.3
68970.5
68970
68968.5
68963.7
68950.3
68934.4
68917.5
68865
68658.4
68288.1
67545.3
66597.5
65242.4
64422.9
64049.6
63841.1
63732.7
63551.2
63297.7
62656.9
61640.4
60464.9
59726.8
59358.2
59145.6
59051.7
59005.7
58984.7
58976.3
58972.6
58971.1
58970.4
58970.1
58970.1
58970
58970
58970
58970
58970
58970
58970
58970
58970
58970
58970
58970
58970
58970
58970
58970
58970
58970
58970
58970
58970
58970
58970
58970
58970
58970
58970
58970
58970
58970
58970
58970
68970
68970
68970
68970.1
68970.2
68970
68970
68969.9
68970
68970
68970.1
68970.1
68970
68969.9
68969.9
68970
68970
68970
68970.1
68970.1
68970
68969.9
68969.9
68969.8
68970.2
68970.5
68970.3
68969.6
68969.7
68970.1
68970.3
68970.1
68970
68970.2
68970.1
68969.8
68969.1
68964.4
68952.7
68929.5
68903.7
68811.4
68630.6
68284.6
67551.3
66563.6
65298.1
64483.8
64029.8
63827.2
63732.8
63658.7
63382.7
62685.3
61586.4
60475
59725.8
59342.3
59144
59049.4
59004.7
58982.3
58975.8
58972.4
58971
58970.4
58970.1
58970.1
58970
58970
58970
58970
58970
58970
58970
58970
58970
58970
58970
58970
58970
58970
58970
58970
58970
58970
58970
58970
58970
58970
58970
58970
58970
58970
58970
58970
58970
58970
58970
58970
68970
68970
68970.1
68970.1
68970.1
68969.9
68969.6
68969.7
68970
68969.8
68969.9
68970.2
68970.3
68970
68969.8
68969.8
68970
68970.1
68970.3
68970.2
68970
68970
68969.7
68969.6
68969.6
68970.3
68970.3
68969.9
68970.1
68970.6
68970.2
68969.5
68969.3
68970
68970.2
68969.6
68968.6
68964.6
68954
68932.6
68900.6
68795.2
68567.4
68204
67590.8
66514.3
65264.1
64350.3
64029.6
63963.2
63863
63638.7
63344
62682.9
61574.2
60432.3
59734.3
59338
59136.5
59046.1
59002.3
58982.1
58975.3
58972.3
58970.9
58970.4
58970.1
58970.1
58970
58970
58970
58970
58970
58970
58970
58970
58970
58970
58970
58970
58970
58970
58970
58970
58970
58970
58970
58970
58970
58970
58970
58970
58970
58970
58970
58970
58970
58970
58970
58970
68970
68970
68970.1
68970.1
68969.9
68969.6
68969.8
68970.6
68971.1
68969.2
68969.1
68969.7
68970.5
68970.5
68970.1
68969.8
68970
68970.2
68970.2
68969.9
68969.8
68970.4
68970.8
68970.7
68969.7
68969.5
68969.9
68969.8
68969.7
68969.7
68969.8
68970.4
68971
68971
68969.8
68967.3
68966.4
68963.1
68955.2
68929.4
68887.1
68785
68584.8
68223.2
67519.4
66509.8
65210.5
64297.7
64038.5
64054
63845.4
63625.2
63300.3
62625.5
61629.6
60440.2
59808.1
59304.2
59136.7
59046.4
59003.1
58983.9
58975.8
58972.5
58971
58970.4
58970.2
58970.1
58970
58970
58970
58970
58970
58970
58970
58970
58970
58970
58970
58970
58970
58970
58970
58970
58970
58970
58970
58970
58970
58970
58970
58970
58970
58970
58970
58970
58970
58970
58970
58970
)
;

boundaryField
{
    sides1
    {
        type            zeroGradient;
    }
    sides2
    {
        type            slip;
    }
    empty
    {
        type            empty;
    }
}


// ************************************************************************* //
