/*--------------------------------*- C++ -*----------------------------------*\
| =========                 |                                                 |
| \\      /  F ield         | OpenFOAM: The Open Source CFD Toolbox           |
|  \\    /   O peration     | Version:  3.0.1                                 |
|   \\  /    A nd           | Web:      www.OpenFOAM.org                      |
|    \\/     M anipulation  |                                                 |
\*---------------------------------------------------------------------------*/
FoamFile
{
    version     2.0;
    format      ascii;
    class       surfaceScalarField;
    location    "5e-05";
    object      phi;
}
// * * * * * * * * * * * * * * * * * * * * * * * * * * * * * * * * * * * * * //

dimensions      [1 0 -1 0 0 0 0];

internalField   nonuniform List<scalar> 
1890
(
4.26385e-09
-2.78573e-11
9.15999e-09
-1.55693e-10
1.59337e-08
1.15622e-10
1.46886e-08
1.94665e-10
1.92001e-09
-1.74318e-09
-1.10997e-08
-2.07418e-09
-3.27446e-08
2.02302e-10
-1.99322e-08
-1.63392e-09
-5.09597e-08
3.47926e-09
-2.21759e-08
-1.18459e-10
8.46241e-09
2.04795e-08
3.55821e-08
1.72481e-08
1.03565e-07
-9.52367e-09
1.40893e-07
-3.1966e-08
-3.40061e-08
-1.2503e-08
2.04308e-07
-5.45666e-08
2.87098e-07
-8.65474e-08
1.34709e-08
-1.23816e-08
-9.4856e-08
-4.49449e-08
-3.44654e-08
-2.84692e-09
6.62806e-08
-1.56709e-08
-3.20576e-08
1.11775e-08
-5.6417e-08
-8.9266e-09
-2.12664e-08
-2.27247e-08
-7.06184e-09
-6.65182e-09
-3.45525e-08
-3.20929e-10
-2.57123e-08
-9.70396e-10
2.57084e-08
-6.57845e-09
1.7668e-08
2.68452e-09
-2.62785e-08
-1.42835e-08
-1.67249e-08
-1.09324e-08
3.70223e-08
-1.75409e-08
6.21993e-08
-1.7844e-08
1.82681e-08
1.7036e-08
2.64747e-07
2.66763e-09
7.8785e-07
9.88976e-10
2.135e-06
-5.41488e-08
4.86658e-06
-1.18421e-07
1.12785e-05
-1.63834e-07
2.69987e-05
-4.88481e-07
5.71427e-05
-8.12147e-08
0.000108581
2.22707e-07
0.000209335
-1.64086e-06
0.000385399
-2.09827e-06
0.000670987
-3.07878e-05
0.00108224
-3.38834e-05
0.00134733
-1.20039e-05
0.00147525
2.03835e-05
0.00161939
-2.75911e-05
0.00153928
-5.41731e-06
0.00144014
-5.58483e-06
0.0013802
5.90763e-06
0.00136544
1.54175e-05
0.000920269
2.04168e-05
0.000610691
7.17472e-06
0.000404333
5.91769e-06
0.000209307
3.89416e-06
9.95854e-05
4.56966e-06
4.12791e-05
1.54894e-06
1.92439e-05
1.10835e-07
7.90987e-06
3.23475e-07
3.42499e-06
-2.0576e-08
1.36691e-06
4.34041e-08
5.66679e-07
8.99995e-09
2.30338e-07
1.52598e-09
9.07958e-08
-1.41027e-10
3.55962e-08
8.81578e-10
1.41532e-08
3.96469e-10
5.74287e-09
1.40883e-10
2.30069e-09
5.19821e-11
9.86956e-10
-3.6599e-12
3.80479e-10
7.11631e-12
1.64288e-10
-6.94915e-12
6.75597e-11
-4.30627e-12
2.8803e-11
-2.50603e-12
1.19821e-11
-1.2018e-12
5.11923e-12
-5.63135e-13
2.23627e-12
-2.63462e-13
9.47723e-13
-1.05536e-13
3.9688e-13
-4.38954e-14
1.61303e-13
-1.73455e-14
6.40616e-14
-7.4437e-15
1.75172e-14
-3.34455e-15
-5.32907e-15
-3.50154e-15
-1.39611e-14
-6.06459e-15
5.22672e-15
-1.83482e-14
6.63584e-14
-2.59662e-14
2.55206e-13
-8.61256e-14
6.70112e-13
-1.67065e-13
1.38159e-12
-1.84025e-13
2.33134e-12
-1.94658e-13
4.46297e-12
-1.34053e-13
5.25965e-12
1.97513e-13
4.58789e-12
3.09162e-13
2.86296e-12
-3.35773e-14
3.07124e-12
1.36427e-12
7.44153e-13
3.00165e-12
-2.68397e-12
4.8373e-12
-2.07526e-12
4.86858e-12
5.74211e-12
3.03673e-09
5.87774e-11
6.59478e-09
-1.77346e-10
1.55164e-08
-2.03747e-09
1.67028e-08
-4.49198e-09
4.68864e-11
-5.99977e-09
-1.25434e-08
-7.04283e-09
-2.58808e-08
8.64896e-09
-3.81373e-08
2.43495e-08
-4.36289e-08
1.12203e-08
-3.08458e-08
5.18565e-09
1.11934e-08
-7.02993e-09
4.08993e-09
-1.87867e-09
2.30122e-08
6.73757e-09
9.30075e-08
-1.05569e-08
8.4958e-08
1.73551e-09
-2.70017e-08
1.57369e-08
-7.15496e-08
-6.85088e-08
-4.67806e-08
-8.05193e-08
-4.55774e-08
-4.78131e-08
-1.15921e-08
-2.22257e-08
1.12719e-08
-1.3029e-08
-1.13825e-08
1.41406e-09
-1.76873e-08
1.19305e-09
-1.40914e-08
-1.18186e-09
-6.80755e-09
-3.24169e-09
-2.00231e-08
-2.37746e-08
-8.53729e-09
-1.1667e-08
3.06195e-08
7.26685e-10
3.82209e-08
1.21831e-08
-3.27768e-09
7.50348e-09
-1.53413e-08
1.6007e-08
2.59434e-08
1.42679e-08
3.21435e-08
2.13135e-10
4.94644e-08
5.46739e-09
2.22194e-07
9.07319e-09
7.28273e-07
-2.98528e-08
1.7588e-06
3.17459e-08
4.13766e-06
-3.45681e-08
1.0336e-05
-2.27659e-08
2.34304e-05
-1.71942e-07
5.43706e-05
-1.28928e-06
9.93692e-05
2.39275e-06
0.000181155
-2.40704e-06
0.00035481
-1.16384e-05
0.000553904
-3.01925e-05
0.000985828
-4.68906e-05
0.0013075
-1.40109e-05
0.00142541
1.14223e-06
0.0015104
-4.09858e-06
0.00156133
7.78373e-07
0.00142823
2.63201e-05
0.00133478
3.6802e-05
0.00139403
2.2705e-05
0.000779702
1.40952e-05
0.000592255
-3.67171e-05
0.000371311
7.62074e-06
0.000188025
-1.22495e-06
8.98836e-05
1.05737e-06
4.06751e-05
2.60846e-07
1.67557e-05
-2.40996e-08
7.4098e-06
-1.29419e-07
3.01044e-06
8.04239e-09
1.23849e-06
-1.71135e-08
5.34873e-07
-1.25981e-08
2.18081e-07
-6.11692e-09
8.11675e-08
-1.96e-09
3.01496e-08
-7.71615e-10
1.193e-08
-3.7093e-10
4.93881e-09
-1.63709e-10
2.06524e-09
-6.39079e-11
8.6925e-10
-4.14919e-11
3.80159e-10
-1.97699e-11
1.67187e-10
-1.75454e-11
7.04853e-11
-1.12269e-11
3.19461e-11
-5.87905e-12
1.36897e-11
-2.72266e-12
5.95337e-12
-1.10419e-12
2.60345e-12
-5.15261e-13
1.1071e-12
-2.11724e-13
4.64668e-13
-8.25017e-14
1.90467e-13
-2.85622e-14
6.82978e-14
-1.16287e-14
1.2091e-14
-7.62931e-15
-1.95365e-14
-1.48154e-14
-4.56891e-14
-3.08191e-14
-6.81174e-14
-7.69862e-14
-6.27692e-14
-1.52897e-13
6.96717e-14
-3.93043e-13
4.26667e-13
-7.24484e-13
1.29184e-12
-1.09785e-12
3.06192e-12
-2.0382e-12
6.68446e-12
-2.62541e-12
8.57352e-12
-2.58954e-12
9.14207e-12
-1.90006e-12
1.17707e-11
-3.34841e-12
2.71697e-12
1.01233e-11
3.05192e-13
3.42009e-12
-3.9444e-12
1.58075e-11
-4.42671e-12
1.83765e-11
1.58012e-11
2.91336e-09
-5.4453e-10
6.34428e-09
-6.45121e-10
1.05269e-08
-1.83373e-09
6.44721e-09
-3.7077e-10
-1.16316e-08
-1.95336e-09
-2.88578e-08
-1.1991e-09
1.19889e-08
-1.13663e-08
3.13498e-09
7.70112e-09
-3.0763e-08
5.36228e-09
1.74358e-08
1.88144e-08
2.11099e-08
6.11059e-09
1.08263e-08
-1.51248e-09
3.50564e-09
1.05527e-09
-1.86465e-08
4.7795e-09
-1.83241e-08
1.44082e-08
1.32217e-09
1.56421e-08
3.15629e-09
-6.43672e-09
2.13488e-09
-4.87607e-09
-2.0893e-09
-4.90442e-10
1.00998e-08
-7.04136e-09
8.63817e-09
-3.55236e-09
1.36498e-08
-5.89521e-09
-4.57389e-09
7.75737e-09
-1.11267e-08
1.18931e-08
-7.44866e-09
4.49615e-09
-2.58553e-08
-1.87291e-08
-1.46678e-08
-1.7042e-08
2.14227e-08
-1.56381e-08
1.35356e-08
1.0018e-09
-2.7033e-09
-1.05627e-08
-5.31013e-09
3.9612e-09
2.99603e-08
5.05797e-09
2.12793e-08
9.43573e-09
1.13556e-07
-2.29944e-08
3.76435e-07
-4.73228e-08
9.00142e-07
-4.49453e-08
1.75688e-06
-6.60148e-08
4.24936e-06
-7.96729e-08
1.14643e-05
-7.87444e-07
2.37402e-05
-8.39318e-07
5.35345e-05
-2.48158e-06
0.000107171
-2.51776e-06
0.000183398
-1.32831e-05
0.000311801
-4.22831e-07
0.000531125
-1.13117e-05
0.000817716
3.4194e-06
0.00119613
-2.93603e-06
0.00142181
-1.98326e-05
0.00154396
-2.22036e-05
0.00156541
9.0086e-06
0.00146576
2.91151e-05
0.00140136
7.88906e-06
0.00129873
1.02931e-05
0.000948751
2.24955e-05
0.000655995
-1.35106e-05
0.000385409
6.40672e-06
0.000180389
1.10633e-05
8.72323e-05
6.89364e-07
4.04119e-05
-1.25189e-06
1.82089e-05
-2.0332e-08
7.33962e-06
2.13925e-07
3.14116e-06
-3.56554e-09
1.30465e-06
-4.88012e-09
5.70463e-07
-7.76015e-09
2.40685e-07
-6.5403e-10
8.88443e-08
2.77575e-09
3.18527e-08
1.08259e-10
1.20051e-08
-1.56263e-10
4.69328e-09
-2.77087e-11
1.99646e-09
-6.69035e-11
8.13217e-10
4.69607e-12
3.99138e-10
-3.14317e-11
1.94535e-10
-2.16213e-11
9.10185e-11
-1.18996e-11
4.15113e-11
-6.1575e-12
1.90284e-11
-2.84488e-12
8.26113e-12
-1.06533e-12
3.43772e-12
-4.57964e-13
1.39642e-12
-1.86186e-13
5.78626e-13
-7.3724e-14
2.26669e-13
-2.99353e-14
7.32556e-14
-1.20398e-14
-4.98733e-15
-8.74734e-15
-8.27619e-14
-1.7506e-14
-2.06706e-13
-4.43508e-14
-4.30678e-13
-1.15608e-13
-8.27571e-13
-3.082e-13
-1.52118e-12
-7.79717e-13
-2.37354e-12
-1.86735e-12
-2.39305e-12
-4.31688e-12
-9.34412e-13
-8.07514e-12
4.42212e-12
-1.38303e-11
7.49937e-12
-1.5039e-11
2.21193e-11
-1.33856e-11
6.36169e-11
-4.31538e-13
2.2461e-11
3.60224e-11
-3.47375e-11
4.87285e-12
-3.62663e-11
-6.53668e-12
-2.14308e-11
4.43316e-12
7.93157e-12
1.94635e-09
-1.03753e-09
4.04066e-09
-1.39307e-09
4.80775e-09
-2.14166e-09
1.63783e-09
-2.97602e-09
-1.33653e-08
-1.64547e-09
-2.22396e-08
3.05879e-09
6.44666e-09
-4.62704e-10
1.22479e-08
-1.83375e-09
-7.8528e-09
-3.68768e-10
8.28398e-09
1.86527e-08
2.39541e-08
4.02851e-09
3.22453e-08
-5.45382e-09
3.11449e-09
3.2711e-09
-1.17437e-08
4.86845e-09
-7.04996e-09
9.87322e-09
1.33128e-08
7.91969e-09
1.20135e-08
9.15145e-09
2.07198e-08
4.17249e-09
2.56148e-08
7.13754e-09
2.15598e-08
8.86276e-09
1.50252e-08
2.21825e-08
1.49311e-08
9.94739e-09
1.61229e-08
5.15731e-09
6.12417e-09
1.5328e-08
1.24309e-08
2.88524e-09
1.92414e-08
-2.50821e-08
1.53036e-09
-3.3408e-08
-1.1112e-08
-3.00773e-08
-1.68653e-08
-6.26454e-09
-1.19376e-08
1.28191e-08
-3.14343e-09
1.38991e-08
3.07901e-08
3.32676e-10
4.59307e-08
6.5861e-09
8.24429e-08
1.50163e-09
2.4547e-07
-2.95715e-08
7.27914e-07
-1.16779e-07
1.36232e-06
-6.89231e-08
4.10046e-06
-5.1514e-07
9.3229e-06
-1.64564e-06
2.36916e-05
-2.67746e-06
5.00134e-05
-6.97949e-06
9.54831e-05
-7.51996e-06
0.000169825
-1.49841e-05
0.000337798
-1.64064e-05
0.000555647
-2.08665e-05
0.000836509
2.66975e-05
0.00129915
2.61108e-05
0.00146347
9.07503e-06
0.00149273
-1.04217e-05
0.00155287
1.19412e-05
0.00150939
1.51286e-05
0.00140011
-5.35346e-06
0.00126641
2.35681e-06
0.000977602
2.12081e-05
0.000655648
9.131e-07
0.000352061
3.61248e-06
0.000185497
4.50504e-06
9.21674e-05
3.35422e-06
3.90824e-05
1.60232e-07
1.72884e-05
-1.25406e-07
7.40042e-06
2.78312e-07
3.12066e-06
2.99059e-08
1.27633e-06
1.47281e-08
5.38767e-07
-1.42389e-08
2.22206e-07
-1.23395e-09
8.48688e-08
1.67764e-09
3.44813e-08
3.11707e-10
1.40508e-08
-1.06345e-09
5.04331e-09
7.69563e-10
1.66584e-09
3.15417e-10
8.11101e-10
2.6103e-11
4.04318e-10
3.80386e-12
2.14888e-10
-1.10257e-11
1.04076e-10
-6.52472e-12
4.94933e-11
-3.09768e-12
2.24185e-11
-1.21293e-12
9.94366e-12
-5.31553e-13
4.15902e-12
-1.64714e-13
1.61865e-12
-4.20428e-14
6.77599e-13
-2.05686e-14
2.58836e-13
-7.21038e-15
7.549e-14
-5.12437e-15
-2.93411e-14
-5.7428e-15
-1.55664e-13
-1.47599e-14
-4.06765e-13
-2.97063e-14
-9.15334e-13
-8.70814e-14
-2.04591e-12
-2.49763e-13
-4.15162e-12
-7.34138e-13
-8.69992e-12
-1.49948e-12
-1.60765e-11
-3.87073e-12
-2.87494e-11
-8.38924e-12
-3.16534e-11
-1.6098e-11
-1.45764e-11
-2.34892e-11
3.59399e-11
2.92626e-11
2.13107e-10
3.62183e-11
1.37691e-10
8.08395e-11
6.51518e-11
2.43995e-12
5.01453e-11
-3.13648e-11
4.97458e-12
-2.19993e-11
1.25571e-12
6.81966e-10
-1.24248e-09
1.16725e-09
-1.92526e-09
2.91964e-09
-3.4653e-09
3.2264e-09
-5.9942e-09
-2.82729e-09
-2.70439e-09
-7.76776e-09
-2.9136e-09
-1.94142e-08
1.48831e-09
-2.16624e-08
6.63403e-10
4.32541e-08
-2.1209e-08
2.77006e-08
-1.5932e-08
-1.85846e-08
1.60663e-08
2.16662e-08
9.98745e-09
9.82753e-09
9.67629e-09
-9.82926e-10
2.30807e-09
2.6354e-09
-1.15297e-09
2.60864e-09
2.97492e-09
5.86256e-09
2.688e-09
1.05399e-08
9.43336e-10
1.912e-08
-1.25797e-09
2.57922e-08
3.73339e-09
3.702e-08
3.82913e-09
3.31053e-08
-1.50304e-08
5.23667e-08
-3.93e-08
9.60399e-08
-3.44928e-08
4.08577e-09
2.83199e-08
-2.2379e-08
8.50905e-08
-1.52116e-08
9.12453e-08
-6.08422e-08
3.32395e-09
-8.38094e-08
-5.19897e-08
-5.94663e-08
-4.51835e-08
-1.1797e-08
-2.96156e-08
8.30144e-09
1.18127e-08
5.25334e-08
1.45275e-08
7.75185e-08
5.28018e-08
1.55134e-07
6.36454e-08
2.40381e-07
2.9229e-08
1.17182e-06
-1.62797e-07
2.74629e-06
-1.84325e-07
5.00788e-06
1.87369e-07
1.45499e-05
-1.97779e-06
3.07197e-05
-2.92004e-06
6.346e-05
-4.00803e-06
0.000141883
1.67753e-06
0.000342191
-2.01843e-06
0.000550085
-6.91913e-06
0.000943535
2.96711e-07
0.00129283
7.87906e-06
0.00149185
1.77393e-05
0.00149667
-3.73257e-06
0.00159604
-1.29458e-05
0.00150481
1.66536e-07
0.00137813
8.07826e-08
0.00123961
2.72337e-07
0.000972206
9.71504e-07
0.000643462
-9.44778e-06
0.000347622
1.21738e-07
0.00018395
1.32658e-06
8.88769e-05
9.33148e-07
3.85926e-05
9.07737e-07
1.64523e-05
-3.08633e-07
7.37432e-06
-1.03324e-07
3.17643e-06
2.25784e-08
1.34045e-06
8.81041e-09
5.44116e-07
-4.41419e-09
2.19006e-07
-5.61904e-09
8.42448e-08
2.97368e-09
3.87031e-08
8.0392e-11
9.41466e-09
9.03745e-10
3.20122e-09
5.48578e-11
1.36272e-09
1.92985e-10
7.45838e-10
1.47698e-10
4.06866e-10
8.71253e-11
2.1712e-10
1.97778e-11
1.08747e-10
5.21588e-12
5.06422e-11
1.88935e-12
2.31321e-11
4.95851e-13
1.00128e-11
-2.46277e-13
4.23859e-12
-6.65483e-14
1.74231e-12
5.43888e-14
7.08978e-13
3.13638e-14
2.6803e-13
7.37778e-15
7.14411e-14
5.39499e-16
-4.88481e-14
-1.1189e-15
-2.0753e-13
-2.3705e-15
-5.01189e-13
-9.76129e-15
-1.2049e-12
9.68323e-15
-2.90918e-12
2.75734e-15
-6.72925e-12
4.61827e-14
-1.43751e-11
4.0946e-13
-2.98424e-11
1.25276e-12
-5.44076e-11
5.0684e-12
-8.17631e-11
7.01817e-12
-5.9263e-11
1.14183e-11
2.15604e-10
7.98417e-12
2.35292e-10
2.69928e-11
2.14406e-10
-9.38898e-11
4.33659e-10
2.62762e-11
2.2692e-10
1.03734e-10
5.95251e-11
4.6202e-11
3.87764e-11
-1.87858e-09
-1.82025e-09
-2.4042e-09
-2.0672e-09
-2.09242e-09
-1.73617e-09
-6.42122e-10
-1.43066e-09
6.46784e-09
-3.12642e-09
7.34488e-09
-1.17726e-08
-1.57559e-08
-2.75786e-08
1.86233e-09
-1.53723e-08
1.85707e-08
3.15439e-09
-8.72779e-09
-1.04448e-08
-2.06874e-08
-9.21539e-09
-1.50684e-09
3.83204e-09
1.12124e-08
1.10341e-08
7.10725e-09
5.13355e-09
1.06224e-09
8.45733e-09
1.07511e-09
3.23316e-09
6.85946e-10
-1.85635e-09
1.63436e-08
-2.05527e-09
2.26976e-08
2.7198e-09
1.85384e-08
-1.53305e-09
6.3509e-09
-1.0225e-08
-4.2847e-08
-1.50458e-08
-3.55879e-08
-1.02683e-08
7.68891e-08
-4.32017e-08
-6.3841e-08
4.83981e-08
-2.44408e-08
-4.79925e-08
9.85484e-08
-6.18665e-08
1.74102e-07
-3.92023e-08
1.05813e-07
1.46997e-08
2.44297e-08
3.34601e-08
1.58035e-08
3.11074e-08
2.2136e-08
4.25544e-08
6.31731e-08
-5.46397e-09
1.20547e-07
-4.02063e-08
2.65851e-07
-8.55282e-08
4.61576e-07
-1.03921e-07
7.44679e-07
-3.75287e-08
1.52036e-06
5.18154e-07
5.38508e-06
1.75258e-06
1.51836e-05
2.35694e-06
2.83327e-05
-6.02813e-07
3.65949e-05
-3.742e-06
0.000134239
-3.57682e-06
0.000365013
-2.23879e-06
0.000545056
2.90884e-05
0.000903733
2.83428e-07
0.00127532
1.05733e-05
0.00149516
4.14189e-07
0.00153247
5.08587e-06
0.00161388
-1.66583e-05
0.0015062
8.22786e-06
0.00139874
-7.58014e-06
0.00129356
-1.6884e-05
0.0010501
-1.37695e-05
0.000668734
-4.32975e-06
0.000349663
9.77339e-06
0.000184509
4.4677e-06
8.68102e-05
2.35992e-06
3.96266e-05
1.58192e-06
1.78864e-05
4.62229e-07
7.28492e-06
1.08282e-07
3.23574e-06
-1.14942e-07
1.43359e-06
-3.04968e-08
5.8983e-07
8.61217e-09
2.15861e-07
4.41501e-09
7.97517e-08
-6.0774e-10
2.67792e-08
3.54565e-10
7.36448e-09
1.97486e-10
1.99118e-09
-5.90153e-10
4.8496e-10
-3.595e-10
3.10847e-10
-1.58893e-10
2.97664e-10
-4.56305e-11
1.86292e-10
9.73557e-12
1.058e-10
8.51983e-12
5.29623e-11
4.21607e-12
2.56832e-11
1.71837e-12
1.02973e-11
7.02693e-13
3.8983e-12
1.50037e-13
1.62372e-12
1.49568e-14
6.87566e-13
2.45429e-14
2.66509e-13
-2.6975e-16
6.86881e-14
3.33154e-15
-5.89962e-14
4.71238e-15
-2.29617e-13
7.08374e-15
-5.7632e-13
1.68494e-14
-1.21085e-12
4.2028e-14
-2.80314e-12
5.57531e-14
-6.07431e-12
5.36803e-13
-1.01511e-11
1.35345e-12
-2.00984e-11
1.30985e-12
-3.66826e-11
1.94472e-12
-5.59008e-11
1.25111e-12
1.04118e-11
9.94567e-12
2.12972e-10
2.90064e-12
3.64507e-12
-2.41464e-13
-7.29483e-11
5.60596e-11
2.82372e-10
1.31036e-10
1.90562e-10
3.07842e-11
-2.48525e-11
-1.14379e-11
-2.83809e-12
-5.38372e-09
-4.77255e-10
-8.11172e-09
-8.96225e-10
-9.68489e-09
-1.65674e-09
-9.60276e-09
-9.34844e-09
-7.09783e-09
-1.6088e-08
1.81435e-08
-2.36777e-08
3.18018e-08
-2.26089e-08
-4.76664e-09
-1.19737e-08
-4.68866e-09
-1.59849e-08
1.08441e-08
-2.89449e-09
-2.13476e-08
-9.77167e-09
-1.14667e-08
-1.34426e-08
-1.47253e-09
8.2486e-09
-1.31666e-08
2.17075e-08
-3.79388e-09
5.87971e-09
6.21396e-09
3.17338e-09
9.57872e-09
-1.98645e-09
1.47203e-08
-3.60701e-10
1.25485e-08
-5.32126e-09
4.09716e-09
-1.1967e-08
1.08565e-10
-3.07689e-08
-1.5156e-08
-4.59197e-08
-1.75957e-08
6.9966e-09
-4.77413e-08
-2.2521e-08
-7.26217e-08
-4.38452e-08
-3.00801e-08
-6.16956e-08
-4.13806e-08
-4.8805e-10
-1.81268e-08
-2.45037e-08
-5.1906e-09
5.65594e-08
5.48561e-09
2.0248e-09
1.08538e-07
-6.43252e-08
1.28919e-07
-8.82276e-08
3.29024e-08
-7.88663e-08
6.02998e-08
1.97523e-08
5.7554e-08
4.85643e-08
-4.21745e-08
3.34021e-08
6.161e-07
-6.27567e-08
2.87993e-06
8.48991e-09
7.95326e-06
-2.83653e-07
1.16389e-05
1.77653e-06
1.73897e-05
6.10099e-06
4.86361e-05
6.21514e-06
0.000132082
6.18647e-06
0.0002795
7.52051e-06
0.000589448
-5.46024e-06
0.000907144
5.91788e-06
0.00126343
-4.3828e-06
0.00146814
8.07357e-07
0.00157553
6.3824e-07
0.00157428
-1.82105e-06
0.00147612
-2.9617e-06
0.00142262
-1.05345e-05
0.001317
-1.06513e-05
0.0010574
-1.64214e-06
0.000642533
1.00012e-05
0.000337289
-1.09484e-07
0.000178536
1.11819e-06
8.37119e-05
1.40033e-06
4.00515e-05
6.62941e-07
1.88269e-05
3.77335e-07
8.24735e-06
3.09212e-07
3.57811e-06
-1.07806e-07
1.44828e-06
7.20775e-08
6.02178e-07
2.18147e-08
2.18088e-07
1.33541e-08
8.18943e-08
8.02679e-10
3.02568e-08
5.8484e-11
1.0257e-08
-2.85498e-10
4.03539e-09
-1.14648e-09
1.56724e-09
1.40578e-10
7.19754e-10
5.68233e-12
3.69374e-10
2.89049e-11
1.8573e-10
2.57737e-11
9.683e-11
1.26397e-11
4.99543e-11
6.45899e-12
2.2785e-11
2.931e-12
9.5203e-12
1.7362e-12
3.74244e-12
6.46791e-13
1.69257e-12
1.95014e-13
7.64552e-13
8.55835e-14
2.7092e-13
3.5639e-14
6.92727e-14
1.11794e-14
-5.03347e-14
1.07787e-14
-2.04149e-13
1.77367e-14
-4.96778e-13
4.36994e-14
-9.94128e-13
9.73232e-14
-2.27537e-12
2.65178e-13
-4.22583e-12
7.1694e-13
-6.56384e-12
1.45069e-12
-1.20895e-11
3.22024e-12
-1.77271e-11
6.84112e-12
-2.00197e-11
8.88229e-12
2.11002e-11
9.36913e-12
7.68596e-11
8.67857e-12
1.01497e-10
-4.58496e-11
2.10127e-10
-6.83808e-12
2.49127e-10
5.86245e-11
5.09566e-11
-2.37843e-12
-3.89306e-11
-3.58223e-11
-2.63528e-11
-6.3021e-09
5.756e-10
-1.15744e-08
2.29302e-09
-2.42625e-08
1.32724e-10
-4.25366e-08
-7.21752e-09
-5.72121e-08
3.32925e-09
-1.05463e-08
4.87175e-09
4.21425e-08
-1.79167e-09
3.14725e-08
-3.62001e-08
4.06284e-08
-6.38217e-08
5.58115e-08
-1.12124e-09
2.18729e-08
1.71521e-08
-1.77052e-08
-1.95124e-08
-2.25911e-08
-1.78586e-08
-5.8886e-08
2.15196e-08
-4.26143e-08
2.5337e-08
9.31473e-10
7.27259e-10
5.14634e-09
-1.07216e-09
-8.64258e-09
-9.69558e-09
-8.89135e-09
-2.35136e-08
4.59477e-09
-2.2828e-08
3.56088e-08
-3.47784e-09
5.86841e-08
-1.52513e-09
8.26857e-08
3.00019e-08
-1.18734e-08
3.1653e-08
-4.51947e-08
-1.52024e-08
1.20375e-09
6.33233e-08
1.02464e-07
1.67021e-09
7.29133e-08
-6.93912e-08
-1.29811e-07
-7.67521e-08
1.75285e-08
-9.55776e-08
6.45417e-08
-9.62304e-09
-1.54817e-07
1.23198e-07
-1.38981e-07
4.26882e-08
-7.06008e-08
-4.54112e-08
-8.96615e-08
-1.06175e-07
1.42951e-08
-6.80831e-09
6.9655e-07
6.31085e-09
2.50478e-06
-1.59344e-07
5.88451e-06
-5.70831e-08
1.62585e-05
7.40586e-08
3.24561e-05
4.62034e-07
7.77003e-05
1.68915e-06
0.000167156
5.46526e-06
0.000353339
4.40167e-06
0.000603451
-3.74571e-06
0.000949909
-1.36772e-06
0.00124958
1.08294e-05
0.00146618
1.97538e-05
0.00158612
-9.3569e-06
0.00154398
-1.73803e-05
0.00146851
-2.72211e-05
0.00141556
5.87553e-07
0.00128984
2.0009e-06
0.00103179
3.09977e-06
0.000649127
2.25328e-06
0.000339779
1.53564e-06
0.000180808
-8.45582e-07
8.60481e-05
5.47345e-07
4.01877e-05
4.65546e-07
1.67866e-05
-3.60933e-08
7.26813e-06
7.69872e-08
3.15587e-06
4.36676e-08
1.3326e-06
6.15774e-08
5.36093e-07
1.4717e-08
2.15829e-07
5.72888e-09
8.20044e-08
1.31465e-09
3.44057e-08
-1.02414e-09
1.48633e-08
-3.29026e-10
4.2551e-09
-3.5218e-11
1.59619e-09
-5.84414e-11
7.0943e-10
-9.65447e-12
3.36207e-10
1.24786e-11
1.60104e-10
1.61712e-11
7.56387e-11
7.45855e-12
3.53468e-11
3.91327e-12
1.53284e-11
2.06953e-12
6.82766e-12
9.43867e-13
2.76879e-12
4.48503e-13
1.25372e-12
1.48607e-13
5.4115e-13
7.09311e-14
1.93085e-13
3.96532e-14
5.08014e-14
1.21327e-14
-2.84547e-14
7.87651e-15
-1.25169e-13
1.59647e-14
-2.94736e-13
3.55185e-14
-6.11304e-13
7.67051e-14
-1.18702e-12
1.59157e-13
-1.93332e-12
3.24928e-13
-2.61517e-12
7.25685e-13
-3.32847e-12
1.31622e-12
-2.4287e-12
2.16948e-12
1.54251e-12
4.30672e-12
7.16514e-12
2.30788e-12
3.36327e-11
3.76164e-12
2.00607e-11
-1.95367e-12
2.06585e-11
-1.10607e-11
4.93882e-12
-2.57343e-12
-1.17404e-11
-1.65717e-11
-3.21174e-11
-1.89352e-11
-1.88251e-11
3.46945e-09
-1.39613e-09
-5.41151e-10
-6.00466e-10
-1.95644e-08
4.08857e-09
-3.6303e-08
1.25481e-08
3.0001e-08
4.73512e-08
4.87576e-08
2.29703e-08
6.75155e-08
1.39947e-08
1.33152e-08
-1.53718e-08
-2.47705e-09
-4.15887e-08
-3.14698e-08
6.09635e-08
-3.71947e-08
8.61055e-08
-4.58344e-08
5.8928e-08
-3.57553e-08
-1.35908e-08
-1.16094e-07
-6.57683e-08
-4.48508e-08
-2.85738e-08
-3.8484e-08
-2.06403e-09
-4.2441e-08
-4.44958e-09
-3.45501e-08
-1.36289e-08
-4.98101e-08
4.23059e-09
-3.53253e-09
5.33944e-08
-3.93714e-08
1.04578e-07
-1.30121e-08
4.60094e-08
1.03914e-07
-5.12557e-08
8.98528e-08
-6.13708e-09
-6.54259e-08
1.07426e-07
1.32112e-07
4.26319e-08
1.90658e-07
-4.97971e-08
2.27796e-08
1.33933e-08
-1.12204e-07
1.60408e-08
-1.11395e-08
1.09688e-07
1.02491e-07
3.13063e-08
-5.14076e-09
-1.56164e-07
7.38979e-08
-2.81055e-07
1.65141e-07
-1.87305e-07
2.09348e-07
5.96507e-08
3.80983e-07
1.96523e-07
1.15411e-06
7.38844e-08
2.55993e-06
7.28849e-08
6.81148e-06
-9.19681e-08
1.5928e-05
4.72519e-07
2.89449e-05
3.17738e-06
9.72429e-05
-3.16748e-06
0.000187324
1.19624e-06
0.000352753
1.27283e-06
0.000614045
1.4041e-05
0.000958704
5.78369e-06
0.00129875
4.90691e-06
0.00146558
-6.44831e-07
0.00154089
-7.90303e-06
0.00156316
9.01665e-07
0.00145437
-3.35284e-06
0.00138938
7.78118e-06
0.00125318
8.56721e-06
0.000993271
2.20579e-06
0.000614017
-8.77335e-06
0.000329089
-7.23472e-06
0.000172168
-6.95179e-06
7.94217e-05
-3.45431e-08
3.71175e-05
-8.12751e-07
1.47545e-05
-2.36146e-07
5.98524e-06
-2.81491e-07
2.58451e-06
-3.16259e-07
1.16752e-06
-1.00049e-07
4.79177e-07
-3.15295e-08
1.97021e-07
-1.42829e-08
8.12206e-08
-5.14367e-09
3.30556e-08
-2.65431e-09
1.30904e-08
-7.26659e-10
4.63888e-09
-1.99498e-10
1.82272e-09
-1.63683e-10
7.46961e-10
-3.31528e-11
3.22495e-10
-1.40767e-11
1.47685e-10
-1.90904e-12
6.49346e-11
8.31814e-13
2.82814e-11
1.26495e-12
1.22427e-11
7.45496e-13
5.2997e-12
3.34203e-13
2.25278e-12
1.58547e-13
8.94451e-13
7.19797e-14
3.57115e-13
2.75405e-14
1.41526e-13
1.21916e-14
4.38434e-14
5.578e-15
-1.0679e-14
4.18502e-15
-6.55691e-14
7.97452e-15
-1.4439e-13
1.90507e-14
-2.68013e-13
4.32163e-14
-4.19807e-13
8.81109e-14
-5.58633e-13
1.48776e-13
-1.91519e-13
2.05664e-13
5.74565e-13
2.87137e-13
1.52719e-12
4.23477e-13
5.0767e-12
4.67749e-13
4.87316e-12
1.00593e-12
5.27325e-12
1.02445e-12
1.36655e-11
-1.17057e-12
7.55279e-12
-3.42565e-12
6.46988e-12
-4.29327e-12
-1.62232e-12
-5.02713e-12
-5.27887e-12
-4.86035e-12
-5.10414e-12
4.58362e-09
-5.52133e-09
-1.18734e-08
2.26275e-08
1.19111e-07
1.09058e-07
5.43339e-08
2.44985e-07
-2.49526e-08
-1.79468e-08
-1.53672e-07
-8.02228e-08
5.65979e-08
5.29439e-08
-8.36975e-09
-8.20854e-08
-1.18917e-07
-5.98432e-08
4.13699e-08
-9.00954e-09
-1.54497e-07
-1.13084e-07
-5.47763e-08
1.84508e-08
2.35886e-08
-1.1076e-07
-1.18555e-07
-4.21179e-08
-6.47917e-09
8.07046e-08
-1.44367e-08
-2.59361e-07
-2.14959e-07
4.50822e-08
9.36531e-08
3.09828e-07
8.4284e-07
3.35707e-06
7.12881e-06
1.90148e-05
4.15981e-05
8.51737e-05
0.000179311
0.000345112
0.000644415
0.00101291
0.00136123
0.00150047
0.00153055
0.00160316
0.0015067
0.0014199
0.00129582
0.00103606
0.00066035
0.00036276
0.000183344
8.37046e-05
3.77844e-05
1.69173e-05
7.523e-06
3.17546e-06
1.34814e-06
5.69528e-07
2.26471e-07
9.29542e-08
3.70675e-08
1.49894e-08
5.6199e-09
2.17328e-09
8.5635e-10
3.68472e-10
1.60852e-10
6.45657e-11
2.73325e-11
1.16306e-11
4.88094e-12
2.07746e-12
8.66697e-13
3.50758e-13
1.35359e-13
4.56024e-14
3.50414e-16
-3.54022e-14
-7.40501e-14
-1.19019e-13
-1.3111e-13
-7.60659e-14
1.30607e-13
6.748e-13
1.56388e-12
2.37142e-12
4.06587e-12
6.1344e-12
5.81877e-12
2.80124e-12
2.81438e-13
-5.91336e-13
-1.79469e-12
)
;

boundaryField
{
    sides1
    {
        type            calculated;
        value           nonuniform List<scalar> 
20
(
-1.30166e-12
-1.34769e-12
-5.16016e-12
-1.24642e-11
-1.08284e-11
-7.56963e-11
-3.95839e-11
-2.49702e-11
-5.8554e-12
-1.79402e-12
-1.96551e-09
-7.29648e-10
-9.95127e-10
-4.30934e-10
7.68632e-11
7.23724e-10
3.3133e-09
3.65468e-09
-5.83118e-09
-1.13278e-08
)
;
    }
    sides2
    {
        type            calculated;
        value           uniform 0;
    }
    empty
    {
        type            empty;
        value           nonuniform 0();
    }
}


// ************************************************************************* //
