/*--------------------------------*- C++ -*----------------------------------*\
| =========                 |                                                 |
| \\      /  F ield         | OpenFOAM: The Open Source CFD Toolbox           |
|  \\    /   O peration     | Version:  3.0.1                                 |
|   \\  /    A nd           | Web:      www.OpenFOAM.org                      |
|    \\/     M anipulation  |                                                 |
\*---------------------------------------------------------------------------*/
FoamFile
{
    version     2.0;
    format      ascii;
    class       volScalarField;
    location    "5e-05";
    object      rho;
}
// * * * * * * * * * * * * * * * * * * * * * * * * * * * * * * * * * * * * * //

dimensions      [1 -3 0 0 0 0 0];

internalField   nonuniform List<scalar> 
1000
(
0.83124
0.83124
0.831239
0.831239
0.83124
0.831241
0.831242
0.83124
0.831237
0.831238
0.831241
0.83124
0.831238
0.831236
0.831241
0.831249
0.831251
0.831237
0.831232
0.831242
0.831247
0.83124
0.831238
0.83124
0.831239
0.831237
0.83124
0.831243
0.83124
0.831237
0.831239
0.831241
0.831239
0.831237
0.831234
0.831227
0.831195
0.831133
0.83099
0.830659
0.83001
0.828854
0.826486
0.82224
0.815756
0.805615
0.796726
0.790623
0.784542
0.776067
0.766058
0.761017
0.752351
0.740564
0.730886
0.726336
0.720639
0.715499
0.712981
0.711637
0.711117
0.710884
0.710789
0.710746
0.710729
0.710723
0.71072
0.710719
0.710718
0.710718
0.710718
0.710718
0.710718
0.710718
0.710718
0.710718
0.710718
0.710718
0.710718
0.710718
0.710718
0.710718
0.710718
0.710718
0.710718
0.710718
0.710718
0.710718
0.710718
0.710718
0.710718
0.710718
0.710718
0.710718
0.710718
0.710718
0.710718
0.710718
0.710718
0.710718
0.83124
0.83124
0.831239
0.831239
0.83124
0.831241
0.831243
0.83124
0.831238
0.831239
0.83124
0.831239
0.831239
0.83124
0.83124
0.831243
0.831238
0.831233
0.831234
0.831239
0.831242
0.83124
0.831239
0.83124
0.831238
0.831236
0.831239
0.831243
0.83124
0.831238
0.831242
0.831244
0.83124
0.831235
0.831233
0.831225
0.831199
0.831142
0.830998
0.830699
0.829998
0.828879
0.826737
0.82299
0.818818
0.808578
0.795374
0.78688
0.784099
0.779277
0.769091
0.761179
0.751374
0.740194
0.730705
0.72694
0.72051
0.715361
0.712807
0.711618
0.711087
0.71088
0.710785
0.710744
0.710729
0.710723
0.71072
0.710719
0.710718
0.710718
0.710718
0.710718
0.710718
0.710718
0.710718
0.710718
0.710718
0.710718
0.710718
0.710718
0.710718
0.710718
0.710718
0.710718
0.710718
0.710718
0.710718
0.710718
0.710718
0.710718
0.710718
0.710718
0.710718
0.710718
0.710718
0.710718
0.710718
0.710718
0.710718
0.710718
0.83124
0.83124
0.83124
0.83124
0.83124
0.831241
0.831241
0.831238
0.831236
0.831239
0.831242
0.831241
0.831241
0.831241
0.83124
0.83124
0.831238
0.831238
0.831238
0.831238
0.831238
0.831239
0.831239
0.831241
0.83124
0.831239
0.83124
0.83124
0.831238
0.831238
0.83124
0.831241
0.831239
0.831235
0.831231
0.831225
0.83121
0.831146
0.830996
0.830718
0.830056
0.828751
0.826521
0.824005
0.820845
0.812539
0.795693
0.784119
0.781463
0.77784
0.768476
0.757959
0.750934
0.743286
0.734288
0.727115
0.720167
0.715216
0.712734
0.711599
0.711112
0.710879
0.710786
0.710745
0.710729
0.710723
0.71072
0.710719
0.710718
0.710718
0.710718
0.710718
0.710718
0.710718
0.710718
0.710718
0.710718
0.710718
0.710718
0.710718
0.710718
0.710718
0.710718
0.710718
0.710718
0.710718
0.710718
0.710718
0.710718
0.710718
0.710718
0.710718
0.710718
0.710718
0.710718
0.710718
0.710718
0.710718
0.710718
0.710718
0.83124
0.83124
0.83124
0.83124
0.83124
0.831241
0.831241
0.831238
0.831236
0.831237
0.83124
0.831242
0.831242
0.83124
0.83124
0.83124
0.83124
0.83124
0.83124
0.83124
0.831239
0.831239
0.831239
0.83124
0.831241
0.831242
0.831243
0.831241
0.831239
0.831239
0.83124
0.831239
0.831237
0.831237
0.831235
0.831228
0.831213
0.831156
0.831053
0.830759
0.830264
0.829142
0.826656
0.823341
0.818662
0.810348
0.796542
0.784193
0.780167
0.779091
0.76972
0.757047
0.749955
0.745217
0.736064
0.726497
0.719213
0.715077
0.712817
0.711597
0.711102
0.710879
0.710786
0.710745
0.710729
0.710723
0.71072
0.710719
0.710718
0.710718
0.710718
0.710718
0.710718
0.710718
0.710718
0.710718
0.710718
0.710718
0.710718
0.710718
0.710718
0.710718
0.710718
0.710718
0.710718
0.710718
0.710718
0.710718
0.710718
0.710718
0.710718
0.710718
0.710718
0.710718
0.710718
0.710718
0.710718
0.710718
0.710718
0.710718
0.83124
0.83124
0.83124
0.83124
0.83124
0.83124
0.831241
0.831241
0.83124
0.831236
0.831237
0.831241
0.831242
0.831241
0.83124
0.83124
0.83124
0.83124
0.83124
0.83124
0.831239
0.831239
0.831241
0.831238
0.831236
0.831241
0.831247
0.831245
0.831241
0.83124
0.83124
0.831238
0.831236
0.831238
0.831238
0.831234
0.831217
0.831192
0.831142
0.830945
0.830434
0.829341
0.82687
0.822959
0.817687
0.8068
0.794313
0.783064
0.778576
0.780096
0.77151
0.757547
0.749989
0.744338
0.735425
0.726674
0.719007
0.714959
0.71277
0.711599
0.711087
0.710877
0.710786
0.710746
0.71073
0.710723
0.71072
0.710719
0.710718
0.710718
0.710718
0.710718
0.710718
0.710718
0.710718
0.710718
0.710718
0.710718
0.710718
0.710718
0.710718
0.710718
0.710718
0.710718
0.710718
0.710718
0.710718
0.710718
0.710718
0.710718
0.710718
0.710718
0.710718
0.710718
0.710718
0.710718
0.710718
0.710718
0.710718
0.710718
0.83124
0.83124
0.83124
0.83124
0.83124
0.831239
0.83124
0.831244
0.831245
0.83124
0.831237
0.831239
0.831241
0.831241
0.83124
0.83124
0.831239
0.831239
0.831239
0.831239
0.83124
0.831241
0.831243
0.831239
0.83123
0.83123
0.831237
0.831243
0.831245
0.831244
0.831241
0.831236
0.831233
0.831236
0.831235
0.831232
0.831232
0.831219
0.831151
0.831015
0.830674
0.829708
0.826793
0.823175
0.818227
0.807205
0.795471
0.786427
0.781865
0.780219
0.770113
0.756743
0.749411
0.743945
0.736234
0.726724
0.719034
0.715064
0.71271
0.711601
0.711112
0.710876
0.710785
0.710747
0.71073
0.710723
0.71072
0.710719
0.710718
0.710718
0.710718
0.710718
0.710718
0.710718
0.710718
0.710718
0.710718
0.710718
0.710718
0.710718
0.710718
0.710718
0.710718
0.710718
0.710718
0.710718
0.710718
0.710718
0.710718
0.710718
0.710718
0.710718
0.710718
0.710718
0.710718
0.710718
0.710718
0.710718
0.710718
0.710718
0.83124
0.83124
0.83124
0.83124
0.83124
0.83124
0.831239
0.83124
0.831242
0.831243
0.831241
0.83124
0.83124
0.831239
0.831239
0.831239
0.83124
0.83124
0.83124
0.83124
0.831241
0.831242
0.831242
0.83124
0.831237
0.83124
0.831244
0.831243
0.83124
0.831242
0.831239
0.831233
0.831236
0.831247
0.831249
0.831245
0.831233
0.831178
0.831017
0.830912
0.831036
0.830567
0.827985
0.823677
0.816306
0.807425
0.797042
0.790749
0.78576
0.777432
0.765269
0.75452
0.749437
0.744427
0.737022
0.726389
0.718729
0.714993
0.712606
0.711588
0.71111
0.710888
0.710789
0.710747
0.71073
0.710722
0.71072
0.710719
0.710718
0.710718
0.710718
0.710718
0.710718
0.710718
0.710718
0.710718
0.710718
0.710718
0.710718
0.710718
0.710718
0.710718
0.710718
0.710718
0.710718
0.710718
0.710718
0.710718
0.710718
0.710718
0.710718
0.710718
0.710718
0.710718
0.710718
0.710718
0.710718
0.710718
0.710718
0.710718
0.83124
0.83124
0.83124
0.831241
0.831241
0.83124
0.831236
0.831236
0.831238
0.831242
0.831242
0.831243
0.831241
0.831237
0.831238
0.831239
0.83124
0.831241
0.831242
0.831243
0.831241
0.831239
0.831237
0.831235
0.831245
0.831255
0.831249
0.831231
0.831231
0.831242
0.831244
0.831236
0.831235
0.831242
0.831242
0.831239
0.831235
0.831171
0.831019
0.830791
0.830628
0.829669
0.827588
0.823275
0.816859
0.806897
0.796669
0.790622
0.785542
0.776794
0.763976
0.754631
0.750301
0.744921
0.736687
0.726457
0.718734
0.714783
0.712583
0.711601
0.711086
0.71087
0.710784
0.710745
0.710729
0.710722
0.71072
0.710719
0.710718
0.710718
0.710718
0.710718
0.710718
0.710718
0.710718
0.710718
0.710718
0.710718
0.710718
0.710718
0.710718
0.710718
0.710718
0.710718
0.710718
0.710718
0.710718
0.710718
0.710718
0.710718
0.710718
0.710718
0.710718
0.710718
0.710718
0.710718
0.710718
0.710718
0.710718
0.710718
0.83124
0.83124
0.831241
0.831242
0.831242
0.831237
0.831233
0.831237
0.831243
0.83124
0.831239
0.831245
0.831246
0.83124
0.831236
0.831235
0.831238
0.831244
0.831245
0.83124
0.831236
0.831239
0.831238
0.831231
0.831233
0.831246
0.831247
0.831238
0.831243
0.831253
0.831241
0.831224
0.831225
0.831243
0.831246
0.831237
0.831232
0.831189
0.831057
0.830832
0.830548
0.829209
0.827344
0.82347
0.817035
0.80686
0.795086
0.787995
0.784857
0.778991
0.767482
0.755971
0.750271
0.744815
0.736463
0.726145
0.718739
0.714738
0.712538
0.711563
0.711065
0.710861
0.710777
0.710744
0.710728
0.710722
0.71072
0.710719
0.710718
0.710718
0.710718
0.710718
0.710718
0.710718
0.710718
0.710718
0.710718
0.710718
0.710718
0.710718
0.710718
0.710718
0.710718
0.710718
0.710718
0.710718
0.710718
0.710718
0.710718
0.710718
0.710718
0.710718
0.710718
0.710718
0.710718
0.710718
0.710718
0.710718
0.710718
0.710718
0.83124
0.83124
0.831241
0.831242
0.831239
0.831234
0.831237
0.831247
0.83126
0.831232
0.831222
0.831236
0.831251
0.83125
0.831238
0.83123
0.831238
0.831246
0.831244
0.831232
0.831228
0.831244
0.831256
0.831247
0.831232
0.831233
0.831241
0.831237
0.831234
0.831235
0.831234
0.831242
0.831261
0.831268
0.831233
0.831185
0.831195
0.831178
0.831095
0.830792
0.83036
0.82926
0.827107
0.823305
0.816396
0.80651
0.794528
0.786307
0.782641
0.779549
0.769206
0.756972
0.749886
0.744256
0.736433
0.726375
0.719176
0.714993
0.712606
0.711554
0.711079
0.710873
0.710783
0.710745
0.710729
0.710722
0.71072
0.710719
0.710718
0.710718
0.710718
0.710718
0.710718
0.710718
0.710718
0.710718
0.710718
0.710718
0.710718
0.710718
0.710718
0.710718
0.710718
0.710718
0.710718
0.710718
0.710718
0.710718
0.710718
0.710718
0.710718
0.710718
0.710718
0.710718
0.710718
0.710718
0.710718
0.710718
0.710718
0.710718
)
;

boundaryField
{
    sides1
    {
        type            calculated;
        value           nonuniform List<scalar> 
20
(
0.710718
0.710718
0.710718
0.710718
0.710718
0.710718
0.710718
0.710718
0.710718
0.710718
0.83124
0.83124
0.83124
0.83124
0.83124
0.83124
0.83124
0.83124
0.83124
0.83124
)
;
    }
    sides2
    {
        type            calculated;
        value           nonuniform List<scalar> 
200
(
0.83124
0.83124
0.831239
0.831239
0.83124
0.831241
0.831242
0.83124
0.831237
0.831238
0.831241
0.83124
0.831238
0.831236
0.831241
0.831249
0.831251
0.831237
0.831232
0.831242
0.831247
0.83124
0.831238
0.83124
0.831239
0.831237
0.83124
0.831243
0.83124
0.831237
0.831239
0.831241
0.831239
0.831237
0.831234
0.831227
0.831195
0.831133
0.83099
0.830659
0.83001
0.828854
0.826486
0.82224
0.815756
0.805615
0.796726
0.790623
0.784542
0.776067
0.766058
0.761017
0.752351
0.740564
0.730886
0.726336
0.720639
0.715499
0.712981
0.711637
0.711117
0.710884
0.710789
0.710746
0.710729
0.710723
0.71072
0.710719
0.710718
0.710718
0.710718
0.710718
0.710718
0.710718
0.710718
0.710718
0.710718
0.710718
0.710718
0.710718
0.710718
0.710718
0.710718
0.710718
0.710718
0.710718
0.710718
0.710718
0.710718
0.710718
0.710718
0.710718
0.710718
0.710718
0.710718
0.710718
0.710718
0.710718
0.710718
0.710718
0.83124
0.83124
0.831241
0.831242
0.831239
0.831234
0.831237
0.831247
0.83126
0.831232
0.831222
0.831236
0.831251
0.83125
0.831238
0.83123
0.831238
0.831246
0.831244
0.831232
0.831228
0.831244
0.831256
0.831247
0.831232
0.831233
0.831241
0.831237
0.831234
0.831235
0.831234
0.831242
0.831261
0.831268
0.831233
0.831185
0.831195
0.831178
0.831095
0.830792
0.83036
0.82926
0.827107
0.823305
0.816396
0.80651
0.794528
0.786307
0.782641
0.779549
0.769206
0.756972
0.749886
0.744256
0.736433
0.726375
0.719176
0.714993
0.712606
0.711554
0.711079
0.710873
0.710783
0.710745
0.710729
0.710722
0.71072
0.710719
0.710718
0.710718
0.710718
0.710718
0.710718
0.710718
0.710718
0.710718
0.710718
0.710718
0.710718
0.710718
0.710718
0.710718
0.710718
0.710718
0.710718
0.710718
0.710718
0.710718
0.710718
0.710718
0.710718
0.710718
0.710718
0.710718
0.710718
0.710718
0.710718
0.710718
0.710718
0.710718
)
;
    }
    empty
    {
        type            empty;
    }
}


// ************************************************************************* //
