/*--------------------------------*- C++ -*----------------------------------*\
| =========                 |                                                 |
| \\      /  F ield         | OpenFOAM: The Open Source CFD Toolbox           |
|  \\    /   O peration     | Version:  3.0.1                                 |
|   \\  /    A nd           | Web:      www.OpenFOAM.org                      |
|    \\/     M anipulation  |                                                 |
\*---------------------------------------------------------------------------*/
FoamFile
{
    version     2.0;
    format      ascii;
    class       volVectorField;
    location    "5e-05";
    object      U;
}
// * * * * * * * * * * * * * * * * * * * * * * * * * * * * * * * * * * * * * //

dimensions      [0 1 -1 0 0 0 0];

internalField   nonuniform List<vector> 
1000
(
(2.25922e-05 1.74921e-05 0)
(6.99366e-05 9.7897e-06 0)
(0.000143614 -5.10289e-06 0)
(0.000160645 -1.7645e-05 0)
(0.00017994 4.66048e-05 0)
(2.67756e-05 7.43172e-05 0)
(-0.000578551 0.000269915 0)
(-0.00065102 0.000264452 0)
(-0.000606695 0.000248395 0)
(-0.000291695 0.0001542 0)
(-0.000183847 -0.000156025 0)
(-2.92606e-05 -0.000156884 0)
(0.000744065 -7.47408e-05 0)
(0.00156378 0.000471263 0)
(0.00207388 -0.000332682 0)
(0.00215673 -0.00256791 0)
(0.000982528 -0.00286341 0)
(-0.0014527 -0.000655857 0)
(-0.00014692 -0.000561661 0)
(0.000272956 -0.00055051 0)
(-0.000498534 -0.000425736 0)
(-0.00100872 0.000168281 0)
(0.000324892 0.000178084 0)
(-0.000152024 -0.000360243 0)
(-0.000272625 -0.000419684 0)
(-6.99777e-05 -0.000310196 0)
(8.50352e-05 -0.000187697 0)
(2.48069e-05 -7.24087e-05 0)
(-0.000235171 0.000184916 0)
(-0.000131634 0.000454656 0)
(0.000116999 0.000550526 0)
(2.63574e-05 0.000459763 0)
(9.70172e-06 0.000346016 0)
(0.000617995 0.000166273 0)
(0.00186176 -4.41952e-05 0)
(0.00363869 -8.969e-05 0)
(0.0139688 0.000132831 0)
(0.0305579 -0.000385004 0)
(0.0775682 -0.00131417 0)
(0.180642 -0.00228731 0)
(0.415292 -0.00267554 0)
(0.833312 0.0116806 0)
(1.55658 0.0110992 0)
(3.11032 0.0921263 0)
(5.67218 0.0234696 0)
(9.74825 -0.0450641 0)
(13.3065 -0.376208 0)
(14.9672 -0.349235 0)
(16.3674 -0.822492 0)
(15.9354 1.98116 0)
(16.0568 0.927718 0)
(14.9675 0.295493 0)
(13.1842 0.172706 0)
(13.8276 0.15071 0)
(9.27652 0.116439 0)
(6.1652 0.333402 0)
(3.66832 0.0526448 0)
(1.92144 0.0261962 0)
(0.834292 0.00181519 0)
(0.31369 -0.000492673 0)
(0.146653 0.0011689 0)
(0.0661329 -0.00094526 0)
(0.0234375 5.75891e-05 0)
(0.0102455 1.03016e-05 0)
(0.00424428 1.28556e-05 0)
(0.00163476 -4.83793e-06 0)
(0.000628333 3.71534e-06 0)
(0.000258262 3.59687e-06 0)
(0.000101298 4.92483e-07 0)
(4.1116e-05 2.70369e-07 0)
(1.63553e-05 -6.63514e-08 0)
(7.08e-06 -3.43004e-08 0)
(2.84423e-06 -6.66967e-08 0)
(1.1403e-06 -2.24762e-08 0)
(5.00742e-07 -1.34712e-08 0)
(2.0925e-07 -5.38367e-09 0)
(8.96119e-08 -2.09929e-09 0)
(3.69255e-08 -1.05608e-09 0)
(1.66971e-08 -3.96967e-10 0)
(7.07151e-09 -2.0305e-10 0)
(2.86982e-09 -6.86902e-11 0)
(1.09411e-09 -2.94816e-11 0)
(3.44692e-10 -1.07874e-11 0)
(-2.86073e-11 -7.1375e-12 0)
(-1.49326e-10 -1.36221e-11 0)
(-1.52255e-10 5.30719e-12 0)
(1.21559e-10 1.30548e-11 0)
(1.27083e-09 1.56833e-11 0)
(5.76546e-09 -9.57177e-11 0)
(1.24024e-08 -7.70691e-12 0)
(2.44377e-08 -2.1951e-10 0)
(4.04359e-08 -3.49955e-11 0)
(5.72334e-08 6.72289e-09 0)
(6.82953e-08 2.25274e-08 0)
(5.76839e-08 2.0651e-08 0)
(4.5714e-08 1.99182e-08 0)
(5.22155e-09 3.06782e-08 0)
(-1.59165e-08 3.53633e-08 0)
(-2.70281e-08 2.31022e-08 0)
(-1.6081e-08 2.80348e-08 0)
(9.39289e-06 1.33524e-05 0)
(4.34465e-05 5.87755e-06 0)
(0.000143111 -8.09034e-06 0)
(0.000161452 -1.41475e-05 0)
(0.000210632 -3.1569e-05 0)
(0.000118014 -6.72007e-05 0)
(-0.000344146 -0.000115665 0)
(-0.000595333 -0.000139027 0)
(-0.000421249 -6.65334e-06 0)
(-0.000261786 0.00015023 0)
(-0.000198623 0.000158201 0)
(-4.37097e-06 0.000139274 0)
(0.000330552 0.000127214 0)
(0.000656907 7.94404e-05 0)
(0.00148844 -0.000602596 0)
(0.00162829 -0.00218957 0)
(-0.000714886 -0.00215683 0)
(-0.00154786 -0.00196442 0)
(0.000382593 -0.000848127 0)
(0.000712845 -0.000722079 0)
(-0.000153624 -0.00090523 0)
(-0.000761471 0.000132614 0)
(0.00013526 -2.53862e-05 0)
(-0.000287441 -0.000195177 0)
(-0.000459338 -4.83363e-05 0)
(-4.75007e-05 -0.000110915 0)
(0.000217389 -0.00017057 0)
(0.000231129 -0.000294863 0)
(-7.10368e-05 -8.52433e-05 0)
(0.000454879 2.02294e-05 0)
(0.000288284 8.40062e-06 0)
(-7.79584e-05 -9.03276e-06 0)
(-0.000260379 -6.38775e-05 0)
(0.000450675 -5.91715e-06 0)
(0.00153074 -0.00022552 0)
(0.00362447 -0.000301017 0)
(0.0120865 -0.00108133 0)
(0.0264786 -0.000128645 0)
(0.0679191 -0.00107954 0)
(0.16881 -0.000457576 0)
(0.376747 -0.00125013 0)
(0.761671 0.0420921 0)
(1.45699 -0.0104125 0)
(2.78053 0.153463 0)
(4.94475 -0.00819103 0)
(8.58755 -0.459534 0)
(11.9469 -0.611708 0)
(14.6664 -0.460292 0)
(15.1292 -0.455861 0)
(15.9142 -0.472497 0)
(15.8417 0.26091 0)
(14.4606 0.0508552 0)
(12.9168 0.270627 0)
(12.8729 0.625039 0)
(8.8564 0.0254947 0)
(5.75 0.167559 0)
(3.38202 0.111576 0)
(1.6329 0.0590611 0)
(0.738998 0.00136312 0)
(0.303039 -0.00230646 0)
(0.132192 -0.00307528 0)
(0.0563353 -0.00100377 0)
(0.0220034 -0.000363072 0)
(0.00939149 -0.00010212 0)
(0.00396462 -3.85246e-05 0)
(0.00157071 -1.87305e-05 0)
(0.000553379 -9.01698e-06 0)
(0.00022052 -1.89564e-06 0)
(8.82166e-05 -2.2099e-06 0)
(3.60378e-05 -1.08272e-06 0)
(1.45754e-05 -6.5864e-07 0)
(6.74611e-06 -2.76682e-07 0)
(2.91425e-06 -3.59077e-07 0)
(1.27138e-06 -1.88233e-07 0)
(5.41201e-07 -1.03494e-07 0)
(2.40522e-07 -4.70187e-08 0)
(1.04917e-07 -2.27402e-08 0)
(4.39541e-08 -8.90044e-09 0)
(1.94305e-08 -3.66508e-09 0)
(8.19e-09 -1.49569e-09 0)
(3.35273e-09 -5.4502e-10 0)
(1.23996e-09 -2.07338e-10 0)
(2.73915e-10 -1.03694e-10 0)
(-6.15392e-11 -1.35824e-10 0)
(-3.68881e-10 -2.56368e-10 0)
(-6.34779e-10 -6.26062e-10 0)
(-6.86656e-10 -1.20647e-09 0)
(-3.1118e-10 -4.62285e-09 0)
(2.47183e-09 -7.55792e-09 0)
(1.0108e-08 -8.20982e-09 0)
(2.8045e-08 -1.18841e-08 0)
(6.33197e-08 -6.0304e-09 0)
(9.86684e-08 2.18334e-08 0)
(1.07083e-07 4.08415e-08 0)
(1.17636e-07 5.57483e-08 0)
(1.92486e-07 1.44273e-07 0)
(-1.19762e-09 1.86684e-07 0)
(-3.75984e-08 2.41202e-07 0)
(-7.65099e-08 3.08885e-07 0)
(-2.47165e-08 2.79898e-07 0)
(1.28059e-05 -6.22161e-06 0)
(4.95543e-05 -5.67232e-06 0)
(9.02209e-05 -1.32938e-05 0)
(9.97822e-05 -4.84461e-05 0)
(5.57846e-05 -4.60897e-05 0)
(-7.74072e-05 -9.02447e-05 0)
(-0.00044135 -0.000213134 0)
(-0.000206478 -0.000143155 0)
(7.23212e-05 -7.89159e-05 0)
(0.000198814 5.35857e-05 0)
(5.08972e-05 0.000216759 0)
(-7.32586e-05 0.000326241 0)
(0.000150238 0.000369663 0)
(-0.000229544 -0.000259217 0)
(-0.000185527 0.000154235 0)
(-4.05286e-05 0.000379971 0)
(0.000107319 -3.88881e-05 0)
(0.000247774 -0.000179558 0)
(-2.4347e-05 -9.3336e-05 0)
(0.00021829 -0.000136325 0)
(7.16421e-05 -0.000398478 0)
(0.000145002 -0.00017089 0)
(0.000229692 4.83742e-06 0)
(-6.19506e-05 9.56578e-05 0)
(-0.000250213 0.000162573 0)
(-0.000236041 8.13908e-05 0)
(-6.74401e-05 -9.18946e-05 0)
(-2.77087e-05 -0.000409941 0)
(-0.000261534 -0.000125872 0)
(0.000135505 -0.000102952 0)
(0.000218609 -0.000211778 0)
(3.11344e-05 -0.000272286 0)
(-1.63661e-05 -0.000239743 0)
(0.000725267 -0.000218264 0)
(0.00212961 -7.14279e-05 0)
(0.00650207 -0.000943502 0)
(0.0102907 -0.000981352 0)
(0.0308455 -0.000548594 0)
(0.0694028 -0.00241401 0)
(0.183196 -0.00406105 0)
(0.386598 -0.0221643 0)
(0.784599 0.0440274 0)
(1.52626 -0.110994 0)
(2.67046 -0.142623 0)
(4.29768 -0.275904 0)
(7.46031 -0.410076 0)
(10.9204 -0.0983509 0)
(13.9425 -0.420063 0)
(15.6368 -0.653624 0)
(16.3941 0.0836697 0)
(15.9825 0.505587 0)
(15.3213 0.250306 0)
(14.6774 0.332512 0)
(13.3488 0.953549 0)
(9.17119 -0.345147 0)
(6.70715 -0.0391427 0)
(3.64248 0.0884565 0)
(1.48054 -0.0210412 0)
(0.766781 -0.0129206 0)
(0.319514 0.00043817 0)
(0.142969 -0.00285107 0)
(0.0536087 -8.67168e-05 0)
(0.0242047 -0.000254861 0)
(0.00952278 -6.11113e-05 0)
(0.00446198 -9.81808e-05 0)
(0.00165369 1.13226e-06 0)
(0.000600093 -1.78886e-05 0)
(0.000229895 -2.28291e-06 0)
(8.52318e-05 -2.15737e-06 0)
(3.44019e-05 -1.55494e-06 0)
(1.42936e-05 -1.14207e-06 0)
(6.61669e-06 -7.14543e-07 0)
(3.30267e-06 -5.01876e-07 0)
(1.55615e-06 -3.08862e-07 0)
(7.18046e-07 -1.56555e-07 0)
(3.3545e-07 -7.09371e-08 0)
(1.45783e-07 -2.87225e-08 0)
(6.33137e-08 -1.21897e-08 0)
(2.56408e-08 -5.06465e-09 0)
(1.0242e-08 -1.72318e-09 0)
(4.11771e-09 -6.39711e-10 0)
(1.53659e-09 -2.45316e-10 0)
(9.48837e-11 -1.6692e-10 0)
(-3.29268e-10 -3.8167e-10 0)
(-1.58293e-09 -8.58157e-10 0)
(-3.58745e-09 -2.49026e-09 0)
(-7.15869e-09 -5.5865e-09 0)
(-1.37117e-08 -1.31639e-08 0)
(-2.19145e-08 -2.92744e-08 0)
(-2.11243e-08 -6.04273e-08 0)
(-3.22695e-08 -1.15804e-07 0)
(4.66834e-08 -1.62601e-07 0)
(7.42948e-08 -2.38854e-07 0)
(1.26479e-07 -1.72084e-07 0)
(2.64739e-07 -5.65054e-07 0)
(5.18644e-07 4.42027e-07 0)
(4.95893e-07 6.20334e-07 0)
(-4.7069e-07 3.77068e-07 0)
(-3.68261e-07 4.19345e-07 0)
(-1.12756e-07 3.06544e-07 0)
(6.66573e-06 -8.39981e-06 0)
(3.88004e-05 -1.05336e-05 0)
(4.85131e-05 -1.59602e-05 0)
(7.35717e-05 -4.50949e-05 0)
(7.88869e-05 -3.96993e-05 0)
(-8.67028e-05 -1.88396e-05 0)
(-0.00038323 -1.02048e-05 0)
(-0.000180584 0.000345007 0)
(0.000112703 0.000458284 0)
(0.000317228 6.24777e-05 0)
(0.000302853 -0.000145565 0)
(0.000518297 -2.55409e-05 0)
(-0.000315224 0.000184236 0)
(-0.000138088 0.000249182 0)
(-0.000118695 0.000290188 0)
(1.30524e-06 0.000348235 0)
(0.00020123 0.000318796 0)
(0.00016454 0.000329878 0)
(0.000251905 0.000294323 0)
(0.000240037 0.00025282 0)
(0.000142184 0.000440933 0)
(0.000194376 0.00036401 0)
(0.000275169 0.000338722 0)
(7.997e-05 0.000315855 0)
(0.000178849 -1.89325e-05 0)
(0.000418313 0.000188431 0)
(-1.19771e-05 0.000360343 0)
(-0.000318312 0.000429374 0)
(-0.000239764 0.00022344 0)
(5.08825e-06 0.000296552 0)
(4.06324e-05 0.000277345 0)
(4.03802e-06 0.000164871 0)
(0.000204929 0.000756057 0)
(0.000643085 0.000571449 0)
(0.00135048 5.93579e-05 0)
(0.00468028 -0.000417316 0)
(0.00919866 -0.000915135 0)
(0.0221074 -0.00456984 0)
(0.074933 -0.0225369 0)
(0.138836 -0.0325725 0)
(0.396697 -0.0896174 0)
(0.671069 -0.0979207 0)
(1.27976 -0.462139 0)
(2.88205 -0.43917 0)
(4.41224 -0.540316 0)
(7.56585 -0.314884 0)
(12.1081 0.194442 0)
(14.4102 -0.211181 0)
(15.5265 -0.531356 0)
(16.0241 0.857511 0)
(16.1334 1.27784 0)
(15.6297 -0.151017 0)
(14.6977 0.141822 0)
(13.008 0.22719 0)
(9.54019 0.0630549 0)
(6.30724 0.151233 0)
(3.20321 0.0872022 0)
(1.62899 0.00167753 0)
(0.716417 -0.00891324 0)
(0.318003 0.00264207 0)
(0.136461 0.00532906 0)
(0.0524647 0.000463555 0)
(0.0254087 7.82423e-05 0)
(0.008432 -0.000161723 0)
(0.00447704 1.49349e-05 0)
(0.00162457 1.19207e-05 0)
(0.000624425 -1.92628e-06 0)
(0.00023528 -3.54891e-06 0)
(0.000103023 5.71743e-06 0)
(3.30235e-05 6.81685e-07 0)
(1.3093e-05 -1.57648e-07 0)
(6.3637e-06 -8.01137e-07 0)
(3.48363e-06 -5.00053e-07 0)
(1.80787e-06 -2.41369e-07 0)
(8.76035e-07 -1.24888e-07 0)
(4.03794e-07 -5.05641e-08 0)
(1.75968e-07 -1.72975e-08 0)
(7.70265e-08 -7.37875e-09 0)
(3.09249e-08 -1.47456e-09 0)
(1.2151e-08 -6.45247e-10 0)
(4.77916e-09 -2.39857e-10 0)
(1.6441e-09 -1.5657e-10 0)
(5.94538e-11 -1.49116e-10 0)
(-8.53027e-10 -3.4955e-10 0)
(-3.08335e-09 -9.13897e-10 0)
(-7.76607e-09 -2.49565e-09 0)
(-1.69005e-08 -6.6114e-09 0)
(-3.55077e-08 -1.76818e-08 0)
(-7.89083e-08 -4.36195e-08 0)
(-1.70874e-07 -1.09499e-07 0)
(-2.60268e-07 -2.33584e-07 0)
(-4.4887e-07 -4.95016e-07 0)
(-2.7808e-07 -8.21232e-07 0)
(-1.23414e-06 -1.30521e-06 0)
(-6.18907e-07 -2.30266e-06 0)
(4.02609e-06 -8.89518e-07 0)
(3.19996e-06 -1.59497e-07 0)
(-3.91962e-07 -6.07849e-07 0)
(-3.87149e-07 4.43697e-08 0)
(-1.36121e-07 1.80335e-07 0)
(6.67417e-07 -2.28807e-05 0)
(9.51801e-06 -3.44187e-05 0)
(2.74575e-05 -5.32664e-05 0)
(2.57497e-05 -7.38069e-05 0)
(5.30928e-05 -6.44737e-05 0)
(-6.17601e-05 -7.45893e-05 0)
(-0.000185972 -2.4246e-05 0)
(-5.08987e-06 0.000450169 0)
(-0.000284759 0.000501833 0)
(-0.00027338 0.000299107 0)
(0.000212969 3.52787e-05 0)
(0.000413575 -2.41196e-05 0)
(0.000225735 -9.29645e-05 0)
(4.30254e-05 5.34685e-05 2.22925e-31)
(-2.768e-05 0.000156163 0)
(3.29911e-06 6.92526e-05 0)
(7.03238e-05 5.69408e-05 0)
(0.000108506 4.80744e-05 0)
(0.000125068 2.86188e-05 0)
(0.000214092 8.28103e-05 0)
(0.000354371 0.000173345 0)
(0.000467707 0.000132003 0)
(0.000480803 0.000152117 0)
(0.000137077 -0.000173976 0)
(0.00115599 -0.000805243 0)
(0.00051416 -0.000967777 0)
(0.00029328 -0.000690673 0)
(-0.0011155 -0.000556971 0)
(-0.000926599 -0.000323395 0)
(-0.000900785 -0.0002268 0)
(-0.000368852 -0.000349258 0)
(-0.000226966 -0.000353043 9.78436e-32)
(0.000455294 -0.00081384 0)
(0.00085854 -0.00102679 0)
(0.000405275 -0.000988611 0)
(0.00184586 -0.00116212 0)
(0.00630322 -0.000804192 -1.33685e-31)
(0.00922887 -0.0045664 0)
(0.0305985 -0.0100522 0)
(0.0488742 -0.0428056 1.27969e-31)
(0.200127 -0.0946226 0)
(0.4088 -0.0963514 0)
(1.06383 -0.133689 0)
(2.54502 -0.19169 -1.78411e-31)
(4.83017 -0.124233 0)
(7.92492 0.0896052 0)
(12.82 -0.142377 0)
(14.7624 0.0667264 0)
(15.4643 -0.303614 0)
(16.1988 0.117116 0)
(16.2621 0.080291 0)
(15.764 -0.00587359 0)
(14.1349 0.049768 0)
(12.8351 0.0850238 0)
(9.8203 0.0752626 0)
(6.06774 0.0704057 -7.90538e-32)
(3.0636 0.0596878 7.11007e-32)
(1.68845 0.0440655 0)
(0.669641 0.00518175 0)
(0.309792 -0.00420816 -6.97947e-32)
(0.131885 0.000858395 0)
(0.0542902 0.00039151 0)
(0.0258822 6.93466e-05 0)
(0.0094098 4.44303e-06 0)
(0.00402027 -1.20761e-05 0)
(0.00166299 2.80912e-05 0)
(0.000609562 2.71071e-05 0)
(0.000271467 1.29982e-05 0)
(5.57979e-05 9.70416e-06 0)
(1.25041e-05 3.655e-06 0)
(8.23108e-06 5.01141e-07 0)
(5.87394e-06 6.1248e-07 8.86294e-32)
(3.34836e-06 3.80441e-08 0)
(2.0367e-06 -1.73594e-08 0)
(9.00838e-07 -4.07248e-09 0)
(4.25643e-07 -2.21844e-09 0)
(1.83749e-07 -4.8589e-09 0)
(7.77625e-08 -4.04909e-10 0)
(3.19941e-08 1.30104e-10 0)
(1.27681e-08 3.45587e-10 0)
(4.99282e-09 7.87333e-11 0)
(1.6327e-09 -1.11223e-11 0)
(1.46053e-11 -4.75749e-11 0)
(-1.28241e-09 -1.35132e-10 0)
(-3.78647e-09 -2.60918e-10 0)
(-9.47972e-09 -3.59295e-10 0)
(-2.24375e-08 -1.23896e-09 0)
(-5.38556e-08 -3.58074e-09 0)
(-1.32018e-07 -8.89368e-09 0)
(-2.47592e-07 -1.96728e-08 0)
(-5.91255e-07 -2.57012e-08 0)
(-7.36749e-07 -3.18254e-08 -4.50568e-32)
(-1.61339e-06 1.90804e-07 0)
(-2.26458e-06 1.29586e-07 -4.69795e-32)
(1.06407e-06 -9.19817e-07 0)
(3.63524e-06 -9.78813e-07 0)
(4.20054e-06 2.92152e-06 0)
(3.59177e-06 2.98264e-06 0)
(2.54758e-07 4.13504e-07 0)
(-6.2906e-08 3.17945e-07 0)
(-1.08219e-05 -2.43832e-05 0)
(-2.41597e-05 -4.87896e-05 0)
(-3.36798e-05 -7.16167e-05 0)
(-2.23336e-05 -0.000123668 0)
(-3.25426e-06 -0.000113351 0)
(7.15127e-05 -0.000106698 0)
(0.00034437 -2.63315e-05 0)
(0.00071835 -0.000275239 0)
(-0.000472429 0.000333583 0)
(-0.000359716 0.000420174 0)
(-9.84719e-05 0.000249346 0)
(0.000182321 7.24833e-05 0)
(0.000102079 1.87159e-05 0)
(0.000101852 -9.38825e-05 -1.7831e-31)
(4.05898e-05 -6.46496e-05 0)
(-2.6314e-05 -6.37994e-05 0)
(3.66002e-05 -3.68853e-05 0)
(0.000148088 1.85887e-05 0)
(0.000221923 3.51157e-05 0)
(0.000222252 2.64007e-05 0)
(0.000174869 4.12838e-06 0)
(4.95898e-05 -6.44073e-05 0)
(-0.000438861 -0.000385861 0)
(-0.000743895 -0.00054639 0)
(-0.00105994 -4.42723e-05 0)
(0.00076614 -0.00038335 0)
(0.00119733 -0.000328323 0)
(0.002164 -3.90861e-05 0)
(0.00134948 4.31032e-05 0)
(0.000845039 0.000306547 0)
(-0.000729831 -2.46581e-05 0)
(-0.000377821 0.000138637 -9.49003e-32)
(0.00100481 0.00102059 0)
(0.00119865 0.00178541 0)
(0.00109867 0.00141554 0)
(0.00370206 0.000491328 0)
(0.00463011 0.000677194 8.83132e-32)
(0.0097564 0.00259955 0)
(0.0169147 0.011798 0)
(0.0298602 0.0100563 -1.64697e-31)
(0.21093 0.0690533 0)
(0.256693 0.0478693 0)
(1.01559 0.0325943 0)
(2.56824 0.0654308 2.22213e-31)
(4.98526 0.104281 0)
(7.71102 0.146803 0)
(12.7035 0.639517 0)
(14.8953 0.725059 0)
(15.6967 0.692581 0)
(16.477 -0.133587 0)
(16.5187 -0.299653 0)
(15.7737 -0.184761 0)
(14.7593 -0.338083 0)
(13.4178 -0.315228 0)
(10.4755 -0.172594 0)
(6.18575 0.172558 7.72658e-32)
(3.12328 0.062678 -7.31952e-32)
(1.62173 0.0337284 0)
(0.695805 0.0199206 0)
(0.33985 9.48608e-06 7.96951e-32)
(0.132746 -0.00226591 0)
(0.0579512 -0.000351063 0)
(0.0246134 1.43151e-05 0)
(0.010786 8.09329e-05 0)
(0.00407672 1.15418e-05 0)
(0.0014547 5.54373e-05 0)
(0.000570729 2.11862e-05 0)
(0.00015917 9.31631e-06 0)
(2.57305e-05 1.19454e-07 0)
(-1.41363e-07 -1.23518e-07 0)
(4.49052e-06 1.95402e-07 0)
(3.21128e-06 3.00269e-07 -4.74782e-32)
(2.65564e-06 2.43752e-07 0)
(1.76218e-06 1.80168e-07 0)
(9.4681e-07 7.69341e-08 0)
(4.45494e-07 2.82869e-08 0)
(2.14961e-07 7.33251e-09 0)
(7.14115e-08 1.80366e-09 0)
(2.90099e-08 1.06709e-09 0)
(1.21249e-08 7.50507e-10 0)
(4.95737e-09 5.85345e-11 0)
(1.57928e-09 2.85704e-11 0)
(-2.23543e-11 1.17353e-11 0)
(-1.4083e-09 1.89608e-11 0)
(-4.33053e-09 9.01109e-11 0)
(-1.03489e-08 5.84996e-10 0)
(-2.10052e-08 1.08397e-09 0)
(-5.2793e-08 3.25e-09 0)
(-9.96066e-08 1.62093e-08 0)
(-1.75596e-07 4.55534e-08 0)
(-3.8967e-07 1.24717e-07 0)
(-5.01052e-07 2.77871e-07 7.48979e-32)
(-7.97844e-07 4.93729e-07 0)
(-1.1106e-06 8.87688e-07 5.05563e-32)
(1.38521e-06 1.89474e-06 0)
(4.06764e-06 1.87534e-06 0)
(5.8456e-06 2.57722e-06 0)
(-1.03988e-06 1.33677e-06 0)
(-8.65567e-07 3.39041e-07 0)
(-8.48307e-07 1.37884e-07 0)
(-3.67591e-05 -1.51387e-05 0)
(-8.44501e-05 -3.79742e-05 0)
(-9.84896e-05 -9.27023e-05 0)
(-0.000100022 -9.39518e-05 0)
(-7.79017e-05 -0.000141517 0)
(6.23984e-06 -0.000439574 0)
(-1.24423e-05 -0.000839496 0)
(0.000640848 -0.000913311 0)
(0.000609205 -0.00100001 0)
(-0.000195585 -0.000343421 0)
(-0.000522311 -0.000149854 0)
(0.000181544 0.000128182 0)
(-7.04851e-05 0.000124823 0)
(-0.000203483 0.000227624 0)
(-5.62624e-05 0.000121146 0)
(5.67732e-05 0.000126417 0)
(6.03086e-05 0.000125674 0)
(0.000203085 5.22619e-05 0)
(0.000195609 9.08485e-05 0)
(0.000104138 1.19719e-05 0)
(3.89192e-05 -7.15625e-05 0)
(5.03281e-05 -0.000240703 0)
(-0.000373279 -0.000461024 0)
(-0.000945331 -0.000654472 0)
(-0.000797113 0.00203521 0)
(0.000890456 0.000988083 0)
(-0.000105152 0.000684728 0)
(-0.00113564 -0.000167244 0)
(0.000750553 -0.000249247 0)
(0.000233397 3.08001e-05 0)
(-0.000486993 4.63465e-05 0)
(0.000719098 0.00012381 0)
(0.00212438 -5.73895e-05 0)
(0.0016311 0.0001965 0)
(-0.000397575 7.11143e-05 0)
(-0.000175133 -0.000816932 0)
(0.00168247 -0.00182455 0)
(0.0121252 -0.00266735 0)
(0.0581937 -6.87958e-05 0)
(0.12485 0.0223817 0)
(0.16536 0.0451482 0)
(0.264482 0.0557877 0)
(0.886086 0.0330291 0)
(2.10054 0.0601321 0)
(4.72628 0.0743815 0)
(8.56388 -0.062564 0)
(12.1049 0.156846 0)
(14.4529 0.536349 0)
(16.033 0.296529 0)
(16.451 -0.89848 0)
(16.1104 -0.835081 0)
(15.7919 -0.766493 0)
(15.0702 -0.424269 0)
(13.7301 -0.129606 0)
(10.2936 0.0369474 0)
(5.90118 0.0787486 0)
(3.18866 0.0585596 0)
(1.44214 0.0428012 0)
(0.732751 0.0256601 0)
(0.329069 0.0188503 0)
(0.143612 0.00305541 0)
(0.0668136 0.0024156 0)
(0.0256916 0.000320017 0)
(0.0105725 0.000241576 0)
(0.00448002 0.000161611 0)
(0.00132668 1.39722e-05 0)
(0.000575757 4.77362e-06 0)
(0.000220568 -1.58166e-05 0)
(4.99765e-05 -9.8268e-06 0)
(1.78686e-05 -2.80888e-06 0)
(7.31552e-06 7.71857e-07 0)
(5.68638e-06 3.95104e-07 0)
(2.93116e-06 3.39144e-07 0)
(1.65659e-06 2.52749e-07 0)
(8.77108e-07 1.31087e-07 0)
(3.87582e-07 6.92035e-08 0)
(1.98366e-07 3.43086e-08 0)
(6.71166e-08 9.17985e-09 0)
(2.52247e-08 3.13988e-09 0)
(1.37097e-08 9.07113e-10 0)
(5.52524e-09 2.01166e-10 0)
(1.50845e-09 1.63852e-10 0)
(2.65838e-13 1.56988e-10 0)
(-1.203e-09 2.86026e-10 0)
(-3.97976e-09 8.2308e-10 0)
(-8.667e-09 1.74136e-09 0)
(-1.70837e-08 4.10757e-09 0)
(-4.15679e-08 1.66461e-08 0)
(-7.08456e-08 2.91472e-08 0)
(-8.99514e-08 5.2845e-08 0)
(-1.86072e-07 1.66056e-07 0)
(-1.81e-07 1.17254e-07 0)
(-3.54991e-07 5.216e-08 0)
(-5.03249e-07 2.38274e-07 0)
(1.75115e-06 2.28543e-07 0)
(3.30796e-06 9.16551e-08 0)
(3.65877e-06 -1.4473e-06 0)
(-2.44628e-06 -1.01669e-06 0)
(-1.23592e-06 -9.59733e-07 0)
(-4.63921e-07 -5.71903e-07 0)
(-4.13977e-05 -3.18264e-06 0)
(-9.93621e-05 1.73631e-05 0)
(-0.000198561 6.18098e-05 0)
(-0.000300544 7.26837e-05 0)
(-0.000481568 4.05418e-05 0)
(-0.000573757 -0.000547214 0)
(-0.000353701 -0.000486338 0)
(0.000198092 -0.000644099 0)
(0.000765937 -0.000793676 0)
(0.000565659 -0.000205099 0)
(0.000713227 0.000303775 0)
(-9.60012e-05 0.000255892 0)
(-0.000662311 0.000482464 0)
(-0.000945984 0.000177466 0)
(-0.00026646 -8.49007e-05 0)
(-0.000147627 -0.000299265 0)
(0.000147979 -0.000429119 0)
(0.000273579 0.000152568 0)
(-0.000108474 -0.000144286 0)
(-0.000406112 -0.000640643 0)
(5.93874e-05 -0.00121667 0)
(0.000522651 -0.00208955 0)
(0.000495847 -0.00187467 0)
(0.000588247 -0.000983497 0)
(0.000983478 -0.00144567 0)
(0.000507561 -4.47694e-05 0)
(-0.000915969 0.000180714 0)
(-0.00117901 0.000261358 0)
(0.000929627 0.000128259 0)
(0.00106565 -2.27009e-05 0)
(-0.000550812 -6.92607e-05 0)
(-0.00148415 -0.00137567 0)
(2.61982e-05 -0.00221806 0)
(-0.000359623 -0.00174783 0)
(-0.00105496 -0.00106081 0)
(-0.000838193 -7.04545e-05 0)
(-0.00060301 0.000724424 0)
(0.00753498 0.00093107 0)
(0.0385555 0.000596242 0)
(0.119144 -0.000434394 0)
(0.245455 0.000406523 0)
(0.486966 0.0134823 0)
(1.19654 0.108872 0)
(2.70044 0.147808 0)
(5.52647 -0.0155308 0)
(8.27469 0.0687301 0)
(12.2364 -0.0505242 0)
(14.4612 0.00168084 0)
(15.9401 -0.127549 0)
(16.2186 0.050503 0)
(15.7965 0.0461544 0)
(15.3993 0.00533453 0)
(15.0552 -0.0373551 0)
(13.1706 0.102403 0)
(10.6704 0.141275 0)
(5.61552 0.00816692 0)
(3.28365 0.0184398 0)
(1.45797 0.0212742 0)
(0.732332 0.0141495 0)
(0.306264 0.00954603 0)
(0.139105 0.00465291 0)
(0.05819 0.00299967 0)
(0.0227118 0.00177143 0)
(0.00953518 0.000426709 0)
(0.00415747 0.00021066 0)
(0.00140917 9.37199e-06 0)
(0.000612177 -1.0522e-05 0)
(0.000232676 -3.05102e-06 0)
(9.47901e-05 -2.7424e-06 0)
(3.13482e-05 -8.44289e-07 0)
(1.23259e-05 9.46483e-07 0)
(4.96136e-06 7.27119e-07 0)
(2.61922e-06 6.48021e-07 0)
(1.34959e-06 2.78793e-07 0)
(6.04898e-07 1.2748e-07 0)
(2.79544e-07 5.97036e-08 0)
(1.23431e-07 3.05213e-08 0)
(5.36497e-08 1.24621e-08 0)
(2.06341e-08 3.90161e-09 0)
(9.72105e-09 2.05332e-09 0)
(3.94434e-09 1.01746e-09 0)
(1.11732e-09 3.03433e-10 0)
(1.56405e-11 2.17988e-10 0)
(-7.68498e-10 3.84082e-10 0)
(-2.40162e-09 8.83546e-10 0)
(-5.20781e-09 1.99689e-09 0)
(-1.14914e-08 4.84688e-09 0)
(-1.85677e-08 1.16042e-08 0)
(-2.78366e-08 2.52335e-08 0)
(-3.85503e-08 5.04507e-08 0)
(-1.55935e-08 9.00118e-08 0)
(-3.02287e-08 1.70424e-07 0)
(1.82804e-07 9.79039e-08 0)
(-1.35743e-07 6.14565e-07 0)
(3.21067e-07 4.93319e-07 0)
(7.34413e-07 -1.13501e-07 0)
(5.29927e-07 -6.73353e-07 0)
(-1.23258e-07 -8.80203e-07 0)
(-4.56278e-07 -8.05068e-07 0)
(-3.4346e-07 -6.43329e-07 0)
(5.7384e-05 -2.9498e-05 0)
(5.31964e-05 4.9731e-05 0)
(-3.16244e-05 0.000111326 0)
(-9.13852e-05 0.000153109 0)
(-0.000729318 0.000240966 0)
(-0.000101982 0.000206231 0)
(0.000912939 0.000920641 0)
(0.00145919 0.00203738 0)
(-0.000491154 0.00209026 0)
(-0.000904699 0.00101184 0)
(-0.000380168 -0.000359415 0)
(-0.000169933 -0.00020725 0)
(-0.00118883 0.000332726 0)
(-0.00109458 0.00052086 0)
(-0.00135613 0.000607661 0)
(-0.000381018 -0.000524935 0)
(0.000402927 -0.000316591 0)
(0.000448117 -7.96699e-05 0)
(-0.00132498 -0.000496398 0)
(-0.00084786 -0.000295234 0)
(0.000180675 0.000596505 0)
(-0.000188891 0.00184309 0)
(-0.000727828 0.00212349 0)
(0.000352528 0.000720529 0)
(0.00200259 0.000990668 0)
(0.00231148 -9.54219e-05 0)
(0.000174897 -0.000614335 0)
(0.000261216 0.000292506 0)
(0.000981303 0.000268075 0)
(0.000119923 -0.000567974 0)
(-0.00187821 -0.000437908 0)
(-0.0020453 4.56772e-05 0)
(0.0026351 0.00114526 0)
(0.00270178 0.000171854 0)
(0.00083644 -0.00102916 0)
(0.00364608 -0.00152475 0)
(0.00592706 -0.00086795 0)
(0.0152631 -0.00116958 0)
(0.0499969 0.00680618 0)
(0.106222 0.00403029 0)
(0.249036 0.0286908 0)
(0.573704 -0.00491212 0)
(1.52291 0.0463222 0)
(2.74913 0.0481531 0)
(5.3903 0.0643574 0)
(8.29204 0.059067 0)
(12.5475 -0.0347814 0)
(14.5747 -0.259469 0)
(15.7187 -0.500604 0)
(16.1852 0.205115 0)
(15.9956 0.174909 0)
(15.4 0.299639 0)
(14.645 0.176537 0)
(12.6785 0.0263948 0)
(10.0562 -0.115412 0)
(5.61979 -0.0953491 0)
(3.07324 -0.110126 0)
(1.41837 0.0360354 0)
(0.666701 -0.00335971 0)
(0.276326 -0.00563186 0)
(0.118054 -0.00166698 0)
(0.0462429 -0.00174649 0)
(0.0204988 -0.000681023 0)
(0.00881079 -0.000302477 0)
(0.00363041 -0.000130066 0)
(0.00141059 -5.46365e-05 0)
(0.000587174 -4.59398e-05 0)
(0.000231426 -1.0661e-05 0)
(9.54096e-05 -3.17741e-06 0)
(3.05087e-05 -9.79092e-07 0)
(1.2886e-05 -5.64397e-07 0)
(5.4626e-06 1.86877e-07 0)
(2.50574e-06 8.62977e-08 0)
(1.11601e-06 9.84271e-08 0)
(4.88996e-07 6.72475e-08 0)
(2.13631e-07 3.14352e-08 0)
(9.02218e-08 1.45278e-08 0)
(3.98247e-08 6.00021e-09 0)
(1.67169e-08 2.44265e-09 0)
(6.16723e-09 9.6732e-10 0)
(2.66925e-09 4.80304e-10 0)
(8.81361e-10 1.68547e-10 0)
(3.84825e-11 1.19487e-10 0)
(-3.63669e-10 2.4985e-10 0)
(-1.25113e-09 5.98611e-10 0)
(-2.59719e-09 1.38915e-09 0)
(-4.24304e-09 3.04718e-09 0)
(-6.80888e-09 6.46497e-09 0)
(-5.83012e-09 1.08644e-08 0)
(1.95812e-09 1.93884e-08 0)
(1.84508e-08 2.89184e-08 0)
(3.28588e-08 -8.60215e-09 0)
(7.65418e-08 2.58199e-08 0)
(6.95679e-08 -3.44597e-08 0)
(1.66204e-07 1.68917e-09 0)
(1.39751e-07 -1.93764e-07 0)
(7.99519e-08 -2.70452e-07 0)
(1.20836e-08 -3.73781e-07 0)
(-9.9734e-08 -3.38177e-07 0)
(-6.83559e-08 -2.57659e-07 0)
(0.000106751 -1.62366e-05 0)
(6.95619e-05 1.01762e-05 0)
(-1.2297e-06 5.41809e-05 0)
(-0.000190791 8.3949e-05 0)
(9.90454e-05 0.000279525 0)
(0.0018543 -0.000274549 0)
(0.00219376 0.00090645 0)
(0.00319449 0.00287775 0)
(-0.00508532 0.000615703 0)
(-0.00282077 -0.000608132 0)
(-0.00116911 -0.00198796 0)
(0.000567547 -0.00133452 0)
(0.000709217 0.000182707 0)
(-0.000931054 0.000881291 0)
(-0.000713202 0.000198574 0)
(-0.000613892 -0.000158598 0)
(-0.000289335 2.63254e-05 0)
(-0.000239741 0.000136281 0)
(-0.0012117 -0.000173256 0)
(-0.000671939 -0.000406167 0)
(0.00204243 0.000588701 0)
(0.00099268 0.00271396 0)
(-0.000341695 0.00345175 0)
(-0.00252416 0.00351161 0)
(-0.00113643 0.00390657 0)
(0.00257543 -0.00212055 0)
(-0.000376365 -0.00230441 0)
(-0.00158367 -0.000373755 0)
(0.000161892 -0.00280411 0)
(0.000505142 -0.00242667 0)
(-0.000104886 -0.00159063 0)
(0.000657324 0.00124337 0)
(0.000530764 0.00368462 0)
(-0.00400911 0.00187288 0)
(-0.00166313 -0.00216341 0)
(0.00125887 -0.00500642 0)
(0.0108828 -0.00573855 0)
(0.0192545 -0.00377174 0)
(0.0429241 0.00107858 0)
(0.131898 0.00222174 0)
(0.284197 0.00777144 0)
(0.638526 -0.0869235 0)
(1.28986 -0.0114502 0)
(2.70416 -0.0264192 0)
(5.39726 0.081236 0)
(8.94858 0.0419919 0)
(13.2767 -0.0433608 0)
(14.9854 -0.291298 0)
(15.924 -0.531516 0)
(16.4417 -0.0457205 0)
(16.4497 -0.00512988 0)
(15.7042 0.216367 0)
(14.9544 0.0611639 0)
(13.3587 -0.0527826 0)
(10.3868 -0.167273 0)
(6.30258 -0.126603 0)
(3.51563 -0.0907047 0)
(1.6061 0.0250223 0)
(0.641828 -0.00893905 0)
(0.308317 -0.00747435 0)
(0.13621 -0.00346239 0)
(0.0567355 -0.00214289 0)
(0.0241678 -0.000720067 0)
(0.0101772 -0.000280142 0)
(0.00426606 -0.000110338 0)
(0.00162533 -4.81103e-05 0)
(0.000688017 -1.62648e-05 0)
(0.00026801 -3.09886e-06 0)
(0.000103837 -1.48871e-06 0)
(3.99755e-05 -3.79123e-07 0)
(1.50647e-05 -8.74284e-08 0)
(6.42028e-06 -8.75174e-08 0)
(2.69039e-06 -3.04598e-08 0)
(1.16383e-06 8.42707e-09 0)
(4.76305e-07 5.19356e-09 0)
(1.97749e-07 3.05821e-09 0)
(8.61544e-08 1.19774e-09 0)
(3.57121e-08 6.2353e-10 0)
(1.48554e-08 2.51734e-10 0)
(6.119e-09 1.08327e-10 0)
(2.44531e-09 4.23926e-11 0)
(8.8456e-10 2.03973e-11 0)
(6.79043e-11 1.48535e-11 0)
(-1.32973e-10 2.9718e-11 0)
(-7.03525e-10 7.27347e-11 0)
(-1.21332e-09 1.87347e-10 0)
(-1.63143e-09 4.22694e-10 0)
(-1.15744e-09 6.43583e-10 0)
(-6.9918e-10 1.14743e-09 0)
(4.65915e-09 2.20526e-09 0)
(1.46793e-08 3.41557e-09 0)
(2.20325e-08 -3.82167e-09 0)
(3.87181e-08 -2.01337e-09 0)
(5.77005e-08 2.45487e-09 0)
(8.46288e-08 -9.9494e-09 0)
(6.25942e-08 -1.53147e-08 0)
(4.7267e-08 -3.48434e-08 0)
(-8.18191e-09 -2.38654e-08 0)
(-3.04097e-08 -1.89882e-08 0)
(-2.05493e-08 -2.3226e-08 0)
)
;

boundaryField
{
    sides1
    {
        type            zeroGradient;
    }
    sides2
    {
        type            slip;
    }
    empty
    {
        type            empty;
    }
}


// ************************************************************************* //
