/*--------------------------------*- C++ -*----------------------------------*\
| =========                 |                                                 |
| \\      /  F ield         | OpenFOAM: The Open Source CFD Toolbox           |
|  \\    /   O peration     | Version:  2012                                  |
|   \\  /    A nd           | Website:  www.openfoam.com                      |
|    \\/     M anipulation  |                                                 |
\*---------------------------------------------------------------------------*/
FoamFile
{
    version     2.0;
    format      ascii;
    class       volScalarField;
    location    "0.93";
    object      maxKappa;
}
// * * * * * * * * * * * * * * * * * * * * * * * * * * * * * * * * * * * * * //

dimensions      [0 0 0 0 0 0 0];


internalField   nonuniform List<scalar> 
2268
(
4.36293e-07
8.50739e-07
1.30113e-06
1.77979e-06
2.27532e-06
2.78919e-06
3.27917e-06
3.72108e-06
4.04944e-06
4.1764e-06
4.1764e-06
4.09058e-06
3.79687e-06
3.28911e-06
2.58263e-06
1.69045e-06
8.74314e-07
1.94824e-06
2.8726e-06
3.34941e-06
3.34941e-06
2.78404e-06
1.77859e-06
5.0378e-07
9.00953e-07
1.34449e-06
1.81061e-06
2.29048e-06
2.79805e-06
3.29759e-06
3.75114e-06
4.08926e-06
4.22317e-06
4.22317e-06
4.14063e-06
3.86138e-06
3.36771e-06
2.6752e-06
1.83718e-06
1.21325e-06
2.11981e-06
2.97934e-06
3.44774e-06
3.44774e-06
3.0719e-06
2.23318e-06
6.90486e-07
1.00279e-06
1.39225e-06
1.84635e-06
2.35184e-06
2.89887e-06
3.41372e-06
3.8589e-06
4.1775e-06
4.30855e-06
4.30855e-06
4.24259e-06
3.97675e-06
3.49529e-06
2.8614e-06
2.16671e-06
1.87113e-06
2.62648e-06
3.40496e-06
3.89536e-06
3.89536e-06
3.47044e-06
2.59058e-06
7.91983e-07
1.07088e-06
1.45211e-06
1.90601e-06
2.40388e-06
2.93356e-06
3.45764e-06
3.93871e-06
4.29858e-06
4.47016e-06
4.47016e-06
4.4232e-06
4.17937e-06
3.73798e-06
3.16545e-06
2.57193e-06
2.35235e-06
3.00576e-06
3.80511e-06
4.45896e-06
4.45896e-06
4.40383e-06
3.81411e-06
1.00967e-06
1.24607e-06
1.57566e-06
2.00536e-06
2.53203e-06
3.12508e-06
3.66563e-06
4.13627e-06
4.48352e-06
4.64985e-06
4.64985e-06
4.62785e-06
4.41039e-06
3.99796e-06
3.50934e-06
3.06636e-06
3.21452e-06
3.85678e-06
4.70124e-06
5.42735e-06
5.42735e-06
5.30108e-06
4.71898e-06
1.13167e-06
1.33317e-06
1.67319e-06
2.13347e-06
2.6651e-06
3.2078e-06
3.74243e-06
4.27715e-06
4.71474e-06
4.94883e-06
4.94883e-06
4.93862e-06
4.74506e-06
4.40338e-06
3.9915e-06
3.63964e-06
3.804e-06
4.37655e-06
5.26194e-06
6.01173e-06
6.17378e-06
6.32383e-06
6.32383e-06
1.31379e-06
1.47786e-06
1.75742e-06
2.18649e-06
2.77179e-06
3.45141e-06
4.0286e-06
4.5607e-06
5.00094e-06
5.2205e-06
5.25937e-06
5.25937e-06
5.12921e-06
4.80528e-06
4.45078e-06
4.33522e-06
4.77434e-06
5.21037e-06
5.63246e-06
6.06383e-06
6.66737e-06
7.28546e-06
7.28546e-06
1.46856e-06
1.64915e-06
1.95651e-06
2.45999e-06
3.08056e-06
3.62761e-06
4.14693e-06
4.78316e-06
5.36802e-06
5.67207e-06
5.69598e-06
5.69598e-06
5.56127e-06
5.29473e-06
5.06895e-06
5.16483e-06
6.54822e-06
8.8554e-06
1.62348e-05
1.28512e-05
6.18142e-06
8.96697e-06
8.96697e-06
0.000328838
0.00105929
0.00105929
0.000747691
0.000405126
0.000307814
0.000217084
0.000121609
4.53531e-05
2.30295e-05
5.10366e-05
5.10366e-05
3.72827e-05
4.77066e-05
4.89785e-05
4.89785e-05
4.50418e-05
3.69809e-05
2.12463e-05
0.000217998
0.00106543
0.00170986
0.00170986
0.00163095
0.00130498
0.000814781
0.000258305
4.05095e-05
1.504e-05
2.3137e-05
3.75797e-05
3.75797e-05
0.000112785
0.000159159
0.000167573
0.000167573
0.000115007
2.2049e-05
0.000311393
0.000853062
0.000869534
0.000869534
0.000671112
0.000610453
0.000610453
0.000181839
3.58181e-05
1.90873e-05
1.64289e-05
4.45934e-05
6.21487e-05
7.13967e-05
9.7151e-05
0.00016879
0.000175123
0.000175123
2.57672e-05
0.000280033
0.000687771
0.000687771
0.000392059
0.000170413
0.000203745
0.000203745
5.87261e-05
2.94711e-05
2.20517e-05
1.52061e-05
3.32333e-05
7.75458e-05
7.84905e-05
0.00010724
0.000224047
0.000224047
8.69291e-05
2.34139e-05
0.00022835
0.000557028
0.000557028
0.000411371
0.00013293
9.50879e-05
7.91709e-05
3.62088e-05
2.9578e-05
2.42909e-05
5.03494e-05
8.34427e-05
9.18721e-05
9.18721e-05
9.91422e-05
0.000232502
0.000232502
7.93905e-05
1.5528e-05
0.000170211
0.000425689
0.000425689
0.000336156
0.000210976
0.000172656
5.1713e-05
3.03065e-05
3.90568e-05
0.000128865
0.000181859
0.000181859
0.00017973
0.00017973
0.000150185
0.000108336
7.2783e-05
1.88649e-05
8.47018e-06
0.000155581
0.000312725
0.000312725
0.00023858
0.000213343
0.000213343
0.000158275
3.7111e-05
0.000120012
0.000368696
0.000413707
0.000413707
0.000351227
0.000215837
0.000179488
9.53559e-05
2.45335e-05
1.34871e-05
5.61612e-06
0.00014753
0.000252943
0.000252943
0.000217582
0.000207192
0.000207192
0.00018648
5.17888e-05
0.000266393
0.000556714
0.000651198
0.000651198
0.000601896
0.000518061
0.000374118
0.000108876
2.66828e-05
8.6654e-06
9.44187e-06
1.82989e-06
1.84465e-06
1.97745e-06
2.53391e-06
3.45885e-06
4.15115e-06
4.69538e-06
5.41931e-06
6.65804e-06
7.564e-06
8.32108e-06
8.8237e-06
9.27429e-06
1.12772e-05
1.78607e-05
4.21878e-05
9.00927e-05
0.000119786
0.000242708
9.77319e-05
6.87612e-05
5.04794e-05
1.82614e-05
2.28058e-06
2.01264e-06
2.49202e-06
3.42764e-06
5.4652e-06
8.96967e-06
1.03342e-05
2.07375e-05
2.11014e-05
2.31487e-05
3.12935e-05
3.94041e-05
4.87051e-05
7.73561e-05
0.000104136
0.000168625
0.000223967
0.000315804
0.000401692
0.000289727
0.000149047
0.000102691
2.76249e-05
3.3616e-06
3.06192e-06
4.08311e-06
1.48808e-05
5.74841e-05
8.51514e-05
7.50424e-05
0.000137638
0.000180458
0.000115238
9.90145e-05
0.000116376
0.00017248
0.000385191
0.000400838
0.000227979
0.000365741
0.000367278
0.000401692
0.000347839
0.00022422
0.000101042
0.00011353
5.68446e-06
7.41565e-06
2.75978e-05
0.000211666
0.000431035
0.000454082
0.000336031
0.000381684
0.000378601
0.000335826
0.000211426
0.000251574
0.000821695
0.000730995
0.000788939
0.000442046
0.000366346
0.000366346
0.000369934
0.000225838
4.81512e-05
5.20089e-05
0.000118975
1.21091e-05
2.5269e-05
0.000182221
0.000682405
0.00107053
0.000958642
0.000830555
0.00081428
0.000753024
0.000518764
0.000867986
0.00117601
0.00152234
0.0011675
0.000969327
0.000899518
0.000488899
0.000420959
0.000309321
8.0018e-05
5.28593e-05
6.54303e-05
0.00010137
2.66967e-05
9.18525e-05
0.000639078
0.0012239
0.00142791
0.00126418
0.00115761
0.00116752
0.00126067
0.000986662
0.0017715
0.00178717
0.00178717
0.00132057
0.000974248
0.000964848
0.000751258
0.000524241
0.000378108
9.5477e-05
6.40425e-05
7.18511e-05
9.81958e-05
5.70774e-05
0.000298755
0.000959888
0.00142986
0.00147451
0.00128739
0.00129418
0.00132832
0.0015248
0.0017769
0.00182382
0.00177171
0.0013217
0.00092168
0.00085178
0.000857905
0.000905549
0.000718206
0.000629966
0.000217318
7.77198e-05
0.000102781
0.000249605
0.000226362
0.00049819
0.00125888
0.0016814
0.00153012
0.00146875
0.00146976
0.00153093
0.00176729
0.00180354
0.00182382
0.001172
0.000978733
0.000864487
0.000851702
0.000859595
0.000905549
0.000897735
0.000801032
0.000443894
0.000107527
0.000105736
0.000390516
0.000779757
0.000831883
0.00137378
0.00179246
0.00137424
0.000954891
0.00114882
0.00124159
0.0014769
0.00180354
0.00123859
0.00097477
0.000986037
0.000986037
0.000940067
0.000929425
0.000929425
0.0008665
0.00084272
0.000766191
0.000515309
0.000216703
0.000236316
0.00109182
0.00108522
0.00146433
0.00179246
0.00129812
0.000583379
0.000773275
0.000891329
0.00119109
0.00125235
0.00093906
0.000901446
0.000869815
0.000895909
0.000898718
0.000866926
0.000802572
0.000810764
0.000801538
0.000758009
0.000614795
0.000438069
0.000281995
0.00110259
0.001141
0.00149269
0.00177076
0.00122466
0.000568947
0.000508186
0.000563378
0.000694776
0.000735055
0.000567772
0.000551042
0.000674902
0.000728915
0.000809676
0.000769036
0.000750187
0.000641973
0.000635296
0.000664852
0.00066451
0.000474764
0.000415927
0.00118664
0.0014001
0.00159049
0.00163468
0.00113414
0.000573872
0.000408101
0.000316421
0.000400146
0.000352374
0.000146423
0.000284275
0.000441064
0.000502803
0.000613306
0.000622343
0.000653018
0.000551335
0.000577399
0.000655629
0.00067217
0.000653258
0.000528276
0.00126392
0.00155427
0.00171274
0.00152193
0.00103724
0.000533241
0.000356917
0.000231904
0.000268057
0.000163771
0.000131031
0.000251458
0.000345229
0.000407735
0.00048037
0.00049657
0.000539745
0.000502234
0.000550537
0.000604877
0.00067217
0.000656066
0.000589135
0.00139419
0.00171004
0.00180092
0.00153198
0.000999274
0.000505602
0.000308784
0.000186602
0.000209892
0.000122784
0.000127355
0.000185515
0.00027818
0.000331024
0.000411406
0.000427747
0.000478065
0.000483806
0.000529041
0.000582408
0.000629598
0.000656066
0.000628103
0.00147943
0.00186046
0.00190298
0.00153289
0.000951768
0.000466393
0.000277279
0.000169835
0.000204442
0.000145669
0.000170533
0.000201454
0.000262364
0.000312815
0.000361775
0.000394045
0.000441313
0.000461737
0.000505469
0.000555688
0.000614038
0.000646063
0.000663416
0.001618
0.00198165
0.00204744
0.00157046
0.000923302
0.000445759
0.000272351
0.000183232
0.000223524
0.000168814
0.000199747
0.000198423
0.000245046
0.0002923
0.000340781
0.000382583
0.000423574
0.000460175
0.000501161
0.000544577
0.000596678
0.000645591
0.000663416
0.00164119
0.00209225
0.00214975
0.00163622
0.000900144
0.000447477
0.0002935
0.000218545
0.000244101
0.000201971
0.000226829
0.000226164
0.000259328
0.000291183
0.000328145
0.000363208
0.000400945
0.000435318
0.000472723
0.000506728
0.000551151
0.000599401
0.000644019
0.0017951
0.00224771
0.00217209
0.00163663
0.000873768
0.000465858
0.000313447
0.000252909
0.000254889
0.000223967
0.000240836
0.000239842
0.000269048
0.000297538
0.000333784
0.000366899
0.000402098
0.00043517
0.000469016
0.00049943
0.000529255
0.000559422
0.000594748
0.0020583
0.00238624
0.0022433
0.00161868
0.000854538
0.000479873
0.00032546
0.000277444
0.000256104
0.00023453
0.000246298
0.000252964
0.000277351
0.000302553
0.000334804
0.000365956
0.000398487
0.000428935
0.000460114
0.000489729
0.000520325
0.000547646
0.000569113
0.00230721
0.00251731
0.00230628
0.00161862
0.000843899
0.000480876
0.000336721
0.000286406
0.000256104
0.000236623
0.000246298
0.000254105
0.00027759
0.000301563
0.000331109
0.00036048
0.000391435
0.000420827
0.00045122
0.00048191
0.000513764
0.000543692
0.000574181
0.00255193
0.00263953
0.00239191
0.00163487
0.000813817
0.00044609
0.000324112
0.000272941
0.000244147
0.000224628
0.000242766
0.00025632
0.000282475
0.000309365
0.000340038
0.000369437
0.00039925
0.000428607
0.000460035
0.00049596
0.000539432
0.000576573
0.00061362
0.00271735
0.00271778
0.00246515
0.00164652
0.00074265
0.000361411
0.000287076
0.000242789
0.000215338
0.000202198
0.000228677
0.000248915
0.000279742
0.000309936
0.000341931
0.000373554
0.000407972
0.000446002
0.000490447
0.000536719
0.000584956
0.000624152
0.000664109
0.00277145
0.00277145
0.00251773
0.00167462
0.000637861
0.000281247
0.000233855
0.000194805
0.000170891
0.000181645
0.000214507
0.000248592
0.000283718
0.000317333
0.000352469
0.000388684
0.000429928
0.000477684
0.000531996
0.000579178
0.00062215
0.000661388
0.000695375
0.00275898
0.00273471
0.0024798
0.00170571
0.000687813
0.000252657
0.000185467
0.000132866
0.000110719
0.000153751
0.000203764
0.000247491
0.000289329
0.000327728
0.000368074
0.000412475
0.00046565
0.000521459
0.000573892
0.000611868
0.000644545
0.000678798
0.00070637
0.00271881
0.00264137
0.00236824
0.00168526
0.000836832
0.000367159
0.000223883
0.000109579
0.000112174
0.000158107
0.000215485
0.000263115
0.000308581
0.00035139
0.000398729
0.000452964
0.000513067
0.00056491
0.000603876
0.00063119
0.000657149
0.00068714
0.00070637
0.00263445
0.0025078
0.00222972
0.00167009
0.000944759
0.000510298
0.000319258
0.000199436
0.000199265
0.0002042
0.000258755
0.000290386
0.000342398
0.000382434
0.000441015
0.000499374
0.000559013
0.000592876
0.000612305
0.000625945
0.000646976
0.000669071
0.000694747
0.00251921
0.00238439
0.00217017
0.00161928
0.00098356
0.000619364
0.000420983
0.000313684
0.000298816
0.000287096
0.000322206
0.000344627
0.000391586
0.000433962
0.000496653
0.000551204
0.000593778
0.000606384
0.000613163
0.000624384
0.000639254
0.000652918
0.000663343
0.00242814
0.00234253
0.0020054
0.00147594
0.000992054
0.000701126
0.00052448
0.000422838
0.000396622
0.000375984
0.000395142
0.000410523
0.000452001
0.000494534
0.000557828
0.000596471
0.000614703
0.000604437
0.000608865
0.000614801
0.000626689
0.000625806
0.000617928
0.00232177
0.0020643
0.00174538
0.00133738
0.000996491
0.000764729
0.000612974
0.000524676
0.000490517
0.000465678
0.000473473
0.000484212
0.000522285
0.000565527
0.000616395
0.000630508
0.000618642
0.000608998
0.000603903
0.00060368
0.000602851
0.000584744
0.000558013
0.00192124
0.00174931
0.00150073
0.00124683
0.00100548
0.000828754
0.000704181
0.000615992
0.000578406
0.000552299
0.000552925
0.000561999
0.000599118
0.000636779
0.000665801
0.000645447
0.000623673
0.000600913
0.000597089
0.000583128
0.000567971
0.000532963
0.000495404
0.00160388
0.0015274
0.0013566
0.00118089
0.00100938
0.000870244
0.000765028
0.000697689
0.000660393
0.000635396
0.000632568
0.000642268
0.00067713
0.000701553
0.000696767
0.000666504
0.00062962
0.000601319
0.000578714
0.000551072
0.000520183
0.00047682
0.000435969
0.00140871
0.00137972
0.00125906
0.00114067
0.00102287
0.000918971
0.000835595
0.000771894
0.000736895
0.000714147
0.000711176
0.000723166
0.000751122
0.000751594
0.000713422
0.000669095
0.00062157
0.00058572
0.000550357
0.000510937
0.000470535
0.000426682
0.000386988
0.00129843
0.00128182
0.00120176
0.00111682
0.00102935
0.000947638
0.00088285
0.000839293
0.000808258
0.000789164
0.000788419
0.000801184
0.000815055
0.000778962
0.000737366
0.000674066
0.0006201
0.000570507
0.000518596
0.000467374
0.000422373
0.000379965
0.000344061
0.0012384
0.00122392
0.00117391
0.00111662
0.00105492
0.000994192
0.000940752
0.000902247
0.000875971
0.000861693
0.000864888
0.000873656
0.000860803
0.000810184
0.000738929
0.000664684
0.000600846
0.000537589
0.00047801
0.000424335
0.000378777
0.000339984
0.000310742
0.00120855
0.00119279
0.00116073
0.0011169
0.001069
0.00102793
0.000991008
0.000961627
0.000941118
0.000931544
0.000935417
0.000933121
0.000890744
0.00082871
0.000739323
0.000659482
0.000583428
0.00050946
0.000441697
0.000381955
0.000335802
0.000303505
0.000284268
0.00120081
0.00119169
0.00117113
0.00114144
0.00110724
0.00107189
0.00104252
0.00101951
0.0010048
0.00100005
0.00100206
0.000973589
0.000917736
0.000826397
0.000726677
0.000635987
0.000547789
0.000467534
0.000398506
0.00034315
0.000302397
0.00027679
0.000268834
0.00121509
0.00120828
0.00119002
0.00116826
0.00114253
0.00111815
0.00109493
0.00107769
0.00106739
0.00106405
0.00105439
0.00100929
0.000932424
0.000822844
0.000717333
0.000617006
0.000521489
0.000435731
0.00036148
0.000301679
0.000268403
0.000255657
0.00026344
0.00123497
0.00123191
0.00121961
0.00120342
0.00118418
0.00116546
0.00114812
0.00113617
0.0011295
0.00112457
0.00109087
0.00102842
0.00092447
0.000804211
0.000689587
0.000579495
0.000478931
0.000391897
0.0003227
0.000274924
0.000249892
0.000260797
0.000271234
0.00127049
0.00126838
0.00125924
0.00124713
0.00123284
0.00121851
0.00120555
0.00119633
0.00118865
0.00117168
0.00112779
0.00104501
0.000918841
0.000791114
0.000669751
0.000555062
0.000451564
0.000361406
0.000288362
0.000240296
0.000232756
0.000252276
0.000283389
0.00130507
0.00130355
0.00129744
0.00128942
0.00127976
0.00126988
0.00126164
0.00125511
0.00124519
0.0012083
0.00114253
0.00102748
0.00088952
0.000756384
0.00062981
0.000512263
0.000407635
0.000321507
0.000261415
0.000230879
0.000246532
0.000277575
0.000297198
0.00135732
0.00135625
0.00135229
0.0013469
0.00134079
0.00133425
0.00132803
0.00131828
0.00129385
0.00124563
0.00116241
0.00102678
0.000882024
0.000743183
0.000610613
0.000488949
0.000382558
0.000295828
0.000234771
0.000213421
0.000237788
0.000274837
0.000313259
0.00140334
0.00140334
0.00140091
0.00139668
0.00139155
0.00138552
0.0013779
0.00136522
0.00133608
0.00126492
0.00113933
0.000986392
0.000835459
0.000693231
0.000561958
0.000445173
0.000346925
0.000271775
0.000226357
0.000231014
0.000264971
0.000305808
0.000313259
1.10455e-05
1.49003e-05
7.33077e-05
9.92533e-05
3.96791e-05
6.95963e-05
7.33077e-05
9.54674e-05
0.000134128
7.3289e-05
7.64455e-05
8.43112e-05
0.000134128
8.37283e-05
8.94402e-05
0.000100404
0.000102408
9.17892e-05
9.40819e-05
0.000185632
0.000108785
0.000104445
0.000142616
0.000503806
0.000336807
0.00026845
0.000520122
0.000709228
0.00058392
0.00066311
0.000658518
0.000709228
0.00058392
0.00066311
0.000658518
0.000639019
0.000399064
0.000531374
0.000602033
0.000588059
0.000385138
0.000425287
0.000506467
0.000510347
0.000423689
0.000353766
0.000334805
0.00030967
0.000457631
0.000383571
0.00035403
0.000304339
0.000571515
0.000512751
0.000523084
0.000490195
0.000664813
0.000653337
0.000711937
0.000713897
0.000678665
0.000698095
0.000742125
0.000796322
0.000678665
0.000698095
0.000742125
0.000796322
0.00062392
0.00064238
0.000668004
0.000696499
0.000586136
0.000593636
0.000604737
0.000613753
0.000595325
0.000608548
0.000620172
0.00063143
0.000639581
0.000657251
0.000673611
0.00069023
0.000693266
0.000712835
0.000730524
0.000747743
0.000724088
0.000741633
0.00075677
0.000769856
0.000727999
0.000741633
0.00075677
0.000769856
0.000727999
0.000739846
0.000748293
0.000754156
0.000705204
0.000708266
0.000708126
0.000704952
0.000658184
0.000651227
0.00064092
0.000628746
0.000595145
0.000580017
0.000560769
0.00054331
0.000523547
0.000504229
0.000481418
0.00046289
0.000458295
0.000438703
0.000416703
0.00039934
0.000401739
0.000383569
0.000364847
0.000350076
0.000357665
0.000342381
0.000328371
0.000317806
0.000321191
0.000310398
0.000302037
0.0002972
0.000295794
0.000290216
0.000287822
0.00028906
0.000278705
0.000279214
0.000286523
0.000297468
0.000273335
0.000284255
0.000296218
0.000310516
0.000281583
0.000295957
0.000310465
0.000327108
0.000293716
0.000310584
0.000326751
0.000344913
0.000309234
0.000327727
0.000345208
0.000364276
0.000325338
0.00034466
0.000362956
0.000382423
0.000343446
0.000363528
0.00038265
0.000402581
0.000343446
0.000363528
0.00038265
0.000402581
0.000234849
0.000234849
0.00025334
0.000274443
0.000274443
0.000169227
0.000107146
7.82725e-05
0.000467483
0.000666254
0.000666254
0.000547277
0.000380955
0.000441888
0.000441888
0.000181388
4.91123e-05
5.16736e-05
6.53079e-05
0.000193372
0.000199733
0.000231264
0.000174782
0.000212073
0.000136141
6.98707e-05
0.000257688
0.000600339
0.000641055
0.000641055
0.000424998
0.000204702
0.000228122
0.000178913
0.000116749
0.000141589
0.000176484
0.000130367
0.000244623
0.000347363
0.000312515
9.69686e-05
7.88719e-05
6.46676e-05
8.35422e-05
0.000334164
0.00049298
0.000566278
0.000452333
0.000376192
0.000394214
0.000365531
0.000308625
0.000232784
0.000293474
0.000261748
0.000166336
0.000341538
0.000382481
0.000200998
0.000104745
0.000100748
4.86699e-05
4.18427e-05
0.000170209
0.000290755
0.00032262
0.000362801
0.000495574
0.000516595
0.000492106
0.000349961
0.000365144
0.000380496
0.000364992
0.000261072
0.000495941
0.000434314
0.000388331
0.0007002
0.000580439
0.000273832
0.0001097
4.58819e-05
0.000100104
0.000308133
0.000534716
0.000601876
0.000639341
0.000639341
0.000539495
0.000286465
0.000437504
0.000437504
0.000436196
0.000716596
0.000640397
0.000906893
0.00102961
0.00102961
0.000719128
0.000392262
0.000272679
0.000291557
0.00045948
0.00056462
0.000614286
0.000614286
0.000501712
0.00033646
0.000395212
0.000325143
0.000408074
0.000475302
0.000825585
0.000892432
0.000914899
0.000914899
0.000937867
0.000937867
0.000661633
0.000457223
0.000369098
0.000274866
0.00030679
0.000396526
0.000465205
0.000447317
0.000587163
0.000587163
0.000460158
0.000435189
0.000475302
0.000771215
0.000724811
0.000673956
0.000645705
0.00101538
0.00101538
0.000939032
0.000448026
0.000318548
0.000429194
0.000481916
0.000492114
0.000459595
0.000433581
0.000384437
0.000449124
0.00033066
0.000311239
0.000462515
0.000613751
0.000446861
0.00034025
0.000558511
0.000965523
0.00100199
0.00094319
0.000579021
0.000450935
0.000453781
0.000570463
0.000680679
0.000596055
0.000485944
0.000533103
0.000509959
0.00041289
0.000308405
0.00039068
0.000411556
0.000259978
0.000352096
0.00052109
0.000649911
0.000768927
0.00076453
0.000837876
0.000819466
0.000768461
0.000816579
0.000862027
0.000862027
0.000817405
0.000784255
0.000625758
0.000304121
0.000312914
0.000372375
0.000409911
0.000409911
0.000395107
0.000440686
0.000498555
0.000636109
0.000993026
0.00104742
0.00104742
0.000954809
0.000887858
0.000887858
0.00085331
0.000730406
0.000600545
0.000380851
0.000267569
0.000343114
0.000370719
0.000213538
0.000302906
0.000261847
0.000270709
0.00035514
0.000693091
0.000894163
0.000916332
0.000869532
0.000740954
0.000695757
0.000701674
0.000645093
0.000523759
0.000380732
0.000299346
0.000305183
0.000349271
0.000364333
0.00025632
0.000211382
0.000213217
0.000167147
0.000583109
0.000871189
0.000847143
0.000810863
0.000667905
0.000609568
0.000609568
0.000580352
0.000531744
0.00045648
0.000378005
0.000334104
0.000328734
0.000351102
0.000351309
0.000426161
0.000363021
0.00036634
0.000482614
0.000867858
0.000910252
0.000910252
0.00068161
0.000633837
0.000653687
0.000653687
0.000612537
0.000546073
0.000463642
0.000391441
0.000357936
0.000342633
0.000322919
0.000326424
0.000701752
0.000620058
0.000637261
0.000802056
0.000900954
0.000900954
0.000763152
0.000511333
0.000705129
0.000722771
0.000722771
0.000664071
0.000586639
0.000508565
0.000437504
0.000383633
0.000346765
0.00029862
0.000289187
0.000879786
0.000879786
0.000899373
0.000899373
0.000891061
0.000785366
0.000486435
0.000659027
0.000763788
0.000767562
0.000767562
0.000706135
0.00062677
0.000536717
0.000450469
0.000384072
0.00032516
0.000253715
0.000244406
0.000971157
0.000971157
0.00094017
0.000888846
0.000748372
0.000512362
0.000425958
0.000696827
0.000770604
0.000780097
0.000780097
0.00071958
0.000642826
0.000552242
0.000460203
0.000372824
0.000288237
0.000205484
0.000197935
0.000755049
0.000805257
0.000779669
0.000730194
0.000560595
0.000345735
0.000485117
0.000670911
0.000750923
0.000774218
0.000774218
0.000735542
0.000659077
0.000556485
0.000445789
0.000339655
0.000243287
0.000160627
0.000151625
0.000673703
0.000673703
0.000654353
0.00060298
0.000516415
0.000455011
0.000543734
0.00069032
0.000784558
0.000822585
0.000822585
0.000786053
0.000691657
0.000563242
0.000427491
0.000301881
0.000200497
0.000122357
0.000104708
0.000685246
0.000686109
0.000686109
0.00067327
0.000643198
0.000613453
0.000683022
0.000795494
0.000878348
0.000921111
0.000921111
0.000883691
0.000768564
0.000610574
0.000440974
0.000285475
0.000176231
0.000107039
6.42055e-05
0.000763483
0.000783303
0.000783303
0.000781445
0.000757566
0.000755533
0.000812249
0.000903012
0.000980496
0.0010244
0.0010244
0.000993914
0.000861925
0.000667407
0.000466919
0.000280735
0.000159165
0.000107189
6.08641e-05
0.00084238
0.000855217
0.000855217
0.00084254
0.000823356
0.000846091
0.00090823
0.000999477
0.00108031
0.00113264
0.00113264
0.00111973
0.000988768
0.000761271
0.000518301
0.000289733
0.000145301
0.0001125
8.6866e-05
0.000877559
0.000877559
0.000870682
0.000854613
0.000862056
0.000901346
0.000972888
0.00107157
0.00116249
0.00122599
0.00122979
0.00122979
0.00110895
0.00086276
0.000578683
0.0003073
0.000138065
0.000134078
0.000117628
0.000856197
0.000856197
0.000844636
0.000847977
0.000874026
0.000926902
0.00101063
0.00112171
0.00122716
0.00130524
0.00132629
0.00132629
0.001233
0.000995733
0.000673345
0.000347238
0.000146489
0.000157656
0.000145407
0.000803707
0.000803707
0.00079321
0.000809495
0.000847759
0.000919603
0.0010221
0.00114908
0.00127151
0.00136491
0.00140235
0.00140235
0.00133969
0.00112266
0.000770712
0.000391573
0.000161086
0.000183494
0.000175743
0.000711214
0.000711214
0.000711639
0.000741243
0.000795935
0.000882116
0.00100043
0.00114742
0.00129336
0.00140781
0.00146334
0.00146334
0.00143091
0.00124823
0.000892401
0.000465835
0.000186965
0.000210239
0.000209549
0.000606356
0.000604579
0.00062831
0.000677323
0.000748701
0.000844513
0.000966749
0.00111926
0.00128656
0.00143
0.00150834
0.00150834
0.00150091
0.00135363
0.00101081
0.000546246
0.000214987
0.000245732
0.000245732
0.000513615
0.000514332
0.000558935
0.000628623
0.000718205
0.000823485
0.000947071
0.00109374
0.00126238
0.00142981
0.00153789
0.00155389
0.00155389
0.00144159
0.00113287
0.000652198
0.000258091
0.000285702
0.000285702
0.000432803
0.000440119
0.000492988
0.000577927
0.000684355
0.000801384
0.000928964
0.00107333
0.00123762
0.0014151
0.00155066
0.00159095
0.00159095
0.00150877
0.00123955
0.000757464
0.00030538
0.000331454
0.000335702
0.000380616
0.000393698
0.000450563
0.00054242
0.000660517
0.000787959
0.000919064
0.00106195
0.00121777
0.00139571
0.00155468
0.00161782
0.00161782
0.00156047
0.0013316
0.000864397
0.000358384
0.000383071
0.000392745
0.00034504
0.000363839
0.000421065
0.000511824
0.000635172
0.000771549
0.000906797
0.00105095
0.0012018
0.00137472
0.00154957
0.00163384
0.00163384
0.00159809
0.00140688
0.000961759
0.000410634
0.000441607
0.000457196
0.00034054
0.000367203
0.000422721
0.000506604
0.000627172
0.000766529
0.000903173
0.0010478
0.00119537
0.00135986
0.00154295
0.00164653
0.00164653
0.00162807
0.00146707
0.00105276
0.00046409
0.000505862
0.000529477
0.000333973
0.00036949
0.000426156
0.000503146
0.000618575
0.000759311
0.000897267
0.00104219
0.00118956
0.00134714
0.00153331
0.00165224
0.00165224
0.00164705
0.00151118
0.00113268
0.000527756
0.000575706
0.000610801
0.000352176
0.000392249
0.000447916
0.00051992
0.000628238
0.000765797
0.000903021
0.00104628
0.00119276
0.00134479
0.00152994
0.00166042
0.00166592
0.00166592
0.00154749
0.00119901
0.000581033
0.000654739
0.000700659
0.000360109
0.00040611
0.000461902
0.000529703
0.000631967
0.000766915
0.000904931
0.00104691
0.00119312
0.0013423
0.00152546
0.00166354
0.00167716
0.00167716
0.0015733
0.00125251
0.000641702
0.000735216
0.000800043
0.000388381
0.000435591
0.000489922
0.000554526
0.000651338
0.0007821
0.000919401
0.0010592
0.00120339
0.00135048
0.00153012
0.00167274
0.00169299
0.00169299
0.00159848
0.00129528
0.000670633
0.000829927
0.000907597
0.000401466
0.000452251
0.000507179
0.000569935
0.000661986
0.000788694
0.000926362
0.00106555
0.00120847
0.00135449
0.00153183
0.00167781
0.00170373
0.00170373
0.00161818
0.00133529
0.000727162
0.000919657
0.00102389
0.000432688
0.000482911
0.000536877
0.000598141
0.000687138
0.000810373
0.000946615
0.00108445
0.00122533
0.00136985
0.00154431
0.00169195
0.00172123
0.00172123
0.00164142
0.00137205
0.000749018
0.00103126
0.00114492
0.000445457
0.00049758
0.000552542
0.000613789
0.000700842
0.000820939
0.000956416
0.00109408
0.00123382
0.00137769
0.0015507
0.00170012
0.00173316
0.00173316
0.00165926
0.0014041
0.000799268
0.00112646
0.00127798
0.000479216
0.000530418
0.000584444
0.000644174
0.000729416
0.000847538
0.000981036
0.00111721
0.00125525
0.00139793
0.00156894
0.00171884
0.00175322
0.00175322
0.00168258
0.00143557
0.00080919
0.00125902
0.00140221
0.000487517
0.000539964
0.000595153
0.000655374
0.000740479
0.00085748
0.000990086
0.00112611
0.0012635
0.0014059
0.00157625
0.00172726
0.00176423
0.00176423
0.00169779
0.00146905
0.000860597
0.00134994
0.00154639
0.000526656
0.000578803
0.000633676
0.000692851
0.000775924
0.000890822
0.00102086
0.00115489
0.00129026
0.0014315
0.00160005
0.00175142
0.00178894
0.00178894
0.00172691
0.00150405
0.00083639
0.00152013
0.00154639
)
;

boundaryField
{
    leftWall
    {
        type            calculated;
        value           uniform 0;
    }
    rightWall
    {
        type            calculated;
        value           uniform 0;
    }
    lowerWall
    {
        type            calculated;
        value           uniform 0;
    }
    atmosphere
    {
        type            calculated;
        value           uniform 0;
    }
    defaultFaces
    {
        type            empty;
    }
}


// ************************************************************************* //
