/*--------------------------------*- C++ -*----------------------------------*\
| =========                 |                                                 |
| \\      /  F ield         | OpenFOAM: The Open Source CFD Toolbox           |
|  \\    /   O peration     | Version:  2012                                  |
|   \\  /    A nd           | Website:  www.openfoam.com                      |
|    \\/     M anipulation  |                                                 |
\*---------------------------------------------------------------------------*/
FoamFile
{
    version     2.0;
    format      ascii;
    class       volScalarField;
    location    "0.93";
    object      minKappa;
}
// * * * * * * * * * * * * * * * * * * * * * * * * * * * * * * * * * * * * * //

dimensions      [0 0 0 0 0 0 0];


internalField   nonuniform List<scalar> 
2268
(
1.34778e-07
3.09495e-07
5.18351e-07
7.31973e-07
9.64871e-07
1.19297e-06
1.44765e-06
1.66066e-06
1.8709e-06
1.97568e-06
1.9942e-06
1.8961e-06
1.72337e-06
1.42277e-06
1.06214e-06
6.05026e-07
2.80644e-07
7.05927e-07
1.21666e-06
1.54906e-06
1.66339e-06
1.10421e-06
7.92621e-07
1.34778e-07
3.09495e-07
5.18351e-07
7.31973e-07
9.64871e-07
1.19297e-06
1.44765e-06
1.66066e-06
1.8709e-06
1.97568e-06
1.9942e-06
1.8961e-06
1.72337e-06
1.42277e-06
1.06214e-06
6.05026e-07
2.80644e-07
7.05927e-07
1.21666e-06
1.54906e-06
1.66339e-06
1.10421e-06
7.92621e-07
2.09055e-07
3.55346e-07
5.44354e-07
7.49028e-07
9.79268e-07
1.21473e-06
1.47771e-06
1.69417e-06
1.90251e-06
2.00458e-06
2.02775e-06
1.9344e-06
1.77009e-06
1.47349e-06
1.14315e-06
7.49084e-07
5.63091e-07
8.94552e-07
1.34855e-06
1.66875e-06
1.80174e-06
1.29028e-06
9.92104e-07
2.94124e-07
4.06477e-07
5.73525e-07
7.70714e-07
1.00265e-06
1.24492e-06
1.51155e-06
1.73597e-06
1.94936e-06
2.05666e-06
2.09241e-06
2.00329e-06
1.85148e-06
1.56708e-06
1.28125e-06
9.58222e-07
8.59802e-07
1.13615e-06
1.52564e-06
1.88194e-06
2.06649e-06
1.655e-06
1.37564e-06
3.77437e-07
4.74003e-07
6.20966e-07
8.09945e-07
1.03857e-06
1.29416e-06
1.56921e-06
1.79734e-06
2.01905e-06
2.13159e-06
2.1788e-06
2.09899e-06
1.96073e-06
1.69539e-06
1.45914e-06
1.20548e-06
1.18177e-06
1.44901e-06
1.79418e-06
2.22602e-06
2.44649e-06
2.14022e-06
1.89774e-06
4.68774e-07
5.43192e-07
6.75731e-07
8.59654e-07
1.09634e-06
1.35982e-06
1.63314e-06
1.868e-06
2.10835e-06
2.23899e-06
2.29765e-06
2.22376e-06
2.10332e-06
1.86727e-06
1.67764e-06
1.49155e-06
1.52724e-06
1.78953e-06
2.10146e-06
2.60726e-06
2.79918e-06
2.62402e-06
2.60026e-06
5.46073e-07
6.09612e-07
7.18848e-07
9.02428e-07
1.13916e-06
1.43031e-06
1.71686e-06
1.9558e-06
2.22112e-06
2.37077e-06
2.4356e-06
2.3843e-06
2.28251e-06
2.06962e-06
1.9202e-06
1.80329e-06
1.90227e-06
2.15154e-06
2.37912e-06
2.7671e-06
2.64765e-06
3.12879e-06
3.30265e-06
6.2553e-07
6.89368e-07
7.88415e-07
9.6674e-07
1.22914e-06
1.53664e-06
1.80891e-06
2.05491e-06
2.36116e-06
2.5395e-06
2.60872e-06
2.56915e-06
2.48343e-06
2.28997e-06
2.20904e-06
2.17034e-06
2.31528e-06
2.54302e-06
2.95832e-06
2.99462e-06
2.64765e-06
3.42479e-06
4.25544e-06
6.39585e-05
0.000259616
0.000608847
0.000320577
0.000229776
0.000168534
9.73878e-05
3.31219e-05
8.73943e-06
3.40186e-06
8.19581e-06
1.88254e-05
1.22485e-05
1.62125e-05
2.77573e-05
2.57356e-05
2.58986e-05
1.35428e-05
5.06425e-06
6.39585e-05
0.000217998
0.000563519
0.000320577
0.000229776
0.000168534
9.73878e-05
3.31219e-05
8.73943e-06
3.40186e-06
4.59205e-06
1.55995e-05
1.22485e-05
1.62125e-05
2.77573e-05
2.57356e-05
2.58986e-05
1.35428e-05
5.06425e-06
6.95062e-05
0.000252084
0.000363213
0.000175512
0.000148826
0.000151036
0.000172515
1.70126e-05
9.62818e-06
4.88704e-06
4.59205e-06
6.83181e-06
2.01763e-05
2.33541e-05
3.15026e-05
5.22917e-05
8.55476e-05
2.57672e-05
5.5371e-06
7.3198e-05
0.000241862
0.000283995
5.72049e-05
5.56426e-05
4.68642e-05
5.68466e-05
1.36525e-05
1.07539e-05
6.74239e-06
5.1721e-06
6.83181e-06
2.74681e-05
3.18882e-05
3.15026e-05
8.17752e-05
7.00897e-05
1.99717e-05
4.29593e-06
5.65688e-05
0.000205427
0.000209573
5.72049e-05
4.07727e-05
4.68642e-05
1.59677e-05
1.32282e-05
1.14598e-05
8.24868e-06
7.85422e-06
7.33463e-06
3.23363e-05
3.61529e-05
3.19787e-05
7.94551e-05
3.38562e-05
7.3713e-06
2.90149e-06
5.5528e-05
0.000170211
0.000131708
0.000107907
4.07727e-05
4.98972e-05
1.59677e-05
1.2986e-05
1.22399e-05
1.43577e-05
4.05321e-05
4.37669e-05
3.23363e-05
6.18083e-05
3.39749e-05
2.64923e-05
1.05152e-05
4.20597e-06
1.65637e-06
5.5528e-05
0.000151719
9.08983e-05
0.000103275
5.03149e-05
0.000111264
1.66591e-05
1.28626e-05
1.61191e-05
7.26975e-05
0.000132575
0.000118429
7.08836e-05
9.56499e-05
6.59416e-05
1.81374e-05
4.52713e-06
4.20597e-06
1.63347e-06
6.05085e-05
0.000147521
9.08983e-05
0.000103275
5.32891e-05
0.000124748
4.40764e-05
1.28626e-05
4.24571e-05
0.000161117
0.000233022
0.00022146
0.000192723
0.000127974
0.000104376
1.81374e-05
4.52713e-06
4.34685e-06
1.63347e-06
1.12984e-06
1.20473e-06
1.29014e-06
1.61107e-06
2.05924e-06
2.59406e-06
3.00761e-06
3.3801e-06
3.91712e-06
4.21871e-06
4.33003e-06
4.31744e-06
4.23663e-06
4.03803e-06
4.13789e-06
4.61125e-06
6.54822e-06
8.8554e-06
1.62348e-05
1.28512e-05
3.06441e-06
8.603e-06
8.40054e-06
1.82989e-06
1.83921e-06
1.95906e-06
2.49202e-06
3.42764e-06
4.15115e-06
4.23841e-06
4.94131e-06
6.65804e-06
7.564e-06
8.32108e-06
8.8237e-06
9.27429e-06
1.12772e-05
1.78607e-05
4.21878e-05
9.00927e-05
0.000119786
0.000242708
9.77319e-05
6.87612e-05
1.55847e-05
8.53011e-06
2.28058e-06
1.95456e-06
1.95456e-06
2.62443e-06
5.1565e-06
8.96967e-06
1.03342e-05
2.07375e-05
2.11014e-05
2.31487e-05
3.12935e-05
3.94041e-05
4.87051e-05
7.73561e-05
0.000104136
0.000155475
0.000223967
0.000287633
0.000347839
0.000210335
3.99335e-05
2.6289e-05
2.76249e-05
3.3616e-06
3.06192e-06
4.08311e-06
1.48808e-05
5.74841e-05
8.51514e-05
7.43195e-05
0.000137638
0.000180458
0.000115238
9.90145e-05
0.000116376
0.00017248
0.000385191
0.000384971
0.000155475
0.000290331
0.000322741
0.000225838
4.81512e-05
1.77873e-05
1.77873e-05
5.20089e-05
5.68446e-06
7.41565e-06
2.5269e-05
0.000177337
0.000431035
0.000454082
0.000336031
0.000381684
0.000378601
0.000335826
0.000211426
0.000251574
0.000821695
0.000730995
0.000788939
0.000442046
0.000263647
0.000263647
8.0018e-05
4.57372e-05
3.54172e-05
2.82073e-05
6.54303e-05
1.21091e-05
2.13517e-05
9.18525e-05
0.000639078
0.00107053
0.000958642
0.000830555
0.00081428
0.000753024
0.000518764
0.000867986
0.00117601
0.00132057
0.00092168
0.00085178
0.000751258
0.000344342
0.000378108
9.5477e-05
5.40756e-05
5.28593e-05
5.49438e-05
6.27353e-05
2.66967e-05
5.27628e-05
0.000298755
0.000959888
0.00128739
0.00116784
0.00115761
0.00116752
0.00126067
0.000986662
0.0017715
0.001172
0.000905662
0.000824774
0.000815452
0.000801506
0.000703514
0.000524241
0.000217318
7.5082e-05
6.40425e-05
6.52109e-05
9.81958e-05
5.70774e-05
0.000133447
0.00049819
0.00125888
0.00126771
0.000954891
0.00114882
0.00119011
0.00146879
0.00174838
0.0011372
0.00093275
0.000842307
0.000823071
0.000823071
0.00082574
0.000845132
0.00071389
0.000443894
0.000100425
5.91815e-05
5.91815e-05
0.000105736
0.000226362
0.000413037
0.000831883
0.00137378
0.000804957
0.000512546
0.000773275
0.000891329
0.00119109
0.00123859
0.000933995
0.000901446
0.000869815
0.000864487
0.000851702
0.000859595
0.000790736
0.000810764
0.000766191
0.000433239
0.000107527
6.46335e-05
0.000150089
0.000779757
0.000781238
0.00108522
0.00129812
0.000583379
0.000403152
0.000489882
0.000563378
0.000694776
0.000735055
0.000567772
0.000551042
0.000674902
0.000728915
0.000809676
0.000769036
0.000729964
0.000630964
0.000635296
0.000614795
0.000438069
0.000216703
0.000171286
0.00103481
0.000947481
0.001141
0.00122466
0.000568947
0.000403152
0.000397002
0.000309805
0.000400146
0.000352374
0.000146423
0.00027306
0.000426826
0.000502803
0.000613306
0.000622343
0.000641973
0.00054758
0.000563517
0.000605456
0.000474764
0.000324796
0.000254852
0.00110145
0.00112277
0.00139381
0.00113414
0.000573872
0.000403819
0.000316421
0.000194749
0.000241074
0.000107175
6.10674e-05
0.000139327
0.000284275
0.000370491
0.000459699
0.00049657
0.000539745
0.000501773
0.000532624
0.000577399
0.000653258
0.000469774
0.000316977
0.00110145
0.00126392
0.00152193
0.00103724
0.000533241
0.000346629
0.000231904
0.000112229
0.000163771
7.83633e-05
6.10674e-05
0.000131031
0.000251458
0.000331006
0.000407735
0.000425001
0.000470429
0.000470487
0.000502234
0.000550537
0.000604877
0.000589135
0.000334536
0.00113198
0.00139419
0.00153198
0.000999274
0.000505602
0.000287028
0.000186602
8.12632e-05
0.000122784
7.31268e-05
7.31268e-05
0.000116328
0.000185515
0.000261195
0.000331024
0.000385068
0.000427747
0.000452066
0.000483806
0.000529041
0.000582408
0.00061976
0.000397089
0.00118346
0.00147943
0.00153289
0.000951768
0.000466393
0.000238689
0.000169835
8.12632e-05
0.000137213
7.36918e-05
0.000126793
0.000148243
0.000201454
0.000262364
0.000312815
0.000357346
0.000394045
0.000429401
0.000461737
0.000505469
0.000555688
0.000614038
0.000465368
0.0012298
0.001618
0.00157046
0.000923302
0.000445759
0.000228591
0.000183232
9.19164e-05
0.000157376
0.000111922
0.000154035
0.000161697
0.000198423
0.000245046
0.0002923
0.000340781
0.000382583
0.000423574
0.000460175
0.000501161
0.000544577
0.000596678
0.000506204
0.00133835
0.00164119
0.00163622
0.000900144
0.000447477
0.000228591
0.000218545
0.000131809
0.000195814
0.000149496
0.000193157
0.000183126
0.000226164
0.000259328
0.000291183
0.000328145
0.000363208
0.000400703
0.000435318
0.000472147
0.000506496
0.000546261
0.000469969
0.00133835
0.0017951
0.00163663
0.000873768
0.000465858
0.000262156
0.000252909
0.000180824
0.000223967
0.000184439
0.000215651
0.000209612
0.000239842
0.00026781
0.000297538
0.000333784
0.000366899
0.000402098
0.00043517
0.000469016
0.00049943
0.000529255
0.000428481
0.00160132
0.0020583
0.00161868
0.000854538
0.000479873
0.000311348
0.000277444
0.000220206
0.00023453
0.000206428
0.000228912
0.00022675
0.000252964
0.000277351
0.000302553
0.000334804
0.000365956
0.000398487
0.000428935
0.000460114
0.000489729
0.000520325
0.000420441
0.00197069
0.00230628
0.00161862
0.000843899
0.000480876
0.000336721
0.000286406
0.000245254
0.000236623
0.000217186
0.000232531
0.000236302
0.000254105
0.00027759
0.000301563
0.000331109
0.00036048
0.000391435
0.000420827
0.00045122
0.00048191
0.000513764
0.000420261
0.00229584
0.00239191
0.00163487
0.000813817
0.00044609
0.000324112
0.000272941
0.000232776
0.000215338
0.000200738
0.000224628
0.000235394
0.00025632
0.000282475
0.000309365
0.000340038
0.000369437
0.00039925
0.000428607
0.000459913
0.000493617
0.000529815
0.000439995
0.00255193
0.00246515
0.00164652
0.00074265
0.000309433
0.000281247
0.000233855
0.000194805
0.000170891
0.000175292
0.000202198
0.0002231
0.000248915
0.000279742
0.000309936
0.000341931
0.000373554
0.000407972
0.000446002
0.000489338
0.000534273
0.000576573
0.000482364
0.00271735
0.00251773
0.00167462
0.000637861
0.000211788
0.000225336
0.000174389
0.000132866
0.000110719
0.000142039
0.000181645
0.000214507
0.000248592
0.000283718
0.000317333
0.000352469
0.000388684
0.000429928
0.000477684
0.000530475
0.000579178
0.00062215
0.000516935
0.00271881
0.0024798
0.00170571
0.000687813
0.000211788
0.000185467
0.000122144
7.39862e-05
7.41212e-05
9.88384e-05
0.000153751
0.000203764
0.000247491
0.000289329
0.000327728
0.000368074
0.000412475
0.00046565
0.000521459
0.000572305
0.000611868
0.000644545
0.000527612
0.00263445
0.00236824
0.00168526
0.000836832
0.000339937
0.000223883
0.000109579
6.11082e-05
6.11082e-05
9.57383e-05
0.000158107
0.000215485
0.000263115
0.000308581
0.00035139
0.000398729
0.000452964
0.000513067
0.00056491
0.000603876
0.00063119
0.000657149
0.000526174
0.0025078
0.00222972
0.00167009
0.000944759
0.000510298
0.000319258
0.000199436
9.83488e-05
0.000112174
0.000143927
0.00019768
0.000246151
0.000290386
0.000335868
0.000382434
0.000438342
0.000499374
0.000554506
0.000590797
0.000610583
0.000625945
0.000646976
0.000499683
0.00238439
0.00217017
0.00161928
0.00098356
0.000619364
0.000420983
0.00030458
0.000199186
0.000199265
0.0002042
0.000258755
0.000289465
0.000338153
0.00038009
0.000433962
0.000495193
0.000551204
0.000590009
0.000606384
0.000613163
0.000624384
0.000625806
0.000464965
0.00232177
0.0020054
0.00147594
0.000992054
0.000701126
0.00052448
0.000415009
0.000313684
0.000298816
0.000287096
0.000322206
0.000344627
0.000391586
0.000431345
0.00048888
0.00054554
0.000585805
0.000598973
0.000598973
0.000602253
0.000602851
0.000584744
0.000415954
0.00192124
0.00174538
0.00133738
0.000996491
0.000764729
0.000612974
0.000513863
0.000422838
0.000396622
0.000375984
0.000395142
0.000410523
0.000452001
0.000494534
0.000557828
0.000596471
0.000608998
0.000598662
0.000597089
0.000583128
0.000567971
0.000532963
0.000365843
0.00160388
0.00150073
0.00124683
0.00100548
0.000828754
0.000704181
0.000608717
0.000524676
0.000490517
0.000465678
0.000473473
0.000484212
0.000522285
0.000565527
0.000616395
0.000623673
0.000600913
0.000588553
0.00057517
0.000551072
0.000520183
0.00047682
0.000321846
0.00140871
0.0013566
0.00118089
0.00100938
0.000870244
0.000765028
0.000686026
0.000615992
0.000578406
0.000552299
0.000552925
0.000561999
0.000599118
0.000636779
0.000665801
0.00062962
0.000601319
0.000577351
0.000547386
0.00051061
0.000468578
0.000425309
0.000281808
0.00129843
0.00125906
0.00114067
0.00102287
0.000918971
0.000835595
0.000760752
0.000697689
0.000660393
0.000635396
0.000632568
0.000642268
0.00067713
0.000701553
0.000669095
0.00062157
0.00058572
0.000547762
0.000507229
0.000464532
0.000422373
0.000379965
0.000255181
0.0012384
0.00120176
0.00111682
0.00102935
0.000947638
0.000879308
0.000824033
0.000771894
0.000736895
0.000714147
0.000711176
0.000723166
0.000751122
0.000737366
0.000674066
0.0006201
0.000570507
0.000518596
0.000467374
0.000418483
0.000374341
0.000336335
0.000225557
0.00120855
0.00117391
0.00111662
0.00105492
0.000994192
0.000939989
0.00088285
0.000839293
0.000808258
0.000789164
0.000788419
0.000801184
0.000810184
0.000738929
0.000664684
0.000600846
0.000537589
0.00047801
0.000424335
0.000378094
0.000335802
0.000303505
0.000214448
0.00119101
0.00116073
0.0011169
0.001069
0.00102134
0.000978789
0.000938308
0.000902247
0.000875971
0.000861693
0.000864888
0.000873656
0.00082871
0.000739323
0.000659482
0.000583428
0.00050946
0.000441697
0.000381955
0.000332217
0.000295482
0.000273945
0.000196247
0.00119169
0.00117113
0.00114144
0.00110724
0.00106702
0.00102793
0.000991008
0.000961627
0.000941118
0.000931544
0.000935417
0.000917736
0.000826397
0.000726677
0.000635987
0.000547789
0.000467534
0.000398506
0.00034315
0.000299031
0.000268403
0.000255657
0.00020079
0.00119786
0.00118141
0.00115707
0.00112927
0.00110071
0.00107189
0.00104252
0.00101951
0.0010048
0.00100005
0.00100206
0.000932424
0.000822844
0.000717333
0.000617006
0.000521489
0.000435731
0.00036148
0.000301679
0.000261524
0.000244159
0.000244159
0.000194088
0.00121509
0.00120828
0.00119002
0.00116826
0.00114253
0.00111815
0.00109493
0.00107769
0.00106739
0.00106405
0.00102842
0.00092447
0.000804211
0.000689587
0.000579495
0.000478931
0.000391897
0.0003227
0.000274924
0.000240296
0.000232756
0.000244477
0.000209991
0.00123497
0.00123191
0.00121961
0.00120342
0.00118418
0.00116546
0.00114812
0.00113617
0.0011295
0.00112457
0.00104501
0.000918841
0.000791114
0.000669751
0.000555062
0.000451564
0.000361406
0.000288362
0.000239184
0.000220375
0.000220375
0.00022782
0.00020989
0.00127049
0.00126838
0.00125924
0.00124713
0.00123284
0.00121851
0.00120555
0.00119633
0.00118865
0.00114253
0.00102748
0.00088952
0.000756384
0.00062981
0.000512263
0.000407635
0.000321507
0.000261415
0.000226862
0.000213421
0.000227784
0.000246532
0.000231246
0.00130507
0.00130355
0.00129744
0.00128942
0.00127976
0.00126988
0.00126164
0.00125511
0.00124519
0.00116241
0.00102678
0.000882024
0.000743183
0.000610613
0.000488949
0.000382558
0.000295828
0.000234771
0.000206803
0.000206803
0.000211757
0.000237788
0.000232456
0.00135732
0.00135625
0.00135229
0.0013469
0.00134079
0.00133425
0.00132803
0.00131828
0.00126492
0.00113933
0.000986392
0.000835459
0.000693231
0.000561958
0.000445173
0.000346925
0.000271775
0.000226357
0.000213232
0.000209932
0.000231014
0.000264971
0.000256933
3.82841e-06
3.82841e-06
1.49003e-05
3.23783e-05
7.44693e-06
7.44693e-06
2.39459e-05
3.69612e-05
3.96791e-05
3.45516e-05
3.45516e-05
3.47436e-05
4.32678e-05
3.76104e-05
3.76104e-05
4.08601e-05
4.27031e-05
4.27031e-05
4.38243e-05
4.84264e-05
4.25454e-05
4.25454e-05
4.35754e-05
6.47009e-05
7.56943e-05
7.56943e-05
9.46948e-05
0.000254102
0.000305492
0.00026845
0.000313997
0.000322881
0.000219261
0.000279082
0.00028928
0.00028928
0.000172843
0.000172843
0.000240991
0.000271465
0.000178291
0.000178291
0.000193706
0.000211748
0.00017359
0.000131019
9.343e-05
9.343e-05
0.000187616
0.00015931
0.000132625
0.000132625
0.000221819
0.000196015
0.000181102
0.000181102
0.00028678
0.000282986
0.000282986
0.000297153
0.000331403
0.000331403
0.000343563
0.000370961
0.000314542
0.000314542
0.000329931
0.000351962
0.000279503
0.000279503
0.000284847
0.00029132
0.000273982
0.000273982
0.00027732
0.000280244
0.000274951
0.000274951
0.000279388
0.000283102
0.000289737
0.000289737
0.000296923
0.000303909
0.000318334
0.000318334
0.000327064
0.000335496
0.000340975
0.000340975
0.000349667
0.000357544
0.00034629
0.00034629
0.00035287
0.00035816
0.000342097
0.000342097
0.000344967
0.000346317
0.000320902
0.000319359
0.000316403
0.000316403
0.000293424
0.000286836
0.000279205
0.000279205
0.000258033
0.000248466
0.000238843
0.000238843
0.000224318
0.000214099
0.000204306
0.000204306
0.000196698
0.000187384
0.000178727
0.000178727
0.000171927
0.000163967
0.000156964
0.000156964
0.000156778
0.000151041
0.00014656
0.00014656
0.000139877
0.000136671
0.000135004
0.000135004
0.000135462
0.000134971
0.000134971
0.000135938
0.000126751
0.000126751
0.000129159
0.000132866
0.00013204
0.00013204
0.000136436
0.000141768
0.00013015
0.00013015
0.000136558
0.00014362
0.000141485
0.000141485
0.000148704
0.00015634
0.000142778
0.000142778
0.000151143
0.000159703
0.000156912
0.000156912
0.000165518
0.000174202
0.000158348
0.000158348
0.000167489
0.000176623
0.00017438
0.00017438
0.000183737
0.000193033
9.92533e-05
0.000147521
0.000144229
0.000173265
0.000127067
6.70884e-05
4.7769e-05
2.02533e-05
7.82725e-05
0.000334402
0.000452431
0.000327429
0.000204702
0.000228122
0.000178913
4.16805e-05
8.53807e-06
8.6654e-06
9.44187e-06
9.54674e-05
0.000165689
0.000165412
5.1695e-05
7.88719e-05
4.18808e-05
4.10034e-05
4.73492e-05
0.000257688
0.000566278
0.00042158
0.000203985
0.000172484
0.000151631
0.000116749
7.76594e-05
3.8548e-05
5.16736e-05
6.53079e-05
7.23259e-05
0.000199733
9.69686e-05
5.1695e-05
5.63438e-05
3.57929e-05
3.13838e-05
8.35422e-05
0.000290755
0.00032262
0.000285637
0.000267199
0.000172618
0.000165008
0.000129899
0.000109734
0.000141589
0.000166336
8.85314e-05
8.53217e-05
0.000200998
7.22213e-05
5.69115e-05
4.26431e-05
2.98514e-05
2.12098e-05
4.18427e-05
8.03839e-05
0.00013408
0.000196899
0.000362801
0.000394214
0.000349961
0.00024372
0.000185769
0.000293474
0.000219403
8.85314e-05
0.000135446
0.000308241
0.00012299
0.000104745
0.000100748
4.86699e-05
1.77718e-05
1.77718e-05
1.95323e-05
0.000100104
0.000308133
0.000485049
0.000516595
0.000453267
0.000286465
0.000144711
0.000278356
0.000337973
0.000261072
0.000325236
0.000425537
0.000388331
0.0007002
0.000580439
0.000273832
0.0001097
4.58819e-05
8.47306e-05
0.000208475
0.00030679
0.000396526
0.000465205
0.00033393
0.000236442
0.000144711
0.000239948
0.000287225
0.000408074
0.000598946
0.000596969
0.000673956
0.000511728
0.000835016
0.000661633
0.000321346
0.000272679
0.000222048
0.000197014
0.000196986
0.000196986
0.000336424
0.000351851
0.00033369
0.000395212
0.000245232
0.000212325
0.000435189
0.00054702
0.0004327
0.00034025
0.000301793
0.000645705
0.000914856
0.000448026
0.000225903
0.000225903
0.000262269
0.000298298
0.000339849
0.000383713
0.000344652
0.000329204
0.000329204
0.000222465
0.000167972
0.000311239
0.000411556
0.000235224
0.00028417
0.000301793
0.000558511
0.000768927
0.000579021
0.000273651
0.000226719
0.000230501
0.000362552
0.000492114
0.000377081
0.000344652
0.000332843
0.00041289
0.00014813
0.000167972
0.000308405
0.000259978
0.000235224
0.000245526
0.00032462
0.000498555
0.000460766
0.000659011
0.000557944
0.000450935
0.000453781
0.000570463
0.000680679
0.000596055
0.000485944
0.000533103
0.000304121
0.00014813
0.000189083
0.000312914
0.000213538
0.000247214
0.000261847
0.000270709
0.000259319
0.00038628
0.000636109
0.000837876
0.000819466
0.000717202
0.000695757
0.000701674
0.000645093
0.000490262
0.000379153
0.000236534
0.000192977
0.000222055
0.000343114
0.000100845
0.00016232
0.000194469
0.000102095
0.000151583
0.00035514
0.000693091
0.000768622
0.000625851
0.000598326
0.000564255
0.000553397
0.000501119
0.000380732
0.000299346
0.000236534
0.000256408
0.000261315
0.000349271
0.000121821
0.000199795
0.000135906
0.000102095
0.000167147
0.000583109
0.000779815
0.000570656
0.000541103
0.000582053
0.000559051
0.00051815
0.000455418
0.000375959
0.000300783
0.000271878
0.000288744
0.000281594
0.000326424
0.00025632
0.000199795
0.000213217
0.000122976
0.000465915
0.000837181
0.000677164
0.000398499
0.000541103
0.000582053
0.000559051
0.00051815
0.000455418
0.000375959
0.000319414
0.000306078
0.000299791
0.000259252
0.000289187
0.000426161
0.000363021
0.00036634
0.000418726
0.000764141
0.000714311
0.000416171
0.000398499
0.000511333
0.000636831
0.000605693
0.000546943
0.000476141
0.000402323
0.000346946
0.000323508
0.000280041
0.000219443
0.000244406
0.000642022
0.000620058
0.000637261
0.000721021
0.000674591
0.000486435
0.000205747
0.000425231
0.000630052
0.000695819
0.000649682
0.000587676
0.000508523
0.000436195
0.000366642
0.000312915
0.000241922
0.000173428
0.000197935
0.000633803
0.000805257
0.00076156
0.000702946
0.000483897
0.000293248
0.000205747
0.000425958
0.000653162
0.000720248
0.000673011
0.000614534
0.000532514
0.000451788
0.00036208
0.000282396
0.00019846
0.000132748
0.000151625
0.00050064
0.000657953
0.000632682
0.000560595
0.000345735
0.000293248
0.000241238
0.000485117
0.000653162
0.000720248
0.000682721
0.000631163
0.00054494
0.000445789
0.00033751
0.000242825
0.000158708
9.7342e-05
0.000104708
0.000473381
0.000620688
0.000594954
0.000516415
0.000408038
0.000293898
0.000358511
0.000543734
0.000658052
0.00072778
0.000713162
0.00066002
0.000559661
0.000427491
0.000301881
0.000200497
0.000122357
7.63937e-05
6.34139e-05
0.000479328
0.000620688
0.000594954
0.000562108
0.000488852
0.000455011
0.00047984
0.00062909
0.000713053
0.000788161
0.000785367
0.000721112
0.000596724
0.000440974
0.000285475
0.000176231
0.000107039
6.42055e-05
3.56646e-05
0.000520402
0.000666861
0.000665929
0.000653223
0.000616484
0.000613453
0.000621364
0.00073084
0.000803921
0.00087454
0.000881245
0.00081283
0.00065831
0.000466919
0.000280735
0.000159165
0.000104834
6.08641e-05
3.56646e-05
0.000575206
0.000742824
0.000743826
0.000729112
0.000703705
0.000717046
0.00073282
0.000823293
0.000895999
0.000964971
0.000981719
0.000925171
0.000744481
0.000518301
0.000289733
0.000145301
9.41047e-05
8.6866e-05
4.11483e-05
0.000610147
0.000788717
0.000767702
0.000763361
0.00075085
0.000775958
0.000805855
0.000895551
0.000976053
0.0010492
0.00107926
0.00104013
0.000852163
0.000578683
0.0003073
0.000138065
9.04149e-05
0.0001125
7.24948e-05
0.000606138
0.000749475
0.000733653
0.000747314
0.000754563
0.000804577
0.000849577
0.000944257
0.00103759
0.00112001
0.00116389
0.00114139
0.000970844
0.000673345
0.000347238
0.000146489
9.04149e-05
0.000130695
0.000103841
0.000579873
0.000679524
0.000671323
0.000692485
0.000712101
0.000775709
0.000854029
0.000971665
0.00107984
0.0011758
0.00123305
0.00122739
0.0010927
0.000770712
0.000391573
0.000161086
9.60671e-05
0.000149798
0.000132794
0.000523087
0.000586792
0.000590771
0.000623013
0.000661237
0.000736283
0.000824906
0.000952595
0.00109411
0.00121482
0.00128606
0.00129744
0.00120027
0.000892401
0.000465835
0.000186965
0.000103616
0.000167619
0.000164932
0.00045468
0.000495721
0.000513645
0.00056133
0.000620454
0.000706215
0.000801408
0.000927316
0.00107035
0.00122907
0.00132517
0.00135328
0.0012889
0.00101081
0.000546246
0.000214987
0.000109513
0.000185908
0.000201422
0.000385579
0.000418974
0.000445334
0.000506734
0.000584689
0.000683338
0.000784819
0.000909271
0.00104642
0.00120829
0.00134916
0.00139578
0.00135641
0.00113287
0.000652198
0.000258091
0.000115725
0.000206642
0.000241148
0.000328239
0.000362469
0.000392295
0.000461365
0.000551728
0.000663749
0.000771869
0.000896463
0.00103005
0.00118391
0.00134898
0.00142644
0.00140602
0.00123955
0.000757464
0.00030538
0.000123966
0.00023155
0.00028555
0.000287481
0.000326437
0.000359042
0.000429295
0.000523743
0.00064695
0.000761334
0.000886565
0.00101931
0.0011619
0.00133407
0.00144776
0.00144137
0.00132244
0.000864397
0.000358384
0.000132139
0.000257549
0.000335702
0.00025425
0.000313163
0.00034813
0.000414805
0.000505616
0.000634662
0.000753931
0.000879246
0.00101344
0.00114714
0.00131605
0.00146102
0.00146581
0.00137738
0.000961759
0.000410634
0.000138063
0.000285106
0.000392745
0.000241127
0.000313163
0.00034813
0.000414706
0.000497679
0.000627172
0.000749884
0.000874366
0.00101005
0.00113909
0.00129883
0.0014679
0.00148398
0.0014192
0.00105276
0.00046409
0.000142368
0.000313642
0.000457196
0.000226652
0.000313579
0.000352648
0.000414706
0.000497679
0.000618575
0.000749884
0.000873558
0.00100914
0.00113726
0.00128667
0.00146987
0.00149778
0.00144863
0.00113268
0.000527756
0.00015604
0.000354042
0.000529477
0.000232108
0.000323262
0.000365437
0.000424514
0.000499721
0.000626091
0.000750255
0.000873558
0.00100914
0.00113726
0.00127998
0.001469
0.00150968
0.00147002
0.00119901
0.000581033
0.000176042
0.000393634
0.000610801
0.000230878
0.000339037
0.000382612
0.000439483
0.000508581
0.000629148
0.000753845
0.000876618
0.00101003
0.00113923
0.00127965
0.001469
0.00152017
0.00148607
0.00125251
0.000641702
0.000208172
0.000448368
0.000700659
0.000247904
0.000358052
0.000402612
0.000457276
0.000521881
0.00063653
0.000760968
0.000884069
0.00101408
0.00114464
0.00127965
0.00146943
0.00153078
0.00149977
0.00129528
0.000670633
0.000240584
0.000494025
0.000800043
0.000253283
0.000378561
0.000423666
0.000476986
0.000538361
0.00064701
0.000770065
0.000894283
0.00102074
0.00115197
0.00128356
0.00147161
0.00154179
0.00151296
0.00133529
0.000727162
0.000276457
0.000553884
0.000907597
0.00027524
0.000399601
0.000445232
0.000497678
0.000556893
0.000660685
0.000781892
0.000907032
0.00103082
0.00116178
0.00129135
0.00147684
0.00155412
0.00152629
0.00137205
0.000749018
0.000303822
0.000598263
0.00102389
0.000282181
0.000419858
0.000465817
0.000517947
0.000576119
0.000676515
0.000795166
0.00092089
0.00104273
0.0011728
0.00130135
0.00148402
0.00156721
0.00153985
0.0014041
0.000799268
0.000330717
0.000657294
0.00112646
0.00030652
0.000441043
0.000487388
0.000539165
0.000596315
0.000694377
0.000810748
0.00093628
0.00105681
0.00118565
0.00131379
0.00149382
0.00158169
0.00155422
0.00143557
0.00080919
0.000350797
0.000701269
0.00125902
0.00031123
0.000460023
0.000506621
0.000558333
0.000614665
0.00071178
0.000826299
0.000951089
0.00107087
0.00119834
0.00132653
0.00150413
0.00159584
0.00156805
0.00146905
0.000860597
0.000354308
0.000765152
0.00134994
0.000338896
0.000481588
0.000528561
0.000580635
0.000636128
0.000732104
0.000844826
0.000968279
0.00108744
0.00121311
0.00134178
0.00151667
0.00161237
0.00158342
0.00149773
0.00083639
0.000354308
0.000785305
0.00152013
)
;

boundaryField
{
    leftWall
    {
        type            calculated;
        value           uniform 0;
    }
    rightWall
    {
        type            calculated;
        value           uniform 0;
    }
    lowerWall
    {
        type            calculated;
        value           uniform 0;
    }
    atmosphere
    {
        type            calculated;
        value           uniform 0;
    }
    defaultFaces
    {
        type            empty;
    }
}


// ************************************************************************* //
