/*--------------------------------*- C++ -*----------------------------------*\
| =========                 |                                                 |
| \\      /  F ield         | OpenFOAM: The Open Source CFD Toolbox           |
|  \\    /   O peration     | Version:  2012                                  |
|   \\  /    A nd           | Website:  www.openfoam.com                      |
|    \\/     M anipulation  |                                                 |
\*---------------------------------------------------------------------------*/
FoamFile
{
    version     2.0;
    format      ascii;
    class       surfaceScalarField;
    location    "0.93";
    object      phi;
}
// * * * * * * * * * * * * * * * * * * * * * * * * * * * * * * * * * * * * * //

dimensions      [0 3 -1 0 0 0 0];
oriented        oriented;


internalField   nonuniform List<scalar> 
4432
(
-9.58967e-07
9.58967e-07
-1.96094e-06
1.00197e-06
-3.01844e-06
1.0575e-06
-4.14346e-06
1.12501e-06
-5.29928e-06
1.15582e-06
-6.49788e-06
1.1986e-06
-7.63931e-06
1.14143e-06
-8.66741e-06
1.0281e-06
-9.43839e-06
7.70979e-07
-9.73005e-06
2.9166e-07
-9.53569e-06
-1.94361e-07
-8.84244e-06
-6.93257e-07
-7.65773e-06
-1.18471e-06
-5.99304e-06
-1.66469e-06
-3.87589e-06
-2.11715e-06
-1.2257e-06
-2.6502e-06
1.66453e-06
-2.89022e-06
4.46191e-06
-2.79738e-06
6.65192e-06
-2.19001e-06
7.78003e-06
-1.12811e-06
6.47104e-06
1.30898e-06
4.10602e-06
2.36503e-06
4.10601e-06
-9.50864e-07
1.90983e-06
-1.97985e-06
2.03096e-06
-3.03658e-06
2.11423e-06
-4.13137e-06
2.2198e-06
-5.25329e-06
2.27774e-06
-6.45769e-06
2.403e-06
-7.64592e-06
2.32966e-06
-8.71918e-06
2.10135e-06
-9.5262e-06
1.578e-06
-9.83852e-06
6.03983e-07
-9.64633e-06
-3.86555e-07
-8.97051e-06
-1.36908e-06
-7.78673e-06
-2.36848e-06
-6.09132e-06
-3.36011e-06
-3.91746e-06
-4.29101e-06
-1.23284e-06
-5.33483e-06
1.73138e-06
-5.85444e-06
4.63551e-06
-5.70151e-06
6.87054e-06
-4.42505e-06
7.94229e-06
-2.19985e-06
6.75083e-06
2.50044e-06
4.11829e-06
4.99756e-06
8.22429e-06
-9.78576e-07
2.88841e-06
-1.94405e-06
2.99643e-06
-2.97078e-06
3.14096e-06
-4.11202e-06
3.36103e-06
-5.32969e-06
3.49541e-06
-6.6236e-06
3.69691e-06
-7.84591e-06
3.55197e-06
-8.91866e-06
3.17411e-06
-9.7077e-06
2.36703e-06
-1.00329e-05
9.29206e-07
-9.87252e-06
-5.46951e-07
-9.19091e-06
-2.0507e-06
-7.94597e-06
-3.61342e-06
-6.21243e-06
-5.09365e-06
-3.95624e-06
-6.5472e-06
-1.18622e-06
-8.10485e-06
1.92738e-06
-8.96804e-06
5.0855e-06
-8.85964e-06
7.54428e-06
-6.88383e-06
8.97644e-06
-3.63201e-06
7.92095e-06
3.55592e-06
4.66075e-06
8.25776e-06
1.2885e-05
-9.10536e-07
3.79894e-06
-1.86908e-06
3.95498e-06
-2.86285e-06
4.13473e-06
-3.97305e-06
4.47124e-06
-5.17593e-06
4.69829e-06
-6.50244e-06
5.02342e-06
-7.83389e-06
4.88341e-06
-9.05117e-06
4.39139e-06
-9.976e-06
3.29186e-06
-1.04085e-05
1.36166e-06
-1.02779e-05
-6.77521e-07
-9.59903e-06
-2.72956e-06
-8.36228e-06
-4.85017e-06
-6.62255e-06
-6.83338e-06
-4.30843e-06
-8.86132e-06
-1.45226e-06
-1.0961e-05
1.9014e-06
-1.23217e-05
5.40606e-06
-1.23643e-05
8.35703e-06
-9.8348e-06
1.01487e-05
-5.42368e-06
9.13012e-06
4.5745e-06
5.17778e-06
1.22101e-05
1.80628e-05
-9.83322e-07
4.78226e-06
-1.88253e-06
4.85418e-06
-2.86812e-06
5.12032e-06
-4.0339e-06
5.63702e-06
-5.35815e-06
6.02254e-06
-6.80887e-06
6.47414e-06
-8.1608e-06
6.23535e-06
-9.39166e-06
5.62225e-06
-1.03489e-05
4.24913e-06
-1.08152e-05
1.82794e-06
-1.07358e-05
-7.56941e-07
-1.00538e-05
-3.41153e-06
-8.73375e-06
-6.17025e-06
-6.90861e-06
-8.65852e-06
-4.40925e-06
-1.13607e-05
-1.32959e-06
-1.40407e-05
2.28855e-06
-1.59398e-05
6.18979e-06
-1.62655e-05
9.79881e-06
-1.34438e-05
1.23467e-05
-7.97157e-06
1.15313e-05
5.38994e-06
7.27694e-06
1.64644e-05
2.53397e-05
-8.50691e-07
5.63295e-06
-1.77996e-06
5.78345e-06
-2.68496e-06
6.02531e-06
-3.82664e-06
6.77869e-06
-5.15108e-06
7.34698e-06
-6.62869e-06
7.95175e-06
-8.13816e-06
7.74482e-06
-9.62533e-06
7.10942e-06
-1.08616e-05
5.48536e-06
-1.15112e-05
2.47756e-06
-1.14399e-05
-8.2821e-07
-1.07385e-05
-4.11294e-06
-9.46878e-06
-7.43997e-06
-7.62773e-06
-1.04996e-05
-5.06648e-06
-1.39219e-05
-1.89364e-06
-1.72135e-05
1.98681e-06
-1.98203e-05
6.31719e-06
-2.05959e-05
1.06784e-05
-1.7805e-05
1.34828e-05
-1.0776e-05
1.22488e-05
6.62395e-06
7.22667e-06
2.14865e-05
3.25664e-05
-8.12724e-07
6.44568e-06
-1.57245e-06
6.54318e-06
-2.49648e-06
6.94934e-06
-3.68632e-06
7.96853e-06
-5.22782e-06
8.88849e-06
-6.98389e-06
9.70782e-06
-8.52473e-06
9.28565e-06
-1.00493e-05
8.63403e-06
-1.1407e-05
6.84297e-06
-1.21168e-05
3.18745e-06
-1.21642e-05
-7.80853e-07
-1.15419e-05
-4.73528e-06
-1.0139e-05
-8.84283e-06
-8.07974e-06
-1.25589e-05
-5.30189e-06
-1.66998e-05
-2.01269e-06
-2.05027e-05
1.83621e-06
-2.36692e-05
5.91782e-06
-2.46775e-05
9.99275e-06
-2.188e-05
1.3275e-05
-1.40582e-05
1.3521e-05
6.37795e-06
9.58985e-06
2.54176e-05
4.21563e-05
-1.04449e-06
7.49017e-06
-1.90386e-06
7.40255e-06
-2.47139e-06
7.51687e-06
-3.5779e-06
9.07503e-06
-5.10019e-06
1.04108e-05
-6.78437e-06
1.1392e-05
-8.49151e-06
1.09928e-05
-1.0409e-05
1.05516e-05
-1.22105e-05
8.64441e-06
-1.31685e-05
4.14546e-06
-1.31683e-05
-7.811e-07
-1.24324e-05
-5.47111e-06
-1.09786e-05
-1.02966e-05
-9.03424e-06
-1.45033e-05
-6.72747e-06
-1.90066e-05
-4.02724e-06
-2.3203e-05
-4.69086e-07
-2.72274e-05
3.07171e-06
-2.82187e-05
6.49166e-06
-2.53031e-05
9.69654e-06
-1.72657e-05
1.07682e-05
5.30621e-06
8.54536e-06
2.76405e-05
5.07016e-05
-5.04563e-05
5.03421e-05
-0.000111426
6.09566e-05
-0.000151073
3.95965e-05
-0.00014779
-3.27502e-06
-0.000135003
-1.27787e-05
-0.000117039
-1.79494e-05
-8.66377e-05
-3.03802e-05
-4.41086e-05
-4.25303e-05
-9.47019e-06
-3.4635e-05
1.23204e-05
-2.1784e-05
2.05222e-05
-8.19068e-06
1.34942e-06
1.91804e-05
-3.29032e-05
3.42506e-05
-5.3663e-05
2.07595e-05
-6.00286e-05
6.36646e-06
-5.88993e-05
-1.12865e-06
-5.03029e-05
-8.59499e-06
-2.82139e-05
-2.20875e-05
-2.82136e-05
-2.42141e-05
7.45201e-05
-8.55725e-05
0.000122355
-0.000154345
0.00010837
-0.000152724
-4.877e-06
-0.000129149
-3.63075e-05
-0.00010014
-4.68943e-05
-6.6763e-05
-6.36537e-05
-3.355e-05
-7.57453e-05
-9.86711e-06
-5.83166e-05
5.88363e-06
-3.7533e-05
2.14855e-05
-2.37911e-05
2.45598e-05
1.61101e-05
2.64436e-06
5.61674e-05
-2.60676e-05
4.94769e-05
-4.16311e-05
2.1941e-05
-4.31478e-05
3.92641e-07
-3.22589e-05
-1.94718e-05
-1.59604e-05
-3.83818e-05
-4.41736e-05
-1.77682e-05
9.22756e-05
-3.95006e-05
0.000144106
-6.38536e-05
0.000132724
-5.88987e-05
-9.80372e-06
-4.94267e-05
-4.57592e-05
-5.11495e-05
-4.51189e-05
-4.06035e-05
-7.41122e-05
-2.38339e-05
-9.25149e-05
-1.04998e-05
-7.16498e-05
3.535e-06
-5.15664e-05
1.54325e-05
-3.56875e-05
3.31705e-05
-1.62402e-06
4.28933e-05
4.64499e-05
3.2332e-05
6.00422e-05
8.53551e-06
4.574e-05
-1.69463e-05
2.5892e-05
-1.41742e-05
-2.2222e-05
-5.44227e-07
-5.1998e-05
-4.47174e-05
-1.44822e-05
0.000106756
1.04867e-05
0.000119152
2.32372e-05
0.000119981
-8.95825e-06
2.24094e-05
-2.02298e-05
-3.44498e-05
-2.28852e-05
-4.24424e-05
-2.29961e-05
-7.39509e-05
-1.8409e-05
-9.71018e-05
-1.06006e-05
-7.94576e-05
3.62077e-07
-6.2528e-05
7.61605e-06
-4.29412e-05
2.6502e-05
-2.05095e-05
4.80826e-05
2.48736e-05
5.0365e-05
5.77616e-05
4.10159e-05
5.50862e-05
2.35481e-05
4.33995e-05
1.26775e-05
-1.13318e-05
9.9317e-06
-4.92502e-05
-3.47854e-05
-2.2509e-05
0.000129235
-2.53998e-06
9.91465e-05
2.41496e-05
9.33024e-05
-2.31129e-06
4.8881e-05
-1.49827e-05
-2.17905e-05
-1.36057e-05
-4.38274e-05
-1.40969e-05
-7.34553e-05
-1.57626e-05
-9.5436e-05
-1.09197e-05
-8.42998e-05
-3.07876e-06
-7.03685e-05
2.2284e-06
-4.82602e-05
1.28475e-05
-3.11443e-05
3.40961e-05
3.63401e-06
4.53099e-05
4.65482e-05
3.84388e-05
6.19516e-05
3.27957e-05
4.90501e-05
2.52765e-05
-3.80451e-06
1.37832e-05
-3.77569e-05
-2.1002e-05
-2.49585e-05
0.000154178
-1.38308e-05
8.79998e-05
1.17067e-05
6.77737e-05
-2.61959e-06
6.31836e-05
-1.37111e-05
-1.07043e-05
-1.27567e-05
-4.47939e-05
-1.2233e-05
-7.39789e-05
-1.72476e-05
-9.04204e-05
-1.54997e-05
-8.60476e-05
-1.02977e-05
-7.55945e-05
-5.93786e-06
-5.26664e-05
-7.03263e-07
-3.63903e-05
2.11728e-05
-1.82569e-05
3.72051e-05
3.05568e-05
2.87771e-05
7.03702e-05
2.5447e-05
5.23639e-05
2.14597e-05
1.8317e-07
1.10023e-05
-2.72992e-05
-9.99958e-06
-2.04295e-05
0.000174594
-1.57903e-05
8.3352e-05
-6.51027e-06
5.8439e-05
-5.28924e-06
6.1938e-05
-1.60524e-05
5.67561e-08
-1.59249e-05
-4.48867e-05
-1.51979e-05
-7.47084e-05
-2.25511e-05
-8.30666e-05
-2.25134e-05
-8.60908e-05
-2.7712e-05
-7.04591e-05
-3.46306e-05
-4.57695e-05
-3.07117e-05
-4.03126e-05
-9.57504e-06
-3.93962e-05
1.16729e-05
9.32598e-06
1.36839e-05
6.83674e-05
1.49027e-05
5.11406e-05
1.10036e-05
4.08306e-06
3.58069e-06
-1.98749e-05
-6.41851e-06
-1.09071e-05
0.000185493
-1.35204e-05
8.5965e-05
-8.45951e-06
5.3357e-05
7.34541e-06
4.61543e-05
-1.7059e-06
9.10811e-06
-1.43156e-05
-3.22549e-05
-1.87424e-05
-7.02651e-05
-2.74306e-05
-7.43776e-05
-3.25379e-05
-8.10348e-05
-4.91369e-05
-5.38809e-05
-6.31081e-05
-3.17971e-05
-6.30542e-05
-4.03396e-05
-5.46644e-05
-4.77765e-05
-3.10208e-05
-1.43014e-05
-8.42361e-06
4.58489e-05
-1.40518e-07
4.28621e-05
-3.11001e-06
7.05578e-06
-5.37093e-06
-1.76129e-05
-1.17878e-05
-1.42208e-06
8.91225e-06
-2.69356e-06
8.67403e-06
-4.39647e-06
9.21978e-06
-7.03191e-06
1.17105e-05
-1.14947e-05
1.48735e-05
-1.62531e-05
1.61504e-05
-1.91898e-05
1.39295e-05
-2.28839e-05
1.42457e-05
-2.71845e-05
1.2945e-05
-2.95362e-05
6.49717e-06
-3.02637e-05
-5.36487e-08
-2.94838e-05
-6.25095e-06
-2.7154e-05
-1.26265e-05
-2.45865e-05
-1.70708e-05
-2.05355e-05
-2.30581e-05
-1.38677e-05
-2.9877e-05
-4.53258e-06
-3.66102e-05
5.07972e-07
-3.33585e-05
-2.20092e-06
-2.26958e-05
-8.69824e-07
-1.8706e-05
2.09027e-05
-1.65069e-05
3.63706e-05
1.21558e-05
4.51799e-05
4.18917e-05
-2.08847e-06
1.10007e-05
-1.73664e-06
8.3222e-06
-9.0273e-07
8.38586e-06
-4.1738e-06
1.49815e-05
-7.59679e-06
1.82965e-05
-1.08039e-05
1.93575e-05
-1.50011e-05
1.81267e-05
-2.19218e-05
2.11663e-05
-3.12959e-05
2.23181e-05
-3.74159e-05
1.26163e-05
-3.88379e-05
1.36612e-06
-3.82364e-05
-6.85534e-06
-3.7716e-05
-1.31523e-05
-3.64361e-05
-1.83734e-05
-3.15695e-05
-2.80232e-05
-2.15605e-05
-4.00754e-05
-1.97716e-05
-3.85483e-05
-6.31909e-05
9.95737e-06
-5.18916e-05
-3.40739e-05
-1.8087e-05
-5.2578e-05
4.65638e-06
-3.93016e-05
1.64483e-05
3.13195e-07
4.50356e-05
1.65886e-05
-4.97399e-06
1.59747e-05
-6.62987e-06
9.97809e-06
-5.95942e-06
7.71541e-06
-7.55072e-06
1.65728e-05
-9.35179e-06
2.00835e-05
-4.98175e-06
1.49874e-05
5.35523e-06
7.78261e-06
-1.5711e-06
2.81852e-05
-2.72635e-05
4.80684e-05
-4.87987e-05
3.41659e-05
-5.81333e-05
1.06909e-05
-5.68149e-05
-8.20089e-06
-4.8975e-05
-2.11373e-05
-2.73439e-05
-4.01957e-05
4.65884e-06
-6.01496e-05
-1.7462e-05
-1.80431e-05
-6.9661e-05
1.35692e-05
-5.61474e-05
-3.64456e-06
-1.37865e-05
-7.6492e-05
9.28168e-06
-7.54714e-05
1.98241e-05
-4.97394e-05
1.69924e-05
3.10825e-06
5.75061e-05
4.5304e-06
-1.02315e-05
2.62062e-05
-2.00017e-05
1.97483e-05
-3.13329e-05
1.90453e-05
-3.97668e-05
2.49433e-05
-3.64816e-05
1.68094e-05
-2.71642e-05
5.55778e-06
6.82621e-06
-2.62336e-05
3.64398e-05
-1.30249e-06
9.57583e-06
7.51178e-05
-3.18097e-05
7.57158e-05
-4.72968e-05
2.61694e-05
-4.72895e-05
-8.33971e-06
-9.37461e-05
2.51576e-05
-0.000137179
3.13061e-06
-8.67666e-05
-0.000110638
-6.44545e-05
-4.04431e-05
-7.07726e-05
1.98095e-05
-2.69359e-05
-4.75619e-05
-2.50075e-05
-7.8177e-05
-2.4589e-05
-7.57981e-05
-1.90532e-05
-5.5275e-05
-2.55951e-05
9.63657e-06
8.00631e-05
-4.81764e-05
-2.76873e-05
5.38935e-05
-5.95759e-05
5.16366e-05
-9.33331e-05
5.27199e-05
-0.000133812
6.5148e-05
-0.000160961
4.35401e-05
-0.000144517
-1.09451e-05
-0.000113437
-5.73992e-05
-4.73661e-05
-6.72356e-05
2.48191e-05
3.0862e-06
-1.57212e-05
0.000116377
-6.62405e-05
7.67542e-05
-0.000187954
0.000113357
-0.000236507
7.36381e-05
-0.00019383
-3.96148e-05
-0.000171541
-0.000132959
-0.00010845
-0.000103596
-5.66416e-05
-3.20742e-05
-6.68009e-05
-3.7355e-05
-7.52106e-05
-6.94896e-05
-8.02825e-05
-7.07215e-05
-8.83945e-05
-4.71631e-05
-0.000101543
2.27839e-05
9.93639e-05
-0.000120876
-5.01364e-05
0.00010403
-0.000103423
0.000104919
-0.000160184
0.000109093
-0.000248846
0.000153972
-0.000271647
6.64227e-05
-0.000257598
-2.49939e-05
-0.000249735
-6.53631e-05
-0.000225806
-9.14092e-05
-0.000137988
-8.47521e-05
-0.000188999
0.000167424
-0.000341893
0.000229691
-0.000363742
0.000135299
-0.000259124
-3.08981e-05
-0.000173293
-0.000125176
-0.000168925
-0.000137146
-0.000137236
-0.000135189
-9.28597e-05
-7.65093e-05
-0.000104291
-2.56743e-05
-0.000114575
-5.89569e-05
-0.000125849
-5.94534e-05
-0.000139445
-3.35634e-05
-0.000145142
2.84783e-05
9.94649e-05
-0.000145249
-5.43542e-05
0.000158383
-0.000104246
0.000154745
-0.000154875
0.000159435
-0.000284136
0.000283366
-0.000303545
8.62789e-05
-0.000294503
-3.41127e-05
-0.00028575
-7.42749e-05
-0.00028504
-9.26392e-05
-0.00028778
-8.20844e-05
-0.000367951
0.000247611
-0.000402303
0.000264069
-0.000258566
-8.34647e-06
-0.000179155
-0.000109907
-0.000171954
-0.000132106
-0.000169667
-0.000139503
-0.000164838
-0.000140272
-0.000131633
-0.000110015
-0.000129405
-2.77149e-05
-0.000137949
-4.97301e-05
-0.000144923
-5.24596e-05
-0.000150897
-2.7586e-05
-0.000149619
2.71851e-05
9.17408e-05
-0.000141895
-4.21701e-05
0.000200563
-7.3799e-05
0.000186276
-0.000115102
0.000200924
-0.00022537
0.000393697
-0.000293085
0.00015408
-0.000295399
-3.17412e-05
-0.000297444
-7.22641e-05
-0.000310761
-7.94128e-05
-0.000394463
1.54853e-06
-0.000371902
0.000225082
-0.000235906
0.000128072
-0.000181899
-6.21963e-05
-0.000175392
-0.000115972
-0.00017235
-0.000135241
-0.000169629
-0.000142332
-0.000168936
-0.0001415
-0.000173991
-0.000105277
-0.000172476
-2.9099e-05
-0.000162102
-5.91629e-05
-0.00014821
-6.62539e-05
-0.000130656
-4.51408e-05
-0.000121474
1.79818e-05
8.55744e-05
-0.000115592
-3.2018e-05
0.000233115
-4.11746e-05
0.000196048
-7.46496e-05
0.000234448
-0.000127371
0.000446436
-0.000158759
0.000185484
-0.000197459
6.96569e-06
-0.000246552
-2.3166e-05
-0.000307682
-1.82795e-05
-0.000353205
4.70899e-05
-0.000258777
0.00013067
-0.00019084
6.01902e-05
-0.000188179
-6.48546e-05
-0.000182553
-0.000121552
-0.000171655
-0.000146354
-0.000158148
-0.000156391
-0.000154789
-0.00014504
-0.000168491
-9.15888e-05
-0.000169509
-2.80275e-05
-0.000159582
-6.89078e-05
-0.000140236
-8.53661e-05
-0.00010698
-7.84363e-05
-7.74815e-05
-1.15401e-05
6.75715e-05
-5.9676e-05
-2.41914e-05
0.000258801
-4.47023e-05
0.000217182
-7.65551e-05
0.000266292
-6.89823e-05
0.000438872
-6.90033e-05
0.000185506
-0.000120834
5.87977e-05
-0.000169543
2.55461e-05
-0.00021
2.21792e-05
-0.000199948
3.70481e-05
-0.000169644
0.000100377
-0.00017176
6.23063e-05
-0.00016411
-7.25103e-05
-0.00015528
-0.000130383
-0.000155275
-0.000146363
-0.00015387
-0.000157804
-0.000165092
-0.000133818
-0.000166657
-9.00208e-05
-0.000150223
-4.44163e-05
-0.000137243
-8.19417e-05
-0.000116388
-0.000106278
-9.18496e-05
-0.000102918
-6.46064e-05
-3.84645e-05
4.40205e-05
-4.0866e-05
5.92112e-06
0.000252974
-5.88737e-05
0.000282032
-0.000107235
0.000314675
-7.44898e-05
0.000406133
-6.0375e-05
0.000171396
-8.64841e-05
8.49098e-05
-9.72331e-05
3.62988e-05
-0.000101382
2.63306e-05
-9.81948e-05
3.3864e-05
-6.69041e-05
6.90927e-05
-2.54528e-05
2.08594e-05
-2.85472e-05
-6.94174e-05
-5.5635e-05
-0.000103295
-8.46663e-05
-0.000117333
-0.000119731
-0.000122741
-0.0001467
-0.00010685
-0.000145425
-9.12986e-05
-0.000122008
-6.78342e-05
-0.00010968
-9.42713e-05
-0.000104505
-0.000111453
-8.57193e-05
-0.000121705
-6.71257e-05
-5.70393e-05
2.61803e-05
-4.88974e-05
-3.04058e-06
0.000255602
-6.65424e-05
0.000345538
-0.000124482
0.000372616
-8.45024e-05
0.000366159
-6.94864e-05
0.000156383
-7.44001e-05
8.98249e-05
-7.36587e-05
3.55597e-05
-6.76073e-05
2.02805e-05
-5.0034e-05
1.62929e-05
-9.11515e-06
2.81755e-05
9.97576e-06
1.77039e-06
-7.87214e-06
-5.15698e-05
-3.59332e-05
-7.52341e-05
-6.38421e-05
-8.94247e-05
-9.21157e-05
-9.44681e-05
-0.000108838
-9.01286e-05
-0.000113469
-8.66702e-05
-0.00010607
-7.52334e-05
-0.000110215
-9.01286e-05
-0.000123155
-9.85148e-05
-0.000134015
-0.000110846
-0.000117079
-7.39724e-05
-1.00736e-05
-8.078e-05
-1.43062e-05
0.000269487
-6.14547e-05
0.000392688
-9.99288e-05
0.000411096
-7.3507e-05
0.000339741
-6.64886e-05
0.000149368
-5.86806e-05
8.20187e-05
-5.40298e-05
3.09116e-05
-4.42496e-05
1.05014e-05
-3.65955e-05
8.64071e-06
-1.88549e-05
1.04361e-05
-1.10732e-05
-6.01011e-06
-2.2517e-05
-4.01259e-05
-3.93805e-05
-5.83706e-05
-5.56962e-05
-7.31091e-05
-7.23146e-05
-7.78505e-05
-8.55821e-05
-7.68616e-05
-9.56388e-05
-7.66151e-05
-9.97435e-05
-7.11295e-05
-0.000108053
-8.18206e-05
-0.000121176
-8.53923e-05
-0.000139554
-9.24685e-05
-0.000135073
-7.84534e-05
-4.36115e-05
-0.000101534
-1.22287e-05
0.000281654
-5.1803e-05
0.000432265
-7.86039e-05
0.0004379
-5.99983e-05
0.000321139
-5.7986e-05
0.000147358
-4.59574e-05
6.99913e-05
-4.33633e-05
2.83194e-05
-3.54776e-05
2.61657e-06
-3.07196e-05
3.88396e-06
-1.8502e-05
-1.78076e-06
-1.63355e-05
-8.17586e-06
-2.45683e-05
-3.18933e-05
-3.95658e-05
-4.33732e-05
-5.54245e-05
-5.72509e-05
-7.18683e-05
-6.14074e-05
-8.42598e-05
-6.44707e-05
-9.42532e-05
-6.66228e-05
-9.98815e-05
-6.55017e-05
-0.000110588
-7.11156e-05
-0.000123428
-7.25526e-05
-0.000137512
-7.83849e-05
-0.000143876
-7.20907e-05
-5.56536e-05
-0.000131835
-4.49734e-06
0.000286112
-3.93039e-05
0.000467072
-6.94332e-05
0.000468032
-5.36639e-05
0.000305371
-5.31165e-05
0.000146813
-4.00988e-05
5.69745e-05
-3.96114e-05
2.78337e-05
-3.56999e-05
-1.29428e-06
-3.63505e-05
4.53577e-06
-3.20434e-05
-6.08722e-06
-3.19006e-05
-8.31794e-06
-3.68869e-05
-2.69066e-05
-4.61431e-05
-3.41169e-05
-5.71519e-05
-4.62421e-05
-6.93123e-05
-4.92475e-05
-7.94668e-05
-5.43164e-05
-9.01703e-05
-5.59201e-05
-9.91955e-05
-5.6477e-05
-0.000111255
-5.90564e-05
-0.000124884
-5.89246e-05
-0.000141605
-6.16647e-05
-0.000153192
-6.05038e-05
-5.52171e-05
-0.00015363
1.57917e-06
0.000285105
-2.93931e-05
0.000498153
-6.85896e-05
0.00050723
-5.51834e-05
0.000291968
-5.36278e-05
0.000145259
-4.32492e-05
4.65969e-05
-4.25509e-05
2.71366e-05
-4.07481e-05
-3.0965e-06
-4.18252e-05
5.61363e-06
-3.90716e-05
-8.84044e-06
-3.9856e-05
-7.53303e-06
-4.42753e-05
-2.24873e-05
-5.28227e-05
-2.55695e-05
-6.32259e-05
-3.5839e-05
-7.4536e-05
-3.79378e-05
-8.4806e-05
-4.40468e-05
-9.58322e-05
-4.48945e-05
-0.000105481
-4.68284e-05
-0.000116812
-4.77263e-05
-0.000128573
-4.71645e-05
-0.000142458
-4.77798e-05
-0.000156026
-4.69363e-05
-4.3816e-05
-0.000167428
-3.32382e-05
0.000318792
-6.3749e-05
0.000528669
-8.79435e-05
0.000531427
-7.12821e-05
0.00027531
-6.33708e-05
0.00013735
-5.57584e-05
3.8985e-05
-5.22665e-05
2.36457e-05
-5.063e-05
-4.73259e-06
-5.02726e-05
5.25694e-06
-4.90148e-05
-1.00979e-05
-4.98985e-05
-6.64885e-06
-5.32934e-05
-1.90922e-05
-5.91248e-05
-1.9738e-05
-6.62982e-05
-2.86655e-05
-7.48227e-05
-2.94135e-05
-8.36509e-05
-3.52188e-05
-9.36229e-05
-3.49229e-05
-0.000102871
-3.75806e-05
-0.000113168
-3.74294e-05
-0.000122783
-3.75509e-05
-0.000133986
-3.65771e-05
-0.000146391
-3.45308e-05
-2.97605e-05
-0.000160447
-8.1356e-05
0.000400153
-0.000116905
0.00056422
-0.000117933
0.000532456
-9.87839e-05
0.000256165
-8.06376e-05
0.000119205
-7.05796e-05
2.89271e-05
-6.21516e-05
1.52183e-05
-5.83297e-05
-8.5542e-06
-5.60058e-05
2.93347e-06
-5.48726e-05
-1.12308e-05
-5.59343e-05
-5.58688e-06
-5.94613e-05
-1.5565e-05
-6.51579e-05
-1.40414e-05
-7.22893e-05
-2.15342e-05
-8.06367e-05
-2.10662e-05
-8.89623e-05
-2.68933e-05
-9.78828e-05
-2.60028e-05
-0.000106382
-2.90816e-05
-0.000115276
-2.85363e-05
-0.000123397
-2.943e-05
-0.000131612
-2.83623e-05
-0.000139618
-2.65251e-05
-2.23824e-05
-0.000146997
-9.73267e-05
0.000497482
-0.000131885
0.000598781
-0.000131324
0.0005319
-0.000120914
0.000245757
-9.91915e-05
9.74831e-05
-8.23555e-05
1.2091e-05
-6.93833e-05
2.24635e-06
-6.28601e-05
-1.50772e-05
-5.87772e-05
-1.14902e-06
-5.81324e-05
-1.18752e-05
-5.96692e-05
-4.04981e-06
-6.34256e-05
-1.18083e-05
-6.87807e-05
-8.68603e-06
-7.5253e-05
-1.50617e-05
-8.29092e-05
-1.34101e-05
-9.08132e-05
-1.89894e-05
-9.90415e-05
-1.77746e-05
-0.000106921
-2.12021e-05
-0.00011508
-2.03782e-05
-0.000122911
-2.15988e-05
-0.000131147
-2.01272e-05
-0.000138701
-1.89711e-05
-1.59165e-05
-0.000145167
-8.64476e-05
0.00058393
-0.000122979
0.000635314
-0.000130068
0.000538993
-0.000129578
0.00024527
-0.000108859
7.67643e-05
-8.67314e-05
-1.00372e-05
-7.11026e-05
-1.33823e-05
-6.35366e-05
-2.2643e-05
-5.93596e-05
-5.32568e-06
-5.90859e-05
-1.21486e-05
-6.08592e-05
-2.27618e-06
-6.47713e-05
-7.89605e-06
-7.02668e-05
-3.19031e-06
-7.65869e-05
-8.74144e-06
-8.36772e-05
-6.31973e-06
-9.12238e-05
-1.14429e-05
-9.88625e-05
-1.01359e-05
-0.000106365
-1.37e-05
-0.000114081
-1.26621e-05
-0.000122108
-1.35716e-05
-0.000130443
-1.17928e-05
-0.000138404
-1.10104e-05
-8.77209e-06
-0.000145549
-6.78614e-05
0.000651794
-0.000102962
0.000670421
-0.000116896
0.000552931
-0.0001235
0.000251876
-0.00010366
5.69225e-05
-8.04977e-05
-3.31987e-05
-6.48606e-05
-2.90193e-05
-5.80362e-05
-2.94671e-05
-5.54467e-05
-7.91478e-06
-5.69788e-05
-1.06161e-05
-6.04213e-05
1.16677e-06
-6.55348e-05
-2.78216e-06
-7.19171e-05
3.1922e-06
-7.9078e-05
-1.58025e-06
-8.66422e-05
1.24456e-06
-9.42871e-05
-3.79784e-06
-0.000101725
-2.69775e-06
-0.000109327
-6.09866e-06
-0.000117346
-4.64267e-06
-0.000126136
-4.78183e-06
-0.000135468
-2.46198e-06
-0.000144373
-2.10491e-06
-1.66765e-07
-0.000152979
-4.3223e-05
0.000695019
-6.59758e-05
0.000693177
-8.21521e-05
0.000569112
-9.49115e-05
0.000264637
-7.94241e-05
4.14336e-05
-6.11919e-05
-5.14303e-05
-5.07615e-05
-3.94495e-05
-4.752e-05
-3.27081e-05
-4.78423e-05
-7.59197e-06
-5.1388e-05
-7.06984e-06
-5.67447e-05
6.52395e-06
-6.35898e-05
4.06336e-06
-7.1146e-05
1.07488e-05
-7.92551e-05
6.52914e-06
-8.72694e-05
9.25905e-06
-9.56551e-05
4.58804e-06
-0.000104306
5.95355e-06
-0.0001142
3.79465e-06
-0.00012521
6.36708e-06
-0.000136828
6.83621e-06
-0.000147961
8.67145e-06
-0.000158045
7.97802e-06
9.55854e-06
-0.00016777
-1.09875e-05
0.000706009
-1.19961e-05
0.000694189
-1.75166e-05
0.000574635
-3.37915e-05
0.000280914
-3.14243e-05
3.90663e-05
-2.75663e-05
-5.52874e-05
-2.75302e-05
-3.94849e-05
-3.22675e-05
-2.79701e-05
-3.82715e-05
-1.58729e-06
-4.60688e-05
7.28175e-07
-5.40507e-05
1.45064e-05
-6.27938e-05
1.2807e-05
-7.14141e-05
1.93695e-05
-8.0477e-05
1.55924e-05
-8.94158e-05
1.81982e-05
-9.90686e-05
1.42411e-05
-0.000109482
1.63673e-05
-0.000121767
1.60791e-05
-0.000135037
1.96374e-05
-0.000147578
1.93769e-05
-0.000158619
1.9712e-05
-0.000168784
1.81431e-05
1.99037e-05
-0.000179129
1.0456e-05
0.000695555
3.34768e-05
0.00067117
5.08272e-05
0.000557286
4.12089e-05
0.000290533
2.9271e-05
5.10053e-05
1.43428e-05
-4.03579e-05
1.08105e-06
-2.62221e-05
-1.29252e-05
-1.39629e-05
-2.4602e-05
1.00903e-05
-3.69337e-05
1.30607e-05
-4.8196e-05
2.57693e-05
-5.95523e-05
2.4164e-05
-7.01228e-05
2.99405e-05
-8.08568e-05
2.63269e-05
-9.14887e-05
2.88306e-05
-0.000103527
2.62793e-05
-0.00011703
2.98709e-05
-0.000131404
3.04529e-05
-0.000144387
3.26203e-05
-0.00015493
2.99201e-05
-0.000163523
2.83055e-05
-0.00017244
2.70598e-05
2.94019e-05
-0.000181939
2.18913e-05
0.000673664
5.85144e-05
0.000634547
9.27499e-05
0.000523053
9.9671e-05
0.000283613
8.25776e-05
6.80994e-05
5.2652e-05
-1.04301e-05
2.63106e-05
1.20691e-07
2.95348e-06
9.39543e-06
-1.46703e-05
2.7715e-05
-3.121e-05
2.96013e-05
-4.53041e-05
3.98643e-05
-5.89737e-05
3.78342e-05
-7.13252e-05
4.22927e-05
-8.37557e-05
3.87579e-05
-9.62584e-05
4.13336e-05
-0.000110499
4.05203e-05
-0.000125576
4.49479e-05
-0.000139249
4.41267e-05
-0.000149889
4.32601e-05
-0.000157988
3.80193e-05
-0.000165097
3.54137e-05
-0.00017282
3.4783e-05
3.63485e-05
-0.000179767
3.10235e-05
0.00064264
7.65126e-05
0.000589059
0.000120397
0.000479171
0.00014061
0.000263399
0.000120331
8.8379e-05
8.05298e-05
2.9374e-05
4.60721e-05
3.458e-05
1.73414e-05
3.81273e-05
-4.78831e-06
4.98458e-05
-2.46145e-05
4.94284e-05
-4.1137e-05
5.63876e-05
-5.68026e-05
5.35005e-05
-7.10097e-05
5.65005e-05
-8.55818e-05
5.33305e-05
-0.000100959
5.67113e-05
-0.00011752
5.70819e-05
-0.000132394
5.9822e-05
-0.000143408
5.51409e-05
-0.000150107
4.99589e-05
-0.000155532
4.34442e-05
-0.000161419
4.13011e-05
-0.000166656
4.00195e-05
3.96562e-05
-0.000169963
4.00508e-05
0.000602589
9.22265e-05
0.000536881
0.00014435
0.000427043
0.000165532
0.000242218
0.000138716
0.000115197
9.35339e-05
7.45588e-05
5.51188e-05
7.29967e-05
2.32073e-05
7.004e-05
-1.76747e-06
7.48215e-05
-2.38572e-05
7.1519e-05
-4.22335e-05
7.47648e-05
-5.95277e-05
7.07955e-05
-7.52186e-05
7.21921e-05
-9.15083e-05
6.96206e-05
-0.000108327
7.35305e-05
-0.000124262
7.3017e-05
-0.000136569
7.21296e-05
-0.00014436
6.29324e-05
-0.000148779
5.43773e-05
-0.000153225
4.78904e-05
-0.000156855
4.49314e-05
-0.000158428
4.15925e-05
3.82997e-05
-0.000157072
5.44882e-05
0.000548097
0.000111566
0.000479802
0.000163318
0.000375292
0.000171333
0.000234205
0.000138029
0.000148503
9.35795e-05
0.000119011
5.69286e-05
0.000109649
2.58077e-05
0.000101162
6.56652e-07
9.99736e-05
-2.20114e-05
9.4188e-05
-4.13145e-05
9.40688e-05
-5.97666e-05
8.92484e-05
-7.71864e-05
8.96125e-05
-9.54367e-05
8.78713e-05
-0.000113159
9.12533e-05
-0.000127579
8.74373e-05
-0.000136134
8.06847e-05
-0.000140873
6.76717e-05
-0.000144972
5.84769e-05
-0.000148564
5.14827e-05
-0.00014966
4.60272e-05
-0.000147635
3.95672e-05
3.21214e-05
-0.000141457
7.1881e-05
0.000476218
0.000126689
0.000424995
0.00016355
0.000338432
0.000155903
0.000241853
0.000120135
0.000184274
8.09207e-05
0.000158227
4.80287e-05
0.000142542
1.90655e-05
0.000130126
-5.23135e-06
0.000124271
-2.74942e-05
0.000116452
-4.69679e-05
0.000113543
-6.57744e-05
0.000108056
-8.40976e-05
0.000107936
-0.000102796
0.00010657
-0.000118958
0.000107416
-0.000130143
9.86224e-05
-0.000135029
8.55704e-05
-0.000138581
7.12243e-05
-0.000141571
6.14669e-05
-0.000142309
5.22214e-05
-0.000139869
4.35869e-05
-0.000133943
3.36414e-05
2.31575e-05
-0.00012498
7.04273e-05
0.000405791
0.000114996
0.000380428
0.000136233
0.000317196
0.000122735
0.000255356
9.38525e-05
0.000213158
6.42566e-05
0.000187824
3.73945e-05
0.000169406
1.22573e-05
0.000155265
-1.00395e-05
0.000146569
-3.11594e-05
0.000137572
-5.0391e-05
0.000132776
-6.96047e-05
0.00012727
-8.8908e-05
0.00012724
-0.000107396
0.000125059
-0.000121183
0.000121204
-0.000128156
0.000105595
-0.000131391
8.88059e-05
-0.000134833
7.4667e-05
-0.000136023
6.26562e-05
-0.000134233
5.04319e-05
-0.000129049
3.84035e-05
-0.000121068
2.56601e-05
1.34015e-05
-0.000111312
4.79938e-05
0.000357802
8.15734e-05
0.000346853
9.41155e-05
0.000304657
8.38059e-05
0.000265667
6.45812e-05
0.000232384
4.27817e-05
0.000209625
2.09577e-05
0.000191231
-6.99911e-07
0.000176923
-2.09799e-05
0.00016685
-4.07681e-05
0.000157362
-5.94634e-05
0.000151472
-7.84184e-05
0.000146226
-9.70327e-05
0.000145855
-0.000113314
0.00014134
-0.000122375
0.000130266
-0.000126099
0.00010932
-0.000128644
9.13515e-05
-0.000129741
7.57643e-05
-0.000127803
6.07181e-05
-0.000123115
4.57443e-05
-0.000115984
3.12727e-05
-0.000107449
1.71246e-05
3.73808e-06
-9.77856e-05
2.7796e-05
0.000330009
5.03475e-05
0.000324304
5.86121e-05
0.000296394
5.40216e-05
0.000270259
4.16693e-05
0.000244737
2.57394e-05
0.000225556
8.0766e-06
0.000208894
-1.06055e-05
0.000195606
-2.89334e-05
0.000185179
-4.73638e-05
0.000175793
-6.56625e-05
0.000169771
-8.46917e-05
0.000165256
-0.000102384
0.000163548
-0.000115121
0.000154078
-0.00011984
0.000134986
-0.000122421
0.000111901
-0.00012435
9.32808e-05
-0.000123398
7.48121e-05
-0.000119829
5.71494e-05
-0.000113935
3.98503e-05
-0.000106421
2.37585e-05
-9.7701e-05
8.40493e-06
-5.95345e-06
-8.80096e-05
1.51148e-05
0.000314896
2.87874e-05
0.000310633
3.3203e-05
0.00029198
2.96095e-05
0.000273854
1.99294e-05
0.000254419
6.9268e-06
0.000238559
-8.21869e-06
0.000224041
-2.45651e-05
0.000211953
-4.123e-05
0.000201845
-5.84379e-05
0.000193001
-7.60477e-05
0.000187382
-9.38666e-05
0.000183075
-0.000108762
0.000178444
-0.000116021
0.000161337
-0.000117791
0.000136757
-0.000119185
0.000113295
-0.000118346
9.24419e-05
-0.000114908
7.13738e-05
-0.000109434
5.16762e-05
-0.000102495
3.29114e-05
-9.44935e-05
1.57568e-05
-8.57061e-05
-3.82509e-07
-1.52886e-05
-7.63711e-05
7.65948e-06
0.000307238
1.5225e-05
0.000303068
1.6946e-05
0.00029026
1.35257e-05
0.000277275
5.41251e-06
0.000262533
-5.75686e-06
0.00024973
-1.91473e-05
0.000237432
-3.38126e-05
0.00022662
-4.92451e-05
0.000217278
-6.56826e-05
0.00020944
-8.30994e-05
0.000204799
-9.99273e-05
0.000199904
-0.000110801
0.000189318
-0.000113928
0.000164465
-0.000114712
0.000137541
-0.000114851
0.000113434
-0.000112243
8.98335e-05
-0.000107814
6.69454e-05
-0.00010179
4.56525e-05
-9.46779e-05
2.57993e-05
-8.65458e-05
7.62473e-06
-7.7678e-05
-9.25039e-06
-2.44794e-05
-6.84872e-05
2.30933e-06
0.000304929
4.31206e-06
0.000301067
2.5753e-06
0.000291998
-2.48191e-06
0.000282334
-1.08717e-05
0.000270924
-2.15026e-05
0.000260362
-3.38485e-05
0.000249779
-4.74147e-05
0.000240187
-6.20413e-05
0.000231905
-7.75999e-05
0.000224999
-9.31687e-05
0.000220369
-0.00010642
0.000213156
-0.000111711
0.00019461
-0.000111853
0.000164608
-0.000111358
0.000137046
-0.000108735
0.000110812
-0.000104026
8.51246e-05
-9.80356e-05
6.09557e-05
-9.09849e-05
3.86018e-05
-8.32029e-05
1.80173e-05
-7.49901e-05
-5.88001e-07
-6.66599e-05
-1.75807e-05
-3.29832e-05
-5.81563e-05
-3.23035e-07
0.000305254
-1.58391e-06
0.000302329
-5.36131e-06
0.000295777
-1.13772e-05
0.000288351
-1.98255e-05
0.000279373
-3.00366e-05
0.000270574
-4.1786e-05
0.00026153
-5.4813e-05
0.000253215
-6.90114e-05
0.000246105
-8.43547e-05
0.000240343
-9.93104e-05
0.000235325
-0.000108393
0.00022224
-0.00010954
0.000195757
-0.000108865
0.000163933
-0.000107108
0.000135289
-0.000103119
0.000106823
-9.78207e-05
7.98268e-05
-9.15313e-05
5.46664e-05
-8.45136e-05
3.15843e-05
-7.67975e-05
1.03013e-05
-6.85042e-05
-8.88133e-06
-6.02971e-05
-2.57879e-05
-4.10814e-05
-5.21989e-05
-3.68709e-06
0.000308942
-8.48648e-06
0.000307129
-1.49504e-05
0.000302241
-2.28414e-05
0.000296243
-3.23398e-05
0.000288872
-4.30865e-05
0.000281321
-5.50059e-05
0.00027345
-6.80254e-05
0.000266235
-8.18346e-05
0.000259915