/*--------------------------------*- C++ -*----------------------------------*\
| =========                 |                                                 |
| \\      /  F ield         | OpenFOAM: The Open Source CFD Toolbox           |
|  \\    /   O peration     | Version:  2012                                  |
|   \\  /    A nd           | Website:  www.openfoam.com                      |
|    \\/     M anipulation  |                                                 |
\*---------------------------------------------------------------------------*/
FoamFile
{
    version     2.0;
    format      ascii;
    class       volScalarField;
    location    "0.93";
    object      volumeFraction1;
}
// * * * * * * * * * * * * * * * * * * * * * * * * * * * * * * * * * * * * * //

dimensions      [0 0 0 0 0 0 0];


internalField   nonuniform List<scalar> 
2268
(
1
1
1
1
1
1
1
1
1
1
1
1
1
1
1
1
1
1
1
1
1
1
0.999904
1
1
1
1
1
1
1
1
1
1
1
1
1
1
1
1
1
1
1
1
1
1
0.999772
1
1
1
1
1
1
1
1
1
1
1
1
1
1
1
1
1
1
1
1
1
1
0.999758
1
1
1
1
1
1
1
1
1
1
1
1
1
1
1
1
1
1
1
1
1
1
0.999758
1
1
1
1
1
1
1
1
1
1
1
1
1
1
1
1
1
0.999999
1
1
1
1
0.999758
1
1
1
1
1
1
1
1
1
1
1
1
1
1
1
1
1
1
0.999996
0.999998
1
1
0.999862
1
1
1
1
1
1
1
1
1
1
1
1
1
1
1
1
1
0.999997
0.999938
0.999878
1
0.99999
0.999993
1
1
1
1
1
1
1
1
1
1
1
1
1
1
0.999997
0.999909
0.998696
0.993255
0.955751
0.957184
0.998256
0.999993
0.999993
0.632015
0.089837
0.23138
0.731687
0.823443
0.848749
0.899261
0.93505
0.961105
0.932797
0.837518
0.813885
0.924763
0.962645
0.962645
0.972415
0.975321
0.977604
0.977605
0.680946
0.0898216
0.021795
0.0581192
0.0812793
0.174184
0.449844
0.886677
0.978402
0.978392
0.970837
0.919011
0.935102
0.752647
0.661482
0.707898
0.645443
0.821847
0.982976
0.681498
0.0446193
0.00129599
0.00719172
0.034279
0.0402845
0.145498
0.917549
0.978412
0.978402
0.978392
0.926574
0.935102
0.916796
0.676975
0.298659
0.209543
0.608837
0.982977
0.684883
0.0321841
0.00129599
0.00662026
0.415823
0.483833
0.48593
0.978429
0.97842
0.978412
0.978402
0.971281
0.870735
0.91682
0.909701
0.305915
0.209543
0.815944
0.983014
0.760159
0.14072
0.00129599
0.0111166
0.57767
0.691676
0.862666
0.97842
0.978412
0.977786
0.848768
0.571209
0.620716
0.866412
0.909726
0.413116
0.48663
0.930522
0.990996
0.861127
0.187832
0.00129599
0.0893197
0.119756
0.27628
0.960923
0.978413
0.976023
0.804928
0.242155
0.111579
0.238139
0.403596
0.806279
0.692552
0.907613
0.990062
0.990996
0.873771
0.192278
0.210944
0.228292
0.0147846
0.0758047
0.825654
0.978402
0.916883
0.313254
0.103089
0.103043
0.103089
0.131881
0.496151
0.890974
0.958624
0.958833
0.982887
0.873766
0.22152
0.41296
0.147988
0.0147434
0.0581761
0.67125
0.978392
0.735329
0.123967
0.103043
0.1652
0.231171
0.131884
0.184254
0.815618
0.885803
0.948815
0.905179
1
1
1
1
1
1
1
1
1
1
0.999999
0.999849
0.999694
0.999027
0.994124
0.959947
0.80793
0.606172
0.428989
0.44704
0.574044
0.837347
0.995094
1
1
1
1
1
1
1
0.974152
0.976396
0.977856
0.966435
0.956303
0.946906
0.89118
0.686681
0.344096
0.097354
0.00164754
0.00118228
0.00118682
0.13782
0.398645
0.978633
1
1
1
1
0.919353
0.600523
0.401576
0.405342
0.57705
0.740394
0.774443
0.733676
0.569517
0.205198
0.0142957
3.36379e-08
3.36379e-08
9.47455e-05
0.00666015
0.0862083
0.387317
0.544172
0.659165
1
0.999998
0.980845
0.633912
0.24628
0.173416
0.172392
0.108487
0.114538
0.262508
0.428849
0.376223
0.0725106
3.36379e-08
3.36379e-08
3.36379e-08
1.79538e-07
0.0012823
0.127017
0.693005
0.948775
0.89918
0.65122
1
0.993683
0.855649
0.328287
0.0732044
0.0305518
0.0305753
0.0290846
0.0162433
0.0180619
0.0318994
0.0238744
0.00102668
0.00064996
0.000305944
0.00027832
2.35422e-05
0.0115936
0.462895
0.948775
0.948807
0.940727
0.899747
0.994805
0.974922
0.531328
0.0353728
0.0356394
0.107517
0.165335
0.151251
0.00779913
7.55632e-08
0.000191865
0.000393613
0.00366763
0.0322284
0.0926087
0.0635016
0.0037865
0.0237749
0.543985
0.948807
0.94881
0.948841
0.948845
0.985818
0.888265
0.235772
8.63142e-05
0.0567586
0.165335
0.16533
0.143747
0.0128513
7.55643e-08
7.55632e-08
0.000290303
0.0282758
0.189665
0.245159
0.245159
0.046287
0.0061119
0.270969
0.874404
0.948807
0.938375
0.823628
0.924481
0.744138
0.033549
8.66656e-05
0.00998579
0.0120697
0.0255167
0.0256749
0.0102457
7.55632e-08
7.55643e-08
0.00192715
0.0859729
0.245159
0.245159
0.233452
0.0720477
0.00611138
0.123134
0.704852
0.948775
0.946886
0.534111
0.548674
0.369746
0.00518917
2.36016e-10
0.000160229
2.39442e-10
2.3941e-10
2.39442e-10
2.32836e-06
0.000175645
0.00642295
0.0277762
0.0504929
0.110912
0.138871
0.0313977
0.00660638
0.00783035
0.0396628
0.179033
0.486746
0.722805
0.692598
0.0363028
0.0193991
0.00357376
2.36027e-10
5.70687e-09
5.06133e-09
1.64894e-09
1.38705e-09
5.15306e-07
0.00143692
0.00414271
0.000853449
1.33366e-10
1.33366e-10
1.33366e-10
1.33366e-10
1.33366e-10
0.00451285
0.0221889
0.0102068
6.82294e-10
0.0856092
0.407118
9.21305e-05
9.21406e-05
0.000361392
2.36016e-10
2.36027e-10
8.39148e-10
4.34975e-10
9.49515e-10
1.50663e-05
0.000156458
6.97088e-05
1.82272e-07
2.00028e-07
5.10834e-08
1.33366e-10
3.59804e-10
5.89182e-10
1.33366e-10
1.33366e-10
1.33366e-10
6.82234e-10
6.82294e-10
0.0321647
0.0685051
6.13699e-12
1.50941e-06
9.00796e-07
2.36016e-10
2.37206e-10
3.18473e-10
1.41242e-08
3.33275e-07
1.34676e-08
1.85642e-07
8.50249e-07
8.84441e-07
3.2749e-07
1.33366e-10
7.68652e-10
2.29859e-09
5.21796e-09
9.65794e-09
7.90523e-09
1.35129e-08
3.9126e-05
0.00313638
0.176127
2.55244e-25
8.63213e-07
2.88277e-06
2.36027e-10
1.6046e-09
5.94071e-10
5.52653e-10
5.73742e-10
8.1232e-10
1.61031e-08
3.07804e-07
8.32729e-07
3.15004e-07
1.33366e-10
7.62804e-10
2.37681e-09
9.90408e-09
1.98729e-08
1.98729e-08
3.48224e-08
8.19723e-06
0.000113389
0.17632
6.13699e-12
9.59794e-07
2.88507e-06
2.36016e-10
8.8544e-10
5.51958e-10
4.09815e-10
6.53863e-10
8.01713e-10
8.1265e-10
1.66419e-10
1.66413e-10
1.66419e-10
1.07506e-09
8.02945e-10
1.14873e-09
2.78337e-09
1.30059e-08
1.704e-08
4.68731e-09
6.7114e-11
6.67548e-11
0.176319
-1.60709e-25
3.76164e-07
1.2224e-06
8.26612e-08
1.17506e-10
2.3392e-10
2.49369e-10
5.13251e-10
1.04854e-09
4.31739e-09
7.49464e-09
2.70529e-09
1.97253e-10
8.90978e-10
1.02587e-09
6.36349e-10
1.4064e-10
6.46685e-11
6.46688e-11
6.46685e-11
1.02859e-10
3.20853e-10
0.093567
3.15409e-05
2.24191e-09
4.90063e-08
1.7444e-07
1.17508e-10
1.15985e-10
1.9809e-10
4.2828e-10
9.54476e-10
3.55049e-09
4.98884e-09
1.97552e-10
2.04923e-10
5.20265e-10
6.85853e-10
4.03633e-10
1.9987e-10
9.81099e-11
6.66194e-11
6.50451e-11
6.77705e-11
6.777e-11
0.0011046
6.02007e-06
2.24193e-09
6.06425e-09
1.40275e-07
7.22332e-11
9.54206e-11
1.60505e-10
3.66376e-10
8.29123e-10
1.79161e-09
1.85094e-09
4.38015e-10
1.86972e-10
2.39108e-10
2.35759e-10
1.51894e-10
9.81792e-11
8.07901e-11
7.29876e-11
7.58311e-11
1.08653e-10
1.72909e-10
4.6343e-07
3.63565e-06
2.24191e-09
2.24193e-09
7.3505e-09
7.22378e-11
8.54818e-11
1.21473e-10
3.00502e-10
7.25203e-10
1.03135e-09
5.22993e-10
1.83705e-10
1.18767e-10
1.33967e-10
1.05136e-10
6.01811e-11
3.79834e-11
3.37781e-11
4.03279e-11
6.77819e-11
1.28739e-10
6.31252e-10
3.63569e-08
5.91997e-07
2.87669e-09
1.35713e-06
7.22378e-11
7.224e-11
7.07854e-11
8.56952e-11
2.22891e-10
5.53041e-10
7.60073e-10
2.81924e-10
8.37562e-11
6.78164e-11
6.69257e-11
4.16586e-11
2.43164e-11
2.0724e-11
2.65007e-11
5.59788e-11
1.38345e-10
3.03611e-10
4.09e-10
6.08208e-09
8.63461e-08
6.98739e-07
1.76808e-06
9.26944e-11
7.65084e-11
5.62522e-11
5.98134e-11
1.72463e-10
3.8667e-10
4.53474e-10
1.38654e-10
4.60856e-11
3.62239e-11
2.9249e-11
1.71604e-11
1.50858e-11
2.42306e-11
8.35449e-11
2.92778e-10
8.60228e-10
2.36763e-09
5.07424e-09
5.87531e-09
4.26677e-07
2.86505e-06
1.23551e-06
9.26976e-11
4.94632e-10
3.72086e-11
4.15417e-11
1.35862e-10
2.73075e-10
2.46658e-10
6.38279e-11
2.5142e-11
1.70306e-11
1.18984e-11
1.12205e-11
2.28518e-11
1.1478e-10
5.65226e-10
3.13228e-09
1.30559e-08
1.99076e-08
1.48729e-08
5.58294e-09
1.13127e-06
2.87565e-06
3.1187e-07
2.4351e-08
9.73033e-09
1.98152e-11
2.82755e-11
9.89655e-11
2.04159e-10
1.30218e-10
3.05083e-11
1.30028e-11
8.26974e-12
8.29317e-12
1.79044e-11
9.43599e-11
4.8239e-10
3.20176e-09
2.70351e-08
5.99008e-08
3.97649e-08
4.66322e-09
5.32812e-09
1.087e-06
2.78893e-06
8.09288e-08
4.74839e-07
7.19647e-08
1.98283e-11
2.01341e-11
7.23867e-11
1.34739e-10
6.29875e-11
1.48005e-11
6.87907e-12
6.36781e-12
1.41519e-11
7.32684e-11
3.69845e-10
2.84829e-09
3.57369e-08
6.83568e-08
6.65912e-08
1.27015e-08
1.96851e-11
5.0035e-09
4.12525e-07
3.95449e-07
4.46137e-08
2.13244e-06
2.41074e-07
8.53595e-11
1.57042e-11
5.4918e-11
8.12941e-11
3.15785e-11
7.38737e-12
4.00417e-12
8.05246e-12
4.24697e-11
2.49177e-10
2.46863e-09
3.73928e-08
6.87731e-08
6.75516e-08
1.7069e-08
1.96851e-11
1.96844e-11
5.0035e-09
5.1722e-09
5.1724e-09
8.39741e-06
8.70268e-06
1.13721e-07
1.60679e-11
1.3403e-11
4.29807e-11
4.61911e-11
1.47601e-11
3.76774e-12
2.77699e-12
2.87651e-12
2.86257e-12
2.86258e-12
1.11662e-08
5.6022e-08
6.87431e-08
2.20795e-08
2.64529e-11
2.64531e-11
4.42238e-11
5.0035e-09
5.0035e-09
3.42299e-05
8.15096e-05
1.12287e-05
1.93602e-09
1.27307e-11
1.16467e-11
3.12427e-11
2.62014e-11
7.40351e-12
6.37659e-12
4.22329e-11
2.89417e-10
2.94997e-09
3.68658e-08
8.39783e-08
5.99501e-08
2.28306e-09
4.05061e-10
1.11296e-10
3.71624e-11
4.0028e-11
9.62145e-06
7.55011e-05
0.000156516
8.99275e-05
2.23254e-06
5.95795e-10
1.48195e-11
1.00556e-11
2.10878e-11
1.14287e-11
3.66659e-12
6.9509e-12
6.56016e-11
8.14324e-10
2.02456e-08
8.39783e-08
8.38353e-08
3.0908e-08
7.11882e-12
5.57991e-11
6.15008e-11
2.41053e-11
2.02153e-11
0.000175635
0.000175863
0.000163234
3.28524e-05
3.55072e-07
2.27397e-10
1.88083e-11
8.27638e-12
1.30923e-11
5.37179e-12
3.44491e-12
4.34565e-12
1.10532e-11
2.8516e-11
1.39641e-08
8.38353e-08
4.78117e-08
7.11882e-12
7.11879e-12
1.67256e-11
1.65465e-11
7.44883e-12
4.70225e-12
0.000116919
0.000129544
4.8677e-05
3.06636e-06
6.11064e-08
2.45845e-10
1.92401e-11
6.1741e-12
7.8598e-12
6.07841e-12
1.82143e-11
5.4685e-12
5.47032e-12
4.65975e-09
4.10448e-08
1.72428e-08
3.71981e-09
3.36312e-10
2.46533e-11
4.87643e-12
3.37415e-12
1.43991e-12
7.08592e-13
6.32003e-06
8.00975e-06
1.13908e-06
1.42088e-07
8.32063e-09
1.92118e-10
1.10923e-11
3.84822e-12
4.01653e-12
1.20817e-11
1.1071e-10
1.37601e-09
3.2277e-08
1.7869e-07
1.18356e-07
3.22766e-12
2.08932e-10
1.70138e-10
2.60593e-11
1.68802e-12
5.70813e-13
1.90349e-13
6.64806e-14
1.68231e-10
3.75999e-10
5.9345e-10
5.7263e-10
4.50679e-10
4.66144e-11
2.57406e-12
2.01304e-12
3.69338e-12
2.58973e-11
3.35148e-10
1.37947e-08
1.28351e-07
1.87163e-07
1.02168e-07
3.2277e-12
3.48864e-11
4.27686e-11
9.81209e-12
4.95912e-13
8.26663e-14
1.85799e-14
4.61398e-15
3.13432e-13
6.54296e-13
3.89337e-12
2.31844e-11
3.98792e-11
5.62765e-12
9.16877e-13
1.76467e-12
4.47037e-12
2.87381e-11
3.5077e-10
1.98813e-08
1.82337e-07
1.87172e-07
1.86858e-08
3.22766e-12
9.42578e-12
9.70294e-12
1.78731e-12
1.01839e-13
9.61154e-15
1.40329e-15
3.00486e-16
1.04704e-13
2.39394e-13
1.05489e-12
4.50318e-12
4.60232e-12
6.9276e-13
8.28382e-13
4.10301e-12
1.15189e-11
2.09947e-11
2.54686e-10
1.63629e-08
1.29683e-07
7.78677e-08
3.22766e-12
3.2277e-12
3.69687e-12
1.77234e-12
2.86316e-13
1.5514e-14
8.89901e-16
8.82835e-17
2.25157e-17
2.48301e-14
6.03561e-14
2.16249e-13
7.5524e-13
5.6293e-13
2.93799e-13
1.56252e-12
1.3523e-11
3.4722e-11
1.07097e-11
1.06928e-11
1.06884e-11
3.64067e-08
1.99394e-09
1.59805e-10
1.17298e-11
1.73688e-12
3.81415e-13
4.04295e-14
1.74558e-15
6.0043e-17
4.41813e-18
1.54323e-18
4.8897e-15
1.2653e-14
3.74707e-14
1.15538e-13
1.28095e-13
4.75661e-13
4.3314e-12
3.87701e-11
1.64541e-10
1.07098e-11
4.62788e-08
1.19725e-07
1.21123e-12
8.67335e-11
1.23224e-10
1.58212e-11
1.14733e-12
1.00234e-13
5.44353e-15
1.52985e-16
3.06733e-18
3.23744e-19
9.84067e-20
8.59797e-16
2.34058e-15
6.86192e-15
3.69208e-14
1.92418e-13
1.40557e-12
1.02003e-11
8.60924e-11
1.62239e-09
4.90193e-08
3.94489e-07
3.18101e-07
1.21678e-12
1.61512e-11
3.76654e-11
9.98266e-12
5.52887e-13
2.48189e-14
6.71842e-16
9.57995e-18
1.14652e-19
1.87001e-20
5.12391e-21
1.38129e-16
6.37746e-16
6.29193e-15
7.7826e-14
7.53117e-13
4.8077e-12
2.24001e-11
2.28475e-10
2.24553e-08
2.88746e-07
4.05874e-07
2.11116e-07
1.21123e-12
6.93475e-12
1.11872e-11
2.59054e-12
1.59587e-13
5.16319e-15
7.32436e-17
4.12375e-19
8.28371e-21
1.05318e-21
2.42504e-22
5.88338e-17
8.02082e-16
1.72499e-14
2.68973e-13
2.58911e-12
1.40617e-11
4.02167e-11
2.49375e-10
2.82219e-08
3.61717e-07
4.06025e-07
1.22068e-08
1.21678e-12
7.96705e-12
4.69796e-12
5.06202e-13
3.4303e-14
8.16697e-16
5.765e-18
7.61353e-21
3.62346e-22
4.03134e-23
8.6253e-24
7.05828e-17
2.54205e-15
5.98173e-14
8.71037e-13
7.90375e-12
3.56921e-11
6.57584e-11
1.46499e-10
7.9114e-09
1.29308e-07
2.45248e-07
3.57832e-12
5.49727e-12
8.48882e-12
3.41303e-12
9.1735e-14
6.17657e-15
1.02097e-16
2.95574e-19
2.2747e-22
1.43797e-23
1.32605e-24
2.47081e-25
1.68085e-16
7.00501e-15
1.50854e-13
2.09016e-12
2.01384e-11
1.52757e-10
5.03497e-10
7.31293e-11
7.36795e-11
2.49468e-08
6.57372e-09
3.57012e-12
7.88507e-12
7.47899e-12
1.51635e-12
1.63432e-14
9.25215e-16
9.27223e-18
6.94949e-21
4.02576e-24
2.25458e-25
2.05532e-26
4.12798e-27
4.73342e-16
1.73442e-14
3.23343e-13
3.95121e-12
3.39532e-11
1.19887e-10
7.29746e-11
7.36657e-11
3.42654e-07
2.33031e-07
2.68551e-13
3.93708e-12
7.11153e-12
3.88811e-12
4.22984e-13
3.15151e-15
1.2194e-16
6.08759e-19
2.13331e-23
3.38085e-26
1.41428e-27
1.36713e-28
3.35079e-29
2.29855e-15
6.29942e-14
8.77812e-13
8.15977e-12
5.55058e-11
1.11521e-09
1.08671e-07
5.61008e-07
7.30477e-07
2.07702e-07
2.68551e-13
2.79141e-12
3.64379e-12
9.74277e-13
8.05024e-14
5.26634e-16
1.22092e-17
2.44752e-20
1.33255e-29
8.14096e-34
8.21933e-36
1.1287e-36
1.60508e-37
0.9982
0.927481
0.740225
0.72113
0.942697
0.714393
0.732516
0.887905
0.658542
0.714402
0.931077
0.948946
0.720962
0.938832
0.948946
0.948947
0.935063
0.948912
0.948914
0.914661
0.948877
0.948879
0.948135
0.681731
0.837272
0.880814
0.618503
0.249566
0.237307
0.245138
0.216084
0.184457
0.225552
0.0744958
0.0745034
0.0747483
0.389515
0.226036
0.0951925
0.0677254
0.22086
0.210493
0.112058
0.11166
0.0330487
0.0640995
0.0758484
0.0672506
0.000809866
0.00217384
0.00459027
0.00798979
6.7114e-11
1.54951e-05
0.000149663
0.000859077
8.69825e-10
3.72461e-06
0.000347845
0.000655422
1.79624e-09
5.13612e-06
0.000123362
0.000253428
4.76055e-09
5.6958e-07
1.69398e-05
8.6929e-05
2.74206e-08
5.49379e-08
1.18705e-10
1.18575e-10
2.77278e-10
1.26708e-10
1.26697e-10
1.29179e-10
6.18501e-09
6.16958e-09
5.66929e-09
5.24178e-09
1.20678e-08
1.52683e-08
1.52683e-08
1.52683e-08
7.51629e-09
1.52683e-08
1.22271e-08
1.88418e-09
3.66395e-10
4.83248e-10
2.18909e-10
5.78363e-11
3.71213e-11
3.89834e-11
3.77372e-11
3.67872e-11
5.03921e-11
5.04505e-11
4.96299e-11
4.53287e-11
4.22333e-11
3.85481e-11
3.14719e-11
2.34846e-11
1.69832e-11
1.27653e-11
9.01587e-12
6.1517e-12
3.28963e-12
2.40455e-12
1.66233e-12
1.11932e-12
4.14363e-13
2.83218e-13
1.87995e-13
1.25973e-13
3.03333e-14
1.92857e-14
1.30046e-14
9.75408e-15
1.91841e-15
1.38184e-15
1.06667e-15
8.24745e-16
1.61419e-16
1.2293e-16
9.41375e-17
7.26309e-17
1.27123e-17
9.54434e-18
7.24491e-18
5.57127e-18
8.42657e-19
6.27796e-19
4.74989e-19
3.65575e-19
5.1077e-20
3.74528e-20
2.80314e-20
2.14522e-20
2.58453e-21
1.87916e-21
1.39675e-21
1.06343e-21
1.14956e-22
8.21191e-23
6.02546e-23
4.54338e-23
3.99625e-24
2.81196e-24
2.03555e-24
1.51844e-24
1.09998e-25
7.58639e-26
5.37803e-26
3.93533e-26
1.87712e-27
1.2897e-27
9.11092e-28
6.65729e-28
1.58254e-29
1.0942e-29
7.7711e-30
5.6868e-30
3.41832e-38
1.55296e-38
7.21941e-39
3.54803e-39
0.72032
0.625642
0.233384
0.0381286
0.0147434
0.0350353
0.629188
0.962183
0.392352
0.0878214
0.121039
0.490427
0.637439
0.466886
0.415438
0.806899
0.885803
0.866855
0.749456
0.850923
0.642672
0.119564
0.205888
0.0226957
0.184326
0.832203
0.685769
0.0952439
0.0879237
0.132015
0.577166
0.782554
0.782543
0.764228
0.711276
0.56337
0.296388
0.179345
0.848005
0.380179
0.376717
0.908605
0.857422
0.871696
0.872374
0.266433
0.0537103
0.104382
0.360128
0.377662
0.252462
0.195944
0.158623
0.129467
0.0263714
0.000122579
0.000122593
0.770687
0.343957
0.823904
0.908607
0.900044
0.910535
0.910455
0.375583
0.0537365
0.0537149
0.125983
0.119874
0.0406635
0.0177122
9.69848e-06
9.69848e-06
9.69848e-06
0.000178237
0.000124223
0.613184
0.333469
0.514155
0.289091
0.248343
0.524558
0.706957
0.710717
0.638186
0.481508
0.150683
0.000763581
9.69848e-06
9.69848e-06
9.69848e-06
0.000412531
0.000513523
0.000218145
5.87357e-05
0.350286
0.0982434
0.0316768
0.000214398
0.000919413
0.00535057
0.111908
0.278732
0.15136
0.11153
0.124398
0.0414206
0.00122786
0.000111564
9.69848e-06
0.000360955
0.000513344
7.26256e-05
8.33479e-05
0.0645694
0.000801453
0.000801592
0.0119458
0.0329234
0.0209634
4.70977e-05
4.70978e-05
4.70977e-05
4.70978e-05
4.70977e-05
0.0183597
0.0307324
0.0259775
0.00867132
0.000267267
2.36938e-05
7.72581e-05
0.000103007
0.101169
0.0030782
0.000801453
0.00971384
0.0428027
0.0371548
0.00231076
9.09282e-05
0.00013389
0.000416746
7.41555e-05
0.0115466
0.0441825
0.0447681
0.0175399
7.53477e-05
2.34743e-05
9.82258e-05
6.04986e-05
0.0932276
0.125059
0.0943477
0.0371694
0.0425299
0.00204135
0.000450671
1.95415e-05
4.30217e-05
3.47383e-06
1.03116e-06
8.6637e-07
8.66358e-07
0.00211308
0.00158709
1.53276e-06
3.59712e-06
6.69637e-05
1.16709e-10
0.0150743
0.130396
0.130396
0.0911313
0.0221953
1.29629e-05
1.28605e-05
1.95454e-05
3.76908e-05
4.8413e-07
6.86523e-07
8.94651e-07
8.66734e-07
7.86136e-07
1.87663e-05
1.53273e-06
1.16703e-10
1.16709e-10
1.16703e-10
0.015053
0.0174061
0.0329382
0.0102035
0.00464872
1.28605e-05
2.00769e-05
2.47139e-05
1.19472e-05
4.9124e-07
8.20862e-07
1.16825e-06
7.60499e-07
7.8615e-07
8.30285e-07
1.1209e-08
7.26169e-09
1.93128e-10
2.02835e-10
0.0421455
0.0142166
0.00154851
0.00105687
0.000814428
0.00113214
8.72545e-06
2.46426e-05
1.16627e-05
4.8413e-07
1.13384e-06
6.4825e-07
1.25326e-08
1.253e-08
1.25326e-08
7.0616e-08
1.28696e-08
9.42874e-10
1.96749e-09
0.0128051
0.0161969
0.0119145
0.00992056
0.000602995
0.00113296
4.2256e-07
1.35982e-05
8.57029e-06
4.9124e-07
1.21377e-06
5.94747e-07
1.253e-08
3.74337e-08
8.42761e-08
8.42761e-08
1.03517e-08
2.64825e-09
7.81721e-08
0.00382522
0.00942991
0.0101614
0.00434183
4.13203e-08
0.000362632
4.23722e-07
4.2256e-07
4.23737e-07
6.08458e-07
3.40248e-07
2.81664e-08
9.50626e-08
1.92514e-07
1.79725e-07
2.57212e-08
3.33348e-10
8.48093e-09
2.91695e-07
0.000372874
0.000300928
0.000460305
0.000116564
4.1735e-08
2.87788e-06
1.98729e-06
5.12377e-07
8.5007e-07
1.41309e-06
2.68088e-07
2.8169e-08
1.77764e-07
1.9287e-07
1.66903e-07
1.05343e-08
1.9985e-10
9.48161e-08
2.9452e-07
0.000302267
4.11044e-05
1.69461e-07
1.69453e-07
3.49296e-07
3.17103e-06
4.07814e-06
2.10882e-06
2.04581e-06
1.03477e-06
1.99979e-07
2.70614e-08
4.62649e-09
9.64981e-08
5.83627e-08
1.04692e-08
1.9985e-10
2.14408e-07
2.94619e-07
0.000139585
0.00012858
8.75289e-06
8.75135e-08
1.07796e-07
1.45516e-06
2.94711e-06
2.02549e-06
3.01512e-07
2.97893e-11
2.98002e-11
2.97893e-11
2.98002e-11
2.97893e-11
2.98002e-11
3.72637e-09
1.9985e-10
1.84898e-07
2.02904e-07
9.63539e-06
4.05718e-05
4.42312e-05
2.68416e-05
2.9793e-11
9.55109e-08
1.79439e-06
8.89446e-08
1.3958e-10
1.39583e-10
2.05712e-10
1.03497e-09
3.4949e-09
1.87153e-09
8.59741e-10
7.09522e-10
2.08124e-10
1.81618e-08
2.3038e-09
1.1719e-10
1.17184e-10
2.00184e-07
1.82236e-07
2.98039e-11
2.97893e-11
2.98002e-11
2.97893e-11
2.25801e-10
5.47857e-10
8.06467e-10
8.06447e-10
1.38393e-07
2.25449e-07
4.20081e-08
3.18712e-09
5.87147e-10
5.63572e-10
2.3038e-09
4.15383e-09
1.81387e-09
6.22492e-10
6.22544e-10
1.15044e-09
5.72515e-10
1.53615e-10
1.14062e-10
3.12522e-10
1.2081e-09
4.32276e-09
1.25406e-08
3.32077e-07
5.73692e-07
3.73636e-07
2.40492e-08
3.2478e-09
2.75981e-09
3.31721e-09
7.95737e-09
1.91707e-09
1.07567e-09
6.22556e-10
3.08185e-10
1.08441e-10
6.79639e-11
9.70571e-11
3.0924e-10
1.97281e-09
2.83233e-08
7.98178e-08
2.18529e-07
5.73673e-07
5.73692e-07
1.47838e-07
1.24674e-08
6.78768e-09
6.56226e-09
2.93381e-10
5.56277e-11
1.18994e-10
3.39014e-11
1.50914e-11
1.42745e-11
2.98479e-11
8.81779e-11
2.76983e-10
2.07515e-09
4.81374e-08
1.15583e-07
1.13542e-07
2.31761e-07
5.73673e-07
3.06207e-07
2.06112e-08
1.54929e-08
1.07673e-08
2.73656e-11
2.19383e-11
1.55838e-11
8.19123e-12
5.94554e-12
7.63085e-12
2.01983e-11
5.42886e-11
1.5708e-10
1.01634e-09
2.15607e-08
1.15584e-07
1.41092e-07
1.41098e-07
5.73692e-07
4.32658e-07
3.74444e-08
4.03811e-08
3.97802e-08
3.52726e-11
2.69558e-11
1.07859e-11
3.62487e-12
2.35224e-12
3.22188e-12
8.72305e-12
2.36588e-11
6.2756e-11
9.47164e-11
7.07999e-11
6.04376e-08
6.81383e-07
6.14955e-07
4.42183e-07
4.90305e-07
6.26805e-08
5.83849e-08
1.59734e-07
3.20062e-11
1.26494e-11
3.42322e-12
1.00633e-12
6.58726e-13
1.01747e-12
2.92906e-12
7.97325e-12
1.93381e-11
3.08759e-11
7.07751e-11
1.23133e-08
7.21282e-07
1.18689e-06
1.64657e-07
4.9061e-07
1.10906e-07
1.28474e-07
1.73685e-07
1.35375e-11
4.04963e-12
9.51826e-13
2.41273e-13
1.44026e-13
2.25844e-13
6.72095e-13
1.8367e-12
4.91303e-12
1.57497e-11
8.39058e-11
3.09328e-09
1.74986e-07
1.18585e-06
1.64863e-07
4.01368e-07
1.54698e-07
1.73685e-07
1.73739e-07
3.3605e-12
9.94532e-13
2.34147e-13
5.12736e-14
2.42863e-14
3.20664e-14
9.91531e-14
3.24816e-13
1.4393e-12
8.97663e-12
6.53908e-11
5.25202e-10
1.61632e-08
1.05089e-06
2.4858e-06
1.95626e-07
1.39133e-07
1.18377e-07
8.94355e-08
6.04879e-13
2.00412e-13
4.9019e-14
9.66176e-15
3.18029e-15
3.10115e-15
1.06929e-14
5.31635e-14
3.52902e-13
2.4484e-12
1.34508e-11
2.25112e-11
4.51938e-11
1.14016e-06
7.82824e-06
5.48396e-07
8.32251e-08
2.13795e-08
5.61402e-08
7.26979e-14
2.74537e-14
7.63825e-15
1.56437e-15
3.53679e-16
2.08104e-16
7.68023e-16
5.55046e-15
4.05978e-14
2.47395e-13
1.1049e-12
5.32695e-12
7.14642e-10
9.32708e-07
7.82678e-06
1.66442e-06
5.15338e-08
8.26842e-09
4.55947e-07
6.2639e-15
2.70739e-15
9.05729e-16
2.16024e-16
4.23249e-17
1.13174e-17
2.8076e-17
2.43207e-16
2.03937e-15
2.52914e-14
6.06887e-13
1.51798e-11
7.09222e-10
1.77235e-07
2.90339e-06
1.94506e-06
4.5513e-08
8.26821e-09
1.02185e-06
5.41539e-16
2.52984e-16
9.60016e-17
2.60973e-17
5.29883e-18
7.98612e-19
2.0435e-19
2.96716e-18
1.73782e-16
1.09094e-14
6.21688e-13
2.37089e-11
2.6738e-10
1.415e-25
3.61043e-25
2.40895e-06
2.91484e-07
8.3243e-09
1.03001e-06
4.80173e-17
2.31969e-17
9.37053e-18
2.7378e-18
5.66406e-19
7.83784e-20
1.70413e-20
1.24723e-19
4.71189e-18
1.5493e-16
3.82237e-15
2.53287e-14
4.30414e-33
2.62978e-14
6.58993e-09
2.27112e-05
1.77203e-06
8.65389e-09
1.03002e-06
3.69963e-18
1.8372e-18
7.81581e-19
2.44581e-19
5.29375e-20
6.47117e-21
1.10623e-21
1.72733e-22
1.11182e-23
-1.69266e-43
-5.97884e-50
-5.87241e-46
-1.79804e-27
-4.04664e-26
-7.67558e-25
3.77037e-05
7.95144e-06
8.03381e-08
1.03001e-06
2.44762e-19
1.25249e-19
5.62108e-20
1.88225e-20
4.40865e-21
4.54156e-22
7.44551e-23
1.44608e-23
8.85785e-25
6.7906e-26
5.75315e-27
5.37444e-28
-1.3155e-28
-1.15107e-26
-5.94296e-25
3.76983e-05
1.83083e-05
1.54213e-07
4.11814e-07
1.43848e-20
7.52371e-21
3.57329e-21
1.29537e-21
3.36371e-22
2.92634e-23
4.04272e-24
9.62681e-25
6.2597e-26
3.8874e-27
1.88008e-28
8.65778e-30
1.85881e-30
-3.16437e-27
-3.68415e-25
2.32872e-05
2.70368e-05
1.31419e-06
1.41628e-08
7.11797e-22
3.75903e-22
1.86412e-22
7.3391e-23
2.16591e-23
1.73083e-24
1.88392e-25
4.76393e-26
4.27704e-27
3.15698e-28
1.95369e-29
9.13777e-31
6.62967e-32
-7.91935e-28
-1.77645e-25
-1.2604e-24
3.55986e-05
3.29607e-06
6.41677e-09
3.02013e-23
1.60044e-23
8.25344e-24
3.51664e-24
1.19493e-24
9.23115e-26
9.17241e-27
1.93377e-27
2.33629e-28
2.01687e-29
1.41853e-30
7.49304e-32
4.33126e-33
-1.63189e-28
-6.38806e-26
-6.47544e-24
3.58564e-05
7.01091e-06
6.41852e-09
1.002e-24
5.31747e-25
2.82426e-25
1.26912e-25
4.7829e-26
4.17296e-27
4.16695e-28
6.72958e-29
8.50331e-30
8.06002e-31
6.27307e-32
3.73245e-33
2.16098e-34
-2.69383e-29
-1.88044e-26
-5.79074e-24
3.58478e-05
1.03579e-05
6.49311e-09
2.5527e-26
1.35114e-26
7.48237e-27
3.53476e-27
1.47743e-27
1.67019e-28
1.65901e-29
2.07204e-30
2.47838e-31
2.43007e-32
2.00771e-33
1.29733e-34
7.82944e-36
-3.25795e-30
-4.6186e-27
-3.94636e-25
3.58304e-05
1.16615e-05
8.49392e-09
4.32869e-28
2.32568e-28
1.31492e-28
6.36485e-29
2.70753e-29
3.36873e-30
3.41712e-31
3.86336e-32
4.28701e-33
4.08853e-34
3.36532e-35
2.22637e-36
1.35501e-37
-2.58985e-31
-7.04379e-28
-4.97248e-26
3.58205e-05
1.40212e-05
2.11678e-08
3.69382e-30
2.0051e-30
1.16755e-30
5.84263e-31
2.62879e-31
4.16396e-32
4.5668e-33
4.70134e-34
4.73759e-35
4.3283e-36
3.52984e-37
2.38651e-38
1.48189e-39
-9.13724e-33
-4.8371e-29
-2.54253e-26
3.57759e-05
2.30847e-05
2.93507e-07
1.35712e-39
2.2595e-40
3.45182e-41
3.00725e-42
1.72746e-43
8.71511e-45
4.32499e-46
1.49413e-47
2.31691e-49
-2.40703e-50
-3.41924e-50
-1.25891e-50
-4.26105e-51
-2.56753e-51
-3.10562e-51
-5.909e-27
1.2145e-05
2.39725e-05
1.40873e-06
)
;

boundaryField
{
    leftWall
    {
        type            zeroGradient;
    }
    rightWall
    {
        type            zeroGradient;
    }
    lowerWall
    {
        type            zeroGradient;
    }
    atmosphere
    {
        type            inletOutlet;
        inletValue      uniform 0;
        value           nonuniform List<scalar> 
46
(
2.29855e-15
6.29942e-14
8.77812e-13
8.15977e-12
5.55058e-11
1.11521e-09
1.08671e-07
5.61008e-07
7.30477e-07
2.07702e-07
2.68551e-13
2.79141e-12
3.64379e-12
9.74277e-13
8.05024e-14
5.26634e-16
1.22092e-17
2.44752e-20
0
0
0
0
0
0
0
0
0
0
0
0
0
0
0
0
0
0
0
0
0
0
0
0
0
0
2.39725e-05
1.40873e-06
)
;
    }
    defaultFaces
    {
        type            empty;
    }
}


// ************************************************************************* //
