/*--------------------------------*- C++ -*----------------------------------*\
| =========                 |                                                 |
| \\      /  F ield         | OpenFOAM: The Open Source CFD Toolbox           |
|  \\    /   O peration     | Version:  3.0.1                                 |
|   \\  /    A nd           | Web:      www.OpenFOAM.org                      |
|    \\/     M anipulation  |                                                 |
\*---------------------------------------------------------------------------*/
FoamFile
{
    version     2.0;
    format      ascii;
    class       volScalarField;
    location    "0.19";
    object      p;
}
// * * * * * * * * * * * * * * * * * * * * * * * * * * * * * * * * * * * * * //

dimensions      [1 -1 -2 0 0 0 0];

internalField   nonuniform List<scalar> 
50
(
301209
299452
298654
298164
297474
296731
295928
295029
294028
292910
291653
290233
288619
286774
284648
282177
279277
275835
271690
266613
260245
251993
240737
224077
196276
139826
102264
82952.2
70670.7
61814.5
54762.5
49164.8
44447.5
40540.7
37081.3
34429
30622
30737.6
90474
155486
161784
163213
165330
166535
167749
169474
171160
172515
173558
173068
)
;

boundaryField
{
    inlet
    {
        type            fixedValue;
        value           uniform 300000;
    }
    outlet
    {
        type            fixedValue;
        value           uniform 175000;
    }
    upperWall
    {
        type            zeroGradient;
    }
    lowerWall
    {
        type            zeroGradient;
    }
    frontAndBack
    {
        type            empty;
    }
}


// ************************************************************************* //
