/*--------------------------------*- C++ -*----------------------------------*\
| =========                 |                                                 |
| \\      /  F ield         | OpenFOAM: The Open Source CFD Toolbox           |
|  \\    /   O peration     | Version:  3.0.1                                 |
|   \\  /    A nd           | Web:      www.OpenFOAM.org                      |
|    \\/     M anipulation  |                                                 |
\*---------------------------------------------------------------------------*/
FoamFile
{
    version     2.0;
    format      ascii;
    class       volVectorField;
    location    "0.19";
    object      U;
}
// * * * * * * * * * * * * * * * * * * * * * * * * * * * * * * * * * * * * * //

dimensions      [0 1 -1 0 0 0 0];

internalField   nonuniform List<vector> 
50
(
(89.6238 -0.00155453 0)
(93.2142 -0.00155476 0)
(96.1059 -0.00155356 0)
(98.9141 -0.00155283 -9.91958e-15)
(102.123 -0.00155961 -1.01739e-14)
(105.512 -0.00155944 -1.05104e-14)
(109.121 -0.00153442 0)
(113.008 -0.00156127 0)
(117.193 -0.00160062 -1.1559e-14)
(121.712 -0.00149052 -1.19574e-14)
(126.612 -0.00153881 0)
(131.946 -0.00169398 -1.28397e-14)
(137.778 -0.001386 0)
(144.185 -0.00157304 0)
(151.265 -0.00180969 -1.44249e-14)
(159.141 -0.00114412 0)
(167.969 -0.00185668 -1.57023e-14)
(177.957 -0.00146398 0)
(189.388 -0.00113657 0)
(202.663 -0.00378131 0)
(218.386 -0.0025639 0)
(237.55 0.0311345 0)
(261.993 -0.0118608 0)
(295.794 -0.471608 0)
(350.444 0.958002 0)
(451.111 3.36624 0)
(523.159 -8.48705 0)
(561.812 -2.30715 0)
(588.738 3.59643 0)
(609.087 3.08122 0)
(626.873 4.74502 0)
(641.21 1.25232 0)
(654.374 -2.14967 0)
(665.508 -2.29377 9.32367e-15)
(676.493 -4.15745 0)
(684.362 -1.69854 7.88064e-15)
(697.406 0.64551 0)
(696.701 1.49523 0)
(437.113 -2.28009 9.8671e-15)
(242.795 -8.75469 0)
(215.973 13.1488 1.20367e-14)
(205.713 8.14814 1.12354e-14)
(196.093 -0.530152 0)
(187.675 -7.14247 0)
(179.804 -6.20444 1.01444e-14)
(173.448 -0.998052 0)
(167.25 3.20749 9.63173e-15)
(162.122 2.95017 0)
(159.486 -0.0424503 0)
(153.851 -0.672378 0)
)
;

boundaryField
{
    inlet
    {
        type            zeroGradient;
    }
    outlet
    {
        type            zeroGradient;
    }
    upperWall
    {
        type            slip;
    }
    lowerWall
    {
        type            slip;
    }
    frontAndBack
    {
        type            empty;
    }
}


// ************************************************************************* //
