/*--------------------------------*- C++ -*----------------------------------*\
| =========                 |                                                 |
| \\      /  F ield         | OpenFOAM: The Open Source CFD Toolbox           |
|  \\    /   O peration     | Version:  2012                                  |
|   \\  /    A nd           | Website:  www.openfoam.com                      |
|    \\/     M anipulation  |                                                 |
\*---------------------------------------------------------------------------*/
FoamFile
{
    version     2.0;
    format      ascii;
    class       volScalarField;
    location    "0.8";
    object      alpha.water;
}
// * * * * * * * * * * * * * * * * * * * * * * * * * * * * * * * * * * * * * //

dimensions      [0 0 0 0 0 0 0];


internalField   nonuniform List<scalar> 
2268
(
1
1
1
1
1
1
1
1
1
1
1
1
1
1
0.999996
0.993277
0.958419
0.953804
0.996832
0.996847
0.995698
0.994757
0.997795
1
1
1
1
1
1
1
1
1
1
1
1
1
1
0.999998
0.99604
0.957558
0.946442
0.950236
0.962018
0.955377
0.973257
0.999958
1
1
1
1
1
1
1
1
1
1
1
1
1
1
1
0.999999
0.992677
0.954536
0.942642
0.942626
0.942972
0.979799
0.999958
1
1
1
1
1
1
1
1
1
1
1
1
1
1
1
1
1
0.998406
0.990453
0.988955
0.982884
1
0.999959
1
1
1
1
1
1
1
1
1
1
1
1
1
1
1
1
1
1
1
1
1
1
1
1
1
1
1
1
1
1
1
1
1
1
1
1
1
1
1
1
1
1
1
1
1
0.999992
1
1
1
1
1
1
1
1
1
1
1
1
1
1
1
1
1
1
1
1
1
1
0.999976
1
1
1
1
1
0.997063
0.983939
1
1
1
1
1
0.999999
0.999998
0.999999
0.999999
1
1
0.999999
0.999998
0.999998
0.999998
0.999976
0.985378
0.999402
0.998445
0.968925
0.951531
0.952066
0.89982
0.735037
0.806006
0.830502
0.80452
0.732915
0.741745
0.785
0.787315
0.813794
0.881346
0.881346
0.823706
0.992434
0.999479
0.99948
0.999399
0.998545
0.998206
0.967458
0.75362
0.787933
0.703826
0.553079
0.571706
0.61245
0.783607
0.562403
0.561945
0.584606
0.88051
0.879975
0.993232
0.999399
0.956207
0.916053
0.985374
0.998169
0.975755
0.804916
0.632276
0.526644
0.529956
0.781556
0.782604
0.782681
0.782604
0.695844
0.585484
0.8047
0.824994
0.968037
0.949802
0.752035
0.752057
0.905233
0.997977
0.972768
0.796481
0.464727
0.503367
0.733561
0.779173
0.781556
0.782604
0.782734
0.782293
0.767722
0.737947
0.448466
0.98722
0.982404
0.752057
0.752009
0.903856
0.997392
0.974725
0.727423
0.389423
0.680786
0.721354
0.637968
0.477257
0.633131
0.782293
0.78151
0.781167
0.723014
0.168772
0.987327
0.961578
0.75203
0.877752
0.994075
0.996047
0.976958
0.590875
0.370994
0.688558
0.681191
0.0845801
0.0481777
0.0758421
0.389363
0.781167
0.78035
0.255932
0.168772
0.987298
0.823179
0.787929
0.690893
0.920069
0.994075
0.986868
0.611423
0.332333
0.683254
0.301186
0.0480311
0.0478813
0.0481777
0.0823435
0.647357
0.721842
0.256463
0.339533
0.948609
0.846407
0.928907
0.595312
0.896304
0.991711
0.984291
0.587927
0.326392
0.642957
0.145027
0.0479416
0.0480311
0.0489793
0.0599524
0.433645
0.621424
0.257007
0.445328
0.741604
0.779018
0.764963
0.761227
0.775184
0.862063
0.965318
1
1
1
0.999998
0.999979
0.999945
0.999935
0.999947
0.999966
0.999977
0.999976
0.999963
0.999936
0.999929
0.999937
0.999963
0.179354
0.126119
0.163887
0.222846
0.32185
0.444433
0.54157
0.644706
0.794603
0.8992
0.920503
0.899476
0.890592
0.891848
0.884877
0.882867
0.883806
0.870054
0.82977
0.772078
0.730702
0.722724
0.77502
0.0019692
0.000569367
0.000661823
0.0102695
0.0339944
0.0611653
0.135959
0.280736
0.415495
0.494314
0.573031
0.650503
0.510738
0.269172
0.18516
0.156401
0.134014
0.10455
0.0662147
0.0382048
0.0282343
0.0276742
0.0390544
0.000666252
0.000132026
0.000195014
0.00168963
0.00264661
0.0024406
0.00614236
0.116848
0.377773
0.524183
0.558343
0.530549
0.220313
0.0550438
0.0299282
0.00298268
0.00268007
0.00268007
0.00346823
0.0193724
0.0191895
0.015515
0.00722713
0.000146645
4.81501e-05
3.25949e-05
3.82932e-05
6.68546e-05
0.00108444
0.00796921
0.0172171
0.031001
0.0460352
0.0650094
0.142292
0.271404
0.271085
0.271328
0.152465
0.00268007
0.00304711
0.00507071
0.124853
0.244685
0.236227
0.109787
3.82154e-05
1.58077e-05
6.22756e-06
6.39767e-06
7.38571e-06
2.29666e-05
7.5279e-05
2.38065e-06
1.77127e-05
0.000114455
0.000639827
0.00681394
0.167545
0.271333
0.270121
0.268452
0.126555
0.00515977
0.00692592
0.0867753
0.33823
0.33823
0.341303
1.32675e-05
6.39779e-06
1.76753e-06
1.14024e-06
7.99337e-07
5.96133e-07
2.98248e-07
2.11196e-07
1.00603e-06
5.1505e-06
2.69794e-05
0.000191397
0.0038248
0.164129
0.268452
0.265948
0.266099
0.229902
0.0609959
0.0700107
0.127537
0.341303
0.344428
5.47328e-06
2.43416e-06
6.39591e-07
2.34246e-07
9.43703e-08
4.37643e-08
2.4721e-08
2.17308e-08
1.03072e-07
4.47681e-07
1.21962e-06
4.36668e-06
4.13723e-05
0.000273983
0.0356989
0.232807
0.270106
0.271458
0.271458
0.271458
0.175053
0.0958074
0.234454
3.75563e-06
3.53175e-06
3.1152e-07
6.09852e-08
1.59862e-08
4.50849e-09
2.11859e-09
1.70086e-09
1.17061e-08
7.83457e-08
2.47364e-07
1.9665e-07
1.84987e-07
3.37011e-06
2.32155e-05
0.000136347
0.0577643
0.230825
0.271458
0.267672
0.190102
0.013658
4.03081e-05
1.32848e-06
3.72416e-06
3.79703e-07
1.59864e-08
5.12085e-09
1.33958e-09
4.68366e-10
2.65868e-10
1.66327e-09
1.0323e-08
8.30164e-08
6.00729e-08
1.92872e-08
-5.40992e-10
8.48723e-08
6.69901e-07
-3.72623e-06
4.6067e-06
0.0237193
0.0649914
0.00586023
1.16064e-05
1.8983e-05
2.38877e-07
1.22912e-06
6.36054e-07
4.33618e-08
1.04329e-09
4.88842e-10
2.97624e-10
2.09099e-10
6.03591e-09
1.32746e-07
2.08105e-07
3.4235e-08
6.40819e-09
3.00947e-09
9.11076e-09
4.93635e-08
7.70169e-07
2.86191e-06
4.86796e-06
5.70199e-06
6.79838e-06
8.40578e-06
1.16063e-05
4.56342e-08
9.25209e-08
5.02949e-07
1.4425e-07
1.0166e-09
2.6902e-10
2.09792e-10
2.09792e-10
3.61211e-08
2.08871e-07
2.091e-07
3.25324e-08
2.71278e-09
1.19391e-09
3.00733e-09
1.3344e-05
3.38007e-05
9.74765e-06
7.23877e-06
2.13297e-05
4.53588e-05
5.06795e-05
5.32546e-05
7.55821e-09
2.30479e-08
6.42822e-08
9.59266e-08
2.25479e-08
3.74344e-10
2.09792e-10
2.09101e-10
2.41253e-08
1.41468e-07
9.32044e-08
1.2221e-08
2.12922e-09
8.40852e-10
9.06671e-10
5.92114e-07
0.000291466
0.000531696
6.14559e-05
1.33719e-05
2.02286e-05
0.000231067
0.000722864
1.3678e-09
5.1378e-09
4.32178e-09
9.4394e-09
1.01151e-08
2.64203e-09
2.26609e-10
2.09792e-10
4.23578e-09
6.83424e-09
1.4063e-09
1.89429e-09
1.98398e-09
7.54955e-10
6.67528e-10
4.76909e-09
0.000298621
0.000771443
0.000397154
9.13563e-06
9.83187e-06
1.99828e-05
0.000873231
3.31156e-10
1.29634e-09
9.29702e-10
5.30023e-10
1.18778e-09
1.03469e-09
2.43163e-10
2.68711e-10
1.93232e-10
2.04569e-10
3.0002e-10
4.48407e-10
9.91841e-10
7.00682e-10
3.51101e-10
9.32699e-10
4.82526e-05
0.000687167
0.00128102
9.20861e-06
9.13707e-06
9.83187e-06
1.18221e-05
1.38184e-10
3.22816e-10
2.93603e-10
2.29453e-10
1.54454e-10
1.75218e-10
8.48229e-11
2.26693e-10
1.68356e-10
1.26165e-10
2.45808e-10
3.11091e-10
3.58259e-10
5.94847e-10
2.78467e-10
-3.55082e-10
2.07352e-08
0.000226138
0.00154535
0.00129914
9.83187e-06
1.08513e-05
1.11745e-05
5.69286e-11
1.28026e-10
1.18068e-10
8.75463e-11
4.14261e-11
2.62296e-11
1.96645e-11
1.03024e-10
9.71898e-11
9.29822e-11
1.87371e-10
2.4248e-10
2.20593e-10
4.67599e-10
2.54278e-10
1.0223e-10
3.15184e-09
3.0621e-07
0.000914606
0.00195057
0.00122001
9.81782e-05
5.35349e-05
1.52432e-11
3.6949e-11
3.10551e-11
1.87977e-11
8.48185e-12
5.18033e-12
6.4765e-12
2.21232e-11
3.75041e-11
5.37134e-11
1.26079e-10
1.8273e-10
1.71812e-10
3.22466e-10
2.36143e-10
1.08776e-10
-1.51643e-11
3.29126e-08
1.13616e-06
0.001839
0.00185638
0.00185618
0.0016356
2.89063e-12
6.3038e-12
4.77414e-12
2.73366e-12
1.37178e-12
1.17158e-12
2.24813e-12
4.60213e-12
1.26979e-11
2.83956e-11
7.49654e-11
1.23468e-10
1.29507e-10
1.84925e-10
2.17252e-10
6.41568e-11
3.37902e-11
3.69201e-09
1.19717e-07
0.000159282
0.000360936
0.00168144
0.00168466
4.81684e-13
8.87771e-13
6.37584e-13
3.64879e-13
2.0462e-13
2.51831e-13
6.24402e-13
1.23724e-12
4.58922e-12
1.53559e-11
4.08977e-11
7.31071e-11
8.97014e-11
1.05481e-10
1.39596e-10
6.05716e-11
5.07665e-11
1.10315e-10
9.7518e-09
2.65064e-07
3.54905e-07
6.53268e-05
6.55415e-05
7.42147e-14
1.19703e-13
8.11368e-14
4.60463e-14
2.91702e-14
4.5345e-14
1.21322e-13
3.06157e-13
1.55513e-12
7.4009e-12
2.02793e-11
3.9084e-11
5.64504e-11
6.07918e-11
6.92116e-11
5.81711e-11
2.20684e-11
-3.6227e-11
7.74885e-10
1.88543e-08
1.09981e-08
9.67346e-09
4.75769e-10
1.06321e-14
1.526e-14
9.71187e-15
5.44522e-15
3.88279e-15
6.68596e-15
1.81859e-14
6.19783e-14
4.04956e-13
2.59299e-12
8.06755e-12
1.77363e-11
2.908e-11
3.04516e-11
3.01877e-11
3.50601e-11
2.37474e-11
4.93683e-12
1.78908e-11
6.40711e-10
2.52049e-10
3.36695e-09
2.00694e-10
1.41675e-15
1.82428e-15
1.08694e-15
6.02581e-16
4.74949e-16
8.60743e-16
2.57259e-15
1.08394e-14
7.31363e-14
5.53833e-13
2.14049e-12
5.73988e-12
1.03869e-11
1.08808e-11
1.00794e-11
1.20566e-11
1.18969e-11
5.64829e-12
2.57775e-12
8.499e-12
7.06696e-12
2.522e-10
1.16774e-10
1.76214e-16
2.04798e-16
1.1393e-16
6.25472e-17
5.37285e-17
1.02969e-16
3.67955e-16
1.78281e-15
9.99381e-15
7.03642e-14
3.31201e-13
1.09231e-12
2.20053e-12
2.36786e-12
2.11593e-12
2.20023e-12
3.21465e-12
2.3929e-12
5.1728e-13
8.84513e-13
2.23771e-12
1.35712e-11
1.58178e-11
2.05419e-17
2.16405e-17
1.12064e-17
6.10285e-18
5.66871e-18
1.16069e-17
5.074e-17
2.81007e-16
1.28678e-15
6.81157e-15
3.19846e-14
1.16329e-13
2.6692e-13
3.04488e-13
2.71921e-13
2.31245e-13
3.63626e-13
4.76532e-13
2.59169e-13
6.48129e-14
5.05527e-13
1.03476e-12
1.41457e-12
2.25265e-18
2.15614e-18
1.03579e-18
5.60818e-19
5.59401e-19
1.22452e-18
6.37037e-18
4.01482e-17
1.70641e-16
6.91152e-16
2.65527e-15
8.87897e-15
2.23516e-14
2.73456e-14
2.4933e-14
1.81552e-14
1.9329e-14
3.67279e-14
3.9212e-14
3.51157e-14
7.55437e-14
1.34837e-13
2.07561e-13
2.33034e-19
2.02892e-19
9.00639e-20
4.86226e-20
5.17403e-20
1.2061e-19
7.09937e-19
4.90313e-18
2.15491e-17
7.61351e-17
2.3998e-16
6.8333e-16
1.704e-15
2.14751e-15
1.99124e-15
1.40227e-15
9.47544e-16
1.30579e-15
3.56829e-15
7.75877e-15
1.45981e-14
2.36686e-14
2.81829e-14
2.27533e-20
1.80552e-20
7.37588e-21
3.98453e-21
4.4951e-21
1.11241e-20
7.09207e-20
5.09954e-19
2.38908e-18
8.11487e-18
2.26816e-17
5.64339e-17
1.31046e-16
1.6068e-16
1.48814e-16
1.04934e-16
5.66991e-17
5.29346e-17
1.89388e-16
5.6685e-16
1.19115e-15
1.4359e-15
1.55149e-15
2.07223e-21
1.51633e-21
5.69242e-22
3.09065e-22
3.6776e-22
9.64097e-22
6.5099e-21
4.7185e-20
2.29275e-19
7.79534e-19
2.04208e-18
4.60616e-18
9.85157e-18
1.13611e-17
1.03699e-17
7.16956e-18
3.76001e-18
2.12942e-18
3.26843e-18
1.12182e-17
2.46747e-17
4.1742e-17
1.33546e-16
1.55037e-22
1.16458e-22
4.12345e-23
2.26448e-23
2.84695e-23
7.8784e-23
5.58839e-22
4.0514e-21
1.97091e-20
6.70634e-20
1.68865e-19
3.54391e-19
6.99118e-19
7.52769e-19
6.70772e-19
4.4443e-19
2.25495e-19
9.94067e-20
5.7369e-20
1.33666e-19
6.24458e-19
4.76339e-18
5.57737e-17
2.99059e-24
6.35149e-24
2.51685e-24
1.53664e-24
2.0838e-24
6.09355e-24
4.51887e-23
3.28048e-22
1.57456e-21
5.28899e-21
1.28742e-20
2.55317e-20
4.62275e-20
4.71356e-20
4.03603e-20
2.52767e-20
1.20204e-20
4.96145e-21
3.1595e-21
6.40478e-21
9.55954e-20
1.79655e-18
2.5544e-17
-4.06705e-24
9.69374e-26
5.3057e-26
7.7979e-26
1.3967e-25
4.47344e-25
3.45597e-24
2.51138e-23
1.18869e-22
3.90819e-22
9.17719e-22
1.73355e-21
2.85244e-21
2.81474e-21
2.26583e-21
1.33385e-21
5.85429e-22
2.36154e-22
1.83027e-22
5.22972e-22
2.35793e-20
5.76288e-19
7.98091e-18
-1.22997e-23
-1.1839e-24
-7.51142e-26
6.00058e-28
6.71458e-27
3.15698e-26
2.51361e-25
1.82299e-24
8.51734e-24
2.73521e-23
6.18118e-23
1.11711e-22
1.66494e-22
1.59039e-22
1.19883e-22
6.59518e-23
2.6627e-23
1.03838e-23
9.35282e-24
4.59162e-23
3.9883e-21
1.09251e-19
1.6058e-18
-8.96715e-24
-1.14743e-24
-1.37856e-25
-8.55477e-27
0
2.12921e-27
1.74367e-26
1.26172e-25
5.8145e-25
1.8228e-24
3.95908e-24
6.8706e-24
9.25228e-24
8.51941e-24
6.01052e-24
3.07221e-24
1.13938e-24
4.3393e-25
4.77226e-25
3.54097e-24
3.37414e-22
1.2933e-20
2.37526e-19
-4.89234e-24
-6.29503e-25
-7.66151e-26
-7.97182e-27
-1.29345e-28
4.81323e-29
1.17265e-27
8.39169e-27
3.80512e-26
1.16312e-25
2.42537e-25
4.05138e-25
4.9125e-25
4.34981e-25
2.86345e-25
1.35204e-25
4.58815e-26
1.81545e-26
2.69923e-26
2.55773e-25
2.09959e-23
1.47879e-21
3.42416e-20
-2.28495e-24
-2.85881e-25
-3.3339e-26
-3.79604e-27
-2.6311e-28
0
7.99214e-29
5.40157e-28
2.40513e-27
7.1564e-27
1.43085e-26
2.29766e-26
2.50536e-26
2.1264e-26
1.29856e-26
5.62507e-27
1.73921e-27
8.09181e-28
1.97555e-27
2.8554e-26
2.61564e-24
2.48221e-22
5.89527e-21
-9.54654e-25
-1.161e-25
-1.28166e-26
-1.46442e-27
-1.30924e-28
-1.93378e-30
4.272e-30
3.38979e-29
1.48093e-28
4.27932e-28
8.19172e-28
1.25377e-27
1.24061e-27
9.98069e-28
5.60978e-28
2.2138e-28
6.22954e-29
4.08094e-29
2.22257e-28
5.41162e-27
5.84008e-25
5.30161e-23
1.06823e-21
-3.63899e-25
-4.32823e-26
-4.51624e-27
-5.00495e-28
-4.86714e-29
-2.42563e-30
1.39744e-32
2.12769e-30
8.96858e-30
2.50689e-29
4.58575e-29
6.56504e-29
6.07918e-29
4.49314e-29
2.31337e-29
8.26631e-30
2.16791e-30
2.48344e-30
3.30742e-29
1.18662e-27
1.33863e-25
9.84717e-24
1.51744e-22
-1.27946e-25
-1.49807e-26
-1.48015e-27
-1.5632e-28
-1.5462e-29
-1.01634e-30
0
1.33995e-31
5.37674e-31
1.44937e-30
2.52645e-30
3.33807e-30
2.93388e-30
1.95996e-30
9.18222e-31
2.94707e-31
7.91923e-32
1.81099e-31
4.68238e-30
2.09837e-28
2.12212e-26
1.14109e-24
1.30283e-23
-4.18012e-26
-4.8394e-27
-4.53482e-28
-4.51741e-29
-4.38844e-30
-3.185e-31
-2.42351e-33
7.60151e-33
3.20948e-32
8.33251e-32
1.37996e-31
1.67557e-31
1.38647e-31
8.37283e-32
3.53772e-32
1.01499e-32
3.20466e-33
1.44716e-32
4.90364e-31
2.32036e-29
1.80268e-27
6.82833e-26
6.06667e-25
-1.27704e-26
-1.46991e-27
-1.30945e-28
-1.22181e-29
-1.1425e-30
-8.51753e-32
-2.03824e-33
3.78212e-34
1.94672e-33
4.64012e-33
6.79228e-33
7.23798e-33
5.97145e-33
3.37362e-33
1.25025e-33
2.64661e-34
5.97955e-35
1.06487e-33
3.51585e-32
1.47402e-30
8.11175e-29
2.35051e-27
1.76858e-26
-3.66674e-27
-4.16547e-28
-3.48049e-29
-3.02747e-30
-2.6826e-31
-1.9508e-32
-5.77413e-34
2.71134e-36
6.11032e-35
2.52877e-34
6.63888e-34
9.14435e-34
4.47742e-34
1.73456e-34
7.32028e-35
5.617e-35
5.617e-35
5.617e-35
1.11283e-33
3.80643e-32
1.56086e-30
3.8489e-29
2.35797e-28
0.998341
0.997267
0.996298
0.995784
0.787174
0.78073
0.769117
0.755644
0.0378391
0.0347101
0.0308531
0.0269883
0.00500983
0.0046246
0.0046246
0.0046246
0.0375888
0.0065237
0.0046246
0.00508902
0.344428
0.186417
0.0655079
0.0331225
0.344428
0.344428
0.343942
0.339598
0.344428
0.343942
0.339597
0.328145
0.13812
0.269249
0.0519402
0.0210923
2.98415e-05
3.98624e-05
4.86418e-05
5.06527e-05
1.89817e-05
3.42689e-05
4.77346e-05
3.49251e-05
3.52836e-05
3.95737e-05
3.49826e-05
3.28047e-05
0.000489034
0.000140645
5.90415e-05
2.56114e-05
0.00148999
0.00162315
0.0010861
0.000170618
0.000715024
0.00169126
0.00169892
0.00171692
1.21453e-05
8.28349e-05
0.00171706
0.00171692
0.000290907
0.000393468
0.0014143
0.00171715
0.00173324
0.00173331
0.00171758
0.00171096
0.00171671
0.000972055
0.00118083
0.00120844
4.83323e-09
1.31746e-09
3.53608e-10
9.80649e-11
1.21253e-10
4.39081e-11
2.44561e-11
2.31709e-11
2.5276e-11
1.64378e-11
1.88921e-11
2.1603e-11
1.83659e-11
1.42268e-11
1.79772e-11
3.65379e-11
1.49598e-11
1.37045e-11
1.13928e-11
9.57328e-12
1.61604e-12
1.72501e-12
1.72204e-12
1.68452e-12
2.59993e-13
2.7868e-13
2.81798e-13
2.76727e-13
2.78245e-14
2.7039e-14
2.60892e-14
2.60027e-14
1.72716e-15
2.00311e-15
2.70214e-15
3.75391e-15
3.09188e-16
5.57905e-16
1.11043e-15
1.8543e-15
1.58872e-16
3.06781e-16
6.29658e-16
1.03133e-15
7.21772e-17
1.36173e-16
2.69781e-16
4.21608e-16
2.19812e-17
4.03855e-17
7.76804e-17
1.18265e-16
4.42079e-18
8.09429e-18
1.54386e-17
2.33863e-17
6.71992e-19
1.25161e-18
2.38169e-18
3.62713e-18
9.97405e-20
1.87453e-19
3.50762e-19
5.48638e-19
1.71114e-20
3.09304e-20
5.68453e-20
9.71579e-20
2.91745e-21
4.80203e-21
9.93659e-21
2.17659e-20
3.6371e-22
5.70181e-22
1.66568e-21
4.67882e-21
2.69742e-23
4.67731e-23
1.87375e-22
8.29738e-22
1.15221e-24
2.57906e-24
1.58746e-23
2.47213e-22
3.20353e-26
9.88905e-26
1.04069e-24
4.98531e-23
5.17388e-28
1.97641e-27
2.61654e-26
1.59746e-24
0.939808
0.937898
0.928706
0.595312
0.730748
0.98857
0.871091
0.205949
0.180365
0.392021
0.131647
0.0480311
0.0487671
0.0514271
0.0580417
0.183051
0.30595
0.503458
0.739717
0.785959
0.81286
0.630636
0.606042
0.89064
0.978611
0.623146
0.00709441
0.0154368
0.113752
0.164144
0.0499282
0.0514235
0.0722155
0.083552
0.129893
0.512965
0.770162
0.859751
0.0741877
0.310519
0.658948
0.902132
0.911499
0.914139
0.359429
0.00487956
0.00405943
0.00819484
0.119945
0.282521
0.340595
0.417196
0.399159
0.37233
0.436628
0.636164
0.860517
0.00508902
0.0194683
0.398882
0.815526
0.90247
0.856729
0.145115
0.00405942
0.00314217
0.00282957
0.0108086
0.248471
0.454975
0.524141
0.573315
0.610756
0.643124
0.778885
0.859419
0.00558287
0.00646932
0.0196897
0.377561
0.900978
0.90118
0.0988948
0.00314217
0.00291143
0.00258336
0.00214712
0.001184
0.000793245
0.0125533
0.0172355
0.0145743
0.0776409
0.344378
0.858385
0.00601486
0.00582581
0.00561532
0.079168
0.745606
0.901724
0.187847
0.00330845
0.00277562
0.00275302
0.00174853
0.00111185
0.000679976
0.000643908
0.000585128
0.000591393
0.00101146
0.0328114
0.80645
0.147081
0.00561532
0.00535138
0.00561532
0.319431
0.901724
0.700056
0.0670185
0.00314305
0.00277864
0.00317062
0.00431228
0.00366601
0.000585128
0.000518312
0.000451495
0.00048339
0.022124
0.192292
0.316611
0.155039
0.00542184
0.00535138
0.00561694
0.247652
0.71796
0.281532
0.00450542
0.00308868
0.00313017
0.00336674
0.0130324
0.00552606
0.00061899
0.00039976
0.000337848
0.0012307
0.00212686
0.112906
0.227675
0.247303
0.199132
0.0782637
0.161144
0.720616
0.288282
0.00520293
0.00353169
0.00324569
0.00347515
0.00726821
0.0169534
0.0103671
0.000362341
0.000315285
0.00153022
0.0362582
7.05475e-05
0.000243335
0.275415
0.62828
0.679534
0.684805
0.720721
0.353585
0.0146442
0.00384717
0.00353169
0.00357583
0.119502
0.129066
0.020379
0.000304817
0.00016125
0.00159451
0.0706825
3.27723e-05
3.0837e-05
0.000177824
0.00135474
0.36422
0.720721
0.721123
0.687272
0.0123331
0.00404584
0.00384716
0.16613
0.262677
0.240102
0.0266627
0.000141322
9.86365e-06
0.000100244
0.0708269
2.34737e-05
8.03768e-06
3.2318e-05
0.000178676
0.00212843
0.376881
0.72097
0.721089
0.242256
0.00511617
0.169916
0.300491
0.254408
0.0326189
7.42107e-06
4.02592e-07
3.79679e-08
1.41754e-08
0.0700045
8.81868e-06
3.23458e-06
3.77064e-06
2.11378e-05
0.000187737
0.0353958
0.514454
0.716656
0.714939
0.463941
0.364885
0.0396408
7.82186e-05
4.7504e-06
1.12322e-06
3.73062e-08
1.41754e-08
1.31704e-08
0.0682303
5.00643e-05
2.74468e-06
1.54479e-06
4.7401e-07
-2.80301e-06
1.45996e-05
0.0365563
0.328525
0.451055
0.309207
0.0577544
1.43234e-05
3.27273e-07
4.17519e-08
1.20653e-07
1.43577e-08
1.32391e-08
1.32373e-08
0.0698323
0.000994424
1.79084e-06
1.48934e-06
4.24964e-07
3.93155e-07
1.83057e-07
3.17692e-06
0.00167985
0.018708
0.00689349
4.33669e-06
1.11432e-07
2.74909e-08
2.92609e-08
2.31265e-08
1.53448e-08
1.32332e-08
1.35892e-08
0.0699482
0.00133999
2.7459e-06
6.30257e-06
4.19104e-07
3.87257e-07
1.19201e-08
1.01602e-06
6.16838e-05
5.03085e-06
1.16546e-06
8.77305e-07
-6.06954e-10
2.08393e-08
2.86208e-08
1.50515e-07
1.79891e-07
2.40831e-08
1.33078e-08
0.069919
0.000628114
3.03549e-06
2.01512e-06
8.00956e-07
7.85758e-07
9.13303e-09
1.27727e-09
1.03207e-09
9.85022e-10
9.84375e-10
9.84375e-10
8.3338e-10
2.85481e-08
2.50173e-07
2.5283e-07
2.5283e-07
2.49553e-08
1.33978e-08
0.0698137
0.000530105
6.15385e-07
1.36006e-08
8.72432e-09
4.03237e-07
7.74912e-08
1.04063e-09
9.85119e-10
9.84376e-10
9.84331e-10
9.84376e-10
9.84351e-10
1.95351e-07
2.51377e-07
2.5283e-07
1.80077e-07
1.9178e-08
1.40157e-08
0.0695675
7.68864e-05
1.46133e-09
1.05468e-10
1.86949e-10
2.10306e-10
3.50299e-08
8.03718e-09
3.4358e-09
9.95678e-10
9.84376e-10
9.84332e-10
9.84672e-10
6.37149e-08
2.49925e-07
1.4599e-07
4.90811e-08
2.80297e-06
1.9178e-08
0.069079
-1.86304e-10
1.36373e-11
2.33034e-11
1.78604e-10
1.96596e-10
2.13826e-10
4.26291e-09
2.98957e-09
1.38814e-09
1.12792e-09
9.85297e-10
9.93966e-10
1.18751e-09
5.7325e-08
3.93781e-09
4.93705e-09
2.80266e-05
6.37183e-08
0.0676239
2.20262e-11
2.15713e-11
2.28298e-11
1.81479e-10
5.21542e-10
5.20074e-10
5.2404e-10
6.67254e-10
1.17663e-09
1.14442e-09
1.00772e-09
1.18751e-09
1.51517e-09
2.79665e-09
3.94741e-09
1.68005e-07
3.12972e-05
2.87769e-07
0.0275575
2.16449e-11
2.16162e-11
2.79339e-11
1.29841e-10
4.31788e-10
6.6155e-10
6.73782e-10
7.59779e-10
9.023e-10
9.27138e-10
1.38161e-09
7.54668e-08
1.16171e-07
2.34489e-08
3.93598e-09
1.32345e-05
3.13308e-05
7.49861e-07
9.4799e-07
4.47518e-11
2.78074e-11
1.1237e-11
3.43617e-11
2.54843e-10
5.69261e-10
6.33915e-10
5.64292e-10
4.89753e-10
9.26463e-10
1.68122e-07
1.41286e-06
1.6975e-06
4.76154e-07
4.81104e-09
3.5636e-05
2.17849e-05
9.4799e-07
1.4467e-06
7.92261e-12
4.18753e-12
7.40802e-12
5.09566e-11
3.4084e-10
5.68067e-10
3.26291e-10
2.91849e-10
3.70471e-10
2.28162e-07
1.72864e-06
1.89562e-06
1.89411e-06
9.76303e-07
1.33987e-08
3.82036e-05
1.75915e-06
1.4467e-06
3.93144e-06
1.48576e-12
1.71285e-12
6.85648e-12
5.67786e-11
3.10474e-10
5.48609e-10
6.7013e-11
5.96653e-11
1.14479e-07
1.75741e-06
1.87597e-06
1.89068e-06
1.89435e-06
7.59757e-07
1.54416e-07
3.83487e-05
4.8772e-06
0.000117463
7.11719e-05
2.73316e-13
7.95573e-13
7.71151e-12
5.88563e-11
2.7549e-10
2.93629e-10
2.18069e-11
2.59593e-11
1.4682e-06
1.8391e-06
1.86384e-06
1.45153e-06
6.91505e-07
4.56083e-08
2.49282e-06
3.82978e-05
1.51391e-05
0.000357749
0.000356656
3.90052e-14
6.95305e-13
8.00488e-12
4.85759e-11
1.7238e-10
1.41914e-10
1.96322e-11
4.487e-07
1.74815e-06
1.74216e-06
3.40379e-07
3.60236e-08
3.59897e-08
3.60236e-08
5.3838e-06
1.90292e-05
1.16777e-05
0.000359966
0.000357749
1.8792e-14
7.01468e-13
5.75848e-12
3.8526e-11
1.15422e-10
8.87737e-11
1.87211e-11
7.1917e-07
1.7353e-06
2.8577e-07
3.62232e-08
3.60444e-08
3.58661e-08
2.54867e-07
2.27983e-06
3.0357e-08
1.4981e-06
0.000357749
0.000137569
1.49263e-14
4.50772e-13
4.43179e-12
3.21972e-11
8.25233e-11
6.44041e-11
1.83036e-11
5.04822e-08
1.30273e-06
2.00253e-07
3.93935e-08
3.58661e-08
3.58661e-08
4.94724e-08
3.68327e-08
2.89669e-08
2.91577e-08
0.000212822
7.28002e-07
1.01313e-14
3.52229e-13
4.03867e-12
2.75263e-11
5.32046e-11
4.59499e-11
1.82337e-11
1.24913e-11
1.25272e-11
1.22138e-06
2.65479e-06
4.44851e-08
3.58661e-08
1.80207e-07
6.89642e-07
4.1397e-07
2.61063e-08
9.5132e-09
4.68429e-07
7.10851e-15
2.91821e-13
3.38139e-12
1.52283e-11
2.5005e-11
2.24576e-11
1.45902e-11
1.24913e-11
1.24913e-11
1.57103e-06
6.72774e-06
6.78936e-06
2.32525e-07
1.77984e-06
4.51843e-06
1.10332e-06
9.5132e-09
8.79478e-09
8.79741e-09
4.27201e-15
1.63398e-13
1.35566e-12
4.48492e-12
8.41375e-12
9.65587e-12
1.33647e-11
1.24913e-11
1.24953e-11
6.95121e-07
3.35264e-06
1.27904e-05
1.27904e-05
1.27904e-05
1.08011e-05
5.18979e-07
9.40783e-09
8.79782e-09
8.79442e-09
1.42487e-15
4.19527e-14
2.42993e-13
7.5756e-13
2.73287e-12
5.00287e-12
1.79306e-11
1.24953e-11
1.2542e-09
2.24072e-08
6.47546e-10
4.61319e-06
1.19258e-05
9.81392e-06
1.28097e-06
1.74019e-08
1.06665e-08
8.87121e-09
8.79782e-09
2.08421e-16
4.28554e-15
2.17094e-14
1.75731e-13
1.2983e-12
2.74263e-12
1.99558e-11
3.25093e-11
5.82126e-09
2.6156e-12
6.36555e-10
2.75217e-10
2.73908e-10
2.74193e-10
2.73908e-10
5.70855e-08
1.52064e-07
3.1823e-08
9.27417e-09
2.5291e-17
4.19392e-16
4.33259e-15
8.78289e-14
5.51166e-13
1.14116e-12
1.81409e-11
3.29138e-11
1.93689e-11
2.28377e-12
3.15668e-09
1.63242e-09
2.96001e-10
2.73911e-10
2.7928e-10
7.74921e-07
9.56505e-07
4.81014e-07
1.27275e-08
8.63289e-18
1.1901e-16
1.73676e-15
3.24938e-14
1.06275e-13
4.35086e-13
3.46728e-12
1.70922e-11
9.22112e-12
1.69189e-12
1.9908e-13
6.83174e-10
5.75705e-10
1.47439e-10
3.59829e-07
9.56505e-07
9.56505e-07
8.32729e-07
1.89949e-08
3.85255e-18
3.67462e-17
4.59171e-16
3.66719e-15
1.0834e-14
2.80117e-13
3.34338e-13
7.97824e-13
5.87086e-13
1.50985e-13
0
-2.80578e-14
-1.74346e-27
5.11337e-12
9.0633e-07
9.52645e-07
9.55824e-07
2.9475e-07
2.32075e-09
1.34428e-18
7.77491e-18
5.82346e-17
1.25197e-16
9.80625e-16
1.16763e-13
8.90172e-14
2.07502e-14
-1.08062e-16
-2.00538e-14
-2.67593e-14
-2.63138e-14
-9.14696e-17
1.43605e-07
9.04018e-07
3.41413e-07
1.8479e-07
6.44661e-14
1.15369e-13
2.67645e-19
9.4996e-19
3.38641e-18
2.34215e-18
6.48657e-17
4.61179e-15
4.05321e-15
1.06251e-15
-6.28063e-15
-1.33739e-14
-1.35129e-14
-1.13104e-14
-3.21029e-16
3.09577e-06
8.50751e-07
1.34366e-11
6.44661e-14
1.1773e-14
1.10776e-13
2.32199e-20
5.78166e-20
9.2608e-20
-2.23051e-19
7.47863e-19
1.98704e-17
1.36904e-17
2.08437e-18
-2.51553e-15
-4.13149e-15
-3.43791e-15
-2.44011e-15
8.33519e-08
3.75572e-06
4.54242e-07
5.34588e-12
1.09544e-14
8.18599e-16
3.10505e-13
7.64711e-22
1.36346e-21
1.8252e-21
-2.99767e-19
-1.04299e-19
-1.03254e-20
1.02526e-22
-7.02479e-20
-3.19282e-16
-3.60383e-16
-2.04542e-16
-9.58475e-17
1.22981e-07
3.0546e-06
1.21231e-07
-8.66421e-17
-3.0126e-20
4.64044e-17
7.88248e-14
5.14617e-24
5.22679e-24
4.1601e-24
-1.06225e-19
-1.67776e-20
-1.32764e-21
-2.47336e-22
-1.02169e-22
-3.0431e-23
-6.50517e-24
-1.07332e-24
-1.68149e-25
1.15699e-08
-3.51378e-18
-7.85283e-18
-4.32391e-20
-7.983e-21
-2.00892e-23
-5.54049e-27
)
;

boundaryField
{
    leftWall
    {
        type            zeroGradient;
    }
    rightWall
    {
        type            zeroGradient;
    }
    lowerWall
    {
        type            zeroGradient;
    }
    atmosphere
    {
        type            inletOutlet;
        inletValue      uniform 0;
        value           nonuniform List<scalar> 
46
(
-3.66674e-27
-4.16547e-28
-3.48049e-29
-3.02747e-30
-2.6826e-31
-1.9508e-32
-5.77413e-34
2.71134e-36
6.11032e-35
2.52877e-34
6.63888e-34
9.14435e-34
4.47742e-34
1.73456e-34
7.32028e-35
5.617e-35
5.617e-35
5.617e-35
1.11283e-33
3.80643e-32
1.56086e-30
3.8489e-29
2.35797e-28
5.17388e-28
0
0
0
0
0
0
0
0
0
0
0
0
0
0
0
0
0
0
0
0
0
0
)
;
    }
    defaultFaces
    {
        type            empty;
    }
}


// ************************************************************************* //
