/*--------------------------------*- C++ -*----------------------------------*\
| =========                 |                                                 |
| \\      /  F ield         | OpenFOAM: The Open Source CFD Toolbox           |
|  \\    /   O peration     | Version:  2012                                  |
|   \\  /    A nd           | Website:  www.openfoam.com                      |
|    \\/     M anipulation  |                                                 |
\*---------------------------------------------------------------------------*/
FoamFile
{
    version     2.0;
    format      ascii;
    class       volScalarField;
    location    "0.8";
    object      p;
}
// * * * * * * * * * * * * * * * * * * * * * * * * * * * * * * * * * * * * * //

dimensions      [1 -1 -2 0 0 0 0];


internalField   nonuniform List<scalar> 
2268
(
647.905
649.112
652.739
659.503
672.56
694.938
725.2
758.471
791.367
821.852
847.084
864.539
873.201
873.918
869.12
860.157
847.886
834.404
822.132
817.454
825.455
839.014
843.726
588.025
588.664
591.849
597.999
610.262
633.237
665.059
699.364
732.998
764.172
789.952
807.64
816.157
816.506
811.247
802.872
792.645
777.965
761.366
755.472
763.206
775.303
781.658
524.418
524.706
528.116
534.182
546.128
570.064
603.758
639.972
675.121
707.658
734.516
752.586
760.65
760.003
753.478
744.972
735.206
720.71
704.175
698.633
704.787
713.19
718.969
457.712
457.956
461.949
467.967
479.421
504.445
541.278
580.521
617.936
652.515
681.026
699.702
706.98
704.703
696.58
686.59
675.918
662.854
649.493
642.948
646.95
651.728
656.275
389.034
389.222
393.768
399.871
411.394
438.356
478.911
521.54
561.583
598.845
629.626
649.077
655.042
650.289
639.776
627.829
616.14
604.159
592.733
586.204
587.679
589.93
593.639
319.245
319.073
324.082
330.84
343.7
373.372
417.401
462.988
505.986
546.725
580.567
601.054
605.043
596.732
582.878
568.408
555.389
543.588
533.566
527.109
527.072
528.047
531.23
249.151
248.109
253.657
261.959
277.533
310.059
355.824
403.466
450.227
496.068
534.244
556.11
557.096
543.777
525.561
508.07
493.619
481.765
472.691
466.576
465.867
466.046
469.691
178.217
177.835
183.118
193.665
212.713
247.483
294.374
342.42
393.611
446.556
490.9
514.504
510.371
490.077
466.563
445.804
430.271
418.613
410.367
405.129
403.946
403.656
409.443
1011.88
937.142
914.169
969.696
1080.14
1189.35
1232.14
1218.48
1175.26
1115.72
1057.67
905.04
683.623
596.806
585.228
624.391
710.278
800.118
877.451
951.561
851.909
825.902
894.157
1011.13
1129.15
1198.49
1184.79
1101.78
1036.67
966.617
799.2
599.886
529.596
535.097
569.66
659.283
757.542
827.56
871.115
753.788
740.413
820.967
941.257
1071.67
1148.76
1109.6
1005.43
963.827
855.174
643.231
484.08
441.701
451.996
501.672
594.861
716.247
797.306
780.31
663.377
667.441
758.201
880.409
1013.92
1084.26
986.439
915.531
868.967
709.971
461.208
356.471
355.084
380.006
420.692
515.333
701.912
814.89
694.782
585.903
611.153
702.794
823.527
947.071
996.306
859.549
821.431
752.508
534.622
277.241
240.355
266.019
302.284
334.531
436.616
713.419
819.222
622.776
527.072
569.338
643.065
752.604
862.948
878.802
725.241
690.812
624.075
352.252
209.324
217.543
231.671
236.638
245.142
369.81
702.761
815.026
560.732
489.867
529.911
579.469
660.056
756.908
731.864
559.539
513.344
477.322
231.74
195.409
212.315
225.214
215.004
179.026
340.559
661.898
801.984
500.059
458.769
481.35
517.396
565.221
634.817
562.031
390.546
322.796
321.774
190.205
186.676
204.964
219.408
212.836
189.282
335.376
598.551
764.43
81.7632
81.2495
87.8638
103.232
125.507
152.738
189.204
238.612
301.959
371.467
429.813
458.078
442.221
405.753
370.997
344.709
328.697
318.135
311.511
307.566
305.629
304.936
309.188
20.3075
15.5593
16.2891
21.5249
31.3046
46.0824
70.0405
108.061
174.138
272.471
379.179
442.774
387.27
302.813
247.484
210.092
193.332
184.483
185.158
190.734
187.6
182.196
178.75
9.54195
5.7719
3.39992
2.343
2.40041
4.53665
10.8116
31.7669
101.203
225.495
359.028
362.349
287.534
216.761
168.175
129.669
121.643
118.932
128.18
137.335
134.493
128.015
120.201
5.67985
3.73337
2.33028
1.02433
0.0432541
-0.246268
-0.100334
1.31277
20.4922
60.0458
108.915
169.958
188.745
173.722
139.153
118.946
115.149
116.084
117.556
121.011
123.224
119.647
113.434
2.62186
1.61713
0.673444
-0.271812
-0.943991
-1.50777
-2.02807
-1.7395
-0.45177
1.27112
7.37144
29.1006
72.0005
110.032
108.599
110.587
112.701
111.365
109.293
105.884
95.9864
95.8119
103.236
0.723941
0.0471903
-0.643208
-1.36956
-1.90917
-2.39105
-2.85987
-2.92367
-2.54283
-2.11961
-1.37402
1.26331
12.766
44.085
59.1309
76.7101
104.11
104.861
100.845
91.5509
69.7489
64.6473
81.0703
-0.353509
-1.00923
-1.51517
-2.0401
-2.36177
-2.58177
-2.73363
-2.69649
-2.57339
-2.52856
-2.49394
-2.19419
-1.31654
6.26871
20.5673
44.8349
76.9863
93.441
87.6824
72.7523
56.9693
50.9853
61.3623
-0.990517
-1.63007
-1.99931
-2.37674
-2.54561
-2.61302
-2.63819
-2.5992
-2.54411
-2.54538
-2.59278
-2.56647
-2.4236
-2.34235
0.101503
10.5029
32.1758
57.0815
62.0254
50.3675
36.6034
20.5046
22.491
-1.33417
-1.90821
-2.23141
-2.51156
-2.62025
-2.63433
-2.61902
-2.59223
-2.58078
-2.61417
-2.65243
-2.63667
-2.57994
-2.47519
-2.36365
-2.17479
2.09364
11.8459
15.0429
15.0145
10.045
0.049198
-0.640495
-1.51527
-1.99276
-2.32394
-2.56258
-2.64579
-2.6432
-2.62276
-2.61117
-2.61985
-2.65108
-2.68109
-2.67776
-2.63515
-2.56421
-2.46805
-2.30553
-2.09848
-2.25908
-2.07118
-0.809055
-3.44517
-2.52981
-2.35756
-1.6549
-1.99358
-2.34212
-2.5757
-2.64687
-2.63716
-2.6213
-2.62477
-2.64504
-2.67437
-2.69986
-2.70772
-2.68961
-2.6514
-2.60163
-2.51604
-2.4022
-2.38608
-2.84953
-3.62616
-3.70091
-3.39226
-3.47923
-1.83073
-1.98888
-2.27614
-2.50701
-2.59518
-2.6053
-2.61093
-2.63491
-2.66852
-2.70261
-2.72995
-2.74392
-2.73929
-2.71585
-2.67752
-2.62778
-2.52226
-2.50931
-2.82553
-3.30332
-3.71689
-4.01732
-4.24168
-2.03243
-2.03047
-2.16817
-2.36787
-2.49437
-2.55403
-2.59924
-2.64969
-2.69986
-2.74373
-2.77824
-2.80002
-2.80622
-2.79433
-2.76617
-2.73147
-2.6845
-2.67589
-2.99865
-3.61275
-4.26329
-4.88387
-5.15353
-2.18921
-2.10282
-2.118
-2.26929
-2.41873
-2.52359
-2.60593
-2.67894
-2.74298
-2.79706
-2.8409
-2.87395
-2.89585
-2.90702
-2.91063
-2.93078
-2.99408
-3.08576
-3.32832
-3.95392
-4.72681
-5.49848
-5.96036
-2.28105
-2.18647
-2.17334
-2.28502
-2.42571
-2.54556
-2.64473
-2.72873
-2.80027
-2.86149
-2.91383
-2.95877
-2.99853
-3.03739
-3.08371
-3.15298
-3.29198
-3.47357
-3.73983
-4.23711
-4.99104
-5.76326
-6.09669
-2.36285
-2.3046
-2.30789
-2.39094
-2.50592
-2.61601
-2.71313
-2.79752
-2.87091
-2.93577
-2.99421
-3.04869
-3.10287
-3.16261
-3.23868
-3.34362
-3.50548
-3.7242
-4.00293
-4.45869
-5.07704
-5.58631
-5.82072
-2.47624
-2.45943
-2.47167
-2.53395
-2.62284
-2.71456
-2.80107
-2.88001
-2.95143
-3.01694
-3.07855
-3.13876
-3.20135
-3.27203
-3.36004
-3.47879
-3.64611
-3.87088
-4.14887
-4.52766
-4.99427
-5.27614
-5.41771
-2.61756
-2.61844
-2.63374
-2.68277
-2.75128
-2.82574
-2.90016
-2.97134
-3.03834
-3.10195
-3.16368
-3.22561
-3.2909
-3.36431
-3.45276
-3.56756
-3.72356
-3.9381
-4.18904
-4.46009
-4.7456
-5.0415
-5.17732
-2.76503
-2.76952
-2.78717
-2.8274
-2.88138
-2.94214
-3.00544
-3.0683
-3.12947
-3.18913
-3.24827
-3.30843
-3.37188
-3.44206
-3.52383
-3.62453
-3.7535
-3.92857
-4.14673
-4.38612
-4.58918
-4.71809
-4.7222
-2.91036
-2.91504
-2.93327
-2.96683
-3.01044
-3.0605
-3.11414
-3.16892
-3.2236
-3.27799
-3.33257
-3.38834
-3.44673
-3.50982
-3.58054
-3.66284
-3.76086
-3.88247
-4.03569
-4.20517
-4.33966
-4.3833
-4.33751
-3.05257
-3.05679
-3.07379
-3.10195
-3.13777
-3.17933
-3.22468
-3.27197
-3.32004
-3.36847
-3.41736
-3.46718
-3.51868
-3.57286
-3.63106
-3.69481
-3.76524
-3.84238
-3.92699
-4.01506
-4.07979
-4.09407
-4.05145
-3.1913
-3.19492
-3.20998
-3.23364
-3.26331
-3.29793
-3.3362
-3.37669
-3.41837
-3.46069
-3.50347
-3.54677
-3.59082
-3.63589
-3.6823
-3.7302
-3.77929
-3.82769
-3.8719
-3.90856
-3.92744
-3.91776
-3.87321
-3.32669
-3.32969
-3.34272
-3.36256
-3.38722
-3.41609
-3.44829
-3.4827
-3.51841
-3.55483
-3.59158
-3.62847
-3.66536
-3.70212
-3.73852
-3.77413
-3.80814
-3.83897
-3.86369
-3.87932
-3.8816
-3.86416
-3.82385
-3.45915
-3.46154
-3.47266
-3.48926
-3.50977
-3.53382
-3.56079
-3.58982
-3.6201
-3.65104
-3.68217
-3.71313
-3.74358
-3.77318
-3.80146
-3.82782
-3.85135
-3.87082
-3.88428
-3.88943
-3.88346
-3.86293
-3.828
-3.5891
-3.59095
-3.60035
-3.6142
-3.63122
-3.6512
-3.67371
-3.69802
-3.72346
-3.74945
-3.7755
-3.80117
-3.82604
-3.84964
-3.87146
-3.89085
-3.907
-3.91887
-3.92516
-3.92434
-3.91494
-3.89588
-3.86756
-3.71692
-3.71833
-3.72623
-3.73775
-3.75184
-3.76838
-3.78706
-3.8073
-3.82849
-3.85012
-3.87169
-3.89276
-3.91287
-3.93155
-3.94828
-3.96247
-3.97344
-3.98041
-3.98251
-3.97891
-3.96893
-3.9522
-3.9292
-3.84302
-3.84408
-3.85068
-3.86024
-3.87185
-3.8855
-3.90093
-3.91765
-3.93517
-3.95301
-3.97071
-3.98785
-4.00399
-4.01868
-4.03145
-4.0418
-4.0492
-4.05308
-4.05293
-4.04825
-4.03877
-4.02439
-4.00581
-3.96775
-3.96852
-3.97402
-3.98193
-3.99147
-4.00267
-4.01534
-4.02908
-4.04346
-4.05805
-4.07245
-4.08628
-4.09913
-4.11061
-4.12032
-4.12784
-4.13277
-4.13474
-4.1334
-4.12851
-4.11995
-4.10774
-4.09294
-4.0914
-4.09196
-4.09653
-4.10304
-4.11084
-4.11999
-4.13034
-4.14156
-4.15326
-4.1651
-4.17673
-4.18779
-4.19795
-4.20686
-4.21419
-4.21961
-4.22284
-4.2236
-4.22171
-4.21707
-4.20971
-4.19987
-4.18774
-4.21422
-4.21464
-4.21841
-4.22375
-4.2301
-4.23752
-4.24593
-4.25502
-4.26448
-4.27401
-4.28331
-4.29209
-4.30005
-4.3069
-4.31239
-4.31626
-4.31829
-4.31831
-4.31623
-4.31202
-4.30577
-4.2977
-4.288
-4.33642
-4.33674
-4.33984
-4.3442
-4.34933
-4.35532
-4.3621
-4.36941
-4.37699
-4.3846
-4.39197
-4.39886
-4.40503
-4.41025
-4.4143
-4.417
-4.41819
-4.41777
-4.41568
-4.41196
-4.4067
-4.4001
-4.39237
-4.45814
-4.45842
-4.46094
-4.46449
-4.4686
-4.4734
-4.47882
-4.48464
-4.49067
-4.49667
-4.50245
-4.5078
-4.51253
-4.51644
-4.51937
-4.52119
-4.52178
-4.52109
-4.51909
-4.51584
-4.51143
-4.50603
-4.49984
-4.57954
-4.57979
-4.58183
-4.5847
-4.58796
-4.59176
-4.59606
-4.60065
-4.60538
-4.61007
-4.61454
-4.61863
-4.62218
-4.62505
-4.62711
-4.62826
-4.62842
-4.62756
-4.62569
-4.62285
-4.61915
-4.61472
-4.60974
-4.70071
-4.70093
-4.70257
-4.70488
-4.70744
-4.71042
-4.71378
-4.71736
-4.72101
-4.72461
-4.72801
-4.73108
-4.73369
-4.73573
-4.7371
-4.73774
-4.73758
-4.73662
-4.73488
-4.7324
-4.72927
-4.72562
-4.72158
-4.82175
-4.82191
-4.82323
-4.82509
-4.82706
-4.82936
-4.83195
-4.83468
-4.83746
-4.84017
-4.84269
-4.84493
-4.84678
-4.84816
-4.849
-4.84924
-4.84886
-4.84785
-4.84623
-4.84406
-4.84141
-4.83839
-4.8351
-4.94271
-4.94279
-4.94386
-4.94534
-4.94683
-4.94858
-4.95053
-4.95257
-4.95463
-4.95661
-4.95842
-4.96
-4.96125
-4.96211
-4.96254
-4.96249
-4.96196
-4.96093
-4.95945
-4.95757
-4.95535
-4.95289
-4.95034
-5.06364
-5.0636
-5.06449
-5.06566
-5.06676
-5.06805
-5.06948
-5.07096
-5.07244
-5.07383
-5.07509
-5.07613
-5.07692
-5.0774
-5.07753
-5.07728
-5.07666
-5.07568
-5.07436
-5.07275
-5.07092
-5.06896
-5.06697
-5.18457
-5.1844
-5.18516
-5.18606
-5.18684
-5.18777
-5.18878
-5.18981
-5.19082
-5.19176
-5.19257
-5.19322
-5.19366
-5.19386
-5.19379
-5.19344
-5.19282
-5.19192
-5.19079
-5.18946
-5.18801
-5.18649
-5.18501
-5.30553
-5.30521
-5.30587
-5.30654
-5.30706
-5.30771
-5.30838
-5.30906
-5.30971
-5.31029
-5.31078
-5.31114
-5.31134
-5.31137
-5.31119
-5.31082
-5.31024
-5.30948
-5.30857
-5.30754
-5.30643
-5.30532
-5.30426
-5.42655
-5.4261
-5.42666
-5.42711
-5.42744
-5.42785
-5.42825
-5.42866
-5.42904
-5.42937
-5.42962
-5.42979
-5.42984
-5.42978
-5.42958
-5.42924
-5.42878
-5.4282
-5.42752
-5.42678
-5.426
-5.42526
-5.42462
-5.5475
-5.54701
-5.54751
-5.54776
-5.54792
-5.54815
-5.54834
-5.54855
-5.54873
-5.54887
-5.54898
-5.54903
-5.54901
-5.54893
-5.54877
-5.54853
-5.54822
-5.54785
-5.54743
-5.54697
-5.5465
-5.54606
-5.54571
-5.6689
-5.6684
-5.66857
-5.66862
-5.66867
-5.66875
-5.66878
-5.66883
-5.66885
-5.66887
-5.66886
-5.66884
-5.6688
-5.66873
-5.66865
-5.66854
-5.66841
-5.66826
-5.66811
-5.66794
-5.66779
-5.66765
-5.66755
315.572
322.341
334.23
352.284
172.428
168.462
167.162
172.168
113.746
110.059
108.104
108.6
108.051
105.452
104.379
104.377
104.053
103.518
103.399
104.116
89.0272
95.8265
101.879
103.844
71.5981
79.7677
81.6548
75.8909
18.4324
25.2516
26.1977
22.946
3.43499
12.0807
2.85103
0.474156
-3.0044
-3.36373
-3.13205
-2.96423
-3.44092
-3.26162
-3.10172
-3.00034
-4.11558
-3.9538
-3.73771
-3.47226
-4.8946
-4.5868
-4.27185
-3.95713
-5.81501
-5.50262
-5.07343
-4.56994
-5.977
-5.79426
-5.51773
-5.06145
-5.70387
-5.55946
-5.36263
-5.06746
-5.33854
-5.23506
-5.07869
-4.82514
-5.09517
-4.968
-4.79246
-4.5348
-4.6022
-4.48292
-4.32887
-4.12158
-4.21647
-4.11398
-3.99511
-3.86045
-3.96202
-3.88236
-3.79486
-3.70359
-3.80182
-3.74712
-3.69257
-3.63812
-3.77457
-3.73736
-3.69949
-3.66135
-3.79064
-3.76373
-3.73667
-3.70963
-3.83958
-3.8199
-3.80014
-3.78036
-3.90759
-3.89268
-3.87784
-3.86311
-3.98906
-3.97768
-3.96641
-3.95526
-4.07991
-4.07113
-4.06243
-4.05384
-4.1775
-4.17065
-4.16387
-4.15718
-4.27996
-4.2746
-4.26929
-4.26406
-4.38604
-4.38184
-4.37768
-4.37357
-4.49486
-4.49157
-4.48829
-4.48505
-4.60579
-4.60319
-4.60061
-4.59805
-4.71845
-4.7164
-4.71436
-4.71234
-4.83264
-4.83105
-4.82947
-4.8279
-4.94838
-4.94715
-4.94595
-4.94478
-5.06553
-5.06463
-5.06378
-5.06296
-5.18399
-5.18339
-5.18283
-5.18232
-5.30354
-5.30322
-5.30292
-5.30266
-5.42431
-5.42407
-5.42391
-5.42384
-5.54555
-5.54548
-5.54549
-5.54558
-5.66753
-5.66755
-5.66766
-5.66789
391.145
401.684
406.828
426.028
446.173
458.957
288.574
181.431
101.237
127.328
154.484
168.906
187.773
209.441
223.838
250.943
345.746
474.584
656.347
202.48
303.566
358.042
343.113
386.159
360.258
87.6263
62.984
35.6204
24.5892
78.2301
118.179
146.294
191.662
237.883
302.804
404.557
435.313
498.907
115.578
165.874
247.863
289.468
416.86
387.119
36.525
22.9938
15.5124
9.05876
20.8092
45.925
78.816
138.775
200.53
282.391
366.504
387.21
362.541
105.208
109.332
125.414
198.024
398.507
379.372
27.6652
10.8397
6.55036
2.39261
2.17948
13.3256
18.3471
31.4926
67.7576
117.15
195.522
224.839
194.801
104.058
96.6762
92.5179
106.29
276.223
297.986
21.1316
5.76807
1.24082
-1.96606
-2.93111
-2.52664
-1.70959
-0.772341
1.5164
8.57015
30.2248
47.286
58.2105
104.257
95.2357
89.1489
91.6852
133.269
203.122
26.0108
4.00988
-3.02977
-5.24789
-4.92669
-3.4657
-1.87641
-1.62839
-1.56136
0.238425
4.65748
9.18277
61.4443
93.4767
94.6018
90.1769
90.6642
95.9274
139.2
83.5923
2.92694
-5.41663
-7.4633
-6.66402
-4.35673
-2.4483
-2.10059
-2.54514
-2.87223
-1.8039
7.69672
80.0055
39.8182
85.739
89.3929
89.086
85.3826
89.7988
133.607
-0.31351
-5.80731
-6.20956
-5.66762
-3.73667
-1.80576
-2.58626
-3.31486
-4.38673
-4.40213
1.22235
26.5074
0.95342
20.5373
75.7851
75.3485
73.0619
72.3167
68.9
-13.9721
-2.14017
-0.237016
-1.18543
-1.61752
-1.22809
-2.88793
-4.2098
-4.81555
-5.14845
-3.70402
4.21057
-3.19655
0.759415
16.2848
35.7686
37.6889
20.892
-36.2145
-9.26201
6.5608
6.46497
5.12451
2.53427
-4.42059
-7.88649
-4.6952
-4.31374
-4.17014
-4.80198
0.552991
-2.6778
-1.61684
-1.52415
-0.700567
11.1996
-2.91428
-40.7263
11.4821
14.7424
11.6125
10.7051
7.50851
-2.59045
-1.05364
-1.9747
-3.2411
-3.1717
-3.73638
-1.50756
-2.89364
-2.26623
-2.05565
-1.88837
-2.69368
-1.18914
-17.9438
3.40907
13.8036
18.2194
7.84784
9.03761
10.4384
-1.49905
-2.70531
-2.78222
-2.79589
-2.99398
-2.08335
-3.35117
-2.63303
-2.24001
-2.08115
-2.03907
-1.53102
-3.29174
6.73901
28.809
9.05824
8.92509
-0.184392
-2.48013
-2.75415
-2.74808
-2.74435
-2.68929
-2.76736
-2.18845
-3.7547
-2.93281
-2.41011
-2.11312
-2.01227
-1.98553
-0.156649
15.3985
21.2937
12.6814
-0.0765074
-2.07384
-2.34924
-2.61675
-2.68963
-2.69552
-2.63673
-2.69697
-2.23962
-4.08863
-3.15249
-2.57437
-2.22794
-2.09002
-2.04449
-2.05419
-1.90604
-1.40449
-2.21603
-2.63135
-2.51531
-2.54889
-2.6437
-2.68931
-2.70014
-2.65673
-2.71612
-2.34545
-4.28696
-3.30508
-2.70308
-2.36535
-2.21302
-2.14673
-2.13014
-2.14063
-2.28272
-2.44492
-2.64798
-2.58969
-2.62477
-2.68282
-2.71918
-2.74424
-2.71873
-2.77578
-2.46918
-4.25162
-3.38786
-2.80963
-2.51137
-2.37646
-2.31757
-2.3051
-2.33289
-2.42852
-2.54415
-2.64729
-2.67978
-2.71657
-2.75953
-2.78945
-2.81764
-2.80228
-2.85695
-2.5995
-4.02747
-3.38445
-2.90411
-2.65962
-2.5508
-2.49683
-2.48457
-2.50874
-2.57192
-2.6541
-2.73208
-2.78063
-2.81806
-2.8532
-2.87686
-2.90478
-2.89667
-2.94785
-2.72792
-3.77881
-3.34212
-2.99733
-2.80939
-2.72342
-2.67695
-2.66492
-2.68224
-2.72534
-2.78357
-2.84211
-2.88847
-2.92414
-2.95424
-2.97291
-2.99945
-2.99541
-3.04301
-2.77621
-3.62583
-3.32701
-3.09514
-2.95877
-2.88797
-2.84945
-2.83742
-2.84868
-2.87863
-2.92014
-2.96439
-3.00393
-3.03516
-3.06042
-3.07491
-3.09985
-3.0969
-3.14271
-2.81596
-3.54817
-3.3524
-3.20175
-3.10309
-3.04536
-3.01357
-3.00239
-3.00906
-3.02966
-3.05939
-3.09302
-3.12537
-3.15113
-3.17126
-3.1822
-3.20744
-3.20821
-3.25945
-2.92556
-3.54599
-3.42104
-3.31705
-3.24272
-3.19589
-3.16959
-3.15955
-3.16315
-3.17734
-3.1991
-3.22538
-3.25201
-3.27247
-3.28728
-3.29432
-3.32127
-3.33646
-3.43578
-3.67221
-3.59603
-3.50803
-3.43268
-3.37638
-3.33917
-3.31773
-3.30912
-3.31109
-3.32142
-3.33858
-3.36112
-3.38477
-3.40094
-3.40972
-3.40975
-3.42879
-3.43856
-3.47226
-3.5802
-3.66396
-3.60161
-3.54687
-3.50448
-3.47548
-3.45843
-3.45153
-3.45308
-3.46183
-3.47773
-3.50074
-3.525
-3.53833
-3.5404
-3.53132
-3.53696
-3.54025
-3.49289
-3.58216
-3.74694
-3.70132
-3.66069
-3.62854
-3.60606
-3.59273
-3.58756
-3.58948
-3.59841
-3.61606
-3.64361
-3.6719
-3.68374
-3.67931
-3.66238
-3.65673
-3.66881
-3.58827
-3.64713
-3.8384
-3.80457
-3.77418
-3.74971
-3.73229
-3.72194
-3.71816
-3.72071
-3.73084
-3.75213
-3.78692
-3.82112
-3.83205
-3.82257
-3.80235
-3.79827
-3.8336
-3.7698
-3.77799
-3.9366
-3.91107
-3.88796
-3.86912
-3.85548
-3.84729
-3.84431
-3.84713
-3.85825
-3.88311
-3.92531
-3.96498
-3.97459
-3.96128
-3.94133
-3.94153
-3.98821
-3.96625
-3.92918
-4.03952
-4.01999
-4.00222
-3.98756
-3.97673
-3.96994
-3.96702
-3.96911
-3.97925
-4.00431
-4.05032
-4.09203
-4.09908
-4.08135
-4.06657
-4.06773
-4.09189
-4.09297
-4.03728
-4.14607
-4.13096
-4.11718
-4.10566
-4.09688
-4.09089
-4.08746
-4.0876
-4.09376
-4.11262
-4.1544
-4.18906
-4.19583
-4.17934
-4.17081
-4.17793
-4.1723
-4.16894
-4.10852
-4.25536
-4.24359
-4.23282
-4.22369
-4.21646
-4.211
-4.20692
-4.20468
-4.20551
-4.21462
-4.23859
-4.25943
-4.26577
-4.26492
-4.2665
-4.27937
-4.2548
-4.23413
-4.18164
-4.36673
-4.35751
-4.34905
-4.34176
-4.33575
-4.33083
-4.32652
-4.32275
-4.31973
-4.31937
-4.32316
-4.32841
-4.33692
-4.35516
-4.36878
-4.37007
-4.34122
-4.30979
-4.26864
-4.47965
-4.47239
-4.46571
-4.45987
-4.45492
-4.45068
-4.44673
-4.44282
-4.43886
-4.43447
-4.42912
-4.42656
-4.4364
-4.45591
-4.46899
-4.46169
-4.43531
-4.40461
-4.37209
-4.59378
-4.58806
-4.58278
-4.57815
-4.57418
-4.57074
-4.56751
-4.56424
-4.56087
-4.55676
-4.55091
-4.54714
-4.55201
-4.56397
-4.56732
-4.55764
-4.53972
-4.51552
-4.49182
-4.70899
-4.70451
-4.70043
-4.69688
-4.69386
-4.69128
-4.68889
-4.6864
-4.68389
-4.68101
-4.677
-4.67376
-4.67279
-4.67535
-4.67252
-4.66541
-4.65614
-4.63861
-4.62274
-4.82532
-4.82193
-4.81893
-4.8164
-4.81431
-4.81261
-4.81105
-4.8093
-4.80761
-4.80568
-4.80308
-4.80028
-4.79673
-4.79571
-4.79026
-4.78481
-4.781
-4.76901
-4.75856
-4.94288
-4.94047
-4.93846
-4.93689
-4.93567
-4.93481
-4.93403
-4.933
-4.93209
-4.93089
-4.92944
-4.9272
-4.92355
-4.92261
-4.91633
-4.91147
-4.90966
-4.90262
-4.89567
-5.06166
-5.06012
-5.05901
-5.0583
-5.05787
-5.05775
-5.05767
-5.05732
-5.05717
-5.05664
-5.0563
-5.05464
-5.05277
-5.05305
-5.04659
-5.04328
-5.04069
-5.0371
-5.03313
-5.18153
-5.18077
-5.18043
-5.18047
-5.18075
-5.18128
-5.18182
-5.18217
-5.18276
-5.18293
-5.18366
-5.18267
-5.18336
-5.18519
-5.17757
-5.17733
-5.17378
-5.17176
-5.17008
-5.30232
-5.30222
-5.30256
-5.30326
-5.30419
-5.30533
-5.30649
-5.30759
-5.30889
-5.30977
-5.31132
-5.31101
-5.31318
-5.31566
-5.30794
-5.30949
-5.30706
-5.30619
-5.30566
-5.42384
-5.42431
-5.42525
-5.42655
-5.4281
-5.42987
-5.43172
-5.4336
-5.43557
-5.43717
-5.43923
-5.43948
-5.44186
-5.44289
-5.43868
-5.44013
-5.43985
-5.4402
-5.44015
-5.5459
-5.54689
-5.54839
-5.55029
-5.55251
-5.555
-5.55762
-5.56029
-5.56296
-5.56533
-5.56781
-5.5686
-5.57089
-5.57039
-5.57008
-5.572
-5.57326
-5.57468
-5.57483
-5.66849
-5.66998
-5.67207
-5.67464
-5.67762
-5.68088
-5.68431
-5.68784
-5.69133
-5.69452
-5.69764
-5.6991
-5.70194
-5.69846
-5.70144
-5.70603
-5.70833
-5.71113
-5.71091
)
;

boundaryField
{
    leftWall
    {
        type            calculated;
        value           nonuniform List<scalar> 
50
(
647.905
588.025
524.418
457.712
389.034
319.245
249.151
178.217
81.7632
20.3075
9.54195
5.67985
2.62186
0.723941
-0.353509
-0.990517
-1.33417
-1.51527
-1.6549
-1.83073
-2.03243
-2.18921
-2.28105
-2.36285
-2.47624
-2.61756
-2.76503
-2.91036
-3.05257
-3.1913
-3.32669
-3.45915
-3.5891
-3.71692
-3.84302
-3.96775
-4.0914
-4.21422
-4.33642
-4.45814
-4.57954
-4.70071
-4.82175
-4.94271
-5.06364
-5.18457
-5.30553
-5.42655
-5.5475
-5.6689
)
;
    }
    rightWall
    {
        type            calculated;
        value           nonuniform List<scalar> 
50
(
877.451
827.56
797.306
814.89
819.222
815.026
801.984
764.43
656.347
498.907
362.541
194.801
58.2105
61.4443
80.0055
26.5074
4.21057
0.552991
-1.50756
-2.08335
-2.18845
-2.23962
-2.34545
-2.46918
-2.5995
-2.72792
-2.77621
-2.81596
-2.92556
-3.67221
-3.5802
-3.58216
-3.64713
-3.77799
-3.92918
-4.03728
-4.10852
-4.18164
-4.26864
-4.37209
-4.49182
-4.62274
-4.75856
-4.89567
-5.03313
-5.17008
-5.30566
-5.44015
-5.57483
-5.71091
)
;
    }
    lowerWall
    {
        type            calculated;
        value           nonuniform List<scalar> 
62
(
677.334
678.541
682.168
688.932
701.989
724.367
754.629
787.9
820.796
851.282
876.513
893.968
902.63
903.348
898.55
889.388
876.093
862.476
851.468
846.791
854.758
868.29
873.091
843.726
781.658
718.969
656.275
593.639
531.23
469.691
409.443
378.065
384.768
396.596
414.618
1011.88
951.561
871.115
780.31
694.782
622.776
560.732
500.059
1040.88
966.554
943.553
998.212
1108.15
1217.37
1258.62
1240.12
1198.99
1140.17
1081.35
926.617
705.459
619.915
608.404
648.346
736.219
826.059
901.697
)
;
    }
    atmosphere
    {
        type            calculated;
        value           nonuniform List<scalar> 
46
(
-5.72904
-5.72904
-5.72904
-5.72904
-5.72904
-5.72904
-5.72904
-5.72904
-5.72904
-5.72904
-5.72904
-5.72904
-5.72904
-5.72904
-5.72904
-5.72904
-5.72904
-5.72904
-5.72904
-5.72904
-5.72904
-5.72904
-5.72904
-5.72904
-5.72904
-5.72913
-5.72937
-5.73013
-5.73187
-5.7343
-5.7372
-5.74059
-5.74425
-5.74812
-5.75215
-5.75615
-5.75979
-5.76353
-5.76509
-5.76917
-5.76213
-5.76714
-5.77474
-5.77705
-5.78137
-5.78013
)
;
    }
    defaultFaces
    {
        type            empty;
    }
}


// ************************************************************************* //
