/*--------------------------------*- C++ -*----------------------------------*\
| =========                 |                                                 |
| \\      /  F ield         | OpenFOAM: The Open Source CFD Toolbox           |
|  \\    /   O peration     | Version:  3.0.1                                 |
|   \\  /    A nd           | Web:      www.OpenFOAM.org                      |
|    \\/     M anipulation  |                                                 |
\*---------------------------------------------------------------------------*/
FoamFile
{
    version     2.0;
    format      ascii;
    class       volScalarField;
    location    "0.0001";
    object      maxKappa;
}
// * * * * * * * * * * * * * * * * * * * * * * * * * * * * * * * * * * * * * //

dimensions      [0 0 0 0 0 0 0];

internalField   nonuniform List<scalar> 
1000
(
3.83511e-14
4.74824e-14
4.74824e-14
3.83511e-14
6.20923e-14
7.06743e-14
3.53372e-14
2.92199e-14
1.22358e-13
1.22358e-13
7.06743e-14
7.42081e-14
1.16613e-13
7.42081e-14
2.24628e-13
2.24628e-13
1.16613e-13
2.15557e-13
7.42081e-14
1.76686e-13
6.00732e-14
7.85285e-14
7.85285e-14
3.10462e-14
4.9472e-14
7.77418e-14
5.30058e-14
9.18766e-14
1.00443e-13
1.58701e-12
4.1474e-11
1.05042e-09
2.65728e-08
6.68912e-07
1.67266e-05
0.000408399
0.00881581
0.11233
0.451504
0.73173
0.865387
0.927586
0.951864
0.960015
0.96223
0.964871
0.966317
0.966317
0.966169
0.96385
0.958661
0.948705
0.936826
0.927675
0.923271
0.92252
0.922367
0.919468
0.913181
0.892923
0.834217
0.685772
0.333004
0.0453201
0.002292
8.8817e-05
3.28592e-06
1.20536e-07
4.40401e-09
1.59238e-10
5.14547e-12
2.87283e-13
2.87283e-13
2.09322e-13
1.19856e-13
8.75733e-14
3.71966e-14
7.64597e-14
9.0925e-14
9.07772e-14
1.61185e-13
6.81938e-14
8.47256e-14
5.37284e-14
2.47977e-14
2.27313e-14
1.17476e-14
2.68642e-14
6.40608e-14
3.09972e-14
1.70875e-14
1.81554e-14
1.81554e-14
8.26591e-14
2.68642e-14
2.68642e-14
1.65318e-14
7.85262e-14
3.51301e-14
1.63252e-13
1.06012e-13
9.54104e-14
3.46986e-14
5.30058e-14
4.9472e-14
7.06743e-14
7.77418e-14
7.67023e-14
8.58335e-14
1.64362e-13
1.90821e-13
8.83429e-14
1.16613e-13
7.42081e-14
6.71406e-14
9.89441e-14
1.16613e-13
2.15557e-13
9.18766e-14
1.76686e-13
6.00732e-14
1.30748e-13
6.36069e-14
1.90821e-13
1.20146e-13
2.29692e-13
1.59017e-13
2.04956e-13
1.20146e-13
1.43725e-12
4.16037e-11
1.04938e-09
2.65459e-08
6.68283e-07
1.67115e-05
0.000408054
0.00880942
0.112285
0.45149
0.731786
0.865428
0.927591
0.951838
0.959973
0.962173
0.96477
0.96613
0.96613
0.965878
0.963557
0.958375
0.948455
0.936644
0.927549
0.923217
0.922517
0.922387
0.919481
0.913206
0.892955
0.834244
0.68578
0.332983
0.0453121
0.0022915
8.87973e-05
3.28522e-06
1.20514e-07
4.40497e-09
1.59738e-10
5.5043e-12
2.62443e-13
1.52919e-13
6.72819e-14
1.19856e-13
5.57949e-14
8.88586e-14
8.67921e-14
9.0925e-14
3.51301e-14
1.61185e-13
6.81938e-14
8.47256e-14
5.37284e-14
4.54625e-14
2.47977e-14
4.16507e-14
5.57949e-14
6.40608e-14
3.09972e-14
7.64597e-14
2.68642e-14
1.49515e-14
8.26591e-14
6.94179e-14
1.28122e-13
2.06648e-14
1.67385e-13
3.51301e-14
1.8185e-13
1.06012e-13
9.54104e-14
5.11348e-14
5.30058e-14
5.11348e-14
1.09545e-13
7.77418e-14
9.54104e-14
5.11348e-14
5.11348e-14
1.90821e-13
1.66085e-13
4.24046e-14
3.88709e-14
6.36069e-14
9.89441e-14
6.02661e-14
2.01422e-13
9.18766e-14
1.41349e-13
7.67023e-14
1.30748e-13
3.88709e-14
1.90821e-13
1.20146e-13
2.29692e-13
1.59017e-13
2.04956e-13
1.20146e-13
1.7678e-12
4.10814e-11
1.04831e-09
2.65089e-08
6.67409e-07
1.66912e-05
0.000407601
0.00880143
0.112234
0.451487
0.731863
0.865473
0.927578
0.951795
0.959942
0.962159
0.964779
0.966153
0.966153
0.965916
0.963607
0.958445
0.948528
0.936685
0.927569
0.923185
0.922485
0.922361
0.91947
0.913215
0.892983
0.834272
0.685788
0.332952
0.0453004
0.00229075
8.87673e-05
3.28412e-06
1.20479e-07
4.40471e-09
1.60272e-10
5.75741e-12
1.61263e-13
9.5058e-14
4.95955e-14
9.71245e-14
3.3107e-14
8.88586e-14
1.0539e-13
6.19943e-14
4.13296e-14
6.81938e-14
3.71966e-14
7.68937e-14
7.68937e-14
4.95955e-14
2.68642e-14
2.13593e-14
5.57949e-14
1.4672e-13
4.69906e-14
7.79616e-14
7.79616e-14
4.16507e-14
2.66992e-14
3.51301e-14
1.28122e-13
3.92631e-14
1.67385e-13
1.36388e-13
2.02515e-13
6.00732e-14
2.73937e-14
8.12755e-14
3.10462e-14
3.18035e-14
1.09545e-13
4.9472e-14
9.54104e-14
4.59383e-14
3.10462e-14
1.02478e-13
1.66085e-13
6.71406e-14
8.48092e-14
4.59383e-14
9.89441e-14
3.53372e-14
1.37815e-13
2.82697e-14
8.48092e-14
1.09545e-13
5.30058e-14
8.2181e-14
9.89441e-14
6.00732e-14
1.34281e-13
9.54104e-14
1.30748e-13
8.83429e-14
1.51944e-12
4.10375e-11
1.04748e-09
2.64829e-08
6.66801e-07
1.66766e-05
0.000407264
0.00879507
0.112183
0.451435
0.731876
0.865506
0.927603
0.951812
0.959944
0.962144
0.964759
0.966155
0.966155
0.965949
0.963645
0.958464
0.948526
0.936675
0.927574
0.923209
0.922501
0.922368
0.919487
0.913239
0.893009
0.834278
0.685754
0.332894
0.0452856
0.00228992
8.87364e-05
3.28305e-06
1.20445e-07
4.40408e-09
1.60394e-10
6.00198e-12
2.34953e-13
9.5058e-14
8.86413e-14
9.71245e-14
5.37284e-14
7.68937e-14
1.0539e-13
6.19943e-14
6.19943e-14
6.81938e-14
3.71966e-14
2.68642e-14
5.1662e-14
5.57949e-14
5.37284e-14
7.02603e-14
8.47256e-14
1.4672e-13
9.5058e-14
1.01257e-13
6.61273e-14
1.23989e-13
1.32255e-13
7.79616e-14
6.6214e-14
9.50491e-14
1.62331e-13
2.50972e-13
3.12038e-13
6.00732e-14
3.83511e-14
8.48092e-14
4.74824e-14
5.47873e-14
5.47873e-14
5.47873e-14
5.11348e-14
4.74824e-14
7.42081e-14
7.06743e-14
2.55674e-14
6.71406e-14
8.48092e-14
7.85285e-14
7.85285e-14
3.53372e-14
3.53372e-14
3.46986e-14
8.48092e-14
1.09545e-13
5.11348e-14
1.18706e-13
1.18706e-13
7.85285e-14
7.12235e-14
7.12235e-14
4.01774e-14
8.83429e-14
1.58335e-12
4.13462e-11
1.04635e-09
2.64713e-08
6.66489e-07
1.66688e-05
0.000407073
0.00879115
0.112147
0.45138
0.731863
0.865521
0.927634
0.951834
0.959944
0.962126
0.964744
0.966154
0.966154
0.965968
0.963671
0.958514
0.948575
0.9367
0.927572
0.923198
0.922488
0.922356
0.919505
0.913271
0.893036
0.834284
0.685729
0.332844
0.0452728
0.00228922
8.87109e-05
3.28219e-06
1.20416e-07
4.40385e-09
1.60351e-10
5.92081e-12
2.22137e-13
5.78614e-14
4.13296e-14
3.63109e-14
5.37284e-14
4.7529e-14
7.23267e-14
4.13296e-14
6.19943e-14
7.43932e-14
4.54625e-14
2.68642e-14
4.95955e-14
8.67921e-14
5.37284e-14
7.02603e-14
8.47256e-14
6.61273e-14
9.5058e-14
1.01257e-13
9.50491e-14
1.23989e-13
1.32255e-13
5.78614e-14
7.23267e-14
9.0925e-14
1.4672e-13
2.25246e-13
3.12038e-13
1.20146e-13
1.13227e-13
8.48092e-14
9.18766e-14
9.89441e-14
3.53372e-14
3.53372e-14
4.9472e-14
1.76686e-14
9.89441e-14
7.06743e-14
1.2368e-13
1.41349e-13
8.48092e-14
3.46986e-14
7.42081e-14
7.42081e-14
5.30058e-14
2.73937e-14
8.40072e-14
9.18766e-14
2.19149e-14
5.29611e-14
1.76686e-13
4.9472e-14
7.67023e-14
7.67023e-14
7.67023e-14
6.36069e-14
1.62536e-12
4.12695e-11
1.04632e-09
2.64633e-08
6.6631e-07
1.66642e-05
0.000406963
0.00878894
0.112127
0.451343
0.731847
0.865523
0.927645
0.951848
0.959956
0.962133
0.964748
0.966154
0.966154
0.965968
0.963687
0.958534
0.948591
0.936709
0.927577
0.923201
0.922493
0.922365
0.919515
0.913273
0.893029
0.834269
0.685701
0.332813
0.0452657
0.00228882
8.86953e-05
3.28162e-06
1.20397e-07
4.4025e-09
1.60499e-10
5.86314e-12
2.1039e-13
5.78614e-14
6.61273e-14
7.43932e-14
3.09972e-14
8.88586e-14
1.57052e-13
9.29915e-14
5.37284e-14
1.13656e-13
1.1159e-13
6.40608e-14
5.99279e-14
8.67921e-14
8.88586e-14
1.42587e-13
9.0925e-14
1.0539e-13
9.0925e-14
8.26591e-14
4.3396e-14
7.43932e-14
4.95955e-14
5.57949e-14
7.23267e-14
8.88586e-14
9.5058e-14
1.21922e-13
2.35579e-13
1.37815e-13
9.18766e-14
3.88709e-14
9.18766e-14
9.89441e-14
4.01774e-14
1.02478e-13
9.54104e-14
4.93086e-14
9.89441e-14
1.06012e-13
1.76686e-13
1.55484e-13
2.4736e-14
2.12023e-14
9.18766e-14
7.42081e-14
1.09545e-13
7.77418e-14
1.55484e-13
9.18766e-14
2.19149e-14
2.19149e-14
1.76686e-13
1.05922e-13
1.2368e-13
4.59383e-14
7.06743e-14
4.01774e-14
1.45552e-12
4.13845e-11
1.04594e-09
2.64561e-08
6.66123e-07
1.66598e-05
0.000406861
0.00878702
0.112111
0.451327
0.731849
0.86553
0.927654
0.951858
0.959972
0.962152
0.964762
0.966166
0.966166
0.965968
0.963656
0.958468
0.948523
0.936673
0.927571
0.923219
0.922516
0.922389
0.919523
0.913273
0.893024
0.834269
0.68571
0.332817
0.0452644
0.00228866
8.86869e-05
3.28125e-06
1.20379e-07
4.40234e-09
1.60527e-10
5.81722e-12
3.3107e-13
5.87382e-14
6.94179e-14
1.30188e-13
3.09972e-14
8.88586e-14
1.57052e-13
9.29915e-14
8.88586e-14
1.13656e-13
1.1159e-13
8.47256e-14
5.99279e-14
8.05927e-14
8.88586e-14
1.42587e-13
1.03324e-13
1.79784e-13
9.0925e-14
8.26591e-14
4.3396e-14
5.78614e-14
4.95955e-14
2.06648e-14
1.0539e-13
8.88586e-14
9.5058e-14
1.21922e-13
2.14914e-13
1.37815e-13
9.18766e-14
1.41349e-13
3.65249e-14
5.65395e-14
4.24046e-14
1.02478e-13
9.54104e-14
1.461e-14
1.76686e-14
1.06012e-13
1.76686e-13
1.55484e-13
1.27214e-13
8.03548e-14
9.18766e-14
6.36069e-14
1.48416e-13
7.77418e-14
1.55484e-13
2.55674e-14
9.18766e-14
6.00732e-14
1.41349e-13
9.18766e-14
1.2368e-13
1.83753e-13
8.83429e-14
9.18766e-14
1.62718e-12
4.10759e-11
1.0457e-09
2.64487e-08
6.65907e-07
1.66547e-05
0.000406743
0.00878481
0.112095
0.451317
0.731863
0.865541
0.927648
0.951843
0.959961
0.962137
0.964738
0.966155
0.966155
0.965977
0.963676
0.958501
0.948567
0.936715
0.927579
0.923193
0.922489
0.922363
0.919485
0.913238
0.893003
0.834267
0.685722
0.332823
0.0452633
0.00228852
8.8679e-05
3.28087e-06
1.20362e-07
4.40185e-09
1.60398e-10
5.82576e-12
1.91166e-13
2.00448e-13
5.78614e-14
1.65318e-13
1.30292e-13
1.30292e-13
7.43932e-14
5.78614e-14
9.29915e-14
1.28122e-13
5.01945e-14
8.47256e-14
2.35579e-13
1.15723e-13
8.05927e-14
2.27313e-14
1.09523e-13
1.79784e-13
3.30637e-14
1.27088e-13
1.27088e-13
7.64597e-14
4.7529e-14
6.81938e-14
1.0539e-13
6.4078e-14
9.5058e-14
8.22335e-14
9.5058e-14
1.59017e-13
9.54104e-14
1.41349e-13
4.24046e-14
7.42081e-14
4.24046e-14
3.65249e-14
5.47873e-14
7.42081e-14
7.42081e-14
7.77418e-14
5.30058e-14
1.16613e-13
1.27214e-13
2.12023e-14
8.83429e-14
6.36069e-14
1.69618e-13
5.30058e-14
1.55484e-13
7.30498e-14
9.18766e-14
6.00732e-14
1.41349e-13
9.18766e-14
2.01422e-13
1.83753e-13
8.83429e-14
1.09545e-13
1.49387e-12
4.14904e-11
1.04485e-09
2.64411e-08
6.65739e-07
1.66507e-05
0.000406653
0.00878318
0.112084
0.451312
0.731879
0.865557
0.927658
0.951851
0.959974
0.962157
0.964757
0.966171
0.966171
0.965976
0.963646
0.958437
0.948503
0.93668
0.927575
0.92321
0.922514
0.922388
0.919498
0.913246
0.893013
0.834281
0.68574
0.33283
0.0452629
0.00228843
8.86739e-05
3.28063e-06
1.20351e-07
4.40172e-09
1.6024e-10
5.80761e-12
3.1505e-13
2.00448e-13
9.5058e-14
1.71518e-13
1.65318e-14
9.9191e-14
8.26591e-14
5.78614e-14
9.29915e-14
1.34321e-13
1.33496e-13
7.15538e-14
2.35579e-13
1.15723e-13
1.65318e-13
4.3396e-14
1.09523e-13
6.83499e-14
3.73789e-14
8.47256e-14
5.37284e-14
9.9191e-14
5.76702e-14
6.81938e-14
5.99279e-14
4.48546e-14
9.61171e-14
1.07865e-13
1.73584e-13
1.59017e-13
1.09575e-13
1.0227e-13
7.12235e-14
7.42081e-14
3.65249e-14
2.92199e-14
2.82697e-14
7.42081e-14
7.42081e-14
1.35142e-13
1.35142e-13
1.16613e-13
4.9472e-14
2.37412e-14
8.83429e-14
2.82697e-14
1.69618e-13
2.73937e-14
1.55484e-13
9.13122e-14
3.18035e-14
4.93086e-14
5.47873e-14
5.47873e-14
2.01422e-13
1.73152e-13
3.10462e-14
1.36968e-13
1.71484e-12
4.11727e-11
1.04527e-09
2.64375e-08
6.65657e-07
1.66487e-05
0.000406608
0.0087823
0.112076
0.451303
0.731878
0.865565
0.927669
0.951853
0.959959
0.962136
0.964741
0.966152
0.966152
0.965961
0.963647
0.958466
0.948537
0.936694
0.927573
0.923199
0.922503
0.922377
0.919489
0.913242
0.893013
0.834286
0.685742
0.332826
0.0452615
0.00228834
8.867e-05
3.28048e-06
1.20345e-07
4.4009e-09
1.60513e-10
5.81081e-12
1.2602e-13
8.26591e-14
9.5058e-14
1.71518e-13
2.02914e-14
3.30637e-14
8.26591e-14
5.1662e-14
2.06648e-14
1.34321e-13
1.09523e-13
4.69906e-14
2.66992e-14
4.13296e-14
1.65318e-13
4.3396e-14
4.7529e-14
3.71966e-14
3.52429e-14
4.3396e-14
5.37284e-14
9.9191e-14
1.28156e-14
2.77672e-14
6.6214e-14
7.47577e-14
7.47577e-14
6.4078e-14
1.73584e-13
)
;

boundaryField
{
    sides1
    {
        type            calculated;
        value           uniform 0;
    }
    sides2
    {
        type            calculated;
        value           uniform 0;
    }
    empty
    {
        type            empty;
    }
}


// ************************************************************************* //
