/*--------------------------------*- C++ -*----------------------------------*\
| =========                 |                                                 |
| \\      /  F ield         | OpenFOAM: The Open Source CFD Toolbox           |
|  \\    /   O peration     | Version:  3.0.1                                 |
|   \\  /    A nd           | Web:      www.OpenFOAM.org                      |
|    \\/     M anipulation  |                                                 |
\*---------------------------------------------------------------------------*/
FoamFile
{
    version     2.0;
    format      ascii;
    class       volVectorField;
    location    "0.0001";
    object      U;
}
// * * * * * * * * * * * * * * * * * * * * * * * * * * * * * * * * * * * * * //

dimensions      [0 1 -1 0 0 0 0];

internalField   nonuniform List<vector> 
1000
(
(7.06493e-13 -2.97778e-13 0)
(6.94816e-13 -1.25534e-13 0)
(-5.02136e-13 -5.45927e-13 0)
(2.0027e-12 8.75818e-15 0)
(-8.40786e-13 -8.6706e-13 0)
(1.02763e-12 -1.16776e-13 0)
(2.16035e-13 -1.31957e-12 0)
(-7.12332e-13 6.2767e-13 0)
(3.22885e-12 -3.21133e-13 0)
(-3.05369e-12 -1.86841e-13 0)
(1.72244e-12 2.26253e-12 0)
(-1.05098e-13 -2.05817e-12 0)
(3.32811e-13 1.66989e-12 0)
(1.06266e-12 -5.51766e-13 0)
(-3.71931e-12 2.13116e-13 0)
(3.43321e-12 1.67573e-12 0)
(-2.41142e-12 -8.72899e-13 0)
(3.04201e-12 1.92096e-12 0)
(1.93264e-12 -1.7458e-12 0)
(-1.98519e-12 3.76602e-13 0)
(3.3865e-13 -3.21133e-14 0)
(-1.7458e-12 5.92637e-13 0)
(1.89761e-12 6.86058e-13 0)
(8.29108e-13 -3.82441e-13 0)
(-1.76331e-12 -3.12375e-13 0)
(1.27869e-12 6.13073e-14 0)
(-1.65238e-12 -2.27713e-13 0)
(-5.37169e-13 -4.67103e-14 0)
(1.02179e-12 6.80219e-13 0)
(3.80105e-12 -6.39347e-13 0)
(1.71444e-10 -1.86841e-13 0)
(4.17206e-09 3.24053e-13 0)
(1.06783e-07 -1.00544e-11 0)
(2.70864e-06 -1.55639e-10 0)
(6.9047e-05 -3.92713e-09 0)
(0.0018241 -9.32601e-08 0)
(0.0503418 -2.01955e-06 0)
(0.917954 -2.84411e-05 0)
(5.69534 -0.000141629 0)
(12.2186 -0.000201366 0)
(15.7675 -0.000132478 0)
(17.6039 -6.11831e-05 0)
(18.4479 -5.6754e-05 0)
(18.812 -0.000174742 0)
(18.887 -0.00034408 0)
(18.9405 -0.000708887 0)
(18.9915 -0.000936148 0)
(19.0015 -0.000535252 0)
(18.9667 0.000736016 0)
(18.9379 0.00158406 0)
(18.9498 0.00154943 0)
(18.972 0.00102977 0)
(18.9826 0.00102098 0)
(18.9676 0.000855744 0)
(18.9451 0.000450604 0)
(18.9489 0.000126311 0)
(18.9387 -2.35429e-05 0)
(18.7947 -0.000122105 0)
(18.5089 -8.58088e-05 0)
(17.6547 -1.77801e-05 0)
(15.6254 3.77395e-05 0)
(10.9411 5.71883e-05 0)
(3.34919 2.30296e-05 0)
(0.286909 2.29794e-06 0)
(0.0101102 1.05568e-07 0)
(0.000334503 3.76891e-09 0)
(1.1946e-05 9.11387e-11 0)
(4.34295e-07 -8.46956e-12 0)
(1.57313e-08 -7.49644e-12 0)
(5.43261e-10 -2.03331e-12 0)
(5.71922e-12 -2.35256e-12 0)
(-5.34021e-12 -9.90193e-13 0)
(-5.3129e-12 -7.83618e-13 0)
(-6.18017e-13 -5.12169e-15 0)
(-2.53011e-12 2.25354e-13 0)
(2.61889e-12 4.14857e-13 0)
(-2.20574e-12 -1.11824e-12 0)
(-2.54036e-12 1.02092e-12 0)
(3.0696e-12 7.15329e-13 0)
(-2.5267e-12 -3.99492e-13 0)
(1.56041e-12 9.18489e-13 0)
(-6.04359e-13 -2.11184e-12 0)
(-4.7461e-13 2.42597e-12 0)
(-5.87287e-13 -1.27359e-12 0)
(2.76571e-13 2.10672e-12 0)
(8.33128e-13 -1.01409e-12 0)
(-6.11188e-13 1.42383e-12 0)
(1.77552e-13 -8.53615e-14 0)
(-4.78024e-14 3.4486e-13 0)
(-3.61933e-13 -1.19506e-14 0)
(4.50709e-13 4.57537e-13 0)
(-7.47766e-13 -2.49255e-13 0)
(1.11653e-12 5.78751e-13 0)
(8.57029e-13 -2.18525e-13 0)
(-6.41918e-13 -1.29749e-13 0)
(-2.39012e-14 -7.51181e-13 0)
(5.22412e-13 6.81185e-13 0)
(-1.36578e-14 -9.04832e-13 0)
(-1.08921e-12 4.40465e-13 0)
(1.16433e-12 -3.41446e-14 0)
(1.05098e-12 -1.9268e-13 0)
(3.50327e-14 -5.37169e-13 0)
(1.22615e-13 -3.03617e-13 0)
(9.05012e-13 3.67844e-13 0)
(-8.1743e-13 -7.09413e-13 0)
(1.51809e-13 6.2767e-13 0)
(1.69325e-12 1.75164e-14 0)
(1.86841e-12 1.22615e-13 0)
(7.00655e-14 3.21133e-13 0)
(3.42737e-12 -8.37866e-13 0)
(-2.53403e-12 2.29756e-12 0)
(-8.6998e-13 -3.12375e-13 0)
(4.89874e-12 3.19966e-12 0)
(-3.54414e-12 -8.49544e-13 0)
(1.75164e-12 2.86393e-12 0)
(-3.73682e-13 1.8363e-12 0)
(-4.3207e-13 6.13073e-13 0)
(6.59783e-13 4.07256e-12 0)
(-1.52392e-12 -1.49473e-12 0)
(2.14867e-12 2.97194e-12 0)
(9.92594e-14 -2.56907e-13 0)
(2.3939e-13 1.76039e-12 0)
(3.09456e-13 7.56123e-13 0)
(-2.16035e-12 2.65665e-13 0)
(-9.05012e-13 -3.18214e-13 0)
(1.88593e-12 1.66697e-12 0)
(-2.28297e-12 -1.16484e-12 0)
(1.13856e-12 2.16911e-12 0)
(2.04358e-13 -1.38963e-12 0)
(7.47365e-13 2.25085e-12 0)
(1.76226e-10 -1.41299e-12 0)
(4.16946e-09 2.91064e-12 0)
(1.06639e-07 -5.30804e-11 0)
(2.70591e-06 -1.1478e-09 0)
(6.8978e-05 -2.76141e-08 0)
(0.00182232 -6.41384e-07 0)
(0.0502967 -1.34057e-05 0)
(0.917431 -0.000179146 0)
(5.69434 -0.000822383 0)
(12.2192 -0.00102503 0)
(15.7684 -0.00043098 0)
(17.6043 4.12023e-05 0)
(18.4476 2.16732e-05 0)
(18.8114 -0.000475113 0)
(18.8858 -0.00148944 0)
(18.9391 -0.00239619 0)
(18.9883 -0.00338558 0)
(18.9966 -0.00321151 0)
(18.9611 -0.0015768 0)
(18.9318 -7.7315e-05 0)
(18.944 0.000419154 0)
(18.9674 0.00109107 0)
(18.9793 0.00171902 0)
(18.9656 0.00191577 0)
(18.9445 0.00123646 0)
(18.9491 0.000599527 0)
(18.939 0.000217677 0)
(18.7947 -0.000270579 0)
(18.5094 -0.000212583 0)
(17.6553 3.21101e-05 0)
(15.6258 0.000310049 0)
(10.941 0.000398344 0)
(3.34883 0.000160824 0)
(0.286848 1.64491e-05 0)
(0.0101078 7.74691e-07 0)
(0.000334428 2.85386e-08 0)
(1.19437e-05 8.67394e-10 0)
(4.3428e-07 -3.62103e-11 0)
(1.57724e-08 -2.50314e-11 0)
(5.52132e-10 -1.15187e-11 0)
(1.21964e-11 -5.23266e-12 0)
(-1.08238e-12 -2.28257e-12 0)
(-3.1413e-12 -4.19978e-13 0)
(1.64235e-12 -2.40719e-13 0)
(-1.76528e-12 5.22412e-13 0)
(-4.50709e-13 8.86052e-13 0)
(-4.50709e-13 -4.96804e-13 0)
(1.39993e-12 2.86132e-12 0)
(-4.67781e-13 5.95823e-13 0)
(-1.07555e-12 1.3453e-12 0)
(-1.85064e-12 1.69357e-12 0)
(2.29452e-12 9.35562e-13 0)
(4.60952e-13 1.57407e-12 0)
(-1.48529e-12 1.00044e-12 0)
(8.84345e-13 6.26553e-13 0)
(-6.86306e-13 1.51773e-12 0)
(1.90868e-12 8.02398e-13 0)
(-1.97014e-12 1.39139e-12 0)
(3.34617e-13 1.28896e-12 0)
(-2.76571e-13 1.50748e-12 0)
(-6.14603e-13 8.09227e-13 0)
(-3.31202e-13 2.71449e-13 0)
(9.1166e-13 2.49255e-13 0)
(-3.79005e-13 -8.70687e-13 0)
(-2.06916e-12 3.24374e-14 0)
(1.90527e-12 -2.834e-13 0)
(-5.46313e-14 -1.417e-13 0)
(-6.65819e-13 -8.05812e-13 0)
(9.45805e-13 -3.60225e-13 0)
(-3.10716e-13 -6.18017e-13 0)
(1.05098e-13 1.25826e-12 0)
(-4.67103e-14 5.63443e-13 0)
(1.21447e-12 7.2109e-13 0)
(1.11521e-12 6.68541e-13 0)
(4.08715e-14 3.3573e-13 0)
(2.30632e-12 1.50933e-12 0)
(-1.26118e-12 6.59783e-13 0)
(-1.34292e-13 3.26972e-13 0)
(1.83922e-12 -2.33552e-13 0)
(4.49587e-13 1.20571e-12 0)
(2.35303e-12 -2.0319e-12 0)
(1.15608e-12 2.91356e-12 0)
(-1.09185e-12 -2.14575e-12 0)
(2.45229e-13 1.40423e-12 0)
(2.3939e-12 -5.34249e-13 0)
(-1.09769e-12 5.80959e-13 0)
(1.83338e-12 5.07975e-13 0)
(-1.89761e-12 4.58345e-13 0)
(6.13073e-13 -4.52506e-13 0)
(6.65622e-13 2.18371e-12 0)
(-2.37055e-12 -7.96995e-13 0)
(3.97038e-13 1.53852e-12 0)
(-4.72942e-13 -1.72244e-12 0)
(-1.25534e-12 2.52236e-12 0)
(1.39547e-12 -1.46554e-12 0)
(-8.05753e-13 2.61578e-12 0)
(-5.02136e-13 -1.37212e-12 0)
(-4.67103e-13 3.12083e-12 0)
(-1.0393e-12 -1.14148e-12 0)
(1.10528e-11 2.35303e-12 0)
(1.56374e-10 -2.66833e-12 0)
(4.18961e-09 2.58658e-12 0)
(1.06458e-07 -4.59629e-11 0)
(2.70198e-06 -9.91966e-10 0)
(6.88838e-05 -2.33597e-08 0)
(0.00181995 -5.42443e-07 0)
(0.0502388 -1.13043e-05 0)
(0.916802 -0.000151998 0)
(5.6933 -0.000719522 0)
(12.22 -0.0009803 0)
(15.7696 -0.000724922 0)
(17.6047 -0.000358716 0)
(18.4471 -0.000234351 0)
(18.8106 -0.000361166 0)
(18.8855 -9.52792e-05 0)
(18.9386 -0.000196454 0)
(18.9885 -9.7555e-05 0)
(18.997 0.00103326 0)
(18.9619 0.00247321 0)
(18.9331 0.00217376 0)
(18.9455 0.000779101 0)
(18.9686 -0.00153418 0)
(18.9799 -0.0011436 0)
(18.9654 -0.000480716 0)
(18.9437 -0.000189139 0)
(18.9484 -0.000277328 0)
(18.9386 0.000317726 0)
(18.7944 7.18219e-05 0)
(18.5098 0.00024564 0)
(17.6559 0.000490578 0)
(15.6262 0.00063542 0)
(10.9408 0.000565563 0)
(3.3483 0.000196353 0)
(0.28676 1.85294e-05 0)
(0.0101041 8.41901e-07 0)
(0.000334314 3.07478e-08 0)
(1.19399e-05 9.66942e-10 0)
(4.34251e-07 -9.67999e-12 0)
(1.57907e-08 -9.73633e-12 0)
(5.61265e-10 -7.31548e-12 0)
(1.99541e-11 -3.49982e-12 0)
(-3.7559e-14 -7.80204e-13 0)
(-1.42724e-12 -7.71668e-13 0)
(2.39012e-13 -3.9437e-13 0)
(-5.18998e-13 -7.44352e-13 0)
(5.63386e-13 1.58772e-13 0)
(1.11653e-12 -3.90956e-13 0)
(-8.1947e-13 -4.60952e-13 0)
(1.43407e-13 -7.28987e-13 0)
(-3.31202e-13 -3.77298e-13 0)
(7.40938e-13 -3.7559e-13 0)
(-6.31675e-13 3.38031e-13 0)
(1.70723e-13 -2.01624e-12 0)
(-2.03843e-12 1.39993e-13 0)
(1.3214e-12 -5.20705e-13 0)
(9.52634e-13 1.07555e-13 0)
(-1.40676e-12 -1.01239e-12 0)
(7.95569e-13 -2.78278e-13 0)
(1.6048e-13 -1.18994e-12 0)
(-1.11311e-12 -5.70215e-13 0)
(-1.86429e-12 -9.44098e-13 0)
(-1.05848e-12 1.55358e-13 0)
(-1.038e-12 -9.35562e-13 0)
(4.81439e-13 -4.35343e-13 0)
(1.19506e-13 -5.41192e-13 0)
(-2.2194e-13 -1.417e-12 0)
(-4.95097e-13 -8.02398e-13 0)
(-4.7461e-13 -2.70767e-12 0)
(-1.2053e-12 -1.34018e-12 0)
(4.4388e-14 -5.5963e-12 0)
(-1.22615e-13 7.59043e-14 0)
(-1.58815e-12 -7.85317e-13 0)
(1.10353e-12 -6.59783e-13 0)
(6.2475e-13 -1.10937e-12 0)
(2.74423e-13 2.27713e-13 0)
(6.36428e-13 -7.67801e-13 0)
(5.37169e-13 -8.72899e-13 0)
(1.63486e-13 1.18235e-12 0)
(1.58815e-12 -6.36428e-13 0)
(4.20393e-13 1.55896e-12 0)
(8.1743e-13 5.54685e-14 0)
(-6.13073e-13 8.75818e-15 0)
(1.40715e-12 -3.73682e-13 0)
(2.04358e-13 8.26189e-13 0)
(2.91939e-13 4.49587e-13 0)
(9.1669e-13 7.7364e-13 0)
(-2.33552e-14 9.28367e-13 0)
(-1.27286e-12 4.20393e-13 0)
(9.51723e-13 9.25448e-13 0)
(1.41883e-12 -8.34947e-13 0)
(-1.01595e-12 1.74288e-12 0)
(-8.23269e-13 -6.62703e-13 0)
(1.64654e-12 1.29913e-12 0)
(-1.76331e-12 1.0539e-12 0)
(-8.05753e-13 2.91939e-13 0)
(1.64654e-12 -4.52506e-13 0)
(-8.58302e-13 1.89761e-12 0)
(1.38963e-12 -1.23198e-12 0)
(-2.5282e-12 2.06401e-12 0)
(4.92794e-12 -1.95307e-12 0)
(1.5871e-10 2.23042e-12 0)
(4.19446e-09 -2.85225e-12 0)
(1.06319e-07 -1.68537e-11 0)
(2.6994e-06 -4.86926e-10 0)
(6.88199e-05 -1.18825e-08 0)
(0.0018183 -2.90558e-07 0)
(0.0501962 -6.49304e-06 0)
(0.916274 -9.74404e-05 0)
(5.69197 -0.000564046 0)
(12.2198 -0.00106623 0)
(15.7701 -0.00109212 0)
(17.6052 -0.000884237 0)
(18.4474 -0.000555739 0)
(18.8108 -0.000482931 0)
(18.8854 -0.000248119 0)
(18.9384 -0.000536352 0)
(18.9884 -0.000459837 0)
(18.9975 0.000414198 0)
(18.9622 0.0016872 0)
(18.9332 0.00143689 0)
(18.9451 0.000229186 0)
(18.9682 -0.00188411 0)
(18.9798 -0.00146476 0)
(18.9658 -0.00089201 0)
(18.9442 -0.000402478 0)
(18.9487 -0.000400776 0)
(18.9388 0.000339809 0)
(18.7947 0.000329778 0)
(18.5103 0.000649457 0)
(17.6562 0.000917376 0)
(15.626 0.000972347 0)
(10.9398 0.000711521 0)
(3.34753 0.000210327 0)
(0.286659 1.78279e-05 0)
(0.0101005 7.47634e-07 0)
(0.000334206 2.57021e-08 0)
(1.19366e-05 7.92887e-10 0)
(4.34203e-07 1.65379e-11 0)
(1.57994e-08 -8.7854e-12 0)
(5.63672e-10 8.53615e-13 0)
(2.64621e-11 -1.2753e-12 0)
(4.88268e-13 1.05848e-12 0)
(-1.89161e-12 -1.28384e-12 0)
(1.22579e-12 1.80454e-12 0)
(-2.93643e-13 -3.85834e-13 0)
(1.22921e-13 7.37523e-13 0)
(-1.43407e-12 -2.42427e-13 0)
(1.33164e-12 -3.73883e-13 0)
(-7.06793e-13 1.82674e-13 0)
(-3.00472e-13 -4.09735e-13 0)
(-5.90701e-13 5.15583e-13 0)
(-4.47294e-13 -1.38627e-12 0)
(-2.2194e-13 5.75336e-13 0)
(9.86779e-13 -1.65601e-12 0)
(7.17036e-13 1.25311e-12 0)
(-1.29067e-12 -2.28257e-12 0)
(1.55016e-12 8.10934e-13 0)
(-2.80669e-12 -9.919e-13 0)
(-4.4388e-13 5.15583e-13 0)
(4.7461e-13 -1.89332e-12 0)
(9.18489e-13 1.13701e-12 0)
(-6.82892e-13 -1.1097e-13 0)
(3.85834e-13 1.2053e-12 0)
(5.12169e-13 1.39822e-12 0)
(-4.42855e-12 5.90701e-13 0)
(1.87112e-12 8.9971e-13 0)
(-2.90229e-12 1.07555e-13 0)
(-1.3214e-12 5.68507e-13 0)
(-3.22325e-12 2.15111e-13 0)
(-7.07476e-12 4.40465e-13 0)
(-1.26118e-12 1.15024e-12 0)
(-2.45229e-13 -4.55426e-13 0)
(2.27713e-13 1.74872e-12 0)
(1.4305e-12 -5.05055e-13 0)
(1.47137e-12 -6.42267e-14 0)
(2.68584e-13 -1.75164e-14 0)
(1.98519e-12 -6.71461e-14 0)
(1.4597e-13 -3.09456e-13 0)
(1.98519e-12 -5.54685e-14 0)
(1.93848e-12 -9.48803e-13 0)
(-5.43007e-13 -2.36471e-13 0)
(7.82398e-13 4.49587e-13 0)
(-2.3939e-13 -5.40088e-13 0)
(1.73939e-12 -5.89718e-13 2.13188e-32)
(2.41199e-12 -4.49587e-13 0)
(4.37909e-13 -1.78083e-13 0)
(6.88977e-13 1.66405e-13 0)
(-1.28453e-12 6.18912e-13 0)
(-1.69325e-12 1.9268e-13 0)
(2.46397e-12 -3.26972e-13 0)
(-2.58658e-12 4.817e-13 0)
(-1.15081e-12 -1.09769e-12 0)
(3.39875e-12 6.71461e-13 0)
(-3.2814e-12 -1.11229e-12 0)
(-1.23198e-12 3.91199e-13 0)
(2.23042e-12 3.99957e-13 0)
(-2.93107e-12 -6.13073e-13 0)
(-2.78979e-25 -1.12105e-12 0)
(-1.34292e-13 -1.67865e-12 0)
(4.38493e-12 -2.4775e-26 0)
(1.70674e-10 1.81002e-13 0)
(4.16476e-09 -4.67103e-13 2.13188e-32)
(1.06306e-07 -1.34263e-11 0)
(2.69814e-06 -2.082e-10 0)
(6.87882e-05 -5.81671e-09 0)
(0.00181744 -1.44594e-07 0)
(0.0501721 -3.33252e-06 -2.13166e-32)
(0.915937 -5.24089e-05 0)
(5.69091 -0.000330472 0)
(12.2192 -0.000721638 2.07636e-32)
(15.7702 -0.000885955 0)
(17.6057 -0.00088043 0)
(18.4478 -0.00077024 0)
(18.8111 -0.00071237 -2.10522e-32)
(18.8852 -0.000392964 0)
(18.9381 -0.000471292 0)
(18.9882 -0.000347019 0)
(18.9976 -0.000351943 0)
(18.9627 -0.000364856 0)
(18.934 -0.000193054 0)
(18.9461 2.20568e-05 0)
(18.9689 0.000466419 0)
(18.9801 0.000492095 0)
(18.9657 0.000419681 0)
(18.9439 0.000387594 0)
(18.9484 0.000378889 -1.14335e-32)
(18.9389 0.000626236 1.07031e-32)
(18.7951 0.000748158 0)
(18.5109 0.000855866 0)
(17.6566 0.000864091 -1.08086e-32)
(15.6259 0.000801604 0)
(10.9391 0.000546949 0)
(3.34686 0.000151171 0)
(0.286572 1.23532e-05 0)
(0.0100974 5.20501e-07 0)
(0.00033412 1.8293e-08 0)
(1.19339e-05 6.26767e-10 0)
(4.34092e-07 1.4578e-11 0)
(1.58211e-08 2.32866e-12 0)
(5.63268e-10 -5.22412e-13 0)
(2.41484e-11 1.26506e-12 0)
(-7.64563e-14 -6.4704e-13 1.06594e-32)
(2.76571e-13 2.90229e-13 0)
(1.69223e-12 -3.17545e-13 0)
(-2.47756e-12 4.38758e-13 0)
(1.62662e-12 1.69016e-13 0)
(-1.8663e-12 -1.02434e-13 0)
(2.74495e-13 7.35816e-13 0)
(3.01879e-13 7.81911e-13 0)
(9.35286e-14 -2.16818e-13 0)
(-9.68368e-13 1.00897e-12 0)
(-1.10829e-12 1.1097e-12 0)
(-1.01096e-13 5.15583e-13 0)
(-1.52244e-13 1.41529e-12 0)
(-2.10358e-13 -5.29241e-13 0)
(-2.61575e-13 5.68507e-13 0)
(1.0155e-12 -8.87759e-14 0)
(9.19828e-13 -4.95097e-13 0)
(-1.15064e-12 1.60309e-12 0)
(-4.47998e-13 -2.59499e-13 0)
(1.55288e-12 1.51431e-12 0)
(-1.99197e-12 -1.04824e-12 -1.06594e-32)
(1.63141e-12 7.35816e-13 0)
(-5.04961e-14 -1.00214e-12 -1.06594e-32)
(-5.57947e-13 1.30432e-12 0)
(-1.03528e-12 2.86815e-13 0)
(-1.05708e-12 1.34188e-12 0)
(-5.49067e-13 2.2194e-12 0)
(-1.50438e-12 7.76789e-13 0)
(2.39012e-13 5.45118e-12 0)
(-3.16462e-12 -1.15316e-12 0)
(-1.02763e-12 9.69239e-13 0)
(1.05682e-12 -1.09769e-12 0)
(-2.23042e-12 9.37126e-13 0)
(1.37212e-12 -9.69239e-13 0)
(1.81002e-13 8.34947e-13 0)
(9.34206e-14 -3.62005e-13 0)
(5.3133e-13 4.90458e-13 0)
(5.72201e-13 -5.7804e-13 0)
(2.68584e-13 7.99914e-13 0)
(2.8143e-12 -1.01595e-12 0)
(-1.34292e-12 1.25826e-12 0)
(8.75818e-14 -2.02314e-12 0)
(9.51723e-13 1.59399e-12 -2.13188e-32)
(8.1743e-14 -2.3034e-12 0)
(2.18371e-12 -4.14554e-13 0)
(1.19111e-12 -1.48597e-12 0)
(-1.13273e-12 -1.46846e-12 0)
(-8.34947e-13 -9.86755e-13 0)
(2.1078e-12 -5.07975e-13 0)
(-2.10196e-12 -1.09185e-12 0)
(-4.3207e-13 1.25826e-12 0)
(1.52392e-12 -1.31373e-12 0)
(-2.17787e-12 -3.00698e-13 0)
(1.5356e-12 6.68541e-13 0)
(1.40131e-13 -9.57561e-13 0)
(-3.33979e-12 6.18912e-13 0)
(-4.08715e-13 2.80262e-13 0)
(-1.34292e-12 7.99914e-13 0)
(6.42851e-12 -3.70763e-13 0)
(1.67894e-10 -3.03617e-13 0)
(4.17299e-09 8.55383e-13 -2.13188e-32)
(1.06247e-07 -9.42964e-12 0)
(2.69751e-06 -1.86981e-10 0)
(6.87695e-05 -4.6494e-09 0)
(0.00181694 -1.12436e-07 0)
(0.0501585 -2.46591e-06 2.13166e-32)
(0.915745 -3.61586e-05 0)
(5.69027 -0.000206094 0)
(12.2188 -0.000397957 -2.07636e-32)
(15.7701 -0.000426596 0)
(17.6058 -0.000379981 0)
(18.4481 -0.000274282 0)
(18.8114 -0.000216034 2.10526e-32)
(18.8853 -4.70916e-05 0)
(18.9383 -2.79391e-06 0)
(18.9883 0.00016975 0)
(18.9976 0.000260276 0)
(18.9629 0.000339283 0)
(18.9344 0.000296116 0)
(18.9465 0.000129732 0)
(18.9692 -0.000144338 0)
(18.9803 -6.1504e-05 0)
(18.9658 7.95278e-05 0)
(18.944 0.000226098 0)
(18.9486 0.000197613 1.14343e-32)
(18.9391 0.000259505 -1.07006e-32)
(18.7953 0.000278582 0)
(18.5108 0.000284033 0)
(17.6564 0.000259325 1.08087e-32)
(15.6255 0.000170859 0)
(10.9384 0.000107298 0)
(3.34647 4.32743e-05 0)
(0.286523 5.27735e-06 0)
(0.0100956 2.84726e-07 0)
(0.000334062 1.20229e-08 0)
(1.19318e-05 4.78519e-10 0)
(4.34079e-07 1.41598e-11 0)
(1.57941e-08 1.56211e-12 0)
(5.70491e-10 -1.26335e-12 0)
(2.21462e-11 1.31969e-12 0)
(-7.17036e-14 -8.77516e-13 -1.06594e-32)
(-6.21431e-13 1.92234e-12 0)
(6.69234e-13 -1.87795e-13 0)
(7.51181e-13 -3.87541e-13 0)
(-7.92154e-13 5.12169e-14 0)
(-1.26335e-13 1.16092e-13 0)
(2.35598e-12 -4.09735e-13 0)
(-2.4789e-12 -1.35213e-12 0)
(7.54595e-13 5.03633e-13 0)
(1.62187e-12 -2.02136e-12 0)
(-1.01409e-12 -2.01453e-13 0)
(7.44352e-13 -7.85325e-13 0)
(-9.66292e-13 5.10462e-13 0)
(-6.45333e-13 -3.67054e-13 0)
(-2.56084e-13 3.27788e-13 0)
(-2.73157e-13 1.65601e-13 0)
(7.2728e-13 -3.65347e-13 0)
(-5.90701e-13 -5.56557e-13 0)
(4.02906e-13 4.69488e-13 0)
(-4.47294e-13 -9.42391e-13 0)
(-1.14384e-12 -1.45114e-13 1.06594e-32)
(4.26807e-13 3.82419e-13 0)
(5.63386e-13 -5.8558e-13 1.06594e-32)
(-1.00044e-12 -2.15111e-13 0)
(8.87759e-13 -3.07301e-13 0)
(1.36578e-12 4.93389e-13 0)
(-2.16135e-12 7.11915e-13 0)
(1.81991e-12 1.48358e-12 0)
(8.46786e-13 1.80454e-12 0)
(1.96767e-12 7.29849e-13 0)
(-2.04358e-13 1.56188e-12 0)
(3.73682e-13 3.29892e-13 0)
(1.40715e-12 1.15316e-12 0)
(1.21447e-12 7.15252e-13 0)
(1.54144e-12 2.04358e-13 0)
(1.60567e-12 9.45884e-13 0)
(-6.88977e-13 -1.02179e-13 0)
(2.499e-12 6.71461e-13 0)
(1.09769e-12 -1.10061e-12 0)
(5.07975e-13 1.17068e-12 0)
(-1.16192e-12 -1.85382e-12 0)
(4.3207e-13 2.06109e-12 0)
(9.98433e-13 -1.69617e-12 0)
(-1.22615e-12 1.18819e-12 0)
(1.98519e-12 -7.67801e-13 0)
(-7.88236e-13 5.63443e-13 0)
(-4.55426e-13 -1.25534e-13 0)
(-2.97778e-13 3.67844e-13 0)
(1.76915e-12 -8.46624e-14 0)
(1.29621e-12 -3.99957e-13 0)
(-1.62318e-12 -2.33552e-13 0)
(-3.97038e-13 -1.02179e-13 0)
(1.29621e-12 -1.55312e-12 0)
(-2.75591e-12 1.57647e-13 0)
(2.25377e-12 -1.18819e-12 0)
(-1.98519e-13 -6.10153e-13 0)
(-4.26232e-13 -5.63443e-13 0)
(-7.00655e-14 5.92637e-13 0)
(-1.10937e-13 -9.92594e-14 0)
(1.74329e-10 5.02136e-13 0)
(4.16554e-09 -2.9953e-12 0)
(1.06238e-07 6.57448e-12 0)
(2.69663e-06 -2.74274e-10 0)
(6.87504e-05 -5.84906e-09 0)
(0.00181644 -1.38921e-07 0)
(0.0501456 -2.96734e-06 0)
(0.915588 -4.14381e-05 0)
(5.68987 -0.00021098 0)
(12.2187 -0.000327286 0)
(15.7702 -0.000322514 0)
(17.606 -0.000278282 0)
(18.4483 -0.000244773 0)
(18.8116 -0.000262037 0)
(18.8857 -0.000177284 0)
(18.9387 -0.000132018 0)
(18.9886 -0.00016113 0)
(18.9978 -0.000900809 0)
(18.9626 -0.00191509 0)
(18.9334 -0.00138222 0)
(18.9451 -9.14665e-05 0)
(18.9681 0.00201419 0)
(18.9798 0.00166609 0)
(18.9659 0.00110282 0)
(18.9445 0.00069423 0)
(18.9491 0.000652519 0)
(18.9395 0.000360757 0)
(18.7954 0.00033799 0)
(18.5108 0.000158176 0)
(17.6563 -8.50363e-07 0)
(15.6256 -3.11319e-05 0)
(10.9386 1.29733e-05 0)
(3.34645 2.13061e-05 0)
(0.286507 3.62782e-06 0)
(0.0100946 2.3486e-07 0)
(0.00033402 1.13185e-08 0)
(1.19302e-05 4.99424e-10 0)
(4.33957e-07 3.28659e-11 0)
(1.58113e-08 -5.05169e-12 0)
(5.72827e-10 9.93607e-13 0)
(1.93941e-11 4.42172e-13 0)
(2.78278e-12 2.27062e-13 0)
(1.33847e-12 1.24628e-13 0)
(-2.70425e-12 -9.21904e-14 0)
(-1.38627e-12 6.99964e-13 0)
(2.10331e-12 5.12169e-15 0)
(-2.0077e-12 -1.34871e-13 0)
(-2.19891e-12 1.63894e-12 0)
(1.97697e-12 -2.0316e-13 0)
(-1.31457e-12 1.80966e-12 0)
(-2.02136e-12 -3.3291e-13 0)
(1.05165e-12 1.72772e-12 0)
(8.43371e-13 -6.60698e-13 0)
(2.32183e-13 1.1797e-12 0)
(-5.01925e-13 -1.40676e-12 0)
(1.15409e-12 2.26037e-12 0)
(-1.70723e-13 -1.60309e-12 0)
(-6.52162e-13 2.75205e-12 0)
(-5.12169e-14 -8.28006e-13 0)
(-5.73629e-13 1.87454e-12 0)
(1.43407e-13 -9.37269e-13 0)
(5.3607e-13 8.22885e-13 0)
(3.4486e-13 7.59717e-13 0)
(-9.4922e-13 3.43153e-13 0)
(5.90701e-13 1.00556e-12 0)
(-1.53651e-13 1.26164e-12 0)
(1.39993e-12 5.25827e-13 0)
(7.47766e-13 2.13404e-12 0)
(8.36542e-13 1.53309e-12 0)
(1.7243e-12 2.25866e-12 0)
(-1.38379e-12 1.36628e-12 0)
(-1.68741e-12 -1.25534e-13 0)
(1.51809e-13 1.45094e-12 0)
(-1.71077e-12 6.42267e-14 0)
(-8.40786e-13 2.65665e-13 0)
(1.09185e-12 -8.1743e-13 0)
(-1.01595e-12 -6.21831e-13 0)
(5.43007e-13 -1.48889e-12 0)
(-1.0685e-12 -2.21874e-13 0)
(7.59043e-13 -1.52684e-12 0)
(1.52976e-12 2.62745e-13 0)
(3.03617e-13 -1.01011e-12 0)
(1.08601e-12 9.86755e-13 0)
(-1.8217e-12 -8.52463e-13 0)
(2.35887e-12 -3.73682e-13 0)
(6.83138e-13 -4.96297e-14 0)
(1.99687e-12 -1.40131e-12 0)
(-1.08601e-12 2.62745e-13 0)
(-6.83138e-13 -5.51766e-13 0)
(6.53944e-13 -4.3499e-13 0)
(-1.89761e-12 -1.22615e-13 0)
(2.33552e-13 -5.66363e-13 0)
(-4.49587e-13 9.6632e-13 0)
(-2.04941e-12 -9.05012e-14 0)
(2.14284e-12 -4.67103e-13 0)
(-1.48889e-12 7.53204e-13 0)
(-2.45813e-12 -6.33509e-13 0)
(2.06693e-12 -3.03617e-13 0)
(-7.76559e-13 -3.44489e-13 0)
(7.57875e-12 -5.57604e-13 0)
(1.6306e-10 5.16733e-13 0)
(4.1678e-09 -3.73391e-12 0)
(1.06254e-07 -5.9001e-12 0)
(2.6956e-06 -2.38693e-10 0)
(6.87275e-05 -6.11644e-09 0)
(0.00181585 -1.41211e-07 0)
(0.0501305 -2.96974e-06 0)
(0.915406 -4.02877e-05 0)
(5.68947 -0.000190934 0)
(12.2188 -0.000257002 0)
(15.7704 -0.000108984 0)
(17.606 4.26185e-05 0)
(18.4481 0.00010834 0)
(18.8114 8.07787e-05 0)
(18.8855 0.000162944 0)
(18.9381 0.000156593 0)
(18.9884 5.00334e-05 0)
(18.9979 -0.000717071 0)
(18.963 -0.00170205 0)
(18.9344 -0.00125073 0)
(18.9465 -1.89413e-05 0)
(18.9693 0.00197182 0)
(18.9804 0.00158848 0)
(18.9657 0.000940077 0)
(18.9438 0.00044711 0)
(18.9485 0.000282246 0)
(18.9388 -5.80157e-05 0)
(18.7947 -0.000141738 0)
(18.5103 -0.000207013 0)
(17.6561 -0.000208666 0)
(15.6256 -0.000157966 0)
(10.9387 -4.41051e-05 0)
(3.34643 1.27584e-05 0)
(0.286492 2.86427e-06 0)
(0.0100935 1.94376e-07 0)
(0.000333978 9.37385e-09 0)
(1.19284e-05 4.36416e-10 0)
(4.33848e-07 1.88768e-11 0)
(1.58228e-08 -2.71449e-12 0)
(5.67032e-10 1.20018e-12 0)
(2.11014e-11 -1.47846e-12 0)
(-4.26807e-13 -6.1631e-13 0)
(-9.97022e-13 -1.44773e-12 0)
(1.79259e-12 -3.67054e-13 0)
(9.21904e-13 -4.81439e-13 0)
(-2.70084e-12 -6.14603e-14 0)
(2.80327e-12 -1.70723e-14 0)
(1.92575e-12 1.46822e-13 0)
(-2.5267e-12 5.95823e-13 0)
(6.9655e-13 -6.58991e-13 0)
(1.02775e-12 6.62405e-13 0)
(-1.69699e-12 -1.06019e-12 0)
(5.94116e-13 1.76698e-12 0)
(-2.68035e-12 5.20705e-13 0)
(5.49728e-13 1.12336e-12 0)
(-6.86306e-13 -7.28987e-13 0)
(-1.67308e-13 3.7559e-13 0)
(2.06575e-12 1.98039e-13 0)
(-1.50236e-12 -8.41664e-13 0)
(-2.39012e-14 -5.29241e-13 0)
(-2.77937e-12 -4.31929e-13 0)
(2.64279e-12 -9.67999e-13 0)
(-4.84853e-13 -1.5826e-12 0)
(6.48747e-13 -2.76571e-13 0)
(4.40465e-13 -5.37777e-13 0)
(-8.1947e-14 3.0218e-13 0)
(3.14472e-12 -9.03124e-13 0)
(-2.79986e-13 -5.80458e-14 0)
(2.76571e-12 -4.8656e-13 0)
(1.87112e-12 3.55104e-13 0)
(-6.83138e-13 8.34947e-13 0)
(-3.8536e-13 1.02179e-13 0)
(1.05098e-12 1.02179e-13 0)
(-8.99173e-13 -3.67844e-13 0)
(1.16776e-14 3.12375e-13 0)
(-2.27713e-13 -2.07277e-13 0)
(2.33552e-14 -4.3499e-13 0)
(3.62005e-13 -5.54685e-14 0)
(2.01438e-12 -9.60481e-13 0)
(1.61734e-12 1.09769e-12 0)
(8.99173e-13 -2.23626e-12 0)
(4.14554e-13 -7.61962e-13 0)
(1.06266e-12 -1.49473e-12 0)
(-1.47721e-12 -4.52506e-13 0)
(-1.75164e-14 -9.83836e-13 0)
(6.30589e-13 -1.67281e-12 0)
(-5.66363e-13 -7.82398e-13 0)
(7.88236e-13 -3.9733e-12 0)
(-1.08601e-12 2.18955e-13 0)
(2.24793e-12 -3.0712e-12 0)
(8.87496e-13 -1.02471e-12 0)
(2.56907e-13 -1.35168e-12 0)
(1.4597e-13 -1.1736e-12 0)
(-1.05682e-12 -1.29913e-12 0)
(-1.38963e-12 8.64141e-13 0)
(2.09029e-12 -3.0099e-12 0)
(-1.29037e-12 2.318e-12 0)
(1.75164e-14 -1.09477e-12 0)
(-6.36428e-13 4.55426e-13 0)
(1.02763e-12 -6.42267e-14 0)
(1.78095e-10 8.96254e-13 0)
(4.14208e-09 6.2767e-13 0)
(1.06221e-07 -1.04719e-11 0)
(2.69493e-06 -1.59974e-10 0)
(6.87092e-05 -3.77848e-09 0)
(0.00181539 -8.90332e-08 0)
(0.0501191 -1.88686e-06 0)
(0.915277 -2.64492e-05 0)
(5.68923 -0.000135315 0)
(12.2189 -0.00020204 0)
(15.7707 -0.000160844 0)
(17.6063 -5.59995e-05 0)
(18.4483 4.67003e-05 0)
(18.8116 2.85815e-05 0)
(18.8859 6.08315e-05 0)
(18.9385 -8.482e-05 0)
(18.9888 0.000125722 0)
(18.9981 0.00034315 0)
(18.9626 0.000389851 0)
(18.9333 0.000311208 0)
(18.9451 0.00014984 0)
(18.9683 -0.000126964 0)
(18.9799 -0.000207476 0)
(18.9658 -0.000221388 0)
(18.9443 -0.00018018 0)
(18.949 -0.000281674 0)
(18.9392 -4.85499e-05 0)
(18.7949 -0.000195583 0)
(18.5105 -0.000196952 0)
(17.6563 -0.000152867 0)
(15.626 -5.43429e-05 0)
(10.939 1.47107e-05 0)
(3.34645 1.54097e-05 0)
(0.286483 2.51923e-06 0)
(0.0100929 1.42204e-07 0)
(0.000333951 6.18262e-09 0)
(1.19272e-05 2.41097e-10 0)
(4.33793e-07 7.65522e-12 0)
(1.58348e-08 2.37305e-13 0)
(5.62208e-10 -6.52162e-13 0)
(1.97287e-11 -1.17799e-12 0)
(2.83059e-12 3.36324e-13 0)
(1.37944e-12 -1.86771e-12 0)
(-1.17457e-12 1.10116e-12 0)
(-9.76535e-13 -3.14984e-12 0)
(3.17203e-12 4.78024e-14 0)
(-1.61162e-12 -6.50454e-13 0)
(-1.62187e-12 -1.99234e-12 0)
(5.83872e-13 -2.15965e-12 0)
(-7.5801e-13 -1.27018e-12 0)
(-3.17203e-12 -1.62358e-12 0)
(3.47933e-12 -1.47163e-12 0)
(2.72132e-12 -1.24457e-12 0)
(-5.49728e-13 -2.87497e-12 0)
(-2.39695e-12 -3.17545e-13 0)
(-3.07301e-13 -3.14984e-12 0)
(2.2911e-12 2.2194e-13 0)
(-3.32568e-12 -2.42597e-12 0)
(-1.15409e-12 -8.24592e-13 0)
(5.56557e-13 -1.30603e-12 0)
(-7.78497e-13 -3.89248e-13 0)
(-1.46822e-12 5.90701e-13 0)
(1.39993e-12 -5.95823e-13 0)
(1.16092e-12 5.13876e-13 0)
(1.64235e-12 -7.66546e-13 0)
(-1.11994e-12 2.76571e-13 0)
(1.00385e-12 -8.10934e-13 0)
(1.59114e-12 -4.95097e-14 0)
(1.09946e-12 -1.07555e-13 0)
(2.99448e-12 -1.32481e-12 0)
(-2.94275e-12 2.52236e-12 0)
(-2.83765e-12 1.4597e-12 0)
(-7.53204e-13 1.22907e-12 0)
(-1.22031e-12 7.26929e-13 0)
(-9.57561e-13 8.55383e-13 0)
(-3.50327e-13 4.14554e-13 0)
(-4.84619e-13 7.50284e-13 0)
(-1.07434e-12 1.78083e-13 0)
(1.4305e-12 8.75818e-14 0)
(-9.45884e-13 -3.76602e-13 0)
(-2.37639e-12 -1.22907e-12 0)
(1.98519e-12 -1.62902e-12 0)
(1.34292e-12 -6.77299e-13 0)
(-6.13073e-13 -1.52684e-12 0)
(7.59043e-14 -1.98519e-13 0)
(1.13856e-12 -1.43342e-12 0)
(-1.72828e-12 -7.59043e-14 0)
(1.23782e-12 -1.34292e-12 0)
(5.37169e-13 1.16776e-14 0)
(-1.7458e-12 -8.6998e-13 0)
(8.6998e-13 -1.69617e-12 0)
(1.57647e-13 -1.19111e-12 0)
(-1.18527e-12 -1.88009e-12 0)
(2.48732e-12 -1.66114e-12 0)
(-2.68584e-13 -5.16733e-13 0)
(8.81657e-13 -7.26929e-13 0)
(2.3939e-13 -1.01887e-12 0)
(-1.68741e-12 -4.3499e-13 0)
(2.26545e-12 -1.29621e-12 0)
(6.59783e-12 1.09477e-12 0)
(1.65261e-10 -1.29037e-12 0)
(4.16533e-09 1.69617e-12 0)
(1.0619e-07 8.02833e-13 0)
(2.69455e-06 -2.17028e-11 0)
(6.87008e-05 -3.57976e-10 0)
(0.00181517 -8.90204e-09 0)
(0.0501133 -1.97344e-07 0)
(0.915201 -3.04167e-06 0)
(5.68902 -1.89623e-05 0)
(12.2189 -4.32169e-05 0)
(15.7708 -4.64729e-05 0)
(17.6064 -4.3316e-05 0)
(18.4483 -3.60471e-05 0)
(18.8115 -4.69211e-05 0)
(18.8854 -0.000101934 0)
(18.9382 -0.000213469 0)
(18.9883 -0.00018845 0)
(18.9977 -0.000131756 0)
(18.9626 -0.000132376 0)
(18.9337 -7.12844e-05 0)
(18.9458 6.81625e-05 0)
(18.9688 0.000337129 0)
(18.9801 0.000289925 0)
(18.9657 0.0002197 0)
(18.944 0.00013553 0)
(18.9488 0.00014293 0)
(18.939 5.41477e-05 0)
(18.7948 4.49875e-05 0)
(18.5104 2.5649e-05 0)
(17.6564 2.57038e-05 0)
(15.626 2.59122e-05 0)
(10.939 2.07645e-05 0)
(3.34639 7.49993e-06 0)
(0.286472 5.22526e-07 0)
(0.0100924 2.17004e-08 0)
(0.000333934 8.31232e-10 0)
(1.19266e-05 2.42119e-11 0)
(4.33794e-07 1.64065e-12 0)
(1.58079e-08 1.62699e-12 0)
(5.7197e-10 -1.60138e-12 0)
(2.13028e-11 -1.70723e-15 0)
(-1.88137e-12 -9.73121e-14 0)
(8.77516e-13 -1.61162e-12 0)
(1.19506e-13 -5.3607e-13 0)
(-9.86779e-13 -8.04105e-13 0)
(1.84381e-12 -5.71922e-13 0)
(-1.43749e-12 -1.71235e-12 0)
(1.36578e-13 -9.38976e-14 0)
(-9.7995e-13 -7.93862e-13 0)
(1.06873e-12 -8.1947e-13 0)
(2.59499e-13 -3.7559e-14 0)
(-6.21431e-13 5.78751e-13 0)
(-1.63211e-12 -1.92575e-12 0)
(-8.33128e-13 -1.20189e-12 0)
(-1.46822e-13 -2.22111e-12 0)
(1.05848e-13 -2.71449e-13 0)
(1.71747e-12 -1.81137e-12 0)
(-6.58991e-13 -6.14603e-13 0)
(1.53651e-13 -6.48747e-13 0)
(7.98983e-13 -7.51181e-14 0)
(5.90701e-13 -2.98765e-13 0)
(1.42383e-12 4.38758e-13 0)
(-7.85325e-14 8.75809e-13 0)
(3.89248e-13 -7.17036e-14 0)
(3.7559e-14 3.73883e-13 0)
(-4.78024e-14 -7.28987e-13 0)
(2.28427e-12 8.9971e-13 0)
(1.12336e-12 -3.20959e-13 0)
(1.02434e-12 7.85325e-13 0)
(-7.17036e-14 -5.0534e-13 0)
)
;

boundaryField
{
    sides1
    {
        type            zeroGradient;
    }
    sides2
    {
        type            slip;
    }
    empty
    {
        type            empty;
    }
}


// ************************************************************************* //
