/*--------------------------------*- C++ -*----------------------------------*\
| =========                 |                                                 |
| \\      /  F ield         | OpenFOAM: The Open Source CFD Toolbox           |
|  \\    /   O peration     | Version:  2012                                  |
|   \\  /    A nd           | Website:  www.openfoam.com                      |
|    \\/     M anipulation  |                                                 |
\*---------------------------------------------------------------------------*/
FoamFile
{
    version     2.0;
    format      ascii;
    class       volScalarField;
    location    "0.39";
    object      maxKappa;
}
// * * * * * * * * * * * * * * * * * * * * * * * * * * * * * * * * * * * * * //

dimensions      [0 0 0 0 0 0 0];


internalField   nonuniform List<scalar> 
2268
(
2.75479e-06
5.35299e-06
7.87074e-06
1.04197e-05
1.29845e-05
1.54485e-05
1.76626e-05
1.98916e-05
2.18668e-05
2.35989e-05
2.52758e-05
2.66028e-05
2.74699e-05
2.7972e-05
2.80616e-05
2.80616e-05
2.75964e-05
2.65311e-05
2.47028e-05
2.2001e-05
1.81941e-05
1.34915e-05
7.84766e-06
3.37126e-06
5.64959e-06
8.0748e-06
1.05812e-05
1.31124e-05
1.55485e-05
1.77585e-05
1.99861e-05
2.19482e-05
2.36914e-05
2.53804e-05
2.66506e-05
2.75632e-05
2.81509e-05
2.823e-05
2.823e-05
2.77288e-05
2.66083e-05
2.47493e-05
2.20622e-05
1.82619e-05
1.36099e-05
8.48955e-06
4.25014e-06
6.19123e-06
8.45857e-06
1.08855e-05
1.33533e-05
1.57357e-05
1.79394e-05
2.01617e-05
2.2101e-05
2.38751e-05
2.55442e-05
2.67811e-05
2.77695e-05
2.84367e-05
2.85578e-05
2.85578e-05
2.81401e-05
2.71768e-05
2.56117e-05
2.33148e-05
1.99753e-05
1.5742e-05
1.10464e-05
5.28737e-06
6.93837e-06
9.01442e-06
1.13362e-05
1.37179e-05
1.60247e-05
1.82177e-05
2.04283e-05
2.23374e-05
2.41494e-05
2.57898e-05
2.70194e-05
2.80611e-05
2.87224e-05
2.88738e-05
2.88738e-05
2.84752e-05
2.74978e-05
2.58841e-05
2.3728e-05
2.08249e-05
1.78463e-05
1.47422e-05
6.38893e-06
7.80841e-06
9.68889e-06
1.18952e-05
1.41808e-05
1.64004e-05
1.85789e-05
2.07612e-05
2.26376e-05
2.44971e-05
2.61091e-05
2.73498e-05
2.84386e-05
2.91457e-05
2.94185e-05
2.94185e-05
2.92441e-05
2.85635e-05
2.73401e-05
2.56092e-05
2.31466e-05
2.04183e-05
1.75955e-05
7.56275e-06
8.79548e-06
1.04884e-05
1.2576e-05
1.47605e-05
1.68896e-05
1.90448e-05
2.11773e-05
2.30232e-05
2.4932e-05
2.65208e-05
2.77597e-05
2.89164e-05
2.96272e-05
2.99245e-05
2.99245e-05
2.98006e-05
2.92071e-05
2.80522e-05
2.65814e-05
2.46607e-05
2.35054e-05
2.29373e-05
8.75657e-06
9.83657e-06
1.13612e-05
1.33361e-05
1.54191e-05
1.74616e-05
1.95874e-05
2.16567e-05
2.34931e-05
2.54509e-05
2.69957e-05
2.82909e-05
2.94695e-05
3.02162e-05
3.06717e-05
3.08226e-05
3.08226e-05
3.05504e-05
2.98764e-05
2.89658e-05
2.76014e-05
2.68635e-05
2.62677e-05
9.98753e-06
1.09425e-05
1.23283e-05
1.41949e-05
1.61743e-05
1.81333e-05
2.0218e-05
2.22211e-05
2.40667e-05
2.60365e-05
2.75352e-05
2.8921e-05
3.01509e-05
3.09149e-05
3.14582e-05
3.16456e-05
3.16456e-05
3.1485e-05
3.09374e-05
3.04483e-05
3.06398e-05
3.37374e-05
3.37374e-05
3.86314e-05
7.27331e-05
0.000128737
0.000184854
0.00026838
0.00035761
0.000441004
0.000532279
0.00063777
0.000758014
0.00089065
0.0010717
0.00127978
0.00155756
0.00180661
0.00202384
0.00202384
0.00194679
0.00112108
5.94722e-05
0.000104327
0.000157091
0.00019345
0.000273252
0.000363645
0.000446887
0.000539229
0.000642201
0.00075789
0.000886943
0.00106733
0.00127737
0.00156248
0.00183659
0.00208477
0.00211219
0.00211219
0.00145852
7.72601e-05
9.31782e-05
0.000133498
0.000188189
0.000278191
0.000366455
0.00044644
0.000535361
0.00063848
0.000754691
0.000890238
0.00107415
0.00128506
0.00157868
0.00187774
0.00222559
0.00245214
0.00245214
0.00214079
0.000100196
0.000117568
0.000165474
0.000207906
0.000295421
0.000380866
0.000461364
0.000554019
0.000650556
0.000753504
0.000877649
0.00105615
0.00127315
0.00158136
0.00191762
0.00238648
0.00271214
0.00275384
0.00275384
0.000105065
0.000105065
0.000136818
0.000197876
0.000303772
0.000389879
0.000462544
0.000547431
0.000643413
0.000748306
0.000880127
0.00106445
0.00128441
0.00160061
0.00198598
0.00249828
0.00276965
0.00306801
0.00306801
0.000147911
0.000147911
0.000181214
0.000231989
0.000332977
0.000414025
0.000488068
0.000577695
0.000666061
0.000751173
0.000862587
0.00103109
0.00125287
0.00158463
0.00199871
0.0024561
0.00259551
0.00318779
0.00318779
0.00014723
0.00014723
0.000130239
0.00021431
0.000354936
0.000432391
0.000488256
0.000569884
0.000654841
0.000735769
0.000855527
0.00103286
0.00126027
0.00160144
0.00197536
0.00227205
0.0023928
0.00337496
0.00337496
0.00020919
0.00020919
0.000195394
0.000272198
0.000397509
0.000465553
0.000521708
0.000613153
0.000696992
0.000755716
0.000849334
0.00099718
0.00121802
0.00154217
0.00185662
0.00194899
0.00219717
0.00357411
0.00357411
1.30022e-05
1.3753e-05
1.45057e-05
1.60091e-05
1.77269e-05
1.95037e-05
2.13381e-05
2.34462e-05
2.51488e-05
2.72403e-05
2.88389e-05
3.02754e-05
3.21822e-05
3.2707e-05
3.42661e-05
3.43092e-05
3.54838e-05
3.48854e-05
3.6311e-05
3.73345e-05
4.1164e-05
4.95196e-05
5.46345e-05
2.03554e-05
2.1301e-05
2.22461e-05
2.42558e-05
2.66124e-05
2.91936e-05
3.19541e-05
3.54353e-05
3.7939e-05
4.15316e-05
4.33518e-05
4.56352e-05
4.62555e-05
4.55122e-05
4.43105e-05
4.07347e-05
3.84198e-05
3.7762e-05
3.94952e-05
3.92416e-05
4.24584e-05
4.61566e-05
5.46345e-05
0.000112733
0.000119184
0.000125525
0.000140168
0.000157754
0.000173216
0.00019033
0.00021262
0.000227559
0.000250256
0.000259098
0.000269792
0.000265245
0.000249038
0.000190936
0.000140689
9.5985e-05
7.96594e-05
6.13945e-05
4.35248e-05
4.55935e-05
4.97835e-05
5.28391e-05
0.000397581
0.000403382
0.000414106
0.000431693
0.000450171
0.000471772
0.00050952
0.000547727
0.000585153
0.000621304
0.000649757
0.000670591
0.00068481
0.00068481
0.000676585
0.000638336
0.000602991
0.000547842
0.000372268
0.000116099
0.000103245
7.08996e-05
5.22955e-05
0.000464648
0.000464692
0.00046927
0.000474481
0.000480962
0.000492524
0.000503557
0.000522764
0.000541408
0.000565781
0.000581755
0.000597838
0.000616465
0.000622151
0.000625092
0.000600844
0.000814986
0.000908408
0.000915261
0.000875376
0.000736827
0.00041949
0.000125268
0.000480698
0.000480274
0.000478243
0.00047837
0.000474407
0.000475586
0.00047488
0.000471298
0.000460897
0.00045803
0.000452929
0.000459299
0.000472747
0.000487688
0.000522166
0.000594038
0.000689317
0.000787972
0.000932845
0.000981114
0.000982483
0.000989955
0.000932151
0.000492616
0.000493056
0.000487629
0.000487395
0.00047824
0.000468393
0.000456004
0.000447531
0.000437841
0.000446832
0.000460066
0.000478438
0.000497787
0.000526499
0.000593147
0.000684199
0.000736296
0.000796642
0.000895161
0.000932871
0.00101422
0.00104816
0.00104816
0.000507068
0.000506611
0.000501192
0.000499946
0.000492288
0.000485045
0.000475595
0.000472439
0.000466768
0.000476675
0.000489529
0.000497826
0.000486966
0.000493383
0.000507977
0.000561705
0.00062979
0.000668229
0.000791029
0.000995516
0.0010877
0.00111984
0.00112299
0.000521106
0.000519447
0.00051577
0.00051379
0.000508253
0.000503589
0.000496383
0.000496299
0.000492059
0.000499276
0.000509355
0.00050976
0.000500141
0.000496479
0.000487531
0.000486534
0.000507996
0.000530906
0.000594345
0.000761915
0.000989575
0.00118869
0.00118869
0.000536541
0.000534906
0.000533219
0.000531879
0.000527999
0.000525904
0.000520062
0.00052131
0.000515813
0.000518591
0.000523337
0.000522418
0.00051536
0.000512867
0.000504033
0.000498933
0.000493252
0.000482236
0.000490366
0.000555255
0.000686815
0.000939064
0.00111533
0.000553608
0.000552478
0.000551393
0.000550623
0.000547428
0.000546949
0.000541921
0.000543744
0.000538986
0.000539469
0.000543134
0.000544016
0.000542705
0.000544
0.000539131
0.000536124
0.000528412
0.000518546
0.0005119
0.000508383
0.000510691
0.000615294
0.00080336
0.000572356
0.000571684
0.000571203
0.000570833
0.000568302
0.000569197
0.00056533
0.000567738
0.000564711
0.00056566
0.000569432
0.000573235
0.000575219
0.000579034
0.00057838
0.000578692
0.000577352
0.00057533
0.000578884
0.000581666
0.000588126
0.000610259
0.000646746
0.000591593
0.000591182
0.000590902
0.000591095
0.000589173
0.000591024
0.000588286
0.000591536
0.000591175
0.000593167
0.000597448
0.000601489
0.000605226
0.000610801
0.000612921
0.000616613
0.000618533
0.000622508
0.000632972
0.000642616
0.000667293
0.000702359
0.000746912
0.000612687
0.000612477
0.000612244
0.000613152
0.000611847
0.000614665
0.000612933
0.000616669
0.00061769
0.000620427
0.000624829
0.000629664
0.000634246
0.000640708
0.000645205
0.000651515
0.000658134
0.000668203
0.000684428
0.000702188
0.000735842
0.000773923
0.000824919
0.000633863
0.00063385
0.000634075
0.000635438
0.000634748
0.000638169
0.000637469
0.000641434
0.000643603
0.00064699
0.000652068
0.000657431
0.000663157
0.000670824
0.00067763
0.000687401
0.000698546
0.000714089
0.000735659
0.000759878
0.000799959
0.000840925
0.000898806
0.000656168
0.0006565
0.000656958
0.000658826
0.000658432
0.000662217
0.000662164
0.000666364
0.000669377
0.000673542
0.000679186
0.00068546
0.000692509
0.000701815
0.000711684
0.000724884
0.000740572
0.000760772
0.000786866
0.000817235
0.000861381
0.000906425
0.000971462
0.000679164
0.000679769
0.00068014
0.000682434
0.000682336
0.000686423
0.000687152
0.000691668
0.000695512
0.000700428
0.000707017
0.00071444
0.000723274
0.000734572
0.000747272
0.00076337
0.000782571
0.000806125
0.000836067
0.00087076
0.000918286
0.00096857
0.00104155
0.000702695
0.000703424
0.00070372
0.000706259
0.000706344
0.000710598
0.000711849
0.000716672
0.000721112
0.000726815
0.00073424
0.000742773
0.000753063
0.00076588
0.000780668
0.000798813
0.000820737
0.000847201
0.000880648
0.000919877
0.000971127
0.00103128
0.00110811
0.000726501
0.00072736
0.000727698
0.000730498
0.000730859
0.000735324
0.00073712
0.000742329
0.000747297
0.000753736
0.000761897
0.000771348
0.000782699
0.000796619
0.000812958
0.00083294
0.000857176
0.000886417
0.000922767
0.000966003
0.00102199
0.00109295
0.00116659
0.000751083
0.000751995
0.000752237
0.000755086
0.000755498
0.000759963
0.000761989
0.000767409
0.000772549
0.000779514
0.000787979
0.000798131
0.000810031
0.000825131
0.000842552
0.000864559
0.000890026
0.000921981
0.000959979
0.00100926
0.00106894
0.00114392
0.00121329
0.000775951
0.000776849
0.000776969
0.000779738
0.000780182
0.00078457
0.00078679
0.00079233
0.000797644
0.000805022
0.000813711
0.000824501
0.000836911
0.000852996
0.000870922
0.000894302
0.00091989
0.000953975
0.00099547
0.00104649
0.00110927
0.00118641
0.00124913
0.000801493
0.000802332
0.000802283
0.00080484
0.000805263
0.000809362
0.000811648
0.000817022
0.000822464
0.000829768
0.000838589
0.000849277
0.000862077
0.000877931
0.000896319
0.000919508
0.000947369
0.000982875
0.00102641
0.00107837
0.00114228
0.0012191
0.0012749
0.000827054
0.000827836
0.000827614
0.000829883
0.000830303
0.000833916
0.000836233
0.000841125
0.000846698
0.00085344
0.000862408
0.000872247
0.000885331
0.000900136
0.000918991
0.000940977
0.000970094
0.00100584
0.0010492
0.00110087
0.00116384
0.00123958
0.00129341
0.00085323
0.000853943
0.00085351
0.000855417
0.000855823
0.000858811
0.000861118
0.000865277
0.000870837
0.00087658
0.000885598
0.000894061
0.00090726
0.000920447
0.000939131
0.000960958
0.000989891
0.00102477
0.0010669
0.00111786
0.00117947
0.0012545
0.00130108
0.000878906
0.000879527
0.000878951
0.000880472
0.000880893
0.000883179
0.000885409
0.000888617
0.000894042
0.000898465
0.000907336
0.000914015
0.000926877
0.000937855
0.000955376
0.000976196
0.0010038
0.00103724
0.00107843
0.00112752
0.00118677
0.00125764
0.00130108
0.000904366
0.000904847
0.000904275
0.000905405
0.000905875
0.000907479
0.000909597
0.000911746
0.00091685
0.000919804
0.000928243
0.000932983
0.000944963
0.000953531
0.000969153
0.000987658
0.00101333
0.00104423
0.00108248
0.00112763
0.00118332
0.00124798
0.00129312
0.000928576
0.000928813
0.000928396
0.000929089
0.000929609
0.000930643
0.000932644
0.000933702
0.000938175
0.000939637
0.000947263
0.000950042
0.000960673
0.000966839
0.000979917
0.000996492
0.00101837
0.00104503
0.00107904
0.0011203
0.00117166
0.00123141
0.00127573
0.000951135
0.000951077
0.000950965
0.000951243
0.000951931
0.000952561
0.000954587
0.000954863
0.00095871
0.0009589
0.000965499
0.000966614
0.000975588
0.000979253
0.00098913
0.000999082
0.00101627
0.00103825
0.00106697
0.00110284
0.00114843
0.00120282
0.0012506
0.00097154
0.000971244
0.000971361
0.0009713
0.000972141
0.000972418
0.000974458
0.000974288
0.000977731
0.000976966
0.000982284
0.000981829
0.000988648
0.000989645
0.000996177
0.00100293
0.00101457
0.00102993
0.00105136
0.0010809
0.0011201
0.00116981
0.00121816
0.000989229
0.000988801
0.000989039
0.000988805
0.000989799
0.000989886
0.000991986
0.000991641
0.000994985
0.000993914
0.00099848
0.00099685
0.00100171
0.00100043
0.00100396
0.00100456
0.00100923
0.00101868
0.00103342
0.00105376
0.0010844
0.00112405
0.00117631
0.00100424
0.00100375
0.00100405
0.00100377
0.0010049
0.00100493
0.00100714
0.00100686
0.00101025
0.00100917
0.00101332
0.00101081
0.00101405
0.00101047
0.00101085
0.00100656
0.00100693
0.00100959
0.00101628
0.00102688
0.00104966
0.0010807
0.00112742
0.00101639
0.00101587
0.00101618
0.00101588
0.00101712
0.00101718
0.00101955
0.00101954
0.00102311
0.00102228
0.00102627
0.00102351
0.00102581
0.00102041
0.00101849
0.0010105
0.00100321
0.000999062
0.000997309
0.000996995
0.00100953
0.00103089
0.00107272
0.00102587
0.00102534
0.00102568
0.00102541
0.0010268
0.00102699
0.00102966
0.00103
0.0010338
0.00103342
0.00103744
0.00103491
0.00103657
0.00103002
0.0010262
0.00101705
0.00100777
0.000995654
0.000980727
0.000968045
0.000966392
0.000974052
0.0010092
0.00103284
0.00103229
0.00103261
0.00103236
0.00103387
0.00103418
0.00103709
0.00103773
0.00104179
0.00104189
0.00104604
0.00104398
0.00104543
0.00103865
0.00103379
0.00101971
0.00100515
0.000985373
0.000965567
0.000941215
0.00092438
0.000912828
0.000934371
0.00103768
0.00103711
0.0010374
0.00103715
0.00103877
0.00103916
0.00104227
0.00104319
0.00104754
0.00104814
0.00105253
0.00105098
0.00105246
0.00104575
0.00104044
0.00103002
0.00101547
0.000994633
0.000966802
0.000932121
0.000892254
0.000856081
0.000855902
0.00104063
0.00103997
0.00104018
0.00103987
0.00104149
0.0010419
0.00104515
0.00104626
0.00105084
0.0010518
0.00105639
0.00105524
0.00105688
0.00105038
0.00104509
0.00102924
0.00101178
0.000987223
0.000954626
0.000913372
0.0008648
0.000810337
0.000780799
0.00104239
0.00104164
0.00104174
0.00104133
0.00104289
0.00104327
0.00104656
0.00104775
0.00105243
0.00105353
0.00105827
0.0010573
0.00105916
0.0010539
0.00104872
0.00103878
0.00102266
0.000998366
0.000964188
0.00091826
0.000860689
0.000792837
0.000721704
0.00104292
0.00104211
0.00104212
0.00104156
0.00104301
0.00104327
0.00104656
0.00104775
0.00105243
0.00105353
0.00105827
0.0010573
0.00105916
0.00105273
0.00104763
0.00103412
0.00101587
0.000988965
0.000951468
0.000901085
0.000836669
0.000758665
0.000671007
0.00104335
0.00104245
0.00104231
0.00104156
0.00104301
0.00104327
0.00104647
0.00104756
0.00105219
0.00105323
0.00105798
0.00105696
0.00105889
0.0010532
0.00104791
0.00103761
0.00102095
0.00099568
0.000959535
0.000909398
0.000842022
0.000755895
0.000654916
0.00104335
0.00104245
0.00104231
0.00104155
0.00104284
0.00104289
0.0010459
0.00104675
0.00105117
0.00105193
0.00105648
0.00105513
0.00105691
0.00104987
0.00104472
0.00102854
0.00100968
0.00098202
0.00094327
0.000890871
0.000821929
0.0007333
0.000623183
0.00104286
0.00104183
0.00104156
0.00104064
0.00104174
0.00104154
0.00104431
0.00104483
0.00104896
0.00104934
0.00105356
0.00105173
0.00105314
0.00104548
0.00103989
0.00102717
0.0010093
0.000982732
0.000944855
0.000892322
0.00082129
0.000728066
0.000611503
0.00104286
0.0010418
0.0010414
0.00104026
0.00104114
0.0010406
0.00104303
0.0010431
0.00104679
0.0010466
0.00105031
0.00104778
0.00104861
0.00104015
0.00103398
0.00101599
0.000996277
0.000967796
0.000928576
0.000875486
0.000804724
0.000712015
0.000593264
5.04712e-05
4.08775e-05
4.6599e-05
0.000212597
5.33009e-05
5.27113e-05
5.36701e-05
7.38946e-05
5.39911e-05
5.43763e-05
5.40472e-05
5.28577e-05
5.39911e-05
5.43763e-05
5.47286e-05
5.5062e-05
0.000111671
9.5601e-05
7.57736e-05
5.5676e-05
0.000792679
0.000626477
0.000430854
0.000148739
0.00104148
0.0010753
0.00108757
0.00108098
0.00110543
0.00108719
0.00108757
0.00108098
0.00119972
0.00122233
0.00122035
0.00120276
0.00119972
0.00122233
0.00122035
0.00120596
0.000989381
0.00108162
0.00116554
0.00120596
0.000722016
0.000791791
0.000882431
0.000957569
0.000801523
0.000825467
0.00087007
0.000901219
0.000876348
0.00090713
0.000950994
0.000984723
0.000951359
0.000986976
0.00102722
0.00106624
0.00102816
0.00106674
0.0011062
0.00115205
0.00110219
0.00114234
0.00118468
0.00123483
0.0011719
0.00121454
0.00126156
0.0013141
0.00123215
0.00127761
0.00132886
0.00138357
0.00128117
0.00132979
0.00138591
0.00144676
0.00132021
0.00137257
0.00143383
0.0015014
0.00134848
0.00140398
0.00146689
0.00153497
0.00136672
0.00142085
0.00148049
0.00154397
0.0013694
0.00142085
0.00148049
0.00154397
0.0013694
0.00141813
0.00147474
0.00153341
0.00135682
0.00140126
0.00145707
0.00150987
0.00133689
0.00137647
0.00142867
0.00147353
0.00130752
0.00134178
0.00138916
0.00142673
0.00126904
0.00130095
0.00134134
0.00137803
0.0012193
0.00125122
0.00128258
0.00132367
0.00116092
0.00118961
0.00121422
0.00125311
0.00110136
0.00112574
0.00114617
0.00117734
0.00103779
0.00106206
0.0010823
0.00110972
0.000959764
0.000985091
0.0010063
0.00103455
0.000872936
0.000898365
0.000920257
0.000950187
0.000780481
0.000800708
0.000821911
0.000853985
0.000692151
0.000700808
0.000718173
0.00075313
0.000609496
0.000597992
0.000600505
0.000630171
0.000544991
0.000510904
0.000489904
0.000501752
0.000495986
0.000443667
0.000401186
0.000392553
0.000453893
0.000387599
0.000325666
0.000294282
0.000427519
0.000354738
0.000283484
0.000241938
0.00030334
0.000463939
0.000289105
0.000297268
0.000492355
0.000527503
0.000527503
0.000553808
0.000634119
0.000697389
0.00082224
0.000986716
0.00120533
0.00146309
0.0016367
0.0016367
0.00188051
0.00386946
0.00441481
0.000601867
0.000815309
0.000815309
0.00057525
0.000663273
0.000660716
0.00056753
0.000676353
0.000763383
0.000763383
0.000787298
0.000834811
0.000982236
0.00114475
0.00121126
0.00135668
0.00180262
0.00388994
0.00441481
0.000111197
0.000743927
0.000743927
0.000815589
0.000920013
0.00096312
0.000731776
0.000667904
0.000675643
0.000642427
0.000595953
0.000736652
0.000846483
0.00096384
0.000975509
0.00122065
0.00213628
0.00358394
0.00414521
7.17174e-05
0.000267834
0.000935292
0.00113761
0.00113761
0.00116356
0.0012099
0.00116564
0.00121705
0.00116054
0.000970612
0.000960219
0.000916679
0.00081443
0.00100617
0.00121518
0.00196016
0.0030199
0.00360744
6.19396e-05
7.06695e-05
0.000168199
0.000612211
0.00106812
0.00144409
0.00159846
0.00175013
0.00193775
0.00193775
0.00170784
0.00152249
0.00150773
0.0014526
0.0014109
0.00129289
0.00186436
0.00290896
0.00341883
0.000133049
9.89608e-05
6.93944e-05
0.00010672
0.000178945
0.000388465
0.000567043
0.000681198
0.000843362
0.00104853
0.00113271
0.00154929
0.00198493
0.00198493
0.00185924
0.00155866
0.00171648
0.00176686
0.00272798
0.000967675
0.000635915
0.000235429
0.000154093
0.000139946
0.00013305
0.000134311
0.000136197
0.000135815
0.00015701
0.000183571
0.000275644
0.000624073
0.000962622
0.00133655
0.00192869
0.00192869
0.0018936
0.00128861
0.00135653
0.00135653
0.00131319
0.00115104
0.000995662
0.00089992
0.000888692
0.000885817
0.00085636
0.000765743
0.000567909
0.000219037
0.000196095
0.000151545
0.000204918
0.000560663
0.000886916
0.000757251
0.000433046
0.00118524
0.00140703
0.00157913
0.00169003
0.00176407
0.00182557
0.00187417
0.00190422
0.00190422
0.0018921
0.00179978
0.00168109
0.00144754
0.00098767
0.000230698
0.000141066
0.000145801
0.000119395
0.000132573
0.00135687
0.00135687
0.0012774
0.0012916
0.00137834
0.00153206
0.00168047
0.0018381
0.00202745
0.00219035
0.00229008
0.00232866
0.00232866
0.00226012
0.001841
0.000863052
0.000161132
7.54023e-05
0.000224504
0.00139343
0.00145923
0.00146888
0.00146888
0.00144149
0.00138502
0.00132186
0.00129418
0.00133854
0.00138918
0.0014671
0.00156589
0.00192056
0.00197977
0.00180928
0.00135936
0.000517468
9.27169e-05
0.000366044
0.00113161
0.00128339
0.00141811
0.00150534
0.00154563
0.00154563
0.00153016
0.00144022
0.00128601
0.00107365
0.00086894
0.00086582
0.000998715
0.00137914
0.00143706
0.00139913
0.0006644
0.000122434
0.000523178
0.00110946
0.00123593
0.00135336
0.00144416
0.00150985
0.00154722
0.00154722
0.00153368
0.00146056
0.00129988
0.00106397
0.000771648
0.00105081
0.00136727
0.00134221
0.00115453
0.000545845
0.000144624
0.000790152
0.00119585
0.0013164
0.00143687
0.00154219
0.00162513
0.00167383
0.00168224
0.00168224
0.00164071
0.00154509
0.0013969
0.00127649
0.00151134
0.00147282
0.00132754
0.000971569
0.000367455
0.000231875
0.00106034
0.00127337
0.00140045
0.00152945
0.00165114
0.00175877
0.00183337
0.001874
0.001874
0.00187312
0.00184589
0.0018226
0.00193438
0.00205985
0.00172946
0.00120091
0.000704495
0.000211625
0.000436124
0.00106034
0.00136907
0.0015162
0.00167016
0.00182206
0.00196516
0.0020734
0.00214982
0.00219437
0.00223225
0.00225933
0.00241839
0.00268495
0.00264049
0.00198678
0.00122465
0.000614014
0.000173914
0.000413324
0.00100737
0.0014652
0.00163395
0.00181589
0.0020236
0.00222276
0.00238191
0.00250869
0.00259981
0.00268752
0.0028027
0.00314253
0.00333112
0.00346117
0.00234075
0.00122782
0.000723655
0.000204206
0.000322413
0.000784292
0.00157859
0.00178815
0.0020369
0.00231439
0.00254468
0.00274013
0.00293296
0.00310548
0.00322595
0.00337882
0.00362778
0.00408789
0.00410778
0.00341567
0.00158853
0.000679526
0.000256213
0.000406259
0.000733063
0.00170043
0.00197268
0.0022744
0.00254803
0.00274825
0.00296948
0.00321877
0.00351625
0.0037976
0.00398358
0.00411726
0.00441302
0.00441302
0.00429521
0.0026006
0.000935263
0.000313388
0.000630906
0.000742028
0.0018299
0.00214744
0.00243445
0.00261466
0.00273561
0.00293042
0.00321872
0.0035997
0.00405271
0.00448487
0.00462825
0.00472335
0.00472335
0.00463724
0.00363303
0.00162529
0.00041391
0.000431521
0.000742028
0.00193537
0.00224252
0.00241856
0.00242011
0.00242011
0.00251538
0.00287132
0.00341107
0.00397851
0.00459297
0.00493738
0.00497786
0.00497786
0.00481771
0.00414569
0.00251068
0.000922637
0.000548428
0.000735452
0.00198478
0.00222189
0.00224277
0.00224277
0.00206371
0.00212465
0.00255629
0.00325175
0.00391529
0.00455893
0.00505807
0.00516761
0.00516761
0.00496858
0.00442259
0.00321632
0.00149699
0.000777401
0.000877281
0.00198643
0.0021553
0.0021553
0.00205221
0.00179018
0.00201624
0.00232883
0.00291782
0.00378644
0.00459661
0.00507434
0.00524031
0.00524031
0.00505779
0.00451595
0.00352747
0.00177972
0.00107726
0.00113533
0.00196638
0.00208346
0.00208346
0.00192252
0.00165174
0.00192987
0.00204374
0.00250102
0.00345299
0.00443817
0.00501243
0.00524464
0.00524464
0.00512696
0.00468699
0.00394181
0.00226637
0.00119068
0.00139772
0.00192148
0.00202493
0.00202493
0.00184764
0.00154707
0.00182725
0.00182725
0.00188213
0.00289608
0.00419038
0.00493097
0.00520914
0.00520914
0.00507631
0.00463153
0.00399977
0.0025128
0.00132588
0.00172209
0.00186587
0.00199689
0.00199689
0.001795
0.00138232
0.0017788
0.0017788
0.00141797
0.00242759
0.00411753
0.00489022
0.0051101
0.0051101
0.00502041
0.00464158
0.00408065
0.00268421
0.001627
0.00214037
0.00180426
0.00194896
0.00194896
0.00170548
0.00120287
0.0016652
0.0016652
0.00143136
0.00265659
0.00425287
0.00490372
0.0050353
0.0050353
0.00482645
0.0044103
0.00386935
0.00257975
0.00180268
0.0023737
0.00173484
0.00182501
0.00182501
0.00167682
0.00112178
0.0014015
0.00171161
0.00207474
0.00324703
0.00435782
0.00476728
0.00482677
0.00482677
0.00465292
0.00422734
0.00363281
0.00258434
0.00196927
0.00254375
0.00166173
0.00172752
0.00172752
0.00168277
0.00102411
0.00109018
0.00192058
0.00262741
0.00365478
0.00453597
0.00501153
0.00501153
0.00495152
0.0043834
0.00361644
0.00295815
0.00223946
0.00213799
0.00272711
0.00157847
0.00164081
0.00164081
0.00161723
0.00107193
0.00106699
0.00205935
0.00305251
0.00407628
0.00478034
0.00505671
0.00505671
0.00477137
0.00420726
0.00344989
0.00269948
0.00217158
0.00267872
0.00337976
0.00147234
0.00153967
0.00153967
0.00148823
0.00112702
0.00138828
0.00226516
0.00327947
0.00428961
0.00499171
0.00545421
0.00545421
0.0051596
0.00376206
0.00200193
0.00169005
0.00197388
0.00278385
0.00337976
0.00137403
0.00145646
0.00145646
0.0014025
0.00113732
0.00179777
0.00255311
0.00320775
0.00408929
0.00465764
0.00465764
0.00446669
0.00287388
0.00211969
0.00199861
0.00222001
0.00248942
0.00318562
0.00392112
0.00129945
0.00140803
0.00140803
0.00139336
0.00119998
0.00198279
0.00301849
0.00329347
0.00363506
0.00368832
0.00375571
0.00265701
0.00186042
0.00149817
0.00143338
0.00203276
0.00263411
0.00408192
0.0048113
0.00120506
0.00131504
0.00134964
0.00134964
0.00121535
0.00171142
0.00315375
0.00355265
0.00355265
0.00349352
0.00283837
0.00211796
0.00183951
0.00133224
0.00131233
0.00188807
0.00268512
0.0045621
0.00559765
0.00112726
0.00127118
0.00139361
0.00139361
0.00132405
0.00150955
0.00290246
0.00352252
0.00352252
0.00338398
0.00278215
0.00199108
0.00180254
0.00163287
0.00157509
0.00211032
0.00292123
0.0052147
0.00622832
0.00100584
0.00115572
0.00134405
0.00141977
0.00141977
0.00142023
0.00244685
0.00327085
0.00327085
0.003207
0.0026565
0.00199267
0.00204284
0.00211054
0.00217606
0.00229445
0.00316433
0.00570859
0.00665742
0.000928706
0.00109539
0.00132219
0.00151766
0.00157769
0.00157769
0.00201287
0.0027552
0.00289965
0.00289965
0.00242734
0.00190412
0.00168075
0.00177233
0.00184238
0.00207638
0.00354014
0.00617538
0.00698222
0.000771077
0.000957016
0.00121159
0.00150393
0.00175362
0.0018675
0.00193521
0.00226021
0.00249123
0.00239816
0.00197975
0.00144015
0.00127518
0.00148444
0.00167154
0.0020251
0.00372972
0.00657644
0.00716068
0.000659029
0.000877717
0.00115057
0.00148028
0.00183327
0.0021475
0.00224802
0.00224802
0.00217321
0.00196995
0.00157106
0.00108736
0.000805033
0.00111791
0.00161139
0.00219108
0.00395756
0.00674692
0.00723414
0.000521313
0.000750415
0.00100209
0.00127684
0.00158277
0.00190191
0.00211749
0.00211749
0.00209537
0.00185919
0.00147431
0.00100329
0.000657746
0.000443221
0.00139935
0.00240759
0.00427569
0.0069244
0.00726936
0.000381744
0.000631392
0.000950438
0.00127547
0.00157527
0.00184259
0.00204477
0.00210905
0.00210905
0.0020105
0.00178996
0.00153171
0.00127929
0.000991897
0.00116719
0.00269142
0.00452687
0.00697777
0.00736056
0.000436589
0.000693071
0.000942978
0.00116194
0.0013502
0.00151233
0.00165167
0.00173903
0.00175016
0.00173815
0.00164016
0.00146591
0.00132469
0.00123381
0.00126867
0.00240724
0.00486181
0.007247
0.00736056
)
;

boundaryField
{
    leftWall
    {
        type            calculated;
        value           uniform 0;
    }
    rightWall
    {
        type            calculated;
        value           uniform 0;
    }
    lowerWall
    {
        type            calculated;
        value           uniform 0;
    }
    atmosphere
    {
        type            calculated;
        value           uniform 0;
    }
    defaultFaces
    {
        type            empty;
    }
}


// ************************************************************************* //
