/*--------------------------------*- C++ -*----------------------------------*\
| =========                 |                                                 |
| \\      /  F ield         | OpenFOAM: The Open Source CFD Toolbox           |
|  \\    /   O peration     | Version:  2012                                  |
|   \\  /    A nd           | Website:  www.openfoam.com                      |
|    \\/     M anipulation  |                                                 |
\*---------------------------------------------------------------------------*/
FoamFile
{
    version     2.0;
    format      ascii;
    class       volScalarField;
    location    "0.39";
    object      p_rgh;
}
// * * * * * * * * * * * * * * * * * * * * * * * * * * * * * * * * * * * * * //

dimensions      [1 -1 -2 0 0 0 0];


internalField   nonuniform List<scalar> 
2268
(
102289
102289
102289
102290
102291
102293
102296
102301
102310
102317
102335
102347
102377
102400
102443
102480
102539
102591
102666
102726
102803
102852
102892
102288
102288
102288
102289
102290
102292
102296
102300
102309
102316
102334
102346
102376
102399
102442
102479
102538
102590
102665
102726
102803
102853
102892
102286
102287
102287
102287
102289
102291
102294
102298
102306
102314
102331
102343
102372
102394
102438
102474
102534
102585
102661
102723
102803
102858
102903
102284
102284
102285
102285
102286
102288
102291
102296
102303
102311
102328
102339
102369
102391
102435
102470
102530
102583
102659
102723
102804
102861
102901
102281
102281
102281
102282
102283
102284
102287
102291
102298
102305
102322
102333
102362
102382
102426
102461
102521
102572
102650
102714
102801
102862
102923
102278
102278
102278
102278
102279
102281
102283
102287
102294
102301
102317
102328
102356
102376
102419
102454
102513
102566
102644
102714
102802
102874
102922
102273
102273
102273
102273
102274
102275
102277
102280
102286
102293
102307
102318
102344
102363
102406
102440
102500
102551
102632
102698
102793
102862
102944
102268
102268
102268
102268
102269
102270
102272
102275
102281
102287
102300
102311
102336
102355
102396
102428
102487
102538
102619
102691
102790
102883
102954
103108
103108
103108
103108
103109
103109
103109
103109
103109
103109
103109
103109
103109
103109
103110
103110
103110
103113
103113
103108
103108
103108
103108
103109
103109
103109
103109
103109
103109
103109
103109
103109
103109
103110
103110
103110
103112
103114
103108
103108
103108
103108
103109
103109
103109
103109
103109
103109
103109
103109
103109
103109
103109
103110
103110
103112
103113
103108
103108
103108
103108
103109
103109
103109
103109
103109
103109
103109
103109
103109
103109
103109
103109
103109
103111
103112
103108
103108
103108
103108
103108
103108
103109
103109
103109
103109
103109
103109
103109
103109
103109
103109
103108
103110
103111
103108
103108
103108
103108
103108
103108
103109
103109
103109
103109
103109
103109
103109
103109
103109
103108
103107
103108
103110
103108
103108
103108
103108
103108
103108
103108
103108
103109
103109
103109
103109
103109
103108
103108
103107
103107
103107
103109
103107
103108
103108
103108
103108
103108
103108
103108
103109
103108
103109
103108
103109
103108
103108
103107
103106
103106
103108
102258
102258
102258
102257
102257
102257
102258
102260
102264
102268
102279
102289
102311
102328
102368
102398
102460
102508
102595
102658
102773
102837
102955
102244
102244
102244
102243
102243
102242
102243
102244
102248
102251
102259
102268
102285
102300
102332
102357
102410
102453
102539
102612
102736
102851
103016
102183
102180
102178
102173
102167
102160
102154
102145
102143
102137
102143
102150
102167
102193
102235
102279
102343
102393
102470
102538
102626
102733
102877
101627
101621
101617
101607
101596
101585
101575
101561
101556
101546
101549
101553
101568
101595
101644
101720
101851
102034
102259
102435
102535
102670
102804
101335
101335
101335
101335
101336
101336
101336
101336
101336
101336
101336
101336
101337
101337
101337
101337
101342
101376
101468
101640
101937
102351
102601
101335
101335
101335
101335
101335
101335
101336
101336
101336
101336
101336
101336
101337
101337
101337
101337
101338
101338
101339
101344
101371
101497
101777
101335
101335
101335
101335
101335
101335
101336
101336
101336
101336
101336
101336
101336
101337
101337
101337
101337
101338
101338
101338
101339
101341
101355
101335
101335
101335
101335
101335
101335
101335
101336
101336
101336
101336
101336
101336
101337
101337
101337
101337
101338
101338
101338
101339
101339
101340
101335
101335
101335
101335
101335
101335
101335
101335
101336
101336
101336
101336
101336
101336
101337
101337
101337
101337
101338
101338
101339
101339
101339
101335
101335
101335
101335
101335
101335
101335
101335
101335
101336
101336
101336
101336
101336
101337
101337
101337
101337
101338
101338
101338
101339
101339
101335
101335
101335
101335
101335
101335
101335
101335
101335
101335
101336
101336
101336
101336
101336
101337
101337
101337
101337
101338
101338
101338
101339
101335
101335
101335
101335
101335
101335
101335
101335
101335
101335
101335
101336
101336
101336
101336
101336
101337
101337
101337
101338
101338
101338
101339
101334
101334
101334
101334
101335
101335
101335
101335
101335
101335
101335
101335
101336
101336
101336
101336
101336
101337
101337
101337
101338
101338
101338
101334
101334
101334
101334
101334
101334
101335
101335
101335
101335
101335
101335
101335
101336
101336
101336
101336
101336
101337
101337
101337
101338
101338
101334
101334
101334
101334
101334
101334
101334
101334
101334
101335
101335
101335
101335
101335
101335
101336
101336
101336
101336
101337
101337
101337
101338
101334
101334
101334
101334
101334
101334
101334
101334
101334
101334
101335
101335
101335
101335
101335
101335
101336
101336
101336
101336
101337
101337
101337
101334
101334
101334
101334
101334
101334
101334
101334
101334
101334
101334
101334
101335
101335
101335
101335
101335
101335
101336
101336
101336
101336
101337
101333
101333
101333
101333
101333
101334
101334
101334
101334
101334
101334
101334
101334
101334
101335
101335
101335
101335
101335
101336
101336
101336
101336
101333
101333
101333
101333
101333
101333
101333
101333
101333
101334
101334
101334
101334
101334
101334
101334
101335
101335
101335
101335
101335
101336
101336
101333
101333
101333
101333
101333
101333
101333
101333
101333
101333
101333
101333
101334
101334
101334
101334
101334
101334
101335
101335
101335
101335
101335
101333
101333
101333
101333
101333
101333
101333
101333
101333
101333
101333
101333
101333
101333
101333
101334
101334
101334
101334
101334
101334
101335
101335
101332
101332
101332
101332
101332
101332
101332
101333
101333
101333
101333
101333
101333
101333
101333
101333
101333
101334
101334
101334
101334
101334
101334
101332
101332
101332
101332
101332
101332
101332
101332
101332
101332
101332
101332
101333
101333
101333
101333
101333
101333
101333
101333
101333
101333
101334
101332
101332
101332
101332
101332
101332
101332
101332
101332
101332
101332
101332
101332
101332
101332
101332
101333
101333
101333
101333
101333
101333
101333
101331
101331
101331
101331
101331
101331
101331
101332
101332
101332
101332
101332
101332
101332
101332
101332
101332
101332
101332
101332
101332
101332
101332
101331
101331
101331
101331
101331
101331
101331
101331
101331
101331
101331
101331
101331
101332
101332
101332
101332
101332
101332
101332
101332
101332
101332
101331
101331
101331
101331
101331
101331
101331
101331
101331
101331
101331
101331
101331
101331
101331
101331
101331
101331
101331
101331
101331
101332
101331
101330
101330
101330
101330
101330
101330
101330
101330
101331
101331
101331
101331
101331
101331
101331
101331
101331
101331
101331
101331
101331
101331
101331
101330
101330
101330
101330
101330
101330
101330
101330
101330
101330
101330
101330
101330
101330
101330
101330
101330
101331
101331
101331
101331
101331
101331
101330
101330
101330
101330
101330
101330
101330
101330
101330
101330
101330
101330
101330
101330
101330
101330
101330
101330
101330
101330
101330
101330
101330
101329
101329
101329
101329
101329
101329
101329
101329
101329
101329
101329
101330
101330
101330
101330
101330
101330
101330
101330
101330
101330
101330
101330
101329
101329
101329
101329
101329
101329
101329
101329
101329
101329
101329
101329
101329
101329
101329
101329
101329
101329
101329
101329
101329
101329
101329
101329
101329
101329
101329
101329
101329
101329
101329
101329
101329
101329
101329
101329
101329
101329
101329
101329
101329
101329
101329
101329
101329
101329
101328
101328
101328
101328
101328
101328
101328
101328
101328
101328
101328
101328
101328
101328
101328
101328
101328
101328
101328
101329
101329
101329
101329
101328
101328
101328
101328
101328
101328
101328
101328
101328
101328
101328
101328
101328
101328
101328
101328
101328
101328
101328
101328
101328
101328
101328
101327
101327
101327
101327
101327
101327
101327
101328
101328
101328
101328
101328
101328
101328
101328
101328
101328
101328
101328
101328
101328
101328
101328
101327
101327
101327
101327
101327
101327
101327
101327
101327
101327
101327
101327
101327
101327
101327
101327
101327
101327
101327
101327
101327
101327
101327
101327
101327
101327
101327
101327
101327
101327
101327
101327
101327
101327
101327
101327
101327
101327
101327
101327
101327
101327
101327
101327
101327
101327
101326
101326
101326
101326
101326
101326
101326
101326
101326
101326
101326
101326
101326
101326
101326
101326
101326
101326
101326
101326
101326
101326
101326
101326
101326
101326
101326
101326
101326
101326
101326
101326
101326
101326
101326
101326
101326
101326
101326
101326
101326
101326
101326
101326
101326
101326
101326
101326
101326
101326
101326
101326
101326
101326
101326
101326
101326
101326
101326
101326
101326
101326
101326
101326
101326
101326
101326
101326
101326
101325
101325
101325
101325
101325
101325
101325
101325
101325
101325
101325
101325
101325
101325
101325
101325
101325
101325
101325
101325
101325
101325
101325
102883
103285
103444
103263
103151
103264
103315
103493
102989
103111
103214
103355
102904
103000
103080
103193
102718
102808
102888
102984
102055
102302
102537
102717
101385
101438
101517
101616
101340
101340
101342
101345
101340
101340
101340
101340
101340
101340
101340
101340
101339
101340
101340
101340
101339
101339
101339
101340
101339
101339
101339
101339
101338
101339
101339
101339
101338
101338
101338
101338
101338
101338
101338
101338
101337
101337
101337
101337
101337
101337
101337
101337
101336
101336
101336
101336
101335
101335
101336
101336
101335
101335
101335
101335
101334
101334
101334
101334
101334
101334
101334
101334
101333
101333
101333
101333
101332
101332
101332
101332
101332
101332
101332
101332
101331
101331
101331
101331
101331
101331
101331
101331
101331
101331
101331
101330
101330
101330
101330
101330
101330
101330
101330
101330
101329
101329
101329
101329
101329
101329
101329
101329
101329
101329
101329
101329
101328
101328
101328
101328
101328
101328
101328
101328
101327
101327
101327
101327
101327
101327
101327
101327
101326
101326
101327
101327
101326
101326
101326
101326
101326
101326
101326
101326
101325
101325
101325
101325
103107
103107
103108
103107
103108
103108
103108
103108
103108
103108
103108
103108
103108
103108
103108
103106
103105
103104
103106
103530
103145
103108
103108
103108
103107
103108
103108
103108
103108
103108
103108
103108
103107
103107
103106
103105
103105
103106
103532
103459
103110
103106
103106
103107
103107
103107
103107
103107
103108
103107
103108
103107
103107
103106
103106
103105
103106
103356
103609
103562
103165
103107
103106
103107
103106
103107
103106
103107
103107
103107
103107
103107
103106
103107
103107
103108
103125
103383
103609
103785
103650
103400
103309
103254
103191
103130
103107
103106
103106
103106
103107
103105
103108
103105
103146
102869
103099
103323
103476
103634
103779
103833
103870
103884
103875
103784
103600
103370
103124
103107
103105
103107
103108
103660
101925
102497
102871
103100
103249
103348
103418
103477
103540
103625
103727
103878
103953
104070
103868
103441
103221
103303
104234
101359
101488
101717
102019
102331
102524
102601
102660
102743
102879
103071
103293
103460
103679
103908
104140
104281
104470
105047
101341
101342
101349
101362
101403
101460
101499
101529
101572
101652
101791
102000
102322
102843
103423
103808
104273
104649
104969
101341
101341
101342
101343
101343
101344
101346
101347
101349
101352
101358
101369
101403
101544
101949
103103
103945
104411
104362
101340
101341
101342
101343
101343
101344
101345
101346
101347
101348
101349
101350
101352
101356
101360
101966
103509
104118
103903
101340
101341
101341
101342
101343
101343
101344
101345
101347
101348
101349
101350
101351
101352
101355
101506
102995
103890
103454
101340
101340
101341
101342
101342
101343
101344
101345
101346
101347
101348
101349
101350
101351
101357
101581
103050
103813
103070
101339
101340
101340
101341
101342
101342
101343
101344
101345
101346
101347
101348
101349
101350
101362
101848
103304
103703
102450
101339
101339
101340
101340
101341
101342
101343
101343
101344
101345
101346
101347
101347
101350
101389
102356
103405
103395
102302
101338
101339
101339
101340
101340
101341
101342
101342
101343
101344
101344
101345
101345
101346
101527
102852
103496
103435
102290
101338
101338
101339
101339
101340
101340
101341
101341
101342
101342
101343
101342
101342
101336
101426
102470
103464
103508
102582
101337
101338
101338
101338
101339
101339
101339
101340
101340
101341
101341
101340
101340
101335
101345
101600
102984
103224
102431
101336
101337
101337
101337
101337
101337
101338
101338
101339
101339
101339
101338
101338
101335
101337
101335
102445
102356
101852
101336
101336
101336
101336
101336
101336
101336
101336
101337
101337
101338
101337
101338
101335
101338
101335
101759
102824
101865
101335
101335
101335
101335
101335
101334
101335
101334
101335
101335
101336
101336
101337
101336
101338
101336
101367
102847
101885
101334
101334
101334
101334
101334
101333
101333
101333
101333
101333
101334
101334
101336
101336
101338
101337
101338
102846
101916
101334
101333
101333
101333
101333
101332
101332
101331
101331
101331
101332
101333
101335
101336
101338
101338
101338
101946
102550
101333
101333
101332
101332
101332
101331
101330
101328
101328
101329
101330
101332
101334
101335
101338
101337
101339
101354
102577
101332
101332
101332
101331
101331
101330
101329
101327
101326
101327
101329
101331
101334
101335
101338
101337
101339
101337
102563
101332
101331
101331
101330
101330
101329
101328
101325
101324
101325
101328
101330
101334
101335
101338
101337
101340
101337
102353
101331
101331
101331
101330
101330
101329
101328
101325
101324
101325
101328
101330
101334
101334
101338
101337
101341
101337
102454
101331
101330
101330
101330
101330
101329
101328
101326
101325
101326
101328
101330
101334
101335
101339
101337
101342
101338
102606
101331
101330
101330
101329
101330
101330
101329
101327
101327
101327
101329
101330
101334
101335
101339
101337
101341
101338
102646
101330
101330
101330
101329
101330
101330
101330
101329
101328
101328
101329
101330
101332
101334
101341
101339
101343
101343
102054
101330
101330
101330
101330
101330
101330
101331
101330
101329
101328
101329
101328
101333
101335
101340
101338
101342
101341
101355
101329
101329
101329
101329
101329
101330
101330
101330
101330
101329
101328
101327
101323
101514
101475
101352
101348
101342
101345
101329
101329
101329
101329
101329
101329
101330
101330
101329
101329
101327
101327
101742
103195
103272
102037
101360
101341
101340
101329
101328
101328
101328
101328
101329
101328
101329
101329
101327
101327
101327
102313
103529
103538
102753
101386
101337
101337
101328
101328
101328
101328
101328
101327
101327
101328
101328
101328
101327
101327
101697
102877
103063
102168
101355
101330
101332
101328
101328
101328
101327
101327
101326
101327
101327
101328
101327
101328
101328
101345
101454
101462
101382
101339
101328
101329
101327
101327
101327
101327
101327
101326
101326
101327
101327
101328
101328
101328
101327
101326
101326
101326
101328
101326
101328
101327
101327
101327
101327
101327
101326
101326
101326
101327
101327
101328
101327
101327
101326
101326
101325
101326
101325
101326
101327
101327
101327
101326
101326
101326
101326
101326
101327
101327
101328
101327
101327
101326
101326
101325
101326
101325
101326
101326
101326
101326
101326
101326
101326
101326
101326
101327
101327
101327
101326
101326
101326
101326
101325
101326
101325
101325
101326
101326
101326
101326
101326
101326
101326
101326
101326
101326
101326
101326
101326
101326
101326
101325
101325
101325
101326
101325
101325
101325
101325
101325
101325
101325
101325
101325
101325
101325
101325
101325
101325
101325
101324
101325
101325
101326
)
;

boundaryField
{
    leftWall
    {
        type            zeroGradient;
    }
    rightWall
    {
        type            zeroGradient;
    }
    lowerWall
    {
        type            zeroGradient;
    }
    atmosphere
    {
        type            fixedValue;
        value           uniform 101325;
    }
    defaultFaces
    {
        type            empty;
    }
}


// ************************************************************************* //
