/*--------------------------------*- C++ -*----------------------------------*\
| =========                 |                                                 |
| \\      /  F ield         | OpenFOAM: The Open Source CFD Toolbox           |
|  \\    /   O peration     | Version:  2012                                  |
|   \\  /    A nd           | Website:  www.openfoam.com                      |
|    \\/     M anipulation  |                                                 |
\*---------------------------------------------------------------------------*/
FoamFile
{
    version     2.0;
    format      ascii;
    class       volScalarField;
    location    "0.39";
    object      rho;
}
// * * * * * * * * * * * * * * * * * * * * * * * * * * * * * * * * * * * * * //

dimensions      [1 -3 0 0 0 0 0];


internalField   nonuniform List<scalar> 
2268
(
1000.05
1000.05
1000.05
1000.05
1000.05
1000.05
1000.05
1000.05
1000.05
1000.05
1000.05
1000.05
1000.05
1000.05
1000.05
1000.05
1000.05
1000.05
1000.05
1000.05
1000.05
1000.05
999.388
1000.05
1000.05
1000.05
1000.05
1000.05
1000.05
1000.05
1000.05
1000.05
1000.05
1000.05
1000.05
1000.05
1000.05
1000.05
1000.05
1000.05
1000.05
1000.05
1000.05
1000.05
1000.05
999.523
1000.05
1000.05
1000.05
1000.05
1000.05
1000.05
1000.05
1000.05
1000.05
1000.05
1000.05
1000.05
1000.05
1000.05
1000.05
1000.05
1000.05
1000.05
1000.05
1000.05
1000.05
1000.05
1000.03
1000.05
1000.05
1000.05
1000.05
1000.05
1000.05
1000.05
1000.05
1000.05
1000.05
1000.05
1000.05
1000.05
1000.05
1000.05
1000.05
1000.05
1000.05
1000.05
1000.05
1000.05
1000.05
999.995
1000.05
1000.05
1000.05
1000.05
1000.05
1000.05
1000.05
1000.05
1000.05
1000.05
1000.05
1000.05
1000.05
1000.05
1000.05
1000.05
1000.05
1000.05
1000.05
1000.05
1000.05
1000.05
998.768
1000.05
1000.05
1000.05
1000.05
1000.05
1000.05
1000.05
1000.05
1000.05
1000.05
1000.05
1000.05
1000.05
1000.05
1000.05
1000.05
1000.05
1000.05
1000.05
1000.05
1000.05
1000.05
998.673
1000.05
1000.05
1000.05
1000.05
1000.05
1000.05
1000.05
1000.05
1000.05
1000.05
1000.05
1000.05
1000.05
1000.05
1000.05
1000.05
1000.05
1000.05
1000.05
1000.05
1000.05
1000.05
998.689
1000.05
1000.05
1000.05
1000.05
1000.05
1000.05
1000.05
1000.05
1000.05
1000.05
1000.05
1000.05
1000.05
1000.05
1000.05
1000.05
1000.05
1000.05
1000.05
1000.05
1000.05
1000.05
998.689
1.30944
1.30944
1.30944
1.30944
1.30944
1.30944
1.30944
1.30944
1.30944
1.30944
1.30944
1.30944
1.30944
1.30944
1.30945
1.30945
1.30945
1.30947
1.30947
1.30944
1.30944
1.30944
1.30944
1.30944
1.30944
1.30944
1.30944
1.30944
1.30944
1.30944
1.30944
1.30944
1.30944
1.30944
1.30945
1.30943
1.30941
1.30943
1.30944
1.30943
1.30944
1.30943
1.30944
1.30944
1.30944
1.30944
1.30944
1.30944
1.30944
1.30944
1.30944
1.30944
1.30944
1.30943
1.30937
1.30937
1.30961
1.30944
1.30943
1.30943
1.30943
1.30944
1.30943
1.30944
1.30944
1.30944
1.30944
1.30944
1.30944
1.30944
1.30944
1.30943
1.30938
1.30931
1.3097
1.31045
1.30943
1.30943
1.30943
1.30943
1.30943
1.30943
1.30943
1.30943
1.30944
1.30943
1.30944
1.30944
1.30944
1.30943
1.30941
1.30933
1.30935
1.31021
1.31079
1.30943
1.30943
1.30943
1.30943
1.30943
1.30943
1.30943
1.30943
1.30943
1.30943
1.30944
1.30943
1.30944
1.30943
1.30937
1.30927
1.30941
1.31027
1.31058
1.30943
1.30943
1.30943
1.30943
1.30943
1.30943
1.30943
1.30943
1.30943
1.30943
1.30943
1.30943
1.30943
1.30941
1.30932
1.3092
1.30936
1.30992
1.30991
1.30958
1.30947
1.30943
1.30943
1.30943
1.30943
1.30943
1.30943
1.30943
1.30943
1.30943
1.30943
1.30943
1.3094
1.30926
1.3091
1.30915
1.30955
1.30949
1000.05
1000.05
1000.05
1000.05
1000.05
1000.05
1000.05
1000.05
1000.05
1000.05
1000.05
1000.05
1000.05
1000.05
1000.05
1000.05
1000.05
1000.05
1000.05
1000.05
1000.05
1000.05
998.691
999.999
999.993
999.99
999.977
999.961
999.942
999.922
999.887
999.877
999.848
999.865
999.884
999.93
999.986
1000.03
1000.05
1000.05
1000.05
1000.05
1000.05
1000.05
1000.05
999.491
943.894
941.259
939.628
934.981
929.357
923.523
917.658
909.176
906.341
899.882
902.724
906.209
917.424
934.488
957.287
979.371
998.855
1000.05
1000.05
1000.05
1000.05
1000.05
1000.05
301.36
295.668
291.326
281.16
269.729
258.321
247.225
232.597
227.342
216.879
219.955
223.648
238.801
266.635
316.424
394.314
527.599
700.359
892.967
1000.05
1000.05
1000.05
1000.05
1.29339
1.29339
1.29339
1.29339
1.29339
1.2934
1.2934
1.2934
1.29341
1.29341
1.29341
1.29341
1.29341
1.29342
1.29343
1.29344
5.72129
36.1398
119.967
277.677
543.909
880.249
1000.05
1.29333
1.29333
1.29333
1.29333
1.29333
1.29333
1.29333
1.29333
1.29333
1.29333
1.29333
1.29339
1.2935
1.29349
1.29339
1.29333
1.29334
1.29335
2.01935
6.08358
27.7132
130.07
354.423
1.2933
1.2933
1.2933
1.2933
1.2933
1.2933
1.2933
1.2933
1.2933
1.2933
1.29357
1.29488
1.29558
1.2948
1.29346
1.29331
1.29331
1.29332
1.29341
1.29518
1.35967
2.76567
13.2473
1.29329
1.29329
1.29329
1.29329
1.29329
1.29329
1.29329
1.29329
1.29329
1.29329
1.2949
1.29578
1.29578
1.29479
1.29338
1.29331
1.29331
1.29331
1.29406
1.29416
1.29506
1.29615
1.31073
1.29328
1.29328
1.29328
1.29328
1.29328
1.29329
1.29329
1.29329
1.29329
1.29329
1.29474
1.29529
1.29425
1.2933
1.29334
1.29336
1.29333
1.29331
1.29407
1.30688
1.31037
1.29972
1.29974
1.29328
1.29328
1.29328
1.29328
1.29328
1.29328
1.29328
1.29329
1.29329
1.29336
1.29329
1.29329
1.29329
1.2933
1.29332
1.29337
1.29337
1.29332
1.29331
1.29467
1.31017
1.33303
1.33376
1.29328
1.29328
1.29328
1.29328
1.29328
1.29328
1.29328
1.29328
1.29329
1.29329
1.29329
1.29329
1.29329
1.29329
1.2933
1.29333
1.29334
1.29331
1.2933
1.29331
1.29331
1.29331
1.29849
1.29328
1.29328
1.29328
1.29328
1.29328
1.29328
1.29328
1.29328
1.29328
1.29328
1.29328
1.29329
1.29329
1.29329
1.29329
1.29329
1.2933
1.2933
1.2933
1.2933
1.29331
1.29331
1.29331
1.29327
1.29327
1.29327
1.29327
1.29327
1.29328
1.29328
1.29328
1.29328
1.29328
1.29328
1.29328
1.29328
1.29329
1.29329
1.29329
1.29329
1.29329
1.2933
1.2933
1.2933
1.29331
1.29331
1.29327
1.29327
1.29327
1.29327
1.29327
1.29327
1.29327
1.29327
1.29327
1.29328
1.29328
1.29328
1.29328
1.29328
1.29328
1.29329
1.29329
1.29329
1.29329
1.2933
1.2933
1.2933
1.29331
1.29327
1.29327
1.29327
1.29327
1.29327
1.29327
1.29327
1.29327
1.29327
1.29327
1.29327
1.29327
1.29328
1.29328
1.29328
1.29328
1.29328
1.29329
1.29329
1.29329
1.29329
1.2933
1.2933
1.29326
1.29326
1.29326
1.29326
1.29326
1.29326
1.29326
1.29327
1.29327
1.29327
1.29327
1.29327
1.29327
1.29327
1.29328
1.29328
1.29328
1.29328
1.29328
1.29329
1.29329
1.29329
1.29329
1.29326
1.29326
1.29326
1.29326
1.29326
1.29326
1.29326
1.29326
1.29326
1.29326
1.29326
1.29327
1.29327
1.29327
1.29327
1.29327
1.29327
1.29328
1.29328
1.29328
1.29328
1.29329
1.29329
1.29325
1.29325
1.29325
1.29325
1.29325
1.29326
1.29326
1.29326
1.29326
1.29326
1.29326
1.29326
1.29326
1.29326
1.29327
1.29327
1.29327
1.29327
1.29327
1.29328
1.29328
1.29328
1.29328
1.29325
1.29325
1.29325
1.29325
1.29325
1.29325
1.29325
1.29325
1.29325
1.29325
1.29326
1.29326
1.29326
1.29326
1.29326
1.29326
1.29326
1.29327
1.29327
1.29327
1.29327
1.29327
1.29328
1.29324
1.29324
1.29324
1.29325
1.29325
1.29325
1.29325
1.29325
1.29325
1.29325
1.29325
1.29325
1.29325
1.29325
1.29326
1.29326
1.29326
1.29326
1.29326
1.29326
1.29327
1.29327
1.29327
1.29324
1.29324
1.29324
1.29324
1.29324
1.29324
1.29324
1.29324
1.29324
1.29324
1.29325
1.29325
1.29325
1.29325
1.29325
1.29325
1.29325
1.29325
1.29326
1.29326
1.29326
1.29326
1.29326
1.29323
1.29323
1.29323
1.29323
1.29324
1.29324
1.29324
1.29324
1.29324
1.29324
1.29324
1.29324
1.29324
1.29324
1.29325
1.29325
1.29325
1.29325
1.29325
1.29325
1.29325
1.29325
1.29325
1.29323
1.29323
1.29323
1.29323
1.29323
1.29323
1.29323
1.29323
1.29323
1.29323
1.29323
1.29324
1.29324
1.29324
1.29324
1.29324
1.29324
1.29324
1.29324
1.29325
1.29325
1.29325
1.29325
1.29322
1.29322
1.29322
1.29322
1.29322
1.29322
1.29322
1.29323
1.29323
1.29323
1.29323
1.29323
1.29323
1.29323
1.29323
1.29323
1.29324
1.29324
1.29324
1.29324
1.29324
1.29324
1.29324
1.29321
1.29321
1.29321
1.29321
1.29321
1.29322
1.29322
1.29322
1.29322
1.29322
1.29322
1.29322
1.29322
1.29323
1.29323
1.29323
1.29323
1.29323
1.29323
1.29323
1.29323
1.29323
1.29323
1.2932
1.2932
1.2932
1.2932
1.2932
1.29321
1.29321
1.29321
1.29321
1.29321
1.29321
1.29321
1.29322
1.29322
1.29322
1.29322
1.29322
1.29322
1.29323
1.29323
1.29323
1.29323
1.29323
1.29319
1.29319
1.29319
1.29319
1.29319
1.29319
1.29319
1.2932
1.2932
1.2932
1.2932
1.2932
1.29321
1.29321
1.29321
1.29321
1.29321
1.29322
1.29322
1.29322
1.29322
1.29322
1.29322
1.29317
1.29317
1.29317
1.29317
1.29317
1.29318
1.29318
1.29318
1.29318
1.29318
1.29319
1.29319
1.29319
1.2932
1.2932
1.2932
1.29321
1.29321
1.29321
1.29321
1.29321
1.29322
1.29321
1.29315
1.29315
1.29315
1.29315
1.29316
1.29316
1.29316
1.29316
1.29316
1.29317
1.29317
1.29317
1.29318
1.29318
1.29318
1.29319
1.29319
1.2932
1.2932
1.2932
1.29321
1.29321
1.29321
1.29314
1.29314
1.29314
1.29314
1.29314
1.29314
1.29314
1.29314
1.29314
1.29315
1.29315
1.29315
1.29316
1.29316
1.29317
1.29317
1.29318
1.29318
1.29319
1.2932
1.2932
1.2932
1.2932
1.29312
1.29312
1.29312
1.29312
1.29312
1.29312
1.29313
1.29313
1.29313
1.29313
1.29313
1.29313
1.29314
1.29314
1.29315
1.29315
1.29316
1.29317
1.29318
1.29318
1.29319
1.29319
1.2932
1.29311
1.29311
1.29311
1.29311
1.29311
1.29311
1.29311
1.29311
1.29311
1.29312
1.29312
1.29312
1.29312
1.29313
1.29313
1.29313
1.29314
1.29315
1.29316
1.29317
1.29318
1.29319
1.29319
1.2931
1.2931
1.2931
1.2931
1.2931
1.2931
1.2931
1.2931
1.2931
1.2931
1.2931
1.29311
1.29311
1.29311
1.29311
1.29312
1.29312
1.29313
1.29314
1.29315
1.29316
1.29318
1.29318
1.29309
1.29309
1.29309
1.29309
1.29309
1.29309
1.29309
1.29309
1.29309
1.29309
1.29309
1.2931
1.2931
1.2931
1.2931
1.29311
1.29311
1.29312
1.29312
1.29314
1.29315
1.29316
1.29317
1.29308
1.29308
1.29308
1.29308
1.29308
1.29308
1.29308
1.29308
1.29308
1.29309
1.29309
1.29309
1.29309
1.29309
1.29309
1.2931
1.2931
1.29311
1.29311
1.29312
1.29313
1.29315
1.29316
1.29308
1.29308
1.29308
1.29308
1.29308
1.29308
1.29308
1.29308
1.29308
1.29308
1.29308
1.29308
1.29308
1.29308
1.29309
1.29309
1.29309
1.2931
1.2931
1.29311
1.29312
1.29313
1.29315
1.29307
1.29307
1.29307
1.29307
1.29307
1.29307
1.29307
1.29307
1.29307
1.29307
1.29307
1.29307
1.29307
1.29308
1.29308
1.29308
1.29308
1.29309
1.29309
1.2931
1.29311
1.29312
1.29313
1.29307
1.29307
1.29307
1.29307
1.29307
1.29307
1.29307
1.29307
1.29307
1.29307
1.29307
1.29307
1.29307
1.29307
1.29307
1.29307
1.29308
1.29308
1.29309
1.29309
1.2931
1.29311
1.29312
1.29307
1.29307
1.29307
1.29307
1.29307
1.29307
1.29307
1.29307
1.29307
1.29307
1.29307
1.29307
1.29307
1.29307
1.29307
1.29307
1.29307
1.29308
1.29308
1.29309
1.29309
1.2931
1.29311
1.29307
1.29307
1.29307
1.29307
1.29307
1.29307
1.29307
1.29307
1.29307
1.29307
1.29307
1.29307
1.29307
1.29307
1.29307
1.29307
1.29308
1.29308
1.29308
1.29309
1.29309
1.2931
1.29311
1.29307
1.29307
1.29307
1.29307
1.29307
1.29307
1.29307
1.29307
1.29307
1.29307
1.29307
1.29307
1.29307
1.29307
1.29307
1.29307
1.29308
1.29308
1.29308
1.29309
1.29309
1.2931
1.29311
1.29307
1.29307
1.29307
1.29307
1.29307
1.29307
1.29307
1.29307
1.29307
1.29307
1.29307
1.29307
1.29307
1.29307
1.29307
1.29307
1.29307
1.29308
1.29308
1.29309
1.29309
1.2931
1.29311
999.288
1000.05
978.025
297.489
999.723
1000.05
993.314
988.121
1000.05
1000.05
999.977
1000.03
1000.05
1000.05
1000.05
1000.05
1000.05
1000.05
1000.05
1000.05
568.294
748.043
903.429
998.552
34.7703
74.1378
132.834
205.782
1.38101
1.62708
2.3796
4.08079
1.30064
1.3015
1.30111
1.30112
1.33378
1.33389
1.32936
1.30223
1.32981
1.3339
1.33388
1.32578
1.29332
1.29377
1.29532
1.29669
1.29331
1.29331
1.29332
1.29332
1.29331
1.29331
1.29331
1.29331
1.2933
1.2933
1.29331
1.29331
1.2933
1.2933
1.2933
1.2933
1.29329
1.29329
1.29329
1.29329
1.29328
1.29329
1.29329
1.29329
1.29328
1.29328
1.29328
1.29328
1.29327
1.29327
1.29327
1.29327
1.29326
1.29326
1.29326
1.29326
1.29326
1.29326
1.29326
1.29326
1.29325
1.29325
1.29325
1.29325
1.29324
1.29324
1.29324
1.29324
1.29323
1.29323
1.29323
1.29323
1.29323
1.29323
1.29323
1.29323
1.29322
1.29322
1.29322
1.29322
1.29322
1.29321
1.29321
1.29321
1.29321
1.29321
1.29321
1.29321
1.2932
1.2932
1.2932
1.2932
1.2932
1.2932
1.2932
1.2932
1.29319
1.29319
1.29319
1.29319
1.29319
1.29319
1.29319
1.29319
1.29318
1.29318
1.29318
1.29318
1.29317
1.29317
1.29317
1.29317
1.29316
1.29317
1.29317
1.29317
1.29315
1.29316
1.29316
1.29316
1.29314
1.29315
1.29315
1.29316
1.29312
1.29313
1.29314
1.29315
1.29312
1.29313
1.29313
1.29314
1.29312
1.29312
1.29313
1.29314
1.29312
1.29313
1.29314
1.29315
1.31666
1.30991
1.30962
1.30942
1.30942
1.30942
1.30943
1.30942
1.30943
1.30943
1.30943
1.30942
1.30942
1.30937
1.30916
1.30891
1.30882
1.30933
1.30925
712.888
64.8291
1.92587
1.30971
1.30944
1.30942
1.30942
1.30942
1.30943
1.30942
1.30943
1.30942
1.30942
1.30937
1.30917
1.30873
1.30848
1.30924
1.3092
1000.05
490.801
6.64023
1.31031
1.30975
1.309
1.30866
1.30947
1.30944
1.30946
1.30947
1.30945
1.30944
1.3094
1.30928
1.30888
1.30886
1.31197
1.31005
1000.05
949.552
551.528
69.6592
1.31069
1.30661
1.30561
1.30734
1.30979
1.30968
1.30928
1.3095
1.30958
1.30971
1.30969
1.30923
1.3094
1.32332
1.37622
1000.05
999.615
978.924
816.23
562.504
304.403
210.603
153.398
88.5752
25.4243
1.31045
1.30748
1.30805
1.30918
1.3095
1.30946
1.30981
1.31099
34.5302
1000.05
1000.05
1000.05
998.088
989.373
949.39
908.625
869.344
813.24
735.641
619.609
452.193
241.712
18.0631
1.31078
1.30886
1.52833
1.31351
434.025
432.612
808.715
978.44
1000.01
1000.01
1000.01
1000.01
1000.01
1000.01
1000.01
999.554
984.276
927.216
819.378
624.688
276.626
91.0846
141.105
754.203
13.1936
100.726
254.771
454.624
649.344
752.609
781.489
798.591
825.085
870.275
935.337
999.966
999.966
999.966
995.098
933.856
833.085
816.822
904.806
1.31725
1.97779
5.26841
13.1217
38.2655
73.8046
97.5948
115.53
141.28
190.579
274.587
398.149
574.038
810.379
995.114
995.114
990.993
990.993
951.538
1.29342
1.29343
1.29391
1.29717
1.318
1.38671
1.4818
1.60421
1.90472
2.88641
5.61753
11.3063
30.4732
108.37
331.691
803.812
988.174
990.993
772.446
1.29362
1.29335
1.29336
1.29337
1.29337
1.29338
1.29338
1.2934
1.29343
1.29354
1.2943
1.29932
1.44696
2.49893
1.29469
306.614
898.285
990.972
734.468
1.29419
1.29333
1.29334
1.29335
1.29335
1.29336
1.29337
1.29338
1.2934
1.29342
1.29342
1.29342
1.29346
1.2946
1.29463
79.7425
761.404
990.971
691.428
1.29333
1.29334
1.29333
1.29334
1.29335
1.29335
1.29336
1.29337
1.29338
1.2934
1.2934
1.29341
1.29342
1.29369
1.61562
112.178
771.567
990.971
598.063
1.29332
1.29332
1.29333
1.29333
1.29334
1.29334
1.29335
1.29336
1.29337
1.29338
1.29339
1.2934
1.2934
1.29536
5.75527
228.863
844.211
964.028
365.707
1.29331
1.29331
1.29332
1.29332
1.29333
1.29334
1.29334
1.29335
1.29336
1.29337
1.29338
1.29338
1.29339
1.31598
18.2207
436.505
844.21
814.796
309.831
1.2933
1.29331
1.29331
1.29332
1.29332
1.29333
1.29334
1.29334
1.29335
1.29335
1.29336
1.29336
1.29337
1.47442
74.6185
612.313
844.217
798.521
309.824
1.2933
1.2933
1.29331
1.29332
1.29333
1.29332
1.29333
1.29334
1.29334
1.29334
1.29334
1.29333
1.29334
1.38358
34.0951
441.025
807.722
806.221
433.057
1.29329
1.29329
1.2933
1.29332
1.2934
1.2934
1.29334
1.29332
1.29336
1.29336
1.29334
1.29331
1.29331
1.30471
4.61169
98.4275
602.294
670.295
375.193
1.29328
1.29328
1.29329
1.29329
1.29337
1.29343
1.29344
1.29338
1.29332
1.29333
1.29334
1.2933
1.2933
1.29329
1.58018
1.29332
398.785
340.838
159.495
1.29327
1.29328
1.29328
1.29338
1.29337
1.29337
1.29389
1.29326
1.29327
1.29327
1.29329
1.29329
1.2933
1.29327
1.2933
1.29329
144.724
497.296
158.704
1.29327
1.29327
1.29326
1.29638
1.30434
1.29763
1.29388
1.29996
1.31427
1.29498
1.29328
1.2933
1.29329
1.29327
1.29329
1.29329
10.7438
497.471
163.785
1.29326
1.29325
1.29325
1.30142
1.31394
1.31173
1.29386
1.35739
1.36954
1.33925
1.29703
1.29345
1.29328
1.29326
1.29329
1.29329
1.29335
478.323
163.798
1.29325
1.29324
1.29323
1.29497
1.31173
1.33224
1.32105
1.29622
1.35419
1.46345
1.34411
1.29379
1.29326
1.29326
1.29328
1.2933
1.29335
185.861
359.086
1.29324
1.29324
1.29328
1.29327
1.29327
1.3315
1.33173
1.29615
1.36394
1.46342
1.37728
1.29355
1.29325
1.29326
1.29328
1.29329
1.29334
6.01916
359.281
1.29323
1.29323
1.29337
1.29342
1.29485
1.30204
1.30544
1.2961
1.33308
1.46339
1.38142
1.2963
1.29324
1.29325
1.29328
1.29328
1.29333
1.29329
346.974
1.29323
1.29322
1.29326
1.29509
1.2952
1.29361
1.29358
1.29607
1.35373
1.46336
1.46199
1.30426
1.29324
1.29325
1.29328
1.29328
1.30921
1.29326
277.648
1.29322
1.29321
1.29337
1.29541
1.29402
1.29361
1.29372
1.30306
1.42351
1.46336
1.46341
1.29625
1.29323
1.29324
1.29328
1.29327
1.54732
1.29322
295.42
1.29321
1.29321
1.29326
1.29448
1.29727
1.29362
1.29454
1.30103
1.39464
1.46338
1.38594
1.29318
1.29323
1.29324
1.2933
1.30553
1.5695
1.29322
324.647
1.29321
1.2932
1.2932
1.29318
1.29725
1.29402
1.29398
1.29623
1.3074
1.33543
1.29656
1.29319
1.29323
1.29323
1.29457
1.41584
1.5067
1.7785
324.706
1.2932
1.2932
1.2932
1.29324
1.29372
1.29348
1.29393
1.29475
1.29334
1.29315
1.29319
1.29318
1.29321
1.29323
1.29502
1.35837
1.33694
2.13413
170.901
1.2932
1.29319
1.29319
1.29319
1.29332
1.2965
1.29349
1.2937
1.29343
1.29317
1.29318
1.29319
1.29326
1.29327
1.2933
1.29328
1.29333
1.46486
3.73339
1.29319
1.29319
1.29319
1.29318
1.29359
1.29954
1.29328
1.2933
1.29351
1.29321
1.29348
1.2957
1.29331
44.1512
31.0778
3.62415
1.97836
1.3164
1.29322
1.29319
1.29318
1.29318
1.29318
1.29326
1.29625
1.29337
1.29326
1.29329
1.29326
1.2933
1.29341
92.4427
414.585
431.206
156.602
5.31607
1.30125
1.29279
1.29318
1.29318
1.29318
1.29317
1.29316
1.29494
1.30444
1.29565
1.29327
1.29328
1.29328
1.29341
212.54
472.422
472.447
304.813
12.0986
1.29907
1.29286
1.29317
1.29317
1.29317
1.29317
1.29316
1.29363
1.30905
1.3113
1.3006
1.29375
1.29325
1.29333
78.3185
323.513
362.881
175.626
6.76321
1.29615
1.29288
1.29317
1.29317
1.29317
1.29316
1.29315
1.29322
1.29965
1.31143
1.30331
1.29361
1.29322
1.5455
5.02258
27.0429
28.6643
12.5602
3.70335
1.30094
1.29288
1.29316
1.29316
1.29316
1.29316
1.29315
1.29314
1.29516
1.30785
1.29887
1.2936
1.35342
1.44484
1.33038
1.31431
1.30871
1.29802
1.67835
1.33583
1.29286
1.29316
1.29316
1.29316
1.29316
1.29315
1.29313
1.29321
1.29687
1.31576
1.32141
1.34526
1.30046
1.29331
1.29305
1.29304
1.29301
1.30034
1.33188
1.29314
1.29315
1.29315
1.29315
1.29315
1.29315
1.29315
1.29316
1.29779
1.30906
1.30755
1.29507
1.29314
1.29312
1.29308
1.29305
1.29301
1.29303
1.3057
1.29305
1.29315
1.29315
1.29315
1.29315
1.29315
1.29315
1.29327
1.2937
1.29384
1.29321
1.29314
1.29312
1.29307
1.29335
1.29414
1.29296
1.29303
1.29352
1.29296
1.29314
1.29314
1.29314
1.29314
1.29314
1.29315
1.29315
1.29315
1.29315
1.29313
1.29309
1.29296
1.29295
1.29753
1.29956
1.29682
1.293
1.29308
1.29282
1.29315
1.29316
1.29315
1.29314
1.29313
1.29313
1.29313
1.29313
1.29312
1.29309
1.29302
1.29292
1.29276
1.2926
1.29272
1.30436
1.2962
1.29311
1.29273
)
;

boundaryField
{
    leftWall
    {
        type            calculated;
        value           nonuniform List<scalar> 
50
(
1000.05
1000.05
1000.05
1000.05
1000.05
1000.05
1000.05
1000.05
1000.05
999.999
943.894
301.36
1.29339
1.29333
1.2933
1.29329
1.29328
1.29328
1.29328
1.29328
1.29327
1.29327
1.29327
1.29326
1.29326
1.29325
1.29325
1.29324
1.29324
1.29323
1.29323
1.29322
1.29321
1.2932
1.29319
1.29317
1.29315
1.29314
1.29312
1.29311
1.2931
1.29309
1.29308
1.29308
1.29307
1.29307
1.29307
1.29307
1.29307
1.29307
)
;
    }
    rightWall
    {
        type            calculated;
        value           nonuniform List<scalar> 
50
(
1.30947
1.30943
1.30961
1.31045
1.31079
1.31058
1.30991
1.30949
1.30925
1.3092
1.31005
1.37622
34.5302
434.025
754.203
904.806
951.538
772.446
734.468
691.428
598.063
365.707
309.831
309.824
433.057
375.193
159.495
158.704
163.785
163.798
359.086
359.281
346.974
277.648
295.42
324.647
324.706
170.901
3.73339
1.29322
1.29279
1.29286
1.29288
1.29288
1.29286
1.29314
1.29305
1.29296
1.29282
1.29273
)
;
    }
    lowerWall
    {
        type            calculated;
        value           nonuniform List<scalar> 
62
(
1000.05
1000.05
1000.05
1000.05
1000.05
1000.05
1000.05
1000.05
1000.05
1000.05
1000.05
1000.05
1000.05
1000.05
1000.05
1000.05
1000.05
1000.05
1000.05
1000.05
1000.05
1000.05
999.388
999.388
999.523
1000.03
999.995
998.768
998.673
998.689
998.689
999.288
1000.05
978.025
297.49
1.30944
1.30944
1.30944
1.30944
1.30943
1.30943
1.30943
1.30958
1.30944
1.30944
1.30944
1.30944
1.30944
1.30944
1.30944
1.30944
1.30944
1.30944
1.30944
1.30944
1.30945
1.30944
1.30945
1.30945
1.30945
1.30947
1.30947
)
;
    }
    atmosphere
    {
        type            calculated;
        value           nonuniform List<scalar> 
46
(
1.29316
1.29316
1.29316
1.29316
1.29316
1.29316
1.29316
1.29316
1.29316
1.29316
1.29316
1.29316
1.29316
1.29316
1.29316
1.29316
1.29316
1.29317
1.29317
1.29318
1.29318
1.29319
1.2932
1.29321
1.29322
1.29323
1.29323
1.29324
1.29324
1.29324
1.29323
1.29322
1.29322
1.29322
1.29322
1.29321
1.29318
1.29312
1.29301
1.29282
1.2927
1.29264
1.30446
1.29629
1.2932
1.29281
)
;
    }
    defaultFaces
    {
        type            empty;
    }
}


// ************************************************************************* //
