/*--------------------------------*- C++ -*----------------------------------*\
| =========                 |                                                 |
| \\      /  F ield         | OpenFOAM: The Open Source CFD Toolbox           |
|  \\    /   O peration     | Version:  2012                                  |
|   \\  /    A nd           | Website:  www.openfoam.com                      |
|    \\/     M anipulation  |                                                 |
\*---------------------------------------------------------------------------*/
FoamFile
{
    version     2.0;
    format      ascii;
    class       volScalarField;
    location    "0.39";
    object      rhogh;
}
// * * * * * * * * * * * * * * * * * * * * * * * * * * * * * * * * * * * * * //

dimensions      [1 -1 -2 0 0 0 0];


internalField   nonuniform List<scalar> 
2268
(
-29.4294
-29.4294
-29.4294
-29.4294
-29.4294
-29.4294
-29.4294
-29.4294
-29.4294
-29.4294
-29.4294
-29.4294
-29.4294
-29.4294
-29.4294
-29.4294
-29.4294
-29.4294
-29.4294
-29.4294
-29.4294
-29.4294
-29.4097
-88.2881
-88.2881
-88.2881
-88.2881
-88.2881
-88.2881
-88.2881
-88.2881
-88.2881
-88.2881
-88.2881
-88.2881
-88.2881
-88.2881
-88.2881
-88.2881
-88.2881
-88.2881
-88.2881
-88.2881
-88.2881
-88.2881
-88.2411
-147.147
-147.147
-147.147
-147.147
-147.147
-147.147
-147.147
-147.147
-147.147
-147.147
-147.147
-147.147
-147.147
-147.147
-147.147
-147.147
-147.147
-147.147
-147.147
-147.147
-147.147
-147.147
-147.143
-206.006
-206.006
-206.006
-206.006
-206.006
-206.006
-206.006
-206.006
-206.006
-206.006
-206.006
-206.006
-206.006
-206.006
-206.006
-206.006
-206.006
-206.006
-206.006
-206.006
-206.006
-206.006
-205.993
-264.864
-264.864
-264.864
-264.864
-264.864
-264.864
-264.864
-264.864
-264.864
-264.864
-264.864
-264.864
-264.864
-264.864
-264.864
-264.864
-264.864
-264.864
-264.864
-264.864
-264.864
-264.864
-264.523
-323.723
-323.723
-323.723
-323.723
-323.723
-323.723
-323.723
-323.723
-323.723
-323.723
-323.723
-323.723
-323.723
-323.723
-323.723
-323.723
-323.723
-323.723
-323.723
-323.723
-323.723
-323.723
-323.275
-382.582
-382.582
-382.582
-382.582
-382.582
-382.582
-382.582
-382.582
-382.582
-382.582
-382.582
-382.582
-382.582
-382.582
-382.582
-382.582
-382.582
-382.582
-382.582
-382.582
-382.582
-382.582
-382.059
-441.44
-441.44
-441.44
-441.44
-441.44
-441.44
-441.44
-441.44
-441.44
-441.44
-441.44
-441.44
-441.44
-441.44
-441.44
-441.44
-441.44
-441.44
-441.44
-441.44
-441.44
-441.44
-440.837
-7.82874e-21
-6.8984e-20
-4.23425e-19
-1.06915e-18
-1.1998e-18
-6.87402e-19
-2.11292e-19
-4.54799e-20
-9.39955e-21
-1.77609e-20
-3.04163e-19
-6.97741e-18
-1.3227e-16
-2.01873e-15
-2.37466e-14
-2.19857e-13
-1.63782e-12
-8.50219e-12
-1.36266e-11
-1.12702e-18
-1.73847e-17
-9.95667e-17
-2.15342e-16
-2.20679e-16
-1.24224e-16
-4.59804e-17
-1.10031e-17
-2.12586e-18
-2.41362e-18
-2.77749e-17
-5.57217e-16
-9.70342e-15
-1.3641e-13
-1.48729e-12
-1.2455e-11
-8.16072e-11
-3.93428e-10
-6.66433e-10
-8.27048e-17
-1.32588e-15
-6.66629e-15
-1.44769e-14
-1.3718e-14
-7.37238e-15
-2.90136e-15
-7.16216e-16
-1.50764e-16
-1.3618e-16
-8.02987e-16
-1.28666e-14
-1.97964e-13
-2.4859e-12
-2.43565e-11
-1.80205e-10
-1.01674e-09
-4.41035e-09
-7.46951e-09
-3.08809e-15
-5.3232e-14
-2.58426e-13
-5.11002e-13
-4.38779e-13
-2.21763e-13
-8.84383e-14
-2.2005e-14
-5.68636e-15
-4.91751e-15
-1.39199e-14
-1.51523e-13
-2.04087e-12
-2.28381e-11
-2.01174e-10
-1.33263e-09
-6.64699e-09
-1.76622e-08
-2.28592e-08
-8.40742e-14
-1.35415e-12
-5.95032e-12
-1.08657e-11
-8.14267e-12
-4.00821e-12
-1.73124e-12
-4.51531e-13
-1.39882e-13
-1.23813e-13
-2.23365e-13
-1.31571e-12
-1.41509e-11
-1.34002e-10
-1.00818e-09
-5.49996e-09
-1.98248e-08
-3.15533e-08
-3.44554e-08
-1.07388e-12
-2.00052e-11
-9.05054e-11
-1.49622e-10
-1.00701e-10
-4.99435e-11
-2.2146e-11
-5.91418e-12
-2.47001e-12
-2.3956e-12
-3.31965e-12
-8.8385e-12
-7.14384e-11
-5.70315e-10
-3.56376e-09
-1.50902e-08
-3.35476e-08
-4.1568e-08
-4.24253e-08
-6.08933e-12
-7.70039e-12
-7.58463e-10
-1.17497e-09
-7.16168e-10
-4.07118e-10
-2.07007e-10
-6.15337e-11
-3.27049e-11
-3.62993e-11
-4.30202e-11
-5.97671e-11
-2.93444e-10
-1.81611e-09
-9.18569e-09
-2.85611e-08
-4.53181e-08
-4.93734e-08
-4.95551e-08
-3.53753e-08
-1.7709e-05
-8.75284e-10
-1.99063e-08
-5.46366e-09
-2.42105e-09
-1.4646e-09
-4.64423e-10
-3.2977e-10
-4.73023e-10
-5.58539e-10
-4.44778e-10
-1.05466e-09
-4.77871e-09
-2.03456e-08
-4.42741e-08
-5.82414e-08
-5.64533e-08
-5.65499e-08
-533.467
-533.467
-533.467
-533.467
-533.467
-533.467
-533.467
-533.467
-533.467
-533.467
-533.467
-533.467
-533.467
-533.467
-533.467
-533.467
-533.467
-533.467
-533.467
-533.467
-533.467
-533.467
-532.739
-658.626
-658.621
-658.619
-658.611
-658.6
-658.588
-658.575
-658.552
-658.545
-658.526
-658.537
-658.55
-658.58
-658.617
-658.646
-658.659
-658.662
-658.662
-658.662
-658.662
-658.662
-658.662
-658.29
-739.78
-737.712
-736.432
-732.785
-728.371
-723.792
-719.189
-712.533
-710.307
-705.238
-707.469
-710.204
-719.006
-732.398
-750.292
-767.624
-782.915
-783.856
-783.856
-783.856
-783.856
-783.856
-783.853
-273.115
-267.934
-263.982
-254.729
-244.324
-233.941
-223.842
-210.527
-205.745
-196.221
-199.021
-202.382
-216.175
-241.508
-286.825
-357.719
-479.032
-636.274
-811.582
-909.051
-909.051
-909.051
-909.051
-1.14355e-34
5.55477e-34
2.91837e-33
-7.42746e-30
-3.13538e-29
-1.60751e-28
8.14656e-28
-4.89664e-29
9.44785e-21
-4.36155e-25
6.44485e-25
-1.6581e-23
1.34536e-23
-2.31364e-23
7.77048e-24
-3.86589e-25
-4.58515
-36.0843
-122.89
-286.203
-561.894
-910.184
-1034.25
-5.76987e-16
-3.66032e-14
-1.34471e-12
-3.19062e-11
-4.83165e-10
-5.61259e-09
-1.39666e-08
-1.01507e-08
-1.38963e-27
-6.32042e-07
-7.24631e-06
-7.70063e-05
-0.000201339
-0.000197945
-6.91656e-05
-3.14293e-06
-1.24191e-06
-1.24014e-06
-0.842755
-5.56078
-30.67
-149.494
-409.941
-3.8228e-15
-2.39279e-13
-8.22737e-12
-1.70557e-10
-2.45354e-09
-2.68402e-08
-4.93314e-08
-4.45424e-08
-1.76252e-09
-2.89792e-11
-0.000341142
-0.00203239
-0.00292683
-0.0019275
-0.000192442
-3.16848e-06
-2.18763e-06
-7.67989e-06
-0.000114246
-0.00235859
-0.0852675
-1.89366
-15.3754
-6.84584e-15
-4.16883e-13
-1.38384e-11
-2.6894e-10
-3.75834e-09
-4.01604e-08
-6.30764e-08
-7.87871e-08
-1.04237e-08
-3.18868e-11
-0.00226231
-0.00350388
-0.00350439
-0.00209953
-0.000105056
-1.07668e-05
-2.88371e-06
-2.84691e-06
-0.001048
-0.00118329
-0.00243786
-0.00395448
-0.0244909
-8.26834e-15
-4.99153e-13
-1.63402e-11
-3.09443e-10
-4.20263e-09
-4.42863e-08
-5.7148e-08
-1.61676e-07
-8.2154e-08
-1.70546e-09
-0.00222027
-0.00306541
-0.00146878
-2.0061e-08
-6.44122e-05
-9.41917e-05
-4.26312e-05
-3.09458e-06
-0.00116419
-0.0208591
-0.0262135
-0.00983403
-0.00983389
-8.45391e-15
-4.99864e-13
-1.58131e-11
-2.83375e-10
-3.29471e-09
-3.42112e-08
-2.47041e-08
-4.60579e-07
-1.3759e-06
-0.00011092
-2.18032e-08
-2.17008e-08
-2.16971e-08
-2.17008e-08
-3.71323e-05
-0.000109081
-0.000109208
-1.6105e-05
-8.63093e-07
-0.00225977
-0.0280178
-0.0660121
-0.0672171
-5.63598e-15
-3.14622e-13
-9.34289e-12
-1.56444e-10
-1.56949e-09
-1.61436e-08
-1.93803e-09
-9.48291e-07
-5.69121e-06
-1.1827e-06
-1.01774e-07
-6.69084e-08
-5.33781e-07
-2.4327e-06
-1.96834e-06
-5.42319e-05
-6.51756e-05
-2.27622e-05
-9.2817e-07
-5.51185e-13
-5.36839e-13
-5.51185e-13
-0.0092401
-2.5404e-15
-1.40019e-13
-4.08701e-12
-6.70314e-11
-6.4817e-10
-6.35506e-09
-1.6151e-09
-1.05112e-06
-5.01907e-06
-2.00126e-06
-3.80524e-07
-2.89888e-07
-1.09037e-06
-4.88068e-06
-2.13947e-06
-2.22753e-07
-2.22752e-07
-2.22753e-07
-3.06852e-07
-1.73467e-07
-4.65845e-08
-5.23408e-09
-4.68216e-10
-9.24896e-16
-4.99714e-14
-1.43421e-12
-2.31876e-11
-2.28177e-10
-2.10446e-09
-1.72093e-09
-6.38889e-07
-8.80991e-07
-7.94364e-07
-3.82587e-07
-3.25396e-07
-7.30022e-07
-1.89783e-06
-2.1149e-06
-1.93574e-06
-1.50712e-06
-1.02993e-06
-5.70924e-07
-2.70746e-07
-1.18345e-07
-4.37424e-08
-1.09442e-08
-2.70508e-16
-1.44137e-14
-4.09955e-13
-6.60825e-12
-6.71924e-11
-5.72211e-10
-1.82676e-09
-1.6825e-07
-2.23842e-07
-2.47375e-07
-1.67575e-07
-1.13736e-07
-2.47749e-07
-3.52222e-07
-6.31062e-07
-7.56326e-07
-7.91749e-07
-6.56237e-07
-3.45453e-07
-1.53388e-07
-7.5837e-08
-3.98237e-08
-2.03464e-08
-6.28368e-17
-3.3285e-15
-9.46613e-14
-1.54455e-12
-1.65441e-11
-1.40217e-10
-1.88998e-09
-1.89162e-08
-4.36019e-08
-4.36476e-08
-2.93597e-08
-2.24303e-08
-3.79435e-08
-8.11283e-08
-1.18986e-07
-1.24759e-07
-1.19626e-07
-9.92265e-08
-6.3601e-08
-3.28259e-08
-1.65328e-08
-8.2919e-09
-4.32829e-09
-1.13837e-17
-6.10124e-16
-1.76465e-14
-2.98573e-13
-3.44598e-12
-3.13623e-11
-7.92385e-10
-1.27834e-09
-1.81702e-09
-1.86278e-09
-1.96077e-09
-4.01305e-09
-8.99466e-09
-1.42505e-08
-1.6246e-08
-1.61891e-08
-1.53855e-08
-1.33272e-08
-9.65282e-09
-5.27538e-09
-2.64047e-09
-1.26807e-09
-6.48462e-10
-1.55944e-18
-8.57444e-17
-2.56998e-15
-4.62764e-14
-5.86151e-13
-5.63809e-12
-1.45045e-10
-1.83251e-10
-1.36962e-10
-9.33787e-11
-2.06963e-10
-8.71491e-10
-2.40095e-09
-3.30344e-09
-3.36968e-09
-3.16923e-09
-2.68598e-09
-1.9685e-09
-1.14993e-09
-6.00025e-10
-2.9544e-10
-1.23896e-10
-8.30708e-11
-1.54504e-19
-9.07354e-18
-2.92526e-16
-5.78983e-15
-8.10629e-14
-7.82566e-13
-1.23885e-11
-2.65076e-11
-2.63978e-11
-2.15153e-11
-4.48424e-11
-1.61237e-10
-3.83382e-10
-4.7355e-10
-4.6856e-10
-4.215e-10
-3.3127e-10
-2.09975e-10
-1.09531e-10
-5.39782e-11
-2.20141e-11
-1.22498e-11
-2.75394e-11
-1.03279e-20
-6.81114e-19
-2.45942e-17
-5.44984e-16
-8.28939e-15
-7.99279e-14
-5.91078e-13
-9.50999e-13
-1.02788e-12
-1.58004e-12
-5.60601e-12
-1.8608e-11
-3.50614e-11
-3.78757e-11
-3.65722e-11
-3.24807e-11
-2.58595e-11
-1.72529e-11
-9.0834e-12
-4.01573e-12
-1.63077e-12
-3.01391e-12
-2.15105e-11
-4.18371e-22
-3.3578e-20
-1.42162e-18
-3.5387e-17
-5.6884e-16
-5.27558e-15
-2.84013e-14
-3.82269e-14
-5.54321e-14
-1.42458e-13
-5.47595e-13
-1.45202e-12
-1.71667e-12
-1.62767e-12
-1.56351e-12
-1.50898e-12
-1.36886e-12
-1.07148e-12
-6.20671e-13
-2.11356e-13
-2.14402e-13
-1.69185e-12
-1.63683e-11
-8.90625e-24
-8.89666e-22
-4.42487e-20
-1.2038e-18
-1.98225e-17
-1.71844e-16
-6.43221e-16
-1.33148e-15
-3.50209e-15
-1.19453e-14
-4.11618e-14
-6.35261e-14
-5.56398e-14
-4.26888e-14
-4.62654e-14
-5.51644e-14
-5.34117e-14
-4.32207e-14
-2.27904e-14
-1.01409e-14
-5.95366e-14
-9.61411e-13
-1.23445e-11
-1.29987e-25
-8.35448e-24
-2.99348e-22
-7.10539e-21
-1.36116e-19
-1.71581e-18
-1.0321e-17
-4.801e-17
-2.12872e-16
-7.52956e-16
-1.90875e-15
-2.42143e-15
-2.15257e-15
-1.65477e-15
-1.62225e-15
-1.63806e-15
-1.48885e-15
-1.09183e-15
-4.46598e-16
-9.79626e-16
-2.64308e-14
-5.57044e-13
-1.22401e-11
-6.88948e-27
-4.66592e-25
-1.70546e-23
-4.01701e-22
-7.52434e-21
-9.6162e-20
-5.91621e-19
-2.6607e-18
-1.0661e-17
-3.31977e-17
-6.33766e-17
-7.6749e-17
-7.35416e-17
-5.74545e-17
-2.97114e-17
-1.44549e-17
-8.66479e-18
-4.14138e-18
-1.11137e-17
-3.46716e-16
-1.25162e-14
-4.59905e-13
-1.62292e-11
-1.78763e-28
-1.2424e-26
-4.44017e-25
-9.52517e-24
-1.42688e-22
-1.48473e-21
-1.17492e-20
-6.7403e-20
-2.8902e-19
-8.40555e-19
-1.58361e-18
-2.46083e-18
-2.44071e-18
-1.95646e-18
-9.64557e-19
-2.86829e-19
-6.71875e-20
-1.88798e-19
-4.77145e-18
-1.70923e-16
-8.50992e-15
-4.97806e-13
-2.3767e-11
-7.73158e-34
-3.67763e-32
-8.79312e-31
-1.23062e-29
-1.10322e-28
-3.85554e-28
-9.50815e-28
-7.61469e-27
-5.00403e-26
-2.10829e-25
-5.9215e-25
-1.00465e-24
-9.70966e-25
-6.21676e-25
-8.91933e-25
-3.81462e-23
-2.01995e-21
-8.16716e-20
-2.47208e-18
-1.01046e-16
-8.18474e-15
-6.18898e-13
-2.90634e-11
-5.60976e-38
-3.58847e-36
-1.23117e-34
-2.7715e-33
-4.94338e-32
-8.1549e-31
-2.61415e-29
-4.62775e-28
-3.49935e-27
-1.54822e-26
-4.36498e-26
-7.07953e-26
-6.67411e-26
-4.07436e-26
-1.9574e-25
-1.45438e-23
-8.36107e-22
-3.61019e-20
-1.19163e-18
-6.55748e-17
-8.53494e-15
-6.81325e-13
-3.12438e-11
-3.04771e-41
-1.89282e-39
-6.06204e-38
-1.20527e-36
-1.69709e-35
-1.74732e-34
-1.38235e-33
-8.47466e-33
-4.08853e-32
-1.65071e-31
-5.90789e-31
-5.93094e-30
-1.22289e-29
-4.44065e-28
-5.12834e-26
-4.77277e-24
-2.97519e-22
-1.38568e-20
-5.23057e-19
-3.9963e-17
-7.56826e-15
-6.03909e-13
-2.49474e-11
-8.82953e-47
-7.09439e-45
-2.98932e-43
-8.05473e-42
-1.58012e-40
-2.36779e-39
-2.83332e-38
-2.78298e-37
-2.23715e-36
-1.5317e-35
-9.37826e-35
-2.96394e-33
-5.3501e-31
-9.62564e-29
-1.27536e-26
-1.32112e-24
-8.93777e-23
-4.55833e-21
-2.04628e-19
-2.04291e-17
-3.76548e-15
-2.8647e-13
-1.10614e-11
-2.89187e-50
-2.51689e-48
-1.14769e-46
-3.39436e-45
-7.41002e-44
-1.27642e-42
-1.81331e-41
-2.20919e-40
-2.27006e-39
-2.35507e-38
-1.29703e-36
-3.44388e-34
-8.20454e-32
-1.7083e-29
-2.57781e-27
-2.98639e-25
-2.20191e-23
-1.26195e-21
-6.92438e-20
-8.07699e-18
-1.28836e-15
-9.59185e-14
-3.73499e-12
-1.18936e-56
-1.28646e-54
-8.06933e-53
-3.66477e-51
-1.31497e-49
-3.81728e-48
-9.04683e-47
-2.85709e-45
-6.00112e-43
-2.56599e-40
-9.78317e-38
-3.44085e-35
-9.6819e-33
-2.34944e-30
-4.1013e-28
-5.33733e-26
-4.3268e-24
-2.88779e-22
-1.95028e-20
-2.2822e-18
-2.96197e-16
-2.14169e-14
-8.41397e-13
-6.91404e-62
-1.23626e-59
-1.1957e-57
-7.80203e-56
-3.87101e-54
-2.22203e-52
-5.95355e-50
-3.63673e-47
-2.11504e-44
-1.14425e-41
-5.38527e-39
-2.30415e-36
-7.97141e-34
-2.30302e-31
-4.80738e-29
-7.1317e-27
-6.50902e-25
-5.29674e-23
-4.37974e-21
-4.26825e-19
-3.87274e-17
-2.52071e-15
-9.85849e-14
-4.38006e-66
-1.14348e-63
-1.5619e-61
-1.44869e-59
-1.41153e-57
-5.59099e-55
-4.88011e-52
-4.32601e-49
-3.44575e-46
-2.55572e-43
-1.6478e-40
-9.29911e-38
-4.22884e-35
-1.50396e-32
-3.90154e-30
-6.7638e-28
-7.20567e-26
-7.45497e-24
-7.60739e-22
-5.76383e-20
-3.00052e-18
-1.19849e-16
-5.00662e-15
-1.23648e-70
-4.78141e-68
-1.05193e-65
-2.32222e-63
-1.40934e-60
-1.79483e-57
-2.3094e-54
-2.83324e-51
-3.14305e-48
-3.22509e-45
-2.82527e-42
-2.111e-39
-1.23531e-36
-5.62162e-34
-1.86011e-31
-4.0581e-29
-5.40189e-27
-7.38233e-25
-9.85659e-23
-9.35384e-21
-6.02345e-19
-2.99214e-17
-2.50873e-15
-2.05902e-74
-1.01348e-71
-2.91784e-69
-9.30025e-67
-8.29422e-64
-1.41335e-60
-2.59737e-57
-4.65027e-54
-7.62444e-51
-1.19055e-47
-1.52754e-44
-1.77515e-41
-1.57949e-38
-1.11216e-35
-5.35371e-33
-1.59975e-30
-2.74288e-28
-4.78933e-26
-8.57434e-24
-1.08686e-21
-9.24924e-20
-6.04931e-18
-1.6665e-15
-1.11314e-78
-7.86734e-76
-3.295e-73
-1.44499e-70
-1.64762e-67
-4.09463e-64
-1.1217e-60
-3.20058e-57
-8.02683e-54
-1.89144e-50
-3.70104e-47
-6.64466e-44
-8.42719e-41
-9.01731e-38
-5.9594e-35
-2.74266e-32
-6.67931e-30
-1.56765e-27
-4.24887e-25
-8.23685e-23
-1.02305e-20
-9.45262e-19
-9.64074e-16
-3.78761e-83
-3.83138e-80
-2.30383e-77
-1.31211e-74
-1.66688e-71
-5.52743e-68
-2.1979e-64
-9.18801e-61
-3.49983e-57
-1.27631e-53
-3.99184e-50
-1.09777e-46
-2.25482e-43
-4.02086e-40
-4.2665e-37
-3.25034e-34
-1.15679e-31
-3.66458e-29
-1.48843e-26
-4.21999e-24
-7.39128e-22
-1.14032e-19
-1.9045e-16
-3.34342e-88
-5.55543e-85
-6.72563e-82
-1.48092e-78
-9.09733e-75
-6.44371e-71
-3.79506e-67
-1.77577e-63
-6.80389e-60
-2.26096e-56
-7.86344e-53
-2.05007e-49
-4.42843e-46
-8.86858e-43
-1.29892e-39
-1.44852e-36
-8.32174e-34
-3.3845e-31
-1.77237e-28
-8.92009e-26
-5.57959e-23
-1.20309e-19
-7.78304e-17
-3.33172e-90
-7.35588e-86
-1.48565e-81
-1.97715e-77
-1.82446e-73
-1.28712e-69
-7.18454e-66
-3.18737e-62
-1.13849e-58
-3.42695e-55
-1.0154e-51
-2.0254e-48
-2.64161e-45
-2.66554e-42
-2.08879e-39
-1.28823e-36
-6.27774e-34
-2.45107e-31
-9.71189e-29
-1.4891e-25
-2.83209e-22
-1.56401e-19
-2.73395e-17
-4.39931e-89
-1.85668e-84
-3.7164e-80
-4.76693e-76
-4.31345e-72
-3.00606e-68
-1.63775e-64
-7.09299e-61
-2.47679e-57
-7.41716e-54
-2.04047e-50
-3.68572e-47
-4.54628e-44
-4.38672e-41
-3.2843e-38
-1.93165e-35
-8.96457e-33
-3.37019e-30
-1.07113e-27
-3.06609e-25
-8.35563e-23
-2.01644e-20
-3.35781e-18
-1.2314e-87
-4.98015e-83
-9.89096e-79
-1.24645e-74
-1.08429e-70
-6.90922e-67
-3.32218e-63
-1.23905e-59
-3.59593e-56
-8.12644e-53
-1.41858e-49
-1.98162e-46
-2.21317e-43
-1.97116e-40
-1.38947e-37
-7.79787e-35
-3.47286e-32
-1.23598e-29
-3.50318e-27
-7.88274e-25
-1.39149e-22
-1.89541e-20
-1.92929e-18
-2.49815e-86
-9.19887e-82
-1.60683e-77
-1.73159e-73
-1.24977e-69
-6.32349e-66
-2.2823e-62
-5.99889e-59
-1.16063e-55
-1.68411e-52
-1.86067e-49
-1.60772e-46
-1.09966e-43
-5.95352e-41
-2.57728e-38
-9.08379e-36
-2.65054e-33
-6.55813e-31
-1.40042e-28
-2.61878e-26
-4.26296e-24
-5.9189e-22
-6.73893e-20
-1.41539e-85
-4.63235e-81
-7.02476e-77
-6.47381e-73
-3.99797e-69
-1.75176e-65
-5.6009e-62
-1.33895e-58
-2.42075e-55
-3.35663e-52
-3.59162e-49
-2.99533e-46
-1.95323e-43
-1.00366e-40
-4.07444e-38
-1.31532e-35
-3.3871e-33
-7.0123e-31
-1.17353e-28
-1.62945e-26
-1.93341e-24
-2.00271e-22
-1.80868e-20
-533.058
-533.465
-521.7
-158.197
-658.443
-658.659
-654.216
-650.791
-783.849
-783.851
-783.795
-783.835
-909.051
-909.05
-909.047
-909.047
-1034.25
-1034.25
-1034.25
-1034.25
-658.218
-866.886
-1047.27
-1157.7
-43.0588
-93.6944
-169.192
-263.019
-0.12367
-0.470992
-1.53319
-3.93452
-0.0111956
-0.0124852
-0.0118591
-0.0118594
-0.0672374
-0.0674022
-0.0598571
-0.0147467
-0.0652231
-0.0725258
-0.0724874
-0.0580015
-4.68409e-10
-0.000857125
-0.00381568
-0.00644475
-2.52489e-09
-4.99102e-10
-4.98896e-10
-4.99102e-10
-1.22648e-08
-8.68511e-09
-5.24541e-09
-1.75699e-09
-2.74831e-09
-1.95929e-09
-1.52682e-09
-1.21419e-09
-4.21066e-10
-3.08856e-10
-2.773e-10
-3.00937e-10
-8.79301e-11
-1.05193e-10
-1.46652e-10
-2.98144e-10
-5.31149e-11
-8.88481e-11
-1.6109e-10
-3.84366e-10
-5.05763e-11
-8.96972e-11
-1.72971e-10
-4.21297e-10
-3.96621e-11
-7.86878e-11
-1.84424e-10
-6.1806e-10
-3.40166e-11
-8.32698e-11
-3.21975e-10
-1.63087e-09
-4.10826e-11
-1.59117e-10
-9.14435e-10
-5.41312e-09
-7.53672e-11
-3.90019e-10
-2.57204e-09
-1.77166e-08
-1.38308e-10
-8.51292e-10
-6.11039e-09
-4.10438e-08
-1.94616e-10
-1.31753e-09
-9.72377e-09
-5.39073e-08
-2.28006e-10
-1.6249e-09
-1.17646e-08
-5.90059e-08
-2.21244e-10
-1.67137e-09
-1.06289e-08
-4.21072e-08
-1.12018e-10
-8.92278e-10
-5.45561e-09
-1.58199e-08
-4.13501e-11
-3.40723e-10
-2.05955e-09
-5.19094e-09
-1.0564e-11
-9.28976e-11
-5.52248e-10
-1.28928e-09
-1.42165e-12
-1.40996e-11
-9.62786e-11
-5.02365e-10
-1.31104e-13
-2.53776e-12
-5.20986e-11
-9.17615e-10
-1.49321e-13
-5.87668e-12
-1.3423e-10
-1.91687e-09
-2.26967e-13
-8.38859e-12
-1.76201e-10
-2.2992e-09
-1.19687e-13
-4.31734e-12
-8.49374e-11
-1.02502e-09
-1.19991e-14
-2.67699e-13
-3.77073e-12
-3.60766e-11
-5.29755e-15
-1.42381e-13
-2.58218e-12
-3.41611e-11
-1.69655e-15
-4.73856e-14
-9.42868e-13
-1.39226e-11
-2.44443e-16
-8.42623e-15
-2.08629e-13
-3.74984e-12
-1.06468e-16
-2.99448e-15
-6.40838e-14
-1.03434e-12
-4.46259e-18
-1.59443e-16
-4.63609e-15
-1.06872e-13
-9.77844e-19
-2.9057e-17
-7.25699e-16
-1.49987e-14
-8.86152e-12
-8.86154e-12
-0.0001012
-3.53291e-07
-1.35014e-07
-9.73104e-08
-4.61308e-08
-1.04107e-08
-4.52476e-09
-2.35252e-09
-6.74974e-10
-4.51532e-09
-1.00845e-08
-2.61347e-08
-6.04537e-08
-7.93668e-08
-1.08217e-07
-6.8222e-08
-6.8222e-08
-469.277
-41.8865
-0.405681
-0.000137169
-1.82617e-07
-2.22246e-07
-2.18703e-07
-1.59952e-07
-2.52653e-07
-3.11458e-07
-3.53886e-08
-3.81306e-09
-3.81303e-09
-2.717e-08
-9.73491e-08
-1.54171e-07
-6.01719e-06
-5.22219e-07
-8.42324e-08
-783.856
-384.171
-4.1811
-6.96214e-08
-6.96225e-08
-9.93485e-08
-7.2272e-08
-1.23707e-07
-3.13067e-07
-2.13108e-06
-1.63764e-05
-2.07116e-05
-8.6653e-06
-1.12252e-08
-2.67041e-08
-2.67479e-08
-5.42421e-05
-0.00198904
-7.02522e-05
-909.051
-863.084
-500.803
-62.2059
-3.21403e-13
-3.19838e-13
-3.21401e-13
-3.1986e-13
-3.21425e-13
-3.19881e-13
-1.24598e-06
-1.24395e-05
-0.000107365
-0.000218179
-0.000218483
-2.69096e-05
-9.66611e-06
-0.0119631
-0.0578223
-1034.25
-1033.79
-1012.36
-843.886
-581.139
-313.864
-216.731
-157.492
-90.3621
-24.9657
-3.63457e-13
-3.63187e-13
-3.6348e-13
-3.63187e-13
-4.6749e-05
-1.53553e-05
-1.09955e-05
-1.09973e-05
-34.3958
-1159.44
-1159.44
-1159.44
-1157.16
-1147.04
-1100.62
-1053.3
-1007.7
-942.567
-852.482
-717.78
-523.427
-279.078
-19.4431
-4.44234e-08
-4.44225e-08
-0.252924
-1.23265e-05
-502.333
-554.774
-1038.53
-1256.83
-1284.58
-1284.58
-1284.58
-1284.58
-1284.58
-1284.58
-1284.58
-1283.99
-1264.34
-1190.95
-1052.24
-801.817
-354.12
-115.465
-179.804
-968.405
-16.798
-140.357
-357.803
-639.912
-914.774
-1060.54
-1101.31
-1125.45
-1162.85
-1226.63
-1318.48
-1409.71
-1409.71
-1409.71
-1402.83
-1316.38
-1174.13
-1151.17
-1275.37
-0.0366531
-1.05183
-6.10924
-18.1792
-56.8234
-111.444
-148.008
-175.574
-215.149
-290.918
-420.033
-609.938
-880.268
-1243.51
-1527.43
-1527.43
-1521.1
-1521.1
-1460.46
-7.74818e-05
-7.73687e-05
-0.000872423
-0.00628843
-0.0409197
-0.155147
-0.313215
-0.516666
-1.01616
-2.64793
-7.18775
-16.644
-48.5048
-177.991
-549.212
-1334.01
-1640.47
-1645.16
-1281.86
-0.000496419
-2.42803e-07
-2.3995e-07
-2.52229e-07
-2.46851e-07
-4.20461e-07
-3.32971e-06
-1.97067e-05
-6.25119e-05
-0.000237111
-0.00158364
-0.0105384
-0.274424
-2.1549
-0.0020733
-545.799
-1603.49
-1769.18
-1310.64
-0.0016555
-1.68775e-06
-2.42109e-07
-2.42106e-07
-2.27554e-07
-1.71422e-07
-6.85075e-08
-6.85087e-08
-2.52058e-05
-4.52809e-05
-2.86939e-05
-1.36623e-05
-6.36038e-05
-0.00221894
-0.00221892
-150.071
-1454.07
-1893.23
-1320.21
-2.73803e-05
-1.99464e-05
-4.93326e-06
-8.70718e-07
-3.08432e-07
-1.61859e-07
-6.95488e-08
-9.73345e-08
-6.89042e-06
-1.9677e-05
-1.3665e-05
-4.91775e-06
-9.75897e-06
-0.000504916
-0.656559
-226.019
-1570.07
-2017.29
-1216.41
-6.66913e-10
-3.55333e-08
-5.91597e-08
-6.23616e-08
-5.35115e-08
-4.95129e-08
-5.25302e-08
-1.9242e-07
-1.69527e-06
-7.68537e-06
-9.36892e-06
-5.22016e-06
-4.1251e-06
-0.00411473
-9.65376
-492.388
-1823.8
-2083.05
-788.469
-7.05822e-10
-3.29423e-09
-1.32691e-08
-3.50241e-08
-1.50353e-07
-1.59707e-07
-7.40589e-08
-9.05702e-08
-3.87076e-07
-2.59322e-06
-6.6392e-06
-5.20273e-06
-3.65723e-06
-0.051538
-38.7467
-996.211
-1929.46
-1862.13
-706.248
-3.79703e-10
-1.34027e-08
-1.81533e-07
-5.22283e-07
-8.27423e-07
-2.73784e-06
-3.79222e-06
-1.25253e-06
-4.08271e-07
-6.30692e-07
-2.68173e-06
-4.42097e-06
-3.85816e-06
-0.437006
-177.034
-1475.23
-2035.14
-1924.81
-744.908
-4.42303e-10
-4.36741e-10
-4.25048e-07
-2.06622e-05
-3.10553e-05
-1.28453e-05
-8.17995e-06
-1.82136e-05
-6.98113e-06
-1.42905e-06
-1.34352e-06
-1.89998e-06
-2.69152e-06
-0.229285
-83.3071
-1116.8
-2048.11
-2044.3
-1096.56
-8.04606e-10
-4.74999e-10
-4.75005e-10
-5.08722e-05
-0.000248258
-0.000268988
-9.38266e-05
-2.3708e-05
-9.4291e-05
-9.4633e-05
-4.6193e-05
-2.95451e-06
-1.54188e-06
-0.0304991
-8.84365
-258.87
-1601.71
-1782.94
-996.472
-1.8212e-09
-4.77654e-10
-1.38903e-05
-1.38971e-05
-0.000237208
-0.000420888
-0.000411421
-0.000266516
-6.55393e-05
-8.49779e-05
-7.90144e-05
-1.31988e-05
-1.62651e-06
-6.95666e-05
-0.800572
-8.22451e-08
-1109.17
-947.474
-441.452
-7.3564e-09
-4.99032e-10
-5.91691e-06
-0.00033276
-0.000308526
-0.000345235
-0.0018499
-1.34374e-06
-1.90511e-06
-1.34374e-06
-2.58516e-06
-2.09375e-05
-2.421e-05
-8.03362e-06
-2.53149e-05
-8.59392e-08
-418.213
-1446.23
-458.978
-1.93269e-08
-1.81713e-07
-7.97799e-10
-0.00950251
-0.0337553
-0.0133609
-0.00195377
-0.020459
-0.0639688
-0.00529144
-6.71959e-05
-0.000115266
-3.50004e-05
-6.79565e-06
-1.3161e-06
-8.96342e-08
-28.7398
-1508.94
-494.161
-3.37844e-08
-7.2439e-07
-8.30652e-10
-0.0259382
-0.0656048
-0.0586148
-0.00203434
-0.203221
-0.241682
-0.145788
-0.0120007
-0.000640134
-2.23907e-05
-5.51945e-06
-1.90833e-06
-6.34754e-07
-9.33283e-08
-1510.5
-514.566
-4.77201e-08
-8.95021e-07
-8.63567e-10
-0.00576516
-0.0609206
-0.128484
-0.091673
-0.0100089
-0.20082
-0.560504
-0.167572
-0.00185307
-9.75552e-06
-4.12321e-06
-3.34904e-06
-2.15293e-06
-9.70229e-08
-607.564
-1177.79
-4.99887e-08
-3.1386e-08
-0.000198293
-0.000190814
-0.000190814
-0.130861
-0.13173
-0.0102396
-0.241929
-0.581848
-0.287392
-0.00120117
-1.00936e-05
-4.48488e-06
-5.84494e-06
-3.79439e-06
-1.00717e-07
-16.149
-1223.31
-7.33632e-08
-3.25406e-08
-0.000530833
-0.000762835
-0.0058236
-0.0313245
-0.0434643
-0.0105243
-0.1416
-0.603191
-0.312677
-0.011039
-3.00216e-05
-5.39894e-06
-6.62836e-06
-3.09065e-06
-1.04412e-07
-1.04412e-07
-1224.58
-8.78113e-08
-3.36885e-08
-0.000181423
-0.00695711
-0.00733443
-0.0015475
-0.00154749
-0.0108966
-0.222473
-0.624535
-0.619362
-0.0406753
-3.79797e-05
-6.69087e-06
-6.20337e-06
-3.84208e-07
-0.058249
-1.08107e-07
-1013.64
-8.38255e-08
-3.45351e-08
-0.000617954
-0.00845446
-0.00314033
-0.00160038
-0.00213965
-0.0377655
-0.49477
-0.645878
-0.645878
-0.0116638
-6.86284e-06
-6.86283e-06
-4.23055e-06
-3.97379e-07
-0.963461
-1.11801e-07
-1115.69
-3.56803e-08
-3.56801e-08
-0.000212464
-0.00508294
-0.0160049
-0.00165402
-0.00538181
-0.0309995
-0.397914
-0.667222
-0.363645
-7.80686e-06
-8.76633e-06
-7.08963e-06
-4.66588e-05
-0.0479678
-1.08221
-1.15496e-07
-1267.09
-1.06338e-08
-1.11758e-07
-1.11759e-07
-1.11752e-07
-0.0164817
-0.00333652
-0.00320274
-0.0124737
-0.0577269
-0.171074
-0.0137283
-8.03086e-06
-8.0413e-06
-8.03683e-06
-0.00521466
-0.495636
-0.862903
-1.96254
-1307.86
-5.71913e-09
-6.03182e-08
-6.84881e-07
-0.000246456
-0.00230911
-0.00120877
-0.00301182
-0.00662095
-0.000786112
-4.74623e-05
-0.00012553
-2.20504e-05
-1.19803e-05
-1.46363e-05
-0.0071365
-0.271303
-0.18183
-3.50592
-707.143
-7.49942e-09
-1.21315e-07
-6.05551e-07
-6.05551e-07
-0.000609821
-0.0142791
-0.00119543
-0.00211997
-0.0011004
-7.32275e-06
-7.31235e-06
-3.47259e-05
-2.07581e-06
-1.40431e-07
-1.40431e-07
-1.40431e-07
-1.40431e-07
-0.736909
-10.4827
-1.80745e-08
-1.993e-07
-8.13996e-07
-2.54108e-06
-0.00186042
-0.028264
-0.000361841
-0.00035428
-0.00130992
-3.17251e-05
-0.00120132
-0.0108831
-2.13724e-06
-189.431
-131.646
-10.3019
-3.02764
-0.102087
-0.00247599
-2.81404e-08
-2.78704e-07
-1.13785e-06
-1.95466e-06
-0.000444256
-0.0141125
-0.000887143
-0.000224609
-0.000299657
-6.10538e-05
-0.000140291
-1.48629e-07
-414.303
-1878.54
-1954.09
-705.93
-18.2849
-0.0362461
-5.66216e-05
-3.06046e-08
-2.83759e-07
-1.01279e-06
-1.34829e-06
-1.34694e-05
-0.00840668
-0.0528031
-0.0115897
-0.000287334
-0.000287335
-2.60404e-05
-1.52728e-07
-986.667
-2200.49
-2200.61
-1417.64
-50.469
-0.0274387
-5.8189e-05
-1.25392e-08
-1.04847e-07
-3.16862e-07
-4.31822e-07
-3.80935e-06
-0.00245159
-0.0764831
-0.0871085
-0.0356258
-0.00260607
-4.4536e-06
-1.56827e-07
-369.415
-1545.37
-1734.18
-836.104
-26.2358
-0.0146887
-5.97446e-05
-4.00566e-10
-4.13656e-09
-3.31517e-08
-1.72145e-07
-1.30586e-06
-0.000506515
-0.0322794
-0.0902234
-0.0500925
-0.0022003
-4.57092e-06
-1.24178
-18.3543
-126.725
-134.705
-55.4508
-11.8628
-0.0388333
-6.13123e-05
-5.24564e-10
-6.58883e-09
-5.3988e-08
-2.73931e-07
-1.08381e-06
-0.000108728
-0.0104511
-0.0744849
-0.0290629
-0.00225635
-0.304156
-0.765807
-0.18857
-0.107841
-0.0797369
-0.0257944
-1.94504
-0.215931
-6.59037e-05
-2.55486e-10
-4.0436e-09
-4.2601e-08
-2.74046e-07
-1.00064e-06
-9.4389e-06
-0.000544561
-0.0195802
-0.117169
-0.146304
-0.269734
-0.0382033
-0.00128717
-4.48384e-05
-1.79779e-06
-4.15099e-08
-0.0378791
-0.200833
-0.0016506
-8.18319e-11
-1.45138e-09
-1.69254e-08
-1.27913e-07
-5.59728e-07
-2.20032e-06
-0.000198888
-0.0248092
-0.0845202
-0.0764619
-0.0103556
-0.000113533
-1.09405e-06
-4.25159e-08
-4.25159e-08
-4.25159e-08
-4.25159e-08
-0.0669519
-0.0013535
-2.04923e-11
-3.59219e-10
-5.12709e-09
-6.43273e-08
-5.85996e-07
-9.75773e-06
-0.000648158
-0.00303886
-0.00380094
-0.000397382
-7.91164e-06
-7.41757e-07
-6.65646e-05
-0.00235153
-0.00673282
-4.35219e-08
-7.53754e-05
-0.00244238
-0.0010127
-3.05426e-12
-6.65849e-11
-8.11843e-10
-8.26379e-09
-1.27928e-07
-2.41285e-06
-1.84899e-05
-1.45035e-06
-5.46269e-07
-2.8041e-07
-2.66303e-07
-2.66275e-07
-0.00100474
-0.0271395
-0.0386207
-0.0221481
-7.70865e-05
-8.78825e-05
-0.000408203
-4.0461e-13
-9.43318e-12
-1.21782e-10
-9.37135e-10
-6.05517e-09
-4.76397e-08
-1.23579e-07
-4.9156e-08
-1.85947e-07
-1.212e-06
-1.55198e-05
-0.000117152
-0.000148477
2.54766e-24
-0.00100773
-0.0666604
-0.0189089
-0.000437414
-0.000153511
)
;

boundaryField
{
    leftWall
    {
        type            calculated;
        value           nonuniform List<scalar> 
50
(
-29.4294
-88.2881
-147.147
-206.006
-264.864
-323.723
-382.582
-441.44
-533.467
-658.626
-739.78
-273.115
-1.14355e-34
-5.76987e-16
-3.8228e-15
-6.84584e-15
-8.26834e-15
-8.45391e-15
-5.63598e-15
-2.5404e-15
-9.24896e-16
-2.70508e-16
-6.28368e-17
-1.13837e-17
-1.55944e-18
-1.54504e-19
-1.03279e-20
-4.18371e-22
-8.90625e-24
-1.29987e-25
-6.88948e-27
-1.78763e-28
-7.73158e-34
-5.60976e-38
-3.04771e-41
-8.82953e-47
-2.89187e-50
-1.18936e-56
-6.91404e-62
-4.38006e-66
-1.23648e-70
-2.05902e-74
-1.11314e-78
-3.78761e-83
-3.34342e-88
-3.33172e-90
-4.39931e-89
-1.2314e-87
-2.49815e-86
-1.41539e-85
)
;
    }
    rightWall
    {
        type            calculated;
        value           nonuniform List<scalar> 
50
(
-1.36266e-11
-6.66433e-10
-7.46951e-09
-2.28592e-08
-3.44554e-08
-4.24253e-08
-4.95551e-08
-5.65499e-08
-6.8222e-08
-8.42324e-08
-7.02522e-05
-0.0578223
-34.3958
-502.333
-968.405
-1275.37
-1460.46
-1281.86
-1310.64
-1320.21
-1216.41
-788.469
-706.248
-744.908
-1096.56
-996.472
-441.452
-458.978
-494.161
-514.566
-1177.79
-1223.31
-1224.58
-1013.64
-1115.69
-1267.09
-1307.86
-707.143
-10.4827
-0.00247599
-5.66216e-05
-5.8189e-05
-5.97446e-05
-6.13123e-05
-6.59037e-05
-0.0016506
-0.0013535
-0.0010127
-0.000408203
-0.000153511
)
;
    }
    lowerWall
    {
        type            calculated;
        value           nonuniform List<scalar> 
62
(
0
0
0
0
0
0
0
0
0
0
0
0
0
0
0
0
0
0
0
0
0
0
0
-29.4097
-88.2411
-147.143
-205.993
-264.523
-323.275
-382.059
-440.837
-470.508
-470.868
-460.484
-139.634
-7.82874e-21
-1.12702e-18
-8.27048e-17
-3.08809e-15
-8.40742e-14
-1.07388e-12
-6.08933e-12
-3.53753e-08
0
0
0
0
0
0
0
0
0
0
0
0
0
0
0
0
0
0
0
)
;
    }
    atmosphere
    {
        type            calculated;
        value           nonuniform List<scalar> 
46
(
-0
-0
-0
-0
-0
-0
-0
-0
-0
-0
-0
-0
-0
-0
-0
-0
-0
-0
-0
-0
-0
-0
-0
-0
-0
-0
-0
-4.0908e-13
-9.53739e-12
-1.23127e-10
-9.47488e-10
-6.12206e-09
-4.8166e-08
-1.24945e-07
-4.9699e-08
-1.88001e-07
-1.22538e-06
-1.56913e-05
-0.000118447
-0
-0
-0
-0.0673968
-0.0191177
-0.000442246
-0.000155207
)
;
    }
    defaultFaces
    {
        type            empty;
    }
}


// ************************************************************************* //
