/*--------------------------------*- C++ -*----------------------------------*\
| =========                 |                                                 |
| \\      /  F ield         | OpenFOAM: The Open Source CFD Toolbox           |
|  \\    /   O peration     | Version:  2012                                  |
|   \\  /    A nd           | Website:  www.openfoam.com                      |
|    \\/     M anipulation  |                                                 |
\*---------------------------------------------------------------------------*/
FoamFile
{
    version     2.0;
    format      ascii;
    class       volVectorField;
    location    "0.39";
    object      U;
}
// * * * * * * * * * * * * * * * * * * * * * * * * * * * * * * * * * * * * * //

dimensions      [0 1 -1 0 0 0 0];


internalField   nonuniform List<vector> 
2268
(
(0.018649 -0.00928561 0)
(0.0606578 -0.00927614 0)
(0.0979652 -0.00881256 0)
(0.136204 -0.00889526 0)
(0.174199 -0.00894791 0)
(0.212862 -0.00857954 0)
(0.24785 -0.00766638 0)
(0.279011 -0.00771966 0)
(0.314429 -0.00677831 0)
(0.338022 -0.0059923 0)
(0.366165 -0.00553893 0)
(0.388104 -0.00472307 0)
(0.405815 -0.00259161 0)
(0.414014 -0.00134836 0)
(0.420812 -0.000212257 0)
(0.416691 0.00119569 0)
(0.406914 0.00276198 0)
(0.384882 0.00291873 0)
(0.352321 0.00394342 0)
(0.304233 0.00275937 0)
(0.238681 0.00368638 0)
(0.163839 0.00399043 0)
(0.0631263 0.0296533 0)
(0.0185972 -0.0281929 0)
(0.0605692 -0.0282082 0)
(0.0981414 -0.0268877 0)
(0.136516 -0.0271304 0)
(0.174434 -0.0272786 0)
(0.213121 -0.0262255 0)
(0.248142 -0.0235925 0)
(0.279682 -0.0237306 0)
(0.315046 -0.0211289 0)
(0.338754 -0.018404 0)
(0.367338 -0.0181901 0)
(0.389426 -0.0139215 0)
(0.405591 -0.00973306 0)
(0.416881 -0.00563586 0)
(0.42325 -0.00112878 0)
(0.419243 0.00548257 0)
(0.408108 0.0121893 0)
(0.385143 0.0230201 0)
(0.351145 0.0340761 0)
(0.301316 0.0510969 0)
(0.23104 0.0625566 0)
(0.146858 0.0790204 0)
(0.0373726 0.0774784 0)
(0.0185205 -0.0467017 0)
(0.060551 -0.0468726 0)
(0.0984898 -0.0447077 0)
(0.137048 -0.0449555 0)
(0.174851 -0.0451581 0)
(0.213512 -0.0434232 0)
(0.248629 -0.0391347 0)
(0.280916 -0.0393438 0)
(0.316123 -0.0347379 0)
(0.340161 -0.0306819 0)
(0.369804 -0.0295799 0)
(0.390704 -0.0227449 0)
(0.407608 -0.0156865 0)
(0.420765 -0.00964084 0)
(0.427825 -0.00145204 0)
(0.424407 0.00839138 0)
(0.414936 0.0187367 0)
(0.394603 0.0298749 0)
(0.366073 0.0433868 0)
(0.3217 0.0595665 0)
(0.257812 0.0765932 0)
(0.176557 0.095674 0)
(0.0539299 0.116926 0)
(0.0184568 -0.0655562 0)
(0.0606864 -0.0659964 0)
(0.0990102 -0.0630326 0)
(0.137805 -0.0632088 0)
(0.175561 -0.0634044 0)
(0.214151 -0.0610775 0)
(0.249422 -0.0554293 0)
(0.282733 -0.0555937 0)
(0.317716 -0.0491208 0)
(0.342356 -0.0436917 0)
(0.373217 -0.0421005 0)
(0.392825 -0.0316552 0)
(0.411592 -0.0239832 0)
(0.424932 -0.0150261 0)
(0.432023 -0.00290181 0)
(0.429558 0.0117678 0)
(0.41931 0.0262383 0)
(0.39785 0.0463496 0)
(0.365594 0.0685124 0)
(0.320156 0.102538 0)
(0.253408 0.131065 0)
(0.174257 0.175419 0)
(0.0500415 0.185888 0)
(0.0183631 -0.0841111 0)
(0.0609204 -0.084951 0)
(0.0995617 -0.0811629 0)
(0.138656 -0.0811448 0)
(0.176489 -0.0812565 0)
(0.215038 -0.0783512 0)
(0.250518 -0.0715758 0)
(0.285022 -0.0716474 0)
(0.319535 -0.0629802 0)
(0.345237 -0.0569247 0)
(0.377412 -0.053558 0)
(0.395917 -0.040866 0)
(0.417081 -0.0310239 0)
(0.430093 -0.019284 0)
(0.439326 -0.00381356 0)
(0.438434 0.0143883 0)
(0.432836 0.0335386 0)
(0.414694 0.0552142 0)
(0.389504 0.0798705 0)
(0.349007 0.112465 0)
(0.289648 0.145388 0)
(0.211182 0.191728 0)
(0.0766789 0.223533 0)
(0.0183496 -0.103015 0)
(0.0612721 -0.104359 0)
(0.100248 -0.0997566 0)
(0.1397 -0.0995456 0)
(0.177789 -0.0994809 0)
(0.216381 -0.0960325 0)
(0.25221 -0.0884676 0)
(0.287865 -0.0881532 0)
(0.321719 -0.0775388 0)
(0.349027 -0.0709316 0)
(0.382252 -0.0660302 0)
(0.400453 -0.0502306 0)
(0.423 -0.0401384 0)
(0.437389 -0.0253189 0)
(0.446069 -0.0068616 0)
(0.446742 0.0150738 0)
(0.440836 0.0374385 0)
(0.423998 0.0671191 0)
(0.395603 0.0995666 0)
(0.354895 0.150185 0)
(0.290528 0.196238 0)
(0.215881 0.276575 0)
(0.0686478 0.321122 0)
(0.0187138 -0.121753 0)
(0.0614359 -0.123672 0)
(0.100855 -0.118246 0)
(0.140805 -0.117812 0)
(0.179265 -0.117527 0)
(0.21795 -0.11356 0)
(0.254341 -0.105413 0)
(0.290999 -0.104553 0)
(0.324294 -0.0919806 0)
(0.353825 -0.0855938 0)
(0.387762 -0.0780233 0)
(0.405709 -0.0601632 0)
(0.431466 -0.0486839 0)
(0.444303 -0.0302245 0)
(0.456417 -0.00844828 0)
(0.45862 0.0168324 0)
(0.458889 0.0440892 0)
(0.444255 0.0765453 0)
(0.42633 0.112317 0)
(0.391471 0.161856 0)
(0.340085 0.210822 0)
(0.271432 0.295933 0)
(0.114493 0.358552 0)
(0.019513 -0.140875 0)
(0.0614353 -0.143157 0)
(0.10154 -0.137243 0)
(0.142178 -0.136569 0)
(0.181111 -0.135902 0)
(0.219929 -0.131459 0)
(0.257014 -0.122929 0)
(0.294517 -0.121122 0)
(0.327615 -0.107148 0)
(0.359696 -0.100775 0)
(0.393224 -0.0904672 0)
(0.412273 -0.0706704 0)
(0.44103 -0.0583313 0)
(0.453512 -0.036835 0)
(0.467483 -0.0136248 0)
(0.471013 0.0141756 0)
(0.47121 0.0441817 0)
(0.459026 0.0827649 0)
(0.439654 0.124435 0)
(0.409245 0.191465 0)
(0.351973 0.253033 0)
(0.288941 0.38443 0)
(0.12227 0.503091 0)
(-0.0172463 0.00110075 0)
(-0.0363948 -0.00237699 0)
(-0.0635994 -0.0120949 0)
(-0.114418 -0.00179865 0)
(-0.142732 0.00611331 0)
(-0.230523 0.0109929 0)
(-0.26692 0.0110221 0)
(-0.346949 0.00795 0)
(-0.394247 0.00993217 0)
(-0.494073 0.0119625 0)
(-0.561969 0.0130667 0)
(-0.678864 0.0269752 0)
(-0.814437 0.031888 0)
(-0.969334 0.0442761 0)
(-1.2036 0.0397429 0)
(-1.31836 0.038576 0)
(-1.50974 -0.007226 0)
(-1.20456 -0.127139 0)
(-0.308913 -0.171907 0)
(-0.0204805 0.0238562 0)
(-0.0445952 0.0253811 0)
(-0.0814186 0.0467238 0)
(-0.118531 0.038952 0)
(-0.13745 0.0445558 0)
(-0.231573 0.0451849 0)
(-0.267468 0.0396877 0)
(-0.348491 0.0494915 0)
(-0.395487 0.0536399 0)
(-0.491653 0.0628495 0)
(-0.556549 0.0664318 0)
(-0.670587 0.0840026 0)
(-0.807168 0.09296 0)
(-0.961567 0.123816 0)
(-1.20664 0.112535 0)
(-1.35034 0.0895247 0)
(-1.56069 -0.0307375 0)
(-1.33686 -0.386966 0)
(-0.445977 -0.466081 0)
(-0.0402421 0.0302729 0)
(-0.0514346 0.0249157 0)
(-0.0696599 0.0201435 0)
(-0.110651 0.0242628 0)
(-0.138168 0.0548392 0)
(-0.228371 0.069295 0)
(-0.264534 0.0615096 0)
(-0.343897 0.0659448 0)
(-0.388993 0.0716296 0)
(-0.48681 0.0841709 0)
(-0.550366 0.0898112 0)
(-0.66942 0.136826 0)
(-0.799397 0.156419 0)
(-0.953974 0.216056 0)
(-1.20797 0.208102 0)
(-1.38449 0.186816 0)
(-1.71484 -0.0027388 0)
(-1.60602 -0.600798 0)
(-0.872317 -0.93264 0)
(-0.0402369 0.0656276 0)
(-0.0449505 0.0433437 0)
(-0.0689686 0.074008 0)
(-0.106446 0.0731089 0)
(-0.127871 0.0965627 0)
(-0.229052 0.102788 0)
(-0.264203 0.0904321 0)
(-0.347616 0.105575 0)
(-0.391695 0.115594 0)
(-0.479396 0.134806 0)
(-0.532562 0.145179 0)
(-0.64267 0.193892 0)
(-0.771792 0.215545 0)
(-0.926981 0.30091 0)
(-1.19605 0.298959 0)
(-1.41322 0.305122 0)
(-1.89156 0.0681305 0)
(-1.74981 -0.746016 0)
(-1.21854 -1.51674 0)
(-0.0482229 0.0672568 0)
(-0.0520098 0.0363327 0)
(-0.0636181 0.0458889 0)
(-0.100185 0.0499956 0)
(-0.123874 0.106616 0)
(-0.224688 0.129789 0)
(-0.260248 0.112116 0)
(-0.338886 0.123838 0)
(-0.380696 0.128154 0)
(-0.472049 0.148064 0)
(-0.524259 0.159518 0)
(-0.634252 0.241678 0)
(-0.755994 0.277706 0)
(-0.902014 0.398561 0)
(-1.1757 0.418183 0)
(-1.45001 0.476976 0)
(-1.96256 0.158165 0)
(-1.68065 -0.900549 0)
(-0.922886 -2.19017 0)
(-0.0554379 0.111616 0)
(-0.056559 0.0582655 0)
(-0.0597526 0.0975977 0)
(-0.0879076 0.106051 0)
(-0.104998 0.152463 0)
(-0.223917 0.165519 0)
(-0.262478 0.141144 0)
(-0.346531 0.160077 0)
(-0.385675 0.173595 0)
(-0.46409 0.199178 0)
(-0.496931 0.215456 0)
(-0.590006 0.296941 0)
(-0.702824 0.33105 0)
(-0.841456 0.483238 0)
(-1.12057 0.533296 0)
(-1.41214 0.641345 0)
(-1.87649 0.167515 0)
(-1.28613 -1.18159 0)
(-0.608072 -2.62904 0)
(-0.0706793 0.115132 0)
(-0.0606327 0.0345623 0)
(-0.051883 0.05681 0)
(-0.0794099 0.0676255 0)
(-0.106109 0.162362 0)
(-0.225212 0.198492 0)
(-0.25366 0.163601 0)
(-0.33261 0.179866 0)
(-0.375474 0.178217 0)
(-0.454828 0.199591 0)
(-0.483746 0.21275 0)
(-0.574757 0.332134 0)
(-0.674131 0.384253 0)
(-0.792579 0.578807 0)
(-1.06328 0.663265 0)
(-1.27853 0.796256 0)
(-1.66527 0.117718 0)
(-0.858424 -1.4385 0)
(-0.499302 -2.987 0)
(-0.0387509 0.170562 0)
(-0.0978407 0.0627035 0)
(-0.0520624 0.110013 0)
(-0.0541268 0.140097 0)
(-0.0649352 0.219183 0)
(-0.22497 0.234295 0)
(-0.26193 0.189715 0)
(-0.340731 0.21548 0)
(-0.389542 0.227077 0)
(-0.456842 0.248766 0)
(-0.460484 0.267881 0)
(-0.525872 0.383386 0)
(-0.604138 0.425596 0)
(-0.701488 0.654086 0)
(-0.933834 0.74115 0)
(-1.07252 0.899651 0)
(-1.32213 -0.0148519 0)
(-0.509891 -1.66968 0)
(-0.350358 -3.21411 0)
(0.0204012 -0.17083 0)
(0.0618288 -0.173342 0)
(0.102771 -0.167255 0)
(0.144317 -0.166097 0)
(0.184094 -0.164705 0)
(0.223447 -0.159655 0)
(0.261724 -0.150793 0)
(0.300455 -0.147529 0)
(0.334561 -0.131813 0)
(0.370178 -0.125713 0)
(0.402137 -0.110179 0)
(0.424443 -0.0897443 0)
(0.458613 -0.0741069 0)
(0.467918 -0.0462008 0)
(0.490286 -0.0188424 0)
(0.490787 0.0155205 0)
(0.505803 0.0526029 0)
(0.493313 0.0964303 0)
(0.508046 0.142071 0)
(0.484351 0.209641 0)
(0.517751 0.275624 0)
(0.490867 0.413902 0)
(0.583569 0.580465 0)
(0.0215671 -0.212704 0)
(0.0629631 -0.215037 0)
(0.104908 -0.209305 0)
(0.148009 -0.207616 0)
(0.189112 -0.205 0)
(0.229542 -0.199238 0)
(0.269542 -0.1902 0)
(0.309706 -0.184661 0)
(0.345928 -0.168215 0)
(0.384949 -0.159468 0)
(0.415919 -0.137755 0)
(0.448092 -0.12024 0)
(0.480457 -0.0962681 0)
(0.496023 -0.0648367 0)
(0.52514 -0.0348195 0)
(0.527297 -0.00144072 0)
(0.543368 0.0382981 0)
(0.527418 0.0760056 0)
(0.535583 0.12655 0)
(0.50922 0.176027 0)
(0.537101 0.237879 0)
(0.52191 0.31037 0)
(0.635452 0.426931 0)
(0.0225184 -0.25588 0)
(0.0639459 -0.257196 0)
(0.106853 -0.252839 0)
(0.151156 -0.25084 0)
(0.193524 -0.246792 0)
(0.235265 -0.240649 0)
(0.277009 -0.231573 0)
(0.31896 -0.224517 0)
(0.357997 -0.207743 0)
(0.39908 -0.196352 0)
(0.433805 -0.174039 0)
(0.472263 -0.154909 0)
(0.500094 -0.12278 0)
(0.526727 -0.0913231 0)
(0.556204 -0.0507578 0)
(0.560372 -0.00270783 0)
(0.585228 0.052176 0)
(0.57862 0.104794 0)
(0.60111 0.160109 0)
(0.590412 0.208441 0)
(0.619979 0.261923 0)
(0.612048 0.313979 0)
(0.687107 0.406098 0)
(0.0234755 -0.299672 0)
(0.0648866 -0.299853 0)
(0.108491 -0.297023 0)
(0.154158 -0.29477 0)
(0.197852 -0.289572 0)
(0.240972 -0.283154 0)
(0.284585 -0.274326 0)
(0.328164 -0.266 0)
(0.369189 -0.248717 0)
(0.411757 -0.235534 0)
(0.449088 -0.211267 0)
(0.488632 -0.1868 0)
(0.519892 -0.151035 0)
(0.562756 -0.121275 0)
(0.581189 -0.0690326 0)
(0.612778 -0.0309533 0)
(0.634559 0.0190577 0)
(0.62724 0.0595097 0)
(0.632998 0.113854 0)
(0.626817 0.157038 0)
(0.637939 0.216655 0)
(0.641674 0.244392 0)
(0.687438 0.310834 0)
(0.0173866 -0.344299 0)
(0.0486262 -0.342257 0)
(0.0818088 -0.3422 0)
(0.115812 -0.34031 0)
(0.150432 -0.333682 0)
(0.180856 -0.327481 0)
(0.213785 -0.318858 0)
(0.239529 -0.309221 0)
(0.266198 -0.291473 0)
(0.285806 -0.276473 0)
(0.313954 -0.251183 0)
(0.332709 -0.226208 0)
(0.373286 -0.197386 0)
(0.386405 -0.15356 0)
(0.434364 -0.101502 0)
(0.415083 -0.0579876 0)
(0.455972 0.0374659 0)
(0.568396 0.106265 0)
(0.618407 0.16021 0)
(0.633084 0.202368 0)
(0.658402 0.245675 0)
(0.680794 0.262243 0)
(0.708472 0.313036 0)
(0.00494913 -0.366987 0)
(0.0213411 -0.365504 0)
(0.0331288 -0.365494 0)
(0.0452878 -0.364535 0)
(0.0582808 -0.355917 0)
(0.0691739 -0.34755 0)
(0.078613 -0.334349 0)
(0.086555 -0.31917 0)
(0.0951268 -0.296226 0)
(0.109603 -0.283343 0)
(0.133765 -0.259018 0)
(0.175276 -0.244658 0)
(0.220902 -0.205203 0)
(0.278759 -0.178057 0)
(0.339331 -0.0977945 0)
(0.412441 -0.0454266 0)
(0.474174 -0.128163 0)
(0.561462 -0.102716 0)
(0.592189 0.0521572 0)
(0.593535 0.120125 0)
(0.612349 0.171235 0)
(0.654001 0.19521 0)
(0.688936 0.261036 0)
(0.00325869 -0.369338 0)
(0.0141112 -0.369327 0)
(0.0223335 -0.364931 0)
(0.0281503 -0.364377 0)
(0.0364343 -0.356361 0)
(0.042762 -0.346719 0)
(0.0517671 -0.335007 0)
(0.0599184 -0.324802 0)
(0.0769842 -0.313546 0)
(0.0945184 -0.314923 0)
(0.127229 -0.316888 0)
(0.167939 -0.314774 0)
(0.219448 -0.302469 0)
(0.278153 -0.275428 0)
(0.343672 -0.239417 0)
(0.45298 -0.198603 0)
(0.546166 -0.121193 0)
(0.574843 -0.0146916 0)
(0.640538 0.125105 0)
(0.704143 0.179218 0)
(0.670086 0.182436 0)
(0.615352 0.184276 0)
(0.64485 0.243181 0)
(0.00648832 -0.385263 0)
(0.0161484 -0.385411 0)
(0.0278052 -0.380392 0)
(0.0372025 -0.379381 0)
(0.046972 -0.371442 0)
(0.0581525 -0.36355 0)
(0.0709524 -0.35246 0)
(0.0851839 -0.344873 0)
(0.104478 -0.331727 0)
(0.123312 -0.333563 0)
(0.1438 -0.333132 0)
(0.166612 -0.335828 0)
(0.182731 -0.315431 0)
(0.205067 -0.299913 0)
(0.235194 -0.271264 0)
(0.271102 -0.245201 0)
(0.323638 -0.243361 0)
(0.40263 -0.196463 0)
(0.521352 -0.0758237 0)
(0.685396 0.091056 0)
(0.799894 0.263713 0)
(0.800205 0.227679 0)
(0.736176 0.19769 0)
(0.00759265 -0.391435 0)
(0.0135944 -0.390138 0)
(0.026956 -0.385463 0)
(0.0354687 -0.383059 0)
(0.0473981 -0.37678 0)
(0.0584007 -0.370291 0)
(0.0736442 -0.361586 0)
(0.0866883 -0.358113 0)
(0.106168 -0.351517 0)
(0.121034 -0.354459 0)
(0.138289 -0.360538 0)
(0.153224 -0.354681 0)
(0.166328 -0.342181 0)
(0.187438 -0.329541 0)
(0.206832 -0.308285 0)
(0.239855 -0.289481 0)
(0.269757 -0.257599 0)
(0.294773 -0.215096 0)
(0.347188 -0.160475 0)
(0.460771 -0.10085 0)
(0.634949 0.0621775 0)
(0.843752 0.242421 0)
(0.882248 0.342441 0)
(0.00686543 -0.4068 0)
(0.0169263 -0.405091 0)
(0.0304239 -0.402628 0)
(0.0433668 -0.400099 0)
(0.0571814 -0.394775 0)
(0.0720723 -0.390017 0)
(0.0889686 -0.381174 0)
(0.105169 -0.37746 0)
(0.123213 -0.366412 0)
(0.137335 -0.365303 0)
(0.147376 -0.365291 0)
(0.154327 -0.362752 0)
(0.163601 -0.349072 0)
(0.174954 -0.338876 0)
(0.189404 -0.322301 0)
(0.205464 -0.30639 0)
(0.2232 -0.295798 0)
(0.243777 -0.272058 0)
(0.278444 -0.241087 0)
(0.319974 -0.195856 0)
(0.381929 -0.119163 0)
(0.545658 -0.0154055 0)
(0.725453 0.169714 0)
(0.00669504 -0.415121 0)
(0.0194342 -0.413623 0)
(0.0334358 -0.411803 0)
(0.0468392 -0.409764 0)
(0.061431 -0.405396 0)
(0.0754037 -0.40207 0)
(0.0922878 -0.394664 0)
(0.107134 -0.392437 0)
(0.124762 -0.38385 0)
(0.140623 -0.37891 0)
(0.152931 -0.378048 0)
(0.163806 -0.37157 0)
(0.17534 -0.363906 0)
(0.19109 -0.356223 0)
(0.206237 -0.340639 0)
(0.225773 -0.324439 0)
(0.243138 -0.298335 0)
(0.255632 -0.271933 0)
(0.273774 -0.239124 0)
(0.291013 -0.206164 0)
(0.324821 -0.166874 0)
(0.37392 -0.105074 0)
(0.46948 -0.0082964 0)
(0.00715188 -0.432989 0)
(0.0214432 -0.431876 0)
(0.0363441 -0.430129 0)
(0.0514508 -0.428123 0)
(0.0667706 -0.423472 0)
(0.0826355 -0.420872 0)
(0.0997895 -0.413068 0)
(0.117243 -0.409809 0)
(0.134822 -0.400003 0)
(0.15449 -0.393021 0)
(0.171059 -0.388244 0)
(0.186876 -0.384304 0)
(0.203612 -0.375821 0)
(0.219458 -0.368736 0)
(0.236772 -0.356112 0)
(0.253953 -0.341947 0)
(0.273718 -0.324428 0)
(0.294379 -0.300897 0)
(0.317645 -0.27543 0)
(0.343533 -0.244804 0)
(0.364771 -0.201489 0)
(0.395173 -0.158001 0)
(0.439904 -0.0924234 0)
(0.00757268 -0.443864 0)
(0.0220214 -0.442988 0)
(0.0374717 -0.441955 0)
(0.0520891 -0.440358 0)
(0.0682805 -0.436733 0)
(0.0835039 -0.435264 0)
(0.101052 -0.429487 0)
(0.117715 -0.427694 0)
(0.136689 -0.421469 0)
(0.15734 -0.415546 0)
(0.178542 -0.411042 0)
(0.198756 -0.40471 0)
(0.21907 -0.397421 0)
(0.239978 -0.39005 0)
(0.261452 -0.376511 0)
(0.284352 -0.362268 0)
(0.30906 -0.340563 0)
(0.333571 -0.317119 0)
(0.364785 -0.290219 0)
(0.393619 -0.254839 0)
(0.430646 -0.220508 0)
(0.475031 -0.182068 0)
(0.52343 -0.134783 0)
(0.00784969 -0.462502 0)
(0.0242115 -0.461695 0)
(0.0401604 -0.460142 0)
(0.0564348 -0.458838 0)
(0.0732906 -0.454861 0)
(0.0901631 -0.453522 0)
(0.108185 -0.447271 0)
(0.12614 -0.445237 0)
(0.14446 -0.43958 0)
(0.164203 -0.434498 0)
(0.184 -0.429473 0)
(0.203856 -0.424227 0)
(0.224813 -0.416673 0)
(0.244862 -0.410303 0)
(0.266595 -0.399884 0)
(0.288865 -0.38844 0)
(0.314253 -0.372845 0)
(0.342374 -0.355124 0)
(0.375936 -0.334725 0)
(0.412423 -0.308909 0)
(0.458113 -0.282245 0)
(0.509038 -0.249189 0)
(0.565571 -0.209282 0)
(0.00859594 -0.476211 0)
(0.0240487 -0.475596 0)
(0.0415222 -0.474468 0)
(0.0575872 -0.473779 0)
(0.0757069 -0.470776 0)
(0.0925432 -0.470455 0)
(0.111615 -0.465846 0)
(0.12999 -0.464306 0)
(0.149619 -0.460044 0)
(0.169782 -0.455551 0)
(0.191082 -0.451378 0)
(0.212429 -0.446119 0)
(0.235175 -0.439345 0)
(0.25838 -0.432557 0)
(0.283024 -0.421758 0)
(0.308993 -0.410859 0)
(0.338414 -0.395651 0)
(0.369924 -0.38002 0)
(0.407425 -0.362076 0)
(0.446465 -0.338463 0)
(0.494995 -0.319092 0)
(0.545708 -0.291045 0)
(0.605843 -0.262193 0)
(0.00849711 -0.494998 0)
(0.0253716 -0.494482 0)
(0.0427954 -0.493545 0)
(0.0599621 -0.492865 0)
(0.078009 -0.489698 0)
(0.0954903 -0.489234 0)
(0.113955 -0.484601 0)
(0.132321 -0.482963 0)
(0.151101 -0.479212 0)
(0.17064 -0.475563 0)
(0.190874 -0.471881 0)
(0.211276 -0.467772 0)
(0.233309 -0.462275 0)
(0.255663 -0.457426 0)
(0.280672 -0.450005 0)
(0.307434 -0.442897 0)
(0.338253 -0.433215 0)
(0.372587 -0.423008 0)
(0.412258 -0.410774 0)
(0.456457 -0.395276 0)
(0.509698 -0.381207 0)
(0.565243 -0.358979 0)
(0.631631 -0.338204 0)
(0.00889632 -0.510438 0)
(0.026565 -0.51027 0)
(0.044757 -0.509433 0)
(0.062258 -0.509364 0)
(0.0811325 -0.506716 0)
(0.0990726 -0.506782 0)
(0.118516 -0.50316 0)
(0.137697 -0.501873 0)
(0.157844 -0.498949 0)
(0.178286 -0.495834 0)
(0.200025 -0.492728 0)
(0.221885 -0.489163 0)
(0.245772 -0.484621 0)
(0.270257 -0.480646 0)
(0.297511 -0.474651 0)
(0.326292 -0.469331 0)
(0.358856 -0.462172 0)
(0.394035 -0.455102 0)
(0.434379 -0.447503 0)
(0.478751 -0.437119 0)
(0.531268 -0.429578 0)
(0.587769 -0.414164 0)
(0.656724 -0.405307 0)
(0.00896207 -0.530297 0)
(0.0267665 -0.530179 0)
(0.0448835 -0.529084 0)
(0.0625689 -0.529053 0)
(0.0810753 -0.526358 0)
(0.0990566 -0.526384 0)
(0.117878 -0.523057 0)
(0.136735 -0.52199 0)
(0.156258 -0.519598 0)
(0.176144 -0.517354 0)
(0.197381 -0.515228 0)
(0.218831 -0.513033 0)
(0.242518 -0.510345 0)
(0.266799 -0.508573 0)
(0.294089 -0.505692 0)
(0.322977 -0.503544 0)
(0.355691 -0.500612 0)
(0.391588 -0.497769 0)
(0.432538 -0.495232 0)
(0.478662 -0.491449 0)
(0.532693 -0.490184 0)
(0.592679 -0.483842 0)
(0.665633 -0.486069 0)
(0.00928433 -0.546552 0)
(0.0274019 -0.546581 0)
(0.046164 -0.545638 0)
(0.0643209 -0.545947 0)
(0.0834879 -0.543646 0)
(0.102064 -0.543991 0)
(0.121621 -0.541344 0)
(0.141099 -0.540694 0)
(0.161475 -0.538946 0)
(0.181925 -0.537462 0)
(0.203903 -0.536102 0)
(0.22591 -0.534878 0)
(0.250071 -0.5334 0)
(0.274622 -0.532879 0)
(0.301778 -0.531794 0)
(0.330465 -0.531695 0)
(0.362592 -0.531904 0)
(0.397999 -0.532826 0)
(0.438083 -0.535845 0)
(0.483829 -0.538257 0)
(0.53599 -0.545038 0)
(0.596742 -0.548124 0)
(0.668715 -0.562921 0)
(0.00932991 -0.566849 0)
(0.0280306 -0.566912 0)
(0.0467624 -0.565872 0)
(0.065299 -0.566204 0)
(0.0841122 -0.563969 0)
(0.10278 -0.564305 0)
(0.121694 -0.56195 0)
(0.140933 -0.561581 0)
(0.160483 -0.560259 0)
(0.180479 -0.559465 0)
(0.201426 -0.559029 0)
(0.222886 -0.558825 0)
(0.245854 -0.558861 0)
(0.269911 -0.559849 0)
(0.295963 -0.561344 0)
(0.324596 -0.5639 0)
(0.355539 -0.567996 0)
(0.3911 -0.572822 0)
(0.429094 -0.580993 0)
(0.474502 -0.589012 0)
(0.523087 -0.603181 0)
(0.583231 -0.61637 0)
(0.651206 -0.64172 0)
(0.00958604 -0.58429 0)
(0.0286958 -0.584383 0)
(0.0478423 -0.5833 0)
(0.0667569 -0.583666 0)
(0.085784 -0.581552 0)
(0.104788 -0.58195 0)
(0.12374 -0.579966 0)
(0.143219 -0.579883 0)
(0.162509 -0.579014 0)
(0.18273 -0.578839 0)
(0.202915 -0.579095 0)
(0.224568 -0.579783 0)
(0.24617 -0.581091 0)
(0.270758 -0.58351 0)
(0.294423 -0.587237 0)
(0.323719 -0.59185 0)
(0.350447 -0.599265 0)
(0.386642 -0.60704 0)
(0.41842 -0.620218 0)
(0.464398 -0.633014 0)
(0.504917 -0.654901 0)
(0.565276 -0.677123 0)
(0.621626 -0.713239 0)
(0.00956404 -0.605042 0)
(0.0293075 -0.605065 0)
(0.0483493 -0.60385 0)
(0.0678535 -0.604016 0)
(0.0865873 -0.601918 0)
(0.106137 -0.602095 0)
(0.12447 -0.600295 0)
(0.14437 -0.600148 0)
(0.162604 -0.599677 0)
(0.183326 -0.599634 0)
(0.201737 -0.600768 0)
(0.22398 -0.601812 0)
(0.242747 -0.604958 0)
(0.268112 -0.607823 0)
(0.287505 -0.614228 0)
(0.317705 -0.619663 0)
(0.338643 -0.630868 0)
(0.376011 -0.6406 0)
(0.40027 -0.65873 0)
(0.447143 -0.675447 0)
(0.477964 -0.704102 0)
(0.536844 -0.733215 0)
(0.57887 -0.777861 0)
(0.00961225 -0.623517 0)
(0.0296997 -0.623513 0)
(0.0488474 -0.622218 0)
(0.0686829 -0.62224 0)
(0.0874215 -0.620231 0)
(0.107295 -0.620167 0)
(0.125336 -0.618624 0)
(0.145409 -0.61836 0)
(0.162832 -0.618428 0)
(0.183555 -0.618331 0)
(0.200445 -0.620243 0)
(0.222458 -0.621178 0)
(0.238734 -0.625753 0)
(0.263232 -0.628695 0)
(0.279426 -0.637384 0)
(0.30785 -0.643495 0)
(0.32537 -0.658129 0)
(0.359116 -0.669311 0)
(0.379888 -0.691881 0)
(0.420461 -0.711563 0)
(0.447356 -0.745061 0)
(0.496091 -0.779165 0)
(0.53223 -0.829969 0)
(0.00962732 -0.644309 0)
(0.0302517 -0.64424 0)
(0.0494309 -0.642795 0)
(0.0697861 -0.642504 0)
(0.0884966 -0.640492 0)
(0.10892 -0.639891 0)
(0.126773 -0.638362 0)
(0.147321 -0.637491 0)
(0.164186 -0.637762 0)
(0.185032 -0.637069 0)
(0.20066 -0.63959 0)
(0.222321 -0.639913 0)
(0.236502 -0.645622 0)
(0.259754 -0.648356 0)
(0.273062 -0.658682 0)
(0.298409 -0.66554 0)
(0.312573 -0.681876 0)
(0.340241 -0.695235 0)
(0.358277 -0.719663 0)
(0.389093 -0.743342 0)
(0.41453 -0.779123 0)
(0.449198 -0.818957 0)
(0.483519 -0.873383 0)
(0.00951074 -0.663732 0)
(0.0299677 -0.663647 0)
(0.0489268 -0.662105 0)
(0.0692786 -0.661626 0)
(0.0878451 -0.659741 0)
(0.108406 -0.658763 0)
(0.126162 -0.657424 0)
(0.146816 -0.656103 0)
(0.163438 -0.656553 0)
(0.184182 -0.655155 0)
(0.199256 -0.657947 0)
(0.220261 -0.657409 0)
(0.233448 -0.663579 0)
(0.254746 -0.66572 0)
(0.266316 -0.676364 0)
(0.287254 -0.683604 0)
(0.299104 -0.700169 0)
(0.31999 -0.715814 0)
(0.334828 -0.740797 0)
(0.356718 -0.76886 0)
(0.37633 -0.805038 0)
(0.399937 -0.849492 0)
(0.424234 -0.903278 0)
(0.00939142 -0.683768 0)
(0.0294247 -0.683629 0)
(0.048094 -0.682091 0)
(0.0682899 -0.681366 0)
(0.0866374 -0.679598 0)
(0.107172 -0.678119 0)
(0.124868 -0.676729 0)
(0.145489 -0.674645 0)
(0.161993 -0.675048 0)
(0.182366 -0.672744 0)
(0.197211 -0.675534 0)
(0.217185 -0.673968 0)
(0.229975 -0.679883 0)
(0.248955 -0.681143 0)
(0.259647 -0.690831 0)
(0.27643 -0.69837 0)
(0.28641 -0.714093 0)
(0.300876 -0.731183 0)
(0.310582 -0.755684 0)
(0.324165 -0.785344 0)
(0.333716 -0.821382 0)
(0.349235 -0.8678 0)
(0.357636 -0.919086 0)
(0.00914213 -0.702867 0)
(0.0281102 -0.702673 0)
(0.0461714 -0.70131 0)
(0.0656358 -0.700492 0)
(0.0834818 -0.698988 0)
(0.103488 -0.697331 0)
(0.121142 -0.69613 0)
(0.141509 -0.693587 0)
(0.158234 -0.693829 0)
(0.17807 -0.690767 0)
(0.193302 -0.693143 0)
(0.212181 -0.690624 0)
(0.225336 -0.695663 0)
(0.242298 -0.695927 0)
(0.252948 -0.704033 0)
(0.266396 -0.711013 0)
(0.274091 -0.724641 0)
(0.283004 -0.740788 0)
(0.286357 -0.763895 0)
(0.292879 -0.793039 0)
(0.291581 -0.829588 0)
(0.298923 -0.874811 0)
(0.291253 -0.926633 0)
(0.00857308 -0.720996 0)
(0.0258431 -0.720637 0)
(0.0426827 -0.719597 0)
(0.0607211 -0.718626 0)
(0.0774098 -0.717417 0)
(0.0962561 -0.715701 0)
(0.113112 -0.714688 0)
(0.132733 -0.711636 0)
(0.149365 -0.711489 0)
(0.168671 -0.707695 0)
(0.184237 -0.709443 0)
(0.202358 -0.705897 0)
(0.216215 -0.709679 0)
(0.231938 -0.708695 0)
(0.242781 -0.71445 0)
(0.253939 -0.719534 0)
(0.259904 -0.730039 0)
(0.265272 -0.743616 0)
(0.263594 -0.764612 0)
(0.263388 -0.791015 0)
(0.253073 -0.826065 0)
(0.250505 -0.868441 0)
(0.230987 -0.91906 0)
(0.00780686 -0.73757 0)
(0.0236255 -0.737087 0)
(0.039026 -0.736496 0)
(0.0555398 -0.735529 0)
(0.0709504 -0.734862 0)
(0.0883416 -0.733371 0)
(0.104112 -0.732977 0)
(0.122466 -0.730221 0)
(0.13879 -0.730152 0)
(0.157596 -0.726071 0)
(0.173689 -0.727189 0)
(0.19133 -0.723094 0)
(0.205928 -0.725537 0)
(0.220753 -0.723058 0)
(0.231725 -0.726203 0)
(0.241705 -0.728767 0)
(0.246143 -0.735947 0)
(0.249103 -0.7452 0)
(0.243461 -0.761698 0)
(0.23767 -0.783433 0)
(0.219869 -0.815968 0)
(0.208026 -0.853972 0)
(0.178075 -0.904118 0)
(0.00657207 -0.752396 0)
(0.0204262 -0.751835 0)
(0.0335061 -0.751481 0)
(0.0478693 -0.750509 0)
(0.0611673 -0.750175 0)
(0.0763799 -0.748802 0)
(0.0902335 -0.748733 0)
(0.106457 -0.746237 0)
(0.121257 -0.746479 0)
(0.138524 -0.742506 0)
(0.154288 -0.742954 0)
(0.171619 -0.738058 0)
(0.186721 -0.738762 0)
(0.201974 -0.734425 0)
(0.214001 -0.734915 0)
(0.225079 -0.733908 0)
(0.229697 -0.736754 0)
(0.232359 -0.740966 0)
(0.225568 -0.752176 0)
(0.216278 -0.767638 0)
(0.193862 -0.794988 0)
(0.174334 -0.827237 0)
(0.138474 -0.87237 0)
(0.00552837 -0.764791 0)
(0.0175855 -0.764261 0)
(0.028671 -0.764175 0)
(0.0410972 -0.763436 0)
(0.0525221 -0.763631 0)
(0.0656977 -0.762714 0)
(0.077776 -0.763343 0)
(0.0919658 -0.76158 0)
(0.105243 -0.762544 0)
(0.120704 -0.759525 0)
(0.135388 -0.760618 0)
(0.151732 -0.75603 0)
(0.166582 -0.756188 0)
(0.181922 -0.750906 0)
(0.194265 -0.749512 0)
(0.205853 -0.745061 0)
(0.210652 -0.743247 0)
(0.213405 -0.741699 0)
(0.206242 -0.745336 0)
(0.19546 -0.752421 0)
(0.169617 -0.773303 0)
(0.14379 -0.799489 0)
(0.10223 -0.840119 0)
(0.00436049 -0.775492 0)
(0.0142215 -0.774973 0)
(0.02298 -0.774975 0)
(0.0330767 -0.774344 0)
(0.0421363 -0.774747 0)
(0.0528298 -0.774032 0)
(0.0625116 -0.774944 0)
(0.0741581 -0.77367 0)
(0.0851097 -0.775103 0)
(0.0980362 -0.772601 0)
(0.110574 -0.773787 0)
(0.124657 -0.769202 0)
(0.138299 -0.768646 0)
(0.152505 -0.762058 0)
(0.164688 -0.758407 0)
(0.176695 -0.750234 0)
(0.183756 -0.743692 0)
(0.18923 -0.736479 0)
(0.184375 -0.733326 0)
(0.174898 -0.730987 0)
(0.148376 -0.741934 0)
(0.116194 -0.760014 0)
(0.0669172 -0.796398 0)
(0.00337522 -0.783497 0)
(0.0111893 -0.783019 0)
(0.0180041 -0.783163 0)
(0.0260097 -0.782739 0)
(0.0331181 -0.78353 0)
(0.0416816 -0.783262 0)
(0.0494176 -0.784839 0)
(0.0589552 -0.784403 0)
(0.067873 -0.786625 0)
(0.0785965 -0.785306 0)
(0.0891467 -0.787479 0)
(0.101112 -0.784176 0)
(0.113278 -0.784295 0)
(0.125866 -0.77782 0)
(0.137648 -0.773919 0)
(0.148903 -0.764714 0)
(0.156073 -0.755873 0)
(0.162346 -0.742927 0)
(0.158663 -0.730865 0)
(0.151741 -0.717041 0)
(0.127503 -0.714088 0)
(0.0954119 -0.718646 0)
(0.0382805 -0.74767 0)
(0.00244225 -0.790074 0)
(0.00826489 -0.789628 0)
(0.0131694 -0.789806 0)
(0.0190589 -0.789477 0)
(0.0241338 -0.790417 0)
(0.0304309 -0.790347 0)
(0.0359609 -0.792193 0)
(0.0429919 -0.792138 0)
(0.0494152 -0.794676 0)
(0.0574188 -0.793874 0)
(0.0652139 -0.796167 0)
(0.0743035 -0.79332 0)
(0.083692 -0.793166 0)
(0.0937776 -0.786399 0)
(0.103926 -0.781076 0)
(0.113971 -0.768631 0)
(0.121366 -0.756597 0)
(0.128205 -0.738994 0)
(0.126648 -0.721863 0)
(0.123559 -0.699595 0)
(0.104121 -0.684213 0)
(0.0762136 -0.67046 0)
(0.020048 -0.683916 0)
(0.00167369 -0.794215 0)
(0.00570372 -0.793769 0)
(0.0090416 -0.793977 0)
(0.0130989 -0.793741 0)
(0.0165362 -0.794932 0)
(0.0208908 -0.795153 0)
(0.0246197 -0.797445 0)
(0.0295279 -0.797964 0)
(0.0339384 -0.801123 0)
(0.0396847 -0.801283 0)
(0.0452547 -0.804474 0)
(0.0519925 -0.802932 0)
(0.0589281 -0.803919 0)
(0.0666534 -0.798455 0)
(0.0745014 -0.794282 0)
(0.0828778 -0.78266 0)
(0.0896019 -0.770216 0)
(0.0962481 -0.748837 0)
(0.095932 -0.726287 0)
(0.0940237 -0.695293 0)
(0.0782007 -0.666639 0)
(0.0559803 -0.635306 0)
(0.00787047 -0.628011 0)
(0.00104622 -0.797533 0)
(0.00360351 -0.797078 0)
(0.00556567 -0.797265 0)
(0.00802132 -0.79704 0)
(0.0099214 -0.798253 0)
(0.0124532 -0.798492 0)
(0.0144491 -0.80085 0)
(0.0172984 -0.801511 0)
(0.0197046 -0.804814 0)
(0.0231034 -0.805228 0)
(0.0261956 -0.808396 0)
(0.030245 -0.807007 0)
(0.0341712 -0.807661 0)
(0.0390104 -0.801959 0)
(0.0436085 -0.797012 0)
(0.0492867 -0.783695 0)
(0.0532792 -0.76952 0)
(0.0586203 -0.745176 0)
(0.0589928 -0.718802 0)
(0.0590682 -0.681449 0)
(0.0472756 -0.644729 0)
(0.0307516 -0.599367 0)
(-0.0085476 -0.568803 0)
(0.000559314 -0.798745 0)
(0.00197681 -0.798184 0)
(0.00295982 -0.798293 0)
(0.00426223 -0.798015 0)
(0.00509973 -0.799275 0)
(0.00635797 -0.799623 0)
(0.00716882 -0.802214 0)
(0.00857155 -0.803199 0)
(0.00952753 -0.806876 0)
(0.0111969 -0.807815 0)
(0.0124373 -0.811602 0)
(0.0145253 -0.81104 0)
(0.0161473 -0.812723 0)
(0.0188759 -0.808144 0)
(0.0207459 -0.804656 0)
(0.0242318 -0.792725 0)
(0.0258009 -0.779695 0)
(0.0292107 -0.755172 0)
(0.0281652 -0.726998 0)
(0.0276199 -0.684516 0)
(0.017127 -0.638723 0)
(0.00164628 -0.580638 0)
(-0.0318097 -0.528578 0)
(0.000199527 -0.800252 0)
(0.000890994 -0.799653 0)
(0.00118992 -0.799702 0)
(0.00172567 -0.799331 0)
(0.00179666 -0.800474 0)
(0.00215916 -0.800694 0)
(0.00201675 -0.803159 0)
(0.00226128 -0.803985 0)
(0.00194127 -0.807493 0)
(0.00213713 -0.808221 0)
(0.00167121 -0.811709 0)
(0.00191781 -0.81075 0)
(0.00127562 -0.811896 0)
(0.0016859 -0.806525 0)
(0.000632241 -0.802115 0)
(0.00122806 -0.78863 0)
(-0.000674663 -0.774045 0)
(-0.000123141 -0.747238 0)
(-0.00371667 -0.716358 0)
(-0.00482207 -0.669724 0)
(-0.0139642 -0.617136 0)
(-0.0258388 -0.549173 0)
(-0.0543602 -0.479433 0)
(2.38112e-05 -0.799576 0)
(0.000331069 -0.798928 0)
(0.000251663 -0.798888 0)
(0.000343283 -0.798402 0)
(-2.64851e-05 -0.799489 0)
(-0.000151536 -0.799657 0)
(-0.000833214 -0.80212 0)
(-0.00121961 -0.802973 0)
(-0.00227714 -0.806583 0)
(-0.0029405 -0.807453 0)
(-0.00443597 -0.811264 0)
(-0.00534482 -0.810647 0)
(-0.00736681 -0.812451 0)
(-0.00842545 -0.807638 0)
(-0.0111496 -0.804267 0)
(-0.0122989 -0.791749 0)
(-0.0158629 -0.778572 0)
(-0.0171269 -0.752781 0)
(-0.0218408 -0.722811 0)
(-0.0240524 -0.675432 0)
(-0.0313913 -0.618712 0)
(-0.0386663 -0.542009 0)
(-0.0589355 -0.460445 0)
(-0.000150793 -0.800936 0)
(-0.000182045 -0.800202 0)
(-0.000611958 -0.800019 0)
(-0.000845273 -0.799346 0)
(-0.00156322 -0.800241 0)
(-0.00209349 -0.800136 0)
(-0.00323473 -0.802302 0)
(-0.00415587 -0.802751 0)
(-0.00584489 -0.805929 0)
(-0.00724087 -0.806218 0)
(-0.00960841 -0.809376 0)
(-0.0115642 -0.807883 0)
(-0.0148148 -0.808749 0)
(-0.0174244 -0.802676 0)
(-0.0218714 -0.797973 0)