/*--------------------------------*- C++ -*----------------------------------*\
| =========                 |                                                 |
| \\      /  F ield         | OpenFOAM: The Open Source CFD Toolbox           |
|  \\    /   O peration     | Version:  2012                                  |
|   \\  /    A nd           | Website:  www.openfoam.com                      |
|    \\/     M anipulation  |                                                 |
\*---------------------------------------------------------------------------*/
FoamFile
{
    version     2.0;
    format      ascii;
    class       volScalarField;
    location    "0.98";
    object      maxKappa;
}
// * * * * * * * * * * * * * * * * * * * * * * * * * * * * * * * * * * * * * //

dimensions      [0 0 0 0 0 0 0];


internalField   nonuniform List<scalar> 
2268
(
1.64691e-07
2.45799e-07
2.45799e-07
2.02484e-07
2.88368e-07
6.80823e-07
1.03828e-06
1.28628e-06
1.30555e-06
1.30555e-06
1.07719e-06
6.58955e-07
6.00645e-07
1.15587e-06
1.65783e-06
2.15289e-06
2.55202e-06
2.87124e-06
3.01829e-06
3.01829e-06
2.8847e-06
2.13947e-06
1.27384e-06
1.99874e-07
2.628e-07
2.64494e-07
2.64494e-07
4.16576e-07
7.49398e-07
1.08907e-06
1.33702e-06
1.36472e-06
1.36472e-06
1.14357e-06
7.53217e-07
7.05386e-07
1.21734e-06
1.72329e-06
2.22019e-06
2.63131e-06
2.97592e-06
3.10407e-06
3.10407e-06
2.97451e-06
2.36843e-06
1.54342e-06
2.59063e-07
3.28228e-07
3.28228e-07
3.23981e-07
4.63914e-07
8.46418e-07
1.21233e-06
1.45733e-06
1.47523e-06
1.47523e-06
1.28655e-06
1.01692e-06
1.02133e-06
1.42072e-06
1.88979e-06
2.34236e-06
2.69424e-06
3.04603e-06
3.25625e-06
3.25625e-06
3.21212e-06
2.60386e-06
1.87033e-06
3.59683e-07
4.39281e-07
5.05791e-07
5.60759e-07
7.35935e-07
1.04444e-06
1.3662e-06
1.61555e-06
1.65725e-06
1.65725e-06
1.49164e-06
1.2306e-06
1.19883e-06
1.54409e-06
1.99193e-06
2.45699e-06
2.87448e-06
3.28292e-06
3.50541e-06
3.59938e-06
3.59938e-06
3.2478e-06
2.56983e-06
4.82254e-07
5.5187e-07
5.91694e-07
6.18349e-07
8.40608e-07
1.23778e-06
1.60552e-06
1.85587e-06
1.88786e-06
1.88786e-06
1.76305e-06
1.62154e-06
1.62596e-06
1.89421e-06
2.32547e-06
2.71433e-06
2.95311e-06
3.29946e-06
3.8336e-06
4.23038e-06
4.23038e-06
3.87524e-06
3.20785e-06
6.44586e-07
7.40339e-07
8.60063e-07
9.90189e-07
1.2349e-06
1.57328e-06
1.89723e-06
2.16868e-06
2.24411e-06
2.24411e-06
2.12458e-06
1.93673e-06
1.8702e-06
2.10154e-06
2.44984e-06
2.79216e-06
3.105e-06
3.50658e-06
3.89415e-06
4.35539e-06
4.42411e-06
4.42411e-06
4.16143e-06
9.09005e-07
1.02956e-06
1.11776e-06
1.18301e-06
1.44265e-06
1.88595e-06
2.2858e-06
2.5555e-06
2.6129e-06
2.6129e-06
2.53536e-06
2.48157e-06
2.41611e-06
2.57017e-06
2.87945e-06
2.95437e-06
2.95437e-06
2.73457e-06
3.28644e-06
4.13733e-06
4.55064e-06
4.55064e-06
4.52287e-06
1.10593e-06
1.20402e-06
1.42196e-06
1.66158e-06
2.01856e-06
2.42854e-06
2.78605e-06
3.11329e-06
3.2111e-06
3.2111e-06
3.07701e-06
2.89474e-06
2.74805e-06
2.74805e-06
2.70124e-06
3.51001e-06
4.76277e-06
1.99691e-05
2.13755e-05
1.21064e-05
4.17245e-06
5.41212e-06
5.41212e-06
0.000291962
0.000355087
0.000377047
0.000377047
0.000264426
0.000131411
4.68342e-05
1.71342e-05
9.86238e-06
1.9671e-05
4.06737e-05
4.06737e-05
3.87173e-05
4.0126e-05
4.56561e-05
5.041e-05
5.041e-05
3.37928e-05
1.60648e-05
0.000335963
0.000923376
0.000970258
0.000970258
0.000585192
0.00022326
4.32151e-05
1.743e-05
8.90538e-06
9.75662e-06
1.91521e-05
3.63246e-05
5.46946e-05
0.000162504
0.000243264
0.00026332
0.00026332
0.000132811
1.91587e-05
0.000439801
0.000623123
0.000623123
0.000606095
0.0002586
0.000104558
3.52328e-05
1.97208e-05
1.172e-05
8.68449e-06
1.40325e-05
2.37989e-05
3.4525e-05
0.000108578
0.000193615
0.000247219
0.000247219
0.00016227
2.39108e-05
0.00106913
0.00106913
0.000843061
0.000535863
0.000216261
8.66379e-05
3.38012e-05
2.24999e-05
1.45246e-05
1.63527e-05
2.27984e-05
2.24228e-05
3.02139e-05
4.2342e-05
6.23929e-05
0.000140462
0.000140462
0.000106066
2.09074e-05
0.000709249
0.000709249
0.00061187
0.00047902
0.000433943
0.000342747
5.72377e-05
2.91159e-05
7.96638e-05
0.000108858
0.000111104
0.000111104
3.12524e-05
2.75192e-05
3.74265e-05
0.000112149
0.000112149
6.48861e-05
1.41759e-05
0.000294511
0.000426302
0.0006738
0.0006738
0.000666237
0.000427207
0.000133389
0.000131781
0.000326364
0.000326364
0.00032056
0.00028918
0.00028918
0.000184394
4.09185e-05
7.2902e-05
7.2902e-05
2.28304e-05
8.08522e-06
0.000219819
0.000440201
0.000817092
0.000817092
0.000613403
0.000300577
0.000208941
0.000354542
0.000527105
0.000527105
0.000416288
0.000375778
0.000375778
0.000371713
0.000209439
7.68186e-05
2.44211e-05
1.07125e-05
4.87897e-06
0.000186835
0.000427946
0.000508774
0.000508774
0.000430314
0.000330727
0.000195659
0.000410322
0.000411876
0.000411876
0.000225501
0.000275916
0.000275916
0.000254163
0.000185734
4.73698e-05
1.56197e-05
9.26495e-06
5.24785e-06
2.27598e-06
2.44253e-06
2.89609e-06
3.04877e-06
3.36246e-06
4.0763e-06
4.46219e-06
4.83989e-06
5.15557e-06
5.85011e-06
6.79359e-06
7.71623e-06
8.13159e-06
1.24061e-05
2.34967e-05
0.000218673
0.000331947
0.000256491
0.000197282
0.000113893
9.19609e-05
3.81659e-05
7.88022e-06
3.65466e-06
3.99561e-06
4.28372e-06
4.47299e-06
5.02254e-06
8.86169e-06
1.14445e-05
9.5635e-06
1.03443e-05
1.99916e-05
4.45773e-05
7.73621e-05
0.000102597
0.000202177
0.000304709
0.000956225
0.000663068
0.00058949
0.000357941
0.000229405
0.000172726
0.000135593
2.49503e-05
5.4615e-06
5.76708e-06
4.90137e-06
7.56369e-06
1.52323e-05
6.08327e-05
8.85001e-05
6.25719e-05
4.86216e-05
9.89668e-05
0.000272037
0.000339011
0.000407823
0.000495621
0.00119395
0.000961359
0.000953029
0.000462725
0.000196585
6.21326e-05
9.05355e-05
0.000135593
7.68807e-05
7.18388e-06
8.05958e-06
1.67594e-05
5.28594e-05
0.000119613
0.00018549
0.000287831
0.000313467
0.000286865
0.000388151
0.000534218
0.000542814
0.000576276
0.000955993
0.00185156
0.00117816
0.000502964
0.000193958
5.91399e-05
4.19035e-05
4.0657e-05
0.000136749
0.000135011
8.55395e-06
4.09927e-05
0.000175257
0.000264953
0.000281479
0.000318873
0.000610858
0.000868062
0.000849704
0.000681804
0.000608752
0.000588947
0.000630235
0.00124831
0.00185156
0.00118336
0.000361428
9.38324e-05
6.39295e-05
5.59313e-05
0.00012366
0.000163255
0.000163255
1.98716e-05
0.000187204
0.000434055
0.000607429
0.000483607
0.000623333
0.00102723
0.00133062
0.0011793
0.00089983
0.00072408
0.000721086
0.000783298
0.00112892
0.00163154
0.00101927
0.000422547
0.000107258
6.90938e-05
6.68264e-05
9.63092e-05
0.000140057
8.52994e-05
4.0879e-05
0.000354
0.000659799
0.000855252
0.000668757
0.00108816
0.00134243
0.00134243
0.00121438
0.000896526
0.000846202
0.000866205
0.000802497
0.0013867
0.00149098
0.00120368
0.000763063
0.000493205
0.000122904
7.06257e-05
6.76536e-05
7.38711e-05
0.000120676
8.21114e-05
0.000437409
0.000720759
0.000939749
0.00107863
0.00142048
0.00142048
0.00133158
0.000944941
0.000705492
0.000780343
0.000866205
0.000870497
0.00111954
0.00137026
0.000951835
0.000767475
0.000767475
0.000602851
0.000193402
6.76733e-05
0.000162209
0.000427278
0.000100864
0.000649428
0.000957811
0.00094113
0.00112383
0.00132719
0.00132925
0.00112266
0.000863703
0.000704526
0.000721244
0.000853093
0.000780621
0.000982729
0.00101662
0.00065093
0.000716979
0.000704772
0.00058444
0.000431485
0.00016865
0.000283627
0.000427278
0.00010203
0.000708165
0.00116705
0.000990489
0.000916571
0.00116197
0.00111182
0.000919356
0.000789309
0.000704526
0.000707859
0.000781924
0.000695673
0.000780256
0.000724235
0.000505536
0.000597491
0.000638658
0.000593962
0.000533467
0.000380301
0.000204873
0.000407243
0.000105918
0.000844817
0.00129993
0.00116065
0.000885683
0.000900681
0.000716493
0.000697893
0.000516994
0.000551335
0.000556926
0.0006258
0.000553882
0.000511318
0.000464744
0.000348697
0.000471779
0.000565082
0.000507808
0.000470322
0.000426343
0.000287123
0.000215634
0.000239086
0.000871089
0.00142804
0.00121198
0.000933199
0.000713981
0.000487652
0.000383429
0.000188332
0.00027869
0.000387879
0.000426279
0.000408672
0.000379353
0.000266977
0.000323517
0.000420451
0.000487637
0.000487637
0.000460502
0.000448392
0.000415484
0.000263455
0.000518566
0.000985224
0.00161158
0.00140561
0.000978464
0.000603726
0.0003903
0.000235402
0.000130921
0.000135442
0.000267793
0.000291694
0.000312831
0.000307475
0.000260011
0.000314574
0.000379694
0.000442599
0.000486542
0.000470194
0.000455769
0.000419261
0.000379719
0.00052786
0.00108147
0.00172328
0.00150772
0.000952594
0.000535506
0.000353605
0.00020707
0.000148425
9.83538e-05
0.00019822
0.000216425
0.000265916
0.000264682
0.000286144
0.000330931
0.000390899
0.00044552
0.000489938
0.000511008
0.000528825
0.000515793
0.000504816
0.000586964
0.00123439
0.0017394
0.00152014
0.000926357
0.000485057
0.000305986
0.000180505
0.000151198
0.000109032
0.000193971
0.000200889
0.00025573
0.000270099
0.000307349
0.000346098
0.000402256
0.000460985
0.000517981
0.000553026
0.000596983
0.000667064
0.000711313
0.000705848
0.00139543
0.0017394
0.00149064
0.000881778
0.000439456
0.000285034
0.000174498
0.00019346
0.000151234
0.000222642
0.000215817
0.00027036
0.000283091
0.000323547
0.000354265
0.000400729
0.00045129
0.000513627
0.000577645
0.000657458
0.000752077
0.000797802
0.000925698
0.00128456
0.00170582
0.00138169
0.000850858
0.000400976
0.000276381
0.000180183
0.000239366
0.000181377
0.0002563
0.000232977
0.000293333
0.000295304
0.000342102
0.00036346
0.000404298
0.000446253
0.000499566
0.000561907
0.000646718
0.00074929
0.000797802
0.000959268
0.00129123
0.00156453
0.00132566
0.000821066
0.000378431
0.00028769
0.000215125
0.000284552
0.000226053
0.000292179
0.000267602
0.000321265
0.000320452
0.000365006
0.00037864
0.000418288
0.000444545
0.000482173
0.000521379
0.000579616
0.000645164
0.000738782
0.00101024
0.00131024
0.00144723
0.00126941
0.000790444
0.000379562
0.000347242
0.000257007
0.00032774
0.000260129
0.000325098
0.000296029
0.000345196
0.000345247
0.000381228
0.000400623
0.000432763
0.000463518
0.00050039
0.000535111
0.000573158
0.000614412
0.000662271
0.00110168
0.00146925
0.00139667
0.00120478
0.0007671
0.000414603
0.00040979
0.000313725
0.000371038
0.000304742
0.000358505
0.000323539
0.000370717
0.000359017
0.000399293
0.000403882
0.00044285
0.000465732
0.000510296
0.00054688
0.000597785
0.000643375
0.000704108
0.00122469
0.00157951
0.00143566
0.00116727
0.000754979
0.00047407
0.000468012
0.000368165
0.000410995
0.000345943
0.000389916
0.000355908
0.000397596
0.000388274
0.000424257
0.000431702
0.000473705
0.000498662
0.000551769
0.000591002
0.000650898
0.000705089
0.000766721
0.00128065
0.0016154
0.00148618
0.00116003
0.000758654
0.00054706
0.000517621
0.000424146
0.000446474
0.000387368
0.000418744
0.000384685
0.000421725
0.000412361
0.000449572
0.000462391
0.000514463
0.000550539
0.000606526
0.000652043
0.000711579
0.000762373
0.000806117
0.0012655
0.0016154
0.00151358
0.0011495
0.00077183
0.000603549
0.000553598
0.000470203
0.000474585
0.000422502
0.000443761
0.000412091
0.000445677
0.000440149
0.00048052
0.000505952
0.000560678
0.000603453
0.000655442
0.000707342
0.000756447
0.000793232
0.000806117
0.00142643
0.0017054
0.00153385
0.00115141
0.000809568
0.000651355
0.000575237
0.000507064
0.000494152
0.000451852
0.000464293
0.000438093
0.000469705
0.000471912
0.000518305
0.000552044
0.000603522
0.000640049
0.000683932
0.00072479
0.000757854
0.000779645
0.000802558
0.00168983
0.0018481
0.00159358
0.00117604
0.000858303
0.000692103
0.000592086
0.000531064
0.000503103
0.000472517
0.000478445
0.000462856
0.000492589
0.000510432
0.000558156
0.000596454
0.000634201
0.000666091
0.000696523
0.000720539
0.000743603
0.000761124
0.000764347
0.00199273
0.00201957
0.00169448
0.00124344
0.000916423
0.000724633
0.000609387
0.000541267
0.000503103
0.000482413
0.000487499
0.000483866
0.000517228
0.000548291
0.000592908
0.000620273
0.000644893
0.000664226
0.000683983
0.000701781
0.000717314
0.000717649
0.00069762
0.00228912
0.00221972
0.00184184
0.00133505
0.000963598
0.000735842
0.000607145
0.000533537
0.000502142
0.00048387
0.00049026
0.000508354
0.000544461
0.00058305
0.000615428
0.00063442
0.000645402
0.000654296
0.000670199
0.000673462
0.000674384
0.000652374
0.000607352
0.00258137
0.0024005
0.00200579
0.00141406
0.000974194
0.000710472
0.000571655
0.000499133
0.000488274
0.000475851
0.000495101
0.00052642
0.00056697
0.000601699
0.000626186
0.000631663
0.000643065
0.000641382
0.000646834
0.000636196
0.000619791
0.000573027
0.000508511
0.00279439
0.0026141
0.00213487
0.0014659
0.000935884
0.000628297
0.000493208
0.000456516
0.000459496
0.000469556
0.000502268
0.000544512
0.000585919
0.000614623
0.000630043
0.000631663
0.000632585
0.000623176
0.000619035
0.000592449
0.000557037
0.000490513
0.000419641
0.00285258
0.00276531
0.00226638
0.00149613
0.000830061
0.000471182
0.000394123
0.000399861
0.000418963
0.000458368
0.000504993
0.000555216
0.000595816
0.000620048
0.000630375
0.000625485
0.000615973
0.000601993
0.000585034
0.000542959
0.000492116
0.000419109
0.000353595
0.00285258
0.00277183
0.00234049
0.0015698
0.00078893
0.00031515
0.000270727
0.000328061
0.000393043
0.000456097
0.000516021
0.000571245
0.000610052
0.000628227
0.000630375
0.000615421
0.000596781
0.000576177
0.000543469
0.000489281
0.000429908
0.000365227
0.000307102
0.00278731
0.00266299
0.0022949
0.0016406
0.000926541
0.000391882
0.000219243
0.000312192
0.000395607
0.000467255
0.000533351
0.000587831
0.000627029
0.000636245
0.000624309
0.000596733
0.000574898
0.000541567
0.000495395
0.000435986
0.000378366
0.00032361
0.000276866
0.00265039
0.00249833
0.00219062
0.00166515
0.00106754
0.000568638
0.000353152
0.000377247
0.000441485
0.000502926
0.000567302
0.000617372
0.00065003
0.000639796
0.000621247
0.000584987
0.000549965
0.000505541
0.000449695
0.00039149
0.00033459
0.000283906
0.000245704
0.00246729
0.00232202
0.00206913
0.00166575
0.00119646
0.000718738
0.000497184
0.000489669
0.000524378
0.000565406
0.000618671
0.000660783
0.000676367
0.000646219
0.000607547
0.000561395
0.000516187
0.000460225
0.000402008
0.000346903
0.000297643
0.000258563
0.000234702
0.00227767
0.00215352
0.00196356
0.00167533
0.00122375
0.000806972
0.000634494
0.000610052
0.000619641
0.000644856
0.000682333
0.000709116
0.000698332
0.000662428
0.000605474
0.000550512
0.000492505
0.000427533
0.000365197
0.000307326
0.000259085
0.000230687
0.000225215
0.0021383
0.00206149
0.00190669
0.00161887
0.00121639
0.0009017
0.000756035
0.000723275
0.000714035
0.000727517
0.000749841
0.000758785
0.000715855
0.000661533
0.000589089
0.000523117
0.000452373
0.000383044
0.000321919
0.0002721
0.000237795
0.000224352
0.000232235
0.0019985
0.00190881
0.0017255
0.00148999
0.00118509
0.000958069
0.000864209
0.000828432
0.000807157
0.000811139
0.000817138
0.000798738
0.000749496
0.000670123
0.00058736
0.000509419
0.000429333
0.000355212
0.000289898
0.000238231
0.000213859
0.00021921
0.000243638
0.0018017
0.00172682
0.00158546
0.0014109
0.00121193
0.00105684
0.000964055
0.000921438
0.000892948
0.000890026
0.000880805
0.000828406
0.000759931
0.000661151
0.000567825
0.000476548
0.000388902
0.000313322
0.000255001
0.000219642
0.000215294
0.000238683
0.000256978
0.0016505
0.0016122
0.00149443
0.00135495
0.00120869
0.00111129
0.00104078
0.00100684
0.000974491
0.000963688
0.000931305
0.000874274
0.000778461
0.000666328
0.000562909
0.000462292
0.000370393
0.000291703
0.000230433
0.00019681
0.000207691
0.000239219
0.000271745
0.00154532
0.00153153
0.00145499
0.00136304
0.00126996
0.00119005
0.00112515
0.00107943
0.00104713
0.00103058
0.000973951
0.000892496
0.00077135
0.000649479
0.000535442
0.000427055
0.000332266
0.000256875
0.000210795
0.00020259
0.000228503
0.000263652
0.000286301
0.00148138
0.00147451
0.00141117
0.00134167
0.00127487
0.00123111
0.00118232
0.00115582
0.00112194
0.00108806
0.00102139
0.000916144
0.000779803
0.000651004
0.000528292
0.000415026
0.00031855
0.000242712
0.000193658
0.000194437
0.000226276
0.000265606
0.000302031
0.00145608
0.00145431
0.00142875
0.00138672
0.00134157
0.00129709
0.00125684
0.00122167
0.0011884
0.00114178
0.00104882
0.000906008
0.000759138
0.000621812
0.000494113
0.000382451
0.000291434
0.000225792
0.000191325
0.000214292
0.000251343
0.000292538
0.000302031
4.62808e-06
5.27337e-06
2.78635e-05
6.29419e-05
9.37563e-06
5.72356e-05
5.6883e-05
7.77497e-05
7.13773e-05
5.76214e-05
5.75695e-05
0.000101712
7.49133e-05
6.05296e-05
6.78404e-05
0.000219498
6.61383e-05
6.54949e-05
0.000147118
0.000392836
0.000107203
0.000125433
0.000452091
0.000554979
0.000453779
0.000569728
0.000579766
0.000554979
0.00057628
0.000569728
0.000579766
0.000498083
0.00057628
0.000492644
0.000435962
0.00034461
0.000383478
0.000323357
0.000289604
0.000270929
0.000186574
0.000206543
0.000165591
0.000179972
0.000171998
0.00011279
0.000143819
0.000177245
0.00028989
0.000240714
0.000216328
0.000247194
0.000471833
0.000431402
0.000412599
0.000387647
0.000674928
0.000662676
0.000669472
0.000675191
0.000801972
0.000825801
0.000849715
0.000870755
0.000801972
0.000827832
0.0008608
0.000889083
0.000793761
0.000827832
0.0008608
0.000889083
0.000712922
0.000742435
0.000768952
0.000794447
0.000744668
0.000771969
0.000795158
0.000817122
0.000801819
0.000819706
0.000832875
0.000843829
0.000822599
0.000826885
0.000832875
0.000843829
0.000822599
0.000826885
0.00082961
0.000829041
0.000798484
0.000793626
0.000788586
0.000780087
0.000744598
0.00073351
0.000720125
0.000706687
0.00066359
0.000646337
0.000626481
0.000611012
0.000562029
0.00054091
0.000518716
0.000504708
0.000458792
0.00043699
0.000415745
0.000404415
0.00037237
0.000352421
0.000333517
0.000325109
0.000311628
0.000294852
0.000279591
0.000274812
0.00027066
0.000258805
0.000249277
0.000249145
0.000246713
0.000240474
0.00023765
0.000245004
0.000232574
0.000233636
0.000242529
0.000255038
0.000231524
0.000241427
0.000253924
0.000269182
0.000240424
0.000253907
0.000268602
0.000285628
0.00025283
0.000268745
0.000284855
0.000302918
0.00026763
0.000285168
0.000302136
0.000320856
0.000282997
0.000301525
0.000319033
0.000338071
0.000299471
0.000318575
0.000336602
0.000355791
0.00031499
0.000334332
0.000352587
0.00037181
0.000331746
0.000351501
0.0003701
0.000389521
0.000331746
0.000351501
0.0003701
0.000389521
0.000149838
0.000179755
0.000239605
0.000365163
0.000384108
0.000384108
0.000169755
0.000295202
0.000433461
0.000283935
0.000210556
0.00024356
0.000328871
0.000328871
0.00015847
3.88772e-05
3.36737e-05
6.96864e-05
3.34517e-05
0.000194474
0.000189773
0.000173089
0.000166495
0.000314445
0.000232633
0.000111051
0.000294948
0.000473384
0.000361814
0.000199923
0.000286199
0.000312637
0.000260418
0.000295446
0.000259029
0.00027256
0.000236298
0.000121727
0.000239359
0.000239359
0.000112921
9.07409e-05
0.000127526
6.38377e-05
0.000155103
0.000410514
0.000473384
0.00029483
0.000333809
0.000417378
0.000425354
0.000535794
0.000589071
0.000590053
0.000498224
0.000417343
0.000287951
0.000267112
0.000209877
0.000145088
0.000165543
9.99956e-05
8.70466e-05
8.61516e-05
0.000270707
0.000495942
0.000529105
0.000555034
0.000659562
0.000716276
0.00073344
0.000755416
0.000755416
0.000686147
0.000466635
0.000392299
0.00042863
0.000436563
0.000625376
0.000493942
0.000412435
0.000291112
0.000228877
0.000133482
0.00016585
0.000250536
0.000415885
0.000561341
0.000607248
0.000620858
0.000646786
0.000654819
0.000632415
0.000542004
0.000458396
0.000583959
0.000759154
0.000759154
0.000643651
0.000542496
0.000411111
0.000320733
0.000260124
0.000248816
0.000414447
0.000483514
0.000503945
0.000516281
0.000531028
0.000526136
0.000554939
0.000711369
0.000711369
0.000574262
0.000572422
0.000572422
0.000592663
0.000735344
0.000735344
0.000696467
0.000416974
0.00030846
0.000308893
0.000241131
0.00028947
0.000359056
0.000481762
0.000524557
0.000524557
0.000435619
0.000671732
0.000752538
0.000656227
0.000501058
0.000302029
0.000436589
0.000583915
0.000685782
0.000609477
0.000404591
0.00029102
0.000378054
0.000416468
0.000451476
0.000533183
0.000584004
0.000600232
0.000506422
0.000517233
0.000835062
0.000835062
0.000670744
0.000272117
0.000347494
0.000463197
0.000539361
0.00055806
0.000427589
0.000490603
0.000476724
0.000446037
0.000470123
0.000563857
0.000645885
0.000746683
0.000746683
0.000694955
0.000779614
0.000854437
0.000854437
0.000555466
0.0003477
0.000425191
0.000536162
0.00062391
0.00062391
0.000562693
0.000735885
0.000603574
0.000570473
0.000539683
0.000567563
0.000632467
0.000717485
0.000806631
0.000806631
0.000768984
0.000773451
0.000598142
0.00032135
0.00044741
0.000527509
0.000533302
0.000640184
0.000875146
0.00101635
0.00101635
0.000815032
0.000565257
0.000478742
0.000449258
0.000468245
0.000503178
0.000563152
0.000621269
0.00053744
0.000542594
0.000344905
0.000188961
0.00038196
0.000432127
0.000496332
0.00079022
0.00102163
0.00102163
0.000873378
0.000654263
0.0005341
0.000494024
0.000473603
0.000432137
0.00038759
0.000351876
0.000378008
0.00034589
0.000297186
0.00016532
9.33186e-05
0.000385992
0.000385992
0.000369585
0.000630765
0.000834666
0.000847367
0.000720905
0.000576148
0.000567033
0.000565343
0.000515847
0.000442777
0.000363269
0.000279271
0.000211862
0.00016273
0.000133499
9.18601e-05
6.95905e-05
0.000395364
0.000434479
0.000577223
0.000864004
0.000864004
0.000837754
0.00065334
0.000657163
0.000657163
0.000636043
0.000585935
0.000496523
0.000399774
0.000286029
0.000177042
8.46594e-05
5.19439e-05
8.15096e-05
5.92861e-05
0.00069262
0.00075125
0.00103919
0.00103919
0.000994836
0.000711887
0.000678479
0.000720877
0.000720877
0.000704449
0.00064485
0.000545473
0.00042814
0.00030561
0.000200468
0.000117519
9.62883e-05
0.000107692
9.50206e-05
0.00100214
0.00109819
0.00113382
0.00113382
0.000933848
0.000593627
0.000724206
0.000778067
0.000781231
0.000781231
0.00073726
0.000628289
0.000481572
0.000331196
0.000210125
0.000137564
0.000118204
0.00013476
0.00011611
0.00107421
0.00107421
0.00106165
0.000980713
0.000718304
0.000611091
0.000744968
0.000821086
0.000858254
0.000858254
0.000840746
0.000740858
0.000560434
0.000367732
0.000222462
0.000142019
0.000153707
0.000162498
0.000152758
0.000968298
0.000968298
0.000952222
0.000834597
0.000672301
0.000734593
0.000836169
0.000912758
0.000955794
0.000955794
0.000953006
0.000863723
0.00067075
0.000435164
0.000234891
0.000127402
0.000170589
0.00018347
0.000176171
0.000873198
0.000885879
0.000885879
0.000834606
0.000775605
0.000845926
0.000927458
0.00100015
0.00104886
0.0010568
0.0010568
0.00098791
0.00078858
0.000512221
0.000268191
0.00012689
0.000189692
0.000200821
0.000200821
0.000929442
0.000938262
0.000938262
0.000909076
0.000865023
0.000917153
0.000997213
0.00107699
0.00113419
0.00115511
0.00115511
0.00110963
0.000930991
0.000629496
0.00032859
0.0001335
0.000203251
0.000216295
0.000216295
0.00094757
0.00094757
0.000933706
0.000905672
0.000898189
0.000962477
0.00104844
0.00113702
0.00120412
0.00123684
0.00123684
0.00121025
0.00106711
0.000768635
0.000410316
0.000143048
0.000216742
0.000235957
0.000235957
0.000927233
0.000927233
0.000907148
0.000889735
0.000910133
0.000982147
0.00107785
0.00117724
0.00125667
0.00130307
0.00130307
0.00129672
0.00119462
0.000917987
0.000514976
0.000161986
0.000220438
0.000250212
0.000250212
0.000870682
0.000870682
0.00084739
0.000829977
0.000874992
0.000965403
0.00107975
0.00119775
0.00129256
0.00135301
0.00136468
0.00136468
0.00129339
0.00105859
0.000644314
0.000223241
0.00021956
0.000261287
0.000261287
0.000793202
0.000793202
0.000763219
0.000762413
0.00081891
0.000914801
0.00104325
0.00118465
0.0013059
0.00138503
0.00141349
0.00141349
0.00136803
0.00118258
0.000791762
0.000311039
0.000218146
0.000269087
0.000269087
0.000688468
0.000688468
0.000670336
0.000703865
0.00077106
0.000868474
0.000993643
0.00114204
0.00128717
0.00139466
0.00144426
0.00144426
0.00142241
0.00128124
0.000930917
0.000415635
0.000215834
0.00027514
0.00027514
0.000585839
0.000584983
0.000609425
0.000663442
0.000741619
0.000841766
0.000961253
0.00110137
0.00125181
0.00138156
0.00145612
0.00145844
0.00145844
0.00135369
0.00105706
0.000540836
0.000217475
0.000285781
0.000285781
0.000483098
0.000501559
0.000547492
0.000619147
0.000709995
0.000815413
0.000933884
0.00106866
0.00121641
0.00135889
0.00145483
0.0014798
0.0014798
0.00140546
0.00116535
0.00067032
0.000246099
0.000299275
0.000299275
0.000396593
0.000433631
0.000496616
0.000583273
0.000685845
0.000796611
0.000913438
0.00104129
0.00118223
0.00132996
0.00144584
0.00149178
0.00149178
0.00144116
0.00125282
0.000796641
0.000300578
0.000316943
0.000316943
0.000333497
0.000381159
0.000453746
0.000546885
0.000658487
0.00077594
0.000894245
0.0010195
0.00115295
0.00129854
0.00142855
0.00149395
0.00149395
0.00146266
0.00131334
0.000915283
0.00035416
0.000336609
0.000336609
0.000308506
0.00036096
0.000434563
0.000526298
0.000640017
0.00076173
0.000880375
0.00100259
0.00113034
0.0012695
0.00140668
0.00148877
0.00148877
0.00147261
0.00134898
0.00100643
0.000411462
0.000362221
0.000364599
0.00030017
0.000353987
0.00042454
0.000510063
0.000621777
0.000746337
0.000866906
0.000988104
0.00111153
0.00124413
0.00138432
0.00148039
0.00148039
0.00147672
0.00136945
0.00107596
0.000486597
0.000391976
0.000400663
0.000313973
0.000367733
0.000432966
0.000510503
0.00061576
0.000739081
0.000860111
0.000979644
0.00109952
0.00122468
0.00136287
0.00146917
0.00147782
0.00147782
0.00138337
0.00112866
0.000559444
0.000426099
0.000443447
0.000324167
0.000378703
0.000440539
0.000510979
0.000609284
0.000730408
0.000852469
0.000971688
0.0010891
0.00120911
0.00134456
0.00145771
0.0014751
0.0014751
0.00138902
0.00116827
0.00063821
0.000458452
0.000494268
0.000347531
0.00040059
0.000458702
0.000524241
0.000615628
0.000731997
0.00085309
0.00097117
0.00108585
0.00120064
0.00133099
0.00144831
0.00147378
0.00147378
0.00139373
0.00119505
0.000700337
0.000500352
0.000551525
0.000362283
0.00041585
0.000471912
0.000533185
0.0006185
0.000730566
0.000850929
0.000968823
0.00108205
0.00119404
0.00132065
0.00143989
0.00146998
0.00146998
0.00139495
0.00121142
0.000752645
0.000531899
0.00061613
0.000386939
0.000438801
0.00049302
0.000551949
0.000632962
0.000740709
0.000858712
0.000975074
0.00108608
0.00119482
0.00131659
0.00143596
0.00146961
0.00146961
0.00139679
0.00122137
0.00078967
0.000579537
0.000686222
0.000401528
0.000453551
0.000507146
0.000564538
0.000641702
0.000745311
0.000861287
0.000977106
0.00108712
0.00119421
0.00131335
0.00143262
0.00146818
0.00146818
0.00139861
0.00122906
0.000821293
0.0006155
0.000762967
0.000426786
0.000477206
0.000529539
0.000585289
0.000660082
0.000761395
0.000875054
0.000989051
0.0010971
0.00120174
0.00131743
0.0014354
0.00147188
0.00147188
0.00140294
0.00123644
0.000839101
0.000677244
0.000845534
0.000439601
0.000490305
0.000542838
0.000597962
0.000670605
0.00076947
0.000881039
0.00099409
0.0011013
0.00120469
0.00131901
0.00143674
0.00147439
0.00147439
0.00140801
0.00124712
0.000861645
0.000727051
0.000941456
0.000466476
0.000515891
0.000567258
0.000621071
0.000691687
0.000788737
0.000898354
0.00100964
0.00111507
0.0012165
0.00132863
0.00144491
0.00148245
0.00148245
0.00141628
0.0012591
0.000872762
0.000815756
0.00103301
0.000474987
0.000524849
0.000576576
0.000630538
0.000700343
0.000796179
0.000904345
0.00101479
0.00111955
0.00122011
0.00133162
0.00144774
0.00148622
0.00148622
0.00142171
0.00126995
0.000892856
0.000864766
0.00114693
0.000506514
0.000555717
0.000606307
0.000658978
0.000726565
0.000819795
0.000925567
0.00103392
0.00113649
0.001235
0.00134457
0.00145906
0.00149679
0.00149679
0.00143278
0.00128366
0.000904652
0.000980608
0.00114693
)
;

boundaryField
{
    leftWall
    {
        type            calculated;
        value           uniform 0;
    }
    rightWall
    {
        type            calculated;
        value           uniform 0;
    }
    lowerWall
    {
        type            calculated;
        value           uniform 0;
    }
    atmosphere
    {
        type            calculated;
        value           uniform 0;
    }
    defaultFaces
    {
        type            empty;
    }
}


// ************************************************************************* //
