/*--------------------------------*- C++ -*----------------------------------*\
| =========                 |                                                 |
| \\      /  F ield         | OpenFOAM: The Open Source CFD Toolbox           |
|  \\    /   O peration     | Version:  2012                                  |
|   \\  /    A nd           | Website:  www.openfoam.com                      |
|    \\/     M anipulation  |                                                 |
\*---------------------------------------------------------------------------*/
FoamFile
{
    version     2.0;
    format      ascii;
    class       volScalarField;
    location    "0.98";
    object      p;
}
// * * * * * * * * * * * * * * * * * * * * * * * * * * * * * * * * * * * * * //

dimensions      [1 -1 -2 0 0 0 0];


internalField   nonuniform List<scalar> 
2268
(
102305
102303
102297
102294
102284
102281
102265
102262
102237
102232
102199
102192
102153
102149
102111
102115
102086
102101
102082
102096
102089
102100
102101
102246
102245
102239
102236
102225
102222
102206
102204
102180
102175
102141
102134
102094
102090
102052
102055
102026
102041
102021
102036
102028
102041
102042
102188
102187
102180
102177
102167
102164
102148
102145
102121
102116
102081
102074
102033
102029
101990
101994
101964
101984
101963
101978
101970
101983
101985
102131
102130
102123
102120
102109
102106
102091
102089
102066
102061
102025
102018
101974
101969
101929
101932
101902
101920
101897
101915
101907
101923
101924
102074
102072
102065
102061
102050
102048
102032
102032
102007
102002
101964
101957
101911
101907
101863
101868
101835
101867
101841
101857
101848
101865
101869
102018
102016
102008
102004
101992
101990
101976
101977
101954
101950
101911
101902
101853
101846
101802
101804
101773
101797
101770
101792
101781
101806
101809
101962
101959
101951
101945
101934
101932
101918
101920
101897
101892
101849
101840
101787
101782
101730
101733
101697
101755
101715
101734
101718
101744
101753
101908
101904
101894
101888
101876
101874
101862
101868
101846
101843
101799
101787
101728
101719
101670
101668
101637
101675
101649
101669
101652
101689
101699
102206
101638
101646
101643
101780
101888
102034
102003
101903
101883
101829
101876
101863
101711
101676
101673
101698
101819
101891
101997
101543
101622
101597
101723
101808
101942
101922
101832
101815
101764
101805
101799
101641
101618
101621
101644
101756
101817
101666
101534
101600
101581
101676
101730
101855
101840
101755
101746
101707
101736
101692
101584
101587
101597
101614
101695
101753
101633
101528
101596
101561
101610
101663
101770
101758
101679
101674
101610
101633
101619
101525
101543
101571
101604
101663
101698
101639
101540
101583
101553
101579
101599
101692
101675
101603
101617
101605
101558
101535
101530
101549
101570
101596
101615
101639
101633
101539
101592
101558
101574
101569
101636
101609
101584
101616
101553
101545
101502
101471
101520
101536
101568
101568
101581
101637
101589
101586
101560
101572
101556
101595
101586
101574
101598
101573
101522
101469
101480
101505
101524
101534
101521
101518
101628
101579
101600
101558
101571
101548
101573
101541
101573
101562
101522
101478
101464
101422
101485
101483
101487
101467
101463
101822
101817
101805
101796
101783
101781
101769
101779
101760
101755
101702
101684
101618
101618
101553
101556
101529
101691
101617
101632
101576
101592
101610
101712
101703
101685
101669
101654
101652
101649
101674
101659
101663
101605
101594
101508
101505
101499
101509
101528
101552
101575
101575
101532
101541
101532
101605
101587
101557
101533
101514
101507
101513
101555
101566
101572
101503
101497
101450
101479
101447
101499
101467
101572
101448
101455
101436
101434
101439
101507
101473
101436
101394
101379
101383
101399
101459
101481
101517
101495
101512
101420
101463
101431
101476
101457
101440
101364
101251
101201
101335
101345
101434
101400
101350
101342
101343
101344
101356
101401
101491
101497
101460
101460
101417
101415
101422
101430
101423
101389
101269
101165
101125
101214
101262
101407
101368
101341
101335
101328
101327
101329
101341
101375
101413
101386
101368
101335
101329
101361
101348
101371
101323
101284
101226
101202
101255
101288
101381
101345
101334
101327
101326
101325
101327
101329
101329
101331
101335
101327
101324
101326
101324
101325
101338
101340
101278
101293
101270
101304
101321
101358
101335
101328
101329
101326
101327
101326
101327
101327
101326
101326
101325
101325
101325
101325
101323
101325
101326
101318
101325
101333
101359
101336
101349
101329
101327
101327
101326
101326
101326
101326
101326
101325
101326
101324
101325
101325
101324
101323
101324
101324
101324
101324
101344
101351
101322
101343
101327
101327
101326
101326
101325
101325
101324
101325
101325
101325
101325
101325
101325
101325
101324
101325
101324
101325
101324
101335
101341
101324
101329
101326
101326
101325
101325
101325
101325
101324
101324
101324
101325
101324
101325
101324
101325
101324
101325
101324
101324
101324
101325
101332
101323
101338
101326
101326
101325
101325
101324
101324
101324
101324
101324
101325
101324
101325
101324
101325
101324
101325
101324
101324
101324
101324
101325
101332
101331
101324
101324
101324
101324
101324
101324
101324
101324
101324
101324
101324
101324
101324
101324
101324
101324
101323
101324
101323
101324
101323
101324
101324
101322
101324
101323
101324
101324
101324
101324
101324
101324
101324
101324
101324
101324
101324
101324
101324
101323
101324
101323
101324
101323
101323
101324
101323
101323
101323
101324
101323
101324
101323
101324
101323
101324
101323
101324
101323
101324
101323
101324
101323
101324
101323
101323
101323
101323
101323
101323
101324
101323
101324
101323
101324
101323
101324
101323
101324
101323
101324
101323
101324
101323
101324
101323
101323
101323
101323
101323
101323
101321
101323
101323
101323
101323
101323
101324
101323
101324
101323
101323
101323
101323
101323
101323
101323
101323
101323
101323
101323
101323
101323
101323
101326
101323
101324
101323
101324
101323
101323
101323
101323
101323
101323
101323
101323
101323
101323
101323
101323
101323
101323
101323
101323
101323
101323
101324
101322
101323
101322
101323
101322
101323
101322
101323
101323
101323
101323
101323
101323
101323
101323
101323
101323
101323
101322
101323
101322
101322
101324
101323
101324
101322
101323
101322
101323
101322
101323
101322
101323
101322
101323
101322
101323
101322
101322
101322
101322
101322
101322
101322
101322
101325
101322
101324
101322
101323
101322
101323
101322
101323
101322
101323
101322
101322
101322
101322
101322
101322
101322
101322
101322
101322
101322
101322
101322
101322
101323
101322
101323
101322
101323
101322
101322
101322
101322
101322
101322
101322
101322
101322
101322
101322
101322
101322
101322
101322
101322
101322
101322
101323
101322
101323
101322
101322
101322
101322
101322
101322
101322
101322
101322
101322
101322
101322
101322
101322
101322
101322
101322
101321
101322
101322
101323
101322
101322
101321
101322
101321
101322
101321
101322
101321
101322
101321
101322
101321
101321
101321
101321
101321
101321
101321
101321
101322
101322
101322
101321
101322
101321
101322
101321
101321
101321
101321
101321
101321
101321
101321
101321
101321
101321
101321
101321
101321
101321
101321
101322
101321
101321
101321
101321
101321
101321
101321
101321
101321
101321
101321
101321
101321
101321
101321
101321
101321
101321
101321
101321
101321
101321
101321
101321
101320
101320
101320
101320
101320
101320
101321
101321
101321
101321
101321
101321
101321
101321
101321
101321
101321
101321
101321
101320
101320
101320
101319
101319
101319
101319
101320
101320
101320
101320
101320
101320
101320
101320
101320
101320
101320
101320
101320
101320
101320
101320
101320
101320
101319
101318
101318
101318
101319
101319
101319
101320
101320
101320
101320
101320
101320
101320
101320
101320
101320
101320
101320
101320
101320
101320
101320
101318
101318
101317
101317
101318
101318
101319
101319
101320
101320
101320
101320
101320
101320
101320
101320
101320
101320
101320
101320
101320
101320
101320
101318
101317
101317
101316
101317
101318
101319
101319
101319
101320
101320
101320
101320
101320
101320
101320
101320
101320
101320
101320
101320
101320
101320
101318
101317
101317
101317
101317
101318
101319
101319
101319
101319
101319
101320
101320
101320
101320
101320
101320
101320
101320
101319
101319
101319
101319
101318
101318
101318
101317
101318
101318
101319
101319
101319
101319
101319
101319
101319
101319
101319
101319
101319
101319
101319
101319
101319
101319
101319
101318
101318
101318
101318
101318
101319
101319
101319
101319
101319
101319
101319
101319
101319
101319
101319
101319
101319
101319
101319
101319
101319
101319
101319
101319
101318
101318
101318
101319
101319
101319
101319
101319
101319
101319
101319
101319
101319
101319
101319
101319
101319
101319
101319
101319
101319
101319
101319
101319
101319
101319
101319
101319
101319
101319
101319
101319
101319
101319
101319
101319
101319
101319
101319
101319
101319
101319
101319
101319
101319
101319
101319
101319
101319
101319
101319
101319
101319
101319
101319
101319
101319
101319
101319
101319
101319
101319
101319
101319
101319
101319
101319
101319
101319
101319
101319
101319
101319
101319
101319
101319
101319
101319
101319
101318
101318
101318
101318
101318
101318
101318
101318
101318
101318
101318
101318
101318
101318
101319
101318
101318
101318
101318
101318
101318
101318
101318
101318
101318
101318
101318
101318
101318
101318
101318
101318
101318
101318
101318
101318
101318
101318
101318
101318
101318
101318
101318
101318
101318
101318
101318
101318
101318
101318
101318
101318
101318
101318
101318
101318
101318
101318
101318
101318
101318
101318
101318
101318
101318
101318
101318
101318
101318
101318
101318
101318
101318
101318
101318
101318
101318
101318
101318
101318
101318
101318
101318
101318
101318
101318
101318
101318
101318
101318
101318
101318
101318
101318
101318
101318
101318
101318
101318
101318
101318
101318
101318
101612
101615
101614
101597
101547
101537
101548
101543
101470
101457
101468
101470
101381
101386
101405
101400
101314
101331
101337
101345
101314
101320
101327
101329
101329
101328
101325
101325
101326
101325
101324
101325
101323
101322
101322
101323
101324
101324
101325
101324
101314
101319
101318
101318
101330
101328
101327
101327
101324
101324
101324
101324
101323
101323
101323
101323
101323
101323
101323
101323
101323
101323
101323
101323
101323
101323
101323
101323
101323
101323
101323
101323
101322
101322
101322
101322
101322
101322
101322
101322
101322
101322
101322
101322
101322
101322
101322
101322
101321
101321
101321
101321
101321
101321
101321
101321
101321
101321
101321
101321
101321
101321
101321
101321
101320
101320
101320
101320
101320
101320
101320
101320
101320
101320
101320
101320
101320
101320
101320
101320
101320
101320
101320
101320
101319
101319
101319
101319
101319
101319
101319
101319
101319
101319
101319
101319
101319
101319
101319
101319
101319
101319
101319
101319
101319
101319
101319
101319
101318
101318
101318
101318
101318
101318
101318
101318
101318
101318
101318
101318
101318
101318
101318
101318
101318
101318
101318
101318
101616
101630
101574
101554
101565
101553
101564
101546
101509
101495
101464
101450
101417
101466
101435
101436
101414
101393
101389
101576
101551
101569
101531
101562
101534
101492
101445
101419
101393
101401
101377
101362
101363
101363
101355
101342
101337
101338
101543
101540
101506
101480
101522
101479
101410
101423
101405
101377
101333
101333
101332
101333
101331
101331
101330
101331
101330
101434
101405
101409
101385
101402
101395
101387
101395
101398
101361
101336
101332
101333
101331
101331
101330
101330
101330
101330
101347
101343
101335
101336
101345
101337
101344
101361
101366
101352
101347
101333
101334
101332
101330
101330
101329
101329
101329
101326
101327
101325
101326
101330
101329
101329
101328
101330
101327
101327
101327
101329
101328
101328
101328
101328
101328
101328
101324
101325
101324
101326
101330
101327
101327
101327
101327
101326
101327
101326
101327
101327
101327
101326
101327
101327
101328
101323
101325
101323
101325
101328
101327
101327
101327
101327
101327
101327
101326
101326
101325
101325
101325
101326
101327
101327
101322
101318
101319
101323
101326
101326
101327
101326
101327
101326
101326
101326
101326
101325
101325
101324
101326
101326
101327
101327
101327
101329
101326
101324
101326
101326
101326
101326
101326
101326
101326
101326
101326
101325
101326
101326
101326
101326
101323
101324
101324
101325
101324
101325
101326
101325
101326
101326
101326
101326
101326
101325
101326
101326
101326
101326
101326
101325
101324
101325
101324
101324
101325
101325
101325
101325
101325
101325
101325
101325
101325
101325
101326
101326
101326
101326
101324
101324
101325
101325
101324
101325
101325
101325
101325
101325
101325
101325
101325
101325
101325
101325
101325
101325
101325
101323
101322
101323
101324
101324
101324
101324
101325
101325
101325
101325
101325
101325
101325
101325
101325
101325
101325
101325
101323
101322
101322
101324
101324
101324
101324
101324
101324
101324
101325
101325
101325
101325
101325
101325
101325
101325
101325
101323
101322
101323
101323
101324
101324
101324
101324
101324
101324
101324
101324
101324
101324
101324
101324
101324
101324
101324
101323
101323
101323
101323
101323
101324
101324
101324
101324
101324
101324
101324
101324
101324
101324
101324
101324
101324
101324
101322
101323
101323
101323
101323
101323
101323
101324
101324
101324
101324
101324
101324
101324
101324
101324
101324
101324
101324
101322
101322
101323
101323
101323
101323
101323
101323
101323
101323
101323
101323
101323
101323
101323
101323
101324
101324
101324
101322
101322
101322
101322
101323
101323
101323
101323
101323
101323
101323
101323
101323
101323
101323
101323
101323
101323
101323
101322
101322
101322
101322
101322
101322
101322
101323
101323
101323
101323
101323
101323
101323
101323
101323
101323
101323
101323
101322
101322
101322
101322
101322
101322
101322
101322
101322
101322
101323
101323
101323
101323
101323
101323
101323
101323
101323
101321
101321
101321
101321
101322
101322
101322
101322
101322
101322
101322
101322
101322
101322
101322
101322
101323
101323
101323
101321
101321
101321
101321
101321
101321
101321
101322
101322
101322
101322
101322
101322
101322
101322
101322
101322
101322
101322
101321
101321
101321
101321
101321
101321
101321
101321
101321
101321
101322
101322
101322
101322
101322
101322
101322
101322
101322
101321
101321
101321
101321
101321
101321
101321
101321
101321
101321
101321
101321
101322
101322
101322
101322
101322
101322
101322
101320
101320
101320
101320
101320
101320
101321
101321
101321
101321
101321
101321
101321
101321
101322
101322
101322
101322
101322
101320
101320
101320
101320
101320
101320
101320
101320
101321
101321
101321
101321
101321
101321
101321
101321
101321
101321
101321
101320
101320
101320
101320
101320
101320
101320
101320
101320
101320
101321
101321
101321
101321
101321
101321
101321
101321
101321
101320
101320
101320
101320
101320
101320
101320
101320
101320
101320
101320
101320
101321
101321
101321
101321
101321
101321
101321
101320
101320
101320
101320
101320
101320
101320
101320
101320
101320
101320
101320
101320
101321
101321
101321
101321
101321
101321
101319
101319
101319
101319
101319
101319
101320
101320
101320
101320
101320
101320
101320
101320
101320
101321
101321
101321
101321
101319
101319
101319
101319
101319
101319
101319
101319
101319
101320
101320
101320
101320
101320
101320
101320
101320
101320
101320
101319
101319
101319
101319
101319
101319
101319
101319
101319
101319
101319
101320
101320
101320
101320
101320
101320
101320
101320
101319
101319
101319
101319
101319
101319
101319
101319
101319
101319
101319
101319
101319
101320
101320
101320
101320
101320
101320
101319
101319
101319
101319
101319
101319
101319
101319
101319
101319
101319
101319
101319
101319
101320
101320
101320
101320
101320
101319
101319
101319
101319
101319
101319
101319
101319
101319
101319
101319
101319
101319
101319
101319
101319
101319
101319
101319
101318
101318
101318
101318
101318
101318
101318
101318
101318
101319
101319
101319
101319
101319
101319
101319
101319
101319
101319
101318
101318
101318
101318
101318
101318
101318
101318
101318
101318
101318
101318
101319
101319
101319
101319
101319
101319
101319
101318
101318
101318
101318
101318
101318
101318
101318
101318
101318
101318
101318
101318
101318
101318
101318
101319
101319
101319
101318
101318
101318
101318
101318
101318
101318
101318
101318
101318
101318
101318
101318
101318
101318
101318
101318
101318
101318
101318
101318
101318
101318
101318
101318
101318
101318
101318
101318
101318
101318
101318
101318
101318
101318
101318
101318
101318
)
;

boundaryField
{
    leftWall
    {
        type            zeroGradient;
    }
    rightWall
    {
        type            zeroGradient;
    }
    lowerWall
    {
        type            zeroGradient;
    }
    atmosphere
    {
        type            fixedValue;
        value           uniform 101325;
    }
    defaultFaces
    {
        type            empty;
    }
}


// ************************************************************************* //
