/*--------------------------------*- C++ -*----------------------------------*\
| =========                 |                                                 |
| \\      /  F ield         | OpenFOAM: The Open Source CFD Toolbox           |
|  \\    /   O peration     | Version:  2012                                  |
|   \\  /    A nd           | Website:  www.openfoam.com                      |
|    \\/     M anipulation  |                                                 |
\*---------------------------------------------------------------------------*/
FoamFile
{
    version     2.0;
    format      ascii;
    class       surfaceScalarField;
    location    "0.98";
    object      phi;
}
// * * * * * * * * * * * * * * * * * * * * * * * * * * * * * * * * * * * * * //

dimensions      [0 3 -1 0 0 0 0];
oriented        oriented;


internalField   nonuniform List<scalar> 
4432
(
3.79009e-07
-3.7901e-07
5.81301e-07
-2.02293e-07
4.76467e-07
1.04833e-07
2.5253e-08
4.51213e-07
-6.86267e-07
7.11519e-07
-1.60148e-06
9.15207e-07
-2.46521e-06
8.63731e-07
-3.03341e-06
5.68197e-07
-3.10094e-06
6.753e-08
-2.52082e-06
-5.80114e-07
-1.50576e-06
-1.01507e-06
-1.19366e-07
-1.38639e-06
1.29407e-06
-1.41344e-06
2.72316e-06
-1.42909e-06
3.8861e-06
-1.16295e-06
5.10792e-06
-1.22182e-06
6.01764e-06
-9.09719e-07
6.8196e-06
-8.01964e-07
7.13575e-06
-3.16152e-07
6.84494e-06
2.90799e-07
5.05809e-06
1.78685e-06
2.97215e-06
2.08593e-06
2.97214e-06
4.15111e-07
-7.94121e-07
6.14362e-07
-4.01547e-07
5.23102e-07
1.96093e-07
1.00095e-07
8.74219e-07
-6.06977e-07
1.41859e-06
-1.57319e-06
1.88142e-06
-2.51164e-06
1.80218e-06
-3.13249e-06
1.18904e-06
-3.2319e-06
1.66938e-07
-2.63389e-06
-1.17812e-06
-1.57431e-06
-2.07465e-06
-1.58034e-07
-2.80267e-06
1.3075e-06
-2.87897e-06
2.7831e-06
-2.90469e-06
3.9986e-06
-2.37845e-06
5.24338e-06
-2.46661e-06
6.19267e-06
-1.85901e-06
7.06059e-06
-1.66989e-06
7.3321e-06
-5.87664e-07
6.9409e-06
6.81989e-07
5.2123e-06
3.51544e-06
2.90152e-06
4.39671e-06
5.87365e-06
4.47518e-07
-1.24164e-06
7.49818e-07
-7.03848e-07
6.89969e-07
2.55941e-07
1.98218e-07
1.36597e-06
-6.23629e-07
2.24044e-06
-1.70997e-06
2.96776e-06
-2.74357e-06
2.83578e-06
-3.40692e-06
1.85238e-06
-3.46262e-06
2.22642e-07
-2.82119e-06
-1.81955e-06
-1.71407e-06
-3.18178e-06
-2.08603e-07
-4.30813e-06
1.34874e-06
-4.43631e-06
2.88911e-06
-4.44507e-06
4.16291e-06
-3.65226e-06
5.38008e-06
-3.68378e-06
6.25121e-06
-2.73015e-06
7.1934e-06
-2.61208e-06
7.69384e-06
-1.08811e-06
7.533e-06
8.42825e-07
5.85629e-06
5.19215e-06
3.21667e-06
7.03632e-06
9.0903e-06
6.04111e-07
-1.84575e-06
9.91276e-07
-1.09101e-06
9.99786e-07
2.4743e-07
5.23034e-07
1.84272e-06
-3.75348e-07
3.13882e-06
-1.6326e-06
4.225e-06
-2.88516e-06
4.08834e-06
-3.72072e-06
2.68795e-06
-3.87294e-06
3.74866e-07
-3.22112e-06
-2.47138e-06
-2.00381e-06
-4.39909e-06
-3.48087e-07
-5.96386e-06
1.35753e-06
-6.14193e-06
2.96072e-06
-6.04826e-06
4.29323e-06
-4.98478e-06
5.6067e-06
-4.99725e-06
6.64639e-06
-3.76985e-06
7.71745e-06
-3.68315e-06
8.26294e-06
-1.6336e-06
8.2033e-06
9.02455e-07
6.44487e-06
6.95058e-06
3.20979e-06
1.02714e-05
1.23001e-05
6.71344e-07
-2.5171e-06
1.21306e-06
-1.63273e-06
1.2455e-06
2.14988e-07
6.73653e-07
2.41457e-06
-3.90745e-07
4.20321e-06
-1.86228e-06
5.69654e-06
-3.30024e-06
5.5263e-06
-4.25605e-06
3.64375e-06
-4.36756e-06
4.8638e-07
-3.61285e-06
-3.22609e-06
-2.27205e-06
-5.73989e-06
-4.4024e-07
-7.79567e-06
1.4122e-06
-7.99437e-06
3.19153e-06
-7.82759e-06
4.6779e-06
-6.47116e-06
5.91958e-06
-6.23893e-06
6.62565e-06
-4.47592e-06
7.68597e-06
-4.74347e-06
9.04269e-06
-2.99033e-06
9.76144e-06
1.83706e-07
8.01403e-06
8.69799e-06
4.51638e-06
1.3769e-05
1.68164e-05
9.65883e-07
-3.48298e-06
1.61322e-06
-2.28006e-06
1.76004e-06
6.8162e-08
1.16772e-06
3.00689e-06
-4.24284e-08
5.41336e-06
-1.7733e-06
7.42741e-06
-3.6048e-06
7.35779e-06
-4.89292e-06
4.93187e-06
-5.18946e-06
7.82915e-07
-4.39073e-06
-4.02482e-06
-2.8107e-06
-7.31992e-06
-6.79834e-07
-9.92654e-06
1.44016e-06
-1.01144e-05
3.33432e-06
-9.72175e-06
4.817e-06
-7.95384e-06
6.11605e-06
-7.53799e-06
6.98076e-06
-5.34063e-06
8.00989e-06
-5.77261e-06
9.07897e-06
-4.05942e-06
9.74521e-06
-4.82541e-07
7.94925e-06
1.04939e-05
4.06816e-06
1.76501e-05
2.08846e-05
1.24322e-06
-4.7262e-06
2.2451e-06
-3.28195e-06
2.44042e-06
-1.2716e-07
1.74046e-06
3.70685e-06
2.20143e-07
6.93368e-06
-1.99569e-06
9.64325e-06
-4.19398e-06
9.55608e-06
-5.71719e-06
6.45508e-06
-5.99253e-06
1.05826e-06
-4.99948e-06
-5.01788e-06
-3.21814e-06
-9.10126e-06
-8.65593e-07
-1.22791e-05
1.50626e-06
-1.24862e-05
3.74572e-06
-1.19612e-05
5.33318e-06
-9.5413e-06
6.02602e-06
-8.23083e-06
5.64715e-06
-4.96177e-06
5.92614e-06
-6.05167e-06
7.39989e-06
-5.53329e-06
9.12912e-06
-2.2119e-06
7.89701e-06
1.1726e-05
4.46701e-06
2.10801e-05
2.53516e-05
1.33779e-06
-6.06399e-06
2.47474e-06
-4.4189e-06
3.03165e-06
-6.8407e-07
2.34003e-06
4.39847e-06
6.51479e-07
8.62223e-06
-1.87144e-06
1.21662e-05
-4.7555e-06
1.24401e-05
-6.87995e-06
8.57953e-06
-7.38376e-06
1.56207e-06
-6.21159e-06
-6.19005e-06
-3.97687e-06
-1.1336e-05
-1.09106e-06
-1.51649e-05
1.52864e-06
-1.51059e-05
3.31083e-06
-1.37434e-05
4.29916e-06
-1.05297e-05
5.0019e-06
-8.93386e-06
4.8952e-06
-4.85723e-06
3.70177e-06
-4.86976e-06
2.59116e-06
-4.44351e-06
3.97989e-06
-3.61724e-06
4.399e-06
1.13069e-05
3.02778e-06
2.24513e-05
2.83794e-05
-9.65161e-05
9.64055e-05
-0.000118391
2.18681e-05
-0.000119587
1.1937e-06
-0.000105983
-1.35972e-05
-8.51209e-05
-2.08533e-05
-5.55397e-05
-2.95759e-05
-2.37691e-05
-3.1771e-05
2.42348e-07
-2.40109e-05
1.41746e-05
-1.39324e-05
2.1819e-05
-7.644e-06
2.08336e-05
9.8502e-07
-3.28518e-06
2.41186e-05
-3.59116e-05
3.26223e-05
-5.3282e-05
1.737e-05
-5.90334e-05
5.75169e-06
-5.73241e-05
-1.7088e-06
-4.53339e-05
-1.19886e-05
-2.32046e-05
-2.21287e-05
-2.32046e-05
-7.54485e-05
0.000171843
-9.94635e-05
4.59241e-05
-0.000102151
3.86123e-06
-7.74896e-05
-3.82341e-05
-5.93716e-05
-3.89349e-05
-4.05716e-05
-4.83689e-05
-1.84034e-05
-5.39398e-05
-1.92949e-07
-4.22209e-05
1.00879e-05
-2.42136e-05
1.42674e-05
-1.18233e-05
1.65045e-05
-1.25213e-06
3.27181e-06
3.73535e-05
-2.39918e-05
5.98831e-05
-4.10921e-05
3.44698e-05
-4.58045e-05
1.04673e-05
-4.36625e-05
-3.84607e-06
-3.07448e-05
-2.48952e-05
-1.33011e-05
-3.95709e-05
-3.65056e-05
-4.39175e-05
0.000215929
-5.67893e-05
5.87825e-05
-5.96319e-05
6.72209e-06
-4.50289e-05
-5.28269e-05
-3.96692e-05
-4.42874e-05
-3.12361e-05
-5.67976e-05
-1.49678e-05
-7.02089e-05
-6.13793e-07
-5.65746e-05
7.15334e-06
-3.19812e-05
1.19843e-05
-1.6654e-05
1.72175e-05
-6.48567e-06
1.61948e-05
3.83763e-05
4.01602e-07
7.56775e-05
-1.56641e-05
5.05368e-05
-2.37344e-05
1.85419e-05
-2.42489e-05
-3.32456e-06
-1.26204e-05
-3.65193e-05
-1.22804e-06
-5.09557e-05
-3.77336e-05
1.69263e-05
0.000199069
4.2688e-06
7.14324e-05
-4.54594e-05
5.64421e-05
-3.25705e-05
-6.57284e-05
-3.30426e-05
-4.38248e-05
-2.71489e-05
-6.26937e-05
-1.3816e-05
-8.35426e-05
-1.90094e-06
-6.84896e-05
4.85726e-06
-3.87405e-05
9.70207e-06
-2.15008e-05
1.28073e-05
-9.59304e-06
2.07976e-05
3.03866e-05
2.71507e-05
6.93246e-05
2.80074e-05
4.96808e-05
2.77859e-05
1.87611e-05
2.10083e-05
3.45876e-06
1.27878e-05
-2.82746e-05
8.15768e-06
-4.63268e-05
-2.95759e-05
3.16564e-05
0.000167307
8.0347e-06
9.50143e-05
-1.74243e-05
8.18935e-05
-3.40501e-05
-4.91058e-05
-3.47836e-05
-4.30825e-05
-2.55058e-05
-7.19673e-05
-1.47074e-05
-9.43419e-05
-4.94404e-06
-7.82529e-05
-1.1083e-06
-4.26251e-05
7.26505e-06
-2.98943e-05
1.58823e-05
-1.8246e-05
2.19872e-05
2.42973e-05
3.05718e-05
6.07399e-05
3.48577e-05
4.53946e-05
3.4468e-05
1.91507e-05
3.08972e-05
7.03521e-06
2.25476e-05
-1.99215e-05
1.21076e-05
-3.58869e-05
-1.74684e-05
2.78389e-05
0.000139346
3.61851e-05
8.66328e-05
6.07156e-05
5.73625e-05
1.20025e-05
-3.8837e-07
-3.102e-05
-5.72149e-08
-2.20421e-05
-8.09281e-05
-1.55142e-05
-0.000100882
-1.35998e-05
-8.0192e-05
-2.60292e-05
-3.02546e-05
-2.55647e-05
-3.0388e-05
2.2891e-06
-4.6083e-05
2.85274e-05
-1.88319e-06
3.61251e-05
5.32056e-05
3.62395e-05
4.5275e-05
3.22259e-05
2.3164e-05
2.76788e-05
1.15889e-05
1.98074e-05
-1.20495e-05
1.00999e-05
-2.61792e-05
-7.36842e-06
2.36507e-05
0.000115684
4.46473e-05
6.56328e-05
7.76815e-05
2.43627e-05
4.21877e-05
3.51063e-05
-8.27246e-06
5.03973e-05
-1.61181e-05
-7.30799e-05
-1.60842e-05
-0.00010093
-3.21711e-05
-6.41666e-05
-5.20348e-05
-1.0445e-05
-5.13561e-05
-3.09887e-05
-4.39025e-05
-5.35051e-05
-2.54675e-06
-4.32165e-05
3.43983e-05
1.63073e-05
3.16458e-05
4.8079e-05
2.48225e-05
2.99754e-05
1.97282e-05
1.66816e-05
1.2098e-05
-4.41908e-06
4.52122e-06
-1.86023e-05
-2.84716e-06
1.54204e-05
0.000100248
3.79894e-05
4.3156e-05
4.42073e-05
1.81543e-05
2.99349e-05
4.93627e-05
1.40552e-05
6.62561e-05
-3.07835e-06
-5.59573e-05
-1.4918e-05
-8.90956e-05
-4.0312e-05
-3.88034e-05
-5.83031e-05
7.58846e-06
-5.50058e-05
-3.42712e-05
-5.38758e-05
-5.46441e-05
-4.13637e-05
-5.57234e-05
-6.7981e-06
-1.82417e-05
1.29435e-05
2.83436e-05
1.00335e-05
3.28976e-05
8.07755e-06
1.86359e-05
4.10207e-06
-4.42062e-07
-7.59061e-07
-1.3741e-05
-3.60588e-06
4.87395e-06
-1.09379e-05
8.91734e-06
-8.46229e-06
1.00235e-05
-1.79026e-06
7.97863e-06
6.44337e-06
2.72099e-06
1.38799e-05
-5.20218e-06
2.00893e-05
-1.29452e-05
2.01832e-05
-1.83088e-05
1.39432e-05
-1.8767e-05
2.0202e-06
-1.48807e-05
-1.00763e-05
-9.31778e-06
-1.68989e-05
-3.35628e-06
-2.11265e-05
9.95184e-07
-1.94578e-05
4.42973e-06
-1.71793e-05
7.46394e-06
-1.35829e-05
2.74231e-06
-4.26036e-06
-2.22535e-05
2.00328e-05
-3.31554e-05
5.73001e-06
-5.97972e-06
-3.17034e-05
1.31356e-05
-2.29454e-05
9.85983e-06
1.45502e-05
1.19639e-05
2.0329e-05
2.32784e-05
1.70642e-05
6.86525e-06
-1.78032e-05
1.4204e-05
-1.5801e-05
1.81843e-05
-5.77055e-06
1.52971e-05
9.33053e-06
8.50561e-06
2.06714e-05
-2.01352e-06
3.06085e-05
-1.59587e-05
3.41284e-05
-2.71225e-05
2.5107e-05
-3.07636e-05
5.66132e-06
-2.80785e-05
-1.27619e-05
-2.00893e-05
-2.48895e-05
-5.90124e-06
-3.53349e-05
5.94041e-06
-3.13462e-05
5.44902e-06
-1.67336e-05
-5.94348e-05
5.10167e-05
-0.000135258
7.14248e-05
-0.000120555
5.21376e-06
-5.84607e-05
-5.64319e-05
-9.03535e-06
-8.1105e-05
2.31245e-05
-5.50277e-05
2.6805e-05
1.08091e-05
1.12417e-05
3.58153e-05
2.50441e-05
9.47e-06
9.07672e-06
-2.68799e-05
1.82711e-05
-2.49955e-05
2.24974e-05
-9.99685e-06
1.92341e-05
1.25939e-05
1.37248e-05
2.61806e-05
4.54598e-06
3.97867e-05
-1.31962e-05
5.18671e-05
-3.43703e-05
4.62782e-05
-4.70811e-05
1.83681e-05
-4.54149e-05
-1.44444e-05
-2.48857e-05
-4.55515e-05
1.07309e-05
-7.09994e-05
5.24488e-05
-7.31821e-05
3.18019e-05
3.95399e-06
-0.000164287
0.000247124
-0.000166335
7.33331e-05
-7.90841e-05
-8.19622e-05
-2.73516e-05
-0.00010792
-5.51256e-06
-0.000102914
1.07697e-05
-7.13295e-05
2.39176e-05
-2.35382e-06
1.15222e-05
4.81599e-05
4.64154e-05
-9.864e-06
8.49576e-06
-3.53757e-05
1.18094e-05
-2.83091e-05
1.14067e-05
-9.59457e-06
1.56969e-05
8.32446e-06
1.96639e-05
2.22992e-05
1.31431e-05
4.64689e-05
-8.7048e-06
7.38638e-05
-3.75085e-05
7.51959e-05
-6.1858e-05
4.27061e-05
-8.2569e-05
6.08639e-06
-7.77191e-05
-5.03869e-05
-6.62991e-05
-8.23305e-05
-4.11545e-05
-9.81936e-05
-5.8206e-05
2.09842e-05
-0.000179764
0.000368577
-8.24837e-05
-2.38695e-05
-5.49325e-05
-0.000108974
-4.78089e-05
-0.00011502
-3.8088e-05
-0.000112637
-3.2655e-05
-7.6764e-05
-2.90774e-05
-5.94075e-06
-3.39024e-05
5.28927e-05
7.57524e-05
-6.32302e-05
-6.70992e-06
-2.86657e-05
-1.59197e-05
-1.91044e-05
-1.74668e-05
-8.11287e-06
-1.47083e-05
5.63442e-06
-4.50364e-06
1.21493e-05
-8.11785e-06
5.01761e-05
-6.01494e-05
0.00012605
-0.000117539
0.00013291
-0.00014235
6.76045e-05
-0.00013934
3.10162e-06
-0.000129542
-5.99888e-05
-0.000128038
-8.3846e-05
-0.000133567
-9.29253e-05
-0.000157943
4.54166e-05
-0.000137955
0.000348591
-9.57465e-05
-6.56393e-05
-9.48297e-05
-0.000109745
-9.19674e-05
-0.000117881
-9.16856e-05
-0.000112914
-9.85128e-05
-6.99448e-05
-0.000100889
-3.59438e-06
-0.00010264
5.46233e-05
8.48739e-05
-0.000111751
-2.64692e-05
-2.19683e-06
-5.54047e-05
9.68951e-06
-8.68611e-05
2.33342e-05
-0.000101433
2.01612e-05
-8.66489e-05
-2.6528e-06
-7.0604e-05
3.41421e-05
-0.000133292
0.000188817
-0.000218593
0.000218464
-0.000215986
6.56139e-05
-0.000178825
-3.40828e-05
-0.000153588
-8.52491e-05
-0.000138614
-9.90005e-05
-0.000157414
-7.45553e-05
-0.000202036
9.00507e-05
-0.000146795
0.000293688
-0.000125761
-8.60776e-05
-0.000123333
-0.000112131
-0.000123609
-0.000117612
-0.000131327
-0.00010519
-0.000145373
-5.59026e-05
-0.000149653
6.81437e-07
-0.000141158
4.60978e-05
7.49852e-05
-0.000131281
-3.29289e-05
3.0723e-05
-7.66231e-05
5.32205e-05
-0.00013382
8.05549e-05
-0.000149419
3.57276e-05
-0.000170608
1.85394e-05
-0.000203385
6.69182e-05
-0.00022222
0.000207661
-0.000217043
0.000213324
-0.000191195
3.9932e-05
-0.00017919
-4.59988e-05
-0.000171002
-9.37135e-05
-0.000139512
-0.000130776
-0.000178997
-3.5053e-05
-0.00020485
0.000115883
-0.000165634
0.000254578
-0.000149535
-0.000101995
-0.000138425
-0.000123005
-0.000133548
-0.000122667
-0.000141504
-9.72422e-05
-0.0001514
-4.60092e-05
-0.000152299
1.58251e-06
-0.00014646
4.02508e-05
6.48981e-05
-0.000136402
-2.90758e-05
5.97768e-05
-6.35758e-05
8.7591e-05
-0.000147819
0.000164831
-0.000195925
8.3827e-05
-0.000270031
9.26433e-05
-0.000332431
0.000129316
-0.000272377
0.000147602
-0.000178633
0.000119592
-0.000149667
1.09619e-05
-0.000150206
-4.54587e-05
-0.000158925
-8.49953e-05
-0.000176109
-0.000113596
-0.000212459
1.29952e-06
-0.000194869
9.82813e-05
-0.000122974
0.000182697
-0.000133248
-9.17261e-05
-0.000140519
-0.000115695
-0.000126809
-0.000136073
-0.000130276
-9.36326e-05
-0.00013968
-3.65974e-05
-0.000142158
4.05908e-06
-0.000137458
3.55007e-05
5.36256e-05
-0.000126605
-2.48978e-05
8.46493e-05
-4.19076e-05
0.000104439
-0.000120247
0.000243172
-0.000198824
0.000162409
-0.000251228
0.000145042
-0.000273215
0.000151306
-0.000225306
9.96931e-05
-0.000178441
7.27164e-05
-0.000168468
9.81023e-07
-0.000164365
-4.95613e-05
-0.000168732
-8.06288e-05
-0.000190467
-9.18674e-05
-0.000183162
-5.99675e-06
-0.000144081
5.91911e-05
-8.3298e-05
0.000121921
-9.94294e-05
-7.55966e-05
-0.000103548
-0.000111568
-9.57711e-05
-0.000143849
-0.000112733
-7.63272e-05
-0.000113296
-3.55338e-05
-0.000113706
4.44431e-06
-0.000110649
3.21828e-05
4.46959e-05
-0.000101762
-2.30596e-05
0.000107688
-2.88228e-05
0.000109965
-8.62927e-05
0.000300642
-0.000147643
0.000223762
-0.00016838
0.000165776
-0.000179633
0.000162563
-0.000170868
9.09314e-05
-0.000162797
6.46408e-05
-0.000164804
2.9825e-06
-0.00016263
-5.17352e-05
-0.000156949
-8.63106e-05
-0.000166716
-8.21024e-05
-0.000149647
-2.30626e-05
-0.000110864
2.04124e-05
-6.57984e-05
7.68588e-05
-6.59164e-05
-7.548e-05
-7.8213e-05
-9.92689e-05
-9.71661e-05
-0.000124894
-0.00010003
-7.34535e-05
-9.23871e-05
-4.28908e-05
-7.92075e-05
-8.38392e-06
-6.84118e-05
2.12621e-05
3.40689e-05
-5.80785e-05
-1.64143e-05
0.000124089
-1.30636e-05
0.000106515
-4.39529e-05
0.000331534
-8.69826e-05
0.000266794
-9.95734e-05
0.000178366
-9.68532e-05
0.000159842
-8.79091e-05
8.19905e-05
-8.38034e-05
6.05353e-05
-7.50664e-05
-5.75686e-06
-8.14154e-05
-4.53872e-05
-9.19563e-05
-7.57704e-05
-0.000115016
-5.90445e-05
-0.000110679
-2.73977e-05
-8.16967e-05
-8.57013e-06
-3.14571e-05
2.6625e-05
-3.69645e-05
-6.99719e-05
-6.05778e-05
-7.56536e-05
-8.44445e-05
-0.000101027
-9.05955e-05
-6.73005e-05
-8.06809e-05
-5.2792e-05
-6.62465e-05
-2.2649e-05
-4.4092e-05
-6.9534e-07
1.27275e-05
-2.28355e-05
-4.16496e-06
0.000128264
3.79184e-06
9.88085e-05
-2.30868e-05
0.000358458
-6.04967e-05
0.000304205
-5.2896e-05
0.000170768
-3.9123e-05
0.000146069
-2.47833e-05
6.76527e-05
-2.19346e-05
5.7687e-05
-1.83063e-05
-9.38557e-06
-3.75611e-05
-2.61331e-05
-6.40646e-05
-4.92672e-05
-8.20749e-05
-4.1035e-05
-8.39716e-05
-2.55006e-05
-6.91906e-05
-2.33514e-05
-3.92128e-05
-3.35098e-06
-5.31739e-05
-5.60104e-05
-7.43039e-05
-5.45221e-05
-9.59983e-05
-7.93322e-05
-9.91089e-05
-6.41882e-05
-9.67283e-05
-5.51715e-05
-8.7658e-05
-3.16945e-05
-6.06916e-05
-2.75157e-05
-1.59842e-05
-3.19653e-05
6.82714e-06
0.000122709
3.60488e-06
0.000102269
-4.73348e-05
0.000409403
-7.38626e-05
0.000330733
-4.83884e-05
0.000145294
-3.25043e-05
0.000130186
-1.01627e-05
4.53116e-05
-1.51362e-06
4.90381e-05
-2.85516e-06
-8.04444e-06
-2.03292e-05
-8.65932e-06
-4.4076e-05
-2.55207e-05
-5.93815e-05
-2.57298e-05
-6.58601e-05
-1.90216e-05
-6.5355e-05
-2.38564e-05
-5.66558e-05
-1.20492e-05
-6.73782e-05
-4.52875e-05
-7.87677e-05
-4.31314e-05
-9.50663e-05
-6.30332e-05
-0.000104055
-5.51986e-05
-0.000102126
-5.70997e-05
-8.99848e-05
-4.38336e-05
-7.37865e-05
-4.37091e-05
-3.91908e-05
-5.05662e-05
1.21261e-05
0.000110901
-2.98411e-05
0.000144263
-5.85451e-05
0.000438112
-6.32581e-05
0.000335447
-4.3247e-05
0.000125284
-2.79782e-05
0.000114917
-1.32584e-05
3.05917e-05
-6.02411e-06
4.18035e-05
-1.36287e-05
-4.40205e-07
-2.48889e-05
2.60044e-06
-4.20161e-05
-8.39374e-06
-5.36151e-05
-1.4131e-05
-6.19572e-05
-1.06794e-05
-6.63924e-05
-1.94213e-05
-6.53956e-05
-1.30454e-05
-7.63698e-05
-3.4313e-05
-8.75932e-05
-3.19072e-05
-0.00010178
-4.8846e-05
-0.000109665
-4.73124e-05
-0.000113467
-5.32974e-05
-0.000108235
-4.90658e-05
-9.90771e-05
-5.28659e-05
-5.56296e-05
-8.26375e-05
1.24713e-05
9.84361e-05
-6.4969e-05
0.000221704
-5.57502e-05
0.000428895
-4.91358e-05
0.000328832
-3.71838e-05
0.000113333
-2.09694e-05
9.8702e-05
-1.4376e-05
2.39984e-05
-9.41117e-06
3.68384e-05
-1.97607e-05
9.90914e-06
-2.82245e-05
1.10642e-05
-4.16637e-05
5.04539e-06
-5.26642e-05
-3.13053e-06
-6.18849e-05
-1.45854e-06
-6.99277e-05
-1.13782e-05
-7.52883e-05
-7.68423e-06
-8.68358e-05
-2.27651e-05
-9.83972e-05
-2.0345e-05
-0.000113329
-3.39135e-05
-0.00012614
-3.45006e-05
-0.000135151
-4.42863e-05
-0.00013796
-4.62557e-05
-0.000135217
-5.56083e-05
-6.05139e-05
-0.000130332
-3.8097e-05
0.000136544
-7.97181e-05
0.000263325
-4.31518e-05
0.00039233
-3.5137e-05
0.000320816
-2.54156e-05
0.000103613
-1.22385e-05
8.55245e-05
-1.66743e-05
2.84342e-05
-1.63217e-05
3.64854e-05
-2.90075e-05
2.25948e-05
-3.69295e-05
1.89861e-05
-4.76626e-05
1.57783e-05
-5.69583e-05
6.16519e-06
-6.54615e-05
7.04467e-06
-7.40206e-05
-2.81897e-06
-8.0738e-05
-9.6655e-07
-9.10932e-05
-1.24096e-05
-0.000101018
-1.04199e-05
-0.000114415
-2.05163e-05
-0.000128666
-2.02486e-05
-0.000144669
-2.82827e-05
-0.000159708
-3.1216e-05
-0.000173784
-4.15323e-05
-4.89284e-05
-0.00018537
-5.23051e-05
0.00018829
-6.57146e-05
0.000276732
-2.88137e-05
0.00035543
-1.93871e-05
0.000311388
-1.54723e-05
9.96993e-05
-6.37136e-06
7.64231e-05
-1.90677e-05
4.11308e-05
-2.22815e-05
3.96991e-05
-3.48613e-05
3.51745e-05
-4.20388e-05
2.61636e-05
-5.1715e-05
2.54545e-05
-6.02569e-05
1.47072e-05
-6.8678e-05
1.54659e-05
-7.73403e-05
5.84361e-06
-8.51271e-05
6.8205e-06
-9.48061e-05
-2.7301e-06
-0.000104087
-1.13895e-06
-0.00011567
-8.93223e-06
-0.000128596
-7.32167e-06
-0.000145125
-1.17538e-05
-0.000164855
-1.14854e-05
-0.000186728
-1.96587e-05
-2.72309e-05
-0.000208426
-4.62255e-06
0.000192681
-2.58391e-05
0.000297947
-2.0631e-05
0.000350218
-5.2495e-06
0.000296006
-1.05206e-05
0.00010497
-8.56414e-06
7.44661e-05
-2.46021e-05
5.71685e-05
-3.13291e-05
4.64259e-05
-4.32309e-05
4.70761e-05
-5.06797e-05
3.36124e-05
-5.96576e-05
3.44322e-05
-6.76036e-05
2.26533e-05
-7.53366e-05
2.31989e-05
-8.3303e-05
1.38102e-05
-9.05672e-05
1.40849e-05
-9.88702e-05
5.57323e-06
-0.000106738
6.72902e-06
-0.00011587
1.99816e-07
-0.000124968
1.77679e-06
-0.000135733
-9.87589e-07
-0.000147833
6.14814e-07
-0.000164521
-2.9698e-06
-7.39974e-06
-0.000184352
-4.66191e-06
0.000197319
-2.3209e-05
0.000316495
-1.96107e-05
0.000346625
2.43383e-06
0.000273962
-8.49069e-06
0.000115896
-1.35593e-05
7.95347e-05
-3.00232e-05
7.36327e-05
-3.79604e-05
5.43632e-05
-4.88649e-05
5.79806e-05
-5.63959e-05
4.11434e-05
-6.49637e-05
4.30001e-05
-7.26722e-05
3.0362e-05
-8.04357e-05
3.09625e-05
-8.83659e-05
2.17407e-05
-9.59065e-05
2.16257e-05
-0.000103998
1.36651e-05
-0.000111875
1.46066e-05
-0.000120657
8.98185e-06
-0.000129794
1.09146e-05
-0.000139257
8.47513e-06
-0.000148892
1.0251e-05
-0.000159899
8.0373e-06
5.81773e-06
-0.000173116
-1.32487e-06
0.000198595
-1.95995e-05
0.000334788
-2.00204e-05
0.000347046
3.75261e-06
0.000250188
-1.32666e-05
0.000132915
-2.34358e-05
8.97034e-05
-3.85856e-05
8.87823e-05
-4.68334e-05
6.26109e-05
-5.62914e-05
6.74384e-05
-6.32468e-05
4.80988e-05
-7.05479e-05
5.03011e-05
-7.71774e-05
3.69916e-05
-8.36693e-05
3.74545e-05
-9.02113e-05
2.82828e-05
-9.6602e-05
2.80167e-05
-0.000103753
2.08166e-05
-0.000111247
2.21004e-05
-0.000120451
1.81866e-05
-0.000130627
2.10911e-05
-0.000141652
1.95006e-05
-0.000153083
2.16817e-05
-0.000165749
2.07044e-05
2.01278e-05
-0.000180058
3.70802e-06
0.000195337
-1.59816e-05
0.000354583
-2.76502e-05
0.000358716
-7.21532e-06
0.000229754
-2.56841e-05
0.000151384
-3.69388e-05
0.000100958
-4.90384e-05
0.000100882
-5.6726e-05
7.02984e-05
-6.45995e-05
7.53119e-05
-7.10694e-05
5.45687e-05
-7.75342e-05
5.6766e-05
-8.38425e-05
4.32999e-05
-9.00361e-05
4.36482e-05
-9.63687e-05
3.46157e-05
-0.000102628
3.42768e-05
-0.000109676
2.78646e-05
-0.000117625
3.00492e-05
-0.00012714
2.77024e-05
-0.000137955
3.19061e-05
-0.000150255
3.18013e-05
-0.000164192
3.56196e-05
-0.000179704
3.62168e-05
3.62095e-05
-0.000195784
-2.11263e-05
0.00021688
-4.09178e-05
0.000374377
-4.83386e-05
0.000366136
-3.37617e-05
0.000215178
-4.51703e-05
0.000162793
-5.40392e-05
0.000109827
-6.15199e-05
0.000108363
-6.71045e-05
7.58828e-05
-7.23855e-05
8.05928e-05
-7.76495e-05
5.98327e-05
-8.29185e-05
6.20349e-05
-8.85958e-05
4.89773e-05
-9.42533e-05
4.93059e-05
-0.000100514
4.08769e-05
-0.000107321
4.10841e-05
-0.00011582
3.63629e-05
-0.000126243
4.04731e-05
-0.00013775
3.9209e-05
-0.000149844
4.40012e-05
-0.000163387
4.53442e-05
-0.000178258
5.04914e-05
-0.000193366
5.13261e-05
4.97912e-05
-0.000206948
-5.74014e-05
0.000274284
-8.06306e-05
0.00039761
-7.46513e-05
0.000360159
-6.79381e-05
0.000208465
-6.95659e-05
0.00016442
-7.40599e-05
0.00011432
-7.62859e-05
0.000110589
-7.93952e-05
7.8992e-05
-8.19765e-05
8.3174e-05
-8.5785e-05
6.36412e-05
-8.95154e-05
6.57653e-05
-9.4271e-05
5.3733e-05
-9.93292e-05
5.43644e-05
-0.000105785
4.73326e-05
-0.000113889
4.91885e-05
-0.000124177
4.66516e-05
-0.000136493
5.27888e-05
-0.000149402
5.21183e-05
-0.000162366
5.69663e-05
-0.000175604
5.85822e-05
-0.000188129
6.30167e-05
-0.000198689
6.1887e-05
5.68843e-05
-0.000205782
-7.76889e-05
0.00035197
-0.000107543
0.000427469
-9.72004e-05
0.000349817
-9.77892e-05
0.000209054
-9.36096e-05
0.00016024
-9.24187e-05
0.000113129
-8.94316e-05
0.000107601
-8.95199e-05
7.90801e-05
-8.94585e-05
8.31124e-05
-9.19203e-05
6.6103e-05
-9.45536e-05
6.83986e-05
-9.8948e-05
5.81274e-05
-0.000104046
5.94625e-05
-0.000111089
5.43756e-05
-0.000121054
5.91543e-05
-0.000132421
5.8018e-05
-0.00014394
6.43082e-05
-0.000155176
6.33554e-05
-0.000166056
6.78464e-05
-0.000176674
6.92006e-05
-0.00018551
7.18529e-05
-0.000192457
6.88351e-05
6.00245e-05
-0.000195597
-8.2916e-05
0.000434884
-0.000119887
0.000464443
-0.000120378
0.000350311
-0.000125439
0.000214115
-0.000118286
0.000153087
-0.000110496
0.000105339
-0.00010239
9.94949e-05
-9.97502e-05
7.64403e-05
-9.70592e-05
8.04213e-05
-9.82177e-05
6.72614e-05
-9.9778e-05
6.9959e-05
-0.000103887
6.22361e-05
-0.000109736
6.53119e-05
-0.000117883
6.25222e-05
-0.000128834
7.01055e-05
-0.000140038
6.92228e-05
-0.000149576
7.38465e-05
-0.000158249
7.20284e-05
-0.000165583
7.51809e-05
-0.000171856
7.5474e-05
-0.00017675
7.67475e-05
-0.000179875
7.19602e-05
5.9213e-05
-0.000179063
-7.99769e-05
0.000514858
-0.000125723
0.000510194
-0.000141978
0.000366567
-0.000150742
0.000222878
-0.000139818
0.000142162
-0.000125482
9.10022e-05
-0.000111714
8.57273e-05
-0.000105919
7.06446e-05
-0.000101193
7.56949e-05
-0.00010131
6.73786e-05
-0.000102628
7.12767e-05
-0.000106809
6.64179e-05
-0.000114068
7.25704e-05
-0.000123423
7.18772e-05
-0.000133183
7.98667e-05
-0.000142212
7.82513e-05
-0.00014903
8.06651e-05
-0.000154938
7.79369e-05
-0.000159081
7.93248e-05
-0.000161768
7.81609e-05
-0.000162798
7.7778e-05
-0.000161296
7.04587e-05
5.39757e-05
-0.000156058
-7.77774e-05
0.000592633
-0.000132222
0.000564641
-0.000159981
0.000394329
-0.000170134
0.000233029
-0.000155996
0.000128022
-0.000136562
7.15688e-05
-0.000118288
6.74524e-05
-0.000109721
6.20775e-05
-0.000104282
7.02553e-05
-0.000103735
6.68319e-05
-0.000105586
7.31277e-05
-0.000110539
7.13707e-05
-0.000118782
8.08134e-05
-0.000128542
8.16376e-05
-0.000136468
8.77931e-05
-0.000142717
8.45003e-05
-0.000146323
8.42715e-05
-0.000149016
8.06303e-05
-0.000150132
8.04411e-05
-0.000149555
7.75847e-05
-0.000146113
7.43361e-05
-0.000139109
6.34551e-05
4.46246e-05
-0.000129757
-7.7447e-05
0.000670079
-0.000128556
0.000615756
-0.000161918
0.000427692
-0.000173185
0.000244295
-0.000158932
0.000113767
-0.000136434
4.90701e-05
-0.000115982
4.70003e-05
-0.000106347
5.24424e-05
-0.000101674
6.55822e-05
-0.000101599
6.67574e-05
-0.000104776
7.63041e-05
-0.00011118
7.77757e-05
-0.000119499
8.91319e-05
-0.00012853
9.06695e-05
-0.000135055
9.4318e-05
-0.000139751
8.91964e-05
-0.000141489
8.60099e-05
-0.000142282
8.1424e-05
-0.000141191
7.93503e-05
-0.000137209
7.36036e-05
-0.000129429
6.65559e-05
-0.000118192
5.22183e-05
3.28464e-05
-0.000106413
-5.64021e-05
0.000726485
-0.000101329
0.000660687
-0.000138899
0.000465262
-0.00015413
0.000259525
-0.000142892
0.000102527
-0.000122844
2.90218e-05
-0.000106073
3.02292e-05
-9.83964e-05
4.4766e-05
-9.59162e-05
6.31021e-05
-9.79631e-05
6.88044e-05
-0.00010303
8.13717e-05
-0.000111287
8.60321e-05
-0.000119621
9.7466e-05
-0.00012763
9.86791e-05
-0.000132802
9.94903e-05
-0.000135852
9.22472e-05
-0.000136234
8.6392e-05
-0.000135446
8.06362e-05
-0.000131756
7.56605e-05
-0.00012454
6.63882e-05
-0.000113491
5.55065e-05
-0.000100473
3.92007e-05
2.08436e-05
-8.84697e-05
-1.58545e-05
0.000742341
-4.37436e-05
0.00068858
-7.77558e-05
0.000499276
-9.93485e-05
0.000281116
-9.97554e-05
0.000102932
-9.11011e-05
2.03669e-05
-8.40874e-05
2.32159e-05
-8.25653e-05
4.32439e-05
-8.45571e-05
6.5094e-05
-9.01274e-05
7.4375e-05
-9.7469e-05
8.87136e-05
-0.000107307
9.58702e-05
-0.000116047
0.000106207
-0.000123883
0.000106515
-0.000128482
0.00010409
-0.00013041
9.41752e-05
-0.000130301
8.62831e-05
-0.000128374
7.87101e-05
-0.000122569
6.98559e-05
-0.000113328
5.71474e-05
-0.000101159
4.33374e-05
-8.86752e-05
2.67174e-05
9.35447e-06
-7.71857e-05
1.76855e-05
0.000724655
2.80181e-05
0.00067825
1.34547e-05
0.00051384
-1.2353e-05
0.000306925
-3.28765e-05
0.000123455
-4.55224e-05
3.30125e-05
-5.41398e-05
3.18341e-05
-6.2693e-05
5.17974e-05
-7.142e-05
7.38215e-05
-8.16748e-05
8.46302e-05
-9.21802e-05
9.92194e-05
-0.000103759
0.000107449
-0.000113338
0.000115786
-0.000120768
0.000113946
-0.000123911
0.000107233
-0.00012463
9.48947e-05
-0.000123677
8.53299e-05
-0.000119697
7.47313e-05
-0.000111831
6.19899e-05
-0.000101572
4.68885e-05
-8.98068e-05
3.15726e-05
-7.8332e-05
1.5243e-05
-1.45625e-06
-6.7521e-05
3.61717e-05
0.000688484
7.21021e-05
0.00064232
8.18274e-05
0.000504117
6.08151e-05
0.00032794
2.94651e-05
0.000154805
5.62265e-07
6.19159e-05
-2.22265e-05
5.46233e-05
-4.07156e-05
7.0287e-05
-5.60063e-05
8.91127e-05
-7.06633e-05
9.92876e-05
-8.41501e-05
0.000112707
-9.72075e-05
0.000120507
-0.000107623
0.000126202
-0.000114888
0.000121211
-0.000117058
0.000109403
-0.000117571
9.5408e-05
-0.000116036
8.37953e-05
-0.000110486
6.91813e-05
-0.000102243
5.37474e-05
-9.26008e-05
3.7247e-05
-8.21561e-05
2.11282e-05
-7.14915e-05
4.57868e-06
-1.18087e-05
-6.11388e-05
4.82935e-05
0.000640189
9.22765e-05
0.000598338
0.000110384
0.00048601
9.7922e-05
0.000340403
6.9129e-05
0.000183598
3.36553e-05
9.73903e-05
1.88228e-06
8.63974e-05
-2.43098e-05
9.64796e-05
-4.50679e-05
0.000109871
-6.35535e-05
0.000117774
-7.95797e-05
0.000128733
-9.38323e-05
0.00013476
-0.000104454
0.000136824
-0.000110007
0.000126764
-0.00011107
0.000110466
-0.000110816
9.51544e-05
-0.000107365
8.03446e-05
-0.000100638
6.24547e-05
-9.22042e-05
4.53141e-05
-8.27658e-05
2.78088e-05
-7.27891e-05
1.11517e-05
-6.2703e-05
-5.50721e-06
-2.13586e-05
-5.3153e-05
5.05581e-05
0.00058963
9.53333e-05
0.000553562
0.000116026
0.00046532
0.000113242
0.000343186
9.15069e-05
0.000205333
5.49434e-05
0.000133955
1.97116e-05
0.00012163
-9.94914e-06
0.000126141
-3.36697e-05
0.000133593
-5.44938e-05
0.000138599
-7.22043e-05
0.000146444
-8.74161e-05
0.000149972
-9.80607e-05
0.000147469
-0.000102362
0.000131066
-0.000103541
0.000111645
-0.000102941
9.45546e-05
-9.84899e-05
7.58942e-05
-9.21992e-05
5.61645e-05
-8.45174e-05
3.76325e-05
-7.58786e-05
1.91703e-05
-6.65536e-05
1.82693e-06
-5.71246e-05
-1.4936e-05
-3.03321e-05
-4.81509e-05
4.43801e-05
0.000545249
8.62918e-05
0.000511649
0.000111006
0.000440604
0.000115368
0.000338823
9.67324e-05
0.000223969
5.99273e-05
0.000170762
2.39097e-05
0.000157649
-6.9565e-06
0.000157008
-3.20215e-05
0.000158658
-5.40204e-05
0.000160598
-7.22856e-05
0.00016471
-8.70732e-05
0.00016476
-9.51626e-05
0.000155559
-9.74393e-05
0.000133343
-9.78369e-05
0.000112043
-9.54484e-05
9.21665e-05
-8.99686e-05
7.04148e-05
-8.31373e-05
4.93334e-05
-7.49979e-05
2.94933e-05
-6.6321e-05
1.04936e-05
-5.75548e-05
-6.93912e-06
-4.92346e-05
-2.32561e-05
-3.83188e-05
-4.12478e-05
4.01892e-05
0.000505059
7.8204e-05
0.000473632
0.000105366
0.000413441
0.000112625
0.000331564
9.48247e-05
0.00024177
5.9947e-05
0.000205641
2.64005e-05
0.000191196
-3.07819e-06
0.000186487
-2.76432e-05
0.000183224
-4.97057e-05
0.000182661
-6.82643e-05
0.000183269
-8.27621e-05
0.000179259
-8.89946e-05
0.000161792
-9.08202e-05
0.000135169
-9.09776e-05
0.000112201
-8.76237e-05
8.8813e-05
-8.24706e-05
6.5262e-05
-7.61628e-05
4.30258e-05
-6.88465e-05
2.21772e-05
-6.09806e-05
2.62799e-06
-5.28237e-05
-1.50959e-05
-4.51092e-05
-3.09704e-05
-4.56087e-05
-3.78191e-05
4.08821e-05
0.000464178
7.34634e-05
0.000441052
9.60963e-05
0.000390809
9.91705e-05
0.000328491
7.80057e-05
0.000262936
4.55117e-05
0.000238136
1.55357e-05
0.000221173
-1.15367e-05
0.00021356
-3.49526e-05
0.000206641
-5.60007e-05
0.00020371
-7.30538e-05
0.000200323
-8.35293e-05
0.000189735
-8.63806e-05
0.000164643
-8.70786e-05
0.000135868
-8.54825e-05