/*--------------------------------*- C++ -*----------------------------------*\
| =========                 |                                                 |
| \\      /  F ield         | OpenFOAM: The Open Source CFD Toolbox           |
|  \\    /   O peration     | Version:  2012                                  |
|   \\  /    A nd           | Website:  www.openfoam.com                      |
|    \\/     M anipulation  |                                                 |
\*---------------------------------------------------------------------------*/
FoamFile
{
    version     2.0;
    format      ascii;
    class       volScalarField;
    location    "0.98";
    object      rho;
}
// * * * * * * * * * * * * * * * * * * * * * * * * * * * * * * * * * * * * * //

dimensions      [1 -3 0 0 0 0 0];


internalField   nonuniform List<scalar> 
2268
(
1000.05
1000.05
1000.05
1000.05
1000.05
1000.05
1000.05
1000.05
1000.05
1000.05
1000.05
1000.05
1000.05
1000.05
1000.05
1000.05
1000.05
1000.05
1000.05
1000.05
1000.05
1000.05
999.991
1000.05
1000.05
1000.05
1000.05
1000.05
1000.05
1000.05
1000.05
1000.05
1000.05
1000.05
1000.05
1000.05
1000.05
1000.05
1000.05
1000.05
1000.05
1000.05
1000.05
1000.05
1000.05
999.882
1000.05
1000.05
1000.05
1000.05
1000.05
1000.05
1000.05
1000.05
1000.05
1000.05
1000.05
1000.05
1000.05
1000.05
1000.05
1000.05
1000.05
1000.05
1000.05
1000.05
1000.05
1000.05
999.842
1000.05
1000.05
1000.05
1000.05
1000.05
1000.05
1000.05
1000.05
1000.05
1000.05
1000.05
1000.05
1000.05
1000.05
1000.05
1000.05
1000.05
1000.05
1000.05
1000.05
1000.05
1000.05
999.842
1000.05
1000.05
1000.05
1000.05
1000.05
1000.05
1000.05
1000.05
1000.05
1000.05
1000.05
1000.05
1000.05
1000.05
1000.05
1000.05
1000.05
1000.05
1000.05
1000.05
1000.05
1000.05
999.842
1000.05
1000.05
1000.05
1000.05
1000.05
1000.05
1000.05
1000.05
1000.05
1000.05
1000.05
1000.05
1000.05
1000.05
1000.05
1000.05
1000.05
1000.05
1000.05
1000.05
1000.05
1000.05
999.842
1000.05
1000.05
1000.05
1000.05
1000.05
1000.05
1000.05
1000.05
1000.05
1000.05
1000.05
1000.05
1000.05
1000.05
1000.05
1000.05
1000.03
999.591
998.218
999.014
999.931
1000.05
999.987
1000.05
1000.05
1000.05
1000.05
1000.05
1000.05
1000.05
1000.05
1000.05
1000.05
1000.05
1000.05
1000.05
1000.03
999.584
996.598
977.561
906.412
809.966
852.46
1000.05
1000.05
1000.05
771.856
771.855
750.537
754.785
862.924
935.836
979.164
981.18
981.18
981.168
885.151
844.603
906.442
974.175
974.175
965.627
959.268
981.726
982.398
771.856
253.881
123.991
225.917
477.673
860.489
981.19
981.192
981.18
981.18
981.168
850.451
912.996
752.164
607.473
494.779
484.198
821.079
985.188
564.57
11.3885
13.9057
298.379
732.462
895.883
981.204
981.19
981.192
981.18
981.144
975.241
968.271
730.488
409.99
214.649
214.65
621.416
985.188
47.4018
11.3885
11.4913
188.702
748.164
907.211
981.202
981.204
977.137
932.603
897.424
978.174
978.175
940.456
903.191
641.286
271.012
790.279
985.07
142.496
51.5141
13.3909
2.58993
81.7304
465.655
981.215
974.506
650.431
328.798
257.29
592.756
978.174
978.175
978.174
751.397
680.634
920.975
990.063
642.534
441.69
55.9471
2.58992
2.59017
216.714
860.363
777.735
85.2503
63.7655
63.7913
65.9063
371.693
803.48
978.175
764.574
842.754
983.454
990.063
704.771
462.116
47.9312
2.59718
9.59584
114.958
695.678
465.494
73.3089
164.886
397.913
245.075
163.99
218.626
694.563
843.937
964.675
983.454
982.56
704.771
182.793
37.5664
35.0665
30.0998
56.5862
615.691
334.264
93.2179
571.428
721.023
581.848
163.99
147.172
332.36
884.062
911.348
929.677
908.481
1000.05
1000.05
1000.05
1000.05
1000.05
1000.05
1000.05
1000.05
1000.05
1000.02
999.852
999.104
995.969
983.577
891.439
714.143
512.939
384.931
269.276
308.58
553.566
898.919
994.424
1000.05
1000.05
1000.05
1000.05
1000.05
1000.05
1000.05
1000.05
1000.04
979.623
946.549
856.723
711.534
527.644
227.846
29.3323
18.321
18.3229
126.008
194.751
127.418
343.073
959.09
1000.05
1000.04
999.875
1000.05
1000.05
922.286
868.073
928.207
936.299
850.155
552.514
200.378
92.603
8.64282
5.78414
5.78878
23.7502
321.161
803.878
909.932
720.006
362.712
780.595
1000.02
998.732
967.441
739.19
502.924
348.383
354.145
546.748
688.666
485.677
97.3608
58.5798
58.5793
22.2399
1.61952
7.11778
252.435
868.235
954.889
954.884
934.556
691.302
695.548
999.017
936.612
411.7
68.7107
68.4636
74.166
92.2436
183.265
199.305
122.412
126.97
243.627
213.529
33.1891
1.60617
44.1719
645.235
954.887
954.884
954.914
873.862
691.299
817.038
984.053
528.336
103.958
66.7094
35.0651
16.5985
6.37691
10.3159
46.9278
212.776
246.173
246.173
151.247
16.5724
1.61868
79.498
679.103
954.884
954.915
954.912
923.373
888.646
942.752
936.509
323.678
32.9632
19.3535
1.29338
1.32659
1.37381
1.48013
10.8067
83.0219
127.542
57.4615
1.29313
2.1385
1.64472
18.6401
234.654
692.948
949.884
954.941
954.912
954.915
938.41
908.303
201.356
1.29311
5.96598
1.2933
1.29329
1.29329
1.71715
4.00465
1.29323
1.29324
1.2932
1.2931
1.34506
2.54415
3.82496
1.29318
34.4871
451.737
885.474
954.915
901.813
510.56
916.734
208.401
1.29309
1.48339
1.30648
1.39885
3.21878
4.31628
3.30011
1.29321
1.29322
1.2932
1.29421
2.22517
3.33549
2.86841
1.29321
1.29319
1.29313
396.006
840.074
706.757
106.736
932.766
267.122
1.2931
1.30289
1.31422
1.3814
3.21539
4.31613
2.65019
1.2932
1.29322
1.29333
1.29587
1.85238
3.32823
2.25491
1.29322
1.2932
1.44737
9.38095
317.421
560.333
168.707
932.764
280.376
1.29311
1.29321
1.30033
1.34201
1.74326
2.58954
2.26072
1.40011
1.29321
1.29351
1.296
1.33253
1.50833
1.2932
1.29321
1.2932
1.29518
1.98022
19.446
200.827
299.978
825.364
152.102
1.36321
1.29314
1.29383
1.30212
1.30806
1.33497
1.33403
1.29319
1.29339
1.2936
1.29348
1.2932
1.29321
1.2932
1.29321
1.2932
1.29337
1.30462
2.51999
30.6801
156.107
218.9
23.1413
1.32532
1.29315
1.29321
1.29327
1.29351
1.29359
1.29321
1.2932
1.29322
1.29325
1.29321
1.2932
1.29321
1.2932
1.29321
1.29319
1.29319
1.29846
1.38545
1.8524
7.75083
3.39536
2.19906
1.29537
1.29314
1.2932
1.29321
1.29322
1.29321
1.29321
1.2932
1.29321
1.2932
1.2932
1.2932
1.29321
1.2932
1.2932
1.29319
1.29318
1.29315
1.29313
1.29312
1.29311
1.32899
1.33779
1.29308
1.29313
1.2932
1.29321
1.29321
1.2932
1.29321
1.2932
1.29321
1.2932
1.2932
1.2932
1.2932
1.2932
1.2932
1.29319
1.29318
1.29316
1.29391
1.3785
1.50717
1.31571
1.31576
1.47549
1.29313
1.29321
1.29321
1.29321
1.2932
1.2932
1.2932
1.2932
1.29319
1.2932
1.29319
1.2932
1.29319
1.2932
1.29319
1.29319
1.29316
1.30011
1.42404
1.44154
91.3158
1.29302
1.51376
1.29313
1.29321
1.2932
1.2932
1.29319
1.2932
1.29319
1.2932
1.29319
1.2932
1.29319
1.2932
1.29319
1.29319
1.29319
1.29319
1.29318
1.29512
1.31961
1.33856
173.326
1.29302
1.48033
1.29314
1.29321
1.2932
1.2932
1.29319
1.2932
1.29319
1.29319
1.29319
1.29319
1.29319
1.29319
1.29319
1.29319
1.29319
1.29319
1.29319
1.29318
1.29316
1.29362
173.344
1.29302
1.30729
1.29357
1.29322
1.29319
1.2932
1.29318
1.29319
1.29319
1.29319
1.29319
1.29319
1.29319
1.29319
1.29318
1.29318
1.29318
1.29318
1.29318
1.29318
1.29318
1.29317
173.343
1.45094
1.29313
1.29377
1.29322
1.29318
1.29319
1.29318
1.29319
1.29318
1.29319
1.29318
1.29319
1.29318
1.29318
1.29318
1.29317
1.29316
1.29316
1.29316
1.29316
1.29316
1.29314
96.8922
1.75382
1.29314
1.29352
1.2932
1.29318
1.29319
1.29318
1.29319
1.29318
1.29319
1.29318
1.29318
1.29318
1.29318
1.29317
1.29316
1.29314
1.29315
1.29314
1.29313
1.29311
1.29307
2.70316
1.682
1.29315
1.29321
1.29319
1.29318
1.29319
1.29318
1.29318
1.29318
1.29318
1.29318
1.29318
1.29317
1.29317
1.29315
1.29314
1.29315
1.29314
1.29311
1.29307
1.29304
1.29299
1.308
1.45115
1.29316
1.2932
1.29318
1.29317
1.29318
1.29318
1.29318
1.29318
1.29318
1.29317
1.29317
1.29316
1.29315
1.29313
1.29315
1.29314
1.29311
1.29304
1.29302
1.29299
1.29296
1.29304
1.29314
1.29319
1.2932
1.29317
1.29317
1.29318
1.29317
1.29318
1.29317
1.29317
1.29317
1.29316
1.29315
1.29313
1.29314
1.29314
1.29311
1.29304
1.29301
1.29298
1.29296
1.29294
1.29299
1.29312
1.29318
1.29317
1.29317
1.29318
1.29317
1.29317
1.29317
1.29317
1.29317
1.29316
1.29315
1.29313
1.29312
1.29314
1.29312
1.29306
1.29301
1.29299
1.29297
1.29295
1.29294
1.293
1.29312
1.29315
1.29314
1.29315
1.29331
1.29317
1.29317
1.29317
1.29316
1.29316
1.29315
1.29314
1.29312
1.29312
1.29312
1.29307
1.29302
1.29299
1.29298
1.29296
1.29295
1.29294
1.29302
1.29314
1.29319
1.29311
1.29375
1.29345
1.29316
1.29316
1.29316
1.29316
1.29316
1.29314
1.29312
1.29314
1.29315
1.29308
1.29302
1.293
1.29299
1.29297
1.29296
1.29295
1.29295
1.29303
1.29312
1.29433
1.29859
1.29838
1.29378
1.29315
1.29316
1.29316
1.29315
1.29315
1.29313
1.29313
1.29315
1.29313
1.29305
1.29301
1.29299
1.29298
1.29297
1.29296
1.29296
1.29296
1.29302
1.2931
1.29441
1.30582
1.30878
1.29665
1.29315
1.29315
1.29315
1.29315
1.29314
1.29312
1.29311
1.29314
1.2931
1.29302
1.293
1.29299
1.29298
1.29297
1.29297
1.29297
1.29297
1.293
1.29309
1.29494
1.3024
1.33474
1.30352
1.29314
1.29315
1.29315
1.29314
1.29313
1.2931
1.29309
1.29308
1.29305
1.29301
1.293
1.29299
1.29299
1.29298
1.29298
1.29298
1.29299
1.29299
1.29321
1.29501
1.29441
1.37558
1.31608
1.29313
1.29315
1.29315
1.29314
1.29312
1.29309
1.29306
1.29306
1.29303
1.29301
1.293
1.293
1.293
1.293
1.293
1.29301
1.29301
1.29298
1.2935
1.29389
1.29336
1.37903
1.32438
1.29315
1.29314
1.29314
1.29313
1.29311
1.2931
1.29312
1.29304
1.29302
1.29301
1.29301
1.29301
1.29301
1.29302
1.29302
1.29303
1.29303
1.29297
1.29329
1.29307
1.29812
1.37908
1.31947
1.29316
1.29314
1.29314
1.29313
1.29313
1.29324
1.29321
1.29303
1.29302
1.29302
1.29302
1.29302
1.29303
1.29304
1.29304
1.29305
1.29305
1.29296
1.29301
1.29305
1.37557
1.37959
1.30411
1.29315
1.29314
1.29314
1.29312
1.29317
1.29324
1.29319
1.29303
1.29302
1.29302
1.29303
1.29304
1.29304
1.29305
1.29306
1.29307
1.29307
1.30106
1.30161
1.35357
1.39035
1.35077
1.29479
1.29314
1.29314
1.29313
1.29311
1.29318
1.29323
1.29312
1.29303
1.29303
1.29303
1.29304
1.29305
1.29306
1.29307
1.29307
1.29308
1.29308
1.35436
1.38115
1.38979
1.38983
1.30695
1.29337
1.29314
1.29314
1.29313
1.2931
1.29314
1.29317
1.29304
1.29303
1.29303
1.29304
1.29305
1.29306
1.29307
1.29308
1.29309
1.29309
1.29309
1.31175
1.32521
1.34811
1.31391
1.29452
1.29318
1.29314
1.29313
1.29311
1.29309
1.29307
1.29306
1.29303
1.29303
1.29304
1.29305
1.29306
1.29307
1.29308
1.29309
1.2931
1.2931
1.2931
1.29303
1.29319
1.29362
1.29325
1.29318
1.29314
1.29313
1.29313
1.2931
1.29307
1.29305
1.29304
1.29303
1.29303
1.29304
1.29306
1.29307
1.29308
1.29309
1.2931
1.2931
1.29311
1.29311
1.29304
1.29304
1.29307
1.29311
1.29313
1.29313
1.29313
1.29311
1.29309
1.29306
1.29304
1.29304
1.29303
1.29304
1.29305
1.29307
1.29308
1.29309
1.2931
1.2931
1.29311
1.29311
1.29311
1.29309
1.29309
1.29311
1.29312
1.29313
1.29313
1.29312
1.2931
1.29307
1.29319
1.29308
1.29303
1.29303
1.29305
1.29306
1.29308
1.29309
1.2931
1.2931
1.29311
1.29311
1.29311
1.29311
1.29311
1.29312
1.29312
1.29312
1.29312
1.29312
1.29311
1.2931
1.29319
1.2933
1.29315
1.29303
1.29304
1.29305
1.29307
1.29308
1.29309
1.2931
1.2931
1.29311
1.29311
1.29311
1.29311
1.29312
1.29312
1.29312
1.29312
1.29312
1.29311
1.29309
1.29317
1.2934
1.29329
1.29307
1.29303
1.29305
1.29307
1.29308
1.29309
1.2931
1.2931
1.2931
1.2931
1.2931
1.2931
1.2931
996.228
996.224
883.471
746.191
996.224
851.704
807.837
828.087
748.905
748.948
907.86
901.858
861.49
951.845
951.835
788.542
951.845
951.835
913.76
606
951.835
951.802
558.413
183.991
594.328
241.828
63.3551
8.00422
16.3917
6.88362
5.32019
2.20874
5.63315
5.63453
5.63407
26.7742
5.63549
14.9811
22.4691
30.6285
169.038
71.6354
54.0293
71.5871
176.746
118.381
52.6888
71.5775
22.2706
17.7875
10.7768
6.05949
1.2931
1.2931
1.29309
1.5109
1.47958
1.2942
1.29313
1.29312
1.29332
1.29331
1.29331
1.29329
1.29462
1.29453
1.29741
1.29715
1.32222
1.32437
1.32437
1.32436
1.29317
1.29316
1.29316
1.29315
1.29312
1.2931
1.29308
1.29305
1.29302
1.293
1.29298
1.29296
1.29296
1.29295
1.29294
1.29293
1.29294
1.29293
1.29293
1.29292
1.29293
1.29293
1.29293
1.29293
1.29294
1.29293
1.29294
1.29294
1.29294
1.29294
1.29295
1.29295
1.29295
1.29295
1.29296
1.29296
1.29296
1.29296
1.29297
1.29297
1.29297
1.29298
1.29298
1.29298
1.29299
1.293
1.293
1.293
1.29302
1.29302
1.29302
1.29302
1.29304
1.29304
1.29304
1.29304
1.29306
1.29306
1.29306
1.29306
1.29307
1.29308
1.29308
1.29308
1.29309
1.29309
1.29309
1.29309
1.2931
1.2931
1.2931
1.2931
1.2931
1.2931
1.2931
1.2931
1.29311
1.29311
1.2931
1.2931
1.29311
1.29311
1.29311
1.2931
1.29311
1.29311
1.2931
1.2931
1.29311
1.2931
1.2931
1.2931
1.2931
1.2931
1.2931
1.2931
702.826
191.784
179.372
118.431
17.3293
30.5574
618.609
264.664
125.452
672.262
721.143
721.023
418.389
331.733
718.448
891.423
851.422
689.15
640.397
671.646
216.31
171.164
167.917
17.329
218.258
619.863
200.089
57.5904
381.287
665.3
492.053
423.61
500.401
507.156
399.98
194.862
106.358
99.8358
626.194
427.423
820.337
798.851
655.489
823.244
606.474
54.9375
54.9371
216.109
199.479
22.512
1.30265
1.30267
1.30268
1.30276
1.30287
1.30292
1.60811
610.246
666.38
820.337
791.197
790.898
804.344
762.481
256.204
56.7185
78.4204
149.091
71.1416
5.35911
1.48025
1.32877
1.30448
1.30289
1.34018
1.37971
386.327
241.934
163.803
67.5364
105.489
141.746
260.768
538.052
539.609
533.229
329.109
93.9168
22.333
16.344
5.18686
1.66142
1.37533
1.40043
1.37777
51.3939
2.0933
5.2027
1.2931
1.29329
1.29354
1.29357
1.29357
56.5724
1.29348
1.29346
7.65007
33.4076
33.5984
27.6826
4.28582
1.69676
1.39236
1.37774
4.04643
2.09333
8.04386
26.386
23.7047
1.92206
1.30257
1.29381
1.29381
1.30156
1.29346
1.29346
6.50636
26.7417
29.094
15.5777
1.67992
1.36362
1.35433
2.20963
4.60068
21.9109
95.4591
55.0681
1.31085
1.3109
1.39952
1.39952
1.32142
1.29345
1.29348
1.29347
1.29345
12.7125
8.72239
1.57659
1.36548
1.31635
49.3491
67.0865
100.162
100.164
52.5995
1.49058
1.30883
1.31256
1.29968
1.29345
1.29346
1.29355
1.29354
1.29352
1.29349
1.92614
1.41001
1.33449
1.29323
61.5314
72.6009
79.1275
55.7546
13.9127
1.57207
1.29349
1.29446
1.29345
1.29345
1.29346
1.29332
1.29354
1.29366
1.29638
1.30191
1.31254
1.29825
1.29322
22.5489
1.29396
1.29387
1.294
1.29428
1.34837
1.29347
1.29348
1.29352
1.29356
1.29353
1.29318
1.29319
1.2932
1.29321
1.29321
1.29321
1.29324
1.29322
47.2583
8.84965
2.08953
1.55431
1.29432
1.29432
1.2944
1.29495
1.29467
1.29349
1.29323
1.29316
1.2932
1.29324
1.29326
1.29324
1.29321
1.29321
1.29324
2.86572
12.5611
11.8882
1.29552
1.29562
1.29488
1.29353
1.29429
1.29418
1.29363
1.29313
1.29314
1.29324
1.29336
1.29338
1.29326
1.29321
1.29321
1.29344
2.86456
8.46449
8.25007
1.29558
1.29918
1.3116
1.29323
1.29322
1.29307
1.29326
1.29312
1.29309
1.29315
1.29332
1.29337
1.29324
1.2932
1.29322
1.2935
1.29311
1.29309
1.8845
1.5023
1.29918
1.31159
1.29342
1.2932
1.29298
1.29296
1.29299
1.29301
1.29306
1.29312
1.29322
1.29321
1.29319
1.29329
1.2935
1.29342
1.30982
1.35144
1.40421
1.30865
1.2953
1.2935
1.293
1.29292
1.2929
1.29291
1.29294
1.29299
1.29305
1.29312
1.29316
1.29318
1.29335
1.29349
1.29479
1.29323
1.29399
1.29648
1.29902
1.29304
1.29302
1.29289
1.29288
1.29288
1.29287
1.29289
1.29306
1.29311
1.29308
1.29313
1.29317
1.29331
1.29336
1.30191
1.29312
1.29312
1.2931
1.29302
1.29293
1.29289
1.29287
1.29286
1.29289
1.29293
1.29291
1.29322
1.29348
1.29321
1.29311
1.29316
1.2932
1.2932
1.29313
1.29309
1.29304
1.29297
1.29292
1.29289
1.29288
1.29286
1.29285
1.29288
1.29311
1.29314
1.29319
1.2935
1.29357
1.29315
1.29314
1.29318
1.29319
1.29301
1.29296
1.29293
1.29291
1.29289
1.29288
1.29287
1.29286
1.29284
1.29284
1.29305
1.29328
1.29303
1.29312
1.29356
1.29328
1.29313
1.29317
1.29319
1.29294
1.29292
1.29291
1.2929
1.29289
1.29289
1.29289
1.29287
1.29285
1.29283
1.29286
1.29327
1.293
1.29303
1.29353
1.2934
1.29313
1.29316
1.29318
1.29292
1.29291
1.29291
1.29291
1.29291
1.29291
1.29291
1.2929
1.29287
1.29284
1.29281
1.29326
1.29455
1.29322
1.29326
1.2935
1.29315
1.29316
1.29318
1.29292
1.29292
1.29292
1.29293
1.29293
1.29294
1.29293
1.29292
1.2929
1.29286
1.29282
1.29293
1.29583
1.29671
1.29333
1.2935
1.29319
1.29317
1.29318
1.29293
1.29293
1.29294
1.29295
1.29295
1.29295
1.29295
1.29294
1.29292
1.29289
1.29284
1.2928
1.29408
1.29717
1.29607
1.29342
1.29321
1.29316
1.29321
1.29294
1.29295
1.29296
1.29297
1.29297
1.29297
1.29297
1.29296
1.29294
1.29291
1.29287
1.29281
1.29294
1.29625
1.2978
1.29324
1.29321
1.29317
1.29334
1.29296
1.29297
1.29297
1.29298
1.29298
1.29299
1.29298
1.29297
1.29296
1.29293
1.29289
1.29283
1.29277
1.29275
1.2974
1.29306
1.29323
1.2933
1.29334
1.29297
1.29298
1.29299
1.29299
1.293
1.293
1.29299
1.29299
1.29297
1.29295
1.29291
1.29285
1.29279
1.29291
1.29288
1.29298
1.29317
1.2933
1.29333
1.29298
1.29299
1.293
1.293
1.29301
1.29301
1.29301
1.293
1.29298
1.29296
1.29293
1.29288
1.2928
1.29301
1.29808
1.29617
1.2931
1.29323
1.29327
1.29299
1.293
1.29301
1.29301
1.29302
1.29302
1.29302
1.29301
1.29299
1.29297
1.29294
1.29289
1.29282
1.29277
1.30372
1.32216
1.29305
1.29311
1.29316
1.29301
1.29301
1.29302
1.29302
1.29303
1.29303
1.29302
1.29302
1.293
1.29298
1.29295
1.29291
1.29284
1.29278
1.29956
1.32278
1.29361
1.29308
1.29315
1.29303
1.29303
1.29303
1.29304
1.29304
1.29304
1.29303
1.29302
1.29301
1.29299
1.29296
1.29292
1.29286
1.29278
1.29374
1.31246
1.29572
1.29306
1.29324
1.29305
1.29305
1.29305
1.29305
1.29305
1.29304
1.29304
1.29303
1.29301
1.29299
1.29297
1.29293
1.29287
1.2928
1.29272
1.29269
1.29919
1.2933
1.29369
1.29306
1.29306
1.29306
1.29306
1.29305
1.29305
1.29304
1.29303
1.29302
1.293
1.29297
1.29293
1.29288
1.29281
1.29273
1.29277
1.31599
1.29434
1.2944
1.29308
1.29307
1.29307
1.29307
1.29306
1.29305
1.29305
1.29304
1.29302
1.293
1.29298
1.29294
1.29289
1.29282
1.29274
1.29273
1.32295
1.29666
1.29418
1.29309
1.29308
1.29308
1.29307
1.29306
1.29306
1.29305
1.29304
1.29302
1.293
1.29298
1.29294
1.29289
1.29283
1.29274
1.29267
1.32293
1.29941
1.29392
1.29309
1.29309
1.29308
1.29307
1.29307
1.29306
1.29305
1.29304
1.29302
1.29301
1.29298
1.29295
1.2929
1.29283
1.29275
1.29267
1.32291
1.3026
1.29364
1.2931
1.29309
1.29309
1.29308
1.29307
1.29306
1.29305
1.29304
1.29302
1.29301
1.29298
1.29295
1.2929
1.29284
1.29275
1.29267
1.32289
1.30442
1.29328
1.2931
1.29309
1.29309
1.29308
1.29307
1.29306
1.29305
1.29304
1.29302
1.29301
1.29298
1.29295
1.2929
1.29284
1.29276
1.29267
1.32055
1.30534
1.29326
1.2931
1.29309
1.29309
1.29308
1.29307
1.29306
1.29305
1.29304
1.29302
1.29301
1.29298
1.29295
1.2929
1.29284
1.29276
1.29267
1.29627
1.31288
1.29413
1.2931
1.29309
1.29308
1.29307
1.29306
1.29306
1.29305
1.29304
1.29302
1.293
1.29298
1.29295
1.2929
1.29284
1.29276
1.29267
1.29263
1.31285
1.29515
1.2931
1.29309
1.29308
1.29307
1.29306
1.29305
1.29305
1.29303
1.29302
1.293
1.29298
1.29295
1.2929
1.29283
1.29275
1.29266
1.29262
1.30002
1.29489
1.29309
1.29309
1.29308
1.29307
1.29306
1.29305
1.29304
1.29303
1.29302
1.293
1.29298
1.29294
1.2929
1.29283
1.29275
1.29266
1.29262
1.30258
1.29502
)
;

boundaryField
{
    leftWall
    {
        type            calculated;
        value           nonuniform List<scalar> 
50
(
1000.05
1000.05
1000.05
1000.05
1000.05
1000.05
1000.05
1000.05
1000.05
1000.05
1000.05
1000.02
999.017
984.053
936.509
908.303
916.734
932.766
932.764
825.364
218.9
3.39536
1.32899
1.31571
91.3158
173.326
173.344
173.343
96.8922
2.70316
1.308
1.29304
1.29299
1.293
1.29302
1.29303
1.29302
1.293
1.29299
1.29298
1.29297
1.29296
1.30106
1.35436
1.31175
1.29303
1.29304
1.29309
1.29311
1.29312
)
;
    }
    rightWall
    {
        type            calculated;
        value           nonuniform List<scalar> 
50
(
982.398
985.188
985.188
985.07
990.063
990.063
982.56
908.481
640.397
99.8358
1.60811
1.37971
1.37777
1.37774
1.35433
1.31635
1.29323
1.29322
1.29322
1.29324
1.29344
1.2935
1.2935
1.29349
1.29336
1.2932
1.29319
1.29319
1.29318
1.29318
1.29318
1.29321
1.29334
1.29334
1.29333
1.29327
1.29316
1.29315
1.29324
1.29369
1.2944
1.29418
1.29392
1.29364
1.29328
1.29326
1.29413
1.29515
1.29489
1.29502
)
;
    }
    lowerWall
    {
        type            calculated;
        value           nonuniform List<scalar> 
62
(
1000.05
1000.05
1000.05
1000.05
1000.05
1000.05
1000.05
1000.05
1000.05
1000.05
1000.05
1000.05
1000.05
1000.05
1000.05
1000.05
1000.05
1000.05
1000.05
1000.05
1000.05
1000.05
999.991
999.991
999.882
999.842
999.842
999.842
999.842
999.987
1000.05
996.229
996.224
883.471
746.191
771.856
771.856
564.57
47.4018
142.496
642.534
704.771
704.771
771.856
771.855
750.538
754.785
862.924
935.836
979.164
981.18
981.18
981.169
885.151
844.603
906.442
974.175
974.175
965.627
959.268
981.726
982.398
)
;
    }
    atmosphere
    {
        type            calculated;
        value           nonuniform List<scalar> 
46
(
1.29321
1.29321
1.29321
1.29321
1.29321
1.2932
1.29318
1.29326
1.29349
1.29338
1.29316
1.29313
1.29314
1.29316
1.29317
1.29319
1.29319
1.29319
1.2932
1.2932
1.2932
1.2932
1.2932
1.2932
1.2932
1.29319
1.29319
1.29319
1.29318
1.29317
1.29316
1.29315
1.29315
1.29314
1.29313
1.29311
1.29309
1.29307
1.29304
1.29299
1.29292
1.29284
1.29275
1.29271
1.30267
1.29511
)
;
    }
    defaultFaces
    {
        type            empty;
    }
}


// ************************************************************************* //
