/*--------------------------------*- C++ -*----------------------------------*\
| =========                 |                                                 |
| \\      /  F ield         | OpenFOAM: The Open Source CFD Toolbox           |
|  \\    /   O peration     | Version:  2012                                  |
|   \\  /    A nd           | Website:  www.openfoam.com                      |
|    \\/     M anipulation  |                                                 |
\*---------------------------------------------------------------------------*/
FoamFile
{
    version     2.0;
    format      ascii;
    class       volScalarField;
    location    "0.98";
    object      rho2;
}
// * * * * * * * * * * * * * * * * * * * * * * * * * * * * * * * * * * * * * //

dimensions      [1 -3 0 0 0 0 0];


internalField   nonuniform List<scalar> 
2268
(
1.30572
1.3057
1.30563
1.30559
1.30545
1.30542
1.30521
1.30517
1.30486
1.3048
1.30437
1.30429
1.30378
1.30373
1.30325
1.3033
1.30293
1.30313
1.30288
1.30306
1.30296
1.30311
1.30312
1.30498
1.30496
1.30488
1.30484
1.30471
1.30467
1.30447
1.30443
1.30413
1.30406
1.30363
1.30354
1.30303
1.30298
1.30249
1.30254
1.30217
1.30236
1.3021
1.30229
1.30219
1.30235
1.30237
1.30424
1.30422
1.30414
1.3041
1.30396
1.30392
1.30372
1.30369
1.30338
1.30331
1.30286
1.30278
1.30225
1.30221
1.3017
1.30176
1.30137
1.30163
1.30136
1.30155
1.30145
1.30162
1.30164
1.30351
1.30349
1.3034
1.30336
1.30322
1.30319
1.30299
1.30297
1.30267
1.30261
1.30215
1.30206
1.30151
1.30144
1.30093
1.30097
1.30058
1.30082
1.30052
1.30075
1.30064
1.30085
1.30087
1.30278
1.30275
1.30266
1.30261
1.30247
1.30244
1.30224
1.30224
1.30192
1.30186
1.30138
1.30129
1.3007
1.30065
1.30009
1.30016
1.29973
1.30014
1.29979
1.29999
1.29987
1.30011
1.30016
1.30207
1.30204
1.30194
1.30188
1.30174
1.30171
1.30153
1.30155
1.30125
1.30119
1.3007
1.30059
1.29996
1.29988
1.29931
1.29934
1.29893
1.29921
1.29883
1.29908
1.29898
1.29934
1.2994
1.30135
1.30131
1.3012
1.30114
1.30099
1.30097
1.30078
1.30082
1.30052
1.30046
1.29992
1.2998
1.29913
1.29907
1.2984
1.29843
1.29793
1.29859
1.298
1.29818
1.29807
1.29852
1.29868
1.30066
1.30061
1.30049
1.30041
1.30025
1.30023
1.30008
1.30015
1.29988
1.29984
1.29928
1.29914
1.29838
1.29826
1.29762
1.29756
1.29709
1.29748
1.29706
1.29725
1.29713
1.29777
1.29798
1.30372
1.29651
1.29663
1.2966
1.29837
1.29978
1.30166
1.30128
1.3
1.29974
1.29902
1.29955
1.29938
1.29748
1.29708
1.29707
1.29741
1.299
1.29995
1.30105
1.29527
1.29629
1.29599
1.29763
1.29876
1.30053
1.30031
1.29915
1.29892
1.29824
1.29868
1.29857
1.29659
1.29631
1.29632
1.29661
1.29814
1.29905
1.29682
1.29517
1.29603
1.29584
1.29706
1.2978
1.29944
1.29927
1.29818
1.29802
1.29748
1.29783
1.29722
1.29584
1.29585
1.29593
1.29615
1.29728
1.29821
1.29639
1.29507
1.29604
1.29563
1.29625
1.29698
1.29839
1.29823
1.29718
1.29707
1.29622
1.2965
1.2963
1.29509
1.29531
1.29564
1.29603
1.29687
1.2975
1.29644
1.29521
1.29585
1.29555
1.29585
1.29616
1.2974
1.29716
1.29618
1.29634
1.29617
1.29555
1.29524
1.29516
1.2954
1.29564
1.29596
1.29631
1.29679
1.29633
1.29514
1.29589
1.29554
1.29579
1.29576
1.29669
1.2963
1.29593
1.29634
1.29556
1.29545
1.29486
1.29442
1.29505
1.29522
1.29562
1.29579
1.29608
1.29634
1.29574
1.29578
1.29553
1.29573
1.29555
1.29617
1.296
1.29582
1.29614
1.29582
1.29517
1.29448
1.29458
1.29487
1.29507
1.29522
1.29526
1.29528
1.29619
1.29559
1.29594
1.29547
1.29569
1.29543
1.2959
1.29542
1.29579
1.29566
1.29514
1.29458
1.2944
1.29383
1.2946
1.29455
1.29481
1.29463
1.29454
1.29957
1.29951
1.29935
1.29923
1.29908
1.29905
1.2989
1.29904
1.2988
1.29874
1.29805
1.29782
1.29696
1.29693
1.29606
1.29602
1.2956
1.29757
1.29651
1.29665
1.29599
1.29634
1.29677
1.29819
1.29808
1.29785
1.29764
1.29746
1.29744
1.29741
1.29771
1.29752
1.29757
1.29681
1.29661
1.29544
1.29533
1.2952
1.29518
1.29528
1.29554
1.29587
1.29586
1.29536
1.2955
1.29563
1.29684
1.29662
1.29623
1.29593
1.29568
1.29558
1.29562
1.29616
1.29629
1.29633
1.29534
1.29513
1.29444
1.29477
1.29434
1.29491
1.29451
1.29586
1.2943
1.2944
1.29415
1.29412
1.29433
1.29559
1.29514
1.29463
1.29404
1.29381
1.29386
1.29405
1.29482
1.29511
1.29551
1.29508
1.29522
1.29404
1.29456
1.29402
1.29459
1.29435
1.29417
1.29319
1.29175
1.29114
1.29287
1.29302
1.29463
1.29408
1.29339
1.29328
1.29328
1.29329
1.29343
1.29402
1.29508
1.29509
1.29465
1.29472
1.29417
1.29401
1.2939
1.29403
1.29393
1.29353
1.29196
1.29061
1.29012
1.29127
1.29176
1.29423
1.2936
1.29324
1.29317
1.29311
1.29309
1.29306
1.29314
1.29356
1.29415
1.29391
1.2937
1.29323
1.29294
1.29318
1.29302
1.29335
1.29274
1.29214
1.29134
1.291
1.29165
1.292
1.29387
1.29331
1.29319
1.2931
1.29306
1.29298
1.29298
1.29299
1.29304
1.29324
1.29334
1.29324
1.2931
1.2929
1.2928
1.29291
1.29316
1.29315
1.29215
1.29217
1.29183
1.29225
1.29245
1.29357
1.29319
1.29311
1.29307
1.29297
1.29296
1.29296
1.29299
1.29313
1.29323
1.29324
1.2932
1.29307
1.29292
1.29289
1.29307
1.29318
1.29316
1.29287
1.29267
1.29267
1.29299
1.29276
1.29345
1.29312
1.29309
1.29306
1.29298
1.29297
1.29298
1.29306
1.29319
1.29321
1.29322
1.29319
1.29314
1.29302
1.29297
1.29315
1.29321
1.29319
1.29313
1.29289
1.29289
1.29292
1.29259
1.29337
1.2931
1.2931
1.29307
1.293
1.29297
1.29298
1.29307
1.29317
1.2932
1.29321
1.29321
1.29321
1.29317
1.29313
1.29319
1.29322
1.2932
1.29319
1.29309
1.293
1.29286
1.2926
1.29319
1.29307
1.29311
1.29311
1.29307
1.29303
1.29304
1.29306
1.29314
1.29318
1.29321
1.2932
1.29321
1.2932
1.2932
1.2932
1.29321
1.29319
1.29318
1.29314
1.29305
1.29292
1.29264
1.29327
1.29301
1.29311
1.29314
1.29315
1.29313
1.29316
1.29313
1.29318
1.29319
1.29321
1.2932
1.29321
1.2932
1.29321
1.2932
1.29321
1.29319
1.29318
1.29314
1.29307
1.29295
1.2929
1.29314
1.29296
1.29308
1.29315
1.29319
1.29319
1.29321
1.2932
1.29321
1.2932
1.29321
1.2932
1.29321
1.2932
1.29321
1.2932
1.2932
1.29319
1.29318
1.29315
1.29312
1.29308
1.29303
1.29306
1.29297
1.29309
1.29314
1.2932
1.29321
1.29322
1.29321
1.29321
1.2932
1.29321
1.2932
1.2932
1.2932
1.29321
1.2932
1.2932
1.29319
1.29318
1.29315
1.29313
1.29312
1.29311
1.29312
1.293
1.29308
1.29313
1.2932
1.29321
1.29321
1.2932
1.29321
1.2932
1.2932
1.29319
1.2932
1.2932
1.2932
1.2932
1.2932
1.29319
1.29318
1.29316
1.29314
1.29313
1.29314
1.29314
1.29302
1.29309
1.29313
1.29321
1.29321
1.29321
1.2932
1.2932
1.29319
1.2932
1.29319
1.2932
1.29319
1.2932
1.29319
1.2932
1.29319
1.29319
1.29316
1.29315
1.29314
1.29314
1.29308
1.29302
1.29309
1.29313
1.29321
1.2932
1.2932
1.29319
1.2932
1.29319
1.2932
1.29319
1.2932
1.29319
1.2932
1.29319
1.29319
1.29319
1.29319
1.29318
1.29316
1.29314
1.29314
1.29309
1.29302
1.29311
1.29314
1.29321
1.2932
1.2932
1.29319
1.2932
1.29319
1.29319
1.29319
1.29319
1.29319
1.29319
1.29319
1.29319
1.29319
1.29319
1.29318
1.29318
1.29316
1.29315
1.293
1.29302
1.29312
1.29316
1.29321
1.29319
1.2932
1.29318
1.29319
1.29319
1.29319
1.29319
1.29319
1.29319
1.29319
1.29318
1.29318
1.29318
1.29318
1.29318
1.29318
1.29318
1.29317
1.29291
1.29302
1.29313
1.29317
1.29321
1.29318
1.29319
1.29318
1.29319
1.29318
1.29319
1.29318
1.29319
1.29318
1.29318
1.29318
1.29317
1.29316
1.29316
1.29316
1.29315
1.29315
1.29314
1.29284
1.29301
1.29314
1.29318
1.2932
1.29318
1.29319
1.29318
1.29319
1.29318
1.29319
1.29318
1.29318
1.29318
1.29318
1.29317
1.29315
1.29314
1.29313
1.29312
1.29311
1.2931
1.29307
1.29281
1.29301
1.29315
1.29318
1.29319
1.29318
1.29319
1.29318
1.29318
1.29318
1.29318
1.29318
1.29318
1.29317
1.29317
1.29315
1.29313
1.29312
1.2931
1.29309
1.29307
1.29303
1.29299
1.29288
1.29304
1.29316
1.29317
1.29318
1.29317
1.29318
1.29317
1.29318
1.29318
1.29318
1.29317
1.29317
1.29316
1.29315
1.29313
1.29311
1.29309
1.29307
1.29304
1.29302
1.29298
1.29296
1.29294
1.29308
1.29316
1.29316
1.29317
1.29317
1.29318
1.29317
1.29318
1.29317
1.29317
1.29317
1.29316
1.29315
1.29313
1.29311
1.29309
1.29306
1.29304
1.29301
1.29298
1.29296
1.29294
1.29298
1.29311
1.29316
1.29315
1.29316
1.29317
1.29317
1.29317
1.29317
1.29317
1.29317
1.29316
1.29315
1.29313
1.29311
1.29308
1.29306
1.29303
1.29301
1.29299
1.29297
1.29295
1.29294
1.293
1.29312
1.29314
1.29313
1.29315
1.29316
1.29317
1.29317
1.29317
1.29316
1.29316
1.29315
1.29314
1.29311
1.29309
1.29306
1.29304
1.29301
1.29299
1.29298
1.29296
1.29295
1.29294
1.29301
1.29311
1.29312
1.29311
1.29313
1.29315
1.29316
1.29316
1.29316
1.29316
1.29316
1.29314
1.29312
1.29309
1.29307
1.29304
1.29302
1.293
1.29299
1.29297
1.29296
1.29295
1.29295
1.29302
1.2931
1.2931
1.29308
1.2931
1.29313
1.29315
1.29316
1.29316
1.29315
1.29315
1.29313
1.2931
1.29308
1.29305
1.29303
1.29301
1.29299
1.29298
1.29297
1.29296
1.29296
1.29296
1.29301
1.29309
1.29308
1.29306
1.29307
1.29311
1.29315
1.29315
1.29315
1.29315
1.29314
1.29312
1.29309
1.29306
1.29304
1.29302
1.293
1.29299
1.29298
1.29297
1.29297
1.29297
1.29297
1.293
1.29308
1.29307
1.29305
1.29305
1.29309
1.29314
1.29315
1.29315
1.29314
1.29313
1.2931
1.29308
1.29305
1.29303
1.29301
1.293
1.29299
1.29299
1.29298
1.29298
1.29298
1.29299
1.29298
1.29307
1.29307
1.29305
1.29304
1.29307
1.29313
1.29315
1.29315
1.29314
1.29312
1.29309
1.29306
1.29304
1.29302
1.29301
1.293
1.293
1.293
1.293
1.293
1.29301
1.29301
1.29297
1.29305
1.29307
1.29306
1.29304
1.29307
1.29313
1.29314
1.29314
1.29313
1.29311
1.29308
1.29305
1.29303
1.29302
1.29301
1.29301
1.29301
1.29301
1.29302
1.29302
1.29303
1.29303
1.29296
1.29303
1.29306
1.29306
1.29304
1.29307
1.29313
1.29314
1.29314
1.29313
1.2931
1.29307
1.29305
1.29303
1.29302
1.29302
1.29302
1.29302
1.29303
1.29304
1.29304
1.29305
1.29305
1.29296
1.293
1.29305
1.29304
1.29304
1.29308
1.29313
1.29314
1.29314
1.29312
1.29309
1.29306
1.29304
1.29303
1.29302
1.29302
1.29303
1.29304
1.29304
1.29305
1.29306
1.29307
1.29307
1.29296
1.29299
1.29302
1.29303
1.29305
1.2931
1.29313
1.29314
1.29313
1.29311
1.29308
1.29305
1.29303
1.29303
1.29303
1.29303
1.29304
1.29305
1.29306
1.29307
1.29307
1.29308
1.29308
1.29296
1.29298
1.29301
1.29303
1.29306
1.29312
1.29314
1.29314
1.29313
1.2931
1.29307
1.29305
1.29303
1.29303
1.29303
1.29304
1.29305
1.29306
1.29307
1.29308
1.29309
1.29309
1.29309
1.29297
1.29298
1.29301
1.29304
1.29309
1.29313
1.29314
1.29313
1.29311
1.29308
1.29306
1.29304
1.29303
1.29303
1.29304
1.29305
1.29306
1.29307
1.29308
1.29309
1.2931
1.2931
1.2931
1.29299
1.293
1.29303
1.29307
1.29312
1.29313
1.29313
1.29313
1.2931
1.29307
1.29305
1.29304
1.29303
1.29303
1.29304
1.29306
1.29307
1.29308
1.29309
1.2931
1.2931
1.29311
1.29311
1.29304
1.29304
1.29307
1.29311
1.29313
1.29313
1.29313
1.29311
1.29309
1.29306
1.29304
1.29303
1.29303
1.29304
1.29305
1.29307
1.29308
1.29309
1.2931
1.2931
1.29311
1.29311
1.29311
1.29309
1.29309
1.29311
1.29312
1.29313
1.29313
1.29312
1.2931
1.29307
1.29305
1.29304
1.29303
1.29303
1.29305
1.29306
1.29308
1.29309
1.2931
1.2931
1.29311
1.29311
1.29311
1.29311
1.29311
1.29312
1.29312
1.29312
1.29312
1.29312
1.29311
1.29309
1.29306
1.29304
1.29303
1.29303
1.29304
1.29305
1.29307
1.29308
1.29309
1.2931
1.2931
1.29311
1.29311
1.29311
1.29311
1.29312
1.29312
1.29312
1.29312
1.29312
1.29311
1.29309
1.29307
1.29305
1.29304
1.29303
1.29303
1.29305
1.29307
1.29308
1.29309
1.2931
1.2931
1.2931
1.2931
1.2931
1.2931
1.2931
1.29678
1.29679
1.29674
1.29602
1.29589
1.29571
1.29552
1.29518
1.29471
1.29422
1.29423
1.29421
1.29324
1.29318
1.29339
1.29335
1.29228
1.29247
1.29259
1.29279
1.2923
1.29242
1.29264
1.29278
1.29262
1.29272
1.29276
1.29278
1.29272
1.29274
1.29275
1.29276
1.29269
1.29269
1.2927
1.29271
1.29264
1.29263
1.29264
1.29262
1.29249
1.29254
1.29254
1.29255
1.2928
1.29278
1.2928
1.2928
1.293
1.293
1.293
1.29298
1.2931
1.2931
1.29309
1.29308
1.29314
1.29314
1.29313
1.29312
1.29314
1.29313
1.29313
1.29312
1.29313
1.29313
1.29313
1.29312
1.29314
1.29314
1.29313
1.29313
1.29317
1.29316
1.29316
1.29315
1.29312
1.2931
1.29307
1.29305
1.29302
1.293
1.29298
1.29296
1.29296
1.29295
1.29294
1.29293
1.29294
1.29293
1.29293
1.29292
1.29293
1.29293
1.29293
1.29293
1.29294
1.29293
1.29294
1.29294
1.29294
1.29294
1.29295
1.29295
1.29295
1.29295
1.29296
1.29296
1.29296
1.29296
1.29297
1.29297
1.29297
1.29298
1.29298
1.29298
1.29299
1.293
1.293
1.293
1.29302
1.29302
1.29302
1.29302
1.29304
1.29304
1.29304
1.29304
1.29306
1.29306
1.29306
1.29306
1.29307
1.29308
1.29308
1.29308
1.29309
1.29309
1.29309
1.29309
1.2931
1.2931
1.2931
1.2931
1.2931
1.2931
1.2931
1.2931
1.29311
1.29311
1.2931
1.2931
1.29311
1.29311
1.29311
1.2931
1.29311
1.29311
1.2931
1.2931
1.29311
1.2931
1.2931
1.2931
1.2931
1.2931
1.2931
1.2931
1.29601
1.29628
1.29567
1.29544
1.29562
1.29548
1.29578
1.29548
1.29494
1.29476
1.29439
1.29422
1.29381
1.29442
1.29401
1.29405
1.29391
1.29374
1.29377
1.29551
1.29536
1.29569
1.29521
1.2956
1.29534
1.29493
1.29418
1.29374
1.2934
1.29362
1.29335
1.29316
1.29316
1.29315
1.29318
1.29319
1.29322
1.29331
1.29518
1.29539
1.29503
1.29471
1.29525
1.2948
1.29394
1.29404
1.29361
1.29339
1.29295
1.29297
1.29296
1.29299
1.293
1.29307
1.29318
1.29323
1.29328
1.29392
1.29376
1.29387
1.29359
1.29381
1.29376
1.29365
1.29378
1.29372
1.29334
1.29307
1.293
1.29297
1.29295
1.29298
1.29306
1.2932
1.29329
1.2933
1.293
1.29312
1.29306
1.29305
1.29322
1.2932
1.29323
1.29335
1.29337
1.29328
1.29324
1.29304
1.293
1.29293
1.29291
1.293
1.29318
1.29328
1.29328
1.29282
1.29284
1.29274
1.29271
1.2929
1.29315
1.29318
1.29317
1.29317
1.29314
1.29312
1.2931
1.29308
1.29302
1.29295
1.29302
1.2932
1.29325
1.29325
1.29278
1.29273
1.29259
1.29258
1.29279
1.29313
1.29316
1.29316
1.29317
1.29315
1.29313
1.29314
1.29314
1.29311
1.29303
1.29298
1.29314
1.29321
1.29324
1.29274
1.29273
1.29262
1.29255
1.29271
1.29313
1.29318
1.29317
1.29316
1.29317
1.29317
1.29316
1.29315
1.29313
1.29308
1.293
1.29312
1.2932
1.29323
1.29269
1.29258
1.29257
1.29256
1.29266
1.29306
1.29317
1.29316
1.29317
1.29316
1.29317
1.29316
1.29316
1.29315
1.29312
1.29308
1.29314
1.2932
1.29323
1.29265
1.29272
1.29271
1.29264
1.29276
1.29303
1.29316
1.29316
1.29316
1.29316
1.29317
1.29318
1.29319
1.29319
1.29319
1.29318
1.29318
1.29322
1.29322
1.2927
1.29277
1.29269
1.29281
1.29309
1.29312
1.29315
1.29314
1.29314
1.29315
1.29316
1.29317
1.29318
1.2932
1.2932
1.29321
1.29321
1.29322
1.29322
1.29289
1.29276
1.29269
1.29297
1.29313
1.29313
1.29312
1.29312
1.29313
1.29313
1.29314
1.29315
1.29317
1.29318
1.2932
1.29321
1.29321
1.29321
1.29321
1.29293
1.29276
1.29274
1.29302
1.29312
1.29312
1.29311
1.29311
1.29311
1.29311
1.29312
1.29313
1.29315
1.29317
1.29318
1.2932
1.2932
1.29321
1.29321
1.29306
1.293
1.29297
1.29308
1.29312
1.29311
1.2931
1.29309
1.29307
1.29304
1.29306
1.29309
1.29312
1.29315
1.29317
1.29319
1.2932
1.2932
1.29321
1.29311
1.29309
1.29308
1.2931
1.29311
1.29311
1.29309
1.29302
1.29298
1.29296
1.29297
1.293
1.29305
1.29311
1.29316
1.29318
1.29319
1.2932
1.2932
1.29311
1.2931
1.2931
1.2931
1.29311
1.2931
1.29303
1.29294
1.29292
1.2929
1.29291
1.29293
1.29299
1.29305
1.29312
1.29316
1.29318
1.29319
1.2932
1.29312
1.29311
1.29311
1.29311
1.2931
1.29304
1.29294
1.29289
1.29288
1.29287
1.29287
1.29288
1.29294
1.293
1.29307
1.29313
1.29317
1.29319
1.2932
1.29313
1.29312
1.29311
1.29309
1.29302
1.29293
1.29289
1.29287
1.29286
1.29285
1.29284
1.29285
1.29289
1.29297
1.29304
1.2931
1.29316
1.29318
1.29319
1.29313
1.29309
1.29303
1.29297
1.29292
1.29289
1.29288
1.29286
1.29285
1.29283
1.29283
1.29283
1.29286
1.29293
1.29301
1.29308
1.29314
1.29318
1.29319
1.29301
1.29296
1.29293
1.29291
1.29289
1.29288
1.29287
1.29286
1.29284
1.29283
1.29281
1.29281
1.29283
1.29289
1.29299
1.29307
1.29313
1.29317
1.29318
1.29294
1.29292
1.29291
1.2929
1.29289
1.29289
1.29289
1.29287
1.29285
1.29283
1.29281
1.2928
1.2928
1.29285
1.29296
1.29305
1.29312
1.29316
1.29318
1.29292
1.29291
1.29291
1.29291
1.29291
1.29291
1.29291
1.2929
1.29287
1.29284
1.29281
1.29279
1.29279
1.29281
1.29293
1.29304
1.29311
1.29316
1.29318
1.29292
1.29292
1.29292
1.29293
1.29293
1.29294
1.29293
1.29292
1.2929
1.29286
1.29282
1.29279
1.29278
1.29279
1.29288
1.29302
1.2931
1.29315
1.29317
1.29293
1.29293
1.29294
1.29295
1.29295
1.29295
1.29295
1.29294
1.29292
1.29289
1.29284
1.29279
1.29277
1.29277
1.29283
1.29299
1.2931
1.29315
1.29317
1.29294
1.29295
1.29296
1.29297
1.29297
1.29297
1.29297
1.29296
1.29294
1.29291
1.29287
1.29281
1.29277
1.29276
1.29278
1.29295
1.29308
1.29314
1.29317
1.29296
1.29297
1.29297
1.29298
1.29298
1.29299
1.29298
1.29297
1.29296
1.29293
1.29289
1.29283
1.29277
1.29275
1.29275
1.29289
1.29306
1.29314
1.29316
1.29297
1.29298
1.29299
1.29299
1.293
1.293
1.29299
1.29299
1.29297
1.29295
1.29291
1.29285
1.29279
1.29274
1.29273
1.29283
1.29303
1.29313
1.29316
1.29298
1.29299
1.293
1.293
1.29301
1.29301
1.29301
1.293
1.29298
1.29296
1.29293
1.29288
1.2928
1.29274
1.29272
1.29278
1.29299
1.29311
1.29315
1.29299
1.293
1.29301
1.29301
1.29302
1.29302
1.29302
1.29301
1.29299
1.29297
1.29294
1.29289
1.29282
1.29275
1.29272
1.29275
1.29294
1.2931
1.29315
1.29301
1.29301
1.29302
1.29302
1.29303
1.29303
1.29302
1.29302
1.293
1.29298
1.29295
1.29291
1.29284
1.29277
1.29271
1.29272
1.29288
1.29308
1.29314
1.29303
1.29303
1.29303
1.29304
1.29304
1.29304
1.29303
1.29302
1.29301
1.29299
1.29296
1.29292
1.29286
1.29278
1.29271
1.2927
1.29283
1.29305
1.29314
1.29305
1.29305
1.29305
1.29305
1.29305
1.29304
1.29304
1.29303
1.29301
1.29299
1.29297
1.29293
1.29287
1.2928
1.29272
1.29269
1.29279
1.29301
1.29313
1.29306
1.29306
1.29306
1.29306
1.29305
1.29305
1.29304
1.29303
1.29302
1.293
1.29297
1.29293
1.29288
1.29281
1.29273
1.29268
1.29275
1.29297
1.29312
1.29308
1.29307
1.29307
1.29307
1.29306
1.29305
1.29305
1.29304
1.29302
1.293
1.29298
1.29294
1.29289
1.29282
1.29274
1.29267
1.29272
1.29293
1.29311
1.29309
1.29308
1.29308
1.29307
1.29306
1.29306
1.29305
1.29304
1.29302
1.293
1.29298
1.29294
1.29289
1.29283
1.29274
1.29267
1.2927
1.29288
1.29309
1.29309
1.29309
1.29308
1.29307
1.29307
1.29306
1.29305
1.29304
1.29302
1.29301
1.29298
1.29295
1.2929
1.29283
1.29275
1.29267
1.29268
1.29284
1.29308
1.2931
1.29309
1.29309
1.29308
1.29307
1.29306
1.29305
1.29304
1.29302
1.29301
1.29298
1.29295
1.2929
1.29284
1.29275
1.29267
1.29267
1.29281
1.29306
1.2931
1.29309
1.29309
1.29308
1.29307
1.29306
1.29305
1.29304
1.29302
1.29301
1.29298
1.29295
1.2929
1.29284
1.29276
1.29267
1.29265
1.29278
1.29304
1.2931
1.29309
1.29309
1.29308
1.29307
1.29306
1.29305
1.29304
1.29302
1.29301
1.29298
1.29295
1.2929
1.29284
1.29276
1.29267
1.29264
1.29274
1.29301
1.2931
1.29309
1.29308
1.29307
1.29306
1.29306
1.29305
1.29304
1.29302
1.293
1.29298
1.29295
1.2929
1.29284
1.29276
1.29267
1.29263
1.29272
1.29299
1.2931
1.29309
1.29308
1.29307
1.29306
1.29305
1.29305
1.29303
1.29302
1.293
1.29298
1.29295
1.2929
1.29283
1.29275
1.29266
1.29262
1.29269
1.29296
1.29309
1.29309
1.29308
1.29307
1.29306
1.29305
1.29304
1.29303
1.29302
1.293
1.29298
1.29294
1.2929
1.29283
1.29275
1.29266
1.29262
1.29267
1.29294
)
;

boundaryField
{
    leftWall
    {
        type            calculated;
        value           nonuniform List<scalar> 
50
(
1.30572
1.30498
1.30424
1.30351
1.30278
1.30207
1.30135
1.30066
1.29957
1.29819
1.29684
1.29559
1.29463
1.29423
1.29387
1.29357
1.29345
1.29337
1.29319
1.29327
1.29314
1.29306
1.29312
1.29314
1.29308
1.29309
1.293
1.29291
1.29284
1.29281
1.29288
1.29294
1.29298
1.293
1.29301
1.29302
1.29301
1.293
1.29298
1.29297
1.29296
1.29296
1.29296
1.29296
1.29297
1.29299
1.29304
1.29309
1.29311
1.29312
)
;
    }
    rightWall
    {
        type            calculated;
        value           nonuniform List<scalar> 
50
(
1.29995
1.29905
1.29821
1.2975
1.29679
1.29608
1.29528
1.29454
1.29377
1.29331
1.29328
1.2933
1.29328
1.29325
1.29324
1.29323
1.29323
1.29322
1.29322
1.29321
1.29321
1.29321
1.2932
1.2932
1.2932
1.29319
1.29319
1.29318
1.29318
1.29318
1.29317
1.29317
1.29317
1.29316
1.29316
1.29315
1.29315
1.29314
1.29314
1.29313
1.29312
1.29311
1.29309
1.29308
1.29306
1.29304
1.29301
1.29299
1.29296
1.29294
)
;
    }
    lowerWall
    {
        type            calculated;
        value           nonuniform List<scalar> 
62
(
1.3061
1.30608
1.306
1.30597
1.30583
1.30579
1.30559
1.30555
1.30524
1.30517
1.30474
1.30466
1.30416
1.30411
1.30363
1.30368
1.30331
1.3035
1.30326
1.30343
1.30334
1.30349
1.3035
1.30312
1.30237
1.30164
1.30087
1.30016
1.2994
1.29868
1.29798
1.29758
1.29759
1.29744
1.29662
1.30372
1.30105
1.29682
1.29639
1.29644
1.29633
1.29634
1.29619
1.30401
1.2968
1.29691
1.29688
1.29869
1.30013
1.30203
1.30165
1.30037
1.30011
1.29936
1.29987
1.29972
1.29785
1.29744
1.29743
1.29777
1.29936
1.30032
)
;
    }
    atmosphere
    {
        type            calculated;
        value           nonuniform List<scalar> 
46
(
1.29321
1.29321
1.29321
1.29321
1.29321
1.2932
1.29318
1.29316
1.29314
1.29313
1.29313
1.29313
1.29314
1.29316
1.29317
1.29319
1.29319
1.29319
1.2932
1.2932
1.2932
1.2932
1.2932
1.2932
1.2932
1.29319
1.29319
1.29319
1.29318
1.29317
1.29316
1.29315
1.29315
1.29314
1.29313
1.29311
1.29309
1.29307
1.29304
1.29299
1.29292
1.29284
1.29275
1.29271
1.29276
1.29303
)
;
    }
    defaultFaces
    {
        type            empty;
    }
}


// ************************************************************************* //
