/*--------------------------------*- C++ -*----------------------------------*\
| =========                 |                                                 |
| \\      /  F ield         | OpenFOAM: The Open Source CFD Toolbox           |
|  \\    /   O peration     | Version:  2012                                  |
|   \\  /    A nd           | Website:  www.openfoam.com                      |
|    \\/     M anipulation  |                                                 |
\*---------------------------------------------------------------------------*/
FoamFile
{
    version     2.0;
    format      ascii;
    class       volVectorField;
    location    "0.98";
    object      U;
}
// * * * * * * * * * * * * * * * * * * * * * * * * * * * * * * * * * * * * * //

dimensions      [0 1 -1 0 0 0 0];


internalField   nonuniform List<vector> 
2268
(
(0.0030533 -0.00101072 0)
(0.00562105 -0.00086794 0)
(0.00760089 -8.23214e-05 0)
(0.00334397 0.000112429 0)
(-0.00287286 0.000403524 0)
(-0.0126717 0.000671417 0)
(-0.0240764 0.00143639 0)
(-0.0320117 0.000521093 0)
(-0.0375274 -4.34531e-05 0)
(-0.0329984 -0.00198505 0)
(-0.024941 -0.0034643 0)
(-0.00908738 -0.00515164 0)
(0.00588756 -0.0051589 0)
(0.0240583 -0.00534892 0)
(0.037582 -0.00447063 0)
(0.0515503 -0.00492471 0)
(0.0644968 -0.00389268 0)
(0.0733001 -0.00309507 0)
(0.0818693 -0.000931313 0)
(0.0813065 -0.00123925 0)
(0.0746486 -0.000652736 0)
(0.0409764 -0.00195754 0)
(0.0267975 0.00750097 0)
(0.0034607 -0.00307221 0)
(0.00603884 -0.001306 0)
(0.00793652 0.00121972 0)
(0.00407466 0.00476556 0)
(-0.0018961 0.00727991 0)
(-0.011838 0.00921067 0)
(-0.0242629 0.00790112 0)
(-0.0328854 0.00562936 0)
(-0.0389149 0.00080272 0)
(-0.0346019 -0.00424544 0)
(-0.0259179 -0.00744493 0)
(-0.00967625 -0.00977848 0)
(0.0055935 -0.0100552 0)
(0.0246592 -0.0100546 0)
(0.0383502 -0.00804929 0)
(0.0533516 -0.0082478 0)
(0.0657878 -0.00590652 0)
(0.0760067 -0.00562012 0)
(0.0846472 -0.00255998 0)
(0.08303 0.00432679 0)
(0.0750976 0.0198674 0)
(0.0440608 0.0244131 0)
(0.0220978 0.0245193 0)
(0.00328109 -0.00550979 0)
(0.00695695 -0.00304298 0)
(0.0101133 0.000887397 0)
(0.00570526 0.00465563 0)
(-0.00128391 0.00802412 0)
(-0.0128274 0.0110875 0)
(-0.026403 0.0115196 0)
(-0.0360325 0.00716893 0)
(-0.0420422 0.000942675 0)
(-0.0367311 -0.0085228 0)
(-0.0280842 -0.0150256 0)
(-0.0106782 -0.0205164 0)
(0.00541696 -0.0210713 0)
(0.0258068 -0.0212997 0)
(0.0395957 -0.0176472 0)
(0.0558854 -0.0183576 0)
(0.0663235 -0.0141677 0)
(0.076878 -0.0122583 0)
(0.0867652 -0.00363564 0)
(0.0891625 0.00309057 0)
(0.0824828 0.0181449 0)
(0.0513851 0.0230739 0)
(0.0219689 0.0389097 0)
(0.00444069 -0.00786882 0)
(0.00937522 -0.00452626 0)
(0.013204 0.00189265 0)
(0.00969255 0.0101112 0)
(0.00214149 0.0161694 0)
(-0.0105845 0.0209559 0)
(-0.0268752 0.0191333 0)
(-0.0387921 0.0128785 0)
(-0.0464462 0.0015492 0)
(-0.0416968 -0.011022 0)
(-0.0322477 -0.019174 0)
(-0.0131307 -0.0258742 0)
(0.00468355 -0.0266815 0)
(0.0267398 -0.0266116 0)
(0.0403053 -0.0216593 0)
(0.0581461 -0.0213436 0)
(0.0692523 -0.0152013 0)
(0.0829542 -0.0161565 0)
(0.0926098 -0.0083484 0)
(0.0963663 0.00586108 0)
(0.0905246 0.0377133 0)
(0.0568287 0.0527443 0)
(0.0163501 0.0590336 0)
(0.00424496 -0.0120728 0)
(0.0111032 -0.00727705 0)
(0.0165438 0.00076014 0)
(0.0119577 0.00974945 0)
(0.00332032 0.0176934 0)
(-0.0121087 0.0246291 0)
(-0.0306083 0.0249301 0)
(-0.0445186 0.0160618 0)
(-0.0529583 0.00238826 0)
(-0.0464567 -0.0157606 0)
(-0.0364687 -0.0284662 0)
(-0.0149914 -0.0385968 0)
(0.00439437 -0.0397202 0)
(0.0283407 -0.0386717 0)
(0.0439142 -0.0322206 0)
(0.0633806 -0.0325765 0)
(0.0710282 -0.0255734 0)
(0.0809135 -0.023198 0)
(0.0937898 -0.00899386 0)
(0.112989 0.00397985 0)
(0.109465 0.0373895 0)
(0.0737175 0.0580873 0)
(0.0293242 0.0737744 0)
(0.0070432 -0.015059 0)
(0.0150335 -0.0103019 0)
(0.0217439 0.00158828 0)
(0.0185116 0.0163489 0)
(0.00804309 0.0276924 0)
(-0.00888178 0.0368723 0)
(-0.0317949 0.0347931 0)
(-0.050283 0.0233558 0)
(-0.0617375 0.00299633 0)
(-0.0564404 -0.0189001 0)
(-0.0442471 -0.0332483 0)
(-0.0195075 -0.0453455 0)
(0.0034355 -0.0463457 0)
(0.0299276 -0.0457137 0)
(0.0456233 -0.0373804 0)
(0.06481 -0.0346089 0)
(0.0741724 -0.0224351 0)
(0.0857561 -0.0285711 0)
(0.0963363 -0.0236807 0)
(0.111324 -0.002252 0)
(0.110672 0.0562622 0)
(0.0711322 0.0904365 0)
(0.02163 0.10751 0)
(0.00746059 -0.0225593 0)
(0.0209439 -0.0143425 0)
(0.0302664 -0.0008746 0)
(0.0255152 0.0160678 0)
(0.014125 0.0307143 0)
(-0.00896043 0.0432714 0)
(-0.0368133 0.0445273 0)
(-0.058692 0.0297676 0)
(-0.0721628 0.00531257 0)
(-0.0643309 -0.0247085 0)
(-0.0503047 -0.0459981 0)
(-0.0227004 -0.0619763 0)
(0.00232752 -0.0629818 0)
(0.0326551 -0.0591904 0)
(0.0521788 -0.0486735 0)
(0.0701417 -0.0468054 0)
(0.0664983 -0.0355117 0)
(0.0635107 -0.0327591 0)
(0.0706165 -0.019721 0)
(0.0987485 -0.00282625 0)
(0.109139 0.0569675 0)
(0.071487 0.0998051 0)
(0.0304546 0.117804 0)
(0.00931534 -0.0284057 0)
(0.0212517 -0.021029 0)
(0.0351949 -0.000466522 0)
(0.0340906 0.0239816 0)
(0.019238 0.0441431 0)
(-0.00423233 0.0608324 0)
(-0.0386912 0.0587177 0)
(-0.0696252 0.0400286 0)
(-0.0877917 0.00625843 0)
(-0.0804535 -0.0292328 0)
(-0.061872 -0.051908 0)
(-0.0284326 -0.0702033 0)
(0.00289114 -0.0714602 0)
(0.0325639 -0.0698067 0)
(0.0424519 -0.0538319 0)
(0.0561526 -0.041629 0)
(0.0573371 -0.0173326 0)
(0.055135 -0.0340354 0)
(0.0283185 -0.0405541 0)
(0.0312159 -0.0215601 0)
(0.0589784 0.0694321 0)
(0.0419376 0.127816 0)
(0.027093 0.155756 0)
(-0.945709 0.31806 0)
(-1.2657 0.0399307 0)
(-1.43295 0.0142326 0)
(-1.29843 0.0086169 0)
(-1.11993 -0.0323222 0)
(-0.823888 -0.0808094 0)
(-0.442897 -0.0926656 0)
(-0.100328 -0.0668414 0)
(0.105082 -0.0394345 0)
(0.219322 -0.0327989 0)
(0.278082 0.0123241 0)
(0.198733 0.061119 0)
(-0.273236 0.107091 0)
(-0.548162 0.0743513 0)
(-0.667794 0.0285588 0)
(-0.679968 -0.0291688 0)
(-0.629224 -0.0699578 0)
(-0.40499 -0.0758678 0)
(-0.124707 -0.065127 0)
(-0.835727 0.618476 0)
(-0.901607 0.168197 0)
(-1.3525 -0.000536598 0)
(-0.987859 -0.142097 0)
(-0.77669 -0.170679 0)
(-0.579648 -0.206879 0)
(-0.345416 -0.216438 0)
(-0.0751551 -0.166643 0)
(0.0700119 -0.0959694 0)
(0.161042 -0.0415686 0)
(0.164058 -0.00307983 0)
(0.213721 0.172711 0)
(-0.138347 0.210218 0)
(-0.41132 0.0939889 0)
(-0.526013 0.0269025 0)
(-0.519709 0.0122461 0)
(-0.477929 -0.0466406 0)
(-0.222682 -0.139027 0)
(-0.0810485 -0.160598 0)
(-0.774407 1.04227 0)
(-0.323743 0.288085 0)
(-0.846331 0.0224861 0)
(-0.54836 -0.228228 0)
(-0.477061 -0.20732 0)
(-0.429378 -0.263164 0)
(-0.282473 -0.307438 0)
(-0.0595637 -0.24344 0)
(0.0448092 -0.139277 0)
(0.11923 -0.0732079 0)
(0.153918 -0.00832854 0)
(0.240097 0.190572 0)
(0.129669 0.370295 0)
(-0.121704 0.24081 0)
(-0.235075 0.075112 0)
(-0.306752 -0.0495122 0)
(-0.248401 -0.196095 0)
(-0.0379 -0.24606 0)
(0.00991196 -0.193969 0)
(-0.675626 1.05374 0)
(0.964891 0.251299 0)
(-0.731091 0.0664471 0)
(-0.358005 -0.285536 0)
(-0.383094 -0.223524 0)
(-0.371562 -0.288239 0)
(-0.247181 -0.374528 0)
(-0.0684262 -0.305978 0)
(0.0243105 -0.171178 0)
(0.0874993 -0.0885258 0)
(0.133201 -0.0562989 0)
(0.16009 0.181514 0)
(0.315052 0.365317 0)
(0.303725 0.24904 0)
(0.336377 0.103761 0)
(0.298095 0.0163986 0)
(0.181065 -0.158497 0)
(0.111522 -0.248147 0)
(0.0746874 -0.17238 0)
(0.150409 0.884188 0)
(0.554468 0.466497 0)
(-0.324582 0.44934 0)
(-0.21519 -0.382727 0)
(-0.448072 -0.20278 0)
(-0.347142 -0.321341 0)
(-0.233549 -0.437082 0)
(-0.10239 -0.359369 0)
(-0.0114328 -0.205834 0)
(-0.0123636 -0.121476 0)
(0.178822 -0.0320305 0)
(0.183139 0.113119 0)
(0.319059 0.307414 0)
(0.378899 0.235365 0)
(0.417103 0.0797968 0)
(0.369868 0.018441 0)
(0.335687 -0.115449 0)
(0.178928 -0.202153 0)
(0.0976361 -0.115007 0)
(0.183132 0.739709 0)
(0.450031 0.453689 0)
(0.387285 0.372255 0)
(0.887759 -0.0564333 0)
(-0.465977 -0.212089 0)
(-0.286127 -0.377715 0)
(-0.214466 -0.47907 0)
(-0.140118 -0.400894 0)
(-0.173294 -0.205897 0)
(-0.407353 -0.163179 0)
(-0.188177 -0.164372 0)
(0.249849 0.127672 0)
(0.398947 0.283892 0)
(0.425364 0.203753 0)
(0.402797 0.105576 0)
(0.332695 0.048801 0)
(0.299572 -0.078348 0)
(0.152321 -0.146388 0)
(0.0783816 -0.0546638 0)
(0.137541 0.614377 0)
(0.40179 0.391625 0)
(0.621154 0.176266 0)
(1.07749 0.0651528 0)
(-0.0249401 0.205163 0)
(-0.181659 -0.407806 0)
(-0.18309 -0.500841 0)
(-0.184097 -0.376444 0)
(-0.551984 -0.0898386 0)
(-0.630539 -0.135355 0)
(-0.543023 -0.265524 0)
(-0.459325 -0.149821 0)
(0.399157 0.229778 0)
(0.388027 0.241969 0)
(0.334728 0.119823 0)
(0.232033 0.0644033 0)
(0.218453 -0.0386428 0)
(0.0575074 -0.107901 0)
(0.0457438 -0.0171784 0)
(0.0210282 0.50888 0)
(0.329038 0.241335 0)
(0.549951 0.0741596 0)
(0.441521 0.254849 0)
(0.257503 0.289775 0)
(0.0523173 -0.303555 0)
(-0.116866 -0.479364 0)
(-0.224791 -0.24914 0)
(-0.690775 -0.00341757 0)
(-0.642234 -0.166079 0)
(-0.613863 -0.256462 0)
(-0.616401 -0.271479 0)
(-0.326392 -0.0687751 0)
(0.166041 0.210975 0)
(0.134466 0.171027 0)
(0.0934128 0.0968539 0)
(0.0911581 -0.00457452 0)
(0.00219682 -0.072964 0)
(-0.0194603 -0.0104453 0)
(0.0132749 -0.0419482 0)
(0.0390595 -0.0298818 0)
(0.0566117 -0.0105763 0)
(0.0510333 0.0231715 0)
(0.0345348 0.0515845 0)
(-0.00519007 0.0758703 0)
(-0.050878 0.0848473 0)
(-0.087777 0.0594128 0)
(-0.109079 0.012841 0)
(-0.092024 -0.0426225 0)
(-0.0682764 -0.0813809 0)
(-0.0312262 -0.107184 0)
(-0.00551804 -0.103315 0)
(0.017046 -0.0833222 0)
(0.0295746 -0.0640152 0)
(0.0513052 -0.0629328 0)
(-0.0245965 -0.0468649 0)
(-0.208417 -0.00397721 0)
(-0.154209 0.0129534 0)
(0.0924035 -0.0141278 0)
(0.0461794 0.0427549 0)
(0.0603607 0.106081 0)
(0.0682219 0.147024 0)
(0.0190588 -0.0760629 0)
(0.054639 -0.0613992 0)
(0.0977849 -0.00867821 0)
(0.0974359 0.046418 0)
(0.0667215 0.098263 0)
(0.0246861 0.141059 0)
(-0.0464921 0.133191 0)
(-0.124428 0.0912804 0)
(-0.167165 0.0090312 0)
(-0.162609 -0.0659041 0)
(-0.139561 -0.100564 0)
(-0.0751984 -0.12009 0)
(0.0105944 -0.106441 0)
(0.0540558 -0.102285 0)
(0.00390558 -0.0804147 0)
(-0.643833 0.0198708 0)
(-0.810109 0.297373 0)
(-0.486744 0.0141824 0)
(-0.143022 -0.351652 0)
(0.0442025 -0.23218 0)
(0.198161 0.116696 0)
(0.0916857 0.115155 0)
(0.0285326 0.104557 0)
(0.0219275 -0.116099 0)
(0.0754912 -0.109125 0)
(0.12054 -0.0536776 0)
(0.121007 0.0543331 0)
(0.0854708 0.124925 0)
(0.0618957 0.18929 0)
(-0.0132967 0.235106 0)
(-0.127912 0.179638 0)
(-0.241366 0.0521855 0)
(-0.263639 -0.0719434 0)
(-0.225217 -0.168768 0)
(-0.0394934 -0.263391 0)
(0.148514 -0.230578 0)
(0.464972 -0.0618947 0)
(-0.254611 0.609714 0)
(-1.33229 0.768762 0)
(-0.581836 -0.285449 0)
(-0.228277 -0.565585 0)
(-0.0713173 -0.526509 0)
(0.0129032 -0.362202 0)
(0.102006 -0.00147079 0)
(0.154392 0.268998 0)
(-0.0307326 0.165614 0)
(0.0226897 -0.174071 0)
(0.0683216 -0.160846 0)
(0.0584989 -0.05417 0)
(0.0637873 0.0812079 0)
(0.104829 0.156933 0)
(0.106486 0.239431 0)
(0.034055 0.324217 0)
(-0.126243 0.319979 0)
(-0.277347 0.14555 0)
(-0.386097 -0.0837325 0)
(-0.502885 -0.317964 0)
(-0.317007 -0.493272 0)
(-0.420193 -0.562898 0)
(0.014328 0.0996626 0)
(-0.952881 2.06148 0)
(-0.628544 0.0294927 0)
(-0.307331 -0.580068 0)
(-0.28202 -0.601578 0)
(-0.231654 -0.583211 0)
(-0.178177 -0.408436 0)
(-0.173507 -0.0258088 0)
(-0.136525 0.251082 0)
(-0.228555 0.335084 0)
(-0.0114612 -0.207815 0)
(-0.0606766 -0.144525 0)
(-0.110821 -0.0497962 0)
(-0.076168 0.00821213 0)
(-0.0804261 0.0840713 0)
(0.031315 0.261012 0)
(-0.119992 0.472147 0)
(-0.524497 0.491944 0)
(-0.733026 0.321146 0)
(-0.795819 0.154453 0)
(-0.703761 -0.226583 0)
(-0.684367 -0.401134 0)
(-0.692528 -0.491708 0)
(-0.740319 0.125035 0)
(-0.95408 2.1273 0)
(-0.51849 -0.297566 0)
(-0.510094 -0.59525 0)
(-0.507723 -0.638568 0)
(-0.480359 -0.632845 0)
(-0.504425 -0.419976 0)
(-0.553833 -0.0381703 0)
(-0.527907 0.318351 0)
(-0.574201 0.481629 0)
(-0.0690874 -0.101239 0)
(-0.215508 -0.0613311 0)
(-0.379265 -0.0360797 0)
(-0.551308 0.0526648 0)
(-0.538114 0.0435022 0)
(-0.391889 0.273977 0)
(-0.373523 0.865861 0)
(-1.05921 0.915462 0)
(-1.27197 0.395202 0)
(-1.04474 -0.125169 0)
(-0.877171 -0.423206 0)
(-0.771179 -0.505542 0)
(-0.717768 -0.51501 0)
(-0.98407 0.329309 0)
(-1.03035 1.3827 0)
(-0.681275 -0.419265 0)
(-0.665087 -0.588844 0)
(-0.659658 -0.633893 0)
(-0.667123 -0.584573 0)
(-0.743119 -0.333644 0)
(-0.81784 0.000755407 0)
(-0.78803 0.272646 0)
(-0.727167 0.435195 0)
(-0.11568 0.0775541 0)
(-0.238454 0.165952 0)
(-0.582345 0.288278 0)
(-0.855162 0.162638 0)
(-0.745268 -0.0725653 0)
(-1.09044 0.0894837 0)
(-1.08823 1.18019 0)
(-1.27585 1.42128 0)
(-1.0661 0.292985 0)
(-0.985907 -0.247594 0)
(-0.93693 -0.497265 0)
(-0.899798 -0.563282 0)
(-0.61507 -0.294969 0)
(-1.27594 0.664928 0)
(-0.938822 1.72518 0)
(-0.831263 -0.510993 0)
(-0.769473 -0.620577 0)
(-0.71644 -0.633907 0)
(-0.718209 -0.550567 0)
(-0.80009 -0.269093 0)
(-0.825833 0.00679417 0)
(-0.808586 0.225122 0)
(-0.763486 0.374492 0)
(-0.104733 0.253894 0)
(-0.207764 0.408635 0)
(-0.503783 0.570095 0)
(-1.04604 0.229355 0)
(-1.07227 0.271319 0)
(-1.80484 0.642532 0)
(-1.77274 1.05815 0)
(-1.13908 0.903272 0)
(-0.783516 0.157239 0)
(-0.834447 -0.242121 0)
(-0.770271 -0.512527 0)
(-0.946131 -0.825952 0)
(-0.938513 -0.0614901 0)
(-1.34604 0.590362 0)
(-0.736446 1.1604 0)
(-0.593399 -0.58631 0)
(-0.823584 -0.699548 0)
(-0.688057 -0.683288 0)
(-0.674846 -0.497015 0)
(-0.723501 -0.226894 0)
(-0.776166 0.0108099 0)
(-0.749544 0.209826 0)
(-0.725966 0.326779 0)
(-0.0773496 0.391155 0)
(-0.190292 0.536111 0)
(-0.269632 1.21498 0)
(-1.00145 0.668378 0)
(-1.14057 0.727648 0)
(-1.5489 0.745494 0)
(-1.38467 0.536053 0)
(-1.03226 0.392205 0)
(-0.88285 -0.0378201 0)
(-0.938754 -0.256442 0)
(-0.806685 -0.401656 0)
(-1.03116 -0.425031 0)
(-0.990407 0.0692566 0)
(-0.985651 0.469891 0)
(-0.558355 0.80283 0)
(-0.340308 -0.402792 0)
(-0.712396 -0.568779 0)
(-0.412847 -0.794021 0)
(-0.604961 -0.420526 0)
(-0.603208 -0.167389 0)
(-0.612891 0.0331902 0)
(-0.607856 0.172885 0)
(-0.580122 0.251528 0)
(-0.0831268 0.522295 0)
(-0.164645 0.590884 0)
(-0.144437 1.41463 0)
(-0.77747 1.08491 0)
(-0.807371 0.83324 0)
(-1.00054 0.880408 0)
(-0.926068 0.534778 0)
(-0.910224 0.387983 0)
(-0.83419 0.045207 0)
(-0.942498 -0.275369 0)
(-0.794377 -0.468384 0)
(-0.901848 -0.549444 0)
(-0.877444 -0.130292 0)
(-0.737023 0.173422 0)
(-0.446271 0.51886 0)
(-0.271106 -0.411588 0)
(-0.414202 -0.623011 0)
(-0.451213 -0.755642 0)
(-0.563912 -0.491548 0)
(-0.527939 -0.201301 0)
(-0.454291 0.0158565 0)
(-0.396474 0.174966 0)
(-0.338585 0.230107 0)
(-0.0624842 0.63956 0)
(-0.113718 0.595899 0)
(-0.0207686 1.83196 0)
(-0.460701 1.32899 0)
(-0.466197 0.954721 0)
(-0.609782 0.873241 0)
(-0.422298 0.448122 0)
(-0.528853 0.309806 0)
(-0.366143 -0.0145313 0)
(-0.446919 -0.287919 0)
(-0.415815 -0.4655 0)
(-0.586543 -0.347302 0)
(-0.634099 -0.123407 0)
(-0.565568 0.0416683 0)
(-0.30007 0.304327 0)
(-0.0536469 -0.406984 0)
(-0.323141 -0.460109 0)
(-0.344497 -0.598118 0)
(-0.543854 -0.318143 0)
(-0.443069 -0.281066 0)
(-0.417826 -0.105053 0)
(-0.290699 0.0559732 0)
(-0.18367 0.137881 0)
(-0.0276306 0.700014 0)
(-0.0178462 0.554031 0)
(0.0614835 1.75215 0)
(-0.3227 1.54898 0)
(-0.317163 0.970597 0)
(-0.260551 0.849929 0)
(-0.151184 0.433901 0)
(-0.12529 0.343702 0)
(-0.101309 -0.0450556 0)
(-0.105528 -0.198942 0)
(-0.28705 -0.3499 0)
(-0.412761 -0.284083 0)
(-0.456438 -0.168992 0)
(-0.458709 -0.131904 0)
(-0.267571 -0.0115246 0)
(-0.17279 -0.346089 0)
(-0.378151 -0.3508 0)
(-0.437525 -0.490927 0)
(-0.576507 -0.403765 0)
(-0.501841 -0.289185 0)
(-0.531006 -0.141651 0)
(-0.411686 -0.0633228 0)
(-0.238226 0.00172788 0)
(-0.020849 0.685164 0)
(0.0894049 0.513942 0)
(-0.0539807 2.10015 0)
(-0.451261 1.73838 0)
(-0.345776 0.868473 0)
(-0.17718 0.727924 0)
(-0.16728 0.294986 0)
(0.0496366 0.277595 0)
(-0.0579353 -0.0593165 0)
(0.0170025 -0.0855567 0)
(-0.224437 -0.184452 0)
(-0.261233 -0.163435 0)
(-0.364601 -0.110467 0)
(-0.354644 -0.123583 0)
(-0.334452 -0.0320544 0)
(-0.287518 -0.262666 0)
(-0.422563 -0.244991 0)
(-0.43536 -0.369781 0)
(-0.574877 -0.29641 0)
(-0.552244 -0.312598 0)
(-0.538423 -0.207265 0)
(-0.434916 -0.234257 0)
(-0.356753 -0.173978 0)
(0.000518168 0.636073 0)
(0.10958 0.583486 0)
(-0.407619 2.33126 0)
(-0.242833 1.82277 0)
(-0.426386 0.70002 0)
(-0.0479929 0.673082 0)
(-0.244 0.193589 0)
(0.0907135 0.250143 0)
(-0.145335 -0.0267406 0)
(-0.012868 -0.00772622 0)
(-0.243155 -0.0901132 0)
(-0.220077 -0.112759 0)
(-0.344225 -0.092944 0)
(-0.333169 -0.132657 0)
(-0.367402 -0.0951539 0)
(-0.347754 -0.225391 0)
(-0.460074 -0.218188 0)
(-0.492066 -0.31063 0)
(-0.591186 -0.297984 0)
(-0.595736 -0.304537 0)
(-0.616559 -0.26656 0)
(-0.554374 -0.243574 0)
(-0.507645 -0.25151 0)
(0.26044 0.547649 0)
(-0.147952 0.975831 0)
(-0.534193 2.38505 0)
(-0.0762526 1.79824 0)
(-0.442872 0.648821 0)
(0.0344486 0.567115 0)
(-0.251798 0.134148 0)
(0.0871797 0.199991 0)
(-0.178619 0.0195522 0)
(-0.0448938 0.0342206 0)
(-0.247648 -0.0027061 0)
(-0.21093 -0.0419644 0)
(-0.3445 -0.0252231 0)
(-0.330269 -0.0792889 0)
(-0.41112 -0.0494635 0)
(-0.406912 -0.147584 0)
(-0.517106 -0.130254 0)
(-0.547534 -0.219041 0)
(-0.663222 -0.21637 0)
(-0.697691 -0.272759 0)
(-0.750044 -0.265194 0)
(-0.736115 -0.325663 0)
(-0.71524 -0.348553 0)
(-0.123972 0.482711 0)
(-0.298703 1.40669 0)
(-0.540513 2.24705 0)
(0.0597777 1.74683 0)
(-0.421267 0.575255 0)
(0.133648 0.495657 0)
(-0.25246 0.124904 0)
(0.0598789 0.196112 0)
(-0.223115 0.0873521 0)
(-0.100982 0.0844881 0)
(-0.284513 0.0571903 0)
(-0.238388 0.00806401 0)
(-0.363511 0.00991516 0)
(-0.349153 -0.0435408 0)
(-0.436971 -0.0327593 0)
(-0.438762 -0.0984163 0)
(-0.531902 -0.0888593 0)
(-0.560304 -0.147788 0)
(-0.662622 -0.155995 0)
(-0.725025 -0.206414 0)
(-0.82493 -0.234815 0)
(-0.894591 -0.276673 0)
(-0.970379 -0.305443 0)
(-0.33401 1.00701 0)
(-0.218602 1.43454 0)
(-0.490816 1.97364 0)
(0.173551 1.71324 0)
(-0.369705 0.537278 0)
(0.190167 0.426114 0)
(-0.245473 0.17976 0)
(0.0266008 0.196519 0)
(-0.253496 0.154731 0)
(-0.133204 0.119166 0)
(-0.307719 0.111396 0)
(-0.257797 0.0569837 0)
(-0.380696 0.0641568 0)
(-0.365063 0.0114904 0)
(-0.458507 0.0200964 0)
(-0.462415 -0.037155 0)
(-0.550159 -0.025821 0)
(-0.573103 -0.0750772 0)
(-0.665064 -0.0644029 0)
(-0.720233 -0.0997343 0)
(-0.835767 -0.102937 0)
(-0.937884 -0.171312 0)
(-1.06652 -0.222295 0)
(-0.345237 1.02577 0)
(0.275429 1.54836 0)
(-0.517322 1.87438 0)
(0.271592 1.64629 0)
(-0.305433 0.541902 0)
(0.173161 0.397576 0)
(-0.248085 0.263946 0)
(-0.0321701 0.230793 0)
(-0.290641 0.22423 0)
(-0.186261 0.162258 0)
(-0.347455 0.162734 0)
(-0.302911 0.101051 0)
(-0.415016 0.102367 0)
(-0.40154 0.0509599 0)
(-0.486788 0.0532332 0)
(-0.491812 0.00693753 0)
(-0.565081 0.0131197 0)
(-0.586039 -0.0223201 0)
(-0.65475 -0.0153258 0)
(-0.691101 -0.0284152 0)
(-0.76438 -0.0220757 0)
(-0.826052 -0.0421663 0)
(-0.939932 -0.0723996 0)
(-0.352527 1.05307 0)
(0.290539 1.66105 0)
(-0.517075 1.89176 0)
(0.286933 1.54449 0)
(-0.240892 0.586219 0)
(0.130453 0.404343 0)
(-0.258663 0.351196 0)
(-0.0799667 0.269069 0)
(-0.314155 0.282488 0)
(-0.222726 0.199396 0)
(-0.373022 0.207578 0)
(-0.333444 0.142254 0)
(-0.439854 0.146621 0)
(-0.430365 0.0968694 0)
(-0.513455 0.0973327 0)
(-0.521268 0.0520821 0)
(-0.591846 0.0581351 0)
(-0.613234 0.023585 0)
(-0.679971 0.0334683 0)
(-0.716601 0.017287 0)
(-0.777525 0.0281839 0)
(-0.823239 0.0102119 0)
(-0.893565 -0.00732104 0)
(-0.35014 1.07614 0)
(0.325815 1.75892 0)
(-0.514931 1.85294 0)
(0.278546 1.41254 0)
(-0.217035 0.665193 0)
(0.053864 0.453314 0)
(-0.287454 0.44264 0)
(-0.143028 0.316552 0)
(-0.346646 0.342203 0)
(-0.269351 0.243568 0)
(-0.400578 0.255531 0)
(-0.36508 0.184473 0)
(-0.457301 0.186715 0)
(-0.446892 0.13688 0)
(-0.517391 0.135327 0)
(-0.524207 0.0944631 0)
(-0.586732 0.0987765 0)
(-0.61117 0.0723416 0)
(-0.680118 0.0835187 0)
(-0.725044 0.0730885 0)
(-0.794893 0.0816068 0)
(-0.850561 0.0754898 0)
(-0.928957 0.0693322 0)
(-0.344728 1.06765 0)
(0.36576 1.85262 0)
(-0.510842 1.89116 0)
(0.190026 1.2854 0)
(-0.245801 0.767706 0)
(-0.0509176 0.513484 0)
(-0.328116 0.514316 0)
(-0.21373 0.358149 0)
(-0.383056 0.384565 0)
(-0.321127 0.274582 0)
(-0.433692 0.286327 0)
(-0.406028 0.213795 0)
(-0.488747 0.216498 0)
(-0.482934 0.167419 0)
(-0.548224 0.166045 0)
(-0.557261 0.129384 0)
(-0.617937 0.138852 0)
(-0.647715 0.123318 0)
(-0.715939 0.143453 0)
(-0.767209 0.137095 0)
(-0.845437 0.15212 0)
(-0.918781 0.148004 0)
(-1.01068 0.148065 0)
(-0.338758 1.04393 0)
(0.102876 1.97058 0)
(-0.524207 1.97727 0)
(-0.0177757 1.19264 0)
(-0.32436 0.864678 0)
(-0.180306 0.574939 0)
(-0.383804 0.573075 0)
(-0.290528 0.399284 0)
(-0.418987 0.426918 0)
(-0.367542 0.313126 0)
(-0.458944 0.325119 0)
(-0.4376 0.252403 0)
(-0.509016 0.25349 0)
(-0.507172 0.205147 0)
(-0.569079 0.202891 0)
(-0.586237 0.170366 0)
(-0.655262 0.184558 0)
(-0.702547 0.174634 0)
(-0.775153 0.199974 0)
(-0.835409 0.205032 0)
(-0.918159 0.231438 0)
(-0.996834 0.241865 0)
(-1.07934 0.241696 0)
(-0.319278 1.28689 0)
(-0.303871 2.07063 0)
(-0.546436 1.97337 0)
(-0.274933 1.12848 0)
(-0.436152 0.891222 0)
(-0.328212 0.60924 0)
(-0.452752 0.595415 0)
(-0.378225 0.418797 0)
(-0.46479 0.441969 0)
(-0.423297 0.331807 0)
(-0.491645 0.343537 0)
(-0.474716 0.275377 0)
(-0.533591 0.27785 0)
(-0.536421 0.235231 0)
(-0.59683 0.239782 0)
(-0.62857 0.221395 0)
(-0.703003 0.251573 0)
(-0.764339 0.248038 0)
(-0.838742 0.274416 0)
(-0.905782 0.284053 0)
(-0.979246 0.313057 0)
(-1.0413 0.31188 0)
(-1.092 0.295726 0)
(-0.282758 1.67279 0)
(-0.560489 2.21647 0)
(-0.579263 1.91034 0)
(-0.480053 1.11974 0)
(-0.555395 0.881216 0)
(-0.463409 0.623249 0)
(-0.517422 0.596575 0)
(-0.452427 0.432297 0)
(-0.500983 0.454262 0)
(-0.465984 0.353686 0)
(-0.51592 0.364945 0)
(-0.503551 0.303324 0)
(-0.555726 0.307679 0)
(-0.564247 0.274543 0)
(-0.626315 0.290067 0)
(-0.675692 0.281026 0)
(-0.744561 0.317151 0)
(-0.80244 0.313393 0)
(-0.862718 0.339417 0)
(-0.921254 0.347128 0)
(-0.975253 0.366145 0)
(-1.01697 0.355155 0)
(-1.04941 0.317314 0)
(-0.275086 2.12389 0)
(-0.623135 2.39565 0)
(-0.651877 1.86411 0)
(-0.653064 1.13497 0)
(-0.682053 0.847176 0)
(-0.598543 0.596616 0)
(-0.578897 0.56375 0)
(-0.527704 0.420349 0)
(-0.537374 0.441851 0)
(-0.509651 0.359003 0)
(-0.541018 0.372439 0)
(-0.533579 0.323309 0)
(-0.579347 0.333324 0)
(-0.601206 0.311578 0)
(-0.66265 0.347637 0)
(-0.722409 0.3445 0)
(-0.779938 0.376214 0)
(-0.827191 0.369804 0)
(-0.87116 0.392237 0)
(-0.907423 0.39931 0)
(-0.937442 0.409001 0)
(-0.960633 0.387512 0)
(-0.9707 0.330397 0)
(-0.24021 2.56647 0)
(-0.624023 2.61431 0)
(-0.717972 1.91448 0)
(-0.814322 1.17463 0)
(-0.796138 0.803554 0)
(-0.71211 0.538918 0)
(-0.628958 0.508466 0)
(-0.575308 0.403317 0)
(-0.55776 0.424709 0)
(-0.53233 0.365554 0)
(-0.552447 0.381306 0)
(-0.552053 0.347109 0)
(-0.592605 0.370451 0)
(-0.63412 0.362064 0)
(-0.68952 0.407889 0)
(-0.741825 0.401556 0)
(-0.784059 0.419824 0)
(-0.817012 0.406571 0)
(-0.845859 0.418276 0)
(-0.862739 0.414333 0)
(-0.873906 0.418359 0)
(-0.874311 0.388179 0)
(-0.857541 0.30777 0)
(-0.207657 2.98734 0)
(-0.63104 2.89045 0)
(-0.785451 2.03994 0)
(-0.935723 1.22954 0)
(-0.88616 0.729431 0)
(-0.792581 0.442202 0)
(-0.66969 0.415714 0)
(-0.603353 0.35819 0)
(-0.571916 0.391275 0)
(-0.550199 0.360869 0)
(-0.561454 0.387147 0)
(-0.574132 0.368998 0)
(-0.611027 0.412027 0)
(-0.665843 0.412947 0)
(-0.713137 0.453311 0)
(-0.753053 0.442218 0)
(-0.778521 0.450002 0)
(-0.79316 0.433947 0)
(-0.806373 0.437205 0)
(-0.80591 0.428755 0)
(-0.799701 0.420716 0)
(-0.769335 0.372071 0)
(-0.724294 0.274764 0)
(-0.243637 3.40576 0)
(-0.591689 3.19892 0)
(-0.787969 2.2117 0)
(-0.951031 1.28259 0)
(-0.90544 0.650421 0)
(-0.80259 0.328498 0)
(-0.659807 0.310854 0)
(-0.587475 0.310323 0)
(-0.552332 0.365715 0)
(-0.541222 0.35907 0)
(-0.547964 0.400898 0)
(-0.578482 0.400035 0)
(-0.61401 0.458964 0)
(-0.67003 0.467065 0)
(-0.709237 0.493162 0)
(-0.7414 0.468827 0)
(-0.758546 0.458655 0)
(-0.76103 0.435413 0)
(-0.766299 0.430158 0)
(-0.749914 0.407724 0)
(-0.723132 0.380705 0)
(-0.666803 0.311899 0)
(-0.602243 0.206074 0)
(-0.169474 3.81987 0)
(-0.439505 3.44154 0)
(-0.648559 2.40326 0)
(-0.843175 1.35265 0)
(-0.809589 0.576129 0)
(-0.723951 0.200055 0)
(-0.59401 0.195393 0)
(-0.546022 0.25462 0)
(-0.509237 0.341188 0)
(-0.521857 0.360574 0)
(-0.528905 0.421797 0)
(-0.578221 0.438624 0)
(-0.615922 0.502181 0)
(-0.668975 0.510647 0)
(-0.700929 0.523906 0)
(-0.725219 0.493009 0)
(-0.733102 0.468792 0)
(-0.729822 0.44268 0)
(-0.724222 0.425658 0)
(-0.690614 0.386238 0)
(-0.646409 0.33738 0)
(-0.572366 0.251651 0)
(-0.506462 0.148533 0)
(-0.00242689 4.01897 0)
(-0.168165 3.68713 0)
(-0.307894 2.61036 0)
(-0.525055 1.44259 0)
(-0.539733 0.52688 0)
(-0.528784 0.111009 0)
(-0.449835 0.129193 0)
(-0.453197 0.227359 0)
(-0.433308 0.338524 0)
(-0.47498 0.380905 0)
(-0.492385 0.455229 0)
(-0.554485 0.488808 0)
(-0.597363 0.548676 0)
(-0.648811 0.553421 0)
(-0.681039 0.548988 0)
(-0.698595 0.501768 0)
(-0.70136 0.462842 0)
(-0.697757 0.426828 0)
(-0.680403 0.390098 0)
(-0.63576 0.329408 0)
(-0.580906 0.260804 0)
(-0.505435 0.170608 0)
(-0.446699 0.0757211 0)
(0.0516997 3.98646 0)
(0.138044 3.73883 0)
(0.158927 2.77753 0)
(-0.0158019 1.58916 0)
(-0.115216 0.581911 0)
(-0.234001 0.107556 0)
(-0.25599 0.120428 0)
(-0.325146 0.238447 0)
(-0.348605 0.363153 0)
(-0.418207 0.420917 0)
(-0.458777 0.501336 0)
(-0.531023 0.544928 0)
(-0.58296 0.596558 0)
(-0.633953 0.595077 0)
(-0.662486 0.573426 0)
(-0.668045 0.513668 0)
(-0.669816 0.467577 0)
(-0.658197 0.42195 0)
(-0.626745 0.363373 0)
(-0.574113 0.287092 0)
(-0.516327 0.206834 0)
(-0.448116 0.11777 0)
(-0.392963 0.0253567 0)
(0.100899 3.8335 0)
(0.287352 3.58022 0)
(0.483831 2.76707 0)
(0.393408 1.72396 0)
(0.260375 0.751551 0)
(0.0588304 0.248706 0)
(-0.0538227 0.222758 0)
(-0.184584 0.319819 0)
(-0.253336 0.432758 0)
(-0.34784 0.491566 0)
(-0.411044 0.568648 0)
(-0.49243 0.613892 0)
(-0.551289 0.652331 0)
(-0.604128 0.63401 0)
(-0.629316 0.583206 0)
(-0.627498 0.509823 0)
(-0.634642 0.452648 0)
(-0.611249 0.383853 0)
(-0.574868 0.304802 0)
(-0.522974 0.218103 0)
(-0.471181 0.133079 0)
(-0.411057 0.0459952 0)
(-0.356571 -0.0417182 0)
(0.146313 3.59503 0)
(0.372199 3.35046 0)
(0.616578 2.67337 0)
(0.567764 1.81557 0)
(0.483028 0.918968 0)
(0.261464 0.419138 0)
(0.0989396 0.366119 0)
(-0.0783651 0.437929 0)
(-0.183445 0.527999 0)
(-0.300199 0.578873 0)
(-0.3824 0.646497 0)
(-0.471926 0.685348 0)
(-0.535619 0.708288 0)
(-0.585624 0.672828 0)
(-0.595565 0.596274 0)
(-0.596736 0.518877 0)
(-0.593012 0.450882 0)
(-0.559679 0.362222 0)
(-0.520717 0.274959 0)
(-0.469328 0.183743 0)
(-0.419242 0.0949481 0)
(-0.362406 0.00349743 0)
(-0.310873 -0.0855685 0)
(0.152183 3.31213 0)
(0.391424 3.10563 0)
(0.629943 2.56999 0)
(0.615585 1.8564 0)
(0.599182 1.06153 0)
(0.385052 0.631326 0)
(0.203828 0.565758 0)
(0.00822455 0.602739 0)
(-0.1158 0.657249 0)
(-0.245438 0.691701 0)
(-0.339891 0.742426 0)
(-0.435236 0.768654 0)
(-0.503357 0.76804 0)
(-0.549274 0.694909 0)
(-0.549838 0.595479 0)
(-0.561596 0.507529 0)
(-0.543609 0.415586 0)
(-0.513791 0.311046 0)
(-0.476014 0.213265 0)
(-0.431451 0.11556 0)
(-0.383198 0.0246276 0)
(-0.331433 -0.0636108 0)
(-0.281961 -0.145538 0)
(0.134068 3.04861 0)
(0.343003 2.86526 0)
(0.581548 2.44898 0)
(0.610795 1.84561 0)
(0.626428 1.15329 0)
(0.413572 0.813365 0)
(0.228657 0.745623 0)
(0.02855 0.757143 0)
(-0.103946 0.782852 0)
(-0.239527 0.802301 0)
(-0.340721 0.836119 0)
(-0.435249 0.847966 0)
(-0.499553 0.821628 0)
(-0.522102 0.717902 0)
(-0.523912 0.608116 0)
(-0.526424 0.511853 0)
(-0.498249 0.402765 0)
(-0.467638 0.294679 0)
(-0.424913 0.19267 0)
(-0.38029 0.0913094 0)
(-0.331788 -0.004835 0)
(-0.286198 -0.0974245 0)
(-0.24249 -0.181573 0)
(0.130636 2.83357 0)
(0.301717 2.65491 0)
(0.536293 2.30468 0)
(0.595468 1.80946 0)
(0.612405 1.26261 0)
(0.406595 1.02851 0)
(0.236126 0.955273 0)
(0.0477146 0.937033 0)
(-0.0813814 0.929338 0)
(-0.215086 0.930968 0)
(-0.318764 0.94163 0)
(-0.41409 0.930241 0)
(-0.47431 0.857254 0)
(-0.481242 0.721031 0)
(-0.493587 0.600797 0)
(-0.483161 0.482347 0)
(-0.457498 0.356499 0)
(-0.427865 0.236952 0)
(-0.389805 0.124799 0)
(-0.349331 0.0211118 0)
(-0.305382 -0.0707988 0)
(-0.26178 -0.154238 0)
(-0.222601 -0.232579 0)
(0.14021 2.61438 0)
(0.299483 2.45383 0)
(0.487732 2.15476 0)
(0.544884 1.76705 0)
(0.518581 1.34503 0)
(0.319552 1.18905 0)
(0.168193 1.10602 0)
(-0.000938088 1.07325 0)
(-0.123441 1.04556 0)
(-0.251506 1.03769 0)
(-0.3499 1.03361 0)
(-0.434245 1.00188 0)
(-0.462478 0.886631 0)
(-0.46482 0.736008 0)
(-0.469942 0.608705 0)
(-0.44771 0.475214 0)
(-0.420506 0.347268 0)
(-0.383741 0.227133 0)
(-0.344457 0.114511 0)
(-0.301576 0.00735847 0)
(-0.264106 -0.0919218 0)
(-0.226201 -0.179709 0)
(-0.191759 -0.259259 0)
(0.125072 2.39407 0)
(0.276315 2.3052 0)
(0.404397 2.06174 0)
(0.462702 1.77654 0)
(0.408443 1.49136 0)
(0.24682 1.38028 0)
(0.119934 1.28067 0)
(-0.0246872 1.23166 0)
(-0.137728 1.18492 0)
(-0.254616 1.16139 0)
(-0.350909 1.12874 0)
(-0.426427 1.04616 0)
(-0.435745 0.890316 0)
(-0.442989 0.730228 0)
(-0.438464 0.584587 0)
(-0.414362 0.432923 0)
(-0.388595 0.291939 0)
(-0.353843 0.159808 0)
(-0.320571 0.0412956 0)
(-0.283098 -0.0606954 0)
(-0.247905 -0.147556 0)
(-0.21287 -0.228083 0)
(-0.181464 -0.30356 0)
(0.0798483 2.20963 0)
(0.214042 2.16823 0)
(0.294715 1.96794 0)
(0.325157 1.76045 0)
(0.242273 1.56288 0)
(0.121857 1.47569 0)
(0.0101242 1.37774 0)
(-0.112404 1.3281 0)
(-0.216542 1.27398 0)
(-0.320905 1.24731 0)
(-0.402077 1.20367 0)
(-0.443761 1.08363 0)
(-0.436532 0.901664 0)
(-0.439408 0.736923 0)
(-0.415664 0.57939 0)
(-0.390293 0.425047 0)
(-0.354978 0.287024 0)
(-0.319763 0.159611 0)
(-0.281967 0.0445894 0)
(-0.247993 -0.0646194 0)
(-0.218631 -0.161256 0)
(-0.185563 -0.245271 0)
(-0.157896 -0.323005 0)
(0.0372066 2.10138 0)
(0.138818 2.09056 0)
(0.184094 1.95351 0)
(0.19192 1.82894 0)
(0.118948 1.6982 0)
(0.0336722 1.61489 0)
(-0.0556692 1.51991 0)
(-0.156299 1.46256 0)
(-0.247279 1.39926 0)
(-0.343038 1.35193 0)
(-0.416603 1.25562 0)
(-0.436096 1.08351 0)
(-0.426528 0.88772 0)
(-0.425416 0.710123 0)