/*--------------------------------*- C++ -*----------------------------------*\
| =========                 |                                                 |
| \\      /  F ield         | OpenFOAM: The Open Source CFD Toolbox           |
|  \\    /   O peration     | Version:  2012                                  |
|   \\  /    A nd           | Website:  www.openfoam.com                      |
|    \\/     M anipulation  |                                                 |
\*---------------------------------------------------------------------------*/
FoamFile
{
    version     2.0;
    format      ascii;
    class       volVectorField;
    location    "0.98";
    object      Uc;
}
// * * * * * * * * * * * * * * * * * * * * * * * * * * * * * * * * * * * * * //

dimensions      [0 1 -1 0 0 0 0];


internalField   nonuniform List<vector> 
2268
(
(0.00216334 -0.00102238 0)
(0.00548134 -0.000545688 0)
(0.00603762 0.000282789 0)
(0.00286376 0.00121715 0)
(-0.00377299 0.00191932 0)
(-0.0130582 0.00246878 0)
(-0.0232122 0.00232992 0)
(-0.0313855 0.00153271 0)
(-0.0350141 0.000182162 0)
(-0.0320884 -0.00156486 0)
(-0.0229833 -0.00273815 0)
(-0.00927602 -0.0037398 0)
(0.00670506 -0.00381275 0)
(0.0229299 -0.00385499 0)
(0.0377249 -0.00313706 0)
(0.0513369 -0.00329587 0)
(0.0635034 -0.00245397 0)
(0.0732735 -0.0021633 0)
(0.0796555 -0.000852821 0)
(0.0798002 0.00078443 0)
(0.0679412 0.00482003 0)
(0.0458357 0.00562681 0)
(0.0169647 0.00801737 0)
(0.0023694 -0.00316453 0)
(0.00587611 -0.00162886 0)
(0.00649252 0.000811749 0)
(0.00355714 0.00357536 0)
(-0.00289322 0.00574597 0)
(-0.0124441 0.0075439 0)
(-0.0233157 0.00719131 0)
(-0.032216 0.00474016 0)
(-0.0363272 0.000632478 0)
(-0.0334812 -0.00474285 0)
(-0.0240199 -0.00833454 0)
(-0.009888 -0.0113 0)
(0.00656103 -0.0115788 0)
(0.0233487 -0.0116904 0)
(0.0387091 -0.00955295 0)
(0.0527522 -0.00994956 0)
(0.0652757 -0.00746867 0)
(0.0756481 -0.00666783 0)
(0.0821518 -0.00243805 0)
(0.0814687 0.0026241 0)
(0.0693691 0.0143029 0)
(0.0463128 0.017487 0)
(0.0165615 0.0238616 0)
(0.00255438 -0.00549148 0)
(0.00683426 -0.00298181 0)
(0.00821814 0.00121936 0)
(0.00506967 0.00604292 0)
(-0.0024282 0.00987023 0)
(-0.0133199 0.0130807 0)
(-0.0254203 0.0125109 0)
(-0.0351063 0.00820426 0)
(-0.0392105 0.00105089 0)
(-0.0358673 -0.00808624 0)
(-0.0258868 -0.0141792 0)
(-0.0109744 -0.0191814 0)
(0.00650775 -0.019733 0)
(0.0241891 -0.019826 0)
(0.0402521 -0.0162679 0)
(0.0544703 -0.0165907 0)
(0.0663901 -0.0123793 0)
(0.0767403 -0.0115506 0)
(0.0849747 -0.00452041 0)
(0.0869131 0.00411319 0)
(0.0764246 0.0234888 0)
(0.0517874 0.0308407 0)
(0.0183604 0.0403653 0)
(0.0034482 -0.00832825 0)
(0.00910629 -0.00484165 0)
(0.0113648 0.00135784 0)
(0.00869208 0.00865545 0)
(0.000842975 0.0145106 0)
(-0.0114611 0.0194025 0)
(-0.0257868 0.0186779 0)
(-0.0377056 0.0122476 0)
(-0.0433438 0.00161178 0)
(-0.0404921 -0.0115748 0)
(-0.0298233 -0.0204494 0)
(-0.0134244 -0.0277088 0)
(0.0057618 -0.0285349 0)
(0.0246481 -0.0283058 0)
(0.0414047 -0.0232985 0)
(0.0565077 -0.0234171 0)
(0.0699393 -0.0175338 0)
(0.0819872 -0.0169814 0)
(0.0912143 -0.00734182 0)
(0.0939874 0.0047079 0)
(0.0836101 0.0327551 0)
(0.0551077 0.0466877 0)
(0.0183211 0.0577006 0)
(0.00383196 -0.0117688 0)
(0.010756 -0.00734731 0)
(0.0140332 0.00124738 0)
(0.0109543 0.011484 0)
(0.0016148 0.0198052 0)
(-0.01286 0.0267634 0)
(-0.0294671 0.0259355 0)
(-0.0431304 0.0170798 0)
(-0.0492226 0.00232321 0)
(-0.0455513 -0.0153689 0)
(-0.0335903 -0.0273499 0)
(-0.0154814 -0.0371164 0)
(0.00554782 -0.0381327 0)
(0.0262775 -0.0374301 0)
(0.0449178 -0.0309024 0)
(0.0604892 -0.0303096 0)
(0.0716068 -0.022243 0)
(0.0816891 -0.0227308 0)
(0.0954853 -0.0124731 0)
(0.107332 0.00292992 0)
(0.10146 0.0422121 0)
(0.0715222 0.0648492 0)
(0.025779 0.0785419 0)
(0.00551315 -0.0161852 0)
(0.0147212 -0.0105548 0)
(0.0192542 0.000763799 0)
(0.0167113 0.0146244 0)
(0.00642302 0.0259407 0)
(-0.010364 0.0354019 0)
(-0.0306976 0.0347549 0)
(-0.048504 0.0231328 0)
(-0.057549 0.00342393 0)
(-0.0546826 -0.0195594 0)
(-0.041105 -0.0352289 0)
(-0.0199236 -0.0478058 0)
(0.00433986 -0.0488484 0)
(0.0272522 -0.0473394 0)
(0.0465268 -0.0389115 0)
(0.0624046 -0.0371633 0)
(0.0747551 -0.0264802 0)
(0.0855649 -0.0283672 0)
(0.0975413 -0.0190167 0)
(0.107446 -0.000806108 0)
(0.100998 0.0517703 0)
(0.068594 0.0847534 0)
(0.0232206 0.101699 0)
(0.00709613 -0.0221443 0)
(0.0199109 -0.0150036 0)
(0.0267445 -0.000159147 0)
(0.023864 0.0181103 0)
(0.0111909 0.0333062 0)
(-0.0101347 0.0460482 0)
(-0.0353299 0.0456252 0)
(-0.0565718 0.0307163 0)
(-0.0668378 0.00496658 0)
(-0.0627411 -0.0243927 0)
(-0.0469052 -0.0442962 0)
(-0.0233095 -0.0598998 0)
(0.00365687 -0.0609652 0)
(0.0299777 -0.0584899 0)
(0.0518213 -0.0471932 0)
(0.064837 -0.0425365 0)
(0.0666292 -0.0277908 0)
(0.0660591 -0.0318961 0)
(0.0760635 -0.0258764 0)
(0.0943457 -0.00726826 0)
(0.0971832 0.0599385 0)
(0.0705724 0.104475 0)
(0.0254972 0.124722 0)
(0.00763598 -0.0291066 0)
(0.0217615 -0.0207731 0)
(0.0314299 -0.0021883 0)
(0.030661 0.0218641 0)
(0.0170752 0.0419621 0)
(-0.00696339 0.058831 0)
(-0.0378258 0.0593349 0)
(-0.0664138 0.0405559 0)
(-0.0814157 0.00706836 0)
(-0.0776007 -0.0302334 0)
(-0.0581546 -0.0551295 0)
(-0.0289272 -0.0740303 0)
(0.00249762 -0.07443 0)
(0.0276231 -0.0693383 0)
(0.0434369 -0.0541416 0)
(0.0530894 -0.0463018 0)
(0.0564916 -0.0264868 0)
(0.0490706 -0.0294606 0)
(0.0359194 -0.0269124 0)
(0.0375068 -0.0157241 0)
(0.0478258 0.0621315 0)
(0.0423913 0.117426 0)
(0.0172823 0.144939 0)
(-0.550903 0.234065 0)
(-1.22667 0.053094 0)
(-1.35835 0.0028982 0)
(-1.28753 -0.0330129 0)
(-1.0908 -0.0506302 0)
(-0.802875 -0.0718082 0)
(-0.452686 -0.0771377 0)
(-0.134288 -0.0582965 0)
(0.0822902 -0.0338269 0)
(0.205447 -0.0185591 0)
(0.243456 0.00239155 0)
(0.100164 0.0585582 0)
(-0.223731 0.0792045 0)
(-0.509106 0.042173 0)
(-0.641083 0.0139647 0)
(-0.664155 -0.00414885 0)
(-0.58596 -0.0291074 0)
(-0.39121 -0.0537267 0)
(-0.132449 -0.056339 0)
(-0.430652 0.651287 0)
(-0.998378 0.164594 0)
(-1.15079 0.012273 0)
(-1.02537 -0.125842 0)
(-0.781188 -0.145161 0)
(-0.570464 -0.189244 0)
(-0.336622 -0.208099 0)
(-0.106146 -0.160806 0)
(0.056479 -0.0926156 0)
(0.139017 -0.0472652 0)
(0.175642 -0.000648525 0)
(0.112881 0.14925 0)
(-0.118268 0.224596 0)
(-0.371491 0.125863 0)
(-0.495996 0.0393786 0)
(-0.510667 -0.0134868 0)
(-0.424708 -0.0895512 0)
(-0.251409 -0.149802 0)
(-0.075921 -0.144972 0)
(-0.250676 0.94148 0)
(-0.574823 0.25422 0)
(-0.664519 0.0256955 0)
(-0.597392 -0.221089 0)
(-0.483447 -0.202057 0)
(-0.404719 -0.255336 0)
(-0.263726 -0.301424 0)
(-0.0889378 -0.239868 0)
(0.037327 -0.136437 0)
(0.109235 -0.0691408 0)
(0.166681 -0.0187868 0)
(0.190714 0.183866 0)
(0.0947301 0.329131 0)
(-0.0871167 0.20639 0)
(-0.224882 0.0704322 0)
(-0.273884 -0.0174097 0)
(-0.210446 -0.14911 0)
(-0.0790456 -0.219792 0)
(-0.00700952 -0.180247 0)
(0.0966134 1.00758 0)
(0.120979 0.316152 0)
(-0.235111 0.153358 0)
(-0.445386 -0.287843 0)
(-0.374513 -0.21393 0)
(-0.343567 -0.290116 0)
(-0.233823 -0.373297 0)
(-0.0897103 -0.303646 0)
(0.0168743 -0.171707 0)
(0.083103 -0.0926371 0)
(0.128481 -0.0390379 0)
(0.191813 0.166951 0)
(0.273684 0.352054 0)
(0.314836 0.243321 0)
(0.318462 0.0905688 0)
(0.278512 0.000325836 0)
(0.192905 -0.157315 0)
(0.119555 -0.236195 0)
(0.0465631 -0.163423 0)
(0.180691 0.889531 0)
(0.226552 0.40412 0)
(-0.053595 0.335868 0)
(-0.29381 -0.278809 0)
(-0.392895 -0.211004 0)
(-0.344125 -0.326947 0)
(-0.229532 -0.43189 0)
(-0.112168 -0.35628 0)
(-0.0345461 -0.19755 0)
(0.035142 -0.124784 0)
(0.132122 -0.0675911 0)
(0.216155 0.132768 0)
(0.300001 0.315787 0)
(0.373465 0.230836 0)
(0.395703 0.0920468 0)
(0.373097 0.0254786 0)
(0.305057 -0.117016 0)
(0.197808 -0.199609 0)
(0.0691087 -0.11422 0)
(0.158901 0.74453 0)
(0.365442 0.441025 0)
(0.553098 0.338103 0)
(0.415066 -0.120168 0)
(-0.10855 -0.10474 0)
(-0.302872 -0.371218 0)
(-0.214367 -0.473988 0)
(-0.166179 -0.384692 0)
(-0.226198 -0.176946 0)
(-0.294492 -0.146361 0)
(-0.132854 -0.156186 0)
(0.175897 0.0544197 0)
(0.369029 0.276651 0)
(0.413049 0.220139 0)
(0.390793 0.102737 0)
(0.341929 0.0452179 0)
(0.271046 -0.0776232 0)
(0.170708 -0.150692 0)
(0.057649 -0.0603018 0)
(0.134995 0.619193 0)
(0.389837 0.369689 0)
(0.698239 0.198422 0)
(0.6842 0.0842926 0)
(0.193584 0.122222 0)
(-0.139218 -0.37392 0)
(-0.183807 -0.489985 0)
(-0.275436 -0.350492 0)
(-0.480637 -0.0988156 0)
(-0.590143 -0.149018 0)
(-0.543725 -0.241792 0)
(-0.265127 -0.109499 0)
(0.181805 0.168772 0)
(0.376972 0.226657 0)
(0.322314 0.129018 0)
(0.25429 0.0686385 0)
(0.18166 -0.0399845 0)
(0.0948604 -0.108726 0)
(0.0258066 -0.0248026 0)
(0.0880176 0.524265 0)
(0.304857 0.264131 0)
(0.46917 0.103228 0)
(0.423195 0.205085 0)
(0.25109 0.283226 0)
(0.0626546 -0.313293 0)
(-0.102721 -0.461369 0)
(-0.315246 -0.250003 0)
(-0.562884 -0.00693551 0)
(-0.646754 -0.158446 0)
(-0.621484 -0.262578 0)
(-0.543617 -0.240218 0)
(-0.274902 -0.0046966 0)
(0.0350771 0.185548 0)
(0.13115 0.152651 0)
(0.103376 0.0857481 0)
(0.0695199 -0.0118025 0)
(0.0190815 -0.078527 0)
(-0.00433264 -0.0156675 0)
(0.0130792 -0.0458628 0)
(0.0370089 -0.0347471 0)
(0.0508277 -0.00667451 0)
(0.0483087 0.0292459 0)
(0.0287124 0.0606995 0)
(-0.00665824 0.0870093 0)
(-0.0486984 0.0880015 0)
(-0.0838701 0.060755 0)
(-0.0994928 0.0096632 0)
(-0.0902935 -0.0438785 0)
(-0.0649366 -0.0761638 0)
(-0.0340108 -0.0978961 0)
(-0.006336 -0.0932359 0)
(0.0145577 -0.0834142 0)
(0.0319166 -0.0650439 0)
(0.0273884 -0.0355915 0)
(-0.0523581 0.0409362 0)
(-0.14869 0.00232052 0)
(-0.105019 -0.0975065 0)
(0.0192028 -0.0716527 0)
(0.0617082 0.0697497 0)
(0.0585638 0.1154 0)
(0.0778967 0.139347 0)
(0.0184229 -0.0775294 0)
(0.0565392 -0.0654505 0)
(0.0869138 -0.0203953 0)
(0.0898473 0.0425501 0)
(0.0638746 0.0932021 0)
(0.0174215 0.136758 0)
(-0.0482284 0.146506 0)
(-0.115608 0.105338 0)
(-0.155337 0.0207209 0)
(-0.157903 -0.0616061 0)
(-0.129258 -0.112725 0)
(-0.0697454 -0.152305 0)
(0.000105126 -0.137044 0)
(0.0305635 -0.0914802 0)
(-0.144871 0.100978 0)
(-0.522458 0.181176 0)
(-0.686473 0.0681028 0)
(-0.480387 -0.136769 0)
(-0.181125 -0.304301 0)
(0.0378081 -0.210333 0)
(0.133986 0.068407 0)
(0.102098 0.15145 0)
(0.0555797 0.13035 0)
(0.0243573 -0.120533 0)
(0.0733879 -0.110049 0)
(0.109402 -0.0425326 0)
(0.111986 0.0591412 0)
(0.088445 0.126384 0)
(0.0490296 0.189891 0)
(-0.0232128 0.231973 0)
(-0.127644 0.192562 0)
(-0.218575 0.0648196 0)
(-0.248213 -0.073389 0)
(-0.188651 -0.190015 0)
(-0.0379843 -0.286837 0)
(0.169542 -0.281965 0)
(0.226086 -0.034473 0)
(-0.355524 0.804237 0)
(-0.887222 0.390485 0)
(-0.65858 -0.207029 0)
(-0.28562 -0.44334 0)
(-0.0881907 -0.496392 0)
(0.0141075 -0.340849 0)
(0.0930833 0.0228083 0)
(0.0951026 0.226524 0)
(0.00444975 0.192762 0)
(0.0227983 -0.167935 0)
(0.0544889 -0.143789 0)
(0.0623003 -0.0528479 0)
(0.0727324 0.0564274 0)
(0.0948906 0.130775 0)
(0.0880373 0.232675 0)
(0.01191 0.33916 0)
(-0.124013 0.327677 0)
(-0.26665 0.164748 0)
(-0.387569 -0.0225457 0)
(-0.430132 -0.258794 0)
(-0.386472 -0.413608 0)
(-0.288351 -0.462286 0)
(-0.266633 0.0672708 0)
(-0.63859 1.66086 0)
(-0.70374 0.133428 0)
(-0.368756 -0.51505 0)
(-0.275706 -0.601382 0)
(-0.230504 -0.58145 0)
(-0.189839 -0.399483 0)
(-0.165659 -0.0223746 0)
(-0.169006 0.27259 0)
(-0.260655 0.329548 0)
(-0.018006 -0.172752 0)
(-0.0607265 -0.127898 0)
(-0.0895926 -0.0477659 0)
(-0.0863417 0.0376542 0)
(-0.0515551 0.0929249 0)
(-0.0338697 0.2607 0)
(-0.183195 0.53927 0)
(-0.476826 0.561367 0)
(-0.697412 0.297563 0)
(-0.755915 0.0247847 0)
(-0.721545 -0.297739 0)
(-0.691217 -0.448262 0)
(-0.702017 -0.515544 0)
(-0.782267 0.179116 0)
(-0.794041 1.93456 0)
(-0.627137 -0.24145 0)
(-0.51141 -0.589995 0)
(-0.501269 -0.628252 0)
(-0.492832 -0.608424 0)
(-0.510397 -0.395748 0)
(-0.535093 -0.0257211 0)
(-0.546168 0.290025 0)
(-0.575317 0.43329 0)
(-0.0710299 -0.0832518 0)
(-0.219708 -0.0253968 0)
(-0.38177 0.0410595 0)
(-0.505286 0.0695839 0)
(-0.504717 0.0256167 0)
(-0.421988 0.227449 0)
(-0.547153 0.849357 0)
(-0.944281 0.947833 0)
(-1.16619 0.359357 0)
(-1.05947 -0.0835719 0)
(-0.892028 -0.39178 0)
(-0.784122 -0.493229 0)
(-0.794389 -0.45178 0)
(-0.964583 0.365424 0)
(-0.936088 1.73255 0)
(-0.731404 -0.409257 0)
(-0.668443 -0.598512 0)
(-0.662667 -0.635243 0)
(-0.684119 -0.588335 0)
(-0.742525 -0.339474 0)
(-0.791703 -0.00785769 0)
(-0.780389 0.271696 0)
(-0.731089 0.431221 0)
(-0.0883646 0.0769494 0)
(-0.293982 0.1697 0)
(-0.564724 0.280241 0)
(-0.760071 0.15076 0)
(-0.85879 0.0428543 0)
(-1.00361 0.272611 0)
(-1.14211 1.0695 0)
(-1.17876 1.16475 0)
(-1.0955 0.28471 0)
(-0.993926 -0.216021 0)
(-0.939739 -0.482752 0)
(-0.833263 -0.619823 0)
(-0.854715 -0.295669 0)
(-1.03005 0.555506 0)
(-0.994192 1.47895 0)
(-0.845753 -0.507328 0)
(-0.772737 -0.63428 0)
(-0.729838 -0.648154 0)
(-0.738101 -0.546061 0)
(-0.786006 -0.274907 0)
(-0.814976 0.00610701 0)
(-0.80172 0.232926 0)
(-0.759059 0.377336 0)
(-0.0780247 0.244124 0)
(-0.24863 0.379839 0)
(-0.567276 0.661929 0)
(-0.922435 0.322499 0)
(-1.25039 0.299916 0)
(-1.61671 0.529341 0)
(-1.623 0.958324 0)
(-1.21028 0.898041 0)
(-0.880992 0.137286 0)
(-0.804708 -0.246707 0)
(-0.829551 -0.482068 0)
(-0.899063 -0.659194 0)
(-1.04272 -0.0910503 0)
(-1.09306 0.577708 0)
(-0.852929 1.17955 0)
(-0.687569 -0.522565 0)
(-0.734652 -0.643895 0)
(-0.717373 -0.697953 0)
(-0.689884 -0.514885 0)
(-0.724424 -0.222831 0)
(-0.756312 0.0152182 0)
(-0.750349 0.20434 0)
(-0.708612 0.319718 0)
(-0.0668132 0.38959 0)
(-0.179272 0.518002 0)
(-0.435142 1.10059 0)
(-0.856227 0.664223 0)
(-1.20771 0.641158 0)
(-1.40734 0.756979 0)
(-1.33778 0.667079 0)
(-1.08345 0.518753 0)
(-0.930928 0.032216 0)
(-0.893155 -0.256317 0)
(-0.893865 -0.446772 0)
(-0.963911 -0.554238 0)
(-1.00263 -0.0126708 0)
(-0.878156 0.424782 0)
(-0.610171 0.82171 0)
(-0.490348 -0.451354 0)
(-0.54469 -0.613044 0)
(-0.534873 -0.75509 0)
(-0.55952 -0.458467 0)
(-0.606548 -0.194574 0)
(-0.609158 0.0229379 0)
(-0.602056 0.182576 0)
(-0.570006 0.265223 0)
(-0.0618803 0.51883 0)
(-0.139226 0.578355 0)
(-0.308912 1.46694 0)
(-0.627766 1.0417 0)
(-0.848046 0.838434 0)
(-0.933891 0.846664 0)
(-0.940567 0.51421 0)
(-0.895389 0.370522 0)
(-0.879116 0.0106916 0)
(-0.878668 -0.273248 0)
(-0.85759 -0.45032 0)
(-0.868553 -0.469284 0)
(-0.848958 -0.0783877 0)
(-0.699082 0.214731 0)
(-0.474074 0.536211 0)
(-0.353456 -0.40753 0)
(-0.38677 -0.568734 0)
(-0.470629 -0.724936 0)
(-0.529175 -0.404034 0)
(-0.516351 -0.211551 0)
(-0.460473 -0.0106271 0)
(-0.396136 0.144168 0)
(-0.339436 0.212468 0)
(-0.0440478 0.625217 0)
(-0.0791039 0.583955 0)
(-0.153003 1.7053 0)
(-0.351365 1.32328 0)
(-0.500622 0.928324 0)
(-0.52711 0.869688 0)
(-0.495809 0.466458 0)
(-0.46079 0.337663 0)
(-0.426326 -0.00748385 0)
(-0.419918 -0.261988 0)
(-0.465242 -0.437214 0)
(-0.555408 -0.380744 0)
(-0.605652 -0.136117 0)
(-0.51624 0.0319446 0)
(-0.303648 0.279148 0)
(-0.183609 -0.392357 0)
(-0.261755 -0.471854 0)
(-0.389167 -0.609424 0)
(-0.469719 -0.379684 0)
(-0.459619 -0.258105 0)
(-0.394279 -0.0837113 0)
(-0.296093 0.055479 0)
(-0.1796 0.126234 0)
(-0.0111767 0.680722 0)
(-0.00100128 0.553861 0)
(-0.0517778 1.86126 0)
(-0.224296 1.54027 0)
(-0.304289 0.941789 0)
(-0.246933 0.825195 0)
(-0.171492 0.403663 0)
(-0.125367 0.318905 0)
(-0.107986 -0.0408468 0)
(-0.14992 -0.192926 0)
(-0.272712 -0.337289 0)
(-0.392165 -0.269965 0)
(-0.445585 -0.142693 0)
(-0.41101 -0.0861085 0)
(-0.2909 0.0627817 0)
(-0.247919 -0.339838 0)
(-0.342086 -0.35115 0)
(-0.457005 -0.48652 0)
(-0.523569 -0.354691 0)
(-0.525528 -0.291232 0)
(-0.4948 -0.146592 0)
(-0.398096 -0.0760995 0)
(-0.248645 -0.00878493 0)
(0.0183206 0.677 0)
(0.0279943 0.542407 0)
(-0.117349 2.07131 0)
(-0.325233 1.71275 0)
(-0.32806 0.852578 0)
(-0.217075 0.745197 0)
(-0.114497 0.304722 0)
(-0.0313334 0.287891 0)
(-0.0117236 -0.0470175 0)
(-0.0622151 -0.0938528 0)
(-0.172831 -0.201741 0)
(-0.277628 -0.180098 0)
(-0.336085 -0.120099 0)
(-0.352115 -0.127343 0)
(-0.327415 -0.041542 0)
(-0.332845 -0.273252 0)
(-0.392182 -0.263421 0)
(-0.466483 -0.384031 0)
(-0.53434 -0.322046 0)
(-0.553285 -0.302852 0)
(-0.515528 -0.203737 0)
(-0.439479 -0.192129 0)
(-0.3337 -0.148835 0)
(0.0325403 0.630164 0)
(-0.0475382 0.665021 0)
(-0.237184 2.28618 0)
(-0.326859 1.79702 0)
(-0.285806 0.729886 0)
(-0.191133 0.661164 0)
(-0.110658 0.204749 0)
(-0.0517445 0.245046 0)
(-0.0527383 -0.0228874 0)
(-0.103362 -0.0163439 0)
(-0.179539 -0.0914843 0)
(-0.256626 -0.107525 0)
(-0.310138 -0.0801187 0)
(-0.344425 -0.116742 0)
(-0.353652 -0.0676927 0)
(-0.380427 -0.214723 0)
(-0.439994 -0.202417 0)
(-0.508182 -0.301795 0)
(-0.567413 -0.276524 0)
(-0.598775 -0.297797 0)
(-0.594937 -0.250597 0)
(-0.556321 -0.260511 0)
(-0.48763 -0.255778 0)
(0.0334666 0.564688 0)
(-0.140877 0.987196 0)
(-0.323949 2.33876 0)
(-0.281461 1.7919 0)
(-0.231638 0.643669 0)
(-0.156054 0.576237 0)
(-0.0948491 0.147257 0)
(-0.0638328 0.212137 0)
(-0.0782825 0.0255425 0)
(-0.128768 0.0368605 0)
(-0.187545 -0.00903219 0)
(-0.253128 -0.0465631 0)
(-0.307392 -0.0327422 0)
(-0.353718 -0.0830818 0)
(-0.389686 -0.0559182 0)
(-0.435059 -0.153968 0)
(-0.497072 -0.140951 0)
(-0.568167 -0.223244 0)
(-0.642615 -0.220691 0)
(-0.701172 -0.263232 0)
(-0.732892 -0.25713 0)
(-0.733069 -0.29261 0)
(-0.712598 -0.313298 0)
(-0.102233 0.63386 0)
(-0.316156 1.30837 0)
(-0.329721 2.21526 0)
(-0.210088 1.75243 0)
(-0.162493 0.585211 0)
(-0.101045 0.496952 0)
(-0.0775874 0.141437 0)
(-0.0885446 0.197791 0)
(-0.121641 0.0876794 0)
(-0.176942 0.0810608 0)
(-0.227002 0.056172 0)
(-0.28075 0.00818603 0)
(-0.328513 0.0150686 0)
(-0.374299 -0.038297 0)
(-0.415294 -0.0233355 0)
(-0.461108 -0.0948838 0)
(-0.515529 -0.0829886 0)
(-0.578112 -0.146824 0)
(-0.652306 -0.147686 0)
(-0.733493 -0.195755 0)
(-0.816795 -0.20898 0)
(-0.894924 -0.262037 0)
(-0.963786 -0.295221 0)
(-0.140361 0.87624 0)
(-0.316705 1.45681 0)
(-0.253666 2.01709 0)
(-0.129346 1.70537 0)
(-0.093545 0.548435 0)
(-0.0586175 0.436854 0)
(-0.0682655 0.187652 0)
(-0.11096 0.205508 0)
(-0.153342 0.155833 0)
(-0.206361 0.121791 0)
(-0.251588 0.111226 0)
(-0.300476 0.0563034 0)
(-0.345996 0.0607223 0)
(-0.391839 0.00815897 0)
(-0.43598 0.015791 0)
(-0.48285 -0.0408394 0)
(-0.533728 -0.0311801 0)
(-0.589716 -0.0794374 0)
(-0.655488 -0.074371 0)
(-0.734529 -0.107999 0)
(-0.831828 -0.115187 0)
(-0.943471 -0.165063 0)
(-1.06039 -0.20544 0)
(-0.0124046 1.02767 0)
(-0.0817436 1.5502 0)
(-0.124702 1.90349 0)
(-0.0694502 1.63845 0)
(-0.0423189 0.552096 0)
(-0.0512137 0.407024 0)
(-0.0890013 0.265163 0)
(-0.150091 0.232323 0)
(-0.200081 0.221871 0)
(-0.252009 0.161246 0)
(-0.29609 0.161545 0)
(-0.341505 0.10078 0)
(-0.383579 0.104299 0)
(-0.425709 0.0530162 0)
(-0.46658 0.0563925 0)
(-0.508355 0.00766934 0)
(-0.551749 0.0150792 0)
(-0.597366 -0.0235557 0)
(-0.646285 -0.0149573 0)
(-0.69959 -0.0343701 0)
(-0.760949 -0.0293236 0)
(-0.838201 -0.0610405 0)
(-0.9362 -0.0934164 0)
(-0.0125102 1.05203 0)
(-0.0747914 1.65746 0)
(-0.114906 1.87974 0)
(-0.0460939 1.53749 0)
(-0.0162535 0.595786 0)
(-0.059171 0.415418 0)
(-0.116953 0.352837 0)
(-0.182434 0.271879 0)
(-0.232995 0.283391 0)
(-0.282467 0.201654 0)
(-0.325668 0.208874 0)
(-0.369345 0.143009 0)
(-0.410864 0.146101 0)
(-0.452978 0.0958986 0)
(-0.494494 0.0963296 0)
(-0.536443 0.0518956 0)
(-0.579295 0.0575528 0)
(-0.623999 0.0247676 0)
(-0.672084 0.0342351 0)
(-0.721997 0.0201977 0)
(-0.773246 0.0293106 0)
(-0.828639 0.0136696 0)
(-0.893642 -0.00426749 0)
(-0.00355527 1.06798 0)
(-0.0561506 1.75684 0)
(-0.10632 1.87118 0)
(-0.0436546 1.4139 0)
(-0.0255306 0.671167 0)
(-0.0984906 0.456521 0)
(-0.166434 0.438115 0)
(-0.229221 0.315538 0)
(-0.276735 0.338318 0)
(-0.32078 0.240731 0)
(-0.359038 0.25168 0)
(-0.39642 0.181686 0)
(-0.431631 0.184555 0)
(-0.466608 0.134939 0)
(-0.501312 0.133911 0)
(-0.537652 0.0930148 0)
(-0.576952 0.0990172 0)
(-0.62176 0.0732871 0)
(-0.673768 0.0863354 0)
(-0.730662 0.0754648 0)
(-0.79092 0.0861386 0)
(-0.855583 0.0775309 0)
(-0.927972 0.0699883 0)
(0.00995045 1.06263 0)
(-0.032936 1.85958 0)
(-0.117086 1.9038 0)
(-0.0935615 1.29465 0)
(-0.0882854 0.766897 0)
(-0.168048 0.51431 0)
(-0.230719 0.51162 0)
(-0.283818 0.358523 0)
(-0.325576 0.38507 0)
(-0.364067 0.276946 0)
(-0.398777 0.288814 0)
(-0.433054 0.216587 0)
(-0.466602 0.218775 0)
(-0.500216 0.169669 0)
(-0.534008 0.168037 0)
(-0.569718 0.131318 0)
(-0.609961 0.140674 0)
(-0.656825 0.123786 0)
(-0.711381 0.14296 0)
(-0.77341 0.138387 0)
(-0.843818 0.15457 0)
(-0.922844 0.153545 0)
(-1.00762 0.15197 0)
(-0.0566924 1.11196 0)
(-0.166495 1.96637 0)
(-0.239519 1.95529 0)
(-0.220316 1.20021 0)
(-0.211813 0.847493 0)
(-0.266228 0.568593 0)
(-0.310102 0.564438 0)
(-0.345163 0.394324 0)
(-0.374321 0.420554 0)
(-0.402618 0.308598 0)
(-0.430883 0.320466 0)
(-0.460258 0.248918 0)
(-0.490675 0.250744 0)
(-0.522659 0.203642 0)
(-0.557727 0.203286 0)
(-0.598798 0.173254 0)
(-0.649575 0.190234 0)
(-0.708424 0.180494 0)
(-0.771757 0.20476 0)
(-0.840554 0.2081 0)
(-0.916801 0.232285 0)
(-0.997251 0.236147 0)
(-1.07424 0.231987 0)
(-0.154036 1.32492 0)
(-0.370408 2.08244 0)
(-0.416698 1.95918 0)
(-0.382638 1.14278 0)
(-0.368991 0.882658 0)
(-0.385419 0.604638 0)
(-0.403452 0.590622 0)
(-0.41777 0.417775 0)
(-0.43304 0.441762 0)
(-0.450187 0.333071 0)
(-0.470418 0.344741 0)
(-0.49319 0.277062 0)
(-0.519525 0.279651 0)
(-0.550422 0.237945 0)
(-0.589493 0.243511 0)
(-0.63885 0.223932 0)
(-0.699507 0.251574 0)
(-0.767197 0.246356 0)
(-0.836628 0.27236 0)
(-0.906941 0.280342 0)
(-0.976074 0.306189 0)
(-1.03802 0.305393 0)
(-1.0854 0.287758 0)
(-0.208478 1.68932 0)
(-0.497069 2.22565 0)
(-0.549428 1.91516 0)
(-0.523254 1.12626 0)
(-0.513618 0.875773 0)
(-0.499206 0.613547 0)
(-0.487994 0.588568 0)
(-0.480215 0.4264 0)
(-0.480288 0.448558 0)
(-0.486729 0.349985 0)
(-0.500402 0.361908 0)
(-0.51926 0.301744 0)
(-0.544733 0.307048 0)
(-0.577312 0.274358 0)
(-0.622955 0.292255 0)
(-0.680199 0.282347 0)
(-0.741612 0.31587 0)
(-0.802676 0.311491 0)
(-0.862025 0.336683 0)
(-0.919714 0.344695 0)
(-0.971918 0.363811 0)
(-1.01427 0.352624 0)
(-1.04134 0.315362 0)
(-0.222505 2.12254 0)
(-0.54422 2.40594 0)
(-0.64475 1.8886 0)
(-0.65965 1.1415 0)
(-0.654037 0.845201 0)
(-0.613936 0.589318 0)
(-0.571277 0.558643 0)
(-0.542441 0.419517 0)
(-0.528137 0.441133 0)
(-0.524025 0.359751 0)
(-0.531321 0.37322 0)
(-0.546534 0.324681 0)
(-0.573256 0.336579 0)
(-0.610814 0.315332 0)
(-0.662062 0.348679 0)
(-0.721516 0.343233 0)
(-0.777178 0.372673 0)
(-0.826045 0.365198 0)
(-0.869 0.385817 0)
(-0.905515 0.39026 0)
(-0.935481 0.40085 0)
(-0.957 0.379796 0)
(-0.963206 0.321644 0)
(-0.214618 2.56193 0)
(-0.551995 2.62909 0)
(-0.718376 1.93378 0)
(-0.785515 1.17879 0)
(-0.779717 0.796434 0)
(-0.71193 0.52963 0)
(-0.636514 0.499638 0)
(-0.584019 0.396762 0)
(-0.555784 0.421124 0)
(-0.543416 0.363192 0)
(-0.547266 0.380984 0)
(-0.562023 0.347045 0)
(-0.592722 0.371938 0)
(-0.637304 0.362543 0)
(-0.688601 0.404551 0)
(-0.739021 0.397812 0)
(-0.781545 0.416796 0)
(-0.815696 0.404532 0)
(-0.842669 0.41678 0)
(-0.860997 0.414431 0)
(-0.870971 0.416833 0)
(-0.869705 0.384176 0)
(-0.851619 0.305327 0)
(-0.208715 2.98746 0)
(-0.563532 2.89937 0)
(-0.784126 2.05252 0)
(-0.885864 1.22981 0)
(-0.875168 0.728822 0)
(-0.785078 0.438536 0)
(-0.68389 0.413203 0)
(-0.611862 0.358019 0)
(-0.574276 0.393701 0)
(-0.558213 0.362033 0)
(-0.561713 0.389531 0)
(-0.57997 0.371685 0)
(-0.615381 0.413754 0)
(-0.663692 0.414107 0)
(-0.711153 0.452263 0)
(-0.749191 0.439023 0)
(-0.775637 0.444917 0)
(-0.792541 0.427736 0)
(-0.802762 0.430969 0)
(-0.804209 0.420124 0)
(-0.793425 0.410328 0)
(-0.765392 0.361233 0)
(-0.721502 0.265975 0)
(-0.207829 3.40617 0)
(-0.552809 3.18413 0)
(-0.779486 2.2174 0)
(-0.899248 1.28758 0)
(-0.891237 0.652228 0)
(-0.792614 0.325424 0)
(-0.677356 0.308737 0)
(-0.596618 0.308918 0)
(-0.558223 0.366422 0)
(-0.545483 0.360358 0)
(-0.553806 0.403093 0)
(-0.579517 0.402323 0)
(-0.619027 0.458428 0)
(-0.665585 0.464799 0)
(-0.70733 0.491245 0)
(-0.73744 0.468548 0)
(-0.754705 0.459335 0)
(-0.761498 0.437142 0)
(-0.760699 0.431038 0)
(-0.747086 0.407831 0)
(-0.715523 0.380057 0)
(-0.664489 0.312029 0)
(-0.602726 0.208978 0)
(-0.151355 3.76724 0)
(-0.423272 3.44321 0)
(-0.644652 2.40875 0)
(-0.786343 1.35906 0)
(-0.797059 0.583455 0)
(-0.713101 0.210653 0)
(-0.614296 0.208327 0)
(-0.548692 0.26222 0)
(-0.521437 0.347126 0)
(-0.520274 0.365679 0)
(-0.539365 0.425331 0)
(-0.575119 0.441872 0)
(-0.619639 0.503349 0)
(-0.663496 0.510769 0)
(-0.698868 0.522799 0)
(-0.720932 0.489445 0)
(-0.730143 0.465055 0)
(-0.729053 0.437158 0)
(-0.717035 0.418142 0)
(-0.68777 0.377628 0)
(-0.638755 0.329264 0)
(-0.57417 0.246603 0)
(-0.507026 0.144829 0)
(-0.0425454 3.96216 0)
(-0.159931 3.63965 0)
(-0.326043 2.60185 0)
(-0.475259 1.45838 0)
(-0.534294 0.554226 0)
(-0.512162 0.133226 0)
(-0.470118 0.144168 0)
(-0.447212 0.237407 0)
(-0.448472 0.34581 0)
(-0.468765 0.386227 0)
(-0.503414 0.458806 0)
(-0.549515 0.490682 0)
(-0.59937 0.549408 0)
(-0.643852 0.553513 0)
(-0.677221 0.549158 0)
(-0.694735 0.502875 0)
(-0.699615 0.465792 0)
(-0.694153 0.429837 0)
(-0.673406 0.392531 0)
(-0.63303 0.333238 0)
(-0.575575 0.266632 0)
(-0.509419 0.177814 0)
(-0.445087 0.0814596 0)
(0.047459 3.95723 0)
(0.122646 3.68703 0)
(0.111292 2.73288 0)
(0.00295638 1.58625 0)
(-0.121373 0.610679 0)
(-0.210383 0.143991 0)
(-0.267443 0.148498 0)
(-0.31352 0.256375 0)
(-0.359891 0.374725 0)
(-0.410829 0.428917 0)
(-0.466539 0.50695 0)
(-0.525802 0.548455 0)
(-0.582578 0.598826 0)
(-0.628222 0.594695 0)
(-0.656595 0.570043 0)
(-0.666958 0.510017 0)
(-0.666329 0.462927 0)
(-0.653093 0.413909 0)
(-0.621306 0.355655 0)
(-0.572666 0.280637 0)
(-0.513564 0.20207 0)
(-0.4512 0.113188 0)
(-0.391396 0.0213055 0)
(0.0970666 3.81195 0)
(0.290552 3.56224 0)
(0.413069 2.74594 0)
(0.38278 1.71255 0)
(0.242266 0.750609 0)
(0.0805782 0.25607 0)
(-0.0581359 0.233219 0)
(-0.168905 0.329323 0)
(-0.259553 0.439516 0)
(-0.339917 0.496119 0)
(-0.415441 0.571672 0)
(-0.486672 0.614913 0)
(-0.549662 0.652763 0)
(-0.597108 0.634339 0)
(-0.622426 0.584375 0)
(-0.629625 0.513342 0)
(-0.626882 0.456216 0)
(-0.607869 0.388205 0)
(-0.570855 0.312202 0)
(-0.522862 0.226956 0)
(-0.468959 0.142161 0)
(-0.412312 0.053469 0)
(-0.355913 -0.0357823 0)
(0.129595 3.5841 0)
(0.377219 3.34668 0)
(0.543838 2.67087 0)
(0.558988 1.80286 0)
(0.448281 0.912844 0)
(0.275821 0.429729 0)
(0.0953649 0.380404 0)
(-0.0601841 0.449853 0)
(-0.186175 0.536761 0)
(-0.291485 0.585524 0)
(-0.384097 0.651285 0)
(-0.46535 0.688583 0)
(-0.5321 0.709514 0)
(-0.575504 0.668916 0)
(-0.593257 0.593097 0)
(-0.595428 0.514043 0)
(-0.585486 0.442768 0)
(-0.558174 0.355089 0)
(-0.517491 0.267219 0)
(-0.469531 0.175488 0)
(-0.417431 0.087075 0)
(-0.363592 -0.00250471 0)
(-0.310899 -0.089469 0)
(0.135672 3.31744 0)
(0.391499 3.10726 0)
(0.567182 2.56622 0)
(0.615239 1.84398 0)
(0.549442 1.04914 0)
(0.392999 0.624055 0)
(0.200336 0.561156 0)
(0.0261976 0.60052 0)
(-0.117051 0.656745 0)
(-0.236586 0.691566 0)
(-0.339994 0.742293 0)
(-0.428341 0.768066 0)
(-0.497726 0.766882 0)
(-0.537833 0.695499 0)
(-0.552539 0.599145 0)
(-0.554092 0.511741 0)
(-0.540538 0.421455 0)
(-0.511713 0.319976 0)
(-0.474218 0.223749 0)
(-0.430422 0.126726 0)
(-0.382216 0.0350098 0)
(-0.33189 -0.0551457 0)
(-0.282506 -0.139436 0)
(0.119094 3.06134 0)
(0.350657 2.87341 0)
(0.529448 2.44373 0)
(0.607473 1.83972 0)
(0.56917 1.15804 0)
(0.420395 0.821974 0)
(0.224976 0.753357 0)
(0.0454939 0.763795 0)
(-0.104597 0.788348 0)
(-0.230893 0.807084 0)
(-0.338942 0.83934 0)
(-0.427639 0.848993 0)
(-0.489029 0.817419 0)
(-0.516846 0.713245 0)
(-0.524023 0.603399 0)
(-0.51868 0.503681 0)
(-0.497566 0.394669 0)
(-0.464529 0.284581 0)
(-0.424355 0.181072 0)
(-0.379228 0.0800186 0)
(-0.33242 -0.0137901 0)
(-0.286569 -0.103023 0)
(-0.242809 -0.185186 0)
(0.107848 2.83321 0)
(0.317708 2.6578 0)
(0.492609 2.30379 0)
(0.584978 1.80837 0)
(0.55669 1.25633 0)
(0.415329 1.01535 0)
(0.231713 0.941011 0)
(0.0625853 0.926579 0)
(-0.0824406 0.922228 0)
(-0.207565 0.925944 0)
(-0.316572 0.938675 0)
(-0.405279 0.927993 0)
(-0.460908 0.856054 0)
(-0.482532 0.724313 0)
(-0.487854 0.604898 0)
(-0.479276 0.488193 0)
(-0.456447 0.365989 0)
(-0.425692 0.249139 0)
(-0.389132 0.139382 0)
(-0.348391 0.0353957 0)
(-0.305393 -0.0594397 0)
(-0.262802 -0.146276 0)
(-0.222538 -0.226395 0)
(0.109707 2.61452 0)
(0.306846 2.46737 0)
(0.455013 2.16947 0)
(0.523998 1.7805 0)
(0.475452 1.36145 0)
(0.331458 1.19709 0)
(0.16382 1.11237 0)
(0.0107312 1.07913 0)
(-0.124754 1.05166 0)
(-0.244073 1.04224 0)
(-0.346317 1.03474 0)
(-0.42019 0.995362 0)
(-0.455953 0.88056 0)
(-0.465477 0.731123 0)
(-0.463067 0.601018 0)
(-0.446421 0.466721 0)
(-0.418069 0.336017 0)
(-0.383059 0.213006 0)
(-0.343501 0.0990014 0)
(-0.302865 -0.0060244 0)
(-0.263932 -0.100375 0)
(-0.226998 -0.185279 0)
(-0.191524 -0.263525 0)
(0.10011 2.40361 0)
(0.27061 2.30873 0)
(0.387042 2.06214 0)
(0.434549 1.77074 0)
(0.38162 1.47322 0)
(0.255492 1.35686 0)
(0.115568 1.26178 0)
(-0.0167872 1.21666 0)
(-0.13865 1.17283 0)
(-0.24945 1.1524 0)
(-0.345659 1.12408 0)
(-0.409849 1.04482 0)
(-0.43518 0.892523 0)
(-0.440036 0.733619 0)
(-0.433521 0.589555 0)
(-0.413917 0.441749 0)
(-0.386315 0.304745 0)
(-0.354173 0.176777 0)
(-0.319483 0.060596 0)
(-0.283626 -0.0445095 0)
(-0.247894 -0.136944 0)
(-0.213725 -0.220183 0)
(-0.180908 -0.297268 0)
(0.073345 2.22925 0)
(0.200725 2.18365 0)
(0.282143 1.98834 0)
(0.296784 1.78208 0)
(0.23295 1.57927 0)
(0.124049 1.48708 0)
(0.00747173 1.3894 0)
(-0.107799 1.33796 0)
(-0.216553 1.28335 0)
(-0.315122 1.25234 0)
(-0.392187 1.19832 0)
(-0.431507 1.07462 0)
(-0.439042 0.895756 0)
(-0.432746 0.72894 0)
(-0.415238 0.57009 0)
(-0.387792 0.413923 0)
(-0.354979 0.271845 0)
(-0.319093 0.141297 0)
(-0.282888 0.0248132 0)
(-0.249111 -0.0787225 0)
(-0.217668 -0.170256 0)
(-0.186876 -0.25217 0)
(-0.156948 -0.328354 0)
(0.0438952 2.11141 0)
(0.124753 2.09219 0)
(0.174772 1.94769 0)
(0.171693 1.81112 0)
(0.115894 1.6705 0)
(0.0326805 1.58897 0)
(-0.0584823 1.49635 0)
(-0.153899 1.44282 0)
(-0.248476 1.3829 0)
(-0.33746 1.34133 0)
(-0.403079 1.25277 0)
(-0.428811 1.08558 0)