/*--------------------------------*- C++ -*----------------------------------*\
| =========                 |                                                 |
| \\      /  F ield         | OpenFOAM: The Open Source CFD Toolbox           |
|  \\    /   O peration     | Version:  2012                                  |
|   \\  /    A nd           | Website:  www.openfoam.com                      |
|    \\/     M anipulation  |                                                 |
\*---------------------------------------------------------------------------*/
FoamFile
{
    version     2.0;
    format      ascii;
    class       volScalarField;
    location    "0.98";
    object      volumeFraction1;
}
// * * * * * * * * * * * * * * * * * * * * * * * * * * * * * * * * * * * * * //

dimensions      [0 0 0 0 0 0 0];


internalField   nonuniform List<scalar> 
2268
(
1
1
1
1
1
1
1
1
1
1
1
1
1
1
1
1
1
1
1
1
1
1
0.999937
1
1
1
1
1
1
1
1
1
1
1
1
1
1
1
1
1
1
1
1
1
1
0.999828
1
1
1
1
1
1
1
1
1
1
1
1
1
1
1
1
1
1
1
1
1
1
0.999788
1
1
1
1
1
1
1
1
1
1
1
1
1
1
1
1
1
1
1
1
1
1
0.999788
1
1
1
1
1
1
1
1
1
1
1
1
1
1
1
1
1
1
1
1
1
1
0.999788
1
1
1
1
1
1
1
1
1
1
1
1
1
1
1
1
1
1
0.999997
0.999997
1
1
0.999788
1
1
1
1
1
1
1
1
1
1
1
1
1
1
1
0.999999
0.999975
0.999536
0.998162
0.998959
0.999877
0.999999
0.999933
1
1
1
1
1
1
1
1
1
1
1
1
0.999999
0.999975
0.99953
0.99654
0.977479
0.906242
0.809676
0.852222
0.999999
0.999999
0.999999
0.771516
0.771517
0.750173
0.754426
0.862699
0.935702
0.979084
0.981103
0.981103
0.981091
0.884954
0.844355
0.906272
0.974089
0.974089
0.96553
0.959164
0.981649
0.982322
0.771517
0.252899
0.122848
0.2249
0.476968
0.860262
0.981113
0.981114
0.981103
0.981103
0.981091
0.85021
0.912833
0.751802
0.606931
0.494097
0.483503
0.820802
0.985116
0.563975
0.0101059
0.0126253
0.297452
0.732075
0.895699
0.981127
0.981113
0.981114
0.981103
0.981067
0.975156
0.968177
0.730099
0.409202
0.213619
0.213619
0.620891
0.985116
0.0461628
0.010106
0.010208
0.18764
0.747797
0.907042
0.981125
0.981127
0.977055
0.932465
0.897242
0.978094
0.978094
0.940329
0.903017
0.640787
0.270052
0.789964
0.984998
0.141375
0.0502813
0.0121101
0.00129599
0.0805346
0.464937
0.981138
0.97442
0.649943
0.327909
0.256313
0.592196
0.978094
0.978094
0.978094
0.751034
0.680183
0.920823
0.989997
0.642036
0.440942
0.0547192
0.00129599
0.00129599
0.215686
0.860135
0.777405
0.0840588
0.0625469
0.0625735
0.0646912
0.370858
0.803182
0.978094
0.764228
0.842505
0.98338
0.989997
0.70435
0.461394
0.0466935
0.00130328
0.00831043
0.113804
0.695246
0.464776
0.0721026
0.163794
0.39711
0.244083
0.162897
0.217602
0.69413
0.843689
0.964577
0.98338
0.982484
0.70435
0.181723
0.0363156
0.033813
0.02884
0.0553595
0.615159
0.333383
0.0920364
0.570842
0.720623
0.581274
0.162897
0.146059
0.331477
0.883865
0.911184
0.929536
0.908314
1
1
1
1
1
1
1
1
0.999999
0.999969
0.999798
0.999049
0.995911
0.983503
0.89125
0.713734
0.51228
0.384111
0.268313
0.307665
0.552957
0.898739
0.994364
1
1
1
1
1
1
1
1
0.999984
0.979544
0.946429
0.856491
0.711122
0.527003
0.226832
0.028072
0.0170469
0.0170486
0.124868
0.193695
0.126279
0.342203
0.958986
1
0.999987
0.999821
1
1
0.922136
0.867855
0.928064
0.936166
0.849915
0.551904
0.199331
0.091422
0.00735718
0.00449537
0.00449945
0.0224835
0.320262
0.803581
0.909767
0.719605
0.361866
0.780269
0.999971
0.998677
0.967347
0.738812
0.502253
0.34752
0.353289
0.546131
0.688226
0.484984
0.0961852
0.0573558
0.0573564
0.0209713
0.000325904
0.00583043
0.251453
0.868018
0.95478
0.954774
0.934422
0.690865
0.695117
0.998963
0.93648
0.410916
0.0675011
0.0672537
0.0729632
0.0910631
0.182197
0.198256
0.121268
0.125831
0.242634
0.212499
0.0319347
0.000312657
0.0429312
0.64474
0.954777
0.954774
0.954805
0.873653
0.690863
0.816758
0.98398
0.527696
0.102792
0.0654974
0.0338139
0.0153244
0.00509016
0.00903393
0.0456909
0.211744
0.245183
0.245184
0.15014
0.0152985
0.000325904
0.0783021
0.678651
0.954774
0.954805
0.954803
0.923224
0.888454
0.942627
0.936376
0.322785
0.0317094
0.0180828
3.24285e-07
3.36473e-05
8.09247e-05
0.00018737
0.00952551
0.0818301
0.126406
0.056238
2.90741e-08
0.000846653
0.000352358
0.0173687
0.23365
0.692513
0.949768
0.954832
0.954803
0.954805
0.93828
0.908136
0.200311
5.78978e-11
0.0046787
3.24285e-07
3.24285e-07
3.24285e-07
0.000424681
0.00271488
1.33365e-10
1.33365e-10
1.33365e-10
2.91016e-08
5.21997e-05
0.00125281
0.00253503
1.82932e-10
0.0332351
0.451003
0.885278
0.954805
0.901637
0.509899
0.916577
0.207365
5.79851e-11
0.000190572
1.35155e-05
0.000106015
0.0019282
0.00302697
0.00200941
1.33365e-10
3.14536e-10
7.01398e-09
1.0722e-06
0.000933313
0.00204505
0.00157722
1.82932e-10
1.82932e-10
1.82932e-10
0.395203
0.839822
0.70634
0.105574
0.932629
0.266159
5.78978e-11
9.83508e-06
2.12466e-05
8.85383e-05
0.00192479
0.00302681
0.00135871
1.33365e-10
3.96499e-09
1.24727e-07
2.66318e-06
0.000559906
0.00203762
0.000962918
1.82932e-10
9.99726e-10
0.000154369
0.0080979
0.316521
0.559734
0.167622
0.932627
0.279429
5.79851e-11
1.02799e-07
7.26864e-06
4.90455e-05
0.000450773
0.00129809
0.000968786
0.00010706
3.9652e-09
3.12053e-07
2.79473e-06
3.93756e-05
0.000215399
3.9683e-10
1.06477e-09
3.9881e-09
1.9996e-06
0.000687934
0.0181755
0.199782
0.299055
0.825093
0.150996
7.0188e-05
5.32301e-11
6.80861e-07
9.00062e-06
1.4918e-05
4.18832e-05
4.09022e-05
8.55712e-10
1.84409e-07
3.98737e-07
2.74146e-07
1.37051e-10
8.85565e-10
1.22514e-09
4.31982e-09
4.82093e-09
1.8529e-07
1.14914e-05
0.00122844
0.0294236
0.155006
0.217876
0.0218755
3.2274e-05
5.32359e-11
2.02214e-08
7.5856e-08
3.05322e-07
3.95359e-07
5.94464e-10
8.55707e-10
9.52517e-09
5.10979e-08
3.63345e-09
1.37047e-10
9.55985e-10
3.53062e-09
4.62338e-09
3.0491e-09
6.69944e-09
5.31523e-06
9.24473e-05
0.000560011
0.00646582
0.0021049
0.000907213
2.28677e-06
5.32301e-11
4.23122e-10
2.97487e-09
6.03736e-09
5.58769e-10
5.94464e-10
7.23669e-10
1.93004e-10
1.66413e-10
1.66419e-10
5.69019e-10
8.57087e-10
8.52312e-10
1.29074e-09
1.00971e-09
3.06591e-10
6.46688e-11
6.46685e-11
6.46688e-11
6.46685e-11
3.59178e-05
4.48443e-05
5.49007e-11
5.49002e-11
2.81795e-10
1.08772e-09
4.96817e-10
2.95677e-10
7.21611e-10
2.43947e-09
4.40209e-09
2.84792e-09
5.37158e-10
5.16127e-10
5.51761e-10
1.94037e-10
6.46688e-11
6.46685e-11
6.46688e-11
1.22942e-10
7.66757e-07
8.54759e-05
0.000214301
2.25932e-05
2.27657e-05
0.000182625
5.33782e-11
1.39677e-10
4.05648e-10
2.15065e-10
2.95678e-10
8.33679e-10
2.55061e-09
3.57575e-09
1.3179e-09
2.40079e-10
3.26071e-10
3.08124e-10
1.60501e-10
9.32061e-11
7.37825e-11
6.46685e-11
1.70049e-10
6.97081e-06
0.000131064
0.000148585
0.0901345
5.88534e-12
0.000220945
5.33785e-11
5.33782e-11
1.04276e-10
1.44129e-10
3.11715e-10
8.81359e-10
1.65566e-09
1.62625e-09
5.18215e-10
1.99998e-10
1.62137e-10
1.26768e-10
7.97235e-11
7.3419e-11
1.00717e-10
1.50781e-10
2.0455e-09
1.96899e-06
2.65012e-05
4.54836e-05
0.172246
5.92582e-23
0.000187448
5.33782e-11
3.12909e-09
3.04646e-11
1.27283e-10
3.41311e-10
7.53045e-10
9.15534e-10
6.12748e-10
1.95566e-10
1.18492e-10
8.71437e-11
5.98891e-11
4.69256e-11
7.83339e-11
3.31923e-10
1.71727e-09
3.13962e-09
7.64016e-10
1.37318e-10
4.70534e-07
0.172264
5.88534e-12
1.41884e-05
4.08417e-07
1.41873e-08
2.8057e-11
1.24064e-10
3.38036e-10
6.09706e-10
6.35706e-10
3.33599e-10
1.01567e-10
6.20324e-11
4.32916e-11
3.41993e-11
3.60377e-11
6.45405e-11
1.84271e-10
3.15617e-10
3.46593e-10
2.40708e-10
1.37317e-10
1.17185e-10
0.172263
0.000158124
8.022e-10
5.93757e-07
1.35024e-08
2.80584e-11
1.21096e-10
3.01065e-10
4.45827e-10
3.99257e-10
1.78891e-10
5.3644e-11
3.27406e-11
2.73609e-11
3.12979e-11
6.78551e-11
2.10065e-10
5.92411e-10
1.72186e-09
4.37909e-09
5.83373e-09
5.00996e-09
1.79944e-09
0.095718
0.000461382
8.035e-10
3.36859e-07
5.09355e-09
2.8057e-11
1.15708e-10
2.36625e-10
2.95446e-10
2.23771e-10
8.4899e-11
2.7418e-11
2.10447e-11
2.98585e-11
8.82827e-11
3.3447e-10
1.1495e-09
4.33266e-09
1.29098e-08
1.72637e-08
1.7026e-08
8.5451e-09
4.50763e-10
0.00141209
0.000389467
8.022e-10
2.97267e-08
3.86959e-10
2.86602e-11
1.01992e-10
1.74243e-10
1.98316e-10
1.22931e-10
4.11054e-11
1.81216e-11
2.1125e-11
5.4506e-11
2.11319e-10
8.59597e-10
7.13807e-09
3.55604e-08
3.92099e-08
2.16034e-08
1.43941e-09
2.57259e-09
7.98886e-10
1.51442e-05
0.000158306
8.035e-10
2.97011e-08
1.17389e-11
2.54978e-11
6.70794e-11
1.15729e-10
1.24104e-10
6.38471e-11
2.31782e-11
1.8259e-11
3.81698e-11
1.62538e-10
7.15647e-10
6.38577e-09
4.14142e-08
5.25853e-08
3.84807e-08
3.17472e-11
1.8176e-10
5.47289e-10
2.96267e-10
9.1282e-08
5.76794e-08
2.41538e-08
3.27795e-08
1.1739e-11
1.17389e-11
2.53856e-11
6.98508e-11
7.47686e-11
3.64428e-11
1.74971e-11
2.7324e-11
1.14946e-10
4.89164e-10
3.68106e-09
3.48939e-08
5.71573e-08
5.24273e-08
6.28872e-09
3.17485e-11
9.71221e-11
1.41701e-10
6.17497e-11
8.5997e-09
1.32179e-08
2.571e-08
1.51568e-08
4.36758e-09
1.42572e-08
7.45427e-12
3.80611e-11
4.3815e-11
1.8039e-11
9.72217e-12
1.4325e-11
7.18329e-11
5.94972e-10
1.02592e-08
5.26414e-08
5.71971e-08
2.55034e-08
2.94364e-11
3.21316e-11
5.44314e-11
5.57905e-11
2.62127e-11
8.31535e-09
8.15888e-09
2.34477e-09
2.35802e-09
2.34477e-09
1.49027e-07
7.45413e-12
2.21105e-11
2.93491e-11
2.13524e-11
3.62163e-11
1.51662e-10
5.6655e-10
4.77966e-09
3.46444e-08
5.26518e-08
2.68498e-08
6.94937e-10
2.94814e-11
3.49379e-11
4.08951e-11
3.66978e-11
1.65058e-11
8.65082e-09
2.35414e-08
6.80499e-08
2.34477e-09
6.24895e-07
3.0286e-07
7.45427e-12
1.29703e-11
2.35576e-11
3.14035e-11
1.21054e-10
5.70534e-10
4.93342e-09
4.57209e-08
7.65036e-08
3.17033e-08
9.61163e-12
1.68387e-10
4.01083e-11
3.5966e-11
3.03499e-11
2.22297e-11
8.81953e-12
8.64429e-09
1.69799e-08
1.23591e-06
5.51395e-06
5.28386e-06
6.51632e-07
7.45413e-12
7.45427e-12
1.74078e-11
3.2263e-11
1.70933e-10
1.46083e-09
2.81566e-08
7.65036e-08
7.63865e-08
1.6764e-08
9.61162e-12
4.21359e-11
3.84555e-11
2.65525e-11
1.64398e-11
8.64091e-12
3.08108e-12
8.5156e-09
9.82687e-09
1.33364e-06
1.27762e-05
1.57266e-05
3.53641e-06
7.45427e-12
7.45413e-12
1.21395e-11
2.29575e-11
1.33146e-10
1.21018e-09
2.33844e-08
7.63865e-08
5.7943e-08
9.61162e-12
9.79361e-12
1.91274e-11
2.17864e-11
1.09168e-11
5.07918e-12
2.22243e-12
6.59121e-13
6.7028e-09
6.70306e-09
1.87393e-06
9.36369e-06
4.17407e-05
1.04433e-05
7.45413e-12
7.45427e-12
1.04433e-11
1.76417e-11
4.0839e-11
4.70152e-10
9.68946e-09
3.23078e-08
1.73487e-08
9.61163e-12
9.61162e-12
9.74308e-12
5.69138e-12
2.63366e-12
1.06169e-12
3.58696e-13
7.65404e-14
5.00348e-09
1.44604e-07
1.94391e-06
1.35985e-06
8.26366e-05
2.30397e-05
7.45427e-12
7.5476e-12
2.45285e-11
1.782e-10
6.35719e-10
4.05152e-10
1.02258e-09
2.11423e-08
8.00259e-10
9.61164e-12
2.93599e-11
6.45153e-12
1.62217e-12
4.99735e-13
1.55266e-13
3.58968e-14
4.46164e-15
5.00348e-09
4.46202e-07
8.2192e-07
2.97258e-07
8.60923e-05
3.1351e-05
2.11436e-08
7.54759e-12
3.05311e-11
2.63274e-10
1.82747e-09
2.4356e-08
6.98851e-08
7.1027e-09
3.81551e-12
3.46062e-11
3.11253e-11
4.28139e-12
5.29462e-13
7.90323e-14
1.59729e-14
2.08938e-15
1.05528e-16
5.00348e-09
2.62817e-07
5.00348e-09
5.07109e-06
8.6149e-05
2.64282e-05
3.67012e-08
9.70832e-12
4.27042e-11
7.85544e-10
2.72711e-08
1.6992e-07
1.60231e-07
2.86529e-12
3.81638e-12
2.18398e-11
1.72463e-11
1.92899e-12
1.59905e-13
1.13839e-14
1.20505e-15
6.39377e-17
5.26895e-18
5.00348e-09
5.00348e-09
5.00348e-09
8.26262e-05
8.66564e-05
1.10384e-05
1.77443e-08
1.07236e-11
4.27553e-11
1.59272e-09
8.5723e-08
1.76189e-07
1.5219e-07
2.8653e-12
3.31493e-12
7.70024e-12
4.28561e-12
5.38929e-13
3.755e-14
1.43942e-15
6.06967e-17
9.49554e-19
2.94889e-19
8.11465e-06
8.63367e-06
6.0621e-05
9.7443e-05
5.77961e-05
1.69205e-06
2.18794e-09
1.22457e-11
5.17125e-11
2.24856e-09
1.03157e-07
1.76112e-07
8.42538e-08
2.86529e-12
2.8653e-12
3.15968e-12
9.81915e-13
1.22967e-13
6.9397e-15
1.51356e-16
1.5935e-18
5.86946e-20
1.58974e-20
6.1478e-05
8.82796e-05
9.68993e-05
9.69197e-05
1.39071e-05
2.55665e-07
4.71737e-10
1.50024e-11
7.41184e-11
2.40464e-09
6.94401e-08
1.21486e-07
6.69128e-09
2.8653e-12
3.28109e-12
1.42323e-12
2.53567e-13
2.48278e-14
9.76796e-16
1.04749e-17
1.84734e-20
2.81647e-21
6.90656e-22
1.88076e-05
3.22667e-05
5.51704e-05
2.08936e-05
1.43481e-06
4.73758e-08
2.96248e-10
1.76383e-11
1.02693e-10
2.11883e-09
1.51641e-08
1.74067e-08
4.44781e-10
6.97914e-12
4.68417e-12
9.58528e-13
8.33487e-14
4.94626e-15
1.11317e-16
3.79068e-19
1.2201e-21
1.37321e-22
2.80857e-23
4.31052e-08
1.87815e-07
5.88056e-07
1.7654e-07
5.64087e-08
6.70514e-09
1.90529e-10
1.6231e-11
6.58688e-11
6.05192e-10
1.55464e-09
7.05791e-09
4.88116e-12
2.20109e-11
5.63784e-12
6.42238e-13
2.88511e-14
9.2795e-16
9.27042e-18
2.20625e-21
4.59983e-23
4.45056e-24
8.3545e-25
1.76382e-11
3.19906e-11
1.88403e-11
3.92362e-11
2.03947e-10
5.66865e-10
6.38048e-11
1.23798e-11
1.68315e-11
1.30103e-11
1.30099e-11
1.86188e-09
4.87268e-12
2.14504e-11
4.00282e-12
2.90218e-13
8.84195e-15
1.57274e-16
5.42338e-19
3.69906e-23
1.69892e-24
1.30082e-25
2.09167e-26
3.3848e-12
2.09235e-12
7.21162e-13
3.72404e-12
2.86795e-11
1.09273e-10
7.07796e-11
1.23405e-11
1.234e-11
1.405e-07
4.71971e-08
2.31874e-12
5.7568e-12
1.20973e-11
1.68482e-12
8.73329e-14
2.10774e-15
2.02127e-17
1.36445e-20
5.62107e-25
2.3074e-26
1.75895e-27
2.97674e-28
1.39181e-12
7.46787e-13
3.44512e-13
1.78449e-12
1.14964e-11
4.01306e-11
2.96989e-10
9.90419e-09
1.31546e-07
2.54998e-07
1.17891e-07
2.31874e-12
4.29012e-12
5.34287e-12
6.04645e-13
2.07413e-14
3.9807e-16
1.90526e-18
2.9063e-23
4.40333e-27
1.35782e-28
1.11091e-29
2.16365e-30
3.89493e-13
1.98325e-13
2.69012e-13
2.236e-12
1.8169e-11
1.03392e-10
1.63441e-09
1.01086e-07
3.5069e-07
2.55e-07
3.31625e-08
2.31874e-12
3.02756e-12
1.76908e-12
1.66937e-13
3.42003e-15
5.08062e-17
1.06586e-19
-1.3416e-59
8.64237e-35
4.66426e-37
3.96114e-38
3.38403e-39
0.99617
0.996166
0.883272
0.745821
0.996166
0.851466
0.807544
0.82782
0.74854
0.748582
0.907692
0.901683
0.861264
0.951731
0.951721
0.788226
0.951731
0.951721
0.9136
0.605457
0.951721
0.951688
0.557812
0.182925
0.593771
0.240833
0.0621393
0.00671976
0.0151177
0.00559782
0.00403243
0.000917117
0.00434585
0.00434722
0.00434675
0.0255131
0.00434824
0.0137055
0.0212027
0.0293723
0.167953
0.0704301
0.0528021
0.0703818
0.175671
0.117234
0.0514597
0.070372
0.0210037
0.0165149
0.00949556
0.00477243
6.46688e-11
6.46685e-11
6.46688e-11
0.000218087
0.000186676
1.06672e-06
6.46685e-11
6.46688e-11
1.83606e-07
1.83558e-07
1.83569e-07
1.65612e-07
1.48514e-06
1.39862e-06
4.29084e-06
4.03254e-06
2.9115e-05
3.12729e-05
3.12748e-05
3.12652e-05
1.17184e-10
1.17185e-10
1.17184e-10
1.17185e-10
7.25706e-10
5.95163e-10
4.77408e-10
3.99978e-10
4.51981e-10
6.06979e-10
5.90437e-10
4.65377e-10
1.27519e-10
1.56461e-10
1.09817e-10
6.79166e-11
2.81191e-11
2.2066e-11
1.46682e-11
9.88731e-12
1.51142e-11
1.06497e-11
7.33728e-12
5.10818e-12
1.02978e-11
6.68231e-12
4.22927e-12
2.69177e-12
6.45646e-12
3.82098e-12
2.2208e-12
1.31295e-12
3.00036e-12
1.63716e-12
8.8275e-13
4.91008e-13
9.24141e-13
4.62676e-13
2.31237e-13
1.23829e-13
1.5837e-13
6.92167e-14
3.23717e-14
1.82704e-14
1.17499e-14
4.62989e-15
2.65345e-15
1.68064e-15
5.22325e-16
3.26218e-16
2.12393e-16
1.39452e-16
3.68943e-17
2.43684e-17
1.60679e-17
1.07244e-17
2.44828e-18
1.61707e-18
1.07104e-18
7.20638e-19
1.34813e-19
8.92985e-20
5.95313e-20
4.04078e-20
6.95531e-21
4.56525e-21
3.03216e-21
2.05771e-21
2.93903e-22
1.9157e-22
1.26769e-22
8.59219e-23
1.12648e-23
7.21823e-24
4.71836e-24
3.16903e-24
3.24703e-25
2.05077e-25
1.32611e-25
8.84147e-26
7.72299e-27
4.76206e-27
3.01419e-27
1.97483e-27
1.10452e-28
6.77494e-29
4.27123e-29
2.79283e-29
8.19442e-31
5.02468e-31
3.16012e-31
2.05601e-31
4.74537e-40
1.84437e-40
7.41232e-41
3.19829e-41
0.702402
0.190725
0.178297
0.117281
0.0160536
0.0292983
0.618081
0.263696
0.124312
0.671801
0.720743
0.720623
0.417613
0.330849
0.718044
0.891235
0.851184
0.68871
0.639897
0.671184
0.215282
0.170079
0.166829
0.0160534
0.217232
0.619337
0.199041
0.0563665
0.380465
0.664831
0.491368
0.422841
0.499727
0.506491
0.399182
0.193809
0.105195
0.0986648
0.625675
0.426657
0.82006
0.798548
0.655007
0.822971
0.605932
0.0537101
0.0537101
0.215082
0.198432
0.0212453
9.69848e-06
9.69848e-06
9.69848e-06
9.69848e-06
9.69848e-06
9.69848e-06
0.000315229
0.609708
0.665913
0.82006
0.790884
0.790585
0.804047
0.762132
0.255227
0.0554936
0.0772228
0.147981
0.0699353
0.00407118
0.000187539
3.58359e-05
1.14351e-05
9.69848e-06
4.69435e-05
8.65101e-05
0.385511
0.240939
0.162711
0.0663256
0.104326
0.140627
0.259797
0.537424
0.538984
0.532596
0.328222
0.0927387
0.0210661
0.0150697
0.00389878
0.000368878
8.22516e-05
0.000107284
8.45916e-05
0.0501632
0.000801453
0.00391481
3.91629e-07
3.9163e-07
3.91629e-07
3.9163e-07
3.91629e-07
0.0553478
3.33041e-07
3.33075e-07
0.00636486
0.0321544
0.0323454
0.0264224
0.00299651
0.000404066
9.92331e-05
8.45902e-05
0.00275707
0.000801592
0.00675965
0.0251246
0.0224397
0.000629708
9.42255e-06
6.47778e-07
6.46877e-07
8.42002e-06
3.33078e-07
3.22454e-07
0.0052197
0.0254802
0.0278355
0.0143024
0.000387261
7.04956e-05
6.11636e-05
0.000918031
0.00331205
0.0206439
0.0942834
0.0538421
1.7743e-05
1.77443e-05
0.000106482
0.000106483
2.82871e-05
2.87409e-07
3.2246e-07
3.22454e-07
3.2243e-07
0.0114336
0.00743861
0.00028382
7.23669e-05
2.31497e-05
0.0481161
0.0658755
0.0989925
0.0989942
0.0513705
0.000197769
1.56854e-05
1.94225e-05
6.52298e-06
2.87409e-07
2.87501e-07
3.81629e-07
3.82438e-07
3.67806e-07
3.67851e-07
0.000633841
0.000117013
4.13408e-05
1.19261e-10
0.0603135
0.0713966
0.0779313
0.0545296
0.0126356
0.000279387
3.25489e-07
1.29695e-06
2.91174e-07
2.91174e-07
2.87464e-07
1.3662e-07
3.5023e-07
4.72347e-07
3.19167e-06
8.73656e-06
1.93804e-05
5.04117e-06
1.19261e-10
0.0212826
1.19133e-06
1.19128e-06
1.19133e-06
1.19128e-06
5.53194e-05
3.24754e-07
3.4596e-07
3.80436e-07
4.1046e-07
3.75412e-07
5.00775e-09
5.00856e-09
5.00775e-09
5.00856e-09
5.87135e-09
6.1718e-09
2.31116e-08
1.19261e-10
0.0460225
0.00756626
0.000797829
0.000261661
1.19133e-06
1.19128e-06
1.27644e-06
1.83658e-06
1.54473e-06
3.58684e-07
9.09765e-08
9.61195e-09
3.4081e-08
5.91854e-08
6.38535e-08
3.75362e-08
1.11501e-09
2.4189e-09
2.38802e-08
0.00157474
0.0112824
0.0106086
2.50563e-06
2.50594e-06
1.76134e-06
4.23708e-07
1.18105e-06
1.07282e-06
5.2849e-07
1.59698e-08
1.08127e-08
8.67144e-08
1.91688e-07
1.91688e-07
6.34467e-08
1.11499e-09
3.87237e-09
2.26255e-07
0.00157345
0.00718039
0.00696574
2.50556e-06
6.07022e-06
1.85114e-05
1.29608e-07
1.29636e-07
3.94101e-10
2.18925e-07
6.46683e-08
4.96641e-09
2.58254e-08
1.68359e-07
1.91688e-07
5.20802e-08
1.9985e-10
1.38606e-08
2.9443e-07
6.46685e-11
6.46688e-11
0.00059216
0.00020946
6.07129e-06
1.85109e-05
3.28192e-07
1.80058e-07
3.94109e-10
3.94101e-10
1.76768e-08
4.83787e-09
1.30114e-09
6.74999e-09
6.67228e-08
3.28892e-08
1.9985e-10
9.03909e-08
2.94568e-07
3.05162e-07
1.67377e-05
5.84131e-05
0.000111244
1.55551e-05
2.20639e-06
4.71277e-07
5.35644e-08
3.94101e-10
8.67153e-10
7.48721e-10
2.82716e-09
2.30145e-09
2.95456e-10
2.95453e-10
2.34195e-09
1.9985e-10
1.54371e-07
2.94523e-07
1.66862e-06
1.19652e-07
8.8207e-07
3.37455e-06
5.92255e-06
5.19406e-11
7.84931e-08
6.42229e-10
3.70229e-09
1.27691e-08
2.03722e-09
8.1093e-09
1.1943e-07
1.06265e-07
1.23971e-08
1.14967e-09
1.9985e-10
1.16837e-07
1.67959e-07
8.789e-06
2.82737e-09
3.36841e-09
3.52603e-09
5.09531e-11
5.19407e-11
5.19406e-11
6.42222e-10
5.29281e-09
4.13881e-08
8.43147e-08
5.7346e-08
3.28912e-07
5.14317e-07
1.77386e-07
7.19328e-09
3.56561e-10
1.69606e-08
4.64565e-09
1.17184e-10
2.82738e-09
5.60677e-09
3.81437e-09
5.09432e-11
9.96696e-11
2.15702e-10
4.89053e-10
1.43355e-09
4.30553e-08
2.83411e-07
3.16966e-07
3.30008e-07
5.62071e-07
5.62072e-07
6.36371e-08
9.81098e-10
1.06433e-09
1.53143e-09
3.30315e-10
2.60176e-10
2.01623e-10
1.27609e-10
1.07215e-10
1.13101e-10
1.66403e-10
2.02009e-10
4.38993e-10
1.03522e-08
2.39709e-07
4.72129e-07
2.02597e-07
2.29592e-07
5.72285e-07
2.15953e-07
4.13999e-09
1.24836e-09
2.35009e-09
2.64039e-10
9.52771e-11
4.32564e-11
3.31867e-11
3.62134e-11
4.70283e-11
6.09568e-11
8.36586e-11
1.70093e-10
1.37771e-09
5.44731e-08
4.7243e-07
2.02434e-07
1.7904e-07
5.66471e-07
3.50649e-07
1.50874e-08
2.60399e-09
4.54472e-09
3.37783e-11
1.23071e-11
9.94737e-12
1.00248e-11
1.34443e-11
1.65155e-11
2.09047e-11
3.46e-11
5.14856e-11
5.14934e-11
5.14766e-11
4.72504e-07
1.76757e-06
4.09902e-07
3.28628e-07
4.63372e-07
3.91198e-08
5.74141e-09
4.89419e-09
6.25853e-12
3.82555e-12
3.21348e-12
3.10934e-12
3.85333e-12
4.85938e-12
6.83407e-12
1.24391e-11
2.55502e-11
5.71642e-11
8.20597e-10
1.44434e-07
3.05547e-06
3.92724e-06
4.49422e-07
4.80111e-07
8.45069e-08
1.4004e-08
4.89416e-09
3.01739e-12
1.29405e-12
8.29644e-13
7.36295e-13
8.6893e-13
1.26205e-12
2.10096e-12
4.55609e-12
1.14668e-11
2.90823e-11
7.43969e-11
6.94058e-09
1.31388e-06
4.41048e-06
3.24825e-06
4.26598e-07
1.09948e-07
1.40039e-08
4.05837e-08
1.36757e-12
3.73349e-13
1.68856e-13
1.34135e-13
1.54474e-13
2.65216e-13
5.49293e-13
1.62029e-12
6.3559e-12
2.73488e-11
1.15606e-10
2.88427e-09
1.70668e-07
3.50089e-06
5.02312e-06
2.92447e-07
1.24409e-07
2.35603e-08
1.71313e-07
6.03878e-13
1.13469e-13
3.11317e-14
1.95597e-14
2.15037e-14
4.63563e-14
1.39082e-13
6.21975e-13
3.38881e-12
1.84364e-11
7.28527e-11
1.17843e-10
1.17856e-10
1.17847e-10
4.65296e-06
1.68522e-07
1.71513e-07
1.61528e-07
1.73739e-07
2.14805e-13
3.5028e-14
6.11727e-15
2.36056e-15
2.42708e-15
7.06066e-15
3.24794e-14
1.92321e-13
1.15744e-12
5.99773e-12
2.50176e-11
8.34562e-11
2.71705e-09
1.67984e-07
1.46897e-07
1.46897e-07
1.38592e-07
1.73739e-07
1.73739e-07
5.43984e-14
9.22169e-15
1.32213e-15
2.69831e-16
2.29563e-16
9.32553e-16
6.11588e-15
4.31507e-14
2.81855e-13
1.57742e-12
7.85115e-12
3.91773e-11
4.9108e-10
2.70952e-07
5.35988e-06
3.3855e-06
1.14159e-07
1.17077e-07
1.15313e-07
8.49684e-15
1.69169e-15
2.58063e-16
3.54914e-17
1.84002e-17
9.44353e-17
7.79468e-16
6.07911e-15
4.09316e-14
2.13737e-13
6.67767e-13
1.35059e-12
7.32174e-12
1.485e-08
1.10175e-05
2.94472e-05
1.14057e-07
1.24846e-08
9.93554e-09
8.44556e-16
2.09687e-16
3.92271e-17
5.31275e-18
1.31895e-18
5.60573e-18
5.20875e-17
4.25046e-16
2.87743e-15
1.55169e-14
9.24528e-14
1.09641e-12
1.42975e-11
1.1706e-08
6.85489e-06
3.0096e-05
7.26262e-07
8.71694e-09
8.7169e-09
7.35558e-17
2.13127e-17
4.77804e-18
7.40959e-19
1.03306e-19
1.25774e-19
1.24362e-18
1.07532e-17
9.7006e-17
1.80895e-15
6.06678e-14
1.75807e-12
4.25549e-11
4.74104e-09
1.02378e-06
1.97878e-05
2.88937e-06
1.49137e-08
1.05878e-07
5.80967e-18
1.83933e-18
4.67865e-19
8.41096e-20
9.65112e-21
7.91929e-22
2.25492e-21
1.20284e-19
9.26004e-18
6.46896e-16
3.82611e-14
1.81306e-12
7.2627e-11
9.97341e-10
2.54857e-14
2.55118e-14
6.40631e-06
2.87761e-07
5.64139e-07
3.96715e-19
1.33685e-19
3.75241e-20
7.66276e-21
9.98489e-22
5.20582e-23
6.93415e-23
8.48622e-21
9.53589e-19
8.65345e-17
5.92952e-15
2.79049e-13
4.73619e-12
3.97242e-16
1.28054e-12
9.64568e-08
2.32658e-05
1.37554e-06
1.27911e-06
2.26203e-20
8.05568e-21
2.48415e-21
5.71861e-22
8.6787e-23
3.9627e-24
2.64874e-25
5.10154e-26
3.03943e-24
2.69283e-22
5.64908e-21
-6.12289e-31
6.93046e-35
3.97337e-16
2.82669e-13
5.58198e-08
3.02703e-05
3.73935e-06
1.06855e-06
1.15953e-21
4.28387e-22
1.42975e-22
3.66453e-23
6.49866e-24
2.71583e-25
1.57603e-26
1.61601e-27
6.28583e-29
2.21532e-30
-1.14594e-50
-7.32613e-33
-1.35773e-30
-1.43743e-28
-1.30851e-26
-1.24504e-24
3.02703e-05
6.53585e-06
8.22163e-07
4.8629e-23
1.84048e-23
6.54486e-24
1.85696e-24
3.90445e-25
1.65827e-26
9.74326e-28
9.42163e-29
6.29857e-30
3.33136e-31
3.42275e-32
1.88581e-33
7.35456e-35
-1.26296e-30
-9.38506e-28
-5.9365e-25
3.02683e-05
9.76253e-06
5.6164e-07
1.78415e-24
6.83324e-25
2.55511e-25
7.86343e-26
1.90243e-26
1.11442e-27
6.88846e-29
5.28034e-30
4.00044e-31
2.6001e-32
1.43809e-33
6.2778e-35
2.266e-36
-1.70915e-31
-1.98656e-28
-1.89455e-25
3.0265e-05
1.16228e-05
2.25271e-07
4.96376e-26
1.92059e-26
7.447e-27
2.42354e-27
6.56618e-28
4.94947e-29
3.45512e-30
2.49023e-31
1.83131e-32
1.26916e-33
7.87296e-35
4.05572e-36
1.74866e-37
-1.86473e-32
-3.46145e-29
-3.62833e-26
2.79281e-05
1.25812e-05
2.25284e-07
1.09233e-27
4.24478e-28
1.71654e-28
5.80363e-29
1.78287e-29
1.79372e-30
1.40243e-31
9.96745e-33
6.91819e-34
4.6984e-35
2.98186e-36
1.6506e-37
7.83803e-39
-1.51709e-33
-4.56359e-30
-4.04899e-27
3.63142e-06
2.01671e-05
1.12075e-06
1.54575e-29
6.08829e-30
2.50691e-30
8.65343e-31
2.71933e-31
2.93015e-32
2.43631e-33
1.81022e-34
1.27648e-35
8.77059e-37
5.67067e-38
3.26814e-39
1.63671e-40
-8.25997e-35
-3.97348e-31
-7.04868e-28
-1.50628e-28
2.01616e-05
2.15798e-06
1.13025e-31
4.48742e-32
1.90468e-32
6.72914e-33
2.28265e-33
3.05357e-34
2.89273e-35
2.29226e-36
1.63593e-37
1.11109e-38
7.05302e-40
4.04415e-41
2.03671e-42
-2.08841e-36
-1.63146e-32
-1.04586e-28
-1.22059e-28
7.33535e-06
1.9259e-06
1.04506e-41
1.16363e-42
1.21633e-43
6.71887e-45
4.23111e-46
2.21702e-47
1.22373e-48
3.63821e-50
3.99616e-52
9.57222e-71
-2.64036e-53
-1.50531e-53
-5.19718e-54
-2.22535e-54
-3.49845e-54
-8.0931e-30
-3.05454e-29
9.92281e-06
2.08421e-06
)
;

boundaryField
{
    leftWall
    {
        type            zeroGradient;
    }
    rightWall
    {
        type            zeroGradient;
    }
    lowerWall
    {
        type            zeroGradient;
    }
    atmosphere
    {
        type            inletOutlet;
        inletValue      uniform 0;
        value           nonuniform List<scalar> 
46
(
3.89493e-13
1.98325e-13
2.69012e-13
2.236e-12
1.8169e-11
1.03392e-10
1.63441e-09
1.01086e-07
3.5069e-07
2.55e-07
3.31625e-08
2.31874e-12
3.02756e-12
1.76908e-12
1.66937e-13
3.42003e-15
5.08062e-17
1.06586e-19
0
0
0
0
0
0
0
0
0
0
0
0
0
0
0
0
0
0
0
0
0
0
0
0
0
0
9.92281e-06
2.08421e-06
)
;
    }
    defaultFaces
    {
        type            empty;
    }
}


// ************************************************************************* //
