/*--------------------------------*- C++ -*----------------------------------*\
| =========                 |                                                 |
| \\      /  F ield         | OpenFOAM: The Open Source CFD Toolbox           |
|  \\    /   O peration     | Version:  v2012                                 |
|   \\  /    A nd           | Website:  www.openfoam.com                      |
|    \\/     M anipulation  |                                                 |
\*---------------------------------------------------------------------------*/
FoamFile
{
    version     2.0;
    format      ascii;
    class       surfaceScalarField;
    location    "0.3";
    object      phi;
}
// * * * * * * * * * * * * * * * * * * * * * * * * * * * * * * * * * * * * * //

dimensions      [0 3 -1 0 0 0 0];
oriented        oriented;


internalField   nonuniform List<scalar> 
4432
(
4.11871e-06
-4.11871e-06
8.2108e-06
-4.09209e-06
1.22526e-05
-4.04184e-06
1.63755e-05
-4.12282e-06
2.03943e-05
-4.01882e-06
2.43155e-05
-3.92119e-06
2.815e-05
-3.83454e-06
3.19906e-05
-3.84058e-06
3.55397e-05
-3.54906e-06
3.90492e-05
-3.50955e-06
4.21291e-05
-3.07981e-06
4.46189e-05
-2.48987e-06
4.71178e-05
-2.49882e-06
4.89887e-05
-1.87096e-06
4.9935e-05
-9.46281e-07
4.97906e-05
1.4438e-07
4.85352e-05
1.25538e-06
4.59038e-05
2.63149e-06
4.15879e-05
4.31588e-06
3.4913e-05
6.67486e-06
2.6102e-05
8.81098e-06
1.42509e-05
1.18511e-05
1.4251e-05
4.1146e-06
-8.2333e-06
8.21546e-06
-8.19294e-06
1.22611e-05
-8.08746e-06
1.63827e-05
-8.24443e-06
2.04071e-05
-8.04323e-06
2.43357e-05
-7.84977e-06
2.81786e-05
-7.67742e-06
3.20193e-05
-7.68128e-06
3.5584e-05
-7.11377e-06
3.91169e-05
-7.0425e-06
4.21996e-05
-6.16251e-06
4.48063e-05
-5.09652e-06
4.72888e-05
-4.98137e-06
4.89853e-05
-3.56742e-06
5.00446e-05
-2.0056e-06
5.00884e-05
1.00581e-07
4.88685e-05
2.47532e-06
4.61642e-05
5.3358e-06
4.1646e-05
8.83402e-06
3.45595e-05
1.37614e-05
2.4999e-05
1.83715e-05
1.23531e-05
2.4497e-05
2.66043e-05
4.11298e-06
-1.23463e-05
8.22921e-06
-1.23092e-05
1.22784e-05
-1.21367e-05
1.63992e-05
-1.23652e-05
2.04379e-05
-1.20819e-05
2.43827e-05
-1.17946e-05
2.82448e-05
-1.15396e-05
3.2092e-05
-1.15284e-05
3.56883e-05
-1.07101e-05
3.92572e-05
-1.06113e-05
4.23613e-05
-9.26663e-06
4.51077e-05
-7.84291e-06
4.76035e-05
-7.47725e-06
4.92985e-05
-5.26239e-06
5.05403e-05
-3.24737e-06
5.08477e-05
-2.0683e-07
4.99087e-05
3.41432e-06
4.75717e-05
7.67281e-06
4.36655e-05
1.27402e-05
3.73654e-05
2.00615e-05
2.85136e-05
2.72233e-05
1.54415e-05
3.75691e-05
4.20459e-05
4.11367e-06
-1.64599e-05
8.24395e-06
-1.64395e-05
1.22941e-05
-1.61869e-05
1.64099e-05
-1.6481e-05
2.04631e-05
-1.61351e-05
2.44315e-05
-1.5763e-05
2.83205e-05
-1.54286e-05
3.21751e-05
-1.5383e-05
3.5808e-05
-1.4343e-05
3.9417e-05
-1.42204e-05
4.25581e-05
-1.24078e-05
4.54358e-05
-1.07206e-05
4.79906e-05
-1.00321e-05
4.97282e-05
-6.99994e-06
5.10014e-05
-4.52063e-06
5.13384e-05
-5.43816e-07
5.05507e-05
4.20209e-06
4.8145e-05
1.00785e-05
4.40165e-05
1.68686e-05
3.74277e-05
2.66504e-05
2.84432e-05
3.62078e-05
1.53916e-05
5.06207e-05
5.74377e-05
4.11883e-06
-2.05788e-05
8.2662e-06
-2.05868e-05
1.23247e-05
-2.02453e-05
1.64404e-05
-2.05967e-05
2.05127e-05
-2.02073e-05
2.45156e-05
-1.97659e-05
2.84448e-05
-1.93578e-05
3.23161e-05
-1.92543e-05
3.60064e-05
-1.80333e-05
3.96678e-05
-1.78817e-05
4.2869e-05
-1.5609e-05
4.59352e-05
-1.37868e-05
4.85869e-05
-1.26838e-05
5.04961e-05
-8.90905e-06
5.19903e-05
-6.01485e-06
5.266e-05
-1.2135e-06
5.24212e-05
4.44081e-06
5.07325e-05
1.17673e-05
4.7458e-05
2.01431e-05
4.16875e-05
3.24209e-05
3.32492e-05
4.46461e-05
1.96204e-05
6.42495e-05
7.70582e-05
4.12121e-06
-2.47e-05
8.27989e-06
-2.47455e-05
1.23476e-05
-2.4313e-05
1.64634e-05
-2.47126e-05
2.05497e-05
-2.42936e-05
2.45834e-05
-2.37996e-05
2.8551e-05
-2.33254e-05
3.24389e-05
-2.31422e-05
3.61891e-05
-2.17835e-05
3.98964e-05
-2.1589e-05
4.31736e-05
-1.88862e-05
4.64281e-05
-1.70412e-05
4.9171e-05
-1.54268e-05
5.12562e-05
-1.09943e-05
5.29832e-05
-7.74183e-06
5.36657e-05
-1.89603e-06
5.35096e-05
4.59692e-06
5.18382e-05
1.34387e-05
4.85428e-05
2.34385e-05
4.25812e-05
3.83826e-05
3.40514e-05
5.31759e-05
1.96435e-05
7.86574e-05
9.67019e-05
4.13042e-06
-2.88304e-05
8.30561e-06
-2.89207e-05
1.23907e-05
-2.83981e-05
1.6518e-05
-2.88399e-05
2.06301e-05
-2.84056e-05
2.47042e-05
-2.78738e-05
2.87251e-05
-2.73462e-05
3.26477e-05
-2.70649e-05
3.64774e-05
-2.56132e-05
4.02354e-05
-2.5347e-05
4.36247e-05
-2.22755e-05
4.71138e-05
-2.05303e-05
4.99567e-05
-1.82696e-05
5.23622e-05
-1.33998e-05
5.43362e-05
-9.71582e-06
5.5414e-05
-2.9739e-06
5.58785e-05
4.13251e-06
5.50984e-05
1.42187e-05
5.30687e-05
2.54682e-05
4.84459e-05
4.30054e-05
4.13639e-05
6.02579e-05
2.67281e-05
9.32932e-05
0.00012343
4.13557e-06
-3.2966e-05
8.3143e-06
-3.30994e-05
1.24171e-05
-3.25009e-05
1.6553e-05
-3.29758e-05
2.06807e-05
-3.25333e-05
2.47833e-05
-3.19763e-05
2.88446e-05
-3.14075e-05
3.28147e-05
-3.1035e-05
3.67219e-05
-2.95203e-05
4.05202e-05
-2.91453e-05
4.40669e-05
-2.58221e-05
4.77384e-05
-2.42019e-05
5.06764e-05
-2.12076e-05
5.34187e-05
-1.6142e-05
5.56423e-05
-1.19395e-05
5.68881e-05
-4.21967e-06
5.76653e-05
3.35533e-06
5.70339e-05
1.485e-05
5.54857e-05
2.70165e-05
5.10053e-05
4.74859e-05
4.38845e-05
6.73787e-05
2.87988e-05
0.000108379
0.000152229
-4.59759e-06
4.55535e-06
-8.86834e-06
4.22859e-06
-1.23313e-05
3.42061e-06
-1.34631e-05
1.08958e-06
-1.31981e-05
-3.07378e-07
-1.13142e-05
-1.92613e-06
-8.77021e-06
-2.58648e-06
-6.41212e-06
-2.40048e-06
-3.21357e-06
-3.24102e-06
-5.58536e-07
-2.69754e-06
2.31836e-06
-2.9194e-06
4.57713e-06
-2.30137e-06
6.34899e-06
-1.81442e-06
7.25105e-06
-9.44753e-07
7.26783e-06
-5.9424e-08
6.41268e-06
8.12389e-07
4.76066e-06
1.60929e-06
2.53734e-06
2.18052e-06
2.49455e-06
-5.98319e-06
1.04963e-05
-1.0541e-05
8.74421e-06
-1.372e-05
6.55733e-06
-1.38387e-05
1.16604e-06
-1.30015e-05
-1.18691e-06
-1.11275e-05
-3.84246e-06
-8.70007e-06
-5.05634e-06
-6.4511e-06
-4.69185e-06
-3.2297e-06
-6.50491e-06
-5.17795e-07
-5.45196e-06
2.38712e-06
-5.86682e-06
4.68455e-06
-4.64139e-06
6.48424e-06
-3.65667e-06
7.40534e-06
-1.90855e-06
7.43632e-06
-1.33046e-07
6.58983e-06
1.61611e-06
4.90687e-06
3.24952e-06
2.6181e-06
4.42648e-06
5.06986e-06
-5.61505e-06
1.60691e-05
-9.53582e-06
1.26228e-05
-1.29855e-05
9.96469e-06
-1.45133e-05
2.65159e-06
-1.43216e-05
-1.421e-06
-1.20898e-05
-6.1165e-06
-9.1134e-06
-8.07525e-06
-6.63814e-06
-7.20952e-06
-3.31747e-06
-9.86804e-06
-5.553e-07
-8.25665e-06
2.4562e-06
-8.92082e-06
4.86395e-06
-7.09175e-06
6.72793e-06
-5.56321e-06
7.70671e-06
-2.93004e-06
7.71455e-06
-1.8353e-07
6.79505e-06
2.49283e-06
5.02979e-06
4.97203e-06
2.68287e-06
6.73057e-06
7.70992e-06
-6.90949e-06
2.29364e-05
-1.18928e-05
1.7564e-05
-1.55376e-05
1.35672e-05
-1.50758e-05
2.14762e-06
-1.35573e-05
-2.98185e-06
-1.1511e-05
-8.20505e-06
-8.88121e-06
-1.07476e-05
-6.73767e-06
-9.39548e-06
-3.2783e-06
-1.33699e-05
-3.06555e-07
-1.12709e-05
2.79263e-06
-1.20625e-05
5.30281e-06
-9.64454e-06
7.23466e-06
-7.53764e-06
8.24911e-06
-3.9872e-06
8.26622e-06
-2.43312e-07
7.3313e-06
3.38496e-06
5.45484e-06
6.80572e-06
2.91353e-06
9.22905e-06
1.05806e-05
-6.70344e-06
2.95976e-05
-1.15098e-05
2.23282e-05
-1.55948e-05
1.76098e-05
-1.70596e-05
3.57021e-06
-1.65677e-05
-3.51622e-06
-1.34795e-05
-1.13355e-05
-9.59105e-06
-1.46785e-05
-6.97717e-06
-1.20518e-05
-3.426e-06
-1.69635e-05
-4.5952e-07
-1.428e-05
2.84317e-06
-1.54077e-05
5.59722e-06
-1.24412e-05
7.66112e-06
-9.64412e-06
8.81284e-06
-5.18164e-06
8.80703e-06
-2.80187e-07
7.76824e-06
4.38093e-06
5.74858e-06
8.7826e-06
3.07331e-06
1.18615e-05
1.36111e-05
-9.1179e-06
3.86733e-05
-1.49849e-05
2.81531e-05
-1.90443e-05
2.16269e-05
-1.78686e-05
2.35238e-06
-1.5387e-05
-6.04026e-06
-1.25432e-05
-1.42216e-05
-9.44891e-06
-1.78152e-05
-7.60037e-06
-1.39428e-05
-3.60151e-06
-2.10049e-05
4.93101e-08
-1.79734e-05
3.53379e-06
-1.89347e-05
6.43564e-06
-1.53857e-05
8.61676e-06
-1.18678e-05
9.8053e-06
-6.41291e-06
9.80182e-06
-3.19438e-07
8.69178e-06
5.44814e-06
6.44858e-06
1.0983e-05
3.44852e-06
1.48186e-05
1.70167e-05
-9.06504e-06
4.76962e-05
-1.56689e-05
3.47148e-05
-2.08832e-05
2.67989e-05
-2.20478e-05
3.47481e-06
-2.09093e-05
-7.2212e-06
-1.59631e-05
-1.92101e-05
-1.04328e-05
-2.3388e-05
-7.79676e-06
-1.66214e-05
-3.80581e-06
-2.50382e-05
-3.99844e-07
-2.1422e-05
3.42055e-06
-2.27975e-05
6.85411e-06
-1.88619e-05
9.24859e-06
-1.43049e-05
1.06679e-05
-7.87493e-06
1.06473e-05
-3.41648e-07
9.42856e-06
6.62404e-06
6.98857e-06
1.33801e-05
3.74783e-06
1.80165e-05
2.07217e-05
-1.31391e-05
6.07931e-05
-2.11909e-05
4.27245e-05
-2.61338e-05
3.16995e-05
-2.42135e-05
1.51242e-06
-1.97629e-05
-1.17142e-05
-1.44728e-05
-2.45424e-05
-9.9049e-06
-2.79984e-05
-9.09445e-06
-1.74745e-05
-4.73496e-06
-2.94402e-05
1.62998e-07
-2.63626e-05
4.39539e-06
-2.70725e-05
7.99909e-06
-2.25082e-05
1.06025e-05
-1.6951e-05
1.21431e-05
-9.45831e-06
1.21554e-05
-3.96691e-07
1.0777e-05
7.95956e-06
7.96146e-06
1.61527e-05
4.26488e-06
2.16701e-05
2.49436e-05
8.83925e-06
-4.18052e-05
1.77532e-05
-4.20134e-05
2.6583e-05
-4.13307e-05
3.54538e-05
-4.18466e-05
4.43349e-05
-4.14144e-05
5.32253e-05
-4.08667e-05
6.20702e-05
-4.02524e-05
7.07768e-05
-3.97417e-05
7.94239e-05
-3.81674e-05
8.77728e-05
-3.74942e-05
9.59593e-05
-3.40087e-05
0.00010419
-3.24325e-05
0.000110823
-2.78402e-05
0.000118133
-2.3452e-05
0.000123798
-1.76048e-05
0.000128592
-9.01391e-06
0.00013237
-4.22267e-07
0.000135912
1.13073e-05
0.000138335
2.45941e-05
0.000143121
4.26997e-05
0.000148236
6.22637e-05
0.000162615
9.39996e-05
0.000138945
0.000175903
8.87259e-06
-5.06778e-05
1.77937e-05
-5.09345e-05
2.67192e-05
-5.02562e-05
3.56524e-05
-5.07799e-05
4.46285e-05
-5.03905e-05
5.36691e-05
-4.99072e-05
6.27336e-05
-4.9317e-05
7.17412e-05
-4.87493e-05
8.07571e-05
-4.71832e-05
8.96027e-05
-4.63398e-05
9.86401e-05
-4.30461e-05
0.000107265
-4.10575e-05
0.000115401
-3.59759e-05
0.000123895
-3.19467e-05
0.000130491
-2.42001e-05
0.000137394
-1.59171e-05
0.000142327
-5.3549e-06
0.000146051
7.5833e-06
0.000147719
2.29257e-05
0.000150772
3.96466e-05
0.000155541
5.74947e-05
0.000171279
7.82613e-05
0.00011252
0.000197704
8.92739e-06
-5.96052e-05
1.78813e-05
-5.98883e-05
2.6937e-05
-5.93119e-05
3.59975e-05
-5.98403e-05
4.51511e-05
-5.95442e-05
5.44562e-05
-5.92123e-05
6.38819e-05
-5.87428e-05
7.33687e-05
-5.8236e-05
8.29347e-05
-5.67493e-05
9.24978e-05
-5.59029e-05
0.000102256
-5.28046e-05
0.000111788
-5.05887e-05
0.000121455
-4.56435e-05
0.000130619
-4.11107e-05
0.000139304
-3.28847e-05
0.00014866
-2.5273e-05
0.000155999
-1.26937e-05
0.000163261
3.21254e-07
0.000169367
1.68494e-05
0.000176647
3.23671e-05
0.000185247
4.88948e-05
0.00019958
6.39278e-05
9.03018e-05
0.000221798
8.967e-06
-6.85722e-05
1.79413e-05
-6.88626e-05
2.7104e-05
-6.84746e-05
3.62434e-05
-6.89798e-05
4.54966e-05
-6.87973e-05
5.4948e-05
-6.86638e-05
6.45777e-05
-6.83724e-05
7.43674e-05
-6.80258e-05
8.43932e-05
-6.67751e-05
9.45622e-05
-6.60718e-05
0.000105068
-6.331e-05
0.000115773
-6.12943e-05
0.000126843
-5.67141e-05
0.000138079
-5.23478e-05
0.000150222
-4.50321e-05
0.000160851
-3.59098e-05
0.00017051
-2.23581e-05
0.000178036
-7.20856e-06
0.000181458
1.34158e-05
0.000184721
2.90951e-05
0.000191275
4.75553e-05
0.000201124
5.40786e-05
7.34995e-05
0.000217927
9.024e-06
-7.75963e-05
1.80264e-05
-7.7865e-05
2.73306e-05
-7.7779e-05
3.66209e-05
-7.82703e-05
4.60686e-05
-7.82453e-05
5.57964e-05
-7.83923e-05
6.57784e-05
-7.83564e-05
7.60153e-05
-7.82715e-05
8.65694e-05
-7.73542e-05
9.73235e-05
-7.68803e-05
0.000108431
-7.45076e-05
0.000119535
-7.2523e-05
0.000130546
-6.78588e-05
0.000142086
-6.3991e-05
0.00015304
-5.60365e-05
0.000163166
-4.60324e-05
0.000173744
-3.29338e-05
0.000179476
-1.28675e-05
0.0001839
9.0815e-06
0.00018948
2.36198e-05
0.000196049
4.10198e-05
0.00020725
4.28613e-05
6.23308e-05
0.000218375
8.99775e-06
-8.67459e-05
1.79498e-05
-8.69763e-05
2.72962e-05
-8.73021e-05
3.66561e-05
-8.78355e-05
4.61564e-05
-8.79854e-05
5.58879e-05
-8.84027e-05
6.57474e-05
-8.85119e-05
7.57576e-05
-8.85371e-05
8.61581e-05
-8.79411e-05
9.72413e-05
-8.80612e-05
0.000110303
-8.75886e-05
0.000129481
-9.16505e-05
0.000150972
-8.93163e-05
0.000170751
-8.37622e-05
0.000184155
-6.94306e-05
0.000187088
-4.89553e-05
0.000171822
-1.76551e-05
0.000152721
6.24631e-06
0.000156757
5.09497e-06
0.000176665
3.79155e-06
0.000194948
2.28727e-05
0.000207039
3.09757e-05
5.28507e-05
0.000216748
9.04605e-06
-9.59104e-05
1.81683e-05
-9.62068e-05
2.80132e-05
-9.723e-05
3.84275e-05
-9.82961e-05
5.02002e-05
-9.97633e-05
6.39464e-05
-0.000102142
7.76679e-05
-0.000102149
9.15414e-05
-0.000102402
0.000107646
-0.000104036
0.000127358
-0.000107762
0.000151317
-0.000111535
0.000178325
-0.000118645
0.000205204
-0.000116183
0.000225597
-0.000104142
0.000238046
-8.18668e-05
0.000236213
-4.71097e-05
0.000212941
5.62953e-06
0.000184705
3.44968e-05
0.000173748
1.60649e-05
0.000182149
-4.59624e-06
0.000205516
-4.82909e-07
0.000226495
1.00185e-05
4.27753e-05
0.000236623
9.05016e-06
-0.000104948
1.83138e-05
-0.000105457
2.78897e-05
-0.000106792
3.82434e-05
-0.000108636
4.8744e-05
-0.000110249
6.06182e-05
-0.000114002
7.40179e-05
-0.000115535
9.0154e-05
-0.000118525
0.000109806
-0.000123675
0.000134462
-0.000132405
0.000162852
-0.000139912
0.000189826
-0.000145606
0.000213616
-0.00013996
0.000233878
-0.000124392
0.000250621
-9.85974e-05
0.00026344
-5.99161e-05
0.000272967
-3.8855e-06
0.000276975
3.05022e-05
0.000267039
2.60143e-05
0.000251695
1.07606e-05
0.000251858
-6.34045e-07
0.000265695
-3.80366e-06
1.82637e-05
0.000290226
9.86315e-06
-0.000114797
1.99741e-05
-0.000115555
2.96992e-05
-0.000116504
4.01826e-05
-0.000119106
4.99483e-05
-0.000120001
5.93264e-05
-0.000123368
7.05404e-05
-0.000126736
8.46922e-05
-0.000132664
0.000101589
-0.000140559
0.000121063
-0.000151866
0.000140917
-0.000159753
0.000158493
-0.00016317
0.000176252
-0.000157705
0.000197876
-0.000146004
0.00022264
-0.000123348
0.000250064
-8.73274e-05
0.000281388
-3.51967e-05
0.000307131
4.77209e-06
0.000319252
1.39069e-05
0.000321097
8.92786e-06
0.000315622
4.85456e-06
0.000315199
-3.36733e-06
2.83968e-06
0.000330636
8.80131e-06
-0.000123585
1.75538e-05
-0.000124293
2.60351e-05
-0.000124971
3.44904e-05
-0.000127548
4.31945e-05
-0.000128691
5.23237e-05
-0.000132483
6.23254e-05
-0.000136724
7.33361e-05
-0.000143661
8.57454e-05
-0.000152955
9.80531e-05
-0.00016416
0.000106773
-0.00016846
0.000112038
-0.000168422
0.000118963
-0.000164618
0.000128887
-0.000155915
0.000143576
-0.000138025
0.000165879
-0.000109618
0.000200479
-6.97841e-05
0.000238452
-3.31885e-05
0.000268063
-1.5691e-05
0.000289911
-1.29077e-05
0.000306902
-1.2124e-05
0.000321703
-1.81548e-05
-1.12228e-05
0.000335778
8.12572e-06
-0.000131696
1.61286e-05
-0.000132282
2.40878e-05
-0.000132917
3.16328e-05
-0.000135079
3.92866e-05
-0.000136331
4.66325e-05
-0.000139816
5.42505e-05
-0.000144329
6.20527e-05
-0.00015145
6.93093e-05
-0.000160198
7.37156e-05
-0.000168554
7.56703e-05
-0.000170402
7.73678e-05
-0.000170107
7.9703e-05
-0.000166941
8.26121e-05
-0.000158812
8.85181e-05
-0.000143918
0.000101096
-0.000122184
0.000125593
-9.4268e-05
0.000160776
-6.83593e-05
0.000196077
-5.09788e-05
0.000226111
-4.2929e-05
0.000254441
-4.04412e-05
0.000283634
-4.73351e-05
-4.24265e-05
0.00031485
7.23266e-06
-0.000138915
1.44298e-05
-0.000139466
2.1651e-05
-0.000140124
2.87467e-05
-0.000142161
3.61469e-05
-0.000143718
4.33317e-05
-0.000146987
4.99975e-05
-0.000150981
5.54432e-05
-0.000156882
5.85282e-05
-0.00016327
5.95458e-05
-0.000169558
6.03684e-05
-0.000171211
6.09372e-05
-0.000170663
6.12523e-05
-0.000167243
6.15928e-05
-0.00015914
6.49483e-05
-0.000147261
7.46404e-05
-0.000131863
9.39411e-05
-0.000113556
0.000122527
-9.69328e-05
0.000157165
-8.56044e-05
0.00019423
-7.99813e-05
0.000230597
-7.67959e-05
0.000266396
-8.31215e-05
-7.8699e-05
0.000302681
7.10538e-06
-0.000146007
1.41212e-05
-0.000146468
2.1143e-05
-0.000147132
2.79175e-05
-0.000148922
3.46924e-05
-0.000150479
4.08887e-05
-0.00015317
4.61593e-05
-0.000156239
4.99362e-05
-0.000160646
5.20027e-05
-0.000165323
5.30741e-05
-0.000170617
5.37975e-05
-0.000171922
5.43677e-05
-0.000171221
5.52759e-05
-0.000168139
5.79988e-05
-0.00016185
6.53414e-05
-0.000154591
7.8849e-05
-0.000145359
9.99919e-05
-0.000134687
0.000127939
-0.000124867
0.000160506
-0.000118159
0.000196412
-0.000115875
0.000233651
-0.000114023
0.000270612
-0.00012007
-0.000117032
0.000308957
6.4015e-06
-0.000152395
1.27698e-05
-0.000152823
1.92078e-05
-0.000153557
2.54476e-05
-0.000155148
3.16963e-05
-0.000156714
3.7647e-05
-0.000159108
4.2918e-05
-0.000161496
4.70653e-05
-0.000164781
4.97577e-05
-0.000168003
5.14691e-05
-0.000172315
5.33593e-05
-0.000173799
5.60913e-05
-0.00017394
6.08814e-05
-0.000172916
6.85151e-05
-0.000169471
7.96917e-05
-0.000165755
9.45156e-05
-0.00016017
0.000114382
-0.000154541
0.000139518
-0.000149991
0.000169014
-0.000147642
0.000202239
-0.000149089
0.000237045
-0.000148817
0.000273277
-0.000156289
-0.000155788
0.000312045
6.0256e-06
-0.000158407
1.20817e-05
-0.000158865
1.81782e-05
-0.00015964
2.41309e-05
-0.000161088
3.00346e-05
-0.000162605
3.57065e-05
-0.000164766
4.0957e-05
-0.000166734
4.55018e-05
-0.000169313
4.90123e-05
-0.000171501
5.202e-05
-0.00017531
5.57664e-05
-0.000177533
6.07912e-05
-0.000178952
6.78856e-05
-0.000179998
7.71233e-05
-0.000178697
8.86333e-05
-0.000177253
0.000103204
-0.000174728
0.000121854
-0.000173179
0.000144706
-0.000172831
0.000170936
-0.000173861
0.000200952
-0.000179092
0.000233902
-0.000181756
0.000270111
-0.000192486
-0.000196071
0.000310407
5.62025e-06
-0.000164014
1.12279e-05
-0.00016446
1.68052e-05
-0.000165204
2.22564e-05
-0.000166526
2.76143e-05
-0.00016795
3.28643e-05
-0.000170004
3.79769e-05
-0.000171834
4.31285e-05
-0.000174451
4.79992e-05
-0.000176359
5.23956e-05
-0.000179694
5.73713e-05
-0.000182496
6.31715e-05
-0.00018474
7.02722e-05
-0.000187087
7.90352e-05
-0.000187448
9.02306e-05
-0.000188436
0.000104244
-0.000188729
0.00012159
-0.000190514
0.000142879
-0.000194108
0.000167338
-0.000198308
0.000195904
-0.000207646
0.000227852
-0.000213692
0.000264349
-0.000228972
-0.000237451
0.000305742
5.28002e-06
-0.000169281
1.05046e-05
-0.000169672
1.56969e-05
-0.000170384
2.08226e-05
-0.000171639
2.59301e-05
-0.000173045
3.10498e-05
-0.000175111
3.61844e-05
-0.000176956
4.14505e-05
-0.000179705
4.6804e-05
-0.0001817
5.19907e-05
-0.000184868
5.75742e-05
-0.000188068
6.37263e-05
-0.00019088
7.10149e-05
-0.000194364
7.9714e-05
-0.000196135
9.01654e-05
-0.000198876
0.000103266
-0.000201818
0.000119082
-0.000206319
0.000138682
-0.000213696
0.000161054
-0.000220668
0.000187599
-0.00023418
0.000217901
-0.000243982
0.000253188
-0.000264246
-0.000279139
0.000294887
4.80742e-06
-0.000174076
9.58764e-06
-0.000174439
1.43641e-05
-0.000175147
1.91325e-05
-0.000176395
2.38756e-05
-0.000177775
2.86156e-05
-0.000179838
3.33325e-05
-0.00018166
3.81308e-05
-0.000184491
4.33752e-05
-0.000186932
4.86989e-05
-0.00019018
5.43841e-05
-0.000193741
6.05281e-05
-0.000197012
6.72672e-05
-0.000201091
7.54651e-05
-0.000204321
8.52556e-05
-0.000208655
9.77191e-05
-0.00021427
0.000112169
-0.000220756
0.000129992
-0.000231508
0.000150143
-0.000240807
0.000174155
-0.000258181
0.000202178
-0.000271993
0.00023532
-0.000297377
-0.000319951
0.000276143
4.45116e-06
-0.000178515
8.91994e-06
-0.000178896
1.34103e-05
-0.000179625
1.78956e-05
-0.000180868
2.23512e-05
-0.000182219
2.68092e-05
-0.000184284
3.1295e-05
-0.000186134
3.58379e-05
-0.000189022
4.05483e-05
-0.00019163
4.53827e-05
-0.000195003
5.04631e-05
-0.000198809
5.59815e-05
-0.000202519
6.20405e-05
-0.000207138
6.9683e-05
-0.000211952
7.86388e-05
-0.000217599
8.99947e-05
-0.000225614
0.000102754
-0.000233504
0.000118101
-0.000246843
0.000135472
-0.000258168
0.000155898
-0.000278596
0.000180193
-0.000296277
0.000208612
-0.000325784
-0.000355668
0.000244341
4.14594e-06
-0.000182649
8.30793e-06
-0.000183046
1.24492e-05
-0.000183755
1.65598e-05
-0.000184966
2.0629e-05
-0.000186276
2.46865e-05
-0.00018833
2.87802e-05
-0.000190216
3.28919e-05
-0.000193122
3.72067e-05
-0.000195934
4.16939e-05
-0.000199478
4.63026e-05
-0.000203406
5.14863e-05
-0.000207691
5.72075e-05
-0.000212848
6.42588e-05
-0.000218991
7.2227e-05
-0.000225556
8.16013e-05
-0.000234977
9.21411e-05
-0.000244032
0.00010415
-0.000258841
0.000118362
-0.000272368
0.000134315
-0.000294538
0.00015392
-0.000315871
0.000176373
-0.000348226
-0.000383568
0.000204284
3.79806e-06
-0.000186435
7.58697e-06
-0.000186823
1.1335e-05
-0.000187491
1.50563e-05
-0.000188676
1.87373e-05
-0.000189945
2.24077e-05
-0.000191988
2.60961e-05
-0.000193893
2.97876e-05
-0.000196802
3.35457e-05
-0.00019968
3.73871e-05
-0.000203308
4.13808e-05
-0.000207389
4.59395e-05
-0.000212239
5.08958e-05
-0.000217793
5.65802e-05
-0.000224665
6.28574e-05
-0.000231822
6.9942e-05
-0.000242051
7.82619e-05
-0.000252341
8.71883e-05
-0.000267756
9.81351e-05
-0.000283304
0.000109328
-0.000305721
0.000123354
-0.000329885
0.000137714
-0.000362575
-0.000401228
0.000155385
3.41755e-06
-0.000189841
6.82294e-06
-0.000190217
1.02045e-05
-0.000190861
1.35628e-05
-0.000192023
1.68895e-05
-0.000193261
2.01772e-05
-0.000195265
2.34539e-05
-0.000197158
2.66912e-05
-0.000200028
2.99583e-05
-0.000202936
3.33598e-05
-0.000206699
3.68582e-05
-0.000210876
4.05874e-05
-0.000215957
4.44082e-05
-0.000221603
4.85361e-05
-0.000228782
5.32657e-05
-0.000236541
5.83761e-05
-0.00024715
6.43308e-05
-0.000258285
7.01785e-05
-0.000273593
7.71952e-05
-0.00029031
8.36164e-05
-0.000312131
9.14089e-05
-0.000337666
9.77393e-05
-0.000368895
-0.000408772
0.000105295
3.05965e-06
-0.00019289
6.11668e-06
-0.000193263
9.15142e-06
-0.000193885
1.21522e-05
-0.000195013
1.51023e-05
-0.0001962
1.79743e-05
-0.000198126
2.08082e-05
-0.000199981
2.35649e-05
-0.000202774
2.62897e-05
-0.00020565
2.90025e-05
-0.000209401
3.16357e-05
-0.000213499
3.4303e-05
-0.000218614
3.70463e-05
-0.000224336
3.9908e-05
-0.000231633
4.30018e-05
-0.000239624
4.58976e-05
-0.000250035
4.91246e-05
-0.000261502
5.18548e-05
-0.000276313
5.49657e-05
-0.00029341
5.69893e-05
-0.000314144
5.90775e-05
-0.000339744
5.86789e-05
-0.000368485
-0.000407423
5.73406e-05
2.75686e-06
-0.000195636
5.49933e-06
-0.000195994
8.20182e-06
-0.000196577
1.08406e-05
-0.000197641
1.34035e-05
-0.000198752
1.58561e-05
-0.000200568
1.82354e-05
-0.00020235
2.04871e-05
-0.000205015
2.26264e-05
-0.000207779
2.46591e-05
-0.000211423
2.65824e-05
-0.000215412
2.84121e-05
-0.000220433
3.01209e-05
-0.000226034
3.15604e-05
-0.000233062
3.28615e-05
-0.000240915
3.371e-05
-0.000250873
3.44023e-05
-0.000262183
3.42016e-05
-0.000276101
3.35715e-05
-0.000292769
3.13218e-05
-0.000311884
2.82061e-05
-0.000336618
2.19227e-05
-0.000362191
-0.000398723
1.32331e-05
2.45381e-06
-0.000198079
4.87648e-06
-0.000198407
7.24332e-06
-0.000198933
9.52664e-06
-0.000199914
1.17205e-05
-0.000200936
1.37724e-05
-0.000202609
1.57083e-05
-0.000204276
1.74596e-05
-0.000206756
1.90382e-05
-0.000209347
2.04191e-05
-0.000212794
2.15729e-05
-0.000216555
2.24477e-05
-0.000221298
2.30259e-05
-0.000226602
2.31998e-05
-0.000233226
2.2996e-05
-0.000240701
2.20178e-05
-0.000249885
2.03973e-05
-0.000260553
1.7495e-05
-0.000273189
1.34931e-05
-0.000288757
7.45903e-06
-0.000305839
-4.77427e-07
-0.000328671
-1.14074e-05
-0.000351251
-0.000383741
-2.63781e-05
2.16893e-06
-0.000200238
4.30127e-06
-0.000200529
6.36725e-06
-0.000200989
8.33617e-06
-0.000201873
1.01948e-05
-0.000202784
1.18805e-05
-0.000204285
1.33988e-05
-0.000205784
1.4671e-05
-0.000208019
1.56999e-05
-0.000210367
1.64232e-05
-0.000213507
1.68065e-05
-0.000216929
1.67985e-05
-0.00022128
1.63643e-05
-0.000226158
1.53365e-05
-0.000232188
1.37004e-05
-0.000239055
1.10959e-05
-0.000247271
7.48518e-06
-0.000256932
2.31511e-06
-0.000268009
-4.57472e-06
-0.000281858
-1.3843e-05
-0.000296561
-2.61233e-05
-0.00031638
-4.14768e-05
-0.000335887
-0.000363396
-6.18118e-05
1.93753e-06
-0.000202167
3.82966e-06
-0.000202412
5.6369e-06
-0.000202787
7.31407e-06
-0.000203541
8.84994e-06
-0.000204311
1.01835e-05
-0.00020561
1.13122e-05
-0.000206904
1.21499e-05
-0.000208847
1.26771e-05
-0.000210885
1.28261e-05
-0.000213647
1.25401e-05
-0.000216634
1.17234e-05
-0.000220454
1.03256e-05
-0.000224751
8.15352e-06
-0.000230007
5.16858e-06
-0.000236061
1.12769e-06
-0.000243221
-4.1002e-06
-0.000251695
-1.10461e-05
-0.000261054
-2.00964e-05
-0.000272798
-3.18157e-05
-0.000284832
-4.7289e-05
-0.000300897
-6.67774e-05
-0.000316389
-0.000337901
-9.22619e-05
1.75228e-06
-0.00020391
3.44511e-06
-0.000204096
5.02948e-06
-0.000204363
6.44817e-06
-0.00020495
7.6895e-06
-0.000205543
8.69912e-06
-0.00020661
9.47462e-06
-0.00020767
9.9271e-06
-0.000209291
1.00192e-05
-0.000210968
9.6565e-06
-0.000213276
8.78289e-06
-0.000215751
7.26408e-06
-0.000218927
5.03046e-06
-0.000222509
1.92899e-06
-0.000226897
-2.19783e-06
-0.000231925
-7.66025e-06
-0.000237749
-1.45383e-05
-0.000244808
-2.31479e-05
-0.000252435
-3.39165e-05
-0.00026202
-4.71601e-05
-0.000271579
-6.40298e-05
-0.000284018
-8.49615e-05
-0.000295447
-0.000310591
-0.000112262
1.60838e-06
-0.00020551
3.14885e-06
-0.000205628
4.56689e-06
-0.000205772
5.79716e-06
-0.000206172
6.81301e-06
-0.000206551
7.55001e-06
-0.000207339
8.00097e-06
-0.000208113
8.08787e-06
-0.000209369
7.77865e-06
-0.00021065
6.98751e-06
-0.000212476
5.65972e-06
-0.000214415
3.6657e-06
-0.000216924
8.64508e-07
-0.000219699
-2.95172e-06
-0.000223072
-7.84109e-06
-0.000227027
-1.41101e-05
-0.000231472
-2.20695e-05
-0.00023684
-3.19862e-05
-0.00024251
-4.42669e-05
-0.00024973
-5.90826e-05
-0.000256754
-7.71334e-05
-0.000265958
-9.8493e-05
-0.000274078
-0.000284607
-0.000124467
1.50027e-06
-0.000207002
2.9317e-06
-0.000207052
4.24039e-06
-0.000207073
5.35766e-06
-0.000207282
6.24294e-06
-0.000207428
6.80373e-06
-0.000207892
7.01347e-06
-0.000208315
6.78522e-06
-0.000209133
6.08247e-06
-0.00020994
4.82998e-06
-0.000211216
2.98439e-06
-0.000212562
4.32287e-07
-0.000214364
-2.90059e-06
-0.000216358
-7.21752e-06
-0.000218747
-1.26969e-05
-0.00022154
-1.95319e-05
-0.000224629
-2.79929e-05
-0.000228371
-3.84198e-05
-0.000232074
-5.13373e-05
-0.000236804
-6.70667e-05
-0.000241016
-8.63935e-05
-0.000246622
-0.000109388
-0.000251075
-0.000256931
-0.000137056
1.4443e-06
-0.000208439
2.82172e-06
-0.000208422
4.079e-06
-0.000208323
5.1438e-06
-0.000208339
5.97022e-06
-0.000208247
6.45245e-06
-0.000208367
6.53789e-06
-0.000208393
6.14905e-06
-0.000208737
5.24269e-06
-0.000209026
3.72491e-06
-0.000209691
1.54334e-06
-0.000210373
-1.41971e-06
-0.000211394
-5.25714e-06
-0.000212514
-1.01012e-05
-0.000213896
-1.6095e-05
-0.000215538
-2.34579e-05
-0.000217258
-3.24009e-05
-0.00021942
-4.31401e-05
-0.000221327
-5.60701e-05
-0.000223866
-7.14376e-05
-0.000225641
-8.99186e-05
-0.000228133
-0.000111848
-0.000229137
-0.000230595
-0.000138175
1.39069e-06
-0.000209823
2.72287e-06
-0.000209747
3.9448e-06
-0.000209538
4.98111e-06
-0.000209369
5.78303e-06
-0.000209042
6.25316e-06
-0.00020883
6.32856e-06
-0.000208461
5.90332e-06
-0.000208305
4.92192e-06
-0.000208038
3.27304e-06
-0.000208035
9.07755e-07
-0.000208001
-2.26191e-06
-0.000208217
-6.30216e-06
-0.000208466
-1.1365e-05
-0.000208826
-1.76047e-05
-0.000209292
-2.52105e-05
-0.000209645
-3.44358e-05
-0.000210188
-4.54916e-05
-0.000210264
-5.87257e-05
-0.000210625
-7.43419e-05
-0.000210017
-9.28089e-05
-0.000209658
-0.000114299
-0.00020764
-0.000205474
-0.000139411
1.32355e-06
-0.000211141
2.59742e-06
-0.000211015
3.77393e-06
-0.000210709
4.77822e-06
-0.000210367
5.56111e-06
-0.000209819
6.0442e-06
-0.000209307
6.1797e-06
-0.000208591
5.851e-06
-0.00020797
4.95467e-06
-0.000207135
3.35245e-06
-0.000206427
9.64495e-07
-0.000205606
-2.30057e-06
-0.000204946
-6.49624e-06
-0.000204264
-1.1702e-05
-0.000203614
-1.80173e-05
-0.00020297
-2.55732e-05
-0.000202083
-3.45657e-05
-0.000201189
-4.51844e-05
-0.000199639
-5.77445e-05
-0.000198058
-7.24547e-05
-0.0001953
-8.97319e-05
-0.000192374
-0.000109739
-0.000187625
-0.000182303
-0.000132903
1.22479e-06
-0.00021236
2.40427e-06
-0.000212189
3.50135e-06
-0.0002118
4.45547e-06
-0.000211315
5.22989e-06
-0.000210588
5.76181e-06
-0.000209834
5.98883e-06
-0.000208812
5.80166e-06
-0.000207777
5.12765e-06
-0.000206455
3.83696e-06
-0.00020513
1.80291e-06
-0.000203567
-1.14389e-06
-0.000201993
-5.11924e-06
-0.000200283
-1.0229e-05
-0.000198498
-1.6545e-05
-0.000196648
-2.41364e-05
-0.000194485
-3.3095e-05
-0.000192224
-4.35334e-05
-0.000189195
-5.56869e-05
-0.000185898
-6.97209e-05
-0.000181259
-8.59317e-05
-0.000176157
-0.000104471
-0.000169079
-0.000161181
-0.000125586
1.09577e-06
-0.000213451
2.14882e-06
-0.000213237
3.1317e-06
-0.000212778
4.00198e-06
-0.000212181
4.72468e-06
-0.000211306
5.23442e-06
-0.000210338
5.48075e-06
-0.000209053
5.39047e-06
-0.000207682
4.91388e-06
-0.000205974
3.94521e-06
-0.000204157
2.35401e-06
-0.00020197
-4.29941e-08
-0.000199591
-3.40165e-06
-0.00019692
-7.88454e-06
-0.00019401
-1.3626e-05
-0.000190901
-2.07182e-05
-0.000187388
-2.9229e-05
-0.000183708
-3.91607e-05
-0.000179257
-5.06008e-05
-0.000174453
-6.36176e-05
-0.000168237
-7.84378e-05
-0.000161331
-9.51807e-05
-0.00015233
-0.000142303
-0.000114053
8.87614e-07
-0.000214334
1.74018e-06
-0.000214085
2.54129e-06
-0.000213575
3.26653e-06
-0.000212902
3.89384e-06
-0.000211929
4.36569e-06
-0.000210806
4.63547e-06
-0.000209319
4.6508e-06
-0.000207693
4.35383e-06
-0.000205673
3.65078e-06
-0.000203449
2.46309e-06
-0.000200778
6.58141e-07
-0.000197782
-1.93627e-06
-0.000194321
-5.52953e-06
-0.000190412
-1.03077e-05
-0.000186119
-1.64464e-05
-0.000181245
-2.40902e-05
-0.000176059
-3.32865e-05
-0.000170056
-4.40264e-05
-0.000163708
-5.62193e-05
-0.000156039
-6.98786e-05
-0.000147667
-8.50338e-05
-0.00013717
-0.000125516
-0.000101816
7.06103e-07
-0.000215037
1.37819e-06
-0.000214754
2.00293e-06
-0.000214196
2.56427e-06
-0.00021346
3.04884e-06
-0.00021241
3.43589e-06
-0.000211189
3.69371e-06
-0.000209573
3.76439e-06
-0.00020776
3.60488e-06
-0.000205509
3.15128e-06
-0.000202992
2.35262e-06
-0.000199976
1.11743e-06
-0.000196543
-6.88923e-07
-0.00019251
-3.26969e-06
-0.000187828
-6.8364e-06
-0.000182548
-1.16034e-05
-0.000176473
-1.77861e-05
-0.000169873
-2.5546e-05