/*--------------------------------*- C++ -*----------------------------------*\
| =========                 |                                                 |
| \\      /  F ield         | OpenFOAM: The Open Source CFD Toolbox           |
|  \\    /   O peration     | Version:  2012                                  |
|   \\  /    A nd           | Website:  www.openfoam.com                      |
|    \\/     M anipulation  |                                                 |
\*---------------------------------------------------------------------------*/
FoamFile
{
    version     2.0;
    format      ascii;
    class       volVectorField;
    location    "0.3";
    object      U;
}
// * * * * * * * * * * * * * * * * * * * * * * * * * * * * * * * * * * * * * //

dimensions      [0 1 -1 0 0 0 0];


internalField   nonuniform List<vector> 
2268
(
(0.0228169 -0.0111566 0)
(0.0712314 -0.0110855 0)
(0.116243 -0.0109547 0)
(0.163542 -0.011183 0)
(0.210353 -0.0109266 0)
(0.255343 -0.0106941 0)
(0.29985 -0.0104827 0)
(0.342949 -0.010545 0)
(0.387503 -0.00979945 0)
(0.42403 -0.00976309 0)
(0.467665 -0.00862204 0)
(0.494272 -0.00727954 0)
(0.524739 -0.00710111 0)
(0.551056 -0.00641962 0)
(0.567853 -0.00351411 0)
(0.572298 -0.00172835 0)
(0.564984 0.00054032 0)
(0.543247 0.00106365 0)
(0.505347 0.00277095 0)
(0.444209 0.00296751 0)
(0.353417 0.0058266 0)
(0.242539 0.0101006 0)
(0.0830829 0.0409444 0)
(0.0227375 -0.0332882 0)
(0.0712171 -0.033072 0)
(0.116364 -0.0326607 0)
(0.163614 -0.0333063 0)
(0.210446 -0.0324405 0)
(0.255542 -0.0316198 0)
(0.300113 -0.0308968 0)
(0.343338 -0.0309005 0)
(0.387769 -0.0285013 0)
(0.424776 -0.028113 0)
(0.468462 -0.0246187 0)
(0.495089 -0.0195964 0)
(0.528197 -0.019871 0)
(0.551501 -0.0137812 0)
(0.567328 -0.00670336 0)
(0.575334 0.00328833 0)
(0.568739 0.0130091 0)
(0.547114 0.0273749 0)
(0.50742 0.0438479 0)
(0.443484 0.0691832 0)
(0.346068 0.0893742 0)
(0.224713 0.117919 0)
(0.0575635 0.112872 0)
(0.022637 -0.055558 0)
(0.0712806 -0.0553388 0)
(0.116614 -0.0546124 0)
(0.163759 -0.0556611 0)
(0.210678 -0.0543568 0)
(0.256011 -0.0530916 0)
(0.300717 -0.0519568 0)
(0.344245 -0.051997 0)
(0.388521 -0.0482761 0)
(0.426406 -0.0478976 0)
(0.470027 -0.0419021 0)
(0.497218 -0.0354238 0)
(0.532942 -0.0339129 0)
(0.553944 -0.0247474 0)
(0.57203 -0.014986 0)
(0.581961 -0.00224482 0)
(0.579453 0.0136525 0)
(0.560141 0.0301105 0)
(0.526569 0.0514117 0)
(0.470414 0.079133 0)
(0.383238 0.108709 0)
(0.267741 0.146203 0)
(0.085112 0.174243 0)
(0.0225662 -0.0776698 0)
(0.0713671 -0.0774884 0)
(0.116864 -0.0763538 0)
(0.163867 -0.0777707 0)
(0.210815 -0.0760181 0)
(0.256449 -0.0741843 0)
(0.301393 -0.0725681 0)
(0.345295 -0.07241 0)
(0.389367 -0.0673029 0)
(0.428291 -0.0666207 0)
(0.471786 -0.058109 0)
(0.499958 -0.0492322 0)
(0.537688 -0.0467988 0)
(0.558035 -0.0320709 0)
(0.577752 -0.02008 0)
(0.586767 4.20587e-06 0)
(0.585859 0.023209 0)
(0.568413 0.0528151 0)
(0.531377 0.0862455 0)
(0.473679 0.137793 0)
(0.381378 0.185546 0)
(0.268079 0.259917 0)
(0.0835035 0.279684 0)
(0.0225269 -0.0999509 0)
(0.0715242 -0.0999115 0)
(0.117215 -0.0983216 0)
(0.164212 -0.100079 0)
(0.211168 -0.0981013 0)
(0.257227 -0.0959239 0)
(0.302535 -0.0939356 0)
(0.346986 -0.0936067 0)
(0.390894 -0.087499 0)
(0.431294 -0.0868632 0)
(0.474499 -0.0758277 0)
(0.504348 -0.066503 0)
(0.544687 -0.0615171 0)
(0.564653 -0.0435359 0)
(0.588671 -0.0287758 0)
(0.598409 -0.00598356 0)
(0.604431 0.0220419 0)
(0.592531 0.0557552 0)
(0.566417 0.0955972 0)
(0.517158 0.149313 0)
(0.435276 0.204643 0)
(0.323687 0.285294 0)
(0.124693 0.339798 0)
(0.0225087 -0.122113 0)
(0.0715965 -0.122239 0)
(0.117456 -0.120144 0)
(0.164493 -0.122177 0)
(0.211412 -0.119954 0)
(0.257825 -0.117368 0)
(0.303485 -0.114954 0)
(0.348458 -0.114169 0)
(0.392225 -0.107106 0)
(0.434131 -0.106113 0)
(0.476876 -0.0926307 0)
(0.508928 -0.0823057 0)
(0.551344 -0.0753974 0)
(0.571339 -0.0526555 0)
(0.59933 -0.0362023 0)
(0.610431 -0.00711705 0)
(0.615368 0.025864 0)
(0.606481 0.0714114 0)
(0.577707 0.122071 0)
(0.53073 0.201408 0)
(0.442048 0.27822 0)
(0.335474 0.410092 0)
(0.113131 0.493048 0)
(0.0225568 -0.144427 0)
(0.0717584 -0.144792 0)
(0.117882 -0.142222 0)
(0.16505 -0.144502 0)
(0.212102 -0.142207 0)
(0.258968 -0.139468 0)
(0.3051 -0.136771 0)
(0.350811 -0.135589 0)
(0.394636 -0.128002 0)
(0.438296 -0.126905 0)
(0.480441 -0.111238 0)
(0.515669 -0.101662 0)
(0.560238 -0.091166 0)
(0.580389 -0.0660917 0)
(0.615542 -0.0474323 0)
(0.625066 -0.0135234 0)
(0.64073 0.0236196 0)
(0.635158 0.0733495 0)
(0.623634 0.130604 0)
(0.588028 0.212012 0)
(0.518962 0.294612 0)
(0.425014 0.436069 0)
(0.185642 0.548173 0)
(0.0227016 -0.166679 0)
(0.0717307 -0.167288 0)
(0.118109 -0.164217 0)
(0.165426 -0.166704 0)
(0.212526 -0.164313 0)
(0.259697 -0.161312 0)
(0.306174 -0.158319 0)
(0.352462 -0.156466 0)
(0.396797 -0.148396 0)
(0.441712 -0.146627 0)
(0.483522 -0.129163 0)
(0.522683 -0.119924 0)
(0.567462 -0.106043 0)
(0.589614 -0.0785864 0)
(0.63041 -0.0575376 0)
(0.640033 -0.0186145 0)
(0.659417 0.020885 0)
(0.657292 0.0802627 0)
(0.64573 0.144571 0)
(0.621216 0.253289 0)
(0.544123 0.357323 0)
(0.45772 0.574911 0)
(0.199952 0.788579 0)
(-0.0352453 0.015923 0)
(-0.0704042 -0.00294214 0)
(-0.132424 -0.0307987 0)
(-0.151433 -0.0422402 0)
(-0.15645 -0.032152 0)
(-0.149411 -0.0210536 0)
(-0.110285 -0.0117254 0)
(-0.096656 -0.011535 0)
(-0.0532764 -0.0108009 0)
(-0.0282755 -0.0111728 0)
(0.00934464 -0.00986504 0)
(0.034824 -0.00974245 0)
(0.061863 -0.00811726 0)
(0.0748865 -0.00680755 0)
(0.0831041 -0.00466815 0)
(0.0764422 -0.00319876 0)
(0.0645513 -0.000506534 0)
(0.0406399 0.00147123 0)
(0.0153325 0.00270676 0)
(-0.0499851 0.0283785 0)
(-0.0873195 0.0439464 0)
(-0.153705 0.0639646 0)
(-0.161821 0.0529958 0)
(-0.154568 0.0295444 0)
(-0.146856 0.00271755 0)
(-0.108478 -0.012954 0)
(-0.0969227 -0.011424 0)
(-0.0538763 -0.0203383 0)
(-0.0280473 -0.014634 0)
(0.00996231 -0.0182835 0)
(0.0357509 -0.0125048 0)
(0.0632844 -0.00958826 0)
(0.0765085 -0.00261335 0)
(0.0849089 0.00367611 0)
(0.078443 0.0105292 0)
(0.0665274 0.0154495 0)
(0.0419793 0.0189361 0)
(0.0158129 0.0207071 0)
(-0.047495 0.0742012 0)
(-0.0813459 0.0418239 0)
(-0.136716 0.000630157 0)
(-0.162056 -0.0410385 0)
(-0.169668 -0.0406217 0)
(-0.161868 -0.0393229 0)
(-0.115334 -0.0353729 0)
(-0.0995248 -0.0330658 0)
(-0.0554945 -0.041796 0)
(-0.0285764 -0.0376513 0)
(0.00959918 -0.0380975 0)
(0.0375571 -0.0323626 0)
(0.0654039 -0.026029 0)
(0.0798403 -0.0164052 0)
(0.0882735 -0.00578554 0)
(0.0813405 0.00405037 0)
(0.068187 0.0147753 0)
(0.0430775 0.02256 0)
(0.0161462 0.0269568 0)
(-0.0587627 0.0819475 0)
(-0.0996566 0.0806399 0)
(-0.172259 0.0960388 0)
(-0.18467 0.0673501 0)
(-0.159671 0.0280245 0)
(-0.154573 -0.0189004 0)
(-0.10911 -0.0416787 0)
(-0.100652 -0.0359027 0)
(-0.0565551 -0.0529816 0)
(-0.0266271 -0.0412776 0)
(0.0130647 -0.0478565 0)
(0.0416845 -0.0361803 0)
(0.070985 -0.0282202 0)
(0.0856807 -0.0127949 0)
(0.0945286 0.00275586 0)
(0.0875524 0.018466 0)
(0.0740133 0.031443 0)
(0.0468841 0.0404782 0)
(0.017534 0.0454616 0)
(-0.0558302 0.142239 0)
(-0.0978419 0.0914893 0)
(-0.16527 0.0374643 0)
(-0.19299 -0.045316 0)
(-0.196514 -0.0562126 0)
(-0.186406 -0.0594376 0)
(-0.121998 -0.061153 0)
(-0.103968 -0.0530147 0)
(-0.0586378 -0.0747231 0)
(-0.0282 -0.0668809 0)
(0.0110589 -0.0681265 0)
(0.0445968 -0.0570326 0)
(0.0744122 -0.0452318 0)
(0.0917809 -0.0268988 0)
(0.100905 -0.00680828 0)
(0.0933508 0.0121284 0)
(0.0779208 0.0319085 0)
(0.0495882 0.0460947 0)
(0.0183805 0.0540707 0)
(-0.0777678 0.145105 0)
(-0.130987 0.125217 0)
(-0.211642 0.133307 0)
(-0.225144 0.0809446 0)
(-0.182405 0.0242618 0)
(-0.173854 -0.0485323 0)
(-0.112601 -0.0789908 0)
(-0.110536 -0.0624028 0)
(-0.066086 -0.0881247 0)
(-0.0247463 -0.0694241 0)
(0.0187504 -0.080135 0)
(0.0524843 -0.063206 0)
(0.0851644 -0.0487109 0)
(0.102557 -0.0247061 0)
(0.112316 0.00199504 0)
(0.104416 0.0275259 0)
(0.0876032 0.0498822 0)
(0.0557583 0.0651411 0)
(0.0206576 0.0739402 0)
(-0.0755886 0.233096 0)
(-0.132054 0.150328 0)
(-0.226035 0.0793844 0)
(-0.25276 -0.0564343 0)
(-0.25002 -0.0820792 0)
(-0.232228 -0.087725 0)
(-0.131938 -0.0916882 0)
(-0.113544 -0.0689668 0)
(-0.0675414 -0.112459 0)
(-0.0283696 -0.103269 0)
(0.0119561 -0.102095 0)
(0.0563881 -0.0854115 0)
(0.0901244 -0.0670049 0)
(0.11175 -0.0390324 0)
(0.122161 -0.00776673 0)
(0.113631 0.0218578 0)
(0.0947754 0.0524922 0)
(0.0607776 0.074024 0)
(0.0223167 0.0863042 0)
(-0.103618 0.229281 0)
(-0.196819 0.186531 0)
(-0.287859 0.180149 0)
(-0.31037 0.0913834 0)
(-0.241108 0.0156048 0)
(-0.215496 -0.0954995 0)
(-0.113678 -0.131843 0)
(-0.120526 -0.0905831 0)
(-0.0897292 -0.127787 0)
(-0.0272863 -0.100673 0)
(0.0229741 -0.116766 0)
(0.0672485 -0.0969163 0)
(0.10475 -0.0721488 0)
(0.127529 -0.0393475 0)
(0.139429 0.001487 0)
(0.130407 0.0382548 0)
(0.108323 0.0724117 0)
(0.0692389 0.0952137 0)
(0.0254961 0.10891 0)
(0.023174 -0.201671 0)
(0.0717167 -0.202628 0)
(0.118858 -0.199064 0)
(0.166513 -0.201789 0)
(0.21407 -0.199414 0)
(0.261867 -0.196414 0)
(0.309483 -0.193197 0)
(0.356838 -0.190874 0)
(0.402923 -0.182506 0)
(0.44969 -0.179969 0)
(0.49255 -0.161074 0)
(0.537559 -0.153422 0)
(0.580983 -0.132454 0)
(0.608656 -0.105406 0)
(0.659769 -0.0792557 0)
(0.669035 -0.0319854 0)
(0.712056 0.0119654 0)
(0.708753 0.0792361 0)
(0.751454 0.147921 0)
(0.733267 0.260913 0)
(0.805047 0.374935 0)
(0.784625 0.597946 0)
(0.965656 0.879775 0)
(0.0236633 -0.249446 0)
(0.0715849 -0.250734 0)
(0.119426 -0.24693 0)
(0.167405 -0.24977 0)
(0.215312 -0.247478 0)
(0.263772 -0.244567 0)
(0.312338 -0.241157 0)
(0.361092 -0.237971 0)
(0.40901 -0.229359 0)
(0.457895 -0.224641 0)
(0.503965 -0.205946 0)
(0.554916 -0.196599 0)
(0.596583 -0.168056 0)
(0.642207 -0.14781 0)
(0.687951 -0.11094 0)
(0.712784 -0.0654723 0)
(0.762609 -0.0168218 0)
(0.765279 0.0427558 0)
(0.803725 0.117702 0)
(0.782402 0.201239 0)
(0.837919 0.299375 0)
(0.830396 0.421227 0)
(1.00962 0.62637 0)
(0.0241644 -0.29742 0)
(0.071672 -0.298902 0)
(0.120282 -0.295387 0)
(0.168886 -0.298199 0)
(0.21754 -0.296291 0)
(0.267149 -0.293994 0)
(0.317408 -0.291048 0)
(0.36833 -0.28813 0)
(0.419227 -0.279871 0)
(0.471027 -0.275516 0)
(0.521898 -0.258692 0)
(0.575763 -0.246615 0)
(0.624251 -0.220334 0)
(0.679516 -0.1971 0)
(0.722686 -0.150422 0)
(0.772644 -0.106548 0)
(0.823533 -0.041234 0)
(0.851166 0.0386415 0)
(0.902665 0.129292 0)
(0.91677 0.226381 0)
(0.982921 0.322094 0)
(1.00286 0.421379 0)
(1.13967 0.583968 0)
(0.0246206 -0.345777 0)
(0.0716414 -0.34735 0)
(0.120958 -0.344643 0)
(0.170003 -0.347526 0)
(0.219072 -0.34623 0)
(0.26933 -0.344933 0)
(0.320505 -0.342811 0)
(0.372683 -0.340262 0)
(0.425576 -0.33249 0)
(0.4803 -0.327731 0)
(0.534761 -0.311147 0)
(0.593066 -0.299324 0)
(0.649723 -0.272293 0)
(0.711794 -0.246794 0)
(0.770406 -0.20488 0)
(0.842031 -0.166915 0)
(0.884648 -0.0969115 0)
(0.945713 -0.0366319 0)
(0.966058 0.0507098 0)
(0.984432 0.122367 0)
(1.00985 0.213501 0)
(1.03388 0.270025 0)
(1.12353 0.391743 0)
(0.0251767 -0.394193 0)
(0.0716972 -0.395756 0)
(0.121817 -0.394278 0)
(0.17158 -0.396844 0)
(0.221563 -0.396163 0)
(0.272997 -0.39601 0)
(0.325946 -0.39501 0)
(0.380097 -0.393881 0)
(0.435818 -0.388241 0)
(0.493365 -0.385519 0)
(0.55132 -0.372396 0)
(0.612628 -0.362554 0)
(0.670562 -0.340264 0)
(0.730745 -0.318727 0)
(0.794437 -0.281858 0)
(0.848257 -0.221611 0)
(0.903286 -0.145621 0)
(0.961716 -0.0433891 0)
(0.964983 0.0897713 0)
(1.0094 0.180962 0)
(1.02578 0.270474 0)
(1.0783 0.304832 0)
(1.14664 0.396569 0)
(0.0253462 -0.44324 0)
(0.0712457 -0.444582 0)
(0.121451 -0.445141 0)
(0.171595 -0.447883 0)
(0.22198 -0.448284 0)
(0.273634 -0.449971 0)
(0.326318 -0.450594 0)
(0.379416 -0.450765 0)
(0.433784 -0.446381 0)
(0.49105 -0.443747 0)
(0.55282 -0.430961 0)
(0.63117 -0.418942 0)
(0.756759 -0.393213 0)
(0.874147 -0.37219 0)
(0.966724 -0.322698 0)
(1.01788 -0.27473 0)
(1.00153 -0.209473 0)
(0.852024 -0.0979645 0)
(0.799366 0.00662737 0)
(0.89983 0.0696969 0)
(1.01374 0.153215 0)
(1.07674 0.156209 0)
(1.14583 0.275695 0)
(0.0254619 -0.491256 0)
(0.0716549 -0.492329 0)
(0.123388 -0.495114 0)
(0.177347 -0.497842 0)
(0.235187 -0.498757 0)
(0.303589 -0.500707 0)
(0.385962 -0.501917 0)
(0.452071 -0.502092 0)
(0.535047 -0.500981 0)
(0.626756 -0.505166 0)
(0.746754 -0.513221 0)
(0.885242 -0.570225 0)
(1.03555 -0.569354 0)
(1.17349 -0.531429 0)
(1.25567 -0.427784 0)
(1.30686 -0.256225 0)
(1.23869 0.0156879 0)
(1.0563 0.162634 0)
(0.936451 0.0388434 0)
(0.938847 -0.0485625 0)
(1.02499 0.0719918 0)
(1.18216 0.16169 0)
(1.2541 0.286088 0)
(0.0226235 -0.540187 0)
(0.0751969 -0.542265 0)
(0.122752 -0.550514 0)
(0.178779 -0.559115 0)
(0.234335 -0.574048 0)
(0.292505 -0.599461 0)
(0.361439 -0.598881 0)
(0.436947 -0.601602 0)
(0.535609 -0.61996 0)
(0.648268 -0.657014 0)
(0.80137 -0.690463 0)
(0.952398 -0.712604 0)
(1.09218 -0.686557 0)
(1.20686 -0.594196 0)
(1.31108 -0.456823 0)
(1.38601 -0.253531 0)
(1.45047 0.0424867 0)
(1.48726 0.205009 0)
(1.49414 0.128737 0)
(1.38015 -0.00658226 0)
(1.32769 -0.0825695 0)
(1.3796 -0.0599339 0)
(1.47741 0.164113 0)
(0.0242814 -0.591346 0)
(0.0821569 -0.594956 0)
(0.133585 -0.601313 0)
(0.186989 -0.613197 0)
(0.246661 -0.616467 0)
(0.292655 -0.630476 0)
(0.347562 -0.647089 0)
(0.413329 -0.676491 0)
(0.500145 -0.714234 0)
(0.59525 -0.77141 0)
(0.709662 -0.819598 0)
(0.808648 -0.85853 0)
(0.898757 -0.824682 0)
(0.999065 -0.749858 0)
(1.13166 -0.610247 0)
(1.26466 -0.397313 0)
(1.42709 -0.0895676 0)
(1.60042 0.118152 0)
(1.70369 0.144452 0)
(1.73017 0.113301 0)
(1.72223 0.0658212 0)
(1.67194 0.00847018 0)
(1.71825 0.0234995 0)
(0.0261079 -0.644695 0)
(0.0689264 -0.649236 0)
(0.120663 -0.65323 0)
(0.160487 -0.669424 0)
(0.211928 -0.676133 0)
(0.254494 -0.698998 0)
(0.310298 -0.719473 0)
(0.3622 -0.754434 0)
(0.42927 -0.802188 0)
(0.495403 -0.867789 0)
(0.562368 -0.905109 0)
(0.588533 -0.904365 0)
(0.619969 -0.879438 0)
(0.662522 -0.828192 0)
(0.727067 -0.723349 0)
(0.820292 -0.547616 0)
(0.966275 -0.293756 0)
(1.19254 -0.0703694 0)
(1.37322 0.00147854 0)
(1.51048 -0.0208112 0)
(1.6069 -0.0168068 0)
(1.69294 -0.0492127 0)
(1.76493 0.000983139 0)
(0.0268589 -0.688774 0)
(0.06086 -0.691967 0)
(0.11337 -0.695365 0)
(0.146638 -0.707202 0)
(0.195072 -0.712879 0)
(0.228991 -0.73105 0)
(0.274706 -0.756178 0)
(0.310776 -0.796221 0)
(0.359268 -0.848972 0)
(0.38876 -0.904324 0)
(0.407053 -0.913907 0)
(0.410048 -0.913941 0)
(0.425637 -0.898251 0)
(0.435152 -0.855978 0)
(0.457218 -0.768463 0)
(0.498403 -0.63872 0)
(0.592645 -0.463125 0)
(0.761492 -0.293017 0)
(0.970246 -0.177118 0)
(1.13996 -0.126286 0)
(1.29237 -0.122618 0)
(1.44368 -0.156066 0)
(1.60526 -0.131527 0)
(0.0229288 -0.73106 0)
(0.0551751 -0.734229 0)
(0.100708 -0.73779 0)
(0.133081 -0.749378 0)
(0.177428 -0.757515 0)
(0.212819 -0.777124 0)
(0.255137 -0.801125 0)
(0.284521 -0.838169 0)
(0.314336 -0.880098 0)
(0.317526 -0.91544 0)
(0.326085 -0.925972 0)
(0.326176 -0.923606 0)
(0.33284 -0.905526 0)
(0.329441 -0.86054 0)
(0.336899 -0.787443 0)
(0.365686 -0.682446 0)
(0.440858 -0.55728 0)
(0.573188 -0.447999 0)
(0.747409 -0.376708 0)
(0.945017 -0.340464 0)
(1.14446 -0.317694 0)
(1.3355 -0.35859 0)
(1.52774 -0.330782 0)
(0.0216425 -0.768543 0)
(0.0550565 -0.771348 0)
(0.0974501 -0.774932 0)
(0.130753 -0.78543 0)
(0.170757 -0.794127 0)
(0.203666 -0.809943 0)
(0.23792 -0.829083 0)
(0.260329 -0.855906 0)
(0.279054 -0.883159 0)
(0.282674 -0.915709 0)
(0.290949 -0.923405 0)
(0.290676 -0.919815 0)
(0.297398 -0.901211 0)
(0.300543 -0.858959 0)
(0.326832 -0.804459 0)
(0.37948 -0.744119 0)
(0.472028 -0.672184 0)
(0.60642 -0.602778 0)
(0.771918 -0.552404 0)
(0.955768 -0.528884 0)
(1.15717 -0.517577 0)
(1.35485 -0.545734 0)
(1.55398 -0.525713 0)
(0.0192176 -0.806903 0)
(0.0499004 -0.80911 0)
(0.0880206 -0.81278 0)
(0.119344 -0.821692 0)
(0.155487 -0.829985 0)
(0.186673 -0.843367 0)
(0.219887 -0.857587 0)
(0.243403 -0.878545 0)
(0.264962 -0.901947 0)
(0.272377 -0.926895 0)
(0.283859 -0.933483 0)
(0.29273 -0.930039 0)
(0.313551 -0.915823 0)
(0.344236 -0.890633 0)
(0.395808 -0.866968 0)
(0.464205 -0.827935 0)
(0.555023 -0.7851 0)
(0.677606 -0.748707 0)
(0.824573 -0.726899 0)
(0.994352 -0.725658 0)
(1.18067 -0.717239 0)
(1.36791 -0.753986 0)
(1.56919 -0.741526 0)
(0.0171236 -0.83876 0)
(0.0479322 -0.841197 0)
(0.0825386 -0.845494 0)
(0.113699 -0.853827 0)
(0.146876 -0.862512 0)
(0.177331 -0.875065 0)
(0.208209 -0.886735 0)
(0.233907 -0.901336 0)
(0.257409 -0.912907 0)
(0.271799 -0.934618 0)
(0.290011 -0.944337 0)
(0.312238 -0.949419 0)
(0.344222 -0.952762 0)
(0.388511 -0.941042 0)
(0.443525 -0.925054 0)
(0.512276 -0.904078 0)
(0.599906 -0.886439 0)
(0.712628 -0.874109 0)
(0.845014 -0.870856 0)
(0.994244 -0.888144 0)
(1.16697 -0.893757 0)
(1.34761 -0.938082 0)
(1.55575 -0.945011 0)
(0.0158874 -0.871481 0)
(0.0447937 -0.874019 0)
(0.0764546 -0.878134 0)
(0.104978 -0.885504 0)
(0.135362 -0.893297 0)
(0.16276 -0.904202 0)
(0.192117 -0.913915 0)
(0.217854 -0.927346 0)
(0.247812 -0.939558 0)
(0.27031 -0.959212 0)
(0.295348 -0.973657 0)
(0.323877 -0.98421 0)
(0.357871 -0.992429 0)
(0.400274 -0.990337 0)
(0.452062 -0.990916 0)
(0.520625 -0.984973 0)
(0.602454 -0.986138 0)
(0.707078 -0.994895 0)
(0.830679 -1.00947 0)
(0.969898 -1.04867 0)
(1.13691 -1.07195 0)
(1.31294 -1.14319 0)
(1.52842 -1.1751 0)
(0.0147637 -0.900141 0)
(0.042247 -0.902431 0)
(0.0711827 -0.906391 0)
(0.0983005 -0.91334 0)
(0.126541 -0.921004 0)
(0.153417 -0.932354 0)
(0.181822 -0.942516 0)
(0.208805 -0.957438 0)
(0.238635 -0.965979 0)
(0.26653 -0.982448 0)
(0.294533 -0.998434 0)
(0.326739 -1.01222 0)
(0.3607 -1.02952 0)
(0.405255 -1.03572 0)
(0.454083 -1.04605 0)
(0.517792 -1.05529 0)
(0.594522 -1.07358 0)
(0.687953 -1.10377 0)
(0.804598 -1.13465 0)
(0.92838 -1.19635 0)
(1.08932 -1.23833 0)
(1.25362 -1.33209 0)
(1.4682 -1.39147 0)
(0.0135844 -0.928255 0)
(0.0383323 -0.9302 0)
(0.0652135 -0.933961 0)
(0.0899004 -0.940628 0)
(0.116718 -0.948208 0)
(0.141087 -0.959263 0)
(0.167908 -0.969122 0)
(0.19197 -0.98403 0)
(0.219686 -0.99716 0)
(0.248535 -1.01506 0)
(0.277004 -1.03378 0)
(0.309878 -1.05055 0)
(0.342999 -1.07105 0)
(0.382604 -1.08412 0)
(0.430903 -1.10358 0)
(0.488117 -1.12628 0)
(0.564486 -1.15675 0)
(0.643613 -1.2063 0)
(0.755599 -1.25078 0)
(0.860134 -1.33496 0)
(1.01329 -1.39884 0)
(1.16093 -1.52369 0)
(1.36925 -1.62507 0)
(0.0124543 -0.95247 0)
(0.0356223 -0.95446 0)
(0.0607112 -0.958381 0)
(0.0841191 -0.965219 0)
(0.109135 -0.97261 0)
(0.132234 -0.983889 0)
(0.157244 -0.993796 0)
(0.180669 -1.00952 0)
(0.206223 -1.02284 0)
(0.23153 -1.04012 0)
(0.258242 -1.05997 0)
(0.286412 -1.07865 0)
(0.317502 -1.10229 0)
(0.351822 -1.12425 0)
(0.399497 -1.15168 0)
(0.448283 -1.18975 0)
(0.521374 -1.22933 0)
(0.585417 -1.29597 0)
(0.686221 -1.35179 0)
(0.771833 -1.45524 0)
(0.905764 -1.54023 0)
(1.03247 -1.68933 0)
(1.21113 -1.83132 0)
(0.0117231 -0.976251 0)
(0.0330585 -0.978388 0)
(0.056673 -0.982372 0)
(0.0777881 -0.988995 0)
(0.101062 -0.996245 0)
(0.121737 -1.00735 0)
(0.144862 -1.0175 0)
(0.165953 -1.03307 0)
(0.189184 -1.04803 0)
(0.212582 -1.06728 0)
(0.237448 -1.08864 0)
(0.262417 -1.11013 0)
(0.293092 -1.13647 0)
(0.324223 -1.16659 0)
(0.368713 -1.20024 0)
(0.410155 -1.24877 0)
(0.469216 -1.29447 0)
(0.523693 -1.37183 0)
(0.597917 -1.43835 0)
(0.676735 -1.55533 0)
(0.768812 -1.6612 0)
(0.887867 -1.8305 0)
(1.00957 -2.01079 0)
(0.0107291 -0.997482 0)
(0.0303038 -0.99964 0)
(0.0516551 -1.00334 0)
(0.0708025 -1.00983 0)
(0.0918426 -1.01677 0)
(0.110582 -1.0279 0)
(0.131459 -1.03818 0)
(0.150452 -1.05406 0)
(0.171252 -1.06952 0)
(0.191107 -1.08863 0)
(0.212567 -1.10978 0)
(0.23434 -1.13466 0)
(0.261495 -1.16409 0)
(0.28796 -1.2004 0)
(0.322395 -1.23769 0)
(0.355865 -1.29093 0)
(0.398109 -1.34305 0)
(0.445976 -1.42551 0)
(0.493135 -1.50508 0)
(0.564925 -1.62721 0)
(0.61166 -1.75171 0)
(0.71797 -1.93119 0)
(0.763268 -2.13265 0)
(0.00976735 -1.01727 0)
(0.0271665 -1.01931 0)
(0.0465627 -1.02285 0)
(0.0637166 -1.02919 0)
(0.0828411 -1.036 0)
(0.0996804 -1.04699 0)
(0.118337 -1.05734 0)
(0.135126 -1.07296 0)
(0.153235 -1.08866 0)
(0.170512 -1.10882 0)
(0.189811 -1.13181 0)
(0.208453 -1.15936 0)
(0.22979 -1.18997 0)
(0.249955 -1.2279 0)
(0.273876 -1.26795 0)
(0.301422 -1.32517 0)
(0.328181 -1.38418 0)
(0.366465 -1.46811 0)
(0.389812 -1.55633 0)
(0.44366 -1.67617 0)
(0.456681 -1.81227 0)
(0.530345 -1.98559 0)
(0.521335 -2.20088 0)
(0.00873839 -1.03454 0)
(0.0243404 -1.03656 0)
(0.0417799 -1.04001 0)
(0.0571574 -1.04624 0)
(0.0742045 -1.05284 0)
(0.0890728 -1.06353 0)
(0.105219 -1.07369 0)
(0.119764 -1.08912 0)
(0.134941 -1.10488 0)
(0.149335 -1.12541 0)
(0.164106 -1.1476 0)
(0.178001 -1.175 0)
(0.192655 -1.20543 0)
(0.207993 -1.24507 0)
(0.223076 -1.28884 0)
(0.242021 -1.34619 0)
(0.253468 -1.40742 0)
(0.277986 -1.48873 0)
(0.281428 -1.58097 0)
(0.313535 -1.69657 0)
(0.300841 -1.83608 0)
(0.339225 -1.99971 0)
(0.293164 -2.21468 0)
(0.00792343 -1.05036 0)
(0.0218919 -1.05237 0)
(0.0375774 -1.05567 0)
(0.0511284 -1.06164 0)
(0.0661061 -1.06789 0)
(0.0788753 -1.07805 0)
(0.0926093 -1.08797 0)
(0.10468 -1.10276 0)
(0.116898 -1.11812 0)
(0.127965 -1.13816 0)
(0.138747 -1.16028 0)
(0.149029 -1.18816 0)
(0.15828 -1.21956 0)
(0.16795 -1.25875 0)
(0.173395 -1.30129 0)
(0.18278 -1.35637 0)
(0.181799 -1.41892 0)
(0.191537 -1.49749 0)
(0.178396 -1.58971 0)
(0.186749 -1.69793 0)
(0.152267 -1.8345 0)
(0.156213 -1.98106 0)
(0.0816416 -2.18603 0)
(0.0071016 -1.06442 0)
(0.0194494 -1.06629 0)
(0.0333091 -1.0693 0)
(0.0450745 -1.07484 0)
(0.0580071 -1.08063 0)
(0.0688555 -1.09012 0)
(0.0801915 -1.09949 0)
(0.0898983 -1.11354 0)
(0.0990963 -1.12808 0)
(0.107165 -1.14744 0)
(0.11394 -1.16845 0)
(0.119968 -1.19486 0)
(0.123216 -1.22401 0)
(0.126758 -1.26077 0)
(0.124756 -1.30306 0)
(0.125425 -1.35552 0)
(0.113596 -1.41509 0)
(0.109293 -1.48678 0)
(0.0813073 -1.57448 0)
(0.0682134 -1.67253 0)
(0.0146854 -1.80296 0)
(-0.0141195 -1.93228 0)
(-0.105786 -2.12178 0)
(0.00630094 -1.07691 0)
(0.01718 -1.07858 0)
(0.0293818 -1.08127 0)
(0.0395625 -1.08634 0)
(0.050697 -1.09163 0)
(0.0597321 -1.10025 0)
(0.0689444 -1.10892 0)
(0.0762808 -1.12171 0)
(0.0827007 -1.13521 0)
(0.0876382 -1.15312 0)
(0.0904818 -1.17279 0)
(0.0921666 -1.19763 0)
(0.0902887 -1.22579 0)
(0.0880751 -1.26058 0)
(0.0789587 -1.29903 0)
(0.0713149 -1.34576 0)
(0.0504372 -1.40136 0)
(0.033707 -1.46606 0)
(-0.00600369 -1.54635 0)
(-0.0386258 -1.63266 0)
(-0.106948 -1.7485 0)
(-0.168145 -1.86284 0)
(-0.273987 -2.02362 0)
(0.00563552 -1.08793 0)
(0.0153503 -1.08941 0)
(0.0261256 -1.0917 0)
(0.0349469 -1.0962 0)
(0.0442959 -1.10079 0)
(0.0516465 -1.10842 0)
(0.0587504 -1.11599 0)
(0.0640056 -1.12737 0)
(0.0678358 -1.13929 0)
(0.0699689 -1.15535 0)
(0.0694545 -1.1727 0)
(0.0672947 -1.19491 0)
(0.060599 -1.2195 0)
(0.0528248 -1.24989 0)
(0.03704 -1.28562 0)
(0.0215301 -1.32763 0)
(-0.00681492 -1.37639 0)
(-0.0335504 -1.43131 0)
(-0.082146 -1.50056 0)
(-0.129283 -1.57298 0)
(-0.209066 -1.67108 0)
(-0.293557 -1.7673 0)
(-0.419652 -1.90338 0)
(0.00511926 -1.09787 0)
(0.0138664 -1.09906 0)
(0.0234596 -1.10083 0)
(0.0310582 -1.1045 0)
(0.0388472 -1.10825 0)
(0.0445841 -1.11469 0)
(0.0498197 -1.12115 0)
(0.0531379 -1.1308 0)
(0.0547686 -1.14095 0)
(0.0544129 -1.15478 0)
(0.0509049 -1.16974 0)
(0.045407 -1.18883 0)
(0.0345389 -1.21069 0)
(0.0219281 -1.23709 0)
(0.00104704 -1.26676 0)
(-0.0216929 -1.30209 0)
(-0.0579533 -1.34481 0)
(-0.0946201 -1.39091 0)
(-0.150943 -1.44838 0)
(-0.20905 -1.50583 0)
(-0.293869 -1.58102 0)
(-0.388734 -1.65188 0)
(-0.519412 -1.74777 0)
(0.004685 -1.10694 0)
(0.0127449 -1.10777 0)
(0.0213779 -1.1089 0)
(0.0281415 -1.11161 0)
(0.0347302 -1.11429 0)
(0.0392383 -1.11941 0)
(0.0427685 -1.12446 0)
(0.0442973 -1.13236 0)
(0.0437921 -1.14039 0)
(0.0412479 -1.15155 0)
(0.0353367 -1.16341 0)
(0.0273411 -1.1787 0)
(0.0138913 -1.19561 0)
(-0.00226929 -1.21668 0)
(-0.0272158 -1.24138 0)
(-0.0541517 -1.26904 0)
(-0.0947828 -1.30263 0)
(-0.138794 -1.33898 0)
(-0.201647 -1.38509 0)
(-0.269625 -1.43094 0)
(-0.361197 -1.49018 0)
(-0.462267 -1.54288 0)
(-0.590951 -1.61069 0)
(0.00435503 -1.11527 0)
(0.0119028 -1.11573 0)
(0.0198668 -1.11618 0)
(0.0261131 -1.11782 0)
(0.0319973 -1.11926 0)
(0.0357929 -1.12269 0)
(0.0381406 -1.12605 0)
(0.0382504 -1.13178 0)
(0.0357818 -1.13764 0)
(0.030956 -1.14626 0)
(0.0223851 -1.15541 0)
(0.0114616 -1.16728 0)
(-0.0050231 -1.18038 0)
(-0.0239054 -1.19579 0)
(-0.0514577 -1.21386 0)
(-0.082183 -1.23423 0)
(-0.125017 -1.25862 0)
(-0.172327 -1.28349 0)
(-0.237199 -1.31528 0)
(-0.310187 -1.34518 0)
(-0.406287 -1.38509 0)
(-0.516801 -1.41985 0)
(-0.653193 -1.46537 0)
(0.00415504 -1.12322 0)
(0.0114907 -1.12331 0)
(0.0190761 -1.12312 0)
(0.025137 -1.12376 0)
(0.0306341 -1.12394 0)
(0.0341711 -1.12557 0)
(0.035928 -1.12683 0)
(0.035286 -1.13001 0)
(0.0318382 -1.13295 0)
(0.0257907 -1.1382 0)
(0.0155986 -1.14368 0)
(0.00266423 -1.15138 0)
(-0.0162048 -1.15993 0)
(-0.0381529 -1.17042 0)
(-0.0682605 -1.18264 0)
(-0.102015 -1.19576 0)
(-0.14741 -1.21194 0)
(-0.197427 -1.22725 0)
(-0.262836 -1.24675 0)
(-0.335544 -1.26258 0)
(-0.427907 -1.28349 0)
(-0.533216 -1.29704 0)
(-0.663223 -1.31492 0)
(0.00395402 -1.13088 0)
(0.0111095 -1.13061 0)
(0.0183736 -1.12977 0)
(0.0243647 -1.12933 0)
(0.0296161 -1.1282 0)
(0.0331241 -1.12792 0)
(0.0347716 -1.12699 0)
(0.0341135 -1.1276 0)
(0.0302956 -1.12786 0)
(0.0237879 -1.12987 0)
(0.0126559 -1.13184 0)
(-0.00134092 -1.13526 0)
(-0.0213458 -1.13891 0)
(-0.0443782 -1.14343 0)
(-0.0757106 -1.14903 0)
(-0.110942 -1.15454 0)
(-0.157408 -1.16176 0)
(-0.209464 -1.16707 0)
(-0.276138 -1.17497 0)
(-0.350957 -1.17827 0)
(-0.443736 -1.18423 0)
(-0.548632 -1.18154 0)
(-0.674143 -1.17947 0)
(0.00372569 -1.13833 0)
(0.0106051 -1.13779 0)
(0.0175091 -1.1364 0)
(0.02336 -1.13505 0)
(0.0283989 -1.13271 0)
(0.0319013 -1.13076 0)
(0.0336882 -1.12776 0)
(0.0335119 -1.12555 0)
(0.0302542 -1.12249 0)
(0.0240747 -1.12055 0)
(0.0131208 -1.11832 0)
(-0.00132547 -1.11736 0)
(-0.0218909 -1.11655 0)
(-0.0460687 -1.11607 0)
(-0.0777657 -1.11569 0)
(-0.113493 -1.1142 0)
(-0.158882 -1.11307 0)
(-0.209589 -1.10885 0)
(-0.272857 -1.10513 0)
(-0.343931 -1.09556 0)
(-0.430667 -1.08604 0)
(-0.528903 -1.06718 0)
(-0.645127 -1.04606 0)
(0.00340724 -1.14515 0)
(0.00985149 -1.14434 0)
(0.0161671 -1.14244 0)
(0.0217404 -1.14015 0)
(0.0265088 -1.13663 0)
(0.0301777 -1.13311 0)
(0.0323122 -1.12844 0)
(0.0327549 -1.12403 0)
(0.0303893 -1.11818 0)
(0.0256901 -1.11257 0)
(0.0165983 -1.10606 0)
(0.00406494 -1.1 0)
(-0.0149915 -1.09357 0)
(-0.0383495 -1.08715 0)
(-0.0698144 -1.0807 0)
(-0.105828 -1.07273 0)
(-0.151284 -1.06433 0)
(-0.201612 -1.05194 0)
(-0.263286 -1.03871 0)
(-0.331654 -1.01864 0)
(-0.41379 -0.99674 0)
(-0.50525 -0.964562 0)
(-0.612459 -0.928506 0)
(0.00304301 -1.15167 0)
(0.00881856 -1.15064 0)
(0.0144343 -1.14837 0)
(0.0194708 -1.14547 0)
(0.0238658 -1.14119 0)
(0.0273372 -1.13663 0)
(0.029422 -1.13036 0)
(0.0301061 -1.12369 0)
(0.0285288 -1.11538 0)
(0.0251418 -1.1068 0)
(0.0181978 -1.09657 0)
(0.0082403 -1.08579 0)
(-0.00748097 -1.07393 0)
(-0.0275905 -1.06126 0)
(-0.0555615 -1.04794 0)
(-0.0889496 -1.0328 0)
(-0.131648 -1.01704 0)
(-0.179985 -0.997017 0)
(-0.238187 -0.974976 0)
(-0.302423 -0.945299 0)
(-0.377756 -0.912456 0)
(-0.461147 -0.868587 0)
(-0.557153 -0.819733 0)
(0.0024525 -1.1569 0)
(0.00716198 -1.15563 0)
(0.0116822 -1.15298 0)
(0.0158498 -1.14948 0)
(0.0195446 -1.14437 0)
(0.0226783 -1.13855 0)
(0.0246857 -1.13104 0)
(0.0256811 -1.12299 0)
(0.0249174 -1.11295 0)
(0.0226244 -1.10202 0)
(0.0174315 -1.08878 0)
(0.0100354 -1.07401 0)
(-0.00189464 -1.05719 0)
(-0.0176212 -1.03861 0)
(-0.040422 -1.01854 0)
(-0.0686769 -0.995929 0)
(-0.106266 -0.972149 0)
(-0.150453 -0.944331 0)
(-0.204895 -0.914722 0)
(-0.265432 -0.877552 0)
(-0.335623 -0.836142 0)
(-0.411729 -0.783182 0)
(-0.498012 -0.724185 0)
(0.00196781 -1.16142 0)
(0.00568576 -1.16001 0)
(0.00924943 -1.15718 0)
(0.0124664 -1.15346 0)
(0.0153429 -1.14811 0)
(0.0177488 -1.14188 0)
(0.0195598 -1.13343 0)
(0.0206073 -1.12404 0)
(0.0203785 -1.11239 0)
(0.0190029 -1.09946 0)
(0.0155642 -1.08403 0)
(0.010565 -1.06662 0)
(0.0023557 -1.04626 0)
(-0.0086654 -1.02286 0)
(-0.0252995 -0.996815 0)
(-0.0467594 -0.967072 0)
(-0.0764126 -0.935163 0)
(-0.1129 -0.898493 0)
(-0.159622 -0.859915 0)
(-0.213878 -0.814681 0)
(-0.277669 -0.766108 0)
(-0.347073 -0.706216 0)
(-0.423729 -0.63988 0)
(0.00130383 -1.16438 0)
(0.00375849 -1.16276 0)
(0.00610815 -1.1596 0)
(0.00821691 -1.15542 0)
(0.0100657 -1.1495 0)
(0.0115829 -1.14264 0)
(0.0126898 -1.13371 0)
(0.0134471 -1.12362 0)
(0.0134293 -1.11108 0)
(0.012748 -1.09694 0)
(0.0106223 -1.07994 0)
(0.00727245 -1.06044 0)
(0.00147198 -1.03744 0)
(-0.00609652 -1.01048 0)
(-0.0173487 -0.979754 0)
(-0.031909 -0.944155 0)
(-0.0528156 -0.905061 0)
(-0.0794578 -0.86017 0)
(-0.115352 -0.812476 0)
(-0.159357 -0.758171 0)
(-0.214164 -0.701396 0)
(-0.276498 -0.63543 0)
(-0.346473 -0.563934 0)
(0.000866343 -1.16666 0)
(0.00243255 -1.16499 0)
(0.0038263 -1.16179 0)
(0.00499185 -1.15756 0)
(0.00594427 -1.1516 0)
(0.0066794 -1.14463 0)
(0.00707772 -1.13542 0)
(0.00724395 -1.12494 0)
(0.00696272 -1.11185 0)
(0.00637626 -1.09689 0)
(0.0050119 -1.07877 0)
(0.00301655 -1.05778 0)
(-0.00049991 -1.03314 0)
(-0.00512531 -1.00438 0)
(-0.0120862 -0.971219 0)
(-0.020948 -0.931924 0)
(-0.0338742 -0.887788 0)
(-0.050741 -0.836237 0)
(-0.0744414 -0.780153 0)
(-0.105072 -0.716106 0)
(-0.145747 -0.649071 0)
(-0.195685 -0.574076 0)
(-0.255568 -0.4968 0)
(0.000328143 -1.16744 0)
(0.000976807 -1.16549 0)
(0.00150554 -1.16194 0)
(0.00189526 -1.15734 0)
(0.00208903 -1.15098 0)
(0.00210462 -1.14358 0)
(0.00184218 -1.13405 0)
(0.00144317 -1.12328 0)
(0.000714831 -1.10991 0)
(-0.000146222 -1.09467 0)
(-0.00143293 -1.07615 0)
(-0.00290872 -1.05448 0)
(-0.00522202 -1.02871 0)
(-0.00829903 -0.998306 0)
(-0.0129748 -0.963221 0)
(-0.01864 -0.921675 0)
(-0.026338 -0.874426 0)
(-0.0358062 -0.818741 0)
(-0.0490493 -0.757089 0)
(-0.0663644 -0.685712 0)
(-0.0906915 -0.609449 0)
(-0.123065 -0.524117 0)
(-0.166599 -0.437089 0)
(4.29815e-05 -1.16824 0)
(0.000126772 -1.16642 0)
(0.000128721 -1.16295 0)
(2.45909e-05 -1.15837 0)
(-0.000303298 -1.15203 0)