/*--------------------------------*- C++ -*----------------------------------*\
| =========                 |                                                 |
| \\      /  F ield         | OpenFOAM: The Open Source CFD Toolbox           |
|  \\    /   O peration     | Version:  v2012                                 |
|   \\  /    A nd           | Website:  www.openfoam.com                      |
|    \\/     M anipulation  |                                                 |
\*---------------------------------------------------------------------------*/
FoamFile
{
    version     2.0;
    format      ascii;
    class       volVectorField;
    location    "0.3";
    object      Uc;
}
// * * * * * * * * * * * * * * * * * * * * * * * * * * * * * * * * * * * * * //

dimensions      [0 1 -1 0 0 0 0];


internalField   nonuniform List<vector> 
2268
(
(0.0235091 -0.0111102 0)
(0.0703754 -0.0110384 0)
(0.116803 -0.0109029 0)
(0.163406 -0.0111213 0)
(0.209878 -0.0108408 0)
(0.255198 -0.0105774 0)
(0.299467 -0.0103437 0)
(0.343276 -0.01036 0)
(0.385455 -0.00957362 0)
(0.425745 -0.00946703 0)
(0.463356 -0.00830781 0)
(0.495148 -0.00671643 0)
(0.523623 -0.00674059 0)
(0.548565 -0.00504693 0)
(0.564645 -0.0025526 0)
(0.569223 0.000389467 0)
(0.561233 0.00338638 0)
(0.539047 0.00709845 0)
(0.499392 0.0116421 0)
(0.436658 0.0180055 0)
(0.348267 0.0237677 0)
(0.23033 0.0319685 0)
(0.0813426 0.0384422 0)
(0.0234857 -0.0333196 0)
(0.0703786 -0.0331389 0)
(0.116878 -0.0327189 0)
(0.163495 -0.0333607 0)
(0.209992 -0.0325374 0)
(0.255387 -0.0317522 0)
(0.299746 -0.0310536 0)
(0.343603 -0.0310803 0)
(0.385872 -0.028763 0)
(0.426384 -0.0284642 0)
(0.464146 -0.0249312 0)
(0.49662 -0.0204643 0)
(0.525669 -0.0201779 0)
(0.549522 -0.0146701 0)
(0.565252 -0.00796272 0)
(0.571548 0.000660784 0)
(0.564835 0.0100636 0)
(0.542436 0.0214918 0)
(0.501211 0.0354719 0)
(0.434973 0.0551269 0)
(0.339953 0.0733248 0)
(0.213202 0.0980493 0)
(0.0705103 0.110207 0)
(0.0234764 -0.0555135 0)
(0.0704478 -0.0553045 0)
(0.117055 -0.0545547 0)
(0.163689 -0.0555946 0)
(0.210262 -0.0542876 0)
(0.255831 -0.0529908 0)
(0.300392 -0.0518379 0)
(0.344396 -0.0518183 0)
(0.386882 -0.0480799 0)
(0.42778 -0.0476213 0)
(0.465869 -0.0416202 0)
(0.499263 -0.0349042 0)
(0.529185 -0.0336072 0)
(0.553106 -0.0238184 0)
(0.569869 -0.0141699 0)
(0.578711 -0.000286607 0)
(0.575106 0.0158873 0)
(0.556407 0.0350908 0)
(0.520771 0.0581966 0)
(0.462515 0.0912374 0)
(0.37603 0.122992 0)
(0.250891 0.167424 0)
(0.0881384 0.185184 0)
(0.0234803 -0.0777049 0)
(0.0705359 -0.0775495 0)
(0.117229 -0.0764029 0)
(0.16384 -0.0778127 0)
(0.210467 -0.0761153 0)
(0.256253 -0.0743368 0)
(0.301103 -0.0727467 0)
(0.345302 -0.0725936 0)
(0.388039 -0.0675807 0)
(0.429375 -0.0669836 0)
(0.467905 -0.0584668 0)
(0.502259 -0.050075 0)
(0.533267 -0.0472315 0)
(0.557768 -0.0330777 0)
(0.574953 -0.0209542 0)
(0.584144 -0.00202487 0)
(0.581571 0.0205453 0)
(0.563343 0.0478843 0)
(0.526047 0.0798701 0)
(0.464874 0.126005 0)
(0.375983 0.171106 0)
(0.250204 0.237892 0)
(0.0878533 0.268358 0)
(0.0235098 -0.0999121 0)
(0.0706924 -0.0998785 0)
(0.11753 -0.098276 0)
(0.164188 -0.100017 0)
(0.210924 -0.0980338 0)
(0.257017 -0.0958394 0)
(0.302292 -0.0938364 0)
(0.346816 -0.0934341 0)
(0.389977 -0.0873351 0)
(0.43194 -0.0865954 0)
(0.47111 -0.0755754 0)
(0.506884 -0.0661086 0)
(0.539522 -0.0612762 0)
(0.565554 -0.0429146 0)
(0.58498 -0.0284195 0)
(0.597332 -0.00474037 0)
(0.599792 0.0233143 0)
(0.58879 0.0589292 0)
(0.56046 0.0998394 0)
(0.508832 0.159345 0)
(0.42773 0.218104 0)
(0.301773 0.309863 0)
(0.111991 0.362803 0)
(0.0235234 -0.12214 0)
(0.0707841 -0.122284 0)
(0.117739 -0.120196 0)
(0.16445 -0.122222 0)
(0.211267 -0.120041 0)
(0.257614 -0.117518 0)
(0.303285 -0.115138 0)
(0.348124 -0.114365 0)
(0.391721 -0.107406 0)
(0.434288 -0.106472 0)
(0.474154 -0.0930509 0)
(0.511436 -0.0831587 0)
(0.545669 -0.0758284 0)
(0.573227 -0.0536892 0)
(0.594987 -0.0371087 0)
(0.60874 -0.00838796 0)
(0.611745 0.0243793 0)
(0.601314 0.0679932 0)
(0.572964 0.117562 0)
(0.520125 0.190993 0)
(0.43741 0.263875 0)
(0.306484 0.385492 0)
(0.112123 0.468719 0)
(0.023576 -0.144398 0)
(0.0709835 -0.144765 0)
(0.118132 -0.142188 0)
(0.165007 -0.144458 0)
(0.212037 -0.142156 0)
(0.258763 -0.139389 0)
(0.304968 -0.136687 0)
(0.350309 -0.135434 0)
(0.394558 -0.127853 0)
(0.437868 -0.12661 0)
(0.478664 -0.111034 0)
(0.517925 -0.101349 0)
(0.554067 -0.0908962 0)
(0.584024 -0.065803 0)
(0.609022 -0.0470921 0)
(0.626442 -0.0131366 0)
(0.635245 0.0235477 0)
(0.633443 0.0746059 0)
(0.617406 0.131926 0)
(0.579434 0.219544 0)
(0.512624 0.305988 0)
(0.388661 0.463837 0)
(0.152561 0.593808 0)
(0.0236054 -0.166696 0)
(0.0710625 -0.167299 0)
(0.118333 -0.164275 0)
(0.165358 -0.166748 0)
(0.212526 -0.164383 0)
(0.259503 -0.161446 0)
(0.306102 -0.158489 0)
(0.351944 -0.156725 0)
(0.396907 -0.148723 0)
(0.440889 -0.146993 0)
(0.482813 -0.129744 0)
(0.524014 -0.120665 0)
(0.56174 -0.10649 0)
(0.594163 -0.0796891 0)
(0.622508 -0.0584152 0)
(0.642311 -0.0194047 0)
(0.653857 0.0201985 0)
(0.65469 0.078413 0)
(0.642249 0.141578 0)
(0.607838 0.244101 0)
(0.54162 0.3443 0)
(0.414868 0.544011 0)
(0.16438 0.743593 0)
(-0.0262425 0.01106 0)
(-0.076862 0.0102667 0)
(-0.121005 0.00830498 0)
(-0.147231 0.00264542 0)
(-0.152179 -0.00074629 0)
(-0.139914 -0.00467649 0)
(-0.11464 -0.00627977 0)
(-0.086659 -0.00582819 0)
(-0.0549424 -0.00786896 0)
(-0.0215308 -0.00654942 0)
(0.0100449 -0.00708807 0)
(0.0393587 -0.00558754 0)
(0.0623651 -0.00440527 0)
(0.0776275 -0.00229379 0)
(0.0828721 -0.000144277 0)
(0.0780868 0.00197242 0)
(0.0637762 0.00390723 0)
(0.0416562 0.00529413 0)
(0.0144829 0.00605658 0)
(-0.0341514 0.0365443 0)
(-0.094318 0.031497 0)
(-0.138479 0.0242257 0)
(-0.157302 0.00547648 0)
(-0.153201 -0.00362801 0)
(-0.137726 -0.0140057 0)
(-0.113173 -0.0185562 0)
(-0.0864811 -0.0172196 0)
(-0.0552569 -0.0236624 0)
(-0.0213903 -0.0197864 0)
(0.0106699 -0.0213323 0)
(0.0403643 -0.0168565 0)
(0.0637502 -0.0132834 0)
(0.0792802 -0.0069276 0)
(0.0847145 -0.000467301 0)
(0.0800597 0.00589621 0)
(0.0656219 0.0117968 0)
(0.0429517 0.0160413 0)
(0.0149438 0.0183658 0)
(-0.03205 0.0644988 0)
(-0.0864794 0.0518776 0)
(-0.128549 0.0401142 0)
(-0.15696 0.00926892 0)
(-0.164586 -0.0063318 0)
(-0.150754 -0.0241796 0)
(-0.121026 -0.0318825 0)
(-0.089908 -0.0288956 0)
(-0.0568255 -0.0397523 0)
(-0.0221054 -0.0332835 0)
(0.0108501 -0.0359033 0)
(0.0417826 -0.0284872 0)
(0.0661652 -0.0223852 0)
(0.0823913 -0.0117477 0)
(0.0880228 -0.000768621 0)
(0.0828191 0.0099762 0)
(0.0674948 0.0199613 0)
(0.044023 0.0270885 0)
(0.0153135 0.0310283 0)
(-0.0394386 0.0947024 0)
(-0.107321 0.0732913 0)
(-0.156569 0.0571336 0)
(-0.174738 0.0116521 0)
(-0.163434 -0.0106898 0)
(-0.143087 -0.0347716 0)
(-0.116397 -0.0457003 0)
(-0.0891508 -0.0403157 0)
(-0.05717 -0.05642 0)
(-0.0204619 -0.0474115 0)
(0.0141902 -0.0509459 0)
(0.0462078 -0.0406345 0)
(0.0715624 -0.0318079 0)
(0.0883796 -0.0167945 0)
(0.0942676 -0.00103634 0)
(0.0890288 0.0142708 0)
(0.0729818 0.0285955 0)
(0.0477657 0.0387488 0)
(0.0166301 0.0444081 0)
(-0.0382625 0.127549 0)
(-0.103959 0.0968553 0)
(-0.15471 0.0756953 0)
(-0.186388 0.0138825 0)
(-0.191941 -0.0157768 0)
(-0.171506 -0.0474431 0)
(-0.131684 -0.0617324 0)
(-0.0945695 -0.0520724 0)
(-0.0593801 -0.0736472 0)
(-0.0221781 -0.0620357 0)
(0.0136056 -0.0666955 0)
(0.0481768 -0.0536225 0)
(0.0756771 -0.041716 0)
(0.0940315 -0.0222613 0)
(0.100572 -0.00127102 0)
(0.0946097 0.018855 0)
(0.0771525 0.0378473 0)
(0.0503544 0.0512062 0)
(0.0175421 0.0587357 0)
(-0.0520439 0.165757 0)
(-0.137576 0.122565 0)
(-0.194235 0.0952638 0)
(-0.210695 0.0143796 0)
(-0.189819 -0.0232024 0)
(-0.159422 -0.0620508 0)
(-0.125528 -0.0788922 0)
(-0.0973154 -0.0631131 0)
(-0.0639391 -0.0921843 0)
(-0.0202756 -0.0783087 0)
(0.0204519 -0.0833807 0)
(0.0569044 -0.0675616 0)
(0.0859174 -0.0522294 0)
(0.105151 -0.0281507 0)
(0.111915 -0.00145584 0)
(0.105559 0.0238642 0)
(0.0864195 0.0479893 0)
(0.0564916 0.0647773 0)
(0.0196838 0.0743621 0)
(-0.0517422 0.209699 0)
(-0.141179 0.152639 0)
(-0.208636 0.117574 0)
(-0.245045 0.014148 0)
(-0.245194 -0.0321978 0)
(-0.210464 -0.0811696 0)
(-0.150665 -0.100038 0)
(-0.104052 -0.0742078 0)
(-0.0662261 -0.111789 0)
(-0.0240054 -0.0956489 0)
(0.0172418 -0.101323 0)
(0.0586466 -0.0831506 0)
(0.0919124 -0.0635455 0)
(0.113681 -0.0346898 0)
(0.121665 -0.00160507 0)
(0.114591 0.0293103 0)
(0.0937071 0.0591518 0)
(0.0612821 0.0797211 0)
(0.0213922 0.091626 0)
(-0.0749964 0.263404 0)
(-0.195951 0.188017 0)
(-0.270124 0.14203 0)
(-0.287377 0.0121086 0)
(-0.251012 -0.0459738 0)
(-0.195414 -0.106228 0)
(-0.139145 -0.124762 0)
(-0.108446 -0.0827823 0)
(-0.0789367 -0.132269 0)
(-0.0260962 -0.116017 0)
(0.0260188 -0.121081 0)
(0.0707463 -0.100444 0)
(0.106176 -0.075887 0)
(0.129829 -0.0420838 0)
(0.138693 -0.00179263 0)
(0.130895 0.0354079 0)
(0.106957 0.0717035 0)
(0.0697866 0.096356 0)
(0.0243434 0.110872 0)
(0.0237201 -0.201696 0)
(0.0713608 -0.202617 0)
(0.118976 -0.199161 0)
(0.166476 -0.201834 0)
(0.214113 -0.199474 0)
(0.261802 -0.196494 0)
(0.309395 -0.193303 0)
(0.356494 -0.19092 0)
(0.403063 -0.182588 0)
(0.448672 -0.17976 0)
(0.493044 -0.161394 0)
(0.5371 -0.152771 0)
(0.576985 -0.132307 0)
(0.6144 -0.106805 0)
(0.64922 -0.0796957 0)
(0.677288 -0.0356976 0)
(0.70029 0.00791195 0)
(0.719934 0.0705596 0)
(0.735941 0.13922 0)
(0.755285 0.243276 0)
(0.781855 0.349711 0)
(0.834168 0.545917 0)
(0.908412 0.785442 0)
(0.0238096 -0.249473 0)
(0.0715588 -0.250727 0)
(0.11945 -0.247056 0)
(0.167374 -0.24986 0)
(0.215433 -0.247644 0)
(0.263781 -0.244863 0)
(0.312366 -0.241614 0)
(0.360863 -0.238705 0)
(0.409228 -0.230234 0)
(0.45716 -0.226143 0)
(0.505149 -0.207856 0)
(0.552546 -0.19824 0)
(0.597523 -0.172144 0)
(0.64215 -0.149438 0)
(0.682644 -0.112769 0)
(0.718867 -0.0672514 0)
(0.750628 -0.0155839 0)
(0.773858 0.0509576 0)
(0.788329 0.128185 0)
(0.800999 0.22213 0)
(0.82199 0.323049 0)
(0.877022 0.464674 0)
(0.990165 0.678326 0)
(0.0239566 -0.297489 0)
(0.0719409 -0.298945 0)
(0.12027 -0.29556 0)
(0.168884 -0.298398 0)
(0.217762 -0.296549 0)
(0.267296 -0.29435 0)
(0.31756 -0.291492 0)
(0.368311 -0.288593 0)
(0.419439 -0.280358 0)
(0.470772 -0.2758 0)
(0.522622 -0.258558 0)
(0.574386 -0.247216 0)
(0.625906 -0.220169 0)
(0.67644 -0.197073 0)
(0.724337 -0.153986 0)
(0.772749 -0.11111 0)
(0.817549 -0.0486863 0)
(0.85673 0.0213226 0)
(0.892605 0.107293 0)
(0.928527 0.194257 0)
(0.971139 0.286986 0)
(1.03268 0.383556 0)
(1.13077 0.547112 0)
(0.0240629 -0.345759 0)
(0.0722082 -0.347306 0)
(0.120879 -0.344705 0)
(0.169993 -0.347493 0)
(0.219349 -0.346202 0)
(0.269543 -0.344946 0)
(0.320747 -0.342894 0)
(0.372859 -0.340592 0)
(0.426033 -0.333207 0)
(0.480226 -0.329027 0)
(0.535706 -0.31322 0)
(0.592625 -0.301805 0)
(0.65106 -0.27611 0)
(0.710918 -0.252105 0)
(0.773653 -0.210181 0)
(0.834762 -0.165041 0)
(0.889205 -0.0945524 0)
(0.93532 -0.0185785 0)
(0.964699 0.0816404 0)
(0.982637 0.165795 0)
(1.00898 0.260175 0)
(1.053 0.318323 0)
(1.12452 0.441855 0)
(0.0242159 -0.39429 0)
(0.0725895 -0.395798 0)
(0.121715 -0.39452 0)
(0.171614 -0.397208 0)
(0.221897 -0.396648 0)
(0.273354 -0.396684 0)
(0.326245 -0.395802 0)
(0.380503 -0.394637 0)
(0.436295 -0.388789 0)
(0.493475 -0.385614 0)
(0.552141 -0.371764 0)
(0.611746 -0.360973 0)
(0.671092 -0.336036 0)
(0.731607 -0.313824 0)
(0.791967 -0.272633 0)
(0.848537 -0.221039 0)
(0.904097 -0.14915 0)
(0.947865 -0.0541553 0)
(0.975118 0.0606866 0)
(1.00196 0.142199 0)
(1.03457 0.238932 0)
(1.08225 0.261496 0)
(1.14216 0.366403 0)
(0.0241454 -0.443314 0)
(0.0723136 -0.44466 0)
(0.121417 -0.445307 0)
(0.171616 -0.448071 0)
(0.222227 -0.448408 0)
(0.273835 -0.44993 0)
(0.326408 -0.450128 0)
(0.379728 -0.449967 0)
(0.4345 -0.445885 0)
(0.492151 -0.44493 0)
(0.556943 -0.437255 0)
(0.64346 -0.442859 0)
(0.752596 -0.423981 0)
(0.863342 -0.398565 0)
(0.952387 -0.338448 0)
(0.996229 -0.25623 0)
(0.963134 -0.136464 0)
(0.87091 -0.0178607 0)
(0.830482 0.0382411 0)
(0.894734 0.0739423 0)
(0.997221 0.17235 0)
(1.07873 0.199176 0)
(1.13723 0.310703 0)
(0.024275 -0.492716 0)
(0.0730296 -0.494137 0)
(0.123928 -0.497776 0)
(0.178293 -0.502091 0)
(0.237832 -0.506453 0)
(0.306312 -0.513994 0)
(0.380021 -0.514309 0)
(0.454072 -0.515059 0)
(0.534519 -0.517859 0)
(0.630633 -0.528233 0)
(0.747825 -0.537137 0)
(0.884594 -0.567272 0)
(1.0292 -0.554335 0)
(1.15605 -0.506873 0)
(1.24418 -0.408125 0)
(1.27267 -0.259136 0)
(1.2053 -0.0324391 0)
(1.06708 0.109905 0)
(0.961906 0.0570789 0)
(0.955046 -0.00217066 0)
(1.0403 0.0603965 0)
(1.1593 0.110582 0)
(1.24278 0.257952 0)
(0.0242861 -0.541815 0)
(0.0734311 -0.54399 0)
(0.123987 -0.550351 0)
(0.177468 -0.5582 0)
(0.23343 -0.566509 0)
(0.293473 -0.583048 0)
(0.361295 -0.587205 0)
(0.440555 -0.595951 0)
(0.536591 -0.614251 0)
(0.655491 -0.647851 0)
(0.79784 -0.67828 0)
(0.946409 -0.712818 0)
(1.08263 -0.690945 0)
(1.20085 -0.616474 0)
(1.30015 -0.486803 0)
(1.37948 -0.288702 0)
(1.43945 0.00470452 0)
(1.47577 0.175335 0)
(1.45986 0.113509 0)
(1.39202 0.0166285 0)
(1.35128 -0.00301299 0)
(1.38885 0.0167647 0)
(1.49181 0.164653 0)
(0.0264677 -0.592761 0)
(0.0800682 -0.596181 0)
(0.133298 -0.602342 0)
(0.187528 -0.614334 0)
(0.241866 -0.6211 0)
(0.293238 -0.640305 0)
(0.348497 -0.653528 0)
(0.416566 -0.677582 0)
(0.499885 -0.71277 0)
(0.597485 -0.766821 0)
(0.70302 -0.808348 0)
(0.803465 -0.832927 0)
(0.898286 -0.802953 0)
(1.00397 -0.729396 0)
(1.12845 -0.5987 0)
(1.2685 -0.39719 0)
(1.42615 -0.105424 0)
(1.57929 0.0951527 0)
(1.6809 0.107688 0)
(1.71837 0.0531098 0)
(1.70863 0.0113849 0)
(1.69281 -0.0193438 0)
(1.73309 0.0569266 0)
(0.0236183 -0.643035 0)
(0.0707237 -0.646991 0)
(0.11697 -0.651379 0)
(0.16242 -0.665348 0)
(0.208467 -0.670847 0)
(0.256323 -0.690159 0)
(0.30766 -0.710686 0)
(0.364047 -0.745388 0)
(0.426895 -0.791753 0)
(0.493222 -0.852482 0)
(0.549649 -0.885355 0)
(0.587176 -0.894473 0)
(0.61989 -0.86947 0)
(0.665105 -0.814429 0)
(0.731152 -0.705055 0)
(0.83042 -0.531261 0)
(0.98312 -0.283186 0)
(1.17787 -0.0766535 0)
(1.35923 -0.00481262 0)
(1.49732 -0.0107356 0)
(1.60155 -0.0196094 0)
(1.68686 -0.058056 0)
(1.76435 -0.0226135 0)
(0.0218053 -0.688621 0)
(0.0650863 -0.692115 0)
(0.107921 -0.695653 0)
(0.149526 -0.708436 0)
(0.190312 -0.714898 0)
(0.230563 -0.734529 0)
(0.270719 -0.758142 0)
(0.312099 -0.796064 0)
(0.352509 -0.844731 0)
(0.383807 -0.897497 0)
(0.400876 -0.914079 0)
(0.410677 -0.913184 0)
(0.421499 -0.894382 0)
(0.435572 -0.848977 0)
(0.459227 -0.760541 0)
(0.50883 -0.625286 0)
(0.60832 -0.442531 0)
(0.768471 -0.273926 0)
(0.957615 -0.179842 0)
(1.13294 -0.15062 0)
(1.28956 -0.141795 0)
(1.44392 -0.176659 0)
(1.60603 -0.144719 0)
(0.0194088 -0.729976 0)
(0.058131 -0.733042 0)
(0.0968227 -0.736528 0)
(0.135242 -0.747855 0)
(0.174142 -0.755432 0)
(0.213281 -0.773653 0)
(0.250448 -0.7966 0)
(0.282949 -0.831728 0)
(0.305842 -0.872556 0)
(0.316851 -0.912057 0)
(0.321789 -0.921501 0)
(0.325523 -0.919228 0)
(0.327895 -0.901462 0)
(0.329654 -0.857675 0)
(0.339572 -0.785456 0)
(0.374586 -0.685293 0)
(0.452388 -0.560607 0)
(0.580891 -0.445876 0)
(0.750552 -0.368434 0)
(0.942966 -0.331551 0)
(1.14002 -0.316247 0)
(1.33368 -0.351907 0)
(1.52711 -0.326737 0)
(0.0190673 -0.768578 0)
(0.0569615 -0.771307 0)
(0.0946313 -0.774875 0)
(0.131654 -0.785196 0)
(0.168013 -0.793597 0)
(0.202821 -0.809676 0)
(0.233593 -0.828727 0)
(0.257872 -0.856535 0)
(0.273552 -0.886382 0)
(0.281973 -0.917622 0)
(0.286789 -0.925602 0)
(0.290261 -0.922232 0)
(0.294228 -0.904694 0)
(0.303972 -0.865871 0)
(0.330983 -0.814247 0)
(0.386934 -0.747807 0)
(0.479919 -0.669636 0)
(0.61165 -0.598306 0)
(0.774038 -0.549653 0)
(0.957785 -0.528324 0)
(1.15407 -0.514736 0)
(1.35319 -0.548109 0)
(1.55527 -0.527985 0)
(0.0171784 -0.80494 0)
(0.051446 -0.807338 0)
(0.0858115 -0.811109 0)
(0.119832 -0.82023 0)
(0.153345 -0.828655 0)
(0.186083 -0.842371 0)
(0.216196 -0.857091 0)
(0.24147 -0.87784 0)
(0.259824 -0.899149 0)
(0.271642 -0.92506 0)
(0.281307 -0.932584 0)
(0.29371 -0.931072 0)
(0.313896 -0.919998 0)
(0.347235 -0.89374 0)
(0.397712 -0.864136 0)
(0.467484 -0.824165 0)
(0.560576 -0.780192 0)
(0.681339 -0.741431 0)
(0.827943 -0.717001 0)
(0.996255 -0.714741 0)
(1.17882 -0.709014 0)
(1.36945 -0.745479 0)
(1.57071 -0.735932 0)
(0.0161697 -0.838389 0)
(0.0485907 -0.84078 0)
(0.0812022 -0.844849 0)
(0.113536 -0.853048 0)
(0.145353 -0.861365 0)
(0.176416 -0.873652 0)
(0.205726 -0.885403 0)
(0.232012 -0.901218 0)
(0.253628 -0.915812 0)
(0.27112 -0.937721 0)
(0.289244 -0.94772 0)
(0.312782 -0.951928 0)
(0.345303 -0.951989 0)
(0.389131 -0.939184 0)
(0.444807 -0.925267 0)
(0.514793 -0.90339 0)
(0.603941 -0.884026 0)
(0.715313 -0.870813 0)
(0.847024 -0.867256 0)
(0.99796 -0.885269 0)
(1.16693 -0.891721 0)
(1.35252 -0.940822 0)
(1.55782 -0.949141 0)
(0.0150819 -0.869733 0)
(0.0452119 -0.872172 0)
(0.0752265 -0.876269 0)
(0.104821 -0.883739 0)
(0.133828 -0.891673 0)
(0.162294 -0.903044 0)
(0.190102 -0.913288 0)
(0.217646 -0.927305 0)
(0.244541 -0.938352 0)
(0.269409 -0.957625 0)
(0.294559 -0.971181 0)
(0.323476 -0.981062 0)
(0.358096 -0.990214 0)
(0.400666 -0.987676 0)
(0.454224 -0.986449 0)
(0.521871 -0.980429 0)
(0.606023 -0.981063 0)
(0.709702 -0.98982 0)
(0.832467 -1.00393 0)
(0.974759 -1.04323 0)
(1.13715 -1.06672 0)
(1.32082 -1.13688 0)
(1.52984 -1.16943 0)
(0.0141689 -0.899066 0)
(0.042358 -0.901322 0)
(0.0703116 -0.90525 0)
(0.098 -0.912201 0)
(0.125461 -0.919834 0)
(0.152905 -0.930947 0)
(0.180423 -0.940861 0)
(0.208333 -0.955338 0)
(0.236831 -0.965865 0)
(0.265115 -0.983409 0)
(0.294017 -0.999598 0)
(0.325509 -1.01324 0)
(0.361577 -1.02896 0)
(0.40448 -1.03471 0)
(0.455871 -1.04478 0)
(0.519072 -1.0535 0)
(0.596671 -1.07046 0)
(0.691709 -1.10005 0)
(0.804339 -1.13019 0)
(0.935608 -1.19183 0)
(1.08816 -1.23458 0)
(1.26417 -1.33046 0)
(1.47076 -1.3935 0)
(0.0129007 -0.926208 0)
(0.0386291 -0.928241 0)
(0.0642743 -0.932072 0)
(0.089888 -0.938822 0)
(0.115412 -0.946338 0)
(0.14086 -0.957476 0)
(0.166237 -0.967368 0)
(0.191771 -0.982421 0)
(0.218721 -0.994386 0)
(0.24708 -1.01169 0)
(0.276623 -1.02993 0)
(0.308366 -1.04634 0)
(0.342938 -1.06674 0)
(0.383022 -1.08023 0)
(0.431293 -1.09931 0)
(0.491012 -1.1224 0)
(0.563232 -1.15204 0)
(0.649837 -1.20094 0)
(0.751741 -1.24483 0)
(0.870253 -1.32815 0)
(1.00989 -1.39185 0)
(1.17402 -1.51498 0)
(1.37251 -1.61605 0)
(0.0119447 -0.951116 0)
(0.0358813 -0.953123 0)
(0.0599231 -0.957002 0)
(0.0840093 -0.963717 0)
(0.108002 -0.971085 0)
(0.131922 -0.982221 0)
(0.155922 -0.992127 0)
(0.180151 -1.00755 0)
(0.204982 -1.02117 0)
(0.230596 -1.03903 0)
(0.257202 -1.05891 0)
(0.285644 -1.07774 0)
(0.316712 -1.1012 0)
(0.353479 -1.1229 0)
(0.398021 -1.14982 0)
(0.452527 -1.18659 0)
(0.517239 -1.22537 0)
(0.592661 -1.29035 0)
(0.680462 -1.34599 0)
(0.781892 -1.44796 0)
(0.9019 -1.53291 0)
(1.04336 -1.68098 0)
(1.2155 -1.82249 0)
(0.0111256 -0.97424 0)
(0.0334199 -0.976338 0)
(0.0557017 -0.98022 0)
(0.0778456 -0.986839 0)
(0.0997959 -0.994015 0)
(0.121604 -1.00513 0)
(0.143478 -1.01521 0)
(0.165497 -1.03083 0)
(0.188109 -1.04546 0)
(0.211729 -1.06411 0)
(0.236138 -1.08498 0)
(0.262416 -1.10654 0)
(0.291679 -1.13291 0)
(0.325954 -1.16247 0)
(0.366259 -1.19541 0)
(0.412798 -1.24245 0)
(0.466237 -1.28816 0)
(0.526746 -1.36408 0)
(0.597109 -1.43112 0)
(0.678057 -1.54603 0)
(0.773478 -1.65127 0)
(0.886341 -1.81815 0)
(1.02149 -1.99409 0)
(0.0101921 -0.995605 0)
(0.0305517 -0.997721 0)
(0.0507769 -1.00144 0)
(0.0708208 -1.0079 0)
(0.0906849 -1.01486 0)
(0.110412 -1.02591 0)
(0.13016 -1.03613 0)
(0.149964 -1.05182 0)
(0.169955 -1.06717 0)
(0.190348 -1.08652 0)
(0.211373 -1.10812 0)
(0.234324 -1.13276 0)
(0.259857 -1.16166 0)
(0.288411 -1.19676 0)
(0.32051 -1.23378 0)
(0.356367 -1.28678 0)
(0.397705 -1.33897 0)
(0.443985 -1.4205 0)
(0.497314 -1.49893 0)
(0.556728 -1.6192 0)
(0.624402 -1.74193 0)
(0.700573 -1.91739 0)
(0.786529 -2.11699 0)
(0.00917097 -1.01501 0)
(0.0274803 -1.01707 0)
(0.045693 -1.02061 0)
(0.0637793 -1.02694 0)
(0.0817186 -1.0337 0)
(0.0994683 -1.04462 0)
(0.117084 -1.05486 0)
(0.134564 -1.07045 0)
(0.152019 -1.08606 0)
(0.169914 -1.106 0)
(0.18843 -1.12827 0)
(0.207825 -1.15506 0)
(0.228085 -1.18527 0)
(0.249416 -1.22317 0)
(0.273185 -1.26341 0)
(0.29959 -1.31962 0)
(0.329283 -1.37742 0)
(0.360955 -1.46029 0)
(0.395477 -1.54732 0)
(0.431537 -1.66666 0)
(0.46968 -1.80072 0)
(0.507578 -1.97314 0)
(0.54484 -2.18498 0)
(0.00821056 -1.03242 0)
(0.0246246 -1.03444 0)
(0.0409719 -1.03785 0)
(0.0571682 -1.04403 0)
(0.0731374 -1.05057 0)
(0.0887609 -1.06117 0)
(0.104073 -1.07129 0)
(0.119075 -1.08656 0)
(0.133784 -1.10216 0)
(0.148376 -1.12243 0)
(0.162722 -1.14475 0)
(0.176946 -1.17226 0)
(0.191466 -1.20292 0)
(0.206507 -1.24197 0)
(0.222488 -1.28446 0)
(0.238561 -1.34116 0)
(0.254992 -1.40213 0)
(0.270978 -1.48337 0)
(0.286652 -1.57459 0)
(0.300431 -1.68938 0)
(0.311465 -1.82732 0)
(0.315999 -1.98909 0)
(0.311338 -2.20169 0)
(0.00739803 -1.04805 0)
(0.0221554 -1.05002 0)
(0.036767 -1.05327 0)
(0.0511002 -1.05918 0)
(0.0650588 -1.06538 0)
(0.078518 -1.07548 0)
(0.0914845 -1.08529 0)
(0.103912 -1.10001 0)
(0.115695 -1.11523 0)
(0.12689 -1.13517 0)
(0.137506 -1.15699 0)
(0.147578 -1.18433 0)
(0.157073 -1.21487 0)
(0.165522 -1.25352 0)
(0.172876 -1.29625 0)
(0.178644 -1.3512 0)
(0.182779 -1.41264 0)
(0.184098 -1.49014 0)
(0.181869 -1.58122 0)
(0.174141 -1.68871 0)
(0.159743 -1.82449 0)
(0.134521 -1.971 0)
(0.0943404 -2.17458 0)
(0.0065848 -1.06205 0)
(0.0196708 -1.0639 0)
(0.0325234 -1.06689 0)
(0.0450021 -1.0724 0)
(0.0570167 -1.07816 0)
(0.0684101 -1.08757 0)
(0.0791113 -1.09687 0)
(0.0890061 -1.11075 0)
(0.0979417 -1.1252 0)
(0.105883 -1.14433 0)
(0.112685 -1.16523 0)
(0.118129 -1.19157 0)
(0.122028 -1.22099 0)
(0.124046 -1.25781 0)
(0.123966 -1.29916 0)
(0.120794 -1.3508 0)
(0.113821 -1.41008 0)
(0.101684 -1.48171 0)
(0.0831563 -1.56867 0)
(0.0562249 -1.66631 0)
(0.0187351 -1.79462 0)
(-0.0318929 -1.92451 0)
(-0.101397 -2.1107 0)
(0.00582032 -1.07446 0)
(0.0173628 -1.07613 0)
(0.0286289 -1.07879 0)
(0.0394565 -1.08382 0)
(0.0497277 -1.08904 0)
(0.0592389 -1.0976 0)
(0.0678368 -1.10614 0)
(0.0753251 -1.11886 0)
(0.0815003 -1.13218 0)
(0.0862022 -1.14995 0)
(0.0891717 -1.16933 0)
(0.0901788 -1.19386 0)
(0.0889923 -1.22132 0)
(0.0850689 -1.25546 0)
(0.0779203 -1.29414 0)
(0.0665407 -1.34108 0)
(0.0498621 -1.39592 0)
(0.026299 -1.45988 0)
(-0.00606364 -1.53924 0)
(-0.0494239 -1.62498 0)
(-0.107249 -1.74003 0)
(-0.181405 -1.85356 0)
(-0.277175 -2.01541 0)
(0.00519935 -1.08549 0)
(0.0154762 -1.08694 0)
(0.0254035 -1.08919 0)
(0.0347539 -1.0936 0)
(0.043376 -1.09814 0)
(0.0510762 -1.10569 0)
(0.0576836 -1.11323 0)
(0.0629604 -1.1245 0)
(0.0666232 -1.13633 0)
(0.0684377 -1.15225 0)
(0.0680701 -1.16954 0)
(0.0651111 -1.19158 0)
(0.0591684 -1.21633 0)
(0.0495886 -1.24677 0)
(0.0357498 -1.28163 0)
(0.016896 -1.3231 0)
(-0.00797673 -1.37202 0)
(-0.0406451 -1.42715 0)
(-0.0835707 -1.49618 0)
(-0.139306 -1.56831 0)
(-0.212277 -1.66511 0)
(-0.306097 -1.75952 0)
(-0.426781 -1.89175 0)
(0.00470224 -1.09539 0)
(0.0139472 -1.09656 0)
(0.0227415 -1.09829 0)
(0.0308002 -1.10191 0)
(0.0379384 -1.10558 0)
(0.0439788 -1.11197 0)
(0.0487691 -1.11831 0)
(0.0520644 -1.12793 0)
(0.0535257 -1.13795 0)
(0.0527995 -1.15163 0)
(0.049482 -1.16636 0)
(0.043062 -1.18523 0)
(0.0329923 -1.20649 0)
(0.0186756 -1.2325 0)
(-0.000721436 -1.26239 0)
(-0.0264541 -1.29742 0)
(-0.0595696 -1.33932 0)
(-0.101131 -1.38514 0)
(-0.153132 -1.44267 0)
(-0.217569 -1.50092 0)
(-0.298378 -1.57781 0)
(-0.399817 -1.65043 0)
(-0.529247 -1.74931 0)
(0.00431607 -1.10441 0)
(0.012766 -1.10523 0)
(0.0207052 -1.10634 0)
(0.0278119 -1.10901 0)
(0.0338393 -1.11163 0)
(0.0385431 -1.11663 0)
(0.041731 -1.12158 0)
(0.0431743 -1.12934 0)
(0.0425777 -1.13732 0)
(0.0396249 -1.14847 0)
(0.0339388 -1.16038 0)
(0.0250247 -1.17571 0)
(0.0121568 -1.19286 0)
(-0.00560103 -1.21379 0)
(-0.0289625 -1.23803 0)
(-0.0589059 -1.26573 0)
(-0.0970877 -1.29925 0)
(-0.145058 -1.33512 0)
(-0.204625 -1.38045 0)
(-0.277338 -1.42518 0)
(-0.365535 -1.48356 0)
(-0.471293 -1.5363 0)
(-0.598312 -1.60555 0)
(0.00402598 -1.11275 0)
(0.0118932 -1.11321 0)
(0.0192463 -1.11365 0)
(0.0257563 -1.11529 0)
(0.0311302 -1.11671 0)
(0.0350107 -1.12009 0)
(0.0370784 -1.12331 0)
(0.0370287 -1.12891 0)
(0.0345304 -1.13454 0)
(0.0292835 -1.14291 0)
(0.0209698 -1.15177 0)
(0.00916865 -1.1634 0)
(-0.00662367 -1.17627 0)
(-0.0271519 -1.19181 0)
(-0.0534403 -1.21001 0)
(-0.0864858 -1.23033 0)
(-0.127533 -1.25491 0)
(-0.178218 -1.28019 0)
(-0.240863 -1.31243 0)
(-0.317736 -1.34274 0)
(-0.41181 -1.38269 0)
(-0.52538 -1.4166 0)
(-0.661332 -1.4608 0)
(0.00387577 -1.12066 0)
(0.0114478 -1.12074 0)
(0.0185181 -1.12053 0)
(0.0247493 -1.12114 0)
(0.0298244 -1.12129 0)
(0.0333362 -1.12286 0)
(0.0348595 -1.12407 0)
(0.0340453 -1.12721 0)
(0.0305697 -1.13016 0)
(0.0240645 -1.1354 0)
(0.0141373 -1.14087 0)
(0.000331771 -1.14848 0)
(-0.0179173 -1.15688 0)
(-0.0412141 -1.16706 0)
(-0.0702974 -1.17902 0)
(-0.10614 -1.19199 0)
(-0.149897 -1.20792 0)
(-0.202714 -1.22305 0)
(-0.26623 -1.24266 0)
(-0.342166 -1.25881 0)
(-0.432999 -1.28065 0)
(-0.541439 -1.29537 0)
(-0.670934 -1.3151 0)
(0.00373191 -1.12826 0)
(0.0110387 -1.12801 0)
(0.0178926 -1.12718 0)
(0.0239526 -1.12677 0)
(0.0288855 -1.12564 0)
(0.0322991 -1.12539 0)
(0.033763 -1.12447 0)
(0.0328242 -1.12497 0)
(0.0290495 -1.12503 0)
(0.0219911 -1.12682 0)
(0.0112191 -1.12856 0)
(-0.00363386 -1.1319 0)
(-0.0229816 -1.1356 0)
(-0.0474098 -1.14029 0)
(-0.0777402 -1.14598 0)
(-0.114894 -1.15157 0)
(-0.160061 -1.15887 0)
(-0.214485 -1.16422 0)
(-0.279667 -1.17204 0)
(-0.357086 -1.17519 0)
(-0.448549 -1.18094 0)
(-0.555772 -1.17821 0)
(-0.680828 -1.1763 0)
(0.00355174 -1.13555 0)
(0.0105219 -1.13501 0)
(0.0170975 -1.13362 0)
(0.0229497 -1.13224 0)
(0.0277455 -1.12988 0)
(0.0311428 -1.12793 0)
(0.0328028 -1.125 0)
(0.0322843 -1.1229 0)
(0.028997 -1.11993 0)
(0.0222921 -1.11801 0)
(0.0115845 -1.11571 0)
(-0.00358535 -1.11451 0)
(-0.0236062 -1.11334 0)
(-0.0488349 -1.11256 0)
(-0.0797517 -1.11208 0)
(-0.116975 -1.11064 0)
(-0.161383 -1.10969 0)
(-0.214009 -1.10572 0)
(-0.276209 -1.10242 0)
(-0.349389 -1.09334 0)
(-0.435227 -1.08448 0)
(-0.535279 -1.06623 0)
(-0.651128 -1.04603 0)
(0.00328673 -1.14239 0)
(0.00973858 -1.14159 0)
(0.0158477 -1.13972 0)
(0.0213521 -1.13749 0)
(0.0259906 -1.13405 0)
(0.0294962 -1.13063 0)
(0.0315328 -1.12595 0)
(0.0316397 -1.12148 0)
(0.0293288 -1.11566 0)
(0.0240565 -1.11018 0)
(0.0151346 -1.10375 0)
(0.00176849 -1.09772 0)
(-0.0168071 -1.09127 0)
(-0.0411868 -1.0847 0)
(-0.0718478 -1.07797 0)
(-0.109168 -1.06974 0)
(-0.15358 -1.06123 0)
(-0.205632 -1.04888 0)
(-0.266257 -1.03572 0)
(-0.336531 -1.01577 0)
(-0.417693 -0.994113 0)
(-0.510945 -0.962212 0)
(-0.617356 -0.926551 0)
(0.00294048 -1.14863 0)
(0.00870683 -1.14759 0)
(0.0141702 -1.1453 0)
(0.0191432 -1.14238 0)
(0.0234179 -1.13806 0)
(0.0267252 -1.13342 0)
(0.0287541 -1.12719 0)
(0.0291729 -1.1207 0)
(0.0276517 -1.11253 0)
(0.0237733 -1.10405 0)
(0.0169039 -1.09394 0)
(0.00620159 -1.08328 0)
(-0.00924368 -1.07146 0)
(-0.0302864 -1.05879 0)
(-0.0577233 -1.04542 0)
(-0.0921623 -1.03011 0)
(-0.134033 -1.01408 0)
(-0.183523 -0.9939 0)
(-0.240874 -0.972048 0)
(-0.306505 -0.942767 0)
(-0.381205 -0.910374 0)
(-0.465904 -0.867004 0)
(-0.561477 -0.818652 0)
(0.00238191 -1.15395 0)
(0.00705167 -1.1527 0)
(0.0114893 -1.15009 0)
(0.0155853 -1.14666 0)
(0.0192148 -1.14168 0)
(0.0221644 -1.13604 0)
(0.0241546 -1.12856 0)
(0.0249197 -1.12048 0)
(0.0241639 -1.11042 0)
(0.0214803 -1.09952 0)
(0.0164066 -1.08642 0)
(0.00837581 -1.07192 0)
(-0.00342984 -1.05537 0)
(-0.0200344 -1.03698 0)
(-0.042499 -1.01701 0)
(-0.0717945 -0.994388 0)
(-0.10878 -0.970474 0)
(-0.15397 -0.942275 0)
(-0.207469 -0.912189 0)
(-0.269009 -0.874735 0)
(-0.338383 -0.833522 0)
(-0.415707 -0.780928 0)
(-0.501412 -0.722443 0)
(0.00189482 -1.15823 0)
(0.00559319 -1.15679 0)
(0.00907322 -1.15391 0)
(0.0122561 -1.15011 0)
(0.0150628 -1.14466 0)
(0.0174017 -1.13833 0)
(0.0191323 -1.12996 0)
(0.0200138 -1.12069 0)
(0.0197754 -1.10917 0)
(0.0181301 -1.09638 0)
(0.0147697 -1.08104 0)
(0.00931186 -1.06369 0)
(0.0011499 -1.04348 0)
(-0.0106229 -1.0203 0)
(-0.0271196 -0.99448 0)
(-0.0494831 -0.964946 0)
(-0.0788665 -0.933153 0)
(-0.116281 -0.896511 0)
(-0.162412 -0.857755 0)
(-0.217269 -0.812115 0)
(-0.280183 -0.763113 0)
(-0.350127 -0.703249 0)
(-0.426394 -0.637252 0)
(0.00125023 -1.16137 0)
(0.00368742 -1.15978 0)
(0.00597371 -1.15669 0)
(0.00804863 -1.15259 0)
(0.0098494 -1.14677 0)
(0.0113169 -1.14001 0)
(0.0124067 -1.13109 0)
(0.0130268 -1.12103 0)
(0.0130023 -1.10852 0)
(0.0120918 -1.09442 0)
(0.00998298 -1.07746 0)
(0.0062885 -1.05803 0)
(0.000614463 -1.03519 0)
(-0.00747656 -1.00858 0)
(-0.0186851 -0.978314 0)
(-0.0340568 -0.943142 0)
(-0.0548694 -0.90446 0)
(-0.0824555 -0.859824 0)
(-0.118136 -0.812163 0)
(-0.162896 -0.757527 0)
(-0.216973 -0.700058 0)
(-0.279443 -0.633155 0)
(-0.348437 -0.561283 0)
(0.000812266 -1.16343 0)
(0.00235357 -1.16169 0)
(0.0037107 -1.15841 0)
(0.00485767 -1.15408 0)
(0.00578535 -1.148 0)
(0.00646727 -1.14091 0)
(0.00686674 -1.13165 0)
(0.00695427 -1.12115 0)
(0.00668171 -1.10807 0)
(0.00595126 -1.09319 0)
(0.00459376 -1.07518 0)
(0.00234646 -1.05431 0)
(-0.00110146 -1.02971 0)
(-0.00606957 -1.0009 0)
(-0.0129614 -0.967766 0)
(-0.0224056 -0.928713 0)
(-0.0353475 -0.884927 0)
(-0.0529892 -0.833861 0)
(-0.0767694 -0.778322 0)
(-0.108245 -0.7147 0)
(-0.148794 -0.64773 0)
(-0.198987 -0.572197 0)
(-0.257836 -0.493696 0)
(0.000318141 -1.16456 0)
(0.000922229 -1.1627 0)
(0.00142936 -1.15925 0)
(0.00178855 -1.15473 0)
(0.0019697 -1.14844 0)
(0.00194327 -1.1411 0)
(0.00169799 -1.13159 0)
(0.00123302 -1.12081 0)
(0.000534289 -1.10741 0)
(-0.00041904 -1.09213 0)
(-0.00166749 -1.07359 0)
(-0.00332639 -1.05195 0)
(-0.00564664 -1.02626 0)
(-0.0089575 -0.996014 0)
(-0.0135096 -0.961127 0)
(-0.019466 -0.919846 0)
(-0.0271328 -0.873052 0)
(-0.0371398 -0.817917 0)
(-0.0504979 -0.756907 0)
(-0.0685947 -0.686257 0)
(-0.0932312 -0.610621 0)
(-0.126444 -0.525438 0)
(-0.169897 -0.437589 0)
(3.74809e-05 -1.16491 0)
(9.16382e-05 -1.163 0)
(7.73091e-05 -1.15943 0)
(-6.6577e-05 -1.15474 0)