/*--------------------------------*- C++ -*----------------------------------*\
| =========                 |                                                 |
| \\      /  F ield         | OpenFOAM: The Open Source CFD Toolbox           |
|  \\    /   O peration     | Version:  3.0.1                                 |
|   \\  /    A nd           | Web:      www.OpenFOAM.org                      |
|    \\/     M anipulation  |                                                 |
\*---------------------------------------------------------------------------*/
FoamFile
{
    version     2.0;
    format      ascii;
    class       volScalarField;
    location    "0.0002";
    object      rho;
}
// * * * * * * * * * * * * * * * * * * * * * * * * * * * * * * * * * * * * * //

dimensions      [1 -3 0 0 0 0 0];

internalField   nonuniform List<scalar> 
1000
(
0.831556
0.831556
0.831556
0.831556
0.831556
0.831556
0.831556
0.831556
0.831556
0.831556
0.831556
0.831556
0.831556
0.831556
0.831556
0.831556
0.831555
0.831552
0.831543
0.831516
0.831439
0.831224
0.830663
0.829306
0.826312
0.820463
0.810606
0.796404
0.778567
0.758232
0.736374
0.713683
0.690633
0.667552
0.64466
0.622101
0.599973
0.578346
0.557269
0.536778
0.516895
0.497622
0.478967
0.460917
0.443464
0.426777
0.411107
0.396964
0.385908
0.37896
0.375233
0.37367
0.372397
0.370751
0.369692
0.370375
0.371288
0.371934
0.371692
0.37159
0.369577
0.363992
0.353948
0.338972
0.319595
0.298362
0.278258
0.261527
0.24938
0.241793
0.237912
0.23635
0.235951
0.235818
0.235708
0.235439
0.23471
0.232693
0.227198
0.211312
0.17052
0.122643
0.10718
0.104473
0.104034
0.103963
0.103952
0.10395
0.10395
0.10395
0.10395
0.10395
0.10395
0.10395
0.10395
0.10395
0.10395
0.10395
0.10395
0.10395
0.831556
0.831556
0.831556
0.831556
0.831556
0.831556
0.831556
0.831556
0.831556
0.831556
0.831556
0.831556
0.831556
0.831556
0.831556
0.831556
0.831555
0.831552
0.831543
0.831517
0.831439
0.831224
0.830663
0.829306
0.826313
0.820464
0.810606
0.796405
0.778567
0.758232
0.736373
0.713682
0.690632
0.667551
0.644657
0.622098
0.59997
0.578343
0.557267
0.536777
0.516894
0.497624
0.478972
0.460905
0.443494
0.426761
0.411036
0.397252
0.38579
0.37886
0.375443
0.373651
0.372341
0.370822
0.369692
0.370367
0.371309
0.371962
0.371695
0.371563
0.369542
0.363902
0.353807
0.338755
0.319333
0.298112
0.278066
0.261406
0.249313
0.241756
0.237898
0.236347
0.235949
0.235816
0.235705
0.235437
0.234708
0.232691
0.227196
0.21131
0.170524
0.122647
0.10718
0.104473
0.104034
0.103963
0.103952
0.10395
0.10395
0.10395
0.10395
0.10395
0.10395
0.10395
0.10395
0.10395
0.10395
0.10395
0.10395
0.10395
0.831556
0.831556
0.831556
0.831556
0.831556
0.831556
0.831556
0.831556
0.831556
0.831556
0.831556
0.831556
0.831556
0.831556
0.831556
0.831556
0.831555
0.831552
0.831543
0.831517
0.831439
0.831224
0.830663
0.829306
0.826313
0.820465
0.810607
0.796405
0.778568
0.758232
0.736372
0.71368
0.69063
0.667548
0.644655
0.622096
0.599969
0.578342
0.557267
0.536778
0.516895
0.497625
0.478965
0.460909
0.443495
0.426771
0.41106
0.397073
0.385957
0.378729
0.375389
0.373735
0.372327
0.370796
0.369741
0.370375
0.371303
0.371937
0.371723
0.371626
0.369602
0.364008
0.353987
0.339062
0.319729
0.298522
0.278413
0.261656
0.249462
0.241838
0.237928
0.236353
0.235948
0.235816
0.235704
0.235433
0.234704
0.232687
0.227194
0.211317
0.170542
0.122657
0.107182
0.104474
0.104034
0.103963
0.103952
0.10395
0.10395
0.10395
0.10395
0.10395
0.10395
0.10395
0.10395
0.10395
0.10395
0.10395
0.10395
0.10395
0.831556
0.831556
0.831556
0.831556
0.831556
0.831556
0.831556
0.831556
0.831556
0.831556
0.831556
0.831556
0.831556
0.831556
0.831556
0.831556
0.831555
0.831552
0.831543
0.831517
0.831439
0.831224
0.830664
0.829307
0.826313
0.820465
0.810608
0.796407
0.778569
0.758232
0.736372
0.713679
0.690628
0.667546
0.644652
0.622093
0.599966
0.578339
0.557265
0.536776
0.516892
0.497624
0.478961
0.460912
0.443483
0.426766
0.411084
0.397048
0.386009
0.378808
0.375338
0.373717
0.372348
0.370822
0.369753
0.3704
0.371324
0.371924
0.371698
0.371617
0.369597
0.364016
0.353983
0.339076
0.319749
0.298543
0.278445
0.261697
0.249503
0.241866
0.237942
0.236354
0.235946
0.235812
0.235702
0.23543
0.234701
0.232684
0.227191
0.21132
0.170558
0.122668
0.107184
0.104474
0.104034
0.103964
0.103952
0.10395
0.10395
0.10395
0.10395
0.10395
0.10395
0.10395
0.10395
0.10395
0.10395
0.10395
0.10395
0.10395
0.831556
0.831556
0.831556
0.831556
0.831556
0.831556
0.831556
0.831556
0.831556
0.831556
0.831556
0.831556
0.831556
0.831556
0.831556
0.831556
0.831555
0.831552
0.831543
0.831517
0.831439
0.831224
0.830664
0.829307
0.826314
0.820466
0.810609
0.796408
0.77857
0.758233
0.736372
0.713678
0.690626
0.667543
0.644649
0.622089
0.599962
0.578335
0.55726
0.536772
0.51689
0.497622
0.478962
0.460909
0.443482
0.426762
0.411057
0.397039
0.385924
0.378741
0.375364
0.373706
0.372344
0.370842
0.369753
0.370401
0.37132
0.371929
0.371696
0.371592
0.369602
0.364019
0.353979
0.339066
0.319729
0.29852
0.278425
0.261682
0.249493
0.24186
0.237938
0.236352
0.235944
0.23581
0.235699
0.235427
0.234698
0.23268
0.22719
0.211325
0.170575
0.122678
0.107186
0.104475
0.104034
0.103964
0.103952
0.10395
0.10395
0.10395
0.10395
0.10395
0.10395
0.10395
0.10395
0.10395
0.10395
0.10395
0.10395
0.10395
0.831556
0.831556
0.831556
0.831556
0.831556
0.831556
0.831556
0.831556
0.831556
0.831556
0.831556
0.831556
0.831556
0.831556
0.831556
0.831556
0.831555
0.831552
0.831543
0.831517
0.831439
0.831224
0.830664
0.829307
0.826314
0.820467
0.81061
0.796409
0.778571
0.758234
0.736372
0.713678
0.690626
0.667542
0.644647
0.622087
0.599958
0.578331
0.557255
0.536767
0.516884
0.497617
0.478957
0.460912
0.443471
0.426763
0.411055
0.397031
0.385952
0.378786
0.375358
0.373735
0.372368
0.370832
0.369765
0.370414
0.371331
0.371947
0.371715
0.371603
0.369613
0.364034
0.353977
0.339051
0.319717
0.298509
0.278413
0.261671
0.249483
0.241851
0.237933
0.23635
0.235942
0.235808
0.235697
0.235423
0.234694
0.232678
0.227189
0.21133
0.17059
0.122688
0.107188
0.104475
0.104034
0.103964
0.103952
0.10395
0.10395
0.10395
0.10395
0.10395
0.10395
0.10395
0.10395
0.10395
0.10395
0.10395
0.10395
0.10395
0.831556
0.831556
0.831556
0.831556
0.831556
0.831556
0.831556
0.831556
0.831556
0.831556
0.831556
0.831556
0.831556
0.831556
0.831556
0.831556
0.831555
0.831552
0.831543
0.831517
0.831439
0.831224
0.830664
0.829307
0.826314
0.820467
0.810611
0.79641
0.778572
0.758235
0.736373
0.713679
0.690626
0.667542
0.644646
0.622086
0.599956
0.578328
0.557251
0.536761
0.516878
0.497609
0.478951
0.460901
0.443467
0.426757
0.411053
0.397044
0.385929
0.378782
0.375366
0.37373
0.372367
0.37084
0.369774
0.370424
0.371344
0.371965
0.371737
0.371637
0.369615
0.364031
0.35399
0.339053
0.319709
0.298499
0.278396
0.261649
0.249471
0.241848
0.237938
0.236355
0.235945
0.235809
0.235696
0.235423
0.234694
0.232677
0.22719
0.211335
0.170603
0.122695
0.10719
0.104475
0.104034
0.103964
0.103952
0.10395
0.10395
0.10395
0.10395
0.10395
0.10395
0.10395
0.10395
0.10395
0.10395
0.10395
0.10395
0.10395
0.831556
0.831556
0.831556
0.831556
0.831556
0.831556
0.831556
0.831556
0.831556
0.831556
0.831556
0.831556
0.831556
0.831556
0.831556
0.831556
0.831555
0.831552
0.831543
0.831517
0.831439
0.831224
0.830664
0.829307
0.826314
0.820467
0.810611
0.79641
0.778573
0.758236
0.736374
0.71368
0.690627
0.667543
0.644647
0.622085
0.599956
0.578327
0.55725
0.536759
0.516875
0.497604
0.478945
0.460893
0.443459
0.426748
0.411046
0.39702
0.385921
0.378771
0.375339
0.373721
0.372368
0.370843
0.369777
0.370428
0.37135
0.371974
0.371748
0.371632
0.369639
0.364053
0.353991
0.339052
0.319705
0.298494
0.278389
0.261642
0.249457
0.24184
0.237936
0.236361
0.235954
0.235817
0.235701
0.235424
0.234695
0.232679
0.227192
0.211342
0.170613
0.122699
0.10719
0.104475
0.104034
0.103964
0.103952
0.10395
0.10395
0.10395
0.10395
0.10395
0.10395
0.10395
0.10395
0.10395
0.10395
0.10395
0.10395
0.10395
0.831556
0.831556
0.831556
0.831556
0.831556
0.831556
0.831556
0.831556
0.831556
0.831556
0.831556
0.831556
0.831556
0.831556
0.831556
0.831556
0.831555
0.831552
0.831543
0.831517
0.831439
0.831224
0.830664
0.829307
0.826315
0.820468
0.810611
0.796411
0.778573
0.758236
0.736375
0.713681
0.690628
0.667543
0.644647
0.622086
0.599956
0.578327
0.557249
0.536758
0.516873
0.497602
0.478942
0.460888
0.443455
0.426741
0.411036
0.397022
0.385906
0.378752
0.375332
0.373708
0.372361
0.370841
0.369776
0.37043
0.371356
0.371979
0.371756
0.371645
0.369653
0.364063
0.353996
0.339062
0.319719
0.298502
0.278394
0.261646
0.249459
0.241837
0.237934
0.236362
0.235955
0.235818
0.235702
0.235425
0.234698
0.232681
0.227196
0.211347
0.170619
0.122702
0.107191
0.104475
0.104034
0.103964
0.103952
0.10395
0.10395
0.10395
0.10395
0.10395
0.10395
0.10395
0.10395
0.10395
0.10395
0.10395
0.10395
0.10395
0.831556
0.831556
0.831556
0.831556
0.831556
0.831556
0.831556
0.831556
0.831556
0.831556
0.831556
0.831556
0.831556
0.831556
0.831556
0.831556
0.831555
0.831552
0.831543
0.831517
0.831439
0.831224
0.830664
0.829307
0.826315
0.820468
0.810612
0.796411
0.778573
0.758237
0.736376
0.713681
0.690629
0.667544
0.644648
0.622087
0.599956
0.578327
0.557249
0.536758
0.516873
0.497602
0.478942
0.460888
0.443455
0.426739
0.411034
0.397022
0.385889
0.378755
0.37532
0.373689
0.372346
0.370829
0.369766
0.370423
0.371355
0.371976
0.371751
0.371641
0.369653
0.364065
0.354
0.339064
0.319721
0.298508
0.278401
0.261653
0.249464
0.241842
0.237937
0.236365
0.235958
0.235822
0.235705
0.235429
0.234701
0.232685
0.2272
0.21135
0.170622
0.122703
0.107191
0.104475
0.104034
0.103964
0.103952
0.10395
0.10395
0.10395
0.10395
0.10395
0.10395
0.10395
0.10395
0.10395
0.10395
0.10395
0.10395
0.10395
)
;

boundaryField
{
    sides1
    {
        type            calculated;
        value           nonuniform List<scalar> 
20
(
0.10395
0.10395
0.10395
0.10395
0.10395
0.10395
0.10395
0.10395
0.10395
0.10395
0.831556
0.831556
0.831556
0.831556
0.831556
0.831556
0.831556
0.831556
0.831556
0.831556
)
;
    }
    sides2
    {
        type            calculated;
        value           nonuniform List<scalar> 
200
(
0.831556
0.831556
0.831556
0.831556
0.831556
0.831556
0.831556
0.831556
0.831556
0.831556
0.831556
0.831556
0.831556
0.831556
0.831556
0.831556
0.831555
0.831552
0.831543
0.831516
0.831439
0.831224
0.830663
0.829306
0.826312
0.820463
0.810606
0.796404
0.778567
0.758232
0.736374
0.713683
0.690633
0.667552
0.64466
0.622101
0.599973
0.578346
0.557269
0.536778
0.516895
0.497622
0.478967
0.460917
0.443464
0.426777
0.411107
0.396964
0.385908
0.37896
0.375233
0.37367
0.372397
0.370751
0.369692
0.370375
0.371288
0.371934
0.371692
0.37159
0.369577
0.363992
0.353948
0.338972
0.319595
0.298362
0.278258
0.261527
0.24938
0.241793
0.237912
0.23635
0.235951
0.235818
0.235708
0.235439
0.23471
0.232693
0.227198
0.211312
0.17052
0.122643
0.10718
0.104473
0.104034
0.103963
0.103952
0.10395
0.10395
0.10395
0.10395
0.10395
0.10395
0.10395
0.10395
0.10395
0.10395
0.10395
0.10395
0.10395
0.831556
0.831556
0.831556
0.831556
0.831556
0.831556
0.831556
0.831556
0.831556
0.831556
0.831556
0.831556
0.831556
0.831556
0.831556
0.831556
0.831555
0.831552
0.831543
0.831517
0.831439
0.831224
0.830664
0.829307
0.826315
0.820468
0.810612
0.796411
0.778573
0.758237
0.736376
0.713681
0.690629
0.667544
0.644648
0.622087
0.599956
0.578327
0.557249
0.536758
0.516873
0.497602
0.478942
0.460888
0.443455
0.426739
0.411034
0.397022
0.385889
0.378755
0.37532
0.373689
0.372346
0.370829
0.369766
0.370423
0.371355
0.371976
0.371751
0.371641
0.369653
0.364065
0.354
0.339064
0.319721
0.298508
0.278401
0.261653
0.249464
0.241842
0.237937
0.236365
0.235958
0.235822
0.235705
0.235429
0.234701
0.232685
0.2272
0.21135
0.170622
0.122703
0.107191
0.104475
0.104034
0.103964
0.103952
0.10395
0.10395
0.10395
0.10395
0.10395
0.10395
0.10395
0.10395
0.10395
0.10395
0.10395
0.10395
0.10395
)
;
    }
    empty
    {
        type            empty;
    }
}


// ************************************************************************* //
