/*--------------------------------*- C++ -*----------------------------------*\
| =========                 |                                                 |
| \\      /  F ield         | OpenFOAM: The Open Source CFD Toolbox           |
|  \\    /   O peration     | Version:  3.0.1                                 |
|   \\  /    A nd           | Web:      www.OpenFOAM.org                      |
|    \\/     M anipulation  |                                                 |
\*---------------------------------------------------------------------------*/
FoamFile
{
    version     2.0;
    format      ascii;
    class       volVectorField;
    location    "0.0002";
    object      U;
}
// * * * * * * * * * * * * * * * * * * * * * * * * * * * * * * * * * * * * * //

dimensions      [0 1 -1 0 0 0 0];

internalField   nonuniform List<vector> 
1000
(
(6.26907e-13 4.44691e-13 0)
(9.23406e-13 7.87191e-13 0)
(3.25783e-12 7.32781e-13 0)
(1.27081e-11 1.0868e-13 0)
(5.34201e-11 2.44031e-13 0)
(2.11274e-10 7.29516e-13 0)
(8.86021e-10 -1.45628e-13 0)
(3.55414e-09 -8.9203e-14 0)
(1.41324e-08 3.71858e-13 0)
(5.5361e-08 -7.58242e-13 0)
(2.12988e-07 -4.09711e-13 0)
(8.05408e-07 -4.98806e-12 0)
(2.98804e-06 -1.45611e-11 0)
(1.08652e-05 -6.15304e-11 0)
(3.86656e-05 -2.11749e-10 0)
(0.000134448 -7.58758e-10 0)
(0.000455931 -2.62163e-09 0)
(0.00150449 -8.83663e-09 0)
(0.00481784 -2.89358e-08 0)
(0.0149224 -9.17465e-08 0)
(0.0445152 -2.80632e-07 0)
(0.127189 -8.23766e-07 0)
(0.345399 -2.30441e-06 0)
(0.881672 -6.08074e-06 0)
(2.08225 -1.49063e-05 0)
(4.46185 -3.32369e-05 0)
(8.52964 -6.58314e-05 0)
(14.4812 -0.000113806 0)
(22.0929 -0.00017104 0)
(30.9568 -0.000221524 0)
(40.7165 -0.000236381 0)
(51.1136 -0.000245433 0)
(61.9619 -0.000247998 0)
(73.1272 -0.000206867 0)
(84.5146 -0.000116825 0)
(96.0567 2.80808e-05 0)
(107.706 0.000215757 0)
(119.424 0.000482561 0)
(131.178 0.00059668 0)
(142.944 0.00187312 0)
(154.702 -0.00217247 0)
(166.437 0.00894664 0)
(178.142 -0.00126789 0)
(189.823 -0.0381629 0)
(201.436 0.109196 0)
(212.885 -0.0474455 0)
(224.057 -0.35999 0)
(234.274 0.873659 0)
(242.201 -0.566771 0)
(247.693 -0.697791 0)
(250.795 0.807134 0)
(251.739 0.264238 0)
(252.646 -0.0642379 0)
(254.163 -0.266193 0)
(255.055 -0.0592036 0)
(254.92 0.00441975 0)
(254.781 0.00335867 0)
(255.474 0.0159576 0)
(255.871 -0.0366875 0)
(255.616 -0.0542425 0)
(255.572 -0.126963 0)
(255.845 -0.161142 0)
(256.023 -0.237497 0)
(256.203 -0.209755 0)
(256.693 -0.193127 0)
(257.171 -0.148251 0)
(257.452 -0.120318 0)
(257.606 -0.0970316 0)
(257.604 -0.091245 0)
(257.528 -0.0590821 0)
(257.471 -0.0212608 0)
(257.422 -0.00980446 0)
(257.383 -0.00141772 0)
(257.3 0.000984186 0)
(257.047 0.00317914 0)
(256.471 0.00312296 0)
(254.899 0.00282442 0)
(250.497 0.0019883 0)
(238.506 0.000702334 0)
(207.71 -0.000666145 0)
(145.121 -0.000909886 0)
(46.6624 -0.000424345 0)
(7.06806 -8.40564e-05 0)
(1.06924 -1.47056e-05 0)
(0.170982 -2.47409e-06 0)
(0.0274617 -4.09348e-07 0)
(0.00441301 -6.7073e-08 0)
(0.000709064 -1.09241e-08 0)
(0.000113911 -1.77136e-09 0)
(1.82962e-05 -2.8655e-10 0)
(2.93801e-06 -4.64239e-11 0)
(4.71678e-07 -7.44037e-12 0)
(7.5691e-08 -1.26779e-12 0)
(1.21476e-08 -4.75109e-13 0)
(1.94696e-09 -6.58302e-13 0)
(3.1065e-10 -6.50911e-13 0)
(5.14562e-11 -8.23005e-13 0)
(7.4087e-12 -1.34762e-12 0)
(1.64614e-12 -1.38394e-12 0)
(6.40569e-15 -2.6707e-12 0)
(6.58543e-13 5.88662e-13 0)
(1.89873e-12 1.30748e-13 0)
(1.53221e-12 2.43911e-13 0)
(1.1448e-11 4.98761e-13 0)
(5.48461e-11 -1.20099e-13 0)
(2.12708e-10 2.82429e-13 0)
(8.80034e-10 2.34278e-13 0)
(3.55797e-09 -7.34245e-13 0)
(1.41322e-08 7.95363e-13 0)
(5.53517e-08 -4.05899e-12 0)
(2.12981e-07 -8.17574e-12 0)
(8.05343e-07 -3.8477e-11 0)
(2.98785e-06 -1.35163e-10 0)
(1.08644e-05 -5.16536e-10 0)
(3.8663e-05 -1.83264e-09 0)
(0.000134439 -6.45288e-09 0)
(0.0004559 -2.20807e-08 0)
(0.00150439 -7.35029e-08 0)
(0.00481752 -2.37439e-07 0)
(0.0149214 -7.41447e-07 0)
(0.0445123 -2.22886e-06 0)
(0.12718 -6.41149e-06 0)
(0.345378 -1.75044e-05 0)
(0.881619 -4.47996e-05 0)
(2.08213 -0.000105486 0)
(4.46163 -0.000222608 0)
(8.5293 -0.000408801 0)
(14.4808 -0.000638619 0)
(22.0925 -0.000842636 0)
(30.9566 -0.000951793 0)
(40.7164 -0.000931203 0)
(51.1136 -0.000825773 0)
(61.9622 -0.000595167 0)
(73.1279 -0.000143452 0)
(84.5157 0.00050464 0)
(96.058 0.00129503 0)
(107.707 0.00213434 0)
(119.425 0.00300381 0)
(131.18 0.00353498 0)
(142.945 0.00516592 0)
(154.703 0.0011398 0)
(166.438 0.014021 0)
(178.145 -0.00302255 0)
(189.815 -0.0102657 0)
(201.428 0.0634575 0)
(212.94 0.00941704 0)
(223.984 -0.165352 0)
(234.142 0.0155045 0)
(242.573 0.969366 0)
(247.542 -1.36531 0)
(250.271 -0.081283 0)
(251.922 0.732986 0)
(252.993 0.298344 0)
(254.194 -0.15035 0)
(255.01 -0.107435 0)
(254.883 -0.0541764 0)
(254.724 0.0207068 0)
(255.418 0.0311155 0)
(255.791 0.0369402 0)
(255.544 0.0345184 0)
(255.426 0.0127373 0)
(255.655 0.0038397 0)
(255.731 -0.00180712 0)
(255.845 0.0220508 0)
(256.298 0.0469447 0)
(256.822 0.0854293 0)
(257.213 0.0496261 0)
(257.461 0.00865603 0)
(257.485 0.00197434 0)
(257.445 -0.00921736 0)
(257.397 -0.0249462 0)
(257.354 -0.0263666 0)
(257.318 -0.0263035 0)
(257.241 -0.0256167 0)
(257 -0.0241728 0)
(256.43 -0.022866 0)
(254.867 -0.023483 0)
(250.472 -0.0231336 0)
(238.487 -0.0229053 0)
(207.698 -0.0210817 0)
(145.123 -0.0161179 0)
(46.6713 -0.00562826 0)
(7.06995 -0.000998622 0)
(1.06952 -0.000164685 0)
(0.171027 -2.67346e-05 0)
(0.0274691 -4.32783e-06 0)
(0.00441421 -6.99521e-07 0)
(0.000709259 -1.12928e-07 0)
(0.000113942 -1.82086e-08 0)
(1.83012e-05 -2.93149e-09 0)
(2.93883e-06 -4.72837e-10 0)
(4.71808e-07 -7.45355e-11 0)
(7.57126e-08 -1.27714e-11 0)
(1.21485e-08 -9.40769e-13 0)
(1.947e-09 -9.1162e-13 0)
(3.116e-10 6.18783e-13 0)
(4.87254e-11 -3.94487e-13 0)
(6.5713e-12 4.39084e-13 0)
(-1.09611e-12 -2.81956e-13 0)
(-2.48185e-12 3.66135e-13 0)
(2.85502e-13 -3.99738e-13 0)
(3.2852e-13 -1.87349e-13 0)
(4.54171e-12 -1.38895e-13 0)
(1.21411e-11 1.98878e-13 0)
(5.24409e-11 2.33282e-13 0)
(2.12982e-10 -6.82083e-13 0)
(8.83464e-10 6.53e-13 0)
(3.55294e-09 -7.64137e-13 0)
(1.41355e-08 7.0163e-14 0)
(5.53399e-08 -5.37455e-12 0)
(2.12959e-07 -1.19401e-11 0)
(8.05241e-07 -5.438e-11 0)
(2.98748e-06 -1.90221e-10 0)
(1.08631e-05 -7.04454e-10 0)
(3.86583e-05 -2.4936e-09 0)
(0.000134422 -8.69491e-09 0)
(0.000455846 -2.946e-08 0)
(0.00150422 -9.71134e-08 0)
(0.00481697 -3.10263e-07 0)
(0.0149197 -9.57237e-07 0)
(0.0445075 -2.83899e-06 0)
(0.127167 -8.04177e-06 0)
(0.345344 -2.1563e-05 0)
(0.88154 -5.39989e-05 0)
(2.08197 -0.000123789 0)
(4.46134 -0.000252922 0)
(8.52892 -0.000448044 0)
(14.4804 -0.000676481 0)
(22.0923 -0.000870546 0)
(30.9566 -0.000972287 0)
(40.7167 -0.000987945 0)
(51.1142 -0.00076654 0)
(61.9631 -0.000340208 0)
(73.129 0.000201508 0)
(84.5169 0.000827491 0)
(96.0593 0.00150419 0)
(107.708 0.00221619 0)
(119.426 0.00289341 0)
(131.18 0.0032562 0)
(142.946 0.00486977 0)
(154.703 -0.000370484 0)
(166.439 0.0217988 0)
(178.149 -0.0358358 0)
(189.82 0.0806663 0)
(201.436 -0.0583805 0)
(212.932 5.26284e-05 0)
(224.016 0.199497 0)
(234.13 -0.459016 0)
(242.447 0.772931 0)
(247.838 -0.432715 0)
(250.296 -0.258888 0)
(251.65 0.121772 0)
(252.924 0.170915 0)
(254.286 0.0626769 0)
(255.046 -0.0253637 0)
(254.925 -0.0387282 0)
(254.771 0.0180245 0)
(255.452 0.00989154 0)
(255.905 0.0811775 0)
(255.611 0.0939638 0)
(255.563 0.213052 0)
(255.837 0.213626 0)
(256.003 0.395059 0)
(256.172 0.46925 0)
(256.668 0.547877 0)
(257.21 0.371071 0)
(257.503 0.139731 0)
(257.653 0.0730477 0)
(257.642 0.0552805 0)
(257.541 -0.0177266 0)
(257.473 -0.0747954 0)
(257.415 -0.0819051 0)
(257.372 -0.0840136 0)
(257.289 -0.0829993 0)
(257.035 -0.0759445 0)
(256.466 -0.0682242 0)
(254.89 -0.0631221 0)
(250.492 -0.0570868 0)
(238.506 -0.0513711 0)
(207.721 -0.0430367 0)
(145.159 -0.0292476 0)
(46.6974 -0.00934959 0)
(7.0745 -0.00162217 0)
(1.07015 -0.000264054 0)
(0.171127 -4.25187e-05 0)
(0.0274851 -6.84823e-06 0)
(0.00441678 -1.10333e-06 0)
(0.000709673 -1.77727e-07 0)
(0.000114009 -2.86178e-08 0)
(1.83119e-05 -4.60149e-09 0)
(2.94057e-06 -7.39866e-10 0)
(4.72073e-07 -1.17703e-10 0)
(7.57655e-08 -1.9291e-11 0)
(1.21521e-08 -2.07259e-12 0)
(1.95012e-09 -6.0448e-13 0)
(3.10886e-10 4.80538e-13 0)
(5.16823e-11 4.30599e-13 0)
(7.23889e-12 1.03873e-12 0)
(1.74296e-12 7.63219e-13 0)
(1.30647e-12 1.10758e-12 0)
(9.64254e-13 1.76106e-12 0)
(1.56715e-12 1.13522e-12 0)
(2.15315e-12 1.36569e-12 0)
(1.2678e-11 7.10596e-13 0)
(5.1877e-11 6.71597e-13 0)
(2.13759e-10 7.56264e-13 0)
(8.82155e-10 5.87629e-13 0)
(3.55243e-09 -1.57772e-13 0)
(1.41338e-08 5.79002e-13 0)
(5.53261e-08 -5.70047e-12 0)
(2.12935e-07 -1.22019e-11 0)
(8.05104e-07 -5.69852e-11 0)
(2.98705e-06 -2.0423e-10 0)
(1.08615e-05 -7.42433e-10 0)
(3.86527e-05 -2.64167e-09 0)
(0.000134403 -9.15693e-09 0)
(0.000455782 -3.09453e-08 0)
(0.00150401 -1.01719e-07 0)
(0.00481632 -3.24047e-07 0)
(0.0149177 -9.97249e-07 0)
(0.0445019 -2.95074e-06 0)
(0.127152 -8.34262e-06 0)
(0.345305 -2.2345e-05 0)
(0.881447 -5.59931e-05 0)
(2.08178 -0.000128966 0)
(4.461 -0.000267041 0)
(8.52843 -0.000486894 0)
(14.4798 -0.000774035 0)
(22.0918 -0.00107911 0)
(30.9563 -0.00132745 0)
(40.7167 -0.00143173 0)
(51.1147 -0.00136712 0)
(61.9639 -0.00112145 0)
(73.13 -0.000702804 0)
(84.5182 -0.000127151 0)
(96.0608 0.000611378 0)
(107.71 0.00149085 0)
(119.428 0.00252222 0)
(131.182 0.0036117 0)
(142.948 0.00541429 0)
(154.705 0.00412678 0)
(166.442 0.0139804 0)
(178.151 -0.00351707 0)
(189.822 0.0183546 0)
(201.443 0.0219762 0)
(212.922 0.00507191 0)
(224.023 -0.0754674 0)
(234.192 0.172895 0)
(242.413 0.239167 0)
(247.733 -0.6033 0)
(250.325 0.223118 0)
(251.716 0.304734 0)
(252.917 0.0450101 0)
(254.257 -0.0865755 0)
(255.055 -0.0177675 0)
(254.93 0.00200742 0)
(254.757 0.0130355 0)
(255.454 0.0121486 0)
(255.912 0.0205549 0)
(255.619 0.0297635 0)
(255.577 0.0436561 0)
(255.86 0.0551383 0)
(256.046 0.0564597 0)
(256.209 0.0250176 0)
(256.687 0.0121389 0)
(257.212 -0.0121682 0)
(257.531 -0.027352 0)
(257.708 -0.0258435 0)
(257.711 -0.0259158 0)
(257.622 -0.0315341 0)
(257.551 -0.0348489 0)
(257.487 -0.0346821 0)
(257.433 -0.0368826 0)
(257.339 -0.0370129 0)
(257.075 -0.0363678 0)
(256.495 -0.038914 0)
(254.911 -0.0389402 0)
(250.505 -0.0396644 0)
(238.515 -0.0397324 0)
(207.733 -0.0358127 0)
(145.187 -0.0265263 0)
(46.7251 -0.00910804 0)
(7.07979 -0.00163747 0)
(1.07092 -0.000272508 0)
(0.17125 -4.45578e-05 0)
(0.0275051 -7.25344e-06 0)
(0.00442001 -1.17736e-06 0)
(0.000710195 -1.9066e-07 0)
(0.000114093 -3.08126e-08 0)
(1.83255e-05 -4.96925e-09 0)
(2.94275e-06 -8.01103e-10 0)
(4.72432e-07 -1.28189e-10 0)
(7.58172e-08 -2.02296e-11 0)
(1.21625e-08 -3.7554e-12 0)
(1.95021e-09 -5.14239e-13 0)
(3.12608e-10 -3.35042e-13 0)
(4.95501e-11 -4.24384e-13 0)
(6.42885e-12 -1.48148e-12 0)
(-9.71596e-13 -1.54371e-12 0)
(-1.84078e-12 -3.03761e-12 0)
(-5.38906e-13 1.35214e-12 0)
(-3.89599e-13 1.12696e-12 0)
(3.93832e-12 1.2508e-12 0)
(1.07475e-11 8.61646e-13 0)
(5.14391e-11 9.07936e-13 0)
(2.15934e-10 1.1981e-12 0)
(8.78659e-10 -1.92615e-14 0)
(3.55506e-09 1.34436e-12 0)
(1.41313e-08 -1.05773e-12 0)
(5.53148e-08 -1.63799e-12 0)
(2.12907e-07 -1.20266e-11 0)
(8.04986e-07 -4.92687e-11 0)
(2.98661e-06 -1.73448e-10 0)
(1.08599e-05 -6.43439e-10 8.87946e-32)
(3.86472e-05 -2.27122e-09 0)
(0.000134385 -7.85281e-09 0)
(0.000455721 -2.64662e-08 0)
(0.00150381 -8.66776e-08 0)
(0.0048157 -2.7527e-07 0)
(0.0149159 -8.4435e-07 0)
(0.0444966 -2.4904e-06 0)
(0.127138 -7.02003e-06 0)
(0.345268 -1.87535e-05 0)
(0.881362 -4.69201e-05 0)
(2.0816 -0.000108156 0)
(4.46068 -0.000225118 0)
(8.52795 -0.000415014 0)
(14.4793 -0.000670172 0)
(22.0913 -0.000948342 0)
(30.956 -0.00118538 0)
(40.7166 -0.00131951 0)
(51.1148 -0.00140655 8.24929e-32)
(61.9643 -0.00141353 0)
(73.1308 -0.00124048 0)
(84.5193 -0.000853153 0)
(96.0623 -0.000237043 0)
(107.712 0.00058743 -7.7074e-32)
(119.43 0.00162308 0)
(131.185 0.00280843 0)
(142.95 0.00453122 7.3752e-32)
(154.708 0.00385328 0)
(166.444 0.0138423 0)
(178.152 -0.0124516 0)
(189.824 0.0500299 -6.93985e-32)
(201.443 -0.0456829 0)
(212.931 0.0376208 0)
(224.04 0.115361 0)
(234.206 -0.300439 0)
(242.45 0.479712 0)
(247.725 -0.130304 0)
(250.302 -0.213668 0)
(251.735 0.106069 0)
(252.912 0.126405 0)
(254.221 0.0714728 0)
(255.042 0.0121249 0)
(254.921 -0.000420007 -2.62909e-32)
(254.763 0.0129433 2.61522e-32)
(255.46 0.015055 0)
(255.921 0.0192627 0)
(255.651 0.0247809 -2.97965e-32)
(255.562 0.0198731 0)
(255.872 0.0212117 0)
(256.051 0.020889 0)
(256.191 0.0162812 0)
(256.654 0.0149819 0)
(257.195 0.00342562 0)
(257.521 -0.00396477 0)
(257.701 -0.0104108 0)
(257.705 -0.0118945 0)
(257.618 -0.0170412 0)
(257.545 -0.0238249 0)
(257.482 -0.0263153 5.1611e-32)
(257.43 -0.0280862 0)
(257.336 -0.0313335 0)
(257.071 -0.0355054 0)
(256.492 -0.0357484 0)
(254.907 -0.0377309 0)
(250.503 -0.0382905 0)
(238.516 -0.0376137 0)
(207.744 -0.0334943 0)
(145.216 -0.0241566 0)
(46.7524 -0.00810182 0)
(7.08487 -0.00143499 0)
(1.07165 -0.000237048 0)
(0.171368 -3.85936e-05 0)
(0.0275242 -6.26627e-06 0)
(0.00442312 -1.01547e-06 0)
(0.000710698 -1.64275e-07 0)
(0.000114175 -2.65288e-08 0)
(1.83387e-05 -4.27911e-09 0)
(2.94488e-06 -6.88924e-10 0)
(4.72766e-07 -1.10249e-10 -3.5516e-32)
(7.58729e-08 -1.83339e-11 0)
(1.2173e-08 -2.65906e-12 -3.5516e-32)
(1.95082e-09 4.78601e-13 0)
(3.12113e-10 2.50467e-14 0)
(4.829e-11 4.35708e-13 0)
(6.81116e-12 6.00415e-13 0)
(4.23861e-14 1.59476e-12 0)
(-1.80338e-12 2.90516e-12 0)
(1.85295e-14 2.5256e-12 0)
(9.40157e-13 1.50228e-12 0)
(2.22953e-12 1.57646e-12 0)
(1.17711e-11 5.30765e-13 0)
(5.1556e-11 1.28103e-12 0)
(2.13586e-10 -7.20926e-13 0)
(8.79045e-10 1.02469e-12 0)
(3.55704e-09 -9.42365e-13 0)
(1.41228e-08 6.57249e-13 0)
(5.53172e-08 -3.33983e-12 0)
(2.12876e-07 -7.73018e-12 0)
(8.04885e-07 -3.74665e-11 0)
(2.98628e-06 -1.26799e-10 0)
(1.08587e-05 -4.76395e-10 -8.87946e-32)
(3.8643e-05 -1.64757e-09 0)
(0.00013437 -5.70354e-09 0)
(0.000455672 -1.91547e-08 0)
(0.00150366 -6.25079e-08 0)
(0.00481522 -1.97976e-07 0)
(0.0149145 -6.05387e-07 0)
(0.0444925 -1.78077e-06 0)
(0.127126 -5.00732e-06 0)
(0.34524 -1.33524e-05 0)
(0.881295 -3.33867e-05 0)
(2.08146 -7.7111e-05 0)
(4.46042 -0.000161625 0)
(8.52756 -0.000302791 0)
(14.4788 -0.000504244 0)
(22.0908 -0.000751937 0)
(30.9555 -0.00101964 0)
(40.7163 -0.00127595 0)
(51.1146 -0.00145015 -8.24929e-32)
(61.9643 -0.00153058 0)
(73.1311 -0.00156806 0)
(84.52 -0.00149126 0)
(96.0633 -0.00128689 0)
(107.713 -0.000892897 7.70744e-32)
(119.432 -0.000257069 0)
(131.187 0.000619737 0)
(142.953 0.00188144 -7.37529e-32)
(154.711 0.00278482 0)
(166.447 0.00655032 0)
(178.154 0.00253906 0)
(189.827 0.0154478 6.93937e-32)
(201.451 -0.000434839 0)
(212.927 0.0241535 0)
(224.05 0.00911736 0)
(234.212 -0.0436105 0)
(242.397 0.193397 0)
(247.762 -0.209773 0)
(250.383 0.0292845 0)
(251.705 0.0994274 0)
(252.874 0.0561086 0)
(254.229 0.0156755 0)
(255.037 0.0145938 0)
(254.917 0.0198023 2.62878e-32)
(254.762 0.0248331 -2.61499e-32)
(255.453 0.0259037 0)
(255.914 0.013912 0)
(255.649 0.0145478 2.97941e-32)
(255.562 0.00451447 0)
(255.864 -0.0107954 0)
(256.036 0.0660413 0)
(256.189 0.0359061 0)
(256.662 -0.0251212 0)
(257.19 -0.0578388 0)
(257.51 -0.0352898 0)
(257.686 -0.0205963 0)
(257.688 -0.0177937 0)
(257.602 -0.0173755 0)
(257.535 -0.021289 0)
(257.475 -0.0250195 -5.11015e-32)
(257.425 -0.0264656 0)
(257.331 -0.0264104 0)
(257.067 -0.0274508 0)
(256.49 -0.029981 0)
(254.903 -0.0304846 0)
(250.502 -0.0310136 0)
(238.518 -0.0301881 0)
(207.753 -0.0269064 0)
(145.241 -0.0193213 0)
(46.7751 -0.006369 0)
(7.08908 -0.0011126 0)
(1.07225 -0.000181459 0)
(0.171464 -2.92023e-05 0)
(0.0275397 -4.69412e-06 0)
(0.00442562 -7.54352e-07 0)
(0.000711103 -1.21206e-07 0)
(0.00011424 -1.94651e-08 0)
(1.83492e-05 -3.12823e-09 0)
(2.94656e-06 -5.00806e-10 0)
(4.73039e-07 -8.16734e-11 3.5516e-32)
(7.59162e-08 -1.26112e-11 0)
(1.21818e-08 -2.45058e-12 3.5516e-32)
(1.95078e-09 -2.71646e-15 0)
(3.13317e-10 -2.14113e-13 0)
(4.95374e-11 5.43313e-13 0)
(8.83008e-12 5.45939e-14 0)
(1.50232e-12 4.65434e-13 0)
(7.87965e-13 1.75204e-13 0)
(-2.36123e-12 1.60238e-12 0)
(-1.11336e-12 1.17887e-12 0)
(1.34266e-12 9.89043e-13 0)
(1.09291e-11 1.1349e-12 0)
(5.00538e-11 6.55555e-13 0)
(2.12551e-10 5.95183e-13 0)
(8.82584e-10 8.92558e-13 0)
(3.54845e-09 2.47543e-13 0)
(1.41357e-08 1.31651e-13 0)
(5.52966e-08 3.53789e-13 0)
(2.1287e-07 -7.41839e-12 0)
(8.04814e-07 -1.78879e-11 0)
(2.98604e-06 -8.68577e-11 0)
(1.08578e-05 -2.8785e-10 0)
(3.864e-05 -1.0477e-09 0)
(0.00013436 -3.56398e-09 0)
(0.000455639 -1.19409e-08 0)
(0.00150355 -3.88437e-08 0)
(0.00481489 -1.22465e-07 0)
(0.0149135 -3.73168e-07 0)
(0.0444897 -1.09368e-06 0)
(0.127119 -3.06564e-06 0)
(0.345221 -8.15407e-06 0)
(0.88125 -2.03621e-05 0)
(2.08136 -4.70799e-05 0)
(4.46025 -9.92553e-05 0)
(8.52728 -0.000188619 0)
(14.4784 -0.000322684 0)
(22.0903 -0.00050173 0)
(30.955 -0.000718126 0)
(40.7158 -0.000953244 0)
(51.1143 -0.00117396 0)
(61.9642 -0.00133956 0)
(73.131 -0.00141673 0)
(84.52 -0.00147538 0)
(96.0636 -0.00150003 0)
(107.714 -0.00144833 0)
(119.433 -0.00131974 0)
(131.188 -0.00102083 0)
(142.955 -0.000507267 0)
(154.713 0.000108984 0)
(166.45 0.00219613 0)
(178.158 -0.000472618 0)
(189.832 0.0143491 0)
(201.452 -0.0107126 0)
(212.934 0.0240742 0)
(224.047 0.0352917 0)
(234.208 -0.11682 0)
(242.432 0.244236 0)
(247.758 -0.101753 0)
(250.371 -0.090204 0)
(251.725 0.101234 0)
(252.892 0.0838167 0)
(254.227 0.0363709 0)
(255.031 0.0248879 0)
(254.912 0.0256737 0)
(254.76 0.0271687 0)
(255.448 0.0279022 0)
(255.907 0.0200463 0)
(255.618 0.0203191 0)
(255.569 0.0105139 0)
(255.843 0.00759263 0)
(256.021 0.0309307 0)
(256.191 0.0168533 0)
(256.679 -0.012647 0)
(257.181 -0.0159191 0)
(257.495 -0.00833032 0)
(257.668 -0.00890688 0)
(257.671 -0.00682998 0)
(257.589 -0.00513967 0)
(257.521 -0.0125438 0)
(257.463 -0.0143391 0)
(257.414 -0.0169157 0)
(257.325 -0.0200086 0)
(257.066 -0.0215219 0)
(256.486 -0.0219817 0)
(254.905 -0.024657 0)
(250.503 -0.0245157 0)
(238.523 -0.0235226 0)
(207.764 -0.0205666 0)
(145.263 -0.014079 0)
(46.7928 -0.00447592 0)
(7.09222 -0.000763822 0)
(1.07268 -0.000122155 0)
(0.171534 -1.9302e-05 0)
(0.0275508 -3.05088e-06 0)
(0.00442739 -4.82914e-07 0)
(0.000711385 -7.65666e-08 0)
(0.000114285 -1.216e-08 0)
(1.83564e-05 -1.93261e-09 0)
(2.94772e-06 -3.08465e-10 0)
(4.73224e-07 -4.80929e-11 0)
(7.59464e-08 -8.57741e-12 0)
(1.21846e-08 -6.68122e-13 0)
(1.95346e-09 -5.03575e-13 0)
(3.1277e-10 6.4528e-13 0)
(4.91819e-11 2.6327e-13 0)
(7.02506e-12 7.18037e-13 0)
(-6.95385e-13 1.35808e-13 0)
(-1.21553e-12 -2.48195e-14 0)
(-8.59496e-13 1.21832e-12 0)
(-2.22396e-13 5.88515e-13 0)
(1.74933e-12 1.03215e-12 0)
(1.02713e-11 6.67641e-13 0)
(5.18963e-11 2.82282e-13 0)
(2.1145e-10 9.99502e-13 0)
(8.82891e-10 2.70743e-13 0)
(3.54961e-09 8.11434e-13 0)
(1.41284e-08 -2.33646e-12 0)
(5.53061e-08 1.294e-12 0)
(2.12845e-07 -6.55445e-12 0)
(8.04791e-07 -9.94448e-12 0)
(2.98588e-06 -4.82229e-11 0)
(1.08573e-05 -1.56323e-10 0)
(3.86382e-05 -5.73466e-10 0)
(0.000134354 -1.90945e-09 0)
(0.00045562 -6.42379e-09 0)
(0.00150349 -2.07008e-08 0)
(0.0048147 -6.49858e-08 0)
(0.0149129 -1.97019e-07 0)
(0.0444881 -5.74333e-07 0)
(0.127115 -1.60219e-06 0)
(0.34521 -4.24154e-06 0)
(0.881224 -1.05509e-05 0)
(2.08131 -2.4338e-05 0)
(4.46015 -5.13602e-05 0)
(8.52711 -9.82965e-05 0)
(14.4781 -0.000170993 0)
(22.09 -0.000273825 0)
(30.9546 -0.000409966 0)
(40.7154 -0.000579896 0)
(51.1139 -0.000777787 0)
(61.9638 -0.000987453 0)
(73.1308 -0.00118167 0)
(84.5199 -0.00130811 0)
(96.0636 -0.00135799 0)
(107.714 -0.00138841 0)
(119.433 -0.00136086 0)
(131.189 -0.00130178 0)
(142.956 -0.00113973 0)
(154.714 -0.000904964 0)
(166.452 -0.000346725 0)
(178.16 -0.000378842 0)
(189.835 0.0029829 0)
(201.455 -0.00195938 0)
(212.937 0.0107252 0)
(224.055 0.00608614 0)
(234.217 -0.0276194 0)
(242.431 0.11196 0)
(247.781 -0.0903087 0)
(250.389 0.0246917 0)
(251.717 0.0628646 0)
(252.885 0.0344805 0)
(254.226 0.0196915 0)
(255.033 0.0247476 0)
(254.915 0.0267985 0)
(254.762 0.0257662 0)
(255.449 0.0264956 0)
(255.902 0.0196546 0)
(255.636 0.0207411 0)
(255.545 0.00696702 0)
(255.845 0.0115411 0)
(256.019 -0.0020058 0)
(256.177 -0.00809224 0)
(256.653 -0.00956962 0)
(257.164 -0.00980461 0)
(257.486 -0.0133479 0)
(257.665 -0.0172401 0)
(257.669 -0.0197225 0)
(257.589 -0.0188053 0)
(257.526 -0.0169124 0)
(257.468 -0.012143 0)
(257.418 -0.0105708 0)
(257.326 -0.0150245 0)
(257.063 -0.0155686 0)
(256.489 -0.0137547 0)
(254.899 -0.0170253 0)
(250.505 -0.0159088 0)
(238.527 -0.0151633 0)
(207.772 -0.0128334 0)
(145.279 -0.00849195 0)
(46.8044 -0.00262788 0)
(7.09424 -0.000442362 0)
(1.07296 -6.97596e-05 0)
(0.171577 -1.0859e-05 0)
(0.0275575 -1.69004e-06 0)
(0.00442845 -2.63459e-07 0)
(0.000711552 -4.11584e-08 0)
(0.000114311 -6.45121e-09 0)
(1.83605e-05 -1.01241e-09 0)
(2.94838e-06 -1.58967e-10 0)
(4.73323e-07 -2.61377e-11 0)
(7.59674e-08 -3.77276e-12 0)
(1.21874e-08 -6.78949e-13 0)
(1.95277e-09 -4.30537e-14 0)
(3.14189e-10 1.06882e-13 0)
(4.95659e-11 -1.47729e-13 0)
(8.72271e-12 2.91269e-13 0)
(1.16201e-12 2.14151e-13 0)
(-2.30476e-13 7.33474e-13 0)
(-3.06611e-12 1.14693e-12 0)
(-2.06542e-12 8.13807e-13 0)
(1.95999e-12 8.33291e-13 0)
(8.97493e-12 3.26247e-13 0)
(5.14689e-11 6.36877e-13 0)
(2.11245e-10 1.92298e-13 0)
(8.83259e-10 -4.82923e-13 0)
(3.54545e-09 4.38017e-13 0)
(1.41301e-08 -3.11489e-13 0)
(5.53052e-08 2.63482e-13 0)
(2.12835e-07 -1.49073e-12 0)
(8.04776e-07 -5.56166e-12 0)
(2.98581e-06 -2.24745e-11 0)
(1.08571e-05 -7.09211e-11 0)
(3.86373e-05 -2.57054e-10 0)
(0.000134351 -8.90738e-10 0)
(0.00045561 -2.91728e-09 0)
(0.00150346 -9.49363e-09 0)
(0.00481461 -2.96707e-08 0)
(0.0149127 -8.99507e-08 0)
(0.0444873 -2.62208e-07 0)
(0.127113 -7.32111e-07 0)
(0.345204 -1.94264e-06 0)
(0.881212 -4.85258e-06 0)
(2.08128 -1.12736e-05 0)
(4.4601 -2.40612e-05 0)
(8.52703 -4.68337e-05 0)
(14.478 -8.3393e-05 0)
(22.0898 -0.000137648 0)
(30.9544 -0.000214101 0)
(40.7151 -0.000317826 0)
(51.1135 -0.000453236 0)
(61.9635 -0.000621113 0)
(73.1305 -0.000813705 0)
(84.5197 -0.0010099 0)
(96.0635 -0.00117906 0)
(107.714 -0.00127055 0)
(119.433 -0.00131837 0)
(131.189 -0.00132352 0)
(142.956 -0.00130961 0)
(154.715 -0.00130696 0)
(166.452 -0.00121705 0)
(178.161 -0.0012837 0)
(189.836 -0.00064666 0)
(201.456 -0.00183351 0)
(212.941 0.000858962 0)
(224.055 0.00398925 0)
(234.22 -0.0200486 0)
(242.446 0.052329 0)
(247.773 -0.0494615 0)
(250.39 0.00893093 0)
(251.74 0.0353194 0)
(252.896 0.022652 0)
(254.224 0.02026 0)
(255.034 0.0257968 0)
(254.914 0.0263209 0)
(254.76 0.0223679 0)
(255.447 0.0219948 0)
(255.898 0.0189834 0)
(255.63 0.0180254 0)
(255.535 0.0140346 0)
(255.842 0.0119234 0)
(256.018 0.0141831 0)
(256.168 0.0138525 0)
(256.634 0.0117587 0)
(257.156 0.00399519 0)
(257.481 -0.001464 0)
(257.66 -0.00962793 0)
(257.666 -0.00975104 0)
(257.585 -0.0117424 0)
(257.518 -0.0087792 0)
(257.46 -0.00874629 0)
(257.41 -0.0116235 0)
(257.32 -0.012495 0)
(257.061 -0.0123892 0)
(256.488 -0.0131603 0)
(254.9 -0.0120805 0)
(250.509 -0.0109678 0)
(238.532 -0.00937687 0)
(207.779 -0.00705798 0)
(145.289 -0.00438173 0)
(46.8108 -0.00126029 0)
(7.09531 -0.000204399 0)
(1.07311 -3.13273e-05 0)
(0.171599 -4.76769e-06 0)
(0.027561 -7.28546e-07 0)
(0.00442899 -1.11837e-07 0)
(0.000711636 -1.72485e-08 0)
(0.000114324 -2.67087e-09 0)
(1.83626e-05 -4.14943e-10 0)
(2.94869e-06 -6.50198e-11 0)
(4.73384e-07 -1.08407e-11 0)
(7.59689e-08 -3.19648e-13 0)
(1.21906e-08 -6.68443e-13 0)
(1.95371e-09 1.33615e-13 0)
(3.1222e-10 5.07254e-15 0)
(4.98522e-11 -1.37639e-13 0)
(7.54733e-12 1.18557e-13 0)
(3.52279e-13 -2.71323e-14 0)
(-4.68005e-13 4.82306e-13 0)
(-1.59016e-12 -9.13006e-13 0)
(-9.58745e-13 9.05298e-14 0)
(1.72295e-12 -4.28593e-13 0)
(9.68308e-12 1.91638e-13 0)
(5.26175e-11 1.75743e-13 0)
(2.0933e-10 5.4359e-13 0)
(8.82043e-10 -6.02266e-13 0)
(3.5532e-09 1.47623e-12 0)
(1.41222e-08 2.05579e-14 0)
(5.53103e-08 8.48156e-13 0)
(2.12831e-07 5.42721e-13 0)
(8.04769e-07 4.14927e-13 0)
(2.98577e-06 -1.42597e-12 0)
(1.0857e-05 -6.1477e-12 0)
(3.8637e-05 -1.94669e-11 0)
(0.00013435 -7.85183e-11 0)
(0.000455606 -2.42507e-10 0)
(0.00150345 -8.07474e-10 0)
(0.00481457 -2.51345e-09 0)
(0.0149125 -7.65432e-09 0)
(0.044487 -2.24083e-08 0)
(0.127112 -6.29201e-08 0)
(0.345202 -1.68287e-07 0)
(0.881207 -4.24824e-07 0)
(2.08127 -1.00138e-06 0)
(4.46008 -2.17952e-06 0)
(8.527 -4.35148e-06 0)
(14.478 -7.99037e-06 0)
(22.0897 -1.36566e-05 0)
(30.9543 -2.20788e-05 0)
(40.715 -3.42636e-05 0)
(51.1133 -5.15922e-05 0)
(61.9632 -7.58062e-05 0)
(73.1302 -0.000108991 0)
(84.5194 -0.000152747 0)
(96.0632 -0.000205938 0)
(107.714 -0.000264458 0)
(119.433 -0.000297763 0)
(131.189 -0.000304922 0)
(142.956 -0.000313856 0)
(154.715 -0.000316208 0)
(166.452 -0.000305535 0)
(178.161 -0.000334748 0)
(189.836 -0.000269174 0)
(201.457 -0.000407948 0)
(212.942 -0.000116196 0)
(224.054 -9.81589e-05 0)
(234.222 -0.0018523 0)
(242.448 0.00467919 0)
(247.77 -0.0069972 0)
(250.408 0.00369279 0)
(251.755 0.00457615 0)
(252.898 0.00287665 0)
(254.225 0.00390552 0)
(255.039 0.00519237 0)
(254.916 0.00547562 0)
(254.759 0.00506547 0)
(255.447 0.00518945 0)
(255.897 0.00467107 0)
(255.629 0.00484661 0)
(255.53 0.00384324 0)
(255.837 0.00426956 0)
(256.011 0.00350446 0)
(256.165 0.00319579 0)
(256.631 0.00377535 0)
(257.149 0.0028081 0)
(257.474 0.0016831 0)
(257.652 0.000405519 0)
(257.661 0.000374997 0)
(257.583 -0.00102424 0)
(257.517 -0.00256327 0)
(257.459 -0.00241091 0)
(257.408 -0.00201079 0)
(257.318 -0.00207905 0)
(257.061 -0.00193663 0)
(256.489 -0.00167478 0)
(254.902 -0.00148491 0)
(250.511 -0.0013403 0)
(238.536 -0.0010074 0)
(207.783 -0.000724716 0)
(145.293 -0.000411751 0)
(46.8134 -0.000108522 0)
(7.09572 -1.67587e-05 0)
(1.07316 -2.47793e-06 0)
(0.171607 -3.67151e-07 0)
(0.0275622 -5.49912e-08 0)
(0.00442918 -8.3124e-09 0)
(0.000711665 -1.26807e-09 0)
(0.000114329 -1.93508e-10 0)
(1.83633e-05 -3.01225e-11 0)
(2.9488e-06 -4.59256e-12 0)
(4.73402e-07 -5.15345e-13 0)
(7.59711e-08 5.04013e-15 0)
(1.21899e-08 2.19226e-13 0)
(1.95444e-09 6.87656e-14 0)
(3.12519e-10 1.82067e-13 0)
(5.05858e-11 3.96944e-13 0)
(8.58992e-12 5.70797e-13 0)
(1.7694e-12 8.47446e-13 0)
(6.51379e-13 1.30045e-12 0)
)
;

boundaryField
{
    sides1
    {
        type            zeroGradient;
    }
    sides2
    {
        type            slip;
    }
    empty
    {
        type            empty;
    }
}


// ************************************************************************* //
