/*--------------------------------*- C++ -*----------------------------------*\
| =========                 |                                                 |
| \\      /  F ield         | OpenFOAM: The Open Source CFD Toolbox           |
|  \\    /   O peration     | Version:  3.0.1                                 |
|   \\  /    A nd           | Web:      www.OpenFOAM.org                      |
|    \\/     M anipulation  |                                                 |
\*---------------------------------------------------------------------------*/
FoamFile
{
    version     2.0;
    format      ascii;
    class       volScalarField;
    location    "0.0002";
    object      minKappa;
}
// * * * * * * * * * * * * * * * * * * * * * * * * * * * * * * * * * * * * * //

dimensions      [0 0 0 0 0 0 0];

internalField   nonuniform List<scalar> 
1000
(
0.894825
0.894825
0.894825
0.894825
0.894825
0.894825
0.894825
0.894825
0.894825
0.894825
0.894825
0.894825
0.894825
0.894825
0.894825
0.894826
0.894826
0.894827
0.89483
0.894836
0.894841
0.894854
0.894871
0.894914
0.894995
0.8951
0.895305
0.895558
0.896
0.896542
0.897321
0.898243
0.899249
0.900333
0.9014
0.902403
0.903191
0.903844
0.904278
0.904516
0.904613
0.904616
0.904604
0.904604
0.904671
0.904778
0.904772
0.904398
0.902998
0.899951
0.895399
0.890588
0.886958
0.885044
0.88443
0.884396
0.884396
0.884421
0.884636
0.884864
0.884994
0.885004
0.885007
0.88517
0.885517
0.886077
0.886831
0.887849
0.889164
0.890442
0.89167
0.892623
0.893397
0.893894
0.894272
0.894485
0.894648
0.894727
0.894766
0.894795
0.894806
0.894816
0.89482
0.894823
0.894824
0.894824
0.894825
0.894825
0.894825
0.894825
0.894825
0.894825
0.894825
0.894825
0.894825
0.894825
0.894825
0.894825
0.894825
0.894825
0.894825
0.894825
0.894825
0.894825
0.894825
0.894825
0.894825
0.894825
0.894825
0.894825
0.894825
0.894825
0.894825
0.894825
0.894825
0.894825
0.894826
0.894828
0.894829
0.894835
0.894844
0.894852
0.894862
0.894915
0.894998
0.8951
0.895307
0.895542
0.895995
0.896521
0.897289
0.898227
0.899168
0.900296
0.901405
0.902426
0.903219
0.903886
0.904322
0.904531
0.904619
0.904626
0.90461
0.90461
0.90467
0.904723
0.904648
0.904198
0.902812
0.899882
0.895504
0.890823
0.887178
0.885189
0.884518
0.88444
0.88444
0.884455
0.884614
0.884833
0.884956
0.884975
0.884999
0.885158
0.885502
0.886045
0.886793
0.887845
0.889143
0.890459
0.891671
0.89263
0.893402
0.893892
0.894273
0.894483
0.894647
0.894729
0.894763
0.894794
0.894807
0.894816
0.89482
0.894823
0.894824
0.894824
0.894825
0.894825
0.894825
0.894825
0.894825
0.894825
0.894825
0.894825
0.894825
0.894825
0.894825
0.894825
0.894825
0.894825
0.894825
0.894825
0.894825
0.894825
0.894825
0.894825
0.894825
0.894825
0.894825
0.894825
0.894825
0.894825
0.894825
0.894825
0.894825
0.894826
0.894826
0.894828
0.89483
0.894835
0.894841
0.894856
0.894865
0.894905
0.894992
0.895099
0.895322
0.895537
0.895975
0.896485
0.897222
0.898181
0.899121
0.9002
0.901346
0.902407
0.903275
0.904006
0.904404
0.90457
0.904657
0.904671
0.904678
0.90469
0.904682
0.904611
0.904374
0.903758
0.90234
0.899662
0.89567
0.89126
0.887664
0.885539
0.884696
0.88453
0.88453
0.884531
0.884626
0.88477
0.884857
0.884926
0.884993
0.885135
0.885527
0.886074
0.886862
0.887933
0.88924
0.890518
0.891649
0.892568
0.893372
0.893865
0.894254
0.894468
0.894654
0.894734
0.894751
0.894791
0.894806
0.894815
0.89482
0.894822
0.894823
0.894824
0.894825
0.894825
0.894825
0.894825
0.894825
0.894825
0.894825
0.894825
0.894825
0.894825
0.894825
0.894825
0.894825
0.894825
0.894825
0.894825
0.894825
0.894825
0.894825
0.894825
0.894825
0.894825
0.894825
0.894825
0.894825
0.894825
0.894825
0.894825
0.894825
0.894826
0.894826
0.894827
0.89483
0.894834
0.894843
0.894856
0.894867
0.894899
0.894966
0.895109
0.895335
0.895531
0.89594
0.896474
0.897104
0.898023
0.899076
0.900157
0.901375
0.902451
0.903389
0.904048
0.904437
0.904595
0.904651
0.904694
0.904723
0.904733
0.90469
0.904522
0.904151
0.903392
0.901933
0.899394
0.89572
0.89157
0.888059
0.885876
0.884902
0.884636
0.884626
0.884626
0.884658
0.884727
0.884819
0.884896
0.884973
0.885146
0.885506
0.88608
0.886909
0.888005
0.889327
0.890556
0.891664
0.892533
0.893312
0.893846
0.894189
0.894445
0.894607
0.894705
0.894751
0.894789
0.894806
0.894815
0.894819
0.894822
0.894823
0.894824
0.894825
0.894825
0.894825
0.894825
0.894825
0.894825
0.894825
0.894825
0.894825
0.894825
0.894825
0.894825
0.894825
0.894825
0.894825
0.894825
0.894825
0.894825
0.894825
0.894825
0.894825
0.894825
0.894825
0.894825
0.894825
0.894825
0.894825
0.894825
0.894825
0.894826
0.894826
0.894827
0.89483
0.894834
0.89484
0.894856
0.894861
0.894903
0.894984
0.895079
0.895305
0.895534
0.895954
0.896465
0.897052
0.897987
0.899017
0.900242
0.901527
0.902496
0.903517
0.904105
0.90443
0.904568
0.904626
0.904682
0.904733
0.904759
0.904699
0.90451
0.904098
0.903294
0.901787
0.899246
0.895642
0.891593
0.888161
0.885989
0.885
0.884706
0.884678
0.884678
0.884682
0.884734
0.884824
0.884912
0.885004
0.885165
0.88547
0.886081
0.886966
0.887999
0.88933
0.890595
0.89169
0.892575
0.893287
0.893882
0.894208
0.894453
0.894609
0.894695
0.894754
0.894788
0.894807
0.894815
0.894819
0.894822
0.894823
0.894824
0.894825
0.894825
0.894825
0.894825
0.894825
0.894825
0.894825
0.894825
0.894825
0.894825
0.894825
0.894825
0.894825
0.894825
0.894825
0.894825
0.894825
0.894825
0.894825
0.894825
0.894825
0.894825
0.894825
0.894825
0.894825
0.894825
0.894825
0.894825
0.894825
0.894826
0.894826
0.894827
0.89483
0.894834
0.894839
0.894853
0.894871
0.894909
0.894991
0.895082
0.895277
0.895505
0.895875
0.896455
0.897049
0.897977
0.899127
0.900287
0.901511
0.902581
0.903494
0.904104
0.904435
0.904547
0.904585
0.904635
0.904709
0.904756
0.904733
0.904591
0.904234
0.903458
0.901913
0.899246
0.895478
0.89136
0.887974
0.885899
0.884977
0.884722
0.884697
0.884697
0.884699
0.884752
0.884864
0.884949
0.88503
0.885172
0.885446
0.885992
0.886835
0.88803
0.88939
0.890673
0.891616
0.892515
0.89326
0.893875
0.894231
0.894443
0.894608
0.894687
0.894757
0.894785
0.89481
0.894818
0.894818
0.894822
0.894824
0.894824
0.894825
0.894825
0.894825
0.894825
0.894825
0.894825
0.894825
0.894825
0.894825
0.894825
0.894825
0.894825
0.894825
0.894825
0.894825
0.894825
0.894825
0.894825
0.894825
0.894825
0.894825
0.894825
0.894825
0.894825
0.894825
0.894825
0.894825
0.894825
0.894825
0.894826
0.894826
0.894827
0.894829
0.894832
0.894841
0.894852
0.894876
0.894916
0.894981
0.895066
0.895232
0.895489
0.895825
0.896374
0.897055
0.89806
0.899143
0.900224
0.901434
0.90261
0.90348
0.904093
0.904442
0.904569
0.904577
0.904593
0.904683
0.904755
0.904792
0.904719
0.904471
0.903769
0.90219
0.899308
0.895262
0.890959
0.887591
0.885667
0.884869
0.88466
0.884652
0.884652
0.884677
0.884746
0.884878
0.884976
0.885048
0.885174
0.885407
0.885933
0.886835
0.888014
0.889411
0.890724
0.891733
0.892562
0.893299
0.893861
0.894232
0.894447
0.894601
0.894706
0.894764
0.894788
0.894807
0.894815
0.89482
0.894822
0.894823
0.894824
0.894825
0.894825
0.894825
0.894825
0.894825
0.894825
0.894825
0.894825
0.894825
0.894825
0.894825
0.894825
0.894825
0.894825
0.894825
0.894825
0.894825
0.894825
0.894825
0.894825
0.894825
0.894825
0.894825
0.894825
0.894825
0.894825
0.894825
0.894825
0.894825
0.894826
0.894826
0.894827
0.894829
0.894832
0.894839
0.894849
0.894866
0.894904
0.894978
0.89506
0.895205
0.895445
0.895766
0.896342
0.897082
0.898036
0.899131
0.900288
0.901569
0.902658
0.903479
0.904018
0.904395
0.904574
0.904588
0.904596
0.904664
0.90478
0.904852
0.904832
0.904607
0.903944
0.902329
0.899364
0.895164
0.890758
0.88735
0.885469
0.88476
0.88461
0.884609
0.884609
0.884678
0.884775
0.884874
0.884954
0.885019
0.885157
0.885416
0.885889
0.886756
0.887978
0.889296
0.890682
0.89184
0.892695
0.893358
0.893895
0.894235
0.894466
0.894627
0.894703
0.894768
0.894792
0.894809
0.894817
0.89482
0.894823
0.894823
0.894824
0.894825
0.894825
0.894825
0.894825
0.894825
0.894825
0.894825
0.894825
0.894825
0.894825
0.894825
0.894825
0.894825
0.894825
0.894825
0.894825
0.894825
0.894825
0.894825
0.894825
0.894825
0.894825
0.894825
0.894825
0.894825
0.894825
0.894825
0.894825
0.894825
0.894825
0.894826
0.894827
0.894828
0.894832
0.894839
0.894846
0.894856
0.894894
0.894956
0.895049
0.895209
0.895422
0.895782
0.896299
0.897042
0.897993
0.899119
0.900326
0.901557
0.902626
0.903468
0.90403
0.904338
0.904489
0.904561
0.904597
0.904665
0.904819
0.904913
0.904878
0.904638
0.903932
0.902312
0.899346
0.895165
0.890736
0.8873
0.885399
0.884698
0.884571
0.884571
0.884575
0.884658
0.884795
0.884903
0.884958
0.88502
0.885154
0.88541
0.885932
0.886748
0.887884
0.889215
0.890603
0.891817
0.892714
0.893457
0.893948
0.894273
0.894511
0.894635
0.894718
0.894768
0.894793
0.894808
0.894816
0.89482
0.894823
0.894824
0.894824
0.894825
0.894825
0.894825
0.894825
0.894825
0.894825
0.894825
0.894825
0.894825
0.894825
0.894825
0.894825
0.894825
0.894825
0.894825
0.894825
0.894825
0.894825
0.894825
0.894825
0.894825
0.894825
0.894825
0.894825
0.894825
0.894825
0.894825
0.894825
0.894825
0.894826
0.894826
0.894826
0.894829
0.894831
0.894836
0.894845
0.894861
0.894894
0.894952
0.895047
0.895206
0.895422
0.895794
0.896312
0.897051
0.897989
0.899096
0.900332
0.901539
0.902607
0.90346
0.904026
0.904323
0.904473
0.904537
0.904591
0.904696
0.904848
0.904948
0.904902
0.904639
0.903906
0.902267
0.899326
0.895171
0.89076
0.887305
0.885386
0.884683
0.884553
0.884553
0.884557
0.884646
0.884789
0.884901
0.884953
0.88501
0.885169
0.885431
0.885958
0.8868
0.887893
0.889232
0.890563
0.891793
0.892703
0.893467
0.893955
0.89427
0.894511
0.894638
0.894723
0.89477
0.894793
0.894809
0.894816
0.89482
0.894823
0.894824
0.894824
0.894825
0.894825
0.894825
0.894825
0.894825
0.894825
0.894825
0.894825
0.894825
0.894825
0.894825
0.894825
0.894825
0.894825
)
;

boundaryField
{
    sides1
    {
        type            calculated;
        value           uniform 0;
    }
    sides2
    {
        type            calculated;
        value           uniform 0;
    }
    empty
    {
        type            empty;
    }
}


// ************************************************************************* //
