/*--------------------------------*- C++ -*----------------------------------*\
| =========                 |                                                 |
| \\      /  F ield         | OpenFOAM: The Open Source CFD Toolbox           |
|  \\    /   O peration     | Version:  3.0.1                                 |
|   \\  /    A nd           | Web:      www.OpenFOAM.org                      |
|    \\/     M anipulation  |                                                 |
\*---------------------------------------------------------------------------*/
FoamFile
{
    version     2.0;
    format      ascii;
    class       surfaceScalarField;
    location    "0.00015";
    object      phi;
}
// * * * * * * * * * * * * * * * * * * * * * * * * * * * * * * * * * * * * * //

dimensions      [1 0 -1 0 0 0 0];

internalField   nonuniform List<scalar> 
1890
(
-1.38778e-17
-4.68375e-17
-4.85723e-17
-3.46945e-18
-4.51028e-17
2.08167e-17
-4.85723e-17
-3.46945e-18
3.81639e-17
0
1.38778e-17
-5.20417e-18
-6.245e-17
-5.20417e-18
-3.81639e-17
1.73472e-18
-6.59195e-17
-2.42861e-17
-4.51028e-17
-1.73472e-18
-6.93889e-18
-1.73472e-18
-3.46945e-18
-8.67362e-18
-1.04083e-17
-1.38778e-17
-1.04083e-17
1.73472e-18
-7.28584e-17
1.73472e-18
-7.28584e-17
-2.25514e-17
-3.46945e-18
-1.38778e-17
-3.46945e-17
-3.29597e-17
-6.245e-17
-3.81639e-17
0
-1.73472e-17
-6.59195e-17
-3.81639e-17
-6.93889e-18
-1.56125e-17
1.04083e-17
-3.46945e-17
-2.42861e-17
-2.25514e-17
-2.08167e-17
-1.21431e-17
3.1225e-17
-5.20417e-18
1.9082e-16
-1.73472e-17
7.54605e-14
-2.94903e-17
3.65551e-11
2.34188e-16
1.16807e-08
1.23545e-13
2.329e-06
2.50913e-11
9.54567e-05
9.06276e-10
0.000550684
8.80324e-08
0.00108284
2.31317e-07
0.00143323
3.62649e-07
0.00163155
4.61903e-07
0.00173022
4.21138e-07
0.0017718
3.78795e-07
0.0017871
2.92636e-07
0.00179142
2.68328e-07
0.00179145
6.29058e-09
0.00179223
4.34934e-08
0.0017935
-1.05572e-07
0.00179352
-1.53556e-07
0.00179312
-1.64872e-07
0.00179319
-1.61414e-07
0.00179396
-1.68874e-07
0.00179394
-1.73189e-07
0.00179116
-1.84831e-07
0.00178196
-1.72981e-07
0.00176497
-1.56374e-07
0.00174455
-1.35339e-07
0.00172787
-1.00363e-07
0.00171868
-7.87663e-08
0.00171481
-5.93213e-08
0.0017135
-4.29097e-08
0.00171293
-3.06179e-08
0.00171284
-2.16927e-08
0.00171377
-1.8877e-08
0.00171422
-2.37022e-08
0.00171368
-1.20034e-08
0.00171258
-3.81239e-08
0.0017068
-6.55539e-08
0.00168432
-8.63114e-08
0.0016193
-1.09387e-07
0.00145597
-9.9076e-08
0.00110123
-4.46283e-08
0.000496599
4.62541e-08
5.68727e-05
6.71573e-08
7.55635e-07
9.01604e-09
3.03337e-09
1.18411e-10
7.72062e-12
4.85087e-13
1.42993e-14
1.29063e-15
1.73472e-17
3.1225e-17
1.73472e-18
-2.25514e-17
-3.98986e-17
-1.73472e-17
-2.77556e-17
-1.9082e-17
3.98986e-17
6.07153e-18
2.77556e-17
-5.20417e-18
4.68375e-17
-1.12757e-17
8.67362e-18
-1.82146e-17
3.46945e-18
-1.64799e-17
-4.16334e-17
-2.08167e-17
1.73472e-17
-2.51535e-17
1.73472e-18
-2.08167e-17
-2.60209e-17
-3.90313e-17
3.46945e-17
-7.80626e-18
4.85723e-17
-6.93889e-18
-6.93889e-18
-1.38778e-17
3.46945e-17
-1.04083e-17
1.73472e-17
-2.68882e-17
-1.38778e-17
-3.46945e-17
-2.42861e-17
-3.72966e-17
-1.56125e-17
-4.33681e-18
-5.20417e-17
-8.67362e-18
1.73472e-18
4.33681e-18
-2.25514e-17
0
7.97973e-17
-5.20417e-18
5.20417e-17
-2.60209e-18
5.20417e-18
2.42861e-17
-3.29597e-17
1.38778e-17
-1.04083e-17
-9.71445e-17
-2.77556e-17
-6.59195e-17
-1.73472e-17
3.46945e-18
1.04083e-17
-3.46945e-17
-3.46945e-18
-6.93889e-17
-2.60209e-17
-3.46945e-17
-3.64292e-17
-1.73472e-17
-4.51028e-17
3.46945e-18
-5.72459e-17
2.77556e-17
-5.20417e-18
-3.1225e-17
-3.46945e-18
1.73472e-17
0
-1.38778e-17
-3.46945e-18
-1.249e-16
-8.67362e-18
-1.04083e-16
1.73472e-18
-7.63278e-17
-3.46945e-18
-5.20417e-17
-1.9082e-17
1.38778e-17
-3.46945e-17
-3.46945e-18
-6.59195e-17
-1.04083e-17
-3.1225e-17
-2.08167e-17
-1.04083e-17
0
8.67362e-18
-2.42861e-17
0
-3.46945e-17
-1.21431e-17
-1.73472e-17
-6.93889e-18
2.39392e-16
-2.60209e-17
7.53494e-14
3.46945e-18
3.6607e-11
1.6577e-14
1.16957e-08
6.27848e-12
2.33121e-06
1.4748e-09
9.54662e-05
7.31436e-08
0.000550576
4.80891e-07
0.00108253
7.87366e-07
0.00143275
8.44316e-07
0.00163105
7.34976e-07
0.00172982
5.92282e-07
0.00177152
4.70978e-07
0.00178695
3.26225e-07
0.00179141
2.90003e-07
0.00179147
-6.67356e-08
0.0017923
-8.97246e-08
0.00179361
-3.12418e-07
0.00179363
-3.56183e-07
0.00179322
-3.43102e-07
0.00179335
-3.26586e-07
0.00179416
-3.09838e-07
0.00179418
-3.14103e-07
0.00179145
-3.31478e-07
0.00178228
-3.21839e-07
0.00176532
-3.03903e-07
0.00174491
-2.84573e-07
0.0017282
-2.11197e-07
0.00171897
-1.81441e-07
0.00171506
-1.25439e-07
0.00171371
-9.06855e-08
0.00171311
-6.09879e-08
0.001713
-3.57718e-08
0.00171384
2.24071e-09
0.00171428
3.19468e-08
0.00171358
3.56778e-08
0.00171245
4.59677e-08
0.00170656
3.99937e-08
0.00168394
3.20153e-08
0.00161875
-1.23475e-08
0.00145524
-7.83053e-08
0.00110036
-1.86993e-07
0.000495853
-2.72283e-07
5.67106e-05
-1.73019e-07
7.52566e-07
-2.03644e-08
3.01999e-09
-2.70222e-10
7.68281e-12
-1.06526e-12
1.41311e-14
-2.76341e-15
-3.46945e-18
-2.77556e-17
-2.94903e-17
1.47451e-17
-2.25514e-17
1.99493e-17
2.25514e-17
-2.60209e-18
2.25514e-17
-1.04083e-17
5.20417e-18
-9.54098e-18
4.85723e-17
-9.54098e-18
4.33681e-17
-1.56125e-17
8.67362e-18
-2.86229e-17
-3.1225e-17
-1.30104e-17
5.20417e-18
-3.46945e-18
1.04083e-17
-3.46945e-18
8.67362e-18
-9.54098e-18
6.59195e-17
6.07153e-18
2.42861e-17
-6.93889e-18
-2.42861e-17
-8.67362e-18
-8.67362e-18
-1.47451e-17
-6.93889e-18
-1.04083e-17
1.38778e-17
-8.67362e-18
4.68375e-17
-9.54098e-18
-3.64292e-17
-1.64799e-17
-1.04083e-17
-2.60209e-18
-2.25514e-17
4.33681e-18
-1.73472e-17
1.12757e-17
2.94903e-17
3.46945e-18
3.1225e-17
-1.38778e-17
-2.34188e-17
4.85723e-17
5.20417e-18
4.85723e-17
-8.67362e-18
-3.46945e-18
-1.38778e-17
3.46945e-18
-3.29597e-17
2.42861e-17
-1.73472e-17
-6.59195e-17
-2.94903e-17
-3.46945e-17
0
-5.20417e-17
2.08167e-17
-7.28584e-17
1.73472e-18
-2.42861e-17
0
-3.46945e-17
-1.38778e-17
1.38778e-17
-2.08167e-17
2.42861e-17
-2.94903e-17
-4.85723e-17
-1.9082e-17
-5.89806e-17
1.56125e-17
-7.63278e-17
-2.08167e-17
-3.81639e-17
-8.67362e-18
-3.81639e-17
-3.1225e-17
-3.1225e-17
-1.73472e-17
-1.04083e-17
-1.73472e-17
3.81639e-17
-1.04083e-17
4.16334e-17
-1.73472e-17
-6.93889e-18
-3.29597e-17
6.93889e-18
-2.94903e-17
-6.93889e-18
-5.89806e-17
-3.1225e-17
-3.29597e-17
1.17961e-16
-3.29597e-17
7.73548e-14
8.67362e-18
3.74784e-11
2.12209e-14
1.19604e-08
7.94133e-12
2.37984e-06
1.7659e-09
9.66842e-05
8.23224e-08
0.000553625
5.46149e-07
0.0010849
9.81162e-07
0.00143428
1.08175e-06
0.0016321
8.62294e-07
0.00173067
7.0438e-07
0.00177228
5.53587e-07
0.00178767
3.79334e-07
0.00179212
3.74732e-07
0.00179217
-7.28872e-08
0.00179298
-6.26124e-08
0.00179421
-3.02217e-07
0.00179421
-3.7973e-07
0.00179375
-3.88309e-07
0.00179383
-3.99198e-07
0.00179461
-4.06116e-07
0.00179462
-4.27765e-07
0.00179194
-4.38026e-07
0.00178282
-4.29384e-07
0.00176589
-4.05467e-07
0.00174549
-3.81355e-07
0.00172877
-2.9737e-07
0.00171951
-2.64271e-07
0.00171555
-1.95646e-07
0.00171418
-1.54804e-07
0.00171357
-1.20463e-07
0.00171346
-9.04739e-08
0.00171432
-4.40624e-08
0.00171481
-1.60825e-08
0.00171411
7.36383e-09
0.00171296
2.83219e-08
0.00170706
4.18505e-08
0.00168444
3.77843e-08
0.00161933
1.58134e-08
0.00145604
-2.29654e-08
0.00110158
-9.22038e-08
0.000497302
-1.33662e-07
5.7101e-05
-8.68697e-08
7.60819e-07
-1.02621e-08
3.05623e-09
-1.29181e-10
7.78564e-12
-4.61155e-13
1.42681e-14
-1.13277e-15
-1.04083e-17
-5.46438e-17
-2.08167e-17
4.33681e-18
-3.46945e-17
1.99493e-17
-3.98986e-17
1.47451e-17
-6.93889e-18
-1.73472e-18
1.73472e-17
1.04083e-17
1.38778e-17
-6.93889e-18
1.73472e-17
-3.46945e-18
1.04083e-17
-1.64799e-17
-5.20417e-18
3.46945e-18
8.67362e-18
4.33681e-18
2.08167e-17
0
2.94903e-17
1.12757e-17
4.33681e-17
-2.60209e-18
3.46945e-18
-7.80626e-18
-3.29597e-17
2.42861e-17
-1.21431e-17
5.20417e-18
0
2.51535e-17
1.9082e-17
-1.73472e-18
2.42861e-17
2.08167e-17
4.16334e-17
9.54098e-18
4.33681e-17
0
1.04083e-17
-2.08167e-17
-1.21431e-17
-9.54098e-18
3.46945e-18
-1.64799e-17
1.04083e-17
7.80626e-18
6.93889e-18
0
-2.08167e-17
5.55112e-17
-3.46945e-18
-3.46945e-18
-1.56125e-17
6.93889e-18
-1.56125e-17
-8.32667e-17
-2.60209e-17
-2.42861e-17
-6.93889e-18
-6.93889e-18
-2.25514e-17
-3.81639e-17
-1.73472e-18
-3.1225e-17
-2.42861e-17
-3.1225e-17
-1.04083e-17
-4.85723e-17
-2.08167e-17
-6.93889e-18
6.93889e-18
-4.51028e-17
-3.46945e-18
-3.81639e-17
-1.04083e-17
2.08167e-17
-1.73472e-18
-4.51028e-17
-5.72459e-17
-7.63278e-17
-2.42861e-17
-2.77556e-17
6.93889e-18
-2.77556e-17
-1.38778e-17
1.73472e-17
1.9082e-17
3.46945e-17
-5.20417e-18
2.77556e-17
-3.1225e-17
2.77556e-17
-3.98986e-17
-1.73472e-17
-3.29597e-17
4.16334e-17
1.73472e-18
-6.93889e-18
2.08167e-17
1.07553e-16
-6.93889e-18
7.99083e-14
-5.20417e-18
3.87374e-11
9.87925e-15
1.23281e-08
3.68755e-12
2.44323e-06
8.03811e-10
9.80995e-05
3.70215e-08
0.000556711
2.58357e-07
0.00108705
5.34855e-07
0.0014357
6.99393e-07
0.00163319
7.68188e-07
0.00173165
6.57539e-07
0.00177329
5.91759e-07
0.00178876
4.94261e-07
0.00179337
4.86415e-07
0.00179335
1.42697e-07
0.00179408
1.09302e-07
0.00179505
-7.77319e-08
0.00179499
-1.97699e-07
0.00179435
-2.84116e-07
0.00179433
-3.56897e-07
0.00179506
-3.91468e-07
0.00179503
-4.28923e-07
0.00179235
-4.29703e-07
0.00178324
-4.37288e-07
0.00176632
-4.33152e-07
0.00174589
-4.07912e-07
0.00172914
-3.45547e-07
0.00171986
-3.2772e-07
0.00171587
-2.76684e-07
0.00171449
-2.47507e-07
0.00171389
-2.17183e-07
0.00171378
-1.85632e-07
0.00171468
-1.37788e-07
0.00171518
-1.06831e-07
0.00171455
-6.69732e-08
0.0017134
-4.94086e-08
0.00170749
-4.68707e-09
0.00168486
2.69367e-08
0.00161977
7.3713e-08
0.00145659
1.24319e-07
0.00110239
1.96104e-07
0.000498275
2.1894e-07
5.73692e-05
1.25795e-07
7.66431e-07
1.41175e-08
3.07944e-09
1.91764e-10
7.84863e-12
7.29309e-13
1.45352e-14
1.49533e-15
1.73472e-17
-1.04083e-17
-1.73472e-18
-1.38778e-17
-2.94903e-17
-1.9082e-17
-3.81639e-17
-1.04083e-17
1.73472e-17
-3.46945e-18
-1.73472e-17
1.73472e-18
2.94903e-17
3.46945e-18
5.72459e-17
3.46945e-18
5.20417e-17
6.93889e-18
1.56125e-17
-2.34188e-17
2.77556e-17
-6.07153e-18
-3.46945e-18
-1.9082e-17
6.93889e-18
-1.30104e-17
5.20417e-18
-2.08167e-17
3.64292e-17
0
-2.42861e-17
-1.73472e-18
3.46945e-17
-1.73472e-17
8.67362e-18
1.82146e-17
3.46945e-17
2.60209e-18
-5.20417e-17
-6.93889e-18
1.04083e-17
-1.38778e-17
1.38778e-17
-3.46945e-18
2.94903e-17
-8.67362e-18
-1.73472e-18
-8.67362e-18
-8.67362e-18
-1.47451e-17
-6.93889e-18
-2.68882e-17
-1.9082e-17
1.38778e-17
-1.73472e-18
3.81639e-17
-1.04083e-17
0
-2.25514e-17
-3.46945e-18
-1.38778e-17
-7.97973e-17
-5.20417e-18
-2.42861e-17
-1.73472e-18
1.73472e-17
2.08167e-17
-6.93889e-18
1.21431e-17
-6.59195e-17
-2.77556e-17
-5.55112e-17
0
-7.28584e-17
-2.77556e-17
-2.77556e-17
-3.46945e-17
1.73472e-17
-1.21431e-17
6.93889e-18
-2.94903e-17
-8.67362e-17
-8.67362e-18
-6.59195e-17
-2.60209e-17
-2.77556e-17
-1.56125e-17
-4.85723e-17
-1.56125e-17
-2.42861e-17
1.73472e-18
-1.38778e-17
1.73472e-18
-6.93889e-18
1.04083e-17
-3.1225e-17
1.9082e-17
-6.245e-17
6.93889e-18
-5.89806e-17
-3.46945e-18
-3.46945e-18
3.1225e-17
3.46945e-18
8.67362e-18
1.59595e-16
-1.73472e-18
8.13273e-14
1.04083e-17
3.94613e-11
1.86309e-15
1.25367e-08
6.68438e-13
2.47816e-06
1.43515e-10
9.88408e-05
6.4977e-09
0.000558222
4.71944e-08
0.00108799
1.14538e-07
0.00143614
1.40909e-07
0.00163331
5.67024e-07
0.00173169
5.00837e-07
0.00177337
4.64033e-07
0.00178894
4.22162e-07
0.00179371
4.52012e-07
0.00179383
2.13929e-07
0.00179463
1.83106e-07
0.00179552
3.21497e-07
0.00179549
3.01648e-07
0.00179478
-2.04961e-07
0.00179465
-1.82093e-07
0.0017953
-2.66655e-07
0.00179525
-3.35363e-07
0.00179252
-3.45152e-07
0.00178335
-4.08377e-07
0.00176635
-3.97984e-07
0.00174588
-3.85267e-07
0.00172911
-3.58637e-07
0.00171983
-3.44715e-07
0.00171586
-3.20048e-07
0.00171443
-2.91701e-07
0.00171377
-2.63429e-07
0.00171363
-2.33656e-07
0.00171446
-1.78303e-07
0.00171496
-1.49522e-07
0.00171424
-1.03226e-07
0.00171307
-7.39653e-08
0.00170713
7.25005e-09
0.00168448
4.44865e-08
0.00161932
1.09631e-07
0.00145596
1.96214e-07
0.00110142
3.18104e-07
0.00049707
3.83184e-07
5.70322e-05
2.39552e-07
7.59397e-07
2.67727e-08
3.05172e-09
2.65524e-10
7.78334e-12
4.9067e-13
1.44156e-14
5.90673e-16
7.11237e-17
1.04083e-17
1.21431e-17
1.73472e-17
1.73472e-17
6.07153e-18
-1.73472e-18
2.60209e-18
-6.93889e-18
1.9082e-17
8.67362e-18
1.30104e-17
5.0307e-17
1.47451e-17
5.37764e-17
2.60209e-18
-1.73472e-18
-2.60209e-18
2.60209e-17
1.9082e-17
-8.67362e-18
1.47451e-17
2.42861e-17
1.73472e-17
1.21431e-17
1.21431e-17
8.67362e-18
5.20417e-18
3.1225e-17
-5.20417e-18
-4.16334e-17
-2.68882e-17
2.94903e-17
-4.33681e-18
-8.67362e-18
6.93889e-18
-1.9082e-17
-1.56125e-17
-3.98986e-17
-2.60209e-17
1.38778e-17
1.73472e-18
2.60209e-17
8.67362e-19
1.73472e-17
5.20417e-18
-1.21431e-17
-1.73472e-18
1.73472e-18
1.12757e-17
6.93889e-18
3.46945e-18
0
2.08167e-17
1.73472e-18
-1.38778e-17
-2.60209e-17
-1.38778e-17
-4.33681e-17
-1.38778e-17
1.73472e-18
-5.55112e-17
-1.73472e-18
6.93889e-18
5.20417e-18
1.04083e-17
6.93889e-18
-8.32667e-17
-8.67362e-18
-2.77556e-17
2.08167e-17
-1.04083e-16
-3.98986e-17
-4.85723e-17
-3.98986e-17
-4.85723e-17
-2.94903e-17
-7.28584e-17
-3.64292e-17
-1.04083e-17
6.93889e-18
-5.89806e-17
1.21431e-17
0
2.42861e-17
-3.46945e-17
2.08167e-17
-1.04083e-17
1.9082e-17
-2.42861e-17
-1.04083e-17
-2.42861e-17
1.21431e-17
-3.81639e-17
1.04083e-17
-1.04083e-17
4.51028e-17
4.16334e-17
4.68375e-17
3.46945e-17
3.29597e-17
2.08167e-17
1.73472e-17
6.59195e-17
3.64292e-17
2.39392e-16
2.77556e-17
8.19136e-14
1.73472e-18
3.96371e-11
-2.35055e-15
1.25884e-08
-8.05767e-13
2.48705e-06
-1.67965e-10
9.90393e-05
-7.23099e-09
0.000558684
-4.26122e-08
0.00108828
-6.50319e-08
0.00143601
-4.07389e-08
0.00163316
-1.31521e-09
0.00173152
1.16077e-07
0.00177327
2.0936e-07
0.00178891
2.88826e-07
0.00179374
3.28925e-07
0.00179379
3.86772e-07
0.00179458
3.84236e-07
0.00179563
3.96548e-07
0.00179545
3.05203e-07
0.00179481
1.30783e-07
0.00179476
-8.78419e-08
0.00179539
-1.90217e-07
0.00179534
-2.81584e-07
0.00179256
-3.07187e-07
0.00178329
-3.32231e-07
0.00176624
-3.4468e-07
0.00174574
-3.47649e-07
0.00172895
-3.43931e-07
0.00171965
-3.43188e-07
0.00171567
-3.12765e-07
0.00171421
-2.77232e-07
0.0017135
-2.23973e-07
0.00171335
-1.69999e-07
0.00171412
-8.67835e-08
0.00171457
-2.89118e-08
0.0017138
-3.81863e-08
0.00171263
2.85156e-08
0.0017067
1.34572e-07
0.00168401
1.84142e-07
0.00161872
2.32054e-07
0.00145507
2.41713e-07
0.00109997
1.75381e-07
0.000495307
9.26638e-08
5.65515e-05
3.56429e-08
7.50701e-07
2.43745e-09
3.02729e-09
1.08067e-11
7.73379e-12
-4.58349e-14
1.42057e-14
-1.43982e-16
1.56125e-17
4.77049e-17
2.77556e-17
4.0766e-17
-1.04083e-17
2.68882e-17
6.93889e-18
1.73472e-17
8.67362e-18
1.9082e-17
3.29597e-17
2.25514e-17
2.25514e-17
5.20417e-18
-6.93889e-18
-1.99493e-17
5.20417e-18
-1.82146e-17
1.04083e-17
2.60209e-18
1.21431e-17
5.20417e-18
-3.46945e-18
1.04083e-17
-4.16334e-17
-7.80626e-18
1.56125e-17
8.67362e-18
5.20417e-18
-8.67362e-18
-6.93889e-18
-5.20417e-18
3.98986e-17
-6.07153e-18
2.77556e-17
-5.20417e-18
-1.73472e-18
-1.47451e-17
6.41848e-17
-7.80626e-18
2.25514e-17
-9.54098e-18
8.67362e-18
-3.46945e-18
1.73472e-18
1.73472e-18
-2.42861e-17
6.93889e-18
-5.55112e-17
-6.93889e-18
-3.29597e-17
-3.46945e-18
-8.67362e-18
-1.04083e-17
-1.21431e-17
-6.93889e-18
-2.77556e-17
2.77556e-17
-3.29597e-17
-2.08167e-17
3.46945e-18
0
3.29597e-17
1.38778e-17
3.29597e-17
-8.67362e-17
-1.56125e-17
-6.245e-17
-2.08167e-17
-5.20417e-17
-2.42861e-17
-7.63278e-17
0
-1.14492e-16
-2.08167e-17
-3.46945e-18
2.60209e-17
-2.42861e-17
1.38778e-17
-1.38778e-17
1.04083e-17
-6.245e-17
3.1225e-17
-9.71445e-17
3.1225e-17
-1.31839e-16
-5.20417e-18
1.73472e-17
-1.9082e-17
3.1225e-17
-3.98986e-17
2.08167e-17
-2.77556e-17
5.55112e-17
-3.98986e-17
2.08167e-17
2.77556e-17
1.73472e-17
5.0307e-17
-3.81639e-17
0
2.42861e-17
1.9082e-17
4.16334e-17
8.67362e-18
2.15106e-16
2.94903e-17
8.14245e-14
-8.67362e-18
3.94556e-11
-9.4369e-15
1.25352e-08
-3.44228e-12
2.47796e-06
-7.6159e-10
9.88292e-05
-3.50689e-08
0.000558178
-2.24439e-07
0.00108788
-3.80581e-07
0.00143591
-3.78256e-07
0.00163299
-2.67125e-07
0.00173123
-1.09013e-07
0.00177288
7.63191e-08
0.00178845
2.43765e-07
0.00179319
3.07796e-07
0.00179329
4.68065e-07
0.00179415
4.34557e-07
0.00179537
4.57203e-07
0.00179532
4.01549e-07
0.00179475
2.83774e-07
0.00179471
1.10768e-07
0.00179538
1.61568e-08
0.00179529
-1.34477e-07
0.00179244
-2.06237e-07
0.00178313
-2.70977e-07
0.00176604
-3.01416e-07
0.00174553
-3.11287e-07
0.00172875
-3.02043e-07
0.00171947
-2.87954e-07
0.00171551
-2.45822e-07
0.00171411
-2.48043e-07
0.00171345
-1.58489e-07
0.00171333
-1.1756e-07
0.00171412
-6.69961e-08
0.00171457
-3.22171e-08
0.00171388
5.8935e-09
0.00171279
2.81187e-08
0.00170699
7.73777e-08
0.00168443
1.10903e-07
0.00161923
1.70358e-07
0.0014556
2.4514e-07
0.00110042
1.94782e-07
0.000495559
1.1272e-07
5.65841e-05
4.78808e-08
7.50751e-07
4.11362e-09
3.02426e-09
7.72522e-11
7.71602e-12
5.06488e-13
1.41467e-14
1.47972e-15
3.46945e-17
3.55618e-17
1.21431e-17
2.51535e-17
-3.98986e-17
1.73472e-17
-1.38778e-17
9.54098e-18
-1.04083e-17
1.9082e-17
1.04083e-17
1.04083e-17
-1.73472e-17
2.60209e-18
-2.25514e-17
-5.20417e-18
2.25514e-17
1.04083e-17
3.98986e-17
9.54098e-18
2.94903e-17
1.04083e-17
2.42861e-17
-5.20417e-18
-1.73472e-17
-2.86229e-17
-3.1225e-17
-1.30104e-17
-1.73472e-17
-4.33681e-18
2.60209e-17
7.80626e-18
-6.93889e-18
0
-8.67362e-18
1.82146e-17
-1.04083e-17
-8.67362e-19
2.77556e-17
-1.30104e-17
6.07153e-17
3.46945e-18
1.21431e-17
-2.60209e-18
1.04083e-17
-1.21431e-17
-2.08167e-17
-2.34188e-17
-1.73472e-17
-9.54098e-18
-2.94903e-17
-2.51535e-17
-1.04083e-17
-4.51028e-17
-1.9082e-17
1.38778e-17
1.73472e-18
4.16334e-17
1.38778e-17
3.46945e-17
1.21431e-17
-3.46945e-18
-2.94903e-17
-2.77556e-17
-1.21431e-17
-3.46945e-17
1.73472e-17
-9.36751e-17
1.21431e-17
-7.97973e-17
8.67362e-18
-6.59195e-17
5.20417e-18
-5.20417e-17
-2.25514e-17
-2.77556e-17
2.25514e-17
-2.77556e-17
-1.73472e-18
6.93889e-18
-8.67362e-18
-3.46945e-17
-8.67362e-18
-7.63278e-17
-2.42861e-17
-2.42861e-17
3.46945e-18
-2.08167e-17
-1.21431e-17
2.77556e-17
-1.21431e-17
-2.77556e-17
1.73472e-18
2.77556e-17
-1.56125e-17
4.85723e-17
-2.42861e-17
1.73472e-17
-1.73472e-18
-4.85723e-17
-1.73472e-18
-4.85723e-17
-8.67362e-18
-1.04083e-17
-6.93889e-18
1.21431e-16
-4.16334e-17
8.03003e-14
-6.93889e-17
3.89037e-11
-1.41935e-14
1.23748e-08
-4.68388e-12
2.45038e-06
-9.48108e-10
9.81931e-05
-4.07963e-08
0.000556642
-2.32449e-07
0.00108654
-3.58505e-07
0.00143475
-2.90466e-07
0.00163193
-2.17088e-07
0.00173022
-1.14299e-07
0.00177189
2.29368e-09
0.00178747
1.20388e-07
0.00179222
1.55551e-07
0.00179246
2.99234e-07
0.00179344
2.71825e-07
0.00179483
3.44365e-07
0.00179486
3.30339e-07
0.00179445
2.72137e-07
0.00179452
1.69107e-07
0.00179527
9.9943e-08
0.00179518
-1.28479e-08
0.00179232
-8.66118e-08
0.00178302
-1.48286e-07
0.00176593
-1.96294e-07
0.00174542
-2.11139e-07
0.00172867
-2.04056e-07
0.00171943
-2.25674e-07
0.00171553
-2.01499e-07
0.00171412
-1.6533e-07
0.00171346
-9.98899e-08
0.00171334
-7.72395e-08
0.00171416
-4.70374e-08
0.0017146
-3.10174e-08
0.00171398
-3.30613e-09
0.00171288
-7.49009e-09
0.00170705
1.046e-08
0.00168446
1.91985e-08
0.00161927
4.46864e-08
0.00145558
1.02793e-07
0.00110022
1.78188e-07
0.000495217
2.39285e-07
5.64844e-05
1.59925e-07
7.47413e-07
1.88865e-08
2.99943e-09
2.1517e-10
7.63235e-12
7.25636e-13
1.39264e-14
1.81799e-15
-2.77556e-17
-1.64799e-17
-3.98986e-17
2.08167e-17
-7.11237e-17
1.38778e-17
-2.42861e-17
2.1684e-17
-2.08167e-17
6.93889e-18
-1.38778e-17
1.56125e-17
-6.59195e-17
1.64799e-17
-1.73472e-18
2.68882e-17
5.20417e-17
6.93889e-18
1.21431e-17
1.56125e-17
-3.1225e-17
1.47451e-17
-6.93889e-18
8.67362e-18
3.46945e-18
2.68882e-17
-2.60209e-17
1.82146e-17
-1.73472e-18
3.29597e-17
5.0307e-17
1.82146e-17
5.20417e-18
2.1684e-17
5.0307e-17
1.73472e-17
5.20417e-18
-6.07153e-18
1.38778e-17
-2.08167e-17
-3.46945e-18
-1.99493e-17
-6.93889e-18
-1.38778e-17
3.46945e-18
-2.51535e-17
1.38778e-17
-1.9082e-17
-1.04083e-17
-2.34188e-17
-6.93889e-18
-1.12757e-17
-1.64799e-17
2.08167e-17
-1.73472e-17
2.42861e-17
-2.08167e-17
0
-8.67362e-18
-1.73472e-17
-6.93889e-18
-5.20417e-17
-1.38778e-17
-6.93889e-17
1.21431e-17
-1.00614e-16
-2.08167e-17
-6.93889e-17
-1.38778e-17
-6.245e-17
-1.73472e-18
-5.89806e-17
3.29597e-17
1.73472e-17
2.94903e-17
-3.46945e-17
6.93889e-18
-2.77556e-17
-5.20417e-18
-2.77556e-17
-8.67362e-18
-1.38778e-17
-1.04083e-17
-3.81639e-17
-1.73472e-17
-5.55112e-17
-1.73472e-18
-3.46945e-18
1.38778e-17
2.42861e-17
5.20417e-18
5.89806e-17
1.73472e-17
4.51028e-17
0
5.20417e-17
8.67362e-18
-1.38778e-17
0
-5.20417e-17
-3.98986e-17
-3.46945e-18
-2.60209e-17
1.38778e-17
-8.67362e-18
1.66533e-16
1.73472e-18
7.89091e-14
1.04083e-17
3.83196e-11
4.99253e-15
1.22055e-08
1.52826e-12
2.4216e-06
2.94687e-10
9.75015e-05
1.16461e-08
0.000554853
4.19268e-08
0.00108489
-2.60298e-08
0.00143347
-7.61783e-08
0.00163096
-1.47496e-07
0.00172947
-1.34946e-07
0.00177128
-9.12653e-08
0.00178693
-2.6032e-08
0.00179169
-2.70347e-09
0.00179194
1.04593e-07
0.0017929
3.57563e-08
0.00179436
1.01788e-07
0.00179445
1.17042e-07
0.00179415
1.16037e-07
0.00179433
9.1407e-08
0.00179515
5.99215e-08
0.00179511
-3.80107e-09
0.00179228
-4.61337e-08
0.001783
-8.678e-08
0.00176592
-1.175e-07
0.0017454
-1.34387e-07
0.00172867
-1.32629e-07
0.00171943
-1.28281e-07
0.00171553
-1.09993e-07
0.00171411
-7.79236e-08
0.00171347
-6.06375e-08
0.00171334
-3.51352e-08
0.00171415
-4.13108e-09
0.0017146
2.02939e-08
0.0017139
4.76725e-08
0.00171275
7.52399e-08
0.00170682
1.13029e-07
0.00168408
1.40638e-07
0.00161861
1.46838e-07
0.00145457
1.09855e-07
0.00109882
-6.42742e-09
0.000493811
-1.34053e-07
5.61441e-05
-1.27423e-07
7.40646e-07
-1.64797e-08
2.96999e-09
-2.19409e-10
7.54668e-12
-8.5161e-13
1.3916e-14
-2.2031e-15
-2.94903e-17
-2.86229e-17
-4.51028e-17
1.04083e-17
-5.37764e-17
8.67362e-18
-6.93889e-18
-5.20417e-18
1.56125e-17
-7.80626e-18
4.16334e-17
7.80626e-18
2.77556e-17
-8.67362e-19
8.67362e-18
0
3.46945e-17
2.25514e-17
-2.25514e-17
-1.73472e-18
-1.73472e-17
8.67362e-19
1.56125e-17
1.12757e-17
1.56125e-17
2.08167e-17
1.56125e-17
1.73472e-18
-5.20417e-18
8.67362e-19
2.60209e-17
1.04083e-17
-1.73472e-18
1.47451e-17
-2.94903e-17
1.9082e-17
-3.46945e-17
3.46945e-17
1.56125e-17
1.30104e-17
1.21431e-17
1.73472e-18
1.9082e-17
1.21431e-17
4.85723e-17
1.73472e-18
-1.73472e-17
-1.64799e-17
3.46945e-17
1.21431e-17
1.73472e-18
-2.60209e-18
4.33681e-18
6.93889e-17
1.249e-16
1.38778e-17
3.81639e-17
2.77556e-17
0
-5.55112e-17
-4.16334e-17
-5.89806e-17
-8.32667e-17
-7.63278e-17
-3.81639e-17
-4.51028e-17
-2.42861e-17
-4.16334e-17
2.77556e-17
-1.73472e-17
-3.46945e-17
5.89806e-17
6.59195e-17
2.77556e-17
-6.93889e-18
-4.85723e-17
-3.46945e-17
-2.42861e-17
3.46945e-18
2.28983e-16
7.94399e-14
3.84593e-11
1.22469e-08
2.42876e-06
9.7692e-05
0.000555411
0.00108548
0.001434
0.0016314
0.00172981
0.00177151
0.00178706
0.00179175
0.00179197
0.00179288
0.00179431
0.00179437
0.00179407
0.00179427
0.00179512
0.00179509
0.00179226
0.00178298
0.00176589
0.00174535
0.00172865
0.00171944
0.00171556
0.00171416
0.00171351
0.00171338
0.00171424
0.00171469
0.00171412
0.001713
0.00170717
0.00168458
0.00161932
0.00145552
0.00110001
0.000494911
5.63957e-05
7.45456e-07
2.98999e-09
7.60194e-12
1.41744e-14
-3.64292e-17
-2.94903e-17
-5.55112e-17
-1.56125e-17
3.46945e-18
1.73472e-17
6.93889e-18
2.60209e-17
-8.67362e-18
-1.73472e-17
2.42861e-17
1.04083e-17
1.73472e-18
-8.67362e-18
2.42861e-17
3.29597e-17
1.9082e-17
-4.33681e-17
-5.20417e-17
-1.9082e-17
1.04083e-17
3.81639e-17
3.64292e-17
2.08167e-17
-1.73472e-17
8.67362e-18
)
;

boundaryField
{
    sides1
    {
        type            calculated;
        value           nonuniform List<scalar> 
20
(
6.41848e-17
3.81639e-17
3.46945e-17
1.56125e-17
2.08167e-17
-2.42861e-17
-3.46945e-17
-1.04083e-17
4.16334e-17
3.46945e-17
-1.04083e-17
1.04083e-17
1.38778e-17
-2.77556e-17
-1.73472e-17
-1.04083e-17
0
2.42861e-17
-3.1225e-17
-7.28584e-17
)
;
    }
    sides2
    {
        type            calculated;
        value           uniform 0;
    }
    empty
    {
        type            empty;
        value           nonuniform 0();
    }
}


// ************************************************************************* //
