/*--------------------------------*- C++ -*----------------------------------*\
| =========                 |                                                 |
| \\      /  F ield         | OpenFOAM: The Open Source CFD Toolbox           |
|  \\    /   O peration     | Version:  2012                                  |
|   \\  /    A nd           | Website:  www.openfoam.com                      |
|    \\/     M anipulation  |                                                 |
\*---------------------------------------------------------------------------*/
FoamFile
{
    version     2.0;
    format      ascii;
    class       volVectorField;
    location    "0.5";
    object      U;
}
// * * * * * * * * * * * * * * * * * * * * * * * * * * * * * * * * * * * * * //

dimensions      [0 1 -1 0 0 0 0];


internalField   nonuniform List<vector> 
20400
(
(0.00672466 -0.000976543 0)
(-0.00328796 -0.000517025 0)
(0.00910612 0.000316504 0)
(0.00163367 -0.000733953 0)
(0.0103174 9.99463e-05 0)
(0.00720015 -0.000372359 0)
(0.0119677 6.79342e-07 0)
(0.011885 -0.000132049 0)
(0.0145223 -1.72375e-05 0)
(0.0152502 -4.39536e-05 0)
(0.0171039 6.002e-07 0)
(0.0181305 -4.98103e-06 0)
(0.0195656 6.50157e-06 0)
(0.0206318 7.23365e-06 0)
(0.0217878 5.08339e-06 0)
(0.0227961 -8.49968e-07 0)
(0.0237661 -5.87311e-06 0)
(0.0246618 -1.09311e-05 0)
(0.0254955 -1.57378e-05 0)
(0.0262687 -2.00177e-05 0)
(0.0269853 -2.37259e-05 0)
(0.0276489 -2.67549e-05 0)
(0.0282631 -2.9208e-05 0)
(0.028831 -3.12539e-05 0)
(0.0293559 -3.30103e-05 0)
(0.0298406 -3.44936e-05 0)
(0.0302881 -3.54631e-05 0)
(0.030701 -3.60354e-05 0)
(0.0310819 -3.59282e-05 0)
(0.0314333 -3.51229e-05 0)
(0.0317577 -3.40771e-05 0)
(0.0320569 -3.28847e-05 0)
(0.0323329 -3.169e-05 0)
(0.0325874 -3.03798e-05 0)
(0.0328222 -2.90539e-05 0)
(0.0330386 -2.7688e-05 0)
(0.0332381 -2.62936e-05 0)
(0.0334222 -2.4903e-05 0)
(0.0335919 -2.36254e-05 0)
(0.0337484 -2.23085e-05 0)
(0.0338927 -2.09996e-05 0)
(0.0340258 -1.97565e-05 0)
(0.0341485 -1.85404e-05 0)
(0.0342617 -1.7292e-05 0)
(0.0343661 -1.60924e-05 0)
(0.0344625 -1.49187e-05 0)
(0.0345513 -1.38e-05 0)
(0.0346333 -1.27449e-05 0)
(0.034709 -1.1734e-05 0)
(0.0347787 -1.08021e-05 0)
(0.0348432 -9.92982e-06 0)
(0.0349024 -9.11714e-06 0)
(0.0349574 -8.33566e-06 0)
(0.0350077 -7.56194e-06 0)
(0.0350545 -6.88754e-06 0)
(0.0350975 -6.22386e-06 0)
(0.0351372 -5.60594e-06 0)
(0.0351739 -5.01635e-06 0)
(0.0352077 -4.48922e-06 0)
(0.0352391 -4.02501e-06 0)
(0.0352677 -3.55721e-06 0)
(0.0352945 -3.15608e-06 0)
(0.0353189 -2.79904e-06 0)
(0.0353418 -2.47563e-06 0)
(0.0353625 -2.1753e-06 0)
(0.035382 -1.91105e-06 0)
(0.0353997 -1.68029e-06 0)
(0.0354162 -1.46931e-06 0)
(0.0354314 -1.30738e-06 0)
(0.0354454 -1.13576e-06 0)
(0.0354584 -1.01578e-06 0)
(0.0354702 -8.54466e-07 0)
(0.0354813 -8.13178e-07 0)
(0.0354915 -7.29565e-07 0)
(0.0355008 -6.44512e-07 0)
(0.0355095 -5.58311e-07 0)
(0.0355174 -5.14742e-07 0)
(0.0355249 -4.67793e-07 0)
(0.0355316 -4.37782e-07 0)
(0.035538 -4.18519e-07 0)
(0.0355436 -3.99043e-07 0)
(0.0355492 -3.80944e-07 0)
(0.0355539 -3.81327e-07 0)
(0.0355586 -3.51244e-07 0)
(0.0355627 -3.58014e-07 0)
(0.0355667 -3.15625e-07 0)
(0.0355702 -3.34515e-07 0)
(0.0355736 -2.84638e-07 0)
(0.0355766 -3.08271e-07 0)
(0.0355795 -2.46792e-07 0)
(0.035582 -2.59423e-07 0)
(0.0355844 -2.35866e-07 0)
(0.0355867 -2.00537e-07 0)
(0.0355887 -2.28054e-07 0)
(0.0355907 -2.19934e-07 0)
(0.0355923 -1.83489e-07 0)
(0.035594 -2.07275e-07 0)
(0.0355955 -1.63957e-07 0)
(0.0355969 -1.74948e-07 0)
(0.0355981 -1.59958e-07 0)
(0.0355994 -1.46881e-07 0)
(0.0356004 -1.38223e-07 0)
(0.0356014 -1.391e-07 0)
(0.0356023 -1.07214e-07 0)
(0.0356032 -1.32838e-07 0)
(0.035604 -8.67384e-08 0)
(0.0356048 -1.19246e-07 0)
(0.0356054 -7.04904e-08 0)
(0.0356061 -9.69203e-08 0)
(0.0356067 -9.59078e-08 0)
(0.0356072 -7.52028e-08 0)
(0.0356077 -9.82738e-08 0)
(0.0356082 -4.58076e-08 0)
(0.0356085 -5.35879e-08 0)
(0.035609 -5.11195e-08 0)
(0.0356094 -3.9005e-08 0)
(0.0356097 -5.01167e-08 0)
(0.03561 -1.49321e-08 0)
(0.0356104 -1.85774e-08 0)
(0.0356105 -3.57341e-08 0)
(0.0356109 5.26829e-09 0)
(0.0356111 2.01186e-08 0)
(0.0356114 -3.02131e-08 0)
(0.0356115 -2.19694e-08 0)
(0.0356118 -1.64237e-08 0)
(0.0356118 -2.08308e-08 0)
(0.0356122 -3.7914e-08 0)
(0.0356123 1.74439e-10 0)
(0.0356125 -6.03619e-08 0)
(0.0356126 1.86137e-08 0)
(0.0356128 -4.91256e-10 0)
(0.0356128 1.35621e-08 0)
(0.0356129 7.10924e-09 0)
(0.035613 -1.06997e-08 0)
(0.0356131 7.19434e-09 0)
(0.0356132 9.17095e-09 0)
(0.0356133 -2.09704e-08 0)
(0.0356134 -4.5572e-09 0)
(0.0356135 -1.38887e-08 0)
(0.0356135 -4.41916e-08 0)
(0.0356135 1.33201e-08 0)
(0.0356137 -5.8574e-08 0)
(0.0356137 -1.98539e-08 0)
(0.0356139 -2.18132e-08 0)
(0.0356138 -6.20811e-08 0)
(0.035614 -3.518e-08 0)
(0.035614 -3.89012e-08 0)
(0.0356141 -3.75752e-08 0)
(0.0356141 1.00326e-08 0)
(0.0356142 -1.12011e-08 0)
(0.0356142 -3.26684e-08 0)
(0.0356142 -1.20157e-08 0)
(0.0356142 1.13753e-08 0)
(0.0356142 -3.21505e-09 0)
(0.0356143 -2.80552e-08 0)
(0.0356143 2.81563e-08 0)
(0.0356144 -5.02975e-08 0)
(0.0356145 -1.06057e-08 0)
(0.0356145 -1.32689e-07 0)
(0.0356145 -1.03084e-07 0)
(0.0356145 -8.72057e-08 0)
(0.0356146 -1.04699e-07 0)
(0.0356145 -5.74293e-08 0)
(0.0356146 -7.98821e-08 0)
(0.0356146 1.68811e-08 0)
(0.0356146 4.63438e-08 0)
(0.0356147 4.31508e-09 0)
(0.0356146 1.73402e-08 0)
(0.0356148 -8.80169e-08 0)
(0.0356147 1.15217e-08 0)
(0.0356147 -1.65794e-08 0)
(0.0356148 -6.18528e-09 0)
(0.0356148 -3.16153e-08 0)
(0.0356148 -3.59104e-09 0)
(0.0356148 -2.12452e-09 0)
(0.0356149 1.53317e-08 0)
(0.0356148 4.4903e-08 0)
(0.0356149 2.61251e-08 0)
(0.0356149 -2.53597e-08 0)
(0.0356149 1.69378e-08 0)
(0.0356149 2.10235e-08 0)
(0.0356149 -5.24872e-09 0)
(0.0356149 -2.10568e-08 0)
(0.0356149 -7.74871e-08 0)
(0.035615 -8.71793e-08 0)
(0.035615 -3.38742e-08 0)
(0.0356149 -4.01597e-08 0)
(0.0356151 -1.90689e-08 0)
(0.035615 -1.97677e-08 0)
(0.0356152 -4.12234e-08 0)
(0.0356151 1.25211e-08 0)
(0.0356152 -1.0824e-08 0)
(0.0356151 -1.10112e-08 0)
(0.0356152 1.53846e-08 0)
(0.0356151 -2.48468e-08 0)
(0.0356153 -2.33066e-08 0)
(0.0356152 -2.71113e-08 0)
(0.0356153 -1.34312e-08 0)
(0.0356152 -3.41122e-08 0)
(0.0356154 3.14547e-08 0)
(0.0356152 7.28894e-10 0)
(0.0356154 -3.39251e-08 0)
(0.0356153 5.55202e-08 0)
(0.0356154 -3.55206e-08 0)
(0.0356153 -6.36948e-08 0)
(0.0356153 -5.46204e-08 0)
(0.0356153 -4.03841e-08 0)
(0.0356153 5.40127e-08 0)
(0.0356154 -1.21345e-08 0)
(0.0356154 2.75377e-08 0)
(0.0356154 -1.43932e-08 0)
(0.0356155 -4.95441e-08 0)
(0.0356154 -4.95206e-08 0)
(0.0356155 -5.24307e-08 0)
(0.0356154 -2.32136e-08 0)
(0.0356155 -3.63051e-08 0)
(0.0356155 1.29633e-08 0)
(0.0356155 8.79028e-09 0)
(0.0356155 4.70964e-08 0)
(0.0356155 4.83296e-08 0)
(0.0356155 1.68717e-08 0)
(0.0356155 2.6027e-08 0)
(0.0356155 5.57487e-08 0)
(0.0356155 2.0731e-08 0)
(0.0356156 3.08681e-08 0)
(0.0356155 -5.24024e-10 0)
(0.0356156 -2.3303e-08 0)
(0.0356156 8.06229e-08 0)
(0.0356156 2.97557e-08 0)
(0.0356156 7.68125e-08 0)
(0.0356157 3.34788e-08 0)
(0.0356157 8.62344e-08 0)
(0.0356157 3.00465e-08 0)
(0.0356156 -8.89546e-09 0)
(0.0356157 5.20449e-09 0)
(0.0356157 -7.23204e-09 0)
(0.0356157 -4.95193e-08 0)
(0.0356158 4.99595e-09 0)
(0.0356157 4.43753e-09 0)
(0.0356159 6.54622e-09 0)
(0.0356158 2.71493e-08 0)
(0.0356159 1.03414e-08 0)
(0.0356158 3.58652e-08 0)
(0.0356159 7.68613e-08 0)
(0.0356159 2.78323e-08 0)
(0.035616 3.85801e-08 0)
(0.0356159 -9.63395e-09 0)
(0.035616 2.73977e-09 0)
(0.0356159 -1.2132e-08 0)
(0.035616 -4.72279e-08 0)
(0.0356159 -2.69209e-08 0)
(0.035616 -3.1708e-09 0)
(0.0356159 -2.41371e-08 0)
(0.035616 -6.03152e-09 0)
(0.0356159 -4.86388e-10 0)
(0.035616 2.57207e-08 0)
(0.0356159 5.16383e-09 0)
(0.035616 -1.45334e-08 0)
(0.035616 2.7981e-08 0)
(0.035616 3.06947e-08 0)
(0.035616 9.62786e-08 0)
(0.0356159 9.05973e-08 0)
(0.0356161 7.0721e-08 0)
(0.035616 6.95684e-08 0)
(0.0356161 -1.91371e-09 0)
(0.0356161 6.81108e-08 0)
(0.0356162 6.15957e-08 0)
(0.0356161 5.92375e-08 0)
(0.0356162 5.70268e-08 0)
(0.0356161 1.43817e-10 0)
(0.0356162 -1.00535e-08 0)
(0.0356161 -4.97399e-08 0)
(0.0356162 -1.92023e-08 0)
(0.0356161 -3.19856e-08 0)
(0.0356162 -7.43129e-08 0)
(0.0356162 -4.70983e-08 0)
(0.0356161 -4.30917e-08 0)
(0.0356162 3.83631e-08 0)
(0.0356162 -1.78382e-09 0)
(0.0356162 6.45658e-08 0)
(0.0356162 8.64509e-08 0)
(0.0356163 8.29275e-08 0)
(0.0356163 3.44319e-08 0)
(0.0356164 5.97722e-08 0)
(0.0356163 -1.01431e-08 0)
(0.0356163 3.23251e-08 0)
(0.0356163 8.41001e-09 0)
(0.0356164 -2.74894e-08 0)
(0.0356163 -3.35375e-08 0)
(0.0356163 -3.02661e-09 0)
(0.0356163 7.82169e-09 0)
(0.0356163 8.17465e-08 0)
(0.0356164 2.31254e-08 0)
(0.0356164 3.02071e-08 0)
(0.0356164 -3.79458e-08 0)
(0.0356164 1.7134e-08 0)
(0.0356165 2.05204e-08 0)
(0.0356164 5.51758e-08 0)
(0.0356165 7.26928e-09 0)
(0.0356164 3.89704e-08 0)
(0.0356166 1.41387e-08 0)
(0.0356164 4.66112e-08 0)
(0.0356166 5.37179e-08 0)
(0.0356165 6.87614e-08 0)
(0.0356165 6.53064e-08 0)
(0.0356165 3.12816e-08 0)
(0.0356166 9.45331e-08 0)
(0.0356165 6.61546e-08 0)
(0.0356165 3.3612e-08 0)
(0.0356166 -1.7607e-08 0)
(0.0356165 -8.73269e-08 0)
(0.0356166 -1.68706e-08 0)
(0.0356165 -1.28226e-07 0)
(0.0356166 -4.95268e-08 0)
(0.0356166 -6.65537e-08 0)
(0.0356166 1.34687e-08 0)
(0.0356167 2.01933e-08 0)
(0.0356167 -8.68831e-08 0)
(0.0356167 -4.71348e-08 0)
(0.0356166 -4.05912e-08 0)
(0.0356168 -7.67444e-08 0)
(0.0356167 -1.0282e-07 0)
(0.0356168 -1.22081e-07 0)
(0.0356167 -2.39936e-08 0)
(0.0356168 -3.01795e-08 0)
(0.0356167 -2.68653e-08 0)
(0.0356168 -8.2545e-08 0)
(0.0356167 -3.93282e-08 0)
(0.0356168 -6.09894e-09 0)
(0.0356167 -2.71099e-09 0)
(0.0356168 3.84878e-08 0)
(0.0356167 3.02642e-08 0)
(0.0356169 1.34086e-08 0)
(0.0356168 1.7787e-08 0)
(0.0356169 -2.49979e-08 0)
(0.0356168 9.45007e-09 0)
(0.0356168 -6.24411e-08 0)
(0.0356167 -1.08789e-07 0)
(0.0356168 -8.4029e-09 0)
(0.0356167 1.2316e-07 0)
(0.0356169 -8.79074e-08 0)
(0.0356168 -7.89607e-08 0)
(0.0356169 -1.77879e-07 0)
(0.0356168 -1.66636e-07 0)
(0.0356168 -1.08663e-07 0)
(0.0356168 -1.53711e-07 0)
(0.0356168 -1.3987e-07 0)
(0.0356168 -2.70447e-08 0)
(0.0356169 -8.742e-08 0)
(0.0356169 -1.72935e-07 0)
(0.0356168 -1.79035e-08 0)
(0.035617 -2.18999e-07 0)
(0.035617 -4.8523e-08 0)
(0.0356168 -1.36381e-07 0)
(0.035617 -5.02298e-08 0)
(0.035617 -3.39944e-08 0)
(0.0356171 -1.33955e-08 0)
(0.035617 -1.95918e-07 0)
(0.0356172 -1.58867e-07 0)
(0.0356169 -1.04273e-07 0)
(0.0356172 -1.80654e-07 0)
(0.0356169 -5.86998e-08 0)
(0.0356173 -1.07732e-07 0)
(0.0356168 9.8184e-08 0)
(0.0356175 3.426e-09 0)
(0.0356169 1.65575e-07 0)
(0.0356174 9.14657e-08 0)
(0.0356169 1.70882e-08 0)
(0.0356174 -9.75788e-10 0)
(0.035617 3.26763e-09 0)
(0.0356171 -1.13888e-07 0)
(0.0356172 -1.30775e-07 0)
(0.035617 -1.12838e-07 0)
(0.0356172 -4.90591e-08 0)
(0.0356168 6.41713e-08 0)
(0.0356175 -8.57392e-08 0)
(0.0356167 2.09508e-07 0)
(0.0356176 1.06377e-07 0)
(0.0356168 1.81678e-07 0)
(0.0356176 9.28277e-08 0)
(0.0356169 1.24582e-07 0)
(0.0356175 1.04846e-07 0)
(0.035617 1.19338e-07 0)
(0.0356175 1.28572e-07 0)
(0.0356171 1.02084e-07 0)
(0.0356173 1.06286e-08 0)
(0.0356172 -1.81433e-08 0)
(0.0356173 5.32178e-08 0)
(0.0356173 -1.96185e-08 0)
(0.0356171 8.68482e-08 0)
(0.0356174 4.02158e-08 0)
(0.0356172 1.25135e-07 0)
(0.0356174 4.34695e-08 0)
(0.0356173 -1.33125e-07 0)
(0.0356174 2.97024e-08 0)
(0.0356171 8.99341e-09 0)
(0.0356175 9.91747e-08 0)
(0.0356172 3.61365e-08 0)
(0.0356176 2.61107e-08 0)
(0.0356172 -4.88045e-08 0)
(0.0356174 6.0965e-08 0)
(0.0356172 -5.54405e-09 0)
(0.0356173 3.88671e-08 0)
(0.0356173 6.34004e-08 0)
(0.0356174 2.57265e-08 0)
(0.0356173 -3.24743e-08 0)
(0.0356173 -2.12992e-08 0)
(0.0356174 -1.70145e-08 0)
(0.0356173 -5.65255e-08 0)
(0.0356172 -1.78042e-08 0)
(0.0356176 -3.68334e-08 0)
(0.0356172 5.77792e-08 0)
(0.0356177 4.98693e-08 0)
(0.0356172 2.59902e-08 0)
(0.0356177 8.6391e-08 0)
(0.0356173 3.16247e-08 0)
(0.0356177 -1.45031e-07 0)
(0.0356173 -5.61563e-08 0)
(0.0356176 -8.43718e-08 0)
(0.0356173 1.65128e-07 0)
(0.0356176 7.88592e-08 0)
(0.0356174 3.29506e-08 0)
(0.0356176 2.36211e-08 0)
(0.0356173 7.02888e-08 0)
(0.0356176 2.18299e-08 0)
(0.0356174 4.11923e-08 0)
(0.0356175 1.08795e-07 0)
(0.0356174 5.01112e-08 0)
(0.0356173 1.32721e-07 0)
(0.0356175 1.4598e-07 0)
(0.0356173 1.64317e-07 0)
(0.0356177 2.24728e-07 0)
(0.0356173 1.79725e-07 0)
(0.0356178 2.52841e-07 0)
(0.0356173 1.21464e-07 0)
(0.0356177 2.50759e-07 0)
(0.0356174 1.73888e-07 0)
(0.0356176 2.95656e-07 0)
(0.0356174 2.27552e-07 0)
(0.0356177 2.1344e-07 0)
(0.0356175 1.00244e-07 0)
(0.0356176 6.76766e-08 0)
(0.0356176 -1.02789e-07 0)
(0.0356175 -8.78943e-08 0)
(0.0356174 -1.60742e-08 0)
(0.0356175 -4.65303e-08 0)
(0.0356174 1.19326e-07 0)
(0.0356175 6.42477e-08 0)
(0.0356175 7.94711e-08 0)
(0.0356175 5.18077e-08 0)
(0.0356176 2.85182e-09 0)
(0.0356174 -9.91497e-08 0)
(0.0356175 -2.53458e-07 0)
(0.0356173 -8.20812e-08 0)
(0.0356175 -1.78391e-07 0)
(0.0356173 2.76788e-09 0)
(0.0356175 4.79306e-08 0)
(0.0356174 1.63291e-07 0)
(0.0356176 8.66192e-08 0)
(0.0356175 8.58791e-08 0)
(0.0356175 6.06586e-08 0)
(0.0356175 3.36061e-08 0)
(0.0356175 -7.22569e-08 0)
(0.0356174 -3.95084e-08 0)
(0.0356175 -5.07327e-08 0)
(0.0356175 -1.2227e-07 0)
(0.0356175 -8.25507e-08 0)
(0.0356176 -1.08884e-07 0)
(0.0356176 -2.44743e-08 0)
(0.0356176 -3.90787e-08 0)
(0.0356175 5.82157e-08 0)
(0.0356177 1.67476e-08 0)
(0.0356175 9.65776e-08 0)
(0.0356176 -4.60863e-08 0)
(0.0356175 1.4002e-08 0)
(0.0356176 -2.01406e-08 0)
(0.0356176 -1.4233e-08 0)
(0.0356177 -3.74281e-08 0)
(0.0356176 -2.96045e-08 0)
(0.0356177 1.3309e-08 0)
(0.0356176 1.98646e-08 0)
(0.0356179 -5.9622e-09 0)
(0.0356174 3.57144e-09 0)
(0.0356182 6.05992e-09 0)
(0.0356168 4.37361e-08 0)
(0.0356193 -4.96331e-08 0)
(0.0356151 1.46424e-07 0)
(0.0356218 -1.10859e-07 0)
(0.0356116 3.18176e-07 0)
(0.035626 -4.15044e-07 0)
(0.0356067 5.78279e-07 0)
(0.0356309 -8.25151e-07 0)
(0.0356025 9.71557e-07 0)
(0.0356327 -1.0781e-06 0)
(0.0356063 9.04453e-07 0)
(0.0356226 -1.38367e-06 0)
(0.0356209 1.27261e-06 0)
(0.0355962 -2.62906e-06 0)
(0.0356658 1.93583e-05 0)
(0.0354989 3.68931e-05 0)
(0.00927692 -0.00177593 0)
(-0.00561755 -0.00300716 0)
(0.0121538 -0.00232537 0)
(0.00267697 -0.00316958 0)
(0.0140986 -0.00245525 0)
(0.0104605 -0.00278239 0)
(0.0164941 -0.00239025 0)
(0.0166514 -0.00242219 0)
(0.0200271 -0.00222101 0)
(0.0211742 -0.00212971 0)
(0.0236018 -0.0019927 0)
(0.0250821 -0.00186979 0)
(0.0269886 -0.00175287 0)
(0.0284894 -0.00162664 0)
(0.0300469 -0.00151519 0)
(0.0314485 -0.00140092 0)
(0.0327773 -0.00129496 0)
(0.0340122 -0.00119649 0)
(0.0351619 -0.0011045 0)
(0.0362301 -0.00101865 0)
(0.0372214 -0.00093871 0)
(0.0381401 -0.000864776 0)
(0.0389905 -0.000796264 0)
(0.0397774 -0.000732845 0)
(0.0405051 -0.000674129 0)
(0.0411778 -0.000619814 0)
(0.0417994 -0.000569986 0)
(0.0423736 -0.000523989 0)
(0.0429038 -0.000482055 0)
(0.0433931 -0.000444021 0)
(0.0438446 -0.000409025 0)
(0.044261 -0.000376814 0)
(0.0446452 -0.000347048 0)
(0.0449996 -0.000319804 0)
(0.0453265 -0.000294683 0)
(0.045628 -0.000271603 0)
(0.0459061 -0.000250471 0)
(0.0461625 -0.000231001 0)
(0.046399 -0.000212957 0)
(0.0466172 -0.000196467 0)
(0.0468184 -0.000181327 0)
(0.0470041 -0.000167316 0)
(0.0471753 -0.000154428 0)
(0.0473333 -0.000142653 0)
(0.047479 -0.000131789 0)
(0.0476135 -0.000121669 0)
(0.0477374 -0.000112349 0)
(0.0478518 -0.00010371 0)
(0.0479574 -9.5797e-05 0)
(0.0480546 -8.84745e-05 0)
(0.0481446 -8.17574e-05 0)
(0.0482273 -7.5558e-05 0)
(0.048304 -6.98493e-05 0)
(0.0483745 -6.46806e-05 0)
(0.0484398 -5.97714e-05 0)
(0.0484998 -5.53124e-05 0)
(0.0485553 -5.11999e-05 0)
(0.0486065 -4.73936e-05 0)
(0.0486537 -4.38898e-05 0)
(0.0486974 -4.05566e-05 0)
(0.0487374 -3.76162e-05 0)
(0.0487747 -3.47458e-05 0)
(0.0488087 -3.2177e-05 0)
(0.0488405 -2.97256e-05 0)
(0.0488695 -2.75177e-05 0)
(0.0488965 -2.54153e-05 0)
(0.0489213 -2.35105e-05 0)
(0.0489442 -2.17189e-05 0)
(0.0489654 -2.00575e-05 0)
(0.0489848 -1.85322e-05 0)
(0.049003 -1.70971e-05 0)
(0.0490195 -1.58913e-05 0)
(0.0490349 -1.45096e-05 0)
(0.0490491 -1.34475e-05 0)
(0.0490621 -1.24086e-05 0)
(0.0490743 -1.14516e-05 0)
(0.0490853 -1.05906e-05 0)
(0.0490957 -9.72931e-06 0)
(0.0491051 -8.99533e-06 0)
(0.049114 -8.24777e-06 0)
(0.0491219 -7.64092e-06 0)
(0.0491295 -6.9819e-06 0)
(0.0491363 -6.47493e-06 0)
(0.0491428 -5.90512e-06 0)
(0.0491485 -5.51799e-06 0)
(0.049154 -4.98879e-06 0)
(0.049159 -4.70928e-06 0)
(0.0491636 -4.20169e-06 0)
(0.0491679 -4.03313e-06 0)
(0.0491718 -3.56709e-06 0)
(0.0491755 -3.41046e-06 0)
(0.0491788 -3.07203e-06 0)
(0.0491819 -2.87359e-06 0)
(0.0491847 -2.62208e-06 0)
(0.0491874 -2.42013e-06 0)
(0.0491898 -2.20797e-06 0)
(0.0491921 -2.07051e-06 0)
(0.0491941 -1.88433e-06 0)
(0.0491961 -1.75465e-06 0)
(0.0491978 -1.61311e-06 0)
(0.0491995 -1.48749e-06 0)
(0.0492009 -1.36998e-06 0)
(0.0492024 -1.27474e-06 0)
(0.0492036 -1.16242e-06 0)
(0.0492049 -1.0821e-06 0)
(0.0492059 -9.93935e-07 0)
(0.049207 -9.46518e-07 0)
(0.0492078 -8.34284e-07 0)
(0.0492088 -7.97713e-07 0)
(0.0492095 -7.57478e-07 0)
(0.0492102 -6.44369e-07 0)
(0.0492109 -6.42796e-07 0)
(0.0492115 -5.89678e-07 0)
(0.0492121 -5.45381e-07 0)
(0.0492127 -5.13389e-07 0)
(0.0492131 -4.51491e-07 0)
(0.0492137 -4.50015e-07 0)
(0.049214 -4.14856e-07 0)
(0.0492144 -3.6074e-07 0)
(0.0492148 -3.53282e-07 0)
(0.0492151 -3.50215e-07 0)
(0.0492154 -2.78e-07 0)
(0.0492157 -2.70808e-07 0)
(0.0492159 -3.36125e-07 0)
(0.0492162 -2.66905e-07 0)
(0.0492164 -2.23585e-07 0)
(0.0492167 -2.74023e-07 0)
(0.0492168 -1.89761e-07 0)
(0.0492171 -2.09697e-07 0)
(0.0492171 -1.73304e-07 0)
(0.0492174 -1.47807e-07 0)
(0.0492174 -1.25978e-07 0)
(0.0492177 -1.3521e-07 0)
(0.0492177 -1.14787e-07 0)
(0.0492179 -1.17008e-07 0)
(0.049218 -1.28787e-07 0)
(0.0492181 -1.13396e-07 0)
(0.0492181 -1.28767e-07 0)
(0.0492182 -8.39594e-08 0)
(0.0492182 -6.72699e-08 0)
(0.0492183 -8.09443e-08 0)
(0.0492184 -9.12294e-08 0)
(0.0492184 -7.48601e-08 0)
(0.0492186 -8.19969e-08 0)
(0.0492186 -9.38869e-08 0)
(0.0492186 -9.88218e-08 0)
(0.0492187 -4.62904e-08 0)
(0.0492188 -8.31727e-08 0)
(0.0492187 -6.39861e-08 0)
(0.0492188 -2.5491e-08 0)
(0.0492188 -4.20741e-08 0)
(0.0492188 -1.08849e-08 0)
(0.0492189 -3.01712e-08 0)
(0.0492189 -2.51429e-08 0)
(0.0492189 -6.66295e-08 0)
(0.0492189 -6.00637e-08 0)
(0.0492189 -7.62423e-08 0)
(0.0492189 -4.19057e-08 0)
(0.0492189 2.90623e-08 0)
(0.049219 4.18128e-08 0)
(0.049219 1.91832e-08 0)
(0.049219 -4.93194e-08 0)
(0.0492191 4.85073e-08 0)
(0.0492191 -6.16572e-08 0)
(0.0492191 -6.19005e-09 0)
(0.0492192 -1.15635e-07 0)
(0.049219 -4.06386e-08 0)
(0.0492193 -2.18966e-08 0)
(0.0492189 -3.51645e-08 0)
(0.0492193 5.45854e-08 0)
(0.049219 -8.48519e-08 0)
(0.0492192 -3.5235e-08 0)
(0.049219 9.24847e-09 0)
(0.0492193 2.79035e-08 0)
(0.0492191 -2.48006e-09 0)
(0.0492192 -4.30338e-08 0)
(0.0492191 6.94814e-09 0)
(0.0492192 -4.8974e-08 0)
(0.049219 -4.76311e-09 0)
(0.0492192 -2.42623e-08 0)
(0.049219 -3.85269e-08 0)
(0.0492191 -3.95492e-08 0)
(0.049219 9.50869e-09 0)
(0.0492191 1.29423e-09 0)
(0.049219 3.32141e-08 0)
(0.049219 7.07766e-08 0)
(0.0492191 -1.39421e-07 0)
(0.049219 3.6452e-08 0)
(0.0492191 -4.51037e-08 0)
(0.049219 -5.34415e-08 0)
(0.0492191 -1.83243e-08 0)
(0.0492191 -5.60778e-08 0)
(0.049219 -1.13201e-08 0)
(0.0492191 -2.56573e-08 0)
(0.049219 -3.71721e-08 0)
(0.0492191 -1.37074e-08 0)
(0.0492191 2.71012e-09 0)
(0.0492191 -5.43322e-09 0)
(0.0492191 -4.45605e-08 0)
(0.049219 -1.4542e-08 0)
(0.0492191 -1.20358e-08 0)
(0.0492191 -6.13621e-08 0)
(0.049219 1.23452e-08 0)
(0.0492191 -2.28005e-08 0)
(0.0492191 6.38671e-08 0)
(0.0492191 1.79209e-08 0)
(0.0492191 -4.64025e-08 0)
(0.049219 -2.79957e-08 0)
(0.0492191 -7.65865e-08 0)
(0.0492189 4.98564e-09 0)
(0.0492192 -2.67325e-08 0)
(0.0492189 -3.00836e-09 0)
(0.0492192 3.08486e-08 0)
(0.049219 -5.75194e-08 0)
(0.0492191 2.40985e-08 0)
(0.049219 -3.86114e-08 0)
(0.0492191 2.52496e-08 0)
(0.049219 -2.00566e-08 0)
(0.049219 3.63775e-09 0)
(0.049219 -3.07098e-08 0)
(0.0492189 8.37271e-09 0)
(0.0492189 -4.65913e-08 0)
(0.0492189 -3.65703e-08 0)
(0.0492189 -5.49976e-08 0)
(0.0492189 5.32228e-09 0)
(0.049219 -1.33298e-08 0)
(0.0492189 -2.81576e-08 0)
(0.049219 -4.20896e-08 0)
(0.0492189 -5.91743e-08 0)
(0.049219 -6.42147e-08 0)
(0.0492189 -4.93393e-08 0)
(0.0492189 -3.87997e-08 0)
(0.049219 2.67584e-08 0)
(0.0492189 -4.31106e-08 0)
(0.0492189 -1.22937e-08 0)
(0.0492189 -4.23345e-09 0)
(0.049219 -3.63712e-08 0)
(0.0492189 2.20144e-08 0)
(0.049219 -7.95833e-08 0)
(0.0492189 -6.42805e-08 0)
(0.0492189 -3.58771e-08 0)
(0.049219 -4.4102e-08 0)
(0.0492189 -3.30245e-09 0)
(0.049219 -1.00611e-07 0)
(0.0492189 -4.42484e-08 0)
(0.049219 -1.3399e-08 0)
(0.0492189 -2.55464e-09 0)
(0.0492189 -7.26753e-09 0)
(0.0492189 -2.99211e-09 0)
(0.049219 2.38158e-08 0)
(0.0492189 -1.12216e-08 0)
(0.049219 -1.86099e-08 0)
(0.0492189 -2.912e-09 0)
(0.049219 -5.46384e-09 0)
(0.0492189 4.3563e-08 0)
(0.0492189 -2.30123e-08 0)
(0.0492189 -5.35143e-09 0)
(0.0492189 3.94776e-09 0)
(0.049219 1.06761e-08 0)
(0.0492189 -6.86548e-08 0)
(0.0492189 -3.42119e-08 0)
(0.0492189 -9.79544e-08 0)
(0.0492189 -8.68495e-08 0)
(0.0492188 -4.88476e-08 0)
(0.049219 -1.92815e-08 0)
(0.0492189 -7.09132e-08 0)
(0.0492189 -4.08085e-08 0)
(0.0492189 -7.78114e-08 0)
(0.0492189 -1.6096e-08 0)
(0.0492188 -1.73114e-09 0)
(0.0492188 -9.81957e-09 0)
(0.0492188 3.00224e-08 0)
(0.0492189 -4.94025e-10 0)
(0.0492189 -7.63208e-09 0)
(0.0492189 -3.23251e-09 0)
(0.0492188 7.04101e-08 0)
(0.0492189 2.82808e-08 0)
(0.049219 -1.14296e-07 0)
(0.0492188 1.10387e-08 0)
(0.0492191 -4.53598e-08 0)
(0.0492188 -6.81009e-08 0)
(0.049219 -8.17202e-08 0)
(0.0492187 -5.89674e-08 0)
(0.049219 -5.01113e-08 0)
(0.0492188 1.9921e-08 0)
(0.049219 1.45102e-08 0)
(0.0492188 -7.2053e-08 0)
(0.0492189 5.3589e-08 0)
(0.0492188 3.82053e-08 0)
(0.0492189 1.56779e-08 0)
(0.0492189 -1.89549e-08 0)
(0.0492188 -1.0494e-07 0)
(0.0492189 -5.01761e-08 0)
(0.0492187 -8.60086e-08 0)
(0.0492189 4.59483e-08 0)
(0.0492188 -4.83529e-08 0)
(0.0492189 -5.39181e-09 0)
(0.0492188 -5.98559e-08 0)
(0.0492189 -6.75841e-08 0)
(0.0492188 -4.17596e-08 0)
(0.0492189 -1.28911e-08 0)
(0.0492188 -3.3014e-08 0)
(0.0492189 -4.08746e-08 0)
(0.0492188 -1.611e-08 0)
(0.0492188 1.5071e-08 0)
(0.0492189 -1.85653e-07 0)
(0.0492188 -4.44792e-08 0)
(0.0492188 8.8042e-08 0)
(0.0492187 -1.12065e-07 0)
(0.0492188 1.65601e-08 0)
(0.0492188 2.45769e-08 0)
(0.0492188 9.08002e-09 0)
(0.0492187 5.04157e-08 0)
(0.0492188 -1.56811e-08 0)
(0.0492188 2.94745e-08 0)
(0.0492189 -5.15125e-08 0)
(0.0492188 -6.67821e-08 0)
(0.0492187 1.30855e-08 0)
(0.0492189 7.68026e-08 0)
(0.0492188 -4.54453e-08 0)
(0.049219 -3.94975e-08 0)
(0.0492187 6.29506e-08 0)
(0.049219 6.71275e-08 0)
(0.0492187 -9.10859e-09 0)
(0.049219 -2.34716e-08 0)
(0.0492187 -2.40318e-08 0)
(0.0492189 1.09852e-07 0)
(0.0492188 -2.45945e-09 0)
(0.0492189 -1.1555e-08 0)
(0.0492188 -3.71648e-09 0)
(0.0492189 -1.48577e-08 0)
(0.0492187 -4.61367e-08 0)
(0.0492188 -4.22278e-08 0)
(0.0492188 -1.53239e-08 0)
(0.0492189 -7.63857e-09 0)
(0.0492186 1.88666e-08 0)
(0.0492188 7.99376e-08 0)
(0.0492187 1.10627e-07 0)
(0.0492188 1.89804e-08 0)
(0.0492188 -1.85639e-07 0)
(0.0492186 2.40625e-08 0)
(0.0492187 -7.98415e-09 0)
(0.0492187 1.21124e-07 0)
(0.0492187 8.6073e-08 0)
(0.0492187 1.08943e-07 0)
(0.0492187 4.00465e-08 0)
(0.0492188 5.06504e-08 0)
(0.0492188 -5.97287e-08 0)
(0.0492187 6.61589e-09 0)
(0.0492186 1.71606e-07 0)
(0.0492188 -8.40622e-08 0)
(0.0492186 -2.95606e-08 0)
(0.049219 1.8712e-07 0)
(0.0492187 6.26732e-09 0)
(0.0492189 -1.15939e-07 0)
(0.0492186 1.95448e-08 0)
(0.0492188 -4.84653e-08 0)
(0.0492186 5.29706e-08 0)
(0.0492189 1.08913e-07 0)
(0.0492188 4.23512e-08 0)
(0.0492189 1.50644e-08 0)
(0.0492188 3.34955e-08 0)
(0.0492189 4.02144e-08 0)
(0.0492188 -6.07937e-08 0)
(0.0492188 -9.67492e-08 0)
(0.0492186 6.13135e-08 0)
(0.0492189 -9.74306e-08 0)
(0.0492186 -1.90485e-08 0)
(0.0492189 -2.07947e-08 0)
(0.0492186 1.66504e-07 0)
(0.0492189 1.64574e-08 0)
(0.0492187 3.46741e-08 0)
(0.0492187 9.15471e-08 0)
(0.0492189 7.80444e-10 0)
(0.0492187 -6.21247e-08 0)
(0.049219 4.22967e-08 0)
(0.0492186 -1.50032e-07 0)
(0.0492191 -1.45577e-07 0)
(0.0492184 -5.25139e-08 0)
(0.0492191 -1.7232e-08 0)
(0.0492185 -4.96232e-08 0)
(0.0492191 -4.97589e-08 0)
(0.0492185 -8.20083e-08 0)
(0.049219 -9.94952e-08 0)
(0.0492185 4.60074e-09 0)
(0.0492187 5.1964e-08 0)
(0.0492187 -2.19745e-08 0)
(0.0492188 -4.04859e-08 0)
(0.049219 5.36616e-08 0)
(0.0492188 -1.79092e-09 0)
(0.0492189 -8.8131e-08 0)
(0.0492186 -5.23728e-08 0)
(0.0492189 -1.23957e-07 0)
(0.0492184 1.30989e-07 0)
(0.0492192 8.87276e-08 0)
(0.0492186 -1.33037e-07 0)
(0.0492189 -7.47376e-08 0)
(0.0492186 -3.40163e-08 0)
(0.0492188 9.73138e-09 0)
(0.0492188 8.17278e-08 0)
(0.0492188 -4.0567e-08 0)
(0.0492188 3.14072e-08 0)
(0.0492189 -3.31854e-08 0)
(0.0492187 -8.1601e-08 0)
(0.0492188 -3.46748e-08 0)
(0.0492187 6.83131e-08 0)
(0.0492189 -7.01494e-08 0)
(0.0492184 1.37243e-07 0)
(0.0492192 6.62251e-08 0)
(0.0492186 -1.6055e-07 0)
(0.0492191 -2.30048e-08 0)
(0.0492185 -7.22871e-08 0)
(0.0492192 -1.71424e-08 0)
(0.0492185 3.63423e-09 0)
(0.0492191 -7.58022e-08 0)
(0.0492185 -5.74609e-08 0)
(0.049219 9.6858e-08 0)
(0.0492186 8.95376e-08 0)
(0.049219 4.61539e-08 0)
(0.0492187 -1.10421e-07 0)
(0.0492189 -1.02805e-07 0)
(0.0492186 -1.9088e-09 0)
(0.049219 3.19543e-08 0)
(0.0492187 -2.58319e-08 0)
(0.0492188 -1.0033e-08 0)
(0.0492187 -6.45329e-08 0)
(0.0492187 9.66496e-09 0)
(0.0492188 9.27913e-08 0)
(0.0492187 -4.72316e-08 0)
(0.049219 -1.72953e-07 0)
(0.0492186 -1.01447e-07 0)
(0.049219 -1.36868e-07 0)
(0.0492185 -9.6648e-08 0)
(0.049219 -1.51075e-07 0)
(0.0492184 -1.64152e-09 0)
(0.0492191 -9.60627e-08 0)
(0.0492185 -3.17777e-08 0)
(0.0492189 -1.47795e-07 0)
(0.0492186 -1.60773e-07 0)
(0.0492187 -1.54629e-07 0)
(0.0492186 -1.92643e-08 0)
(0.0492185 -3.82633e-08 0)
(0.0492187 1.15033e-07 0)
(0.0492187 1.00358e-07 0)
(0.0492189 4.82835e-08 0)
(0.0492187 3.21897e-08 0)
(0.0492189 -6.3995e-08 0)
(0.0492186 -6.67332e-08 0)
(0.0492187 -8.76424e-08 0)
(0.0492186 -4.51668e-08 0)
(0.0492186 1.43815e-08 0)
(0.0492185 1.31813e-07 0)
(0.0492186 1.74709e-07 0)
(0.0492187 3.99852e-08 0)
(0.0492187 2.30244e-08 0)
(0.0492188 4.59553e-08 0)
(0.0492187 -1.52559e-07 0)
(0.0492186 -1.10722e-07 0)
(0.0492186 -9.99057e-08 0)
(0.0492185 -2.13304e-08 0)
(0.0492187 2.93192e-08 0)
(0.0492185 -4.03331e-08 0)
(0.0492187 1.23024e-07 0)
(0.0492186 -6.17868e-08 0)
(0.0492187 -1.11689e-08 0)
(0.0492186 4.15826e-08 0)
(0.0492187 -5.27772e-10 0)
(0.0492186 -2.64182e-08 0)
(0.0492188 3.43503e-09 0)
(0.0492187 -1.33854e-08 0)
(0.0492187 -4.10262e-08 0)
(0.0492187 -7.82716e-09 0)
(0.0492187 -1.86266e-08 0)
(0.0492187 4.84711e-08 0)
(0.0492187 -2.82123e-09 0)
(0.0492187 -1.96824e-10 0)
(0.0492187 -2.90681e-08 0)
(0.0492187 2.53393e-09 0)
(0.0492187 6.84197e-09 0)
(0.0492189 -5.30407e-08 0)
(0.0492187 -5.01477e-08 0)
(0.0492189 -8.70931e-09 0)
(0.0492184 2.73029e-08 0)
(0.0492193 -6.44154e-08 0)
(0.0492177 -4.75343e-09 0)
(0.0492204 -3.61747e-08 0)
(0.0492159 6.61396e-08 0)
(0.049223 -1.20508e-07 0)
(0.0492118 2.27812e-07 0)
(0.0492278 -3.52036e-07 0)
(0.0492058 5.34416e-07 0)
(0.049234 -6.58734e-07 0)
(0.0491999 1.17145e-06 0)
(0.0492383 -1.66947e-06 0)
(0.0492003 2.11021e-06 0)
(0.0492313 -2.42222e-06 0)
(0.0492124 5.16366e-06 0)
(0.049208 -3.46049e-06 0)
(0.0492441 1.64858e-05 0)
(0.0491586 7.09275e-06 0)
(0.00968646 -0.00408338 0)
(-0.00526068 -0.00575892 0)
(0.0127351 -0.00542157 0)
(0.00291618 -0.00567087 0)
(0.0145442 -0.0053123 0)
(0.0108924 -0.00536533 0)
(0.017076 -0.00507061 0)
(0.0172597 -0.00493378 0)
(0.0207384 -0.00470131 0)
(0.0219339 -0.00447685 0)
(0.0244302 -0.00424826 0)
(0.0259607 -0.00400053 0)
(0.0279206 -0.0037695 0)
(0.029466 -0.00352579 0)
(0.031062 -0.00329671 0)
(0.0325029 -0.003075 0)
(0.0338638 -0.00286102 0)
(0.035126 -0.00265491 0)
(0.0362994 -0.00245855 0)
(0.0373881 -0.00227317 0)
(0.0383972 -0.00209863 0)
(0.0393318 -0.0019348 0)
(0.0401968 -0.00178223 0)
(0.0409968 -0.00164042 0)
(0.0417365 -0.00150902 0)
(0.0424199 -0.00138765 0)
(0.0430511 -0.00127555 0)
(0.0436339 -0.00117229 0)
(0.044172 -0.00107714 0)
(0.0446688 -0.000989587 0)
(0.0451272 -0.000909156 0)
(0.0455502 -0.00083536 0)
(0.0459406 -0.000767748 0)
(0.0463007 -0.000705575 0)
(0.0466331 -0.000648598 0)
(0.0469398 -0.000596365 0)
(0.0472227 -0.000548323 0)
(0.0474838 -0.000504232 0)
(0.0477247 -0.000463863 0)
(0.0479469 -0.000426711 0)
(0.048152 -0.00039257 0)
(0.0483412 -0.000361194 0)
(0.0485158 -0.000332287 0)
(0.0486769 -0.000305617 0)
(0.0488255 -0.000281105 0)
(0.0489626 -0.00025874 0)
(0.0490892 -0.000238181 0)
(0.049206 -0.000219305 0)
(0.0493139 -0.00020194 0)
(0.0494133 -0.000186062 0)
(0.0495053 -0.000171327 0)
(0.0495899 -0.000157858 0)
(0.0496683 -0.000145416 0)
(0.0497404 -0.000133983 0)
(0.0498071 -0.0001234 0)
(0.0498686 -0.000113751 0)
(0.0499253 -0.000104842 0)
(0.0499777 -9.66033e-05 0)
(0.050026 -8.90353e-05 0)
(0.0500708 -8.20788e-05 0)
(0.0501118 -7.57049e-05 0)
(0.05015 -6.97558e-05 0)
(0.050185 -6.43949e-05 0)
(0.0502175 -5.93693e-05 0)
(0.0502472 -5.48295e-05 0)
(0.050275 -5.05554e-05 0)
(0.0503003 -4.66803e-05 0)
(0.0503238 -4.3074e-05 0)
(0.0503456 -3.97455e-05 0)
(0.0503655 -3.67668e-05 0)
(0.050384 -3.38433e-05 0)
(0.050401 -3.13518e-05 0)
(0.0504167 -2.89663e-05 0)
(0.0504313 -2.66955e-05 0)
(0.0504446 -2.46445e-05 0)
(0.0504571 -2.27512e-05 0)
(0.0504684 -2.10367e-05 0)
(0.0504791 -1.94536e-05 0)
(0.0504887 -1.7996e-05 0)
(0.0504978 -1.66024e-05 0)
(0.0505059 -1.5357e-05 0)
(0.0505137 -1.41577e-05 0)
(0.0505206 -1.31251e-05 0)
(0.0505273 -1.20683e-05 0)
(0.0505332 -1.12245e-05 0)
(0.0505388 -1.02964e-05 0)
(0.0505439 -9.60473e-06 0)
(0.0505486 -8.76911e-06 0)
(0.0505531 -8.21239e-06 0)
(0.050557 -7.48399e-06 0)
(0.0505608 -7.02403e-06 0)
(0.0505641 -6.38715e-06 0)
(0.0505674 -5.9477e-06 0)
(0.0505702 -5.49764e-06 0)
(0.050573 -5.05882e-06 0)
(0.0505754 -4.72703e-06 0)
(0.0505778 -4.31009e-06 0)
(0.0505799 -4.03188e-06 0)
(0.0505819 -3.68011e-06 0)
(0.0505836 -3.44506e-06 0)
(0.0505854 -3.15077e-06 0)