/*--------------------------------*- C++ -*----------------------------------*\
| =========                 |                                                 |
| \\      /  F ield         | OpenFOAM: The Open Source CFD Toolbox           |
|  \\    /   O peration     | Version:  2012                                  |
|   \\  /    A nd           | Website:  www.openfoam.com                      |
|    \\/     M anipulation  |                                                 |
\*---------------------------------------------------------------------------*/
FoamFile
{
    version     2.0;
    format      ascii;
    class       volScalarField;
    location    "0.5";
    object      minKappa;
}
// * * * * * * * * * * * * * * * * * * * * * * * * * * * * * * * * * * * * * //

dimensions      [0 0 0 0 0 0 0];


internalField   nonuniform List<scalar> 
2268
(
4.15487e-07
1.00382e-06
1.57662e-06
2.13536e-06
2.66132e-06
3.22126e-06
3.80155e-06
4.17664e-06
4.64567e-06
4.97224e-06
5.23676e-06
5.45647e-06
5.60402e-06
5.70958e-06
5.67032e-06
5.54061e-06
5.32788e-06
4.99878e-06
4.56739e-06
3.96028e-06
3.12447e-06
2.19349e-06
1.09237e-06
4.15487e-07
1.00382e-06
1.57662e-06
2.13536e-06
2.66132e-06
3.22126e-06
3.80155e-06
4.17664e-06
4.64567e-06
4.97224e-06
5.23676e-06
5.45647e-06
5.60402e-06
5.70958e-06
5.67032e-06
5.54061e-06
5.32788e-06
4.99878e-06
4.56739e-06
3.96028e-06
3.12447e-06
2.19349e-06
1.09237e-06
6.42808e-07
1.12554e-06
1.64906e-06
2.19466e-06
2.71328e-06
3.27077e-06
3.82299e-06
4.20187e-06
4.67918e-06
4.9973e-06
5.26116e-06
5.50346e-06
5.64654e-06
5.72023e-06
5.70257e-06
5.58888e-06
5.39926e-06
5.0844e-06
4.67449e-06
4.08945e-06
3.29073e-06
2.39611e-06
1.42609e-06
9.07261e-07
1.3128e-06
1.76937e-06
2.29059e-06
2.79783e-06
3.35151e-06
3.86186e-06
4.24801e-06
4.73529e-06
5.03069e-06
5.32116e-06
5.55117e-06
5.69446e-06
5.74303e-06
5.74258e-06
5.64908e-06
5.47846e-06
5.18085e-06
4.7951e-06
4.28385e-06
3.58605e-06
2.93406e-06
2.12956e-06
1.18269e-06
1.54195e-06
1.92593e-06
2.41522e-06
2.90902e-06
3.45722e-06
3.9192e-06
4.31916e-06
4.81104e-06
5.08356e-06
5.40085e-06
5.61643e-06
5.75979e-06
5.80757e-06
5.81736e-06
5.73019e-06
5.58643e-06
5.31529e-06
4.96903e-06
4.52698e-06
3.93325e-06
3.50397e-06
2.79714e-06
1.46752e-06
1.7957e-06
2.11338e-06
2.56777e-06
3.04735e-06
3.58607e-06
4.00111e-06
4.42226e-06
4.90553e-06
5.15408e-06
5.49192e-06
5.70006e-06
5.83454e-06
5.88673e-06
5.89736e-06
5.81957e-06
5.70349e-06
5.47408e-06
5.17922e-06
4.82925e-06
4.33753e-06
4.20048e-06
3.71985e-06
1.76172e-06
2.06018e-06
2.32481e-06
2.74371e-06
3.20915e-06
3.73246e-06
4.10853e-06
4.55489e-06
5.01078e-06
5.24263e-06
5.60874e-06
5.80262e-06
5.94485e-06
5.99521e-06
6.01291e-06
5.92762e-06
5.83967e-06
5.64811e-06
5.42281e-06
5.18209e-06
4.81471e-06
4.97644e-06
4.63142e-06
2.06575e-06
2.33207e-06
2.55892e-06
2.94465e-06
3.3966e-06
3.89551e-06
4.24521e-06
4.71321e-06
5.12301e-06
5.35483e-06
5.75882e-06
5.91272e-06
6.08443e-06
6.11649e-06
6.14327e-06
6.04734e-06
5.99317e-06
5.85007e-06
5.70044e-06
5.57428e-06
5.31726e-06
5.8548e-06
5.9545e-06
2.16415e-05
8.59677e-05
6.2041e-05
0.000114116
3.53542e-05
0.000190208
0.000489457
0.00108639
0.00114998
0.000833766
0.00075855
0.000719906
0.000664011
0.000604015
0.000513925
0.000482022
0.000468775
0.000352761
0.000148481
2.16415e-05
8.59677e-05
6.2041e-05
0.000114116
2.98204e-05
0.00017748
0.000355427
0.000690323
0.000923373
0.000833766
0.00075855
0.000719906
0.000664011
0.000604015
0.000513925
0.000482022
0.000468775
0.000322949
0.000148481
2.53356e-05
9.07434e-05
7.41869e-05
0.00011881
2.98204e-05
0.00017748
0.000355427
0.000526162
0.000719577
0.00100265
0.00110825
0.00115266
0.0012624
0.00130684
0.00107449
0.00086401
0.000648569
0.000322949
0.000167506
3.78007e-05
9.86275e-05
8.86889e-05
0.000134841
7.5016e-05
0.000190278
0.000400207
0.000526162
0.000600097
0.000840746
0.000951239
0.00101875
0.0010529
0.00106828
0.000959956
0.000931874
0.000820391
0.000433488
0.000196321
5.26019e-05
0.000107409
8.67751e-05
0.000142526
0.000160969
0.000228868
0.000475306
0.000549547
0.000549129
0.000609033
0.00055573
0.000570511
0.000576949
0.000620776
0.000528228
0.000595348
0.000654668
0.000681665
0.00022868
6.8274e-05
0.000113621
8.67751e-05
0.000186815
0.000233639
0.000294203
0.000576578
0.00066536
0.000549129
0.000460296
0.0002606
0.000306833
0.000295297
0.000385813
0.000291941
0.00029039
0.000472238
0.000821999
0.000254886
8.08937e-05
8.76066e-05
0.000128971
0.000280211
0.000266419
0.000336913
0.000693965
0.000831298
0.00063444
0.000460296
0.000259411
0.000168288
0.0001603
0.000239911
0.000264014
0.000240109
0.000426601
0.000893777
0.000317479
8.89117e-05
8.76066e-05
0.000259848
0.000340475
0.000303544
0.000336913
0.00077623
0.000996287
0.000821846
0.00051819
0.000259411
0.000168288
0.0001603
0.000239911
0.000264014
0.000240109
0.000426601
0.000896529
0.00057338
3.97762e-06
4.36067e-06
4.66789e-06
5.22748e-06
5.90611e-06
6.63649e-06
7.12451e-06
7.85496e-06
8.3637e-06
8.71594e-06
9.33667e-06
9.47924e-06
9.78472e-06
9.78421e-06
9.86027e-06
9.6678e-06
9.65546e-06
9.43735e-06
9.47144e-06
9.44241e-06
9.70605e-06
1.11839e-05
1.34398e-05
2.34591e-05
2.43837e-05
2.46764e-05
2.58272e-05
2.70676e-05
2.81664e-05
2.79669e-05
2.8666e-05
2.7537e-05
2.67237e-05
2.54284e-05
2.27236e-05
2.03517e-05
1.69298e-05
1.48022e-05
1.37806e-05
1.39797e-05
1.36226e-05
1.39406e-05
1.39406e-05
1.46459e-05
1.58921e-05
1.69572e-05
0.000134205
0.000133721
0.0001375
0.000143116
0.000147328
0.000149071
0.000149058
0.000166311
0.000170752
0.000172126
0.000161845
0.000144046
0.000120892
7.3348e-05
4.26028e-05
2.92206e-05
1.96252e-05
1.47829e-05
1.46985e-05
1.46384e-05
1.59231e-05
1.7102e-05
1.68863e-05
0.000179349
0.000172111
0.000176597
0.000171738
0.000163569
0.000163569
0.000163182
0.000161979
0.000151878
0.000132424
0.000108281
8.41737e-05
8.7301e-05
5.13791e-05
5.13791e-05
9.65599e-05
8.8824e-05
3.45168e-05
2.95885e-05
1.97212e-05
1.65868e-05
1.68219e-05
1.51168e-05
0.000185965
0.000181085
0.000180494
0.000176087
0.000169854
0.000161497
0.0001514
0.000135384
0.000117288
9.22318e-05
6.80564e-05
6.80564e-05
9.98538e-05
0.000106095
0.000139932
0.000211965
0.000179157
0.000185855
0.000167922
8.85075e-05
3.64005e-05
3.53814e-05
2.69065e-05
0.000190309
0.000187486
0.000184744
0.0001802
0.000174118
0.000168357
0.000161422
0.000155282
0.000138458
0.000128613
0.000104845
0.000104427
0.000129727
0.000193992
0.000220324
0.000177016
0.000177016
0.000189892
0.000227579
0.000232841
0.000218213
0.000195193
0.000142692
0.000192479
0.000189576
0.000186087
0.000181189
0.00017481
0.000166241
0.000157577
0.000147015
0.000137113
0.000128157
0.000123301
0.000118943
0.000118943
0.000123835
0.000160715
0.000185926
0.000200442
0.000232971
0.000289296
0.000302336
0.000295565
0.000280988
0.000212477
0.000197691
0.000196273
0.000192629
0.000190632
0.000184469
0.000180446
0.000171241
0.000167768
0.000156187
0.000153953
0.000144493
0.000151691
0.000141067
0.000164127
0.000173393
0.000168269
0.000168269
0.000177629
0.000211635
0.000253015
0.000303711
0.000367134
0.000321426
0.000203063
0.000201276
0.000199071
0.000195665
0.000191642
0.000186145
0.000180556
0.000174626
0.000168681
0.000163912
0.000162075
0.000161302
0.000161302
0.000162918
0.000172395
0.000176547
0.000180149
0.000191682
0.000201529
0.000206788
0.000220413
0.000261297
0.000279068
0.00021022
0.000209258
0.000207167
0.000205969
0.000201069
0.000199507
0.000192482
0.000191068
0.000183702
0.000182546
0.000176617
0.000181398
0.000176474
0.000184787
0.000188566
0.000191216
0.000193376
0.000198388
0.000207583
0.000216602
0.000225049
0.000227444
0.000192843
0.000218723
0.000218181
0.000216267
0.000215182
0.000211181
0.00020943
0.000204999
0.000203248
0.000199313
0.000198476
0.000194902
0.000198641
0.0001971
0.00020343
0.000204428
0.000206239
0.000207883
0.000209986
0.00021554
0.000212126
0.000211545
0.000206564
0.00014218
0.000228328
0.000227966
0.000226234
0.00022576
0.000221963
0.000221661
0.000217184
0.000216536
0.000212921
0.000212947
0.00021005
0.000214267
0.000213021
0.00021975
0.000220328
0.00022521
0.000225035
0.000227444
0.000228157
0.000227464
0.00022493
0.000224076
0.000159908
0.000239178
0.000238917
0.000237482
0.000237392
0.000234377
0.000234516
0.000231245
0.000230878
0.000228569
0.000229001
0.0002271
0.000230441
0.00022912
0.000233899
0.000233199
0.00023713
0.000235407
0.000236382
0.000232964
0.000226608
0.000217281
0.000203201
0.000131941
0.000250974
0.000250865
0.000249644
0.000249834
0.000247283
0.000247575
0.000245059
0.000244639
0.000243104
0.000243388
0.000242012
0.000244265
0.000243201
0.000246751
0.000245594
0.000249206
0.000246346
0.000248735
0.000244201
0.000244103
0.00023405
0.000229819
0.000164757
0.000263983
0.000264031
0.000263104
0.000263509
0.000261476
0.000261859
0.000260129
0.000259804
0.000259006
0.000259288
0.000258512
0.000260376
0.000259516
0.000262266
0.000260938
0.00026362
0.000260649
0.000262825
0.000257573
0.000253221
0.000244262
0.000231448
0.000155953
0.000277694
0.000277869
0.000276995
0.000277552
0.000275864
0.000276258
0.000275104
0.000274806
0.000274616
0.000274798
0.000274659
0.00027602
0.000275725
0.000277878
0.000277024
0.000279456
0.000276805
0.000279128
0.000273409
0.000274309
0.000263131
0.000261523
0.000192808
0.000292814
0.000293079
0.00029226
0.00029292
0.00029164
0.000292091
0.00029153
0.00029136
0.000291702
0.000291887
0.000292252
0.000293527
0.000293751
0.000295576
0.000295424
0.000297344
0.000295867
0.000297978
0.000293527
0.000295586
0.000286032
0.000286456
0.000204727
0.0003084
0.000308732
0.000308
0.000308707
0.000307782
0.000308246
0.000308178
0.000308077
0.000308921
0.000309102
0.000310074
0.000311277
0.000312135
0.000313869
0.000314548
0.000316416
0.000316235
0.000318205
0.000315683
0.000318201
0.000311344
0.000315649
0.00024303
0.000325462
0.000325874
0.00032514
0.000325859
0.000325234
0.00032574
0.000326089
0.000326109
0.000327455
0.000327866
0.000329449
0.000330864
0.000332323
0.000334252
0.000335861
0.000337833
0.000339211
0.000341312
0.000341457
0.000344541
0.000341931
0.000348537
0.000265506
0.000343039
0.000343505
0.000342749
0.000343426
0.000343071
0.000343623
0.00034436
0.000344532
0.000346408
0.000347048
0.000349323
0.000351033
0.000353221
0.000355638
0.000358179
0.000360658
0.000363469
0.000366048
0.000368738
0.000372317
0.00037401
0.000381818
0.000303356
0.000361552
0.000362054
0.000361355
0.000361983
0.000361927
0.000362532
0.000363597
0.000363995
0.000366408
0.000367374
0.000370372
0.000372559
0.000375538
0.000378713
0.000382284
0.000385595
0.000389904
0.000393403
0.000398523
0.000403029
0.000408958
0.000418038
0.000329969
0.000380414
0.000380879
0.000380253
0.000380799
0.000380964
0.0003816
0.000382946
0.00038356
0.000386482
0.000387757
0.000391603
0.000394304
0.000398269
0.000402417
0.000407096
0.000411623
0.000417389
0.000422328
0.00042966
0.000435636
0.000445302
0.000455381
0.000367451
0.000399376
0.000399682
0.000399299
0.000399772
0.000400153
0.000400889
0.000402531
0.000403404
0.000406749
0.000408318
0.000412947
0.000416128
0.000421145
0.000426301
0.000432233
0.000438258
0.000445746
0.000452804
0.000462545
0.000470965
0.000484041
0.000495899
0.000398153
0.00041793
0.000417947
0.000417943
0.000418261
0.000418834
0.00041965
0.000421513
0.000422596
0.000426194
0.000427947
0.00043324
0.000436779
0.000442909
0.000449093
0.000456508
0.000464333
0.00047384
0.000483375
0.000495555
0.000506704
0.000522885
0.000536904
0.000435405
0.000435534
0.000435286
0.00043569
0.000435872
0.000436697
0.000437653
0.000439727
0.000441065
0.000444816
0.000446738
0.000452521
0.000456384
0.000463586
0.000470614
0.000479371
0.000488724
0.000500016
0.000511853
0.000526242
0.000540474
0.000559733
0.000576819
0.000465548
0.000451868
0.000451496
0.000452159
0.000452271
0.000453332
0.000454389
0.000456635
0.000458235
0.000462226
0.000464462
0.000470585
0.000474604
0.000482604
0.00049002
0.000499803
0.000510284
0.000523174
0.000537073
0.000553612
0.000571086
0.0005933
0.000613858
0.000498661
0.000466732
0.000466369
0.000467127
0.000467293
0.000468584
0.000469809
0.000472299
0.000474279
0.000478607
0.000481391
0.00048795
0.000492329
0.000500993
0.000508577
0.000519229
0.000530496
0.000544727
0.000560095
0.000577398
0.000597142
0.000620004
0.000644823
0.000523259
0.000479927
0.000479644
0.00048043
0.000480767
0.000482297
0.00048376
0.000486563
0.000488975
0.000493677
0.000497063
0.0005041
0.000509032
0.000518237
0.000525802
0.000536388
0.000547355
0.000560011
0.000574771
0.000591999
0.000612818
0.000637083
0.000664425
0.000544572
0.000491602
0.000491394
0.000492202
0.000492741
0.00049453
0.0004963
0.000499547
0.000502544
0.000507846
0.000512085
0.000519771
0.000525541
0.000535427
0.000543344
0.000555003
0.000566216
0.000580745
0.000595803
0.000613085
0.000633215
0.00065632
0.000683458
0.000560727
0.000501699
0.000501548
0.000502389
0.000503126
0.000505213
0.000507334
0.000511121
0.000514757
0.000520753
0.000525898
0.000534032
0.000541068
0.000550691
0.000560155
0.000570661
0.000582039
0.000594143
0.000607853
0.000623547
0.000641484
0.000662144
0.000687937
0.000565963
0.000510434
0.000510318
0.000511212
0.000512125
0.000514555
0.000517029
0.000521424
0.000525712
0.000532495
0.000538619
0.000547916
0.000555825
0.000567306
0.000576732
0.000589833
0.000601111
0.000615579
0.000629814
0.000647113
0.000664336
0.000683269
0.000706652
0.000575271
0.000517854
0.000517751
0.000518718
0.000519775
0.000522571
0.00052537
0.000529666
0.000534786
0.000541227
0.000548798
0.00055767
0.000567562
0.000578484
0.000590052
0.000602326
0.00061501
0.000627985
0.000641483
0.000654576
0.000668325
0.000683389
0.000701405
0.000565948
0.000524188
0.000524096
0.000525165
0.000526345
0.000529323
0.00053259
0.000537332
0.000543217
0.000550572
0.000559201
0.000569245
0.000580443
0.00059273
0.000605754
0.000619456
0.000632624
0.000647637
0.000660529
0.000674659
0.000688191
0.000702413
0.000716735
0.000575665
0.00052943
0.000529354
0.000530394
0.000531612
0.00053401
0.000537424
0.000542233
0.000548277
0.000555842
0.000564672
0.000574933
0.000586292
0.00059866
0.000611607
0.000624982
0.000638303
0.000651404
0.000663674
0.000674354
0.000683268
0.000690288
0.000697592
0.000551923
0.000533776
0.000533731
0.000534617
0.000536029
0.000538714
0.000542485
0.000547749
0.00055431
0.000562493
0.000572006
0.000583074
0.000595259
0.000608528
0.000622324
0.000636512
0.000650506
0.000664011
0.000676016
0.000685631
0.000684162
0.000684523
0.000678722
0.000564222
0.000536506
0.000536506
0.00053715
0.000538486
0.000541096
0.000544765
0.000549923
0.000556333
0.000564352
0.000573635
0.00058443
0.000596178
0.000608876
0.000621759
0.000634772
0.000647042
0.000658247
0.000666944
0.000672245
0.000666903
0.000658025
0.00064451
0.000530648
0.000538991
0.000538991
0.000539736
0.000541211
0.000544005
0.000547876
0.00055329
0.000559991
0.000568364
0.000578032
0.000589262
0.000601444
0.00061457
0.000627813
0.000641104
0.000652796
0.000663774
0.000662814
0.000663054
0.00064523
0.00062588
0.000598008
0.000530669
0.000539473
0.000539473
0.000540099
0.000541392
0.000543943
0.000547511
0.000552582
0.000558858
0.000566723
0.000575748
0.000586174
0.000597297
0.000609108
0.000620578
0.000631638
0.000640967
0.000648085
0.000646443
0.00063255
0.000607119
0.000575984
0.000549365
0.000475884
0.00054075
0.00054075
0.000541381
0.000542734
0.000545389
0.000549058
0.000554246
0.000560657
0.000568675
0.000577866
0.000588456
0.000599768
0.000611736
0.000622051
0.000633734
0.000636048
0.000641492
0.000630562
0.000616523
0.000574658
0.000521865
0.000468922
0.000511985
0.000539355
0.000539355
0.000539795
0.000540828
0.000543071
0.000546268
0.000550885
0.000556579
0.000563693
0.000571777
0.000580988
0.000590587
0.00060044
0.000609329
0.000617183
0.000621958
0.000616439
0.000598588
0.000562462
0.0005022
0.000432872
0.000381523
0.000387474
0.000539964
0.000539964
0.000540384
0.000541403
0.000543648
0.000546853
0.000551489
0.000557223
0.000564388
0.000572558
0.000581869
0.000590389
0.000601157
0.000605852
0.000614684
0.000612604
0.000613482
0.000594998
0.000558136
0.000486767
0.000403122
0.000340304
0.000405559
0.000537191
0.000537191
0.000537408
0.000538078
0.000539806
0.000542328
0.000546089
0.000550761
0.000556627
0.000563247
0.000570691
0.000578258
0.000585775
0.000591953
0.000597029
0.000595845
0.000584842
0.000560467
0.000511495
0.000427782
0.000347427
0.000340304
0.000464798
9.38314e-06
7.56621e-06
5.79443e-06
5.79443e-06
1.12113e-05
1.12113e-05
1.15664e-05
1.19071e-05
1.12816e-05
1.12816e-05
1.15932e-05
1.1838e-05
1.02348e-05
1.02348e-05
1.07441e-05
1.12096e-05
1.20192e-05
1.1482e-05
1.1482e-05
1.16748e-05
6.45872e-05
5.35524e-05
5.32934e-05
5.20091e-05
0.000124929
0.000122831
0.000122831
0.000140191
0.000204705
0.000197041
0.00018965
0.00018965
0.000193139
0.000193139
0.000203003
0.000214395
0.000129683
0.000129683
0.000136874
0.000147129
8.70394e-05
8.34352e-05
8.01371e-05
8.01371e-05
0.000100046
9.77583e-05
9.5712e-05
9.5712e-05
7.81884e-05
7.06671e-05
6.24765e-05
6.24765e-05
0.00010246
9.87181e-05
9.42167e-05
9.42167e-05
9.52407e-05
8.9569e-05
8.34291e-05
8.34291e-05
0.000121622
0.000119334
0.000116923
0.000116923
0.000129805
0.000128156
0.000126798
0.000126798
0.000156565
0.000156565
0.000157426
0.000158618
0.000171683
0.000171683
0.000173329
0.000175334
0.000197583
0.000197583
0.000201013
0.000204742
0.000215214
0.000215214
0.000219221
0.000223489
0.000240373
0.000240373
0.00024556
0.000250981
0.000260406
0.000260406
0.000265851
0.000271486
0.000285139
0.000285139
0.000291437
0.000297945
0.000305145
0.000305145
0.000312211
0.000319349
0.000327542
0.000327542
0.000335749
0.000343923
0.000344278
0.000344278
0.000353434
0.000362656
0.000359287
0.000359287
0.00036989
0.000380801
0.000370339
0.000370339
0.00038193
0.000394298
0.000374854
0.000374854
0.000388358
0.000403596
0.000381035
0.000381035
0.000395895
0.000414061
0.000376298
0.000376298
0.000394385
0.000418245
0.000384587
0.000384587
0.000407706
0.000439337
0.000373374
0.000373374
0.000405257
0.0004463
0.000388961
0.000388961
0.000428537
0.00046824
0.000371709
0.000371709
0.000409386
0.000435895
0.000373341
0.000373341
0.000407382
0.000428686
0.000336761
0.000336761
0.00036607
0.000385603
0.000373368
0.000373368
0.000415858
0.000462242
0.000289794
0.000289794
0.000345696
0.000425334
0.000343957
0.000343957
0.000422709
0.000516078
0.000450529
0.000450529
0.000531236
0.000621146
1.98654e-05
0.0002032
7.23992e-05
6.04175e-05
0.000344872
0.000452834
0.000686901
0.00167549
0.00151927
0.00111021
0.000773081
0.000408136
0.000381728
0.000341329
0.000462701
0.000417853
0.000680561
0.00114795
0.000703891
2.53371e-05
3.49949e-05
2.7781e-05
2.82915e-05
6.098e-05
0.000411745
0.000388243
0.0011485
0.00187182
0.00163802
0.00146632
0.00107198
0.000968526
0.000695344
0.000698069
0.000578071
0.000731694
0.000720698
0.00049622
1.98621e-05
2.65857e-05
2.7526e-05
2.6484e-05
4.44758e-05
0.000245118
0.000381582
0.000752492
0.00150222
0.00137927
0.00136436
0.00110932
0.00101445
0.00074376
0.000709307
0.000458158
0.000594926
0.000597794
0.000434759
1.94337e-05
2.61417e-05
2.58488e-05
2.37857e-05
2.55357e-05
0.000109444
0.000326726
0.000387636
0.000951091
0.00110707
0.00117502
0.000999805
0.000919703
0.000650941
0.000530571
0.000319984
0.000469021
0.000539118
0.00034392
1.95684e-05
2.61417e-05
2.58488e-05
2.35995e-05
2.00636e-05
3.12454e-05
0.000212417
0.000290411
0.000777421
0.000999416
0.00108221
0.000940722
0.000799654
0.000610885
0.000486641
0.000264186
0.000452331
0.000438095
0.000214713
4.72144e-05
3.95871e-05
3.16127e-05
2.41189e-05
2.00636e-05
1.93699e-05
3.81136e-05
0.000242407
0.000375041
0.000677814
0.000909405
0.00091759
0.000830459
0.000610885
0.000405273
0.000264186
0.000396393
0.000275754
9.23791e-05
0.000249384
0.000189668
0.000119235
5.48646e-05
2.48091e-05
1.93699e-05
2.77155e-05
5.85524e-05
0.000235378
0.00031179
0.000576231
0.000760434
0.000804611
0.000651904
0.000566636
0.000315719
0.000608912
0.000135273
4.86375e-05
0.000285787
0.000292908
0.000305834
0.000272053
8.39177e-05
4.2297e-05
3.12321e-05
3.50744e-05
6.91635e-05
0.000171311
0.000395422
0.000627154
0.000780057
0.000740698
0.000715944
0.000653545
0.00035303
5.92782e-05
3.00497e-05
0.00035402
0.000377841
0.000305834
0.000470304
0.000353975
0.000247839
6.83334e-05
4.83289e-05
0.000110776
0.000117385
0.000170729
0.000164773
0.000184673
0.000174526
0.000136294
0.000104652
6.16178e-05
3.09545e-05
1.64439e-05
0.000268471
0.000352369
0.000450986
0.000417877
0.000353975
0.000461433
0.00035205
0.000235007
0.000147345
0.000135475
0.000109676
0.000104148
9.70859e-05
6.7974e-05
5.43658e-05
4.8201e-05
3.83495e-05
2.13928e-05
1.32707e-05
0.000128593
0.000199782
0.000236448
0.000237042
0.000319669
0.000329677
0.000329677
0.000337483
0.000483354
0.000363899
0.000190606
0.000130903
0.000129755
0.000119676
9.3533e-05
7.55055e-05
4.93622e-05
2.47643e-05
1.32707e-05
0.000142606
0.00011696
0.000173089
0.000184652
0.000210666
0.000382516
0.000288609
0.000288609
0.000387102
0.000617825
0.000515641
0.000385863
0.00034102
0.000451815
0.000503702
0.000386003
0.000166001
3.89325e-05
2.27096e-05
7.6351e-05
7.6351e-05
9.11361e-05
0.00018357
0.000316409
0.000610571
0.000830507
0.000963833
0.00143244
0.00148527
0.00117912
0.000714068
0.000245172
0.000191375
0.000262304
0.000258569
6.84528e-05
2.65414e-05
3.32713e-05
0.000131146
9.37894e-05
0.000114164
0.000156073
0.000268897
0.000576828
0.00114215
0.0014525
0.00137399
0.0011665
0.000851925
0.000219088
0.000133924
0.00010383
6.09148e-05
4.32269e-05
1.5877e-05
1.95498e-05
3.6705e-05
0.000127622
0.000122355
0.000117056
0.000169406
0.000316773
0.000565239
0.000917604
0.00124331
0.000902617
0.00101033
0.000988537
0.000518703
0.000158337
5.64533e-05
3.24333e-05
1.77819e-05
1.10598e-05
1.50488e-05
3.48772e-05
0.000191765
0.000172831
0.000189425
0.000263775
0.000430652
0.00068345
0.00101684
0.0010436
0.000863569
0.000626634
0.00115678
0.000848367
0.000546252
0.000177836
6.736e-05
3.21604e-05
1.10598e-05
1.35462e-05
2.82541e-05
0.000210728
0.000254969
0.000285736
0.000357193
0.000480061
0.000645671
0.000909894
0.0012133
0.000707821
0.000626545
0.000745005
0.000984129
0.00109738
0.000746926
0.000415426
0.000121007
3.19218e-05
1.81908e-05
3.74992e-05
0.000269113
0.000321844
0.000364727
0.00043585
0.000547369
0.000719854
0.000942733
0.00117325
0.00117936
0.000626545
0.000558216
0.000558216
0.000831921
0.00104971
0.000672828
0.000488936
0.000151702
3.56119e-05
3.56119e-05
0.000298453
0.000390609
0.000440218
0.000511815
0.00061166
0.000756032
0.000918603
0.00109643
0.00128232
0.001135
0.000757207
0.000692056
0.00057022
0.000696255
0.00076533
0.000618525
0.000262991
9.85624e-05
5.9937e-05
0.000350806
0.000451687
0.000504616
0.000571053
0.000663633
0.000779145
0.000927691
0.00106986
0.00121712
0.00128118
0.00115026
0.000907048
0.00057022
0.000514995
0.000390941
0.000710291
0.000488583
0.000213205
0.000236622
0.000383094
0.000513364
0.000570242
0.000633027
0.000721837
0.000821015
0.000946301
0.00106986
0.00118546
0.00126414
0.00123364
0.0010715
0.000788959
0.000353692
0.000318167
0.000375954
0.000523522
0.000340301
0.000294196
0.000431244
0.000570165
0.000630355
0.00068977
0.00077367
0.000860979
0.000971366
0.00107393
0.00118187
0.00123505
0.00126396
0.00115779
0.000953511
0.000668224
0.000318167
0.000224121
0.000422312
0.000337737
0.000269358
0.000465827
0.00062696
0.000691054
0.00075126
0.000834219
0.000912554
0.00100795
0.00109435
0.00118187
0.00121386
0.00125654
0.0011847
0.0010572
0.000849141
0.000489612
0.000224121
0.000392988
0.000360217
0.000217108
0.000511348
0.000680924
0.000747246
0.000809384
0.000893344
0.000963186
0.00105137
0.00111618
0.00119487
0.00119827
0.00123684
0.00120562
0.0011199
0.000985631
0.000781782
0.000430717
0.00033358
0.000429131
0.000199968
0.000548059
0.00073886
0.000808671
0.000874342
0.000958481
0.00102093
0.00110276
0.00113874
0.00121064
0.00119827
0.00121363
0.00119926
0.00115246
0.00105992
0.000917246
0.000619702
0.000324904
0.000319072
0.000191568
0.000591192
0.000798177
0.000874937
0.000945611
0.00103139
0.00109175
0.00116289
0.00117637
0.00122645
0.00120099
0.00120336
0.00119392
0.00116468
0.00109828
0.000945276
0.000583155
0.000314391
0.000272959
0.000168661
0.000624818
0.000859746
0.00094595
0.00102469
0.00111826
0.00117978
0.00123899
0.00123511
0.00125285
0.0012165
0.00120336
0.00119392
0.00119556
0.0011406
0.000997701
0.00063595
0.000225095
0.000198615
0.000168661
0.000658803
0.000920514
0.00101995
0.00111438
0.00122274
0.00128139
0.00133201
0.00131297
0.00130674
0.00125637
0.00123826
0.0012243
0.00127204
0.00123292
0.00103378
0.000528951
0.000100932
0.000209496
0.000170939
0.000685316
0.000983999
0.00110646
0.00122447
0.00133451
0.0013833
0.00142413
0.00139581
0.00137963
0.0013308
0.00132788
0.00132618
0.00140174
0.00142943
0.00117375
0.0005529
0.000100932
0.000180776
0.000205621
0.000708357
0.00105531
0.00121213
0.00133731
0.00142958
0.00146685
0.00150132
0.00148175
0.00148323
0.00145403
0.00150017
0.00151501
0.00162804
0.00171965
0.00143232
0.000730062
0.000314026
0.000359689
0.000159068
0.000734588
0.00113767
0.00131524
0.001379
0.00141167
0.00141784
0.00149139
0.00154995
0.00161239
0.00162485
0.00172265
0.00178203
0.00199862
0.00224981
0.00136628
0.000542183
0.00062651
0.000406165
0.000159068
0.000755455
0.00121527
0.00128958
0.00125314
0.00122732
0.00123334
0.00140444
0.00157717
0.00175865
0.00184865
0.00200126
0.00211761
0.00245473
0.00192123
0.000762957
0.000542183
0.000660488
0.0005525
0.000179715
0.000803468
0.00118703
0.00114185
0.00105494
0.000960498
0.000927233
0.00124678
0.00159218
0.00190359
0.00210137
0.00229654
0.00242785
0.002791
0.0019453
0.000819561
0.000632098
0.000557193
0.000446314
0.000361608
0.000815551
0.00108294
0.00101711
0.000887049
0.000636206
0.000479256
0.00100521
0.00156094
0.00203263
0.00229849
0.00251311
0.00262838
0.00294407
0.00174002
0.000668566
0.000722806
0.00073921
0.000428454
0.000199692
0.000828131
0.00102362
0.00100178
0.000705595
0.000386859
0.000386859
0.000762636
0.00165958
0.0021784
0.00242857
0.00262178
0.00268557
0.00286369
0.00178292
0.000647458
0.000839207
0.000761325
0.000281265
8.78647e-05
0.000752131
0.00102362
0.00101656
0.000950844
0.000694522
0.000684489
0.00136248
0.00199232
0.00228595
0.00243746
0.00251863
0.00255239
0.00263019
0.00163776
0.000647458
0.000974535
0.000762716
0.000185099
4.59239e-05
0.000743377
0.00109485
0.00122959
0.00134112
0.00133308
0.0014883
0.00185776
0.00218181
0.00232896
0.00237286
0.00239251
0.00234325
0.00228528
0.00167667
0.000786203
0.00118436
0.000691388
0.0001722
4.59239e-05
0.0006879
0.00124255
0.00154725
0.00182394
0.00201602
0.00211956
0.0022408
0.0023391
0.00237768
0.0022798
0.0022118
0.00210808
0.00193149
0.00123268
0.000752253
0.000949601
0.000532815
0.000221335
9.30587e-05
0.000877155
0.00149396
0.00188164
0.00222107
0.00247572
0.00259012
0.002571
0.00250333
0.00226422
0.00206788
0.00193769
0.00179404
0.00146895
0.000720897
0.000648169
0.000604902
0.000532815
0.000409847
0.000218076
0.000865498
0.00169037
0.00208189
0.0023849
0.00253145
0.00258644
0.00246875
0.00217349
0.00189781
0.00169127
0.00155575
0.00142
0.000882263
0.000351635
0.000442863
0.0004256
0.000560894
0.000233124
0.000340777
0.00101969
0.00182823
0.00206473
0.00214289
0.00214943
0.00206703
0.00185494
0.00154379
0.00131924
0.00119171
0.00111956
0.00102179
0.000604718
0.000160528
0.000353789
0.000392218
0.000390106
0.000233124
0.000431115
0.00116982
0.00188454
0.00206473
0.00203301
0.0018986
0.00168073
0.00140751
0.00116812
0.00104331
0.00100097
0.000942993
0.00072612
0.000297788
0.000160528
0.00022506
0.000446902
0.0004785
0.000449775
0.000785639
)
;

boundaryField
{
    leftWall
    {
        type            calculated;
        value           uniform 0;
    }
    rightWall
    {
        type            calculated;
        value           uniform 0;
    }
    lowerWall
    {
        type            calculated;
        value           uniform 0;
    }
    atmosphere
    {
        type            calculated;
        value           uniform 0;
    }
    defaultFaces
    {
        type            empty;
    }
}


// ************************************************************************* //
