/*--------------------------------*- C++ -*----------------------------------*\
| =========                 |                                                 |
| \\      /  F ield         | OpenFOAM: The Open Source CFD Toolbox           |
|  \\    /   O peration     | Version:  2012                                  |
|   \\  /    A nd           | Website:  www.openfoam.com                      |
|    \\/     M anipulation  |                                                 |
\*---------------------------------------------------------------------------*/
FoamFile
{
    version     2.0;
    format      ascii;
    class       volScalarField;
    location    "0.5";
    object      pcorr;
}
// * * * * * * * * * * * * * * * * * * * * * * * * * * * * * * * * * * * * * //

dimensions      [1 -1 -2 0 0 0 0];


internalField   nonuniform List<scalar> 
2268
(
101268
101268
101266
101264
101260
101255
101248
101239
101227
101210
101189
101160
101124
101077
101018
100944
100853
100744
100618
100483
100349
100236
100169
101269
101268
101266
101264
101260
101256
101249
101240
101228
101211
101190
101162
101126
101080
101021
100948
100857
100748
100621
100482
100344
100225
100154
101269
101268
101267
101264
101261
101256
101250
101241
101229
101214
101193
101166
101131
101086
101028
100955
100865
100755
100626
100482
100334
100205
100124
101269
101269
101267
101265
101262
101258
101252
101243
101232
101217
101197
101171
101138
101094
101038
100967
100877
100767
100634
100482
100321
100173
100075
101270
101269
101268
101266
101263
101259
101254
101246
101236
101222
101203
101179
101147
101105
101051
100982
100895
100784
100647
100484
100305
100130
100005
101271
101270
101269
101267
101265
101261
101256
101249
101240
101227
101210
101188
101158
101119
101068
101002
100917
100807
100665
100491
100288
100075
99906.1
101271
101271
101270
101269
101267
101263
101259
101253
101245
101234
101218
101198
101171
101135
101088
101026
100945
100837
100690
100503
100274
100011
99769.7
101272
101272
101271
101270
101268
101266
101262
101257
101250
101241
101228
101210
101186
101154
101111
101055
100979
100875
100724
100525
100267
99941.4
99579.2
94700.8
94700
94698.6
94697
94695.4
94694.2
94693.2
94691.5
94688.2
94689.4
94688.6
94687.1
94684.4
94664.7
94601.3
94547.5
94478.4
94321.1
94027.4
94701
94700.1
94698.6
94696.9
94695.4
94694.2
94693.2
94691.8
94690.2
94690.1
94689.3
94687.8
94685.1
94678
94658.3
94629.2
94563
94378.8
94088.6
94701.3
94700.3
94698.7
94696.9
94695.3
94694.1
94693.2
94692.2
94691.2
94690.7
94689.8
94688.3
94685.8
94682.5
94678.2
94674.5
94653.8
94498.6
94193.4
94701.8
94700.6
94698.9
94696.8
94695.1
94694
94693.3
94692.6
94691.9
94691.3
94690.3
94688.8
94686.7
94683.9
94680.4
94676.8
94669
94612.6
94339.1
94702.4
94701.1
94699
94696.7
94694.8
94693.8
94693.4
94693
94692.5
94691.9
94691
94689.5
94687.5
94684.8
94681.6
94678.2
94673.1
94654.6
94480.4
94703.4
94701.7
94699.3
94696.4
94694.3
94693.4
94693.4
94693.4
94693.1
94692.6
94691.7
94690.3
94688.3
94685.8
94682.9
94679.6
94675.8
94666.9
94575.2
94704.6
94702.4
94699.6
94696
94693.5
94693
94693.5
94693.9
94693.8
94693.4
94692.5
94691.1
94689.3
94686.9
94684.1
94681.2
94678
94673.1
94622.9
94706.2
94703.2
94700.3
94694.7
94691.5
94692
94693.6
94694.4
94694.6
94694.3
94693.4
94692.1
94690.3
94688
94685.4
94682.7
94680
94677.4
94658.9
101274
101274
101273
101273
101272
101270
101268
101265
101260
101254
101244
101231
101213
101187
101152
101105
101043
100952
100795
100579
100280
99845.4
99154.5
101276
101276
101275
101275
101275
101275
101274
101274
101272
101270
101267
101262
101254
101241
101220
101190
101158
101122
100952
100734
100436
99972.8
99277.6
101276
101276
101276
101275
101275
101275
101275
101274
101274
101273
101272
101271
101270
101270
101267
101261
101272
101428
101158
100970
100759
100334
99753
101276
101276
101276
101276
101275
101275
101275
101274
101274
101273
101272
101271
101271
101270
101269
101268
101267
101270
101249
101221
101297
100852
100411
101276
101276
101276
101276
101275
101275
101275
101274
101274
101273
101272
101271
101271
101270
101269
101268
101267
101266
101263
101260
101257
101216
101094
101276
101276
101276
101276
101276
101275
101275
101274
101274
101273
101272
101272
101271
101270
101269
101267
101266
101265
101263
101260
101258
101253
101248
101277
101277
101276
101276
101276
101276
101275
101275
101274
101273
101273
101272
101271
101270
101269
101267
101266
101264
101262
101260
101257
101254
101250
101277
101277
101277
101277
101276
101276
101276
101275
101274
101274
101273
101272
101271
101270
101269
101268
101266
101264
101262
101260
101257
101254
101251
101278
101277
101277
101277
101277
101276
101276
101275
101275
101274
101273
101273
101272
101270
101269
101268
101266
101264
101262
101260
101258
101255
101252
101278
101278
101278
101278
101277
101277
101277
101276
101275
101275
101274
101273
101272
101271
101270
101268
101267
101265
101263
101261
101259
101256
101253
101279
101279
101278
101278
101278
101278
101277
101277
101276
101275
101275
101274
101273
101272
101270
101269
101267
101266
101264
101262
101260
101257
101254
101279
101279
101279
101279
101279
101278
101278
101277
101277
101276
101275
101274
101273
101272
101271
101270
101268
101267
101265
101263
101261
101258
101256
101280
101280
101280
101280
101279
101279
101279
101278
101277
101277
101276
101275
101274
101273
101272
101271
101269
101268
101266
101264
101262
101260
101258
101281
101281
101281
101281
101280
101280
101279
101279
101278
101278
101277
101276
101275
101274
101273
101272
101270
101269
101267
101265
101264
101262
101259
101282
101282
101282
101281
101281
101281
101280
101280
101279
101279
101278
101277
101276
101275
101274
101273
101272
101270
101269
101267
101265
101263
101261
101283
101283
101283
101282
101282
101282
101281
101281
101280
101280
101279
101278
101277
101276
101275
101274
101273
101272
101270
101269
101267
101265
101263
101284
101284
101284
101283
101283
101283
101282
101282
101281
101281
101280
101279
101279
101278
101277
101276
101274
101273
101272
101270
101269
101267
101265
101285
101285
101285
101285
101284
101284
101284
101283
101283
101282
101281
101281
101280
101279
101278
101277
101276
101275
101273
101272
101271
101269
101268
101286
101286
101286
101286
101286
101285
101285
101284
101284
101283
101283
101282
101281
101280
101280
101279
101278
101276
101275
101274
101273
101271
101270
101287
101287
101287
101287
101287
101286
101286
101286
101285
101285
101284
101283
101283
101282
101281
101280
101279
101278
101277
101276
101275
101274
101272
101289
101289
101288
101288
101288
101288
101287
101287
101287
101286
101286
101285
101284
101284
101283
101282
101281
101280
101279
101278
101277
101276
101275
101290
101290
101290
101290
101289
101289
101289
101288
101288
101288
101287
101286
101286
101285
101284
101284
101283
101282
101281
101280
101279
101278
101277
101291
101291
101291
101291
101291
101291
101290
101290
101290
101289
101289
101288
101287
101287
101286
101285
101285
101284
101283
101282
101281
101280
101279
101293
101293
101293
101293
101292
101292
101292
101291
101291
101291
101290
101290
101289
101289
101288
101287
101287
101286
101285
101284
101283
101282
101282
101294
101294
101294
101294
101294
101294
101293
101293
101293
101292
101292
101291
101291
101290
101290
101289
101288
101288
101287
101286
101286
101285
101284
101296
101296
101296
101296
101295
101295
101295
101295
101294
101294
101294
101293
101293
101292
101292
101291
101290
101290
101289
101288
101288
101287
101286
101297
101297
101297
101297
101297
101297
101297
101296
101296
101296
101295
101295
101294
101294
101294
101293
101292
101292
101291
101291
101290
101289
101289
101299
101299
101299
101299
101299
101298
101298
101298
101298
101297
101297
101297
101296
101296
101295
101295
101294
101294
101293
101293
101292
101292
101291
101301
101301
101301
101300
101300
101300
101300
101300
101299
101299
101299
101299
101298
101298
101297
101297
101296
101296
101296
101295
101294
101294
101293
101302
101302
101302
101302
101302
101302
101302
101301
101301
101301
101301
101300
101300
101300
101299
101299
101299
101298
101298
101297
101297
101296
101296
101304
101304
101304
101304
101304
101304
101303
101303
101303
101303
101303
101302
101302
101302
101301
101301
101301
101300
101300
101299
101299
101299
101298
101306
101306
101306
101306
101306
101305
101305
101305
101305
101305
101304
101304
101304
101304
101303
101303
101303
101302
101302
101302
101301
101301
101301
101308
101307
101307
101307
101307
101307
101307
101307
101307
101307
101306
101306
101306
101306
101305
101305
101305
101304
101304
101304
101304
101303
101303
101309
101309
101309
101309
101309
101309
101309
101309
101309
101308
101308
101308
101308
101308
101307
101307
101307
101307
101306
101306
101306
101305
101305
101311
101311
101311
101311
101311
101311
101311
101311
101310
101310
101310
101310
101310
101310
101309
101309
101309
101309
101309
101308
101308
101308
101308
101313
101313
101313
101313
101313
101313
101313
101313
101312
101312
101312
101312
101312
101312
101311
101311
101311
101311
101311
101311
101310
101310
101310
101315
101315
101315
101315
101315
101315
101314
101314
101314
101314
101314
101314
101314
101314
101314
101313
101313
101313
101313
101313
101313
101312
101312
101317
101317
101317
101317
101316
101316
101316
101316
101316
101316
101316
101316
101316
101316
101316
101315
101315
101315
101315
101315
101315
101315
101315
101318
101318
101318
101318
101318
101318
101318
101318
101318
101318
101318
101318
101318
101318
101318
101318
101318
101317
101317
101317
101317
101317
101317
101320
101320
101320
101320
101320
101320
101320
101320
101320
101320
101320
101320
101320
101320
101320
101320
101320
101320
101319
101319
101319
101319
101319
101322
101322
101322
101322
101322
101322
101322
101322
101322
101322
101322
101322
101322
101322
101322
101322
101322
101322
101322
101322
101322
101322
101322
101324
101324
101324
101324
101324
101324
101324
101324
101324
101324
101324
101324
101324
101324
101324
101324
101324
101324
101324
101324
101324
101324
101324
98132.6
97393.9
96534.4
95502.8
98508.1
97946.1
97317.7
96627
99192.6
98798.8
98378.8
97946.5
100029
99767.9
99492.5
99208.5
100931
100797
100640
100461
101245
101243
101237
101225
101248
101247
101245
101243
101249
101247
101245
101244
101250
101248
101247
101245
101251
101249
101248
101246
101252
101251
101250
101248
101254
101253
101251
101250
101256
101255
101253
101252
101258
101257
101255
101254
101260
101259
101258
101257
101262
101261
101260
101259
101264
101263
101262
101262
101266
101266
101265
101264
101269
101268
101267
101267
101271
101271
101270
101269
101274
101273
101273
101272
101276
101276
101275
101275
101279
101278
101278
101277
101281
101281
101280
101280
101283
101283
101283
101282
101286
101286
101285
101285
101288
101288
101288
101287
101291
101290
101290
101290
101293
101293
101293
101292
101295
101295
101295
101295
101298
101298
101297
101297
101300
101300
101300
101300
101303
101302
101302
101302
101305
101305
101305
101305
101307
101307
101307
101307
101310
101310
101310
101309
101312
101312
101312
101312
101314
101314
101314
101314
101317
101317
101317
101317
101319
101319
101319
101319
101321
101321
101321
101321
101324
101324
101324
101324
94711.2
94704.4
94712.4
94694.9
94673.5
94689.3
94693.9
94695.4
94695.9
94695.8
94695
94693.7
94692
94689.9
94687.5
94685.1
94682.9
94681.5
94678.1
95438.4
95118.3
96053.5
95260
94711.3
94689.5
94695.2
94697.4
94698.3
94698.3
94697.6
94696.4
94694.7
94692.6
94690.4
94688.2
94686.1
94684.6
94683
97243.2
96763.4
96622.6
95898.3
94955
94693.9
94697.7
94700.4
94701.4
94701.4
94700.7
94699.3
94697.6
94695.5
94693.3
94691.1
94688.9
94687.1
94685.7
98735.2
98200.8
97669.6
96779.4
95479.7
94709.7
94701.7
94704.4
94705.4
94705.2
94704.2
94702.7
94700.8
94698.6
94696.2
94693.8
94691.4
94688.8
94687.4
100120
99634.8
99010.5
98024.1
96579
94927
94709.7
94709.2
94710.2
94709.6
94708.2
94706.4
94704.2
94701.7
94699.2
94696.7
94694
94689
94683.2
101199
101059
100605
99641.5
98235.3
96271.8
94762.8
94716.3
94716.3
94714.5
94712.6
94710.3
94707.7
94705
94702.3
94699.5
94696.7
94691.3
94685.2
101238
101231
101225
101129
100318
98516.3
96277.7
94735.5
94724.6
94719.6
94717.4
94714.6
94711.5
94708.3
94705.3
94702.5
94699.5
94696.9
94813.7
101240
101236
101231
101226
101213
100778
99181.5
96807.3
94742
94725.6
94723
94719
94715.2
94711.5
94708.1
94705.5
94702.4
94811.6
95122.9
101242
101238
101233
101229
101223
101217
101148
100128
98149.4
96217.6
94740.7
94727.9
94722.7
94717.2
94712.3
94709.8
94996.3
95492.6
95734
101244
101240
101235
101231
101226
101221
101212
101188
100974
99994.1
98476.7
97156.3
96489.4
96350.4
96409.1
96444.8
96452.1
96509.8
96551.8
101246
101242
101238
101233
101229
101224
101218
101209
101187
101099
100764
100210
99641.2
99241.9
98970.7
98535.7
97921.1
97540.5
97410.6
101248
101244
101240
101236
101232
101227
101221
101214
101201
101161
100962
100479
99948.1
99517.7
99234.9
99009.8
98701
98346.1
98167.8
101250
101247
101243
101240
101236
101231
101226
101220
101213
101201
101148
100612
100035
99574.2
99298.8
99136.5
99002.9
98868.4
98773.4
101252
101249
101246
101243
101239
101236
101232
101228
101224
101221
101217
101078
100486
99935.4
99525
99344.1
99373.5
99355.7
99304.6
101255
101252
101249
101246
101243
101240
101238
101235
101233
101232
101237
101248
101212
100865
100441
100103
99967.3
99879.6
99812.1
101257
101255
101253
101250
101248
101245
101243
101241
101240
101241
101247
101250
101251
101252
101219
100843
100548
100392
100288
101260
101258
101256
101254
101252
101250
101248
101247
101247
101248
101251
101253
101254
101255
101254
101229
100972
100789
100695
101263
101261
101259
101257
101256
101254
101253
101252
101252
101253
101254
101256
101257
101258
101258
101257
101199
101056
101016
101266
101264
101262
101261
101259
101258
101257
101257
101257
101257
101258
101259
101260
101261
101261
101262
101256
101193
101234
101268
101267
101265
101264
101263
101262
101261
101261
101261
101261
101262
101262
101263
101264
101265
101266
101266
101241
101266
101271
101270
101269
101267
101266
101265
101265
101264
101264
101265
101265
101266
101266
101267
101268
101269
101269
101261
101266
101274
101273
101272
101271
101270
101269
101268
101268
101268
101268
101268
101269
101269
101270
101271
101272
101272
101274
101271
101276
101275
101274
101274
101273
101272
101272
101271
101271
101271
101271
101272
101272
101273
101273
101274
101276
101277
101276
101279
101278
101277
101277
101276
101275
101275
101275
101274
101274
101274
101275
101275
101275
101276
101277
101278
101278
101278
101282
101281
101280
101279
101279
101278
101278
101278
101277
101277
101277
101277
101278
101278
101278
101279
101279
101279
101279
101284
101284
101283
101282
101282
101281
101281
101281
101280
101280
101280
101280
101280
101280
101280
101281
101281
101281
101280
101287
101286
101286
101285
101285
101284
101284
101284
101283
101283
101283
101283
101283
101283
101283
101283
101282
101282
101282
101289
101289
101288
101288
101287
101287
101287
101286
101286
101286
101286
101286
101286
101285
101285
101285
101284
101284
101284
101292
101291
101291
101291
101290
101290
101289
101289
101289
101289
101289
101289
101288
101288
101287
101287
101286
101285
101285
101294
101294
101294
101293
101293
101292
101292
101292
101292
101292
101292
101291
101291
101291
101290
101289
101288
101286
101288
101297
101297
101296
101296
101295
101295
101295
101295
101295
101294
101294
101294
101294
101294
101293
101292
101291
101299
101303
101299
101299
101299
101298
101298
101298
101297
101297
101297
101297
101297
101297
101297
101297
101297
101299
101300
101319
101320
101302
101302
101301
101301
101301
101300
101300
101300
101300
101300
101300
101300
101300
101300
101301
101302
101304
101310
101330
101304
101304
101304
101304
101303
101303
101303
101303
101303
101303
101303
101303
101303
101303
101304
101305
101305
101305
101347
101307
101307
101306
101306
101306
101306
101306
101306
101306
101306
101306
101306
101306
101306
101306
101307
101307
101306
101314
101309
101309
101309
101309
101309
101309
101309
101308
101308
101308
101308
101308
101308
101309
101309
101309
101309
101308
101298
101312
101312
101311
101311
101311
101311
101311
101311
101311
101311
101311
101311
101311
101311
101311
101312
101311
101310
101288
101314
101314
101314
101314
101314
101314
101314
101314
101314
101314
101314
101314
101314
101314
101314
101314
101314
101316
101291
101317
101316
101316
101316
101316
101316
101316
101316
101316
101316
101316
101316
101316
101316
101317
101317
101317
101318
101317
101319
101319
101319
101319
101319
101319
101319
101319
101319
101319
101319
101319
101319
101319
101319
101319
101319
101320
101319
101321
101321
101321
101321
101321
101321
101321
101321
101321
101321
101321
101321
101321
101321
101321
101322
101322
101322
101323
101324
101324
101324
101324
101324
101324
101324
101324
101324
101324
101324
101324
101324
101324
101324
101324
101324
101324
101326
)
;

boundaryField
{
    leftWall
    {
        type            zeroGradient;
    }
    rightWall
    {
        type            zeroGradient;
    }
    lowerWall
    {
        type            zeroGradient;
    }
    atmosphere
    {
        type            fixedValue;
        value           uniform 101325;
    }
    defaultFaces
    {
        type            empty;
    }
}


// ************************************************************************* //
