/*--------------------------------*- C++ -*----------------------------------*\
| =========                 |                                                 |
| \\      /  F ield         | OpenFOAM: The Open Source CFD Toolbox           |
|  \\    /   O peration     | Version:  2012                                  |
|   \\  /    A nd           | Website:  www.openfoam.com                      |
|    \\/     M anipulation  |                                                 |
\*---------------------------------------------------------------------------*/
FoamFile
{
    version     2.0;
    format      ascii;
    class       surfaceScalarField;
    location    "0.5";
    object      phi;
}
// * * * * * * * * * * * * * * * * * * * * * * * * * * * * * * * * * * * * * //

dimensions      [0 3 -1 0 0 0 0];
oriented        oriented;


internalField   nonuniform List<scalar> 
4432
(
2.37147e-06
-2.37147e-06
4.82072e-06
-2.44925e-06
7.06672e-06
-2.246e-06
9.18236e-06
-2.11564e-06
1.12903e-05
-2.10791e-06
1.35191e-05
-2.22884e-06
1.53877e-05
-1.86858e-06
1.70176e-05
-1.62992e-06
1.85538e-05
-1.53615e-06
1.97277e-05
-1.17392e-06
2.06522e-05
-9.24489e-07
2.13459e-05
-6.93772e-07
2.18892e-05
-5.43238e-07
2.20347e-05
-1.45531e-07
2.17022e-05
3.32455e-07
2.10322e-05
6.70019e-07
1.99816e-05
1.05058e-06
1.85434e-05
1.43827e-06
1.6585e-05
1.9583e-06
1.38353e-05
2.74973e-06
1.04121e-05
3.42318e-06
6.09396e-06
4.31813e-06
6.09383e-06
2.35962e-06
-4.73108e-06
4.8162e-06
-4.90583e-06
7.08882e-06
-4.51863e-06
9.22429e-06
-4.25111e-06
1.13354e-05
-4.21906e-06
1.35453e-05
-4.43872e-06
1.54054e-05
-3.72866e-06
1.70579e-05
-3.28246e-06
1.86187e-05
-3.09694e-06
1.97485e-05
-2.30371e-06
2.07158e-05
-1.89179e-06
2.14582e-05
-1.43616e-06
2.19153e-05
-1.00039e-06
2.20462e-05
-2.76397e-07
2.17471e-05
6.31553e-07
2.11113e-05
1.30584e-06
2.00812e-05
2.08067e-06
1.85723e-05
2.94714e-06
1.64559e-05
4.07464e-06
1.34574e-05
5.74828e-06
9.60862e-06
7.27193e-06
4.6326e-06
9.29413e-06
1.07263e-05
2.34913e-06
-7.08021e-06
4.82254e-06
-7.37925e-06
7.12888e-06
-6.82496e-06
9.29534e-06
-6.41757e-06
1.14149e-05
-6.33864e-06
1.35887e-05
-6.61252e-06
1.54364e-05
-5.57637e-06
1.71469e-05
-4.99296e-06
1.87147e-05
-4.6647e-06
1.98821e-05
-3.47115e-06
2.09049e-05
-2.91459e-06
2.16792e-05
-2.21043e-06
2.20894e-05
-1.41056e-06
2.21982e-05
-3.85229e-07
2.20076e-05
8.22102e-07
2.14779e-05
1.83553e-06
2.05521e-05
3.0065e-06
1.92082e-05
4.29102e-06
1.73228e-05
5.95999e-06
1.46062e-05
8.46493e-06
1.10344e-05
1.08437e-05
5.87175e-06
1.44568e-05
1.65979e-05
2.34704e-06
-9.42725e-06
4.85108e-06
-9.88329e-06
7.18844e-06
-9.16232e-06
9.39293e-06
-8.62206e-06
1.15331e-05
-8.47884e-06
1.36691e-05
-8.74845e-06
1.55059e-05
-7.41316e-06
1.72801e-05
-6.76717e-06
1.88496e-05
-6.23421e-06
2.00421e-05
-4.66364e-06
2.1089e-05
-3.96154e-06
2.1807e-05
-2.92841e-06
2.21816e-05
-1.78523e-06
2.22846e-05
-4.88221e-07
2.21194e-05
9.87345e-07
2.16083e-05
2.34665e-06
2.06665e-05
3.94828e-06
1.92217e-05
5.73577e-06
1.72568e-05
7.92492e-06
1.44903e-05
1.12314e-05
1.0933e-05
1.4401e-05
5.63951e-06
1.97502e-05
2.22374e-05
2.363e-06
-1.17903e-05
4.8793e-06
-1.23996e-05
7.2444e-06
-1.15274e-05
9.49807e-06
-1.08757e-05
1.16714e-05
-1.06522e-05
1.37748e-05
-1.08518e-05
1.56217e-05
-9.26009e-06
1.74775e-05
-8.62294e-06
1.90575e-05
-7.81425e-06
2.0303e-05
-5.90908e-06
2.14086e-05
-5.06715e-06
2.21577e-05
-3.67756e-06
2.25822e-05
-2.20967e-06
2.27315e-05
-6.37603e-07
2.25966e-05
1.12222e-06
2.21675e-05
2.77582e-06
2.13924e-05
4.72335e-06
2.02004e-05
6.92773e-06
1.85226e-05
9.60274e-06
1.60838e-05
1.36702e-05
1.28571e-05
1.76277e-05
7.45402e-06
2.51532e-05
2.96914e-05
2.40834e-06
-1.41986e-05
4.90224e-06
-1.48935e-05
7.31039e-06
-1.39356e-05
9.62491e-06
-1.31902e-05
1.18445e-05
-1.28718e-05
1.3932e-05
-1.29393e-05
1.58127e-05
-1.11408e-05
1.77285e-05
-1.05387e-05
1.92828e-05
-9.36858e-06
2.05388e-05
-7.16513e-06
2.16845e-05
-6.21284e-06
2.23832e-05
-4.37622e-06
2.27639e-05
-2.59042e-06
2.28931e-05
-7.66721e-07
2.27549e-05
1.26039e-06
2.23528e-05
3.17786e-06
2.16109e-05
5.46533e-06
2.04029e-05
8.13569e-06
1.87241e-05
1.12815e-05
1.62254e-05
1.61689e-05
1.30223e-05
2.08308e-05
7.43767e-06
3.07378e-05
3.7129e-05
2.47874e-06
-1.66773e-05
4.92221e-06
-1.7337e-05
7.36849e-06
-1.63818e-05
9.755e-06
-1.55768e-05
1.20278e-05
-1.51446e-05
1.41178e-05
-1.50293e-05
1.60614e-05
-1.30843e-05
1.80249e-05
-1.25022e-05
1.95711e-05
-1.09148e-05
2.09459e-05
-8.53991e-06
2.21653e-05
-7.43227e-06
2.29429e-05
-5.1538e-06
2.34141e-05
-3.06165e-06
2.35896e-05
-9.42182e-07
2.34431e-05
1.40689e-06
2.30616e-05
3.55933e-06
2.24743e-05
6.05266e-06
2.15809e-05
9.02903e-06
2.03602e-05
1.25023e-05
1.84602e-05
1.80688e-05
1.59545e-05
2.33365e-05
1.03296e-05
3.63627e-05
4.74586e-05
2.55797e-06
-1.92353e-05
4.97916e-06
-1.97581e-05
7.45227e-06
-1.8855e-05
9.91953e-06
-1.8044e-05
1.22482e-05
-1.74733e-05
1.43552e-05
-1.71363e-05
1.63722e-05
-1.51014e-05
1.83334e-05
-1.44633e-05
1.98612e-05
-1.24427e-05
2.13553e-05
-1.00339e-05
2.25703e-05
-8.64726e-06
2.3296e-05
-5.87953e-06
2.37531e-05
-3.51873e-06
2.38556e-05
-1.04475e-06
2.36978e-05
1.56477e-06
2.33539e-05
3.9032e-06
2.28732e-05
6.53333e-06
2.20591e-05
9.8431e-06
2.0924e-05
1.36373e-05
1.90061e-05
1.99867e-05
1.66191e-05
2.57235e-05
1.10748e-05
4.1907e-05
5.85333e-05
-6.0565e-06
4.62768e-06
-1.31084e-05
5.62299e-06
-1.60573e-05
1.51967e-06
-1.53115e-05
-2.17577e-06
-2.23641e-05
5.62214e-06
-7.99593e-05
5.61548e-05
-0.000174632
9.32583e-05
-0.000225672
4.93748e-05
-0.000226177
-1.26802e-06
-0.000221982
-5.39781e-06
-0.000209454
-1.35912e-05
-0.000189774
-2.07383e-05
-0.000172614
-1.82033e-05
-0.000164224
-9.29374e-06
-0.000163832
-1.19467e-06
-0.000168231
3.67268e-06
-0.000163033
-5.77534e-06
-0.000106489
-5.67863e-05
-0.000107254
-6.52783e-06
9.72674e-06
-1.41269e-05
1.17932e-05
-1.68988e-05
2.86242e-06
-1.19258e-05
-8.57865e-06
-1.11881e-05
3.45469e-06
-3.11862e-05
7.47162e-05
-8.45733e-05
0.000145224
-0.00015133
0.000114485
-0.000176663
2.23096e-05
-0.000181768
-1.76981e-06
-0.000179141
-1.76301e-05
-0.000174533
-2.67347e-05
-0.000168055
-2.61366e-05
-0.000165777
-1.34029e-05
-0.000165643
-2.87024e-06
-0.000164927
1.78082e-06
-0.000135482
-3.61066e-05
-7.64668e-05
-0.000116287
-0.000184296
-7.62672e-06
1.59248e-05
-1.60378e-05
1.87755e-05
-1.8996e-05
4.39143e-06
-7.19763e-06
-2.18071e-05
1.94443e-06
-7.11676e-06
-1.06363e-05
8.58654e-05
-4.88184e-05
0.000181971
-0.000112615
0.000176761
-0.000179133
8.72663e-05
-0.000237226
5.48355e-05
-0.000268719
1.24564e-05
-0.000279669
-1.72512e-05
-0.00026975
-3.78051e-05
-0.000240505
-4.45751e-05
-0.000203642
-4.16622e-05
-0.00016309
-4.05756e-05
-0.00011064
-9.01059e-05
-5.08421e-05
-0.000177008
-0.000235784
-7.89448e-06
2.23908e-05
-1.69179e-05
2.63702e-05
-2.1087e-05
7.13071e-06
-1.41035e-06
-4.29171e-05
1.92972e-05
-2.9255e-05
1.74241e-05
8.63041e-05
-7.35376e-06
0.000205325
-7.68923e-05
0.00024487
-0.00015427
0.000163178
-0.000215666
0.000114781
-0.000252357
4.77689e-05
-0.00026993
-1.07982e-06
-0.000269713
-3.94091e-05
-0.000251778
-6.39262e-05
-0.000215405
-7.95072e-05
-0.000166847
-9.06388e-05
-0.000104917
-0.000153851
-4.07623e-05
-0.000242651
-0.000277216
-7.94621e-06
2.89086e-05
-2.07998e-05
3.77948e-05
-1.8973e-05
3.87076e-06
1.20015e-05
-7.53188e-05
3.71337e-05
-5.5823e-05
4.24046e-05
7.95978e-05
2.60897e-05
0.000220218
-3.4116e-05
0.000303668
-9.80778e-05
0.000225687
-0.000132453
0.000147716
-0.000136703
5.05911e-05
-0.000140807
1.59602e-06
-0.000146556
-3.50977e-05
-0.000145975
-6.59317e-05
-0.000147468
-7.94142e-05
-0.000132905
-0.000106637
-8.5016e-05
-0.000203386
-3.04412e-05
-0.000299046
-0.000308302
-5.81789e-06
3.32984e-05
-9.84527e-06
4.03936e-05
7.74651e-06
-1.5155e-05
3.25367e-05
-0.000101524
5.16367e-05
-7.63311e-05
7.07867e-05
5.90103e-05
6.69603e-05
0.0002226
1.60725e-05
0.000353151
-4.43022e-05
0.000284639
-7.54384e-05
0.000177421
-8.19872e-05
5.57112e-05
-8.54684e-05
3.64923e-06
-8.42493e-05
-3.77461e-05
-7.22735e-05
-7.93351e-05
-5.40642e-05
-9.9047e-05
-5.35482e-05
-0.00010857
-5.00714e-05
-0.000208303
-2.05953e-05
-0.00033032
-0.000329606
-3.17779e-06
3.50483e-05
1.5409e-05
2.03706e-05
4.25348e-05
-4.36989e-05
4.02023e-05
-0.000100731
5.78023e-05
-9.54082e-05
9.67036e-05
1.86848e-05
0.000102991
0.000214869
6.52243e-05
0.000389511
1.96989e-05
0.000328754
-6.24984e-06
0.000201954
-1.85518e-05
6.65925e-05
-2.97693e-05
1.34395e-05
-3.63349e-05
-3.26091e-05
-2.97895e-05
-8.73073e-05
-9.12223e-06
-0.000121141
-3.17166e-06
-0.000115945
-1.84098e-05
-0.000194478
-1.4359e-05
-0.000336231
-0.000345321
1.13503e-05
2.22581e-05
3.30055e-05
-2.72231e-06
4.55676e-05
-5.81266e-05
3.72875e-05
-9.41402e-05
4.1203e-05
-0.00010119
8.81135e-05
-3.00038e-05
0.000130729
0.000170831
0.000124357
0.000394505
0.00010394
0.000347766
8.06375e-05
0.000223841
5.28862e-05
9.29224e-05
3.06721e-05
3.42282e-05
1.71739e-05
-2.05366e-05
1.10625e-05
-8.26232e-05
1.28643e-05
-0.000124369
2.39194e-05
-0.000128426
9.58344e-06
-0.000181572
-7.49677e-06
-0.00032088
-0.000354183
5.63857e-06
-2.48746e-05
1.07998e-05
-2.492e-05
1.61512e-05
-2.4207e-05
2.1593e-05
-2.34864e-05
2.67072e-05
-2.25879e-05
3.13069e-05
-2.17364e-05
3.58788e-05
-1.96735e-05
4.01268e-05
-1.87116e-05
4.36244e-05
-1.59405e-05
4.73363e-05
-1.3746e-05
5.00692e-05
-1.13802e-05
5.20339e-05
-7.84434e-06
5.32863e-05
-4.77113e-06
5.37216e-05
-1.48001e-06
5.33305e-05
1.95578e-06
5.26378e-05
4.59589e-06
5.17396e-05
7.43154e-06
5.18014e-05
9.78135e-06
5.22035e-05
1.32352e-05
5.48458e-05
1.73444e-05
5.88125e-05
2.17569e-05
6.87472e-05
3.19722e-05
4.60714e-05
8.1209e-05
5.98359e-06
-3.09365e-05
1.1181e-05
-3.01947e-05
1.67381e-05
-2.98414e-05
2.2507e-05
-2.93306e-05
2.78428e-05
-2.79959e-05
3.26484e-05
-2.66102e-05
3.75298e-05
-2.46184e-05
4.18731e-05
-2.31109e-05
4.57333e-05
-1.98473e-05
4.95024e-05
-1.75529e-05
5.19336e-05
-1.38389e-05
5.39881e-05
-9.9164e-06
5.49662e-05
-5.75829e-06
5.4952e-05
-1.46913e-06
5.45309e-05
2.376e-06
5.40331e-05
5.0937e-06
5.36321e-05
7.83254e-06
5.3316e-05
1.00975e-05
5.26892e-05
1.38619e-05
5.48789e-05
1.51546e-05
5.89532e-05
1.76825e-05
6.99931e-05
2.09323e-05
2.92462e-05
8.6818e-05
4.6916e-06
-3.56475e-05
8.4521e-06
-3.39746e-05
1.27482e-05
-3.41569e-05
1.68878e-05
-3.34897e-05
2.02262e-05
-3.13541e-05
2.32128e-05
-2.96163e-05
2.73246e-05
-2.87505e-05
3.27829e-05
-2.85961e-05
3.95431e-05
-2.66381e-05
4.50224e-05
-2.30699e-05
4.94453e-05
-1.83077e-05
5.39965e-05
-1.45208e-05
5.64902e-05
-8.31074e-06
5.82483e-05
-3.28703e-06
5.93772e-05
1.18425e-06
5.98513e-05
4.56855e-06
5.98446e-05
7.82865e-06
5.85837e-05
1.32884e-05
5.74008e-05
1.50448e-05
5.98543e-05
1.27011e-05
6.45475e-05
1.29893e-05
7.32584e-05
1.22213e-05
1.5759e-05
8.67454e-05
1.8739e-06
-3.75386e-05
4.01866e-06
-3.61365e-05
5.91354e-06
-3.60691e-05
7.85286e-06
-3.54463e-05
9.81325e-06
-3.33319e-05
1.20414e-05
-3.18619e-05
1.39607e-05
-3.06873e-05
1.5787e-05
-3.04402e-05
1.64969e-05
-2.73658e-05
1.73562e-05
-2.39475e-05
1.53629e-05
-1.6333e-05
1.29226e-05
-1.20995e-05
-9.85337e-07
5.57809e-06
-9.07202e-06
4.78096e-06
1.37152e-05
-2.16203e-05
3.74129e-05
-1.91332e-05
4.67422e-05
-1.50643e-06
4.9518e-05
1.04724e-05
5.37605e-05
1.07382e-05
5.97853e-05
6.65965e-06
6.56294e-05
9.21762e-06
7.15391e-05
6.31162e-06
6.66889e-06
8.06297e-05
5.8903e-07
-3.81449e-05
1.96641e-06
-3.75312e-05
2.79593e-06
-3.69159e-05
3.77448e-06
-3.64423e-05
5.37049e-06
-3.49454e-05
7.23889e-06
-3.37479e-05
8.21472e-06
-3.16809e-05
8.33149e-06
-3.05751e-05
7.95342e-06
-2.70054e-05
9.15385e-06
-2.51662e-05
1.14666e-05
-1.86641e-05
1.53085e-05
-1.59601e-05
1.9841e-05
1.02647e-06
2.62121e-05
-1.60967e-06
3.07551e-05
-2.61833e-05
3.154e-05
-1.99386e-05
3.1013e-05
-1.00098e-06
3.19527e-05
9.52603e-06
3.91934e-05
3.50283e-06
4.80808e-05
-2.24644e-06
5.63925e-05
8.42056e-07
6.64794e-05
-3.87304e-06
-4.6263e-06
7.77247e-05
5.93999e-07
-3.87559e-05
1.42819e-06
-3.83824e-05
2.07111e-06
-3.7576e-05
2.67193e-06
-3.70603e-05
3.20357e-06
-3.54943e-05
3.80249e-06
-3.43642e-05
4.35951e-06
-3.22555e-05
5.0864e-06
-3.13198e-05
6.20116e-06
-2.81381e-05
7.88837e-06
-2.68716e-05
1.25242e-05
-2.33184e-05
1.95818e-05
-2.30365e-05
3.76399e-05
-1.70506e-05
5.28636e-05
-1.68527e-05
4.54143e-05
-1.87539e-05
3.68503e-05
-1.1395e-05
3.99333e-05
-4.10505e-06
4.59795e-05
3.45906e-06
4.54747e-05
3.98757e-06
3.93754e-05
3.82793e-06
3.50077e-05
5.18856e-06
4.18265e-05
-1.07277e-05
-2.05266e-05
5.76309e-05
9.94491e-07
-3.97674e-05
2.06788e-06
-3.94728e-05
3.14356e-06
-3.86687e-05
4.28084e-06
-3.82147e-05
5.5713e-06
-3.6802e-05
7.04671e-06
-3.5857e-05
8.37542e-06
-3.36016e-05
9.69389e-06
-3.2656e-05
1.11399e-05
-2.96019e-05
1.27052e-05
-2.8455e-05
1.46813e-05
-2.53128e-05
1.67688e-05
-2.51426e-05
2.03254e-05
-2.06262e-05
2.41238e-05
-2.06704e-05
3.0026e-05
-2.46759e-05
3.95344e-05
-2.09235e-05
5.14739e-05
-1.60653e-05
6.42217e-05
-9.30996e-06
7.41347e-05
-5.94744e-06
7.88167e-05
-8.76932e-07
7.87255e-05
5.2567e-06
6.98812e-05
-1.90826e-06
-9.71038e-06
5.90395e-05
1.11166e-06
-4.08958e-05
2.1965e-06
-4.05744e-05
3.47547e-06
-3.99645e-05
4.7761e-06
-3.95322e-05
6.183e-06
-3.82259e-05
7.79759e-06
-3.74888e-05
9.63405e-06
-3.54554e-05
1.15646e-05
-3.46041e-05
1.40174e-05
-3.20723e-05
1.63417e-05
-3.07972e-05
1.94867e-05
-2.8476e-05
2.2583e-05
-2.82574e-05
2.75608e-05
-2.5623e-05
3.17039e-05
-2.48328e-05
3.11671e-05
-2.41587e-05
3.17e-05
-2.14767e-05
3.50811e-05
-1.94671e-05
4.22696e-05
-1.65196e-05
5.40503e-05
-1.77499e-05
6.93371e-05
-1.61863e-05
8.55155e-05
-1.0945e-05
9.41152e-05
-1.05321e-05
-7.80882e-06
9.21884e-05
1.54765e-06
-4.24601e-05
3.1731e-06
-4.22166e-05
4.85468e-06
-4.16628e-05
6.55591e-06
-4.12503e-05
8.27987e-06
-3.99668e-05
1.01011e-05
-3.9327e-05
1.19808e-05
-3.73524e-05
1.38124e-05
-3.6453e-05
1.58136e-05
-3.40911e-05
1.76267e-05
-3.26281e-05
1.93233e-05
-3.01906e-05
2.06144e-05
-2.95669e-05
2.24609e-05
-2.74882e-05
2.44435e-05
-2.68345e-05
2.7174e-05
-2.69087e-05
3.07189e-05
-2.50415e-05
3.45349e-05
-2.33035e-05
3.88381e-05
-2.08439e-05
4.12582e-05
-2.01918e-05
4.47251e-05
-1.96756e-05
5.27094e-05
-1.89525e-05
6.49996e-05
-2.28464e-05
-2.17891e-05
7.8955e-05
1.72355e-06
-4.42001e-05
3.51688e-06
-4.40264e-05
5.31231e-06
-4.34748e-05
7.15216e-06
-4.31067e-05
9.04772e-06
-4.18791e-05
1.10331e-05
-4.13292e-05
1.32737e-05
-3.96099e-05
1.55285e-05
-3.8725e-05
1.8226e-05
-3.68061e-05
2.09513e-05
-3.5371e-05
2.38694e-05
-3.31267e-05
2.64159e-05
-3.21316e-05
2.9045e-05
-3.01359e-05
3.14076e-05
-2.9216e-05
3.24422e-05
-2.79627e-05
3.38453e-05
-2.64645e-05
3.56366e-05
-2.51151e-05
3.82025e-05
-2.34306e-05
4.10302e-05
-2.3041e-05
4.41981e-05
-2.28655e-05
4.66354e-05
-2.14126e-05
4.7461e-05
-2.36955e-05
-2.42214e-05
4.98688e-05
2.03775e-06
-4.62542e-05
4.09713e-06
-4.61021e-05
6.16574e-06
-4.55598e-05
8.25501e-06
-4.52125e-05
1.03883e-05
-4.40288e-05
1.25327e-05
-4.34904e-05
1.47974e-05
-4.18913e-05
1.69808e-05
-4.09254e-05
1.93691e-05
-3.92116e-05
2.18124e-05
-3.78317e-05
2.44394e-05
-3.57714e-05
2.68656e-05
-3.45758e-05
2.93567e-05
-3.26453e-05
3.16519e-05
-3.15298e-05
3.3864e-05
-3.01939e-05
3.61585e-05
-2.87786e-05
3.80633e-05
-2.70399e-05
3.98842e-05
-2.52719e-05
4.03848e-05
-2.35629e-05
4.03815e-05
-2.28839e-05
4.02622e-05
-2.13159e-05
3.91465e-05
-2.26029e-05
-2.18783e-05
3.67793e-05
2.1897e-06
-4.84599e-05
4.38541e-06
-4.83138e-05
6.6097e-06
-4.78002e-05
8.86887e-06
-4.74878e-05
1.12255e-05
-4.64018e-05
1.36046e-05
-4.58859e-05
1.61626e-05
-4.44658e-05
1.8703e-05
-4.34825e-05
2.1449e-05
-4.19745e-05
2.42734e-05
-4.06732e-05
2.73383e-05
-3.88538e-05
3.02875e-05
-3.75427e-05
3.31964e-05
-3.55724e-05
3.57977e-05
-3.41495e-05
3.78664e-05
-3.22815e-05
3.97841e-05
-3.07155e-05
4.14587e-05
-2.87342e-05
4.31664e-05
-2.69998e-05
4.47169e-05
-2.51341e-05
4.57547e-05
-2.3943e-05
4.59403e-05
-2.15236e-05
4.45183e-05
-2.12036e-05
-1.98347e-05
4.24512e-05
2.46967e-06
-5.09454e-05
4.95473e-06
-5.08147e-05
7.44991e-06
-5.03112e-05
9.95401e-06
-5.00078e-05
1.24888e-05
-4.89525e-05
1.49811e-05
-4.83943e-05
1.755e-05
-4.70511e-05
2.00272e-05
-4.59761e-05
2.25752e-05
-4.45393e-05
2.50576e-05
-4.31725e-05
2.76341e-05
-4.14474e-05
3.00888e-05
-4.00149e-05
3.26303e-05
-3.81316e-05
3.49887e-05
-3.6526e-05
3.72307e-05
-3.45419e-05
3.92618e-05
-3.27655e-05
4.09486e-05
-3.04404e-05
4.23669e-05
-2.84379e-05
4.3091e-05
-2.58786e-05
4.316e-05
-2.4033e-05
4.24019e-05
-2.07871e-05
4.04373e-05
-1.92612e-05
-1.60258e-05
3.66054e-05
2.62263e-06
-5.35835e-05
5.26513e-06
-5.34727e-05
7.94489e-06
-5.30065e-05
1.06386e-05
-5.27172e-05
1.34004e-05
-5.173e-05
1.61359e-05
-5.11457e-05
1.89865e-05
-4.99177e-05
2.18061e-05
-4.88118e-05
2.47065e-05
-4.7456e-05
2.75541e-05
-4.60368e-05
3.04389e-05
-4.43489e-05
3.3191e-05
-4.27841e-05
3.58731e-05
-4.08312e-05
3.83753e-05
-3.90459e-05
4.06805e-05
-3.68652e-05
4.27072e-05
-3.48107e-05
4.45473e-05
-3.22995e-05
4.61089e-05
-3.00189e-05
4.74067e-05
-2.71962e-05
4.81574e-05
-2.48041e-05
4.85318e-05
-2.11825e-05
4.80153e-05
-1.87663e-05
-1.48376e-05
4.68049e-05
2.84071e-06
-5.64394e-05
5.69122e-06
-5.63385e-05
8.52556e-06
-5.58561e-05
1.13521e-05
-5.5559e-05
1.4202e-05
-5.45953e-05
1.69981e-05
-5.39573e-05
1.98502e-05
-5.27855e-05
2.26518e-05
-5.16293e-05
2.55049e-05
-5.03252e-05
2.82972e-05
-4.88453e-05
3.11494e-05
-4.72177e-05
3.38681e-05
-4.55195e-05
3.65811e-05
-4.35613e-05
3.90982e-05
-4.15804e-05
4.15226e-05
-3.93074e-05
4.36865e-05
-3.69927e-05
4.56246e-05
-3.4256e-05
4.71566e-05
-3.15699e-05
4.82034e-05
-2.82624e-05
4.85883e-05
-2.5209e-05
4.83169e-05
-2.09316e-05
4.70671e-05
-1.75376e-05
-1.22115e-05
4.44194e-05
3.04593e-06
-5.95002e-05
6.10076e-06
-5.94081e-05
9.14598e-06
-5.89163e-05
1.21841e-05
-5.86121e-05
1.5267e-05
-5.76933e-05
1.83149e-05
-5.70204e-05
2.14279e-05
-5.59137e-05
2.45085e-05
-5.47254e-05
2.76201e-05
-5.34524e-05
3.06645e-05
-5.19056e-05
3.37132e-05
-5.02825e-05
3.66835e-05
-4.85062e-05
3.96099e-05
-4.65042e-05
4.23881e-05
-4.43756e-05
4.50667e-05
-4.20033e-05
4.74833e-05
-3.9427e-05
4.98116e-05
-3.66024e-05
5.17649e-05
-3.35416e-05
5.35255e-05
-3.00419e-05
5.47291e-05
-2.64319e-05
5.56103e-05
-2.18327e-05
5.57313e-05
-1.76788e-05
-1.14711e-05
5.497e-05
3.20237e-06
-6.2717e-05
6.40619e-06
-6.26265e-05
9.60239e-06
-6.2127e-05
1.27736e-05
-6.17979e-05
1.5973e-05
-6.09075e-05
1.91251e-05
-6.01874e-05
2.23185e-05
-5.9122e-05
2.54757e-05
-5.78978e-05
2.86671e-05
-5.66591e-05
3.18023e-05
-5.50563e-05
3.49592e-05
-5.34551e-05
3.80211e-05
-5.15841e-05
4.10636e-05
-4.9563e-05
4.39737e-05
-4.73022e-05
4.68083e-05
-4.48547e-05
4.94315e-05
-4.20674e-05
5.19164e-05
-3.91048e-05
5.40204e-05
-3.56635e-05
5.59211e-05
-3.1961e-05
5.72127e-05
-2.77422e-05
5.81893e-05
-2.28286e-05
5.83972e-05
-1.79064e-05
-1.09627e-05
5.78687e-05
3.4328e-06
-6.61639e-05
6.87037e-06
-6.60781e-05
1.02879e-05
-6.55587e-05
1.36761e-05
-6.52003e-05
1.70868e-05
-6.43325e-05
2.04544e-05
-6.35694e-05
2.38471e-05
-6.25293e-05
2.71987e-05
-6.12641e-05
3.05739e-05
-6.00492e-05
3.39225e-05
-5.84199e-05
3.7294e-05
-5.68418e-05
4.06202e-05
-5.49259e-05
4.39145e-05
-5.2873e-05
4.71349e-05
-5.05387e-05
5.02959e-05
-4.80321e-05
5.33039e-05
-4.50921e-05
5.62479e-05
-4.20658e-05
5.89228e-05
-3.83557e-05
6.15303e-05
-3.45862e-05
6.36967e-05
-2.99267e-05
6.57999e-05
-2.49502e-05
6.72371e-05
-1.93626e-05
-1.2026e-05
6.8281e-05
3.58985e-06
-6.97675e-05
7.18496e-06
-6.9687e-05
1.07619e-05
-6.91494e-05
1.43084e-05
-6.87606e-05
1.78794e-05
-6.79174e-05
2.14161e-05
-6.71201e-05
2.49773e-05
-6.61046e-05
2.85068e-05
-6.48079e-05
3.20556e-05
-6.36124e-05
3.55634e-05
-6.19423e-05
3.90935e-05
-6.03868e-05
4.25687e-05
-5.84161e-05
4.60312e-05
-5.63509e-05
4.94414e-05
-5.39644e-05
5.2797e-05
-5.14036e-05
5.60487e-05
-4.83598e-05
5.92077e-05
-4.52413e-05
6.21797e-05
-4.13444e-05
6.50575e-05
-3.74812e-05
6.75917e-05
-3.24785e-05
7.01086e-05
-2.7485e-05
7.2087e-05
-2.13593e-05
-1.38983e-05
7.39405e-05
3.71923e-06
-7.35e-05
7.44325e-06
-7.34243e-05
1.11739e-05
-7.28934e-05
1.48814e-05
-7.24815e-05
1.86327e-05
-7.16822e-05
2.23635e-05
-7.08644e-05
2.61214e-05
-6.98762e-05
2.98733e-05
-6.85736e-05
3.36613e-05
-6.74143e-05
3.74359e-05
-6.5731e-05
4.12468e-05
-6.42122e-05
4.50335e-05
-6.22173e-05
4.88161e-05
-6.01482e-05
5.25867e-05
-5.77501e-05
5.63232e-05
-5.51553e-05
6.00137e-05
-5.2066e-05
6.36592e-05
-4.89026e-05
6.72314e-05
-4.49328e-05
7.07777e-05
-4.1044e-05
7.41705e-05
-3.5888e-05
7.76468e-05
-3.09784e-05
8.08045e-05
-2.45345e-05
-1.71741e-05
8.40624e-05
3.8388e-06
-7.73516e-05
7.67557e-06
-7.72739e-05
1.1536e-05
-7.67668e-05
1.53857e-05
-7.63441e-05
1.92875e-05
-7.55971e-05
2.31924e-05
-7.47824e-05
2.71368e-05
-7.38339e-05
3.10922e-05
-7.25424e-05
3.5088e-05
-7.14236e-05
3.9076e-05
-6.97328e-05
4.31227e-05
-6.82727e-05
4.71501e-05
-6.62587e-05
5.12038e-05
-6.42161e-05
5.52603e-05
-6.18211e-05
5.9286e-05
-5.91957e-05
6.32866e-05
-5.60815e-05
6.72151e-05
-5.28464e-05
7.11127e-05
-4.8846e-05
7.49518e-05
-4.4899e-05
7.87541e-05
-3.97066e-05
8.26656e-05
-3.49064e-05
8.63966e-05
-2.82824e-05
-2.12924e-05
9.04978e-05
3.80676e-06
-8.11707e-05
7.59561e-06
-8.10751e-05
1.1458e-05
-8.06416e-05
1.53365e-05
-8.02351e-05
1.93004e-05
-7.95736e-05
2.33224e-05
-7.8817e-05
2.74384e-05
-7.79626e-05
3.16264e-05
-7.67432e-05
3.58925e-05
-7.57027e-05
4.02001e-05
-7.40535e-05
4.45979e-05
-7.26838e-05
4.9013e-05
-7.06872e-05
5.34984e-05
-6.87153e-05
5.80186e-05
-6.63552e-05
6.25612e-05
-6.37525e-05
6.7127e-05
-6.06617e-05
7.16805e-05
-5.74145e-05
7.62768e-05
-5.34572e-05
8.08624e-05
-4.94998e-05
8.55255e-05
-4.43851e-05
9.02772e-05
-3.96739e-05
9.49892e-05
-3.30104e-05
-2.65341e-05
0.000100215
3.7712e-06
-8.49538e-05
7.50391e-06
-8.48197e-05
1.13496e-05
-8.44992e-05
1.5216e-05
-8.41134e-05
1.91912e-05
-8.35608e-05
2.32583e-05
-8.28963e-05
2.7455e-05
-8.21715e-05
3.17756e-05
-8.10762e-05
3.62088e-05
-8.01484e-05
4.07312e-05
-7.85885e-05
4.53918e-05
-7.73572e-05
5.01094e-05
-7.54177e-05
5.49573e-05
-7.35763e-05
5.98677e-05
-7.1279e-05
6.48528e-05
-6.87511e-05
6.99068e-05
-6.57295e-05
7.49899e-05
-6.25116e-05
8.01477e-05
-5.86292e-05
8.52953e-05
-5.46619e-05
9.05457e-05
-4.96503e-05
9.58629e-05
-4.50061e-05
0.000101225
-3.83882e-05
-3.24738e-05
0.000107149
3.53722e-06
-8.85024e-05
7.04329e-06
-8.83372e-05
1.06806e-05
-8.8148e-05
1.43597e-05
-8.78041e-05
1.81874e-05
-8.74002e-05
2.21581e-05
-8.68786e-05
2.63141e-05
-8.63392e-05
3.06762e-05
-8.54501e-05
3.5231e-05
-8.47153e-05
3.9966e-05
-8.33356e-05
4.49145e-05
-8.2318e-05
5.00275e-05
-8.05431e-05
5.53896e-05
-7.89509e-05
6.091e-05
-7.6812e-05
6.66127e-05
-7.44668e-05
7.24532e-05
-7.15831e-05
7.83973e-05
-6.84691e-05
8.44465e-05
-6.4692e-05
9.0511e-05
-6.07403e-05
9.67217e-05
-5.5875e-05
0.000102981
-5.12796e-05
0.000109383
-4.48052e-05
-3.94122e-05
0.000116307
3.32185e-06
-9.18352e-05
6.63855e-06
-9.16649e-05
1.00577e-05
-9.15781e-05
1.35312e-05
-9.12885e-05
1.71536e-05
-9.10336e-05
2.09205e-05
-9.06567e-05
2.48846e-05
-9.03145e-05
2.90898e-05
-8.96666e-05
3.35678e-05
-8.92046e-05
3.83406e-05
-8.812e-05
4.34054e-05
-8.73944e-05
4.87145e-05
-8.58641e-05
5.43486e-05
-8.45971e-05
6.01982e-05
-8.26738e-05
6.63212e-05
-8.06021e-05
7.26609e-05
-7.79353e-05
7.92094e-05
-7.50304e-05
8.5933e-05
-7.14285e-05
9.2762e-05
-6.75824e-05
9.98086e-05
-6.29349e-05
0.000106942
-5.84269e-05
0.000114329
-5.22052e-05
-4.73119e-05
0.000122214
2.98916e-06
-9.48347e-05
5.99979e-06
-9.46859e-05
9.08017e-06
-9.46689e-05
1.22383e-05
-9.44571e-05
1.55445e-05
-9.43504e-05
1.90075e-05
-9.41302e-05
2.26843e-05
-9.4002e-05
2.66288e-05
-9.36219e-05
3.08861e-05
-9.34728e-05
3.55338e-05
-9.27787e-05
4.05946e-05
-9.24663e-05
4.60658e-05
-9.13465e-05
5.19985e-05
-9.05412e-05
5.8279e-05
-8.89659e-05
6.49901e-05
-8.7325e-05
7.2055e-05
-8.5012e-05
7.94845e-05
-8.24721e-05
8.71822e-05
-7.91385e-05
9.51023e-05
-7.5515e-05
0.000103291
-7.11364e-05
0.000111573
-6.67217e-05
0.000120172
-6.08175e-05
-5.63899e-05
0.000129237
2.68741e-06
-9.75319e-05
5.4083e-06
-9.74166e-05
8.17769e-06
-9.74481e-05
1.10393e-05
-9.73286e-05
1.4038e-05
-9.73591e-05
1.7193e-05
-9.72952e-05
2.05584e-05
-9.73775e-05
2.41828e-05
-9.72564e-05
2.81092e-05
-9.74094e-05
3.24195e-05
-9.70993e-05
3.71658e-05
-9.72231e-05
4.24141e-05
-9.66055e-05
4.8229e-05
-9.63669e-05
5.45408e-05
-9.52886e-05
6.14408e-05
-9.42361e-05
6.88431e-05
-9.24256e-05
7.67664e-05
-9.04067e-05
8.50798e-05
-8.74635e-05
9.3794e-05
-8.4241e-05
0.000102858
-8.02122e-05
0.000112085
-7.59611e-05
0.000121737
-7.04815e-05
-6.66299e-05
0.000131964
2.34816e-06
-9.98894e-05
4.72656e-06
-9.98042e-05
7.1437e-06
-9.98745e-05
9.64944e-06
-9.98436e-05
1.22813e-05
-0.0001
1.50648e-05
-0.000100088
1.80626e-05
-0.000100385
2.1322e-05
-0.000100525
2.48963e-05
-0.000100993
2.88631e-05
-0.000101076
3.32547e-05
-0.000101625
3.81598e-05
-0.000101521
4.36466e-05
-0.000101864
4.97268e-05
-0.000101379
5.65382e-05
-0.000101058
6.40167e-05
-9.99148e-05
7.22156e-05
-9.86164e-05
8.10544e-05
-9.63133e-05
9.05775e-05
-9.37751e-05
0.000100611
-9.0257e-05
0.000111007
-8.63683e-05
0.00012199
-8.14762e-05
-7.83048e-05
0.000133653
2.06282e-06
-0.000101961
4.14938e-06
-0.000101899
6.26995e-06
-0.000102004
8.46939e-06
-0.000102052
1.07883e-05
-0.000102328
1.32505e-05
-0.000102559
1.5923e-05
-0.000103066
1.88433e-05
-0.000103455
2.20671e-05
-0.000104226
2.56639e-05
-0.000104682
2.96692e-05
-0.000105639
3.41737e-05
-0.000106035
3.92254e-05
-0.000106925
4.48769e-05
-0.00010704
5.127e-05
-0.000107461
5.83632e-05
-0.000107018
6.62796e-05
-0.000106543
7.50531e-05
-0.000105097
8.47331e-05
-0.000103465
9.51178e-05
-0.000100652
0.00010618
-9.74408e-05
0.000118023
-9.33303e-05
-9.09482e-05
0.000130655
1.75553e-06
-0.000103725
3.52728e-06
-0.000103679
5.32932e-06
-0.000103814
7.19527e-06
-0.000103926
9.17317e-06
-0.000104314
1.12755e-05
-0.00010467
1.35754e-05
-0.000105374
1.6096e-05
-0.000105984
1.89008e-05
-0.00010704
2.20492e-05
-0.000107839
2.55798e-05
-0.000109179
2.95816e-05
-0.000110045
3.40961e-05
-0.000111448
3.91851e-05
-0.000112138
4.49696e-05
-0.000113254
5.14432e-05
-0.000113501
5.87936e-05
-0.000113903
6.70809e-05
-0.000113394
7.63299e-05
-0.000112724
8.65161e-05
-0.000110848
9.78261e-05
-0.000108761
0.000110307
-0.000105821
-0.000104568
0.000123916
1.52464e-06
-0.000105257
3.05934e-06
-0.000105222
4.62386e-06
-0.000105386
6.23983e-06
-0.000105549
7.96248e-06
-0.000106044
9.79261e-06
-0.000106508
1.18099e-05
-0.000107399
1.4019e-05
-0.000108201
1.64956e-05
-0.000109524
1.92753e-05
-0.000110626
2.24114e-05
-0.000112323
2.59721e-05
-0.000113614
2.99995e-05
-0.000115484
3.45625e-05
-0.00011671
3.97616e-05
-0.000118462
4.56044e-05
-0.000119352
5.22844e-05
-0.000120591
5.97569e-05
-0.000120875
6.80902e-05
-0.000121066
7.74164e-05
-0.000120184
8.79025e-05
-0.000119256
9.95996e-05
-0.000117527
-0.000117568
0.000112591
1.26868e-06
-0.000106532
2.5445e-06
-0.000106504
3.85084e-06
-0.000106699
5.19714e-06
-0.000106903
6.6386e-06
-0.000107493
8.16584e-06
-0.000108042
9.85659e-06
-0.000109097
1.17006e-05
-0.000110052
1.37795e-05
-0.00011161
1.61003e-05
-0.000112954
1.87315e-05
-0.000114961
2.17023e-05
-0.000116592
2.50722e-05
-0.000118861
2.88854e-05
-0.000120531
3.32224e-05
-0.000122806
3.80957e-05
-0.000124233
4.36616e-05
-0.000126165
4.985e-05
-0.000127072
5.68788e-05
-0.000128103
6.48264e-05
-0.000128139
7.38114e-05
-0.000128249
8.40661e-05
-0.000127791
-0.000129628
9.61171e-05
1.0881e-06
-0.000107627
2.18372e-06
-0.000107606
3.30988e-06
-0.000107832
4.46906e-06
-0.000108068
5.71106e-06
-0.000108741
7.02342e-06
-0.000109361
8.47757e-06
-0.000110558
1.00525e-05
-0.000111633
1.18318e-05
-0.000113396
1.37924e-05
-0.000114922
1.60244e-05
-0.0001172
1.85069e-05
-0.000119081
2.13298e-05
-0.000121691
2.44798e-05
-0.000123687
2.80424e-05
-0.000126376
3.19981e-05
-0.000128196
3.64791e-05
-0.000130653
4.13694e-05
-0.000131969
4.69279e-05
-0.000133669
5.29146e-05
-0.000134134
5.96657e-05
-0.000135008
6.7157e-05
-0.00013529
-0.000138788
7.63097e-05
8.6187e-07
-0.000108494
1.73293e-06
-0.000108483
2.63032e-06
-0.000108735
3.55392e-06
-0.000108998
4.53962e-06
-0.000109733
5.57693e-06
-0.000110404
6.71831e-06
-0.000111705
7.94174e-06
-0.000112862
9.31441e-06
-0.000114775
1.08054e-05
-0.000116419
1.25e-05
-0.000118901
1.43476e-05
-0.000120935
1.64452e-05
-0.000123795
1.87232e-05
-0.000125972
2.12805e-05
-0.00012894
2.40347e-05
-0.000130957
2.70861e-05
-0.000133711
3.02337e-05
-0.000135124
3.36405e-05
-0.000137083
3.69461e-05
-0.000137446
4.04737e-05
-0.000138543
4.3935e-05
-0.000138758
-0.000143774
4.89137e-05
7.05533e-07
-0.000109205
1.41932e-06
-0.000109202
2.15064e-06
-0.000109471
2.90062e-06
-0.000109753
3.693e-06
-0.00011053
4.52108e-06
-0.000111237
5.41883e-06
-0.000112608
6.36847e-06
-0.000113817
7.4181e-06
-0.000115829
8.53965e-06
-0.000117545
9.79688e-06
-0.000120163
1.11301e-05
-0.000122274
1.26185e-05
-0.000125289
1.4157e-05
-0.000127516
1.58419e-05
-0.00013063
1.75208e-05
-0.000132641
1.92585e-05
-0.000135455
2.07836e-05
-0.000136654
2.21201e-05
-0.000138425
2.27547e-05
-0.000138086
2.25749e-05
-0.000138369
2.11317e-05
-0.000137321
-0.000142675
2.00268e-05
4.85651e-07
-0.000109695
9.78566e-07
-0.000109699
1.48151e-06
-0.000109979
1.99448e-06
-0.00011027
2.52881e-06
-0.000111069
3.0749e-06
-0.000111787
3.6553e-06
-0.000113193
4.25086e-06
-0.000114417
4.89559e-06
-0.000116479
5.55794e-06
-0.000118212
6.2785e-06
-0.000120888
6.99882e-06
-0.000122999
7.76104e-06
-0.000126056
8.46446e-06
-0.000128224
9.15453e-06
-0.000131325
9.65777e-06
-0.00013315
9.99157e-06
-0.000135794
9.7977e-06
-0.000136466
8.95907e-06
-0.000137592
6.70422e-06
-0.000135837
2.43335e-06
-0.000134103
-4.63334e-06
-0.000130259
-0.000133917
-1.3397e-05
3.43199e-07
-0.000110042
6.84392e-07
-0.000110044
1.0245e-06
-0.000110322
1.36175e-06
-0.000110611
1.69908e-06
-0.00011141
2.02908e-06
-0.000112121
2.36591e-06
-0.000113533
2.69181e-06
-0.000114747
3.02504e-06
-0.000116816
3.33394e-06
-0.000118525
3.63353e-06
-0.000121192
3.86756e-06
-0.000123237
4.04498e-06
-0.000126237
4.06305e-06
-0.000128246
3.9178e-06
-0.000131184
3.41923e-06
-0.000132655
2.50658e-06
-0.000134885
7.58514e-07
-0.000134722
-2.12581e-06
-0.000134712
-7.04511e-06
-0.000130922
-1.50173e-05
-0.000126135