/*--------------------------------*- C++ -*----------------------------------*\
| =========                 |                                                 |
| \\      /  F ield         | OpenFOAM: The Open Source CFD Toolbox           |
|  \\    /   O peration     | Version:  2012                                  |
|   \\  /    A nd           | Website:  www.openfoam.com                      |
|    \\/     M anipulation  |                                                 |
\*---------------------------------------------------------------------------*/
FoamFile
{
    version     2.0;
    format      ascii;
    class       volScalarField;
    location    "0.5";
    object      rho;
}
// * * * * * * * * * * * * * * * * * * * * * * * * * * * * * * * * * * * * * //

dimensions      [1 -3 0 0 0 0 0];


internalField   nonuniform List<scalar> 
2268
(
1000.05
1000.05
1000.05
1000.05
1000.05
1000.05
1000.05
1000.05
1000.05
1000.05
1000.05
1000.05
1000.05
1000.05
1000.05
1000.05
1000.05
1000.05
1000.05
1000.05
1000.05
1000.05
999.723
1000.05
1000.05
1000.05
1000.05
1000.05
1000.05
1000.05
1000.05
1000.05
1000.05
1000.05
1000.05
1000.05
1000.05
1000.05
1000.05
1000.05
1000.05
1000.05
1000.05
1000.05
1000.05
999.701
1000.05
1000.05
1000.05
1000.05
1000.05
1000.05
1000.05
1000.05
1000.05
1000.05
1000.05
1000.05
1000.05
1000.05
1000.05
1000.05
1000.05
1000.05
1000.05
1000.05
1000.05
1000.05
999.701
1000.05
1000.05
1000.05
1000.05
1000.05
1000.05
1000.05
1000.05
1000.05
1000.05
1000.05
1000.05
1000.05
1000.05
1000.05
1000.05
1000.05
1000.05
1000.05
1000.05
1000.05
1000.05
999.888
1000.05
1000.05
1000.05
1000.05
1000.05
1000.05
1000.05
1000.05
1000.05
1000.05
1000.05
1000.05
1000.05
1000.05
1000.05
1000.05
1000.05
1000.05
1000.05
1000.05
1000.05
1000.05
1000.05
1000.05
1000.05
1000.05
1000.05
1000.05
1000.05
1000.05
1000.05
1000.05
1000.05
1000.05
1000.05
1000.05
1000.05
1000.05
1000.05
1000.05
1000.05
1000.05
1000.05
1000.05
1000.05
1000.05
1000.05
1000.05
1000.05
1000.05
1000.05
1000.05
1000.05
1000.05
1000.05
1000.05
1000.05
1000.05
1000.05
1000.05
1000.05
1000.05
1000.05
1000.05
1000.05
1000.05
1000.05
1000.05
1000.05
1000.05
1000.05
1000.05
1000.05
1000.05
1000.05
1000.05
1000.05
1000.05
1000.05
1000.05
1000.05
1000.05
1000.05
1000.05
1000.05
1000.05
1000.05
1000.05
1000.05
1000.05
1000.05
1000.05
1.29493
1.29493
1.29493
1.29493
1.29494
1.29519
1.29566
2.26238
99.8693
401.343
466.04
465.657
473.697
544.393
604.071
611.453
611.484
613.258
613.56
1.29493
1.29493
1.29493
1.29493
1.29493
1.29511
1.29748
2.31043
3.19681
1.29371
1.29417
1.29433
1.2938
30.9466
206.267
376.673
458.867
577.134
718.359
1.29493
1.29493
1.29493
1.29493
1.29493
1.29502
1.3192
1.66409
1.54773
1.31195
1.29429
1.29491
3.05346
12.3526
22.2398
57.0405
148.245
484.465
718.359
1.29493
1.29493
1.29494
1.29503
1.29495
1.29494
1.30224
1.32613
1.29769
1.29524
1.29549
1.29581
1.29575
1.29513
1.29404
1.29333
8.97269
189.347
718.357
1.29493
1.29493
1.29505
1.29569
1.29522
1.29494
1.29586
1.29584
1.29475
1.29473
1.29491
1.29487
1.29488
1.29488
1.29478
1.31365
2.02743
79.1943
718.357
1.29493
1.29496
1.29536
1.29633
1.29574
1.29502
1.29501
1.2954
1.29518
1.29503
1.29495
1.29481
1.29481
1.2949
1.29496
1.29477
1.35087
39.1371
718.355
1.29493
1.29498
1.3037
1.66363
1.37016
1.2952
1.29499
1.29534
1.29543
1.29539
1.29526
1.29496
1.29487
1.29489
1.29495
1.29489
1.30084
14.7019
481.696
1.29493
1.29509
9.87297
92.8458
22.6979
3.60112
1.36749
1.29519
1.29541
1.29543
1.29537
1.29518
1.29502
1.29495
1.29496
1.2949
1.2948
4.24296
291.127
981.914
981.752
983.55
985.201
986.899
988.38
990.669
992.397
994.588
996.494
998.021
999.192
999.794
1000.01
1000.05
1000.05
1000.05
1000.05
1000.05
1000.05
1000.05
1000.05
1000
437.213
438.433
450.481
463.722
482.997
507.682
548.279
588.449
636.475
689.193
751.327
821.891
895.34
956.272
990.74
1000.05
1000.05
1000.05
1000.05
1000.05
1000.05
1000.05
999.829
1.29332
1.29332
1.29332
1.29332
1.29332
1.29332
1.29332
2.42325
18.1334
38.6113
69.5488
112.839
177.411
280.068
449.21
677.887
935.945
1000.05
1000.05
1000.05
1000.05
1000.05
1000
1.29325
1.29325
1.29325
1.29325
1.29325
1.29326
1.29326
1.29326
1.29327
1.29328
1.29329
1.2933
1.29331
1.29332
7.87046
38.4412
125.628
315.483
599.878
930.973
1000.05
1000.05
1000.05
1.29321
1.29321
1.29321
1.29321
1.29321
1.29321
1.29322
1.29322
1.29322
1.29322
1.29325
1.29325
1.29333
1.2934
1.29323
1.29324
1.69129
8.88988
50.2204
145.43
312.245
544.546
869.507
1.2932
1.2932
1.2932
1.2932
1.2932
1.2932
1.2932
1.2932
1.2932
1.2932
1.29327
1.29431
1.29517
1.29561
1.29461
1.29325
1.29322
1.30414
1.46509
2.31769
7.92098
30.1897
106.297
1.2932
1.2932
1.2932
1.2932
1.2932
1.2932
1.2932
1.2932
1.2932
1.2932
1.29324
1.29529
1.29561
1.29561
1.29447
1.29326
1.29321
1.29321
1.29321
1.29334
1.30021
1.29322
1.29324
1.2932
1.2932
1.2932
1.2932
1.2932
1.2932
1.2932
1.2932
1.2932
1.2932
1.2933
1.29331
1.29372
1.29322
1.2932
1.29322
1.29324
1.29322
1.29321
1.29322
1.29329
1.29354
1.29347
1.2932
1.2932
1.2932
1.2932
1.2932
1.2932
1.2932
1.2932
1.2932
1.2932
1.2932
1.2932
1.2932
1.2932
1.2932
1.2932
1.29324
1.29324
1.29321
1.29323
1.2932
1.29319
1.29509
1.2932
1.2932
1.2932
1.2932
1.2932
1.2932
1.2932
1.2932
1.2932
1.2932
1.2932
1.2932
1.2932
1.2932
1.2932
1.2932
1.2932
1.29322
1.29321
1.29319
1.29319
1.29319
1.29328
1.29319
1.29319
1.29319
1.29319
1.29319
1.29319
1.29319
1.29319
1.29319
1.29319
1.29319
1.29319
1.29319
1.29319
1.29319
1.29319
1.29319
1.29319
1.29319
1.29319
1.29319
1.29319
1.29319
1.29319
1.29319
1.29319
1.29319
1.29319
1.29319
1.29319
1.29319
1.29319
1.29319
1.29319
1.29319
1.29319
1.29319
1.29319
1.29319
1.29319
1.29319
1.29319
1.29319
1.29319
1.29319
1.29319
1.29319
1.29319
1.29319
1.29319
1.29319
1.29319
1.29319
1.29319
1.29319
1.29319
1.29319
1.29319
1.29319
1.29319
1.29319
1.29319
1.29319
1.29319
1.29319
1.29319
1.29319
1.29319
1.29319
1.29319
1.29319
1.29319
1.29319
1.29319
1.29319
1.29319
1.29319
1.29319
1.29319
1.29319
1.29319
1.29319
1.29319
1.29319
1.29319
1.29319
1.29319
1.29319
1.29319
1.29319
1.29319
1.29319
1.29319
1.29319
1.29319
1.29319
1.29319
1.29319
1.29319
1.29319
1.29319
1.29319
1.29319
1.29319
1.29319
1.29319
1.29319
1.29319
1.29319
1.29319
1.29319
1.29319
1.29319
1.29319
1.29319
1.29318
1.29318
1.29318
1.29318
1.29318
1.29318
1.29318
1.29318
1.29318
1.29318
1.29318
1.29318
1.29318
1.29318
1.29318
1.29318
1.29318
1.29318
1.29318
1.29318
1.29318
1.29318
1.29318
1.29318
1.29318
1.29318
1.29318
1.29318
1.29318
1.29318
1.29318
1.29318
1.29318
1.29318
1.29318
1.29318
1.29318
1.29318
1.29318
1.29318
1.29318
1.29318
1.29318
1.29318
1.29318
1.29318
1.29318
1.29318
1.29318
1.29318
1.29318
1.29318
1.29318
1.29318
1.29318
1.29318
1.29318
1.29318
1.29318
1.29318
1.29318
1.29318
1.29318
1.29318
1.29318
1.29318
1.29318
1.29318
1.29318
1.29317
1.29317
1.29317
1.29317
1.29317
1.29317
1.29317
1.29317
1.29318
1.29318
1.29318
1.29318
1.29318
1.29318
1.29318
1.29318
1.29318
1.29318
1.29318
1.29318
1.29318
1.29318
1.29318
1.29317
1.29317
1.29317
1.29317
1.29317
1.29317
1.29317
1.29317
1.29317
1.29317
1.29317
1.29317
1.29317
1.29317
1.29317
1.29317
1.29317
1.29317
1.29317
1.29317
1.29317
1.29317
1.29317
1.29316
1.29316
1.29316
1.29316
1.29316
1.29316
1.29316
1.29316
1.29317
1.29317
1.29317
1.29317
1.29317
1.29317
1.29317
1.29317
1.29317
1.29317
1.29317
1.29317
1.29317
1.29317
1.29317
1.29315
1.29315
1.29315
1.29315
1.29315
1.29315
1.29315
1.29316
1.29316
1.29316
1.29316
1.29316
1.29316
1.29316
1.29316
1.29316
1.29317
1.29317
1.29317
1.29317
1.29317
1.29317
1.29317
1.29314
1.29314
1.29314
1.29314
1.29314
1.29314
1.29314
1.29314
1.29314
1.29315
1.29315
1.29315
1.29315
1.29315
1.29315
1.29316
1.29316
1.29316
1.29316
1.29316
1.29316
1.29317
1.29317
1.29312
1.29312
1.29312
1.29312
1.29312
1.29312
1.29312
1.29312
1.29313
1.29313
1.29313
1.29313
1.29314
1.29314
1.29314
1.29314
1.29315
1.29315
1.29315
1.29316
1.29316
1.29316
1.29316
1.2931
1.2931
1.2931
1.29311
1.29311
1.29311
1.29311
1.29311
1.29311
1.29311
1.29311
1.29311
1.29312
1.29312
1.29312
1.29313
1.29313
1.29313
1.29314
1.29314
1.29315
1.29315
1.29315
1.29309
1.29309
1.29309
1.29309
1.29309
1.29309
1.29309
1.2931
1.2931
1.2931
1.2931
1.2931
1.2931
1.2931
1.29311
1.29311
1.29311
1.29312
1.29312
1.29313
1.29313
1.29314
1.29314
1.29308
1.29308
1.29308
1.29308
1.29308
1.29308
1.29308
1.29308
1.29309
1.29309
1.29309
1.29309
1.29309
1.29309
1.29309
1.29309
1.2931
1.2931
1.29311
1.29311
1.29312
1.29312
1.29313
1.29308
1.29308
1.29308
1.29308
1.29308
1.29308
1.29308
1.29308
1.29308
1.29308
1.29308
1.29308
1.29308
1.29308
1.29308
1.29308
1.29309
1.29309
1.29309
1.2931
1.2931
1.29311
1.29312
1.29307
1.29307
1.29307
1.29307
1.29307
1.29307
1.29307
1.29307
1.29307
1.29307
1.29307
1.29307
1.29307
1.29307
1.29308
1.29308
1.29308
1.29308
1.29308
1.29309
1.29309
1.2931
1.29311
1.29307
1.29307
1.29307
1.29307
1.29307
1.29307
1.29307
1.29307
1.29307
1.29307
1.29307
1.29307
1.29307
1.29307
1.29307
1.29307
1.29308
1.29308
1.29308
1.29308
1.29309
1.29309
1.2931
1.29307
1.29307
1.29307
1.29307
1.29307
1.29307
1.29307
1.29307
1.29307
1.29307
1.29307
1.29307
1.29307
1.29307
1.29307
1.29307
1.29307
1.29307
1.29308
1.29308
1.29308
1.29309
1.2931
1.29306
1.29306
1.29306
1.29306
1.29306
1.29306
1.29306
1.29306
1.29306
1.29307
1.29307
1.29307
1.29307
1.29307
1.29307
1.29307
1.29307
1.29307
1.29308
1.29308
1.29308
1.29309
1.2931
1.29307
1.29307
1.29307
1.29307
1.29307
1.29307
1.29307
1.29307
1.29307
1.29307
1.29307
1.29307
1.29307
1.29307
1.29307
1.29307
1.29307
1.29307
1.29308
1.29308
1.29308
1.29309
1.2931
1.29307
1.29307
1.29307
1.29307
1.29307
1.29307
1.29307
1.29307
1.29307
1.29307
1.29307
1.29307
1.29307
1.29307
1.29307
1.29308
1.29308
1.29308
1.29308
1.29308
1.29309
1.2931
1.29311
1.29308
1.29308
1.29308
1.29308
1.29308
1.29308
1.29308
1.29308
1.29308
1.29308
1.29308
1.29308
1.29308
1.29308
1.29308
1.29308
1.29308
1.29308
1.29309
1.29309
1.29309
1.2931
1.29312
1.29308
1.29308
1.29308
1.29308
1.29308
1.29308
1.29308
1.29308
1.29308
1.29308
1.29308
1.29308
1.29308
1.29308
1.29308
1.29308
1.29308
1.29309
1.29309
1.2931
1.2931
1.29311
1.29313
1.29308
1.29308
1.29308
1.29308
1.29308
1.29308
1.29308
1.29308
1.29308
1.29308
1.29308
1.29308
1.29308
1.29308
1.29308
1.29308
1.29309
1.29309
1.29309
1.2931
1.29311
1.29312
1.29313
1.29308
1.29308
1.29308
1.29308
1.29308
1.29308
1.29308
1.29308
1.29308
1.29308
1.29308
1.29308
1.29308
1.29308
1.29308
1.29309
1.29309
1.29309
1.2931
1.29311
1.29312
1.29313
1.29314
1.29308
1.29308
1.29308
1.29308
1.29308
1.29308
1.29308
1.29308
1.29308
1.29308
1.29308
1.29308
1.29308
1.29308
1.29308
1.29309
1.29309
1.29309
1.2931
1.29311
1.29312
1.29314
1.29315
1.29308
1.29308
1.29308
1.29308
1.29308
1.29308
1.29308
1.29308
1.29308
1.29308
1.29308
1.29308
1.29308
1.29308
1.29308
1.29309
1.29309
1.2931
1.2931
1.29312
1.29313
1.29315
1.29316
1.29308
1.29308
1.29308
1.29308
1.29308
1.29308
1.29308
1.29308
1.29308
1.29308
1.29308
1.29308
1.29308
1.29308
1.29308
1.29308
1.29309
1.29309
1.2931
1.29311
1.29314
1.29316
1.29317
1.29308
1.29308
1.29308
1.29308
1.29308
1.29308
1.29308
1.29308
1.29308
1.29308
1.29308
1.29308
1.29308
1.29308
1.29308
1.29308
1.29309
1.29309
1.2931
1.29312
1.29314
1.29317
1.29319
999.504
999.849
999.864
999.864
999.503
999.504
999.858
999.864
999.911
999.946
999.93
999.736
1000.05
1000.05
1000.05
1000.02
981.763
994.667
996.386
997.014
180.114
244.575
313.779
387.76
1.29326
1.29327
2.97473
5.92773
1.29329
1.29323
1.29321
1.29322
1.30045
1.30045
1.30045
1.29885
1.29347
1.29379
1.29365
1.29319
1.29319
1.2932
1.29321
1.29319
1.29319
1.29319
1.29319
1.29319
1.29319
1.29319
1.29319
1.29319
1.29319
1.29319
1.29319
1.29319
1.29319
1.29319
1.29319
1.29319
1.29318
1.29318
1.29318
1.29318
1.29318
1.29318
1.29318
1.29318
1.29318
1.29318
1.29318
1.29318
1.29318
1.29318
1.29318
1.29318
1.29317
1.29317
1.29317
1.29317
1.29317
1.29317
1.29317
1.29317
1.29317
1.29317
1.29317
1.29317
1.29317
1.29317
1.29317
1.29317
1.29316
1.29316
1.29316
1.29316
1.29316
1.29316
1.29316
1.29316
1.29315
1.29315
1.29315
1.29315
1.29314
1.29314
1.29314
1.29314
1.29312
1.29313
1.29313
1.29314
1.29311
1.29312
1.29312
1.29313
1.29311
1.29311
1.29312
1.29313
1.29311
1.29311
1.29312
1.29313
1.29311
1.29312
1.29313
1.29313
1.29311
1.29312
1.29313
1.29314
1.29312
1.29313
1.29314
1.29314
1.29313
1.29314
1.29314
1.29314
1.29314
1.29314
1.29314
1.29316
1.29314
1.29314
1.29314
1.29318
1.29315
1.29315
1.29315
1.29318
1.29315
1.29315
1.29315
1.29316
1.29317
1.2932
1.2932
1.29316
1.29317
1.29326
1.29329
1.29316
1.29319
1.2932
1.29341
1.29354
149.544
85.0411
382.008
636.37
287.937
14.3523
1.33735
1.29477
1.29515
1.29526
1.29521
1.29511
1.29504
1.29499
1.29497
1.29489
1.29481
1.29504
422.926
899.091
921.297
1000.05
1000.05
673.473
54.5721
1.41393
1.29467
1.29487
1.29495
1.29494
1.29493
1.29494
1.29492
1.29491
1.29484
1.29481
1.2951
749.89
1000.05
1000.05
1000.05
1000.05
861.382
151.387
2.05945
1.29498
1.29486
1.29487
1.29486
1.29486
1.29488
1.29487
1.29487
1.29482
1.29485
1.29513
777.851
1000
1000.03
1000.05
1000.05
952.567
258.748
4.70039
1.2952
1.29487
1.29485
1.29484
1.29484
1.29485
1.29484
1.29485
1.29482
1.29488
1.29494
793.049
998.853
999.743
1000.01
1000.05
1000.05
654.777
43.0294
1.4321
1.29493
1.29486
1.29483
1.29483
1.29484
1.29484
1.29485
1.29483
1.29493
7.86586
850.784
633.081
852.887
948.601
994.623
1000.01
999.428
403.335
6.29838
1.32383
1.29481
1.29475
1.29474
1.29474
1.29476
1.29487
1.29514
1.29504
162.914
923.185
11.8957
48.666
178.418
608.637
972.174
996.953
952.402
432.511
1.29349
1.29425
1.29413
1.29411
1.29412
1.29423
1.2946
1.29491
1.29474
497.021
982.271
1.29323
1.29327
1.29331
17.655
195.586
752.728
985.786
985.786
675.007
198.173
1.29118
1.29178
1.29249
1.29278
1.29281
1.29255
123.122
792.987
992.728
1.29675
1.29458
1.2946
1.29326
1.29326
75.9273
399.87
861.734
900.025
899.938
662.664
331.48
237.48
262.175
356.457
565.709
864.684
994.857
994.858
1.29595
1.32497
1.32911
1.30278
1.29324
1.29323
6.76042
154.86
491.133
754.944
892.235
943.871
944.827
963.235
990.111
994.857
994.857
994.857
994.857
1.30579
1.32911
1.3291
1.30457
1.29321
1.2932
1.29321
3.14818
20.9591
131.461
334.348
543.976
603.363
617.227
650.802
754.923
916.519
982.146
994.857
1.29356
1.30101
1.30177
1.29573
1.29321
1.29319
1.29318
1.29942
2.05103
7.6772
24.0973
32.7229
38.6762
37.9138
37.9148
96.0833
415.76
932.793
994.857
1.29319
1.29319
1.29319
1.29323
1.2932
1.29318
1.29319
1.29332
1.29716
3.26485
124.271
240.911
272.843
203.429
109.039
122.45
581.025
971.328
976.803
1.29319
1.29319
1.29319
1.29319
1.29319
1.29318
1.29314
1.29309
1.29323
1.5024
46.5013
577.317
907.876
907.876
763.403
691.727
896.702
990.364
952.064
1.29319
1.29319
1.29319
1.29319
1.29319
1.29318
1.29315
1.2931
1.2931
1.32738
13.8529
264.58
712.506
916.093
983.708
983.708
990.159
990.367
952.065
1.29318
1.29318
1.29318
1.29318
1.29318
1.29318
1.29316
1.29312
1.2931
1.64772
3.35168
1.29532
13.4851
222.388
659.023
934.968
965.118
990.368
973.599
1.29318
1.29318
1.29318
1.29318
1.29318
1.29318
1.29317
1.29315
1.29312
1.32151
1.29458
1.29528
1.29316
1.29315
12.145
440.075
824.305
725.463
979.029
1.29318
1.29318
1.29318
1.29318
1.29318
1.29317
1.29317
1.29316
1.29314
1.29529
1.42127
1.35338
1.29316
1.29408
1.29997
60.3295
505.965
697.04
979.012
1.29318
1.29318
1.29318
1.29318
1.29318
1.29317
1.29317
1.29317
1.29316
1.29315
1.32458
1.31772
1.30075
1.29447
1.36781
26.6962
363.255
635.709
611.307
1.29317
1.29317
1.29317
1.29317
1.29317
1.29317
1.29317
1.29317
1.29316
1.29316
1.29319
1.29318
1.29317
1.29319
1.30828
9.93513
162.344
357.566
160.069
1.29317
1.29317
1.29317
1.29317
1.29317
1.29317
1.29317
1.29317
1.29317
1.29316
1.29317
1.29317
1.29317
1.29318
1.29331
1.84903
45.5246
230.068
160.054
1.29317
1.29317
1.29317
1.29317
1.29317
1.29317
1.29317
1.29317
1.29317
1.29317
1.29317
1.29317
1.29318
1.29318
1.29319
1.29479
17.1736
128.262
161.234
1.29317
1.29317
1.29317
1.29317
1.29317
1.29317
1.29317
1.29316
1.29317
1.29319
1.29331
1.29329
1.2932
1.29318
1.29319
1.36292
6.02763
5.45496
170.672
1.29316
1.29316
1.29316
1.29316
1.29316
1.29316
1.29316
1.29316
1.29316
1.29327
1.29333
1.29332
1.2932
1.29317
1.29318
1.29734
1.29319
1.2932
193.742
1.29316
1.29316
1.29316
1.29316
1.29316
1.29316
1.29316
1.29316
1.29316
1.29326
1.29329
1.2932
1.29318
1.29317
1.29319
1.29318
1.29319
1.31202
210.787
1.29315
1.29316
1.29316
1.29316
1.29316
1.29315
1.29316
1.29317
1.29319
1.29319
1.29318
1.29316
1.29317
1.29325
1.29321
1.29318
1.29319
1.29319
201.109
1.29315
1.29315
1.29315
1.29315
1.29315
1.29315
1.29315
1.29316
1.29318
1.29316
1.29317
1.29475
1.2968
1.29422
1.2932
1.29318
1.2932
1.29319
170.062
1.29314
1.29315
1.29315
1.29315
1.29315
1.29315
1.29315
1.29316
1.29316
1.29316
1.29377
1.29786
1.29788
1.29429
1.29318
1.29318
1.29319
1.29318
127.162
1.29314
1.29314
1.29314
1.29314
1.29314
1.29314
1.29315
1.29315
1.29316
1.29315
1.29447
1.29786
1.29722
1.29356
1.29319
1.29389
1.30319
1.29312
181.438
1.29314
1.29314
1.29314
1.29313
1.29313
1.29312
1.29313
1.29313
1.29314
1.29318
1.29401
1.29721
1.29407
1.29321
1.29318
1.29318
2.26071
34.7565
232.103
1.29314
1.29314
1.29313
1.29312
1.29311
1.29443
1.2931
1.29311
1.29312
1.29322
1.29328
1.29361
1.29319
1.29324
1.38547
4.70642
31.2099
65.859
232.091
1.29314
1.29313
1.29312
1.2931
1.29334
1.29448
1.31098
1.29308
1.2931
1.29328
1.29313
1.29313
1.29313
1.29331
1.37245
28.2091
88.9096
125.14
87.766
1.29313
1.29312
1.29311
1.29308
1.30297
1.4056
1.47514
1.37862
1.29815
1.29329
1.29312
1.29312
1.29312
1.29337
1.33558
1.61225
50.6139
282.618
87.7917
1.29313
1.29314
1.29311
1.29306
1.35779
1.47512
1.47512
1.47513
1.30923
1.29322
1.29354
1.29313
1.29311
1.29437
1.30937
1.29319
1.2934
282.553
234.83
1.29315
1.29315
1.29311
1.29501
1.32654
1.47511
1.4751
1.47513
1.32788
1.29308
1.29445
1.31544
1.29873
1.29367
1.29399
1.29327
1.29335
236.772
467.466
1.29318
1.29314
1.29308
1.29309
1.31676
1.46503
1.47511
1.47513
1.30916
1.29308
1.29564
1.31821
1.31769
1.29344
1.29325
1.29373
1.29327
233.98
467.466
1.29319
1.29311
1.29308
1.29314
1.2992
1.35369
1.40857
1.34548
1.29745
1.29557
1.31626
1.31821
1.31821
1.29343
1.29328
1.29612
1.29308
157.29
467.452
1.2932
1.29312
1.29309
1.29307
1.29306
1.2934
1.29473
1.29364
1.29362
1.30129
1.31821
1.31822
1.31296
1.2934
1.29561
1.29557
1.42083
87.7974
458.255
1.29328
1.29337
1.29322
1.2931
1.29308
1.29308
1.29308
1.2931
1.29311
1.29539
1.30367
1.3064
1.2977
1.29814
1.29798
1.29574
1.29325
1.29301
429.449
1.29329
1.29459
1.29482
1.29311
1.29311
1.29326
1.29412
1.29425
1.29429
1.29515
1.29682
1.29598
1.29446
1.29484
1.29265
1.29283
1.29281
1.29287
429.41
1.29339
1.29494
1.29494
1.29352
1.29466
1.30221
1.30364
1.30364
1.30364
1.30349
1.29782
1.29543
1.29403
1.2926
1.29252
1.29265
1.2926
1.29281
269.237
1.29357
1.29418
1.2942
1.29337
1.29339
1.29555
1.301
1.30359
1.30354
1.29603
1.29423
1.29332
1.29286
1.29256
1.29251
1.29251
1.29256
1.41771
12.2053
)
;

boundaryField
{
    leftWall
    {
        type            calculated;
        value           nonuniform List<scalar> 
50
(
1000.05
1000.05
1000.05
1000.05
1000.05
1000.05
1000.05
1000.05
981.914
437.213
1.29332
1.29325
1.29321
1.2932
1.2932
1.2932
1.2932
1.2932
1.29319
1.29319
1.29319
1.29319
1.29319
1.29318
1.29318
1.29318
1.29317
1.29317
1.29316
1.29315
1.29314
1.29312
1.2931
1.29309
1.29308
1.29308
1.29307
1.29307
1.29307
1.29306
1.29307
1.29307
1.29308
1.29308
1.29308
1.29308
1.29308
1.29308
1.29308
1.29308
)
;
    }
    rightWall
    {
        type            calculated;
        value           nonuniform List<scalar> 
50
(
613.56
718.359
718.359
718.357
718.357
718.355
481.696
291.127
422.926
749.89
777.851
793.049
850.784
923.185
982.271
992.728
994.858
994.857
994.857
994.857
976.803
952.064
952.065
973.599
979.029
979.012
611.307
160.069
160.054
161.234
170.672
193.742
210.787
201.109
170.062
127.162
181.438
232.103
232.091
87.766
87.7917
234.83
467.466
467.466
467.452
458.255
429.449
429.41
269.237
12.2053
)
;
    }
    lowerWall
    {
        type            calculated;
        value           nonuniform List<scalar> 
62
(
1000.05
1000.05
1000.05
1000.05
1000.05
1000.05
1000.05
1000.05
1000.05
1000.05
1000.05
1000.05
1000.05
1000.05
1000.05
1000.05
1000.05
1000.05
1000.05
1000.05
1000.05
1000.05
999.723
999.723
999.701
999.701
999.888
1000.05
1000.05
1000.05
1000.05
999.504
999.849
999.864
999.864
1.29493
1.29493
1.29493
1.29493
1.29493
1.29493
1.29493
1.29493
1.29493
1.29493
1.29493
1.29493
1.29494
1.29519
1.29566
2.26238
99.8693
401.343
466.041
465.658
473.697
544.393
604.072
611.453
611.484
613.258
613.56
)
;
    }
    atmosphere
    {
        type            calculated;
        value           nonuniform List<scalar> 
46
(
1.29317
1.29317
1.29317
1.29317
1.29317
1.29317
1.29317
1.29317
1.29317
1.29317
1.29317
1.29317
1.29317
1.29317
1.29317
1.29318
1.29318
1.29318
1.29319
1.29321
1.29323
1.29326
1.29328
1.29328
1.29329
1.2935
1.29363
1.29366
1.29427
1.29429
1.29346
1.29349
1.29565
1.29317
1.30368
1.30364
1.29612
1.29432
1.29342
1.29296
1.29265
1.29261
1.29261
1.29266
1.41782
12.2054
)
;
    }
    defaultFaces
    {
        type            empty;
    }
}


// ************************************************************************* //
