/*--------------------------------*- C++ -*----------------------------------*\
| =========                 |                                                 |
| \\      /  F ield         | OpenFOAM: The Open Source CFD Toolbox           |
|  \\    /   O peration     | Version:  2012                                  |
|   \\  /    A nd           | Website:  www.openfoam.com                      |
|    \\/     M anipulation  |                                                 |
\*---------------------------------------------------------------------------*/
FoamFile
{
    version     2.0;
    format      ascii;
    class       volScalarField;
    location    "0.5";
    object      volumeFraction1;
}
// * * * * * * * * * * * * * * * * * * * * * * * * * * * * * * * * * * * * * //

dimensions      [0 0 0 0 0 0 0];


internalField   nonuniform List<scalar> 
2268
(
1
1
1
1
1
1
1
1
1
1
1
1
1
1
1
1
1
1
1
1
1
1
0.999669
1
1
1
1
1
1
1
1
1
1
1
1
1
1
1
1
1
1
1
1
1
1
0.999647
1
1
1
1
1
1
1
1
1
1
1
1
1
1
1
1
1
1
1
1
1
1
0.999647
1
1
1
1
1
1
1
1
1
1
1
1
1
1
1
1
1
1
1
1
1
1
0.999834
1
1
1
1
1
1
1
1
1
1
1
1
1
1
1
1
1
1
1
1
1
1
1
1
1
1
1
1
1
1
1
1
1
1
1
1
1
1
1
1
1
1
1
1
1
1
1
1
1
1
1
1
1
1
1
1
1
1
1
1
1
1
1
1
1
1
1
1
1
0.999996
0.999995
0.999996
0.999997
0.999997
0.999998
0.999999
0.999999
1
1
1
1
1
1
1
1
1
1
1
1
1
1
1
2.14863e-19
7.99315e-18
3.20825e-16
1.01352e-14
2.87643e-13
3.83955e-12
1.79688e-08
0.00096814
0.0986966
0.400545
0.465323
0.46494
0.472989
0.543773
0.603525
0.610916
0.610946
0.61272
0.613018
2.44603e-18
4.62092e-17
3.86396e-16
4.76244e-15
9.62529e-14
1.95411e-11
1.87437e-06
0.00101617
0.00190476
7.45214e-10
7.45212e-10
7.45116e-10
7.45116e-10
0.0296895
0.205228
0.375845
0.458139
0.576552
0.717951
6.15126e-17
9.1237e-16
4.63838e-15
1.11243e-14
9.81326e-15
8.54652e-11
2.37112e-05
0.000369254
0.000254019
1.82332e-05
7.45214e-10
1.4278e-07
0.00176014
0.0110705
0.0209707
0.0558151
0.147133
0.483769
0.717951
7.07555e-16
9.34384e-15
3.26747e-14
4.0606e-14
1.76102e-14
5.9608e-15
6.86237e-06
3.09771e-05
3.45475e-06
6.74121e-07
6.48221e-09
5.87052e-09
5.87052e-09
5.87052e-09
5.87052e-09
5.87052e-09
0.00768835
0.188286
0.717951
5.08379e-15
3.54833e-14
4.17791e-14
4.50667e-14
4.7932e-14
5.9622e-15
6.7621e-07
4.92173e-07
1.02985e-07
1.78988e-08
1.13559e-08
1.26401e-08
1.18942e-08
1.64753e-08
8.53043e-08
1.95085e-05
0.000734294
0.0779963
0.717951
2.04218e-14
2.04218e-14
7.82556e-12
3.01789e-09
2.60497e-10
5.12126e-12
1.36998e-09
3.69033e-09
4.25871e-09
3.12446e-09
5.09645e-09
9.09951e-09
1.9423e-08
6.75406e-08
6.84488e-08
2.85608e-10
5.63677e-05
0.0378883
0.71795
9.98187e-12
6.48132e-09
7.2189e-06
0.000367703
7.47737e-05
5.9622e-15
5.9608e-15
5.18693e-11
3.58523e-10
7.55456e-10
9.53116e-10
3.82541e-09
4.53575e-09
2.85608e-10
2.85608e-10
2.85608e-10
6.06852e-06
0.0134224
0.480998
4.54701e-14
4.547e-14
0.0085868
0.091663
0.021429
0.00230867
7.26341e-05
8.92869e-09
1.73491e-10
3.09362e-10
2.9258e-10
6.50518e-10
1.50295e-09
9.38551e-10
2.85608e-10
2.85608e-10
2.85608e-10
0.00295083
0.290192
0.981838
0.981675
0.983476
0.985128
0.986829
0.988312
0.990603
0.992334
0.994528
0.996436
0.997964
0.999137
0.99974
0.999955
1
1
1
1
1
1
1
1
0.999949
0.436461
0.437682
0.449745
0.463003
0.482301
0.507017
0.547665
0.587885
0.63597
0.688753
0.750964
0.821616
0.895156
0.956164
0.990675
1
1
1
1
1
1
1
0.999775
1.09366e-35
6.01833e-36
5.06498e-35
-1.60144e-34
-6.40107e-33
2.53282e-32
-1.92454e-31
0.00113133
0.0168609
0.0373643
0.0683401
0.111684
0.176336
0.279121
0.448473
0.677434
0.935812
1
1
1
1
1
0.999946
3.62986e-19
1.83979e-17
5.34875e-16
9.44652e-15
9.8829e-14
7.5668e-13
7.46839e-13
2.57886e-30
2.31012e-30
-2.82391e-32
-2.82343e-27
-1.39049e-27
-9.19748e-28
4.14557e-22
0.00658532
0.037194
0.124489
0.31458
0.599328
0.930834
1
1
1
3.02546e-18
1.63931e-16
5.00804e-15
9.20633e-14
1.17128e-12
1.17893e-11
2.13912e-11
2.21222e-11
1.29877e-11
-3.18372e-31
2.34807e-08
2.77492e-08
9.21908e-08
1.67223e-07
3.61693e-24
5.51587e-25
0.000398505
0.007606
0.0489878
0.144315
0.311338
0.543927
0.869292
4.58447e-18
2.49083e-16
7.62017e-15
1.37651e-13
1.77705e-12
1.84703e-11
3.22388e-11
6.25027e-11
6.31207e-11
3.45486e-30
6.85366e-08
1.10708e-06
1.96377e-06
2.41035e-06
1.41064e-06
4.21705e-08
9.18928e-09
1.09241e-05
0.000172056
0.00102571
0.00663593
0.0289322
0.105134
4.71512e-18
2.54883e-16
7.69431e-15
1.35261e-13
1.67919e-12
1.80662e-11
2.77498e-11
9.36727e-11
2.23146e-10
2.35822e-29
4.0599e-08
2.09294e-06
2.41035e-06
2.41034e-06
1.27066e-06
5.69046e-08
9.18931e-09
9.1774e-09
9.16417e-09
1.34332e-07
7.01198e-06
1.1971e-12
1.1971e-12
4.00276e-18
2.07254e-16
5.97646e-15
9.73086e-14
1.06038e-12
1.23225e-11
1.21355e-11
1.16248e-10
6.62156e-10
7.28725e-14
1.00114e-07
1.1323e-07
5.21624e-07
2.10232e-08
1.30688e-11
1.8675e-08
4.20004e-08
2.48088e-08
9.16391e-09
2.88752e-08
9.55547e-08
3.4505e-07
2.7466e-07
2.1338e-18
1.04254e-16
2.84918e-15
4.41143e-14
4.43197e-13
5.15851e-12
3.22418e-12
1.18917e-10
1.05264e-09
5.18143e-09
1.30899e-11
1.30688e-11
1.30711e-11
1.30688e-11
1.30711e-11
8.28687e-09
4.19226e-08
4.27336e-08
1.56872e-08
3.10052e-08
6.66631e-09
2.26337e-11
1.89986e-06
8.86238e-19
4.18889e-17
1.11274e-15
1.67871e-14
1.60272e-13
1.81709e-12
5.70267e-13
1.12026e-10
1.00368e-09
4.37473e-09
1.5341e-09
2.15345e-10
1.20969e-10
3.89443e-10
4.27359e-10
3.69902e-10
7.71978e-09
2.37549e-08
1.45505e-08
1.24913e-09
2.25465e-11
2.25209e-11
8.48115e-08
3.05504e-19
1.3968e-17
3.6195e-16
5.32951e-15
4.96546e-14
5.32128e-13
3.4183e-13
7.76747e-11
4.03892e-10
4.18531e-10
3.46233e-10
1.70091e-10
1.58542e-10
4.42648e-10
6.90487e-10
5.03794e-10
1.48105e-10
1.4819e-10
3.83319e-10
8.53806e-10
5.27815e-10
6.52533e-11
1.1971e-12
8.69879e-20
3.87368e-18
9.85667e-17
1.42806e-15
1.33565e-14
1.22462e-13
3.28031e-13
2.06081e-11
8.32761e-11
6.54612e-11
7.54885e-11
6.941e-11
7.41811e-11
1.23459e-10
3.38205e-10
4.03421e-10
3.16958e-10
1.8705e-10
1.7803e-10
1.7803e-10
1.63559e-10
1.18913e-10
5.7522e-11
2.02899e-20
8.77373e-19
2.19089e-17
3.13478e-16
2.99106e-15
2.3874e-14
1.66459e-13
4.50261e-12
9.76584e-12
1.70397e-11
1.95814e-11
1.77881e-11
1.82229e-11
2.44777e-11
4.12325e-11
8.15014e-11
1.53025e-10
1.94646e-10
1.97862e-10
1.86777e-10
1.48778e-10
9.12018e-11
5.69221e-11
3.83961e-21
1.6346e-19
4.0519e-18
5.81076e-17
5.74175e-16
4.45461e-15
5.53376e-14
5.58594e-13
1.66006e-12
2.9621e-12
3.28675e-12
3.03462e-12
3.19163e-12
4.14332e-12
6.58578e-12
1.18319e-11
2.13587e-11
3.31791e-11
3.4952e-11
3.13781e-11
2.76208e-11
2.08371e-11
1.42768e-11
5.80601e-22
2.44709e-20
6.07646e-19
8.87404e-18
9.22402e-17
7.37633e-16
1.32122e-14
5.5873e-14
1.5693e-13
2.72804e-13
3.06205e-13
3.16251e-13
3.89095e-13
6.2743e-13
1.12713e-12
1.82687e-12
2.43448e-12
2.90421e-12
3.27547e-12
3.48455e-12
3.49014e-12
3.09534e-12
2.42375e-12
6.86679e-23
2.91404e-21
7.38145e-20
1.12095e-18
1.24283e-17
1.03631e-16
2.0412e-15
6.15784e-15
1.05548e-14
1.18251e-14
1.33952e-14
1.96946e-14
4.20502e-14
9.47706e-14
1.84428e-13
2.70932e-13
3.27422e-13
3.68705e-13
3.96369e-13
4.09479e-13
4.02132e-13
3.58839e-13
3.0006e-13
6.16133e-24
2.68252e-22
7.07268e-21
1.13912e-19
1.35618e-18
1.15706e-17
1.9127e-16
6.52039e-16
9.56687e-16
9.6506e-16
1.08584e-15
1.9729e-15
5.21374e-15
1.27782e-14
2.49382e-14
3.51425e-14
4.13552e-14
4.54849e-14
4.73565e-14
4.68662e-14
4.25823e-14
3.36269e-14
2.72232e-14
4.02108e-25
1.86586e-23
5.28406e-22
9.21975e-21
1.17745e-19
1.0085e-18
1.04556e-17
3.78687e-17
6.92615e-17
8.06495e-17
1.04948e-16
2.10359e-16
5.38686e-16
1.23902e-15
2.25062e-15
2.99162e-15
3.44005e-15
3.72936e-15
3.81746e-15
3.69984e-15
3.23385e-15
2.34807e-15
1.80089e-15
1.78537e-26
9.15586e-25
2.86043e-23
5.44036e-22
7.32345e-21
6.2111e-20
3.99361e-19
1.16232e-18
1.90106e-18
2.79353e-18
5.35472e-18
1.41404e-17
3.66254e-17
7.74049e-17
1.23993e-16
1.5305e-16
1.72555e-16
1.873e-16
1.94138e-16
1.93103e-16
1.74325e-16
1.22791e-16
1.27933e-16
4.92121e-28
2.98481e-26
1.06511e-24
2.21635e-23
3.10291e-22
2.56379e-21
1.37358e-20
3.37659e-20
6.11523e-20
1.17224e-19
2.9825e-19
8.35176e-19
1.98776e-18
3.42048e-18
4.21744e-18
4.71009e-18
5.19101e-18
5.73714e-18
6.20148e-18
6.49481e-18
5.93461e-18
6.07446e-18
1.74751e-17
7.6584e-30
5.31599e-28
2.1057e-26
4.63579e-25
6.59763e-24
5.28864e-23
2.27421e-22
6.4771e-22
1.6799e-21
4.75181e-21
1.40346e-20
3.77867e-20
7.76027e-20
1.00367e-19
1.05556e-19
1.09857e-19
1.17142e-19
1.31196e-19
1.49012e-19
1.53055e-19
1.64206e-19
5.9086e-19
1.21397e-17
1.05684e-31
4.98509e-30
1.46117e-28
2.80759e-27
4.45136e-26
4.82247e-25
2.89907e-24
1.30636e-23
5.19956e-23
1.81653e-22
5.24662e-22
1.26885e-21
2.30987e-21
2.83213e-21
2.97625e-21
2.9661e-21
2.88911e-21
2.87105e-21
2.75686e-21
2.84766e-21
1.06164e-20
3.797e-19
1.17361e-17
3.5218e-33
1.71991e-31
5.07069e-30
9.54501e-29
1.44476e-27
1.54043e-26
9.4692e-26
4.30737e-25
1.65478e-24
5.41375e-24
1.40601e-23
3.05687e-23
5.32602e-23
6.66116e-23
7.06519e-23
6.90364e-23
6.00053e-23
3.93137e-23
2.49095e-23
7.88796e-23
5.55642e-21
3.18384e-19
9.66253e-18
5.7271e-35
2.88538e-33
8.37869e-32
1.46882e-30
1.85441e-29
1.6644e-28
1.16639e-27
6.29278e-27
2.6469e-26
8.72543e-26
2.19543e-25
4.7207e-25
8.83061e-25
1.2222e-24
1.33745e-24
1.32485e-24
1.14257e-24
6.8858e-25
1.0283e-24
2.64802e-23
3.16717e-21
1.85594e-19
5.31385e-18
1.87111e-40
6.53737e-39
1.28292e-37
1.49954e-36
1.17265e-35
4.44775e-35
1.29483e-34
7.14575e-34
4.29285e-33
1.9448e-32
6.39486e-32
1.71677e-31
3.78781e-31
4.86339e-31
5.78559e-31
3.592e-30
1.52023e-28
5.71167e-27
1.81999e-25
1.06274e-23
1.30012e-21
7.35229e-20
1.98898e-18
1.04388e-44
5.00059e-43
1.40807e-41
2.62074e-40
3.89298e-39
5.30332e-38
1.30546e-36
1.99301e-35
1.46196e-34
6.92412e-34
2.27914e-33
6.0747e-33
1.29065e-32
1.6054e-32
2.63423e-32
7.30535e-31
3.73911e-29
1.52195e-27
5.5391e-26
3.78737e-24
4.22558e-22
2.29008e-20
5.97477e-19
4.40327e-48
2.09624e-46
5.57616e-45
9.32695e-44
1.11552e-42
9.92905e-42
6.86275e-41
3.81404e-40
1.69231e-39
6.4924e-39
2.15658e-38
1.15217e-37
5.00316e-37
1.7356e-35
1.77337e-33
1.50833e-31
8.39126e-30
3.76326e-28
1.58665e-26
1.19527e-24
1.19544e-22
6.28598e-21
1.65885e-19
1.0212e-53
6.48201e-52
2.30063e-50
5.27163e-49
8.78245e-48
1.12706e-46
1.14953e-45
9.80103e-45
6.78023e-44
4.11962e-43
2.37706e-42
9.43567e-41
1.5551e-38
2.56486e-36
3.0433e-34
2.83979e-32
1.70854e-30
8.90465e-29
4.74177e-27
3.8792e-25
3.46951e-23
1.85485e-21
6.78906e-20
2.7253e-57
1.92547e-55
7.51371e-54
1.91701e-52
3.58304e-51
5.3112e-50
6.40459e-49
6.6926e-48
5.79174e-47
5.54357e-46
3.50138e-44
8.78637e-42
1.86723e-39
3.64968e-37
5.3381e-35
6.31678e-33
5.55627e-31
4.97802e-29
4.98416e-27
5.45968e-25
5.21448e-23
3.4874e-21
2.30177e-19
9.39913e-64
8.52986e-62
4.67094e-60
1.85946e-58
5.76542e-57
1.4509e-55
2.95689e-54
1.07723e-52
3.07595e-50
1.50428e-47
6.7554e-45
2.67646e-42
9.11196e-40
2.5592e-37
6.38017e-35
1.35376e-32
2.6866e-30
4.22014e-28
6.06236e-26
7.48477e-24
7.30948e-22
5.09283e-20
3.07749e-18
4.69669e-69
7.24416e-67
6.22886e-65
3.67887e-63
2.50888e-61
1.15909e-58
1.55689e-55
1.72361e-52
1.61565e-49
1.1331e-46
6.65125e-44
2.94417e-41
1.11574e-38
3.27844e-36
8.70642e-34
1.91358e-31
3.88285e-29
6.22112e-27
9.37472e-25
1.15744e-22
1.08422e-20
7.46427e-19
4.07699e-17
2.73142e-73
1.01364e-70
1.52554e-67
4.90986e-64
1.26115e-60
2.3375e-57
3.33148e-54
3.56314e-51
3.11751e-48
2.07089e-45
1.15125e-42
4.87596e-40
1.76197e-37
4.99078e-35
1.27548e-32
2.73604e-30
5.47059e-28
8.87617e-26
1.38933e-23
1.6806e-21
1.48231e-19
9.8636e-18
4.87823e-16
1.08394e-73
6.43878e-70
3.48351e-66
1.1877e-62
2.90469e-59
5.11148e-56
6.96727e-53
7.12059e-50
5.89136e-47
3.70962e-44
1.94913e-41
7.87488e-39
2.70876e-36
7.39035e-34
1.82023e-31
3.82542e-29
7.56064e-27
1.24225e-24
1.97704e-22
2.29788e-20
1.87973e-18
1.17235e-16
5.17706e-15
1.42541e-72
1.56161e-68
8.14296e-65
2.71008e-61
6.43564e-58
1.09562e-54
1.43095e-51
1.39899e-48
1.09576e-45
6.54291e-43
3.2404e-40
1.24516e-37
4.07126e-35
1.07061e-32
2.54814e-30
5.27839e-28
1.03528e-25
1.7181e-23
2.69744e-21
2.96815e-19
2.22492e-17
1.25805e-15
4.85621e-14
3.47391e-71
3.58304e-67
1.82516e-63
5.93846e-60
1.37106e-56
2.26211e-53
2.83605e-50
2.65896e-47
1.97721e-44
1.12225e-41
5.23331e-39
1.90784e-36
5.92448e-34
1.50477e-31
3.47393e-29
7.13884e-27
1.39254e-24
2.32054e-22
3.48879e-20
3.59579e-18
2.44343e-16
1.21202e-14
3.96077e-13
7.74278e-70
7.79556e-66
3.87009e-62
1.22877e-58
2.75977e-55
4.42202e-52
5.33538e-49
4.81229e-46
3.40979e-43
1.84621e-40
8.11473e-38
2.80175e-35
8.25549e-33
2.03265e-30
4.57416e-28
9.3806e-26
1.81935e-23
3.02046e-21
4.25942e-19
4.08723e-17
2.49833e-15
1.0583e-13
2.80245e-12
1.62936e-68
1.59571e-64
7.68772e-61
2.37021e-57
5.17312e-54
8.06703e-51
9.39176e-48
8.17479e-45
5.53879e-42
2.87154e-39
1.19318e-36
3.90175e-34
1.08893e-31
2.61125e-29
5.76151e-27
1.18438e-24
2.27674e-22
3.73039e-20
4.89693e-18
4.36039e-16
2.38158e-14
7.56063e-13
1.36904e-11
3.22235e-67
3.06142e-63
1.42485e-59
4.23395e-56
8.94149e-53
1.36013e-49
1.53219e-46
1.29097e-43
8.39248e-41
4.18244e-38
1.6515e-35
5.1382e-33
1.35847e-30
3.19452e-28
6.9638e-26
1.43968e-23
2.72859e-21
4.36566e-19
4.71501e-17
3.21978e-15
1.3314e-13
3.23241e-12
4.56537e-11
5.97938e-66
5.50677e-62
2.47111e-58
7.03125e-55
1.42251e-51
2.1148e-48
2.3115e-45
1.89059e-42
1.18294e-39
5.68763e-37
2.14735e-34
6.41689e-32
1.57968e-29
3.32405e-27
6.26499e-25
1.05327e-22
1.48977e-20
1.63187e-18
1.32411e-16
7.67362e-15
2.98627e-13
7.15534e-12
1.06387e-10
1.04365e-64
9.32625e-61
4.04662e-57
1.10555e-53
2.08447e-50
2.84308e-47
2.85021e-44
2.13392e-41
1.21513e-38
5.30312e-36
1.79867e-33
4.76608e-31
1.00503e-28
1.7157e-26
2.45296e-24
2.96912e-22
2.97719e-20
2.44648e-18
1.59531e-16
7.78429e-15
2.63903e-13
5.82901e-12
9.30694e-11
9.04846e-64
7.29183e-60
2.80694e-56
6.72792e-53
1.11095e-49
1.32504e-46
1.17887e-43
7.95349e-41
4.13322e-38
1.66666e-35
5.27389e-33
1.31478e-30
2.60516e-28
4.10867e-26
5.1584e-24
5.19061e-22
4.2217e-20
2.78145e-18
1.4773e-16
6.16361e-15
1.90809e-13
4.06792e-12
6.60344e-11
2.30504e-63
1.71406e-59
6.07356e-56
1.34515e-52
2.06571e-49
2.3135e-46
1.94868e-43
1.25667e-40
6.30028e-38
2.48055e-35
7.75319e-33
1.93925e-30
3.91253e-28
6.40787e-26
8.52911e-24
9.24804e-22
8.08743e-20
5.66331e-18
3.1039e-16
1.3011e-14
3.91348e-13
7.61268e-12
7.24635e-11
0.99945
0.999795
0.99981
0.99981
0.999449
0.99945
0.999804
0.99981
0.999857
0.999893
0.999876
0.999682
1
1
0.999996
0.999964
0.981687
0.994607
0.996328
0.996956
0.179043
0.243584
0.312873
0.386946
1.1971e-12
1.1971e-12
0.00168353
0.00464019
9.10548e-08
2.68711e-08
1.1971e-12
1.1971e-12
7.26007e-06
7.26306e-06
7.26007e-06
5.65863e-06
2.85092e-07
6.02246e-07
4.62363e-07
1.1971e-12
1.1971e-12
1.32943e-08
1.60441e-08
1.1971e-12
1.29553e-11
1.1971e-12
1.1971e-12
1.1971e-12
3.35485e-11
1.72683e-11
8.47986e-12
3.73963e-12
1.13536e-11
1.00111e-11
8.79553e-12
7.48636e-12
1.88774e-12
1.69794e-12
1.66391e-12
1.61107e-12
2.54462e-13
2.26267e-13
2.15477e-13
2.12718e-13
2.41625e-14
2.20531e-14
2.17468e-14
2.31471e-14
1.79231e-15
1.87002e-15
2.08449e-15
2.51942e-15
1.51591e-16
1.95166e-16
2.82498e-16
4.48914e-16
3.72993e-17
6.67914e-17
1.23518e-16
2.32255e-16
3.21158e-17
6.23132e-17
1.22209e-16
2.49388e-16
3.14604e-17
6.14765e-17
1.22136e-16
2.49507e-16
2.60047e-17
5.1158e-17
1.02769e-16
2.13506e-16
1.43767e-17
2.85863e-17
5.85441e-17
1.25549e-16
5.35765e-18
1.06213e-17
2.19299e-17
4.96192e-17
1.59965e-18
3.18155e-18
7.29983e-18
2.26629e-17
4.63488e-19
1.15254e-18
4.94283e-18
3.99338e-17
2.8788e-19
1.93807e-18
2.5565e-17
2.96917e-16
2.30578e-18
2.60103e-17
3.36651e-16
3.73171e-15
3.741e-17
4.22653e-16
4.92875e-15
5.16292e-14
5.58865e-16
6.17594e-15
6.4415e-14
6.29523e-13
7.25214e-15
7.61498e-14
6.9515e-13
6.22454e-12
7.9592e-14
7.65065e-13
6.02108e-12
4.90401e-11
7.30402e-13
6.13329e-12
4.24617e-11
3.46466e-10
5.38377e-12
3.77379e-11
2.79039e-10
3.84678e-09
3.08739e-11
1.84768e-10
2.25238e-09
3.1292e-08
1.06849e-10
6.11398e-10
1.03896e-08
5.35776e-08
3.10337e-10
1.8717e-09
1.74903e-08
5.60755e-08
1.35513e-09
1.07025e-08
2.23119e-08
3.86444e-08
4.04308e-09
4.51805e-08
6.10302e-08
3.33916e-08
5.99766e-09
1.02784e-07
1.53762e-07
3.34472e-08
6.09192e-10
2.09867e-08
2.43181e-07
3.91099e-07
0.148432
0.0838484
0.381185
0.635863
0.286998
0.0130741
4.31523e-05
3.01309e-09
7.94435e-11
1.26045e-10
1.25198e-10
1.70126e-10
3.23177e-10
3.98876e-10
2.88218e-10
2.85608e-10
8.28492e-09
-6.22888e-27
0.422155
0.898912
0.921145
1
1
0.673014
0.0533438
0.000119837
1.62255e-09
2.38602e-11
3.76706e-11
4.01268e-11
4.93725e-11
7.49189e-11
1.0433e-10
7.23134e-11
6.70754e-10
2.2642e-08
-2.67127e-27
0.749525
0.999998
0.999998
0.999998
1
0.861156
0.150278
0.000764524
1.24854e-08
1.10662e-11
1.10678e-11
1.49967e-11
2.55891e-11
4.65513e-11
7.7223e-11
7.2315e-11
1.20004e-08
2.26575e-08
-3.60327e-27
0.777521
0.99995
0.999975
0.999999
1
0.952454
0.257772
0.00340871
2.56073e-07
1.32315e-09
1.59371e-10
7.89454e-11
1.08404e-10
3.40388e-10
7.72232e-11
2.94221e-09
2.25862e-08
1.99542e-08
2.04933e-21
0.792738
0.998798
0.999689
0.999957
0.999998
1
0.654294
0.0417846
0.000137157
3.15161e-08
1.7977e-10
1.82062e-10
5.37692e-10
1.15962e-09
6.92727e-10
6.92727e-10
2.05729e-08
3.01121e-16
0.00657905
0.850545
0.632572
0.852651
0.948483
0.994563
0.999953
0.999374
0.402539
0.0050076
2.88575e-05
1.80908e-10
1.65781e-10
7.1749e-10
1.21685e-09
9.11311e-10
7.65259e-10
1.85481e-09
3.03973e-16
0.16182
0.923036
0.0106156
0.0474315
0.177344
0.608098
0.972086
0.996896
0.95229
0.431752
3.05508e-16
3.07673e-16
2.95578e-11
3.2328e-10
5.79029e-10
3.77037e-10
1.76327e-10
2.06607e-09
3.01161e-16
0.496342
0.982195
1.1971e-12
1.1971e-12
1.1971e-12
0.016382
0.194533
0.752367
0.985715
0.985715
0.67455
0.197123
3.05259e-16
3.02416e-16
3.05259e-16
3.02416e-16
3.05266e-16
3.02405e-16
0.121979
0.792676
0.992665
3.55328e-06
1.35565e-06
1.36545e-06
1.78397e-10
1.78397e-10
0.0747267
0.399072
0.861508
0.899847
0.89976
0.662192
0.330597
0.23648
0.261205
0.355605
0.565116
0.864462
0.994797
0.994797
2.75912e-06
3.18096e-05
3.59546e-05
9.57403e-06
1.75614e-08
1.78397e-10
0.00547397
0.153757
0.490447
0.754586
0.892048
0.943748
0.944705
0.963135
0.990045
0.994797
0.994797
0.994797
0.994797
1.26163e-05
3.59546e-05
3.59507e-05
1.13795e-05
6.8319e-09
1.78397e-10
1.78397e-10
0.00185727
0.0196904
0.130329
0.333468
0.543356
0.602816
0.616698
0.650314
0.754565
0.916361
0.98207
0.994797
3.703e-07
7.82694e-06
8.59064e-06
2.53962e-06
1.93146e-08
1.94723e-10
1.78397e-10
6.23411e-06
0.000758779
0.00639192
0.022832
0.0314671
0.0374271
0.0366637
0.0366645
0.0949051
0.414979
0.932656
0.994797
1.58209e-12
1.5821e-12
1.58209e-12
3.99856e-08
4.16617e-09
6.29839e-10
3.61952e-08
2.31934e-07
4.15105e-06
0.00197427
0.12313
0.239914
0.271885
0.202386
0.107879
0.121306
0.58045
0.971238
0.976721
4.73812e-12
1.58209e-12
6.77965e-11
2.98493e-09
3.93073e-09
7.50151e-10
3.30486e-09
2.46024e-09
1.8056e-07
0.000209602
0.0452642
0.576738
0.907708
0.907708
0.763055
0.691289
0.89652
0.990298
0.95195
1.13764e-12
8.58503e-13
1.27907e-11
4.59267e-10
1.89425e-09
3.61363e-10
3.24396e-10
2.08382e-10
9.30331e-09
3.43006e-05
0.0125753
0.263614
0.712096
0.915935
0.983634
0.983634
0.990093
0.990302
0.951951
1.97387e-13
2.46415e-13
1.876e-12
9.00547e-11
5.80891e-10
3.19486e-10
2.31795e-10
2.06402e-10
2.34744e-09
0.000355024
0.00206105
2.12331e-06
0.012207
0.221369
0.658546
0.934833
0.965021
0.990302
0.973512
2.98101e-14
6.00435e-14
3.99639e-13
1.68028e-11
1.73464e-10
2.61257e-10
2.14007e-10
2.06395e-10
1.93807e-10
2.84128e-05
1.41524e-06
2.12219e-06
3.84079e-10
3.8458e-10
0.0108653
0.439326
0.824034
0.725068
0.97895
6.11949e-15
3.09671e-14
2.62706e-13
4.15282e-12
4.54281e-11
1.56262e-10
1.91797e-10
2.05603e-10
1.9368e-10
2.15967e-06
0.00012828
6.03008e-05
3.8458e-10
9.2206e-07
6.89375e-06
0.0591099
0.505298
0.69661
0.978932
4.34174e-15
4.29623e-14
4.1541e-13
1.84221e-12
7.19943e-11
1.8143e-10
2.52792e-10
2.55563e-10
1.93807e-10
1.9368e-10
3.14627e-05
2.45965e-05
7.59036e-06
1.30966e-06
7.47929e-05
0.0254349
0.362412
0.635204
0.610771
1.16491e-14
6.23157e-14
2.02261e-12
6.92822e-12
7.0186e-11
3.00459e-10
6.15073e-10
6.51424e-10
3.83629e-10
2.74512e-10
2.44483e-08
2.14475e-08
2.88696e-10
9.65649e-09
1.51425e-05
0.00865283
0.161252
0.356716
0.158973
8.83063e-14
1.73642e-13
4.7464e-12
3.33565e-11
9.14591e-11
2.47864e-10
7.33064e-10
2.29158e-09
1.95837e-09
5.97876e-10
2.37044e-10
2.37026e-10
2.88713e-10
2.88696e-10
1.33022e-07
0.000556562
0.0442865
0.229059
0.158959
4.26897e-14
3.15972e-13
2.16277e-12
2.96686e-11
1.54682e-10
3.21819e-10
5.19612e-10
1.61512e-09
2.57191e-09
2.37563e-10
2.37026e-10
2.37044e-10
9.5564e-10
2.14555e-09
5.23808e-10
1.6158e-06
0.0159002
0.127126
0.16014
3.21094e-14
2.95848e-13
9.99447e-13
9.22978e-12
1.11627e-10
4.73179e-10
5.85577e-10
4.4876e-10
2.92345e-10
2.36993e-08
1.46933e-07
1.2197e-07
2.23263e-08
1.43152e-09
5.23818e-10
6.98286e-05
0.00474031
0.00416686
0.169589
9.75475e-15
1.35601e-13
6.49029e-13
2.23285e-12
1.06061e-11
4.3673e-10
1.30428e-09
5.04903e-10
2.91145e-10
1.06592e-07
1.63405e-07
1.54443e-07
2.18204e-08
6.32851e-10
5.23808e-10
4.16812e-06
5.61189e-10
5.61573e-10
0.192688
5.07621e-15
8.32207e-14
4.42809e-13
3.09374e-12
6.73471e-12
1.06023e-10
9.27864e-11
1.87926e-09
2.4822e-09
9.93414e-08
1.31624e-07
3.62882e-08
2.88712e-09
6.32911e-10
2.9786e-09
2.7077e-09
5.61197e-10
1.8853e-05
0.209754
8.97218e-15
2.16292e-13
8.60631e-13
3.06929e-12
6.82343e-11
6.29904e-11
3.18883e-11
1.71534e-08
3.23463e-08
3.24347e-08
2.43149e-08
5.23818e-10
5.23808e-10
8.27567e-08
3.02388e-08
9.70387e-10
5.61198e-10
2.95104e-11
0.200064
2.87296e-14
6.22338e-13
3.08774e-12
3.06955e-12
2.43254e-10
8.42352e-10
3.20312e-11
1.01464e-08
2.41369e-08
1.07025e-08
1.07026e-08
1.59545e-06
3.63602e-06
1.06169e-06
1.11391e-08
6.78427e-10
4.54588e-10
2.95104e-11
0.168978
8.40476e-14
1.12181e-12
7.11956e-12
8.28324e-12
5.24221e-12
1.19724e-09
7.06e-09
1.2917e-08
1.07025e-08
1.07026e-08
6.19461e-07
4.72247e-06
4.72334e-06
1.12952e-06
3.47663e-09
2.95104e-11
2.95104e-11
2.95104e-11
0.126025
3.43852e-13
3.21069e-12
3.63945e-11
3.65336e-11
5.24385e-12
8.76494e-09
1.64974e-08
1.54905e-08
1.73675e-08
1.07025e-08
1.33105e-06
4.72334e-06
4.07376e-06
4.03499e-07
2.6641e-09
7.10187e-07
9.99611e-06
2.95104e-11
0.180368
2.26097e-12
1.49659e-11
2.39432e-10
2.58385e-10
7.7604e-10
7.76144e-10
5.83631e-09
6.59757e-09
1.86752e-08
4.66028e-08
8.78803e-07
4.07944e-06
9.24114e-07
5.75749e-08
2.66354e-09
2.6641e-09
0.000968831
0.0335051
0.231096
1.56569e-11
6.11459e-11
1.21029e-09
8.04162e-10
7.76144e-10
1.33771e-06
5.83628e-09
5.83505e-09
5.91791e-09
1.01244e-07
1.55118e-07
4.83101e-07
4.81424e-08
1.00186e-07
9.24321e-05
0.00341758
0.029954
0.0646462
0.231084
9.44339e-11
2.76184e-10
2.36165e-09
8.04113e-10
2.5379e-07
1.41149e-06
1.7934e-05
5.91791e-09
9.2352e-09
1.71001e-07
1.37889e-08
1.37889e-08
1.37889e-08
2.06328e-07
7.94801e-05
0.0269494
0.0877252
0.124001
0.0865801
4.97832e-10
2.40253e-09
5.81564e-09
8.04078e-10
9.92257e-06
0.000112686
0.000182323
8.56659e-05
5.08381e-06
1.91726e-07
1.37889e-08
1.37889e-08
1.37889e-08
2.7071e-07
4.2597e-05
0.000319473
0.0493817
0.281674
0.0866058
3.28198e-09
3.38366e-08
2.70029e-08
8.08713e-10
6.48289e-05
0.000182323
0.000182323
0.000182323
1.61837e-05
1.3163e-07
4.42866e-07
2.64108e-08
1.37889e-08
1.28227e-06
1.63258e-05
3.27398e-11
3.27398e-11
0.281609
0.233827
3.09931e-08
5.96473e-08
3.2099e-08
1.95819e-06
3.35482e-05
0.000182323
0.000182323
0.000182323
3.48607e-05
3.64786e-11
1.36031e-06
2.23693e-05
5.63718e-06
5.8532e-07
9.32078e-07
1.10562e-07
3.27398e-11
0.235771
0.466751
7.02261e-08
5.07996e-08
5.98261e-10
4.45595e-08
2.37624e-05
0.00017223
0.000182323
0.000182323
1.61134e-05
3.64786e-11
2.54645e-06
2.51413e-05
2.46251e-05
3.43995e-07
1.72612e-07
5.92719e-07
3.27398e-11
0.232975
0.466751
8.3911e-08
1.47288e-08
1.18363e-10
8.25986e-08
6.17118e-06
6.07379e-05
0.000115684
5.249e-05
4.38415e-06
2.48966e-06
2.3191e-05
2.51413e-05
2.51413e-05
3.27543e-07
1.72824e-07
3.00748e-06
3.27398e-11
0.15619
0.466737
8.88053e-08
2.06282e-08
1.18362e-10
2.58311e-10
1.21329e-09
3.48744e-07
1.67608e-06
5.70266e-07
5.38294e-07
8.20422e-06
2.51413e-05
2.51413e-05
1.98622e-05
2.7506e-07
2.45914e-06
2.45898e-06
0.000127993
0.0866116
0.457529
1.66665e-07
2.65618e-07
1.23632e-07
1.09018e-08
1.18363e-10
1.18362e-10
1.18363e-10
1.18362e-10
1.18363e-10
2.27886e-06
1.05581e-05
1.32852e-05
4.57275e-06
5.01764e-06
5.03209e-06
2.85431e-06
3.46048e-07
-2.01659e-25
0.428688
1.6367e-07
1.48029e-06
1.71566e-06
4.31359e-09
5.36266e-09
1.60273e-07
1.01677e-06
1.13815e-06
1.17135e-06
2.03199e-06
3.69729e-06
2.85823e-06
1.3418e-06
1.96377e-06
9.23871e-08
2.60046e-07
1.26877e-07
2.74558e-26
0.428648
2.7341e-07
1.83836e-06
1.84127e-06
4.26297e-07
1.5628e-06
9.11062e-06
1.05368e-05
1.05369e-05
1.05385e-05
1.03963e-05
4.72913e-06
2.35512e-06
1.03289e-06
1.32419e-08
7.4374e-15
1.37712e-07
9.46599e-09
2.90183e-26
0.268277
4.44762e-07
1.07663e-06
1.11655e-06
2.97622e-07
3.23184e-07
2.48885e-06
7.94426e-06
1.05385e-05
1.05385e-05
3.09503e-06
1.35331e-06
5.04293e-07
1.68307e-07
-7.86825e-28
7.43723e-15
1.62373e-33
-1.83074e-24
0.000125145
0.0109263
)
;

boundaryField
{
    leftWall
    {
        type            zeroGradient;
    }
    rightWall
    {
        type            zeroGradient;
    }
    lowerWall
    {
        type            zeroGradient;
    }
    atmosphere
    {
        type            inletOutlet;
        inletValue      uniform 0;
        value           nonuniform List<scalar> 
46
(
0
0
0
0
0
0
0
0
0
0
0
0
0
0
0
0
0
0
0
0
0
0
7.24635e-11
6.09192e-10
2.09867e-08
2.43181e-07
3.91099e-07
4.44762e-07
1.07663e-06
1.11655e-06
2.97622e-07
3.23184e-07
2.48885e-06
0
1.05385e-05
1.05385e-05
3.09503e-06
1.35331e-06
5.04293e-07
1.68307e-07
0
0
0
0
0.000125145
0.0109263
)
;
    }
    defaultFaces
    {
        type            empty;
    }
}


// ************************************************************************* //
