/*--------------------------------*- C++ -*----------------------------------*\
| =========                 |                                                 |
| \\      /  F ield         | OpenFOAM: The Open Source CFD Toolbox           |
|  \\    /   O peration     | Version:  2012                                  |
|   \\  /    A nd           | Website:  www.openfoam.com                      |
|    \\/     M anipulation  |                                                 |
\*---------------------------------------------------------------------------*/
FoamFile
{
    version     2.0;
    format      ascii;
    class       volScalarField;
    location    "1.7";
    object      rho1;
}
// * * * * * * * * * * * * * * * * * * * * * * * * * * * * * * * * * * * * * //

dimensions      [1 -3 0 0 0 0 0];


internalField   nonuniform List<scalar> 
160
(
1033.298023
1033.298209
1033.298239
1033.298292
1033.298329
1033.298405
1033.298451
1033.298529
1033.298576
1033.298655
1033.298713
1033.298798
1033.298808
1033.298609
1033.298644
1033.298437
1033.298394
1033.2981
1033.298021
1033.297845
1033.297681
1033.297516
1033.296923
1033.296706
1033.295897
1033.295627
1033.294587
1033.294301
1033.29332
1033.292852
1033.291646
1033.291022
1033.289553
1033.288765
1033.287024
1033.286021
1033.283975
1033.282784
1033.280412
1033.279031
1033.276335
1033.274748
1033.271715
1033.26996
1033.266671
1033.264771
1033.261322
1033.259304
1033.255737
1033.253664
1033.24987
1033.248251
1033.24422
1033.242531
1033.239185
1033.237685
1033.234892
1033.233981
1033.232911
1033.232035
1033.231921
1033.229722
1033.229203
1033.228077
1033.228859
1033.228847
1033.230595
1033.231227
1033.232851
1033.240994
1033.24267
1033.251866
1033.254597
1033.266577
1033.270693
1033.285795
1033.29151
1033.309964
1033.31751
1033.339503
1033.349141
1033.374783
1033.386879
1033.416044
1033.431006
1033.462794
1033.481246
1033.51298
1033.545913
1033.568106
1033.604625
1033.626657
1033.666519
1033.688631
1033.730913
1033.753596
1033.797878
1033.821393
1033.867269
1033.891581
1033.938672
1033.96366
1034.011593
1034.037039
1034.085266
1034.11075
1034.158751
1034.183982
1034.231551
1034.256339
1034.303264
1034.327342
1034.37344
1034.396519
1034.441601
1034.46339
1034.507239
1034.527368
1034.569509
1034.587442
1034.627086
1034.642097
1034.677823
1034.689276
1034.719305
1034.726674
1034.749916
1034.753886
1034.775469
1034.779679
1034.779904
1034.785298
1034.784422
1034.788089
1034.783881
1034.784929
1034.777402
1034.773905
1034.763228
1034.757775
1034.744053
1034.736828
1034.720529
1034.713225
1034.694263
1034.685627
1034.66777
1034.660884
1034.645542
1034.63865
1034.626005
1034.620593
1034.610809
1034.606836
1034.600002
1034.597476
1034.593482
1034.592283
1034.591462
1034.59148
)
;

boundaryField
{
    sides
    {
        type            calculated;
        value           nonuniform List<scalar> 2(1034.59148 1033.298023);
    }
    empty1
    {
        type            empty;
    }
    empty2
    {
        type            empty;
    }
}


// ************************************************************************* //
