/*--------------------------------*- C++ -*----------------------------------*\
| =========                 |                                                 |
| \\      /  F ield         | OpenFOAM: The Open Source CFD Toolbox           |
|  \\    /   O peration     | Version:  2012                                  |
|   \\  /    A nd           | Website:  www.openfoam.com                      |
|    \\/     M anipulation  |                                                 |
\*---------------------------------------------------------------------------*/
FoamFile
{
    version     2.0;
    format      ascii;
    class       volScalarField;
    location    "1.7";
    object      rho2;
}
// * * * * * * * * * * * * * * * * * * * * * * * * * * * * * * * * * * * * * //

dimensions      [1 -3 0 0 0 0 0];


internalField   nonuniform List<scalar> 
160
(
7.200311784
7.204822622
7.205545352
7.206816295
7.207720517
7.209556259
7.210662878
7.212545576
7.213672043
7.215587765
7.216989615
7.21903718
7.219291562
7.21446734
7.215326172
7.210322644
7.209274755
7.202167429
7.20027823
7.196026981
7.192053802
7.188078105
7.173749951
7.168490894
7.148948144
7.142422873
7.11729356
7.110391753
7.08669819
7.075378206
7.046247615
7.031178818
6.995686135
6.976631626
6.934584691
6.910356321
6.860923316
6.832141757
6.774822756
6.741454701
6.67633682
6.63799938
6.564708621
6.522300802
6.442849609
6.396935881
6.313614331
6.264857292
6.178687517
6.128599394
6.036916897
5.997803064
5.900414612
5.859613844
5.778778035
5.742541954
5.675049239
5.653040304
5.627204075
5.606019442
5.60326409
5.550152003
5.537617966
5.510396007
5.529291764
5.529018207
5.571241807
5.586520511
5.625745079
5.8224752
5.862970417
6.085144556
6.151136617
6.440569542
6.540024397
6.904890265
7.042960551
7.488824169
7.671127781
8.202492247
8.435347348
9.054870627
9.347101685
10.05173496
10.41322688
11.1812256
11.62703162
12.39374493
13.18941585
13.72559137
14.60791616
15.14020407
16.10328461
16.63752533
17.65905095
18.20708541
19.27694587
19.84507556
20.95345944
21.54083989
22.6785873
23.28228453
24.44036755
25.05514194
26.22033911
26.83603977
27.99574965
28.60534466
29.75460543
30.35349183
31.48721735
32.06895465
33.18268347
33.74027626
34.82948401
35.35589992
36.41530987
36.90162599
37.91977327
38.35303777
39.31085135
39.67352072
40.53666454
40.81337324
41.53888975
41.7169223
42.27846056
42.3743759
42.89582337
42.99754271
43.00298753
43.1333091
43.11214288
43.20073456
43.09906317
43.12437039
42.9425381
42.85802933
42.60007375
42.46832471
42.13681268
41.96224507
41.56846609
41.39199125
40.93387182
40.72522287
40.29379446
40.1274113
39.75674267
39.59025281
39.28473404
39.1539799
38.91759502
38.82161511
38.65649645
38.59546664
38.49895966
38.47001225
38.45017265
38.45059112
)
;

boundaryField
{
    sides
    {
        type            calculated;
        value           nonuniform List<scalar> 2(38.45059112 7.200311784);
    }
    empty1
    {
        type            empty;
    }
    empty2
    {
        type            empty;
    }
}


// ************************************************************************* //
