/*--------------------------------*- C++ -*----------------------------------*\
| =========                 |                                                 |
| \\      /  F ield         | OpenFOAM: The Open Source CFD Toolbox           |
|  \\    /   O peration     | Version:  2012                                  |
|   \\  /    A nd           | Website:  www.openfoam.com                      |
|    \\/     M anipulation  |                                                 |
\*---------------------------------------------------------------------------*/
FoamFile
{
    version     2.0;
    format      ascii;
    class       volScalarField;
    location    "1.7";
    object      volumeFraction1;
}
// * * * * * * * * * * * * * * * * * * * * * * * * * * * * * * * * * * * * * //

dimensions      [0 0 0 0 0 0 0];


internalField   nonuniform List<scalar> 
160
(
0.000287182441
0.0002914160345
0.0002908331749
0.000292629499
0.0002948597445
0.000298377878
0.0003015854916
0.0003065076905
0.0003112119123
0.0003178348284
0.0003240123682
0.000333139876
0.0003415858623
0.0003527897267
0.0003635767697
0.0003788748851
0.0003915459835
0.0004116931826
0.000427919339
0.0004486133592
0.000469085743
0.0005042949434
0.0005345333718
0.000560179634
0.0006002817409
0.0006355209348
0.00068069692
0.0007258894144
0.0007790781762
0.0008319750781
0.0008938744211
0.0009565010664
0.00103284158
0.001107431392
0.001198341621
0.001286312528
0.001395029358
0.0014995006
0.001639446245
0.001752114118
0.001925127247
0.002046841812
0.002278062492
0.002423900221
0.002686543725
0.00288984514
0.003193520723
0.003493558203
0.003826111259
0.004230375384
0.004674083127
0.005133456157
0.005781844094
0.006330027763
0.007203534822
0.008030954271
0.008814171369
0.009722885167
0.01173691438
0.01341297301
0.01460651706
0.01706510248
0.01874736128
0.02192983328
0.02426611447
0.02830928079
0.03172528241
0.03584485908
0.04004770803
0.04496050955
0.05009806526
0.05596404408
0.0620031779
0.06891249826
0.07590150134
0.08379364594
0.0918450399
0.1009542776
0.1101366624
0.1204419474
0.1309022485
0.1424526647
0.1541060143
0.1669633062
0.1797652512
0.1937646469
0.2071901812
0.2208016628
0.2332680648
0.2446885425
0.2562409965
0.2664358528
0.2767808422
0.2849566074
0.2932676869
0.2998332572
0.3059397007
0.311060826
0.3156674065
0.3187089628
0.3223190759
0.3245100146
0.3271404506
0.3283308015
0.3291536861
0.3291563723
0.3298808993
0.3300233005
0.3304664629
0.3298341877
0.3292076626
0.327534601
0.3259288402
0.3232119683
0.3202645049
0.315663534
0.3108146603
0.3043584795
0.2976760746
0.2892489458
0.2806798581
0.2704179329
0.2598301513
0.247398342
0.2349900761
0.220749058
0.2063079282
0.1912502779
0.1767820345
0.1621746272
0.1509614881
0.1355713347
0.1275330422
0.1130066855
0.1055006851
0.09274405059
0.08463897555
0.0755482159
0.06706981292
0.05850202253
0.05143599642
0.04334581253
0.03712604719
0.02983322497
0.02457710528
0.01927643027
0.01533624019
0.01190615034
0.009672545294
0.007421718418
0.005879682728
0.004310454563
0.003151164168
0.002193129908
0.001530206028
0.001063192934
0.0007653733866
0.000580908003
0.0004713007509
0.0004337819365
)
;

boundaryField
{
    sides
    {
        type            zeroGradient;
    }
    empty1
    {
        type            empty;
    }
    empty2
    {
        type            empty;
    }
}


// ************************************************************************* //
