/*--------------------------------*- C++ -*----------------------------------*\
| =========                 |                                                 |
| \\      /  F ield         | OpenFOAM: The Open Source CFD Toolbox           |
|  \\    /   O peration     | Version:  2012                                  |
|   \\  /    A nd           | Website:  www.openfoam.com                      |
|    \\/     M anipulation  |                                                 |
\*---------------------------------------------------------------------------*/
FoamFile
{
    version     2.0;
    format      ascii;
    class       volScalarField;
    location    "0.2";
    object      alpha.water;
}
// * * * * * * * * * * * * * * * * * * * * * * * * * * * * * * * * * * * * * //

dimensions      [0 0 0 0 0 0 0];


internalField   nonuniform List<scalar> 
2268
(
1
1
1
1
1
1
1
1
1
1
1
1
1
1
1
1
1
1
1
1
0.999938
0.868486
0.746767
1
1
1
1
1
1
1
1
1
1
1
1
1
1
1
1
1
1
1
1
1
0.995138
0.844974
1
1
1
1
1
1
1
1
1
1
1
1
1
1
1
1
1
1
1
1
1
0.999999
0.884151
1
1
1
1
1
1
1
1
1
1
1
1
1
1
1
1
1
1
1
1
1
1
0.916064
1
1
1
1
1
1
1
1
1
1
1
1
1
1
1
1
1
1
1
1
1
1
0.954983
1
1
1
1
1
1
1
1
1
1
1
1
1
1
1
1
1
1
1
1
1
1
0.984728
1
1
1
1
1
1
1
1
1
1
1
1
1
1
1
1
1
1
1
1
1
1
0.963474
1
1
1
1
1
1
1
1
1
1
1
1
1
1
1
1
1
1
1
0.999998
0.999998
0.999999
0.962209
3.31156e-18
7.9821e-19
1.83901e-19
1.5552e-20
3.98618e-22
7.65004e-24
3.28402e-25
1.76026e-26
7.74752e-28
2.75551e-29
8.32539e-31
2.14174e-32
4.58789e-34
7.98128e-36
1.1019e-37
1.14489e-39
8.28861e-42
2.65485e-44
1.42197e-44
4.46384e-17
7.23844e-17
2.65599e-17
2.66175e-18
7.46023e-20
1.49465e-21
5.01691e-23
2.06513e-24
7.81813e-26
2.54246e-27
7.15606e-29
1.72284e-30
3.45793e-32
5.62298e-34
7.1431e-36
6.59307e-38
3.87555e-40
9.50229e-43
1.42197e-44
1.50798e-15
4.24366e-15
2.73987e-15
4.07191e-16
9.86272e-18
1.64312e-19
3.7127e-21
1.07078e-22
3.16091e-24
8.65723e-26
2.14726e-27
4.66229e-29
8.54937e-31
1.27123e-32
1.4504e-34
1.14933e-36
5.16465e-39
8.45134e-42
2.09571e-43
3.64997e-14
3.13968e-13
5.60486e-13
5.38947e-14
7.17253e-16
1.00389e-17
2.13895e-19
4.50012e-21
1.00533e-22
2.24545e-24
4.7699e-26
9.12481e-28
1.49445e-29
1.98463e-31
1.99658e-33
1.39843e-35
5.50653e-38
5.98293e-41
5.66058e-42
1.39514e-12
1.33724e-11
1.58635e-11
8.08068e-13
1.18089e-14
1.97324e-16
6.96162e-18
1.35341e-19
2.27648e-21
4.27755e-23
7.9287e-25
1.33918e-26
1.9569e-28
2.34923e-30
2.18511e-32
1.39126e-34
5.15826e-37
3.21068e-40
1.12403e-40
3.48974e-11
2.01203e-10
4.00958e-11
1.95608e-12
6.27296e-14
1.5771e-15
6.50106e-17
1.76062e-18
3.03986e-20
5.46166e-22
9.29869e-24
1.4414e-25
1.96753e-27
2.23351e-29
1.94437e-31
1.21942e-33
3.85947e-36
1.89781e-39
1.71557e-39
1.72843e-10
3.52775e-10
6.646e-11
4.81799e-13
1.46574e-13
9.9184e-15
1.5866e-16
5.65571e-18
2.20849e-19
5.33949e-21
9.09903e-23
1.31146e-24
1.67939e-26
1.78368e-28
1.51e-30
9.22622e-33
2.58855e-35
2.20369e-38
2.06544e-38
1.72915e-10
1.82357e-10
7.1219e-11
2.7346e-12
1.17378e-13
2.75383e-14
5.81585e-17
1.05123e-18
6.48738e-19
4.89585e-20
8.61875e-22
1.33638e-23
1.74934e-25
1.86749e-27
1.45102e-29
7.25887e-32
1.02208e-34
1.85025e-37
1.76708e-37
1
1
1
1
1
1
1
1
1
1
1
1
1
1
1
1
1
1
1
1
0.999999
0.999999
0.972907
1
1
1
1
1
1
1
1
1
1
1
1
1
1
1
1
0.999999
1
1
1
0.999999
0.999999
1
1
1
1
1
1
1
1
1
1
1
1
1
1
0.999998
0.999993
0.999975
0.999962
0.999964
0.998153
0.999998
0.999999
0.999999
0.999969
1
1
1
1
1
1
1
1
1
1
1
0.999998
0.999992
0.999968
0.999848
0.999466
0.996139
0.925605
0.808782
0.56816
0.472274
0.572743
0.842743
1
1
1
1
1
1
1
0.999999
0.999999
0.999998
0.999993
0.999977
0.999891
0.999514
0.997877
0.873516
0.582839
0.127404
0.000385054
0.00336768
0.0032406
0.015311
0.0969999
1
1
1
1
0.999999
0.999999
0.999998
0.999996
0.99999
0.999975
0.999921
0.999713
0.998785
0.978806
0.652895
0.0946754
0.000582429
9.70234e-05
1.53808e-05
1.95376e-06
3.4754e-05
0.000284692
0.00158339
0.999999
0.999995
0.999996
0.999995
0.999993
0.999988
0.999979
0.999956
0.99989
0.999719
0.999161
0.996784
0.884579
0.385198
0.00181759
0.000402773
9.34874e-05
1.64733e-05
2.22054e-06
5.50653e-07
-1.7667e-06
2.38524e-05
0.000150134
0.999988
0.999946
0.999951
0.999941
0.999913
0.999859
0.999765
0.999523
0.998834
0.99478
0.917178
0.624632
0.153692
0.000277798
0.000401258
9.39029e-05
1.62256e-05
2.47143e-06
6.07615e-07
3.20896e-07
4.92566e-08
-1.25028e-06
9.54982e-06
0.999831
0.999427
0.999465
0.999339
0.999029
0.998476
0.995164
0.957717
0.836787
0.572804
0.231843
0.000161204
3.00541e-05
1.41344e-05
0.000411988
0.00144782
0.000410412
3.36951e-06
3.2068e-07
6.57043e-08
4.50216e-08
-9.46554e-08
6.69723e-07
0.987635
0.932866
0.930639
0.898467
0.833918
0.728222
0.562092
0.333005
0.127196
8.50431e-06
1.08091e-06
6.58093e-06
9.85553e-06
1.07045e-05
0.00277022
0.00497238
0.00192176
6.9054e-06
4.7038e-07
4.50175e-08
1.65056e-08
-2.44712e-09
3.01632e-08
0.452242
0.268156
0.258595
0.202788
0.129036
0.0554953
-3.19819e-09
-4.9329e-11
-2.05305e-08
5.95638e-09
1.82386e-06
3.78809e-06
6.58972e-06
9.88826e-06
0.00418292
0.00497238
0.0027783
1.5071e-05
3.24866e-07
1.5233e-08
1.43585e-09
1.01408e-09
1.25972e-06
0
-2.52207e-20
-1.57019e-54
1.65988e-19
1.88186e-17
1.52783e-15
7.91697e-14
6.34007e-13
1.26796e-11
1.49402e-10
-2.41529e-08
1.81003e-06
7.10731e-06
1.07161e-05
0.00226484
0.00497238
0.0027584
7.77838e-06
1.10889e-07
3.83513e-09
8.14481e-10
9.14376e-10
1.01427e-09
8.02777e-23
3.44457e-22
2.54718e-20
1.93834e-18
1.82143e-16
2.38543e-14
1.7753e-13
-4.09861e-12
-6.61403e-12
1.47194e-09
5.18031e-08
0.000156061
7.25329e-05
1.27295e-05
0.00117848
0.00490554
0.00197705
4.75944e-07
5.30896e-09
7.27603e-10
7.71114e-10
8.14481e-10
4.6387e-08
2.23719e-22
1.97595e-20
2.5973e-18
2.95391e-16
2.96921e-14
1.98044e-12
5.56874e-13
3.58198e-12
-1.66269e-10
8.58984e-09
3.65175e-05
0.000800739
0.00072804
2.34597e-05
0.000774247
0.00477628
0.000871886
1.01574e-08
6.03633e-10
7.28103e-10
7.28103e-10
8.15992e-10
2.33941e-07
9.95217e-22
2.3211e-19
3.16057e-17
3.15786e-15
1.91742e-13
7.39912e-12
4.21237e-11
5.90878e-10
1.88244e-09
4.88843e-08
0.000523207
0.000806307
0.000805865
7.42239e-05
0.0010243
0.00176585
8.48412e-08
5.90113e-10
4.62277e-10
6.93131e-10
8.10327e-10
3.26072e-09
2.57578e-07
4.51349e-21
1.15838e-18
1.55032e-16
1.34163e-14
5.61386e-13
1.13214e-11
1.30956e-10
7.41426e-09
4.10952e-09
8.07427e-06
0.00057329
0.000800739
0.000805865
0.000343792
0.00131928
0.00127669
4.25227e-09
1.84939e-10
3.98963e-10
4.72967e-10
1.65279e-09
1.4745e-08
1.80449e-07
1.51877e-20
2.97806e-18
3.83832e-16
3.38545e-14
1.66984e-12
1.77742e-11
2.73827e-11
1.23294e-11
-2.92251e-10
-9.65417e-09
4.29314e-05
0.000529531
0.000652751
0.000366655
3.44261e-05
1.75599e-05
1.73661e-10
2.29482e-11
2.08132e-10
4.04604e-10
2.14507e-09
1.70922e-08
1.91956e-07
2.82221e-20
3.35746e-18
4.21352e-16
4.4293e-14
3.81565e-12
4.61408e-11
7.9075e-11
1.23294e-11
1.18825e-11
1.61236e-11
6.32414e-11
3.60875e-10
1.75641e-09
4.24626e-09
8.19729e-08
9.58062e-10
6.98032e-12
6.35612e-12
3.27821e-11
2.18888e-10
1.28493e-09
1.00107e-08
9.17531e-08
3.12848e-20
8.3861e-19
1.07383e-16
2.63257e-14
4.81268e-12
6.28884e-11
1.08083e-10
1.80287e-11
1.47829e-11
2.31594e-11
1.72317e-10
1.02857e-09
1.77923e-09
3.47613e-09
8.61194e-09
8.95394e-10
5.66096e-13
2.09324e-12
2.23929e-11
7.74032e-11
4.03331e-10
2.73656e-09
2.45087e-08
8.9399e-21
3.5657e-20
6.48507e-18
1.23354e-14
1.97642e-12
2.53933e-11
6.32747e-11
4.85928e-11
5.66298e-11
1.28287e-10
1.10189e-09
9.62294e-09
1.32895e-08
1.01569e-08
8.17058e-14
6.78473e-14
2.41306e-14
5.12201e-13
4.77325e-12
2.01406e-11
5.67399e-11
3.23797e-10
3.16721e-09
-5.04272e-38
-2.50371e-34
1.02634e-17
1.26232e-14
2.07784e-13
4.84665e-13
6.73599e-13
8.83884e-12
1.05395e-10
2.86249e-10
3.16297e-10
1.005e-10
1.01259e-10
5.18299e-12
5.05805e-12
4.56967e-14
6.82395e-15
4.57546e-14
3.57134e-13
2.63068e-12
1.25698e-11
4.70085e-11
4.92297e-10
-2.37841e-20
-1.70485e-19
-1.4513e-30
4.10665e-19
4.80661e-17
7.03567e-15
3.11993e-13
4.92844e-12
5.23658e-11
2.32926e-10
3.55418e-10
3.47104e-10
1.88735e-10
1.98067e-11
1.62137e-13
4.03027e-15
2.0894e-15
8.32996e-15
2.85485e-14
1.85099e-13
1.54147e-12
1.84262e-11
1.18503e-10
-9.79517e-21
-6.14475e-20
-3.36245e-32
2.23111e-19
1.52033e-17
5.71983e-15
3.6056e-13
3.12861e-12
7.85985e-12
9.31173e-12
6.09268e-12
3.59061e-12
6.87149e-13
5.48386e-13
2.53023e-13
1.02733e-15
1.05511e-15
2.42666e-15
3.32122e-15
9.93827e-15
9.34643e-14
1.46022e-12
1.38e-11
-2.14308e-21
-1.45217e-20
-2.12506e-34
2.4916e-20
1.49011e-18
7.7144e-17
2.24711e-14
9.82838e-13
5.90897e-12
1.03668e-11
1.03668e-11
8.62591e-12
2.30975e-12
3.10467e-13
1.62422e-14
6.5318e-17
1.89206e-16
3.24606e-16
3.51083e-16
4.83702e-16
4.1712e-15
4.96623e-14
8.22528e-13
0
0
1.43408e-24
1.12398e-22
7.56012e-21
2.67656e-19
1.02406e-16
4.32721e-14
8.17063e-13
3.69309e-12
6.21889e-12
5.52337e-12
2.96535e-12
5.21711e-13
3.1704e-14
2.65762e-18
-2.23168e-19
5.76567e-18
1.36418e-17
1.97018e-17
1.67447e-16
1.79627e-15
3.36158e-14
2.91824e-31
5.86708e-29
-8.92364e-27
6.04343e-25
3.54119e-23
1.33911e-21
6.55355e-20
5.87114e-17
3.62066e-15
2.48786e-14
5.27803e-14
6.06618e-14
2.82609e-14
5.45629e-15
6.19471e-16
-3.34028e-18
-2.66096e-17
-1.79923e-17
4.74719e-20
7.07681e-19
6.03565e-18
6.84504e-17
1.22279e-15
1.33303e-34
2.83865e-32
-6.19005e-29
1.35061e-28
2.00384e-26
8.26817e-25
1.51657e-22
3.25269e-19
2.0828e-17
1.66057e-16
4.50317e-16
6.49722e-16
6.76699e-16
2.90671e-16
6.50483e-17
7.9062e-18
-7.53353e-18
-8.93987e-18
4.55411e-22
1.96452e-20
1.96267e-19
2.66887e-18
4.43466e-17
1.42055e-37
-6.48728e-35
-3.78869e-32
4.4165e-31
3.28625e-29
1.51598e-27
5.52133e-26
3.88574e-24
5.41366e-21
3.77092e-19
3.52196e-18
1.06507e-17
1.6259e-17
1.73985e-17
7.07802e-18
-2.37622e-19
-1.84134e-18
-1.76614e-18
3.23286e-23
4.97554e-22
5.67288e-21
9.72307e-20
1.51841e-18
-2.27202e-38
-5.51581e-36
1.79058e-36
1.47105e-34
1.55028e-32
7.83353e-31
3.17227e-29
1.11812e-27
2.25188e-24
8.99572e-22
1.46835e-20
6.02189e-20
1.0312e-19
1.11334e-19
6.90288e-21
-9.88489e-20
-1.82078e-19
-1.60047e-19
1.02553e-24
1.09143e-23
1.40765e-22
2.83888e-21
4.63267e-20
6.11944e-45
1.64537e-42
2.21039e-40
9.8722e-39
2.0942e-36
1.19336e-34
5.44845e-33
2.05915e-31
5.26139e-28
5.37146e-25
1.66878e-23
8.16609e-23
1.14118e-22
-9.98647e-23
-1.02416e-21
-3.16893e-21
-6.10737e-21
-6.35776e-21
2.29215e-26
2.0564e-25
2.87949e-24
6.73833e-23
1.20318e-21
1.05482e-48
3.12462e-46
-5.70654e-43
2.53682e-42
5.50665e-40
3.40427e-38
1.71612e-36
7.33911e-35
2.77966e-33
1.00422e-29
5.65802e-27
8.93065e-26
1.66127e-25
-9.46452e-25
-7.91831e-24
-2.99697e-23
-7.02386e-23
-8.52405e-23
6.09075e-28
3.21772e-27
4.93127e-26
1.03975e-24
2.62927e-23
4.52391e-54
1.49061e-51
-1.91806e-46
-8.57203e-46
2.61464e-45
2.42785e-43
1.38534e-41
6.73074e-40
2.79294e-38
1.19663e-34
6.59502e-31
7.5089e-29
7.53598e-28
1.42601e-27
-3.42179e-27
-2.73344e-26
-8.1288e-26
-1.13146e-25
1.42951e-29
4.13098e-29
7.24898e-28
1.25942e-26
4.8778e-25
8.80745e-58
-2.08812e-54
-1.57159e-51
7.73082e-51
1.17328e-48
9.07491e-47
5.73976e-45
3.14248e-43
1.52393e-41
6.44945e-40
2.74295e-38
4.47102e-35
2.04415e-32
7.03627e-31
4.43156e-30
8.81165e-30
9.17945e-30
5.05071e-30
4.80965e-32
4.88809e-31
9.28354e-30
1.30496e-28
7.74225e-27
-4.02715e-59
-1.4644e-56
4.99466e-57
7.01874e-55
1.18858e-52
1.05629e-50
7.62123e-49
4.76148e-47
2.6367e-45
1.31768e-43
5.84728e-42
5.66176e-39
1.21964e-35
7.12164e-34
7.27004e-33
2.16472e-32
3.15403e-32
1.23608e-32
9.43322e-35
4.46509e-33
9.72523e-32
1.2291e-30
1.05348e-28
3.79906e-68
1.85582e-65
4.51878e-63
-2.30204e-59
4.99121e-59
1.40429e-56
1.20889e-54
8.7607e-53
5.62761e-51
3.26395e-49
1.68828e-47
2.52124e-43
1.77476e-39
2.59521e-37
4.50743e-36
1.70372e-35
2.46335e-35
1.66505e-35
6.69652e-37
3.27184e-35
8.68405e-34
1.15555e-32
1.22457e-30
2.48976e-72
1.44698e-69
-3.80733e-66
3.30699e-65
1.80859e-62
2.21139e-60
2.19007e-58
1.88002e-56
1.43188e-54
9.85205e-53
6.2152e-51
3.55299e-49
2.29836e-47
9.24038e-44
4.0284e-41
1.46722e-39
9.48148e-39
1.96602e-38
2.4836e-38
1.86773e-37
6.3701e-36
1.05377e-34
1.19525e-32
1.33945e-77
9.69915e-75
-6.35388e-70
-3.42362e-69
2.10055e-67
3.30334e-65
4.00805e-63
4.20658e-61
3.91743e-59
3.29642e-57
2.54413e-55
1.82381e-53
1.20213e-51
4.45126e-48
1.95219e-44
1.56114e-42
1.73535e-41
5.04199e-41
7.75409e-41
8.70848e-40
3.80788e-38
9.87959e-37
9.27467e-35
4.79726e-83
-6.22305e-78
-9.13025e-75
6.75481e-75
2.03638e-72
4.06467e-70
6.35691e-68
8.58585e-66
1.02772e-63
1.1104e-61
1.0994e-59
1.01038e-57
8.56779e-56
7.27117e-54
7.19081e-50
1.39962e-46
7.47178e-45
6.9761e-44
2.31617e-43
3.2092e-42
1.81531e-40
7.29882e-39
4.90005e-37
-7.55254e-85
-7.04502e-82
1.354e-82
5.92818e-80
2.46744e-77
6.893e-75
1.51976e-72
2.89266e-70
4.86989e-68
7.38508e-66
1.02411e-63
1.31557e-61
1.58343e-59
1.79541e-57
1.96491e-55
5.99615e-52
1.16696e-48
6.61697e-47
7.11005e-46
8.71882e-45
6.50321e-43
2.93556e-41
6.7848e-40
6.38368e-96
1.88343e-92
2.21644e-89
-7.60475e-85
8.70638e-84
5.14511e-81
1.93275e-78
6.18464e-76
1.74847e-73
4.44616e-71
1.03194e-68
2.21354e-66
4.43704e-64
8.39551e-62
1.49891e-59
1.73816e-56
3.63489e-52
7.88778e-50
1.73014e-48
1.46718e-47
1.47192e-45
9.99771e-44
2.016e-42
3.60669e-109
4.66879e-105
-7.25951e-93
-1.61082e-91
-3.50203e-91
8.44296e-92
1.06734e-88
1.09037e-85
9.27247e-83
7.09368e-80
4.95469e-77
3.19772e-74
1.92687e-71
1.09417e-68
5.90527e-66
3.05048e-63
1.48382e-57
2.33784e-53
2.08736e-51
1.81136e-50
1.57207e-48
2.07224e-46
6.54722e-45
-5.09748e-125
8.35171e-121
-1.44946e-104
-1.18265e-102
-7.17406e-111
0
-1.20748e-102
-1.56514e-102
0
-8.07728e-96
0
-4.23482e-90
-4.33645e-87
-6.66079e-84
-5.74162e-81
-3.81275e-78
-1.95213e-75
2.22606e-61
3.02144e-56
5.30616e-54
2.28254e-53
1.32112e-49
1.69531e-47
0.997541
0.844004
0.00899789
0.00366675
0.999547
0.97982
0.968881
0.614425
0.999661
0.999239
0.997176
0.991331
0.99924
0.997177
0.991331
0.984389
0.19524
0.332548
0.81172
0.979498
0.00281097
0.00485155
0.0763286
0.621646
0.000357443
0.0007366
0.00179905
0.13871
5.63284e-05
0.00010957
0.000190892
0.00180098
8.02925e-06
1.55281e-05
2.1025e-05
0.000191002
1.45467e-06
3.81708e-06
5.6357e-06
2.1026e-05
1.60091e-06
2.25699e-06
3.81708e-06
5.6357e-06
4.98323e-06
8.60439e-06
5.68405e-06
6.84713e-06
3.08885e-07
2.66251e-05
6.93283e-06
9.26031e-06
7.92962e-07
1.10936e-06
0.000235983
1.13722e-05
6.40299e-07
5.41708e-06
0.000632943
0.00117315
9.5818e-07
2.43613e-05
0.000209628
0.0006478
1.26478e-06
1.33061e-05
4.37485e-05
0.000289239
6.81777e-07
4.31551e-06
1.46885e-05
4.15502e-05
1.62253e-07
7.64873e-07
2.96292e-06
6.24637e-06
1.65593e-08
1.3063e-07
6.12715e-07
8.20531e-07
1.67368e-09
1.55547e-08
6.76538e-08
9.04808e-08
1.49087e-10
8.90888e-10
3.79775e-09
8.36547e-09
2.15322e-11
4.6965e-11
2.12459e-10
6.55372e-10
2.13421e-12
8.16209e-12
2.83555e-11
4.43856e-11
9.62052e-14
8.09012e-13
2.82752e-12
2.73083e-12
3.14776e-15
2.1693e-14
1.41588e-13
1.49337e-13
8.9659e-17
7.08117e-16
5.90498e-15
7.13566e-15
2.44459e-18
2.26067e-17
2.20834e-16
2.99184e-16
6.26866e-20
6.59932e-19
7.29374e-18
1.10783e-17
1.36378e-21
1.52076e-20
2.0886e-19
3.646e-19
3.17122e-23
2.40956e-22
4.99182e-21
1.07359e-20
6.44423e-25
5.39186e-24
9.24589e-23
2.84779e-22
1.1498e-26
1.07076e-25
1.14439e-24
6.84631e-24
1.81081e-28
1.89907e-27
1.78167e-26
1.5002e-25
2.5262e-30
3.02063e-29
3.20039e-28
3.01171e-27
3.12475e-32
4.31883e-31
5.23165e-30
5.56349e-29
3.41926e-34
5.55184e-33
7.79673e-32
9.48773e-31
3.28966e-36
6.40205e-35
1.05942e-33
1.49642e-32
2.75296e-38
6.58767e-37
1.30944e-35
2.18063e-34
1.98019e-40
6.01751e-39
1.468e-37
2.92515e-36
1.14192e-42
4.74912e-41
1.4772e-39
3.58455e-38
6.54722e-45
1.14192e-42
4.74912e-41
1.4772e-39
1.74731e-10
3.96303e-10
1.57217e-09
1.3214e-10
2.63295e-12
1.34715e-13
1.5767e-14
1.76891e-17
3.08559e-19
7.53425e-20
5.22787e-21
1.21078e-22
2.06472e-24
2.92179e-26
3.1918e-28
2.43652e-30
1.01832e-32
4.75803e-36
2.15488e-36
0.00429443
9.14778e-08
9.09322e-08
8.17316e-09
1.3095e-10
2.73872e-12
1.16921e-13
1.3202e-15
1.76891e-17
2.80982e-19
2.02176e-20
3.99526e-22
6.20373e-24
8.63661e-26
9.93433e-28
8.74224e-30
5.11246e-32
1.47012e-34
1.09643e-35
0.38584
3.43103e-05
4.96979e-06
3.05583e-07
7.87702e-09
1.91207e-10
5.48786e-12
9.90153e-14
1.53172e-15
2.00628e-17
1.07778e-18
1.22836e-20
1.04604e-22
7.22182e-25
6.1963e-27
3.74921e-29
1.55641e-31
2.84772e-34
1.38639e-35
0.881073
0.114981
0.000163906
6.92509e-06
9.04388e-07
7.55039e-09
2.08293e-10
4.74304e-12
1.03885e-13
5.14144e-15
7.61233e-17
7.90025e-19
6.62642e-21
6.46527e-23
5.36673e-25
3.35492e-27
1.40266e-29
1.45807e-32
2.79122e-34
0.93487
0.337785
0.00485151
0.000107389
3.95332e-06
1.44478e-07
4.57311e-09
1.26592e-10
3.37263e-12
7.84972e-14
2.28808e-15
2.96152e-17
2.7789e-19
3.03637e-21
2.69333e-23
1.7892e-25
7.91241e-28
7.7583e-31
2.89768e-32
0.892116
0.57396
0.0328171
0.000556203
2.99444e-05
1.32682e-06
5.00452e-08
1.56534e-09
4.13893e-11
1.10771e-12
2.22545e-14
4.61076e-16
5.1841e-18
5.98239e-20
5.63313e-22
3.96438e-24
1.85386e-26
2.50418e-29
1.70371e-30
0.772649
0.700236
0.0803109
0.00123921
9.03923e-05
4.86364e-06
2.07352e-07
7.05286e-09
2.00045e-10
4.86065e-12
1.1983e-13
3.06503e-15
4.39156e-17
3.958e-19
3.77431e-21
2.81545e-23
1.39029e-25
3.41838e-28
4.29294e-29
0.644017
0.640747
0.135866
0.00156537
0.000127405
7.22397e-06
3.07663e-07
1.05497e-08
3.05196e-10
7.70856e-12
2.22887e-13
8.55176e-15
1.40547e-16
1.71299e-18
1.71763e-20
1.27754e-22
6.09194e-25
1.1538e-27
3.73775e-28
0.492057
0.594463
0.13941
0.00139422
9.24578e-05
4.14657e-06
1.53262e-07
4.97437e-09
1.42473e-10
3.94112e-12
2.23396e-13
1.88879e-14
2.71057e-16
2.55005e-18
2.61369e-20
2.15579e-22
1.31681e-24
4.89597e-27
1.01897e-27
0.375438
0.550095
0.114263
0.000915931
3.60229e-05
7.65177e-07
1.91742e-08
6.86078e-10
2.21345e-11
1.45946e-12
5.93226e-13
4.75798e-14
6.62474e-16
4.52522e-18
3.22038e-20
1.74896e-22
9.10948e-25
3.23816e-27
1.37295e-27
0.302576
0.483805
0.0788355
0.000475322
4.18178e-06
5.25706e-07
1.19185e-09
1.99205e-10
2.43701e-11
2.98691e-12
4.41769e-13
6.44739e-14
2.34261e-15
1.91777e-17
1.00605e-19
3.08907e-22
7.02131e-25
2.1462e-27
1.37295e-27
0.314246
0.443984
0.0740907
0.000245152
5.57181e-06
5.59498e-06
5.11992e-07
9.21948e-11
1.8125e-11
4.53475e-12
7.44764e-13
1.35627e-13
6.07157e-15
6.21822e-17
3.35782e-19
5.91206e-22
2.08029e-24
6.93161e-27
2.1462e-27
0.257324
0.407979
0.100401
0.000326025
8.66708e-06
3.72496e-06
1.51806e-06
2.62393e-08
1.74721e-10
1.80409e-11
1.22142e-12
1.29676e-13
1.16272e-14
2.0685e-16
8.52538e-19
1.30172e-21
7.04347e-24
2.42683e-26
6.89731e-27
0.0289713
0.389993
0.314011
0.0168963
0.000169297
8.45906e-06
2.7692e-06
1.87794e-07
4.05293e-09
1.42207e-10
9.17803e-12
3.39914e-13
1.09928e-14
2.11008e-16
1.42844e-18
1.10255e-20
6.17533e-23
1.9247e-25
2.37194e-26
0.00116419
0.26221
0.309314
0.110367
0.00139089
0.000152797
1.52017e-05
1.03024e-06
5.14104e-08
2.01025e-09
6.43378e-11
2.86884e-12
6.22863e-14
1.2493e-15
1.40909e-17
1.12441e-19
6.09824e-22
1.84608e-24
1.81168e-25
0.00226854
0.0288447
0.177755
0.158378
0.0186921
0.000391116
4.01604e-05
2.87192e-06
1.51004e-07
5.93306e-09
1.85634e-10
5.88066e-12
1.50268e-13
5.92342e-15
7.77204e-17
6.02045e-19
3.09659e-21
9.10788e-24
1.43958e-24
0.0013936
0.00188153
0.0207413
0.0426888
0.0216229
0.00123008
2.81634e-05
1.95075e-06
1.01233e-07
4.04672e-09
1.22684e-10
3.55875e-12
2.47372e-13
1.02242e-14
1.43274e-16
1.47214e-18
1.13184e-20
5.63443e-23
6.6411e-25
0.000251615
0.00103326
0.00181364
0.00218262
0.00426556
0.000681653
1.27154e-05
5.38833e-07
2.78511e-08
1.11944e-09
3.58188e-11
1.18307e-12
2.06283e-13
5.12607e-15
6.71847e-17
7.42452e-19
5.98558e-21
3.14299e-23
1.20745e-25
7.20545e-05
0.0003527
0.000321977
0.000433793
0.000136877
5.71582e-05
2.45896e-06
1.04447e-07
4.76992e-09
1.9214e-10
7.95621e-12
1.07299e-12
4.79943e-14
7.82021e-16
1.14628e-17
1.29898e-19
1.07209e-21
5.78781e-24
1.49299e-26
8.90423e-06
3.82908e-05
4.62497e-05
6.78469e-05
2.21547e-05
2.25962e-06
1.87155e-07
1.21846e-08
6.35965e-10
3.02198e-11
3.38265e-12
2.36384e-13
4.80034e-15
8.87652e-17
1.32175e-18
1.51332e-20
1.26235e-22
6.88507e-25
1.79523e-27
4.5459e-07
1.99918e-06
5.49081e-06
8.54718e-06
3.12202e-06
2.77699e-07
2.00385e-08
1.2665e-09
7.42322e-11
7.0374e-12
6.57731e-13
1.95202e-14
4.45865e-16
8.48183e-18
1.27734e-19
1.47934e-21
1.24866e-23
6.89284e-26
1.83296e-28
3.07171e-08
1.56226e-07
5.50067e-07
8.93012e-07
3.46192e-07
3.09406e-08
2.01448e-09
1.12868e-10
7.42637e-12
1.22156e-12
5.23507e-14
1.45657e-15
3.47518e-17
6.67832e-19
1.01626e-20
1.1897e-22
1.01528e-24
5.66752e-27
1.52035e-29
2.36733e-09
1.32554e-08
4.72686e-08
7.95192e-08
3.20562e-08
3.1281e-09
1.89193e-10
1.03651e-11
1.39823e-12
9.52251e-14
3.25585e-15
9.60655e-17
2.3165e-18
4.49778e-20
6.90875e-22
8.167e-24
7.0399e-26
3.97038e-28
1.0652e-30
1.70233e-10
9.82239e-10
3.53537e-09
6.11221e-09
2.60241e-09
2.84679e-10
1.67208e-11
1.09689e-12
1.50196e-13
5.97067e-15
2.02862e-16
5.76907e-18
1.38187e-19
2.67091e-21
4.12517e-23
4.92411e-25
4.28683e-27
2.44158e-29
6.497e-32
1.32063e-11
6.79428e-11
2.32612e-10
4.19366e-10
1.87359e-10
2.34175e-11
1.4895e-12
1.75738e-13
9.88692e-15
3.9075e-16
1.28758e-17
3.51943e-19
8.05292e-21
1.49509e-22
2.28217e-24
2.72472e-26
2.3772e-28
1.3601e-30
3.56372e-33
3.05286e-12
9.66442e-12
1.75648e-11
2.76344e-11
1.28832e-11
1.78044e-12
1.73848e-13
1.31884e-14
6.15889e-16
2.44443e-17
7.94743e-19
2.13017e-20
4.76771e-22
8.67406e-24
1.29259e-25
1.50959e-27
1.29621e-29
7.36215e-32
1.904e-34
2.27508e-13
1.36986e-12
2.19619e-12
1.71702e-12
7.91988e-13
1.17285e-13
1.20109e-14
7.36381e-16
3.68085e-17
1.45888e-18
4.70732e-20
1.24937e-21
2.76799e-23
4.98579e-25
7.3469e-27
8.49873e-29
7.25242e-31
4.11906e-33
1.05136e-35
7.82071e-15
7.65278e-14
1.79596e-13
1.61035e-13
5.13359e-14
7.07904e-15
6.43441e-16
4.12031e-17
2.09103e-18
8.32575e-20
2.6844e-21
7.09539e-23
1.56267e-24
2.79734e-26
4.10036e-28
4.72519e-30
4.02447e-32
2.29345e-34
5.76351e-37
2.56795e-16
2.9557e-15
8.16471e-15
8.67149e-15
2.72655e-15
3.58358e-16
3.31117e-17
2.18914e-18
1.13142e-19
4.55274e-21
1.47534e-22
3.90437e-24
8.58966e-26
1.53413e-27
2.24334e-29
2.58031e-31
2.1962e-33
1.25757e-35
3.1052e-38
7.91839e-18
1.08511e-16
3.21165e-16
3.51729e-16
1.23395e-16
1.67938e-17
1.6216e-18
1.1064e-19
5.84973e-21
2.39072e-22
7.82484e-24
2.08292e-25
4.59644e-27
8.22038e-29
1.20266e-30
1.38368e-32
1.17877e-34
6.79145e-37
1.6448e-39
2.26319e-19
3.61653e-18
1.19125e-17
1.35396e-17
5.24955e-18
7.50639e-19
7.56062e-20
5.33994e-21
2.89945e-22
1.20852e-23
4.01162e-25
1.07834e-26
2.39542e-28
4.30307e-30
6.3144e-32
7.28096e-34
6.21707e-36
3.60784e-38
8.55768e-41
5.72366e-21
1.09967e-19
4.09317e-19
4.88692e-19
2.11659e-19
3.19756e-20
3.36939e-21
2.47061e-22
1.38217e-23
5.89599e-25
1.99186e-26
5.42475e-28
1.21675e-29
2.20124e-31
3.24695e-33
3.75852e-35
3.22031e-37
1.88392e-39
4.37146e-42
1.28827e-22
3.06443e-21
1.30743e-20
1.65418e-20
8.09367e-21
1.30249e-21
1.44072e-22
1.09971e-23
6.35705e-25
2.78351e-26
9.59879e-28
2.65611e-29
6.03094e-31
1.10128e-32
1.63593e-34
1.90372e-36
1.63821e-38
9.66685e-41
2.19258e-43
2.49982e-24
7.86616e-23
3.8999e-22
5.27615e-22
2.94506e-22
5.09018e-23
5.93167e-24
4.7256e-25
2.82981e-26
1.27512e-27
4.49977e-29
1.26815e-30
2.92131e-32
5.39469e-34
8.083e-36
9.46718e-38
8.18843e-40
4.87493e-42
1.0804e-44
4.03832e-26
1.86831e-24
1.09104e-23
1.59355e-23
1.02334e-23
1.91458e-24
2.35941e-25
1.96693e-26
1.22301e-27
5.6841e-29
2.05711e-30
5.91661e-32
1.38532e-33
2.59125e-35
3.92123e-37
4.62706e-39
4.0249e-41
2.41753e-43
5.23512e-46
5.43976e-28
4.12334e-26
2.87481e-25
4.58001e-25
3.40847e-25
6.9537e-26
9.09733e-27
7.95656e-28
5.14824e-29
2.47285e-30
9.19526e-32
2.70375e-33
6.44445e-35
1.22263e-36
1.87061e-38
2.2256e-40
1.94787e-42
1.18012e-44
2.49774e-47
1.06044e-29
8.49909e-28
7.16143e-27
1.25896e-26
1.09263e-26
2.44721e-27
3.41204e-28
3.13872e-29
2.11771e-30
1.05316e-31
4.03025e-33
1.21326e-34
2.94765e-36
5.67816e-38
8.79128e-40
1.05528e-41
9.29575e-44
5.67845e-46
1.17532e-48
1.94429e-31
1.63181e-29
1.64086e-28
3.44435e-28
3.32066e-28
8.37763e-29
1.24939e-29
1.21178e-30
8.54156e-32
4.40495e-33
1.7372e-34
5.36069e-36
1.32893e-37
2.60159e-39
4.07884e-41
4.94216e-43
4.38253e-45
2.69776e-47
5.46499e-50
3.36154e-33
2.96109e-31
3.55981e-30
9.14168e-30
9.78834e-30
2.80126e-30
4.48402e-31
4.5958e-32
3.3901e-33
1.81547e-34
7.3871e-36
2.33895e-37
5.92141e-39
1.17885e-40
1.87257e-42
2.29105e-44
2.04542e-46
1.26793e-48
2.5164e-51
5.48118e-35
5.11363e-33
7.39637e-32
2.3431e-31
2.82307e-31
9.18674e-32
1.58435e-32
1.71939e-33
1.32919e-34
7.39984e-36
3.10939e-37
1.01093e-38
2.61526e-40
5.29736e-42
8.52843e-44
1.05384e-45
9.47257e-48
5.90831e-50
1.10279e-52
8.46958e-37
8.50667e-35
1.45245e-33
5.44807e-33
7.32248e-33
2.71561e-33
5.25474e-34
6.20091e-35
5.10144e-36
2.98201e-37
1.29951e-38
4.34163e-40
1.1484e-41
2.36784e-43
3.865e-45
4.82466e-47
4.36657e-49
2.73836e-51
4.97216e-54
3.58455e-38
8.46958e-37
3.54193e-35
4.47616e-34
1.71131e-33
3.03292e-34
3.37407e-35
2.67222e-36
1.55921e-37
6.85115e-39
2.66858e-40
9.19265e-42
2.49367e-43
5.248e-45
8.70652e-47
1.10039e-48
1.00489e-50
6.34924e-53
4.97216e-54
)
;

boundaryField
{
    leftWall
    {
        type            zeroGradient;
    }
    rightWall
    {
        type            zeroGradient;
    }
    lowerWall
    {
        type            zeroGradient;
    }
    atmosphere
    {
        type            inletOutlet;
        inletValue      uniform 0;
        value           nonuniform List<scalar> 
46
(
0
0
0
0
0
0
0
0
0
0
0
0
0
0
0
0
0
0
0
0
0
0
1.69531e-47
6.54722e-45
1.14192e-42
4.74912e-41
1.4772e-39
3.58455e-38
8.46958e-37
3.54193e-35
4.47616e-34
1.71131e-33
3.03292e-34
3.37407e-35
2.67222e-36
1.55921e-37
6.85115e-39
2.66858e-40
9.19265e-42
2.49367e-43
5.248e-45
8.70652e-47
1.10039e-48
1.00489e-50
6.34924e-53
4.97216e-54
)
;
    }
    defaultFaces
    {
        type            empty;
    }
}


// ************************************************************************* //
