/*--------------------------------*- C++ -*----------------------------------*\
| =========                 |                                                 |
| \\      /  F ield         | OpenFOAM: The Open Source CFD Toolbox           |
|  \\    /   O peration     | Version:  2012                                  |
|   \\  /    A nd           | Website:  www.openfoam.com                      |
|    \\/     M anipulation  |                                                 |
\*---------------------------------------------------------------------------*/
FoamFile
{
    version     2.0;
    format      ascii;
    class       volScalarField;
    location    "0.2";
    object      p_rgh;
}
// * * * * * * * * * * * * * * * * * * * * * * * * * * * * * * * * * * * * * //

dimensions      [1 -1 -2 0 0 0 0];


internalField   nonuniform List<scalar> 
2268
(
2143.72
2151.68
2154.63
2153.67
2150.76
2147.56
2144.7
2142.36
2140.72
2140.14
2141.32
2145.46
2154.5
2171.3
2199.86
2246.17
2316.57
2414.81
2538.98
2671.05
2774.03
2797.88
2839.45
2142.35
2150.22
2153.09
2152.08
2149.16
2145.93
2143.02
2140.57
2138.79
2138.02
2138.95
2142.78
2151.4
2167.63
2195.27
2238.7
2302.97
2394.01
2513.1
2647.83
2761.75
2793.5
2847.44
2139.62
2147.31
2150.02
2148.91
2145.95
2142.67
2139.64
2137
2134.93
2133.77
2134.19
2137.38
2145.17
2160.28
2186.32
2227.65
2289.2
2374.13
2482.34
2605.19
2727.44
2806.27
2898.16
2135.53
2142.99
2145.45
2144.17
2141.15
2137.79
2134.58
2131.64
2129.12
2127.37
2127.04
2129.25
2135.8
2149.25
2173.1
2211.59
2269.2
2348.62
2449.3
2562.81
2685.05
2799.83
2926.88
2130.13
2137.3
2139.44
2137.92
2134.81
2131.33
2127.86
2124.5
2121.38
2118.83
2117.46
2118.37
2123.22
2134.46
2155.42
2190.21
2243.06
2316.53
2410.69
2518.66
2637.04
2759.26
2904.97
2123.46
2130.29
2132.03
2130.22
2126.97
2123.31
2119.5
2115.59
2111.7
2108.12
2105.43
2104.65
2107.33
2115.73
2133.03
2163.2
2210.42
2277.19
2364.03
2465.6
2575.72
2685.58
2809.63
2115.58
2122.05
2123.24
2121.07
2117.66
2113.78
2109.54
2104.94
2100.1
2095.27
2090.99
2088.16
2088.17
2093.09
2105.86
2130.33
2170.66
2229.44
2307.4
2399.35
2494.53
2576.05
2604.17
2106.56
2112.55
2113.08
2110.5
2106.9
2102.77
2098
2092.58
2086.62
2080.36
2074.24
2069.05
2065.98
2066.85
2074.3
2091.99
2123.95
2172.75
2239.61
2317.86
2390.08
2433.21
2283.66
5.97723
5.95738
5.93827
5.91841
5.89575
5.86913
5.83716
5.79953
5.75702
5.7111
5.66363
5.61658
5.57175
5.53069
5.49471
5.46481
5.44178
5.42616
5.41827
5.98056
5.9576
5.93836
5.91883
5.89642
5.87003
5.83812
5.80037
5.7576
5.71136
5.66355
5.61616
5.57105
5.52976
5.49359
5.46356
5.44043
5.42474
5.41683
5.98453
5.95831
5.93863
5.91972
5.89779
5.87186
5.84008
5.80209
5.7588
5.7119
5.66338
5.61533
5.56964
5.52788
5.49132
5.46101
5.43768
5.42187
5.41389
5.99429
5.95931
5.93868
5.92104
5.89985
5.87468
5.8431
5.80474
5.76065
5.71272
5.66313
5.61406
5.56749
5.52501
5.48788
5.45717
5.43353
5.41753
5.40946
6.00794
5.95968
5.93815
5.92287
5.90263
5.87858
5.84728
5.80839
5.76318
5.71383
5.66278
5.61233
5.56458
5.52115
5.48326
5.45198
5.42795
5.4117
5.40351
6.02806
5.95802
5.93768
5.92406
5.90608
5.88367
5.85276
5.81314
5.76645
5.71525
5.6623
5.61012
5.56087
5.51622
5.4774
5.44541
5.4209
5.40436
5.39602
6.05653
5.95043
5.93627
5.92523
5.91026
5.89013
5.85973
5.81913
5.77052
5.71697
5.66168
5.60737
5.55631
5.51019
5.47026
5.43744
5.41238
5.39547
5.38696
6.09886
5.93187
5.93394
5.92675
5.91547
5.89824
5.86843
5.8265
5.77543
5.71899
5.66085
5.60401
5.55083
5.50301
5.4618
5.42804
5.40232
5.38499
5.3763
2090.7
2095.74
2095.26
2092
2087.97
2083.25
2077.45
2070.49
2062.46
2053.53
2044.01
2034.43
2025.64
2018.97
2016.53
2021.69
2038.5
2068.1
2113.66
2162.43
2181.03
2111.79
1525.32
2064.54
2068.24
2066.28
2061.91
2056.87
2050.7
2042.77
2032.86
2020.98
2007.06
1991.1
1973.09
1953.08
1931.06
1908.03
1887.68
1876.68
1877.02
1879.92
1881.64
1854.17
1746.99
1440.11
2034.65
2036.78
2033.1
2027.47
2021.08
2012.91
2002.15
1988.5
1971.76
1951.56
1927.44
1898.54
1863.55
1820.23
1767.12
1706.04
1646.9
1589.88
1548.6
1492.6
1439.95
1416.74
1364.19
2001.77
2002.19
1996.75
1989.73
1981.6
1970.88
1956.64
1938.48
1915.88
1888.08
1854.1
1811.76
1758.87
1689.07
1593.18
1466.81
1318.22
1066.1
803.082
558.927
476.389
607.437
921.977
1966.74
1965.37
1958.24
1949.72
1939.5
1925.76
1907.53
1884.2
1854.89
1818.62
1773.67
1717.43
1646.7
1542.53
1386.03
1078.27
656.961
140.337
-2.77721
-1.91023
-0.529941
15.0767
105.648
1930.26
1927.05
1918.42
1908.34
1895.79
1878.76
1856.31
1827.51
1791.38
1746.71
1691.03
1621.2
1525.61
1359.02
828.434
120.421
-2.11709
-4.93565
-5.65492
-6.09882
-6.15315
-6.17307
-5.19101
1893.41
1888.18
1878.37
1866.86
1852.04
1831.93
1805.53
1771.6
1729.25
1675.59
1606.84
1515.72
1261.06
521.61
2.91442
-3.23155
-4.98581
-5.69928
-6.0495
-6.39862
-6.87594
-7.46711
-7.94268
1858.07
1851
1840.53
1827.63
1810.77
1787.94
1757.87
1718.15
1667.71
1598.35
1411.12
924.417
221.789
-2.69236
-2.79703
-4.46037
-5.41595
-5.91994
-6.2695
-6.68993
-7.25314
-7.89867
-8.44629
1824.08
1815.03
1804.13
1788.94
1769.4
1743.28
1705.65
1603.77
1371.25
919.171
364.569
-3.47048
-3.67754
-3.29263
-2.83322
-2.56123
-5.14631
-6.18449
-6.44319
-6.79704
-7.31688
-7.9053
-8.38534
1772.8
1669.8
1656
1588.91
1465.64
1271.2
975.19
571.086
215.132
-3.30808
-3.73887
-3.60038
-3.64303
-3.57503
0.942493
3.10557
-2.96348
-6.34213
-6.51629
-6.81697
-7.26222
-7.74893
-8.18002
833.094
493.12
475.346
372.234
235.867
99.6012
-2.27731
-2.65693
-3.1061
-3.33332
-3.62082
-3.81959
-3.92325
-3.88586
3.44831
3.49233
-1.35711
-6.37033
-6.49777
-6.7533
-7.1377
-7.5738
-8.01987
-2.07746
-2.08099
-2.13081
-2.21207
-2.32794
-2.47853
-2.54024
-2.71306
-3.00761
-3.34729
-3.72442
-4.08571
-4.32822
-4.33627
-0.132732
4.12747
-0.964128
-6.29235
-6.37718
-6.60926
-6.96221
-7.39326
-7.89536
-2.07993
-2.0861
-2.13102
-2.19862
-2.28934
-2.40303
-2.52573
-2.7075
-2.99019
-3.39161
-3.89426
-4.12577
-4.74946
-4.92611
-2.48907
4.63231
-2.04672
-6.10698
-6.17513
-6.39348
-6.7272
-7.16797
-7.73092
-2.08654
-2.09643
-2.13257
-2.1905
-2.26785
-2.36772
-2.49766
-2.68711
-2.98868
-3.44454
-4.00543
-3.13209
-3.89861
-5.43084
-3.59333
4.79267
-4.01952
-5.8253
-5.91593
-6.11575
-6.42902
-6.86675
-7.46908
-2.08329
-2.10304
-2.13076
-2.17838
-2.24537
-2.336
-2.46139
-2.64651
-2.95828
-3.44528
-2.96307
-3.23037
-3.93567
-5.49835
-3.1174
-1.56912
-5.61211
-5.53244
-5.61022
-5.78827
-6.07135
-6.47993
-7.07158
-2.06798
-2.08943
-2.1137
-2.1555
-2.21502
-2.29732
-2.41265
-2.57845
-2.87102
-3.31912
-2.64149
-2.9644
-3.60493
-4.73076
-2.27569
-2.27138
-5.23383
-5.18592
-5.26353
-5.42037
-5.66332
-6.01667
-6.53093
-2.04284
-2.06182
-2.08368
-2.12135
-2.17463
-2.24807
-2.34848
-2.49471
-2.74155
-3.13672
-3.58255
-2.99252
-3.16773
-4.08803
-4.94911
-4.88444
-4.81543
-4.80604
-4.88633
-5.01557
-5.2076
-5.48038
-5.86812
-2.00716
-2.02109
-2.04259
-2.07649
-2.12446
-2.18978
-2.2771
-2.39996
-2.59357
-2.89391
-3.2957
-3.73131
-4.07853
-4.29962
-4.38839
-4.37086
-4.3559
-4.39794
-4.46818
-4.57645
-4.71257
-4.89097
-5.12822
-1.96015
-1.97096
-1.99109
-2.02194
-2.06529
-2.12364
-2.20012
-2.30238
-2.44948
-2.6641
-2.94559
-3.24746
-3.50451
-3.68537
-3.78937
-3.84445
-3.91048
-3.97989
-4.04826
-4.12192
-4.19929
-4.2836
-4.37127
-1.90342
-1.91264
-1.93096
-1.95901
-1.99818
-2.0504
-2.11795
-2.20503
-2.32058
-2.47502
-2.66745
-2.8751
-3.06836
-3.22808
-3.34758
-3.43836
-3.51669
-3.57979
-3.63019
-3.66847
-3.69189
-3.69566
-3.66438
-1.83904
-1.84718
-1.86373
-1.88907
-1.9242
-1.97064
-2.03016
-2.10533
-2.20033
-2.31911
-2.46021
-2.613
-2.76136
-2.89174
-2.99936
-3.08612
-3.15332
-3.2002
-3.22782
-3.23308
-3.21134
-3.15358
-3.04179
-1.7687
-1.77596
-1.79077
-1.81343
-1.84459
-1.88532
-1.93692
-2.00103
-2.07967
-2.17414
-2.28243
-2.39771
-2.51037
-2.61218
-2.699
-2.76869
-2.81853
-2.84665
-2.85144
-2.82848
-2.77205
-2.67191
-2.5135
-1.69373
-1.70019
-1.71329
-1.73327
-1.76052
-1.7957
-1.8396
-1.89317
-1.95728
-2.03202
-2.11549
-2.20303
-2.28837
-2.36575
-2.4312
-2.48132
-2.51264
-2.52233
-2.50708
-2.46205
-2.38165
-2.25742
-2.07526
-1.61519
-1.62084
-1.63227
-1.64962
-1.67309
-1.70299
-1.73973
-1.7837
-1.83516
-1.89376
-1.95776
-2.02366
-2.08696
-2.1434
-2.18932
-2.22112
-2.23527
-2.22847
-2.19693
-2.13604
-2.04066
-1.90394
-1.71599
-1.53389
-1.53873
-1.54854
-1.56335
-1.58323
-1.60822
-1.63842
-1.67387
-1.71443
-1.75953
-1.80764
-1.85611
-1.90155
-1.94047
-1.96955
-1.9855
-1.98499
-1.96463
-1.92078
-1.84952
-1.74649
-1.60634
-1.42275
-1.45052
-1.45457
-1.46283
-1.47524
-1.49174
-1.51223
-1.53657
-1.56455
-1.59581
-1.62965
-1.66475
-1.69904
-1.72987
-1.75434
-1.76948
-1.77234
-1.75992
-1.72916
-1.67691
-1.59981
-1.49436
-1.35677
-1.18321
-1.36568
-1.369
-1.37579
-1.38595
-1.39934
-1.41575
-1.43491
-1.45646
-1.47987
-1.50442
-1.52891
-1.55167
-1.5706
-1.58329
-1.5872
-1.57969
-1.55815
-1.52
-1.46256
-1.38309
-1.27898
-1.14767
-0.986982
-1.27992
-1.28257
-1.28799
-1.29607
-1.30661
-1.31937
-1.33401
-1.35004
-1.3669
-1.38382
-1.39972
-1.41322
-1.42262
-1.42594
-1.42103
-1.40564
-1.37754
-1.33456
-1.27456
-1.19542
-1.09523
-0.972339
-0.825671
-1.19369
-1.19573
-1.1999
-1.20607
-1.21404
-1.22356
-1.23426
-1.24563
-1.25706
-1.26778
-1.27683
-1.28302
-1.28497
-1.28104
-1.26945
-1.24835
-1.2159
-1.1703
-1.10984
-1.03294
-0.938294
-0.824985
-0.692457
-1.10736
-1.10886
-1.1119
-1.11635
-1.12204
-1.12871
-1.13601
-1.14343
-1.15039
-1.15615
-1.15981
-1.16037
-1.15666
-1.14734
-1.13097
-1.10604
-1.07107
-1.0246
-0.965316
-0.892046
-0.803964
-0.70058
-0.581741
-1.02119
-1.02223
-1.02426
-1.0272
-1.03089
-1.03511
-1.03949
-1.04361
-1.04692
-1.04872
-1.04823
-1.04456
-1.03672
-1.0236
-1.00406
-0.976882
-0.940883
-0.894938
-0.838035
-0.769355
-0.688375
-0.59488
-0.488985
-0.935389
-0.936007
-0.937174
-0.938827
-0.940821
-0.942949
-0.944905
-0.946306
-0.946658
-0.945356
-0.94171
-0.934952
-0.924235
-0.908656
-0.887278
-0.859148
-0.82334
-0.77899
-0.725349
-0.661853
-0.588202
-0.50436
-0.410567
-0.850074
-0.850338
-0.850788
-0.851367
-0.851958
-0.85237
-0.852346
-0.851558
-0.849576
-0.84589
-0.839918
-0.831002
-0.818427
-0.80145
-0.779322
-0.751291
-0.716633
-0.674698
-0.624949
-0.56701
-0.500726
-0.426181
-0.343656
-0.765368
-0.76534
-0.765211
-0.76493
-0.764399
-0.763445
-0.761863
-0.759369
-0.755607
-0.750162
-0.742554
-0.732236
-0.718615
-0.701091
-0.679066
-0.651949
-0.619184
-0.580283
-0.53487
-0.482706
-0.423733
-0.358085
-0.286064
-0.681362
-0.681105
-0.680526
-0.679581
-0.678185
-0.676191
-0.673434
-0.669676
-0.664631
-0.657971
-0.649315
-0.638219
-0.624208
-0.606809
-0.585552
-0.559978
-0.529661
-0.494245
-0.45347
-0.407194
-0.355414
-0.298279
-0.236091
-0.598094
-0.597664
-0.596749
-0.595314
-0.593283
-0.590543
-0.586957
-0.582333
-0.576451
-0.569059
-0.55986
-0.548511
-0.534649
-0.517913
-0.497942
-0.474387
-0.44693
-0.415316
-0.379375
-0.339028
-0.2943
-0.245318
-0.192404
-0.515572
-0.515017
-0.513861
-0.512086
-0.509621
-0.506387
-0.50227
-0.497128
-0.490799
-0.483093
-0.473788
-0.462635
-0.449372
-0.433732
-0.415453
-0.394279
-0.369984
-0.342395
-0.311407
-0.276988
-0.239175
-0.19808
-0.153933
-0.433828
-0.433199
-0.431879
-0.429886
-0.427151
-0.423622
-0.419216
-0.413839
-0.407379
-0.399703
-0.390657
-0.380074
-0.367778
-0.353589
-0.337324
-0.31881
-0.297902
-0.274493
-0.248528
-0.220007
-0.188983
-0.155575
-0.119765
-0.352958
-0.352309
-0.350891
-0.348778
-0.3459
-0.342232
-0.337724
-0.332327
-0.325976
-0.318591
-0.310082
-0.300355
-0.289309
-0.276836
-0.262828
-0.247184
-0.229825
-0.2107
-0.189794
-0.167127
-0.142744
-0.11671
-0.0890544
-0.273332
-0.272704
-0.271248
-0.269083
-0.266155
-0.262457
-0.257979
-0.25271
-0.24663
-0.239708
-0.231917
-0.223226
-0.213602
-0.203003
-0.191391
-0.178732
-0.165005
-0.150208
-0.134356
-0.117487
-0.0996458
-0.0808613
-0.0611313
-0.194392
-0.193835
-0.19241
-0.190263
-0.187362
-0.183733
-0.179398
-0.174385
-0.168715
-0.162409
-0.155494
-0.147996
-0.139941
-0.131353
-0.122254
-0.112672
-0.102639
-0.0921948
-0.0813846
-0.0702666
-0.0588958
-0.0472873
-0.0353731
-0.111412
-0.11116
-0.109848
-0.107804
-0.105055
-0.10166
-0.0976782
-0.0931698
-0.0881994
-0.0828355
-0.0771523
-0.0712278
-0.0651407
-0.0589695
-0.0527918
-0.0466835
-0.040718
-0.034964
-0.0294859
-0.0243526
-0.0196299
-0.0153306
-0.0112959
489.903
445.242
6.05911
6.52659
954.609
704.733
589.951
384.489
1187.21
1022.82
929.456
859.355
1065.94
1030.81
995.252
982.896
214.431
361.065
853.563
1015.63
-4.03401
-2.02269
81.7234
696.882
-7.81779
-7.34263
-5.00278
170.866
-8.49921
-8.46845
-8.47614
-5.20674
-8.57203
-8.71327
-9.07612
-8.68585
-8.47597
-8.6973
-9.07824
-9.31669
-8.41629
-8.69517
-9.04977
-9.4113
-8.36145
-8.67757
-9.0208
-9.38062
-8.27077
-8.57191
-8.93583
-9.23932
-8.06246
-8.42908
-8.23007
-8.97512
-7.64887
-7.99321
-6.89746
-6.07166
-7.04522
-7.32793
-7.19099
-6.48719
-6.25686
-6.50754
-6.72537
-6.46062
-5.34548
-5.49457
-5.66398
-5.85778
-4.41672
-4.43057
-4.44779
-4.50074
-3.5908
-3.51725
-3.42639
-3.33432
-2.89994
-2.78151
-2.63959
-2.47854
-2.33793
-2.20173
-2.04347
-1.86481
-1.88994
-1.75194
-1.59569
-1.42254
-1.53486
-1.40366
-1.25825
-1.09989
-1.25292
-1.13243
-1.00119
-0.860347
-1.02776
-0.919258
-0.802726
-0.679145
-0.846771
-0.750167
-0.647582
-0.539797
-0.700393
-0.614953
-0.525011
-0.431181
-0.581225
-0.505951
-0.427228
-0.345545
-0.483427
-0.417279
-0.348436
-0.2773
-0.402413
-0.344422
-0.284294
-0.222365
-0.334635
-0.283953
-0.231565
-0.177751
-0.277392
-0.233301
-0.18785
-0.141273
-0.228639
-0.190542
-0.151372
-0.111316
-0.186816
-0.154219
-0.120787
-0.0866655
-0.150708
-0.123203
-0.0950603
-0.0663874
-0.119345
-0.0965921
-0.0733636
-0.0497366
-0.0919016
-0.0736244
-0.0550052
-0.036096
-0.067646
-0.0536357
-0.0393894
-0.0249412
-0.0459652
-0.0360638
-0.0260129
-0.0158332
-0.0263111
-0.020412
-0.0144344
-0.00838874
-0.00827815
-0.00632108
-0.00434337
-0.00234744
6.19574
5.86363
5.9323
5.92865
5.92527
5.91392
5.8852
5.84047
5.78453
5.72256
5.65913
5.59767
5.54069
5.48988
5.4464
5.41099
5.38413
5.36609
5.35705
9.27784
6.1595
5.93165
5.91207
5.94046
5.9469
5.91979
5.86795
5.80138
5.72836
5.65498
5.58521
5.52165
5.46584
5.41866
5.3806
5.35193
5.33279
5.32322
304.262
6.37612
5.71379
5.81595
5.96124
6.00301
5.97294
5.90649
5.82292
5.73417
5.64752
5.56737
5.49596
5.43442
5.38313
5.34221
5.31162
5.29132
5.2812
805.238
106.991
5.39181
5.73264
6.04572
6.10527
6.05296
5.95767
5.84775
5.73743
5.63425
5.54193
5.46183
5.39419
5.33872
5.29498
5.26255
5.24113
5.23049
951.522
350.838
10.7667
5.97047
6.26323
6.27261
6.16325
6.01934
5.87177
5.73386
5.61136
5.50587
5.41698
5.34352
5.28423
5.23801
5.20403
5.1817
5.17063
979.302
644.183
43.2325
6.98037
6.56402
6.49771
6.29872
6.08143
5.88632
5.71624
5.57343
5.45537
5.35877
5.28062
5.21847
5.1705
5.13547
5.11255
5.10121
925.406
843.451
107.247
8.95439
7.12878
6.77404
6.43811
6.12983
5.87628
5.67405
5.51364
5.38619
5.28467
5.20393
5.14044
5.09181
5.05644
5.03336
5.02197
878.535
821.047
195.813
10.9027
7.94822
7.07901
6.54158
6.12245
5.81908
5.59432
5.42488
5.29454
5.19261
5.11236
5.04958
5.00159
4.96674
4.944
4.93278
746.412
828.28
218.339
11.8527
8.31067
7.209
6.49317
6.00946
5.68966
5.46557
5.30212
5.17831
5.08183
5.00569
4.94586
4.89994
4.86646
4.84456
4.83373
613.666
840.927
192.766
11.0575
7.83377
6.92639
6.20465
5.75374
5.4739
5.28391
5.14533
5.03859
4.95349
4.88487
4.83001
4.78735
4.75597
4.73532
4.72509
529.871
808.598
143.59
8.76834
6.64302
6.09251
5.63985
5.35128
5.17987
5.05831
4.96156
4.88026
4.81086
4.75204
4.70341
4.66477
4.63596
4.61685
4.60734
590.024
811.365
143.981
5.52616
4.92507
4.76784
4.82754
4.84375
4.84301
4.81222
4.76514
4.71187
4.65891
4.61014
4.56789
4.5334
4.50727
4.48978
4.48103
514.039
806.576
205.476
1.60368
2.60694
3.10826
3.97065
4.3725
4.53266
4.58028
4.57459
4.54329
4.50295
4.46216
4.42522
4.39437
4.3707
4.35474
4.34674
53.8812
839.146
671.684
34.3056
1.34061
2.00255
3.3033
4.0634
4.32261
4.3967
4.405
4.38155
4.34657
4.31007
4.27664
4.24856
4.22696
4.21238
4.20507
-6.73668
589.168
691.851
258.019
6.18401
2.86269
3.51094
4.10457
4.25353
4.27406
4.25947
4.2273
4.19009
4.15425
4.12258
4.09647
4.07658
4.06325
4.05659
-3.73288
59.8706
416.706
386.29
50.8989
5.30002
4.30003
4.29699
4.2442
4.17796
4.12275
4.07362
4.03039
3.99342
3.96272
3.93824
3.91997
3.90786
3.90184
-4.55014
-4.65665
42.6887
109.048
59.7496
8.23556
4.68841
4.36607
4.18316
4.05736
3.97218
3.91021
3.86276
3.82559
3.79637
3.77389
3.75746
3.74672
3.74143
-5.83793
-4.40223
-0.219117
6.76228
16.1051
6.85313
4.59864
4.22904
4.02047
3.88356
3.79264
3.7295
3.68361
3.64923
3.62314
3.60357
3.58953
3.58046
3.57602
-4.39907
-3.06356
-1.03067
2.78896
4.26715
4.43493
4.10022
3.90175
3.75773
3.65407
3.58129
3.52962
3.49207
3.46419
3.44332
3.42786
3.41688
3.40985
3.40643
-3.06433
-2.05212
-0.388965
1.70958
2.99519
3.42136
3.51042
3.4868
3.43634
3.38654
3.34568
3.31411
3.29008
3.27182
3.25801
3.24776
3.24049
3.23584
3.23359
-2.12747
-1.25483
-0.0137862
1.32789
2.27316
2.76274
2.98912
3.07028
3.10053
3.10366
3.09764
3.08939
3.08143
3.07458
3.06902
3.06471
3.06158
3.05956
3.05859
-1.50597
-0.773302
0.144376
1.08589
1.81387
2.27467
2.54521
2.69506
2.77829
2.82309
2.84816
2.86227
2.8705
2.87542
2.87845
2.88034
2.88152
2.88223
2.88259
-1.0914
-0.486053
0.213107
0.909741
1.48572
1.90058
2.1804
2.36252
2.48001
2.55571
2.60546
2.63848
2.66131
2.67724
2.68846
2.69635
2.70173
2.70509
2.70675
-0.806945
-0.308299
0.240479
0.779914
1.24646
1.61182
1.88178
2.07473
2.21082
2.30644
2.37408
2.42232
2.45716
2.48257
2.50102
2.51431
2.52351
2.5293
2.53222
-0.605663
-0.192623
0.248625
0.680657
1.06613
1.38514
1.63618
1.82757
1.97102
2.07772
2.15702
2.21608
2.26021
2.29322
2.31771
2.33557
2.34806
2.35592
2.36
-0.459221
-0.114118
0.247726
0.601975
0.92523
1.20322
1.43209
1.61497
1.75838
1.86961
1.95537
2.02133
2.07192
2.11054
2.13969
2.16117
2.17631
2.18591
2.1909
-0.350163
-0.0593039
0.242074
0.537561
0.81169
1.05403
1.26033
1.43111
1.56975
1.68083
1.76901
1.83856
1.89307
1.93539
1.96778
1.99191
2.00904
2.01996
2.02558
-0.267468
-0.0204216
0.233599
0.483164
0.717583
0.929103
1.11376
1.27083
1.40185
1.50956
1.59711
1.66761
1.72384
1.76817
1.80249
1.82831
1.84676
1.85859
1.86461
-0.203906
0.0072596
0.223269
0.43593
0.63759
0.822386
0.986854
1.12975
1.25155
1.35376
1.43847
1.50786
1.56406
1.60892
1.64402
1.67065
1.6898
1.70215
1.70837
-0.154535
0.0267932
0.21161
0.393902
0.568039
0.729518
0.875401
1.00429
1.11604
1.21143
1.29173
1.35849
1.41324
1.45744
1.49235
1.51903
1.53832
1.55082
1.55706
-0.115891
0.0402229
0.198917
0.355691
0.506311
0.647275
0.776124
0.891476
0.992894
1.08066
1.15553
1.21854
1.27078
1.31336
1.34726
1.37335
1.3923
1.40463
1.41074
-0.0855149
0.0489456
0.185352
0.320282
0.450495
0.573242
0.686482
0.788939
0.88004
0.959778
1.02855
1.08703
1.13597
1.17619
1.20844
1.2334
1.25162
1.2635
1.26936
-0.0616386
0.0539373
0.171
0.286913
0.399167
0.505586
0.604491
0.694746
0.775736
0.847291
0.909579
0.962994
1.00806
1.04536
1.07546
1.09886
1.11601
1.12723
1.13272
-0.0429678
0.0558978
0.155907
0.25501
0.351253
0.442908
0.528597
0.607334
0.678519
0.741899
0.797492
0.845516
0.886311
0.920279
0.947827
0.969341
0.985154
0.995528
1.00057
-0.0285359
0.0553424
0.1401
0.224142
0.305939
0.384121
0.457563
0.525423
0.587151
0.642459
0.69128
0.733713
0.769964
0.8003
0.825011
0.844378
0.858653
0.86804
0.872569
-0.0176019
0.0526647
0.123604
0.193977
0.262592
0.328364
0.390383
0.447948
0.50057
0.547966
0.590021
0.626758
0.658291
0.68479
0.706454
0.723484
0.736066
0.74436
0.748329
-0.00957889
0.0481765
0.106438
0.164254
0.220703
0.274935
0.326228
0.374008
0.417862
0.457526
0.492872
0.523874
0.550587
0.573112
0.591583
0.606141
0.61692
0.62404
0.627415
-0.00398807
0.0421297
0.0886163
0.134756
0.17985
0.223249
0.264394
0.302831
0.338222
0.37034
0.399058
0.424329
0.44617
0.46464
0.479824
0.491818
0.500714
0.506603
0.509357
-0.000431637
0.0347287
0.0701434
0.105295
0.139674
0.172806
0.204275
0.233739
0.260935
0.28568
0.307863
0.327434
0.34439
0.35876
0.370599
0.379968
0.386927
0.391546
0.393662
0.00141794
0.0261347
0.0510114
0.0757018
0.099862
0.123169
0.145337
0.166126
0.185351
0.202877
0.218619
0.232534
0.244612
0.254867
0.26333
0.270037
0.275024
0.278346
0.279819
0.00184331
0.0164886
0.031218
0.0458355
0.0601442
0.0739571
0.0871075
0.0994543
0.110886
0.121322
0.130708
0.139017
0.146239
0.152379
0.157452
0.161478
0.164472
0.166485
0.167318
0.00102391
0.00584277
0.0106838
0.0154866
0.0201886
0.0247304
0.0290579
0.0331254
0.036896
0.0403427
0.0434473
0.0461996
0.0485953
0.0506351
0.0523225
0.0536635
0.0546587
0.0553369
0.055596
)
;

boundaryField
{
    leftWall
    {
        type            fixedFluxPressure;
        gradient        uniform 0;
        value           nonuniform List<scalar> 
50
(
2143.72
2142.35
2139.62
2135.53
2130.13
2123.46
2115.58
2106.56
2090.7
2064.54
2034.65
2001.77
1966.74
1930.26
1893.41
1858.07
1824.08
1772.8
833.094
-2.07746
-2.07993
-2.08654
-2.08329
-2.06798
-2.04284
-2.00716
-1.96015
-1.90342
-1.83904
-1.7687
-1.69373
-1.61519
-1.53389
-1.45052
-1.36568
-1.27992
-1.19369
-1.10736
-1.02119
-0.935389
-0.850074
-0.765368
-0.681362
-0.598094
-0.515572
-0.433828
-0.352958
-0.273332
-0.194392
-0.111412
)
;
    }
    rightWall
    {
        type            fixedFluxPressure;
        gradient        uniform 0;
        value           nonuniform List<scalar> 
50
(
5.41827
5.41683
5.41389
5.40946
5.40351
5.39602
5.38696
5.3763
5.35705
5.32322
5.2812
5.23049
5.17063
5.10121
5.02197
4.93278
4.83373
4.72509
4.60734
4.48103
4.34674
4.20507
4.05659
3.90184
3.74143
3.57602
3.40643
3.23359
3.05859
2.88259
2.70675
2.53222
2.36
2.1909
2.02558
1.86461
1.70837
1.55706
1.41074
1.26936
1.13272
1.00057
0.872569
0.748329
0.627415
0.509357
0.393662
0.279819
0.167318
0.055596
)
;
    }
    lowerWall
    {
        type            fixedFluxPressure;
        gradient        uniform 0;
        value           nonuniform List<scalar> 
62
(
2143.72
2151.68
2154.63
2153.67
2150.76
2147.56
2144.7
2142.36
2140.72
2140.14
2141.32
2145.46
2154.5
2171.3
2199.86
2246.17
2316.57
2414.81
2538.98
2671.05
2774.03
2797.88
2839.45
2839.45
2847.44
2898.16
2926.88
2904.97
2809.63
2604.17
2283.66
489.903
445.242
6.05911
6.52659
5.97723
5.98056
5.98453
5.99429
6.00794
6.02806
6.05653
6.09886
5.97723
5.95738
5.93827
5.91841
5.89575
5.86913
5.83716
5.79953
5.75702
5.7111
5.66363
5.61658
5.57175
5.53069
5.49471
5.46481
5.44178
5.42616
5.41827
)
;
    }
    atmosphere
    {
        type            totalPressure;
        rho             rho;
        psi             none;
        gamma           1;
        p0              uniform 0;
        value           nonuniform List<scalar> 
46
(
-0.065942
-0.0662095
-0.0649308
-0.0629819
-0.0603967
-0.0572426
-0.0535898
-0.0495159
-0.0451057
-0.0404507
-0.0356474
-0.0307963
-0.0259991
-0.0213569
-0.0169672
-0.0129219
-0.00930514
-0.00619148
-0.00364497
-0.00172625
-0.000501375
-1.34913e-05
0
0
0
0
0
0
0
0
0
0
0
0
0
0
0
0
0
0
0
0
0
0
0
0
)
;
    }
    defaultFaces
    {
        type            empty;
    }
}


// ************************************************************************* //
