/*--------------------------------*- C++ -*----------------------------------*\
| =========                 |                                                 |
| \\      /  F ield         | OpenFOAM: The Open Source CFD Toolbox           |
|  \\    /   O peration     | Version:  2012                                  |
|   \\  /    A nd           | Website:  www.openfoam.com                      |
|    \\/     M anipulation  |                                                 |
\*---------------------------------------------------------------------------*/
FoamFile
{
    version     2.0;
    format      ascii;
    class       volVectorField;
    location    "0.2";
    object      U;
}
// * * * * * * * * * * * * * * * * * * * * * * * * * * * * * * * * * * * * * //

dimensions      [0 1 -1 0 0 0 0];


internalField   nonuniform List<vector> 
2268
(
(0.00441151 -0.00550121 0)
(0.0499611 -0.0152865 0)
(0.122778 -0.0171508 0)
(0.195007 -0.0158971 0)
(0.260052 -0.0145385 0)
(0.319839 -0.0138818 0)
(0.37811 -0.0138148 0)
(0.437096 -0.0140436 0)
(0.497353 -0.0143092 0)
(0.558528 -0.0144282 0)
(0.619727 -0.0142676 0)
(0.67954 -0.0137013 0)
(0.735967 -0.0125757 0)
(0.786255 -0.0106932 0)
(0.826537 -0.00769078 0)
(0.851647 -0.00247064 0)
(0.849563 0.00850801 0)
(0.795882 0.0273712 0)
(0.668813 0.0534937 0)
(0.445468 0.0794827 0)
(0.139355 0.0826013 0)
(-0.226731 -0.0180855 0)
(-0.160662 -0.152098 0)
(0.00462958 -0.0167423 0)
(0.0507329 -0.0459499 0)
(0.123731 -0.0515655 0)
(0.195789 -0.0479021 0)
(0.26068 -0.0438556 0)
(0.320538 -0.041896 0)
(0.37905 -0.0417191 0)
(0.43836 -0.0424292 0)
(0.498993 -0.0432447 0)
(0.560601 -0.0436273 0)
(0.622329 -0.0431864 0)
(0.682812 -0.04154 0)
(0.740098 -0.0382261 0)
(0.791534 -0.0326312 0)
(0.833675 -0.0238213 0)
(0.861894 -0.00983349 0)
(0.875938 0.0129988 0)
(0.880926 0.049357 0)
(0.867095 0.102371 0)
(0.792457 0.168835 0)
(0.601204 0.216743 0)
(0.210321 0.162805 0)
(0.13687 -0.0867826 0)
(0.00499476 -0.0282883 0)
(0.0516757 -0.0765228 0)
(0.124426 -0.0857664 0)
(0.195679 -0.079719 0)
(0.259847 -0.0730179 0)
(0.319396 -0.0698174 0)
(0.377935 -0.0696074 0)
(0.43746 -0.0708525 0)
(0.498429 -0.072252 0)
(0.560502 -0.0729397 0)
(0.62287 -0.072285 0)
(0.684245 -0.0696572 0)
(0.742782 -0.0642946 0)
(0.795978 -0.0551929 0)
(0.840577 -0.0409831 0)
(0.872265 -0.0198381 0)
(0.885891 0.00985565 0)
(0.877191 0.0530104 0)
(0.851367 0.116763 0)
(0.815464 0.208049 0)
(0.765532 0.302783 0)
(0.519494 0.296094 0)
(0.285153 0.0532454 0)
(0.0055824 -0.0402179 0)
(0.0530916 -0.107051 0)
(0.125419 -0.119627 0)
(0.195559 -0.111156 0)
(0.258771 -0.101927 0)
(0.317945 -0.0976652 0)
(0.376589 -0.0975728 0)
(0.436492 -0.0994509 0)
(0.498016 -0.101509 0)
(0.560831 -0.10259 0)
(0.6242 -0.101847 0)
(0.686946 -0.0984179 0)
(0.747393 -0.091259 0)
(0.80324 -0.0790089 0)
(0.85137 -0.0598702 0)
(0.887553 -0.0316664 0)
(0.907074 0.00834285 0)
(0.903935 0.063196 0)
(0.874583 0.135969 0)
(0.815936 0.230984 0)
(0.773066 0.350209 0)
(0.628574 0.4084 0)
(0.366446 0.25763 0)
(0.00642795 -0.0527053 0)
(0.0549666 -0.137572 0)
(0.126619 -0.152993 0)
(0.195319 -0.142032 0)
(0.257368 -0.130495 0)
(0.316121 -0.125441 0)
(0.374937 -0.125664 0)
(0.435337 -0.128298 0)
(0.497565 -0.131114 0)
(0.561314 -0.132712 0)
(0.625948 -0.132056 0)
(0.690445 -0.128079 0)
(0.75336 -0.119482 0)
(0.81264 -0.104528 0)
(0.865326 -0.0809343 0)
(0.907241 -0.0459699 0)
(0.933729 0.00333582 0)
(0.939234 0.0700173 0)
(0.919076 0.156691 0)
(0.858614 0.260791 0)
(0.777693 0.390635 0)
(0.649747 0.512776 0)
(0.401506 0.482347 0)
(0.00760966 -0.0660471 0)
(0.0572412 -0.168071 0)
(0.127888 -0.185729 0)
(0.194826 -0.172227 0)
(0.255542 -0.158681 0)
(0.313844 -0.153174 0)
(0.37287 -0.153943 0)
(0.433821 -0.157469 0)
(0.496813 -0.161158 0)
(0.561591 -0.163429 0)
(0.627649 -0.163097 0)
(0.694186 -0.158929 0)
(0.760042 -0.149389 0)
(0.823417 -0.132347 0)
(0.881505 -0.104961 0)
(0.930242 -0.0639686 0)
(0.965004 -0.00601195 0)
(0.980345 0.0720966 0)
(0.970789 0.173461 0)
(0.923517 0.296174 0)
(0.825719 0.442531 0)
(0.673138 0.618335 0)
(0.417411 0.729639 0)
(0.00915053 -0.0802808 0)
(0.0597586 -0.198471 0)
(0.129043 -0.217778 0)
(0.193958 -0.201732 0)
(0.253227 -0.186487 0)
(0.311059 -0.180856 0)
(0.3703 -0.182386 0)
(0.431797 -0.186921 0)
(0.495547 -0.191582 0)
(0.561372 -0.19467 0)
(0.628947 -0.194895 0)
(0.697747 -0.1909 0)
(0.766926 -0.180923 0)
(0.834913 -0.162405 0)
(0.89908 -0.131961 0)
(0.955637 -0.0858499 0)
(1.00024 -0.0205699 0)
(1.02733 0.0679162 0)
(1.03032 0.183511 0)
(0.998811 0.328633 0)
(0.910809 0.503739 0)
(0.743178 0.721206 0)
(0.473063 0.98421 0)
(0.0109368 -0.0953815 0)
(0.0622838 -0.228872 0)
(0.129892 -0.249109 0)
(0.192658 -0.230543 0)
(0.250455 -0.213957 0)
(0.307803 -0.208517 0)
(0.367225 -0.210982 0)
(0.429209 -0.216611 0)
(0.493661 -0.22232 0)
(0.560511 -0.226341 0)
(0.629662 -0.22732 0)
(0.700911 -0.223801 0)
(0.77371 -0.213743 0)
(0.846728 -0.19408 0)
(0.917613 -0.160918 0)
(0.982922 -0.110198 0)
(1.03874 -0.0380993 0)
(1.07945 0.059688 0)
(1.09836 0.188087 0)
(1.08579 0.353614 0)
(1.01923 0.564311 0)
(0.870444 0.834037 0)
(0.469469 1.30439 0)
(0.00370734 -0.00499796 0)
(0.0172093 -0.000469082 0)
(0.0161496 0.000787136 0)
(0.0188853 -0.000578497 0)
(0.0293399 -0.00160079 0)
(0.0397209 -0.00192786 0)
(0.0502641 -0.00172832 0)
(0.0586602 -0.00132551 0)
(0.0643782 -0.000723571 0)
(0.0670693 -0.000186744 0)
(0.0670253 0.000292695 0)
(0.0644409 0.000740854 0)
(0.0596389 0.00110939 0)
(0.0530178 0.00144534 0)
(0.0450337 0.00166872 0)
(0.0360385 0.00186415 0)
(0.026215 0.00195834 0)
(0.0158797 0.00203622 0)
(0.00529319 0.00211451 0)
(-0.0192804 -0.00445681 0)
(-0.00606649 -0.00284123 0)
(0.00230324 -0.00210325 0)
(0.01361 -0.00548115 0)
(0.0288235 -0.00686122 0)
(0.0418618 -0.00735789 0)
(0.0546963 -0.0065198 0)
(0.065106 -0.00495007 0)
(0.072174 -0.00289802 0)
(0.0755396 -0.000884531 0)
(0.0757343 0.000841791 0)
(0.0729841 0.00243527 0)
(0.0676606 0.00374392 0)
(0.0602144 0.00482588 0)
(0.051164 0.00563062 0)
(0.0409522 0.00627524 0)
(0.029786 0.00665676 0)
(0.0180449 0.0069245 0)
(0.00597342 0.00700502 0)
(-0.0199009 0.00064998 0)
(-0.00306715 -0.00667304 0)
(0.00452359 -0.00658203 0)
(0.0135882 -0.0115104 0)
(0.0286611 -0.0125578 0)
(0.0417574 -0.0130845 0)
(0.0547508 -0.0115016 0)
(0.0651051 -0.00863027 0)
(0.0720609 -0.00518947 0)
(0.0752625 -0.0016208 0)
(0.0753371 0.00148731 0)
(0.0725464 0.00426513 0)
(0.0671942 0.00653644 0)
(0.0597654 0.00835998 0)
(0.0507724 0.00978069 0)
(0.0406257 0.0108543 0)
(0.0295443 0.0115778 0)
(0.0179116 0.0120339 0)
(0.00592718 0.0121751 0)
(-0.0197819 0.0050146 0)
(-0.00663109 -0.00952587 0)
(0.00262612 -0.00953262 0)
(0.011461 -0.0167977 0)
(0.0280111 -0.0181623 0)
(0.0417837 -0.0189878 0)
(0.0555939 -0.0165435 0)
(0.0663488 -0.012328 0)
(0.07341 -0.00736748 0)
(0.0765214 -0.00231576 0)
(0.0763825 0.00216824 0)
(0.0733669 0.00610361 0)
(0.0678016 0.00931832 0)
(0.0602052 0.0118388 0)
(0.0510743 0.0138859 0)
(0.0408227 0.0153573 0)
(0.029669 0.0164232 0)
(0.017983 0.017062 0)
(0.00595132 0.0172398 0)
(-0.0265254 0.00658645 0)
(-0.016787 -0.0125577 0)
(-0.00156686 -0.0141013 0)
(0.00779367 -0.0230195 0)
(0.0271163 -0.0244605 0)
(0.0418957 -0.0254116 0)
(0.0569257 -0.0219907 0)
(0.0683224 -0.0162672 0)
(0.0756017 -0.00952784 0)
(0.0786114 -0.00293803 0)
(0.0782312 0.00295418 0)
(0.0749358 0.00804723 0)
(0.0690422 0.0122058 0)
(0.0611918 0.0154397 0)
(0.0518408 0.0180567 0)
(0.041373 0.0199422 0)
(0.0300551 0.0213269 0)
(0.0182045 0.0221408 0)
(0.00602265 0.022352 0)
(-0.0317527 0.0200216 0)
(-0.026148 -0.0101316 0)
(-0.0084256 -0.0204761 0)
(0.000689976 -0.0298729 0)
(0.0250349 -0.0315171 0)
(0.0419072 -0.0324057 0)
(0.0586645 -0.0278009 0)
(0.0709202 -0.0203214 0)
(0.0784565 -0.0116634 0)
(0.0813122 -0.00349567 0)
(0.0806172 0.00392893 0)
(0.076939 0.0101602 0)
(0.0706548 0.015178 0)
(0.0624615 0.0192041 0)
(0.0528176 0.0223239 0)
(0.0420931 0.0246453 0)
(0.0305515 0.0262958 0)
(0.0184862 0.027296 0)
(0.0061126 0.0275388 0)
(-0.0502023 0.0184303 0)
(-0.0388666 -0.0149977 0)
(-0.023019 -0.0267806 0)
(-0.011912 -0.0397397 0)
(0.0201469 -0.040994 0)
(0.0410766 -0.0406757 0)
(0.0605388 -0.0342871 0)
(0.0739929 -0.0247001 0)
(0.0818391 -0.0138302 0)
(0.0845498 -0.00395482 0)
(0.0835036 0.00503914 0)
(0.0793062 0.0124542 0)
(0.0725734 0.0183547 0)
(0.0639934 0.0230594 0)
(0.0539818 0.0267568 0)
(0.0429453 0.0294394 0)
(0.0311366 0.0313515 0)
(0.0188298 0.0325479 0)
(0.00622127 0.0328166 0)
(-0.0372379 0.0482472 0)
(-0.0777087 0.00351247 0)
(-0.0395635 -0.0353133 0)
(-0.0257416 -0.0494571 0)
(0.0151883 -0.0531268 0)
(0.0408703 -0.0504569 0)
(0.063292 -0.0416661 0)
(0.0780104 -0.0293912 0)
(0.0860711 -0.0160867 0)
(0.0884511 -0.00433754 0)
(0.0869572 0.00625585 0)
(0.08213 0.0148866 0)
(0.074809 0.0216875 0)
(0.0657798 0.027061 0)
(0.0553496 0.0312851 0)
(0.0439238 0.0343339 0)
(0.031824 0.036533 0)
(0.0192299 0.0378883 0)
(0.00634534 0.0381691 0)
(0.0136979 -0.121582 0)
(0.0658 -0.276343 0)
(0.130419 -0.295873 0)
(0.189789 -0.273608 0)
(0.245408 -0.256129 0)
(0.302007 -0.251895 0)
(0.361547 -0.256273 0)
(0.424054 -0.263897 0)
(0.489403 -0.271607 0)
(0.557776 -0.277675 0)
(0.629546 -0.280786 0)
(0.705054 -0.279314 0)
(0.784295 -0.270708 0)
(0.866623 -0.251173 0)
(0.950328 -0.215984 0)
(1.03219 -0.160176 0)
(1.10855 -0.0790506 0)
(1.17306 0.0324298 0)
(1.21953 0.180021 0)
(1.24467 0.371016 0)
(1.22166 0.624828 0)
(1.227 0.919678 0)
(1.09989 1.54573 0)
(0.0172931 -0.160049 0)
(0.0702158 -0.339486 0)
(0.130451 -0.355605 0)
(0.185022 -0.328893 0)
(0.237849 -0.311795 0)
(0.293509 -0.310366 0)
(0.352986 -0.317944 0)
(0.415845 -0.328693 0)
(0.482079 -0.339703 0)
(0.552346 -0.349579 0)
(0.627818 -0.357232 0)
(0.709592 -0.360768 0)
(0.798747 -0.357367 0)
(0.896259 -0.342595 0)
(1.00143 -0.309839 0)
(1.11063 -0.251828 0)
(1.21992 -0.16273 0)
(1.32365 -0.0339383 0)
(1.4127 0.139386 0)
(1.48816 0.374748 0)
(1.53016 0.666669 0)
(1.59615 0.950086 0)
(1.64088 1.36618 0)
(0.0209192 -0.203051 0)
(0.0737379 -0.39977 0)
(0.128747 -0.409565 0)
(0.178362 -0.379946 0)
(0.228587 -0.36545 0)
(0.283111 -0.368083 0)
(0.341824 -0.379389 0)
(0.404086 -0.393691 0)
(0.470137 -0.408844 0)
(0.541353 -0.424167 0)
(0.6197 -0.438786 0)
(0.706676 -0.450933 0)
(0.805094 -0.458929 0)
(0.918773 -0.456612 0)
(1.04818 -0.432867 0)
(1.18773 -0.379726 0)
(1.33486 -0.294974 0)
(1.47924 -0.162199 0)
(1.62219 0.0131389 0)
(1.75302 0.215413 0)
(1.82 0.477833 0)
(1.83462 0.795741 0)
(1.86794 1.1368 0)
(0.0242023 -0.249746 0)
(0.0758327 -0.456493 0)
(0.125109 -0.458105 0)
(0.170041 -0.427588 0)
(0.217875 -0.417397 0)
(0.270797 -0.424569 0)
(0.327839 -0.439625 0)
(0.388382 -0.45766 0)
(0.452947 -0.477783 0)
(0.523766 -0.499967 0)
(0.602484 -0.523495 0)
(0.690338 -0.547845 0)
(0.793437 -0.572981 0)
(0.920173 -0.588534 0)
(1.07019 -0.580937 0)
(1.23188 -0.548504 0)
(1.40122 -0.504325 0)
(1.57041 -0.416781 0)
(1.68944 -0.262457 0)
(1.7653 0.0602311 0)
(1.84447 0.446947 0)
(1.87443 0.773596 0)
(1.89073 1.04886 0)
(0.02691 -0.299205 0)
(0.0763201 -0.508513 0)
(0.119608 -0.501054 0)
(0.160339 -0.471902 0)
(0.205845 -0.467182 0)
(0.256475 -0.478871 0)
(0.310842 -0.497478 0)
(0.368223 -0.519367 0)
(0.429429 -0.545023 0)
(0.496681 -0.574188 0)
(0.568999 -0.606692 0)
(0.649354 -0.64294 0)
(0.749312 -0.688122 0)
(0.881317 -0.732897 0)
(1.03786 -0.759679 0)
(1.19257 -0.749612 0)
(1.32412 -0.712703 0)
(1.4272 -0.494292 0)
(1.54095 -0.175996 0)
(1.64345 0.103235 0)
(1.70168 0.434869 0)
(1.77311 0.789846 0)
(1.83535 1.04754 0)
(0.0289598 -0.35058 0)
(0.0753191 -0.555331 0)
(0.112494 -0.539068 0)
(0.149569 -0.513477 0)
(0.192528 -0.514692 0)
(0.239856 -0.530382 0)
(0.290076 -0.551952 0)
(0.341799 -0.577151 0)
(0.396294 -0.606859 0)
(0.45349 -0.639757 0)
(0.511254 -0.676785 0)
(0.579493 -0.721893 0)
(0.672811 -0.80445 0)
(0.804497 -0.903134 0)
(0.960325 -0.947084 0)
(1.09349 -0.886788 0)
(1.21029 -0.769454 0)
(1.30557 -0.557243 0)
(1.43202 -0.164751 0)
(1.57238 0.149758 0)
(1.64465 0.508825 0)
(1.71414 0.810069 0)
(1.78242 1.01793 0)
(0.0304823 -0.4032 0)
(0.0729972 -0.596577 0)
(0.103645 -0.572823 0)
(0.137319 -0.552462 0)
(0.176797 -0.559063 0)
(0.218972 -0.577334 0)
(0.26237 -0.600132 0)
(0.304759 -0.626191 0)
(0.348468 -0.655673 0)
(0.391337 -0.688554 0)
(0.438982 -0.729 0)
(0.506413 -0.80095 0)
(0.615216 -0.952487 0)
(0.772531 -1.08255 0)
(0.92917 -1.07805 0)
(1.11639 -0.980976 0)
(1.34025 -0.781626 0)
(1.4135 -0.547733 0)
(1.33175 -0.32883 0)
(1.26799 -0.183696 0)
(1.45296 0.197849 0)
(1.69351 0.688861 0)
(1.77943 0.971222 0)
(0.0316833 -0.454953 0)
(0.0691348 -0.629601 0)
(0.0918479 -0.60058 0)
(0.1218 -0.586398 0)
(0.155871 -0.596582 0)
(0.190361 -0.615059 0)
(0.224495 -0.636881 0)
(0.256735 -0.661582 0)
(0.292894 -0.691598 0)
(0.336369 -0.732939 0)
(0.409436 -0.798354 0)
(0.536004 -0.931525 0)
(0.728425 -1.12613 0)
(0.94132 -1.21357 0)
(1.04599 -1.16384 0)
(1.22008 -1.14391 0)
(1.3689 -0.903588 0)
(1.18942 -0.523154 0)
(0.939659 -0.203812 0)
(0.849788 -0.109543 0)
(0.975555 0.00152662 0)
(1.31375 0.454373 0)
(1.51684 0.892142 0)
(0.0337403 -0.505479 0)
(0.0643271 -0.652149 0)
(0.075592 -0.621389 0)
(0.101842 -0.614767 0)
(0.12994 -0.626775 0)
(0.157936 -0.644693 0)
(0.189059 -0.667151 0)
(0.226169 -0.697174 0)
(0.286515 -0.744699 0)
(0.397039 -0.824195 0)
(0.572703 -0.948418 0)
(0.923813 -1.1452 0)
(1.15609 -1.3014 0)
(1.17521 -1.25282 0)
(1.00339 -1.31656 0)
(0.954024 -1.2457 0)
(1.05697 -0.82803 0)
(0.839956 -0.234765 0)
(0.636156 -0.0687488 0)
(0.600868 -0.189848 0)
(0.595743 -0.205913 0)
(0.84876 0.216009 0)
(1.09803 0.698122 0)
(0.0389472 -0.56081 0)
(0.0631358 -0.670135 0)
(0.0599507 -0.643377 0)
(0.0876788 -0.646844 0)
(0.119703 -0.661343 0)
(0.160804 -0.683405 0)
(0.226065 -0.719176 0)
(0.323242 -0.776492 0)
(0.487943 -0.879142 0)
(0.835963 -1.05172 0)
(1.1094 -1.27084 0)
(1.27534 -1.38397 0)
(1.30593 -1.37053 0)
(1.17234 -1.08882 0)
(0.829731 -1.21407 0)
(0.715292 -1.15144 0)
(0.735175 -0.755831 0)
(0.620199 -0.0967475 0)
(0.500181 -0.0164021 0)
(0.46057 -0.171502 0)
(0.394037 -0.251173 0)
(0.535763 0.00346058 0)
(0.80071 0.378797 0)
(0.043536 -0.621606 0)
(0.0787507 -0.687989 0)
(0.0781424 -0.666986 0)
(0.126247 -0.687479 0)
(0.196126 -0.715189 0)
(0.308382 -0.764832 0)
(0.524006 -0.868193 0)
(0.726239 -0.965233 0)
(0.952575 -1.19776 0)
(1.13799 -1.32424 0)
(1.31139 -1.44399 0)
(1.40407 -1.44171 0)
(1.38285 -1.20629 0)
(1.23768 -0.807215 0)
(0.798094 -1.00333 0)
(0.638347 -1.02168 0)
(0.589419 -0.669597 0)
(0.479355 -0.0188822 0)
(0.380707 0.032782 0)
(0.347969 -0.136761 0)
(0.304956 -0.256855 0)
(0.383972 -0.184054 0)
(0.630299 0.0315832 0)
(0.0304234 -0.699523 0)
(0.117755 -0.710604 0)
(0.196088 -0.692006 0)
(0.277684 -0.751134 0)
(0.387295 -0.824563 0)
(0.509097 -0.951894 0)
(0.637683 -1.04513 0)
(0.782781 -1.17426 0)
(0.941938 -1.34462 0)
(1.10429 -1.49248 0)
(1.27316 -1.55462 0)
(1.36618 -1.45229 0)
(1.33572 -1.10789 0)
(1.27017 -0.550176 0)
(0.823397 -0.714901 0)
(0.581576 -0.848638 0)
(0.498005 -0.530927 0)
(0.348442 0.0706127 0)
(0.242016 0.0693553 0)
(0.237193 -0.112709 0)
(0.224653 -0.257827 0)
(0.287687 -0.312391 0)
(0.475709 -0.251888 0)
(0.0182315 -0.745449 0)
(0.0725637 -0.746718 0)
(0.17018 -0.789836 0)
(0.257676 -0.856904 0)
(0.33998 -0.942068 0)
(0.424521 -1.04725 0)
(0.514525 -1.16612 0)
(0.618402 -1.31379 0)
(0.754239 -1.49888 0)
(0.920694 -1.67243 0)
(1.07995 -1.69898 0)
(1.11756 -1.49303 0)
(1.05461 -1.06118 0)
(1.09332 -0.36191 0)
(0.76405 -0.431693 0)
(0.469048 -0.634824 0)
(0.366166 -0.339785 0)
(0.130833 0.199854 0)
(0.0834552 0.0815321 0)
(0.0989034 -0.111531 0)
(0.108349 -0.279923 0)
(0.170017 -0.419105 0)
(0.312295 -0.483455 0)
(0.0222029 -0.789558 0)
(0.068327 -0.875471 0)
(0.128536 -0.882626 0)
(0.188062 -0.934003 0)
(0.242292 -1.01378 0)
(0.296025 -1.1177 0)
(0.352299 -1.2486 0)
(0.426303 -1.42659 0)
(0.528773 -1.65454 0)
(0.653122 -1.83044 0)
(0.706628 -1.77805 0)
(0.657746 -1.47015 0)
(0.556526 -0.988026 0)
(0.665634 -0.294166 0)
(0.560632 -0.258293 0)
(0.29117 -0.416142 0)
(0.141251 -0.0842498 0)
(-0.143029 0.30476 0)
(-0.0868133 0.076957 0)
(-0.0734972 -0.122584 0)
(-0.0484174 -0.31317 0)
(0.00269262 -0.511125 0)
(0.0964704 -0.662686 0)
(0.0234458 -0.834304 0)
(0.0543084 -0.913812 0)
(0.0808021 -0.924911 0)
(0.114858 -0.976013 0)
(0.143829 -1.05306 0)
(0.168034 -1.15509 0)
(0.18769 -1.29228 0)
(0.217079 -1.4926 0)
(0.242372 -1.73578 0)
(0.26144 -1.86673 0)
(0.175797 -1.72976 0)
(0.0941988 -1.3805 0)
(0.0251229 -0.925616 0)
(0.187012 -0.296709 0)
(0.169513 -0.232307 0)
(-0.00615174 -0.20051 0)
(-0.269686 0.223632 0)
(-0.376401 0.309074 0)
(-0.283097 0.0464565 0)
(-0.261009 -0.141419 0)
(-0.23961 -0.337879 0)
(-0.228046 -0.555721 0)
(-0.234553 -0.734772 0)
(0.0161846 -0.869067 0)
(0.0301885 -0.926407 0)
(0.0374785 -0.945558 0)
(0.0496301 -0.994278 0)
(0.0539054 -1.06423 0)
(0.0475587 -1.15718 0)
(0.0274215 -1.2874 0)
(-0.00424029 -1.47993 0)
(-0.0785048 -1.69465 0)
(-0.183566 -1.77608 0)
(-0.345422 -1.62488 0)
(-0.422324 -1.31635 0)
(-0.427747 -0.914709 0)
(-0.272536 -0.453751 0)
(-0.319786 -0.22087 0)
(-0.416353 0.105974 0)
(-0.652559 0.370161 0)
(-0.557178 0.218395 0)
(-0.467944 -0.000929874 0)
(-0.440342 -0.159101 0)
(-0.432586 -0.331682 0)
(-0.465887 -0.524543 0)
(-0.546521 -0.711047 0)
(0.00626219 -0.886521 0)
(0.00619521 -0.924906 0)
(0.000476787 -0.948146 0)
(-0.00636091 -0.990232 0)
(-0.0234768 -1.04847 0)
(-0.0558798 -1.12457 0)
(-0.108171 -1.23105 0)
(-0.194336 -1.38545 0)
(-0.347279 -1.54975 0)
(-0.54118 -1.61498 0)
(-0.731547 -1.51175 0)
(-0.846331 -1.24256 0)
(-0.880634 -0.823764 0)
(-0.894222 -0.395656 0)
(-0.995087 -0.0823192 0)
(-0.960781 0.212047 0)
(-0.885767 0.298714 0)
(-0.701639 0.0784585 0)
(-0.620347 -0.052805 0)
(-0.589666 -0.170583 0)
(-0.594701 -0.301333 0)
(-0.653302 -0.444606 0)
(-0.774628 -0.602791 0)
(-0.00253508 -0.885105 0)
(-0.0138692 -0.914129 0)
(-0.030007 -0.935166 0)
(-0.0516982 -0.968572 0)
(-0.0839425 -1.01318 0)
(-0.132413 -1.06853 0)
(-0.20267 -1.1401 0)
(-0.314191 -1.24083 0)
(-0.495318 -1.35438 0)
(-0.724444 -1.40982 0)
(-0.948664 -1.34298 0)
(-1.14075 -1.13705 0)
(-1.26665 -0.809005 0)
(-1.31459 -0.421309 0)
(-1.2767 -0.0785918 0)
(-1.14116 0.100099 0)
(-0.943615 0.0706212 0)
(-0.784336 -0.0529967 0)
(-0.721252 -0.100825 0)
(-0.693578 -0.177881 0)
(-0.708345 -0.262712 0)
(-0.773157 -0.349776 0)
(-0.898079 -0.440229 0)
(-0.00846 -0.870574 0)
(-0.0291985 -0.89461 0)
(-0.0540375 -0.910847 0)
(-0.085359 -0.935432 0)
(-0.126573 -0.96699 0)
(-0.182167 -1.00295 0)
(-0.256144 -1.04248 0)
(-0.362368 -1.09347 0)
(-0.525612 -1.15331 0)
(-0.742104 -1.1803 0)
(-0.968938 -1.12302 0)
(-1.15912 -0.957276 0)
(-1.27669 -0.700145 0)
(-1.29618 -0.42973 0)
(-1.21265 -0.225648 0)
(-1.05649 -0.126359 0)
(-0.899119 -0.124576 0)
(-0.808739 -0.137146 0)
(-0.768511 -0.139202 0)
(-0.751185 -0.179529 0)
(-0.772841 -0.222492 0)
(-0.834584 -0.262412 0)
(-0.941359 -0.290919 0)
(-0.0123732 -0.84757 0)
(-0.0401405 -0.867214 0)
(-0.0713187 -0.878778 0)
(-0.10837 -0.895554 0)
(-0.153863 -0.916007 0)
(-0.210871 -0.937202 0)
(-0.280822 -0.955309 0)
(-0.369687 -0.971404 0)
(-0.494279 -0.986996 0)
(-0.659728 -0.984809 0)
(-0.838327 -0.934034 0)
(-0.987543 -0.821742 0)
(-1.07344 -0.663107 0)
(-1.07965 -0.490136 0)
(-1.01543 -0.345713 0)
(-0.919924 -0.260039 0)
(-0.843004 -0.215769 0)
(-0.801364 -0.180903 0)
(-0.776749 -0.165008 0)
(-0.770817 -0.174532 0)
(-0.795602 -0.184185 0)
(-0.849727 -0.188477 0)
(-0.933745 -0.174776 0)
(-0.0149464 -0.818178 0)
(-0.0474148 -0.834789 0)
(-0.0826234 -0.842072 0)
(-0.122677 -0.852372 0)
(-0.169462 -0.864036 0)
(-0.224978 -0.874726 0)
(-0.289521 -0.880543 0)
(-0.363645 -0.878699 0)
(-0.453533 -0.869311 0)
(-0.564279 -0.849331 0)
(-0.684557 -0.806933 0)
(-0.789092 -0.729702 0)
(-0.855694 -0.620363 0)
(-0.87492 -0.498949 0)
(-0.854796 -0.390055 0)
(-0.820161 -0.308225 0)
(-0.792463 -0.248555 0)
(-0.773083 -0.203609 0)
(-0.760289 -0.177378 0)
(-0.763396 -0.163861 0)
(-0.787499 -0.149785 0)
(-0.831592 -0.129239 0)
(-0.893665 -0.0897684 0)
(-0.0165027 -0.784968 0)
(-0.0517262 -0.799133 0)
(-0.0891292 -0.802965 0)
(-0.130285 -0.808189 0)
(-0.176569 -0.813174 0)
(-0.229271 -0.816193 0)
(-0.288619 -0.814551 0)
(-0.353629 -0.805194 0)
(-0.424391 -0.78596 0)
(-0.502331 -0.755478 0)
(-0.584572 -0.710982 0)
(-0.65997 -0.648738 0)
(-0.715172 -0.568981 0)
(-0.744152 -0.479252 0)
(-0.751615 -0.39256 0)
(-0.748063 -0.31914 0)
(-0.740631 -0.260141 0)
(-0.732584 -0.213827 0)
(-0.729503 -0.179249 0)
(-0.737644 -0.1503 0)
(-0.758934 -0.120663 0)
(-0.792831 -0.0842763 0)
(-0.836237 -0.0311626 0)
(-0.0173042 -0.749661 0)
(-0.0537407 -0.7619 0)
(-0.0918793 -0.76306 0)
(-0.132822 -0.764444 0)
(-0.177546 -0.764548 0)
(-0.226825 -0.762005 0)
(-0.28088 -0.755039 0)
(-0.339109 -0.741589 0)
(-0.400271 -0.719311 0)
(-0.462915 -0.68653 0)
(-0.52497 -0.643112 0)
(-0.582266 -0.589075 0)
(-0.628833 -0.524549 0)
(-0.660374 -0.453051 0)
(-0.677484 -0.381971 0)
(-0.684623 -0.317833 0)
(-0.686252 -0.262543 0)
(-0.686599 -0.215372 0)
(-0.690262 -0.174419 0)
(-0.700267 -0.136373 0)
(-0.717895 -0.097304 0)
(-0.742872 -0.0519148 0)
(-0.77166 0.00701992 0)
(-0.0175029 -0.713628 0)
(-0.0540135 -0.724322 0)
(-0.0917942 -0.723509 0)
(-0.131624 -0.722071 0)
(-0.174154 -0.718729 0)
(-0.219822 -0.712375 0)
(-0.268631 -0.701693 0)
(-0.32022 -0.685419 0)
(-0.373709 -0.662263 0)
(-0.427297 -0.630828 0)
(-0.478545 -0.59048 0)
(-0.525053 -0.541948 0)
(-0.564316 -0.486671 0)
(-0.594047 -0.426942 0)
(-0.613803 -0.366729 0)
(-0.625623 -0.309989 0)
(-0.632794 -0.258173 0)
(-0.63874 -0.21077 0)
(-0.646155 -0.16635 0)
(-0.656342 -0.123333 0)
(-0.670382 -0.0793047 0)
(-0.687989 -0.0298212 0)
(-0.705949 0.0303247 0)
(-0.0172365 -0.67789 0)
(-0.0530195 -0.687335 0)
(-0.0896725 -0.685126 0)
(-0.127804 -0.681675 0)
(-0.167789 -0.675962 0)
(-0.209875 -0.667138 0)
(-0.253896 -0.654248 0)
(-0.29941 -0.636356 0)
(-0.345786 -0.612628 0)
(-0.391903 -0.58234 0)
(-0.435862 -0.54521 0)
(-0.475582 -0.501821 0)
(-0.509522 -0.453464 0)
(-0.536686 -0.401879 0)
(-0.556878 -0.349342 0)
(-0.571262 -0.298068 0)
(-0.581953 -0.249118 0)
(-0.590907 -0.202363 0)
(-0.599584 -0.156981 0)
(-0.609274 -0.112068 0)
(-0.620417 -0.0658739 0)
(-0.632225 -0.0152854 0)
(-0.642551 0.0433025 0)
(-0.0166366 -0.643145 0)
(-0.0511285 -0.651592 0)
(-0.0861445 -0.648424 0)
(-0.122206 -0.643592 0)
(-0.159496 -0.636303 0)
(-0.198129 -0.625923 0)
(-0.237921 -0.611789 0)
(-0.278458 -0.593246 0)
(-0.319127 -0.569718 0)
(-0.359035 -0.540779 0)
(-0.396937 -0.506408 0)
(-0.431453 -0.467178 0)
(-0.461467 -0.424089 0)
(-0.486362 -0.378329 0)
(-0.506146 -0.331283 0)
(-0.521547 -0.284281 0)
(-0.533753 -0.238028 0)
(-0.543879 -0.1926 0)
(-0.553017 -0.147738 0)
(-0.561722 -0.102733 0)
(-0.570119 -0.056167 0)
(-0.577788 -0.00629645 0)
(-0.582964 0.0493796 0)
(-0.0158218 -0.609866 0)
(-0.0486226 -0.617544 0)
(-0.0816852 -0.613735 0)
(-0.115452 -0.608001 0)
(-0.150002 -0.599712 0)
(-0.185348 -0.588414 0)
(-0.221306 -0.573639 0)
(-0.257518 -0.554962 0)
(-0.293474 -0.532051 0)
(-0.328438 -0.504674 0)
(-0.361483 -0.472835 0)
(-0.391715 -0.436958 0)
(-0.418472 -0.397827 0)
(-0.441352 -0.356378 0)
(-0.460281 -0.313539 0)
(-0.475615 -0.270073 0)
(-0.488104 -0.226429 0)
(-0.498507 -0.182759 0)
(-0.50726 -0.139043 0)
(-0.514739 -0.0947858 0)
(-0.52111 -0.0492512 0)
(-0.52585 -0.0011793 0)
(-0.527667 0.0510099 0)
(-0.0148845 -0.578385 0)
(-0.045714 -0.585493 0)
(-0.0766407 -0.581273 0)
(-0.108 -0.574986 0)
(-0.139828 -0.566109 0)
(-0.172067 -0.554346 0)
(-0.204538 -0.539371 0)
(-0.236926 -0.520902 0)
(-0.268818 -0.498723 0)
(-0.299679 -0.472724 0)
(-0.328838 -0.443005 0)
(-0.355619 -0.409935 0)
(-0.37953 -0.374072 0)
(-0.400334 -0.336052 0)
(-0.418014 -0.296506 0)
(-0.432746 -0.255977 0)
(-0.444869 -0.214825 0)
(-0.454829 -0.173164 0)
(-0.463034 -0.131002 0)
(-0.469546 -0.0882229 0)
(-0.47424 -0.0443378 0)
(-0.47691 0.00132008 0)
(-0.476614 0.0498978 0)
(-0.0138824 -0.548917 0)
(-0.042553 -0.555606 0)
(-0.0712455 -0.551142 0)
(-0.100164 -0.544547 0)
(-0.129327 -0.535377 0)
(-0.15864 -0.523449 0)
(-0.187938 -0.508544 0)
(-0.216955 -0.49049 0)
(-0.245345 -0.469174 0)
(-0.272684 -0.444558 0)
(-0.298485 -0.416732 0)
(-0.322285 -0.385971 0)
(-0.343724 -0.352711 0)
(-0.362589 -0.317456 0)
(-0.378842 -0.280669 0)
(-0.392595 -0.242715 0)
(-0.404035 -0.203855 0)
(-0.413385 -0.164261 0)
(-0.42076 -0.124011 0)
(-0.426204 -0.0829875 0)
(-0.429789 -0.0410668 0)
(-0.43115 0.00206541 0)
(-0.429526 0.0471965 0)
(-0.0128445 -0.521613 0)
(-0.0392483 -0.527978 0)
(-0.0656599 -0.523393 0)
(-0.0921574 -0.516658 0)
(-0.118732 -0.507396 0)
(-0.145291 -0.495506 0)
(-0.171668 -0.480845 0)
(-0.197642 -0.463314 0)
(-0.222933 -0.442856 0)
(-0.247214 -0.41948 0)
(-0.270119 -0.393298 0)
(-0.291302 -0.364532 0)
(-0.310492 -0.333501 0)
(-0.327518 -0.300578 0)
(-0.342312 -0.266138 0)
(-0.354922 -0.230472 0)
(-0.365443 -0.193765 0)
(-0.373964 -0.156164 0)
(-0.380536 -0.117789 0)
(-0.385144 -0.0787555 0)
(-0.387813 -0.0390165 0)
(-0.388285 0.0016969 0)
(-0.385982 0.0436803 0)
(-0.0117844 -0.496554 0)
(-0.0358804 -0.502639 0)
(-0.0599977 -0.498021 0)
(-0.0841202 -0.491256 0)
(-0.108197 -0.48204 0)
(-0.132153 -0.470317 0)
(-0.155827 -0.456004 0)
(-0.179035 -0.43905 0)
(-0.201546 -0.419442 0)
(-0.223101 -0.397215 0)
(-0.243423 -0.372473 0)
(-0.262253 -0.345404 0)
(-0.279378 -0.31626 0)
(-0.294654 -0.285329 0)
(-0.308005 -0.252902 0)
(-0.319425 -0.219225 0)
(-0.328952 -0.184476 0)
(-0.336615 -0.148802 0)
(-0.342414 -0.112353 0)
(-0.346317 -0.0752674 0)
(-0.348294 -0.0376295 0)
(-0.348184 0.000713186 0)
(-0.345596 0.0398639 0)
(-0.0107119 -0.473755 0)
(-0.0325114 -0.479575 0)
(-0.0543457 -0.474988 0)
(-0.0761485 -0.468266 0)
(-0.0978184 -0.459184 0)
(-0.119307 -0.447709 0)
(-0.140456 -0.433801 0)
(-0.161115 -0.41744 0)
(-0.181093 -0.398641 0)
(-0.200184 -0.377454 0)
(-0.218173 -0.353982 0)
(-0.234858 -0.328386 0)
(-0.250073 -0.30087 0)
(-0.263694 -0.271671 0)
(-0.275639 -0.241027 0)
(-0.285868 -0.20915 0)
(-0.294391 -0.176194 0)
(-0.301214 -0.142297 0)
(-0.306285 -0.107643 0)
(-0.309583 -0.0724302 0)
(-0.311078 -0.0367495 0)
(-0.310638 -0.0005972 0)
(-0.308 0.036061 0)
(-0.00963844 -0.453186 0)
(-0.0291868 -0.458752 0)
(-0.0487687 -0.454233 0)
(-0.0683073 -0.447601 0)
(-0.0876588 -0.438706 0)
(-0.106795 -0.427525 0)
(-0.125568 -0.414046 0)
(-0.143853 -0.398272 0)
(-0.161492 -0.380232 0)
(-0.178319 -0.359987 0)
(-0.194165 -0.337637 0)
(-0.208872 -0.31332 0)
(-0.222302 -0.287212 0)
(-0.234353 -0.259514 0)
(-0.244949 -0.230431 0)
(-0.254035 -0.200155 0)
(-0.261582 -0.168834 0)
(-0.267581 -0.136587 0)
(-0.272004 -0.103592 0)
(-0.274802 -0.0701052 0)
(-0.275954 -0.0362461 0)
(-0.27537 -0.00204403 0)
(-0.272841 0.032459 0)
(-0.00857542 -0.43482 0)
(-0.0259327 -0.440153 0)
(-0.043306 -0.435721 0)
(-0.0606343 -0.429204 0)
(-0.0777495 -0.42052 0)
(-0.0946326 -0.409648 0)
(-0.111154 -0.396596 0)
(-0.127206 -0.38138 0)
(-0.14266 -0.36404 0)
(-0.157381 -0.344641 0)
(-0.171235 -0.323278 0)
(-0.184096 -0.300078 0)
(-0.19585 -0.275193 0)
(-0.206411 -0.248797 0)
(-0.215713 -0.221075 0)
(-0.223703 -0.192206 0)
(-0.230339 -0.162338 0)
(-0.235587 -0.131587 0)
(-0.23941 -0.100108 0)
(-0.241785 -0.0681602 0)
(-0.242705 -0.0359448 0)
(-0.24209 -0.00347802 0)
(-0.239785 0.0291725 0)
(-0.00752648 -0.418628 0)
(-0.0227516 -0.423763 0)
(-0.0379678 -0.419426 0)
(-0.0531375 -0.413038 0)
(-0.068092 -0.40457 0)
(-0.0828101 -0.394003 0)
(-0.097183 -0.381356 0)
(-0.111119 -0.366653 0)
(-0.124512 -0.349942 0)
(-0.137254 -0.33129 0)
(-0.149237 -0.31079 0)
(-0.160361 -0.288555 0)
(-0.170533 -0.264725 0)
(-0.179678 -0.239454 0)
(-0.187741 -0.21291 0)
(-0.194678 -0.185266 0)
(-0.200444 -0.156677 0)
(-0.204996 -0.127255 0)
(-0.208296 -0.0971218 0)
(-0.210323 -0.0665267 0)
(-0.211098 -0.0357366 0)
(-0.210549 -0.00479356 0)
(-0.208532 0.0262706 0)
(-0.00648095 -0.404501 0)
(-0.0196222 -0.409474 0)
(-0.0327437 -0.405239 0)
(-0.0458052 -0.39899 0)
(-0.0586696 -0.390741 0)
(-0.0713007 -0.380472 0)
(-0.0836131 -0.368206 0)
(-0.0955279 -0.353975 0)
(-0.10696 -0.337826 0)
(-0.117824 -0.31983 0)
(-0.128034 -0.300074 0)
(-0.137509 -0.278669 0)
(-0.146177 -0.255739 0)
(-0.153975 -0.231428 0)
(-0.160853 -0.20589 0)
(-0.166776 -0.179289 0)
(-0.171713 -0.151788 0)
(-0.175622 -0.123511 0)
(-0.178458 -0.0945599 0)
(-0.180202 -0.0651381 0)
(-0.180889 -0.0355568 0)
(-0.180469 -0.00591106 0)
(-0.178796 0.0237989 0)
(-0.00540792 -0.392354 0)
(-0.0164939 -0.397168 0)
(-0.0276023 -0.393031 0)
(-0.0386054 -0.386923 0)
(-0.0494474 -0.378883 0)
(-0.0600656 -0.368896 0)
(-0.0703982 -0.356984 0)
(-0.0803769 -0.343182 0)
(-0.0899337 -0.327537 0)
(-0.099001 -0.310117 0)
(-0.107514 -0.291008 0)
(-0.11541 -0.270313 0)
(-0.122634 -0.248151 0)
(-0.129136 -0.224653 0)
(-0.134878 -0.199964 0)
(-0.13983 -0.174241 0)
(-0.143968 -0.147646 0)
(-0.147267 -0.12032 0)
(-0.149691 -0.0923656 0)
(-0.151209 -0.0639309 0)
(-0.151846 -0.0353337 0)
(-0.151607 -0.00676717 0)
(-0.150321 0.0217918 0)
(-0.0042668 -0.382353 0)
(-0.0132864 -0.386909 0)
(-0.0224623 -0.382851 0)
(-0.0314458 -0.376867 0)
(-0.040317 -0.369004 0)
(-0.048987 -0.359256 0)
(-0.0574162 -0.347644 0)
(-0.0655459 -0.334205 0)
(-0.0733197 -0.318986 0)
(-0.0806811 -0.302054 0)
(-0.087577 -0.283489 0)
(-0.0939601 -0.26339 0)
(-0.0997903 -0.241867 0)
(-0.105035 -0.219047 0)
(-0.109669 -0.195064 0)
(-0.113673 -0.170066 0)
(-0.117035 -0.144207 0)
(-0.119742 -0.117645 0)
(-0.121772 -0.0904973 0)
(-0.123105 -0.0628693 0)
(-0.123741 -0.0350419 0)
(-0.123724 -0.00733924 0)
(-0.122869 0.0202759 0)
(-0.00305985 -0.374735 0)
(-0.00996577 -0.378769 0)
(-0.0172411 -0.374783 0)
(-0.024215 -0.368915 0)
(-0.0311242 -0.361195 0)
(-0.0378707 -0.351633 0)
(-0.0444364 -0.340255 0)
(-0.0507775 -0.327097 0)
(-0.0568483 -0.312213 0)
(-0.0625999 -0.295666 0)
(-0.0679835 -0.277533 0)
(-0.0729552 -0.257906 0)
(-0.0774796 -0.236889 0)
(-0.0815313 -0.2146 0)
(-0.0850956 -0.191168 0)
(-0.0881681 -0.166734 0)
(-0.0907532 -0.141444 0)
(-0.0928612 -0.115459 0)
(-0.0945028 -0.0889128 0)
(-0.0956765 -0.0618943 0)
(-0.0963608 -0.0346296 0)
(-0.0965956 -0.00756672 0)
(-0.0962066 0.0192974 0)
(-0.00187986 -0.369955 0)