/*--------------------------------*- C++ -*----------------------------------*\
| =========                 |                                                 |
| \\      /  F ield         | OpenFOAM: The Open Source CFD Toolbox           |
|  \\    /   O peration     | Version:  2012                                  |
|   \\  /    A nd           | Website:  www.openfoam.com                      |
|    \\/     M anipulation  |                                                 |
\*---------------------------------------------------------------------------*/
FoamFile
{
    version     2.0;
    format      ascii;
    class       volScalarField;
    location    "0.35";
    object      alpha.water;
}
// * * * * * * * * * * * * * * * * * * * * * * * * * * * * * * * * * * * * * //

dimensions      [0 0 0 0 0 0 0];


internalField   nonuniform List<scalar> 
2268
(
1
1
1
1
1
1
1
1
1
1
1
1
1
1
1
1
1
1
1
0.989972
0.824927
0.82473
0.88832
1
1
1
1
1
1
1
1
1
1
1
1
1
1
1
1
1
1
1
1
0.939611
0.888968
0.998374
1
1
1
1
1
1
1
1
1
1
1
1
1
1
1
1
1
1
1
1
0.999998
0.996019
0.998323
1
1
1
1
1
1
1
1
1
1
1
1
1
1
1
1
1
1
1
1
1
0.999986
0.996595
1
1
1
1
1
1
1
1
1
1
1
1
1
1
1
1
1
1
1
1
1
1
0.996655
1
1
1
1
1
1
1
1
1
1
1
1
1
1
1
1
1
1
1
1
1
1
0.996749
1
1
1
1
1
1
1
1
1
1
1
1
1
1
1
1
1
1
1
1
1
1
0.996758
1
1
1
1
1
1
1
1
1
1
1
1
1
1
1
1
1
1
1
1
1
1
0.996774
1.40175e-09
1.50332e-09
6.81865e-10
4.8244e-11
4.57178e-13
1.00652e-14
4.41669e-16
2.21487e-17
1.27807e-18
8.03892e-20
5.04675e-21
2.93494e-22
2.96647e-23
4.77689e-24
2.7279e-25
1.57635e-26
7.76404e-28
8.23136e-30
8.23136e-30
1.85971e-10
1.86008e-10
2.06274e-10
3.37503e-12
3.37481e-12
2.51234e-13
1.88524e-14
1.38961e-15
7.87844e-17
4.64269e-18
3.00908e-19
1.7845e-20
7.96729e-22
3.24081e-23
5.08352e-24
2.88795e-25
1.64491e-26
1.08338e-27
1.366e-29
2.25386e-10
3.90938e-10
5.28245e-08
1.43676e-08
3.05702e-13
3.04737e-13
2.44849e-13
3.78805e-14
2.41774e-15
1.58388e-16
7.52016e-18
2.27301e-19
2.92581e-20
7.70541e-21
1.02572e-21
5.20456e-23
2.738e-24
2.07221e-25
1.77591e-27
3.12978e-10
4.00135e-10
4.09719e-10
5.01445e-09
8.06619e-11
5.19968e-13
1.24874e-12
2.92286e-13
3.78277e-14
8.85821e-15
6.73534e-16
1.99644e-17
3.39456e-18
9.29148e-19
1.04913e-19
4.93206e-21
3.11526e-22
1.89488e-23
1.39559e-25
6.48919e-05
0.000369812
6.30466e-10
3.80385e-12
1.35392e-12
1.16022e-12
1.36353e-12
4.79173e-13
1.68114e-13
8.34048e-14
2.36173e-14
2.09468e-15
2.98882e-16
7.25837e-17
6.99264e-18
3.21571e-19
2.27507e-20
1.17161e-21
7.87329e-24
0.000218514
0.00135118
0.000177892
4.31564e-12
4.14243e-12
5.70516e-12
7.33681e-13
4.35295e-13
1.94844e-13
1.45468e-13
2.05659e-13
2.12847e-14
1.38535e-14
3.70492e-15
3.94767e-16
2.38116e-17
1.39091e-18
1.26911e-19
3.97613e-22
0.00028804
0.000995652
8.71283e-05
4.57528e-12
4.32987e-12
2.07273e-11
6.1037e-13
6.63852e-13
1.38162e-12
9.22306e-13
2.01734e-12
9.62293e-13
3.28748e-13
1.45328e-13
2.74261e-14
1.39985e-15
6.73195e-17
2.63416e-18
1.56899e-20
7.8534e-05
7.22771e-05
6.74961e-05
3.20952e-10
2.15143e-10
1.61013e-12
6.1037e-13
6.11126e-13
6.86181e-13
1.08218e-12
3.49108e-12
1.54238e-11
7.30317e-12
3.33048e-12
3.56771e-13
1.43086e-14
6.41578e-16
2.98378e-18
1.25482e-19
1
1
1
1
1
1
1
1
1
1
1
1
1
1
1
1
1
1
1
1
1
1
0.998234
1
1
0.999998
0.999998
0.999998
0.999999
0.999999
0.999999
0.999999
0.999999
0.999999
0.999999
1
1
1
1
1
1
1
1
1
1
0.99995
1
0.999991
0.999938
0.999933
0.999943
0.999949
0.999951
0.99995
0.999949
0.999947
0.999948
0.999953
0.999964
0.999977
0.999906
0.999952
1
1
1
1
1
1
1
0.999991
0.988847
0.910821
0.90687
0.903383
0.887175
0.864599
0.838656
0.80706
0.769036
0.726721
0.684334
0.643681
0.608996
0.592216
0.606477
0.650504
0.728326
0.828521
0.954306
1
1
0.999995
0.860952
0.460998
0.20494
0.203193
0.194086
0.164905
0.134742
0.107638
0.0807783
0.0542936
0.0304331
0.0107863
1.93372e-10
1.88507e-10
1.04949e-07
6.45788e-07
0.00132583
0.0168929
0.0596761
0.145224
0.305972
0.547573
0.784345
0.0982426
4.43693e-21
2.47963e-18
1.11598e-16
4.21362e-15
4.68756e-14
3.98467e-13
6.73028e-13
6.18168e-13
6.18246e-13
6.1817e-13
9.94285e-11
1.88505e-10
1.88507e-10
1.83877e-10
1.04907e-07
1.00639e-06
3.64623e-06
7.17657e-05
0.000221229
0.000456039
0.0103094
0.0726255
9.11903e-21
4.43693e-21
6.08758e-20
2.53866e-18
1.11601e-16
4.21362e-15
4.88314e-13
4.22943e-12
3.63478e-12
6.18168e-13
3.51699e-09
1.4284e-09
6.54641e-10
1.88506e-10
4.52823e-07
3.98756e-05
0.000175996
0.000195502
0.000196679
0.000206952
0.00024705
0.000137671
0.000178973
7.19316e-21
3.99686e-19
6.94001e-17
5.92388e-15
2.31075e-13
2.30108e-12
1.07199e-11
2.38064e-11
2.04574e-11
6.25511e-13
1.79841e-07
1.62028e-07
5.28912e-09
3.75554e-10
0.000168353
0.000561939
0.000648405
0.000648405
0.000648486
0.000648405
0.000525755
8.44054e-05
7.89985e-05
5.51247e-21
1.13838e-18
1.25338e-16
1.68565e-14
7.64209e-13
6.70684e-12
2.16401e-11
3.43301e-11
3.62223e-11
6.82347e-13
2.77528e-07
2.77665e-07
7.25711e-09
4.92872e-09
0.000374133
0.000643751
0.000646602
0.000648476
0.000633449
0.000627496
0.000252457
7.40572e-05
7.46461e-05
5.51247e-21
9.55427e-19
1.23753e-16
2.00556e-14
9.60899e-13
8.01055e-12
2.37733e-11
3.47903e-11
4.78197e-11
8.28025e-13
2.74046e-07
2.77665e-07
1.37907e-08
7.49084e-06
9.99111e-11
0.000276772
0.000606148
0.000522876
7.62743e-05
7.49465e-05
7.36037e-05
7.35912e-05
7.40572e-05
1.15928e-20
4.92583e-19
8.15111e-17
1.93456e-14
9.51199e-13
7.56863e-12
1.99561e-11
2.86834e-11
5.34856e-11
1.10781e-12
1.11757e-07
1.22459e-07
5.61063e-08
3.14222e-09
9.92839e-12
5.81778e-12
1.66778e-05
0.000214868
0.000336316
0.000150087
7.35928e-05
7.36037e-05
0.000159307
1.12279e-20
1.73182e-19
3.20565e-17
1.24133e-14
6.29274e-13
4.31237e-12
9.83584e-12
1.70305e-11
5.36052e-11
4.86352e-11
2.47975e-11
2.48135e-11
5.66296e-08
3.53393e-08
3.06215e-09
1.34702e-12
9.10252e-13
4.47225e-05
0.000468432
0.000587632
0.000617181
0.000638455
0.000685688
2.04002e-21
4.25679e-20
8.86815e-18
4.77529e-15
2.378e-13
1.44401e-12
3.42574e-12
6.93009e-12
4.16023e-11
1.1402e-10
1.00536e-10
2.47975e-11
2.62759e-08
3.23027e-08
6.12236e-09
1.01717e-12
4.27512e-13
3.26935e-13
3.42368e-13
3.44532e-13
3.49216e-13
5.65542e-06
3.21204e-05
-5.06617e-22
6.44889e-21
2.11089e-18
1.27004e-15
6.00436e-14
3.50572e-13
9.33982e-13
2.65953e-12
1.32773e-11
9.49804e-11
1.34182e-10
1.35417e-10
1.27214e-11
1.27247e-11
4.50669e-10
1.56551e-10
3.92662e-12
3.01466e-13
3.36073e-13
4.5306e-13
6.7274e-13
6.74427e-13
-1.09088e-11
-1.31714e-21
-1.24749e-22
5.98954e-19
2.55638e-16
1.11318e-14
6.5496e-14
2.11447e-13
9.74958e-13
3.48858e-12
2.29529e-11
9.97031e-11
1.4879e-10
6.59443e-11
2.30944e-11
4.95612e-12
4.93852e-12
1.23317e-12
2.96267e-13
4.01095e-13
8.38343e-13
2.17001e-12
4.99327e-12
4.96481e-12
-1.56446e-21
-1.05763e-21
2.29595e-19
4.07051e-17
1.54384e-15
9.26844e-15
4.3232e-14
3.1629e-13
1.18896e-12
3.53317e-12
1.41403e-11
7.31281e-11
7.42848e-11
5.5437e-11
2.56383e-11
5.62692e-12
2.82235e-13
7.38586e-14
1.4354e-13
4.44709e-13
1.46408e-12
3.57858e-12
7.91994e-12
-1.3688e-21
-1.24176e-21
8.31413e-20
5.38957e-18
1.57978e-16
1.01581e-15
8.76124e-15
8.64691e-14
3.75534e-13
7.96264e-13
2.17769e-12
5.9791e-12
9.05388e-12
7.00287e-12
3.33351e-12
5.54696e-13
1.88409e-14
4.92791e-15
1.14932e-14
5.30681e-14
2.70532e-13
8.63621e-13
3.156e-12
-9.53195e-22
-9.9339e-22
1.94417e-20
6.23162e-19
1.16077e-17
9.29709e-17
1.83684e-15
2.0063e-14
9.44163e-14
2.09975e-13
5.02243e-13
7.299e-13
6.89385e-13
4.83269e-13
1.84111e-13
2.58189e-14
8.74498e-16
7.09725e-16
3.03908e-15
2.21391e-14
1.39215e-13
5.0241e-13
2.27435e-12
-5.31951e-22
-6.1746e-22
2.48782e-21
6.10116e-20
5.94013e-19
8.80277e-18
3.62016e-16
4.00477e-15
1.98509e-14
4.9364e-14
1.17147e-13
1.48477e-13
1.34084e-13
8.19816e-14
2.40219e-14
2.21724e-15
1.03575e-16
1.82162e-16
1.21447e-15
1.01944e-14
6.90436e-14
2.78388e-13
1.52472e-12
-2.31989e-22
-2.99167e-22
1.31533e-22
4.18611e-21
2.05257e-20
1.03288e-18
5.69371e-17
6.79278e-16
3.62139e-15
9.3327e-15
2.51608e-14
3.26813e-14
2.90906e-14
1.68362e-14
4.31844e-15
3.02575e-16
2.17041e-17
5.0625e-17
4.39007e-16
4.22246e-15
3.13883e-14
1.43671e-13
9.57833e-13
-7.52481e-23
-1.07213e-22
-9.28744e-24
1.30784e-22
3.99135e-22
1.09835e-19
6.36673e-18
9.20953e-17
5.44424e-16
1.47601e-15
3.65767e-15
4.54394e-15
3.99842e-15
2.28535e-15
5.77058e-16
3.7635e-17
4.46201e-18
1.35729e-17
1.45671e-16
1.58684e-15
1.31464e-14
7.0203e-14
6.20734e-13
-1.67952e-23
-2.59577e-23
-6.5466e-24
-1.11898e-24
8.26974e-25
6.43411e-21
4.67279e-19
9.05659e-18
6.05426e-17
1.90412e-16
3.77785e-16
3.88855e-16
3.23341e-16
1.71119e-16
4.12054e-17
2.60698e-18
8.26851e-19
3.44371e-18
4.39333e-17
5.43572e-16
5.10143e-15
3.49556e-14
4.5532e-13
-2.29899e-24
-3.75391e-24
-9.14092e-25
-1.52851e-25
1.91698e-26
1.33049e-22
1.94231e-20
5.7774e-19
4.48584e-18
1.74691e-17
2.77675e-17
2.6544e-17
2.00921e-17
1.01035e-17
2.53172e-18
1.85501e-19
1.35202e-19
8.49781e-19
1.23655e-17
1.7526e-16
1.90525e-15
1.98918e-14
3.8196e-13
-1.61564e-25
-3.02081e-25
-7.11538e-26
-1.18462e-26
-6.8804e-28
9.13469e-26
3.05681e-22
2.01902e-20
1.93063e-19
8.60005e-19
1.43463e-18
1.38393e-18
1.08e-18
5.74241e-19
1.49855e-19
1.28562e-20
1.84288e-20
2.04894e-19
3.37328e-18
5.5625e-17
7.33489e-16
1.3523e-14
3.43549e-13
-5.08374e-42
-1.96817e-39
1.9511e-36
2.69188e-30
6.79693e-30
1.4791e-28
4.51695e-25
2.92044e-22
3.63882e-21
1.4967e-20
3.18604e-20
3.06932e-20
2.17461e-20
9.69692e-21
1.86589e-21
6.15814e-22
2.85295e-21
4.97007e-20
9.51491e-19
1.83699e-17
3.02212e-16
1.01384e-14
3.05369e-13
-3.50701e-42
-9.14385e-40
-4.87003e-38
1.21017e-34
7.60173e-33
4.08782e-31
1.12397e-27
8.98798e-25
1.1793e-23
4.70867e-23
9.98302e-23
1.08449e-22
9.44439e-23
5.48789e-23
2.26924e-23
3.86462e-23
5.53915e-22
1.25067e-20
2.90433e-19
6.45399e-18
1.28701e-16
7.35164e-15
2.43217e-13
-2.12338e-42
-3.95138e-40
-3.2396e-38
-1.33339e-36
-4.1715e-35
-8.53643e-34
1.24706e-30
2.64578e-27
5.68918e-26
3.18984e-25
8.97621e-25
1.6651e-24
1.72718e-24
1.38463e-24
1.25813e-24
4.92571e-24
1.17116e-22
3.34116e-21
9.4162e-20
2.32391e-18
5.28291e-17
4.61162e-15
1.64013e-13
-1.07608e-42
-1.71682e-40
-1.71137e-38
-9.6375e-37
-3.6431e-35
-9.29436e-34
-1.50507e-32
-5.31684e-32
5.39686e-29
1.3488e-27
7.56077e-27
2.14969e-26
2.70667e-26
2.37457e-26
3.76737e-26
7.20843e-25
2.59251e-23
9.18451e-22
3.02181e-20
8.05445e-19
1.97481e-17
2.42063e-15
9.42633e-14
-4.18181e-43
-6.5827e-41
-6.77499e-39
-4.00207e-37
-1.5678e-35
-4.21387e-34
-7.5571e-33
-7.64053e-32
-5.75853e-32
4.72707e-30
3.34382e-29
9.56435e-29
9.59872e-29
1.45835e-28
3.03574e-27
1.33239e-25
5.87577e-24
2.43406e-22
8.97701e-21
2.56989e-19
6.58628e-18
1.08017e-15
4.67037e-14
-1.08143e-43
-1.68531e-41
-1.78865e-39
-1.08356e-37
-4.36783e-36
-1.21969e-34
-2.32572e-33
-2.75911e-32
-1.32243e-31
-3.05853e-31
-1.93964e-31
-5.62321e-32
1.46682e-31
8.62308e-30
4.81833e-28
2.39336e-26
1.25955e-24
5.85836e-23
2.3775e-21
7.40587e-20
1.97131e-18
4.15375e-16
2.00578e-14
-1.39853e-44
-2.16473e-42
-2.36681e-40
-1.4699e-38
-6.10046e-37
-1.77383e-35
-3.59287e-34
-4.81537e-33
-3.68485e-32
-9.98687e-32
-6.21718e-32
-1.88311e-32
1.61289e-32
1.11189e-30
6.52038e-29
4.01526e-27
2.42622e-25
1.2404e-23
5.52445e-22
1.90591e-20
5.35464e-19
1.37933e-16
7.45511e-15
-6.30607e-57
-2.00628e-54
-1.89877e-52
-1.97453e-51
1.74968e-51
2.78172e-49
7.35877e-47
2.45622e-44
2.4361e-42
1.91271e-40
9.58176e-36
2.57056e-34
1.71268e-33
1.08735e-31
8.26905e-30
6.06871e-28
4.08962e-26
2.28094e-24
1.11441e-22
4.30299e-21
1.31497e-19
3.91797e-17
2.35668e-15
-3.73353e-57
-1.12693e-54
-1.10676e-52
-1.19617e-51
-3.9726e-52
-5.25413e-50
-1.67425e-51
3.36254e-47
1.5215e-44
5.94363e-43
8.95033e-39
1.23517e-36
1.25528e-34
1.04444e-32
9.41025e-31
8.0018e-29
5.88268e-27
3.57959e-25
1.91826e-23
8.31145e-22
2.84118e-20
9.33136e-18
6.20747e-16
-1.61701e-57
-4.80765e-55
-4.89702e-53
-5.48374e-52
-1.90289e-52
-3.34953e-50
-1.98805e-50
3.71703e-48
1.38193e-45
8.55479e-44
4.65018e-40
7.09096e-38
8.44691e-36
8.85576e-34
9.45205e-32
8.75548e-30
7.02532e-28
4.65389e-26
2.74351e-24
1.33876e-22
5.19561e-21
1.81103e-18
1.33413e-16
-4.62135e-58
-1.38716e-55
-1.4641e-53
-1.6999e-52
-5.91252e-53
-1.23318e-50
-1.18699e-50
1.09936e-49
3.00988e-47
8.96066e-45
1.62048e-41
3.45864e-39
4.77414e-37
6.21761e-35
7.50274e-33
7.55785e-31
6.76452e-29
4.77815e-27
3.14049e-25
1.75553e-23
7.78802e-22
2.75247e-19
2.26169e-17
-6.66098e-59
-2.03403e-56
-2.22143e-54
-2.67655e-53
-9.05185e-54
-2.07769e-51
-2.25343e-51
3.7958e-52
4.36364e-49
3.1373e-46
4.41491e-43
1.29259e-40
1.98694e-38
3.34223e-36
4.21753e-34
4.9619e-32
4.83954e-30
3.6161e-28
2.73181e-26
1.80335e-24
9.29523e-23
3.07695e-20
2.87126e-18
-3.08265e-81
-1.02641e-77
-2.07814e-74
4.6889e-66
1.13928e-61
4.74868e-62
4.08073e-56
8.18646e-53
2.54435e-50
1.19966e-47
1.12554e-44
2.78163e-42
6.00414e-40
1.15944e-37
1.62129e-35
2.16958e-33
2.20521e-31
1.96497e-29
1.73086e-27
1.35481e-25
8.31801e-24
2.26518e-21
2.51707e-19
-1.72512e-81
-4.74326e-78
-9.89943e-75
1.38576e-68
1.88886e-62
7.1405e-64
1.64022e-58
1.40568e-55
2.31008e-52
6.1437e-51
8.73821e-47
3.98216e-44
9.54466e-42
2.0474e-39
3.67193e-37
4.82229e-35
5.74993e-33
6.48362e-31
7.25355e-29
6.54232e-27
4.84967e-25
8.95343e-23
1.33006e-20
-7.4062e-82
-1.49672e-78
-3.21223e-75
4.59905e-73
1.19494e-68
-6.69424e-68
2.52096e-62
1.82757e-59
1.69474e-55
2.89899e-53
1.07434e-49
6.24719e-47
2.08741e-44
5.52212e-42
1.66022e-39
3.39506e-37
5.96343e-35
9.26486e-33
1.21769e-30
1.39167e-28
1.29178e-26
1.39744e-24
3.17261e-22
-2.15611e-82
-2.42401e-79
-5.34696e-76
-2.80555e-74
-8.46887e-70
-4.03529e-68
-3.17918e-63
-5.67343e-59
-7.34909e-60
3.67407e-59
2.76899e-55
9.37082e-52
5.69321e-49
2.78891e-46
1.50951e-43
5.39953e-41
1.76951e-38
5.0088e-36
1.21803e-33
2.5156e-31
4.18341e-29
1.37074e-26
2.24706e-24
-3.20182e-83
-1.95648e-82
-9.98589e-79
-1.74515e-75
-3.82572e-72
-6.88292e-69
-8.25875e-67
-5.38851e-63
-4.12464e-64
-1.79089e-65
1.20755e-65
1.54833e-62
1.13462e-58
3.02424e-55
3.31246e-52
3.67729e-49
3.3964e-46
2.68232e-43
1.8058e-40
1.02999e-37
4.6945e-35
2.65732e-29
1.81801e-27
-4.07709e-102
-3.99246e-104
-1.54062e-106
-5.76576e-109
-2.13722e-111
-7.95781e-114
-3.92157e-93
-8.41981e-95
-1.05608e-96
-2.07719e-76
-6.15888e-78
-1.02947e-79
-1.28304e-81
-1.33175e-83
2.75753e-66
2.29785e-63
2.60384e-60
2.25124e-57
3.45144e-76
7.6804e-52
1.99549e-49
0
-6.36691e-47
0.995613
0.997561
0.824389
0.106565
0.997454
0.997749
0.993222
0.842126
0.999806
0.999863
0.999933
0.999698
0.999982
0.999969
0.999957
0.999933
0.92149
0.988696
0.999933
0.999698
0.153294
0.220665
0.313629
0.41666
0.000237426
0.000318653
0.000407132
0.00106651
8.19912e-05
8.85011e-05
9.40834e-05
9.86473e-05
7.52158e-05
7.61382e-05
7.71962e-05
7.83916e-05
7.46461e-05
7.52158e-05
7.61382e-05
7.7386e-05
0.000465555
0.000916411
0.000991844
0.00101341
0.000684074
0.000551126
0.000195723
0.000133464
3.51061e-05
7.44706e-06
2.86497e-08
1.74044e-08
-1.72197e-10
-4.18065e-10
2.61469e-11
5.54157e-11
5.07487e-12
5.93385e-12
1.15896e-11
2.62016e-11
1.28195e-11
1.76109e-11
2.45684e-11
3.41169e-11
6.61865e-12
1.08157e-11
1.75236e-11
2.85959e-11
5.1787e-12
8.8363e-12
1.51868e-11
2.60131e-11
3.67052e-12
6.23628e-12
1.19442e-11
1.94841e-11
2.41933e-12
4.11265e-12
9.38526e-12
1.41292e-11
1.67765e-12
2.93247e-12
8.03839e-12
1.05566e-11
1.32315e-12
2.37887e-12
6.95727e-12
7.82588e-12
1.15954e-12
2.11948e-12
6.48816e-12
5.58534e-12
1.04185e-12
2.03806e-12
6.28973e-12
4.33307e-12
8.8362e-13
2.15088e-12
6.24621e-12
4.07537e-12
7.03266e-13
1.46649e-12
5.85291e-12
3.97638e-12
4.98073e-13
8.65949e-13
4.16424e-12
3.10459e-12
2.85713e-13
5.16355e-13
2.47803e-12
2.20829e-12
1.38853e-13
2.71485e-13
1.43411e-12
2.11903e-12
5.93527e-14
1.32796e-13
7.45371e-13
2.11678e-12
2.21363e-14
6.05903e-14
4.18294e-13
1.44971e-12
7.0841e-15
2.50397e-14
2.4789e-13
1.14519e-12
1.90836e-15
9.33827e-15
1.10001e-13
6.06626e-13
4.24857e-16
2.93254e-15
4.2947e-14
2.30926e-13
7.6016e-17
7.40462e-16
1.27031e-14
7.08169e-14
1.05773e-17
1.42674e-16
2.72887e-15
1.6356e-14
1.09807e-18
1.97348e-17
4.21724e-16
2.74742e-15
7.96063e-20
1.78885e-18
4.29403e-17
3.19201e-16
3.32135e-21
9.00134e-20
2.5115e-18
2.21841e-17
3.56666e-23
1.25058e-21
5.54708e-20
6.2118e-19
1.43754e-27
7.58633e-26
7.36291e-24
8.3695e-23
-5.39333e-48
-2.42152e-49
-1.0474e-41
-8.35185e-43
8.49652e-05
0.0130806
7.90689e-05
1.39471e-11
4.99039e-12
1.57745e-12
6.11113e-13
1.55779e-09
9.47792e-10
2.59532e-10
1.00526e-10
9.08775e-10
2.9208e-10
1.06767e-10
1.02305e-11
4.6678e-13
1.89151e-14
9.2333e-16
5.42404e-18
0.714086
0.424813
0.000177635
0.0377282
1.39471e-11
4.99039e-12
5.0786e-11
2.33648e-07
6.20508e-07
5.56562e-09
1.00452e-07
2.3904e-08
5.22093e-09
2.58315e-09
2.3378e-10
8.68518e-12
3.88673e-13
2.49953e-14
2.618e-16
0.999163
0.99042
0.562189
0.756454
0.540221
0.0466654
0.0260419
2.45523e-07
4.95015e-07
1.08467e-06
5.01397e-06
1.30342e-06
2.3229e-07
1.02888e-07
8.7904e-09
3.17376e-10
1.39625e-11
6.53755e-14
7.68822e-15
0.999694
0.999423
0.998772
0.998276
0.997523
0.849499
0.858688
0.760969
0.286194
0.0258756
9.36091e-06
4.80375e-05
7.64517e-06
3.24113e-06
2.4829e-07
9.29806e-09
3.73972e-10
-2.64623e-12
6.66431e-14
0.999443
0.999414
0.99939
0.998821
0.998276
0.997997
0.997091
0.996454
0.964116
0.911945
0.713689
0.152307
0.00389892
7.21808e-05
5.47828e-06
2.43195e-07
1.04579e-08
4.09159e-11
-1.4591e-13
0.581589
0.742419
0.823747
0.892096
0.995071
0.997091
0.996454
0.996464
0.996454
0.995544
0.99337
0.951988
0.527835
0.0326475
9.62709e-05
5.35901e-06
2.38453e-07
4.43467e-10
4.54491e-11
0.0135672
0.0526391
0.101007
0.155818
0.232232
0.336274
0.419945
0.512047
0.745299
0.99337
0.989761
0.987697
0.986933
0.622342
0.053527
9.01337e-05
4.42192e-06
1.9262e-08
7.78055e-10
0.000138348
0.000203831
0.000355391
0.00112598
0.00206893
0.00126794
0.000840395
0.00462617
0.0446443
0.142488
0.357217
0.861831
0.979819
0.968495
0.564931
0.0417945
6.81916e-05
2.94139e-07
1.95422e-08
9.86997e-05
0.000138358
0.000231539
0.0015643
0.00228868
0.00162515
1.38592e-05
2.45584e-05
5.63162e-05
0.00016757
0.000613834
0.107116
0.647283
0.957252
0.920828
0.448622
0.015287
6.40067e-06
6.20283e-07
0.000543838
0.000894547
0.000861917
0.000463663
5.51659e-05
1.63136e-05
2.28203e-07
9.66478e-07
2.42162e-06
1.01204e-05
3.81065e-05
0.000246545
0.0429927
0.618218
0.908377
0.803853
0.211358
0.000110857
6.63405e-06
0.00101469
0.000922466
0.000172279
3.67904e-07
4.67823e-08
1.44667e-08
9.90793e-09
1.03827e-08
1.09989e-07
5.26306e-07
2.71089e-06
1.84036e-05
8.91738e-05
0.113778
0.761205
0.795299
0.505789
0.0229361
0.000111473
0.000119475
4.28255e-05
2.42633e-07
1.13155e-08
2.32415e-09
1.18566e-09
1.63507e-09
2.36862e-09
3.72954e-09
2.64292e-08
1.85207e-07
1.46273e-06
6.01456e-06
1.03532e-06
0.434711
0.782034
0.658945
0.0905823
0.00101467
1.13955e-08
5.38413e-09
1.63024e-09
1.16534e-09
9.66939e-10
8.9174e-10
1.44826e-09
1.82158e-09
2.36497e-09
5.22838e-09
1.60304e-08
1.10308e-07
5.52169e-07
1.65887e-07
0.120944
0.755346
0.687331
0.139975
0.00451061
9.38789e-11
1.71333e-10
4.42835e-10
9.66098e-10
9.72485e-10
8.91754e-10
2.57756e-09
1.88397e-08
4.65286e-09
5.55525e-09
6.4901e-09
1.62124e-08
1.16524e-07
1.07713e-07
1.65887e-07
0.609682
0.673264
0.201333
0.00979282
5.67215e-11
1.51761e-10
4.69398e-10
9.8573e-10
1.19086e-09
1.06826e-09
9.9903e-10
9.93757e-10
1.25446e-06
1.06188e-05
1.22259e-05
1.16524e-07
1.07217e-07
1.07713e-07
1.07713e-07
0.433638
0.658168
0.251341
0.0153424
6.82873e-11
2.06096e-10
5.44413e-10
1.0434e-09
1.3158e-09
1.21214e-09
9.9282e-10
9.93752e-10
9.93701e-10
4.39825e-05
5.12114e-05
5.03391e-05
4.87447e-06
1.07713e-07
4.91211e-07
0.291739
0.64245
0.287006
0.0212746
7.0771e-11
1.96853e-10
5.82212e-10
1.50434e-09
2.04049e-09
1.85851e-09
1.03803e-09
9.92686e-10
9.93752e-10
1.84824e-05
5.25915e-05
5.25915e-05
4.05212e-05
1.15664e-06
2.01877e-06
0.174503
0.62119
0.279738
0.0274269
8.14363e-11
1.51798e-10
6.64773e-10
2.37581e-09
2.66168e-09
2.42699e-09
1.27256e-09
9.93752e-10
1.01405e-09
1.05042e-09
3.30952e-05
5.25915e-05
5.18481e-05
1.466e-05
1.74074e-06
0.100988
0.590943
0.276366
0.0336272
1.17035e-10
1.76366e-10
9.93389e-10
2.35731e-09
2.50202e-09
2.24647e-09
1.19726e-09
1.01405e-09
1.05042e-09
1.13797e-09
6.51507e-06
5.18481e-05
5.11623e-05
1.19974e-05
9.58458e-07
0.0692177
0.55892
0.296534
0.0402201
1.51614e-10
4.14871e-10
8.34947e-10
1.09051e-09
1.09742e-09
2.20857e-09
9.26078e-08
3.87131e-08
2.06751e-09
2.08563e-09
9.65146e-06
4.03422e-05
2.66812e-05
2.12509e-06
6.95349e-07
0.0620452
0.531766
0.345521
0.0486925
1.5862e-10
6.89413e-10
7.17151e-10
7.20865e-10
7.25165e-10
3.14453e-07
9.04086e-07
6.6072e-07
3.06064e-08
2.81057e-09
7.97518e-06
9.32837e-06
2.30869e-06
2.71943e-07
5.45542e-07
0.0594607
0.479467
0.380601
0.0610874
1.49284e-10
1.15549e-09
8.54342e-10
7.25165e-10
7.40373e-10
8.59131e-07
9.09489e-07
9.08145e-07
6.44479e-07
1.76422e-07
2.07007e-07
1.88035e-07
1.90739e-07
2.04559e-07
0.000397749
0.141891
0.318144
0.308026
0.0872481
1.47746e-10
2.60778e-09
2.733e-09
8.58078e-10
8.59311e-10
2.73375e-07
8.99136e-07
9.09251e-07
5.7434e-07
1.79462e-07
1.79883e-07
1.68079e-07
1.67352e-07
1.8914e-07
0.0588725
0.200902
0.178866
0.171724
0.0716081
3.32934e-10
3.40915e-09
3.72985e-09
1.18453e-09
1.12346e-09
3.63786e-08
1.96366e-07
1.61376e-07
1.39139e-07
3.12711e-07
1.98467e-07
1.65707e-07
1.65406e-07
0.00991001
0.185188
0.199188
0.0606211
0.0309803
0.0134657
3.736e-10
3.3322e-09
3.0115e-09
8.86222e-10
1.34405e-07
2.58005e-07
1.10239e-07
1.03797e-07
1.04054e-07
1.51556e-07
1.60389e-07
1.65635e-07
1.65635e-07
0.12934
0.212607
0.147048
0.0202008
0.00590554
0.00149282
1.3447e-10
2.81204e-09
1.60184e-09
8.09689e-10
3.46866e-07
3.71248e-07
2.27587e-07
1.04412e-07
1.0404e-07
1.29049e-07
1.61391e-07
1.65707e-07
0.0785085
0.214909
0.214882
0.119295
0.0115428
0.00152982
0.000326206
1.96168e-10
1.5258e-09
6.10893e-10
6.49452e-10
1.8366e-07
2.68526e-07
8.6365e-08
6.98486e-08
1.28659e-07
2.66239e-06
0.0209125
0.148892
0.215477
0.216201
0.214909
0.0769926
0.00783899
0.000336806
6.85869e-05
2.70648e-10
9.04524e-10
3.66474e-10
2.37961e-09
4.48334e-08
2.80416e-08
3.32345e-08
3.34466e-08
2.60358e-06
0.0533935
0.20566
0.215477
0.216201
0.215723
0.144156
0.0292735
0.00797484
6.8911e-05
1.81437e-05
1.48251e-10
7.43508e-10
3.30571e-10
2.28407e-08
2.05409e-08
2.13527e-08
3.09258e-08
3.33516e-08
0.00112711
0.199437
0.213387
0.212964
0.207716
0.118053
0.0118437
0.0182683
0.0137748
1.81447e-05
1.05581e-05
8.58061e-11
7.2281e-10
2.99902e-10
1.38874e-08
1.70017e-08
1.86909e-08
2.66801e-08
0.00683034
0.0681796
0.107226
0.0923997
0.0665204
0.0286411
0.0033032
0.000472854
0.00390697
0.0127016
2.42937e-05
9.78119e-06
6.321e-11
6.92858e-10
2.99065e-10
1.48478e-10
1.81315e-08
7.8445e-07
4.41629e-08
0.0313038
0.0669523
0.0111735
0.000589574
0.000166951
0.000119772
0.000115314
0.000128235
0.000500844
0.00352865
6.67378e-05
9.78119e-06
2.7041e-11
3.06271e-10
6.19376e-11
6.84338e-11
8.82334e-08
2.57817e-06
1.12975e-07
0.00658217
0.0293336
0.00592014
0.000166952
4.08723e-05
1.21648e-05
1.8973e-05
4.11409e-05
0.000138362
0.000250199
0.000279231
1.23098e-05
1.68026e-11
5.24611e-11
2.18036e-11
2.66806e-09
3.25228e-09
1.13138e-06
3.63884e-07
1.09482e-06
0.0558437
0.0211868
4.08716e-05
1.7248e-05
2.43407e-06
4.06642e-06
1.32406e-05
3.08971e-05
0.000187339
0.000442211
1.46453e-05
8.54279e-12
1.78306e-11
1.81254e-11
3.50263e-09
9.73098e-08
9.98695e-08
1.59918e-07
0.0125601
0.0619746
0.0299816
1.93706e-05
2.442e-06
1.06803e-06
1.57867e-06
5.31162e-06
1.95995e-05
0.000188701
0.000386193
9.78457e-06
2.40575e-12
8.35366e-12
5.96665e-11
1.68889e-09
3.34651e-11
6.87127e-07
1.82295e-05
0.0214498
0.0619052
0.024678
5.55513e-06
1.0666e-06
9.58373e-07
1.06804e-06
1.97506e-06
2.57277e-05
5.53014e-05
9.49274e-05
3.35811e-06
5.39841e-13
3.74351e-12
1.0794e-10
8.93245e-14
1.4367e-12
1.44359e-06
0.000135545
1.35974e-06
0.0445736
0.0814676
0.0104058
9.58422e-07
9.42526e-07
9.54385e-07
1.51616e-06
2.90284e-05
2.49195e-05
4.73341e-06
9.11832e-07
1.03853e-13
7.5234e-13
7.23301e-12
9.38985e-15
8.92075e-14
8.86838e-07
3.6896e-05
6.2226e-07
0.0163359
0.0951673
0.0189279
9.42805e-07
9.42624e-07
9.27949e-07
1.41048e-06
1.61195e-05
1.4587e-05
1.9952e-06
3.6423e-07
1.54372e-14
7.15533e-14
2.80842e-13
3.66527e-15
3.20438e-09
9.01445e-08
9.78526e-08
1.34401e-07
0.0172862
0.0980319
0.0215596
9.42805e-07
9.29365e-07
8.79336e-07
1.17724e-06
5.48134e-06
6.6907e-06
2.26305e-06
1.64346e-07
1.3604e-15
7.43739e-15
5.26096e-14
3.46495e-15
-7.69696e-33
-6.85718e-18
1.84088e-07
2.13862e-07
0.0327681
0.100899
0.0916832
0.00706227
8.79337e-07
8.21488e-07
9.59694e-07
1.92527e-06
2.53264e-06
9.43317e-07
6.72705e-08
5.61819e-17
4.32504e-16
2.29088e-15
9.62121e-34
-2.15793e-17
-2.79078e-17
0
1.97168e-07
0.014114
0.102884
0.102848
0.00906662
8.21488e-07
7.68849e-07
9.33448e-07
1.43672e-06
8.37909e-07
6.40196e-08
3.45418e-08
3.88599e-20
3.08613e-18
7.00382e-17
-1.70275e-16
-2.61151e-17
-5.71492e-17
0
-5.37278e-25
0.000164615
0.102848
0.102882
0.0341284
0.0020461
7.21097e-07
7.37448e-07
8.38371e-07
3.0308e-07
3.45418e-08
2.68503e-08
-1.47709e-44
-1.78474e-46
-1.65451e-48
-7.37329e-17
-2.69545e-18
-3.21063e-17
-2.78369e-18
-1.17654e-16
-9.47653e-17
4.48805e-05
0.0819201
0.0739533
7.21097e-07
6.89463e-07
6.19407e-07
3.64304e-07
1.07259e-07
2.68503e-08
2.68503e-08
)
;

boundaryField
{
    leftWall
    {
        type            zeroGradient;
    }
    rightWall
    {
        type            zeroGradient;
    }
    lowerWall
    {
        type            zeroGradient;
    }
    atmosphere
    {
        type            inletOutlet;
        inletValue      uniform 0;
        value           nonuniform List<scalar> 
46
(
0
0
0
0
0
0
0
0
0
0
0
0
0
0
0
0
0
0
0
0
0
0
0
0
0
0
0
0
0
0
0
0
0
0
0
0
0
0.0819201
0.0739533
7.21097e-07
6.89463e-07
6.19407e-07
3.64304e-07
1.07259e-07
2.68503e-08
2.68503e-08
)
;
    }
    defaultFaces
    {
        type            empty;
    }
}


// ************************************************************************* //
