/*--------------------------------*- C++ -*----------------------------------*\
| =========                 |                                                 |
| \\      /  F ield         | OpenFOAM: The Open Source CFD Toolbox           |
|  \\    /   O peration     | Version:  2012                                  |
|   \\  /    A nd           | Website:  www.openfoam.com                      |
|    \\/     M anipulation  |                                                 |
\*---------------------------------------------------------------------------*/
FoamFile
{
    version     2.0;
    format      ascii;
    class       volScalarField;
    location    "0.35";
    object      p;
}
// * * * * * * * * * * * * * * * * * * * * * * * * * * * * * * * * * * * * * //

dimensions      [1 -1 -2 0 0 0 0];


internalField   nonuniform List<scalar> 
2268
(
1078.32
1082.09
1092.82
1098.04
1097.78
1092.66
1085.93
1080.21
1076.81
1076.41
1079.58
1087
1099.51
1118.28
1144.36
1178.73
1221.57
1270.89
1320.03
1356.34
1364.48
1358.71
1411.55
1018.36
1022.09
1032.62
1037.87
1037.55
1032.45
1025.81
1020.18
1016.84
1016.43
1019.55
1026.86
1039.16
1057.28
1082.18
1114.92
1156.17
1204.95
1256.12
1295.62
1308.82
1289.72
1348.65
957.257
961.001
971.183
976.401
975.967
970.913
964.448
958.997
955.749
955.338
958.336
965.43
977.415
995.151
1019.58
1051.38
1090.56
1135.74
1183.5
1224.55
1245.88
1240.6
1298.83
895.161
898.825
908.597
913.703
913.102
908.12
901.906
896.703
893.585
893.145
895.96
902.734
914.274
931.454
955.129
985.831
1023.45
1066.31
1111.25
1152.49
1184.43
1203.91
1265.06
832.247
835.658
844.978
849.874
849.063
844.17
838.259
833.348
830.363
829.854
832.407
838.748
849.71
866.17
888.94
918.514
954.796
996.385
1040.52
1083.23
1125.03
1164.93
1241.91
768.741
771.633
780.453
785.045
783.985
779.195
773.61
768.99
766.106
765.46
767.653
773.442
783.687
799.275
821.001
849.38
884.445
925.117
969.417
1014.35
1062.63
1114.39
1196.82
704.892
706.949
715.12
719.253
717.909
713.261
708.038
703.697
700.851
699.977
701.695
706.8
716.182
730.742
751.267
778.328
812.186
852.043
896.624
943.667
995.478
1052
1132.51
640.881
641.901
648.938
652.346
650.709
646.296
641.503
637.441
634.572
633.36
634.469
638.736
647.094
660.481
679.731
705.282
737.833
776.784
821.332
869.952
923.309
981.485
1045.74
887.599
887.676
887.736
887.827
887.881
887.946
888.013
888.103
888.223
888.377
888.563
888.778
889.01
889.247
889.472
889.671
889.832
889.945
890.001
887.529
887.615
887.669
887.769
887.82
887.884
887.949
888.037
888.157
888.312
888.499
888.715
888.95
889.189
889.416
889.618
889.78
889.894
889.95
887.446
887.546
887.598
887.712
887.755
887.819
887.881
887.967
888.086
888.241
888.43
888.649
888.888
889.132
889.364
889.569
889.735
889.851
889.908
887.35
887.472
887.521
887.657
887.686
887.75
887.809
887.89
888.008
888.165
888.356
888.579
888.824
889.076
889.315
889.527
889.697
889.817
889.875
887.236
887.402
887.429
887.606
887.613
887.679
887.731
887.806
887.924
888.081
888.275
888.504
888.758
889.02
889.27
889.49
889.667
889.791
889.852
887.206
887.323
887.298
887.554
887.538
887.603
887.648
887.713
887.832
887.991
888.187
888.423
888.69
888.966
889.228
889.459
889.645
889.775
889.839
886.875
887.2
887.085
887.534
887.466
887.524
887.561
887.611
887.732
887.893
888.09
888.336
888.619
888.912
889.191
889.435
889.631
889.768
889.836
886.863
887.429
886.763
887.389
887.408
887.434
887.467
887.492
887.621
887.788
887.986
888.242
888.544
888.86
889.157
889.417
889.625
889.771
889.844
540.586
539.843
544.197
546.387
544.397
540.316
536.072
532.285
529.194
527.254
527.186
529.879
536.311
547.442
564.282
587.456
618.301
655.969
700.211
750.263
803.35
856.89
878.622
405.647
400.682
400.072
400.9
398.444
394.243
389.978
385.795
381.734
378.255
376.123
376.253
379.646
386.792
396.997
410.771
438.874
473.091
515.396
565.009
617.59
672.538
726.996
275.659
265.343
256.537
253.337
249.172
243.969
238.831
233.367
227.393
221.39
216.204
212.849
213.308
220.405
234.085
253.534
264.159
289.612
328.899
377.703
429.909
483.562
542.642
158.504
137.156
112.896
104.556
99.7674
94.6557
89.4785
83.6743
76.9702
69.6619
62.2497
54.9776
48.5861
46.0083
45.2105
46.3761
50.3902
67.7797
103.365
152.703
209.192
266.602
326.065
68.7527
37.7066
19.2627
19.3225
18.8531
17.0653
15.2728
13.6979
12.1669
10.7071
9.48122
8.41347
7.74493
7.695
7.92735
8.17326
8.5099
9.49631
12.6416
18.3209
28.9821
50.4686
92.6236
12.2926
6.66714
6.27277
6.46065
6.52178
6.5812
6.6666
6.77462
6.90422
7.05462
7.21654
7.35695
7.47436
7.60069
7.80918
8.03752
8.23296
8.36625
8.51533
8.67465
8.92683
9.68455
13.2779
6.09014
6.11658
6.15875
6.26089
6.33309
6.4041
6.49025
6.59274
6.71135
6.84461
6.98758
7.12916
7.26399
7.4084
7.59682
7.79291
7.95701
8.09949
8.2297
8.33731
8.47854
8.64543
8.88552
5.94404
6.00501
6.0316
6.07798
6.14074
6.21043
6.29331
6.38928
6.49793
6.61774
6.74572
6.87479
7.00444
7.14199
7.30511
7.46666
7.55843
7.60065
7.65849
7.79744
8.03182
8.3843
8.80193
5.76833
5.7937
5.83128
5.87746
5.93616
6.00412
6.08322
6.17352
6.2744
6.38459
6.50221
6.62203
6.74296
6.86459
6.97813
7.10422
7.17703
7.17348
7.165
7.27305
7.60811
8.07495
8.57094
5.57057
5.59221
5.6289
5.66538
5.72151
5.78677
5.8622
5.94774
6.04263
6.1458
6.25595
6.36984
6.48608
6.60238
6.69664
6.79268
6.89454
6.981
7.05734
7.16781
7.45846
7.92336
8.42782
5.35871
5.37721
5.40765
5.44589
5.49694
5.55872
5.63065
5.71225
5.80272
5.90116
6.00665
6.11764
6.23306
6.34861
6.46047
6.56613
6.67722
6.81682
7.01476
7.26083
7.56895
7.9256
8.32612
5.1331
5.14837
5.1757
5.21277
5.26099
5.31989
5.38888
5.46742
5.55482
5.65033
5.75336
5.86324
5.97919
6.09927
6.22232
6.35035
6.48746
6.63217
6.82319
7.08976
7.40577
7.76007
8.11799
4.8943
4.90745
4.93247
4.96781
5.01385
5.07037
5.13691
5.21303
5.29822
5.39194
5.49383
5.60367
5.72124
5.84619
5.97891
6.12146
6.27831
6.45195
6.64966
6.89261
7.17396
7.47585
7.81653
4.64269
4.65448
4.67776
4.7115
4.7557
4.8102
4.87468
4.94882
5.03229
5.12478
5.22613
5.33641
5.45581
5.58484
5.72457
5.87727
6.04643
6.23603
6.45202
6.70186
6.98326
7.28861
7.60127
4.37884
4.38981
4.41177
4.44412
4.48672
4.53949
4.60218
4.67462
4.75662
4.84807
4.94899
5.05964
5.18049
5.31239
5.45671
5.61557
5.7918
5.98856
6.209
6.4555
6.72591
7.01506
7.31816
4.10336
4.11379
4.13472
4.16587
4.20708
4.25829
4.31938
4.39026
4.47088
4.56128
4.6616
4.77223
4.89379
5.02724
5.17399
5.33587
5.51507
5.71384
5.93399
6.17626
6.43934
6.72057
7.01784
3.81674
3.82679
3.84688
3.87696
3.9169
3.96668
4.02626
4.09562
4.17482
4.26399
4.36337
4.47341
4.59479
4.72846
4.87572
5.0381
5.21729
5.41487
5.63192
5.86875
6.12458
6.39798
6.6877
3.51944
3.52916
3.54853
3.57762
3.61637
3.66476
3.72282
3.79061
3.86824
3.95589
4.05388
4.16268
4.28295
4.41559
4.56172
4.72263
4.89962
5.09384
5.30608
5.53654
5.78483
6.05018
6.33181
3.21185
3.22126
3.23997
3.26812
3.30567
3.35266
3.40915
3.47523
3.55105
3.63684
3.73293
3.8398
3.95806
4.08854
4.23219
4.39006
4.56321
4.75254
4.95869
5.18188
5.42197
5.6786
5.95133
2.89436
2.90345
2.92152
2.94872
2.98505
3.03057
3.08536
3.14955
3.22329
3.30682
3.4005
3.50476
3.62019
3.74749
3.88749
4.04105
4.20905
4.39224
4.59119
4.80618
5.03722
5.28425
5.54711
2.56734
2.57609
2.59351
2.61973
2.65479
2.69874
2.75168
2.81375
2.8851
2.96598
3.05673
3.15775
3.26958
3.3928
3.52813
3.67629
3.83804
4.01402
4.20476
4.41056
4.63159
4.86796
5.11978
2.23118
2.23956
2.2563
2.28149
2.31519
2.35745
2.40837
2.46807
2.53673
2.61456
2.70189
2.79909
2.90661
3.02496
3.15474
3.29657
3.45109
3.61889
3.80042
3.99602
4.20592
4.43042
4.66982
1.88625
1.89423
1.91025
1.93435
1.9666
2.00703
2.05574
2.11285
2.1785
2.25292
2.33637
2.4292
2.53179
2.64457
2.76803
2.9027
3.04914
3.20783
3.37919
3.56351
3.76111
3.97237
4.19777
1.53295
1.54048
1.55576
1.57869
1.60939
1.64786
1.69418
1.74846
1.81083
1.88147
1.96065
2.04864
2.14575
2.25235
2.36881
2.4956
2.63317
2.7819
2.94212
3.11409
3.29815
3.49469
3.70431
1.17165
1.17872
1.1932
1.2149
1.24395
1.28032
1.32409
1.37533
1.43416
1.50074
1.57528
1.65802
1.74919
1.84907
1.95798
2.07625
2.20423
2.34221
2.49039
2.64897
2.81822
2.99851
3.1904
0.802756
0.809355
0.822986
0.843387
0.870685
0.904842
0.945903
0.993924
1.049
1.11126
1.18088
1.25803
1.34288
1.43563
1.53649
1.64571
1.76351
1.89002
2.02535
2.16955
2.3228
2.4853
2.65744
0.426677
0.432792
0.445535
0.464574
0.490039
0.521873
0.5601
0.60475
0.655893
0.713636
0.778103
0.849405
0.927642
1.01292
1.10538
1.20513
1.31225
1.42674
1.54852
1.67753
1.81372
1.95703
2.10757
0.0438246
0.0494498
0.0612694
0.0788945
0.102458
0.131882
0.167172
0.208336
0.255418
0.308496
0.367643
0.432908
0.504317
0.581899
0.665683
0.755669
0.851777
0.953836
1.06161
1.17481
1.29316
1.41624
1.54371
-0.345378
-0.340252
-0.329381
-0.313212
-0.291598
-0.264647
-0.232363
-0.194762
-0.151821
-0.103498
-0.0497731
0.00933644
0.0737857
0.143524
0.218486
0.298542
0.383455
0.472881
0.566394
0.663491
0.763577
0.865837
0.969439
-0.740483
-0.735874
-0.725967
-0.711283
-0.691645
-0.667201
-0.637956
-0.603951
-0.565182
-0.52165
-0.473387
-0.420478
-0.363035
-0.301178
-0.235068
-0.16496
-0.091245
-0.0144387
0.0648429
0.14586
0.227694
0.309116
0.388774
-1.14101
-1.13695
-1.12801
-1.11483
-1.09717
-1.07524
-1.04903
-1.01861
-0.984005
-0.945247
-0.90243
-0.855695
-0.805213
-0.751168
-0.693805
-0.6335
-0.570789
-0.506345
-0.440966
-0.375621
-0.311549
-0.250356
-0.193893
-1.54651
-1.54304
-1.53505
-1.52338
-1.50768
-1.48824
-1.46504
-1.43817
-1.40767
-1.37364
-1.33619
-1.29554
-1.25189
-1.20548
-1.15663
-1.10583
-1.05374
-1.00116
-0.949046
-0.898583
-0.851278
-0.809052
-0.774179
-1.95655
-1.95372
-1.94665
-1.93647
-1.92271
-1.90572
-1.88549
-1.86211
-1.83566
-1.80626
-1.77408
-1.73935
-1.70233
-1.66328
-1.62262
-1.5809
-1.53888
-1.49747
-1.45774
-1.42104
-1.38908
-1.36401
-1.34836
-2.37062
-2.36846
-2.36225
-2.35356
-2.3417
-2.32713
-2.30981
-2.28986
-2.26738
-2.24251
-2.21544
-2.18644
-2.15577
-2.12377
-2.09087
-2.05772
-2.02513
-1.99404
-1.96562
-1.94133
-1.92301
-1.91291
-1.91367
-2.78797
-2.78651
-2.78111
-2.7739
-2.7639
-2.7517
-2.73725
-2.72066
-2.70206
-2.68157
-2.65944
-2.63591
-2.61129
-2.58594
-2.56035
-2.53518
-2.51125
-2.48952
-2.47119
-2.45779
-2.45121
-2.45371
-2.4679
-3.20791
-3.20719
-3.20252
-3.1968
-3.18863
-3.17875
-3.1671
-3.15379
-3.13895
-3.12271
-3.10529
-3.08698
-3.06808
-3.04898
-3.03019
-3.01237
-2.9963
-2.98291
-2.97343
-2.96937
-2.97257
-2.98519
-3.0098
-3.63042
-3.63053
-3.62655
-3.6223
-3.61595
-3.60834
-3.59944
-3.58934
-3.57815
-3.56601
-3.55315
-3.53983
-3.52636
-3.51315
-3.50071
-3.48965
-3.48071
-3.4748
-3.47308
-3.47697
-3.48817
-3.50867
-3.54087
-4.05581
-4.0569
-4.05358
-4.05077
-4.04624
-4.0409
-4.03471
-4.02775
-4.02014
-4.01201
-4.00357
-3.99508
-3.98682
-3.9792
-3.97271
-3.96793
-3.96556
-3.96642
-3.97155
-3.98225
-4
-4.02658
-4.06409
-4.48155
-4.4836
-4.48101
-4.47954
-4.47683
-4.4737
-4.47013
-4.46621
-4.46202
-4.45772
-4.4535
-4.44957
-4.44621
-4.44379
-4.44279
-4.44374
-4.44723
-4.45399
-4.46494
-4.48119
-4.50403
-4.53498
-4.5758
-4.90228
-4.90495
-4.90323
-4.90298
-4.90202
-4.90096
-4.89982
-4.89868
-4.89765
-4.89686
-4.89647
-4.89667
-4.89772
-4.89995
-4.90379
-4.90969
-4.91812
-4.92972
-4.94524
-4.96562
-4.99193
-5.02539
-5.06749
-5.32388
-5.32687
-5.32635
-5.32727
-5.32804
-5.32902
-5.33027
-5.33186
-5.33391
-5.33654
-5.33989
-5.34414
-5.3495
-5.35624
-5.3647
-5.37525
-5.3883
-5.40433
-5.42396
-5.4479
-5.47697
-5.51208
-5.55432
-5.77116
-5.77549
-5.77628
-5.77859
-5.78134
-5.78472
-5.78881
-5.79367
-5.79942
-5.80615
-5.81401
-5.82315
-5.83376
-5.84604
-5.86021
-5.87653
-5.89536
-5.91708
-5.94209
-5.97086
-6.00391
-6.04183
-6.08523
829.218
911.609
903.579
883.051
761.16
773.618
755.4
760.672
574.27
580.772
581.5
590.144
364.195
382.953
401.939
421.852
131.977
156.5
180.751
203.867
18.9144
23.575
29.4845
36.3922
9.24839
9.49611
9.73788
10.0322
9.14128
9.35854
9.56606
9.75874
8.93577
9.16674
9.385
9.59414
8.79307
9.01572
9.21617
9.38971
8.60368
8.78623
8.96734
9.14468
8.38496
8.5572
8.72158
8.88163
8.08397
8.25688
8.42868
8.59976
7.84865
8.01172
8.1747
8.3383
7.55517
7.71122
7.87232
8.03639
7.24926
7.40161
7.55753
7.71658
6.9131
7.06165
7.21379
7.36935
6.55129
6.69608
6.84455
6.99662
6.16429
6.30496
6.44941
6.59765
5.75278
5.88883
6.02876
6.17259
5.31718
5.44794
5.58264
5.72129
4.8578
4.98244
5.11101
5.24355
4.37493
4.49247
4.61384
4.7391
3.86905
3.97834
4.09126
4.2079
3.34089
3.44061
3.54363
3.65003
2.79171
2.8804
2.97185
3.06608
2.22373
2.29998
2.37818
2.4583
1.64029
1.70302
1.76669
1.83118
1.04562
1.09426
1.14273
1.19083
0.444503
0.478979
0.512172
0.543759
-0.157904
-0.137084
-0.118657
-0.103086
-0.756382
-0.74807
-0.743102
-0.742098
-1.34648
-1.34898
-1.35546
-1.36661
-1.92501
-1.93637
-1.95206
-1.97271
-2.48971
-2.50794
-2.53066
-2.55837
-3.03938
-3.06253
-3.09009
-3.12256
-3.57562
-3.60189
-3.63231
-3.66733
-4.10184
-4.12967
-4.16126
-4.197
-4.61486
-4.64302
-4.67444
-4.70939
-5.10616
-5.13355
-5.16366
-5.1967
-5.59149
-5.61749
-5.64572
-5.6763
-6.12168
-6.14659
-6.17307
-6.2012
884.99
886.984
885.871
886.733
887.395
887.27
887.342
887.301
887.446
887.63
887.81
888.081
888.422
888.779
889.112
889.4
889.631
889.792
889.874
830.128
869.388
881.463
885.172
887.533
886.822
886.809
886.872
887.136
887.344
887.467
887.797
888.234
888.681
889.076
889.414
889.685
889.876
889.974
624.554
687.542
838.447
774.151
857.309
884.401
884.791
886.312
886.744
886.804
886.931
887.361
887.973
888.584
889.076
889.471
889.793
890.026
890.147
451.525
485.534
557.52
529.566
640.376
796.196
788.284
839.143
870.018
885.535
886.04
886.725
887.624
888.444
889.131
889.585
889.965
890.255
890.41
241.502
285.931
327.33
359.227
415.584
497.448
513.76
567.092
679.119
786.688
840.506
877.354
887.072
888.517
889.261
889.758
890.202
890.583
890.792
51.6583
78.4923
108.338
137.657
172.371
215.693
249.054
291.494
384.661
485.841
582.19
740.024
854.368
887.329
889.519
889.968
890.468
891.028
891.332
10.9598
14.1256
17.9191
22.1292
27.7002
34.9222
40.9019
50.225
93.1311
181.986
294.074
462.93
658.905
841.883
887.609
890.059
890.744
891.622
892.107
10.0731
10.689
11.3384
12.0563
12.785
13.2401
13.319
13.5277
15.7781
23.6568
45.2345
148.511
373.113
632.911
844.28
888.473
891.082
892.535
893.252
9.94331
10.4463
10.8845
11.353
11.9142
12.3402
12.65
12.8857
13.1431
13.7822
15.4948
22.3747
89.9409
339.927
646.718
867.272
891.37
893.857
895.031
9.67859
10.1705
10.6379
11.019
11.4028
11.7662
12.1682
12.6279
13.1204
13.6275
14.2495
15.2027
18.6969
96.1367
386.19
742.152
893.806
895.619
897.872
9.44458
9.89734
10.3356
10.7408
11.1573
11.5872
12.0274
12.5037
13.0245
13.6033
14.2944
15.1363
15.9788
22.0014
125.908
561.901
866.635
898.181
901.345
9.16073
9.57624
10.0181
10.4595
10.9036
11.3602
11.8372
12.3463
12.8924
13.5033
14.1883
14.9332
15.6349
15.7116
16.9672
402.072
820.299
905.391
907.4
8.8864
9.30294
9.74035
10.1833
10.6354
11.1064
11.6041
12.1357
12.7048
13.3168
13.9565
14.6169
15.3108
15.5483
16.6895
208.534
753.725
910.358
917.402
8.61617
9.02295
9.44888
9.89009
10.3488
10.8304
11.3398
11.8814
12.4576
13.07
13.7068
14.3519
15.0842
15.5707
15.6488
45.3287
683.88
916.736
932.139
8.31312
8.71493
9.13578
9.57659
10.0389
10.526
11.0412
11.5861
12.1619
12.7759
13.4244
14.0818
14.804
15.4707
15.6657
18.0274
631.851
923.895
948.42
7.98754
8.3839
8.80036
9.23899
9.70152
10.1901
10.7062
11.2498
11.8187
12.4255
13.0793
13.7549
14.4601
15.2264
15.5428
17.3299
559.9
928.086
964.269
7.63535
8.0262
8.43815
8.87346
9.33381
9.82058
10.3334
10.8716
11.4339
12.0251
12.6671
13.3541
14.0701
14.9214
15.3503
17.1368
470.549
929.948
979.281
7.25714
7.64145
8.04773
8.47797
8.93369
9.41552
9.92177
10.4512
11.0057
11.5863
12.2082
12.8868
13.6076
14.4818
14.9937
16.7366
380.931
932.312
993.052
6.85201
7.22846
7.62757
8.05097
8.49996
8.97461
9.47199
9.99076
10.5345
11.1052
11.7062
12.3553
13.0564
13.8771
14.4601
16.2217
312.476
922.057
991.473
6.41971
6.78662
7.17678
7.59159
8.03224
8.49848
8.98692
9.49592
10.0285
10.5848
11.1618
11.776
12.4467
13.1637
13.7831
15.0594
251.541
838.923
908.416
5.95986
6.31543
6.69482
7.0995
7.53097
7.9893
8.47137
8.97576
9.50319
10.0484
10.6034
11.1869
11.8348
12.457
13.114
12.9834
126.83
427.548
551.361
5.47195
5.81397
6.18058
6.57387
6.99628
7.44913
7.93025
8.43751
8.97177
9.52183
10.0793
10.6561
11.2848
11.8926
12.8587
-3.88769
-104.697
-398.807
109.543
4.95539
5.28092
5.63176
6.01135
6.42425
6.87416
7.36217
7.88244
8.43907
9.03349
9.62435
10.2216
10.8599
11.4757
11.6352
-19.5997
-220.595
-537.252
-4.21074
4.40973
4.71507
5.04585
5.40725
5.8074
6.25411
6.75634
7.30372
7.89369
8.55052
9.20327
9.81928
10.4909
10.8264
14.8704
52.2977
-57.6293
-127.308
-0.423636
3.83449
4.11481
4.41951
4.75638
5.138
5.5763
6.09116
6.67794
7.32452
8.04795
8.76391
9.38772
10.3044
10.2044
37.8423
84.782
34.0819
-5.56611
-8.45282
3.22947
3.4776
3.74669
4.04853
4.40103
4.81594
5.32772
5.949
6.67821
7.43257
8.1906
8.52387
6.83254
13.6872
35.6898
63.9414
26.3222
-10.6715
-19.2029
2.59648
2.80308
3.02257
3.26882
3.56396
3.90639
4.38566
5.06172
6.03941
6.53497
5.61599
-0.711492
-2.63922
-0.834949
-2.46921
-0.92543
-11.9725
-24.2306
-24.783
1.94072
2.09786
2.25333
2.4165
2.59385
2.74809
3.12077
3.85255
5.14453
4.28172
-31.1886
-30.7765
-15.9286
-13.6645
-23.3151
-50.8195
-33.3195
-28.768
-27.1026
1.27
1.3749
1.46017
1.52651
1.51986
1.36561
1.42515
1.78163
1.67171
7.20538
-24.0738
-23.3395
-15.1152
-15.4285
-20.7709
-37.6366
-34.5862
-30.468
-28.9465
0.592467
0.646429
0.665312
0.64739
0.486724
0.140343
-0.393992
-1.95635
-21.4606
-15.1758
-14.0924
-14.7207
-17.4461
-19.8879
-20.0784
-20.7609
-25.9562
-32.007
-30.2718
-0.0836183
-0.0784072
-0.121773
-0.211803
-0.438674
-0.748897
-1.41815
-2.69064
-16.713
-18.0106
-18.3006
-18.8965
-19.8755
-20.3681
-20.3693
-19.1721
-22.5368
-31.7996
-29.96
-0.748823
-0.788208
-0.888636
-1.04889
-1.35883
-1.80376
-2.19242
-2.21923
-11.373
-17.6664
-18.4222
-19.2158
-20.2562
-20.8217
-21.1525
-21.1422
-22.7851
-28.3439
-27.8202
-1.39462
-1.46966
-1.60865
-1.81888
-2.24565
-2.99031
-3.61572
-5.09695
-8.15004
-18.6122
-18.5882
-19.1713
-20.1764
-20.8904
-21.5448
-22.1841
-22.4674
-24.5399
-24.5263
-2.01681
-2.11627
-2.27095
-2.49801
-2.92053
-3.58893
-4.56895
-7.70633
-15.9084
-18.3874
-18.2466
-18.6693
-19.7284
-20.4732
-21.2204
-21.8678
-21.154
-21.4507
-21.3644
-2.61413
-2.72875
-2.88922
-3.11645
-3.42876
-3.8203
-4.58504
-3.76196
-9.50072
-17.0851
-17.5829
-17.7212
-18.9019
-19.4505
-20.1987
-20.4781
-19.3581
-19.0947
-18.8678
-3.18593
-3.30895
-3.47349
-3.69619
-3.94932
-4.29555
-4.57504
-4.39587
-3.54901
-16.7385
-17.1874
-16.7176
-17.3225
-17.8057
-18.4129
-18.4313
-17.3091
-16.9833
-16.7959
-3.7344
-3.86003
-4.02467
-4.24117
-4.47819
-4.79993
-5.05501
-5.01607
-4.73883
-12.8754
-14.814
-15.2365
-15.2161
-15.6764
-16.0882
-15.9636
-15.0677
-14.9245
-14.8497
-4.26439
-4.38711
-4.54484
-4.74899
-4.97843
-5.32636
-5.6752
-5.93778
-6.75498
-11.0826
-13.172
-13.8365
-13.1118
-13.4667
-13.6574
-13.4692
-12.8489
-12.8772
-12.9106
-4.77433
-4.88968
-5.03423
-5.21659
-5.42094
-5.75152
-6.12131
-6.78127
-8.08191
-16.4004
-15.8699
-12.9727
-11.1854
-11.4211
-11.4449
-11.244
-10.8324
-10.9359
-11.0228
-5.25732
-5.36237
-5.49075
-5.64735
-5.81876
-6.08797
-6.30701
-7.0809
-9.73193
-21.883
-18.3173
-8.16365
-9.43037
-9.63186
-9.59719
-9.38895
-9.0994
-9.19932
-9.27736
-5.73181
-5.82502
-5.93591
-6.06667
-6.21018
-6.41515
-6.45945
-6.7787
-5.89888
4.42886
-52.2366
-22.5805
-8.23749
-7.98582
-7.99188
-7.7671
-7.54387
-7.62896
-7.73238
-6.25124
-6.33161
-6.42315
-6.52693
-6.64154
-6.79642
-6.82266
-7.21225
-5.95225
-6.86499
-106.059
-37.1477
-6.25561
-7.52371
-6.9889
-6.55301
-6.4774
-6.42527
-6.31435
)
;

boundaryField
{
    leftWall
    {
        type            calculated;
        value           nonuniform List<scalar> 
50
(
1078.32
1018.36
957.257
895.161
832.247
768.741
704.892
640.881
540.586
405.647
275.659
158.504
68.7527
12.2926
6.09014
5.94404
5.76833
5.57057
5.35871
5.1331
4.8943
4.64269
4.37884
4.10336
3.81674
3.51944
3.21185
2.89436
2.56734
2.23118
1.88625
1.53295
1.17165
0.802756
0.426677
0.0438246
-0.345378
-0.740483
-1.14101
-1.54651
-1.95655
-2.37062
-2.78797
-3.20791
-3.63042
-4.05581
-4.48155
-4.90228
-5.32388
-5.77116
)
;
    }
    rightWall
    {
        type            calculated;
        value           nonuniform List<scalar> 
50
(
890.001
889.95
889.908
889.875
889.852
889.839
889.836
889.844
889.874
889.974
890.147
890.41
890.792
891.332
892.107
893.252
895.031
897.872
901.345
907.4
917.402
932.139
948.42
964.269
979.281
993.052
991.473
908.416
551.361
109.543
-4.21074
-0.423636
-8.45282
-19.2029
-24.783
-27.1026
-28.9465
-30.2718
-29.96
-27.8202
-24.5263
-21.3644
-18.8678
-16.7959
-14.8497
-12.9106
-11.0228
-9.27736
-7.73238
-6.31435
)
;
    }
    lowerWall
    {
        type            calculated;
        value           nonuniform List<scalar> 
62
(
1107.75
1111.52
1122.25
1127.47
1127.21
1122.09
1115.36
1109.64
1106.24
1105.84
1109.01
1116.43
1128.94
1147.71
1173.79
1208.16
1251
1300.32
1349.46
1385.47
1388.76
1382.99
1437.7
1411.55
1348.65
1298.83
1265.06
1241.91
1196.82
1132.51
1045.74
891.54
974.053
955.195
889.778
887.599
887.529
887.446
887.35
887.236
887.206
886.875
886.863
887.629
887.706
887.765
887.856
887.911
887.975
888.043
888.132
888.252
888.406
888.593
888.807
889.04
889.276
889.501
889.701
889.862
889.974
890.03
)
;
    }
    atmosphere
    {
        type            calculated;
        value           nonuniform List<scalar> 
46
(
-6.0209
-6.02789
-6.02882
-6.03206
-6.03607
-6.04102
-6.04698
-6.05403
-6.06226
-6.07176
-6.08265
-6.09509
-6.10929
-6.1254
-6.14358
-6.16402
-6.18703
-6.21296
-6.24211
-6.27476
-6.31125
-6.35199
-6.39734
-6.43429
-6.45916
-6.48516
-6.51242
-6.56019
-6.63415
-6.71498
-6.8026
-6.8942
-7.01669
-6.99197
-7.33048
-6.93171
-5.82286
-474.583
-428.987
-5.73317
-5.73299
-5.73259
-5.73113
-5.72965
-5.72919
-5.72919
)
;
    }
    defaultFaces
    {
        type            empty;
    }
}


// ************************************************************************* //
