/*--------------------------------*- C++ -*----------------------------------*\
| =========                 |                                                 |
| \\      /  F ield         | OpenFOAM: The Open Source CFD Toolbox           |
|  \\    /   O peration     | Version:  2012                                  |
|   \\  /    A nd           | Website:  www.openfoam.com                      |
|    \\/     M anipulation  |                                                 |
\*---------------------------------------------------------------------------*/
FoamFile
{
    version     2.0;
    format      ascii;
    class       surfaceScalarField;
    location    "0.35";
    object      phi;
}
// * * * * * * * * * * * * * * * * * * * * * * * * * * * * * * * * * * * * * //

dimensions      [0 3 -1 0 0 0 0];
oriented        oriented;


internalField   nonuniform List<scalar> 
4432
(
-2.23648e-06
2.23648e-06
1.44818e-07
-2.3813e-06
5.64187e-06
-5.49706e-06
1.2304e-05
-6.66212e-06
1.86329e-05
-6.32895e-06
2.39793e-05
-5.34633e-06
2.82646e-05
-4.28534e-06
3.1666e-05
-3.40141e-06
3.44116e-05
-2.74554e-06
3.66795e-05
-2.2679e-06
3.85589e-05
-1.87947e-06
4.00486e-05
-1.48962e-06
4.10464e-05
-9.97888e-07
4.13336e-05
-2.87109e-07
4.04242e-05
9.09327e-07
3.74469e-05
2.97738e-06
3.14041e-05
6.04274e-06
2.13209e-05
1.00832e-05
7.71558e-06
1.36054e-05
-6.509e-06
1.42246e-05
-1.59766e-05
9.4676e-06
-1.70156e-05
1.03897e-06
-1.70156e-05
-2.21016e-06
4.44665e-06
3.17842e-07
-4.9093e-06
5.88743e-06
-1.10666e-05
1.25333e-05
-1.3308e-05
1.88147e-05
-1.26103e-05
2.41129e-05
-1.06446e-05
2.83706e-05
-8.54304e-06
3.17758e-05
-6.80657e-06
3.45569e-05
-5.52663e-06
3.68844e-05
-4.5954e-06
3.88388e-05
-3.83388e-06
4.04092e-05
-3.05999e-06
4.15288e-05
-2.11747e-06
4.2128e-05
-8.86389e-07
4.22255e-05
8.11879e-07
4.19638e-05
3.23903e-06
4.093e-05
7.07653e-06
3.7588e-05
1.34252e-05
2.91261e-05
2.20673e-05
1.41978e-05
2.91528e-05
-3.70631e-06
2.73717e-05
-8.71544e-06
6.0481e-06
-2.5731e-05
-1.9885e-06
6.43515e-06
6.31523e-07
-7.52932e-06
6.26167e-06
-1.66968e-05
1.28306e-05
-1.98769e-05
1.89623e-05
-1.8742e-05
2.41071e-05
-1.57894e-05
2.82552e-05
-1.26911e-05
3.16155e-05
-1.01669e-05
3.44146e-05
-8.32569e-06
3.6807e-05
-6.98781e-06
3.88546e-05
-5.88145e-06
4.05369e-05
-4.74231e-06
4.17727e-05
-3.35329e-06
4.24243e-05
-1.53796e-06
4.23753e-05
8.60814e-07
4.15546e-05
4.05976e-06
4.02441e-05
8.38703e-06
3.90486e-05
1.46207e-05
3.70829e-05
2.4033e-05
3.1004e-05
3.52317e-05
1.90167e-05
3.93591e-05
6.76676e-06
1.8298e-05
-1.89643e-05
-1.69366e-06
8.12882e-06
1.10134e-06
-1.03243e-05
6.77515e-06
-2.23706e-05
1.32184e-05
-2.63202e-05
1.91334e-05
-2.4657e-05
2.40685e-05
-2.07245e-05
2.80798e-05
-1.67025e-05
3.13998e-05
-1.34869e-05
3.4245e-05
-1.11709e-05
3.67443e-05
-9.48711e-06
3.89329e-05
-8.07006e-06
4.07716e-05
-6.58093e-06
4.21698e-05
-4.75149e-06
4.30087e-05
-2.37691e-06
4.3149e-05
7.20538e-07
4.24815e-05
4.72723e-06
4.09957e-05
9.87281e-06
3.92235e-05
1.63929e-05
3.83639e-05
2.48927e-05
3.75575e-05
3.60381e-05
3.19822e-05
4.49344e-05
1.81568e-05
3.21234e-05
-8.07487e-07
-1.30154e-06
9.43036e-06
1.70545e-06
-1.33313e-05
7.39175e-06
-2.80569e-05
1.3653e-05
-3.25814e-05
1.92905e-05
-3.02945e-05
2.39743e-05
-2.54083e-05
2.78382e-05
-2.05663e-05
3.11337e-05
-1.67825e-05
3.4057e-05
-1.40941e-05
3.67011e-05
-1.21312e-05
3.90681e-05
-1.04371e-05
4.10971e-05
-8.60994e-06
4.269e-05
-6.34436e-06
4.37313e-05
-3.41826e-06
4.41079e-05
3.43991e-07
4.37349e-05
5.10017e-06
4.25763e-05
1.10314e-05
4.07119e-05
1.82573e-05
3.89787e-05
2.66259e-05
3.85367e-05
3.64802e-05
3.60772e-05
4.73938e-05
2.34331e-05
4.47675e-05
2.26256e-05
-8.10811e-07
1.02412e-05
2.42633e-06
-1.65684e-05
8.09466e-06
-3.37252e-05
1.41222e-05
-3.8609e-05
1.9435e-05
-3.56073e-05
2.38456e-05
-2.98189e-05
2.75696e-05
-2.42903e-05
3.08685e-05
-2.00814e-05
3.39052e-05
-1.71308e-05
3.67279e-05
-1.49539e-05
3.93016e-05
-1.30108e-05
4.15432e-05
-1.08515e-05
4.33475e-05
-8.14872e-06
4.46049e-05
-4.67563e-06
4.5215e-05
-2.66149e-07
4.51139e-05
5.20135e-06
4.42792e-05
1.18661e-05
4.27238e-05
1.98127e-05
4.05168e-05
2.88328e-05
3.86722e-05
3.83248e-05
3.62648e-05
4.98012e-05
2.53352e-05
5.56971e-05
4.79608e-05
-2.61321e-07
1.05025e-05
3.23576e-06
-2.00655e-05
8.85892e-06
-3.93484e-05
1.46133e-05
-4.43634e-05
1.95797e-05
-4.05736e-05
2.37238e-05
-3.3963e-05
2.7339e-05
-2.79055e-05
3.06833e-05
-2.34258e-05
3.38737e-05
-2.03212e-05
3.69076e-05
-1.79878e-05
3.97122e-05
-1.58153e-05
4.21846e-05
-1.3324e-05
4.42143e-05
-1.01785e-05
4.56945e-05
-6.15573e-06
4.65314e-05
-1.10312e-06
4.66762e-05
5.05656e-06
4.6093e-05
1.24493e-05
4.4816e-05
2.10897e-05
4.26943e-05
3.09545e-05
3.98462e-05
4.11728e-05
3.62673e-05
5.33801e-05
2.70137e-05
6.49507e-05
7.49746e-05
3.60724e-07
1.01418e-05
4.09234e-06
-2.37971e-05
9.62438e-06
-4.48804e-05
1.50727e-05
-4.98117e-05
1.97036e-05
-4.52045e-05
2.36245e-05
-3.78839e-05
2.71861e-05
-3.14671e-05
3.06255e-05
-2.68651e-05
3.4004e-05
-2.36997e-05
3.72676e-05
-2.12514e-05
4.03125e-05
-1.88603e-05
4.30258e-05
-1.60372e-05
4.52984e-05
-1.2451e-05
4.70219e-05
-7.87924e-06
4.81058e-05
-2.18702e-06
4.85092e-05
4.65317e-06
4.8157e-05
1.28015e-05
4.70731e-05
2.21737e-05
4.51848e-05
3.28427e-05
4.21338e-05
4.42238e-05
3.73995e-05
5.81145e-05
2.79042e-05
7.4446e-05
0.000102879
1.89129e-06
-1.89129e-06
-2.62994e-06
4.5211e-06
-1.51596e-05
1.25297e-05
-2.07044e-05
5.54481e-06
-2.92754e-05
8.57103e-06
-3.54607e-05
6.18523e-06
-3.98572e-05
4.39673e-06
-4.29368e-05
3.07968e-06
-4.44499e-05
1.51312e-06
-4.4364e-05
-8.58134e-08
-4.28657e-05
-1.49817e-06
-4.02645e-05
-2.60119e-06
-3.66897e-05
-3.57472e-06
-3.22624e-05
-4.42735e-06
-2.70253e-05
-5.23741e-06
-2.10565e-05
-5.96904e-06
-1.4456e-05
-6.60055e-06
-7.32615e-06
-7.13002e-06
-7.32618e-06
4.12926e-06
-6.02042e-06
8.34331e-07
7.8159e-06
-1.26896e-05
2.60537e-05
-1.94464e-05
1.23015e-05
-2.90915e-05
1.82164e-05
-3.54168e-05
1.25105e-05
-3.95718e-05
8.55188e-06
-4.22025e-05
5.71065e-06
-4.33359e-05
2.64647e-06
-4.29068e-05
-5.14815e-07
-4.10301e-05
-3.37472e-06
-3.77769e-05
-5.85445e-06
-3.34262e-05
-7.92563e-06
-2.83197e-05
-9.53416e-06
-2.28068e-05
-1.07506e-05
-1.71292e-05
-1.1647e-05
-1.14183e-05
-1.23114e-05
-5.66046e-06
-1.28878e-05
-1.29867e-05
2.368e-06
-8.38836e-06
1.48639e-06
8.6974e-06
-1.35626e-05
4.11026e-05
-1.96447e-05
1.83835e-05
-2.9175e-05
2.77469e-05
-3.56058e-05
1.89414e-05
-3.97565e-05
1.27026e-05
-4.26224e-05
8.57669e-06
-4.38962e-05
3.92029e-06
-4.35063e-05
-9.04712e-07
-4.1612e-05
-5.26886e-06
-3.84172e-05
-9.04935e-06
-3.41504e-05
-1.21927e-05
-2.90412e-05
-1.46437e-05
-2.34124e-05
-1.63796e-05
-1.75449e-05
-1.75146e-05
-1.16361e-05
-1.82201e-05
-5.74968e-06
-1.87741e-05
-1.87364e-05
-2.03629e-06
-6.35209e-06
-1.98336e-06
8.64437e-06
-1.71931e-05
5.63123e-05
-2.06923e-05
2.18826e-05
-3.0132e-05
3.71866e-05
-3.67499e-05
2.55593e-05
-4.05637e-05
1.65162e-05
-4.34963e-05
1.15093e-05
-4.47322e-05
5.15619e-06
-4.43454e-05
-1.29149e-06
-4.2351e-05
-7.2631e-06
-3.90809e-05
-1.23196e-05
-3.4783e-05
-1.64909e-05
-2.96811e-05
-1.97458e-05
-2.40546e-05
-2.2006e-05
-1.81398e-05
-2.34293e-05
-1.21039e-05
-2.42557e-05
-6.01463e-06
-2.48633e-05
-2.47511e-05
-5.30152e-06
-1.05066e-06
-5.03417e-06
8.37695e-06
-2.40503e-05
7.53283e-05
-2.24711e-05
2.03034e-05
-3.12866e-05
4.60021e-05
-3.83051e-05
3.25778e-05
-4.17529e-05
1.99637e-05
-4.464e-05
1.43964e-05
-4.60148e-05
6.53112e-06
-4.54741e-05
-1.83222e-06
-4.33166e-05
-9.42058e-06
-3.98824e-05
-1.57538e-05
-3.53969e-05
-2.09767e-05
-3.01881e-05
-2.49545e-05
-2.44639e-05
-2.773e-05
-1.84771e-05
-2.94158e-05
-1.23593e-05
-3.03735e-05
-6.14119e-06
-3.10814e-05
-3.08924e-05
-7.24575e-06
6.19497e-06
-7.91649e-06
9.04765e-06
-3.23101e-05
9.97219e-05
-2.6116e-05
1.41093e-05
-3.26718e-05
5.25578e-05
-4.05732e-05
4.0479e-05
-4.31042e-05
2.24946e-05
-4.59238e-05
1.72159e-05
-4.75796e-05
8.18706e-06
-4.69244e-05
-2.48749e-06
-4.45489e-05
-1.17961e-05
-4.08929e-05
-1.94099e-05
-3.62139e-05
-2.56557e-05
-3.07497e-05
-3.04187e-05
-2.48431e-05
-3.36363e-05
-1.87286e-05
-3.55301e-05
-1.24864e-05
-3.66157e-05
-6.23893e-06
-3.73289e-05
-3.71315e-05
-2.87749e-05
3.49698e-05
-3.07454e-05
1.10181e-05
-5.46469e-05
0.000123623
-2.88143e-05
-1.17233e-05
-3.21826e-05
5.59259e-05
-4.31816e-05
5.14778e-05
-4.45774e-05
2.38903e-05
-4.72773e-05
1.99157e-05
-4.92902e-05
1.02001e-05
-4.85612e-05
-3.21653e-06
-4.5974e-05
-1.43834e-05
-4.21103e-05
-2.32738e-05
-3.71714e-05
-3.05946e-05
-3.14256e-05
-3.61643e-05
-2.52751e-05
-3.97866e-05
-1.89514e-05
-4.18537e-05
-1.26715e-05
-4.28956e-05
-6.30863e-06
-4.36919e-05
-4.34402e-05
-6.59349e-05
0.000100905
-5.44191e-05
-4.97505e-07
-7.42048e-05
0.000143409
-3.32489e-05
-5.26792e-05
-3.21052e-05
5.47822e-05
-4.75568e-05
6.69293e-05
-4.62802e-05
2.26137e-05
-4.82485e-05
2.18839e-05
-5.13244e-05
1.3276e-05
-5.01073e-05
-4.43365e-06
-4.72165e-05
-1.72744e-05
-4.33624e-05
-2.71279e-05
-3.82918e-05
-3.56651e-05
-3.22159e-05
-4.22401e-05
-2.57657e-05
-4.62367e-05
-1.92854e-05
-4.8334e-05
-1.28367e-05
-4.93443e-05
-6.38397e-06
-5.01447e-05
-4.98242e-05
3.01643e-06
7.12533e-06
1.17547e-05
-3.25354e-05
2.29429e-05
-5.60687e-05
3.33198e-05
-6.01886e-05
4.20628e-05
-5.39476e-05
4.98407e-05
-4.56618e-05
5.7437e-05
-3.90634e-05
6.51633e-05
-3.45914e-05
7.29386e-05
-3.1475e-05
8.05124e-05
-2.88251e-05
8.76171e-05
-2.5965e-05
9.40347e-05
-2.24549e-05
9.95976e-05
-1.80139e-05
0.000104114
-1.23953e-05
0.000107335
-5.40867e-06
0.000109331
2.65744e-06
0.000109671
1.24618e-05
0.000108327
2.35173e-05
0.000105316
3.58535e-05
0.000100333
4.92069e-05
9.36073e-05
6.48404e-05
8.70428e-05
8.10105e-05
0.00011088
7.90418e-05
6.90451e-06
2.20827e-07
1.72475e-05
-4.28784e-05
2.68511e-05
-6.56723e-05
3.48163e-05
-6.81538e-05
4.1907e-05
-6.10382e-05
4.91468e-05
-5.29016e-05
5.69816e-05
-4.68982e-05
6.52991e-05
-4.29089e-05
7.37433e-05
-3.99192e-05
8.19465e-05
-3.70283e-05
8.96238e-05
-3.36423e-05
9.65968e-05
-2.94279e-05
0.000102812
-2.42289e-05
0.000108387
-1.79708e-05
0.000113407
-1.04286e-05
0.000116448
-3.8346e-07
0.000118677
1.02326e-05
0.000119343
2.28512e-05
0.000118638
3.65594e-05
0.000117103
5.07416e-05
0.000116131
6.58125e-05
0.000116417
8.07242e-05
0.000104294
0.000123003
1.30799e-05
-1.28591e-05
2.72999e-05
-5.70984e-05
3.41705e-05
-7.25429e-05
3.76318e-05
-7.16151e-05
4.23518e-05
-6.57582e-05
4.94152e-05
-5.9965e-05
5.80507e-05
-5.55337e-05
6.73602e-05
-5.22184e-05
7.67475e-05
-4.93065e-05
8.58458e-05
-4.61267e-05
9.44118e-05
-4.22083e-05
0.000102254
-3.72699e-05
0.000109105
-3.10799e-05
0.000114648
-2.35141e-05
0.000118845
-1.46256e-05
0.000123385
-4.92375e-06
0.000126532
7.0862e-06
0.000127831
2.15517e-05
0.000128493
3.58981e-05
0.000129241
4.99929e-05
0.000130904
6.415e-05
0.00013297
7.86584e-05
9.43218e-05
0.000142942
2.31284e-05
-3.59875e-05
4.39234e-05
-7.78933e-05
4.61542e-05
-7.47738e-05
4.28424e-05
-6.83032e-05
4.47605e-05
-6.76763e-05
5.2175e-05
-6.73795e-05
6.20575e-05
-6.54162e-05
7.25834e-05
-6.27443e-05
8.31149e-05
-5.98379e-05
9.35227e-05
-5.65345e-05
0.00010388
-5.25658e-05
0.000114233
-4.76227e-05
0.000124466
-4.13128e-05
0.000134577
-3.36252e-05
0.000144204
-2.42525e-05
0.000152304
-1.3024e-05
0.000155784
3.60597e-06
0.000154949
2.2387e-05
0.000151972
3.8875e-05
0.000148937
5.30278e-05
0.00014702
6.60672e-05
0.000146976
7.87023e-05
8.92972e-05
0.000152001
3.2855e-05
-6.88425e-05
5.68494e-05
-0.000101888
5.4035e-05
-7.19594e-05
4.5669e-05
-5.99372e-05
4.39716e-05
-6.59789e-05
4.97021e-05
-7.311e-05
5.75836e-05
-7.32978e-05
6.55307e-05
-7.06914e-05
7.29757e-05
-6.7283e-05
7.97811e-05
-6.33399e-05
8.53821e-05
-5.81668e-05
8.76256e-05
-4.98662e-05
9.08418e-05
-4.4529e-05
0.000101877
-4.46605e-05
0.00012136
-4.3735e-05
0.000146922
-3.85865e-05
0.000168935
-1.84065e-05
0.000180426
1.0896e-05
0.000180168
3.91323e-05
0.000176171
5.70252e-05
0.000171802
7.04356e-05
0.000167351
8.3154e-05
9.02748e-05
0.000166373
3.71132e-05
-0.000105956
3.12112e-05
-9.59857e-05
2.91872e-05
-6.99354e-05
2.5176e-05
-5.5926e-05
2.08211e-05
-6.1624e-05
1.70446e-05
-6.93335e-05
1.45933e-05
-7.08465e-05
1.25143e-05
-6.86124e-05
1.12356e-05
-6.60041e-05
1.25019e-05
-6.46062e-05
1.88182e-05
-6.4483e-05
3.19591e-05
-6.30071e-05
4.66492e-05
-5.92191e-05
5.82048e-05
-5.62161e-05
7.51412e-05
-6.06714e-05
9.9038e-05
-6.24832e-05
0.000134044
-5.34123e-05
0.000165689
-2.0749e-05
0.000185635
1.91863e-05
0.000189089
5.3571e-05
0.000181299
7.82253e-05
0.000172215
9.22387e-05
8.84251e-05
0.000174064
-2.00741e-05
-8.58816e-05
-1.99292e-05
-9.61305e-05
-1.43481e-05
-7.55165e-05
-4.56173e-07
-6.9818e-05
5.79901e-06
-6.78792e-05
5.82478e-06
-6.93593e-05
4.39697e-06
-6.94187e-05
3.76195e-06
-6.79773e-05
5.0049e-06
-6.7247e-05
9.25127e-06
-6.88525e-05
1.71481e-05
-7.23798e-05
2.81768e-05
-7.40358e-05
3.83253e-05
-6.93676e-05
4.66488e-05
-6.45396e-05
6.54237e-05
-7.94462e-05
9.44199e-05
-9.14794e-05
0.000127648
-8.66402e-05
0.000166367
-5.94684e-05
0.000202894
-1.73407e-05
0.000222568
3.38973e-05
0.000224133
7.66598e-05
0.000211072
0.0001053
0.000110159
0.000189339
-2.08946e-05
-6.49869e-05
-1.95791e-05
-9.74461e-05
-9.25716e-06
-8.58385e-05
-2.55026e-06
-7.65249e-05
1.73084e-06
-7.21603e-05
3.71769e-06
-7.13461e-05
4.66104e-06
-7.03619e-05
5.70633e-06
-6.90225e-05
7.63866e-06
-6.91793e-05
1.09002e-05
-7.2114e-05
1.55414e-05
-7.7021e-05
2.16601e-05
-8.01545e-05
2.73131e-05
-7.50207e-05
3.42684e-05
-7.14949e-05
5.25647e-05
-9.77426e-05
7.78694e-05
-0.000116784
0.000106319
-0.000115089
0.000139377
-9.2527e-05
0.000173369
-5.13326e-05
0.000203793
3.47308e-06
0.000215389
6.50646e-05
0.000208514
0.000112174
0.000127845
0.000190828
-7.19283e-06
-5.77941e-05
-5.85833e-06
-9.87805e-05
-3.32077e-06
-8.83761e-05
-6.06441e-07
-7.92393e-05
2.54774e-06
-7.53145e-05
5.04714e-06
-7.38455e-05
6.96419e-06
-7.22789e-05
8.5566e-06
-7.06148e-05
9.97609e-06
-7.05987e-05
1.12359e-05
-7.33738e-05
1.24155e-05
-7.82006e-05
1.46182e-05
-8.23571e-05
1.90366e-05
-7.94391e-05
2.80021e-05
-8.04602e-05
3.184e-05
-0.00010158
3.64984e-05
-0.000121443
4.73429e-05
-0.000125934
6.76545e-05
-0.000112839
9.57554e-05
-7.94335e-05
0.000119352
-2.01238e-05
0.000135407
4.90097e-05
0.000145978
0.000101604
0.000125312
0.00014851
-1.07233e-06
-5.67218e-05
-1.72792e-06
-9.8125e-05
-7.20978e-07
-8.93831e-05
1.40626e-06
-8.13665e-05
4.09799e-06
-7.80062e-05
6.66205e-06
-7.64095e-05
9.00826e-06
-7.46251e-05
1.11085e-05
-7.2715e-05
1.26369e-05
-7.21271e-05
1.32718e-05
-7.40086e-05
1.30221e-05
-7.7951e-05
1.30038e-05
-8.23388e-05
1.61429e-05
-8.25782e-05
2.01747e-05
-8.4492e-05
1.41855e-05
-9.55912e-05
5.78556e-06
-0.000113043
-2.53383e-06
-0.000117614
-9.57381e-06
-0.000105799
-6.88906e-06
-8.21182e-05
9.06505e-06
-3.60779e-05
3.15497e-05
2.65251e-05
5.53013e-05
7.78525e-05
0.000104131
7.64823e-05
1.21222e-06
-5.7934e-05
9.16398e-07
-9.78292e-05
1.64661e-06
-9.01133e-05
3.40458e-06
-8.31245e-05
5.85512e-06
-8.04567e-05
8.44533e-06
-7.89997e-05
1.11602e-05
-7.73399e-05
1.39411e-05
-7.54958e-05
1.6298e-05
-7.44839e-05
1.76461e-05
-7.53568e-05
1.77818e-05
-7.80866e-05
1.72046e-05
-8.17616e-05
1.85183e-05
-8.38919e-05
2.03104e-05
-8.62841e-05
1.63441e-05
-9.16249e-05
3.73927e-06
-0.000100438
-1.00938e-05
-0.000103781
-2.14648e-05
-9.44275e-05
-3.23629e-05
-7.12202e-05
-3.47789e-05
-3.36619e-05
-1.59266e-05
7.67277e-06
2.05216e-05
4.14044e-05
5.38738e-05
7.07793e-05
2.30596e-06
-6.024e-05
2.62699e-06
-9.81502e-05
3.37775e-06
-9.0864e-05
5.12788e-06
-8.48746e-05
7.46457e-06
-8.27934e-05
1.00779e-05
-8.1613e-05
1.30097e-05
-8.02716e-05
1.62726e-05
-7.87586e-05
1.9475e-05
-7.76863e-05
2.1967e-05
-7.78488e-05
2.33459e-05
-7.94655e-05
2.36185e-05
-8.20342e-05
2.42592e-05
-8.45326e-05
2.49376e-05
-8.69625e-05
2.28384e-05
-8.95257e-05
1.45692e-05
-9.21683e-05
2.70285e-06
-9.1915e-05
-3.53478e-06
-8.81899e-05
-4.23921e-07
-7.4331e-05
1.07656e-05
-4.48514e-05
3.16031e-05
-1.31647e-05
6.1394e-05
1.16135e-05
2.54499e-05
8.98179e-05
2.80607e-06
-6.3046e-05
3.60406e-06
-9.89481e-05
4.64017e-06
-9.19001e-05
6.47835e-06
-8.67127e-05
8.78515e-06
-8.51001e-05
1.13715e-05
-8.41992e-05
1.42947e-05
-8.31948e-05
1.76301e-05
-8.2094e-05
2.11596e-05
-8.12158e-05
2.43479e-05
-8.10371e-05
2.67027e-05
-8.18202e-05
2.7989e-05
-8.33205e-05
2.84754e-05
-8.5019e-05
2.79658e-05
-8.64529e-05
2.56624e-05
-8.72223e-05
2.03064e-05
-8.68123e-05
1.21819e-05
-8.37905e-05
1.39469e-06
-7.74027e-05
-7.18283e-06
-6.57535e-05
-5.27211e-06
-4.67621e-05
7.09769e-06
-2.55345e-05
2.50577e-05
-6.34656e-06
6.59171e-06
4.39159e-05
2.99422e-06
-6.60402e-05
4.19162e-06
-0.000100145
5.54441e-06
-9.32528e-05
7.50999e-06
-8.86782e-05
9.83293e-06
-8.7423e-05
1.23801e-05
-8.67464e-05
1.51771e-05
-8.59918e-05
1.82879e-05
-8.52049e-05
2.16189e-05
-8.45468e-05
2.48247e-05
-8.42429e-05
2.74596e-05
-8.44552e-05
2.92042e-05
-8.50651e-05
2.99148e-05
-8.57296e-05
2.9459e-05
-8.59971e-05
2.77175e-05
-8.54807e-05
2.45675e-05
-8.36623e-05
2.05071e-05
-7.973e-05
1.60378e-05
-7.29333e-05
1.306e-05
-6.27757e-05
1.53991e-05
-4.91011e-05
2.39067e-05
-3.40421e-05
3.76433e-05
-2.00831e-05
-9.16198e-06
5.3397e-05
2.99585e-06
-6.9036e-05
4.56138e-06
-0.000101711
6.20197e-06
-9.48934e-05
8.29885e-06
-9.07751e-05
1.06596e-05
-8.97838e-05
1.3186e-05
-8.92727e-05
1.58685e-05
-8.86743e-05
1.87228e-05
-8.80592e-05
2.17006e-05
-8.75246e-05
2.46099e-05
-8.71522e-05
2.7142e-05
-8.69874e-05
2.90286e-05
-8.69517e-05
3.01199e-05
-8.68209e-05
3.03791e-05
-8.62563e-05
2.9837e-05
-8.49386e-05
2.8638e-05
-8.24632e-05
2.7268e-05
-7.83599e-05
2.64968e-05
-7.21621e-05
2.74326e-05
-6.37114e-05
3.16006e-05
-5.3269e-05
3.95274e-05
-4.19688e-05
5.06688e-05
-3.12245e-05
-2.20941e-05
6.3601e-05
2.95337e-06
-7.19894e-05
4.81329e-06
-0.000103571
6.68738e-06
-9.67674e-05
8.9036e-06
-9.29913e-05
1.13163e-05
-9.21965e-05
1.38516e-05
-9.18081e-05
1.6488e-05
-9.13107e-05
1.92067e-05
-9.07779e-05
2.19623e-05
-9.02802e-05
2.46483e-05
-8.98382e-05
2.70964e-05
-8.94356e-05
2.91427e-05
-8.89979e-05
3.06932e-05
-8.83714e-05
3.17609e-05
-8.73239e-05
3.2415e-05
-8.55927e-05
3.28426e-05
-8.28907e-05
3.34193e-05
-7.89365e-05
3.47553e-05
-7.3498e-05
3.75986e-05
-6.65547e-05
4.27159e-05
-5.83862e-05
5.04135e-05
-4.96664e-05
6.03957e-05
-4.12066e-05
-3.35647e-05
7.18663e-05
2.91555e-06
-7.49049e-05
4.99619e-06
-0.000105651
7.05208e-06
-9.88233e-05
9.37414e-06
-9.53134e-05
1.18459e-05
-9.46683e-05
1.4411e-05
-9.43733e-05
1.70538e-05
-9.39535e-05
1.97497e-05
-9.34739e-05
2.24555e-05
-9.2986e-05
2.51071e-05
-9.24898e-05
2.76229e-05
-9.19513e-05
2.99243e-05
-9.12993e-05
3.19689e-05
-9.04159e-05
3.37827e-05
-8.91376e-05
3.54652e-05
-8.72751e-05
3.72058e-05
-8.46312e-05
3.92979e-05
-8.10286e-05
4.2158e-05
-7.63581e-05
4.62601e-05
-7.06566e-05
5.20282e-05
-6.41543e-05
5.96454e-05
-5.72835e-05
6.89637e-05
-5.05249e-05
-4.41519e-05
7.9551e-05
2.89802e-06
-7.78029e-05
5.13685e-06
-0.00010789
7.33026e-06
-0.000101017
9.744e-06
-9.77272e-05
1.22766e-05
-9.72009e-05
1.48826e-05
-9.69793e-05
1.75561e-05
-9.66271e-05
2.02829e-05
-9.62008e-05
2.30329e-05
-9.57359e-05
2.57668e-05
-9.52237e-05
2.84441e-05
-9.46286e-05
3.10338e-05
-9.38888e-05
3.35307e-05
-9.29127e-05
3.59761e-05
-9.1583e-05
3.84687e-05
-8.97677e-05
4.11725e-05
-8.7335e-05
4.43204e-05
-8.41764e-05
4.82052e-05
-8.02429e-05
5.31365e-05
-7.55878e-05
5.93696e-05
-7.03874e-05
6.7021e-05
-6.4935e-05
7.60168e-05
-5.95207e-05
-5.42319e-05
8.60969e-05
2.90346e-06
-8.07064e-05
5.24872e-06
-0.000110236
7.54366e-06
-0.000103312
1.00347e-05
-0.000100218
1.26263e-05
-9.97926e-05
1.52794e-05
-9.96324e-05
1.79957e-05
-9.93434e-05
2.07724e-05
-9.89775e-05
2.35956e-05
-9.85592e-05
2.64462e-05
-9.80742e-05
2.93072e-05
-9.74895e-05
3.21729e-05
-9.67545e-05
3.50611e-05
-9.58008e-05
3.80235e-05
-9.45453e-05
4.11531e-05
-9.28973e-05
4.45883e-05
-9.07702e-05
4.85123e-05
-8.81004e-05
5.31393e-05
-8.48699e-05
5.86811e-05
-8.11296e-05
6.53029e-05
-7.70092e-05
7.30813e-05
-7.27134e-05
8.19739e-05
-6.84132e-05
-6.40812e-05
9.18232e-05
2.92733e-06
-8.36338e-05
5.33757e-06
-0.000112646
7.70548e-06
-0.00010568
1.02601e-05
-0.000102773
1.29053e-05
-0.000102438
1.56072e-05
-0.000102334
1.83733e-05
-0.00010211
2.12087e-05
-0.000101813
2.41125e-05
-0.000101463
2.70823e-05
-0.000101044
3.0119e-05
-0.000100526
3.3234e-05
-9.98694e-05
3.6457e-05
-9.90237e-05
3.98433e-05
-9.79316e-05
4.34787e-05
-9.65327e-05
4.74808e-05
-9.47722e-05
5.19932e-05
-9.26129e-05
5.71737e-05
-9.00503e-05
6.31714e-05
-8.71274e-05
7.01018e-05
-8.39396e-05
7.80243e-05
-8.06359e-05
8.6918e-05
-7.73069e-05
-7.38529e-05
9.66898e-05
2.96285e-06
-8.65967e-05
5.4048e-06
-0.000115088
7.82215e-06
-0.000108097
1.04268e-05
-0.000105378
1.31171e-05
-0.000105128
1.58644e-05
-0.000105082
1.86808e-05
-0.000104926
2.15778e-05
-0.00010471
2.45632e-05
-0.000104449
2.76462e-05
-0.000104127
3.08404e-05
-0.00010372
3.41684e-05
-0.000103197
3.76669e-05
-0.000102522
4.13914e-05
-0.000101656
4.54189e-05
-0.00010056
4.98481e-05
-9.92015e-05
5.47945e-05
-9.75593e-05
6.03796e-05
-9.56356e-05
6.67163e-05
-9.34642e-05
7.38941e-05
-9.11176e-05
8.1966e-05
-8.87078e-05
9.09273e-05
-8.62683e-05
-8.36547e-05
0.000100729
3.00284e-06
-8.95996e-05
5.44846e-06
-0.000117534
7.89579e-06
-0.000110545
1.05368e-05
-0.000108019
1.32614e-05
-0.000107853
1.60458e-05
-0.000107866
1.89064e-05
-0.000107787
2.18593e-05
-0.000107663
2.49188e-05
-0.000107508
2.81012e-05
-0.000107309
3.14279e-05
-0.000107047
3.49281e-05
-0.000106698
3.86423e-05
-0.000106236
4.26244e-05
-0.000105638
4.6944e-05
-0.00010488
5.1686e-05
-0.000103943
5.69459e-05
-0.000102819
6.28225e-05
-0.000101512
6.94077e-05
-0.00010005
7.67782e-05
-9.84882e-05
8.49863e-05
-9.69159e-05
9.40432e-05
-9.53252e-05
-9.35482e-05
0.000103937
3.04021e-06
-9.26398e-05
5.46578e-06
-0.000119959
7.92714e-06
-0.000113006
1.05901e-05
-0.000110682
1.33363e-05
-0.000110599
1.61458e-05
-0.000110676
1.90387e-05
-0.000110679
2.20349e-05
-0.000110659
2.51528e-05
-0.000110626
2.84135e-05
-0.00011057
3.18426e-05
-0.000110476
3.54731e-05
-0.000110328
3.93463e-05
-0.00011011
4.35142e-05
-0.000109806
4.80401e-05
-0.000109406
5.29986e-05
-0.000108902
5.84722e-05
-0.000108293
6.45457e-05
-0.000107586
7.12993e-05
-0.000106803
7.88047e-05
-0.000105994
8.71179e-05
-0.000105229
9.62673e-05
-0.000104475
-0.000103557
0.000106276
3.06804e-06
-9.57079e-05
5.45552e-06
-0.000122347
7.91744e-06
-0.000115468
1.0587e-05
-0.000113351
1.33401e-05
-0.000113352
1.616e-05
-0.000113496
1.90698e-05
-0.000113589
2.20919e-05
-0.000113681
2.52476e-05
-0.000113782
2.85605e-05
-0.000113883
3.20588e-05
-0.000113975
3.57768e-05
-0.000114046
3.97555e-05
-0.000114089
4.40442e-05
-0.000114095
4.8701e-05
-0.000114063
5.37928e-05
-0.000113994
5.93932e-05
-0.000113894
6.55785e-05
-0.000113772
7.24236e-05
-0.000113648
7.99994e-05
-0.00011357
8.83692e-05
-0.000113599
9.75816e-05
-0.000113687
-0.000113668
0.000107692
3.08101e-06
-9.87889e-05
5.42001e-06
-0.000124686
7.87027e-06
-0.000117918
1.05304e-05
-0.000116011
1.32736e-05
-0.000116095
1.60869e-05
-0.000116309
1.89955e-05
-0.000116498
2.20231e-05
-0.000116709
2.51924e-05
-0.000116951
2.85285e-05
-0.000117219
3.20608e-05
-0.000117507
3.58234e-05
-0.000117809
3.98563e-05
-0.000118121
4.42059e-05
-0.000118445
4.89255e-05
-0.000118783
5.40758e-05
-0.000119144
5.9724e-05
-0.000119542
6.59411e-05
-0.000119989
7.27998e-05
-0.000120507
8.03729e-05
-0.000121143
8.87326e-05
-0.000121959
9.79511e-05
-0.000122906
-0.000123829
0.000108112
3.07758e-06
-0.000101867
5.36483e-06
-0.000126973
7.79131e-06
-0.000120345
1.04253e-05
-0.000118645
1.31407e-05
-0.000118811
1.59288e-05
-0.000119097
1.8816e-05
-0.000119385
2.18263e-05
-0.000119719
2.49828e-05
-0.000120108
2.83113e-05
-0.000120548
3.18412e-05
-0.000121037
3.56058e-05
-0.000121574
3.96433e-05
-0.000122159
4.39972e-05
-0.000122798
4.87164e-05
-0.000123502
5.38561e-05
-0.000124284
5.94778e-05
-0.000125164
6.56487e-05
-0.00012616
7.24397e-05
-0.000127298
7.99258e-05
-0.000128629
8.81882e-05
-0.000130221
9.7323e-05
-0.00013204
-0.000133944
0.000107438
3.06096e-06
-0.000104928
5.2962e-06
-0.000129208
7.68563e-06
-0.000122734
1.02759e-05
-0.000121236
1.29455e-05
-0.00012148
1.56898e-05
-0.000121841
1.85348e-05
-0.00012223
2.1504e-05
-0.000122688
2.46207e-05
-0.000123224
2.79103e-05
-0.000123837
3.14015e-05
-0.000124528
3.51263e-05
-0.000125298
3.91208e-05
-0.000126154
4.34252e-05
-0.000127103
4.80844e-05
-0.000128161
5.31484e-05
-0.000129348
5.86728e-05
-0.000130688
6.47202e-05
-0.000132207
7.13591e-05
-0.000133937
7.86641e-05
-0.000135934
8.67217e-05
-0.000138279
9.56465e-05
-0.000140965
-0.000143862
0.000105565
3.03757e-06
-0.000107965
5.21719e-06
-0.000131388
7.55389e-06
-0.000125071
1.0083e-05
-0.000123765
1.26896e-05
-0.000124087
1.53719e-05
-0.000124524
1.81547e-05
-0.000125013
2.10605e-05
-0.000125594
2.41115e-05
-0.000126275
2.73326e-05
-0.000127059
3.07511e-05
-0.000127947
3.43973e-05
-0.000128945
3.83047e-05
-0.000130061
4.25104e-05
-0.000131309
4.70549e-05
-0.000132706
5.19825e-05
-0.000134276
5.73429e-05
-0.000136049
6.31925e-05
-0.000138057
6.95945e-05
-0.000140339
7.66194e-05
-0.000142959
8.43524e-05
-0.000146012
9.29163e-05
-0.000149529
-0.000153392
0.000102445
3.01353e-06
-0.000110979
5.12489e-06
-0.0001335
7.39033e-06
-0.000127336
9.84199e-06
-0.000126216
1.23695e-05
-0.000126614
1.49733e-05
-0.000127127
1.76759e-05
-0.000127715
2.04982e-05
-0.000128416
2.34614e-05
-0.000129239
2.65887e-05
-0.000130186
2.99058e-05
-0.000131264
3.34406e-05
-0.00013248
3.72239e-05
-0.000133844
4.12889e-05
-0.000135374
4.56716e-05
-0.000137089
5.04106e-05
-0.000139015
5.55487e-05
-0.000141187
6.11341e-05
-0.000143642
6.72221e-05
-0.000146428
7.3874e-05
-0.000149611
8.11661e-05
-0.000153304
8.92161e-05
-0.000157579
-0.000162332
9.81566e-05
2.99148e-06
-0.00011397
5.01018e-06
-0.000135518
7.18456e-06
-0.000129511
9.54376e-06
-0.000128576
1.19776e-05
-0.000129048
1.44873e-05
-0.000129637
1.70938e-05
-0.000130322
1.98161e-05
-0.000131139
2.26739e-05
-0.000132096
2.56883e-05
-0.0001332
2.88826e-05
-0.000134458
3.22821e-05
-0.000135879
3.59139e-05
-0.000137476
3.98073e-05
-0.000139267
4.39934e-05
-0.000141275
4.85049e-05
-0.000143527
5.3377e-05
-0.000146059
5.86484e-05
-0.000148914
6.43633e-05
-0.000152142
7.05697e-05
-0.000155817
7.7326e-05
-0.00016006
8.47304e-05
-0.000164984
-0.000170505
9.29037e-05
2.96987e-06
-0.00011694
4.86061e-06
-0.000137409
6.92485e-06
-0.000131575
9.17737e-06
-0.000130828
1.15029e-05
-0.000131373
1.39036e-05
-0.000132038
1.63992e-05
-0.000132817
1.90071e-05
-0.000133747
2.1745e-05
-0.000134834
2.46319e-05
-0.000136087
2.76882e-05
-0.000137514
3.0936e-05
-0.000139127
3.4399e-05
-0.000140939
3.8102e-05
-0.00014297
4.20711e-05
-0.000145244
4.63331e-05
-0.000147789
5.09153e-05
-0.000150641
5.58464e-05
-0.000153845
6.11575e-05
-0.000157453
6.688e-05
-0.00016154
7.30477e-05
-0.000166228
7.97229e-05
-0.000171659
-0.000177784
8.70014e-05
2.94499e-06
-0.000119885
4.66427e-06
-0.000139128
6.60004e-06
-0.000133511
8.73112e-06
-0.000132959
1.09322e-05
-0.000133575
1.32073e-05
-0.000134313
1.55755e-05
-0.000135186
1.80528e-05
-0.000136224
2.06551e-05
-0.000137437
2.33991e-05
-0.000138831
2.63028e-05
-0.000140418
2.93851e-05
-0.000142209
3.26661e-05
-0.00014422
3.61669e-05
-0.000146471
3.99088e-05
-0.000148986
4.3913e-05
-0.000151793
4.81995e-05
-0.000154928
5.27872e-05
-0.000158433
5.76947e-05
-0.000162361
6.29367e-05
-0.000166782
6.85187e-05
-0.00017181
7.44558e-05
-0.000177596
-0.000184129
8.08009e-05
2.91297e-06
-0.000122798
4.41172e-06
-0.000140627
6.19969e-06
-0.000135299
8.19202e-06
-0.000134951
1.02486e-05
-0.000135631
1.2377e-05
-0.000136441
1.4596e-05
-0.000137405
1.69203e-05
-0.000138548
1.93645e-05
-0.000139881
2.19433e-05
-0.00014141
2.46726e-05
-0.000143147
2.75688e-05
-0.000145105
3.06492e-05
-0.000147301
3.39317e-05
-0.000149753
3.74341e-05
-0.000152488
4.11728e-05
-0.000155532
4.51622e-05
-0.000158917
4.94139e-05
-0.000162684
5.39369e-05
-0.000166884
5.87322e-05
-0.000171577
6.37816e-05
-0.000176859
6.90534e-05
-0.000182868
-0.000189622
7.45461e-05
2.869e-06
-0.000125667
4.09615e-06
-0.000141854
5.71492e-06
-0.000136917
7.54638e-06
-0.000136783
9.43272e-06
-0.000137517
1.13874e-05
-0.000138396
1.34283e-05
-0.000139446
1.55693e-05
-0.000140689
1.78234e-05
-0.000142135
2.0204e-05
-0.000143791
2.2725e-05
-0.000145668
2.5401e-05
-0.000147781
2.82475e-05
-0.000150147
3.12804e-05
-0.000152786
3.4515e-05
-0.000155722
3.79649e-05
-0.000158982
4.16412e-05
-0.000162593
4.55523e-05
-0.000166595
4.97017e-05
-0.000171033
5.40831e-05
-0.000175958
5.86668e-05
-0.000181443
6.3391e-05
-0.000187592
-0.000194439
6.82086e-05
2.80464e-06
-0.000128472
3.71418e-06
-0.000142764
5.1425e-06
-0.000138346
6.78598e-06
-0.000138426
8.47307e-06
-0.000139205
1.02233e-05
-0.000140146
1.20537e-05
-0.000141276
1.39761e-05
-0.000142612
1.60021e-05
-0.000144161
1.81432e-05
-0.000145932
2.04119e-05
-0.000147937
2.28218e-05
-0.000150191
2.53872e-05
-0.000152712
2.81226e-05
-0.000155522
3.10419e-05
-0.000158642
3.41575e-05
-0.000162097
3.74798e-05
-0.000165916
4.10163e-05
-0.000170132
4.47697e-05
-0.000174786
4.87328e-05
-0.000179922
5.28786e-05
-0.000185589
5.71418e-05
-0.000191855
-0.000198758
6.14605e-05
2.70511e-06
-0.000131177
3.26927e-06
-0.000143328
4.4917e-06
-0.000139568
5.91994e-06
-0.000139855
7.38211e-06
-0.000140667
8.90083e-06
-0.000141665
1.04909e-05
-0.000142866
1.21618e-05
-0.000144283
1.3923e-05
-0.000145922
1.57847e-05
-0.000147794
1.77584e-05
-0.00014991
1.98567e-05
-0.000152289
2.20925e-05
-0.000154948
2.44787e-05
-0.000157908
2.70283e-05
-0.000161191
2.97533e-05
-0.000164822
3.2664e-05
-0.000168826
3.57679e-05
-0.000173236
3.90686e-05
-0.000178087
4.25627e-05
-0.000183416
4.62328e-05
-0.000189259
5.0031e-05
-0.000195653
-0.000202637
5.39098e-05
2.54928e-06
-0.000133726
2.77531e-06
-0.000143554
3.78783e-06
-0.000140581
4.9811e-06
-0.000141048
6.20216e-06
-0.000141888
7.47143e-06
-0.000142934
8.80073e-06
-0.000144195
1.01974e-05
-0.000145679
1.16693e-05
-0.000147394
1.32255e-05
-0.00014935
1.48762e-05
-0.000151561
1.66323e-05
-0.000154045
1.85045e-05
-0.00015682
2.05042e-05
-0.000159907
2.26431e-05
-0.00016333
2.49324e-05
-0.000167111
2.73812e-05
-0.000171275
2.99966e-05
-0.000175851