/*--------------------------------*- C++ -*----------------------------------*\
| =========                 |                                                 |
| \\      /  F ield         | OpenFOAM: The Open Source CFD Toolbox           |
|  \\    /   O peration     | Version:  2012                                  |
|   \\  /    A nd           | Website:  www.openfoam.com                      |
|    \\/     M anipulation  |                                                 |
\*---------------------------------------------------------------------------*/
FoamFile
{
    version     2.0;
    format      ascii;
    class       volScalarField;
    location    "0.73";
    object      maxKappa;
}
// * * * * * * * * * * * * * * * * * * * * * * * * * * * * * * * * * * * * * //

dimensions      [0 0 0 0 0 0 0];


internalField   nonuniform List<scalar> 
2268
(
6.70191e-07
1.256e-06
1.91024e-06
2.65924e-06
3.41497e-06
4.06916e-06
4.70936e-06
5.39829e-06
5.97179e-06
6.48435e-06
6.90748e-06
7.21251e-06
7.3335e-06
7.3335e-06
7.33222e-06
7.2077e-06
7.0163e-06
6.62253e-06
6.01291e-06
5.1409e-06
3.83629e-06
2.64035e-06
1.58194e-06
8.4384e-07
1.35791e-06
1.99263e-06
2.71635e-06
3.44593e-06
4.09255e-06
4.73989e-06
5.42466e-06
5.98371e-06
6.49931e-06
6.92736e-06
7.2299e-06
7.36251e-06
7.37417e-06
7.37417e-06
7.25504e-06
7.0614e-06
6.67653e-06
6.09424e-06
5.28809e-06
4.0887e-06
3.06166e-06
1.5739e-06
1.00351e-06
1.44037e-06
2.04587e-06
2.74365e-06
3.46258e-06
4.13931e-06
4.83243e-06
5.52827e-06
6.08829e-06
6.5976e-06
6.99619e-06
7.27432e-06
7.39283e-06
7.41048e-06
7.41048e-06
7.29528e-06
7.10973e-06
6.72895e-06
6.16061e-06
5.40606e-06
4.25799e-06
3.42389e-06
2.32479e-06
1.29334e-06
1.66471e-06
2.2596e-06
2.9196e-06
3.57634e-06
4.22496e-06
4.91154e-06
5.58037e-06
6.1311e-06
6.64523e-06
7.05782e-06
7.3735e-06
7.52827e-06
7.55922e-06
7.55922e-06
7.43858e-06
7.26457e-06
6.93863e-06
6.43745e-06
5.78637e-06
4.69801e-06
3.97466e-06
2.57134e-06
1.48433e-06
1.79187e-06
2.35271e-06
2.97928e-06
3.61746e-06
4.32017e-06
5.08479e-06
5.77515e-06
6.33373e-06
6.8316e-06
7.19614e-06
7.47209e-06
7.58981e-06
7.61384e-06
7.61384e-06
7.50028e-06
7.36579e-06
7.08333e-06
6.66215e-06
6.13185e-06
5.22359e-06
4.89521e-06
3.89977e-06
1.79565e-06
2.0987e-06
2.66768e-06
3.26578e-06
3.83561e-06
4.4905e-06
5.20879e-06
5.83752e-06
6.38828e-06
6.91774e-06
7.33205e-06
7.66848e-06
7.82154e-06
7.84143e-06
7.84143e-06
7.71839e-06
7.62462e-06
7.42679e-06
7.1186e-06
6.71656e-06
5.94348e-06
5.93101e-06
4.41416e-06
2.00928e-06
2.26845e-06
2.77136e-06
3.31107e-06
3.86836e-06
4.613e-06
5.44725e-06
6.13531e-06
6.69874e-06
7.18577e-06
7.52442e-06
7.80084e-06
7.9013e-06
7.90564e-06
7.90564e-06
7.80311e-06
7.7829e-06
7.65365e-06
7.47963e-06
7.23002e-06
7.39845e-06
7.39845e-06
5.97691e-06
3.60911e-06
3.57558e-06
3.78716e-06
4.12343e-06
4.3265e-06
4.8986e-06
5.66559e-06
6.28817e-06
6.83961e-06
7.33284e-06
7.74451e-06
8.10985e-06
8.21422e-06
8.21422e-06
8.16233e-06
8.09926e-06
8.09926e-06
8.0661e-06
8.0524e-06
7.97414e-06
9.25563e-06
9.25563e-06
6.50136e-06
0.000287437
0.000287437
0.000219252
0.000223411
0.000223411
0.000205383
0.000176868
0.000209288
0.000415171
0.000415171
0.000390738
0.000368119
0.000369295
0.000371601
0.000379931
0.000400583
0.000403339
0.000403339
0.000292259
0.000275682
0.000275682
0.00018476
0.000182488
0.000182488
0.000162619
0.000149672
0.000207334
0.000395864
0.000449695
0.000449695
0.000412212
0.00038927
0.000469533
0.000692118
0.000835251
0.000835251
0.000703238
0.000392231
0.000238947
0.000238947
0.000258049
0.000397452
0.000397452
0.000205692
0.000104303
0.000378666
0.000615903
0.000851328
0.00110433
0.00122637
0.00129914
0.00139323
0.00151355
0.00151355
0.00146617
0.00101409
0.00034195
0.000248327
0.000311935
0.000871363
0.000941273
0.000941273
0.000379821
3.9015e-05
0.000198125
0.000457859
0.000511583
0.000511583
0.000380691
0.000553336
0.000932576
0.00105243
0.00105243
0.00100756
0.000857092
0.000335641
0.000290727
0.00047038
0.000871668
0.000871668
0.000855646
0.000340317
5.14397e-05
3.18348e-05
0.000104558
0.000346434
0.00070467
0.00103839
0.00125484
0.00125484
0.00115268
0.00101208
0.000806794
0.000509516
0.000472043
0.000343588
0.000580821
0.000580821
0.000382063
0.000382063
0.000276885
4.43571e-05
3.06939e-05
3.82428e-05
4.84424e-05
8.18943e-05
0.000211045
0.000436857
0.000792209
0.00110402
0.00110402
0.000988399
0.000388168
0.000357718
0.000374975
0.000747193
0.000747193
0.000657714
0.000436485
0.00016541
4.27294e-05
4.83811e-05
4.00736e-05
4.28015e-05
4.70563e-05
5.00782e-05
5.41354e-05
8.73436e-05
0.000356415
0.000625079
0.000625079
0.000232896
0.000179998
0.000485923
0.00105524
0.00105524
0.000888063
0.00042324
0.000112616
0.000200736
0.00032817
0.00032817
0.000268105
0.000185686
0.000149106
0.000102266
7.17057e-05
6.94313e-05
6.33729e-05
6.33729e-05
6.44462e-05
8.51265e-05
4.8566e-05
5.41037e-05
6.12987e-05
7.19618e-05
7.341e-05
6.69628e-05
5.42026e-05
2.91217e-05
1.73184e-05
1.47244e-05
1.27061e-05
1.06877e-05
9.03766e-06
8.32059e-06
8.24326e-06
8.30497e-06
9.13144e-06
8.97979e-06
1.01017e-05
1.02766e-05
1.32562e-05
1.66529e-05
0.000125489
7.53206e-05
9.18254e-05
0.000121012
0.000152096
0.000171193
0.000182707
0.000191146
0.000190275
0.000171865
0.00013277
9.95471e-05
6.95036e-05
3.51867e-05
1.99626e-05
1.55649e-05
1.24378e-05
1.18403e-05
1.03294e-05
1.12385e-05
1.29045e-05
1.71309e-05
6.6149e-05
0.000267158
0.000105379
0.000127158
0.000160497
0.000176725
0.000195391
0.000223545
0.000254188
0.000304443
0.000343862
0.000344172
0.000330499
0.000306058
0.000285005
0.000232839
0.000191386
0.000161892
0.000158435
8.76807e-05
4.91005e-05
2.27549e-05
1.92749e-05
5.1061e-05
0.000336386
0.000149213
0.000163138
0.00018391
0.000191008
0.00021321
0.000261255
0.000308589
0.000364542
0.000408919
0.00044022
0.000496642
0.00056351
0.000710187
0.000874957
0.00113708
0.00111991
0.00107594
0.000864597
0.00060998
0.000327377
0.00015638
3.61166e-05
5.69164e-05
0.00018914
0.000199086
0.000215845
0.000230983
0.000270428
0.000320987
0.000370457
0.000426083
0.000492168
0.000591278
0.000737518
0.00096166
0.00130762
0.0016456
0.00187463
0.0018632
0.00181714
0.00165333
0.00129902
0.000919631
0.000582082
0.000220081
7.44618e-05
0.000228673
0.000236722
0.000252944
0.00027328
0.000318389
0.000370133
0.0004322
0.000510743
0.000621657
0.000786997
0.00104286
0.0013971
0.00175237
0.00195869
0.00199723
0.00199723
0.00192146
0.0019097
0.00169685
0.00135562
0.000991876
0.000594918
0.000650502
0.000265828
0.000273292
0.00028913
0.000313213
0.000358168
0.000410392
0.000475574
0.000566003
0.000697536
0.000887216
0.00113876
0.00136709
0.0015362
0.00174148
0.00179992
0.00181452
0.00192146
0.00190074
0.00153661
0.000942845
0.000887099
0.00149093
0.00156679
0.000300446
0.000307534
0.000322534
0.000344075
0.000384131
0.000432949
0.000496204
0.000581235
0.000697986
0.000850022
0.00103688
0.00121702
0.00137352
0.00141543
0.00141672
0.00152638
0.00164951
0.00188076
0.00153573
0.000932153
0.00113921
0.00165259
0.00165259
0.000331328
0.000337642
0.000351029
0.0003736
0.000409638
0.000453798
0.000509154
0.000580647
0.000676341
0.000801742
0.000940691
0.00107954
0.00117995
0.00113685
0.00100957
0.00111805
0.00133424
0.0017512
0.00163482
0.00139763
0.000938917
0.00137418
0.0015349
0.000357913
0.000363327
0.000374887
0.000393439
0.000423948
0.000461426
0.000508348
0.000566027
0.000637417
0.000722843
0.000822364
0.000945228
0.00101571
0.000970751
0.000838801
0.000616154
0.000746752
0.00112929
0.00131723
0.00130827
0.00130827
0.00100625
0.00070848
0.000379774
0.000384463
0.000394718
0.000412554
0.000438472
0.000469778
0.000507859
0.00055313
0.000607089
0.000667513
0.000735192
0.000822525
0.000882752
0.00088831
0.000784266
0.000656379
0.000483234
0.000484853
0.000740603
0.00107219
0.00123423
0.00113966
0.00113511
0.000397939
0.000401861
0.000410255
0.000423758
0.00044448
0.000469595
0.000500041
0.00053507
0.000575417
0.000619421
0.00067046
0.00072796
0.000767057
0.000785975
0.000728881
0.000662643
0.000558875
0.000433341
0.000383775
0.00056299
0.000808101
0.00103385
0.00111171
0.00041232
0.000415533
0.00042238
0.000433852
0.000450254
0.000469423
0.000492183
0.000517372
0.000545408
0.00058129
0.000614453
0.000651531
0.000675006
0.000691774
0.000672161
0.000613336
0.000569499
0.000517369
0.00047043
0.000490498
0.000506362
0.000630031
0.000762938
0.000423877
0.000426194
0.000431252
0.000439281
0.000451724
0.000466162
0.000483158
0.000501392
0.000521644
0.00054838
0.000568973
0.000591257
0.000601259
0.000608049
0.000599378
0.000574189
0.000536605
0.000510236
0.000501592
0.000528761
0.000563648
0.000563648
0.000541166
0.0004329
0.000434496
0.000438142
0.000443318
0.000451996
0.000461491
0.000472274
0.000487485
0.000500618
0.000518159
0.000529667
0.000542799
0.000546315
0.000547246
0.000536799
0.000522653
0.000506797
0.000488895
0.000482262
0.000502549
0.00052968
0.00056287
0.000518517
0.000440204
0.000441137
0.000443439
0.000446685
0.000452006
0.000458092
0.000464933
0.000475501
0.000481993
0.000491829
0.000495752
0.000501284
0.000498983
0.00049677
0.000486319
0.00047533
0.000464907
0.000461599
0.000459763
0.000475936
0.000503887
0.000533662
0.000529263
0.000446384
0.000446718
0.000447875
0.00044947
0.00045029
0.000455144
0.00045775
0.000463676
0.000464911
0.000469009
0.000467165
0.000467044
0.000459778
0.000454119
0.000442294
0.000432748
0.000422528
0.000420576
0.00042407
0.000437677
0.000455031
0.000489743
0.000506607
0.000451981
0.000451801
0.000452049
0.000452252
0.000451192
0.00045269
0.000451485
0.000453578
0.0004501
0.000449283
0.000442226
0.000437025
0.000425273
0.00041588
0.000401977
0.000391845
0.000381932
0.000378825
0.000381535
0.000394544
0.000407956
0.000432604
0.000459198
0.000457655
0.000457003
0.000456488
0.000455295
0.000452375
0.000451028
0.000446673
0.000445324
0.000437394
0.000432502
0.000420678
0.000410942
0.000395225
0.000381704
0.000365034
0.000352133
0.000340956
0.000336846
0.00033825
0.000351856
0.000368366
0.000391183
0.000421713
0.000464072
0.000463004
0.000461815
0.000459428
0.000455009
0.000450728
0.000444653
0.000438678
0.000429222
0.000419183
0.000404624
0.000389202
0.000369354
0.000351106
0.000330671
0.000313775
0.000299374
0.00029343
0.000293135
0.000306355
0.000326709
0.000352419
0.000386396
0.000471636
0.000470239
0.000468402
0.000465005
0.000459352
0.000453333
0.000444774
0.000435411
0.000422708
0.000408574
0.000389325
0.000370392
0.000346412
0.000323661
0.000298758
0.000276944
0.000257816
0.000248764
0.000247189
0.000260999
0.000286317
0.000321875
0.000358909
0.000480991
0.000479433
0.000476922
0.000472757
0.000466127
0.000458584
0.000448067
0.000437332
0.0004233
0.000406633
0.000386739
0.00036334
0.00033666
0.000306483
0.000274437
0.000242121
0.000216238
0.000201759
0.000198231
0.000213529
0.000246325
0.000295713
0.000335559
0.000492688
0.000491117
0.000487942
0.000483223
0.000475887
0.00046716
0.000454359
0.000440976
0.000424387
0.00040459
0.000380943
0.00035363
0.000322835
0.000288897
0.000252323
0.00021305
0.000175508
0.000151631
0.000143828
0.000162683
0.000208632
0.0002708
0.000315009
0.000507477
0.00050601
0.000502306
0.000497293
0.000489527
0.000480064
0.000466888
0.000452355
0.000433872
0.000413971
0.000390097
0.000362373
0.000330038
0.000293106
0.000251181
0.000204825
0.000155598
0.000104435
8.12608e-05
0.00011095
0.000176841
0.00024961
0.000296899
0.00052584
0.000524535
0.000520572
0.000515588
0.000507796
0.000498221
0.000485346
0.000470642
0.00045092
0.000430027
0.000402222
0.000374329
0.000338428
0.000302942
0.000259067
0.000216296
0.000166123
0.000122715
8.75508e-05
0.00010414
0.000164548
0.000240754
0.000292195
0.000548434
0.000547295
0.000543403
0.000538715
0.000531285
0.000522207
0.000510243
0.000496357
0.000478349
0.000458979
0.000433975
0.000408594
0.000376401
0.000345206
0.000307508
0.000273541
0.000234203
0.000206737
0.000186928
0.000197692
0.000224987
0.000279609
0.000335744
0.00057535
0.000574413
0.000570972
0.000566927
0.00056036
0.000552399
0.000541903
0.00052962
0.000514036
0.000497035
0.000475621
0.000453818
0.000427309
0.000401873
0.000372133
0.000346379
0.000320083
0.000307603
0.000303964
0.00031891
0.000337759
0.000377867
0.000419653
0.000607027
0.0006063
0.0006035
0.000600239
0.00059482
0.000588346
0.000579727
0.000569687
0.000557086
0.000543292
0.000526325
0.000509137
0.000488804
0.00046975
0.00044909
0.000434208
0.000425136
0.000430594
0.000435446
0.000447356
0.00046298
0.000493868
0.000529449
0.000643197
0.000642797
0.000640865
0.000638621
0.000634619
0.000629848
0.000623271
0.000615621
0.000605971
0.000595411
0.000582717
0.000570116
0.000556244
0.000544741
0.000536654
0.000539367
0.000551511
0.000562302
0.000556705
0.000562118
0.000576153
0.000603927
0.000639641
0.000684043
0.000683973
0.000682896
0.0006817
0.000679204
0.000676253
0.000671881
0.000666819
0.000660286
0.000653321
0.000645455
0.000638836
0.000634463
0.000635788
0.000645179
0.000663534
0.000671159
0.000655679
0.000645191
0.000649804
0.000667732
0.000696945
0.000738323
0.000729551
0.000729835
0.000729581
0.000729438
0.00072839
0.000727173
0.000724876
0.000722286
0.000718814
0.000715748
0.000713354
0.000714473
0.000721762
0.000738991
0.000765294
0.000773992
0.000742874
0.000714949
0.000710669
0.000715405
0.000737813
0.000773145
0.000824547
0.000778575
0.000779428
0.000780269
0.000781415
0.000782055
0.000782824
0.000782904
0.000783254
0.000783544
0.000785698
0.000790762
0.000802954
0.000824254
0.000852222
0.000864161
0.000825754
0.000782619
0.000761152
0.00075256
0.000761712
0.00078893
0.000836176
0.000899825
0.00083352
0.000834429
0.000835629
0.000837728
0.000839726
0.000842184
0.000844547
0.000847988
0.0008526
0.000861053
0.000875426
0.000899664
0.000931279
0.000950508
0.000909943
0.000863958
0.000809929
0.000783133
0.000774551
0.000790107
0.000833021
0.000895493
0.00096532
0.000889546
0.000890943
0.000893237
0.000896968
0.000901047
0.000905837
0.000910911
0.00091789
0.000927289
0.000942691
0.000966427
0.000999323
0.00102782
0.00100242
0.000945787
0.00087394
0.000825021
0.000795389
0.000786159
0.000818907
0.000875504
0.000950349
0.00102179
0.000951799
0.000953937
0.000957366
0.000961976
0.000967213
0.000973839
0.000981716
0.000992356
0.00100712
0.00103009
0.00106164
0.00109509
0.00109142
0.00103817
0.00096002
0.000882754
0.000829738
0.000790862
0.000795599
0.000841238
0.000910729
0.000996826
0.00107043
0.00101362
0.00101632
0.00102072
0.00102674
0.00103403
0.00104371
0.00105574
0.0010713
0.0010926
0.0011231
0.00115808
0.00117644
0.00111866
0.00104654
0.000941381
0.000863558
0.000807905
0.000776061
0.000801043
0.000859764
0.000941484
0.00103835
0.00111155
0.00108127
0.00108469
0.00109058
0.00109877
0.00110867
0.00112092
0.00113527
0.00115405
0.00118035
0.00121329
0.00124086
0.0012208
0.00116046
0.00104681
0.000933196
0.000847066
0.000783378
0.000761193
0.000800275
0.000871002
0.000963485
0.00107046
0.00114891
0.00114693
0.00115076
0.00115758
0.00116728
0.00117926
0.00119403
0.00121194
0.00123564
0.00126747
0.00129935
0.001312
0.00124562
0.00115164
0.00100819
0.000889803
0.000804123
0.000750531
0.000751871
0.000807047
0.000889179
0.000990919
0.00110496
0.0011801
0.00121899
0.0012238
0.00123252
0.00124502
0.00126039
0.00127889
0.00130045
0.00132664
0.00135801
0.00138163
0.00136376
0.00129499
0.00115611
0.000995497
0.000869186
0.000774659
0.000721828
0.000738942
0.00080425
0.000895535
0.00100525
0.00112607
0.00121228
0.00128607
0.00129141
0.00130115
0.00131516
0.00133226
0.00135319
0.00137769
0.00140791
0.00144123
0.00145682
0.00140028
0.00129027
0.00110668
0.000935197
0.000810017
0.000725509
0.000698149
0.000745386
0.000823379
0.000923477
0.0010394
0.00116474
0.00123906
0.00136211
0.00136865
0.00138077
0.0013981
0.00141918
0.00144494
0.00147493
0.00150949
0.00153753
0.00152698
0.00145332
0.0013141
0.0011066
0.000926004
0.000789723
0.000699234
0.000679463
0.000734011
0.00081852
0.000924784
0.00104561
0.00117581
0.00127148
0.00142367
0.00143472
0.00145219
0.00147466
0.0015012
0.00153124
0.00156277
0.00158618
0.00158618
0.00157453
0.00147878
0.00127264
0.00103521
0.000851572
0.000726761
0.000659833
0.000683832
0.00075484
0.000850884
0.00096528
0.00109163
0.00122582
0.00127148
0.000104292
0.000166344
0.000193341
0.000302195
0.000434048
0.000359664
0.000321462
0.000372504
0.000434048
0.000595144
0.000564952
0.000589112
0.00041934
0.000595144
0.000564952
0.000589112
8.91922e-05
0.000183347
0.000239124
0.000183514
0.000769546
0.000864777
0.000880924
0.000851993
0.00169249
0.00174698
0.00174528
0.0016583
0.00169249
0.00174698
0.00174528
0.0016583
0.00146523
0.00151367
0.00156714
0.00158413
0.000612105
0.000593292
0.000616518
0.0011397
0.00064886
0.000556172
0.000549486
0.000545223
0.000884967
0.000919244
0.000934017
0.000961579
0.000884967
0.000919244
0.000934017
0.000961579
0.000534784
0.000533732
0.00051831
0.000474039
0.000498268
0.00049427
0.000480177
0.000468985
0.000498268
0.00049427
0.000481636
0.000470972
0.000496673
0.000493407
0.000481636
0.000484659
0.00046824
0.000477945
0.000480733
0.000484659
0.000441082
0.000453602
0.000464806
0.000475316
0.00041497
0.000432806
0.00045116
0.000468439
0.000392898
0.000415163
0.000438664
0.000460999
0.00037558
0.000402417
0.000430832
0.000458218
0.000361471
0.000392237
0.000424637
0.00045624
0.000349545
0.000384042
0.000420068
0.000455575
0.000344316
0.000379569
0.000417313
0.000455165
0.00037718
0.000407236
0.000441227
0.000474513
0.000450533
0.000475112
0.000504086
0.000530764
0.000556084
0.000578083
0.000602764
0.000626404
0.000667166
0.000689948
0.000714289
0.000740776
0.000771637
0.00079843
0.000826516
0.000857415
0.000867263
0.00089899
0.000931998
0.000966308
0.000952605
0.00098918
0.0010274
0.00106537
0.00102759
0.00106909
0.00111208
0.00115379
0.00109241
0.00113842
0.00118545
0.00123064
0.0011483
0.00119811
0.00124852
0.00129694
0.00119531
0.00124869
0.00130189
0.00135356
0.00123668
0.00129325
0.00134865
0.00140326
0.00127117
0.00133027
0.00138762
0.00144467
0.00130611
0.0013669
0.0014257
0.00148432
0.0013351
0.00139728
0.0014572
0.00151699
0.00136952
0.00143329
0.00149435
0.00155545
0.00136952
0.00143329
0.00149435
0.00155545
0.000605234
0.000684952
0.000684952
0.000482531
0.000220005
0.000240784
0.000573749
0.000671329
0.000671329
0.000731658
0.000799909
0.000848126
0.00085233
0.00085233
0.000772068
0.000560255
0.000272878
6.76237e-05
0.000123807
0.00078802
0.000671011
0.00041047
0.000233293
0.00024406
0.000712554
0.000834683
0.00073302
0.000775859
0.000704636
0.000881806
0.00118932
0.00133866
0.00139681
0.000959551
0.000635758
0.000288937
0.00017644
0.000287549
0.00078802
0.000532148
0.000195229
0.000216881
0.000680104
0.00137439
0.00176647
0.0020308
0.0021095
0.0021494
0.0024403
0.00276844
0.00280516
0.0026523
0.00215341
0.00126929
0.00064677
0.00036055
0.000596403
0.000389891
8.83878e-05
0.000113449
0.000489058
0.0015244
0.00255271
0.00294774
0.0031369
0.0031954
0.00349587
0.00383244
0.00383821
0.00383821
0.00350619
0.00318004
0.00248848
0.00124532
0.000551539
0.000858587
8.72066e-05
0.000220592
0.00056827
0.00165889
0.003093
0.0034696
0.0034696
0.00330313
0.00290169
0.00255555
0.00277954
0.00261089
0.00217456
0.0020643
0.00209301
0.00154203
0.00106562
0.000753964
0.000858587
0.000889134
0.000839851
0.00170741
0.00294887
0.00322587
0.00322587
0.00256866
0.00192055
0.00163021
0.00134031
0.00129784
0.00121667
0.00103001
0.00103001
0.000871879
0.00110893
0.000907189
0.000614598
0.000787096
0.00164719
0.00203189
0.00262677
0.00282519
0.00287646
0.00242148
0.00133949
0.000872889
0.000801685
0.000707501
0.000390128
0.000704964
0.000810698
0.000457092
0.000123722
0.000382788
0.000792648
0.000789562
0.000589134
0.0019771
0.00199288
0.0020848
0.00224172
0.00217625
0.00115084
0.00058492
0.000581681
0.000472681
0.000570209
0.000420492
0.00054578
0.000315557
8.4841e-05
6.64973e-05
8.67334e-05
0.000382269
0.000591552
0.000371991
0.00158237
0.00165773
0.00159529
0.00169192
0.00119919
0.000513864
0.000505269
0.000277168
0.000263359
0.000449627
0.000428916
0.000373336
0.000249209
0.000452543
0.000145828
7.49164e-05
7.54931e-05
0.000113347
8.80936e-05
0.00138965
0.00136787
0.00120142
0.000956069
0.000476598
0.000217046
0.000290023
0.000186568
0.000248575
0.000275698
0.000338844
0.000508632
0.000901352
0.00106026
0.000810919
0.000236765
8.92948e-05
6.13327e-05
5.4025e-05
0.000588865
0.00088492
0.000773412
0.000664649
0.000504317
0.000259476
0.000192229
0.000361689
0.000532554
0.00073585
0.000727857
0.000844805
0.00103711
0.00135183
0.00135183
0.0011502
0.000491322
0.000131273
0.000106092
0.000832049
0.00055922
0.000396998
0.000339758
0.000275784
0.000324659
0.000453108
0.000541801
0.000910386
0.00122568
0.0012542
0.00123455
0.00131175
0.00122626
0.00136774
0.00152059
0.00134193
0.000838976
0.000698571
0.000940068
0.000940068
0.000876406
0.000876406
0.000734325
0.000474784
0.000814125
0.00118492
0.00150008
0.0015886
0.00167849
0.00170275
0.00170275
0.00164086
0.001668
0.00190853
0.00190853
0.00165914
0.00145208
0.00054562
0.000531226
0.000494493
0.000445778
0.000454488
0.000523652
0.000909217
0.00113447
0.00119156
0.0013553
0.00168507
0.00172859
0.00172859
0.0014155
0.00161186
0.00204175
0.00205302
0.00205302
0.00187117
0.000409903
0.000399358
0.000224191
0.000253978
0.000543727
0.000666504
0.000683669
0.000814296
0.000859488
0.000720066
0.00106609
0.00127595
0.00133416
0.00133416
0.00155219
0.00193817
0.0019416
0.0019416
0.00154041
0.000431893
0.000365086
0.000304805
0.000335492
0.000349997
0.000447943
0.000491597
0.000560341
0.000514941
0.000332851
0.000668505
0.000959605
0.00111094
0.00123399
0.00152872
0.00199695
0.00224752
0.00224752
0.00168722
0.00050376
0.00050376
0.000468491
0.000511133
0.000586109
0.000535824
0.000466267
0.000403686
0.000392608
0.000512779
0.000740435
0.000885018
0.000976064
0.00106056
0.00127277
0.00164839
0.001954
0.001954
0.00167359
0.000541176
0.000568167
0.0006207
0.000715899
0.000774811
0.000844409
0.000850988
0.000819109
0.000859421
0.000937174
0.0010379
0.00111379
0.0011626
0.00118453
0.00125835
0.00150218
0.00196722
0.00218217
0.00185062
0.000579759
0.000637061
0.000721953
0.000851888
0.00101358
0.00113505
0.00118517
0.00124344
0.00129984
0.00131798
0.00131798
0.00130719
0.00128041
0.00120909
0.00115719
0.00130356
0.0018442
0.00242181
0.00242181
0.000581181
0.000653802
0.000746633
0.000868203
0.0010231
0.00120174
0.00134205
0.00143266
0.00147721
0.00147721
0.00146905
0.00141612
0.0013431
0.00124877
0.00116438
0.00110262
0.00162323
0.00222242
0.00222242
0.000599094
0.0006829
0.000781749
0.000899706
0.00103609
0.00118289
0.00132581
0.00143038
0.00147311
0.00147311
0.00146244
0.00139794
0.00130735
0.00118684
0.00106932
0.000980796
0.00139767
0.00200659
0.00212346
0.000603631
0.000695282
0.000798312
0.000910197
0.00103126
0.00115724
0.00127306
0.00136066
0.00140086
0.00140086
0.00139015
0.00132834
0.00124016
0.00112581
0.0010046
0.000894499
0.00124904
0.00182433
0.00198716
0.000619439
0.000721077
0.000830779
0.000942175
0.00105869
0.00116877
0.00126084
0.00132874
0.00135365
0.00135365
0.00133634
0.00127574
0.00118992
0.00107198
0.000935817
0.000802643
0.00101058
0.00167106
0.00182587
0.00062604
0.000737539
0.00085366
0.000967683
0.00108619
0.00119125
0.00127349
0.00132823
0.00133908
0.00133908
0.00131217
0.00124597
0.00115521
0.00103063
0.00088994
0.000729437
0.000827412
0.0016116
0.00177552
0.000629215
0.000747099
0.000866955
0.000988281
0.00110663
0.00121249
0.00129779
0.00134887
0.00136042
0.00136042
0.0013289
0.00125561
0.0011583
0.00102361
0.000878146
0.000704783
0.000691916
0.00145976
0.00177552
0.000635054
0.000753637
0.000874589
0.00099843
0.00111834
0.00122415
0.00131426
0.00137219
0.00139151
0.00139151
0.0013658
0.00129017
0.00119133
0.00105245
0.000913417
0.000740476
0.000575834
0.00112473
0.00163636
0.000657148
0.000768799
0.000879821
0.000997225
0.00111081
0.00121182
0.00130485
0.00137428
0.00141079
0.00141079
0.00140238
0.00133601
0.00124341
0.00110485
0.0009772
0.000817324
0.000673834
0.000978777
0.00157695
0.000739581
0.000842341
0.000939674
0.00103911
0.00112509
0.00120449
0.0012838
0.00135477
0.00141254
0.00143643
0.00143643
0.0013965
0.00131934
0.0011899
0.00107563
0.000928214
0.000798932
0.000834074
0.00154805
0.000860769
0.000956797
0.00104466
0.0011236
0.00116925
0.00120838
0.00125116
0.0013021
0.00136437
0.00142796
0.00144258
0.00144258
0.00139958
0.00128866
0.00118983
0.00105356
0.000958372
0.000934629
0.00152556
0.000996345
0.00109137
0.00118065
0.00124098
0.0012458
0.00124658
0.00125146
0.00127385
0.00131564
0.00138645
0.00145579
0.00147124
0.00147124
0.00139261
0.00131264
0.00120267
0.00112117
0.0010527
0.0013801
0.00112643
0.00122337
0.00131152
0.00134509
0.00134509
0.00131658
0.00129427
0.00126964
0.00126941
0.00132925
0.00143863
0.00152889
0.00152889
0.00150346
0.00144716
0.00135687
0.00128355
0.00112484
0.00120622
0.0012499
0.00134844
0.00143002
0.0014402
0.0014402
0.00140508
0.00138726
0.00135294
0.00131287
0.00129534
0.00140011
0.00155385
0.0015952
0.0015952
0.00156511
0.00148694
0.00139608
0.00124297
0.000938316
0.00135942
0.00145668
0.00152826
0.00152887
0.00152887
0.00151488
0.00151488
0.00148475
0.00142186
0.00133255
0.00135732
0.00155853
0.00167464
0.0016778
0.0016778
0.00161301
0.00150597
0.00134238
0.000810711
0.00145731
0.00155361
0.00162133
0.00163122
0.00164266
0.00167573
0.00167573
0.00166143
0.00158801
0.00144898
0.0013424
0.00154395
0.00172691
0.00177713
0.00177713
0.00173103
0.00162346
0.00145666
0.000828646
0.0015409
0.00163836
0.00170945
0.00173494
0.0017744
0.00183407
0.0018373
0.0018373
0.00175473
0.00156248
0.00136847
0.00153759
0.00178375
0.0018847
0.0018847
0.00185913
0.00175288
0.00158217
0.000997009
0.00161677
0.00171886
0.00179715
0.00183774
0.00190122
0.00198717
0.00201528
0.00201528
0.00193933
0.00170378
0.00141867
0.00148876
0.0018016
0.00196342
0.00197072
0.00197072
0.00188161
0.00172327
0.00120624
0.00168125
0.00178856
0.00187405
0.00192935
0.00201454
0.0021246
0.00217981
0.00217981
0.00210908
0.0018225
0.00143162
0.00143292
0.00183503
0.00205623
0.00208822
0.00208822
0.00201231
0.00186054
0.00137234
0.00174206
0.00185494
0.00194779
0.00201747
0.0021192
0.00225139
0.00233114
0.00233114
0.00226796
0.00195918
0.00146806
0.00132628
0.00180529
0.0021006
0.00217975
0.00217975
0.00213564
0.00200426
0.00156178
0.00178823
0.00190711
0.00200727
0.00208925
0.00220286
0.00235384
0.00244901
0.00244901
0.00239904
0.00208702
0.00147307
0.00123038
0.00181096
0.00215425
0.00225567
0.00225567
0.00222488
0.00210333
0.00168025
0.00184265
0.00196551
0.00207004
0.00216074
0.00228323
0.0024465
0.00255171
0.00255171
0.00252304
0.00221532
0.00149842
0.00107924
0.00173737
0.00214014
0.00230617
0.00231902
0.00231902
0.00223653
0.00186358
0.00187018
0.0019972
0.0021051
0.00220178
0.00233
0.00250077
0.0026166
0.0026166
0.00260141
0.00229795
0.00150184
0.000981095
0.00172076
0.00214381
0.00233268
0.00237176
0.00237176
0.00232399
0.00193133
0.00193717
0.00206842
0.00217957
0.00228103
0.00241073
0.00258216
0.00270317
0.00270317
0.00268565
0.00239149
0.00151616
0.000941803
0.00158254
0.00203095
0.00230738
0.00242602
0.00243474
0.00243474
0.0021084
)
;

boundaryField
{
    leftWall
    {
        type            calculated;
        value           uniform 0;
    }
    rightWall
    {
        type            calculated;
        value           uniform 0;
    }
    lowerWall
    {
        type            calculated;
        value           uniform 0;
    }
    atmosphere
    {
        type            calculated;
        value           uniform 0;
    }
    defaultFaces
    {
        type            empty;
    }
}


// ************************************************************************* //
