/*--------------------------------*- C++ -*----------------------------------*\
| =========                 |                                                 |
| \\      /  F ield         | OpenFOAM: The Open Source CFD Toolbox           |
|  \\    /   O peration     | Version:  2012                                  |
|   \\  /    A nd           | Website:  www.openfoam.com                      |
|    \\/     M anipulation  |                                                 |
\*---------------------------------------------------------------------------*/
FoamFile
{
    version     2.0;
    format      ascii;
    class       volScalarField;
    location    "0.73";
    object      p_rgh;
}
// * * * * * * * * * * * * * * * * * * * * * * * * * * * * * * * * * * * * * //

dimensions      [1 -1 -2 0 0 0 0];


internalField   nonuniform List<scalar> 
2268
(
101903
101907
101914
101925
101939
101956
101975
101996
102016
102040
102058
102085
102099
102128
102138
102169
102174
102205
102202
102229
102218
102233
102219
101902
101906
101913
101925
101939
101956
101974
101995
102015
102040
102058
102085
102099
102128
102138
102170
102174
102206
102204
102230
102220
102235
102222
101900
101904
101912
101923
101937
101955
101974
101995
102015
102040
102058
102085
102099
102128
102138
102170
102174
102206
102204
102230
102218
102232
102211
101897
101901
101909
101921
101935
101953
101972
101994
102015
102039
102058
102085
102100
102129
102140
102171
102176
102209
102207
102235
102224
102239
102221
101893
101897
101905
101917
101932
101950
101970
101993
102014
102039
102058
102085
102100
102129
102140
102171
102176
102210
102207
102234
102220
102230
102197
101889
101893
101901
101913
101929
101947
101968
101991
102013
102038
102059
102085
102101
102130
102141
102174
102179
102214
102213
102243
102229
102242
102214
101882
101887
101895
101908
101924
101943
101965
101989
102012
102038
102059
102085
102102
102129
102142
102173
102179
102215
102213
102243
102225
102223
102170
101874
101880
101890
101903
101920
101939
101962
101986
102011
102037
102059
102085
102103
102130
102144
102176
102183
102222
102221
102256
102234
102240
102189
102823
102267
101976
101871
101954
102276
102461
102321
102131
101967
101892
101849
101825
101821
101805
101825
101868
102263
103014
102756
102196
101934
101848
101918
102307
102511
102315
102099
101943
101877
101842
101822
101814
101790
101784
101808
102117
102767
102469
102048
101852
101770
101846
102258
102476
102310
102050
101880
101808
101767
101748
101742
101721
101723
101724
101939
102523
102382
101961
101713
101656
101722
102231
102491
102302
102050
101877
101771
101736
101714
101707
101695
101700
101697
101820
102429
102174
101823
101628
101619
101661
102122
102409
102333
102175
102012
101886
101789
101720
101704
101695
101704
101695
101854
102389
102083
101711
101627
101618
101711
102157
102336
102205
102119
102038
102018
101984
101937
101862
101755
101701
101697
102009
102427
102012
101628
101628
101619
101849
102116
102228
102120
102069
102029
102018
102009
102010
102021
101996
101888
101891
102227
102521
102021
101629
101628
101618
101950
102104
102092
101835
101846
101894
101946
101968
101995
102016
102055
102125
102285
102516
102763
101618
101636
101674
101727
101788
101848
101913
101973
102011
102038
102061
102087
102104
102130
102144
102175
102184
102224
102224
102260
102230
102244
102048
101335
101337
101340
101352
101384
101434
101507
101613
101757
101890
101979
102048
102097
102132
102148
102179
102194
102241
102241
102299
102253
102329
101810
101331
101331
101331
101331
101331
101332
101335
101343
101368
101435
101531
101629
101717
101829
101929
102023
102104
102210
102254
102308
102314
102349
102037
101331
101331
101331
101331
101331
101331
101331
101332
101333
101336
101346
101361
101369
101371
101402
101456
101514
101656
101830
102084
102268
102482
102467
101331
101331
101331
101331
101331
101331
101331
101331
101331
101331
101332
101332
101332
101331
101332
101341
101361
101424
101570
101748
101936
102319
102483
101331
101331
101331
101331
101331
101331
101331
101331
101331
101331
101331
101331
101331
101331
101331
101331
101334
101401
101582
101740
101926
102341
102482
101331
101331
101331
101331
101331
101331
101331
101331
101331
101331
101331
101331
101331
101330
101330
101330
101332
101380
101828
102109
102170
101885
101506
101331
101331
101331
101331
101331
101331
101331
101331
101331
101331
101331
101331
101330
101329
101329
101329
101329
101347
101803
102153
102179
101567
101484
101331
101331
101331
101331
101331
101331
101331
101331
101331
101331
101331
101330
101330
101329
101328
101328
101328
101330
101363
101775
102129
101976
101648
101331
101331
101331
101331
101331
101331
101331
101331
101331
101331
101330
101330
101330
101329
101329
101328
101329
101329
101329
101329
101430
102204
102536
101331
101331
101331
101331
101331
101331
101331
101331
101331
101330
101330
101330
101330
101329
101329
101329
101329
101329
101329
101330
101329
101330
101593
101330
101330
101330
101330
101330
101330
101330
101330
101330
101330
101330
101330
101330
101329
101329
101329
101329
101329
101329
101329
101329
101329
101329
101330
101330
101330
101330
101330
101330
101330
101330
101330
101330
101330
101330
101330
101330
101329
101329
101329
101329
101329
101329
101329
101329
101329
101330
101330
101330
101330
101330
101330
101330
101330
101330
101330
101330
101330
101330
101330
101330
101329
101329
101329
101329
101329
101329
101329
101329
101330
101330
101330
101330
101330
101330
101330
101330
101330
101330
101330
101330
101330
101330
101330
101330
101329
101329
101329
101330
101329
101330
101329
101330
101330
101330
101330
101330
101330
101330
101330
101330
101330
101330
101330
101330
101330
101330
101330
101330
101330
101329
101330
101329
101329
101329
101330
101330
101330
101330
101330
101330
101330
101330
101330
101330
101330
101330
101330
101330
101330
101330
101330
101330
101330
101330
101330
101330
101330
101330
101330
101330
101330
101330
101330
101330
101330
101330
101330
101330
101330
101330
101330
101330
101330
101330
101330
101330
101330
101330
101330
101330
101330
101330
101330
101330
101330
101330
101330
101330
101330
101330
101330
101330
101330
101330
101330
101330
101330
101330
101330
101330
101330
101330
101330
101330
101330
101330
101330
101330
101330
101330
101330
101330
101330
101330
101330
101330
101330
101330
101330
101330
101330
101330
101330
101330
101330
101330
101329
101329
101329
101329
101329
101329
101329
101329
101329
101329
101330
101330
101330
101330
101330
101330
101330
101330
101330
101330
101330
101330
101330
101329
101329
101329
101329
101329
101329
101329
101329
101329
101329
101329
101329
101329
101330
101330
101330
101330
101330
101330
101330
101330
101330
101330
101329
101329
101329
101329
101329
101329
101329
101329
101329
101329
101329
101329
101329
101329
101329
101330
101330
101330
101330
101330
101330
101330
101330
101329
101329
101329
101329
101329
101329
101329
101329
101329
101329
101329
101329
101329
101329
101329
101329
101330
101330
101330
101330
101330
101330
101330
101329
101329
101329
101329
101329
101329
101329
101329
101329
101329
101329
101329
101329
101329
101329
101329
101329
101330
101330
101330
101330
101330
101330
101329
101329
101329
101329
101329
101329
101329
101329
101329
101329
101329
101329
101329
101329
101329
101329
101329
101329
101330
101330
101330
101330
101330
101329
101329
101329
101329
101329
101329
101329
101329
101329
101329
101329
101329
101329
101329
101329
101329
101329
101329
101329
101330
101330
101330
101330
101329
101329
101329
101329
101329
101329
101329
101329
101329
101329
101329
101329
101329
101329
101329
101329
101329
101329
101329
101329
101329
101330
101330
101328
101328
101328
101328
101328
101329
101329
101329
101329
101329
101329
101329
101329
101329
101329
101329
101329
101329
101329
101329
101329
101329
101329
101328
101328
101328
101328
101328
101328
101328
101328
101328
101328
101329
101329
101329
101329
101329
101329
101329
101329
101329
101329
101329
101329
101329
101328
101328
101328
101328
101328
101328
101328
101328
101328
101328
101328
101328
101328
101328
101329
101329
101329
101329
101329
101329
101329
101329
101329
101328
101328
101328
101328
101328
101328
101328
101328
101328
101328
101328
101328
101328
101328
101328
101328
101328
101328
101328
101329
101329
101329
101329
101328
101328
101328
101328
101328
101328
101328
101328
101328
101328
101328
101328
101328
101328
101328
101328
101328
101328
101328
101328
101328
101328
101328
101328
101328
101328
101328
101328
101328
101328
101328
101328
101328
101328
101328
101328
101328
101328
101328
101328
101328
101328
101328
101328
101328
101328
101327
101327
101327
101327
101327
101327
101327
101327
101327
101327
101327
101327
101327
101327
101327
101327
101327
101327
101327
101328
101328
101328
101328
101327
101327
101327
101327
101327
101327
101327
101327
101327
101327
101327
101327
101327
101327
101327
101327
101327
101327
101327
101327
101327
101327
101327
101327
101327
101327
101327
101327
101327
101327
101327
101327
101327
101327
101327
101327
101327
101327
101327
101327
101327
101327
101327
101327
101327
101327
101327
101327
101327
101327
101327
101327
101327
101327
101327
101327
101327
101327
101326
101326
101326
101326
101326
101326
101326
101326
101326
101326
101327
101326
101326
101326
101326
101326
101326
101326
101326
101326
101326
101326
101326
101326
101326
101326
101326
101326
101326
101326
101326
101326
101326
101326
101326
101326
101326
101326
101326
101326
101326
101326
101326
101326
101326
101326
101326
101326
101326
101326
101326
101326
101326
101326
101326
101326
101326
101325
101325
101325
101325
101325
101325
101325
101325
101325
101325
101325
101325
101325
101326
101325
101326
101326
101326
101326
101326
101326
101326
101326
101326
101326
101326
101326
101326
101326
101326
101326
101325
101325
101325
101325
101325
101325
101325
101325
101325
101325
101325
101325
101325
101325
101325
101913
101783
101927
101576
101724
101848
102016
102195
101715
101683
101949
101930
102145
101820
101822
101807
102501
102401
102312
102379
102342
102146
102072
102009
101491
101491
101491
101492
101482
101485
101491
101492
101619
101715
101644
101530
102546
102565
102574
101986
102504
102588
102582
102606
101329
101329
101330
101425
101329
101329
101329
101329
101329
101329
101329
101329
101330
101329
101329
101330
101330
101330
101330
101330
101330
101330
101330
101330
101330
101330
101330
101330
101330
101330
101330
101330
101330
101330
101330
101330
101330
101330
101330
101330
101330
101330
101330
101330
101330
101330
101330
101330
101330
101330
101330
101330
101330
101330
101330
101330
101330
101330
101330
101330
101330
101330
101330
101330
101330
101330
101330
101330
101330
101330
101330
101330
101329
101329
101329
101329
101329
101329
101329
101329
101329
101329
101329
101329
101328
101328
101328
101328
101328
101328
101328
101328
101328
101328
101328
101328
101327
101327
101327
101327
101327
101327
101327
101327
101327
101327
101327
101327
101326
101326
101326
101326
101326
101326
101326
101326
101326
101326
101326
101326
101325
101325
101325
101325
101963
101609
101627
101788
102038
102050
101775
101563
101576
101586
101598
101610
101628
101667
101766
101979
102333
102687
102838
101807
101618
101740
102103
102092
101721
101504
101505
101505
101505
101505
101507
101509
101515
101539
101624
102207
102514
102616
101834
101807
102224
102157
101845
101510
101505
101503
101505
101504
101505
101507
101511
101513
101524
101627
102036
102236
102313
102014
102377
102373
101854
101499
101503
101502
101504
101505
101506
101505
101507
101508
101513
101539
101631
101777
101857
102021
102414
102139
101665
101496
101496
101497
101499
101500
101504
101505
101504
101502
101504
101514
101573
101711
101710
101697
101979
101801
101492
101499
101491
101495
101496
101495
101495
101507
101509
101504
101507
101523
101753
102160
102030
101694
101690
102077
101492
101492
101492
101495
101493
101493
101500
101530
101619
101512
101503
101514
101871
102548
102828
102762
101926
101698
102244
101492
101494
101495
101493
101492
101491
101516
101956
102266
101643
101504
101729
102645
102878
102894
102957
102773
102170
102632
101502
101495
101495
101495
101493
101491
101599
102466
102537
102131
101623
102331
102767
102741
102967
102999
103049
103083
103083
101571
101495
101494
101494
101494
101492
102032
102611
102575
102553
102306
102214
101840
101651
102451
102978
103091
103184
103224
102651
102289
101934
101807
101888
102348
102450
102262
101903
101829
101938
101526
101339
101337
101467
102113
102931
103193
103229
101916
102533
102684
102695
102686
102294
101579
101330
101332
101331
101332
101331
101337
101334
101330
101331
101802
102690
103042
101330
101330
101364
101422
101384
101329
101330
101329
101328
101328
101333
101343
101345
101336
101332
101334
101337
101603
101911
101330
101330
101330
101330
101329
101329
101328
101329
101328
101328
101329
101332
101332
101328
101329
101339
101383
101510
101884
101330
101330
101330
101330
101329
101329
101329
101328
101327
101326
101327
101327
101328
101329
101329
101338
101416
101602
102261
101330
101330
101330
101330
101330
101329
101329
101328
101328
101327
101327
101327
101328
101328
101329
101329
101341
101429
102304
101330
101330
101330
101330
101329
101329
101329
101328
101328
101327
101327
101327
101328
101328
101328
101328
101329
101328
102345
101330
101330
101330
101330
101329
101329
101329
101328
101328
101327
101328
101328
101328
101328
101329
101329
101329
101333
102265
101330
101330
101330
101330
101329
101329
101329
101328
101328
101328
101328
101328
101328
101329
101329
101329
101329
101340
101440
101330
101330
101330
101330
101330
101329
101329
101329
101329
101328
101329
101328
101329
101329
101329
101329
101330
101335
101330
101330
101330
101330
101330
101330
101329
101329
101329
101329
101329
101329
101329
101329
101329
101330
101329
101330
101330
101330
101330
101330
101330
101330
101330
101329
101329
101329
101329
101329
101329
101329
101330
101330
101330
101330
101331
101332
101331
101330
101330
101330
101330
101330
101330
101329
101329
101329
101329
101329
101329
101330
101330
101330
101330
101331
101338
101331
101330
101330
101330
101330
101330
101330
101330
101329
101329
101329
101329
101330
101330
101330
101330
101330
101331
101338
101335
101330
101330
101330
101330
101330
101330
101330
101329
101329
101329
101329
101330
101330
101330
101330
101330
101331
101335
101453
101330
101330
101330
101330
101330
101330
101330
101329
101329
101329
101330
101330
101330
101330
101330
101330
101331
101330
101717
101330
101330
101330
101330
101330
101330
101330
101329
101329
101329
101329
101330
101330
101330
101330
101330
101331
101330
101731
101330
101330
101330
101330
101330
101329
101329
101329
101329
101329
101329
101329
101330
101330
101330
101330
101331
101330
101744
101330
101330
101330
101330
101329
101329
101329
101329
101329
101329
101329
101329
101330
101329
101330
101330
101331
101329
101626
101329
101329
101329
101329
101329
101329
101329
101329
101329
101329
101329
101329
101329
101329
101330
101329
101330
101329
101328
101329
101329
101329
101329
101329
101329
101329
101329
101329
101329
101329
101329
101329
101329
101329
101329
101329
101329
101329
101329
101329
101329
101329
101329
101329
101329
101329
101328
101328
101328
101328
101329
101329
101329
101329
101329
101329
101330
101329
101329
101329
101328
101328
101328
101328
101328
101328
101328
101328
101328
101328
101328
101329
101329
101329
101329
101330
101328
101328
101328
101328
101328
101328
101328
101328
101328
101327
101327
101327
101328
101328
101328
101328
101329
101329
101330
101328
101328
101328
101328
101328
101328
101328
101327
101327
101327
101327
101327
101327
101327
101328
101328
101329
101329
101329
101327
101327
101327
101327
101327
101327
101327
101327
101327
101326
101326
101326
101326
101327
101327
101328
101328
101328
101329
101327
101327
101327
101327
101327
101327
101327
101327
101326
101326
101326
101325
101325
101326
101327
101327
101327
101328
101328
101327
101327
101327
101327
101327
101326
101326
101326
101326
101325
101325
101325
101325
101325
101326
101327
101327
101327
101327
101326
101326
101326
101326
101326
101326
101326
101326
101325
101325
101325
101325
101325
101325
101325
101326
101326
101327
101327
101326
101326
101326
101326
101326
101326
101326
101325
101325
101324
101324
101325
101324
101325
101325
101326
101326
101326
101326
101326
101326
101326
101326
101326
101326
101325
101325
101325
101324
101325
101325
101325
101325
101325
101325
101326
101326
101326
101325
101325
101325
101325
101325
101325
101325
101325
101325
101324
101325
101325
101325
101325
101325
101325
101325
101326
101326
)
;

boundaryField
{
    leftWall
    {
        type            zeroGradient;
    }
    rightWall
    {
        type            zeroGradient;
    }
    lowerWall
    {
        type            zeroGradient;
    }
    atmosphere
    {
        type            fixedValue;
        value           uniform 101325;
    }
    defaultFaces
    {
        type            empty;
    }
}


// ************************************************************************* //
