/*--------------------------------*- C++ -*----------------------------------*\
| =========                 |                                                 |
| \\      /  F ield         | OpenFOAM: The Open Source CFD Toolbox           |
|  \\    /   O peration     | Version:  2012                                  |
|   \\  /    A nd           | Website:  www.openfoam.com                      |
|    \\/     M anipulation  |                                                 |
\*---------------------------------------------------------------------------*/
FoamFile
{
    version     2.0;
    format      ascii;
    class       surfaceScalarField;
    location    "0.73";
    object      phi;
}
// * * * * * * * * * * * * * * * * * * * * * * * * * * * * * * * * * * * * * //

dimensions      [0 3 -1 0 0 0 0];
oriented        oriented;


internalField   nonuniform List<scalar> 
4432
(
-1.35942e-06
1.35941e-06
-2.58674e-06
1.22733e-06
-3.94184e-06
1.3551e-06
-5.49174e-06
1.5499e-06
-7.05684e-06
1.5651e-06
-8.40986e-06
1.35301e-06
-9.73372e-06
1.32386e-06
-1.11552e-05
1.42144e-06
-1.2344e-05
1.18888e-06
-1.33968e-05
1.05276e-06
-1.42792e-05
8.82362e-07
-1.48965e-05
6.17297e-07
-1.51597e-05
2.63201e-07
-1.51354e-05
-2.42371e-08
-1.48951e-05
-2.40354e-07
-1.44689e-05
-4.26226e-07
-1.36753e-05
-7.93565e-07
-1.23734e-05
-1.30188e-06
-1.05836e-05
-1.78984e-06
-7.82502e-06
-2.75858e-06
-5.28428e-06
-2.54074e-06
-9.69585e-07
-4.3147e-06
-9.69615e-07
-1.38264e-06
2.74206e-06
-2.61769e-06
2.46237e-06
-3.9602e-06
2.69761e-06
-5.47944e-06
3.06915e-06
-7.02714e-06
3.1128e-06
-8.39248e-06
2.71835e-06
-9.74084e-06
2.67222e-06
-1.11681e-05
2.84874e-06
-1.23442e-05
2.36492e-06
-1.34124e-05
2.12101e-06
-1.43127e-05
1.78263e-06
-1.49306e-05
1.23518e-06
-1.52195e-05
5.52065e-07
-1.52223e-05
-2.14052e-08
-1.49929e-05
-4.69713e-07
-1.45611e-05
-8.58023e-07
-1.37792e-05
-1.57547e-06
-1.25242e-05
-2.55689e-06
-1.08228e-05
-3.49128e-06
-8.2678e-06
-5.31358e-06
-5.91478e-06
-4.89377e-06
-1.92927e-06
-8.30022e-06
-2.89892e-06
-1.38243e-06
4.12449e-06
-2.59277e-06
3.6727e-06
-3.91378e-06
4.01862e-06
-5.40544e-06
4.56081e-06
-6.97266e-06
4.68002e-06
-8.42712e-06
4.17281e-06
-9.87121e-06
4.1163e-06
-1.13284e-05
4.30589e-06
-1.25187e-05
3.55528e-06
-1.35827e-05
3.18496e-06
-1.44334e-05
2.63333e-06
-1.50128e-05
1.81457e-06
-1.52805e-05
8.19753e-07
-1.52961e-05
-5.74404e-09
-1.50693e-05
-6.96543e-07
-1.46385e-05
-1.28883e-06
-1.38288e-05
-2.38516e-06
-1.25304e-05
-3.85527e-06
-1.07695e-05
-5.25216e-06
-8.09987e-06
-7.98326e-06
-5.38157e-06
-7.61207e-06
-9.5046e-07
-1.27313e-05
-3.84942e-06
-1.39914e-06
5.52363e-06
-2.62664e-06
4.9002e-06
-3.96595e-06
5.35793e-06
-5.40765e-06
6.0025e-06
-6.91706e-06
6.18943e-06
-8.38507e-06
5.64082e-06
-9.8563e-06
5.58754e-06
-1.13108e-05
5.76042e-06
-1.25348e-05
4.77924e-06
-1.36385e-05
4.28873e-06
-1.45419e-05
3.53663e-06
-1.52141e-05
2.48683e-06
-1.556e-05
1.16564e-06
-1.56043e-05
3.85744e-08
-1.53659e-05
-9.34975e-07
-1.49561e-05
-1.69866e-06
-1.42404e-05
-3.10087e-06
-1.30556e-05
-5.04005e-06
-1.13882e-05
-6.91958e-06
-8.76388e-06
-1.06076e-05
-5.82691e-06
-1.0549e-05
-9.09266e-07
-1.7649e-05
-4.75872e-06
-1.31885e-06
6.84248e-06
-2.55395e-06
6.1353e-06
-3.88908e-06
6.69306e-06
-5.31315e-06
7.42656e-06
-6.8353e-06
7.71158e-06
-8.4522e-06
7.25772e-06
-1.00959e-05
7.23122e-06
-1.16098e-05
7.27433e-06
-1.28695e-05
6.03893e-06
-1.39561e-05
5.37531e-06
-1.47804e-05
4.36097e-06
-1.53944e-05
3.10078e-06
-1.56825e-05
1.45376e-06
-1.57147e-05
7.08249e-08
-1.54803e-05
-1.16944e-06
-1.51266e-05
-2.05229e-06
-1.4442e-05
-3.78552e-06
-1.32996e-05
-6.18242e-06
-1.16002e-05
-8.61906e-06
-8.9122e-06
-1.32955e-05
-5.31547e-06
-1.41458e-05
9.14346e-07
-2.38788e-05
-3.84438e-06
-1.26743e-06
8.10991e-06
-2.63627e-06
7.50414e-06
-4.01714e-06
8.07393e-06
-5.38407e-06
8.7935e-06
-6.79235e-06
9.11986e-06
-8.38104e-06
8.84641e-06
-1.00228e-05
8.873e-06
-1.15228e-05
8.77434e-06
-1.28621e-05
7.37818e-06
-1.40732e-05
6.58644e-06
-1.50399e-05
5.3277e-06
-1.57988e-05
3.85967e-06
-1.6162e-05
1.81695e-06
-1.61869e-05
9.56709e-08
-1.59346e-05
-1.42174e-06
-1.56647e-05
-2.32219e-06
-1.51356e-05
-4.3146e-06
-1.42002e-05
-7.11784e-06
-1.26263e-05
-1.01929e-05
-1.00055e-05
-1.59163e-05
-6.12055e-06
-1.80308e-05
9.45742e-07
-3.09451e-05
-2.89865e-06
-1.08698e-06
9.19688e-06
-2.47343e-06
8.8906e-06
-3.87392e-06
9.47441e-06
-5.22684e-06
1.01464e-05
-6.6498e-06
1.05428e-05
-8.44832e-06
1.06449e-05
-1.03552e-05
1.07798e-05
-1.19907e-05
1.04099e-05
-1.33646e-05
8.75209e-06
-1.45087e-05
7.73054e-06
-1.53508e-05
6.16975e-06
-1.6028e-05
4.53692e-06
-1.63182e-05
2.10705e-06
-1.63156e-05
9.31496e-08
-1.60936e-05
-1.64375e-06
-1.59525e-05
-2.46334e-06
-1.55073e-05
-4.75981e-06
-1.47047e-05
-7.9204e-06
-1.30892e-05
-1.18085e-05
-1.0455e-05
-1.85505e-05
-5.69481e-06
-2.2791e-05
2.78598e-06
-3.94259e-05
-1.12669e-07
-1.00886e-06
1.02057e-05
-2.42043e-06
1.03021e-05
-3.87342e-06
1.09274e-05
-5.19493e-06
1.14679e-05
-6.529e-06
1.18769e-05
-8.33384e-06
1.24498e-05
-1.02741e-05
1.27201e-05
-1.1993e-05
1.21288e-05
-1.35035e-05
1.02626e-05
-1.47539e-05
8.98093e-06
-1.57961e-05
7.21193e-06
-1.66738e-05
5.41468e-06
-1.69681e-05
2.4013e-06
-1.68496e-05
-2.53612e-08
-1.66e-05
-1.89333e-06
-1.6624e-05
-2.43928e-06
-1.63738e-05
-5.0101e-06
-1.58794e-05
-8.41482e-06
-1.45045e-05
-1.31833e-05
-1.26379e-05
-2.04172e-05
-8.69049e-06
-2.67384e-05
-4.91704e-06
-4.31994e-05
-5.02975e-06
-7.8737e-05
7.84799e-05
-0.000118732
3.98728e-05
-0.000135173
1.63958e-05
-0.00013779
2.59729e-06
-0.000126495
-1.12933e-05
-0.000108695
-1.78011e-05
-0.000100706
-8.01754e-06
-0.000110332
9.58806e-06
-0.000127064
1.66456e-05
-0.000137145
9.97247e-06
-0.000141799
4.59304e-06
-0.000143345
1.48888e-06
-0.000143701
3.06565e-07
-0.000144249
4.94428e-07
-0.000147159
2.86518e-06
-0.000151285
4.08518e-06
-0.000145717
-5.56508e-06
-0.000102823
-4.2779e-05
-0.000102897
-6.32237e-05
0.000141513
-9.7377e-05
7.39287e-05
-0.000110588
2.95693e-05
-0.000112391
4.3793e-06
-9.97399e-05
-2.39456e-05
-7.9529e-05
-3.80199e-05
-7.5454e-05
-1.21318e-05
-9.03367e-05
2.44211e-05
-0.000107127
3.33367e-05
-0.000115991
1.87289e-05
-0.000119667
8.17729e-06
-0.000121279
3.02578e-06
-0.000122935
1.89742e-06
-0.00012641
3.8938e-06
-0.000131219
7.57397e-06
-0.000133545
6.2915e-06
-0.000112488
-2.66875e-05
-6.86403e-05
-8.65829e-05
-0.000171764
-4.88629e-05
0.000190345
-7.35143e-05
9.85297e-05
-8.81103e-05
4.41071e-05
-9.06027e-05
6.79756e-06
-6.87641e-05
-4.58228e-05
-3.59295e-05
-7.08843e-05
-2.08699e-05
-2.72403e-05
-3.1882e-05
3.52296e-05
-5.54007e-05
5.65941e-05
-8.10064e-05
4.40714e-05
-0.00010559
3.24916e-05
-0.000120573
1.77531e-05
-0.000128525
9.61947e-06
-0.000132748
7.86355e-06
-0.000134113
8.69581e-06
-0.000124917
-3.17003e-06
-8.98414e-05
-6.19669e-05
-4.71574e-05
-0.000129429
-0.000219016
-3.31e-05
0.000223401
-5.82519e-05
0.000123602
-8.42899e-05
6.99544e-05
-8.2884e-05
5.16389e-06
-4.63786e-05
-8.24801e-05
-1.10879e-05
-0.00010625
1.45037e-05
-5.2835e-05
4.3412e-05
6.29719e-06
5.1811e-05
4.81278e-05
4.19229e-05
5.37915e-05
2.26591e-05
5.15474e-05
-8.7807e-06
4.89624e-05
-4.51989e-05
4.58018e-05
-7.27303e-05
3.5126e-05
-8.84536e-05
2.41697e-05
-6.92771e-05
-2.25855e-05
-4.65221e-05
-8.49448e-05
-1.3317e-05
-0.000162846
-0.000232441
-2.59784e-05
0.000249387
-4.26099e-05
0.00014016
-7.0804e-05
9.79633e-05
-5.63777e-05
-9.51585e-06
-1.17708e-05
-0.000127303
9.76767e-06
-0.000127859
2.47686e-05
-6.78396e-05
4.6199e-05
-1.51338e-05
6.34668e-05
3.08529e-05
7.48646e-05
4.23444e-05
8.4817e-05
4.14521e-05
9.34006e-05
4.01898e-05
0.000101592
3.73831e-05
9.72907e-05
3.92015e-05
7.93935e-05
4.18271e-05
3.01157e-05
2.64435e-05
9.98613e-07
-5.60665e-05
1.24205e-05
-0.000174322
-0.000220131
-1.55489e-05
0.000264904
-1.1983e-05
0.000136465
-8.36756e-07
8.66154e-05
3.54142e-06
-1.4104e-05
2.12066e-05
-0.00014507
2.51381e-05
-0.000131841
3.82494e-05
-8.09518e-05
5.28965e-05
-2.97814e-05
6.51464e-05
1.86026e-05
7.56194e-05
3.18705e-05
8.24018e-05
3.46649e-05
8.80379e-05
3.45237e-05
9.25186e-05
3.28213e-05
9.55792e-05
3.59991e-05
9.43988e-05
4.28204e-05
8.50115e-05
3.56043e-05
5.60591e-05
-2.73389e-05
2.35562e-05
-0.000141873
-0.000196674
-3.68443e-06
0.000268534
-3.69559e-05
0.000169512
-9.37675e-06
5.88342e-05
3.72428e-05
-6.09337e-05
3.26892e-05
-0.000140608
3.41926e-05
-0.000133366
4.39942e-05
-9.07553e-05
5.41535e-05
-3.99491e-05
6.36549e-05
9.09969e-06
7.41204e-05
2.14043e-05
8.14635e-05
2.73211e-05
8.68328e-05
2.91536e-05
9.13164e-05
2.8337e-05
9.49882e-05
3.23246e-05
9.74896e-05
4.02748e-05
9.63013e-05
3.66405e-05
8.04535e-05
-1.16072e-05
2.54379e-05
-8.68837e-05
-0.0001712
3.53635e-06
0.000264925
-3.78468e-05
0.000210643
-1.93422e-05
4.01285e-05
4.081e-05
-0.000121244
3.58311e-05
-0.000135699
3.86492e-05
-0.0001362
4.8447e-05
-0.000100613
5.69135e-05
-4.8527e-05
6.34644e-05
2.46674e-06
7.1973e-05
1.28334e-05
7.86052e-05
2.06569e-05
8.39394e-05
2.37996e-05
8.84265e-05
2.38415e-05
9.19843e-05
2.87645e-05
9.33606e-05
3.88958e-05
9.02989e-05
3.96971e-05
7.28219e-05
5.86282e-06
2.06067e-05
-3.46736e-05
-0.000150612
-1.64688e-06
1.18635e-05
-4.22858e-06
1.28946e-05
-7.14586e-06
1.38531e-05
-1.00806e-05
1.4406e-05
-1.29153e-05
1.47112e-05
-1.63675e-05
1.59001e-05
-2.00299e-05
1.63808e-05
-2.38957e-05
1.59938e-05
-2.7876e-05
1.4243e-05
-3.13895e-05
1.24944e-05
-3.43695e-05
1.0192e-05
-3.63892e-05
7.43431e-06
-3.65203e-05
2.53242e-06
-3.59342e-05
-6.11459e-07
-3.54588e-05
-2.36875e-06
-3.61768e-05
-1.7213e-06
-3.62054e-05
-4.98144e-06
-3.59423e-05
-8.67798e-06
-3.47669e-05
-1.43587e-05
-3.60319e-05
-1.91521e-05
-3.21674e-05
-3.0603e-05
-3.12346e-05
-4.41327e-05
-5.15481e-05
1.52403e-05
-3.18091e-06
1.50517e-05
-7.79262e-06
1.75164e-05
-1.51438e-05
2.12223e-05
-2.25879e-05
2.1883e-05
-2.64073e-05
1.85766e-05
-2.82701e-05
1.78196e-05
-3.02087e-05
1.838e-05
-3.25075e-05
1.83471e-05
-3.42564e-05
1.60182e-05
-3.51296e-05
1.33713e-05
-3.52112e-05
1.02728e-05
-3.47319e-05
6.95369e-06
-3.44048e-05
2.20485e-06
-3.50218e-05
5.53866e-09
-3.64778e-05
-9.12801e-07
-3.92713e-05
1.07217e-06
-4.16043e-05
-2.64843e-06
-4.3762e-05
-6.52026e-06
-4.58932e-05
-1.22276e-05
-5.14265e-05
-1.36188e-05
-5.87865e-05
-2.3243e-05
-7.01936e-05
-3.27338e-05
-5.62937e-05
-6.5699e-05
-8.08277e-06
2.31261e-05
-1.57564e-05
2.5182e-05
-2.34911e-05
2.89495e-05
-2.96463e-05
2.80322e-05
-3.40141e-05
2.29411e-05
-3.82952e-05
2.2103e-05
-4.35359e-05
2.36323e-05
-4.95468e-05
2.43854e-05
-5.30253e-05
1.95578e-05
-5.34379e-05
1.3862e-05
-5.26312e-05
9.52959e-06
-5.10712e-05
5.42848e-06
-4.66719e-05
-2.18045e-06
-3.90907e-05
-7.57812e-06
-3.25888e-05
-7.42281e-06
-3.04744e-05
-1.04874e-06
-3.24144e-05
-7.16701e-07
-3.73564e-05
-1.58268e-06
-4.17691e-05
-7.81815e-06
-4.99697e-05
-5.41825e-06
-6.41621e-05
-9.05105e-06
-8.50492e-05
-1.18495e-05
-1.90524e-05
-0.000122481
-9.99979e-06
3.31172e-05
-1.85984e-05
3.37719e-05
-2.42406e-05
3.4583e-05
-2.87544e-05
3.25372e-05
-3.72667e-05
3.14443e-05
-4.85122e-05
3.33399e-05
-5.81547e-05
3.32665e-05
-6.68324e-05
3.30561e-05
-7.41051e-05
2.68267e-05
-7.87755e-05
1.8537e-05
-8.16821e-05
1.2452e-05
-8.34734e-05
7.23091e-06
-8.10334e-05
-4.6238e-06
-7.75023e-05
-1.11146e-05
-7.95866e-05
-5.33933e-06
-9.00647e-05
9.43877e-06
-9.58512e-05
5.08617e-06
-8.40241e-05
-1.33952e-05
-6.35852e-05
-2.82989e-05
-5.32974e-05
-1.57404e-05
-5.82038e-05
-4.17202e-06
-7.41164e-05
4.06234e-06
3.94999e-06
-9.71307e-05
-9.08443e-06
4.21931e-05
-1.80014e-05
4.26803e-05
-2.63198e-05
4.28928e-05
-3.54461e-05
4.16548e-05
-4.7265e-05
4.32545e-05
-6.04661e-05
4.65323e-05
-7.27577e-05
4.55493e-05
-8.46643e-05
4.49537e-05
-9.90837e-05
4.12371e-05
-0.000118319
3.7763e-05
-0.000144521
3.86474e-05
-0.000194044
5.6748e-05
-0.000266839
6.81643e-05
-0.000329559
5.15989e-05
-0.0003492
1.43152e-05
-0.000334068
-5.64215e-06
-0.000296857
-3.20356e-05
-0.000247881
-6.2186e-05
-0.000197809
-7.82165e-05
-0.000150458
-6.29638e-05
-0.000119964
-3.45848e-05
-0.000104595
-1.12956e-05
-6.083e-06
-9.45687e-05
-8.9283e-06
5.11129e-05
-1.78208e-05
5.15643e-05
-2.72114e-05
5.22749e-05
-3.8244e-05
5.26788e-05
-5.06028e-05
5.56047e-05
-6.4394e-05
6.03148e-05
-8.15406e-05
6.26872e-05
-0.000102617
6.60211e-05
-0.000130451
6.90622e-05
-0.000169057
7.63596e-05
-0.000221989
9.1571e-05
-0.000295055
0.000129808
-0.000379192
0.000152288
-0.000440807
0.000113202
-0.000453764
2.72584e-05
-0.000418711
-4.07066e-05
-0.000370666
-7.99759e-05
-0.000335901
-9.65745e-05
-0.000310107
-0.000103498
-0.000276036
-9.65166e-05
-0.00023268
-7.74867e-05
-0.000186009
-5.80082e-05
-5.45354e-05
-0.000137776
-8.41962e-06
5.95242e-05
-1.70404e-05
6.01767e-05
-2.62435e-05
6.14696e-05
-3.68082e-05
6.3235e-05
-4.83692e-05
6.71572e-05
-6.11496e-05
7.30867e-05
-7.71843e-05
7.87132e-05
-9.84969e-05
8.73249e-05
-0.000128033
9.85896e-05
-0.000168328
0.000116646
-0.000217622
0.000140857
-0.000264308
0.000176486
-0.00030604
0.000194006
-0.000341054
0.000148203
-0.000357456
4.36483e-05
-0.000360693
-3.74787e-05
-0.000353629
-8.69786e-05
-0.000342232
-0.000106976
-0.000335148
-0.0001099
-0.000326472
-0.00010509
-0.000311824
-9.25485e-05
-0.000296782
-7.47429e-05
-1.48507e-05
-0.000336982
-7.78665e-06
6.73026e-05
-1.57608e-05
6.81426e-05
-2.41454e-05
6.9846e-05
-3.32838e-05
7.23652e-05
-4.29011e-05
7.67661e-05
-5.31765e-05
8.33537e-05
-6.53421e-05
9.08703e-05
-8.03537e-05
0.000102328
-9.94984e-05
0.000117726
-0.000123965
0.000141104
-0.000153703
0.000170587
-0.00018088
0.000203657
-0.000209736
0.000222853
-0.000253629
0.000192086
-0.000300419
9.04276e-05
-0.00032375
-1.41554e-05
-0.000325308
-8.54e-05
-0.000323174
-0.000108234
-0.000321657
-0.000110659
-0.000325163
-0.000101656
-0.000337229
-8.18023e-05
-0.0003575
-5.5105e-05
6.545e-06
-0.000379223
-6.99241e-06
7.42869e-05
-1.40489e-05
7.5191e-05
-2.12557e-05
7.70447e-05
-2.89057e-05
8.0007e-05
-3.67055e-05
8.45577e-05
-4.45785e-05
9.12185e-05
-5.28214e-05
9.9105e-05
-6.11679e-05
0.000110666
-6.90135e-05
0.000125563
-7.53405e-05
0.000147423
-7.95363e-05
0.000174775
-8.07266e-05
0.00020484
-8.00075e-05
0.000222127
-9.83672e-05
0.000210436
-0.000149075
0.000141126
-0.000212344
4.91049e-05
-0.000270308
-2.74365e-05
-0.000291924
-8.6576e-05
-0.000286763
-0.000115197
-0.000287068
-0.000100709
-0.000296846
-7.24712e-05
-0.00030279
-5.02368e-05
-3.23896e-05
-0.00026416
-5.96208e-06
8.02411e-05
-1.19092e-05
8.11302e-05
-1.78239e-05
8.29515e-05
-2.37941e-05
8.59692e-05
-2.95659e-05
9.03216e-05
-3.48779e-05
9.65226e-05
-3.9665e-05
0.000103884
-4.33142e-05
0.000114307
-4.45509e-05
0.000126791
-4.08609e-05
0.000143725
-2.87324e-05
0.000162638
-8.23786e-06
0.000184338
1.59888e-05
0.000197893
3.11993e-05
0.000195219
1.6529e-05
0.000155788
-3.6283e-05
0.000101908
-0.000112031
4.83047e-05
-0.000186313
-1.23014e-05
-0.000246042
-5.54761e-05
-0.000272492
-7.41361e-05
-0.000264102
-7.93921e-05
-0.000255364
-5.86157e-05
-4.6065e-05
-0.000241975
-4.94777e-06
8.51811e-05
-9.85941e-06
8.60341e-05
-1.47475e-05
8.78318e-05
-1.9446e-05
9.066e-05
-2.36669e-05
9.45346e-05
-2.71741e-05
0.000100022
-2.96832e-05
0.000106385
-3.05242e-05
0.00011514
-2.86987e-05
0.000124958
-2.26883e-05
0.000137707
-1.02459e-05
0.000150188
1.05257e-05
0.000163559
3.8018e-05
0.000170394
6.46876e-05
0.000168543
7.46806e-05
0.000145788
6.62953e-05
0.000110285
3.59576e-05
7.8635e-05
-3.13838e-05
5.50308e-05
-0.000128201
4.13337e-05
-0.000208977
6.62865e-06
-0.000244458
-4.39216e-05
-0.000249226
-5.35435e-05
-6.08813e-05
-0.000232658
-4.05752e-06
8.92311e-05
-8.02146e-06
8.99905e-05
-1.17523e-05
9.15551e-05
-1.50923e-05
9.39924e-05
-1.77962e-05
9.72309e-05
-1.95786e-05
0.000101797
-2.01126e-05
0.000106912
-1.88801e-05
0.0001139
-1.50243e-05
0.000121095
-7.57946e-06
0.000130254
4.56608e-06
0.000138035
2.23291e-05
0.000145788
4.42773e-05
0.000148438
6.62432e-05
0.00014657
7.8614e-05
0.00013341
7.62918e-05
0.0001126
6.28242e-05
9.20947e-05
4.34758e-05
7.43708e-05
1.11564e-05
7.36445e-05
-5.81763e-05
7.59526e-05
-0.00015157
4.9461e-05
-0.000216175
1.10516e-05
-4.23515e-05
-0.000234716
-3.24929e-06
9.2473e-05
-6.39271e-06
9.31266e-05
-9.3106e-06
9.44656e-05
-1.18033e-05
9.64777e-05
-1.36428e-05
9.9063e-05
-1.4579e-05
0.000102726
-1.42494e-05
0.000106575
-1.22434e-05
0.000111887
-7.98466e-06
0.000116828
-8.5098e-07
0.000123113
9.53375e-06
0.000127643
2.36445e-05
0.00013167
4.06041e-05
0.000131471
5.87433e-05
0.000128423
7.25059e-05
0.00011964
7.7816e-05
0.000107282
7.53567e-05
9.45461e-05
6.53845e-05
8.43342e-05
5.70861e-05
8.19342e-05
4.6981e-05
8.60485e-05
5.48664e-06
9.09459e-05
-5.96677e-05
7.61956e-05
2.05121e-05
-0.000122542
-2.56652e-06
9.50324e-05
-4.96102e-06
9.55139e-05
-7.03067e-06
9.6528e-05
-8.63656e-06
9.80764e-05
-9.54389e-06
9.99631e-05
-9.58117e-06
0.000102756
-8.40757e-06
0.000105394
-5.72841e-06
0.0001092
-1.18765e-06
0.00011228
5.6583e-06
0.00011626
1.47814e-05
0.000118512
2.61078e-05
0.000120336
3.86338e-05
0.000118937
5.14949e-05
0.000115554
6.28934e-05
0.000108234
7.07828e-05
9.93845e-05
7.44514e-05
9.08697e-05
7.62183e-05
8.2559e-05
7.94515e-05
7.86927e-05
8.67073e-05
7.87841e-05
9.92479e-05
7.83964e-05
0.000103933
7.15019e-05
4.56535e-05
7.87817e-05
-2.03251e-06
9.70579e-05
-3.9214e-06
9.73958e-05
-5.53583e-06
9.81355e-05
-6.73892e-06
9.92724e-05
-7.32518e-06
0.000100542
-7.11094e-06
0.000102534
-5.83351e-06
0.000104109
-3.24829e-06
0.000106608
9.05301e-07
0.00010812
6.91169e-06
0.000110246
1.4673e-05
0.000110744
2.40804e-05
0.000110921
3.44266e-05
0.000108584
4.48915e-05
0.000105082
5.4298e-05
9.882e-05
6.20583e-05
9.16164e-05
6.84535e-05
8.44668e-05
7.2703e-05
7.83013e-05
7.76851e-05
7.37022e-05
8.58173e-05
7.06432e-05
9.64189e-05
6.7786e-05
0.000105327
6.25849e-05
4.27372e-05
0.000108234
-1.60949e-06
9.86606e-05
-3.07726e-06
9.88568e-05
-4.26873e-06
9.93202e-05
-5.03897e-06
0.000100036
-5.19614e-06
0.000100693
-4.59413e-06
0.000101926
-3.01986e-06
0.000102528
-3.53798e-07
0.000103935
3.53333e-06
0.000104226
8.7648e-06
0.000105008
1.52704e-05
0.000104231
2.29167e-05
0.000103268
3.13127e-05
0.000100181
3.99525e-05
9.6435e-05
4.81586e-05
9.06066e-05
5.54833e-05
8.42842e-05
6.24652e-05
7.74774e-05
6.93843e-05
7.13744e-05
7.67549e-05
6.63236e-05
8.58553e-05
6.15346e-05
9.72664e-05
5.63665e-05
0.000108135
5.17073e-05
4.15776e-05
0.000109286
-1.38509e-06
0.000100039
-2.63957e-06
0.000100105
-3.6484e-06
0.000100322
-4.29052e-06
0.000100671
-4.41861e-06
0.000100814
-3.88167e-06
0.000101382
-2.47718e-06
0.000101117
-1.91412e-07
0.000101643
3.16135e-06
0.000100866
7.58631e-06
0.000100576
1.3088e-05
9.87229e-05
1.95385e-05
9.68106e-05
2.66536e-05
9.30586e-05
3.41494e-05
8.89322e-05
4.1542e-05
8.32069e-05
4.857e-05
7.72489e-05
5.53297e-05
7.07102e-05
6.22094e-05
6.44871e-05
6.97377e-05
5.87875e-05
7.78564e-05
5.34078e-05
8.68797e-05
4.7335e-05
9.71399e-05
4.14388e-05
3.45021e-05
0.000104207
-1.22787e-06
0.000101261
-2.33949e-06
0.00010121
-3.25161e-06
0.000101228
-3.8458e-06
0.000101259
-4.02195e-06
0.000100984
-3.6105e-06
0.000100964
-2.49009e-06
9.99901e-05
-5.88564e-07
9.97348e-05
2.30307e-06
9.7968e-05
6.06027e-06
9.68124e-05
1.07963e-05
9.39802e-05
1.63329e-05
9.12673e-05
2.24571e-05
8.69276e-05
2.90455e-05
8.23369e-05
3.57624e-05
7.64831e-05
4.26162e-05
7.03879e-05
4.95552e-05
6.37641e-05
5.67473e-05
5.72875e-05
6.46687e-05
5.08586e-05
7.2992e-05
4.50768e-05
8.12732e-05
3.90459e-05
9.01716e-05
3.25323e-05
2.74743e-05
9.71912e-05
-1.26564e-06
0.00010252
-2.4225e-06
0.000102361
-3.40288e-06
0.000102202
-4.06091e-06
0.000101911
-4.28963e-06
0.000101207
-3.9876e-06
0.000100656
-3.1027e-06
9.90989e-05
-1.5285e-06
9.81543e-05
8.26343e-07
9.56068e-05
3.82871e-06
9.38037e-05
7.66858e-06
9.01339e-05
1.22133e-05
8.67161e-05
1.73903e-05
8.17441e-05
2.31629e-05
7.65577e-05
2.92901e-05
7.03492e-05
3.57968e-05
6.38744e-05
4.2656e-05
5.68978e-05
4.98387e-05
5.00977e-05
5.76897e-05
4.30004e-05
6.61773e-05
3.65817e-05
7.47292e-05
3.04865e-05
8.3835e-05
2.34188e-05
1.82591e-05
9.30425e-05
-1.41697e-06
0.000103931
-2.73387e-06
0.000103672
-3.8882e-06
0.000103351
-4.75607e-06
0.000102773
-5.26513e-06
0.00010171
-5.34197e-06
0.000100727
-4.97548e-06
9.87265e-05
-3.98873e-06
9.71616e-05
-2.29035e-06
9.39024e-05
1.61024e-07
9.13462e-05
3.45269e-06
8.68361e-05
7.44315e-06
8.27194e-05
1.21037e-05
7.70772e-05
1.73228e-05
7.13321e-05
2.30439e-05
6.46216e-05
2.92695e-05
5.76422e-05
3.60654e-05
5.00952e-05
4.33622e-05
4.2794e-05
5.134e-05
3.50156e-05
6.00793e-05
2.78354e-05
6.90924e-05
2.1466e-05
7.83973e-05
1.41065e-05
8.62212e-06
8.80266e-05
-1.6869e-06
0.000105613
-3.28832e-06
0.000105268
-4.72246e-06
0.000104779
-5.89888e-06
0.000103944
-6.7559e-06
0.000102561
-7.17609e-06
0.000101141
-7.1522e-06
9.86968e-05
-6.51519e-06
9.65188e-05
-5.28167e-06
9.2663e-05
-3.32709e-06
8.93857e-05
-7.38695e-07
8.42418e-05
2.46016e-06
7.95146e-05
6.36384e-06
7.31675e-05
1.08212e-05
6.68685e-05
1.60265e-05
5.941e-05
2.18883e-05
5.1774e-05
2.8508e-05
4.3469e-05
3.58659e-05
3.54295e-05
4.39938e-05
2.6881e-05
5.31021e-05
1.87201e-05
6.28928e-05
1.16683e-05
7.33788e-05
3.61339e-06
-2.55056e-06
8.45442e-05
-2.08286e-06
0.00010769
-4.10998e-06
0.000107289
-5.9498e-06
0.000106614
-7.5648e-06
0.000105553
-8.89134e-06
0.000103882
-9.79691e-06
0.000102041
-1.03075e-05
9.92019e-05
-1.02552e-05
9.6461e-05
-9.73294e-06
9.21351e-05
-8.52032e-06
8.81674e-05
-6.68624e-06
8.2402e-05
-4.1154e-06
7.6938e-05
-7.13042e-07
6.97593e-05
3.32217e-06
6.28274e-05
8.26083e-06
5.44653e-05
1.38866e-05
4.61422e-05
2.04111e-05
3.69382e-05
2.78664e-05
2.79679e-05
3.6246e-05
1.8495e-05
4.57491e-05
9.21043e-06
5.61811e-05
1.22963e-06
6.75711e-05
-7.78347e-06
-1.47726e-05
7.97863e-05
-2.61514e-06
0.0001103
-5.19787e-06
0.000109867
-7.57388e-06
0.000108985
-9.74121e-06
0.000107716
-1.16371e-05
0.000105773
-1.3132e-05
0.000103531
-1.42591e-05
0.000100324
-1.48134e-05
9.701e-05
-1.49309e-05
9.22473e-05
-1.43716e-05
8.76028e-05
-1.32259e-05
8.12509e-05
-1.13789e-05
7.50854e-05
-8.7904e-06
6.71652e-05
-5.4844e-06
5.95158e-05
-1.14443e-06
5.01196e-05
3.9732e-06
4.10187e-05
1.02137e-05
3.06918e-05
1.7562e-05
2.06136e-05
2.59952e-05
1.00556e-05
3.57991e-05
-5.99813e-07
4.69387e-05
-9.91629e-06
5.95501e-05
-2.04013e-05
-2.86361e-05
7.34072e-05
-3.3076e-06
0.000113603
-6.59592e-06
0.00011315
-9.68078e-06
0.000112065
-1.25714e-05
0.000110601
-1.51943e-05
0.000108391
-1.74405e-05
0.000105772
-1.9344e-05
0.000102222
-2.07172e-05
9.83782e-05
-2.16885e-05
9.32135e-05
-2.203e-05
8.79391e-05
-2.17708e-05
8.09866e-05
-2.07387e-05
7.40481e-05
-1.8912e-05
6.53333e-05
-1.61967e-05
5.6795e-05
-1.24905e-05
4.6408e-05
-7.89684e-06
3.64195e-05
-1.96705e-06
2.47563e-05
5.18697e-06
1.34538e-05
1.36414e-05
1.59532e-06
2.36242e-05
-1.05886e-05
3.51046e-05
-2.14027e-05
4.83372e-05
-3.36403e-05
-4.34067e-05
6.31013e-05
-4.11503e-06
0.000117713
-8.20997e-06
0.00011724
-1.21305e-05
0.00011598
-1.58804e-05
0.000114347
-1.93828e-05
0.000111888
-2.2553e-05
0.000108938
-2.54047e-05
0.000105069
-2.77663e-05
0.000100735
-2.97061e-05
9.51485e-05
-3.10132e-05
8.92412e-05
-3.17686e-05
8.1737e-05
-3.18406e-05
7.41152e-05
-3.12518e-05
6.47393e-05
-2.98005e-05
5.53386e-05
-2.73938e-05
4.3996e-05
-2.38646e-05
3.2885e-05
-1.9012e-05
1.98983e-05
-1.27965e-05
7.23278e-06
-4.70493e-06
-6.50188e-06
5.15334e-06
-2.04527e-05
1.68678e-05
-3.31231e-05
3.08186e-05
-4.75972e-05
-5.92529e-05
4.66585e-05
-5.0628e-06
0.000122771
-1.00926e-05
0.000122266
-1.49914e-05
0.000120875
-1.97309e-05
0.000119082
-2.42397e-05
0.000116393
-2.84544e-05
0.000113148
-3.23587e-05
0.000108969
-3.583e-05
0.000104202
-3.8912e-05
9.82261e-05
-4.14435e-05
9.17681e-05
-4.3477e-05
8.37658e-05
-4.47836e-05
7.54171e-05
-4.52891e-05
6.524e-05
-4.47752e-05
5.48199e-05
-4.33598e-05
4.25757e-05
-4.07175e-05
3.02377e-05
-3.68174e-05
1.59931e-05
-3.12782e-05
1.6884e-06
-2.39275e-05
-1.38579e-05
-1.50026e-05
-2.9383e-05
-3.90571e-06
-4.42256e-05
9.50611e-06
-6.10147e-05
-7.47539e-05
2.50014e-05
-6.04495e-06
0.000128812
-1.20542e-05
0.000128271
-1.79946e-05
0.000126811
-2.38184e-05
0.000124901
-2.94736e-05
0.000122044
-3.4904e-05
0.000118574
-4.00589e-05
0.00011412
-4.48398e-05
0.000108978
-4.92487e-05
0.000102631
-5.31281e-05
9.56433e-05
-5.64895e-05
8.71229e-05
-5.91485e-05
7.80716e-05
-6.12105e-05
6.72975e-05
-6.24163e-05
5.60211e-05
-6.26572e-05
4.2812e-05
-6.13608e-05
2.89365e-05
-5.87101e-05
1.33375e-05
-5.45107e-05
-2.51589e-06
-4.91283e-05
-1.92453e-05
-4.21556e-05
-3.63607e-05
-3.23603e-05
-5.40259e-05
-2.05194e-05
-7.28607e-05
-8.89906e-05
-6.28793e-06
-7.10429e-06
0.000135913
-1.4166e-05
0.000135329
-2.11838e-05
0.000133825
-2.80903e-05
0.000131804
-3.48536e-05
0.000128803
-4.14267e-05
0.000125144
-4.77547e-05
0.000120444
-5.37697e-05
0.000114989
-5.94445e-05
0.000108301
-6.46589e-05
0.000100854
-6.94137e-05
9.18736e-05
-7.35229e-05
8.21767e-05
-7.68866e-05
7.06571e-05
-7.92275e-05
5.83577e-05
-8.06299e-05
4.42099e-05
-8.10245e-05
2.93266e-05
-8.08091e-05
1.31177e-05
-8.02004e-05
-3.12894e-06
-7.84304e-05
-2.10198e-05
-7.31539e-05
-4.16418e-05
-6.44628e-05
-6.27218e-05
-5.35376e-05
-8.37908e-05
-0.000103072
-3.94616e-05
-8.14706e-06
0.000144056
-1.62772e-05
0.000143456
-2.44162e-05
0.00014196
-3.24998e-05
0.000139884
-4.05062e-05
0.000136806
-4.83813e-05
0.000133015
-5.60627e-05
0.000128121
-6.3482e-05
0.000122405
-7.05812e-05
0.000115397
-7.72537e-05
0.000107522
-8.34765e-05
9.80927e-05
-8.91269e-05
8.78232e-05
-9.42662e-05
7.57924e-05
-9.87157e-05
6.28032e-05
-0.000102669
4.81588e-05
-0.000106472
3.31258e-05
-0.000110601
1.72431e-05
-0.000112319
-1.41457e-06
-0.000109096
-2.42477e-05
-0.00010213
-4.86127e-05
-9.25805e-05
-7.22758e-05
-8.0592e-05
-9.57841e-05
-0.000118173
-6.54953e-05
-9.15931e-06
0.000153212
-1.82985e-05
0.000152592
-2.74387e-05
0.000151097
-3.65252e-05
0.000148967
-4.55508e-05
0.000145828
-5.44761e-05
0.000141937
-6.32528e-05
0.000136895
-7.18332e-05
0.000130982
-8.01566e-05
0.000123717
-8.81502e-05
0.000115513
-9.5782e-05
0.000105721
-0.000102972
9.50099e-05
-0.00010983
8.26461e-05
-0.000116729
6.96994e-05
-0.000124487
5.59131e-05
-0.000132974
4.16091e-05
-0.000138632
2.2898e-05
-0.000137019
-3.0323e-06
-0.000130928
-3.03426e-05
-0.000123189
-5.63558e-05
-0.000112893
-8.25761e-05
-0.000100039
-0.000108642
-0.000134337
-8.38795e-05
-1.0286e-05
0.000163495
-2.05742e-05
0.000162877
-3.08868e-05
0.000161407
-4.1187e-05
0.000159264
-5.14632e-05
0.000156102
-6.16757e-05
0.000152147
-7.17751e-05
0.000146991
-8.17211e-05
0.000140925
-9.148e-05
0.000133473
-0.000101082
0.000125112
-0.000110651
0.000115286
-0.000120497
0.000104853
-0.000130924
9.30697e-05
-0.000141811
8.0584e-05
-0.000152674
6.67736e-05
-0.000159428
4.83596e-05
-0.000157884
2.13498e-05
-0.000152634
-8.28509e-06
-0.00014676
-3.62206e-05
-0.000138506
-6.46133e-05
-0.000127478
-9.36084e-05
-0.0001132
-0.000122925
-0.000151749
-9.57925e-05
-1.09893e-05
0.000174482
-2.20176e-05
0.000173902
-3.31232e-05
0.00017251
-4.42694e-05
0.000170408
-5.54491e-05
0.000167279
-6.66358e-05
0.000163331
-7.77965e-05
0.000158149
-8.89112e-05
0.000152037
-9.99539e-05
0.000144513
-0.000110973
0.000136128
-0.000122124
0.000126434
-0.000133898
0.000116626
-0.000147275
0.000106443
-0.000162126
9.54331e-05
-0.000173071
7.77156e-05
-0.000173365
4.86502e-05
-0.000168688
1.66687e-05
-0.0001644
-1.25759e-05
-0.000157482
-4.31414e-05
-0.000147484
-7.46155e-05
-0.000134663
-0.000106432
-0.000119291
-0.000138301
-0.000169095
-0.000101949
-1.24436e-05
0.000186923
-2.48423e-05
0.000186299
-3.72077e-05
0.000184873
-4.96089e-05
0.000182807
-6.20614e-05
0.000179729
-7.45425e-05
0.00017581
-8.70897e-05
0.000170694
-9.9775e-05
0.00016472
-0.00011274
0.000157476
-0.000126206
0.000149591
-0.000140513
0.000140739
-0.000155664
0.000131774
-0.000170776
0.000121554
-0.000182194
0.000106848
-0.000184247
7.97654e-05
-0.000180547
4.49475e-05
-0.000177088
1.32063e-05
-0.000170987
-1.86789e-05
-0.000161771
-5.23605e-05
-0.000150505
-8.58851e-05
-0.000137174
-0.000119767
-0.000122718
-0.00015276
-0.000184927
-0.00010689
-1.26008e-05
0.000199522
-2.52637e-05
0.00019896
-3.80539e-05
0.000197662
-5.10157e-05
0.000195767
-6.41862e-05
0.000192897
-7.75457e-05
0.000189167
-9.10672e-05
0.000184214
-0.000104819
0.00017847
-0.000119014
0.000171669
-0.000134081
0.000164657
-0.000150592
0.000157247
-0.000168471
0.000149652
-0.000184901
0.000137983
-0.000191352
0.000113297
-0.000188154
7.65643e-05
-0.000184735
4.15261e-05
-0.000179845
8.31437e-06
-0.000171378
-2.71491e-05
-0.000161372
-6.2369e-05
-0.000149815
-9.74453e-05
-0.000137262
-0.000132323
-0.000123712
-0.000166314
-0.000199494
-0.000109149
-1.40475e-05
0.000213568
-2.82293e-05
0.00021314
-4.25956e-05
0.000212026
-5.70449e-05
0.000210215
-7.15889e-05
0.00020744
-8.63213e-05
0.000203898
-0.000101357
0.000199248
-0.000116729
0.00019384
-0.000132665
0.000187603
-0.00014952
0.00018151
-0.000167437
0.000175163
-0.000184903
0.000167116
-0.000195446
0.000148525
-0.00019509
0.000112938
-0.000191226
7.26981e-05
-0.000186321
3.66198e-05
-0.000178346
3.36653e-07
-0.000169042
-3.64554e-05
-0.00015871
-7.2703e-05
-0.000147508
-0.000108651
-0.000135639
-0.000144195
-0.000122936
-0.00017902
-0.000212811
-0.000109621
-1.40552e-05
0.000227622
-2.82235e-05
0.000227307
-4.25935e-05
0.000226395
-5.72245e-05
0.000224844
-7.21823e-05
0.000222396
-8.75881e-05
0.000219303
-0.000103608
0.000215267
-0.000120365
0.000210596
-0.00013809
0.000205326
-0.000156846
0.000200265
-0.000176023
0.000194339
-0.00019152
0.000182611
-0.000196093
0.000153096
-0.000192471
0.000109314
-0.000188281
6.85063e-05
-0.00018208
3.04172e-05
-0.00017318
-8.56592e-06
-0.000163703
-4.59339e-05
-0.000153464
-8.29445e-05
-0.000142791
-0.000119326
-0.000131729
-0.00015526
-0.000120084
-0.000190668
-0.000224965
-0.000107933
-1.5083e-05
0.000242704
-3.03252e-05
0.000242548
-4.58988e-05
0.000241968
-6.19594e-05
0.000240904
-7.86013e-05
0.000239037
-9.5786e-05
0.000236486
-0.000113468
0.000232948
-0.000131839
0.000228966
-0.000151332
0.000224819
-0.000171249
0.000220182
-0.000189338
0.000212428
-0.000198751
0.000192023
-0.000197257
0.0001516
-0.00019214
0.000104195
-0.000185544
6.19092e-05
-0.000176744
2.16163e-05
-0.000167292
-1.80197e-05
-0.000157258
-5.59703e-05
-0.000147144