/*--------------------------------*- C++ -*----------------------------------*\
| =========                 |                                                 |
| \\      /  F ield         | OpenFOAM: The Open Source CFD Toolbox           |
|  \\    /   O peration     | Version:  2012                                  |
|   \\  /    A nd           | Website:  www.openfoam.com                      |
|    \\/     M anipulation  |                                                 |
\*---------------------------------------------------------------------------*/
FoamFile
{
    version     2.0;
    format      ascii;
    class       volScalarField;
    location    "0.73";
    object      rho;
}
// * * * * * * * * * * * * * * * * * * * * * * * * * * * * * * * * * * * * * //

dimensions      [1 -3 0 0 0 0 0];


internalField   nonuniform List<scalar> 
2268
(
1000.05
1000.05
1000.05
1000.05
1000.05
1000.05
1000.05
1000.05
1000.05
1000.05
1000.05
1000.05
1000.05
1000.05
1000.05
1000.05
1000.05
1000.05
1000.05
1000.05
1000.05
1000.04
999.83
1000.05
1000.05
1000.05
1000.05
1000.05
1000.05
1000.05
1000.05
1000.05
1000.05
1000.05
1000.05
1000.05
1000.05
1000.05
1000.05
1000.05
1000.05
1000.05
1000.05
1000.05
999.995
999.765
1000.05
1000.05
1000.05
1000.05
1000.05
1000.05
1000.05
1000.05
1000.05
1000.05
1000.05
1000.05
1000.05
1000.05
1000.05
1000.05
1000.05
1000.05
1000.05
1000.05
1000.05
1000.01
999.765
1000.05
1000.05
1000.05
1000.05
1000.05
1000.05
1000.05
1000.05
1000.05
1000.05
1000.05
1000.05
1000.05
1000.05
1000.05
1000.05
1000.05
1000.05
1000.05
1000.05
1000.05
1000.03
999.792
1000.05
1000.05
1000.05
1000.05
1000.05
1000.05
1000.05
1000.05
1000.05
1000.05
1000.05
1000.05
1000.05
1000.05
1000.05
1000.05
1000.05
1000.05
1000.05
1000.05
1000.05
1000.05
1000.05
1000.05
1000.05
1000.05
1000.05
1000.05
1000.05
1000.05
1000.05
1000.05
1000.05
1000.05
1000.05
1000.05
1000.05
1000.05
1000.05
1000.05
1000.05
1000.05
1000.05
1000.05
1000.05
1000.05
1000.05
1000.05
1000.05
1000.05
1000.05
1000.05
1000.05
1000.05
1000.05
1000.05
1000.05
1000.05
1000.05
1000.05
1000.05
1000.05
1000.05
1000.05
1000.05
1000.05
1000.05
1000.05
1000.05
995.5
998.396
1000.05
1000.05
1000.05
1000.05
1000.05
1000.05
1000.05
1000.05
1000.05
1000.05
1000.05
1000.05
1000.05
1000.05
1000.05
1000.05
1000.05
1000.05
1000.05
999.861
999.776
647.102
819.731
912.807
912.807
912.689
912.318
912.435
912.404
822.295
733.28
836.379
836.375
836.379
835.736
835.738
833.844
820.47
820.471
820.472
647.102
813.302
912.803
912.807
912.663
912.317
877.208
886.74
772.287
719.652
741.94
778.514
792.785
774.259
668.374
562.062
515.929
583.768
702.767
647.1
839.658
839.729
708.771
675.676
859.221
824.321
342.397
194.591
194.59
201.678
194.987
231.12
216.388
152.252
111.824
95.3258
332.121
800.027
784.03
781.697
320.189
131.971
177.359
785.849
988.645
855.19
517.918
270.537
1.88431
1.88391
1.88353
3.1972
2.46865
1.88355
1.88355
174.479
800.027
795.127
642.765
1.29649
3.81402
55.8808
772.5
988.645
997.43
966.281
806.557
507.327
255.401
62.5157
1.88354
1.88346
1.88356
1.88349
545.955
660.47
791.255
279.397
1.29661
1.29626
257.044
890.425
997.008
997.43
997.43
996.137
984.543
911.735
771.647
530.282
205.789
3.29559
1.88368
750.051
660.99
781.227
29.6806
1.29665
1.29633
578.985
946.112
994.853
965.242
992.435
997.384
997.388
997.384
997.388
992.193
884.423
516.606
532.035
899.092
728.465
781.233
28.6687
1.29665
1.29622
755.541
946.108
871.217
551.684
628.163
763.322
880.093
926.623
971.204
992.389
992.389
989.014
985.207
985.208
880.537
480.511
509.729
571.486
655.173
744.103
826.911
910.275
977.365
1000.05
1000.05
1000.05
1000.05
1000.05
1000.05
1000.05
1000.05
1000.05
1000.05
1000.05
1000.05
1000.05
996.784
913.034
6.66267
8.77916
13.5327
30.5237
73.6784
143.627
244.291
388.487
583.923
754.472
860.23
932.933
980.477
1000.05
999.928
1000.05
999.882
999.97
1000.04
1000.05
1000.05
987.204
516.401
1.29366
1.29425
1.29796
1.32781
1.49809
2.21172
5.08513
14.9943
44.529
122.99
234.426
347.782
449.347
582.48
696.579
798.17
874.5
959.183
982.958
999.334
998.681
993.443
638.604
1.29329
1.29329
1.2933
1.2933
1.29346
1.29602
1.32115
1.50091
2.45759
6.08407
16.0917
31.3233
39.459
43.0052
76.1561
124.247
167.659
277.709
446.171
680.172
889.741
998.032
984.94
1.29327
1.29327
1.29327
1.29327
1.29327
1.2933
1.29341
1.29414
1.29817
1.30863
1.31486
1.30847
1.29335
1.29597
2.98436
10.2172
21.3516
60.5857
184.05
345.953
525.795
826.237
975.076
1.29326
1.29326
1.29326
1.29326
1.29326
1.29327
1.29328
1.29334
1.29379
1.29429
1.29405
1.29341
1.29323
1.29318
1.29322
1.29321
1.59892
48.1103
186.605
312.008
459.251
750.838
822.787
1.29325
1.29325
1.29325
1.29325
1.29325
1.29326
1.29326
1.29327
1.29332
1.29338
1.29329
1.29326
1.29319
1.29313
1.29311
1.29376
2.16295
36.7979
371.636
578.83
578.832
319.22
13.9691
1.29325
1.29325
1.29325
1.29325
1.29325
1.29325
1.29325
1.29326
1.2933
1.29401
1.29424
1.29325
1.29319
1.29592
1.29895
1.29719
1.30444
13.8858
333.845
578.832
533.059
61.9178
1.29462
1.29325
1.29325
1.29325
1.29325
1.29325
1.29325
1.29325
1.29325
1.2933
1.29452
1.29491
1.29394
1.29322
1.29467
1.29904
1.29765
1.30032
2.38038
22.8861
286.275
525.232
378.034
109.738
1.29324
1.29324
1.29324
1.29324
1.29324
1.29324
1.29324
1.29325
1.29326
1.29398
1.2949
1.2949
1.29329
1.29331
1.29452
1.29469
1.29363
1.29348
1.29346
1.29343
60.2909
510.538
683.172
1.29324
1.29324
1.29324
1.29324
1.29324
1.29324
1.29324
1.29324
1.29325
1.29332
1.29381
1.29386
1.29337
1.29324
1.29323
1.29322
1.29323
1.2935
1.29369
1.29437
1.29435
1.29433
144.272
1.29324
1.29324
1.29324
1.29324
1.29324
1.29324
1.29324
1.29324
1.29324
1.29324
1.29324
1.29324
1.29328
1.29324
1.29323
1.29323
1.29323
1.29331
1.29346
1.29419
1.29608
1.29481
1.29346
1.29324
1.29324
1.29324
1.29324
1.29324
1.29324
1.29324
1.29324
1.29324
1.29324
1.29323
1.29323
1.29323
1.29323
1.29323
1.29323
1.29323
1.29324
1.29325
1.29327
1.29438
1.2987
1.29994
1.29323
1.29323
1.29323
1.29323
1.29323
1.29323
1.29323
1.29323
1.29323
1.29323
1.29323
1.29323
1.29323
1.29323
1.29323
1.29323
1.29323
1.29323
1.29323
1.29323
1.29323
1.29399
1.29702
1.29323
1.29323
1.29323
1.29323
1.29323
1.29323
1.29323
1.29323
1.29323
1.29323
1.29323
1.29323
1.29323
1.29323
1.29323
1.29323
1.29323
1.29323
1.29323
1.29323
1.29323
1.29324
1.29326
1.29323
1.29323
1.29323
1.29323
1.29323
1.29323
1.29323
1.29323
1.29323
1.29323
1.29323
1.29323
1.29323
1.29322
1.29322
1.29322
1.29322
1.29322
1.29322
1.29322
1.29322
1.29322
1.29322
1.29322
1.29322
1.29322
1.29322
1.29322
1.29322
1.29322
1.29322
1.29322
1.29322
1.29322
1.29322
1.29322
1.29322
1.29322
1.29322
1.29322
1.29322
1.29322
1.29322
1.29322
1.29322
1.29322
1.29322
1.29322
1.29322
1.29322
1.29322
1.29322
1.29322
1.29322
1.29322
1.29322
1.29322
1.29322
1.29322
1.29322
1.29322
1.29322
1.29322
1.29322
1.29322
1.29322
1.29322
1.29322
1.29322
1.29322
1.29322
1.29322
1.29322
1.29322
1.29322
1.29322
1.29322
1.29322
1.29322
1.29322
1.29322
1.29322
1.29322
1.29322
1.29322
1.29322
1.29322
1.29322
1.29322
1.29322
1.29322
1.29322
1.29321
1.29321
1.29321
1.29321
1.29321
1.29321
1.29321
1.29321
1.29321
1.29321
1.29321
1.29321
1.29321
1.29322
1.29322
1.29322
1.29322
1.29322
1.29322
1.29322
1.29322
1.29322
1.29322
1.2932
1.2932
1.2932
1.2932
1.2932
1.29321
1.29321
1.29321
1.29321
1.29321
1.29321
1.29321
1.29321
1.29321
1.29321
1.29321
1.29321
1.29321
1.29321
1.29321
1.29322
1.29322
1.29322
1.29319
1.29319
1.29319
1.29319
1.2932
1.2932
1.2932
1.2932
1.2932
1.2932
1.2932
1.2932
1.2932
1.2932
1.2932
1.29321
1.29321
1.29321
1.29321
1.29321
1.29321
1.29321
1.29321
1.29318
1.29318
1.29318
1.29318
1.29318
1.29318
1.29318
1.29319
1.29319
1.29319
1.29319
1.29319
1.29319
1.29319
1.29319
1.29319
1.29319
1.29319
1.29319
1.29319
1.29319
1.29319
1.29319
1.29316
1.29316
1.29316
1.29317
1.29317
1.29317
1.29317
1.29317
1.29317
1.29317
1.29317
1.29317
1.29317
1.29317
1.29317
1.29317
1.29317
1.29317
1.29316
1.29316
1.29316
1.29316
1.29316
1.29315
1.29315
1.29315
1.29315
1.29315
1.29315
1.29315
1.29315
1.29315
1.29315
1.29315
1.29315
1.29315
1.29315
1.29314
1.29314
1.29314
1.29314
1.29314
1.29314
1.29314
1.29314
1.29314
1.29313
1.29313
1.29313
1.29313
1.29313
1.29313
1.29313
1.29313
1.29313
1.29313
1.29313
1.29313
1.29313
1.29313
1.29313
1.29313
1.29313
1.29313
1.29313
1.29313
1.29314
1.29315
1.29315
1.29312
1.29312
1.29312
1.29312
1.29312
1.29312
1.29312
1.29312
1.29312
1.29312
1.29312
1.29312
1.29312
1.29312
1.29312
1.29312
1.29312
1.29313
1.29314
1.29315
1.29318
1.29333
1.29334
1.29311
1.29311
1.29311
1.29311
1.29311
1.29311
1.29311
1.29311
1.29311
1.29311
1.29311
1.29311
1.29311
1.29312
1.29312
1.29312
1.29313
1.29316
1.29331
1.2938
1.294
1.29381
1.29362
1.2931
1.2931
1.2931
1.2931
1.2931
1.2931
1.2931
1.29311
1.29311
1.29311
1.29311
1.29311
1.29311
1.29312
1.29313
1.29314
1.29319
1.29393
1.2951
1.29509
1.29409
1.29313
1.29312
1.2931
1.2931
1.2931
1.2931
1.2931
1.2931
1.2931
1.2931
1.2931
1.2931
1.29311
1.29311
1.29312
1.29313
1.29314
1.29323
1.29499
1.29566
1.29547
1.29342
1.29312
1.29311
1.29311
1.29309
1.29309
1.2931
1.2931
1.2931
1.2931
1.2931
1.2931
1.2931
1.2931
1.29311
1.29311
1.29312
1.29313
1.29351
1.29536
1.29535
1.29464
1.29311
1.29311
1.29311
1.2931
1.29309
1.29309
1.29309
1.29309
1.29309
1.29309
1.29309
1.29309
1.2931
1.2931
1.2931
1.29311
1.29312
1.29313
1.29339
1.29505
1.29534
1.29412
1.2931
1.2931
1.2931
1.2931
1.29309
1.29309
1.29309
1.29309
1.29309
1.29309
1.29309
1.29309
1.29309
1.29309
1.2931
1.29311
1.29312
1.29312
1.29335
1.29475
1.29503
1.29405
1.2931
1.2931
1.2931
1.29309
1.29309
1.29308
1.29308
1.29308
1.29309
1.29309
1.29309
1.29309
1.29309
1.29309
1.29309
1.2931
1.29311
1.29312
1.29312
1.29414
1.29541
1.29436
1.29309
1.29309
1.29309
1.29309
1.29309
1.29308
1.29308
1.29307
1.29308
1.29308
1.29308
1.29308
1.29309
1.29309
1.29309
1.2931
1.2931
1.29311
1.29312
1.29334
1.29499
1.29538
1.29318
1.29308
1.29308
1.29308
1.29308
1.29308
1.29308
1.29307
1.29307
1.29308
1.29308
1.29308
1.29308
1.29309
1.29309
1.29309
1.2931
1.2931
1.29311
1.29314
1.29441
1.29517
1.29399
1.29307
1.29307
1.29308
1.29308
1.29308
1.29308
1.29308
1.29307
1.29307
1.29308
1.29308
1.29308
1.29308
1.29309
1.29309
1.29309
1.2931
1.2931
1.29311
1.29363
1.29553
1.29511
1.29305
1.29306
1.29307
1.29307
1.29307
1.29307
1.29307
1.29307
1.29307
1.29306
1.29309
1.29309
1.29309
1.29309
1.29309
1.29309
1.29309
1.2931
1.2931
1.29314
1.29459
1.2955
1.29413
1.29304
1.29305
1.29306
1.29306
1.29307
1.29307
1.29307
1.29307
1.29306
1.29306
1.29308
1.29308
1.29308
1.29309
1.29309
1.29309
1.29309
1.29309
1.29309
1.29348
1.29495
1.29493
1.29302
1.29302
1.29304
1.29305
1.29306
1.29306
1.29307
1.29307
1.29307
1.29306
1.29306
1.29309
1.29309
1.29309
1.29309
1.29309
1.29309
1.29309
1.29309
1.29308
1.29346
1.29447
1.29338
1.293
1.29301
1.29303
1.29304
1.29305
1.29306
1.29306
1.29306
1.29306
1.29306
1.29305
1.29309
1.29309
1.29309
1.29309
1.29309
1.29309
1.29309
1.29308
1.29311
1.29331
1.29315
1.29298
1.29298
1.29299
1.29302
1.29304
1.29305
1.29306
1.29306
1.29306
1.29306
1.29306
1.29305
1.29311
1.29311
1.2931
1.2931
1.2931
1.2931
1.2931
1.29309
1.2931
1.29306
1.29296
1.29294
1.29294
1.29296
1.29301
1.29303
1.29304
1.29305
1.29305
1.29305
1.29305
1.29305
1.29304
803.035
737.978
745.024
745.24
186.14
656.982
745.241
745.025
162.107
162.216
429.961
416.803
561.307
180.957
181.157
185.359
938.463
827.511
713.089
764.589
705.191
543.453
476.669
420.792
1.29473
1.29464
1.29461
1.29466
1.2946
1.62456
1.59426
1.41865
91.8352
154.145
103.443
26.7864
683.172
683.172
675.276
307.447
637.139
682.696
678.633
682.194
1.29345
1.29343
1.37456
49.9303
1.29487
1.29348
1.29347
1.29347
1.29937
1.29937
1.29457
1.29923
1.29399
1.29482
1.29418
1.2939
1.29323
1.29322
1.29324
1.29323
1.29322
1.29322
1.29322
1.29322
1.29322
1.29322
1.29322
1.29322
1.29322
1.29322
1.29322
1.29322
1.29322
1.29322
1.29322
1.29322
1.29322
1.29322
1.29322
1.29322
1.29321
1.29321
1.29321
1.29321
1.29319
1.29319
1.29319
1.29319
1.29316
1.29316
1.29316
1.29316
1.29314
1.29315
1.29315
1.29315
1.29315
1.29316
1.29322
1.29327
1.29337
1.29339
1.29348
1.29348
1.29355
1.29345
1.29333
1.29323
1.29312
1.29312
1.29311
1.29311
1.2931
1.2931
1.2931
1.29309
1.29309
1.29309
1.29309
1.29308
1.29308
1.29308
1.29308
1.29307
1.29307
1.29307
1.29307
1.29307
1.29307
1.29307
1.29306
1.29306
1.29306
1.29306
1.29306
1.29306
1.29306
1.29306
1.29306
1.29305
1.29306
1.29306
1.29305
1.29305
1.29306
1.29305
1.29305
1.29305
1.29305
1.29305
1.29305
1.29304
1.29305
1.29304
1.29304
1.29304
1.29305
1.29304
1.29304
1.29304
1.29304
1.29303
1.29303
1.29303
703.16
1.29632
1.29646
345.255
862.161
887.513
438.047
101.909
119.481
139.052
158.386
176.16
198.658
259.014
389.171
603.03
835.561
948.833
891.711
311.291
1.29635
209.324
792.351
848.9
317.553
1.29472
1.29492
1.29495
1.29493
1.3608
1.56608
1.97249
3.64404
11.9479
62.9859
686.482
810.29
807.391
266.824
273.462
806.654
806.632
424.321
12.8307
1.29485
1.29908
1.29914
1.29687
1.29815
1.29771
1.30042
1.30046
1.74182
66.2066
468.45
605.327
633.922
375.842
901.541
901.521
380.014
1.29478
1.29482
1.2958
1.29518
1.29501
1.29505
1.29501
1.29503
1.30403
1.35086
1.95388
20.9801
88.3743
174.263
354.462
801.033
591.454
160.205
1.29866
1.30472
1.29482
1.29485
1.29473
1.2948
1.29511
1.30652
1.37783
1.80871
7.10225
23.2935
12.339
2.25384
1.29608
261.72
258.724
1.29451
1.29476
1.2986
1.30291
1.29469
1.2947
1.39218
1.61097
1.32765
1.30451
1.97168
17.0161
214.051
543.86
318.833
2.97169
1.29629
333.134
1.29474
1.29477
1.29478
1.29566
1.29754
1.46125
4.67095
28.4233
92.2343
7.2955
1.29711
10.0347
293.065
820.249
990.277
885.753
190.177
2.62045
443.135
1.34311
1.29891
1.29483
1.29478
1.29527
1.41486
19.2952
335.287
547.138
104.222
1.29729
165.99
834.129
990.277
990.277
990.277
826.27
370.763
714.78
6.89817
1.29475
1.29484
1.29488
1.29503
1.29484
70.037
649.551
697.749
449.717
88.5631
585.591
854.408
854.407
979.368
990.277
990.277
979.336
980.408
48.448
1.29466
1.29477
1.29482
1.29481
1.29473
326.298
697.749
697.762
697.748
544.437
508.47
295.787
183.654
643.268
960.445
990.277
990.277
990.277
682.203
462.115
255.088
181.685
230.065
498.65
589.186
505.801
311.923
272.288
330.512
106.56
2.25617
2.26355
74.3591
429.084
860.606
984
989.639
298.392
611.749
684.831
684.761
684.592
490.323
129.75
1.29313
1.29306
1.29304
1.29315
1.29324
3.77014
2.73609
1.30295
1.30288
237.593
632.566
740.496
1.29347
1.29346
17.5
45.0354
27.456
1.29318
1.29311
1.29303
1.29321
1.32604
3.44437
8.22848
8.23364
3.79352
1.30294
1.76691
1.76639
117.591
238.704
1.29924
1.29518
1.29319
1.29316
1.29315
1.29313
1.29307
1.29303
1.29306
1.31191
2.22621
3.29203
3.07447
1.29327
1.34768
5.88421
24.408
61.2426
196.477
1.29354
1.29399
1.29588
1.29387
1.29316
1.29314
1.29308
1.29303
1.29401
1.30074
1.29309
1.29315
1.2932
1.29323
1.3206
5.06589
39.256
121.676
401.904
1.29323
1.29322
1.294
1.29431
1.2936
1.29493
1.29552
1.29307
1.29309
1.29384
1.29308
1.29312
1.29318
1.2932
1.32701
1.5818
6.12402
41.7494
401.904
1.29322
1.29322
1.29322
1.29354
1.29377
1.30509
1.31602
1.30587
1.29406
1.298
1.30053
1.29893
1.29432
1.29319
1.32661
1.29828
1.29818
1.30167
401.904
1.29322
1.29322
1.29322
1.29321
1.29375
1.29492
1.31148
1.33523
1.33523
1.33523
1.33523
1.31538
1.29873
1.29319
1.30565
1.2983
1.299
2.75307
353.938
1.29322
1.29322
1.29322
1.29322
1.29345
1.29324
1.29594
1.30499
1.30475
1.30194
1.30092
1.30669
1.30275
1.29362
1.29319
1.29529
1.31953
5.08924
40.2725
1.29322
1.29322
1.29322
1.29322
1.29322
1.29322
1.29324
1.29322
1.29322
1.29318
1.29319
1.29319
1.29319
1.29319
1.29319
1.2932
1.37765
3.20523
1.49165
1.29322
1.29322
1.29322
1.29322
1.29322
1.29321
1.29321
1.2932
1.2932
1.2932
1.2932
1.2932
1.2932
1.29319
1.2932
1.2932
1.42405
1.5314
1.49143
1.29321
1.29321
1.29321
1.29321
1.29321
1.29321
1.29321
1.29321
1.29321
1.29321
1.29321
1.2932
1.29321
1.2932
1.29321
1.29321
1.39435
1.93059
1.49146
1.29319
1.29319
1.2932
1.2932
1.2932
1.29321
1.29321
1.29321
1.29321
1.29321
1.29321
1.29321
1.29321
1.29321
1.29321
1.30454
1.30445
3.48282
1.56982
1.29316
1.29316
1.29316
1.29317
1.29317
1.29318
1.29318
1.29319
1.2932
1.2932
1.29321
1.29321
1.29321
1.29321
1.29321
1.30547
1.30429
3.48274
2.48156
1.29316
1.29317
1.29317
1.29316
1.29316
1.29315
1.29316
1.29316
1.29317
1.29318
1.2932
1.2932
1.29321
1.29321
1.29321
1.30429
1.3043
2.61566
35.443
1.2933
1.29324
1.29318
1.29316
1.29316
1.29315
1.29315
1.29315
1.29315
1.29316
1.29317
1.29319
1.2932
1.2932
1.29321
1.30812
1.30597
1.29318
106.597
1.29334
1.29318
1.29316
1.29316
1.29316
1.29315
1.29315
1.29315
1.29315
1.29315
1.29316
1.29317
1.29319
1.2932
1.29321
1.31662
1.31836
1.29317
106.601
1.29313
1.29312
1.29312
1.29312
1.29314
1.29315
1.29315
1.29315
1.29315
1.29315
1.29315
1.29316
1.29317
1.29319
1.2932
1.31689
1.32033
1.29317
106.587
1.29311
1.2931
1.29309
1.29309
1.29309
1.29343
1.29371
1.29358
1.29323
1.29315
1.29315
1.29315
1.29316
1.29317
1.29319
1.30058
1.31741
1.29316
74.2251
1.29309
1.29308
1.29308
1.29307
1.29306
1.29359
1.294
1.294
1.29378
1.29319
1.29314
1.29314
1.29315
1.29316
1.29318
1.29332
1.29763
1.29328
1.29328
1.29308
1.29307
1.29306
1.29305
1.29304
1.29305
1.29334
1.29372
1.29376
1.29355
1.29314
1.29313
1.29315
1.29315
1.29317
1.29318
1.29752
1.29424
1.29324
1.29307
1.29306
1.29305
1.29304
1.29303
1.29302
1.29302
1.29302
1.29306
1.29374
1.29374
1.2932
1.29313
1.29315
1.29316
1.29317
1.3043
1.29767
1.29324
1.29306
1.29305
1.29304
1.29303
1.29302
1.293
1.293
1.293
1.293
1.29333
1.295
1.29388
1.29315
1.29314
1.29315
1.29317
1.30434
1.30369
1.29369
1.29305
1.29305
1.29303
1.29302
1.293
1.29299
1.29298
1.29298
1.29298
1.29299
1.29652
1.29712
1.29385
1.29314
1.29314
1.29316
1.30332
1.30142
1.29379
1.29305
1.29304
1.29303
1.29301
1.29299
1.29298
1.29297
1.29296
1.29296
1.29369
1.299
1.29945
1.29649
1.29313
1.29313
1.29317
1.29494
1.29458
1.29348
1.29305
1.29303
1.29302
1.293
1.29298
1.29297
1.29295
1.29294
1.29294
1.30037
1.30604
1.29844
1.29549
1.2931
1.29312
1.29335
1.29333
1.29317
1.29312
1.29304
1.29303
1.29302
1.293
1.29298
1.29296
1.29294
1.29293
1.29292
1.2958
1.39933
1.34788
1.29674
1.2931
1.29312
1.29338
1.29325
1.29315
1.2931
1.29304
1.29303
1.29301
1.29299
1.29297
1.29295
1.29293
1.29291
1.29291
1.2954
1.43645
1.44287
1.31179
1.29313
1.29311
1.29335
1.29318
1.29315
1.29432
1.29304
1.29303
1.29301
1.29299
1.29297
1.29294
1.29292
1.2929
1.29289
1.2929
1.42608
1.48318
1.34116
1.29321
1.2931
1.29315
1.29315
1.2944
1.29883
1.29303
1.29302
1.293
1.29298
1.29296
1.29294
1.29291
1.29289
1.29288
1.29289
1.40411
1.48318
1.36456
1.29338
1.2931
1.29312
1.29338
1.32311
1.30391
1.29303
1.29302
1.293
1.29298
1.29296
1.29293
1.29291
1.29289
1.29288
1.29288
1.38164
1.48318
1.4009
1.29392
1.29309
1.29311
1.31648
1.32553
1.31345
1.29302
1.29301
1.29299
1.29297
1.29294
1.29292
1.2929
1.29288
1.29287
1.29288
1.29981
1.4532
1.37966
1.29349
1.29309
1.29311
1.30976
1.31789
1.30326
)
;

boundaryField
{
    leftWall
    {
        type            calculated;
        value           nonuniform List<scalar> 
50
(
1000.05
1000.05
1000.05
1000.05
1000.05
1000.05
1000.05
995.5
480.511
6.66267
1.29366
1.29329
1.29327
1.29326
1.29325
1.29325
1.29325
1.29324
1.29324
1.29324
1.29324
1.29323
1.29323
1.29323
1.29322
1.29322
1.29322
1.29321
1.2932
1.29319
1.29318
1.29316
1.29315
1.29313
1.29312
1.29311
1.2931
1.2931
1.29309
1.29309
1.29309
1.29308
1.29308
1.29308
1.29308
1.29309
1.29308
1.29309
1.29309
1.29311
)
;
    }
    rightWall
    {
        type            calculated;
        value           nonuniform List<scalar> 
50
(
820.472
702.767
800.027
800.027
660.47
660.99
728.465
880.537
891.711
807.391
633.922
354.462
261.72
333.134
443.135
714.78
980.408
990.277
989.639
740.496
238.704
196.477
401.904
401.904
401.904
353.938
40.2725
1.49165
1.49143
1.49146
1.56982
2.48156
35.443
106.597
106.601
106.587
74.2251
1.29328
1.29324
1.29324
1.29369
1.29379
1.29348
1.29312
1.2931
1.29432
1.29883
1.30391
1.31345
1.30326
)
;
    }
    lowerWall
    {
        type            calculated;
        value           nonuniform List<scalar> 
62
(
1000.05
1000.05
1000.05
1000.05
1000.05
1000.05
1000.05
1000.05
1000.05
1000.05
1000.05
1000.05
1000.05
1000.05
1000.05
1000.05
1000.05
1000.05
1000.05
1000.05
1000.05
1000.04
999.83
999.83
999.765
999.765
999.792
1000.05
1000.05
1000.05
999.776
803.035
737.978
745.025
745.24
647.102
647.102
647.1
784.03
795.127
791.255
781.227
781.233
647.102
819.731
912.807
912.807
912.69
912.318
912.435
912.405
822.296
733.28
836.379
836.375
836.379
835.736
835.738
833.844
820.47
820.471
820.472
)
;
    }
    atmosphere
    {
        type            calculated;
        value           nonuniform List<scalar> 
46
(
1.29319
1.29319
1.29319
1.29319
1.29319
1.29319
1.29318
1.29318
1.29319
1.29315
1.29305
1.29303
1.29303
1.29306
1.2931
1.29312
1.29314
1.29314
1.29315
1.29315
1.29315
1.29314
1.29314
1.29313
1.29313
1.29313
1.29312
1.29311
1.2931
1.29309
1.29306
1.29304
1.29302
1.293
1.29298
1.29297
1.29298
1.29303
1.45331
1.37976
1.29359
1.29318
1.2932
1.30985
1.31797
1.30335
)
;
    }
    defaultFaces
    {
        type            empty;
    }
}


// ************************************************************************* //
