/*--------------------------------*- C++ -*----------------------------------*\
| =========                 |                                                 |
| \\      /  F ield         | OpenFOAM: The Open Source CFD Toolbox           |
|  \\    /   O peration     | Version:  2012                                  |
|   \\  /    A nd           | Website:  www.openfoam.com                      |
|    \\/     M anipulation  |                                                 |
\*---------------------------------------------------------------------------*/
FoamFile
{
    version     2.0;
    format      ascii;
    class       volScalarField;
    location    "0.73";
    object      rhogh;
}
// * * * * * * * * * * * * * * * * * * * * * * * * * * * * * * * * * * * * * //

dimensions      [1 -1 -2 0 0 0 0];


internalField   nonuniform List<scalar> 
2268
(
-29.4294
-29.4294
-29.4294
-29.4294
-29.4294
-29.4294
-29.4294
-29.4294
-29.4294
-29.4294
-29.4294
-29.4294
-29.4294
-29.4294
-29.4294
-29.4294
-29.4294
-29.4294
-29.4294
-29.4294
-29.4294
-29.4289
-29.4228
-88.2881
-88.2881
-88.2881
-88.2881
-88.2881
-88.2881
-88.2881
-88.2881
-88.2881
-88.2881
-88.2881
-88.2881
-88.2881
-88.2881
-88.2881
-88.2881
-88.2881
-88.2881
-88.2881
-88.2881
-88.2881
-88.2829
-88.2626
-147.147
-147.147
-147.147
-147.147
-147.147
-147.147
-147.147
-147.147
-147.147
-147.147
-147.147
-147.147
-147.147
-147.147
-147.147
-147.147
-147.147
-147.147
-147.147
-147.147
-147.147
-147.14
-147.104
-206.006
-206.006
-206.006
-206.006
-206.006
-206.006
-206.006
-206.006
-206.006
-206.006
-206.006
-206.006
-206.006
-206.006
-206.006
-206.006
-206.006
-206.006
-206.006
-206.006
-206.006
-206.001
-205.951
-264.864
-264.864
-264.864
-264.864
-264.864
-264.864
-264.864
-264.864
-264.864
-264.864
-264.864
-264.864
-264.864
-264.864
-264.864
-264.864
-264.864
-264.864
-264.864
-264.864
-264.864
-264.864
-264.864
-323.723
-323.723
-323.723
-323.723
-323.723
-323.723
-323.723
-323.723
-323.723
-323.723
-323.723
-323.723
-323.723
-323.723
-323.723
-323.723
-323.723
-323.723
-323.723
-323.723
-323.723
-323.723
-323.723
-382.582
-382.582
-382.582
-382.582
-382.582
-382.582
-382.582
-382.582
-382.582
-382.582
-382.582
-382.582
-382.582
-382.582
-382.582
-382.582
-382.582
-382.582
-382.582
-382.582
-382.582
-382.582
-382.582
-439.428
-440.708
-441.44
-441.44
-441.44
-441.44
-441.44
-441.44
-441.44
-441.44
-441.44
-441.44
-441.44
-441.44
-441.44
-441.44
-441.44
-441.44
-441.44
-441.44
-441.439
-441.355
-441.318
-19.0291
-24.1159
-26.8586
-26.8586
-26.8551
-26.8441
-26.8475
-26.8467
-24.1915
-21.5686
-24.6065
-24.6064
-24.6065
-24.5876
-24.5876
-24.5318
-24.1377
-24.1377
-24.1377
-57.0874
-71.7795
-80.5753
-80.5757
-80.5629
-80.5323
-77.4286
-78.2713
-68.1538
-63.501
-65.4713
-68.7044
-69.9659
-68.3283
-58.9682
-49.5705
-45.4924
-51.4891
-62.0081
-95.1456
-123.516
-123.526
-104.232
-99.3562
-126.398
-121.256
-50.2535
-28.4776
-28.4776
-29.522
-28.5363
-33.8598
-31.6894
-22.2402
-16.2839
-13.8532
-48.7401
-117.677
-161.448
-160.967
-65.7753
-26.9532
-36.3148
-161.823
-203.652
-176.126
-106.559
-55.5338
-0.120979
-0.120979
-0.120979
-0.391958
-0.241688
-0.120979
-0.120979
-35.7206
-164.747
-210.519
-170.113
-3.48161e-17
-0.667705
-14.4754
-204.518
-261.839
-264.169
-255.908
-213.55
-134.196
-67.3868
-16.2348
-0.155544
-0.155544
-0.155544
-0.155544
-144.44
-174.808
-256.046
-90.1397
-1.405e-34
1.71906e-19
-82.8944
-288.189
-322.736
-322.873
-322.873
-322.453
-318.696
-295.096
-249.69
-171.458
-66.2812
-0.647747
-0.19011
-242.69
-213.823
-298.758
-10.8727
1.48938e-18
1.66045e-34
-221.288
-361.919
-380.59
-369.247
-379.663
-381.559
-381.561
-381.559
-381.561
-379.571
-338.288
-197.393
-203.303
-343.907
-278.547
-344.724
-12.0982
-0
-3.03662e-16
-333.368
-417.597
-384.496
-243.266
-277.069
-336.808
-388.419
-408.985
-428.689
-438.053
-438.053
-436.561
-434.878
-434.879
-388.615
-255.964
-271.57
-304.556
-349.256
-396.756
-440.987
-485.514
-521.348
-533.467
-533.467
-533.467
-533.467
-533.467
-533.467
-533.467
-533.467
-533.467
-533.467
-533.467
-533.467
-533.467
-531.721
-486.987
-3.54094
-4.93671
-8.07155
-19.2768
-47.7364
-93.8657
-160.252
-255.346
-384.232
-496.706
-566.451
-614.397
-645.751
-658.662
-658.579
-658.662
-658.548
-658.607
-658.655
-658.662
-658.659
-650.187
-339.703
-0.000250632
-0.000714531
-0.00362297
-0.027055
-0.1607
-0.720756
-2.97588
-10.7529
-33.9326
-95.5114
-182.969
-271.934
-351.645
-456.132
-545.68
-625.412
-685.318
-751.78
-770.439
-783.291
-782.779
-778.668
-500.18
-1.28468e-10
-3.97281e-09
-1.84306e-07
-6.20231e-06
-0.00015366
-0.0024558
-0.0253107
-0.188917
-1.05966
-4.3604
-13.4691
-27.3326
-34.7375
-37.9652
-68.1385
-111.91
-151.422
-251.587
-404.918
-617.901
-808.646
-907.21
-895.295
-5.77859e-12
-2.03104e-10
-5.01061e-09
-8.9146e-08
-1.20643e-06
-1.21521e-05
-0.000109873
-0.000859717
-0.00501821
-0.0158449
-0.0222829
-0.0156626
-3.19478e-06
-0.00276667
-1.75122
-9.24104
-20.771
-61.3987
-189.249
-356.905
-543.136
-854.253
-1008.38
-2.6564e-12
-1.10955e-10
-2.33909e-09
-2.67688e-08
-1.31726e-07
-3.29699e-07
-3.03775e-06
-6.02407e-05
-0.000566886
-0.00113851
-0.000855889
-0.000129588
-3.5831e-06
-3.08811e-05
-0.000108537
-0.000108375
-0.354965
-54.3489
-215.124
-360.701
-531.633
-870.13
-953.654
-1.7284e-12
-6.67654e-11
-1.182e-09
-1.15757e-08
-5.91648e-08
-1.37554e-07
-3.32219e-07
-4.34986e-06
-5.94786e-05
-0.000118836
-3.07968e-07
-3.08248e-07
-5.45737e-07
-3.57153e-07
-3.56857e-07
-0.000825197
-1.1188
-45.6672
-476.345
-742.844
-742.847
-408.925
-16.302
-1.21557e-12
-4.47079e-11
-7.20041e-10
-6.45486e-09
-3.36694e-08
-9.97958e-08
-1.80297e-07
-4.20973e-07
-5.45188e-05
-0.0010477
-0.0013663
-3.37981e-07
-4.99651e-06
-0.00392433
-0.00822234
-0.00571385
-0.0159507
-17.7757
-469.424
-815.241
-750.629
-85.5745
-5.50691e-05
-6.27064e-13
-2.35749e-11
-3.92965e-10
-3.76981e-09
-2.27205e-08
-8.92483e-08
-2.07203e-07
-3.70414e-07
-7.39386e-05
-0.00194165
-0.00253585
-0.0010543
-5.4408e-06
-0.00231067
-0.00906029
-0.00689896
-0.0109962
-1.67099
-33.1868
-437.997
-805.257
-579.024
-166.671
-2.49942e-13
-1.00148e-11
-1.83175e-10
-2.02875e-09
-1.53071e-08
-8.27223e-08
-3.00715e-07
-6.69809e-07
-2.32882e-05
-0.00121981
-0.00274532
-0.00274267
-8.25104e-05
-0.000164591
-0.00221729
-0.00250903
-0.000730151
-0.000466379
-0.00046642
-0.000467534
-98.0706
-846.507
-1133.47
-8.44653e-14
-3.63452e-12
-7.45222e-11
-9.8171e-10
-9.50105e-09
-7.01952e-08
-3.80872e-07
-1.62972e-06
-1.1326e-05
-0.000141191
-0.00101063
-0.00111623
-0.000235886
-8.14057e-06
-9.99919e-06
-1.06156e-05
-3.18733e-05
-0.000501545
-0.000850282
-0.00211304
-0.00211527
-0.00211304
-255.593
-2.57102e-14
-1.16472e-12
-2.60213e-11
-3.93106e-10
-4.66034e-09
-4.61517e-08
-3.40067e-07
-1.83548e-06
-5.62756e-06
-4.55491e-06
-4.99137e-06
-4.80763e-06
-9.26886e-05
-8.71173e-06
-3.17591e-06
-3.17574e-06
-1.37821e-05
-0.000157163
-0.000446864
-0.00185712
-0.00553502
-0.00311165
-0.000537625
-7.05302e-15
-3.29017e-13
-7.76311e-12
-1.2786e-10
-1.70361e-09
-1.92593e-08
-1.86026e-07
-1.15994e-06
-2.06856e-06
-1.07187e-06
-2.65851e-07
-2.07699e-07
-2.47094e-06
-4.05083e-06
-3.384e-06
-8.27583e-06
-1.58167e-05
-2.09013e-05
-3.13534e-05
-8.06236e-05
-0.00237088
-0.0112082
-0.0137582
-1.77979e-15
-8.35452e-14
-2.01087e-12
-3.44031e-11
-4.84702e-10
-5.80544e-09
-5.61451e-08
-3.61584e-07
-6.98055e-07
-6.14092e-07
-2.83866e-07
-2.20471e-07
-3.55356e-07
-1.29527e-06
-2.73806e-06
-8.40907e-06
-8.05067e-06
-4.06575e-06
-2.13883e-06
-4.96229e-06
-3.70022e-06
-0.00166425
-0.00825425
-4.17251e-16
-1.95028e-14
-4.70716e-13
-8.1482e-12
-1.17982e-10
-1.46622e-09
-1.44044e-08
-9.61608e-08
-2.13798e-07
-2.4221e-07
-1.97559e-07
-1.90908e-07
-2.27969e-07
-5.16062e-07
-1.30405e-06
-3.47193e-06
-2.84967e-06
-2.16341e-06
-1.56988e-06
-1.68711e-06
-6.82086e-07
-3.36102e-05
-9.48449e-05
-9.17262e-17
-4.23844e-15
-1.01296e-13
-1.73508e-12
-2.51705e-11
-3.19443e-10
-3.20866e-09
-2.24252e-08
-5.70782e-08
-7.50947e-08
-7.12194e-08
-9.40317e-08
-1.09506e-07
-2.00362e-07
-4.3739e-07
-9.03088e-07
-1.03385e-06
-1.09671e-06
-1.14127e-06
-1.11117e-06
-7.19447e-07
-8.27098e-07
-1.59624e-06
-1.90919e-17
-8.69749e-16
-2.04979e-14
-3.43698e-13
-4.92225e-12
-6.30766e-11
-6.45371e-10
-4.6804e-09
-1.32477e-08
-1.94548e-08
-2.03853e-08
-2.74596e-08
-3.68192e-08
-6.55193e-08
-1.32792e-07
-2.5112e-07
-3.4012e-07
-4.2289e-07
-5.20743e-07
-5.82415e-07
-5.2622e-07
-6.6245e-07
-7.50676e-07
-3.761e-18
-1.6881e-16
-3.92355e-15
-6.40821e-14
-8.96419e-13
-1.14704e-11
-1.18737e-10
-8.83836e-10
-2.69722e-09
-4.33257e-09
-4.99968e-09
-6.79844e-09
-9.69292e-09
-1.73667e-08
-3.4269e-08
-6.33041e-08
-9.33185e-08
-1.26657e-07
-1.63435e-07
-2.0459e-07
-2.35504e-07
-3.35519e-07
-4.01544e-07
-7.07022e-19
-3.12797e-17
-7.18268e-16
-1.14188e-14
-1.54927e-13
-1.95804e-12
-2.03161e-11
-1.52958e-10
-4.88146e-10
-8.45363e-10
-1.05445e-09
-1.44585e-09
-2.09961e-09
-3.7706e-09
-7.36184e-09
-1.35229e-08
-2.08459e-08
-2.98503e-08
-4.00998e-08
-5.26272e-08
-6.54222e-08
-8.673e-08
-1.14619e-07
-1.27235e-19
-5.55557e-18
-1.26316e-16
-1.96042e-15
-2.57979e-14
-3.20064e-13
-3.29747e-12
-2.45927e-11
-7.98331e-11
-1.46808e-10
-1.93411e-10
-2.66225e-10
-3.83637e-10
-6.80302e-10
-1.31077e-09
-2.3871e-09
-3.74942e-09
-5.50393e-09
-7.52282e-09
-9.9975e-09
-1.27113e-08
-1.60447e-08
-2.08953e-08
-2.20127e-20
-9.50715e-19
-2.14345e-17
-3.26107e-16
-4.17431e-15
-5.05521e-14
-5.1087e-13
-3.69429e-12
-1.19221e-11
-2.28918e-11
-3.11091e-11
-4.26572e-11
-5.98893e-11
-1.03389e-10
-1.94117e-10
-3.45925e-10
-5.38332e-10
-7.83946e-10
-1.05189e-09
-1.35592e-09
-1.68035e-09
-1.96546e-09
-2.3486e-09
-3.68648e-21
-1.57973e-19
-3.53328e-18
-5.2934e-17
-6.62241e-16
-7.79454e-15
-7.62237e-14
-5.22476e-13
-1.64571e-12
-3.23598e-12
-4.44209e-12
-6.01126e-12
-8.08441e-12
-1.34116e-11
-2.40167e-11
-4.09398e-11
-6.08308e-11
-8.39279e-11
-1.04479e-10
-1.20084e-10
-1.35517e-10
-1.26554e-10
-1.26406e-10
-6.02775e-22
-2.57055e-20
-5.7026e-19
-8.44773e-18
-1.03761e-16
-1.18114e-15
-1.10057e-14
-7.00518e-14
-2.12392e-13
-4.18594e-13
-5.68891e-13
-7.50189e-13
-9.52912e-13
-1.49499e-12
-2.4778e-12
-3.92578e-12
-5.28681e-12
-6.43967e-12
-6.66326e-12
-6.66391e-12
-9.14422e-12
-6.0908e-11
-3.4845e-10
-9.73258e-23
-4.14092e-21
-9.11045e-20
-1.33949e-18
-1.61976e-17
-1.77073e-16
-1.54572e-15
-8.97678e-15
-2.59205e-14
-4.99921e-14
-6.60956e-14
-8.36216e-14
-9.90151e-14
-1.44493e-13
-2.14558e-13
-2.99754e-13
-3.25801e-13
-3.2583e-13
-9.17532e-13
-6.33424e-11
-4.14955e-10
-2.57353e-09
-1.008e-08
-1.56632e-23
-6.65984e-22
-1.45368e-20
-2.12654e-19
-2.52985e-18
-2.63157e-17
-2.11846e-16
-1.10888e-15
-3.02514e-15
-5.57872e-15
-7.06945e-15
-8.3405e-15
-8.67715e-15
-1.13808e-14
-1.52408e-14
-3.50185e-14
-4.77895e-13
-1.29284e-11
-4.38362e-10
-2.92219e-09
-1.16176e-08
-5.83519e-08
-1.49539e-07
-2.54416e-24
-1.08e-22
-2.3403e-21
-3.40728e-20
-3.96922e-19
-3.88637e-18
-2.84526e-17
-1.32903e-16
-3.33858e-16
-5.39066e-16
-6.602e-16
-1.00151e-15
-5.81698e-15
-8.21959e-14
-1.32324e-12
-1.91936e-11
-2.37661e-10
-2.30491e-09
-1.74404e-08
-5.69731e-08
-3.62098e-07
-4.36167e-06
-7.0715e-06
-3.79575e-25
-1.77506e-23
-3.79587e-22
-5.38783e-21
-5.86064e-20
-5.09863e-19
-3.44599e-18
-1.57875e-17
-6.67412e-17
-6.62087e-16
-9.89312e-15
-1.54506e-13
-2.09582e-12
-2.37895e-11
-2.18018e-10
-1.55371e-09
-7.72609e-09
-1.66217e-07
-1.6936e-06
-1.32761e-05
-0.000144036
-0.000673617
-0.000723953
-1.0459e-25
-2.70052e-24
-6.42332e-23
-1.26541e-21
-2.75906e-20
-6.53722e-19
-1.5243e-17
-3.44542e-16
-6.85236e-15
-1.1674e-13
-1.70463e-12
-2.1316e-11
-2.29666e-10
-2.23084e-09
-1.15396e-08
-1.60506e-09
-1.68762e-06
-5.84934e-05
-0.000665498
-0.00257401
-0.00335725
-0.00263206
-0.00186221
-1.25139e-25
-1.73877e-23
-1.4637e-21
-8.20591e-20
-3.367e-18
-1.07048e-16
-2.73989e-15
-5.78879e-14
-1.02765e-12
-1.54874e-11
-1.99642e-10
-2.20704e-09
-2.1126e-08
-1.78953e-07
-1.53269e-06
-1.74821e-05
-0.000191124
-0.00320782
-0.00794409
-0.00794395
-0.00388287
-5.34087e-08
-5.34069e-08
-1.37255e-23
-2.19801e-21
-1.70106e-19
-8.44853e-18
-3.0241e-16
-8.28981e-15
-1.80643e-13
-3.20207e-12
-4.68726e-11
-5.7072e-10
-5.78362e-09
-4.76855e-08
-2.89397e-07
-5.53151e-07
-5.53179e-07
-0.000386438
-0.00775706
-0.0105714
-0.00979323
-0.00124081
-6.6128e-08
-7.2512e-08
-2.20774e-07
-1.05003e-21
-1.42556e-19
-9.26045e-18
-3.81664e-16
-1.11792e-14
-2.46728e-13
-4.24872e-12
-5.82691e-11
-6.44249e-10
-5.75392e-09
-4.10032e-08
-2.20374e-07
-6.09295e-07
-1.64054e-06
-0.00162479
-0.00960664
-0.00960291
-0.00656113
-7.26256e-08
-7.25593e-08
-3.75013e-07
-6.30738e-07
-8.4144e-07
-2.53456e-20
-3.04977e-18
-1.74096e-16
-6.24487e-15
-1.57403e-13
-2.9456e-12
-4.20618e-11
-4.60789e-10
-3.81892e-09
-2.33646e-08
-8.82986e-08
-1.23934e-07
-1.23944e-07
-0.00119021
-0.00856027
-0.0098832
-0.00452894
-9.62506e-08
-1.28447e-07
-4.0586e-07
-5.3132e-07
-4.87767e-07
-3.66365e-07
-3.75872e-19
-3.82468e-17
-1.84426e-15
-5.58697e-14
-1.1871e-12
-1.8687e-11
-2.24248e-10
-2.06485e-09
-1.43595e-08
-7.25893e-08
-2.99786e-07
-1.37639e-05
-0.00106179
-0.00746875
-0.00879866
-0.00437417
-1.01208e-07
-1.5801e-07
-2.96978e-07
-2.7806e-07
-1.58513e-07
-8.7008e-08
-6.68961e-08
-2.21166e-18
-2.13478e-16
-9.6769e-15
-2.72313e-13
-5.3044e-12
-7.55149e-11
-8.10853e-10
-6.68269e-09
-4.22954e-08
-1.94637e-07
-6.53476e-07
-5.00844e-05
-0.00483741
-0.0108406
-0.00598554
-1.53458e-08
-1.04e-07
-1.59798e-07
-1.33921e-07
-5.25404e-08
-2.35936e-08
-1.74181e-08
-1.70601e-08
-1.25699e-17
-1.13521e-15
-4.78827e-14
-1.24387e-12
-2.21576e-11
-2.84917e-10
-2.71862e-09
-1.96697e-08
-1.12551e-07
-6.41449e-07
-2.68101e-05
-0.00113524
-0.00913858
-0.01109
-0.00053561
-1.57577e-08
-6.09717e-08
-6.24018e-08
-1.96712e-08
-7.38747e-09
-4.55289e-09
-3.99913e-09
-4.29502e-09
-3.76354e-17
-3.24934e-15
-1.31491e-13
-3.29885e-12
-5.71436e-11
-7.17044e-10
-6.61882e-09
-4.49105e-08
-2.24705e-07
-1.57276e-06
-0.000182764
-0.00654516
-0.0103836
-0.00458004
-5.44633e-09
-1.7857e-08
-2.46389e-08
-9.66392e-09
-2.74494e-09
-1.24536e-09
-8.91093e-10
-8.20207e-10
-8.42452e-10
-8.98023e-17
-7.31631e-15
-2.79444e-13
-6.64965e-12
-1.11298e-10
-1.37155e-09
-1.26554e-08
-8.73283e-08
-5.16567e-07
-3.5145e-05
-0.00275927
-0.0124756
-0.0103868
-5.58505e-09
-5.55472e-09
-7.7056e-09
-6.74615e-09
-1.31878e-09
-3.79953e-10
-1.89456e-10
-1.44729e-10
-1.33681e-10
-1.2545e-10
-1.74675e-16
-1.3288e-14
-4.6987e-13
-1.02075e-11
-1.51282e-10
-1.62592e-09
-1.31639e-08
-8.23606e-08
-9.83691e-07
-0.000240865
-0.00792557
-0.0127152
-0.0056701
-5.69269e-09
-5.69257e-09
-5.69273e-09
-1.6981e-09
-2.08235e-10
-4.533e-11
-2.27337e-11
-1.76968e-11
-1.61477e-11
-1.31985e-11
-3.45123e-16
-2.51823e-14
-8.46915e-13
-1.72508e-11
-2.35019e-10
-2.24008e-09
-1.52812e-08
-7.63375e-08
-4.07615e-06
-0.00216609
-0.0101058
-0.010126
-5.86249e-09
-5.86249e-09
-6.69301e-09
-6.08304e-09
-8.79615e-10
-4.28307e-11
-4.21898e-12
-1.98246e-12
-1.49941e-12
-1.26824e-12
-8.78501e-13
-8.31936e-16
-5.9716e-14
-1.98427e-12
-4.02868e-11
-5.54184e-10
-5.3547e-09
-3.52504e-08
-1.30405e-07
-2.78052e-06
-0.00221409
-0.00787257
-0.00204367
-6.00134e-09
-1.01462e-08
-1.58848e-08
-6.75123e-09
-6.33006e-10
-9.56673e-12
-2.8253e-13
-1.08497e-13
-7.30534e-14
-5.13401e-14
-2.822e-14
-1.95978e-15
-1.45093e-13
-5.02308e-12
-1.08217e-10
-1.64657e-09
-1.93499e-08
-1.90151e-07
-3.26451e-06
-0.000229885
-0.00151424
-0.000875127
-2.16427e-05
-6.17351e-09
-2.8554e-08
-2.812e-08
-6.2396e-09
-2.1904e-10
-1.17426e-12
-1.00704e-14
-2.76069e-15
-1.30523e-15
-5.23838e-16
-1.50781e-16
-6.29505e-15
-5.07462e-13
-1.90798e-11
-4.41033e-10
-6.98742e-09
-8.07449e-08
-7.76214e-07
-1.57137e-05
-0.000234763
-0.000317591
-5.08544e-06
-6.17522e-08
-7.75532e-08
-1.22692e-07
-5.57234e-08
-3.67126e-09
-1.31942e-11
9.68474e-38
-5.72972e-19
-1.11957e-20
-1.59357e-22
-1.1601e-23
-5.38366e-23
-428.233
-393.485
-397.248
-397.364
-121.901
-432.413
-490.618
-490.475
-126.209
-126.296
-336.43
-326.103
-509.711
-163.523
-163.706
-167.531
-970.466
-855.571
-737.085
-790.415
-817.139
-629.381
-551.852
-486.986
-5.01789e-05
-5.01766e-05
-5.01789e-05
-5.01766e-05
-5.50666e-05
-0.465791
-0.422917
-0.174968
-139.155
-234.921
-156.995
-39.1793
-1133.47
-1133.47
-1120.35
-508.911
-1136.66
-1218.09
-1210.83
-1217.2
-0.000537672
-0.000537625
-0.155743
-93.0417
-0.0034096
-0.000572903
-0.000572853
-0.000572903
-0.0133509
-0.0133499
-0.00296918
-0.0130473
-0.00175954
-0.00367692
-0.00219479
-0.00156919
-6.54327e-06
-4.4344e-06
-3.43176e-05
-1.31229e-05
-6.97001e-07
-6.12691e-07
-6.03459e-07
-5.39397e-07
-4.01188e-07
-3.9343e-07
-3.71383e-07
-3.50117e-07
-1.26754e-07
-1.27964e-07
-1.25838e-07
-1.24701e-07
-2.41738e-08
-2.53239e-08
-2.57336e-08
-2.63584e-08
-2.66461e-09
-2.87693e-09
-3.00134e-09
-3.1658e-09
-1.3751e-10
-1.57375e-10
-1.92373e-10
-2.49767e-10
-8.39055e-10
-1.59745e-09
-2.98934e-09
-5.32718e-09
-2.10216e-08
-3.88445e-08
-7.42654e-08
-1.25979e-07
-2.75873e-07
-7.38911e-07
-3.13952e-06
-6.43676e-06
-1.23806e-05
-5.28711e-05
-0.000242661
-0.000450884
-0.000828837
-0.000918026
-0.00124964
-0.00125145
-0.00162311
-0.00122234
-0.000780261
-0.000375332
-5.34087e-08
-5.34069e-08
-5.34087e-08
-5.34069e-08
-4.77423e-07
-1.03916e-06
-1.50572e-06
-1.94172e-06
-1.04899e-06
-1.3103e-06
-1.45394e-06
-1.48897e-06
-3.16033e-07
-3.06165e-07
-3.04575e-07
-3.25729e-07
-6.89468e-08
-7.30115e-08
-7.6412e-08
-8.14687e-08
-1.87269e-08
-1.86531e-08
-1.85907e-08
-1.88632e-08
-4.20853e-09
-3.89809e-09
-3.67138e-09
-3.52628e-09
-7.2999e-10
-6.19726e-10
-5.41749e-10
-4.87864e-10
-9.30159e-11
-7.16085e-11
-5.76348e-11
-4.92018e-11
-8.24235e-12
-5.81884e-12
-4.42394e-12
-3.75216e-12
-4.76424e-13
-3.29608e-13
-2.60112e-13
-2.38189e-13
-1.46219e-14
-1.11053e-14
-9.90623e-15
-9.97139e-15
-7.41637e-17
-7.55901e-17
-1.12582e-16
-1.81622e-16
-2.16433e-22
-5.83317e-22
-1.37983e-21
-3.04327e-21
-374.887
-1.44985e-19
9.88047e-18
-183.719
-459.815
-473.356
-233.282
-53.7408
-63.1267
-73.5801
-83.9068
-93.4006
-105.417
-137.655
-207.176
-321.404
-445.606
-506.108
-475.597
-204.436
4.92972e-18
-137.19
-521.686
-558.979
-208.566
-4.67419e-06
-4.67419e-06
-4.67419e-06
-4.67419e-06
-0.0434411
-0.178799
-0.446796
-1.5491
-7.02509
-40.6832
-451.866
-533.515
-531.603
-208.394
-213.605
-632.07
-632.053
-332.004
-9.05372
-5.56263e-06
-0.00336006
-0.00336881
-0.00156808
-0.00254201
-0.002125
-0.00413653
-0.00413659
-0.350416
-50.9438
-366.637
-474.062
-496.504
-340.904
-819.386
-819.368
-344.703
-3.64104e-05
-3.05793e-05
-0.000918881
-0.000242425
-2.7556e-08
-2.7556e-08
-2.7556e-08
-5.7115e-05
-0.00836126
-0.0510842
-0.59969
-17.9161
-79.2561
-157.43
-321.444
-828.152
-611.127
-164.556
-0.00409874
-0.0104183
-0.000187422
-0.000197298
-8.72062e-05
-0.000112605
-0.000422141
-0.0122255
-0.0861617
-0.532437
-6.01403
-22.78
-11.4345
-0.991221
-0.000112933
-269.676
-298.844
-4.52887e-05
-4.52866e-05
-0.00459598
-0.00957066
-3.90018e-05
-3.90018e-05
-0.113181
-0.367034
-0.0382089
-0.0114672
-0.785904
-18.2508
-246.985
-629.853
-368.622
-1.94442
-0.000126556
-385.224
-5.01789e-05
-5.01766e-05
-9.96204e-05
-0.00120157
-0.00370042
-0.214258
-4.34259
-34.8936
-116.969
-7.7182
-0.00296214
-11.2416
-375.285
-1053.36
-1272.06
-1137.62
-242.943
-1.70262
-568.307
-0.0683001
-0.00580535
-4.74245e-05
-4.77403e-05
-0.000793804
-0.169616
-25.4093
-471.458
-770.502
-145.29
-0.00335555
-232.481
-1175.61
-1396.03
-1396.03
-1396.03
-1164.52
-521.533
-1007.14
-8.61231
-5.16359e-05
-5.16359e-05
-9.35852e-05
-0.00034223
-5.16359e-05
-105.652
-996.326
-1070.4
-689.194
-134.126
-898.024
-1311.18
-1311.18
-1503.23
-1520
-1520
-1503.18
-1504.83
-78.382
-5.58473e-05
-5.58473e-05
-5.58473e-05
-5.58473e-05
-5.58473e-05
-540.246
-1157.7
-1157.72
-1157.7
-902.855
-843.069
-489.53
-303.135
-1067.14
-1594.38
-1643.97
-1643.97
-1643.97
-1217.21
-823.777
-453.689
-322.472
-408.957
-889.088
-1050.93
-901.873
-555.291
-484.439
-588.521
-188.178
-1.72136
-1.7345
-130.615
-764.731
-1536.13
-1756.71
-1766.8
-568.342
-1167.79
-1307.59
-1307.46
-1307.13
-935.503
-245.735
-7.33816e-07
-7.33814e-07
-7.33824e-07
-7.33814e-07
-7.33824e-07
-4.73817
-2.76002
-0.0185493
-0.0185091
-452.037
-1207.61
-1414.08
-0.000572853
-0.000572903
-33.0349
-89.1609
-53.3284
-7.81898e-07
-7.81899e-07
-7.81898e-07
-0.000385944
-0.0671937
-4.38483
-14.1363
-14.1467
-5.09622
-0.019722
-0.965616
-0.964548
-237.053
-483.92
-0.0130472
-0.00426025
-8.29993e-07
-8.29993e-07
-8.29982e-07
-8.29984e-07
-8.29982e-07
-8.29984e-07
-7.15442e-05
-0.04072
-2.01882
-4.32478
-3.85396
-1.86249e-05
-0.117836
-9.93358
-50.0131
-129.71
-422.311
-0.00074325
-0.00175794
-0.00611634
-0.00160908
-8.78077e-07
-8.78066e-07
-8.78068e-07
-1.09378e-06
-0.00231417
-0.0176951
-1.96737e-05
-1.97986e-05
-1.96737e-05
-1.97986e-05
-0.0626758
-8.63587
-86.8981
-275.56
-917.01
-7.65932e-06
-2.7485e-06
-0.00189238
-0.00275289
-0.00104243
-0.0042438
-0.00576513
-1.15367e-06
-0.000144933
-0.00195912
-6.36749e-05
-3.22761e-05
-6.13268e-05
-4.0806e-05
-0.0816286
-0.696894
-11.6637
-97.6769
-967.227
-6.99814e-07
-2.89108e-06
-7.48932e-07
-0.000868097
-0.00153475
-0.0302637
-0.0580348
-0.0323029
-0.00237938
-0.0124059
-0.0187926
-0.0147098
-0.00297164
-4.28682e-05
-0.0848781
-0.0129918
-0.0130029
-0.0222317
-1017.44
-4.10454e-07
-1.11062e-06
-7.85906e-07
-9.83132e-08
-0.00150884
-0.00464233
-0.048803
-0.112116
-0.112114
-0.112116
-0.112114
-0.0591996
-0.0148088
-4.49833e-05
-0.0332212
-0.0136361
-0.0156543
-3.89143
-939.827
-1.51764e-07
-5.31994e-07
-6.21715e-07
-1.02937e-07
-0.000665161
-0.000133756
-0.00771848
-0.0329939
-0.0323331
-0.0244898
-0.0216357
-0.0377101
-0.0267101
-0.0012367
-1.5185e-07
-0.00586794
-0.0735638
-10.5932
-108.769
-3.63128e-08
-1.27013e-07
-3.98528e-07
-3.17138e-07
-3.13361e-06
-3.5193e-05
-0.000128816
-9.79189e-05
-0.000102868
-2.69358e-08
-2.67468e-08
-2.69358e-08
-2.67468e-08
-7.60588e-07
-1.58497e-07
-2.16458e-08
-0.246282
-5.57557
-0.57854
-4.8467e-09
-1.89341e-08
-6.6497e-08
-1.60687e-07
-1.6316e-07
-9.24157e-07
-9.03971e-07
-1.12393e-06
-2.15011e-06
-2.7352e-06
-1.91289e-06
-6.66392e-07
-2.40545e-07
-2.26324e-08
-2.25764e-08
-2.25887e-08
-0.397945
-0.724845
-0.603076
-5.40472e-10
-2.10275e-09
-6.02895e-09
-1.6167e-08
-2.40896e-08
-5.27788e-08
-1.32083e-07
-3.5577e-07
-8.20569e-07
-1.18621e-06
-1.15708e-06
-9.70916e-07
-6.37219e-07
-3.14932e-07
-4.41231e-08
-2.3507e-08
-0.320268
-2.01872
-0.628283
-1.24013e-08
-4.5652e-08
-9.34077e-08
-8.4433e-08
-5.06222e-08
-2.80588e-08
-2.51242e-08
-4.51267e-08
-1.07031e-07
-1.83437e-07
-1.93548e-07
-1.82285e-07
-1.83545e-07
-1.44408e-07
-3.06122e-08
-0.0373099
-0.0370125
-7.20821
-0.91135
-2.89421e-07
-1.31175e-06
-2.31433e-06
-1.82518e-06
-9.80747e-07
-3.94146e-07
-1.4772e-07
-5.31407e-08
-2.44682e-08
-2.0076e-08
-2.24352e-08
-3.32489e-08
-6.51478e-08
-5.6546e-08
-3.17777e-08
-0.0419143
-0.0378778
-7.48227
-4.06187
-2.48728e-05
-6.19042e-05
-4.65182e-05
-2.06099e-05
-6.62572e-06
-2.78064e-06
-1.2695e-06
-5.32637e-07
-1.84261e-07
-5.01186e-08
-1.78963e-08
-1.47198e-08
-3.09048e-08
-2.77343e-08
-2.62116e-08
-0.0392755
-0.0392721
-4.68499
-120.978
-0.000551722
-0.000337045
-0.000108095
-4.32033e-05
-1.60595e-05
-7.47914e-06
-4.28844e-06
-2.43929e-06
-1.13659e-06
-4.061e-07
-1.17313e-07
-3.41659e-08
-2.74674e-08
-2.71391e-08
-2.71406e-08
-0.0547069
-0.046793
-2.44242e-24
-386.243
-0.000730117
-0.000124551
-4.16704e-05
-5.06628e-05
-6.09433e-05
-2.15259e-05
-8.1597e-06
-5.56009e-06
-3.77972e-06
-1.85508e-06
-6.70182e-07
-1.94999e-07
-6.29498e-08
-2.80681e-08
-2.80665e-08
-0.088816
-0.095377
-8.41015e-20
-399.456
-1.452e-07
-1.44968e-07
-1.452e-07
-1.35441e-05
-9.52813e-05
-0.000117759
-0.000104352
-3.61627e-05
-1.53903e-05
-6.90862e-06
-2.66421e-06
-8.85289e-07
-2.6098e-07
-5.56436e-08
-2.89956e-08
-0.0928433
-0.106257
-4.57696e-21
-412.604
-9.59461e-07
-1.52477e-06
-1.12072e-06
-3.51701e-07
-6.08596e-08
-0.00136784
-0.00251247
-0.00192894
-0.000456048
-4.53688e-05
-6.80075e-06
-2.4373e-06
-7.77062e-07
-1.60222e-07
-2.99215e-08
-0.0298751
-0.0978819
-9.17538e-20
-294.931
-2.57645e-06
-2.65192e-06
-2.2281e-06
-4.31089e-07
-6.17177e-08
-0.00219392
-0.00387938
-0.00387414
-0.00289722
-0.000333177
-1.15963e-05
-2.21092e-06
-1.13473e-06
-3.36487e-07
-3.08507e-08
-0.000537184
-0.0184813
-0.000494694
-0.00018801
-1.48481e-06
-1.91693e-06
-1.52448e-06
-4.34943e-07
-6.46326e-08
-2.09717e-05
-0.00126724
-0.00287592
-0.00300873
-0.00204994
-0.000149891
-2.27737e-06
-2.89787e-06
-1.65875e-06
-3.23042e-07
-4.08675e-08
-0.0185998
-0.00467979
-0.000289455
-3.81691e-07
-5.19511e-07
-5.32009e-07
-4.4859e-07
-6.95831e-08
-2.83811e-09
-3.49224e-09
-2.83811e-09
-0.000139244
-0.00305159
-0.0029409
-0.000413734
-4.68197e-06
-8.92302e-07
-4.36194e-07
-4.20598e-08
-0.0491416
-0.0199416
-0.000411151
-8.95529e-08
-1.17444e-07
-1.43457e-07
-1.26741e-07
-9.11867e-08
-3.0944e-07
-1.6632e-06
-1.18697e-06
-2.62734e-07
-0.00142539
-0.0089002
-0.00362024
-0.000153788
-7.88158e-06
-8.17683e-07
-7.51533e-08
-0.0506975
-0.047862
-0.00256946
-1.96776e-08
-2.46364e-08
-2.96892e-08
-3.1647e-08
-6.48726e-08
-4.27368e-07
-3.4481e-06
-3.6691e-06
-5.54121e-07
-5.54234e-07
-0.0163603
-0.0189697
-0.00347716
-7.93459e-05
-8.08096e-07
-7.76981e-08
-0.0473774
-0.0385691
-0.00313892
-3.44161e-09
-3.91441e-09
-4.93005e-09
-7.6845e-09
-2.70332e-08
-2.69868e-07
-3.03031e-06
-3.84092e-06
-1.30356e-23
-0.00347606
-0.0288148
-0.0308012
-0.0163659
-7.4471e-05
-4.79078e-07
-6.8299e-05
-0.00851575
-0.0068275
-0.00175367
-4.50206e-10
-4.74295e-10
-7.56599e-10
-1.96097e-09
-8.78262e-09
-7.04333e-08
-9.77407e-07
-3.52244e-06
1.57649e-24
-0.0364867
-0.064267
-0.0267167
-0.0119875
-3.91229e-05
-4.90082e-07
-0.000991373
-0.000846659
-9.61352e-05
-8.0935e-05
-4.43518e-11
-5.10369e-11
-1.2925e-10
-4.81725e-10
-2.26087e-09
-1.43875e-08
-1.78699e-07
-1.9901e-06
-7.77254e-24
-0.0144736
-0.536765
-0.276978
-0.0186206
-8.51439e-05
-4.11645e-06
-0.0012118
-0.000493741
-3.11666e-05
-3.11486e-05
-3.52019e-12
-5.95719e-12
-2.17268e-11
-9.48962e-11
-4.67866e-10
-2.49689e-09
-2.32537e-08
-7.11845e-07
-9.09346e-25
-0.0128326
-0.742088
-0.775161
-0.0969804
-0.000285238
-1.57318e-06
-0.00113605
-0.00019452
-3.19223e-05
-0.00638053
-2.64154e-13
-6.85671e-13
-2.8366e-12
-1.37287e-11
-7.51892e-11
-4.02703e-10
-3.56712e-09
-1.74788e-07
-3.21766e-08
-1.31533e-26
-0.705173
-1.00748
-0.254936
-0.000731887
-1.61485e-06
-0.000126498
-6.99865e-05
-0.0066883
-0.0305147
-1.55095e-14
-4.83298e-14
-2.24288e-13
-1.31131e-12
-8.85943e-12
-5.88618e-11
-5.83752e-10
-2.33024e-08
-6.15408e-09
9.345e-29
-0.602806
-1.03132
-0.38786
-0.00169021
-7.43923e-07
-6.70967e-08
-0.00131964
-0.162593
-0.0587843
-3.7062e-16
-1.4427e-15
-9.53577e-15
-7.83235e-14
-6.8067e-13
-5.61687e-12
-5.09794e-11
-1.22497e-09
-1.81984e-10
-3.91731e-29
-0.492129
-1.05516
-0.598439
-0.00472209
-4.83889e-07
-6.86477e-08
-0.129559
-0.179828
-0.113138
-8.18736e-21
-2.8874e-20
-1.11173e-19
-2.2717e-19
-1.68559e-19
3.25672e-69
2.0643e-68
3.59333e-67
7.63116e-29
5.27599e-29
-0.0390716
-0.908947
-0.491431
-0.00244306
-2.46581e-07
-7.01987e-08
-0.0943731
-0.140487
-0.0578116
)
;

boundaryField
{
    leftWall
    {
        type            calculated;
        value           nonuniform List<scalar> 
50
(
-29.4294
-88.2881
-147.147
-206.006
-264.864
-323.723
-382.582
-439.428
-255.964
-3.54094
-0.000250632
-1.28468e-10
-5.77859e-12
-2.6564e-12
-1.7284e-12
-1.21557e-12
-6.27064e-13
-2.49942e-13
-8.44653e-14
-2.57102e-14
-7.05302e-15
-1.77979e-15
-4.17251e-16
-9.17262e-17
-1.90919e-17
-3.761e-18
-7.07022e-19
-1.27235e-19
-2.20127e-20
-3.68648e-21
-6.02775e-22
-9.73258e-23
-1.56632e-23
-2.54416e-24
-3.79575e-25
-1.0459e-25
-1.25139e-25
-1.37255e-23
-1.05003e-21
-2.53456e-20
-3.75872e-19
-2.21166e-18
-1.25699e-17
-3.76354e-17
-8.98023e-17
-1.74675e-16
-3.45123e-16
-8.31936e-16
-1.95978e-15
-6.29505e-15
)
;
    }
    rightWall
    {
        type            calculated;
        value           nonuniform List<scalar> 
50
(
-24.1377
-62.0081
-117.677
-164.747
-174.808
-213.823
-278.547
-388.615
-475.597
-531.603
-496.504
-321.444
-269.676
-385.224
-568.307
-1007.14
-1504.83
-1643.97
-1766.8
-1414.08
-483.92
-422.311
-917.01
-967.227
-1017.44
-939.827
-108.769
-0.57854
-0.603076
-0.628283
-0.91135
-4.06187
-120.978
-386.243
-399.456
-412.604
-294.931
-0.00018801
-0.000289455
-0.000411151
-0.00256946
-0.00313892
-0.00175367
-8.0935e-05
-3.11486e-05
-0.00638053
-0.0305147
-0.0587843
-0.113138
-0.0578116
)
;
    }
    lowerWall
    {
        type            calculated;
        value           nonuniform List<scalar> 
62
(
0
0
0
0
0
0
0
0
0
0
0
0
0
0
0
0
0
0
0
0
0
0
0
-29.4228
-88.2626
-147.104
-205.951
-264.864
-323.723
-382.582
-441.318
-377.984
-347.313
-350.635
-350.737
-19.0291
-57.0874
-95.1456
-161.448
-210.519
-256.046
-298.758
-344.724
0
0
0
0
0
0
0
0
0
0
0
0
0
0
0
0
0
0
0
)
;
    }
    atmosphere
    {
        type            calculated;
        value           nonuniform List<scalar> 
46
(
-6.36459e-15
-5.13068e-13
-1.92905e-11
-4.45905e-10
-7.06461e-09
-8.16368e-08
-7.84789e-07
-1.58873e-05
-0.000237357
-0.000321099
-5.14162e-06
-6.24344e-08
-7.84099e-08
-1.24047e-07
-5.6339e-08
-0
-0
-0
-0
-0
-0
-0
-0
-0
-0
-0
-0
-0
-0
-0
-0
-0
-0
-0
-0
-0
-0
-0
-0.918988
-0.49686
-0.00247005
-2.49305e-07
-7.09741e-08
-0.0954157
-0.142039
-0.0584503
)
;
    }
    defaultFaces
    {
        type            empty;
    }
}


// ************************************************************************* //
