/*--------------------------------*- C++ -*----------------------------------*\
| =========                 |                                                 |
| \\      /  F ield         | OpenFOAM: The Open Source CFD Toolbox           |
|  \\    /   O peration     | Version:  2012                                  |
|   \\  /    A nd           | Website:  www.openfoam.com                      |
|    \\/     M anipulation  |                                                 |
\*---------------------------------------------------------------------------*/
FoamFile
{
    version     2.0;
    format      ascii;
    class       volVectorField;
    location    "0.73";
    object      U;
}
// * * * * * * * * * * * * * * * * * * * * * * * * * * * * * * * * * * * * * //

dimensions      [0 1 -1 0 0 0 0];


internalField   nonuniform List<vector> 
2268
(
(-0.00879101 0.00288515 0)
(-0.0222517 0.00247031 0)
(-0.0368175 0.0026106 0)
(-0.053195 0.00295389 0)
(-0.0722183 0.00283112 0)
(-0.0889315 0.00221923 0)
(-0.103137 0.00230262 0)
(-0.119153 0.00290452 0)
(-0.135664 0.00282135 0)
(-0.14624 0.00285088 0)
(-0.159877 0.00254936 0)
(-0.166232 0.00233676 0)
(-0.174299 0.00107995 0)
(-0.171961 -0.000140663 0)
(-0.174237 -0.0012547 0)
(-0.166067 -0.00223445 0)
(-0.165157 -0.00384109 0)
(-0.14739 -0.00540267 0)
(-0.136186 -0.00787782 0)
(-0.105818 -0.0102599 0)
(-0.0738736 -0.011809 0)
(-0.0470144 -0.0165354 0)
(0.0243257 -0.00458885 0)
(-0.00901838 0.0117877 0)
(-0.0225545 0.0107773 0)
(-0.0372209 0.0120157 0)
(-0.0532105 0.0137743 0)
(-0.071921 0.0140613 0)
(-0.0885505 0.0123832 0)
(-0.10312 0.0119856 0)
(-0.119331 0.0124384 0)
(-0.13578 0.0100173 0)
(-0.146127 0.00852619 0)
(-0.160344 0.00699493 0)
(-0.166531 0.00435061 0)
(-0.174775 0.00179445 0)
(-0.172849 -7.87624e-05 0)
(-0.175329 -0.00129045 0)
(-0.167209 -0.0023126 0)
(-0.166123 -0.00466629 0)
(-0.148804 -0.0086001 0)
(-0.138222 -0.0113961 0)
(-0.109262 -0.0194958 0)
(-0.0805579 -0.0156087 0)
(-0.0547507 -0.0300434 0)
(0.0101452 -0.00582427 0)
(-0.0093139 0.0177993 0)
(-0.0222538 0.0157928 0)
(-0.0369521 0.0170946 0)
(-0.0524189 0.0193485 0)
(-0.0710217 0.0195371 0)
(-0.0882037 0.0169688 0)
(-0.104256 0.0168762 0)
(-0.12117 0.0183342 0)
(-0.137596 0.0155365 0)
(-0.148295 0.0143953 0)
(-0.162056 0.0122787 0)
(-0.16757 0.0090286 0)
(-0.175605 0.00421623 0)
(-0.173409 -9.11046e-05 0)
(-0.17645 -0.00371499 0)
(-0.167829 -0.00688356 0)
(-0.167275 -0.0122893 0)
(-0.148787 -0.018967 0)
(-0.138406 -0.0263214 0)
(-0.10788 -0.0379565 0)
(-0.0781591 -0.0374644 0)
(-0.0449884 -0.0599339 0)
(0.0226294 -0.0261488 0)
(-0.00965321 0.0267203 0)
(-0.0222955 0.0238523 0)
(-0.0376826 0.0262845 0)
(-0.0528789 0.0298807 0)
(-0.0706089 0.0309785 0)
(-0.0873468 0.0280687 0)
(-0.104149 0.0275519 0)
(-0.120933 0.0281446 0)
(-0.137425 0.0228573 0)
(-0.148829 0.0200215 0)
(-0.162787 0.0162052 0)
(-0.169319 0.0106279 0)
(-0.178437 0.00473373 0)
(-0.17696 0.000153838 0)
(-0.179925 -0.00365416 0)
(-0.171126 -0.00686273 0)
(-0.171231 -0.0132739 0)
(-0.154244 -0.0224826 0)
(-0.14496 -0.0302152 0)
(-0.115503 -0.0481322 0)
(-0.0857535 -0.0446525 0)
(-0.047643 -0.0774776 0)
(0.0261919 -0.0152157 0)
(-0.00868223 0.0328753 0)
(-0.0214324 0.0290181 0)
(-0.0368856 0.0315263 0)
(-0.0519194 0.0348913 0)
(-0.0694083 0.0358203 0)
(-0.0866769 0.0328307 0)
(-0.106347 0.0327889 0)
(-0.1242 0.0340758 0)
(-0.140978 0.0287813 0)
(-0.152916 0.0263277 0)
(-0.16594 0.0220336 0)
(-0.171606 0.0163104 0)
(-0.180253 0.00795257 0)
(-0.177938 0.000386653 0)
(-0.181453 -0.00630229 0)
(-0.172204 -0.0113323 0)
(-0.174056 -0.020083 0)
(-0.156024 -0.0318439 0)
(-0.148802 -0.0445201 0)
(-0.116534 -0.0665537 0)
(-0.0882155 -0.0697006 0)
(-0.0335466 -0.11385 0)
(0.0534914 -0.0376758 0)
(-0.00701659 0.0409859 0)
(-0.0219232 0.0372149 0)
(-0.0382722 0.0407308 0)
(-0.0534548 0.0452822 0)
(-0.069487 0.0474283 0)
(-0.0856177 0.0455099 0)
(-0.105775 0.045264 0)
(-0.1231 0.0444463 0)
(-0.140082 0.0364312 0)
(-0.153639 0.0317506 0)
(-0.167873 0.0251334 0)
(-0.175602 0.0172718 0)
(-0.185464 0.00790602 0)
(-0.183676 0.000585476 0)
(-0.186473 -0.00606909 0)
(-0.177556 -0.0105347 0)
(-0.180989 -0.020461 0)
(-0.16494 -0.0345839 0)
(-0.160495 -0.0482356 0)
(-0.128334 -0.0767691 0)
(-0.101509 -0.0829283 0)
(-0.038783 -0.143812 0)
(0.059352 -0.00349767 0)
(-0.00480868 0.0465086 0)
(-0.0200101 0.043742 0)
(-0.0364669 0.046372 0)
(-0.051988 0.0495899 0)
(-0.0673608 0.050978 0)
(-0.0844843 0.0499773 0)
(-0.108438 0.0505396 0)
(-0.128016 0.0503241 0)
(-0.145839 0.0432885 0)
(-0.159352 0.0394317 0)
(-0.17209 0.0324729 0)
(-0.178472 0.0245324 0)
(-0.187807 0.0118637 0)
(-0.184893 0.000637679 0)
(-0.188169 -0.00905706 0)
(-0.179484 -0.014298 0)
(-0.185635 -0.0258974 0)
(-0.168782 -0.0420837 0)
(-0.168234 -0.0617592 0)
(-0.131227 -0.0952688 0)
(-0.108973 -0.11226 0)
(-0.0218041 -0.191622 0)
(0.0839847 -0.0304486 0)
(-0.0037367 0.0527672 0)
(-0.0192976 0.0522394 0)
(-0.0359665 0.0559239 0)
(-0.0524738 0.0599665 0)
(-0.0661401 0.0628579 0)
(-0.0829468 0.0649457 0)
(-0.107352 0.0658289 0)
(-0.127246 0.0620412 0)
(-0.146647 0.0512037 0)
(-0.161706 0.0440788 0)
(-0.175309 0.034244 0)
(-0.185424 0.0245883 0)
(-0.195561 0.0111082 0)
(-0.191975 0.000660227 0)
(-0.193246 -0.00833244 0)
(-0.185959 -0.011873 0)
(-0.194485 -0.0250124 0)
(-0.179716 -0.0429287 0)
(-0.184209 -0.0652884 0)
(-0.147578 -0.104602 0)
(-0.142757 -0.133727 0)
(-0.0565712 -0.234093 0)
(-0.0574707 0.0293747 0)
(-0.595444 0.245308 0)
(-1.20645 0.108393 0)
(-1.50206 0.0449403 0)
(-1.58341 0.0146101 0)
(-1.56296 -0.0398057 0)
(-1.32423 -0.0452776 0)
(-1.15833 0.0114658 0)
(-1.14431 0.0802306 0)
(-1.37678 0.0733884 0)
(-1.52566 0.0351546 0)
(-1.60515 0.0152868 0)
(-1.6322 0.00058058 0)
(-1.64058 -0.00264603 0)
(-1.64018 0.000277735 0)
(-1.65348 0.0164156 0)
(-1.70626 0.0264764 0)
(-1.74962 0.00122815 0)
(-1.57742 -0.108388 0)
(-0.765236 -0.324695 0)
(-0.461196 0.52138 0)
(-0.98698 0.280156 0)
(-1.23379 0.115027 0)
(-1.29036 0.0112546 0)
(-1.27676 -0.069801 0)
(-0.998937 -0.12595 0)
(-0.817508 -0.0873319 0)
(-0.90941 0.0122319 0)
(-1.15509 0.0877058 0)
(-1.29202 0.0615861 0)
(-1.35579 0.0297178 0)
(-1.37627 0.0144388 0)
(-1.39273 0.00622006 0)
(-1.41394 0.00502833 0)
(-1.47238 0.011805 0)
(-1.5236 0.0128505 0)
(-1.52779 -0.0559684 0)
(-1.04087 -0.308961 0)
(-0.521278 -0.677855 0)
(-0.388569 0.848805 0)
(-0.730596 0.43774 0)
(-0.94561 0.173004 0)
(-1.06589 0.0312866 0)
(-1.00428 -0.162115 0)
(-0.564016 -0.243885 0)
(-0.257484 -0.0311434 0)
(-0.222613 0.231737 0)
(-0.514113 0.242669 0)
(-0.755644 0.122743 0)
(-1.09163 0.0511039 0)
(-1.31875 0.0156418 0)
(-1.4342 0.0125488 0)
(-1.49968 0.0334587 0)
(-1.53202 0.062452 0)
(-1.52921 0.0497136 0)
(-1.33223 -0.20521 0)
(-0.716256 -0.534263 0)
(-0.354622 -0.991707 0)
(-0.279502 1.00709 0)
(-0.479197 0.523131 0)
(-0.849091 0.257042 0)
(-1.07609 0.0370279 0)
(-0.823928 -0.281244 0)
(-0.227958 -0.441515 0)
(-0.0261085 -0.230588 0)
(0.353404 0.106761 0)
(0.634783 0.304158 0)
(0.544383 0.304934 0)
(0.378481 0.278925 0)
(0.127428 0.215291 0)
(-0.345884 0.165031 0)
(-0.647374 0.0673998 0)
(-1.05878 0.0308018 0)
(-0.913684 -0.123129 0)
(-0.88778 -0.433721 0)
(-0.00370906 -0.721161 0)
(-0.289521 -1.13311 0)
(-0.266134 1.16172 0)
(-0.329481 0.678039 0)
(-0.668537 0.378711 0)
(-0.960248 0.000838986 0)
(-0.315521 -0.520331 0)
(0.0627383 -0.59183 0)
(0.160131 -0.281489 0)
(0.402811 -0.0394175 0)
(0.649945 0.170463 0)
(0.797133 0.224356 0)
(0.910948 0.217769 0)
(1.02539 0.210457 0)
(1.10571 0.199858 0)
(1.23124 0.228178 0)
(0.9139 0.198886 0)
(0.983817 -0.000722257 0)
(-0.40716 -0.363817 0)
(0.482534 -0.860709 0)
(-0.191858 -1.12299 0)
(-0.208242 1.26339 0)
(-0.150271 0.68475 0)
(-0.0549143 0.630633 0)
(-0.10228 -0.0693721 0)
(0.241911 -0.710606 0)
(0.246094 -0.646973 0)
(0.328048 -0.374931 0)
(0.542924 -0.106211 0)
(0.66391 0.132499 0)
(0.821953 0.191673 0)
(0.903661 0.191224 0)
(0.976863 0.186947 0)
(1.03222 0.173271 0)
(1.07963 0.189291 0)
(1.10217 0.218192 0)
(1.06728 0.194254 0)
(0.727204 -0.169252 0)
(0.67911 -0.830068 0)
(-0.135801 -1.01316 0)
(-0.239904 1.30982 0)
(0.141495 0.642925 0)
(-0.889115 0.227648 0)
(0.52586 -0.0406734 0)
(0.389216 -0.696697 0)
(0.358103 -0.633971 0)
(0.423249 -0.409889 0)
(0.580009 -0.178292 0)
(0.655867 0.0533146 0)
(0.79659 0.124043 0)
(0.895004 0.152168 0)
(0.964218 0.155311 0)
(1.01751 0.152928 0)
(1.06653 0.168039 0)
(1.10083 0.205276 0)
(1.12378 0.183436 0)
(1.07267 -0.0797523 0)
(0.765925 -0.54627 0)
(-0.181955 -0.895825 0)
(-0.256016 1.29991 0)
(0.326231 1.00521 0)
(-1.09492 0.3748 0)
(0.540312 -0.583617 0)
(0.413033 -0.668637 0)
(0.406057 -0.659586 0)
(0.477219 -0.469408 0)
(0.627732 -0.207877 0)
(0.672087 0.0385585 0)
(0.776433 0.0886356 0)
(0.866479 0.119112 0)
(0.927788 0.134672 0)
(0.988228 0.129998 0)
(1.02984 0.153922 0)
(1.06898 0.194567 0)
(1.06032 0.181811 0)
(1.00041 -0.0221153 0)
(0.662223 -0.292596 0)
(-0.190233 -0.761505 0)
(-0.00198496 0.0596972 0)
(-0.015693 0.0624501 0)
(-0.0297028 0.065181 0)
(-0.0470025 0.0657491 0)
(-0.0612032 0.0665619 0)
(-0.0774399 0.0718745 0)
(-0.0982656 0.074654 0)
(-0.116743 0.0728442 0)
(-0.139793 0.0644663 0)
(-0.159466 0.057994 0)
(-0.1776 0.049081 0)
(-0.191383 0.0393704 0)
(-0.19947 0.0172277 0)
(-0.192653 -0.00142638 0)
(-0.193513 -0.0137353 0)
(-0.187293 -0.0153753 0)
(-0.201881 -0.0307848 0)
(-0.187116 -0.0502008 0)
(-0.200155 -0.0832674 0)
(-0.173771 -0.12228 0)
(-0.215217 -0.167561 0)
(-0.130764 -0.233196 0)
(-0.207831 -0.153626 0)
(-0.00704907 0.0681171 0)
(-0.0270871 0.076364 0)
(-0.0567796 0.0838826 0)
(-0.105732 0.0893541 0)
(-0.13656 0.0919656 0)
(-0.146846 0.0995306 0)
(-0.156586 0.101992 0)
(-0.167633 0.0996971 0)
(-0.18128 0.0892776 0)
(-0.186431 0.0769562 0)
(-0.190725 0.0610801 0)
(-0.187284 0.0410707 0)
(-0.185676 0.0104122 0)
(-0.183706 -0.00475636 0)
(-0.192535 -0.0113119 0)
(-0.199158 -0.00252546 0)
(-0.223107 -0.0222022 0)
(-0.223785 -0.0425827 0)
(-0.247654 -0.0710446 0)
(-0.245601 -0.0836595 0)
(-0.309729 -0.162751 0)
(-0.321511 -0.242863 0)
(-0.441228 -0.404936 0)
(-0.0237013 0.0942468 0)
(-0.0631588 0.112667 0)
(-0.106159 0.14521 0)
(-0.146131 0.146693 0)
(-0.172458 0.108323 0)
(-0.193093 0.0926553 0)
(-0.218192 0.0960456 0)
(-0.249198 0.0978477 0)
(-0.28255 0.0835174 0)
(-0.286292 0.0675043 0)
(-0.287205 0.0500561 0)
(-0.277723 0.0343128 0)
(-0.270532 0.0137888 0)
(-0.230552 0.00522089 0)
(-0.189141 0.00201182 0)
(-0.16084 0.0146565 0)
(-0.166647 -0.00555314 0)
(-0.181732 -0.0269701 0)
(-0.220573 -0.0598448 0)
(-0.229228 -0.062803 0)
(-0.309842 -0.0871916 0)
(-0.38118 -0.111139 0)
(-0.536614 -0.201204 0)
(-0.0283754 0.15548 0)
(-0.0790569 0.159195 0)
(-0.120857 0.167092 0)
(-0.139633 0.155513 0)
(-0.169421 0.138592 0)
(-0.231179 0.144769 0)
(-0.290418 0.157629 0)
(-0.334747 0.164129 0)
(-0.383469 0.126404 0)
(-0.412674 0.081167 0)
(-0.432894 0.0522545 0)
(-0.443952 0.023937 0)
(-0.452044 -0.0374904 0)
(-0.418207 -0.0866597 0)
(-0.414245 -0.0816044 0)
(-0.439955 -0.024663 0)
(-0.527647 -0.000149001 0)
(-0.501289 0.0125434 0)
(-0.403665 -0.0224151 0)
(-0.281122 0.00642891 0)
(-0.295257 -0.00928579 0)
(-0.331246 -0.0144313 0)
(-0.468519 -0.0028233 0)
(-0.0256287 0.201802 0)
(-0.0720127 0.205194 0)
(-0.121505 0.206176 0)
(-0.161405 0.195753 0)
(-0.21961 0.200841 0)
(-0.288532 0.215029 0)
(-0.361345 0.201492 0)
(-0.420947 0.192336 0)
(-0.489259 0.162429 0)
(-0.576268 0.118458 0)
(-0.696085 0.0819345 0)
(-0.857635 0.0569853 0)
(-1.22306 -0.00641801 0)
(-1.64694 -0.0268036 0)
(-1.89536 0.0268093 0)
(-1.85286 0.126055 0)
(-1.7337 0.0552337 0)
(-1.45157 -0.156538 0)
(-1.21349 -0.281239 0)
(-0.915227 -0.175323 0)
(-0.706438 -0.0348684 0)
(-0.585044 0.0577413 0)
(-0.541578 0.0450334 0)
(-0.0254848 0.25357 0)
(-0.0705074 0.255353 0)
(-0.121134 0.256494 0)
(-0.171434 0.253383 0)
(-0.239758 0.265364 0)
(-0.304308 0.286449 0)
(-0.387913 0.28923 0)
(-0.488825 0.29203 0)
(-0.613799 0.28213 0)
(-0.788874 0.287929 0)
(-1.02653 0.3342 0)
(-1.35988 0.550588 0)
(-1.80696 0.733064 0)
(-2.27056 0.576257 0)
(-2.45589 0.132544 0)
(-2.43045 -0.18605 0)
(-2.08149 -0.405127 0)
(-1.86597 -0.511297 0)
(-1.73993 -0.560339 0)
(-1.59463 -0.502485 0)
(-1.37671 -0.338548 0)
(-1.12696 -0.179873 0)
(-0.872067 -0.109126 0)
(-0.0238219 0.298336 0)
(-0.0667364 0.301435 0)
(-0.116557 0.307986 0)
(-0.165711 0.315448 0)
(-0.230127 0.335031 0)
(-0.290102 0.364647 0)
(-0.367416 0.387321 0)
(-0.462608 0.42036 0)
(-0.596218 0.46268 0)
(-0.779795 0.536336 0)
(-1.02871 0.653514 0)
(-1.31025 0.852304 0)
(-1.52513 0.91576 0)
(-1.76754 0.646626 0)
(-1.89468 0.152429 0)
(-1.94251 -0.25123 0)
(-1.93099 -0.448435 0)
(-1.85047 -0.530179 0)
(-1.82037 -0.555373 0)
(-1.78305 -0.540973 0)
(-1.72935 -0.502753 0)
(-1.62475 -0.450405 0)
(-1.55345 -0.474671 0)
(-0.0219421 0.344281 0)
(-0.0618445 0.348175 0)
(-0.107757 0.35548 0)
(-0.152051 0.366955 0)
(-0.206051 0.389541 0)
(-0.255585 0.423794 0)
(-0.316409 0.461748 0)
(-0.386725 0.521475 0)
(-0.477131 0.600858 0)
(-0.593244 0.72135 0)
(-0.737792 0.865921 0)
(-0.915663 1.04856 0)
(-1.0275 1.17023 0)
(-1.22905 0.947406 0)
(-1.49528 0.317864 0)
(-1.72785 -0.158107 0)
(-1.74944 -0.495997 0)
(-1.73676 -0.625857 0)
(-1.73 -0.630432 0)
(-1.72941 -0.593212 0)
(-1.77124 -0.4977 0)
(-1.85663 -0.348177 0)
(-1.98291 0.282715 0)
(-0.0200809 0.382746 0)
(-0.0552012 0.387911 0)
(-0.0960509 0.398978 0)
(-0.132799 0.414654 0)
(-0.178365 0.43951 0)
(-0.216848 0.476234 0)
(-0.262965 0.519212 0)
(-0.305807 0.582931 0)
(-0.352408 0.669216 0)
(-0.390711 0.800912 0)
(-0.419613 0.973769 0)
(-0.436636 1.15011 0)
(-0.432378 1.23677 0)
(-0.430509 1.12553 0)
(-0.63231 0.652345 0)
(-0.964334 7.45284e-05 0)
(-1.32388 -0.436432 0)
(-1.57982 -0.549001 0)
(-1.55439 -0.560922 0)
(-1.5234 -0.49653 0)
(-1.56625 -0.375139 0)
(-1.63315 -0.241035 0)
(-1.62111 -0.137683 0)
(-0.0174594 0.41957 0)
(-0.0467812 0.424131 0)
(-0.0815358 0.43301 0)
(-0.110527 0.449222 0)
(-0.145839 0.473378 0)
(-0.172815 0.508431 0)
(-0.202969 0.550465 0)
(-0.224711 0.611372 0)
(-0.241964 0.685812 0)
(-0.238848 0.789689 0)
(-0.20156 0.911861 0)
(-0.110183 1.05835 0)
(0.018692 1.1578 0)
(0.148386 1.14303 0)
(0.180889 0.870763 0)
(-0.00766119 0.526168 0)
(-0.386122 0.142535 0)
(-0.826129 -0.390905 0)
(-1.18404 -0.694 0)
(-1.48405 -0.554852 0)
(-1.44047 -0.378532 0)
(-1.39365 -0.280361 0)
(-1.3561 -0.189215 0)
(-0.015221 0.447536 0)
(-0.0381457 0.452561 0)
(-0.0681983 0.463313 0)
(-0.090883 0.479632 0)
(-0.118875 0.502385 0)
(-0.136521 0.534169 0)
(-0.156691 0.571454 0)
(-0.163915 0.622908 0)
(-0.165747 0.682976 0)
(-0.144961 0.761782 0)
(-0.101138 0.843477 0)
(-0.0121524 0.93169 0)
(0.121431 0.978628 0)
(0.282315 0.964509 0)
(0.405804 0.809852 0)
(0.391373 0.57268 0)
(0.311135 0.370398 0)
(0.0664113 0.251798 0)
(-0.413651 0.092148 0)
(-0.976382 -0.276244 0)
(-1.29045 -0.479656 0)
(-1.37035 -0.315401 0)
(-1.28692 -0.285538 0)
(-0.0126418 0.472844 0)
(-0.0311837 0.477003 0)
(-0.0554544 0.485616 0)
(-0.0715196 0.499761 0)
(-0.0915577 0.518758 0)
(-0.100888 0.546105 0)
(-0.110888 0.577401 0)
(-0.107084 0.62031 0)
(-0.0977606 0.666072 0)
(-0.0663183 0.724619 0)
(-0.0179218 0.777388 0)
(0.0633201 0.832843 0)
(0.172225 0.859017 0)
(0.298391 0.852544 0)
(0.406422 0.761455 0)
(0.431649 0.615411 0)
(0.379013 0.478221 0)
(0.287055 0.340755 0)
(0.167098 0.348588 0)
(-0.0598525 0.343071 0)
(-0.58045 0.00613484 0)
(-1.06281 -0.270988 0)
(-1.27537 -0.370753 0)
(-0.0107267 0.491778 0)
(-0.0244311 0.495808 0)
(-0.0447497 0.504058 0)
(-0.05604 0.516194 0)
(-0.071787 0.532099 0)
(-0.0761208 0.553977 0)
(-0.0820835 0.577802 0)
(-0.0730208 0.610239 0)
(-0.0607415 0.64201 0)
(-0.0279007 0.682205 0)
(0.0156593 0.71331 0)
(0.0828331 0.741391 0)
(0.166743 0.7437 0)
(0.264018 0.729427 0)
(0.360529 0.678079 0)
(0.411303 0.598939 0)
(0.415891 0.514079 0)
(0.383888 0.46043 0)
(0.307368 0.448586 0)
(0.294345 0.48069 0)
(0.193403 0.530315 0)
(-0.145577 0.40141 0)
(-0.513453 -0.0791129 0)
(-0.00879085 0.507862 0)
(-0.0190487 0.510869 0)
(-0.0347772 0.517051 0)
(-0.0415709 0.526588 0)
(-0.0522957 0.538547 0)
(-0.0516625 0.556133 0)
(-0.0529527 0.573788 0)
(-0.039517 0.598589 0)
(-0.0244116 0.620066 0)
(0.00864184 0.647583 0)
(0.0488206 0.665208 0)
(0.105903 0.680442 0)
(0.169875 0.675713 0)
(0.239769 0.657193 0)
(0.306964 0.613587 0)
(0.361515 0.559515 0)
(0.390377 0.507164 0)
(0.400397 0.451319 0)
(0.407111 0.436308 0)
(0.435371 0.449267 0)
(0.482202 0.455177 0)
(0.571399 0.422927 0)
(0.525956 0.302612 0)
(-0.00743955 0.519906 0)
(-0.014671 0.522093 0)
(-0.0280129 0.526843 0)
(-0.0322998 0.534008 0)
(-0.0412336 0.542384 0)
(-0.0389267 0.55492 0)
(-0.0392294 0.565697 0)
(-0.0256367 0.581958 0)
(-0.0117444 0.593668 0)
(0.018381 0.609042 0)
(0.0524873 0.615691 0)
(0.100952 0.620021 0)
(0.153147 0.609643 0)
(0.211137 0.591374 0)
(0.264966 0.556008 0)
(0.311165 0.514604 0)
(0.347546 0.475422 0)
(0.378762 0.441892 0)
(0.39224 0.416956 0)
(0.43172 0.406214 0)
(0.477383 0.397226 0)
(0.546519 0.358218 0)
(0.570759 0.203534 0)
(-0.00616786 0.529817 0)
(-0.0114079 0.531268 0)
(-0.0222171 0.534496 0)
(-0.0245125 0.539577 0)
(-0.0307783 0.544897 0)
(-0.0265562 0.55382 0)
(-0.0245955 0.560024 0)
(-0.0100999 0.570686 0)
(0.00376861 0.575276 0)
(0.0310606 0.582825 0)
(0.059665 0.581519 0)
(0.100206 0.579126 0)
(0.141401 0.564258 0)
(0.189552 0.544889 0)
(0.233653 0.512743 0)
(0.276809 0.476693 0)
(0.311591 0.438933 0)
(0.351026 0.406505 0)
(0.384775 0.38186 0)
(0.429927 0.360238 0)
(0.480831 0.339063 0)
(0.552966 0.322191 0)
(0.595251 0.262262 0)
(-0.00547727 0.537671 0)
(-0.00968795 0.538339 0)
(-0.0192461 0.540109 0)
(-0.020819 0.54276 0)
(-0.0264567 0.544517 0)
(-0.0225144 0.548922 0)
(-0.021011 0.549208 0)
(-0.00783745 0.553743 0)
(0.0032334 0.552279 0)
(0.027631 0.553189 0)
(0.0504646 0.546145 0)
(0.0860221 0.538169 0)
(0.119424 0.519804 0)
(0.161602 0.498816 0)
(0.199547 0.468265 0)
(0.240075 0.436303 0)
(0.274556 0.401074 0)
(0.311793 0.368121 0)
(0.347769 0.339225 0)
(0.392145 0.310064 0)
(0.43379 0.276544 0)
(0.489258 0.244417 0)
(0.542592 0.196603 0)
(-0.00483269 0.544843 0)
(-0.00864561 0.54488 0)
(-0.0170602 0.545466 0)
(-0.0187466 0.546579 0)
(-0.0237344 0.546378 0)
(-0.020982 0.548094 0)
(-0.0196032 0.54499 0)
(-0.00936058 0.546157 0)
(0.000526383 0.539298 0)
(0.0211749 0.535303 0)
(0.0405896 0.522409 0)
(0.0713973 0.509832 0)
(0.0997414 0.487806 0)
(0.136425 0.464438 0)
(0.170139 0.43339 0)
(0.207767 0.401364 0)
(0.2433 0.366332 0)
(0.281562 0.332593 0)
(0.319935 0.300392 0)
(0.36618 0.272088 0)
(0.408432 0.2407 0)
(0.45517 0.209899 0)
(0.502887 0.183569 0)
(-0.00475899 0.551275 0)
(-0.00911944 0.550697 0)
(-0.0174722 0.550314 0)
(-0.0199362 0.549554 0)
(-0.0248409 0.546783 0)
(-0.0227073 0.544879 0)
(-0.0219113 0.53748 0)
(-0.0135726 0.533584 0)
(-0.00531854 0.521406 0)
(0.0112578 0.513003 0)
(0.0266236 0.495428 0)
(0.0519243 0.478859 0)
(0.075132 0.454221 0)
(0.106849 0.42825 0)
(0.136816 0.396401 0)
(0.171919 0.362974 0)
(0.206343 0.32697 0)
(0.244899 0.291323 0)
(0.283023 0.254796 0)
(0.328753 0.221433 0)
(0.373522 0.188548 0)
(0.420519 0.149931 0)
(0.47053 0.122607 0)
(-0.00496275 0.558627 0)
(-0.0105347 0.557488 0)
(-0.0193842 0.556178 0)
(-0.0232165 0.553808 0)
(-0.0289975 0.549002 0)
(-0.0289867 0.545014 0)
(-0.0301307 0.535692 0)
(-0.0253978 0.529479 0)
(-0.0198361 0.514273 0)
(-0.00758654 0.503311 0)
(0.00619785 0.481402 0)
(0.0272472 0.461211 0)
(0.0487626 0.43235 0)
(0.0767058 0.402551 0)
(0.104514 0.367636 0)
(0.137514 0.331496 0)
(0.171051 0.292558 0)
(0.209897 0.255241 0)
(0.249038 0.215647 0)
(0.295126 0.180276 0)
(0.342411 0.147987 0)
(0.391751 0.110999 0)
(0.441789 0.0834257 0)
(-0.00546689 0.566859 0)
(-0.0129197 0.565205 0)
(-0.0229364 0.563067 0)
(-0.0285923 0.559227 0)
(-0.0358586 0.552583 0)
(-0.0380797 0.546003 0)
(-0.0406785 0.533775 0)
(-0.0381371 0.523149 0)
(-0.0341501 0.503237 0)
(-0.0252573 0.486708 0)
(-0.0134647 0.460067 0)
(0.00209532 0.436001 0)
(0.0206009 0.40419 0)
(0.0435006 0.37225 0)
(0.068188 0.33506 0)
(0.098848 0.296239 0)
(0.130849 0.254151 0)
(0.169416 0.213156 0)
(0.209547 0.169349 0)
(0.256295 0.127841 0)
(0.306979 0.0920337 0)
(0.361275 0.0503099 0)
(0.419113 0.0193867 0)
(-0.00622324 0.576996 0)
(-0.0164048 0.574936 0)
(-0.028252 0.571825 0)
(-0.0364237 0.566675 0)
(-0.0458698 0.558439 0)
(-0.050941 0.549759 0)
(-0.0558823 0.535697 0)
(-0.0567212 0.522925 0)
(-0.0556123 0.50137 0)
(-0.0514514 0.482677 0)
(-0.0428794 0.453982 0)
(-0.0321487 0.427213 0)
(-0.0155551 0.390723 0)
(0.00394259 0.354901 0)
(0.0275068 0.311844 0)
(0.0565064 0.268555 0)
(0.0876529 0.221358 0)
(0.126117 0.175986 0)
(0.167444 0.127982 0)
(0.215729 0.0819119 0)
(0.269199 0.0421605 0)
(0.327573 -0.00245917 0)
(0.391141 -0.037391 0)
(-0.00741598 0.589578 0)
(-0.0209158 0.587324 0)
(-0.0353971 0.583169 0)
(-0.0466776 0.576911 0)
(-0.0589333 0.567156 0)
(-0.0672895 0.556029 0)
(-0.0752642 0.539507 0)
(-0.0796595 0.522776 0)
(-0.0815041 0.497726 0)
(-0.0812175 0.473704 0)
(-0.0757843 0.440306 0)
(-0.0692536 0.408275 0)
(-0.0562237 0.367517 0)
(-0.0418381 0.328804 0)
(-0.0209729 0.281954 0)
(0.00434993 0.235781 0)
(0.0337502 0.184062 0)
(0.0709556 0.133064 0)
(0.112439 0.0793218 0)
(0.161172 0.0257095 0)
(0.217476 -0.0201189 0)
(0.280631 -0.0721903 0)
(0.352569 -0.112102 0)
(-0.00910122 0.605394 0)
(-0.026653 0.602983 0)
(-0.0446429 0.597641 0)
(-0.0600123 0.590239 0)
(-0.0759291 0.579082 0)
(-0.0884141 0.566089 0)
(-0.100307 0.548099 0)
(-0.109104 0.529191 0)
(-0.115316 0.502998 0)
(-0.119805 0.47707 0)
(-0.119249 0.442125 0)
(-0.117314 0.40784 0)
(-0.108436 0.363349 0)
(-0.0980125 0.319749 0)
(-0.0795425 0.265426 0)
(-0.058542 0.213669 0)
(-0.0304516 0.154247 0)
(0.00480257 0.0968548 0)
(0.046156 0.0370513 0)
(0.0953085 -0.0238677 0)
(0.153118 -0.0781252 0)
(0.218467 -0.138683 0)
(0.294904 -0.187092 0)
(-0.011242 0.625476 0)
(-0.033168 0.623019 0)
(-0.0554271 0.616674 0)
(-0.0754835 0.608328 0)
(-0.0959228 0.595684 0)
(-0.11331 0.580485 0)
(-0.130207 0.560233 0)
(-0.144155 0.537743 0)
(-0.155816 0.508296 0)
(-0.165221 0.477418 0)
(-0.170105 0.437469 0)
(-0.17359 0.397033 0)
(-0.171123 0.34769 0)
(-0.167545 0.299403 0)
(-0.155755 0.241983 0)
(-0.142007 0.186303 0)
(-0.118047 0.120271 0)
(-0.0902156 0.0560814 0)
(-0.0514518 -0.0116351 0)
(-0.00362393 -0.0817754 0)
(0.0542641 -0.143719 0)
(0.12201 -0.214754 0)
(0.203822 -0.271243 0)
(-0.0138581 0.649958 0)
(-0.0407138 0.647328 0)
(-0.0680629 0.6401 0)
(-0.0935163 0.630855 0)
(-0.119166 0.617032 0)
(-0.14213 0.600475 0)
(-0.164646 0.579087 0)
(-0.184253 0.554941 0)
(-0.202154 0.524262 0)
(-0.217553 0.491572 0)
(-0.229576 0.450745 0)
(-0.239596 0.409167 0)
(-0.243846 0.357569 0)
(-0.245242 0.304658 0)
(-0.238571 0.239874 0)
(-0.230258 0.175905 0)
(-0.210414 0.102049 0)
(-0.188591 0.0299107 0)
(-0.151124 -0.0502536 0)
(-0.109859 -0.130238 0)
(-0.055468 -0.204653 0)
(0.0092045 -0.289339 0)
(0.0882977 -0.358163 0)
(-0.0165816 0.680309 0)
(-0.04852 0.6775 0)
(-0.0812845 0.669746 0)
(-0.112488 0.659686 0)
(-0.144012 0.644549 0)
(-0.173392 0.626155 0)
(-0.202525 0.602516 0)
(-0.228924 0.5753 0)
(-0.25407 0.541593 0)
(-0.276446 0.50471 0)
(-0.29594 0.459328 0)
(-0.312728 0.410966 0)
(-0.324702 0.352939 0)
(-0.335071 0.293632 0)
(-0.337818 0.226642 0)
(-0.337878 0.157815 0)
(-0.324056 0.0783524 0)
(-0.309641 -0.00353124 0)
(-0.27908 -0.090715 0)
(-0.252072 -0.177883 0)
(-0.204262 -0.263134 0)
(-0.147076 -0.359232 0)
(-0.0772606 -0.438243 0)
(-0.0194948 0.715286 0)
(-0.056966 0.712268 0)
(-0.0954777 0.704293 0)
(-0.132485 0.693793 0)
(-0.169812 0.678163 0)
(-0.205265 0.659214 0)
(-0.240576 0.634899 0)
(-0.273367 0.60678 0)
(-0.305357 0.572149 0)
(-0.334451 0.533811 0)
(-0.361552 0.487436 0)
(-0.385648 0.438349 0)
(-0.405878 0.380345 0)
(-0.421902 0.318216 0)
(-0.431236 0.242833 0)
(-0.437088 0.162148 0)
(-0.435656 0.0735224 0)
(-0.434898 -0.0153356 0)
(-0.42927 -0.10835 0)
(-0.416 -0.205502 0)
(-0.372782 -0.310629 0)
(-0.32271 -0.417377 0)
(-0.255668 -0.512056 0)
(-0.0222891 0.757223 0)
(-0.0653516 0.753955 0)
(-0.109725 0.745728 0)
(-0.152889 0.734457 0)
(-0.196679 0.717753 0)
(-0.239001 0.697263 0)
(-0.281399 0.670926 0)
(-0.321619 0.640262 0)
(-0.36123 0.602823 0)
(-0.397981 0.560908 0)
(-0.433045 0.510536 0)
(-0.464928 0.455145 0)
(-0.493893 0.389035 0)
(-0.520236 0.31866 0)
(-0.541823 0.241718 0)
(-0.562787 0.162162 0)
(-0.582833 0.0762073 0)
(-0.607191 -0.00991283 0)
(-0.601443 -0.109664 0)
(-0.572671 -0.234746 0)
(-0.526748 -0.356651 0)
(-0.470229 -0.476895 0)
(-0.398167 -0.589897 0)
(-0.0250119 0.803145 0)
(-0.0734826 0.799949 0)
(-0.123261 0.792082 0)
(-0.171752 0.78101 0)
(-0.220965 0.764585 0)
(-0.268784 0.744279 0)
(-0.316946 0.717937 0)
(-0.363137 0.687068 0)
(-0.409232 0.649041 0)
(-0.452611 0.606157 0)
(-0.49523 0.554942 0)
(-0.534642 0.499719 0)
(-0.572601 0.436218 0)
(-0.608346 0.366653 0)
(-0.646852 0.285736 0)
(-0.691747 0.20321 0)
(-0.738011 0.118088 0)
(-0.752674 0.00307045 0)
(-0.720758 -0.143241 0)
(-0.687343 -0.280681 0)
(-0.637852 -0.413839 0)
(-0.57682 -0.546916 0)
(-0.499961 -0.675139 0)
(-0.0279777 0.856479 0)
(-0.0825994 0.852977 0)
(-0.138542 0.844727 0)
(-0.193438 0.832827 0)
(-0.249258 0.815405 0)
(-0.303882 0.793752 0)
(-0.359035 0.765736 0)
(-0.412423 0.732867 0)
(-0.465953 0.692598 0)
(-0.517301 0.647065 0)
(-0.56918 0.592791 0)
(-0.620119 0.532599 0)
(-0.675047 0.462886 0)
(-0.732115 0.392982 0)
(-0.79209 0.325455 0)
(-0.848715 0.254007 0)
(-0.864899 0.137371 0)
(-0.832061 -0.0270777 0)
(-0.80872 -0.175157 0)
(-0.769092 -0.318186 0)
(-0.720176 -0.467602 0)
(-0.650737 -0.615443 0)
(-0.567002 -0.764203 0)
(-0.0298605 0.913807 0)
(-0.0882513 0.91067 0)
(-0.148351 0.903128 0)
(-0.207589 0.892003 0)
(-0.268135 0.875407 0)
(-0.32771 0.854515 0)
(-0.388361 0.827038 0)
(-0.447617 0.794602 0)
(-0.507823 0.7546 0)
(-0.566238 0.710076 0)
(-0.626275 0.658464 0)
(-0.685988 0.60628 0)
(-0.752842 0.549032 0)
(-0.829613 0.484384 0)
(-0.912469 0.402954 0)
(-0.947091 0.275861 0)
(-0.91586 0.101276 0)
(-0.896769 -0.0536961 0)
(-0.870097 -0.206799 0)
(-0.82248 -0.369762 0)
(-0.762872 -0.532915 0)
(-0.684921 -0.701142 0)
(-0.597865 -0.86307 0)
(-0.0337383 0.975713 0)
(-0.0999744 0.972585 0)
(-0.16692 0.965084 0)
(-0.23282 0.953509 0)
(-0.300157 0.936334 0)
(-0.366593 0.914636 0)
(-0.434255 0.886248 0)
(-0.501374 0.852796 0)
(-0.570547 0.811717 0)
(-0.640634 0.765888 0)
(-0.715199 0.713074 0)
(-0.794311 0.659532 0)
(-0.877962 0.60708 0)
(-0.956595 0.553125 0)
(-1.00056 0.44378 0)
(-0.978963 0.257351 0)
(-0.960569 0.0873577 0)
(-0.942198 -0.0730997 0)
(-0.895016 -0.249488 0)
(-0.843381 -0.425913 0)
(-0.774141 -0.605821 0)
(-0.700298 -0.78114 0)
(-0.619015 -0.95123 0)
(-0.0341035 1.04759 0)
(-0.101286 1.04401 0)
(-0.170104 1.0362 0)
(-0.238668 1.02558 0)
(-0.309352 1.00966 0)
(-0.380126 0.989197 0)
(-0.452876 0.962515 0)
(-0.525337 0.931638 0)
(-0.600617 0.894673 0)
(-0.677761 0.855574 0)
(-0.7625 0.813011 0)
(-0.854975 0.770076 0)
(-0.954626 0.712453 0)
(-1.0313 0.607794 0)
(-1.02421 0.424899 0)
(-0.996693 0.236027 0)
(-0.987819 0.063545 0)
(-0.94421 -0.119769 0)
(-0.896982 -0.306567 0)
(-0.836893 -0.491607 0)
(-0.77293 -0.676966 0)
(-0.702239 -0.857391 0)
(-0.627453 -1.03409 0)
(-0.0379862 1.11214 0)
(-0.112919 1.10966 0)
(-0.190277 1.10347 0)
(-0.267199 1.09367 0)
(-0.345476 1.07867 0)
(-0.423389 1.05891 0)
(-0.50372 1.0322 0)
(-0.584836 1.00118 0)
(-0.668846 0.964854 0)
(-0.755914 0.928397 0)
(-0.849917 0.891087 0)
(-0.948241 0.852112 0)
(-1.03766 0.783826 0)
(-1.06112 0.622649 0)
(-1.03441 0.409434 0)
(-1.01913 0.220679 0)
(-0.982312 0.0350587 0)
(-0.933309 -0.163951 0)
(-0.882644 -0.356942 0)
(-0.822382 -0.550081 0)
(-0.762458 -0.740824 0)
(-0.695028 -0.92688 0)
(-0.626089 -1.10797 0)
(-0.0379721 1.19937 0)
(-0.113004 1.19722 0)
(-0.190099 1.19138 0)
(-0.267321 1.18164 0)
(-0.347235 1.16672 0)
(-0.427921 1.14833 0)
(-0.512699 1.12496 0)
(-0.599922 1.09773 0)
(-0.692674 1.06689 0)
(-0.790212 1.03776 0)
(-0.894061 1.00685 0)
(-0.996226 0.959158 0)
(-1.06019 0.827173 0)
(-1.04597 0.603872 0)
(-1.02066 0.383347 0)
(-1.00155 0.182582 0)
(-0.953922 -0.022998 0)
(-0.906119 -0.220819 0)
(-0.852267 -0.418704 0)
(-0.79625 -0.613252 0)
(-0.737728 -0.805784 0)
(-0.677553 -0.995256 0)
(-0.61275 -1.17852 0)
(-0.0406582 1.26281 0)
(-0.121319 1.2616 0)
(-0.204316 1.2577 0)
(-0.288532 1.25085 0)
(-0.376789 1.2395 0)
(-0.467195 1.22466 0)
(-0.561332 1.20463 0)
(-0.657001 1.18156 0)
(-0.758655 1.15561 0)
(-0.866186 1.13021 0)
(-0.972689 1.09712 0)
(-1.0603 1.01836 0)
(-1.07376 0.832231 0)
(-1.04436 0.58398 0)
(-1.01874 0.364423 0)
(-0.973792 0.154787 0)
(-0.924249 -0.0600674 0)
(-0.872432 -0.265171 0)
(-0.816535 -0.466361 0)
(-0.763916 -0.664054 0)
(-0.70705 -0.858972 0)
(-0.652756 -1.05124 0)
(-0.594177 -1.23779 0)
(-0.0410918 1.36456 0)
(-0.122511 1.36404 0)
(-0.205752 1.3616 0)
(-0.289559 1.35686 0)
(-0.376585 1.34796 0)
(-0.465456 1.33519 0)
(-0.558379 1.31698 0)
(-0.654639 1.29713 0)
(-0.757965 1.27844 0)
(-0.866948 1.25397 0)
(-0.971488 1.20359 0)
(-1.04427 1.06229 0)
(-1.03905 0.811738 0)
(-1.00233 0.548212 0)
(-0.98162 0.311481 0)
(-0.929048 0.0862572 0)
(-0.882712 -0.126224 0)
(-0.829145 -0.330507 0)
(-0.779127 -0.529307 0)
(-0.727209 -0.725066 0)
(-0.677501 -0.919263 0)
(-0.625243 -1.11084 0)
(-0.574173 -1.29838 0)
(-0.0421998 1.4229 0)
(-0.126221 1.42291 0)
(-0.213175 1.42164 0)
(-0.302177 1.41891 0)
(-0.396534 1.41305 0)
(-0.49467 1.40446 0)
(-0.599626 1.39234 0)
(-0.708439 1.3797 0)
(-0.821937 1.36685 0)
(-0.931465 1.34213 0)
(-1.02991 1.27355 0)
(-1.06501 1.08369 0)
(-1.03508 0.790613 0)
(-0.997402 0.527004 0)
(-0.949929 0.292017 0)
(-0.895139 0.0577115 0)
(-0.841994 -0.159016 0)
(-0.788925 -0.367019 0)
(-0.740637 -0.566805 0)
(-0.689908 -0.763666 0)
(-0.643926 -0.958834 0)
(-0.594123 -1.15224 0)
(-0.547703 -1.34175 0)
(-0.0433852 1.54085 0)
(-0.129868 1.54274 0)
(-0.218198 1.54506 0)
(-0.307609 1.54737 0)
(-0.400075 1.54723 0)
(-0.494144 1.54458 0)
(-0.593042 1.53665 0)
(-0.694636 1.52495 0)
(-0.80347 1.50704 0)
(-0.90861 1.46649 0)
(-0.999594 1.3419 0)
(-1.0171 1.06828 0)
(-0.975401 0.743824 0)
(-0.950653 0.460565 0)
(-0.897313 0.2067 0)
(-0.8494 -0.0251903 0)
(-0.800534 -0.235262 0)
(-0.751912 -0.435483 0)