/*--------------------------------*- C++ -*----------------------------------*\
| =========                 |                                                 |
| \\      /  F ield         | OpenFOAM: The Open Source CFD Toolbox           |
|  \\    /   O peration     | Version:  2012                                  |
|   \\  /    A nd           | Website:  www.openfoam.com                      |
|    \\/     M anipulation  |                                                 |
\*---------------------------------------------------------------------------*/
FoamFile
{
    version     2.0;
    format      ascii;
    class       volScalarField;
    location    "0.73";
    object      volumeFraction1;
}
// * * * * * * * * * * * * * * * * * * * * * * * * * * * * * * * * * * * * * //

dimensions      [0 0 0 0 0 0 0];


internalField   nonuniform List<scalar> 
2268
(
1
1
1
1
1
1
1
1
1
1
1
1
1
1
1
1
1
1
1
1
1
0.999984
0.999776
1
1
1
1
1
1
1
1
1
1
1
1
1
1
1
1
1
1
1
1
1
0.999941
0.999711
1
1
1
1
1
1
1
1
1
1
1
1
1
1
1
1
1
1
1
1
1
0.999956
0.999711
1
1
1
1
1
1
1
1
1
1
1
1
1
1
1
1
1
1
1
1
1
0.99998
0.999738
1
1
1
1
1
1
1
1
1
1
1
1
1
1
1
1
1
1
1
1
1
0.999999
1
1
1
1
1
1
1
1
1
1
1
1
1
1
1
1
1
1
1
1
1
1
1
1
1
1
1
1
1
1
1
1
1
1
1
1
1
1
1
1
1
1
1
1
1
1
1
0.99544
0.99834
1
1
1
1
1
1
1
1
1
1
1
1
1
1
1
1
1
1
0.999997
0.999807
0.999722
0.646604
0.819451
0.912645
0.912645
0.912527
0.912154
0.912271
0.912241
0.822019
0.732893
0.836121
0.836117
0.836121
0.835477
0.83548
0.833583
0.820192
0.820192
0.820192
0.646604
0.813015
0.912641
0.912645
0.912501
0.912153
0.877
0.886544
0.771948
0.719248
0.741565
0.778185
0.792473
0.773924
0.667907
0.561463
0.515273
0.583194
0.702339
0.646604
0.839404
0.839475
0.708355
0.675218
0.858991
0.824047
0.341519
0.193532
0.193532
0.20063
0.193931
0.230109
0.215359
0.151143
0.110664
0.0941456
0.331234
0.799722
0.783705
0.781371
0.319289
0.130837
0.176281
0.785527
0.988577
0.854955
0.517263
0.269574
0.000587261
0.000587261
0.000587261
0.00190266
0.00117321
0.000587261
0.000587261
0.173396
0.799723
0.794817
0.642267
1.31449e-19
0.00252093
0.0546522
0.772163
0.988577
0.997373
0.966185
0.806262
0.506659
0.25442
0.0612948
0.000587261
0.000587261
0.000587261
0.000587261
0.545336
0.659992
0.790941
0.278447
4.34012e-37
-5.31028e-22
0.256066
0.890235
0.99695
0.997373
0.997373
0.996078
0.98447
0.911571
0.771308
0.529644
0.204747
0.00200093
0.000587261
0.749686
0.660512
0.780901
0.0284194
-3.89298e-21
-4.34012e-37
0.578408
0.945991
0.994793
0.965145
0.992372
0.997327
0.997331
0.997327
0.997331
0.99213
0.884225
0.515951
0.531399
0.898913
0.728071
0.780907
0.0274062
0
6.87888e-19
0.755183
0.945987
0.871003
0.551072
0.627647
0.762974
0.87989
0.926478
0.971114
0.992326
0.992326
0.988947
0.985135
0.985135
0.880333
0.479812
0.509067
0.5709
0.654691
0.743732
0.826643
0.91011
0.977283
1
1
1
1
1
1
1
1
1
1
1
1
0.999999
0.996726
0.912872
0.00537596
0.00749507
0.0122545
0.0292666
0.0724748
0.14251
0.243299
0.387674
0.583352
0.754114
0.860003
0.932796
0.980399
1
0.999874
1
0.999828
0.999917
0.99999
1
0.999997
0.987134
0.515747
3.19743e-07
9.11559e-07
4.62198e-06
3.45153e-05
0.000205012
0.0009195
0.00379646
0.0137179
0.0432893
0.121848
0.233422
0.346918
0.448609
0.581908
0.696149
0.797866
0.874291
0.959079
0.982883
0.999279
0.998626
0.993381
0.638101
1.41322e-13
4.37028e-12
2.02745e-10
6.82285e-09
1.69034e-07
2.7015e-06
2.7843e-05
0.000207817
0.00116568
0.00479666
0.0148167
0.0300672
0.038213
0.0417636
0.0749557
0.123107
0.166572
0.276758
0.44543
0.679721
0.88955
0.997976
0.984868
5.58725e-15
1.96379e-13
4.8447e-12
8.61942e-11
1.16648e-09
1.17498e-08
1.06235e-07
8.3125e-07
4.85205e-06
1.53202e-05
2.15451e-05
1.5144e-05
3.089e-09
2.67507e-06
0.00169323
0.00893505
0.0200832
0.0593657
0.182983
0.345087
0.525152
0.825968
0.974992
2.29111e-15
9.56968e-14
2.01743e-12
2.30877e-11
1.13611e-10
2.84361e-10
2.62002e-09
5.19567e-08
4.88931e-07
9.81944e-07
7.38192e-07
1.11768e-07
3.09037e-09
2.66345e-08
9.36115e-08
9.34716e-08
0.000306153
0.0468751
0.185541
0.3111
0.458526
0.750475
0.822513
1.34544e-15
5.19723e-14
9.20108e-13
9.01086e-12
4.60558e-11
1.07077e-10
2.5861e-10
3.38607e-09
4.63001e-08
9.25059e-08
2.39732e-10
2.3995e-10
4.24819e-10
2.78019e-10
2.77789e-10
6.4236e-07
0.000870912
0.0355488
0.370802
0.578253
0.578255
0.31832
0.01269
8.6221e-16
3.17116e-14
5.1073e-13
4.57847e-12
2.38819e-11
7.07857e-11
1.27885e-10
2.98599e-10
3.86705e-08
7.43141e-07
9.69121e-07
2.39732e-10
3.54406e-09
2.78355e-06
5.83215e-06
4.05287e-06
1.1314e-05
0.0126084
0.332965
0.578255
0.532426
0.0606985
3.90608e-08
4.08504e-16
1.5358e-14
2.55999e-13
2.45586e-12
1.48014e-11
5.81414e-11
1.34984e-10
2.41309e-10
4.81677e-08
1.2649e-06
1.652e-06
6.8683e-07
3.54444e-09
1.5053e-06
5.90238e-06
4.49437e-06
7.16356e-06
0.00108858
0.0216198
0.285336
0.524589
0.377208
0.108579
1.50548e-16
6.03221e-15
1.10332e-13
1.22198e-12
9.21995e-12
4.98262e-11
1.8113e-10
4.03446e-10
1.40272e-08
7.34731e-07
1.65359e-06
1.652e-06
4.96986e-08
9.91383e-08
1.33554e-06
1.51127e-06
4.39792e-07
2.80915e-07
2.80939e-07
2.8161e-07
0.059071
0.509877
0.682725
4.73086e-17
2.03568e-15
4.17395e-14
5.49851e-13
5.32149e-12
3.9316e-11
2.13324e-10
9.12796e-10
6.34363e-09
7.90801e-08
5.66046e-07
6.25192e-07
1.32119e-07
4.55949e-09
5.60049e-09
5.94572e-09
1.78521e-08
2.80913e-07
4.76238e-07
1.1835e-06
1.18475e-06
1.1835e-06
0.143156
1.34566e-17
6.09606e-16
1.36194e-14
2.05749e-13
2.4392e-12
2.41555e-11
1.77989e-10
9.60678e-10
2.94543e-09
2.38401e-09
2.61245e-09
2.51628e-09
4.85126e-08
4.55967e-09
1.66225e-09
1.66216e-09
7.21344e-09
8.22581e-08
2.33886e-07
9.72008e-07
2.897e-06
1.62862e-06
2.81389e-07
3.46449e-18
1.61616e-16
3.81329e-15
6.28056e-14
8.36825e-13
9.46031e-12
9.13775e-11
5.6977e-10
1.01609e-09
5.26511e-10
1.30588e-10
1.02023e-10
1.21375e-09
1.9898e-09
1.66224e-09
4.06515e-09
7.76929e-09
1.02669e-08
1.5401e-08
3.96029e-08
1.16459e-06
5.50554e-06
6.75812e-06
8.23595e-19
3.86605e-17
9.30529e-16
1.592e-14
2.24296e-13
2.68646e-12
2.59811e-11
1.67323e-10
3.23025e-10
2.84171e-10
1.31359e-10
1.02023e-10
1.64441e-10
5.99387e-10
1.26704e-09
3.8913e-09
3.72545e-09
1.88142e-09
9.89742e-10
2.2963e-09
1.71228e-09
7.70132e-07
3.81965e-06
1.82509e-19
8.53069e-18
2.05895e-16
3.5641e-15
5.16065e-14
6.41339e-13
6.3006e-12
4.20616e-11
9.35172e-11
1.05945e-10
8.64141e-11
8.3505e-11
9.97157e-11
2.2573e-10
5.70403e-10
1.51865e-09
1.24647e-09
9.46293e-10
6.86678e-10
7.37959e-10
2.98351e-10
1.47014e-08
4.1486e-08
3.80388e-20
1.75768e-18
4.20075e-17
7.19536e-16
1.04382e-14
1.32473e-13
1.33063e-12
9.29974e-12
2.36703e-11
3.11417e-11
2.95347e-11
3.89949e-11
4.54122e-11
8.30899e-11
1.81385e-10
3.7451e-10
4.28737e-10
4.54807e-10
4.73285e-10
4.60803e-10
2.98354e-10
3.42997e-10
6.6196e-10
7.52665e-21
3.42883e-19
8.08093e-18
1.35497e-16
1.94051e-15
2.48668e-14
2.54426e-13
1.84516e-12
5.22265e-12
7.6697e-12
8.03652e-12
1.08255e-11
1.45153e-11
2.58298e-11
5.23507e-11
9.89995e-11
1.34086e-10
1.66716e-10
2.05293e-10
2.29607e-10
2.07453e-10
2.61159e-10
2.9594e-10
1.41297e-21
6.34202e-20
1.47404e-18
2.4075e-17
3.36775e-16
4.30932e-15
4.46081e-14
3.32048e-13
1.01332e-12
1.6277e-12
1.87833e-12
2.5541e-12
3.64153e-12
6.52447e-12
1.28745e-11
2.37827e-11
3.50587e-11
4.75838e-11
6.1401e-11
7.68624e-11
8.84762e-11
1.26051e-10
1.50856e-10
2.53688e-22
1.12235e-20
2.57724e-19
4.09722e-18
5.559e-17
7.0257e-16
7.28968e-15
5.48831e-14
1.75153e-13
3.03327e-13
3.78349e-13
5.18791e-13
7.53368e-13
1.35294e-12
2.64152e-12
4.85218e-12
7.47979e-12
1.07107e-11
1.43883e-11
1.88833e-11
2.34743e-11
3.11198e-11
4.11268e-11
4.36909e-23
1.90771e-21
4.33752e-20
6.73185e-19
8.85868e-18
1.09906e-16
1.13231e-15
8.44484e-15
2.74137e-14
5.04121e-14
6.6415e-14
9.14182e-14
1.31736e-13
2.33607e-13
4.50102e-13
8.19699e-13
1.2875e-12
1.88998e-12
2.58324e-12
3.43302e-12
4.3649e-12
5.50956e-12
7.17519e-12
7.24731e-24
3.13007e-22
7.05696e-21
1.07365e-19
1.37432e-18
1.66435e-17
1.68196e-16
1.21629e-15
3.92515e-15
7.53676e-15
1.02422e-14
1.40442e-14
1.97176e-14
3.40392e-14
6.39098e-14
1.1389e-13
1.77237e-13
2.58101e-13
3.46316e-13
4.46414e-13
5.53229e-13
6.47094e-13
7.73239e-13
1.16567e-24
4.99511e-23
1.11723e-21
1.67378e-20
2.09401e-19
2.46464e-18
2.4102e-17
1.65207e-16
5.20374e-16
1.02322e-15
1.40459e-15
1.90076e-15
2.55629e-15
4.24076e-15
7.59408e-15
1.29452e-14
1.92347e-14
2.6538e-14
3.30362e-14
3.79705e-14
4.28504e-14
4.00164e-14
3.99696e-14
1.8334e-25
7.81859e-24
1.7345e-22
2.56946e-21
3.156e-20
3.59255e-19
3.34748e-18
2.13069e-17
6.46012e-17
1.27319e-16
1.73034e-16
2.28177e-16
2.89837e-16
4.54716e-16
7.53646e-16
1.19407e-15
1.60803e-15
1.95869e-15
2.02669e-15
2.02689e-15
2.7813e-15
1.85258e-14
1.05984e-13
2.85167e-26
1.2133e-24
2.66938e-23
3.92473e-22
4.74594e-21
5.18828e-20
4.529e-19
2.63022e-18
7.59476e-18
1.46478e-17
1.93662e-17
2.45013e-17
2.90117e-17
4.23368e-17
6.28659e-17
8.78286e-17
9.54606e-17
9.54691e-17
2.68839e-16
1.85595e-14
1.21583e-13
7.54049e-13
2.95345e-12
4.42695e-27
1.8823e-25
4.10861e-24
6.01035e-23
7.15024e-22
7.43774e-21
5.9875e-20
3.13409e-19
8.5501e-19
1.57674e-18
1.99807e-18
2.35731e-18
2.45246e-18
3.21662e-18
4.30759e-18
9.89745e-18
1.3507e-16
3.654e-15
1.23896e-13
8.25913e-13
3.28354e-12
1.64923e-11
4.22649e-11
6.94494e-28
2.94815e-26
6.38846e-25
9.30103e-24
1.0835e-22
1.06089e-21
7.76688e-21
3.62792e-20
9.1135e-20
1.47152e-19
1.80219e-19
2.73389e-19
1.58789e-18
2.24375e-17
3.61211e-16
5.23938e-15
6.48756e-14
6.29185e-13
4.7608e-12
1.55523e-11
9.8844e-11
1.19063e-09
1.93035e-09
1.00191e-28
4.68536e-27
1.00194e-25
1.42214e-24
1.54694e-23
1.34581e-22
9.09586e-22
4.16719e-21
1.76167e-20
1.74761e-19
2.61134e-18
4.07827e-17
5.53203e-16
6.27934e-15
5.75468e-14
4.10111e-13
2.03934e-12
4.38739e-11
4.47035e-10
3.50429e-09
3.80189e-08
1.77805e-07
1.91091e-07
2.67241e-29
6.90013e-28
1.64123e-26
3.23326e-25
7.04971e-24
1.67034e-22
3.89476e-21
8.80345e-20
1.75086e-18
2.98284e-17
4.35553e-16
5.44648e-15
5.86822e-14
5.70006e-13
2.9485e-12
4.10111e-13
4.31206e-10
1.49457e-08
1.70042e-07
6.57689e-07
8.57816e-07
6.72522e-07
4.75815e-07
3.09833e-29
4.30504e-27
3.624e-25
2.03171e-23
8.33639e-22
2.65041e-20
6.78374e-19
1.43325e-17
2.54437e-16
3.83455e-15
4.94296e-14
5.46444e-13
5.23061e-12
4.43071e-11
3.7948e-10
4.32841e-09
4.73206e-08
7.94228e-07
1.96689e-06
1.96685e-06
9.61364e-07
1.32235e-11
1.32231e-11
3.29614e-27
5.27847e-25
4.08506e-23
2.02889e-21
7.26229e-20
1.99078e-18
4.33809e-17
7.68969e-16
1.12563e-14
1.37057e-13
1.38892e-12
1.14516e-11
6.94978e-11
1.32838e-10
1.32845e-10
9.2802e-08
1.86284e-06
2.5387e-06
2.35182e-06
2.97977e-07
1.58805e-11
1.74136e-11
5.30183e-11
2.44802e-25
3.32353e-23
2.15896e-21
8.89805e-20
2.6063e-18
5.75218e-17
9.9054e-16
1.35847e-14
1.50199e-13
1.34146e-12
9.5594e-12
5.13777e-11
1.4205e-10
3.82471e-10
3.788e-07
2.23967e-06
2.2388e-06
1.52965e-06
1.69318e-11
1.69163e-11
8.74298e-11
1.47049e-10
1.96172e-10
5.74144e-24
6.90853e-22
3.94374e-20
1.41463e-18
3.56559e-17
6.67257e-16
9.52811e-15
1.04381e-13
8.65087e-13
5.29269e-12
2.0002e-11
2.80743e-11
2.80767e-11
2.69614e-07
1.93913e-06
2.2388e-06
1.02592e-06
2.18033e-11
2.90966e-11
9.19379e-11
1.20358e-10
1.10492e-10
8.29912e-11
8.27967e-23
8.42497e-21
4.06253e-19
1.23069e-17
2.61493e-16
4.11635e-15
4.93973e-14
4.54845e-13
3.1631e-12
1.59899e-11
6.60366e-11
3.03191e-09
2.3389e-07
1.64521e-06
1.93816e-06
9.63539e-07
2.22941e-11
3.48064e-11
6.5418e-11
6.12508e-11
3.49171e-11
1.9166e-11
1.47358e-11
4.74107e-22
4.57627e-20
2.07441e-18
5.8375e-17
1.13709e-15
1.61879e-14
1.73821e-13
1.43255e-12
9.06676e-12
4.17239e-11
1.40084e-10
1.07365e-08
1.03698e-06
2.32388e-06
1.2831e-06
3.28965e-12
2.22942e-11
3.42556e-11
2.87084e-11
1.12629e-11
5.0577e-12
3.73387e-12
3.65712e-12
2.62414e-21
2.36993e-19
9.99622e-18
2.59676e-16
4.62573e-15
5.94806e-14
5.67552e-13
4.10635e-12
2.34967e-11
1.33912e-10
5.597e-09
2.36998e-07
1.90781e-06
2.31521e-06
1.11816e-07
3.28964e-12
1.27287e-11
1.30273e-11
4.10664e-12
1.54224e-12
9.50482e-13
8.34877e-13
8.96648e-13
7.65682e-21
6.61069e-19
2.67515e-17
6.71142e-16
1.16257e-14
1.45881e-13
1.34658e-12
9.13693e-12
4.57156e-11
3.19975e-10
3.71829e-08
1.3316e-06
2.11252e-06
9.31798e-07
1.10804e-12
3.63296e-12
5.01272e-12
1.9661e-12
5.58451e-13
2.53365e-13
1.81291e-13
1.66869e-13
1.71395e-13
1.78162e-20
1.45151e-18
5.544e-17
1.31925e-15
2.2081e-14
2.72108e-13
2.51075e-12
1.73254e-11
1.02484e-10
6.97256e-09
5.47422e-07
2.47509e-06
2.06068e-06
1.10804e-12
1.10202e-12
1.52875e-12
1.3384e-12
2.61638e-13
7.53804e-14
3.75869e-14
2.87135e-14
2.65215e-14
2.48885e-14
3.38146e-20
2.57237e-18
9.09603e-17
1.97602e-15
2.92861e-14
3.14755e-13
2.54835e-12
1.59438e-11
1.90429e-10
4.66281e-08
1.53428e-06
2.46149e-06
1.09765e-06
1.10202e-12
1.102e-12
1.10203e-12
3.28728e-13
4.03114e-14
8.77526e-15
4.40093e-15
3.42585e-15
3.12597e-15
2.55504e-15
6.52301e-20
4.75958e-18
1.60071e-16
3.2605e-15
4.44198e-14
4.23387e-13
2.88823e-12
1.44282e-11
7.70413e-10
4.09403e-07
1.91004e-06
1.91387e-06
1.10804e-12
1.10804e-12
1.26501e-12
1.14973e-12
1.66252e-13
8.09523e-15
7.97409e-16
3.74696e-16
2.83396e-16
2.39703e-16
1.66041e-16
1.53606e-19
1.10257e-17
3.66368e-16
7.4384e-15
1.02323e-13
9.88672e-13
6.5085e-12
2.40776e-11
5.13384e-10
4.08801e-07
1.45356e-06
3.77335e-07
1.10807e-12
1.87335e-12
2.9329e-12
1.24652e-12
1.16876e-13
1.76636e-15
5.21652e-17
2.00325e-17
1.34883e-17
9.47924e-18
5.21044e-18
3.53671e-19
2.61843e-17
9.06489e-16
1.95293e-14
2.97147e-13
3.49198e-12
3.43156e-11
5.89129e-10
4.14862e-08
2.73266e-07
1.5793e-07
3.90574e-09
1.1141e-12
5.15299e-12
5.07468e-12
1.12603e-12
3.95289e-14
2.11912e-16
1.81736e-18
4.98208e-19
2.35548e-19
9.45342e-20
2.72107e-20
1.11094e-18
8.95556e-17
3.36715e-15
7.78325e-14
1.23312e-12
1.42497e-11
1.36984e-10
2.77311e-09
4.14305e-08
5.60476e-08
8.97466e-10
1.08979e-11
1.36864e-11
2.16524e-11
9.83393e-12
6.47895e-13
2.32848e-15
-1.70914e-41
1.01117e-22
1.97578e-24
2.81229e-26
2.04731e-27
9.50096e-27
0.802736
0.737599
0.744654
0.74487
0.185074
0.656503
0.74487
0.744654
0.161011
0.161121
0.429198
0.416024
0.560707
0.179884
0.180084
0.184292
0.938333
0.827242
0.712679
0.764243
0.704771
0.542832
0.475964
0.420019
3.90608e-08
3.9059e-08
3.90608e-08
3.9059e-08
3.9059e-08
0.000330389
0.000299978
0.000124106
0.0906533
0.15304
0.102276
0.0255236
0.682725
0.682725
0.674819
0.306533
0.636635
0.682249
0.678181
0.681746
2.81414e-07
2.81389e-07
8.15147e-05
0.0486975
1.67482e-06
2.81414e-07
2.81389e-07
2.81414e-07
6.17811e-06
6.17768e-06
1.37399e-06
6.03765e-06
7.69637e-07
1.60832e-06
9.60022e-07
6.86379e-07
2.71349e-09
1.83894e-09
1.42315e-08
5.44208e-09
2.7478e-10
2.41542e-10
2.37903e-10
2.12647e-10
1.50722e-10
1.47808e-10
1.39525e-10
1.31535e-10
4.54809e-11
4.59152e-11
4.51521e-11
4.47443e-11
8.30098e-12
8.69592e-12
8.83661e-12
9.05114e-12
8.7728e-13
9.47183e-13
9.88143e-13
1.04229e-12
4.34807e-14
4.97621e-14
6.08283e-14
7.89764e-14
2.55207e-13
4.8588e-13
9.09236e-13
1.62031e-12
6.15938e-12
1.13815e-11
2.176e-11
3.69121e-11
7.79714e-11
2.08842e-10
8.87336e-10
1.81925e-09
3.37961e-09
1.44325e-08
6.62407e-08
1.2308e-07
2.18776e-07
2.42317e-07
3.29849e-07
3.30328e-07
4.14723e-07
3.12323e-07
1.99365e-07
9.59016e-08
1.32235e-11
1.32231e-11
1.32235e-11
1.32231e-11
1.14652e-10
2.49551e-10
3.61594e-10
4.66298e-10
2.44559e-10
3.0548e-10
3.3897e-10
3.47136e-10
7.15899e-11
6.93544e-11
6.89942e-11
7.37861e-11
1.51875e-11
1.60829e-11
1.6832e-11
1.79459e-11
4.01444e-12
3.99862e-12
3.98524e-12
4.04366e-12
8.78592e-13
8.13784e-13
7.66455e-13
7.36163e-13
1.48515e-13
1.26082e-13
1.10217e-13
9.92546e-14
1.84538e-14
1.42067e-14
1.14344e-14
9.76135e-15
1.5956e-15
1.12644e-15
8.56413e-16
7.26366e-16
9.00466e-17
6.22977e-17
4.91625e-17
4.5019e-17
2.69974e-18
2.05045e-18
1.82905e-18
1.84108e-18
1.33839e-20
1.36413e-20
2.03171e-20
3.27765e-20
3.81955e-26
1.02942e-25
2.43509e-25
5.37069e-25
0.702737
2.71778e-22
-1.85212e-20
0.344387
0.861936
0.887319
0.437294
0.100739
0.118333
0.137928
0.157286
0.175082
0.197608
0.258039
0.388358
0.602482
0.835302
0.948715
0.891521
0.310381
-7.48446e-21
0.208287
0.792039
0.848658
0.316651
7.0965e-09
7.0965e-09
7.0965e-09
7.0965e-09
6.59536e-05
0.000271458
0.000678339
0.00235189
0.0106657
0.0617664
0.686037
0.809999
0.807096
0.265858
0.272505
0.80636
0.806338
0.423552
0.0115502
7.0965e-09
4.28658e-06
4.29773e-06
2.00047e-06
3.24296e-06
2.71096e-06
5.27716e-06
5.27722e-06
0.000447041
0.0649912
0.467735
0.604782
0.633412
0.375011
0.901365
0.901345
0.37919
4.00532e-08
3.36388e-08
1.01081e-06
2.6668e-07
3.0313e-11
3.0313e-11
3.0313e-11
6.28293e-08
9.19779e-06
5.61951e-05
0.000659688
0.0197086
0.0871856
0.173181
0.353604
0.800731
0.590892
0.159107
3.96303e-06
1.00733e-05
1.81216e-07
1.90766e-07
8.43187e-08
1.08877e-07
4.08163e-07
1.18207e-05
8.33088e-05
0.000514807
0.0058149
0.0220257
0.0110559
0.0009584
1.09193e-07
0.260747
0.257749
3.90608e-08
3.9059e-08
3.96397e-06
8.25456e-06
3.36385e-08
3.36385e-08
9.76172e-05
0.000316561
3.29546e-05
9.89026e-06
0.000677831
0.0157411
0.213021
0.543239
0.317931
0.00167703
1.09153e-07
0.33225
3.90608e-08
3.9059e-08
7.75477e-08
9.35344e-07
2.88052e-06
0.000166785
0.00338041
0.0271623
0.0910525
0.00600809
2.30582e-06
0.00875085
0.292133
0.819972
0.990211
0.885557
0.189115
0.00132537
0.442388
4.84456e-05
4.11777e-06
3.36385e-08
3.38625e-08
5.6305e-07
0.00012031
0.018023
0.334408
0.546522
0.103055
2.38011e-06
0.1649
0.833869
0.990211
0.990211
0.990211
0.826
0.369926
0.714372
0.00561054
3.36385e-08
3.36385e-08
6.09666e-08
2.22948e-07
3.36385e-08
0.0688278
0.649062
0.697319
0.44898
0.0873769
0.585023
0.854173
0.854173
0.979289
0.990211
0.990211
0.979257
0.98033
0.0472119
3.36385e-08
3.36385e-08
3.36385e-08
3.36385e-08
3.36385e-08
0.325407
0.697319
0.697333
0.697319
0.543817
0.507806
0.294859
0.182587
0.642771
0.960342
0.990211
0.990211
0.990211
0.681754
0.461393
0.254109
0.180615
0.229055
0.497974
0.588622
0.505134
0.311016
0.271332
0.329627
0.105397
0.000964122
0.000971483
0.0731565
0.428322
0.860379
0.983926
0.989573
0.297467
0.611213
0.684386
0.684316
0.684146
0.489637
0.128616
3.84075e-10
3.84074e-10
3.84079e-10
3.84074e-10
3.84079e-10
0.00247993
0.00144458
9.70858e-06
9.68757e-06
0.236593
0.632056
0.74012
2.81389e-07
2.81414e-07
0.016227
0.0437965
0.0261953
3.84074e-10
3.84075e-10
3.84074e-10
1.89579e-07
3.3006e-05
0.00215386
0.00694384
0.00694895
0.0025033
9.68757e-06
0.000474317
0.000473793
0.116442
0.237705
6.03757e-06
1.97143e-06
3.84079e-10
3.84079e-10
3.84074e-10
3.84075e-10
3.84074e-10
3.84075e-10
3.3107e-08
1.88431e-05
0.000934207
0.00200129
0.00178342
8.61865e-09
5.45285e-05
0.00459676
0.0231436
0.0600233
0.195424
3.25104e-07
7.68938e-07
2.67534e-06
7.03824e-07
3.84079e-10
3.84074e-10
3.84075e-10
4.78429e-10
1.01224e-06
7.73999e-06
8.60546e-09
8.66007e-09
8.60546e-09
8.66007e-09
2.74149e-05
0.0037774
0.03801
0.120533
0.401108
3.17632e-09
1.1398e-09
7.8477e-07
1.14162e-06
4.32295e-07
1.7599e-06
2.3908e-06
4.78426e-10
6.01036e-08
8.12448e-07
2.64059e-08
1.33849e-08
2.54322e-08
1.69222e-08
3.38513e-05
0.000289001
0.00483694
0.0405066
0.401108
2.75889e-10
1.13975e-09
2.95253e-10
3.42231e-07
6.05048e-07
1.19309e-05
2.28791e-05
1.27348e-05
9.38028e-07
4.8908e-06
7.40864e-06
5.79907e-06
1.17152e-06
1.69e-08
3.34616e-05
5.12177e-06
5.12615e-06
8.76445e-06
0.401108
1.54203e-10
4.17247e-10
2.95256e-10
3.69352e-11
5.66854e-07
1.74407e-06
1.83347e-05
4.21206e-05
4.21201e-05
4.21206e-05
4.21201e-05
2.22407e-05
5.56353e-06
1.68997e-08
1.24809e-05
5.12292e-06
5.88114e-06
0.00146197
0.353083
5.4455e-11
1.90886e-10
2.23079e-10
3.6935e-11
2.38668e-07
4.79932e-08
2.76949e-06
1.18386e-05
1.16015e-05
8.78725e-06
7.76316e-06
1.35309e-05
9.58393e-06
4.43744e-07
5.44856e-11
2.10549e-06
2.63956e-05
0.00380098
0.0390276
1.24694e-11
4.36146e-11
1.36849e-10
1.08901e-10
1.07604e-09
1.20848e-08
4.42339e-08
3.36241e-08
3.53234e-08
9.24943e-12
9.18452e-12
9.24943e-12
9.18452e-12
2.61176e-10
5.44258e-11
7.43291e-12
8.45701e-05
0.00191458
0.000198663
1.5957e-12
6.23374e-12
2.1893e-11
5.29036e-11
5.37179e-11
3.04263e-10
2.97617e-10
3.70036e-10
7.07889e-10
9.00519e-10
6.29787e-10
2.19399e-10
7.91954e-11
7.45133e-12
7.43291e-12
7.43695e-12
0.000131017
0.000238643
0.000198553
1.70898e-13
6.64889e-13
1.90636e-12
5.112e-12
7.61714e-12
1.66887e-11
4.17648e-11
1.12495e-10
2.59464e-10
3.75081e-10
3.6587e-10
3.07004e-10
2.01489e-10
9.95817e-11
1.39517e-11
7.43291e-12
0.000101269
0.000638319
0.000198663
3.77198e-12
1.38855e-11
2.84109e-11
2.56811e-11
1.53972e-11
8.53437e-12
7.64177e-12
1.37257e-11
3.25544e-11
5.57942e-11
5.88694e-11
5.54439e-11
5.58271e-11
4.39232e-11
9.31099e-12
1.13482e-05
1.12577e-05
0.00219245
0.000277196
8.48009e-11
3.84345e-10
6.78103e-10
5.34783e-10
2.87361e-10
1.15486e-10
4.32823e-11
1.55703e-11
7.16924e-12
5.88232e-12
6.57355e-12
9.74201e-12
1.90885e-11
1.65681e-11
9.31094e-12
1.2281e-05
1.10983e-05
0.00219232
0.00119014
7.02992e-09
1.74963e-08
1.31477e-08
5.82508e-09
1.87266e-09
7.85906e-10
3.58805e-10
1.50542e-10
5.20784e-11
1.41653e-11
5.05811e-12
4.16033e-12
8.73476e-12
7.83866e-12
7.4083e-12
1.11006e-05
1.10997e-05
0.00132414
0.0341926
1.50607e-07
9.20052e-08
2.95073e-08
1.17934e-08
4.38386e-09
2.04162e-09
1.17064e-09
6.65866e-10
3.1026e-10
1.10855e-10
3.20236e-11
9.32646e-12
7.49794e-12
7.4083e-12
7.40872e-12
1.49336e-05
1.27734e-05
6.6672e-28
0.105435
1.92718e-07
3.28758e-08
1.09991e-08
1.33727e-08
1.60863e-08
5.68187e-09
2.15379e-09
1.46761e-09
9.97676e-10
4.89657e-10
1.76898e-10
5.1471e-11
1.66159e-11
7.40872e-12
7.4083e-12
2.34434e-05
2.51752e-05
2.2199e-23
0.105438
3.71002e-11
3.70409e-11
3.71002e-11
3.46067e-09
2.43455e-08
3.00888e-08
2.66631e-08
9.23999e-09
3.93241e-09
1.76523e-09
6.80735e-10
2.26202e-10
6.66834e-11
1.42176e-11
7.40872e-12
2.37225e-05
2.71498e-05
1.16947e-24
0.105425
2.37554e-10
3.77521e-10
2.7748e-10
8.70782e-11
1.50683e-11
3.38664e-07
6.22065e-07
4.7759e-07
1.12914e-07
1.12329e-08
1.68381e-09
6.03455e-10
1.92394e-10
3.96697e-11
7.4083e-12
7.39681e-06
2.42347e-05
2.27174e-23
0.0730224
6.18729e-10
6.36851e-10
5.35073e-10
1.03525e-10
1.48214e-11
5.26864e-07
9.31624e-07
9.30364e-07
6.9576e-07
8.00117e-08
2.78483e-09
5.30947e-10
2.72502e-10
8.08066e-11
7.40872e-12
1.29003e-07
4.43824e-06
1.18799e-07
4.51502e-08
3.46165e-10
4.4691e-10
3.55413e-10
1.01402e-10
1.50683e-11
4.88931e-09
2.95443e-07
6.70487e-07
7.01449e-07
4.7792e-07
3.49454e-08
5.30941e-10
6.75603e-10
3.86718e-10
7.53135e-11
9.52778e-12
4.33632e-06
1.09104e-06
6.7483e-08
8.64631e-11
1.17683e-10
1.20514e-10
1.01618e-10
1.57624e-11
6.42907e-13
7.91084e-13
6.42907e-13
3.15424e-08
6.91266e-07
6.66192e-07
9.37216e-08
1.06059e-09
2.0213e-10
9.88095e-11
9.52765e-12
1.11319e-05
4.5173e-06
9.31366e-08
1.97266e-11
2.58704e-11
3.16005e-11
2.79183e-11
2.00865e-11
6.81631e-11
3.66368e-10
2.61466e-10
5.78749e-11
3.13984e-07
1.96053e-06
7.97463e-07
3.38762e-08
1.73615e-09
1.80119e-10
1.65547e-11
1.11676e-05
1.0543e-05
5.65998e-07
4.21823e-12
5.28124e-12
6.3644e-12
6.78409e-12
1.39066e-11
9.16138e-11
7.39161e-10
7.86536e-10
1.18786e-10
1.1881e-10
3.50711e-06
4.06648e-06
7.4539e-07
1.70092e-08
1.73229e-10
1.6656e-11
1.01562e-05
8.26796e-06
6.72883e-07
7.18486e-13
8.17191e-13
1.02922e-12
1.60425e-12
5.64357e-12
5.63389e-11
6.32622e-10
8.01849e-10
2.72137e-27
7.25679e-07
6.01552e-06
6.43021e-06
3.41663e-06
1.55469e-08
1.00015e-10
1.42584e-08
1.77779e-06
1.42534e-06
3.66104e-07
9.15932e-14
9.64941e-14
1.53928e-13
3.98954e-13
1.7868e-12
1.43295e-11
1.98851e-10
7.16632e-10
-3.20733e-28
7.42312e-06
1.3075e-05
5.43544e-06
2.43882e-06
7.95945e-09
9.97059e-11
2.01692e-07
1.7225e-07
1.95585e-08
1.6466e-08
8.79914e-15
1.01254e-14
2.56424e-14
9.55714e-14
4.48543e-13
2.85439e-12
3.54529e-11
3.94825e-10
1.54203e-27
2.87148e-06
0.000106491
5.49509e-05
3.69421e-06
1.68921e-08
8.1668e-10
2.40413e-07
9.79553e-08
6.18328e-09
6.1797e-09
6.81459e-16
1.15323e-15
4.20601e-15
1.83706e-14
9.05724e-14
4.83363e-13
4.50159e-12
1.37803e-10
1.76037e-28
2.4842e-06
0.000143658
0.00015006
1.8774e-05
5.5218e-08
3.04545e-10
2.19923e-07
3.76564e-08
6.1797e-09
1.23518e-06
4.99264e-17
1.29595e-16
5.36132e-16
2.59479e-15
1.42112e-14
7.61129e-14
6.74205e-13
3.30358e-11
6.08154e-12
2.48604e-30
0.000133281
0.000190419
4.81843e-05
1.3833e-07
3.05216e-10
2.39087e-08
1.32278e-08
1.26412e-06
5.76744e-06
2.86362e-18
8.92344e-18
4.14117e-17
2.42116e-16
1.63577e-15
1.0868e-14
1.07782e-13
4.30248e-12
1.13627e-12
-1.72543e-32
0.0001113
0.000190418
7.1613e-05
3.12074e-07
1.37355e-10
1.23885e-11
2.43654e-07
3.00206e-05
1.08537e-05
6.68839e-20
2.60357e-19
1.72087e-18
1.41346e-17
1.22837e-16
1.01365e-15
9.19998e-15
2.21063e-13
3.28416e-14
7.06937e-33
8.8812e-05
0.000190419
0.000107997
8.52171e-07
8.73249e-11
1.23885e-11
2.33808e-05
3.24526e-05
2.04175e-05
1.44488e-24
5.09562e-24
1.96195e-23
4.00903e-23
2.97468e-23
-5.74738e-73
-3.64303e-72
-6.34143e-71
-1.34673e-32
-9.31093e-33
6.89526e-06
0.000160409
8.67266e-05
4.31145e-07
4.35161e-11
1.23885e-11
1.66547e-05
2.47928e-05
1.02025e-05
)
;

boundaryField
{
    leftWall
    {
        type            zeroGradient;
    }
    rightWall
    {
        type            zeroGradient;
    }
    lowerWall
    {
        type            zeroGradient;
    }
    atmosphere
    {
        type            inletOutlet;
        inletValue      uniform 0;
        value           nonuniform List<scalar> 
46
(
1.11094e-18
8.95556e-17
3.36715e-15
7.78325e-14
1.23312e-12
1.42497e-11
1.36984e-10
2.77311e-09
4.14305e-08
5.60476e-08
8.97466e-10
1.08979e-11
1.36864e-11
2.16524e-11
9.83393e-12
0
0
0
0
0
0
0
0
0
0
0
0
0
0
0
0
0
0
0
0
0
0
0
0.000160409
8.67266e-05
4.31145e-07
4.35161e-11
1.23885e-11
1.66547e-05
2.47928e-05
1.02025e-05
)
;
    }
    defaultFaces
    {
        type            empty;
    }
}


// ************************************************************************* //
