# vtk DataFile Version 2.0
gauge_2
ASCII
DATASET POLYDATA
POINTS 43 double
0.2 0.0359992 0.005
0.2 0.0419991 0.005
0.2 0.047999 0.005
0.2 0.0607609 0.005
0.2 0.0735228 0.005
0.2 0.0862847 0.005
0.2 0.0990467 0.005
0.2 0.111809 0.005
0.2 0.124571 0.005
0.2 0.137332 0.005
0.2 0.150094 0.005
0.2 0.162856 0.005
0.2 0.175618 0.005
0.2 0.18838 0.005
0.2 0.201142 0.005
0.2 0.213904 0.005
0.2 0.226666 0.005
0.2 0.239428 0.005
0.2 0.25219 0.005
0.2 0.264952 0.005
0.2 0.277714 0.005
0.2 0.290476 0.005
0.2 0.303238 0.005
0.2 0.315999 0.005
0.2 0.328761 0.005
0.2 0.341523 0.005
0.2 0.354285 0.005
0.2 0.367047 0.005
0.2 0.379809 0.005
0.2 0.392571 0.005
0.2 0.405333 0.005
0.2 0.418095 0.005
0.2 0.430857 0.005
0.2 0.443619 0.005
0.2 0.456381 0.005
0.2 0.469143 0.005
0.2 0.481905 0.005
0.2 0.494666 0.005
0.2 0.507428 0.005
0.2 0.52019 0.005
0.2 0.532952 0.005
0.2 0.545714 0.005
0.2 0.558476 0.005
POINT_DATA 43
 FIELD attributes 1
alpha.water 1 43 float
1 1 0.999988 0.947536 0.531928 0.0868791 0.0735226 0.193639 0.258145 0.256432 0.128608 0.00770073 -2.95771e-07 7.84625e-06 4.0183e-05 6.47084e-05 3.66224e-05 4.35658e-06 2.23013e-09 3.93445e-10 6.28919e-11 5.6855e-11 5.20271e-11 3.85707e-11 2.05826e-11 6.57605e-12 1.20313e-12 1.21562e-13 8.27714e-15 5.75303e-16 4.13062e-17 2.7936e-18 1.71624e-19 9.64519e-21 5.02905e-22 2.45889e-23 1.13353e-24 4.93869e-26 2.03511e-27 7.94205e-29 2.95225e-30 1.05813e-31 3.68077e-33
