/*--------------------------------*- C++ -*----------------------------------*\
| =========                 |                                                 |
| \\      /  F ield         | OpenFOAM: The Open Source CFD Toolbox           |
|  \\    /   O peration     | Version:  3.0.1                                 |
|   \\  /    A nd           | Web:      www.OpenFOAM.org                      |
|    \\/     M anipulation  |                                                 |
\*---------------------------------------------------------------------------*/
FoamFile
{
    version     2.0;
    format      ascii;
    class       volScalarField;
    location    "0.0002";
    object      p;
}
// * * * * * * * * * * * * * * * * * * * * * * * * * * * * * * * * * * * * * //

dimensions      [1 -1 -2 0 0 0 0];

internalField   nonuniform List<scalar> 
1000
(
68963.2
68962.6
68961.4
68959.5
68956.9
68953.3
68948.6
68942.4
68934.5
68924.3
68911.3
68894.9
68874.2
68848.4
68816.3
68776.7
68728
68668.8
68597.1
68511
68408.5
68287.6
68146.2
67982.5
67795.1
67582.9
67345.6
67083.8
66799.3
66495.1
66175.4
65846.3
65515
65190.1
64880.8
64596.9
64347.4
64139.8
63978.9
63865.9
63798
63767.7
63762.4
63768.8
63777.5
63784
63786.3
63786.7
63787.5
63786.3
63779.2
63770.6
63780.5
63787.5
63790.4
63796.9
63809.2
63826.8
63846.4
63861
63856.4
63820.7
63745.1
63623
63452.1
63234.1
62974.4
62681.6
62365.7
62037.5
61707.4
61384.3
61076
60787.9
60523.8
60285.9
60074.8
59890
59730.4
59594
59478.6
59382
59301.7
59235.6
59181.5
59137.6
59102.2
59073.9
59051.2
59033.3
59019.2
59008.1
58999.5
58992.8
58987.8
58983.9
58981.1
58979.1
58977.8
58977.2
68963.2
68962.6
68961.4
68959.5
68956.9
68953.3
68948.6
68942.4
68934.5
68924.3
68911.3
68894.9
68874.2
68848.4
68816.3
68776.7
68728
68668.8
68597.1
68511
68408.5
68287.6
68146.2
67982.5
67795.1
67582.9
67345.6
67083.8
66799.3
66495.1
66175.4
65846.3
65515
65190
64880.8
64596.9
64347.3
64139.7
63978.8
63865.9
63797.9
63767.8
63762.5
63769
63777.8
63784.4
63786.8
63787.3
63787.9
63786.3
63778.3
63770.9
63780.5
63787.7
63790.5
63796.8
63809
63826.7
63846.4
63861
63856.4
63820.7
63745.1
63623
63452.1
63234.1
62974.4
62681.6
62365.7
62037.5
61707.4
61384.4
61076
60787.9
60523.8
60285.9
60074.8
59890
59730.4
59594
59478.6
59382
59301.7
59235.6
59181.5
59137.6
59102.2
59073.9
59051.2
59033.3
59019.2
59008.1
58999.5
58992.8
58987.8
58983.9
58981.1
58979.1
58977.8
58977.2
68963.2
68962.6
68961.4
68959.5
68956.9
68953.3
68948.6
68942.4
68934.5
68924.3
68911.3
68894.9
68874.2
68848.4
68816.3
68776.7
68728
68668.8
68597.1
68511
68408.5
68287.6
68146.2
67982.5
67795.1
67582.9
67345.6
67083.8
66799.3
66495.1
66175.4
65846.3
65515
65190
64880.7
64596.8
64347.2
64139.6
63978.7
63865.8
63797.9
63767.8
63762.6
63769.2
63778.3
63784.9
63787.3
63787.6
63788.2
63786.8
63779.6
63770.9
63780.8
63787.6
63790.3
63796.7
63808.9
63826.6
63846.2
63860.9
63856.3
63820.7
63745
63623
63452.1
63234.1
62974.4
62681.6
62365.7
62037.5
61707.4
61384.4
61076
60787.9
60523.8
60285.9
60074.8
59890
59730.4
59594
59478.6
59382
59301.7
59235.6
59181.5
59137.6
59102.2
59073.9
59051.2
59033.3
59019.2
59008.1
58999.5
58992.8
58987.8
58983.9
58981.1
58979.1
58977.8
58977.2
68963.2
68962.6
68961.4
68959.5
68956.9
68953.3
68948.6
68942.4
68934.5
68924.3
68911.3
68894.9
68874.2
68848.4
68816.3
68776.7
68728
68668.8
68597.1
68511
68408.5
68287.6
68146.2
67982.5
67795.1
67582.9
67345.6
67083.8
66799.3
66495
66175.4
65846.2
65514.9
65189.9
64880.7
64596.7
64347.1
64139.5
63978.6
63865.7
63797.9
63767.9
63762.8
63769.6
63778.8
63785.6
63788.1
63788.5
63788.8
63786.9
63778.9
63771.4
63780.9
63787.8
63790.4
63796.5
63808.7
63826.4
63846.1
63860.8
63856.2
63820.6
63745
63623
63452.1
63234.1
62974.5
62681.6
62365.7
62037.6
61707.4
61384.4
61076
60787.9
60523.8
60285.9
60074.8
59890
59730.4
59594
59478.6
59382
59301.7
59235.6
59181.5
59137.6
59102.2
59073.9
59051.2
59033.3
59019.2
59008.1
58999.5
58992.8
58987.8
58983.9
58981.1
58979.1
58977.8
58977.2
68963.2
68962.6
68961.4
68959.5
68956.9
68953.3
68948.6
68942.4
68934.5
68924.3
68911.3
68894.9
68874.2
68848.4
68816.3
68776.7
68728
68668.8
68597.1
68511
68408.5
68287.6
68146.2
67982.5
67795.1
67582.9
67345.6
67083.8
66799.3
66495
66175.4
65846.2
65514.9
65189.9
64880.6
64596.6
64347.1
64139.4
63978.5
63865.7
63797.8
63767.9
63762.9
63769.7
63779
63785.9
63788.5
63788.9
63789.2
63787.1
63779
63771.6
63781
63787.8
63790.3
63796.4
63808.6
63826.3
63846
63860.7
63856.2
63820.6
63745
63623
63452.1
63234.1
62974.5
62681.6
62365.7
62037.6
61707.4
61384.4
61076
60787.9
60523.8
60285.9
60074.8
59890
59730.4
59594
59478.6
59382
59301.7
59235.6
59181.5
59137.6
59102.2
59073.9
59051.2
59033.3
59019.2
59008.1
58999.5
58992.8
58987.8
58983.9
58981.1
58979.1
58977.8
58977.2
68963.2
68962.6
68961.4
68959.5
68956.9
68953.3
68948.6
68942.4
68934.5
68924.3
68911.3
68894.9
68874.2
68848.4
68816.3
68776.7
68728
68668.8
68597.1
68511
68408.5
68287.6
68146.2
67982.5
67795.1
67582.9
67345.6
67083.8
66799.3
66495
66175.4
65846.2
65514.9
65189.9
64880.6
64596.6
64347.1
64139.4
63978.5
63865.7
63797.8
63767.9
63762.8
63769.7
63779
63785.9
63788.5
63788.9
63789.1
63787.1
63779
63771.6
63781
63787.8
63790.3
63796.4
63808.6
63826.3
63846
63860.7
63856.2
63820.6
63745
63623
63452.2
63234.1
62974.5
62681.6
62365.8
62037.6
61707.4
61384.4
61076
60787.9
60523.8
60285.9
60074.8
59890
59730.4
59594
59478.6
59382
59301.7
59235.6
59181.5
59137.6
59102.2
59073.9
59051.2
59033.3
59019.2
59008.1
58999.5
58992.8
58987.8
58983.9
58981.1
58979.1
58977.8
58977.2
68963.2
68962.6
68961.4
68959.5
68956.9
68953.3
68948.6
68942.4
68934.5
68924.3
68911.3
68894.9
68874.2
68848.4
68816.3
68776.7
68728
68668.8
68597.1
68511
68408.5
68287.6
68146.2
67982.5
67795.1
67582.9
67345.6
67083.8
66799.3
66495
66175.4
65846.2
65514.9
65189.9
64880.6
64596.7
64347.1
64139.5
63978.6
63865.7
63797.8
63767.8
63762.7
63769.5
63778.8
63785.6
63788.1
63788.5
63788.8
63786.9
63778.9
63771.4
63780.9
63787.8
63790.4
63796.5
63808.7
63826.4
63846.1
63860.8
63856.3
63820.7
63745.1
63623.1
63452.2
63234.1
62974.5
62681.6
62365.8
62037.6
61707.4
61384.4
61076
60787.9
60523.8
60285.9
60074.8
59890
59730.4
59594
59478.6
59382
59301.7
59235.6
59181.5
59137.6
59102.2
59073.9
59051.2
59033.3
59019.2
59008.1
58999.5
58992.8
58987.8
58983.9
58981.1
58979.1
58977.8
58977.2
68963.2
68962.6
68961.4
68959.5
68956.9
68953.3
68948.6
68942.4
68934.5
68924.3
68911.3
68894.9
68874.2
68848.4
68816.3
68776.7
68728
68668.8
68597.1
68511
68408.5
68287.6
68146.2
67982.5
67795.1
67582.9
67345.6
67083.8
66799.3
66495.1
66175.4
65846.3
65515
65190
64880.7
64596.8
64347.2
64139.6
63978.7
63865.8
63797.8
63767.8
63762.6
63769.2
63778.2
63784.9
63787.3
63787.6
63788.3
63786.8
63779.6
63770.9
63780.8
63787.6
63790.3
63796.7
63808.9
63826.6
63846.2
63860.9
63856.3
63820.7
63745.1
63623.1
63452.2
63234.1
62974.5
62681.6
62365.8
62037.6
61707.4
61384.4
61076
60787.9
60523.8
60285.9
60074.8
59890
59730.4
59594
59478.6
59382
59301.7
59235.6
59181.5
59137.6
59102.2
59073.9
59051.2
59033.3
59019.2
59008.1
58999.5
58992.8
58987.8
58983.9
58981.1
58979.1
58977.8
58977.2
68963.2
68962.6
68961.4
68959.5
68956.9
68953.3
68948.6
68942.4
68934.5
68924.3
68911.3
68894.9
68874.2
68848.4
68816.3
68776.7
68728
68668.8
68597.1
68511
68408.5
68287.6
68146.2
67982.5
67795.1
67582.9
67345.6
67083.8
66799.3
66495.1
66175.4
65846.3
65515
65190
64880.8
64596.8
64347.3
64139.6
63978.7
63865.8
63797.9
63767.7
63762.4
63768.9
63777.8
63784.4
63786.8
63787.4
63787.9
63786.3
63778.3
63770.9
63780.5
63787.7
63790.5
63796.8
63809
63826.7
63846.4
63861
63856.4
63820.8
63745.1
63623.1
63452.2
63234.1
62974.5
62681.6
62365.7
62037.6
61707.4
61384.4
61076
60787.9
60523.8
60285.9
60074.7
59890
59730.4
59594
59478.6
59382
59301.7
59235.6
59181.5
59137.6
59102.2
59073.9
59051.2
59033.3
59019.2
59008.1
58999.5
58992.8
58987.8
58983.9
58981.1
58979.1
58977.8
58977.2
68963.2
68962.6
68961.4
68959.5
68956.9
68953.3
68948.6
68942.4
68934.5
68924.3
68911.3
68894.9
68874.2
68848.4
68816.3
68776.7
68728
68668.8
68597.1
68511
68408.5
68287.6
68146.2
67982.5
67795.1
67582.9
67345.6
67083.8
66799.3
66495.1
66175.4
65846.3
65515
65190.1
64880.8
64596.9
64347.4
64139.7
63978.8
63865.9
63797.9
63767.7
63762.3
63768.7
63777.5
63784
63786.4
63786.8
63787.6
63786.3
63779.2
63770.6
63780.6
63787.5
63790.4
63796.9
63809.2
63826.8
63846.5
63861.1
63856.5
63820.8
63745.2
63623.1
63452.2
63234.1
62974.5
62681.6
62365.7
62037.6
61707.4
61384.4
61076
60787.8
60523.8
60285.9
60074.7
59890
59730.4
59594
59478.6
59382
59301.7
59235.6
59181.5
59137.6
59102.2
59073.9
59051.2
59033.3
59019.2
59008.1
58999.5
58992.8
58987.8
58983.9
58981.1
58979.1
58977.8
58977.2
)
;

boundaryField
{
    sides1
    {
        type            zeroGradient;
    }
    sides2
    {
        type            slip;
    }
    empty
    {
        type            empty;
    }
}


// ************************************************************************* //
