/*--------------------------------*- C++ -*----------------------------------*\
| =========                 |                                                 |
| \\      /  F ield         | OpenFOAM: The Open Source CFD Toolbox           |
|  \\    /   O peration     | Version:  3.0.1                                 |
|   \\  /    A nd           | Web:      www.OpenFOAM.org                      |
|    \\/     M anipulation  |                                                 |
\*---------------------------------------------------------------------------*/
FoamFile
{
    version     2.0;
    format      ascii;
    class       volScalarField;
    location    "0.0002";
    object      T;
}
// * * * * * * * * * * * * * * * * * * * * * * * * * * * * * * * * * * * * * //

dimensions      [0 0 0 1 0 0 0];

internalField   nonuniform List<scalar> 
1000
(
288.998
288.997
288.997
288.996
288.995
288.993
288.991
288.989
288.985
288.98
288.974
288.966
288.955
288.942
288.924
288.902
288.874
288.838
288.794
288.738
288.67
288.586
288.484
288.361
288.213
288.039
287.835
287.599
287.328
287.023
286.685
286.315
285.917
285.5
285.071
284.644
284.23
283.845
283.504
283.22
283.001
282.851
282.767
282.734
282.738
282.748
282.762
282.709
282.966
281.843
285.369
292.351
295.301
295.707
295.745
295.758
295.799
295.824
295.824
295.769
295.643
295.438
295.153
294.793
294.373
293.91
293.422
292.927
292.442
291.98
291.551
291.16
290.811
290.504
290.238
290.012
289.82
289.66
289.528
289.42
289.332
289.261
289.204
289.159
289.123
289.095
289.073
289.056
289.043
289.032
289.025
289.019
289.014
289.011
289.008
289.006
289.005
289.004
289.003
289.003
288.998
288.997
288.997
288.996
288.995
288.993
288.991
288.989
288.985
288.98
288.974
288.966
288.955
288.942
288.924
288.902
288.874
288.838
288.794
288.738
288.67
288.586
288.484
288.361
288.213
288.039
287.835
287.599
287.328
287.023
286.685
286.314
285.917
285.5
285.071
284.644
284.23
283.845
283.504
283.22
283.001
282.851
282.767
282.736
282.735
282.753
282.76
282.708
282.847
282.691
285.592
291.787
295.142
295.683
295.728
295.752
295.798
295.824
295.824
295.769
295.644
295.439
295.153
294.793
294.373
293.91
293.422
292.927
292.442
291.98
291.551
291.16
290.811
290.504
290.238
290.012
289.82
289.66
289.528
289.42
289.332
289.261
289.204
289.159
289.123
289.095
289.073
289.056
289.043
289.032
289.025
289.019
289.014
289.011
289.008
289.006
289.005
289.004
289.003
289.003
288.998
288.997
288.997
288.996
288.995
288.993
288.991
288.989
288.985
288.98
288.974
288.966
288.955
288.942
288.924
288.902
288.874
288.838
288.794
288.738
288.67
288.586
288.484
288.361
288.213
288.039
287.835
287.599
287.328
287.023
286.685
286.314
285.917
285.5
285.071
284.644
284.23
283.845
283.504
283.219
283.001
282.851
282.767
282.734
282.736
282.74
282.783
282.723
282.96
281.836
285.344
292.417
295.315
295.655
295.721
295.757
295.803
295.826
295.824
295.769
295.644
295.439
295.153
294.793
294.373
293.91
293.422
292.927
292.442
291.98
291.551
291.16
290.811
290.504
290.238
290.012
289.82
289.66
289.528
289.42
289.332
289.261
289.204
289.159
289.123
289.095
289.073
289.056
289.043
289.032
289.025
289.019
289.014
289.011
289.008
289.006
289.005
289.004
289.003
289.003
288.998
288.997
288.997
288.996
288.995
288.993
288.991
288.989
288.985
288.98
288.974
288.966
288.955
288.942
288.924
288.902
288.874
288.838
288.794
288.738
288.67
288.586
288.484
288.361
288.213
288.039
287.835
287.599
287.328
287.023
286.685
286.314
285.917
285.5
285.071
284.643
284.23
283.845
283.504
283.219
283
282.85
282.766
282.734
282.74
282.743
282.761
282.714
282.851
282.693
285.591
291.796
295.108
295.675
295.74
295.761
295.802
295.826
295.825
295.769
295.643
295.439
295.153
294.793
294.373
293.91
293.422
292.927
292.442
291.98
291.551
291.16
290.811
290.504
290.238
290.012
289.82
289.66
289.528
289.42
289.332
289.261
289.204
289.159
289.123
289.095
289.073
289.056
289.043
289.032
289.025
289.019
289.014
289.011
289.008
289.006
289.005
289.004
289.003
289.003
288.998
288.997
288.997
288.996
288.995
288.993
288.991
288.989
288.985
288.98
288.974
288.966
288.955
288.942
288.924
288.902
288.874
288.838
288.794
288.738
288.67
288.586
288.484
288.361
288.213
288.039
287.835
287.599
287.328
287.023
286.685
286.314
285.917
285.5
285.071
284.643
284.23
283.845
283.504
283.219
283
282.85
282.766
282.735
282.737
282.743
282.762
282.716
282.852
282.693
285.588
291.811
295.138
295.662
295.723
295.75
295.797
295.825
295.825
295.769
295.644
295.439
295.153
294.793
294.373
293.91
293.422
292.927
292.442
291.981
291.551
291.16
290.811
290.504
290.238
290.012
289.82
289.66
289.528
289.42
289.332
289.261
289.204
289.159
289.123
289.095
289.073
289.056
289.043
289.032
289.025
289.019
289.014
289.011
289.008
289.006
289.005
289.004
289.003
289.003
288.998
288.997
288.997
288.996
288.995
288.993
288.991
288.989
288.985
288.98
288.974
288.966
288.955
288.942
288.924
288.902
288.874
288.838
288.794
288.738
288.67
288.586
288.484
288.361
288.213
288.039
287.835
287.599
287.328
287.023
286.685
286.314
285.917
285.5
285.071
284.643
284.23
283.845
283.504
283.219
283
282.85
282.766
282.735
282.737
282.743
282.762
282.716
282.852
282.693
285.591
291.795
295.108
295.672
295.745
295.76
295.8
295.825
295.824
295.769
295.644
295.439
295.153
294.794
294.373
293.91
293.422
292.927
292.442
291.98
291.551
291.16
290.811
290.504
290.238
290.012
289.82
289.66
289.528
289.42
289.332
289.261
289.204
289.159
289.123
289.095
289.073
289.056
289.043
289.032
289.025
289.019
289.014
289.011
289.008
289.006
289.005
289.004
289.003
289.003
288.998
288.997
288.997
288.996
288.995
288.993
288.991
288.989
288.985
288.98
288.974
288.966
288.955
288.942
288.924
288.902
288.874
288.838
288.794
288.738
288.67
288.586
288.484
288.361
288.213
288.039
287.835
287.599
287.328
287.023
286.685
286.314
285.917
285.5
285.071
284.643
284.23
283.845
283.504
283.219
283
282.85
282.766
282.733
282.736
282.74
282.771
282.762
282.841
282.67
285.568
291.84
295.132
295.65
295.718
295.749
295.797
295.824
295.824
295.769
295.644
295.439
295.153
294.793
294.373
293.91
293.422
292.927
292.442
291.98
291.551
291.16
290.811
290.504
290.238
290.012
289.82
289.66
289.528
289.42
289.332
289.261
289.204
289.159
289.123
289.095
289.073
289.056
289.043
289.032
289.025
289.019
289.014
289.011
289.008
289.006
289.005
289.004
289.003
289.003
288.998
288.997
288.997
288.996
288.995
288.993
288.991
288.989
288.985
288.98
288.974
288.966
288.955
288.942
288.924
288.902
288.874
288.838
288.794
288.738
288.67
288.586
288.484
288.361
288.213
288.039
287.835
287.599
287.328
287.023
286.685
286.314
285.917
285.5
285.071
284.644
284.23
283.845
283.504
283.219
283.001
282.851
282.767
282.734
282.736
282.74
282.783
282.723
282.96
281.836
285.344
292.417
295.315
295.655
295.721
295.757
295.803
295.826
295.824
295.769
295.644
295.439
295.153
294.793
294.373
293.91
293.422
292.927
292.442
291.98
291.551
291.16
290.811
290.504
290.238
290.012
289.82
289.66
289.528
289.42
289.332
289.261
289.204
289.159
289.123
289.095
289.073
289.056
289.043
289.032
289.025
289.019
289.014
289.011
289.008
289.006
289.005
289.004
289.003
289.003
288.998
288.997
288.997
288.996
288.995
288.993
288.991
288.989
288.985
288.98
288.974
288.966
288.955
288.942
288.924
288.902
288.874
288.838
288.794
288.738
288.67
288.586
288.484
288.361
288.213
288.039
287.835
287.599
287.328
287.023
286.685
286.315
285.917
285.5
285.071
284.644
284.23
283.845
283.504
283.22
283.001
282.851
282.766
282.734
282.736
282.755
282.76
282.708
282.847
282.691
285.592
291.787
295.142
295.683
295.728
295.752
295.798
295.824
295.824
295.769
295.644
295.439
295.153
294.793
294.373
293.91
293.422
292.927
292.442
291.98
291.551
291.16
290.811
290.504
290.238
290.012
289.82
289.66
289.528
289.42
289.332
289.261
289.204
289.159
289.123
289.095
289.073
289.056
289.043
289.032
289.025
289.019
289.014
289.011
289.008
289.006
289.005
289.004
289.003
289.003
288.998
288.997
288.997
288.996
288.995
288.993
288.991
288.989
288.985
288.98
288.974
288.966
288.955
288.942
288.924
288.902
288.874
288.838
288.794
288.738
288.67
288.586
288.484
288.361
288.213
288.039
287.835
287.599
287.328
287.023
286.685
286.315
285.917
285.5
285.072
284.644
284.23
283.845
283.504
283.22
283.001
282.851
282.767
282.735
282.738
282.746
282.761
282.709
282.966
281.844
285.352
292.412
295.33
295.666
295.719
295.75
295.798
295.824
295.824
295.769
295.644
295.439
295.153
294.793
294.373
293.91
293.422
292.927
292.442
291.98
291.551
291.16
290.811
290.504
290.238
290.012
289.82
289.66
289.528
289.42
289.332
289.261
289.204
289.159
289.123
289.095
289.073
289.056
289.043
289.032
289.025
289.019
289.014
289.011
289.008
289.006
289.005
289.004
289.003
289.003
)
;

boundaryField
{
    sides1
    {
        type            zeroGradient;
    }
    sides2
    {
        type            slip;
    }
    empty
    {
        type            empty;
    }
}


// ************************************************************************* //
