/*--------------------------------*- C++ -*----------------------------------*\
| =========                 |                                                 |
| \\      /  F ield         | OpenFOAM: The Open Source CFD Toolbox           |
|  \\    /   O peration     | Version:  3.0.1                                 |
|   \\  /    A nd           | Web:      www.OpenFOAM.org                      |
|    \\/     M anipulation  |                                                 |
\*---------------------------------------------------------------------------*/
FoamFile
{
    version     2.0;
    format      ascii;
    class       volVectorField;
    location    "0.0002";
    object      U;
}
// * * * * * * * * * * * * * * * * * * * * * * * * * * * * * * * * * * * * * //

dimensions      [0 1 -1 0 0 0 0];

internalField   nonuniform List<vector> 
1000
(
(0.00454195 -1.84535e-08 0)
(0.0132512 -1.94008e-08 0)
(0.0222167 -2.15771e-08 0)
(0.0327726 -2.56081e-08 0)
(0.0456318 -3.20514e-08 0)
(0.0616341 -4.18259e-08 0)
(0.0817853 -5.61802e-08 0)
(0.107301 -7.67856e-08 0)
(0.139656 -1.05873e-07 0)
(0.180638 -1.46388e-07 0)
(0.232404 -2.02178e-07 0)
(0.297541 -2.78221e-07 0)
(0.37913 -3.8089e-07 0)
(0.480801 -5.18248e-07 0)
(0.606786 -7.0032e-07 0)
(0.76196 -9.39321e-07 0)
(0.951854 -1.24972e-06 0)
(1.18265 -1.64801e-06 0)
(1.4611 -2.15201e-06 0)
(1.79445 -2.77928e-06 0)
(2.19025 -3.54442e-06 0)
(2.65606 -4.45441e-06 0)
(3.19913 -5.50164e-06 0)
(3.82593 -6.65321e-06 0)
(4.54158 -7.836e-06 0)
(5.3492 -8.91611e-06 0)
(6.24914 -9.67185e-06 0)
(7.23822 -9.75992e-06 0)
(8.30898 -8.67582e-06 0)
(9.44891 -5.71085e-06 0)
(10.64 8.73764e-08 0)
(11.8585 9.93754e-06 0)
(13.0753 2.52856e-05 0)
(14.2566 4.78263e-05 0)
(15.3658 7.92333e-05 0)
(16.3661 0.000120797 0)
(17.224 0.000172576 0)
(17.9133 0.000233331 0)
(18.4194 0.000299055 0)
(18.7433 0.000360347 0)
(18.9019 0.0004041 0)
(18.9406 0.000394302 0)
(18.9089 0.000339779 0)
(18.8489 7.35547e-05 0)
(18.7979 -0.000463154 0)
(18.7558 -0.00161016 0)
(18.7046 -0.00209352 0)
(18.6291 -0.00604474 0)
(18.5559 -0.00354881 0)
(18.5689 0.00343621 0)
(19.5079 -0.00266109 0)
(19.9921 0.00840105 0)
(19.5563 0.00477037 0)
(19.2982 -0.00102052 0)
(19.338 0.000193583 0)
(19.3603 0.00118988 0)
(19.4115 0.000950558 0)
(19.4665 0.000559966 0)
(19.5588 0.0002701 0)
(19.6379 0.000123197 0)
(19.6759 2.93804e-05 0)
(19.6197 -2.25645e-05 0)
(19.4192 -4.62514e-05 0)
(19.0434 -5.36101e-05 0)
(18.4741 -5.10918e-05 0)
(17.7093 -4.30937e-05 0)
(16.7631 -3.30275e-05 0)
(15.6628 -2.3205e-05 0)
(14.4453 -1.45855e-05 0)
(13.1523 -7.67376e-06 0)
(11.8262 -2.52068e-06 0)
(10.5065 1.04661e-06 0)
(9.22735 3.29853e-06 0)
(8.01594 4.53241e-06 0)
(6.89216 5.0314e-06 0)
(5.86873 5.03336e-06 0)
(4.95197 4.72551e-06 0)
(4.14289 4.24706e-06 0)
(3.43837 3.69577e-06 0)
(2.83234 3.13627e-06 0)
(2.31677 2.60794e-06 0)
(1.88257 2.13225e-06 0)
(1.52026 1.71833e-06 0)
(1.22051 1.36744e-06 0)
(0.974441 1.0761e-06 0)
(0.773906 8.38333e-07 0)
(0.611567 6.4718e-07 0)
(0.480957 4.95548e-07 0)
(0.37647 3.76754e-07 0)
(0.293311 2.84767e-07 0)
(0.227426 2.14316e-07 0)
(0.175424 1.6091e-07 0)
(0.13449 1.20821e-07 0)
(0.102302 9.10296e-08 0)
(0.0769528 6.91175e-08 0)
(0.0568785 5.31878e-08 0)
(0.0407901 4.17887e-08 0)
(0.027616 3.38834e-08 0)
(0.0164502 2.88807e-08 0)
(0.00563253 2.67244e-08 0)
(0.00454195 -4.02047e-08 0)
(0.0132511 -4.32623e-08 0)
(0.0222167 -5.00743e-08 0)
(0.0327726 -6.21121e-08 0)
(0.0456318 -8.08718e-08 0)
(0.0616341 -1.08771e-07 0)
(0.0817852 -1.49183e-07 0)
(0.107301 -2.06633e-07 0)
(0.139656 -2.87135e-07 0)
(0.180638 -3.98612e-07 0)
(0.232404 -5.51423e-07 0)
(0.297541 -7.58985e-07 0)
(0.37913 -1.0385e-06 0)
(0.4808 -1.41172e-06 0)
(0.606785 -1.90572e-06 0)
(0.761959 -2.55349e-06 0)
(0.951853 -3.3941e-06 0)
(1.18264 -4.47216e-06 0)
(1.4611 -5.83589e-06 0)
(1.79445 -7.53309e-06 0)
(2.19025 -9.60388e-06 0)
(2.65606 -1.20686e-05 0)
(3.19913 -1.49091e-05 0)
(3.82593 -1.8041e-05 0)
(4.54158 -2.1274e-05 0)
(5.34919 -2.42578e-05 0)
(6.24913 -2.64108e-05 0)
(7.23822 -2.68312e-05 0)
(8.30898 -2.41925e-05 0)
(9.44893 -1.6631e-05 0)
(10.64 -1.64189e-06 0)
(11.8586 2.39808e-05 0)
(13.0754 6.40989e-05 0)
(14.2567 0.00012313 0)
(15.3659 0.000205452 0)
(16.3663 0.000314525 0)
(17.2242 0.00045097 0)
(17.9135 0.000611633 0)
(18.4197 0.000786517 0)
(18.7435 0.000956024 0)
(18.9019 0.00109144 0)
(18.9404 0.00114766 0)
(18.9081 0.00121226 0)
(18.8474 0.00108743 0)
(18.7947 0.000899034 0)
(18.7526 0.000519947 0)
(18.6973 0.000408057 0)
(18.629 0.000932428 0)
(18.5777 0.0018339 0)
(18.5806 -0.000128771 0)
(19.4991 0.0012639 0)
(20.0024 0.000815623 0)
(19.5581 0.000198119 0)
(19.2917 0.000551535 0)
(19.3377 0.000846672 0)
(19.3605 0.000908246 0)
(19.4104 0.000591519 0)
(19.4653 0.000322598 0)
(19.558 0.000116622 0)
(19.6374 -3.37393e-05 0)
(19.6755 -0.000114897 0)
(19.6195 -0.00016151 0)
(19.4191 -0.000177063 0)
(19.0434 -0.000170243 0)
(18.4741 -0.000148438 0)
(17.7094 -0.00011949 0)
(16.7631 -8.89677e-05 0)
(15.6629 -6.0941e-05 0)
(14.4454 -3.71107e-05 0)
(13.1524 -1.83704e-05 0)
(11.8263 -4.55676e-06 0)
(10.5065 4.8964e-06 0)
(9.22736 1.07381e-05 0)
(8.01594 1.3835e-05 0)
(6.89216 1.49626e-05 0)
(5.86873 1.47666e-05 0)
(4.95197 1.37537e-05 0)
(4.14288 1.22999e-05 0)
(3.43837 1.06687e-05 0)
(2.83234 9.03391e-06 0)
(2.31677 7.50105e-06 0)
(1.88256 6.12682e-06 0)
(1.52026 4.93452e-06 0)
(1.2205 3.92595e-06 0)
(0.97444 3.09005e-06 0)
(0.773905 2.40902e-06 0)
(0.611566 1.86228e-06 0)
(0.480956 1.42904e-06 0)
(0.37647 1.08974e-06 0)
(0.29331 8.26858e-07 0)
(0.227426 6.25167e-07 0)
(0.175424 4.71815e-07 0)
(0.13449 3.56197e-07 0)
(0.102301 2.69742e-07 0)
(0.0769527 2.05656e-07 0)
(0.0568785 1.58666e-07 0)
(0.0407901 1.24769e-07 0)
(0.0276159 1.01061e-07 0)
(0.0164502 8.5571e-08 0)
(0.00563252 7.71416e-08 0)
(0.00454194 -4.5136e-08 0)
(0.0132511 -5.01539e-08 0)
(0.0222166 -6.08626e-08 0)
(0.0327725 -7.88512e-08 0)
(0.0456317 -1.06393e-07 0)
(0.061634 -1.46727e-07 0)
(0.0817851 -2.04349e-07 0)
(0.107301 -2.85335e-07 0)
(0.139656 -3.9775e-07 0)
(0.180638 -5.52199e-07 0)
(0.232403 -7.62519e-07 0)
(0.29754 -1.04662e-06 0)
(0.379129 -1.42742e-06 0)
(0.480799 -1.93392e-06 0)
(0.606784 -2.60217e-06 0)
(0.761957 -3.47605e-06 0)
(0.95185 -4.60763e-06 0)
(1.18264 -6.05638e-06 0)
(1.46109 -7.88684e-06 0)
(1.79445 -1.01636e-05 0)
(2.19024 -1.29421e-05 0)
(2.65605 -1.62535e-05 0)
(3.19912 -2.00811e-05 0)
(3.82592 -2.43247e-05 0)
(4.54157 -2.87519e-05 0)
(5.34919 -3.29286e-05 0)
(6.24913 -3.61307e-05 0)
(7.23823 -3.72312e-05 0)
(8.309 -3.45701e-05 0)
(9.44896 -2.58128e-05 0)
(10.6401 -7.82386e-06 0)
(11.8586 2.34053e-05 0)
(13.0755 7.27324e-05 0)
(14.2568 0.000145668 0)
(15.3662 0.000247617 0)
(16.3666 0.000382778 0)
(17.2246 0.000552179 0)
(17.9139 0.00075181 0)
(18.4201 0.000968333 0)
(18.7438 0.00117746 0)
(18.9022 0.00133878 0)
(18.9405 0.00140563 0)
(18.9083 0.00146405 0)
(18.8479 0.00127936 0)
(18.7966 0.000868142 0)
(18.7555 0.000173673 0)
(18.7057 -0.000378004 0)
(18.6319 -0.000463461 0)
(18.5587 0.000810573 0)
(18.5694 -7.03774e-05 0)
(19.5071 0.00170941 0)
(19.9932 0.0022165 0)
(19.5569 0.00220243 0)
(19.2992 0.00111836 0)
(19.3392 0.00119174 0)
(19.3611 0.00121222 0)
(19.4113 0.000881196 0)
(19.466 0.000527439 0)
(19.5584 0.0001788 0)
(19.6376 -4.36194e-05 0)
(19.6756 -0.000142722 0)
(19.6196 -0.000201074 0)
(19.4192 -0.000222818 0)
(19.0435 -0.000213518 0)
(18.4742 -0.000184469 0)
(17.7094 -0.000146572 0)
(16.7632 -0.000107231 0)
(15.6629 -7.04843e-05 0)
(14.4454 -3.96677e-05 0)
(13.1524 -1.56335e-05 0)
(11.8263 1.87455e-06 0)
(10.5066 1.35485e-05 0)
(9.22737 2.04433e-05 0)
(8.01595 2.37502e-05 0)
(6.89217 2.45013e-05 0)
(5.86873 2.35579e-05 0)
(4.95196 2.1596e-05 0)
(4.14288 1.91161e-05 0)
(3.43837 1.64678e-05 0)
(2.83234 1.38794e-05 0)
(2.31676 1.14876e-05 0)
(1.88256 9.36284e-06 0)
(1.52025 7.53058e-06 0)
(1.2205 5.98721e-06 0)
(0.974438 4.71204e-06 0)
(0.773904 3.67551e-06 0)
(0.611565 2.84474e-06 0)
(0.480955 2.18706e-06 0)
(0.376469 1.67209e-06 0)
(0.29331 1.27277e-06 0)
(0.227425 9.65822e-07 0)
(0.175423 7.3172e-07 0)
(0.134489 5.54458e-07 0)
(0.102301 4.21171e-07 0)
(0.0769526 3.21731e-07 0)
(0.0568784 2.48325e-07 0)
(0.04079 1.9509e-07 0)
(0.0276159 1.57732e-07 0)
(0.0164502 1.33175e-07 0)
(0.00563251 1.18896e-07 0)
(0.00454194 -4.17914e-08 0)
(0.0132511 -4.73164e-08 0)
(0.0222166 -5.93684e-08 0)
(0.0327725 -7.90696e-08 0)
(0.0456316 -1.08968e-07 0)
(0.0616339 -1.52428e-07 0)
(0.0817849 -2.13898e-07 0)
(0.107301 -2.99391e-07 0)
(0.139656 -4.16886e-07 0)
(0.180637 -5.76822e-07 0)
(0.232403 -7.92693e-07 0)
(0.29754 -1.08193e-06 0)
(0.379128 -1.46678e-06 0)
(0.480798 -1.97522e-06 0)
(0.606782 -2.64203e-06 0)
(0.761955 -3.50949e-06 0)
(0.951848 -4.62783e-06 0)
(1.18264 -6.05447e-06 0)
(1.46109 -7.85181e-06 0)
(1.79444 -1.00836e-05 0)
(2.19024 -1.28073e-05 0)
(2.65604 -1.60606e-05 0)
(3.19911 -1.98414e-05 0)
(3.82591 -2.40775e-05 0)
(4.54156 -2.85849e-05 0)
(5.34918 -3.30093e-05 0)
(6.24913 -3.67508e-05 0)
(7.23823 -3.88693e-05 0)
(8.30901 -3.79739e-05 0)
(9.44898 -3.21037e-05 0)
(10.6401 -1.86201e-05 0)
(11.8587 5.83531e-06 0)
(13.0756 4.53407e-05 0)
(14.257 0.000104467 0)
(15.3664 0.000187747 0)
(16.3669 0.000298767 0)
(17.2249 0.000438843 0)
(17.9143 0.000602234 0)
(18.4204 0.000778105 0)
(18.7441 0.000943717 0)
(18.9023 0.00105905 0)
(18.9401 0.00106323 0)
(18.9072 0.000992181 0)
(18.8456 0.000562633 0)
(18.7924 -0.000302807 0)
(18.7507 -0.00193115 0)
(18.696 -0.00302734 0)
(18.6309 -0.00715782 0)
(18.5832 -0.00361801 0)
(18.5847 0.00392202 0)
(19.5004 0.0010586 0)
(20.0045 0.010018 0)
(19.5585 0.00620672 0)
(19.2913 -0.00104416 0)
(19.338 0.000419162 0)
(19.3606 0.00175254 0)
(19.4098 0.00149646 0)
(19.4644 0.000926174 0)
(19.5573 0.000392934 0)
(19.6369 0.000102241 0)
(19.6752 -4.57829e-05 0)
(19.6194 -0.000130924 0)
(19.4191 -0.000167382 0)
(19.0435 -0.0001673 0)
(18.4743 -0.000145282 0)
(17.7095 -0.000112599 0)
(16.7633 -7.75354e-05 0)
(15.663 -4.48629e-05 0)
(14.4455 -1.75341e-05 0)
(13.1525 3.4922e-06 0)
(11.8263 1.82831e-05 0)
(10.5066 2.75172e-05 0)
(9.22738 3.2335e-05 0)
(8.01595 3.38325e-05 0)
(6.89216 3.30021e-05 0)
(5.86872 3.06794e-05 0)
(4.95196 2.75201e-05 0)
(4.14287 2.40074e-05 0)
(3.43836 2.04753e-05 0)
(2.83233 1.71374e-05 0)
(2.31676 1.4116e-05 0)
(1.88256 1.14676e-05 0)
(1.52025 9.20424e-06 0)
(1.2205 7.30938e-06 0)
(0.974435 5.7503e-06 0)
(0.773902 4.48645e-06 0)
(0.611563 3.47515e-06 0)
(0.480954 2.67513e-06 0)
(0.376468 2.04861e-06 0)
(0.293309 1.56234e-06 0)
(0.227425 1.18791e-06 0)
(0.175423 9.01613e-07 0)
(0.134489 6.84134e-07 0)
(0.102301 5.20002e-07 0)
(0.0769524 3.97071e-07 0)
(0.0568782 3.05981e-07 0)
(0.0407899 2.39706e-07 0)
(0.0276158 1.93121e-07 0)
(0.0164502 1.62688e-07 0)
(0.00563249 1.46051e-07 0)
(0.00454193 -3.05117e-08 0)
(0.0132511 -3.55108e-08 0)
(0.0222166 -4.63714e-08 0)
(0.0327724 -6.41863e-08 0)
(0.0456316 -9.07938e-08 0)
(0.0616338 -1.28772e-07 0)
(0.0817848 -1.81676e-07 0)
(0.1073 -2.54246e-07 0)
(0.139655 -3.52456e-07 0)
(0.180637 -4.8394e-07 0)
(0.232402 -6.58605e-07 0)
(0.297539 -8.8911e-07 0)
(0.379127 -1.19143e-06 0)
(0.480797 -1.58554e-06 5.32269e-31)
(0.606781 -2.09602e-06 0)
(0.761953 -2.75279e-06 0)
(0.951845 -3.59232e-06 0)
(1.18263 -4.65606e-06 0)
(1.46108 -5.98673e-06 0)
(1.79444 -7.63101e-06 0)
(2.19023 -9.63721e-06 0)
(2.65604 -1.20474e-05 0)
(3.19911 -1.48844e-05 0)
(3.8259 -1.81395e-05 0)
(4.54155 -2.17522e-05 0)
(5.34917 -2.55829e-05 0)
(6.24912 -2.9378e-05 0)
(7.23822 -3.27255e-05 0)
(8.30901 -3.5004e-05 0)
(9.44899 -3.53273e-05 0)
(10.6402 -3.24908e-05 0)
(11.8588 -2.49764e-05 5.2139e-31)
(13.0757 -1.08719e-05 0)
(14.2571 1.17969e-05 0)
(15.3665 4.50944e-05 0)
(16.3671 9.08275e-05 0)
(17.2252 0.000149932 -5.22988e-31)
(17.9145 0.000219831 0)
(18.4207 0.000296478 0)
(18.7443 0.000370688 5.31896e-31)
(18.9023 0.000428273 0)
(18.94 0.000446092 0)
(18.9068 0.000455277 0)
(18.8451 0.000378707 -4.54762e-31)
(18.7918 0.000324357 0)
(18.7506 0.000181717 0)
(18.6964 0.000150099 0)
(18.6334 0.000485597 0)
(18.5876 0.00144511 0)
(18.5868 0.00108685 0)
(19.4976 0.00283098 0)
(20.0027 0.000407315 0)
(19.5583 -0.000144938 0)
(19.2926 -0.0005444 0)
(19.3392 -0.000339152 0)
(19.3614 -6.23457e-05 -2.66554e-31)
(19.41 -4.54622e-06 2.70042e-31)
(19.4643 -2.30766e-05 0)
(19.5571 -6.19957e-05 0)
(19.6367 -0.000106441 -2.42218e-31)
(19.6751 -0.000118329 0)
(19.6193 -0.000119002 0)
(19.4191 -0.000108193 0)
(19.0435 -8.91949e-05 0)
(18.4743 -6.51304e-05 0)
(17.7096 -3.91801e-05 0)
(16.7633 -1.46892e-05 0)
(15.663 5.84734e-06 0)
(14.4455 2.21543e-05 0)
(13.1525 3.37233e-05 0)
(11.8263 4.07625e-05 0)
(10.5066 4.40227e-05 2.72037e-31)
(9.22738 4.43745e-05 0)
(8.01595 4.25721e-05 0)
(6.89216 3.9341e-05 0)
(5.86872 3.52908e-05 0)
(4.95195 3.08958e-05 0)
(4.14287 2.65001e-05 0)
(3.43835 2.23349e-05 0)
(2.83232 1.85398e-05 0)
(2.31675 1.51847e-05 0)
(1.88255 1.22898e-05 0)
(1.52025 9.84194e-06 0)
(1.22049 7.8072e-06 0)
(0.974432 6.14086e-06 0)
(0.773899 4.79392e-06 0)
(0.611561 3.71768e-06 0)
(0.480952 2.86652e-06 0)
(0.376467 2.1995e-06 0)
(0.293308 1.68098e-06 0)
(0.227424 1.28076e-06 0)
(0.175422 9.73833e-07 -2.6662e-31)
(0.134489 7.39827e-07 0)
(0.102301 5.62533e-07 -2.66567e-31)
(0.0769521 4.29221e-07 0)
(0.0568781 3.3009e-07 0)
(0.0407898 2.57731e-07 0)
(0.0276157 2.06714e-07 0)
(0.0164501 1.73265e-07 0)
(0.00563248 1.55468e-07 0)
(0.00454193 -1.50666e-08 0)
(0.0132511 -1.87965e-08 0)
(0.0222166 -2.66544e-08 0)
(0.0327724 -3.98395e-08 0)
(0.0456315 -5.92627e-08 0)
(0.0616337 -8.63869e-08 0)
(0.0817847 -1.23183e-07 0)
(0.1073 -1.71936e-07 0)
(0.139655 -2.35591e-07 0)
(0.180637 -3.1785e-07 0)
(0.232402 -4.23292e-07 0)
(0.297539 -5.57386e-07 0)
(0.379127 -7.26819e-07 0)
(0.480796 -9.3974e-07 -5.32269e-31)
(0.60678 -1.20594e-06 0)
(0.761952 -1.53721e-06 0)
(0.951844 -1.94669e-06 0)
(1.18263 -2.45096e-06 0)
(1.46108 -3.07405e-06 0)
(1.79443 -3.84263e-06 0)
(2.19023 -4.78607e-06 0)
(2.65603 -5.94045e-06 0)
(3.1991 -7.35575e-06 0)
(3.8259 -9.09971e-06 0)
(4.54155 -1.12656e-05 0)
(5.34917 -1.39841e-05 0)
(6.24911 -1.74399e-05 0)
(7.23822 -2.18921e-05 0)
(8.309 -2.76999e-05 0)
(9.44899 -3.53492e-05 0)
(10.6401 -4.54702e-05 0)
(11.8588 -5.88506e-05 -5.2139e-31)
(13.0757 -7.64315e-05 0)
(14.2571 -9.9331e-05 0)
(15.3665 -0.000128416 0)
(16.3671 -0.000164713 0)
(17.2252 -0.000207804 5.22988e-31)
(17.9146 -0.000254544 0)
(18.4207 -0.000300986 0)
(18.7444 -0.000339802 -5.31896e-31)
(18.9024 -0.000355912 0)
(18.9401 -0.000329662 0)
(18.9069 -0.000300236 0)
(18.8453 -0.000190785 4.54726e-31)
(18.792 -6.12255e-05 0)
(18.7508 0.000134232 0)
(18.6966 0.000313483 0)
(18.6334 -0.00011916 0)
(18.5873 -0.00160203 0)
(18.5867 -0.00140586 0)
(19.4975 -0.00337781 0)
(20.0028 -0.000683794 0)
(19.5582 -9.60176e-05 0)
(19.2921 0.000833063 0)
(19.339 0.000541655 0)
(19.3613 8.09049e-05 2.66573e-31)
(19.4101 -6.81565e-05 -2.70056e-31)
(19.4646 -6.08385e-05 0)
(19.5573 -3.1743e-05 0)
(19.6369 -5.15902e-06 2.42221e-31)
(19.6752 -4.87858e-06 0)
(19.6194 5.03495e-06 0)
(19.4192 2.00295e-05 0)
(19.0436 3.43675e-05 0)
(18.4744 4.60719e-05 0)
(17.7096 5.49757e-05 0)
(16.7634 6.11241e-05 0)
(15.6631 6.46197e-05 0)
(14.4455 6.58117e-05 0)
(13.1525 6.49136e-05 0)
(11.8263 6.22159e-05 0)
(10.5066 5.82288e-05 -2.72037e-31)
(9.22738 5.33376e-05 0)
(8.01594 4.78962e-05 0)
(6.89215 4.22391e-05 0)
(5.86871 3.66418e-05 0)
(4.95194 3.13124e-05 0)
(4.14286 2.63933e-05 0)
(3.43835 2.1969e-05 0)
(2.83232 1.80763e-05 0)
(2.31675 1.47164e-05 0)
(1.88255 1.18646e-05 0)
(1.52024 9.48002e-06 0)
(1.22049 7.5128e-06 0)
(0.97443 5.90948e-06 0)
(0.773897 4.61706e-06 0)
(0.611559 3.58559e-06 0)
(0.480951 2.76976e-06 0)
(0.376465 2.12971e-06 0)
(0.293307 1.63115e-06 0)
(0.227423 1.24529e-06 0)
(0.175422 9.48338e-07 2.6662e-31)
(0.134488 7.21096e-07 0)
(0.1023 5.48215e-07 2.66567e-31)
(0.0769519 4.17684e-07 0)
(0.0568779 3.20258e-07 0)
(0.0407896 2.48969e-07 0)
(0.0276157 1.987e-07 0)
(0.0164501 1.65803e-07 0)
(0.00563246 1.47908e-07 0)
(0.00454192 -6.16477e-10 0)
(0.0132511 -2.56947e-09 0)
(0.0222165 -7.39134e-09 0)
(0.0327724 -1.52401e-08 0)
(0.0456315 -2.65162e-08 0)
(0.0616336 -4.16542e-08 0)
(0.0817846 -6.09376e-08 0)
(0.1073 -8.44489e-08 0)
(0.139655 -1.12266e-07 0)
(0.180637 -1.44315e-07 0)
(0.232402 -1.80054e-07 0)
(0.297538 -2.18351e-07 0)
(0.379126 -2.57371e-07 0)
(0.480796 -2.94383e-07 0)
(0.60678 -3.25722e-07 0)
(0.761951 -3.4666e-07 0)
(0.951843 -3.50829e-07 0)
(1.18263 -3.32786e-07 0)
(1.46108 -2.92885e-07 0)
(1.79443 -2.35302e-07 0)
(2.19023 -1.72134e-07 0)
(2.65603 -1.34703e-07 0)
(3.1991 -1.91857e-07 0)
(3.8259 -4.70306e-07 0)
(4.54154 -1.18654e-06 0)
(5.34916 -2.69108e-06 0)
(6.2491 -5.5276e-06 0)
(7.2382 -1.05081e-05 0)
(8.30898 -1.88018e-05 0)
(9.44896 -3.20315e-05 0)
(10.6401 -5.23556e-05 0)
(11.8587 -8.24706e-05 0)
(13.0756 -0.000125737 0)
(14.257 -0.000185864 0)
(15.3664 -0.000266346 0)
(16.3669 -0.000369376 0)
(17.225 -0.000495599 0)
(17.9144 -0.000639309 0)
(18.4205 -0.000789633 0)
(18.7442 -0.000925047 0)
(18.9024 -0.00100671 0)
(18.9403 -0.00098057 0)
(18.9073 -0.000891015 0)
(18.8457 -0.00045795 0)
(18.7924 0.000391608 0)
(18.7506 0.00197058 0)
(18.6963 0.00303821 0)
(18.6299 0.00710589 0)
(18.582 0.00346368 0)
(18.5848 -0.00419393 0)
(19.5011 -0.00142597 0)
(20.0042 -0.0100918 0)
(19.5582 -0.00657445 0)
(19.2918 0.00116663 0)
(19.3381 -8.209e-05 0)
(19.3604 -0.00142292 0)
(19.4095 -0.00130448 0)
(19.4641 -0.000864813 0)
(19.557 -0.000425305 0)
(19.6367 -0.000171498 0)
(19.6751 -4.824e-05 0)
(19.6194 3.36843e-05 0)
(19.4192 8.54827e-05 0)
(19.0436 0.00011246 0)
(18.4744 0.000122327 0)
(17.7096 0.000121519 0)
(16.7634 0.000114934 0)
(15.6631 0.000105529 0)
(14.4455 9.4913e-05 0)
(13.1525 8.42071e-05 0)
(11.8263 7.39629e-05 0)
(10.5066 6.44149e-05 0)
(9.22736 5.56386e-05 0)
(8.01593 4.76832e-05 0)
(6.89214 4.05386e-05 0)
(5.8687 3.41844e-05 0)
(4.95193 2.85889e-05 0)
(4.14285 2.3711e-05 0)
(3.43834 1.95026e-05 0)
(2.83231 1.59103e-05 0)
(2.31674 1.28765e-05 0)
(1.88254 1.03412e-05 0)
(1.52024 8.24424e-06 0)
(1.22049 6.52701e-06 0)
(0.974427 5.13403e-06 0)
(0.773895 4.01418e-06 0)
(0.611558 3.12143e-06 0)
(0.48095 2.41523e-06 0)
(0.376464 1.86053e-06 0)
(0.293306 1.4276e-06 0)
(0.227423 1.09159e-06 0)
(0.175421 8.32205e-07 0)
(0.134488 6.32993e-07 0)
(0.1023 4.80854e-07 0)
(0.0769517 3.65545e-07 0)
(0.0568777 2.79161e-07 0)
(0.0407895 2.15759e-07 0)
(0.0276156 1.71013e-07 0)
(0.01645 1.41887e-07 0)
(0.00563244 1.2591e-07 0)
(0.00454192 8.37391e-09 0)
(0.0132511 8.36434e-09 0)
(0.0222165 5.98053e-09 0)
(0.0327724 2.19167e-09 0)
(0.0456315 -2.77646e-09 0)
(0.0616336 -8.49726e-09 0)
(0.0817846 -1.42627e-08 0)
(0.1073 -1.90737e-08 0)
(0.139655 -2.12626e-08 0)
(0.180637 -1.83346e-08 0)
(0.232402 -6.76308e-09 0)
(0.297538 1.82944e-08 0)
(0.379126 6.34517e-08 0)
(0.480796 1.37438e-07 0)
(0.60678 2.51419e-07 0)
(0.761952 4.19179e-07 0)
(0.951844 6.55918e-07 0)
(1.18263 9.78784e-07 0)
(1.46108 1.40771e-06 0)
(1.79443 1.9561e-06 0)
(2.19023 2.62189e-06 0)
(2.65603 3.37666e-06 0)
(3.1991 4.14913e-06 0)
(3.8259 4.79419e-06 0)
(4.54154 5.05058e-06 0)
(5.34916 4.48269e-06 0)
(6.2491 2.40346e-06 0)
(7.23819 -2.2232e-06 0)
(8.30896 -1.08979e-05 0)
(9.44892 -2.57115e-05 0)
(10.64 -4.94668e-05 0)
(11.8586 -8.57132e-05 0)
(13.0755 -0.000138726 0)
(14.2568 -0.000213337 0)
(15.3662 -0.000314383 0)
(16.3667 -0.000444796 0)
(17.2247 -0.000605721 0)
(17.914 -0.000791831 0)
(18.4202 -0.000990945 0)
(18.744 -0.00117965 0)
(18.9023 -0.00132 0)
(18.9406 -0.00136207 0)
(18.9084 -0.00140918 0)
(18.8481 -0.00121354 0)
(18.7966 -0.000831472 0)
(18.7555 -0.000227174 0)
(18.7056 0.00015788 0)
(18.6315 0.000290164 0)
(18.5582 -0.000585119 0)
(18.569 0.000345255 0)
(19.5071 -0.00137713 0)
(19.9931 -0.001984 0)
(19.557 -0.00170996 0)
(19.2992 -0.00125714 0)
(19.3391 -0.00140806 0)
(19.3609 -0.0013888 0)
(19.4112 -0.0010361 0)
(19.4659 -0.000693228 0)
(19.5584 -0.000347502 0)
(19.6376 -0.000114762 0)
(19.6757 6.45882e-06 0)
(19.6197 8.99261e-05 0)
(19.4193 0.000137986 0)
(19.0436 0.00015793 0)
(18.4744 0.000159117 0)
(17.7096 0.000149188 0)
(16.7633 0.000133777 0)
(15.663 0.000116578 0)
(14.4455 9.96367e-05 0)
(13.1525 8.41061e-05 0)
(11.8263 7.05021e-05 0)
(10.5066 5.88735e-05 0)
(9.22734 4.90323e-05 0)
(8.01591 4.07196e-05 0)
(6.89212 3.37179e-05 0)
(5.86868 2.78307e-05 0)
(4.95192 2.28825e-05 0)
(4.14284 1.87293e-05 0)
(3.43833 1.52524e-05 0)
(2.8323 1.23529e-05 0)
(2.31673 9.9467e-06 0)
(1.88254 7.96173e-06 0)
(1.52023 6.33505e-06 0)
(1.22049 5.01134e-06 0)
(0.974425 3.94193e-06 0)
(0.773893 3.08418e-06 0)
(0.611556 2.401e-06 0)
(0.480949 1.86044e-06 0)
(0.376463 1.43533e-06 0)
(0.293306 1.10287e-06 0)
(0.227422 8.44196e-07 0)
(0.175421 6.43915e-07 0)
(0.134487 4.89547e-07 0)
(0.1023 3.71236e-07 0)
(0.0769515 2.81336e-07 0)
(0.0568776 2.13746e-07 0)
(0.0407894 1.64039e-07 0)
(0.0276155 1.28909e-07 0)
(0.01645 1.05979e-07 0)
(0.00563243 9.3697e-08 0)
(0.00454192 9.75988e-09 0)
(0.0132511 1.02711e-08 0)
(0.0222165 9.58878e-09 0)
(0.0327724 8.15416e-09 0)
(0.0456315 6.4565e-09 0)
(0.0616336 5.17965e-09 0)
(0.0817846 5.28318e-09 0)
(0.1073 8.1114e-09 0)
(0.139655 1.55987e-08 0)
(0.180637 3.04813e-08 0)
(0.232402 5.64956e-08 0)
(0.297539 9.86482e-08 0)
(0.379127 1.63553e-07 0)
(0.480796 2.59834e-07 0)
(0.60678 3.98465e-07 0)
(0.761952 5.92973e-07 0)
(0.951845 8.59295e-07 0)
(1.18263 1.21521e-06 0)
(1.46108 1.67873e-06 0)
(1.79444 2.26397e-06 0)
(2.19023 2.97462e-06 0)
(2.65603 3.79369e-06 0)
(3.1991 4.6676e-06 0)
(3.8259 5.48176e-06 0)
(4.54154 6.02566e-06 0)
(5.34915 5.9447e-06 0)
(6.24909 4.67636e-06 0)
(7.23818 1.36988e-06 0)
(8.30894 -5.20884e-06 0)
(9.44888 -1.67809e-05 0)
(10.64 -3.56564e-05 0)
(11.8585 -6.47982e-05 0)
(13.0753 -0.000107679 0)
(14.2567 -0.000168244 0)
(15.366 -0.00025047 0)
(16.3664 -0.000357533 0)
(17.2243 -0.000489627 0)
(17.9136 -0.000644104 0)
(18.4198 -0.000810398 0)
(18.7437 -0.000969997 0)
(18.9021 -0.00109574 0)
(18.9406 -0.00113983 0)
(18.9082 -0.00120742 0)
(18.8474 -0.00111032 0)
(18.7946 -0.000955354 0)
(18.7524 -0.000644786 0)
(18.697 -0.000651367 0)
(18.6287 -0.00127989 0)
(18.5776 -0.00218368 0)
(18.5806 -0.000160057 0)
(19.4991 -0.00171459 0)
(20.0025 -0.000794747 0)
(19.5585 -0.000591628 0)
(19.2922 -3.03843e-05 0)
(19.3378 -0.000301161 0)
(19.3604 -0.000582129 0)
(19.4102 -0.000474082 0)
(19.4651 -0.000284024 0)
(19.5579 -0.000125559 0)
(19.6374 -1.64617e-06 0)
(19.6756 6.28067e-05 0)
(19.6196 0.000109712 0)
(19.4193 0.000134452 0)
(19.0436 0.000141527 0)
(18.4744 0.000136338 0)
(17.7096 0.000123849 0)
(16.7633 0.000108041 0)
(15.663 9.15757e-05 0)
(14.4455 7.61701e-05 0)
(13.1524 6.25793e-05 0)
(11.8263 5.10409e-05 0)
(10.5065 4.15078e-05 0)
(9.22733 3.37399e-05 0)
(8.0159 2.74351e-05 0)
(6.89211 2.23222e-05 0)
(5.86867 1.81582e-05 0)
(4.95191 1.4755e-05 0)
(4.14283 1.19656e-05 0)
(3.43832 9.67552e-06 0)
(2.8323 7.79524e-06 0)
(2.31673 6.2537e-06 0)
(1.88253 4.9936e-06 0)
(1.52023 3.9678e-06 0)
(1.22048 3.13689e-06 0)
(0.974423 2.46762e-06 0)
(0.773892 1.93174e-06 0)
(0.611555 1.50517e-06 0)
(0.480948 1.16754e-06 0)
(0.376463 9.01711e-07 0)
(0.293305 6.93399e-07 0)
(0.227422 5.30878e-07 0)
(0.175421 4.04539e-07 0)
(0.134487 3.06784e-07 0)
(0.1023 2.3158e-07 0)
(0.0769514 1.74133e-07 0)
(0.0568775 1.30969e-07 0)
(0.0407894 9.92093e-08 0)
(0.0276155 7.67114e-08 0)
(0.0164499 6.19675e-08 0)
(0.00563242 5.4425e-08 0)
(0.00454192 3.73113e-09 0)
(0.0132511 3.64752e-09 0)
(0.0222165 3.50294e-09 0)
(0.0327724 3.09796e-09 0)
(0.0456315 2.58123e-09 0)
(0.0616336 2.28465e-09 0)
(0.0817846 2.66475e-09 0)
(0.1073 4.32825e-09 0)
(0.139655 8.12797e-09 0)
(0.180637 1.52587e-08 0)
(0.232402 2.73097e-08 0)
(0.297539 4.63585e-08 0)
(0.379127 7.50881e-08 0)
(0.480796 1.16985e-07 0)
(0.60678 1.76504e-07 0)
(0.761953 2.59166e-07 0)
(0.951845 3.71502e-07 0)
(1.18263 5.20775e-07 0)
(1.46108 7.14308e-07 0)
(1.79444 9.58047e-07 0)
(2.19023 1.25408e-06 0)
(2.65604 1.59664e-06 0)
(3.1991 1.96579e-06 0)
(3.8259 2.31806e-06 0)
(4.54154 2.57299e-06 0)
(5.34915 2.59451e-06 0)
(6.24909 2.16633e-06 0)
(7.23817 9.61057e-07 0)
(8.30892 -1.49629e-06 0)
(9.44886 -5.86793e-06 0)
(10.64 -1.30403e-05 0)
(11.8585 -2.41546e-05 0)
(13.0753 -4.05516e-05 0)
(14.2566 -6.37461e-05 0)
(15.3658 -9.52702e-05 0)
(16.3662 -0.000136287 0)
(17.2241 -0.000186827 0)
(17.9134 -0.000245931 0)
(18.4196 -0.000308852 0)
(18.7435 -0.000366827 0)
(18.9021 -0.000405857 0)
(18.9408 -0.000393649 0)
(18.909 -0.000334175 0)
(18.849 -8.59665e-05 0)
(18.7979 0.000450472 0)
(18.7556 0.00160157 0)
(18.7041 0.00206823 0)
(18.6287 0.00597002 0)
(18.556 0.00344177 0)
(18.5682 -0.00360021 0)
(19.5087 0.00222881 0)
(19.9914 -0.00832978 0)
(19.5559 -0.00508626 0)
(19.2985 0.00141986 0)
(19.3379 0.000197391 0)
(19.3601 -0.00100841 0)
(19.4112 -0.000935076 0)
(19.4663 -0.000580264 0)
(19.5587 -0.000294587 0)
(19.6379 -0.000148732 0)
(19.676 -5.81082e-05 0)
(19.6198 -1.7852e-06 0)
(19.4194 2.91001e-05 0)
(19.0436 4.29093e-05 0)
(18.4744 4.65045e-05 0)
(17.7096 4.4448e-05 0)
(16.7633 3.96303e-05 0)
(15.663 3.38689e-05 0)
(14.4454 2.81806e-05 0)
(13.1524 2.30609e-05 0)
(11.8263 1.86759e-05 0)
(10.5065 1.50246e-05 0)
(9.22732 1.20519e-05 0)
(8.01589 9.6897e-06 0)
(6.89211 7.81281e-06 0)
(5.86867 6.30616e-06 0)
(4.95191 5.09251e-06 0)
(4.14283 4.10995e-06 0)
(3.43832 3.31119e-06 0)
(2.8323 2.66051e-06 0)
(2.31673 2.13032e-06 0)
(1.88253 1.69899e-06 0)
(1.52023 1.34905e-06 0)
(1.22048 1.06628e-06 0)
(0.974422 8.38883e-07 0)
(0.773891 6.56961e-07 0)
(0.611555 5.12179e-07 0)
(0.480947 3.97541e-07 0)
(0.376463 3.07195e-07 0)
(0.293305 2.36284e-07 0)
(0.227422 1.80809e-07 0)
(0.175421 1.37526e-07 0)
(0.134487 1.03911e-07 0)
(0.1023 7.79744e-08 0)
(0.0769513 5.79998e-08 0)
(0.0568774 4.30815e-08 0)
(0.0407893 3.20953e-08 0)
(0.0276154 2.42619e-08 0)
(0.0164499 1.91344e-08 0)
(0.00563241 1.66275e-08 0)
)
;

boundaryField
{
    sides1
    {
        type            zeroGradient;
    }
    sides2
    {
        type            slip;
    }
    empty
    {
        type            empty;
    }
}


// ************************************************************************* //
