/*--------------------------------*- C++ -*----------------------------------*\
| =========                 |                                                 |
| \\      /  F ield         | OpenFOAM: The Open Source CFD Toolbox           |
|  \\    /   O peration     | Version:  3.0.1                                 |
|   \\  /    A nd           | Web:      www.OpenFOAM.org                      |
|    \\/     M anipulation  |                                                 |
\*---------------------------------------------------------------------------*/
FoamFile
{
    version     2.0;
    format      ascii;
    class       volScalarField;
    location    "0.03";
    object      p;
}
// * * * * * * * * * * * * * * * * * * * * * * * * * * * * * * * * * * * * * //

dimensions      [1 -1 -2 0 0 0 0];

internalField   nonuniform List<scalar> 
50
(
301176
299376
298528
297989
297248
296454
295602
294654
293605
292441
291139
289676
288022
286139
283978
281475
278549
275084
270923
265837
259468
251226
239998
223388
195675
139391
101972
82671.5
70419.1
61604.1
54573.4
48957.9
44266.2
40361.9
36926.5
34262.4
30423.1
30450.8
84801.7
149168
161026
163695
165902
167869
169376
170360
171115
171459
172364
171856
)
;

boundaryField
{
    inlet
    {
        type            fixedValue;
        value           uniform 300000;
    }
    outlet
    {
        type            fixedValue;
        value           uniform 175000;
    }
    upperWall
    {
        type            zeroGradient;
    }
    lowerWall
    {
        type            zeroGradient;
    }
    frontAndBack
    {
        type            empty;
    }
}


// ************************************************************************* //
