/*--------------------------------*- C++ -*----------------------------------*\
| =========                 |                                                 |
| \\      /  F ield         | OpenFOAM: The Open Source CFD Toolbox           |
|  \\    /   O peration     | Version:  3.0.1                                 |
|   \\  /    A nd           | Web:      www.OpenFOAM.org                      |
|    \\/     M anipulation  |                                                 |
\*---------------------------------------------------------------------------*/
FoamFile
{
    version     2.0;
    format      ascii;
    class       volVectorField;
    location    "0.03";
    object      U;
}
// * * * * * * * * * * * * * * * * * * * * * * * * * * * * * * * * * * * * * //

dimensions      [0 1 -1 0 0 0 0];

internalField   nonuniform List<vector> 
50
(
(89.8286 -0.0065227 0)
(93.4484 -0.00594588 0)
(96.354 -0.0104362 0)
(99.1725 -0.00164408 -9.9129e-15)
(102.392 -0.00457695 -1.01666e-14)
(105.791 -0.00185875 -1.05026e-14)
(109.407 0.00110756 0)
(113.3 -0.00208306 0)
(117.488 -0.00159999 -1.15482e-14)
(122.009 0.000602718 -1.1945e-14)
(126.909 -0.000705809 0)
(132.24 -0.00226359 -1.28237e-14)
(138.065 -0.000610108 0)
(144.464 0.00114092 0)
(151.533 -2.4473e-05 -1.44026e-14)
(159.394 -0.00219353 0)
(168.205 -0.0010461 -1.56756e-14)
(178.172 0.00108812 0)
(189.577 0.00164102 0)
(202.821 0.00131533 0)
(218.509 0.00450633 0)
(237.63 -0.0312966 0)
(262.022 -0.00268466 0)
(295.756 0.412613 0)
(350.326 -0.858218 0)
(450.89 -2.94501 0)
(522.771 8.05028 0)
(561.525 1.44277 0)
(588.516 -4.17133 0)
(608.748 -1.98435 0)
(626.433 -3.48306 0)
(640.988 -1.00003 0)
(654.065 1.89545 0)
(665.28 1.40281 9.29387e-15)
(676.092 3.19813 0)
(684.194 1.64477 7.89031e-15)
(697.31 -0.28839 0)
(696.909 -1.07425 0)
(457.185 5.21415 9.52099e-15)
(237.652 -19.9165 0)
(217.186 5.95595 1.21883e-14)
(205.953 11.0307 1.14304e-14)
(196.259 7.32389 0)
(188.824 -1.21749 0)
(180.039 -6.54123 1.02054e-14)
(172.021 -5.38226 0)
(166.503 -0.313122 9.57459e-15)
(160.874 3.05412 0)
(156.5 1.2837 0)
(148.439 0.448991 0)
)
;

boundaryField
{
    inlet
    {
        type            zeroGradient;
    }
    outlet
    {
        type            zeroGradient;
    }
    upperWall
    {
        type            slip;
    }
    lowerWall
    {
        type            slip;
    }
    frontAndBack
    {
        type            empty;
    }
}


// ************************************************************************* //
