/*--------------------------------*- C++ -*----------------------------------*\
| =========                 |                                                 |
| \\      /  F ield         | OpenFOAM: The Open Source CFD Toolbox           |
|  \\    /   O peration     | Version:  2012                                  |
|   \\  /    A nd           | Website:  www.openfoam.com                      |
|    \\/     M anipulation  |                                                 |
\*---------------------------------------------------------------------------*/
FoamFile
{
    version     2.0;
    format      ascii;
    class       volScalarField;
    location    "0.17";
    object      maxKappa;
}
// * * * * * * * * * * * * * * * * * * * * * * * * * * * * * * * * * * * * * //

dimensions      [0 0 0 0 0 0 0];


internalField   nonuniform List<scalar> 
2268
(
3.39722e-06
6.61914e-06
9.94686e-06
1.3338e-05
1.67944e-05
2.03702e-05
2.40221e-05
2.77682e-05
3.16377e-05
3.55662e-05
3.95035e-05
4.33883e-05
4.71305e-05
5.07777e-05
5.36629e-05
5.55158e-05
5.5989e-05
5.5989e-05
5.44666e-05
5.06925e-05
4.40374e-05
3.35953e-05
2.13816e-05
4.14494e-06
6.99308e-06
1.01937e-05
1.35205e-05
1.69406e-05
2.04929e-05
2.41293e-05
2.78668e-05
3.173e-05
3.56598e-05
3.96105e-05
4.34968e-05
4.72716e-05
5.09154e-05
5.38682e-05
5.57734e-05
5.64121e-05
5.64121e-05
5.52385e-05
5.17016e-05
4.54137e-05
3.58149e-05
2.59998e-05
5.23166e-06
7.67363e-06
1.06656e-05
1.38762e-05
1.72282e-05
2.07354e-05
2.43421e-05
2.80633e-05
3.19166e-05
3.58503e-05
3.98252e-05
4.37367e-05
4.75931e-05
5.12481e-05
5.43297e-05
5.64578e-05
5.74561e-05
5.74561e-05
5.69433e-05
5.4082e-05
4.84703e-05
3.9432e-05
3.26296e-05
6.48444e-06
8.57923e-06
1.13311e-05
1.43912e-05
1.76492e-05
2.10923e-05
2.46557e-05
2.83521e-05
3.21901e-05
3.61254e-05
4.01189e-05
4.40783e-05
4.80316e-05
5.1699e-05
5.48384e-05
5.7296e-05
5.86494e-05
5.86494e-05
5.86014e-05
5.63826e-05
5.16447e-05
4.49609e-05
4.49609e-05
7.81987e-06
9.63408e-06
1.21498e-05
1.50429e-05
1.81901e-05
2.15546e-05
2.50634e-05
2.87294e-05
3.25512e-05
3.64912e-05
4.05157e-05
4.45508e-05
4.86281e-05
5.23866e-05
5.57423e-05
5.86225e-05
6.06383e-05
6.16031e-05
6.16031e-05
6.07061e-05
5.75637e-05
5.65838e-05
5.65838e-05
9.20601e-06
1.07952e-05
1.30923e-05
1.58135e-05
1.88392e-05
2.2114e-05
2.55583e-05
2.91873e-05
3.29896e-05
3.69323e-05
4.09862e-05
4.51017e-05
4.92761e-05
5.31769e-05
5.68038e-05
6.00465e-05
6.26637e-05
6.44102e-05
6.44102e-05
6.42395e-05
6.21336e-05
7.07386e-05
7.07386e-05
1.06113e-05
1.20202e-05
1.41234e-05
1.66783e-05
1.95794e-05
2.27596e-05
2.61342e-05
2.97236e-05
3.35096e-05
3.74623e-05
4.15634e-05
4.57808e-05
5.00979e-05
5.42131e-05
5.8225e-05
6.1988e-05
6.55334e-05
6.83664e-05
6.96748e-05
6.96748e-05
6.96299e-05
8.41417e-05
8.41417e-05
1.20311e-05
1.32938e-05
1.52283e-05
1.76266e-05
2.04021e-05
2.34838e-05
2.67843e-05
3.0331e-05
3.41e-05
3.80622e-05
4.22057e-05
4.65196e-05
5.09705e-05
5.52998e-05
5.96812e-05
6.3994e-05
6.83797e-05
7.20224e-05
7.41883e-05
7.61786e-05
7.82128e-05
0.000105319
0.000105319
0.000124015
0.000218528
0.000255638
0.000255638
0.000240709
0.000223127
0.000184091
0.000153452
0.000118411
9.26259e-05
6.76629e-05
5.03194e-05
3.50689e-05
2.47155e-05
1.80839e-05
1.48454e-05
1.48454e-05
1.39512e-05
1.39512e-05
0.000187791
0.000247195
0.000254725
0.000254725
0.000234702
0.000217626
0.000179996
0.000150137
0.000116061
9.05716e-05
6.58414e-05
4.86546e-05
3.3369e-05
2.31586e-05
1.56871e-05
1.42679e-05
1.42679e-05
1.36085e-05
1.36085e-05
0.000147326
0.000254423
0.000291446
0.000291446
0.000267179
0.000239018
0.000194728
0.000160309
0.000123427
9.65119e-05
7.10468e-05
5.30614e-05
3.79677e-05
2.72048e-05
2.09618e-05
1.56689e-05
1.56689e-05
1.41965e-05
1.41965e-05
0.000301805
0.000323706
0.000323706
0.000283769
0.000245535
0.000222129
0.000183735
0.000151265
0.000116779
9.06797e-05
6.59069e-05
4.83969e-05
3.34967e-05
2.31167e-05
1.73962e-05
1.40196e-05
1.40196e-05
1.31806e-05
1.31806e-05
0.000261534
0.000365044
0.000369025
0.000369025
0.00031291
0.000262722
0.000209853
0.000169873
0.000130349
0.000101691
7.54978e-05
5.6496e-05
4.13918e-05
2.99921e-05
2.34762e-05
1.74561e-05
1.64486e-05
1.42508e-05
1.42508e-05
0.000485044
0.000485044
0.000446054
0.000342664
0.000277009
0.000237489
0.000194642
0.000157751
0.000121182
9.3406e-05
6.82351e-05
4.9803e-05
3.53716e-05
2.44346e-05
1.91066e-05
1.38916e-05
1.38916e-05
1.26068e-05
1.26068e-05
0.000437998
0.000539352
0.000539352
0.000479578
0.000375696
0.000294209
0.000229188
0.000182529
0.000139296
0.000107979
8.08847e-05
6.04499e-05
4.50591e-05
3.27708e-05
2.56184e-05
1.91997e-05
1.69255e-05
1.46014e-05
1.39693e-05
0.000922961
0.00078682
0.000581342
0.000395215
0.000338745
0.000273345
0.000216506
0.000171616
0.000130402
9.90978e-05
7.30085e-05
5.29278e-05
3.86085e-05
2.66785e-05
2.08762e-05
1.50392e-05
1.36295e-05
1.25648e-05
1.17819e-05
1.54672e-05
1.61713e-05
1.74821e-05
1.94008e-05
2.18232e-05
2.47573e-05
2.79423e-05
3.14187e-05
3.51632e-05
3.9149e-05
4.33771e-05
4.78683e-05
5.2582e-05
5.73622e-05
6.24658e-05
6.79919e-05
7.41215e-05
8.06255e-05
8.77283e-05
0.000102464
0.000132603
0.000133092
0.000133183
1.84655e-05
1.9058e-05
2.01871e-05
2.18935e-05
2.39395e-05
2.66904e-05
2.97287e-05
3.31134e-05
3.6835e-05
4.08729e-05
4.52391e-05
5.00009e-05
5.51366e-05
6.06638e-05
6.67685e-05
7.34972e-05
8.02288e-05
9.22814e-05
0.000162215
0.000296841
0.000733424
0.000512521
0.000239131
2.13356e-05
2.18498e-05
2.28456e-05
2.43916e-05
2.6193e-05
2.87291e-05
3.16389e-05
3.49426e-05
3.86487e-05
4.27509e-05
4.72826e-05
5.23589e-05
5.80521e-05
6.43927e-05
7.14079e-05
7.86511e-05
0.000100109
0.000230079
0.000932936
0.0016933
0.00234029
0.00240693
0.00132497
2.40524e-05
2.45087e-05
2.54055e-05
2.68274e-05
2.84816e-05
3.08374e-05
3.36404e-05
3.68744e-05
4.05662e-05
4.47299e-05
4.94262e-05
5.48445e-05
6.10563e-05
6.79369e-05
7.49687e-05
9.80501e-05
0.000359636
0.00132265
0.00210971
0.00243214
0.00257219
0.00263924
0.00242779
2.65857e-05
2.69971e-05
2.78174e-05
2.91361e-05
3.06709e-05
3.2886e-05
3.55841e-05
3.87434e-05
4.24126e-05
4.66251e-05
5.14955e-05
5.72598e-05
6.39388e-05
7.07994e-05
9.53587e-05
0.000397929
0.00146621
0.00175172
0.0017945
0.00192577
0.00237718
0.00281016
0.00326071
2.89108e-05
2.92881e-05
3.00494e-05
3.12799e-05
3.27202e-05
3.48373e-05
3.74485e-05
4.0541e-05
4.41778e-05
4.84173e-05
5.34338e-05
5.95519e-05
6.63085e-05
7.61003e-05
0.000217171
0.00143752
0.00170731
0.00175172
0.00164382
0.00152206
0.002036
0.00296521
0.00362721
3.10095e-05
3.13604e-05
3.20702e-05
3.32147e-05
3.45739e-05
3.66213e-05
3.9112e-05
4.20715e-05
4.56024e-05
4.98004e-05
5.49411e-05
6.1231e-05
6.75152e-05
0.000167934
0.00133243
0.00189009
0.00169471
0.00156578
0.0011353
0.00089618
0.00164498
0.00282563
0.00362721
3.28655e-05
3.31968e-05
3.38556e-05
3.49265e-05
3.62145e-05
3.81442e-05
4.05005e-05
4.33458e-05
4.67721e-05
5.09085e-05
5.63208e-05
6.72539e-05
0.000158202
0.00122444
0.00184289
0.00189009
0.00153313
0.000890307
0.000471734
0.000356576
0.0011194
0.00244209
0.00345744
3.44924e-05
3.48089e-05
3.54114e-05
3.64217e-05
3.76488e-05
3.95065e-05
4.17006e-05
4.43977e-05
4.99565e-05
6.66171e-05
0.000107733
0.000204542
0.00104905
0.00170797
0.00159482
0.00157259
0.000930588
0.00041315
0.000464855
0.000442821
0.000823567
0.00191946
0.00294451
3.66577e-05
3.71273e-05
3.79986e-05
3.9818e-05
4.23894e-05
4.95028e-05
6.18028e-05
8.49266e-05
0.000129248
0.000346402
0.000677396
0.00116277
0.00167408
0.00175994
0.00175699
0.00122124
0.000609795
0.00053348
0.000600154
0.000637646
0.000754741
0.00145576
0.00225708
7.57627e-05
7.93683e-05
8.56488e-05
0.000100416
0.000123709
0.000209326
0.000355142
0.000545073
0.000776879
0.00104038
0.0012312
0.00141763
0.00159624
0.00175994
0.00156185
0.000793542
0.000561916
0.000637635
0.000687679
0.00079159
0.000951512
0.00142798
0.00185581
0.000504526
0.000527234
0.000563612
0.000634263
0.000647849
0.000760025
0.000909434
0.00108488
0.00116279
0.00125162
0.00138829
0.00140695
0.00145593
0.00170008
0.00127552
0.000700907
0.000615326
0.000724152
0.000783723
0.000907858
0.00110865
0.00147002
0.00172749
0.000877273
0.000899032
0.00093145
0.00093145
0.000860856
0.000909984
0.000984687
0.00113334
0.00132466
0.00140368
0.00140583
0.00140138
0.00120842
0.00149526
0.000885707
0.000719994
0.000676701
0.000773651
0.000827385
0.000946438
0.00110623
0.00137352
0.00162006
0.000792109
0.000800155
0.000823275
0.000875039
0.00093441
0.00100697
0.00110275
0.00123045
0.00134236
0.00139208
0.0014217
0.00127383
0.000968266
0.0012851
0.000592917
0.000807107
0.000695866
0.000801956
0.000823886
0.000913945
0.00101444
0.00116629
0.00139692
0.000813152
0.000827907
0.000854677
0.000893007
0.00094302
0.00101805
0.00111296
0.001264
0.00139472
0.00145144
0.00145534
0.00121209
0.000774866
0.0010241
0.000636043
0.000895958
0.000779899
0.000825707
0.000815383
0.000875549
0.000921551
0.00103143
0.00114504
0.000819556
0.000836898
0.000864771
0.000908103
0.000965752
0.00104346
0.001153
0.00130109
0.00143322
0.00150659
0.00146129
0.00114189
0.000635163
0.000561263
0.000984898
0.00094992
0.000852638
0.000829132
0.000800098
0.000845995
0.000849827
0.000922385
0.000960326
0.000817579
0.000832553
0.000858799
0.000897368
0.000953922
0.00103258
0.00115424
0.00131067
0.00145874
0.00150659
0.00146327
0.00124216
0.00076826
0.00101023
0.00113272
0.00104322
0.000915989
0.000842044
0.000799251
0.000807266
0.000792177
0.000829307
0.000833027
0.000805023
0.000816391
0.000842752
0.000879946
0.000933704
0.00100702
0.00111932
0.00126483
0.00140385
0.00150578
0.00143042
0.00131858
0.0011783
0.00116225
0.00115563
0.00105138
0.000911908
0.000825296
0.000772022
0.000759715
0.000738423
0.000748539
0.000738879
0.000784615
0.000795818
0.000814416
0.000843423
0.000885357
0.000945259
0.00103354
0.00115566
0.0012987
0.00142775
0.00137057
0.00133529
0.00127651
0.00118055
0.00111249
0.000986544
0.000853835
0.000778179
0.000731019
0.000707365
0.000683882
0.000676997
0.000661927
0.000760445
0.000767139
0.000780948
0.000806039
0.000836837
0.000888249
0.000943166
0.00103976
0.00114513
0.00128934
0.00129753
0.00128411
0.00119835
0.0011002
0.00102214
0.000884663
0.000779629
0.000728116
0.000683206
0.000655606
0.000630538
0.000614286
0.000597698
0.000725969
0.000731644
0.000742175
0.000763037
0.00078589
0.000826596
0.000863925
0.000931601
0.00099035
0.00109509
0.00113163
0.00113717
0.001072
0.000980279
0.000888797
0.000766431
0.00071075
0.000671826
0.000629982
0.000601854
0.000577818
0.000556716
0.000540492
0.000686345
0.000692164
0.000699864
0.000716316
0.00073154
0.000761928
0.000784828
0.000830474
0.000858436
0.000916664
0.000932222
0.000940606
0.000900014
0.000829032
0.000757187
0.000675186
0.000645904
0.000608491
0.00057491
0.000546177
0.000526428
0.000503097
0.000489334
0.000647173
0.000651119
0.000655955
0.000668329
0.000678026
0.000699672
0.000713004
0.000742768
0.000755232
0.00078524
0.000783826
0.000780535
0.000753676
0.000704833
0.000655177
0.000604022
0.000585139
0.000547143
0.000523641
0.000494257
0.000480181
0.000454993
0.000444797
0.000607211
0.000610023
0.000612782
0.000621638
0.000626844
0.000641418
0.000647471
0.000666184
0.00066986
0.000685324
0.000677739
0.000667789
0.000643687
0.000610523
0.000576617
0.000543583
0.000524851
0.000492333
0.000475294
0.000446501
0.000437342
0.000411182
0.000404873
0.00056658
0.000568756
0.000570235
0.000576438
0.000578695
0.000587894
0.000588995
0.00059916
0.000596937
0.000603118
0.000591803
0.000579926
0.000559883
0.000536938
0.00051208
0.000489461
0.000468734
0.000445191
0.000428442
0.000403626
0.000397578
0.000372044
0.000369042
0.000528133
0.000529427
0.000529488
0.000533052
0.000532806
0.000537831
0.000535762
0.000540441
0.000534797
0.000535438
0.00052328
0.000512573
0.000493916
0.0004765
0.000456148
0.00043902
0.000419231
0.000402045
0.000383845
0.000365277
0.000360202
0.000336726
0.000336155
0.000492261
0.000492893
0.000491978
0.000493493
0.000491368
0.000493074
0.000488691
0.000489451
0.000481608
0.000479021
0.000466114
0.00045594
0.000438988
0.000424935
0.000407228
0.000393287
0.00037527
0.000361569
0.000343525
0.000331272
0.000325011
0.00030497
0.000305816
0.000458316
0.000458467
0.000456937
0.000457029
0.000453708
0.00045305
0.00044713
0.000445156
0.000435893
0.000431297
0.00041786
0.000408299
0.000392406
0.000380126
0.000364046
0.000352018
0.000335845
0.000324301
0.000308263
0.000300151
0.000292083
0.000276168
0.000277726
0.000427434
0.000427146
0.000425064
0.000423918
0.000419607
0.000417126
0.00041007
0.000406171
0.000395829
0.000389771
0.000376227
0.000366918
0.000351881
0.000340731
0.000325833
0.000315064
0.00030049
0.00029068
0.000276796
0.000270827
0.000261773
0.000250097
0.000251601
0.000399296
0.000398677
0.00039619
0.000394088
0.000389036
0.000385239
0.000377341
0.000372082
0.000361041
0.000354094
0.000340372
0.00033101
0.000316428
0.000305819
0.000291803
0.000281741
0.000268501
0.000260047
0.000248038
0.000243154
0.000234296
0.000226454
0.00022718
0.00037389
0.000373028
0.000370259
0.000367446
0.000361836
0.000357034
0.000348445
0.000342074
0.000330451
0.000322591
0.000308802
0.00029923
0.000285018
0.000274729
0.000261308
0.000251799
0.000239626
0.000232136
0.00022163
0.000217314
0.000209391
0.00020439
0.000204309
0.000351323
0.00035024
0.0003472
0.000343788
0.000337682
0.000332078
0.000322929
0.000315696
0.000303674
0.000295104
0.000281239
0.000271353
0.000257245
0.000246955
0.000233883
0.000224674
0.000213268
0.000206393
0.0001971
0.000193239
0.000186528
0.000183475
0.000183034
0.000331365
0.000330111
0.000326858
0.000322987
0.000316489
0.000310249
0.000300633
0.000292608
0.000280215
0.000270899
0.000256871
0.000246498
0.000232378
0.000221999
0.000209111
0.000200041
0.000189112
0.000182639
0.000174304
0.000170857
0.000165386
0.000163618
0.000163348
0.000313992
0.000312594
0.00030914
0.000304871
0.000298002
0.00029118
0.000281136
0.000272412
0.000259691
0.000249643
0.000235427
0.000224587
0.000210339
0.000199642
0.000186666
0.000177537
0.000166877
0.000160599
0.000152945
0.000149906
0.000145591
0.00014479
0.00014513
0.000299088
0.000297556
0.000293908
0.000289291
0.000282098
0.000274775
0.000264382
0.000254999
0.000241953
0.000231207
0.000216688
0.000205181
0.000190587
0.000179463
0.000166293
0.000156939
0.000146308
0.000140036
0.000132884
0.000130209
0.000126949
0.000126978
0.000128186
0.000286562
0.000284892
0.000281043
0.000276082
0.000268568
0.000260761
0.000250015
0.000240022
0.00022665
0.00021516
0.000200285
0.000188147
0.00017319
0.000161487
0.00014786
0.000138058
0.000127229
0.000120799
0.000113978
0.000111589
0.000109323
0.000110139
0.000112437
0.0002764
0.000274577
0.000270504
0.000265195
0.000257356
0.000249071
0.000237975
0.000227397
0.000213821
0.000201581
0.000186315
0.000173431
0.000157874
0.000145436
0.000131215
0.000120794
0.000109515
0.000102728
9.6015e-05
9.38568e-05
9.25412e-05
9.41873e-05
9.77493e-05
0.000268516
0.000266533
0.00026223
0.000256568
0.000248383
0.000239588
0.000228163
0.000216839
0.000203749
0.000190303
0.000176156
0.000161522
0.00014643
0.000131383
0.000116754
0.000105155
9.31339e-05
8.57481e-05
7.89123e-05
7.69219e-05
7.66012e-05
7.91948e-05
8.42462e-05
0.00026291
0.000260813
0.000256348
0.000250408
0.00024277
0.000233778
0.000222976
0.000210748
0.000197053
0.000182373
0.000166848
0.000151066
0.000135247
0.000119743
0.000104644
9.11601e-05
7.81205e-05
6.98341e-05
6.2507e-05
6.05697e-05
6.13781e-05
6.51157e-05
7.19191e-05
0.000259272
0.000257132
0.000252602
0.000246821
0.000239307
0.000229976
0.000218797
0.000206202
0.000192219
0.000177319
0.000161522
0.000145219
0.000128486
0.000111804
9.54285e-05
7.98408e-05
6.5406e-05
5.50488e-05
4.67681e-05
4.48166e-05
4.70754e-05
5.23395e-05
6.12566e-05
0.000257313
0.000255212
0.000251427
0.000246099
0.000238627
0.000229309
0.000218098
0.000205348
0.000191039
0.000175604
0.000159117
0.000142071
0.000124586
0.000107078
8.96226e-05
7.26429e-05
5.6363e-05
4.16489e-05
3.13729e-05
2.92909e-05
3.39335e-05
4.24064e-05
5.25608e-05
0.000256232
0.000254069
0.000249872
0.000244365
0.000236794
0.00022745
0.000216299
0.000203701
0.00018964
0.000174515
0.000158326
0.00014148
0.000124027
0.000106394
8.86603e-05
7.12091e-05
5.40825e-05
3.76556e-05
2.22853e-05
1.47514e-05
2.45833e-05
3.71698e-05
4.67267e-05
0.000276248
0.00180251
0.00241648
0.00249988
0.000164966
0.00180251
0.00288192
0.00334811
0.000179054
0.000550148
0.00288192
0.00364524
0.000447103
0.000277751
0.00214019
0.00364524
0.00120366
0.000274524
0.00152112
0.00366468
0.00257931
0.000472854
0.00135891
0.00366468
0.00366973
0.00243003
0.00230105
0.00364399
0.00366973
0.00376741
0.00369515
0.00389032
0.00363155
0.00376741
0.00369515
0.00389032
0.00288555
0.00316711
0.00334169
0.00349447
0.00251604
0.00269721
0.00284429
0.0029832
0.00227041
0.00233081
0.00238028
0.00240244
0.00186118
0.00187196
0.00188429
0.00182704
0.00144363
0.00145146
0.00143649
0.0013829
0.00114057
0.00115215
0.00112341
0.00109529
0.000945496
0.000948092
0.000922562
0.000902766
0.000811263
0.000806646
0.000784576
0.000763312
0.000712133
0.000704039
0.000682403
0.000660755
0.000632503
0.000623251
0.000601507
0.000582398
0.000567575
0.00055858
0.000537739
0.000522897
0.000511046
0.000503182
0.000484029
0.000473358
0.000462214
0.000456129
0.000439534
0.000432369
0.000419897
0.000415585
0.000401006
0.0003962
0.000382173
0.000379553
0.000366698
0.000363645
0.000348473
0.000347241
0.000335829
0.000334116
0.000317808
0.000317658
0.000307618
0.000306903
0.000289691
0.000290316
0.000281585
0.000281661
0.000263844
0.000265027
0.000257594
0.000258278
0.000239963
0.000241503
0.000235324
0.000236462
0.000217956
0.000219631
0.000214709
0.000216154
0.000197583
0.000199175
0.000195533
0.000197091
0.000178693
0.000180048
0.000177755
0.000179182
0.000160931
0.000162154
0.000161074
0.000162385
0.000144199
0.000145539
0.000145433
0.000146873
0.000128449
0.000130094
0.000130782
0.000132547
0.000113729
0.000115832
0.000117186
0.000119433
9.99908e-05
0.000102656
0.000104595
0.000107428
8.74257e-05
9.07548e-05
9.32304e-05
9.67337e-05
7.60582e-05
8.01209e-05
8.30997e-05
8.73114e-05
6.63836e-05
7.123e-05
7.46654e-05
7.95822e-05
5.86122e-05
6.4199e-05
6.80063e-05
7.3548e-05
5.34502e-05
5.96064e-05
6.36293e-05
6.96151e-05
0.00181711
0.00181711
0.000989923
0.000719364
0.000490472
0.000379897
0.000280644
0.000220594
0.000166949
0.000128254
9.73653e-05
7.28761e-05
5.53533e-05
4.0722e-05
3.14483e-05
2.36987e-05
1.92148e-05
1.66786e-05
1.45096e-05
0.00176623
0.000818947
0.000667058
0.00054167
0.000443288
0.000334596
0.00025954
0.000197645
0.000152794
0.000113823
8.60606e-05
6.23069e-05
4.69886e-05
3.26903e-05
2.82176e-05
1.6474e-05
1.89837e-05
1.25125e-05
1.27838e-05
0.00232824
0.00149653
0.000551271
0.000566913
0.000532636
0.000395605
0.000307134
0.000235933
0.000182658
0.000139145
0.000107022
7.97427e-05
6.06834e-05
4.38239e-05
3.49556e-05
2.29554e-05
2.27346e-05
1.47415e-05
1.40875e-05
0.00288866
0.00169688
0.000558395
0.000578933
0.000578933
0.000465378
0.000351522
0.000264515
0.000201983
0.000151772
0.000117069
8.82511e-05
6.85879e-05
5.1316e-05
3.99173e-05
2.9463e-05
2.58734e-05
1.86394e-05
1.63446e-05
0.00348768
0.0023649
0.000832097
0.000655623
0.00058737
0.000486379
0.000365309
0.000277775
0.000213352
0.000161578
0.000124263
9.31156e-05
7.1709e-05
5.24694e-05
4.67944e-05
2.92509e-05
3.13422e-05
2.0279e-05
2.1186e-05
0.00379284
0.00283139
0.00114162
0.000763654
0.000763654
0.000600521
0.000443061
0.000330125
0.000252921
0.000194622
0.000152373
0.000118658
9.41553e-05
7.37502e-05
5.88941e-05
4.66592e-05
3.82999e-05
3.19103e-05
2.82888e-05
0.003994
0.00311931
0.00142704
0.000848547
0.00074238
0.000583518
0.000436049
0.00032608
0.000249308
0.00019028
0.00014843
0.000114974
9.14641e-05
7.21992e-05
6.32682e-05
4.86475e-05
4.61856e-05
3.78322e-05
3.63999e-05
0.003994
0.00328628
0.00180438
0.00110838
0.000939807
0.000710981
0.000527456
0.000398175
0.000305938
0.000238242
0.000188432
0.000149762
0.000121225
9.79488e-05
8.07605e-05
6.72928e-05
5.67257e-05
5.07696e-05
4.67837e-05
0.00396453
0.00345671
0.00204847
0.00133078
0.000952022
0.000690267
0.000503929
0.000379473
0.000292108
0.000228331
0.000182323
0.000146951
0.00012069
0.000100717
8.51422e-05
7.46502e-05
6.65042e-05
6.16684e-05
5.73106e-05
0.00361265
0.00301114
0.00187637
0.00126571
0.000923026
0.000690428
0.000528313
0.000412361
0.00032703
0.000262236
0.000213496
0.000174953
0.000145938
0.000122485
0.000104762
9.11363e-05
8.04449e-05
7.42307e-05
6.92766e-05
0.00278028
0.00228815
0.00160774
0.00115795
0.000867578
0.000661555
0.000513572
0.000404678
0.000324001
0.000262541
0.000216181
0.000180306
0.000152554
0.00013161
0.000114805
0.000103347
9.35434e-05
8.87319e-05
8.40063e-05
0.00214408
0.00179186
0.00132546
0.00100606
0.000786969
0.000621081
0.000498945
0.00040474
0.000332605
0.000275861
0.00023187
0.000196514
0.00016905
0.000146887
0.000129672
0.000116571
0.000106274
0.000100074
9.52453e-05
0.00164669
0.00141757
0.00112462
0.000903166
0.000728826
0.000590262
0.000483773
0.000399593
0.000333696
0.000281119
0.000239405
0.000206348
0.000179789
0.000159419
0.000142727
0.000131037
0.000121214
0.000115885
0.000111347
0.00127672
0.00113193
0.000940456
0.000786291
0.000653384
0.00054522
0.000459012
0.000387599
0.000330429
0.000283261
0.000245518
0.000214409
0.000189579
0.000169439
0.000153422
0.000141226
0.000131644
0.000125663
0.000121347
0.00101918
0.000953767
0.000831642
0.000716018
0.000611359
0.000520562
0.00044508
0.000381939
0.000330489
0.000287596
0.000252581
0.000223866
0.000200291
0.000181686
0.00016632
0.000155155
0.000145977
0.00014058
0.00013646
0.000838371
0.000808182
0.000723431
0.000629524
0.000548897
0.00047833
0.000417933
0.000365289
0.000321796
0.000284129
0.00025332
0.000226989
0.000205651
0.000187935
0.000173746
0.000162701
0.000154152
0.000148541
0.000144805
0.000718946
0.000718946
0.000655561
0.000581176
0.00051927
0.000458623
0.000406508
0.000359733
0.000320469
0.000286373
0.000258178
0.000234066
0.000214233
0.00019792
0.000184584
0.000174403
0.000166339
0.000161187
0.000157649
0.000633504
0.000633504
0.000580166
0.000520478
0.000471155
0.000420428
0.000379242
0.000340945
0.000308677
0.000279378
0.000255206
0.000233659
0.000216183
0.000201118
0.000189159
0.000179473
0.000172199
0.000167119
0.000164039
0.000575873
0.000575873
0.000532616
0.000487056
0.000447085
0.000404947
0.000370143
0.000335317
0.00030661
0.000279887
0.000257916
0.000238206
0.000222176
0.000208342
0.000197293
0.000188365
0.000181615
0.000176911
0.000174013
0.000517981
0.000517981
0.000480519
0.000443241
0.000408577
0.000373262
0.000344631
0.0003157
0.000292696
0.000270282
0.000252132
0.000234975
0.000221289
0.000208886
0.000199267
0.000191063
0.000185173
0.000180744
0.000178366
0.000474643
0.000474643
0.000444683
0.000415397
0.000387481
0.000359546
0.0003354
0.000310475
0.000290028
0.000269478
0.000253111
0.000237369
0.000224935
0.000213537
0.000204772
0.000197198
0.000191798
0.00018764
0.000185392
0.00043243
0.00043243
0.000406747
0.000381981
0.000357764
0.00033399
0.000313041
0.000292221
0.000275459
0.000258389
0.000245171
0.000231901
0.00022169
0.000211811
0.000204478
0.000197764
0.00019326
0.000189524
0.000187738
0.000398214
0.000398214
0.000377563
0.00035773
0.000338639
0.000319882
0.000302932
0.00028589
0.000271507
0.000256674
0.000244747
0.000232638
0.0002234
0.00021433
0.000207696
0.000201481
0.000197368
0.000193843
0.000192207
0.000364905
0.000364905
0.000347654
0.000331045
0.000314874
0.00029893
0.000284372
0.000269903
0.000257729
0.000245427
0.000235806
0.000225829
0.000218442
0.000210845
0.000205529
0.000200251
0.000196989
0.000193931
0.000192754
0.00033748
0.00033748
0.000323559
0.000310231
0.000297561
0.000285008
0.000273635
0.000262135
0.000252266
0.000242056
0.00023383
0.000225169
0.000218579
0.000211727
0.000206937
0.000202056
0.000199094
0.000196233
0.000195172
0.000309668
0.000309668
0.000298353
0.00028764
0.000277391
0.000267117
0.000257757
0.000248215
0.000240045
0.000231586
0.000224901
0.000217829
0.000212695
0.000207148
0.000203468
0.000199502
0.000197293
0.000194892
0.000194213
0.000286642
0.000286642
0.000277897
0.000269685
0.000261929
0.000254077
0.000247066
0.00023974
0.000233501
0.000226834
0.000221522
0.000215692
0.000211403
0.000206622
0.000203432
0.000199869
0.000197915
0.000195736
0.000195123
0.000262927
0.000262927
0.000256262
0.000250145
0.000244337
0.000238383
0.00023308
0.000227386
0.000222583
0.000217317
0.000213224
0.000208594
0.00020534
0.000201565
0.000199248
0.000196463
0.000195134
0.00019336
0.000193055
0.000243148
0.000243148
0.000238554
0.000234428
0.000230552
0.000226469
0.000222946
0.000218938
0.000215662
0.000211826
0.000208917
0.000205384
0.000202956
0.000199919
0.000198101
0.000195747
0.000194669
0.000193139
0.000192894
0.000222679
0.000222679
0.000219825
0.000217419
0.000215155
0.000212658
0.00021057
0.000207941
0.000205884
0.000203218
0.000201322
0.000198769
0.00019717
0.000194928
0.000193763
0.000191993
0.000191366
0.000190167
0.00019014
0.000205592
0.000205592
0.000204405
0.000203632
0.000202926
0.000201936
0.000201252
0.000199961
0.000199118
0.000197592
0.000196669
0.000195025
0.000194146
0.000192566
0.000191875
0.000190536
0.000190167
0.00018925
0.00018925
0.00018796
0.0001881
0.000188866
0.000189505
0.000189875
0.000190397
0.000190397
0.000190468
0.000190468
0.000189927
0.00018985
0.000189015
0.000188811
0.000187869
0.000187685
0.000186803
0.00018677
0.000186259
0.000186259
0.000173218
0.000174652
0.000176913
0.000178812
0.000180449
0.000182099
0.000183071
0.000184228
0.000184604
0.00018531
0.00018531
0.00018561
0.00018561
0.000185458
0.000185458
0.000185162
0.000185162
0.00018495
0.00018495
0.000157893
0.000160595
0.000164265
0.000167304
0.000170131
0.000172789
0.000174754
0.000176767
0.000177963
0.000179366
0.000179938
0.000180874
0.000181005
0.000181633
0.000181633
0.000181953
0.000181953
0.000182054
0.000182054
0.000145199
0.000149219
0.000154149
0.000158241
0.000162148
0.00016571
0.000168566
0.000171344
0.000173272
0.000175292
0.000176456
0.000177865
0.00017845
0.000179411
0.000179593
0.000180244
0.000180244
0.000180597
0.000180597
0.000132226
0.000137556
0.000143636
0.000148743
0.000153659
0.000158046
0.000161718
0.000165177
0.000167763
0.000170332
0.000172022
0.000173858
0.000174844
0.000176114
0.000176579
0.000177426
0.000177505
0.000178022
0.000178022
0.000121758
0.000128361
0.000135455
0.000141499
0.000147277
0.000152381
0.000156759
0.000160797
0.000163951
0.000166986
0.000169126
0.000171318
0.00017265
0.000174171
0.000174876
0.00017587
0.000176089
0.000176654
0.000176654
0.000111532
0.000119339
0.000127355
0.000134267
0.000140783
0.00014652
0.000151507
0.000156043
0.000159681
0.000163114
0.00016564
0.000168142
0.00016977
0.000171517
0.000172435
0.000173575
0.000173922
0.00017455
0.00017455
0.000103702
0.0001126
0.000121406
0.000129063
0.000136188
0.00014246
0.000147947
0.000152892
0.000156933
0.000160688
0.00016353
0.000166277
0.000168144
0.000170062
0.000171142
0.000172378
0.000172815
0.00017347
0.00017347
9.69101e-05
0.000106694
0.000116103
0.000124328
0.000131892
0.000138561
0.000144402
0.000149645
0.000153981
0.000157976
0.000161058
0.000163996
0.000166052
0.000168115
0.000169334
0.000170664
0.000171186
0.000171887
0.000171887
9.23641e-05
0.000102828
0.000112702
0.00012137
0.000129278
0.000136263
0.000142381
0.000147861
0.000152426
0.000156605
0.000159868
0.000162949
0.000165144
0.000167308
0.000168626
0.000170021
0.000170603
0.000171324
0.000171324
8.94729e-05
0.000100229
0.000110267
0.000119106
0.000127133
0.000134242
0.000140468
0.000146054
0.000150723
0.000154994
0.000158353
0.000161513
0.000163788
0.000166014
0.000167392
0.000168825
0.000169437
0.000170167
0.000170167
)
;

boundaryField
{
    leftWall
    {
        type            calculated;
        value           uniform 0;
    }
    rightWall
    {
        type            calculated;
        value           uniform 0;
    }
    lowerWall
    {
        type            calculated;
        value           uniform 0;
    }
    atmosphere
    {
        type            calculated;
        value           uniform 0;
    }
    defaultFaces
    {
        type            empty;
    }
}


// ************************************************************************* //
