/*--------------------------------*- C++ -*----------------------------------*\
| =========                 |                                                 |
| \\      /  F ield         | OpenFOAM: The Open Source CFD Toolbox           |
|  \\    /   O peration     | Version:  2012                                  |
|   \\  /    A nd           | Website:  www.openfoam.com                      |
|    \\/     M anipulation  |                                                 |
\*---------------------------------------------------------------------------*/
FoamFile
{
    version     2.0;
    format      ascii;
    class       volScalarField;
    location    "0.17";
    object      rhogh;
}
// * * * * * * * * * * * * * * * * * * * * * * * * * * * * * * * * * * * * * //

dimensions      [1 -1 -2 0 0 0 0];


internalField   nonuniform List<scalar> 
2268
(
-29.4294
-29.4294
-29.4294
-29.4294
-29.4294
-29.4294
-29.4294
-29.4294
-29.4294
-29.4294
-29.4294
-29.4294
-29.4294
-29.4294
-29.4294
-29.4294
-29.4294
-29.4294
-29.4294
-29.4294
-29.4294
-29.4294
-28.667
-88.2881
-88.2881
-88.2881
-88.2881
-88.2881
-88.2881
-88.2881
-88.2881
-88.2881
-88.2881
-88.2881
-88.2881
-88.2881
-88.2881
-88.2881
-88.2881
-88.2881
-88.2881
-88.2881
-88.2881
-88.2881
-88.2881
-86.7066
-147.147
-147.147
-147.147
-147.147
-147.147
-147.147
-147.147
-147.147
-147.147
-147.147
-147.147
-147.147
-147.147
-147.147
-147.147
-147.147
-147.147
-147.147
-147.147
-147.147
-147.147
-147.147
-144.485
-206.006
-206.006
-206.006
-206.006
-206.006
-206.006
-206.006
-206.006
-206.006
-206.006
-206.006
-206.006
-206.006
-206.006
-206.006
-206.006
-206.006
-206.006
-206.006
-206.006
-206.006
-206.006
-198.207
-264.864
-264.864
-264.864
-264.864
-264.864
-264.864
-264.864
-264.864
-264.864
-264.864
-264.864
-264.864
-264.864
-264.864
-264.864
-264.864
-264.864
-264.864
-264.864
-264.864
-264.864
-264.864
-254.349
-323.723
-323.723
-323.723
-323.723
-323.723
-323.723
-323.723
-323.723
-323.723
-323.723
-323.723
-323.723
-323.723
-323.723
-323.723
-323.723
-323.723
-323.723
-323.723
-323.723
-323.723
-323.723
-310.875
-382.582
-382.582
-382.582
-382.582
-382.582
-382.582
-382.582
-382.582
-382.582
-382.582
-382.582
-382.582
-382.582
-382.582
-382.582
-382.582
-382.582
-382.582
-382.582
-382.58
-382.578
-382.582
-367.392
-441.44
-441.44
-441.44
-441.44
-441.44
-441.44
-441.44
-441.44
-441.44
-441.44
-441.44
-441.44
-441.44
-441.44
-441.44
-441.44
-441.44
-441.44
-441.44
-441.432
-441.432
-441.44
-424.81
-8.01746e-24
-2.34333e-23
-2.86358e-24
-1.71194e-23
-2.76734e-26
-8.58046e-27
-5.22957e-29
-5.69887e-31
-2.88884e-33
-9.80153e-36
-3.70734e-38
-8.75276e-41
-3.31988e-43
-9.13709e-46
-3.83585e-48
-1.19765e-50
-3.86167e-53
-7.9198e-56
-1.76153e-58
-3.33697e-21
-1.11402e-20
-1.13012e-21
-6.98951e-21
-2.04685e-23
-3.98556e-24
-3.05088e-26
-3.4432e-28
-2.05641e-30
-8.02879e-33
-3.42628e-35
-8.97348e-38
-3.56513e-40
-9.88845e-43
-4.09969e-45
-1.25125e-47
-4.00125e-50
-8.20414e-53
-9.1064e-56
-4.3164e-19
-1.35647e-18
-1.43168e-19
-8.06026e-19
-4.14368e-21
-4.85378e-22
-4.64252e-24
-5.44169e-26
-3.83048e-28
-1.7328e-30
-8.46034e-33
-2.5036e-35
-1.0694e-37
-3.08763e-40
-1.28995e-42
-3.79414e-45
-1.1839e-47
-2.299e-50
-2.51012e-53
-2.4612e-17
-8.29389e-17
-7.34903e-18
-4.36313e-17
-3.74908e-19
-2.94071e-20
-3.52766e-22
-4.38845e-24
-3.67453e-26
-1.95784e-28
-1.10608e-30
-3.7701e-33
-1.75485e-35
-5.45838e-38
-2.36372e-40
-7.34112e-43
-2.36969e-45
-4.89193e-48
-5.43387e-51
-9.42539e-16
-2.68507e-15
-3.10862e-16
-1.47599e-15
-2.07693e-17
-1.12451e-18
-1.66537e-20
-2.23731e-22
-2.23772e-24
-1.4221e-26
-9.45311e-29
-3.76191e-31
-1.93975e-33
-6.52265e-36
-2.92197e-38
-8.86341e-41
-2.79171e-43
-5.32785e-46
-5.80185e-49
-1.98813e-14
-6.65213e-14
-6.64359e-15
-3.04643e-14
-6.67835e-16
-2.85375e-17
-5.20849e-19
-7.74646e-21
-9.31904e-23
-7.20997e-25
-5.73966e-27
-2.73955e-29
-1.58912e-31
-5.92849e-34
-2.8536e-36
-9.82249e-39
-3.36656e-41
-7.49604e-44
-8.60161e-47
-3.47026e-13
-9.38988e-13
-1.70834e-13
-4.23542e-13
-1.41358e-14
-5.17076e-16
-1.14002e-17
-1.91449e-19
-2.7722e-21
-2.65689e-23
-2.5929e-25
-1.53961e-27
-1.03878e-29
-4.25324e-32
-2.14196e-34
-6.82698e-37
-2.24688e-39
-4.44146e-42
-4.95474e-45
-2.92454e-12
-1.48749e-11
-4.43696e-12
-4.06963e-12
-1.93817e-13
-6.80671e-15
-1.77375e-16
-3.42307e-18
-5.91394e-20
-7.1269e-22
-8.66944e-24
-6.77564e-26
-5.60083e-28
-2.81801e-30
-1.64692e-32
-6.38844e-35
-2.39727e-37
-5.63012e-40
-6.81505e-43
-533.467
-533.467
-533.467
-533.467
-533.467
-533.467
-533.467
-533.467
-533.467
-533.467
-533.467
-533.467
-533.467
-533.467
-533.467
-533.467
-533.467
-533.467
-533.433
-533.467
-533.467
-533.467
-533.467
-658.662
-658.662
-658.662
-658.662
-658.662
-658.662
-658.662
-658.662
-658.662
-658.662
-658.662
-658.662
-658.662
-658.662
-658.662
-658.662
-658.662
-658.662
-656.057
-649.47
-615.838
-641.422
-658.662
-783.856
-783.856
-783.856
-783.856
-783.856
-783.856
-783.856
-783.856
-783.856
-783.856
-783.856
-783.856
-783.856
-783.856
-783.856
-783.856
-783.856
-774.657
-660.18
-405.157
-184.845
-238.623
-628.283
-909.051
-909.051
-909.051
-909.051
-909.051
-909.051
-909.051
-909.051
-909.051
-909.051
-909.051
-909.051
-909.051
-909.051
-909.051
-909.051
-872.993
-554.151
-100.09
-17.1016
-4.88931
-9.10891e-08
-413.471
-1034.25
-1034.25
-1034.25
-1034.25
-1034.25
-1034.25
-1034.25
-1034.25
-1034.25
-1034.25
-1034.25
-1034.25
-1034.25
-1034.25
-1034.25
-982.952
-487.775
-21.8396
-5.84264e-06
-0.00373684
-0.00240753
-1.03636e-07
-240.336
-1159.44
-1159.44
-1159.44
-1159.44
-1159.44
-1159.44
-1159.44
-1159.44
-1159.44
-1159.44
-1159.44
-1159.44
-1159.44
-1159.44
-1148.62
-516.961
-4.53893
-1.71628e-06
-6.5507e-06
-8.99932e-06
-3.12745e-06
-1.16179e-07
-45.2332
-1284.63
-1284.63
-1284.63
-1284.63
-1284.63
-1284.63
-1284.63
-1284.63
-1284.63
-1284.63
-1284.63
-1284.63
-1284.62
-1284.63
-642.41
-6.84196
-1.90161e-06
-1.9016e-06
-4.97721e-06
-1.11486e-06
-1.28724e-07
-1.28726e-07
-2.11966
-1409.83
-1409.83
-1409.83
-1409.83
-1409.83
-1409.83
-1409.83
-1409.83
-1409.83
-1409.83
-1409.83
-1409.28
-1408
-770.565
-49.8743
-1.7766
-0.00485006
-2.08694e-06
-6.929e-07
-1.733e-07
-1.41271e-07
-1.41268e-07
-0.828417
-1535.02
-1535.02
-1535.02
-1535.02
-1535.02
-1535.02
-1535.02
-1535.02
-1535
-1534.49
-1528.5
-1503.06
-954.891
-119.214
-3.64711e-06
-3.64684e-06
-3.64661e-06
-7.35617e-07
-1.55439e-07
-5.72479e-07
-0.000131972
-0.000252668
-0.1689
-1660.22
-1660.22
-1660.22
-1660.21
-1660.2
-1660.11
-1659.38
-1654.97
-1638.47
-1540.74
-1248.95
-769.651
-91.5849
-0.646959
-0.646977
-0.0471677
-5.47324e-09
-1.18331e-07
-1.01064e-07
-1.14282e-06
-8.82578e-05
-0.000587074
-0.000971606
-1778.92
-1777.48
-1774.79
-1767.53
-1755.25
-1702.77
-1590.6
-1361.3
-1044.38
-541.81
-172.26
-4.97437e-17
1.67953e-19
-7.67872
-1.43359
-5.03742e-20
-5.88594e-09
-2.33638e-08
-3.92354e-08
-3.14571e-07
-2.08814e-06
-1.06113e-05
-3.15769e-07
-1361.74
-1319.87
-1254.81
-1117.65
-943.023
-666.675
-432.536
-195.845
-31.7561
-6.97098e-17
-3.6429e-17
-1.10055e-09
-4.42737e-28
-22.06
-1.53956
2.11915e-27
-2.53735e-09
-5.42296e-09
-7.51471e-09
-2.28753e-08
-6.50214e-08
-1.18616e-07
-2.32112e-07
-138.131
-115.52
-84.1812
-30.4441
-1.40858e-18
7.907e-30
1.44214e-28
2.33193e-27
-1.49083e-26
-4.03798e-09
-2.03557e-07
-4.78463e-08
-4.33009e-27
-23.5091
-0.35951
-3.20951e-28
-7.8986e-10
-1.47055e-09
-1.77601e-09
-3.20896e-09
-1.12066e-08
-3.6114e-08
-1.0727e-07
-1.31575e-34
-1.36313e-34
3.07543e-34
-6.11638e-31
-6.46726e-13
-5.0512e-11
-1.26927e-09
-1.69465e-08
-4.25714e-07
-1.67557e-07
-0.00024653
-6.20492e-05
4.78636e-23
-24.451
-5.1296e-30
-1.73321e-11
-2.39282e-10
-3.82852e-10
-4.111e-10
-5.79234e-10
-2.10853e-09
-7.92216e-09
-2.41365e-08
-1.69295e-17
-6.36234e-16
-3.03773e-14
-1.00808e-12
-2.74378e-11
-6.13365e-10
-1.03121e-08
-1.01546e-07
-7.84141e-07
-7.54343e-06
-0.0200501
-0.0604364
-1.15076e-20
-6.10499
-2.24056e-19
-1.15243e-11
-6.56438e-11
-9.16449e-11
-8.37731e-11
-1.00913e-10
-3.43206e-10
-1.33488e-09
-3.83568e-09
-7.64496e-17
-3.57756e-15
-1.73585e-13
-5.93278e-12
-1.63345e-10
-3.39233e-09
-4.72908e-08
-3.533e-07
-3.53302e-07
-0.00463045
-0.122466
-0.145136
-0.0345863
-3.76871e-22
-4.85689e-13
-5.86799e-12
-1.57056e-11
-1.94008e-11
-1.4572e-11
-1.55512e-11
-4.69471e-11
-1.77568e-10
-4.68065e-10
-1.6348e-16
-1.31518e-14
-7.07261e-13
-2.6679e-11
-7.67257e-10
-1.47033e-08
-1.57395e-07
-9.58285e-07
-2.84949e-05
-0.0215814
-0.152514
-0.152515
-0.020857
-7.96737e-18
-2.95788e-13
-1.80607e-12
-3.18046e-12
-3.49169e-12
-2.13724e-12
-2.05908e-12
-5.36541e-12
-1.87868e-11
-4.55806e-11
-2.36239e-16
-2.48727e-14
-1.59611e-12
-6.71359e-11
-1.89828e-09
-3.3862e-08
-3.35882e-07
-2.25397e-06
-9.24877e-05
-0.0189353
-0.076381
-0.0598419
-7.97352e-15
-1.45131e-14
-1.32862e-13
-3.81513e-13
-5.12399e-13
-5.12364e-13
-2.60323e-13
-2.28805e-13
-5.15375e-13
-1.58878e-12
-3.65349e-12
-2.30191e-16
-3.11732e-14
-2.15558e-12
-9.28864e-11
-2.61128e-09
-4.74643e-08
-5.5619e-07
-6.83292e-06
-0.00019739
-0.000270609
-0.00027089
-0.00846589
-8.34862e-15
-8.34854e-15
-2.63921e-14
-5.77324e-14
-6.53117e-14
-5.76276e-14
-2.60237e-14
-2.09512e-14
-4.15898e-14
-1.08875e-13
-2.44193e-13
-1.15974e-16
-1.72413e-14
-1.33411e-12
-6.29148e-11
-2.00161e-09
-4.57071e-08
-8.05969e-07
-8.47355e-06
-1.14131e-05
-1.14124e-05
-0.00347544
-0.0212568
-0.0212572
-0.00447301
-3.9442e-21
-6.6414e-15
-7.73106e-15
-4.76112e-15
-2.10656e-15
-1.5675e-15
-2.81232e-15
-6.16817e-15
-1.36869e-14
-9.65378e-18
-6.91637e-16
-2.26439e-14
-4.16811e-13
-3.9455e-12
-6.03628e-12
-9.52099e-13
-9.52038e-13
-9.52099e-13
-3.0707e-05
-0.00194511
-0.00505028
-0.00938714
-0.00199449
-4.11376e-21
-1.31067e-15
-1.74332e-15
-3.09818e-16
-1.36898e-16
-9.50826e-17
-1.58037e-16
-2.89662e-16
-6.45654e-16
-1.25508e-20
-1.21789e-18
-5.34147e-17
-1.38057e-15
-2.33068e-14
-2.69755e-13
-2.13135e-12
-5.95984e-12
-9.09575e-12
-2.97035e-12
-2.96932e-12
-2.97035e-12
-2.96932e-12
-0.000323345
-4.77259e-05
-4.51343e-21
-5.90911e-16
-1.58075e-17
-7.10691e-18
-4.6527e-18
-7.36222e-18
-1.13399e-17
-2.56973e-17
-4.06488e-21
-4.21032e-19
-1.97469e-17
-5.44981e-16
-9.68883e-15
-1.15015e-13
-9.62599e-13
-6.39107e-12
-3.03661e-11
-1.35277e-10
-6.17138e-10
-1.95905e-09
-2.99398e-09
-2.99395e-09
-7.07799e-06
-5.30391e-21
-1.62891e-16
-6.30634e-19
-2.94492e-19
-1.83663e-19
-2.84067e-19
-3.71241e-19
-8.66305e-19
-1.03295e-23
-1.3791e-21
-9.30153e-20
-4.21146e-18
-1.41676e-16
-3.67618e-15
-7.44769e-14
-1.17897e-12
-1.45952e-11
-1.40676e-10
-9.30709e-10
-4.71877e-09
-1.55876e-08
-2.18977e-08
-7.6229e-09
-4.87077e-21
-2.26978e-17
-1.98256e-20
-9.73752e-21
-5.80581e-21
-9.09915e-21
-1.01855e-20
-2.47717e-20
-1.63089e-27
-1.75184e-25
-8.77112e-24
-2.70252e-22
-5.71198e-21
-8.74518e-20
-1.00088e-18
-8.74812e-18
-4.45711e-17
-5.94412e-17
-2.15965e-19
-2.15972e-19
-2.15965e-19
-4.64104e-19
-4.64109e-19
-3.56203e-17
-1.70799e-18
-5.01895e-22
-2.55563e-22
-1.46852e-22
-2.42619e-22
-2.34877e-22
-6.02373e-22
-2.61482e-32
-3.41132e-30
-2.09446e-28
-8.01078e-27
-2.13056e-25
-4.1734e-24
-6.23607e-23
-7.26862e-22
-6.75169e-21
-5.08997e-20
-3.22368e-19
-1.48067e-18
-3.66551e-18
-4.82021e-18
-4.7914e-18
-2.90488e-18
-5.84238e-20
-1.04073e-23
-5.27317e-24
-3.00201e-24
-5.37958e-24
-4.55674e-24
-1.2482e-23
-1.80616e-35
-2.39207e-33
-1.4926e-31
-5.81428e-30
-1.57874e-28
-3.16283e-27
-4.82965e-26
-5.72333e-25
-5.32707e-24
-3.8927e-23
-2.23644e-22
-9.84601e-22
-2.4596e-21
-3.29767e-21
-3.12267e-21
-1.55434e-21
-1.3297e-21
-1.79073e-25
-8.52217e-26
-5.01668e-26
-9.89778e-26
-7.45627e-26
-2.20881e-25
-1.55902e-41
-2.31202e-39
-1.65282e-37
-7.56648e-36
-2.48131e-34
-6.18372e-33
-1.21265e-31
-1.91297e-30
-2.46683e-29
-2.6184e-28
-2.30685e-27
-1.68277e-26
-1.02383e-25
-5.17267e-25
-2.21875e-24
-8.29527e-24
-1.65322e-23
-2.57141e-27
-1.08761e-27
-6.87108e-28
-1.50441e-27
-1.03539e-27
-3.34667e-27
-3.22134e-45
-5.65077e-43
-4.70546e-41
-2.47069e-39
-9.15223e-38
-2.53967e-36
-5.47334e-35
-9.37102e-34
-1.29477e-32
-1.45188e-31
-1.33019e-30
-9.93352e-30
-6.20069e-29
-3.54361e-28
-2.32417e-27
-1.71484e-26
-4.70888e-26
-2.95262e-29
-1.10567e-29
-7.69491e-30
-1.88011e-29
-1.22874e-29
-4.35717e-29
-2.62552e-51
-4.44785e-49
-3.56757e-47
-1.80043e-45
-6.40023e-44
-1.70136e-42
-3.50612e-41
-5.72389e-40
-7.52252e-39
-8.0462e-38
-7.2823e-37
-6.42995e-36
-7.89232e-35
-1.41868e-33
-2.5162e-32
-3.22955e-31
-1.16287e-30
-2.3726e-31
-8.99275e-32
-7.03886e-32
-1.93409e-31
-1.25357e-31
-4.88811e-31
-1.43967e-58
-3.77645e-56
-4.78178e-54
-3.89569e-52
-2.29437e-50
-1.04169e-48
-3.79973e-47
-1.14621e-45
-2.92794e-44
-6.45726e-43
-1.25745e-41
-2.21375e-40
-3.64538e-39
-5.79501e-38
-9.08783e-37
-1.3737e-35
-1.86049e-34
-1.07618e-33
-5.81239e-34
-5.26843e-34
-1.64646e-33
-1.10366e-33
-4.73375e-33
-4.60152e-64
-1.17812e-61
-1.44592e-59
-1.13339e-57
-6.38447e-56
-2.77152e-54
-9.86445e-53
-3.1467e-51
-1.04695e-49
-4.17045e-48
-1.91266e-46
-8.76176e-45
-3.65366e-43
-1.32703e-41
-4.06908e-40
-9.94943e-39
-1.68574e-37
-1.23201e-36
-2.9298e-36
-3.24119e-36
-1.168e-35
-8.41404e-36
-3.97477e-35
-8.62048e-70
-3.38369e-67
-6.47878e-65
-8.08117e-63
-7.40262e-61
-5.32875e-59
-3.15716e-57
-1.59595e-55
-7.11792e-54
-2.89746e-52
-1.11616e-50
-4.2068e-49
-1.58524e-47
-5.95983e-46
-2.18913e-44
-7.60244e-43
-2.42441e-41
-6.85871e-40
-1.099e-38
-1.65262e-38
-6.9606e-38
-5.57536e-38
-2.91283e-37
-3.26578e-74
-1.47684e-71
-3.27275e-69
-4.75652e-67
-5.12885e-65
-4.4107e-63
-3.18835e-61
-2.02342e-59
-1.17274e-57
-6.42846e-56
-3.42317e-54
-1.79382e-52
-9.23432e-51
-4.60573e-49
-2.1834e-47
-9.55448e-46
-3.69119e-44
-1.1619e-42
-2.88285e-41
-7.02872e-41
-3.51769e-40
-3.22752e-40
-1.87801e-39
-1.64665e-80
-9.37921e-78
-2.77528e-75
-5.8344e-73
-1.00207e-70
-1.51296e-68
-2.07579e-66
-2.61126e-64
-3.00689e-62
-3.15979e-60
-3.01799e-58
-2.61494e-56
-2.05132e-54
-1.45355e-52
-9.26524e-51
-5.26574e-49
-2.6441e-47
-1.16799e-45
-4.8108e-44
-2.5043e-43
-1.52682e-42
-1.64536e-42
-1.07499e-41
-2.99455e-85
-2.41668e-82
-9.7193e-80
-2.61946e-77
-5.39507e-75
-9.23527e-73
-1.4002e-70
-1.96958e-68
-2.63153e-66
-3.34605e-64
-4.00109e-62
-4.43934e-60
-4.51682e-58
-4.17309e-56
-3.46636e-54
-2.55013e-52
-1.63053e-50
-8.94028e-49
-4.60073e-47
-7.44683e-46
-5.784e-45
-7.46283e-45
-5.5211e-44
-4.02274e-90
-4.09237e-87
-2.05754e-84
-6.85045e-82
-1.71479e-79
-3.49503e-77
-6.17836e-75
-1.00136e-72
-1.55222e-70
-2.34876e-68
-3.44623e-66
-4.80866e-64
-6.24594e-62
-7.41897e-60
-7.919e-58
-7.43598e-56
-6.02547e-54
-4.26577e-52
-3.12518e-50
-1.85743e-48
-1.95306e-47
-3.0502e-47
-2.57494e-46
-6.0682e-96
-8.99159e-93
-6.72671e-90
-3.40696e-87
-1.32265e-84
-4.22966e-82
-1.16787e-79
-2.87957e-77
-6.48203e-75
-1.35101e-72
-2.62348e-70
-4.75972e-68
-8.04835e-66
-1.26237e-63
-1.82586e-61
-2.41932e-59
-2.93542e-57
-3.30554e-55
-3.62664e-53
-3.93016e-51
-6.02137e-50
-1.1406e-49
-1.10548e-48
-1.75187e-102
-4.43426e-99
-5.7204e-96
-5.04762e-93
-3.43989e-90
-1.93738e-87
-9.38872e-85
-4.02149e-82
-1.54327e-79
-5.34768e-77
-1.67273e-74
-4.72408e-72
-1.20501e-69
-2.78585e-67
-5.85944e-65
-1.12391e-62
-1.97232e-60
-3.18639e-58
-4.86412e-56
-7.33951e-54
-1.74371e-52
-3.97364e-52
-4.43385e-51
-6.79581e-110
-2.93367e-106
-6.64091e-103
-1.05505e-99
-1.31902e-96
-1.38278e-93
-1.25781e-90
-1.01407e-87
-7.30198e-85
-4.71996e-82
-2.73649e-79
-1.42302e-76
-6.61438e-74
-2.73786e-71
-1.00577e-68
-3.26914e-66
-9.39987e-64
-2.39991e-61
-5.59135e-59
-1.25873e-56
-4.87341e-55
-1.31703e-54
-1.68911e-53
-2.22746e-118
-1.99593e-114
-9.00206e-111
-2.75582e-107
-6.52357e-104
-1.29878e-100
-2.27885e-97
-3.63316e-94
-5.29974e-91
-7.08634e-88
-8.59565e-85
-9.394e-82
-9.16192e-79
-7.93279e-76
-6.04921e-73
-4.02445e-70
-2.31793e-67
-1.15525e-64
-5.11554e-62
-2.08056e-59
-1.35396e-57
-4.2443e-57
-6.21105e-56
-3.58414e-127
-8.08514e-123
-8.61375e-119
-5.85665e-115
-2.8992e-111
-1.12908e-107
-3.62462e-104
-9.94496e-101
-2.39764e-97
-5.21952e-94
-1.04907e-90
-1.98115e-87
-3.54335e-84
-5.99101e-81
-9.51851e-78
-1.40811e-74
-1.93267e-71
-2.48189e-68
-3.10227e-65
-3.30738e-62
-3.82611e-60
-1.35848e-59
-2.2393e-58
-512.775
-24.9389
-3.27827e-10
-3.27827e-10
-658.662
-450.31
-66.4496
-0.365298
-783.856
-740.775
-268.375
-6.33293
-877.899
-883.222
-492.293
-21.4892
-868.223
-1003.8
-702.389
-72.6477
-626.074
-1126.5
-843.003
-115.432
-164.807
-823.734
-776.362
-176.858
-20.1798
-112.488
-240.677
-136.19
-0.631882
-1.29851
-2.33981
-18.4814
-0.00010378
-6.24148e-05
-0.00174131
-0.0175831
-1.44614e-07
-1.00846e-07
-1.0095e-07
-2.00618e-06
-1.9746e-07
-1.27324e-07
-8.99428e-08
-4.34728e-08
-1.42298e-07
-1.14952e-07
-8.83988e-08
-5.09905e-08
-3.58453e-08
-3.9405e-08
-3.116e-08
-2.2027e-08
-5.32276e-09
-5.8732e-09
-4.52562e-09
-3.15753e-09
-5.8934e-10
-6.38224e-10
-4.72448e-10
-3.10605e-10
-5.04902e-11
-5.3097e-11
-3.71064e-11
-2.29249e-11
-3.46492e-12
-3.507e-12
-2.27914e-12
-1.32655e-12
-1.94863e-13
-1.88566e-13
-1.12984e-13
-6.2307e-14
-9.10976e-15
-8.41767e-15
-4.62782e-15
-2.43591e-15
-3.57503e-16
-3.16478e-16
-1.59508e-16
-8.08356e-17
-1.18936e-17
-1.01329e-17
-4.69485e-18
-2.30871e-18
-3.38275e-19
-2.79031e-19
-1.19334e-19
-5.73579e-20
-8.26842e-21
-6.64623e-21
-2.63687e-21
-1.24666e-21
-1.745e-22
-1.37636e-22
-5.09425e-23
-2.38393e-23
-3.19159e-24
-2.48765e-24
-8.64342e-25
-4.02686e-25
-5.07483e-26
-3.93689e-26
-1.29322e-26
-6.03296e-27
-7.03676e-28
-5.47098e-28
-1.71244e-28
-8.04335e-29
-8.53848e-30
-6.69731e-30
-2.01437e-30
-9.57511e-31
-9.10946e-32
-7.24625e-32
-2.11352e-32
-1.02113e-32
-8.5916e-34
-6.95609e-34
-1.98665e-34
-9.78873e-35
-7.20098e-36
-5.95246e-36
-1.68098e-36
-8.46583e-37
-5.38789e-38
-4.56337e-38
-1.28622e-38
-6.63404e-39
-3.6189e-40
-3.15423e-40
-8.94632e-41
-4.73777e-41
-2.19706e-42
-1.98025e-42
-5.69265e-43
-3.10437e-43
-1.21566e-44
-1.13894e-44
-3.33846e-45
-1.8809e-45
-6.18923e-47
-6.05719e-47
-1.81937e-47
-1.06244e-47
-2.93184e-49
-3.01032e-49
-9.30205e-50
-5.64742e-50
-1.30745e-51
-1.41317e-51
-4.5062e-52
-2.85146e-52
-5.56398e-54
-6.34594e-54
-2.09208e-54
-1.38244e-54
-2.28812e-56
-2.7576e-56
-9.40733e-57
-6.49925e-57
-9.19817e-59
-1.1714e-58
-4.13328e-59
-2.9858e-59
-7.48017e-10
-1.18468e-09
-3.24057e-10
-5.06997e-11
-2.85938e-12
-1.0705e-13
-3.18157e-15
-7.20364e-17
-1.4479e-18
-2.2055e-20
-3.36508e-22
-3.65982e-24
-3.91625e-26
-2.65949e-28
-1.85438e-30
-7.74745e-33
-3.12749e-35
-4.72978e-38
-4.65922e-41
-6.16791e-06
-1.46282e-09
-3.62485e-09
-5.18911e-10
-3.48435e-11
-1.4711e-12
-5.14805e-14
-1.35817e-15
-3.1244e-17
-5.77661e-19
-1.07966e-20
-1.72926e-22
-2.49766e-24
-2.89366e-26
-2.71409e-28
-1.89031e-30
-9.30617e-33
-2.83698e-35
-4.05258e-38
-0.00162109
-1.25356e-08
-1.7192e-08
-3.09963e-09
-2.59039e-10
-1.3002e-11
-5.48875e-13
-1.72236e-14
-4.58276e-16
-9.4461e-18
-1.83238e-19
-2.57671e-21
-2.74334e-23
-2.04535e-25
-1.2268e-27
-5.14445e-30
-1.70933e-32
-4.12406e-35
-5.13664e-38
-0.0138736
-1.87721e-07
-6.62501e-08
-1.52697e-08
-1.53843e-09
-9.14026e-11
-4.53398e-12
-1.82001e-13
-6.04767e-15
-1.60583e-16
-3.46884e-18
-5.92334e-20
-8.03672e-22
-8.3709e-24
-6.63408e-26
-3.80632e-28
-1.51609e-30
-3.69832e-33
-4.2627e-36
-0.122402
-7.21182e-07
-2.2914e-07
-5.74538e-08
-6.95441e-09
-5.53736e-10
-2.9753e-11
-1.09856e-12
-2.87426e-14
-5.4574e-16
-7.90285e-18
-8.84012e-20
-7.90583e-22
-5.56128e-24
-3.12538e-26
-1.39101e-28
-4.54818e-31
-9.78483e-34
-2.00302e-36
-0.29871
-1.11743e-06
-7.4404e-07
-1.3522e-07
-1.82602e-08
-1.94573e-09
-1.34229e-10
-6.23856e-12
-2.04268e-13
-4.86605e-15
-8.68653e-17
-1.16972e-18
-1.21064e-20
-9.55445e-23
-5.74896e-25
-2.54154e-27
-7.9658e-30
-1.57088e-32
-1.50039e-35
-0.794377
-8.74799e-05
-4.06296e-06
-1.47235e-07
-2.70343e-08
-3.38827e-09
-2.33275e-10
-9.65554e-12
-2.61867e-13
-4.89449e-15
-6.60727e-17
-6.60746e-19
-5.05201e-21
-3.01812e-23
-1.40614e-25
-5.04738e-28
-1.32828e-30
-2.30766e-33
-3.66305e-36
-3.67924
-0.00569055
-2.25228e-05
-1.93954e-07
-5.6994e-08
-9.93032e-09
-8.85242e-10
-4.63422e-11
-1.54559e-12
-3.46313e-14
-5.42499e-16
-6.06125e-18
-4.94444e-20
-2.93968e-22
-1.28466e-24
-4.02487e-27
-8.78802e-30
-1.20853e-32
-8.18683e-36
-4.56421
-0.341352
-0.00028841
-8.80136e-07
-5.0615e-08
-7.11367e-09
-5.02853e-10
-2.05521e-11
-5.31095e-13
-9.20675e-15
-1.11552e-16
-9.85741e-19
-6.47216e-21
-3.21609e-23
-1.20692e-25
-3.39091e-28
-6.84651e-31
-9.05881e-34
-6.02905e-37
-0.933601
-0.189062
-0.0106696
-2.97118e-06
-7.90742e-08
-1.34486e-08
-9.15969e-10
-3.36604e-11
-7.65471e-13
-1.15938e-14
-1.22852e-16
-9.37387e-19
-5.27133e-21
-2.1997e-23
-6.86508e-26
-1.58022e-28
-2.63179e-31
-2.92651e-34
-1.71388e-37
-0.000189136
-0.00260356
-0.00105594
-8.38679e-05
-4.11985e-07
-1.12493e-08
-3.53357e-10
-7.31226e-12
-1.08554e-13
-1.20454e-15
-1.00576e-17
-6.35175e-20
-3.03415e-22
-1.10607e-24
-3.09735e-27
-6.73402e-30
-1.10246e-32
-1.2572e-35
-7.71727e-39
-1.71111e-08
-2.84101e-08
-4.71944e-07
-3.92746e-06
-1.98192e-07
-3.66856e-09
-5.43535e-11
-6.57848e-13
-6.72366e-15
-5.88919e-17
-4.30834e-19
-2.57477e-21
-1.22865e-23
-4.66208e-26
-1.40339e-28
-3.33826e-31
-6.11638e-34
-7.86728e-37
-5.38709e-40
-1.15033e-08
-1.97211e-09
-5.54608e-09
-5.39106e-08
-5.16783e-09
-1.12404e-10
-1.67882e-12
-1.98251e-14
-1.95321e-16
-1.64836e-18
-1.16255e-20
-6.77125e-23
-3.19588e-25
-1.23103e-27
-3.85945e-30
-9.84266e-33
-1.95387e-35
-2.71211e-38
-1.95669e-41
-3.3592e-09
-4.44565e-10
-6.00734e-10
-1.4723e-09
-1.2275e-10
-2.61295e-12
-3.85286e-14
-4.59459e-16
-4.58354e-18
-3.91152e-20
-2.77067e-22
-1.63597e-24
-7.96353e-27
-3.25255e-29
-1.10736e-31
-3.10119e-34
-6.70005e-37
-9.89348e-40
-7.40521e-43
-4.77051e-10
-5.47547e-11
-4.11556e-11
-3.73092e-11
-2.43347e-12
-5.03954e-14
-7.43816e-16
-9.07487e-18
-9.17013e-20
-7.8735e-22
-5.58206e-24
-3.34815e-26
-1.68678e-28
-7.29609e-31
-2.64875e-33
-7.87101e-36
-1.7687e-38
-2.67003e-41
-2.00995e-44
-4.58507e-11
-4.69979e-12
-2.05964e-12
-8.51693e-13
-4.20854e-14
-8.92985e-16
-1.3424e-17
-1.68075e-19
-1.7109e-21
-1.48307e-23
-1.06602e-25
-6.6345e-28
-3.51975e-30
-1.61976e-32
-6.19724e-35
-1.91245e-37
-4.37907e-40
-6.64861e-43
-4.98608e-46
-3.23076e-12
-3.14238e-13
-8.0881e-14
-1.79929e-14
-7.11612e-16
-1.51609e-17
-2.28361e-19
-2.88912e-21
-2.92546e-23
-2.56406e-25
-1.88003e-27
-1.21911e-29
-6.7465e-32
-3.22975e-34
-1.26352e-36
-3.93971e-39
-8.99659e-42
-1.35582e-44
-1.00467e-47
-1.77374e-13
-1.69398e-14
-2.64182e-15
-3.62684e-16
-1.18769e-17
-2.52826e-19
-3.74422e-21
-4.76692e-23
-4.80926e-25
-4.31613e-27
-3.25144e-29
-2.19434e-31
-1.24776e-33
-6.09393e-36
-2.39045e-38
-7.4261e-41
-1.67513e-43
-2.4907e-46
-1.81689e-49
-7.88409e-15
-7.539e-16
-7.4333e-17
-7.08073e-18
-1.9137e-19
-4.06238e-21
-5.77249e-23
-7.42551e-25
-7.46543e-27
-6.9061e-29
-5.2987e-31
-3.66871e-33
-2.09633e-35
-1.02565e-37
-3.97378e-40
-1.21952e-42
-2.70302e-45
-3.95917e-48
-2.84351e-51
-2.91609e-16
-2.8272e-17
-1.85427e-18
-1.34735e-19
-3.03552e-21
-6.33143e-23
-8.55096e-25
-1.12963e-26
-1.13239e-28
-1.08131e-30
-8.32952e-33
-5.83516e-35
-3.29559e-37
-1.59917e-39
-6.06833e-42
-1.83244e-44
-3.97628e-47
-5.72561e-50
-4.04196e-53
-9.12306e-18
-9.07453e-19
-4.1594e-20
-2.48633e-21
-4.7254e-23
-9.81651e-25
-1.20069e-26
-1.65328e-28
-1.62292e-30
-1.59251e-32
-1.2055e-34
-8.46481e-37
-4.663e-39
-2.2357e-41
-8.26861e-44
-2.45693e-46
-5.21569e-49
-7.38916e-52
-5.1201e-55
-2.44734e-19
-2.52617e-20
-8.49726e-22
-4.4505e-23
-7.23273e-25
-1.5239e-26
-1.69846e-28
-2.37778e-30
-2.2284e-32
-2.24185e-34
-1.64145e-36
-1.15123e-38
-6.13982e-41
-2.90741e-43
-1.04531e-45
-3.05895e-48
-6.34997e-51
-8.86682e-54
-6.04183e-57
-5.6853e-21
-6.16159e-22
-1.58785e-23
-7.70127e-25
-1.08232e-26
-2.34644e-28
-2.38374e-30
-3.40702e-32
-2.92251e-34
-2.93583e-36
-2.0335e-38
-1.43101e-40
-7.3199e-43
-3.43851e-45
-1.19805e-47
-3.46499e-50
-7.02978e-53
-9.69929e-56
-6.51429e-59
-1.15278e-22
-1.3274e-23
-2.72429e-25
-1.28249e-26
-1.57593e-28
-3.54697e-30
-3.27722e-32
-4.78205e-34
-3.73132e-36
-3.75214e-38
-2.37053e-40
-1.67579e-42
-8.18004e-45
-3.83198e-47
-1.29205e-49
-3.70567e-52
-7.35029e-55
-1.00417e-57
-6.65285e-61
-2.05486e-24
-2.5426e-25
-4.29155e-27
-2.03617e-28
-2.20465e-30
-5.17933e-32
-4.33918e-34
-6.47309e-36
-4.58647e-38
-4.63478e-40
-2.67721e-42
-1.88329e-44
-8.52411e-47
-3.95668e-49
-1.28231e-51
-3.67068e-54
-7.09989e-57
-9.63453e-60
-6.29778e-63
-3.23932e-26
-4.35143e-27
-6.20408e-29
-3.05171e-30
-2.93327e-32
-7.22115e-34
-5.4855e-36
-8.38683e-38
-5.40739e-40
-5.51142e-42
-2.92275e-44
-2.05454e-46
-8.65193e-49
-3.99777e-51
-1.22646e-53
-3.48434e-56
-6.56581e-59
-8.87491e-62
-5.72408e-65
-4.54221e-28
-6.68506e-29
-8.2296e-31
-4.28199e-32
-3.67749e-34
-9.52382e-36
-6.57026e-38
-1.03363e-39
-6.08692e-42
-6.28808e-44
-3.07695e-46
-2.17157e-48
-8.54718e-51
-3.94675e-53
-1.14968e-55
-3.25331e-58
-5.92518e-61
-7.9421e-64
-5.03627e-67
-5.69516e-30
-9.25536e-31
-1.00235e-32
-5.59471e-34
-4.32411e-36
-1.18303e-37
-7.44187e-40
-1.21005e-41
-6.5427e-44
-6.882e-46
-3.12454e-48
-2.22251e-50
-8.21455e-53
-3.80218e-55
-1.0552e-57
-2.98104e-60
-5.25685e-63
-6.99924e-66
-4.36829e-69
-6.41609e-32
-1.15907e-32
-1.12263e-34
-6.7893e-36
-4.7583e-38
-1.38135e-39
-7.96301e-42
-1.34442e-43
-6.71047e-46
-7.22006e-48
-3.0579e-50
-2.20087e-52
-7.67683e-55
-3.57236e-57
-9.48114e-60
-2.67966e-62
-4.58583e-65
-6.075e-68
-3.73587e-71
-6.52663e-34
-1.31776e-34
-1.15912e-36
-7.64929e-38
-4.90299e-40
-1.51672e-41
-8.06264e-44
-1.41945e-45
-6.57888e-48
-7.26974e-50
-2.88793e-52
-2.10998e-54
-6.9802e-57
-3.27311e-59
-8.33778e-62
-2.36077e-64
-3.92994e-67
-5.18639e-70
-3.14585e-73
-6.02346e-36
-1.36537e-36
-1.10674e-38
-8.01071e-40
-4.73929e-42
-1.56817e-43
-7.73954e-46
-1.42621e-47
-6.17412e-50
-7.03216e-52
-2.634e-54
-1.95923e-56
-6.17662e-59
-2.92511e-61
-7.17749e-64
-2.0389e-66
-3.30928e-69
-4.35605e-72
-2.60899e-75
-5.07193e-38
-1.29411e-38
-9.81182e-41
-7.815e-42
-4.31078e-44
-1.53027e-45
-7.065e-48
-1.36693e-49
-5.56141e-52
-6.54822e-54
-2.32492e-56
-1.7645e-58
-5.32543e-61
-2.55157e-63
-6.05133e-66
-1.72644e-68
-2.73802e-71
-3.59799e-74
-2.13003e-77
-3.92291e-40
-1.1258e-40
-8.11472e-43
-7.12265e-44
-3.7033e-46
-1.41327e-47
-6.15254e-50
-1.2528e-51
-4.82076e-54
-5.88166e-56
-1.98979e-58
-1.54369e-60
-4.47934e-63
-2.17493e-65
-5.00118e-68
-1.43452e-70
-2.22737e-73
-2.9246e-76
-1.71296e-79
-2.80618e-42
-9.02561e-43
-6.2935e-45
-6.08552e-46
-3.01771e-48
-1.23921e-49
-5.13052e-52
-1.10115e-53
-4.03429e-56
-5.10851e-58
-1.65551e-60
-1.31458e-62
-3.68236e-65
-1.8142e-67
-4.05692e-70
-1.17083e-72
-1.78306e-75
-2.34082e-78
-1.35757e-81
-1.86824e-44
-6.70222e-45
-4.60293e-47
-4.8929e-48
-2.34326e-50
-1.03524e-51
-4.11275e-54
-9.31081e-56
-3.2702e-58
-4.30188e-60
-1.34252e-62
-1.0922e-64
-2.96462e-67
-1.48358e-69
-3.23538e-72
-9.4013e-75
-1.40654e-77
-1.84726e-80
-1.06157e-83
-1.16521e-46
-4.63824e-47
-3.19346e-49
-3.71836e-50
-1.74237e-52
-8.27032e-54
-3.18243e-56
-7.59826e-58
-2.5767e-60
-3.52211e-62
-1.06418e-64
-8.87468e-67
-2.34285e-69
-1.1917e-71
-2.54135e-74
-7.43892e-77
-1.09504e-79
-1.43928e-82
-8.20095e-86
-6.85412e-49
-3.01194e-49
-2.11409e-51
-2.68442e-52
-1.24685e-54
-6.34397e-56
-2.38731e-58
-6.0056e-60
-1.98068e-62
-2.81226e-64
-8.27029e-67
-7.07145e-69
-1.822e-71
-9.42367e-74
-1.97026e-76
-5.81196e-79
-8.42993e-82
-1.10914e-84
-6.26946e-88
-3.83173e-51
-1.84934e-51
-1.34368e-53
-1.85159e-54
-8.63144e-57
-4.69253e-58
-1.74362e-60
-4.61371e-62
-1.49064e-64
-2.19644e-66
-6.32008e-69
-5.53976e-71
-1.39796e-73
-7.35225e-76
-1.51088e-78
-4.49241e-81
-6.42958e-84
-8.46945e-87
-4.75141e-90
-2.05143e-53
-1.0823e-53
-8.24961e-56
-1.22764e-56
-5.80984e-59
-3.3627e-60
-1.24528e-62
-3.45824e-64
-1.10237e-66
-1.68347e-68
-4.76396e-71
-4.27874e-73
-1.06112e-75
-5.67312e-78
-1.14864e-80
-3.44282e-83
-4.86875e-86
-6.4212e-89
-3.57664e-92
-1.06124e-55
-6.0905e-56
-4.92554e-58
-7.87506e-59
-3.82224e-61
-2.34601e-62
-8.73361e-65
-2.53867e-66
-8.03848e-69
-1.27016e-70
-3.55243e-73
-3.26673e-75
-7.98865e-78
-4.33923e-80
-8.67639e-83
-2.62122e-85
-3.66767e-88
-4.84276e-91
-2.67918e-94
-5.34882e-58
-3.32313e-58
-2.87818e-60
-4.91963e-61
-2.47023e-63
-1.60154e-64
-6.03973e-67
-1.83246e-68
-5.79942e-71
-9.46408e-73
-2.62816e-75
-2.47197e-77
-5.98036e-80
-3.29777e-82
-6.52617e-85
-1.98685e-87
-2.75432e-90
-3.64073e-93
-2.00126e-96
-2.6402e-60
-1.76581e-60
-1.64893e-62
-2.99704e-63
-1.56734e-65
-1.06877e-66
-4.10892e-69
-1.2971e-70
-4.12511e-73
-6.93718e-75
-1.92081e-77
-1.84539e-79
-4.43041e-82
-2.47763e-84
-4.86278e-87
-1.49122e-89
-2.05076e-92
-2.71313e-95
-1.48228e-98
)
;

boundaryField
{
    leftWall
    {
        type            calculated;
        value           nonuniform List<scalar> 
50
(
-29.4294
-88.2881
-147.147
-206.006
-264.864
-323.723
-382.582
-441.44
-533.467
-658.662
-783.856
-909.051
-1034.25
-1159.44
-1284.63
-1409.83
-1535.02
-1660.22
-1778.92
-1361.74
-138.131
-1.31575e-34
-1.69295e-17
-7.64496e-17
-1.6348e-16
-2.36239e-16
-2.30191e-16
-1.15974e-16
-9.65378e-18
-1.25508e-20
-4.06488e-21
-1.03295e-23
-1.63089e-27
-2.61482e-32
-1.80616e-35
-1.55902e-41
-3.22134e-45
-2.62552e-51
-1.43967e-58
-4.60152e-64
-8.62048e-70
-3.26578e-74
-1.64665e-80
-2.99455e-85
-4.02274e-90
-6.0682e-96
-1.75187e-102
-6.79581e-110
-2.22746e-118
-3.58414e-127
)
;
    }
    rightWall
    {
        type            calculated;
        value           nonuniform List<scalar> 
50
(
-1.76153e-58
-9.1064e-56
-2.51012e-53
-5.43387e-51
-5.80185e-49
-8.60161e-47
-4.95474e-45
-6.81505e-43
-4.65922e-41
-4.05258e-38
-5.13664e-38
-4.2627e-36
-2.00302e-36
-1.50039e-35
-3.66305e-36
-8.18683e-36
-6.02905e-37
-1.71388e-37
-7.71727e-39
-5.38709e-40
-1.95669e-41
-7.40521e-43
-2.00995e-44
-4.98608e-46
-1.00467e-47
-1.81689e-49
-2.84351e-51
-4.04196e-53
-5.1201e-55
-6.04183e-57
-6.51429e-59
-6.65285e-61
-6.29778e-63
-5.72408e-65
-5.03627e-67
-4.36829e-69
-3.73587e-71
-3.14585e-73
-2.60899e-75
-2.13003e-77
-1.71296e-79
-1.35757e-81
-1.06157e-83
-8.20095e-86
-6.26946e-88
-4.75141e-90
-3.57664e-92
-2.67918e-94
-2.00126e-96
-1.48228e-98
)
;
    }
    lowerWall
    {
        type            calculated;
        value           nonuniform List<scalar> 
62
(
0
0
0
0
0
0
0
0
0
0
0
0
0
0
0
0
0
0
0
0
0
0
0
-28.667
-86.7066
-144.485
-198.207
-254.349
-310.875
-367.392
-424.81
-452.606
-22.0125
-2.89359e-10
-2.89359e-10