/*--------------------------------*- C++ -*----------------------------------*\
| =========                 |                                                 |
| \\      /  F ield         | OpenFOAM: The Open Source CFD Toolbox           |
|  \\    /   O peration     | Version:  2012                                  |
|   \\  /    A nd           | Website:  www.openfoam.com                      |
|    \\/     M anipulation  |                                                 |
\*---------------------------------------------------------------------------*/
FoamFile
{
    version     2.0;
    format      ascii;
    class       volVectorField;
    location    "0.17";
    object      Uc;
}
// * * * * * * * * * * * * * * * * * * * * * * * * * * * * * * * * * * * * * //

dimensions      [0 1 -1 0 0 0 0];


internalField   nonuniform List<vector> 
2268
(
(0.0310217 -0.0146606 0)
(0.093184 -0.0147167 0)
(0.155967 -0.0149539 0)
(0.219793 -0.0152101 0)
(0.28472 -0.0154739 0)
(0.35138 -0.0160287 0)
(0.419875 -0.0163414 0)
(0.490003 -0.016801 0)
(0.562195 -0.017316 0)
(0.636161 -0.01764 0)
(0.710757 -0.0176136 0)
(0.78499 -0.0174682 0)
(0.85732 -0.0167144 0)
(0.927439 -0.0164233 0)
(0.989339 -0.0128301 0)
(1.03422 -0.0083786 0)
(1.0561 -0.001963 0)
(1.04588 0.00679439 0)
(0.995292 0.0171113 0)
(0.89589 0.0298654 0)
(0.733116 0.0470602 0)
(0.499147 0.063512 0)
(0.182378 0.0862227 0)
(0.0309754 -0.04396 0)
(0.093072 -0.0441411 0)
(0.155783 -0.0448368 0)
(0.219522 -0.0456136 0)
(0.284382 -0.0464069 0)
(0.350991 -0.0480773 0)
(0.419474 -0.0490276 0)
(0.489631 -0.0504124 0)
(0.561871 -0.0519616 0)
(0.635975 -0.0529716 0)
(0.710913 -0.0529506 0)
(0.785504 -0.0524639 0)
(0.858375 -0.0503398 0)
(0.929037 -0.0493297 0)
(0.991944 -0.0389063 0)
(1.03833 -0.0254319 0)
(1.06244 -0.00664543 0)
(1.05672 0.0190121 0)
(1.01005 0.0508522 0)
(0.911685 0.0895885 0)
(0.748918 0.141185 0)
(0.51346 0.191235 0)
(0.188795 0.261692 0)
(0.0308866 -0.0731954 0)
(0.0928457 -0.0735334 0)
(0.155405 -0.0746464 0)
(0.218973 -0.075968 0)
(0.283703 -0.0772959 0)
(0.35021 -0.0800979 0)
(0.418669 -0.0817247 0)
(0.488885 -0.0840542 0)
(0.561243 -0.0866559 0)
(0.635641 -0.0884585 0)
(0.711234 -0.0886031 0)
(0.786711 -0.0877322 0)
(0.861007 -0.0846217 0)
(0.933052 -0.08249 0)
(0.998017 -0.0661772 0)
(1.04853 -0.0439542 0)
(1.07864 -0.013746 0)
(1.08244 0.0270195 0)
(1.04707 0.0816143 0)
(0.957508 0.14764 0)
(0.795316 0.236707 0)
(0.546158 0.32474 0)
(0.199768 0.445369 0)
(0.0307587 -0.102329 0)
(0.0924889 -0.102855 0)
(0.154803 -0.104339 0)
(0.218129 -0.106244 0)
(0.282667 -0.108111 0)
(0.34901 -0.112067 0)
(0.417409 -0.114433 0)
(0.487688 -0.117742 0)
(0.560194 -0.12143 0)
(0.634959 -0.124178 0)
(0.711303 -0.124687 0)
(0.788024 -0.123576 0)
(0.864335 -0.119954 0)
(0.938218 -0.116123 0)
(1.00494 -0.0947804 0)
(1.06027 -0.0653685 0)
(1.09758 -0.0241942 0)
(1.10861 0.0304578 0)
(1.07989 0.108462 0)
(0.991908 0.2047 0)
(0.824102 0.335601 0)
(0.565211 0.465945 0)
(0.206523 0.637461 0)
(0.0305879 -0.13132 0)
(0.0919748 -0.132047 0)
(0.153942 -0.133881 0)
(0.216963 -0.136413 0)
(0.281248 -0.138824 0)
(0.347364 -0.143954 0)
(0.415658 -0.147146 0)
(0.486006 -0.151488 0)
(0.55872 -0.156314 0)
(0.633981 -0.160194 0)
(0.711341 -0.16131 0)
(0.78981 -0.160295 0)
(0.868826 -0.156641 0)
(0.94582 -0.150739 0)
(1.01682 -0.125251 0)
(1.07966 -0.090742 0)
(1.12844 -0.0395062 0)
(1.15567 0.0276873 0)
(1.14731 0.128755 0)
(1.08143 0.257121 0)
(0.929253 0.434403 0)
(0.665203 0.614281 0)
(0.251746 0.854149 0)
(0.0303678 -0.160128 0)
(0.0913137 -0.161053 0)
(0.152838 -0.163236 0)
(0.215463 -0.166437 0)
(0.279416 -0.169403 0)
(0.345229 -0.175723 0)
(0.413343 -0.179842 0)
(0.483721 -0.185298 0)
(0.556645 -0.191332 0)
(0.63242 -0.196554 0)
(0.710851 -0.198576 0)
(0.791216 -0.198093 0)
(0.872906 -0.194791 0)
(0.953488 -0.187058 0)
(1.03007 -0.158675 0)
(1.10068 -0.12039 0)
(1.1602 -0.0610395 0)
(1.20108 0.0170311 0)
(1.20383 0.142068 0)
(1.1386 0.305763 0)
(0.974067 0.535438 0)
(0.682637 0.775762 0)
(0.251328 1.09204 0)
(0.0300927 -0.188701 0)
(0.090494 -0.189828 0)
(0.151478 -0.192358 0)
(0.21361 -0.196274 0)
(0.277153 -0.199819 0)
(0.342596 -0.207338 0)
(0.41047 -0.212495 0)
(0.480857 -0.21917 0)
(0.554045 -0.226511 0)
(0.630466 -0.233302 0)
(0.710224 -0.236586 0)
(0.792899 -0.237134 0)
(0.877993 -0.234571 0)
(0.963399 -0.225722 0)
(1.04747 -0.19593 0)
(1.12877 -0.154932 0)
(1.20409 -0.0902205 0)
(1.26558 -0.00216643 0)
(1.29124 0.147843 0)
(1.25314 0.348819 0)
(1.11593 0.634984 0)
(0.839063 0.944792 0)
(0.330692 1.3673 0)
(0.029772 -0.216992 0)
(0.0895383 -0.218327 0)
(0.1499 -0.221207 0)
(0.211456 -0.22588 0)
(0.274484 -0.23003 0)
(0.339445 -0.238754 0)
(0.406969 -0.245067 0)
(0.477289 -0.253096 0)
(0.550703 -0.261868 0)
(0.627726 -0.270463 0)
(0.708727 -0.275399 0)
(0.793611 -0.277508 0)
(0.882028 -0.276197 0)
(0.972261 -0.267102 0)
(1.06381 -0.237546 0)
(1.15607 -0.195344 0)
(1.24714 -0.128443 0)
(1.32669 -0.0305986 0)
(1.36799 0.144632 0)
(1.34462 0.381083 0)
(1.21293 0.729797 0)
(0.907519 1.12517 0)
(0.351772 1.69003 0)
(-0.047715 0.0202896 0)
(-0.137468 0.0178723 0)
(-0.194399 0.00632648 0)
(-0.205384 -0.00167257 0)
(-0.19219 -0.00396016 0)
(-0.168164 -0.00628005 0)
(-0.1386 -0.00631696 0)
(-0.110252 -0.0057625 0)
(-0.0845866 -0.00517643 0)
(-0.0628261 -0.00410113 0)
(-0.0452387 -0.0034013 0)
(-0.0314543 -0.00248321 0)
(-0.0210414 -0.00196693 0)
(-0.0134193 -0.00129598 0)
(-0.00810766 -0.000983931 0)
(-0.00454135 -0.000553411 0)
(-0.00235338 -0.000397461 0)
(-0.00102957 -0.000185762 0)
(-0.000308225 -0.00014111 0)
(-0.0515793 0.0625123 0)
(-0.14261 0.0525165 0)
(-0.193598 0.017552 0)
(-0.201136 -0.00505683 0)
(-0.188192 -0.0117348 0)
(-0.164869 -0.0186872 0)
(-0.135897 -0.018852 0)
(-0.108057 -0.0171704 0)
(-0.0828281 -0.0154605 0)
(-0.0613361 -0.0122579 0)
(-0.0439775 -0.010152 0)
(-0.0303939 -0.0074161 0)
(-0.0201601 -0.0058582 0)
(-0.0127034 -0.00386018 0)
(-0.00753908 -0.00291686 0)
(-0.00411484 -0.00163472 0)
(-0.00205409 -0.0011638 0)
(-0.000854726 -0.000532915 0)
(-0.0002494 -0.000398286 0)
(-0.0568683 0.10863 0)
(-0.16491 0.091046 0)
(-0.228681 0.0278018 0)
(-0.232034 -0.0107115 0)
(-0.208018 -0.0218422 0)
(-0.17567 -0.0323018 0)
(-0.141537 -0.0321228 0)
(-0.110575 -0.0289549 0)
(-0.0837043 -0.0258804 0)
(-0.0615082 -0.0204642 0)
(-0.043823 -0.0168947 0)
(-0.0301411 -0.0123133 0)
(-0.0199037 -0.0097105 0)
(-0.0124878 -0.00637559 0)
(-0.0073788 -0.00481234 0)
(-0.00399713 -0.00267491 0)
(-0.00198095 -0.00189818 0)
(-0.000810913 -0.000846549 0)
(-0.000238205 -0.000625666 0)
(-0.0639461 0.160008 0)
(-0.172252 0.131663 0)
(-0.221864 0.0353778 0)
(-0.216942 -0.0189923 0)
(-0.194046 -0.0335571 0)
(-0.165416 -0.0465663 0)
(-0.133499 -0.0459963 0)
(-0.103825 -0.0409169 0)
(-0.0782074 -0.0362881 0)
(-0.0568779 -0.0286136 0)
(-0.0399461 -0.0235128 0)
(-0.0269136 -0.0171008 0)
(-0.0172365 -0.0134357 0)
(-0.0103288 -0.00878446 0)
(-0.00566853 -0.00659988 0)
(-0.00271422 -0.00362313 0)
(-0.00108009 -0.00254299 0)
(-0.000284645 -0.00107783 0)
(-6.11212e-05 -0.000772981 0)
(-0.0843577 0.223082 0)
(-0.237422 0.179738 0)
(-0.30624 0.0376427 0)
(-0.282225 -0.0336036 0)
(-0.232464 -0.0498928 0)
(-0.184354 -0.0629146 0)
(-0.14277 -0.0609557 0)
(-0.107982 -0.0534204 0)
(-0.0795624 -0.0468135 0)
(-0.0570447 -0.036782 0)
(-0.0395517 -0.0300302 0)
(-0.0263886 -0.0217683 0)
(-0.0167362 -0.017032 0)
(-0.00992432 -0.0110652 0)
(-0.00537734 -0.00827636 0)
(-0.002508 -0.00446438 0)
(-0.000957337 -0.00309661 0)
(-0.00021165 -0.00121975 0)
(-4.36428e-05 -0.000837519 0)
(-0.0853176 0.295248 0)
(-0.227005 0.232921 0)
(-0.280818 0.0365862 0)
(-0.254473 -0.0540067 0)
(-0.208452 -0.0702734 0)
(-0.16688 -0.0807236 0)
(-0.129466 -0.0767928 0)
(-0.0968564 -0.0662946 0)
(-0.07035 -0.0573463 0)
(-0.0492601 -0.0448411 0)
(-0.0330621 -0.0363447 0)
(-0.020976 -0.0262361 0)
(-0.0122768 -0.020412 0)
(-0.00631919 -0.0131581 0)
(-0.00252786 -0.00977101 0)
(-0.00037174 -0.00514781 0)
(0.000541261 -0.00350119 0)
(0.000662735 -0.00122397 0)
(0.000250725 -0.00076931 0)
(-0.137639 0.390084 0)
(-0.361556 0.293574 0)
(-0.421269 0.0241842 0)
(-0.347547 -0.0842073 0)
(-0.260199 -0.0968453 0)
(-0.191182 -0.101235 0)
(-0.140533 -0.0937836 0)
(-0.101512 -0.0798158 0)
(-0.0714565 -0.0679281 0)
(-0.0490191 -0.052817 0)
(-0.0322397 -0.0424388 0)
(-0.0201261 -0.0304777 0)
(-0.0115368 -0.0235657 0)
(-0.00575183 -0.0150403 0)
(-0.0021346 -0.0110807 0)
(-0.000101743 -0.00566023 0)
(0.0006963 -0.00375653 0)
(0.000754611 -0.00108494 0)
(0.000271181 -0.000567088 0)
(-0.123837 0.50131 0)
(-0.303021 0.353791 0)
(-0.340064 0.00508335 0)
(-0.294922 -0.115705 0)
(-0.231958 -0.129327 0)
(-0.170497 -0.124297 0)
(-0.124162 -0.112019 0)
(-0.0872251 -0.093934 0)
(-0.059094 -0.078604 0)
(-0.0382932 -0.0605759 0)
(-0.0232236 -0.0482698 0)
(-0.012512 -0.0343977 0)
(-0.00528472 -0.026415 0)
(-0.000699364 -0.0166432 0)
(0.00184012 -0.0121372 0)
(0.00287166 -0.00594738 0)
(0.00277196 -0.0038063 0)
(0.00196815 -0.000757771 0)
(0.000682402 -0.000181229 0)
(0.0292002 -0.260415 0)
(0.0878321 -0.262087 0)
(0.147086 -0.265536 0)
(0.207576 -0.271446 0)
(0.269619 -0.276618 0)
(0.333677 -0.287259 0)
(0.4005 -0.295645 0)
(0.470538 -0.306154 0)
(0.544205 -0.317556 0)
(0.62219 -0.329567 0)
(0.705264 -0.338083 0)
(0.793928 -0.344066 0)
(0.888295 -0.346284 0)
(0.987664 -0.339546 0)
(1.09333 -0.314581 0)
(1.2057 -0.274871 0)
(1.32433 -0.211207 0)
(1.43353 -0.0952003 0)
(1.51987 0.102929 0)
(1.57203 0.381456 0)
(1.5796 0.784111 0)
(1.5015 1.2937 0)
(1.38142 1.93914 0)
(0.0282261 -0.318141 0)
(0.0849173 -0.320286 0)
(0.142255 -0.324537 0)
(0.200863 -0.332165 0)
(0.26114 -0.338857 0)
(0.323564 -0.352162 0)
(0.388964 -0.363655 0)
(0.458077 -0.378022 0)
(0.531574 -0.39362 0)
(0.610413 -0.411145 0)
(0.695837 -0.425883 0)
(0.789231 -0.439274 0)
(0.891714 -0.448955 0)
(1.00446 -0.450096 0)
(1.12983 -0.436273 0)
(1.26938 -0.406416 0)
(1.41828 -0.34859 0)
(1.56741 -0.21664 0)
(1.7189 -0.013847 0)
(1.8448 0.319272 0)
(1.88449 0.798794 0)
(1.81257 1.42984 0)
(1.71985 2.06274 0)
(0.0269813 -0.373637 0)
(0.081176 -0.376255 0)
(0.136011 -0.381326 0)
(0.192111 -0.390685 0)
(0.249959 -0.399079 0)
(0.310051 -0.415096 0)
(0.373269 -0.43001 0)
(0.440582 -0.448804 0)
(0.512952 -0.469467 0)
(0.591636 -0.493643 0)
(0.678301 -0.516373 0)
(0.775272 -0.540143 0)
(0.885467 -0.561874 0)
(1.01127 -0.576974 0)
(1.15387 -0.578759 0)
(1.3108 -0.561955 0)
(1.47432 -0.507104 0)
(1.64189 -0.375632 0)
(1.80158 -0.166731 0)
(1.90758 0.240886 0)
(1.93383 0.817463 0)
(1.83447 1.59438 0)
(1.65001 2.19636 0)
(0.025523 -0.426415 0)
(0.0767869 -0.429486 0)
(0.128677 -0.435377 0)
(0.181788 -0.446414 0)
(0.236646 -0.456644 0)
(0.293755 -0.475342 0)
(0.353972 -0.493843 0)
(0.418383 -0.517382 0)
(0.488103 -0.54372 0)
(0.564731 -0.575513 0)
(0.650329 -0.607666 0)
(0.748043 -0.644551 0)
(0.862448 -0.683239 0)
(0.996321 -0.716646 0)
(1.14497 -0.731844 0)
(1.2987 -0.721153 0)
(1.44691 -0.661298 0)
(1.57906 -0.522009 0)
(1.6985 -0.297902 0)
(1.81258 0.155997 0)
(1.88098 0.815575 0)
(1.76955 1.82121 0)
(1.53612 2.39778 0)
(0.0237873 -0.475982 0)
(0.0715599 -0.479472 0)
(0.119925 -0.48617 0)
(0.169385 -0.498727 0)
(0.220464 -0.510822 0)
(0.273655 -0.53204 0)
(0.329725 -0.55404 0)
(0.389838 -0.582359 0)
(0.455205 -0.614535 0)
(0.527526 -0.654426 0)
(0.609357 -0.697056 0)
(0.704414 -0.748938 0)
(0.818967 -0.809004 0)
(0.955088 -0.862285 0)
(1.09719 -0.878465 0)
(1.22909 -0.861703 0)
(1.34814 -0.788504 0)
(1.47015 -0.64662 0)
(1.5975 -0.41632 0)
(1.71353 0.0465336 0)
(1.74485 0.82658 0)
(1.57892 2.0911 0)
(1.3374 2.60565 0)
(0.0218263 -0.521834 0)
(0.0656607 -0.525705 0)
(0.110042 -0.533167 0)
(0.155362 -0.547005 0)
(0.20212 -0.560892 0)
(0.25075 -0.584322 0)
(0.301843 -0.609481 0)
(0.356387 -0.642174 0)
(0.415465 -0.679814 0)
(0.480505 -0.727224 0)
(0.554271 -0.780667 0)
(0.640912 -0.847974 0)
(0.745976 -0.930731 0)
(0.878265 -1.01037 0)
(1.00783 -1.00348 0)
(1.12567 -0.987227 0)
(1.26659 -0.920956 0)
(1.39532 -0.761409 0)
(1.39028 -0.422358 0)
(1.2635 0.0635269 0)
(1.17637 0.865732 0)
(1.15636 2.23892 0)
(1.11809 2.74106 0)
(0.0196988 -0.563576 0)
(0.0592611 -0.567795 0)
(0.0992724 -0.57591 0)
(0.139953 -0.59071 0)
(0.181739 -0.606193 0)
(0.224819 -0.63121 0)
(0.269586 -0.658953 0)
(0.31669 -0.694881 0)
(0.367165 -0.737232 0)
(0.422096 -0.790404 0)
(0.483772 -0.853637 0)
(0.555303 -0.934002 0)
(0.628802 -1.0242 0)
(0.784952 -1.07601 0)
(0.963494 -1.11717 0)
(1.08179 -1.10894 0)
(1.15451 -1.0097 0)
(1.02411 -0.669077 0)
(0.705998 -0.189796 0)
(0.466612 0.199082 0)
(0.519925 0.764198 0)
(0.785792 2.09337 0)
(0.953795 2.7586 0)
(0.0174219 -0.600891 0)
(0.0524 -0.60541 0)
(0.0876368 -0.613936 0)
(0.123255 -0.629381 0)
(0.159627 -0.646088 0)
(0.196757 -0.671944 0)
(0.234849 -0.701511 0)
(0.274126 -0.739155 0)
(0.315462 -0.785247 0)
(0.359259 -0.841631 0)
(0.408597 -0.914005 0)
(0.470456 -1.00772 0)
(0.548721 -1.10304 0)
(0.666591 -1.14296 0)
(0.780704 -1.21401 0)
(0.832032 -1.1799 0)
(0.683813 -0.860829 0)
(0.283089 -0.283989 0)
(-0.0416455 0.0713587 0)
(-0.0955728 0.232813 0)
(0.0955494 0.4848 0)
(0.475513 1.72363 0)
(0.793068 2.64079 0)
(0.0152637 -0.633747 0)
(0.0458911 -0.638502 0)
(0.0765822 -0.647116 0)
(0.107379 -0.662963 0)
(0.138422 -0.680273 0)
(0.169571 -0.706394 0)
(0.200742 -0.736685 0)
(0.232319 -0.775206 0)
(0.265064 -0.823666 0)
(0.299857 -0.882212 0)
(0.338004 -0.961369 0)
(0.385636 -1.07046 0)
(0.450824 -1.18649 0)
(0.542508 -1.27267 0)
(0.63691 -1.29303 0)
(0.533872 -1.04733 0)
(0.130559 -0.438831 0)
(-0.228743 0.05805 0)
(-0.322 0.149532 0)
(-0.302638 0.189429 0)
(-0.202117 0.235069 0)
(0.111525 1.27619 0)
(0.529637 2.3488 0)
(0.0132547 -0.662414 0)
(0.0397566 -0.667262 0)
(0.0660971 -0.675685 0)
(0.0922091 -0.6916 0)
(0.118314 -0.709082 0)
(0.144606 -0.735326 0)
(0.171204 -0.765824 0)
(0.198573 -0.805322 0)
(0.226796 -0.854851 0)
(0.256012 -0.915623 0)
(0.284765 -0.996769 0)
(0.324726 -1.12756 0)
(0.404964 -1.2803 0)
(0.490129 -1.35741 0)
(0.448228 -1.25996 0)
(0.135504 -0.662158 0)
(-0.268626 -0.0123034 0)
(-0.451801 0.17687 0)
(-0.491711 0.164614 0)
(-0.513846 0.177181 0)
(-0.512345 0.144822 0)
(-0.33202 0.869973 0)
(0.0261692 1.97476 0)
(0.0116837 -0.687486 0)
(0.0350244 -0.6923 0)
(0.0583716 -0.700603 0)
(0.0815429 -0.716239 0)
(0.104651 -0.733946 0)
(0.127661 -0.760168 0)
(0.150759 -0.791491 0)
(0.174311 -0.832466 0)
(0.199757 -0.885156 0)
(0.230373 -0.950205 0)
(0.286763 -1.0524 0)
(0.361393 -1.19218 0)
(0.384201 -1.32179 0)
(0.34047 -1.35689 0)
(0.16361 -1.0402 0)
(-0.181666 -0.220417 0)
(-0.448706 0.220669 0)
(-0.542638 0.222488 0)
(-0.606767 0.223619 0)
(-0.6814 0.215498 0)
(-0.781015 0.205194 0)
(-0.780014 0.627408 0)
(-0.565144 1.64136 0)
(0.0107181 -0.711424 0)
(0.0319432 -0.716125 0)
(0.0529696 -0.72468 0)
(0.0734473 -0.739939 0)
(0.0938817 -0.758754 0)
(0.11518 -0.784947 0)
(0.139365 -0.818989 0)
(0.171616 -0.865473 0)
(0.250288 -0.961289 0)
(0.372041 -1.03178 0)
(0.47625 -1.13533 0)
(0.500353 -1.20916 0)
(0.379738 -1.20629 0)
(0.204153 -1.25185 0)
(-0.0366856 -0.725198 0)
(-0.337534 0.114165 0)
(-0.502789 0.320672 0)
(-0.580122 0.294677 0)
(-0.668604 0.304876 0)
(-0.769803 0.311035 0)
(-0.906914 0.347672 0)
(-1.0178 0.595454 0)
(-0.920556 1.35964 0)
(0.0100468 -0.734375 0)
(0.0304128 -0.739143 0)
(0.05387 -0.750619 0)
(0.0850582 -0.770387 0)
(0.130153 -0.79905 0)
(0.189114 -0.830263 0)
(0.262642 -0.876129 0)
(0.352353 -0.933746 0)
(0.465077 -1.08641 0)
(0.579099 -1.14371 0)
(0.639535 -1.18892 0)
(0.557097 -1.09695 0)
(0.326725 -0.96567 0)
(0.108657 -1.09682 0)
(-0.153633 -0.374461 0)
(-0.431534 0.345281 0)
(-0.547979 0.372755 0)
(-0.608284 0.380979 0)
(-0.681978 0.38163 0)
(-0.762791 0.417282 0)
(-0.863449 0.48048 0)
(-0.95345 0.664637 0)
(-0.899584 1.13861 0)
(0.0130772 -0.758288 0)
(0.0398695 -0.76385 0)
(0.0707381 -0.781485 0)
(0.107569 -0.808468 0)
(0.153836 -0.852975 0)
(0.211402 -0.893508 0)
(0.286254 -0.962077 0)
(0.379279 -1.03151 0)
(0.471502 -1.19467 0)
(0.548254 -1.22722 0)
(0.602186 -1.22039 0)
(0.543495 -0.923632 0)
(0.322042 -0.684809 0)
(0.0765931 -0.911862 0)
(-0.18158 -0.0363175 0)
(-0.41722 0.523406 0)
(-0.523249 0.418289 0)
(-0.585265 0.45843 0)
(-0.645726 0.439063 0)
(-0.699151 0.494818 0)
(-0.749375 0.554649 0)
(-0.776349 0.708092 0)
(-0.709865 0.974214 0)
(0.00999729 -0.781495 0)
(0.0309839 -0.788694 0)
(0.0543261 -0.811156 0)
(0.0779011 -0.839538 0)
(0.0989643 -0.889602 0)
(0.12247 -0.938386 0)
(0.154206 -1.02435 0)
(0.203837 -1.11265 0)
(0.275536 -1.27832 0)
(0.375494 -1.32122 0)
(0.474877 -1.28052 0)
(0.473771 -0.803393 0)
(0.328423 -0.43633 0)
(0.0452102 -0.629042 0)
(-0.282395 0.269587 0)
(-0.477584 0.650601 0)
(-0.5475 0.467979 0)
(-0.591029 0.514857 0)
(-0.621316 0.473882 0)
(-0.640974 0.533488 0)
(-0.648953 0.574513 0)
(-0.630573 0.696893 0)
(-0.556682 0.844329 0)
(0.000720841 -0.792279 0)
(0.00234713 -0.800659 0)
(0.00335499 -0.823688 0)
(0.00456994 -0.851947 0)
(0.0070377 -0.900865 0)
(0.0134348 -0.957196 0)
(0.0232305 -1.0473 0)
(0.0474551 -1.16395 0)
(0.0790751 -1.33088 0)
(0.122676 -1.41297 0)
(0.153791 -1.31995 0)
(0.175406 -0.784577 0)
(0.144308 -0.277774 0)
(-0.15503 -0.202041 0)
(-0.503692 0.522352 0)
(-0.598124 0.688982 0)
(-0.600477 0.502263 0)
(-0.609469 0.533386 0)
(-0.607524 0.483862 0)
(-0.602013 0.537748 0)
(-0.585044 0.561235 0)
(-0.546012 0.652477 0)
(-0.471699 0.739782 0)
(-0.00599992 -0.786981 0)
(-0.017224 -0.796325 0)
(-0.0285543 -0.817661 0)
(-0.0412873 -0.846411 0)
(-0.0580577 -0.892037 0)
(-0.0789921 -0.951421 0)
(-0.105134 -1.03665 0)
(-0.135786 -1.16814 0)
(-0.176796 -1.31726 0)
(-0.234826 -1.4121 0)
(-0.329031 -1.2574 0)
(-0.415928 -0.781501 0)
(-0.50255 -0.162512 0)
(-0.693592 0.175643 0)
(-0.810116 0.612291 0)
(-0.749068 0.632611 0)
(-0.681191 0.492782 0)
(-0.640488 0.511003 0)
(-0.606036 0.469674 0)
(-0.574237 0.514446 0)
(-0.537363 0.530427 0)
(-0.48823 0.594673 0)
(-0.41761 0.651906 0)
(-0.0105831 -0.770317 0)
(-0.0318026 -0.780387 0)
(-0.0549595 -0.798943 0)
(-0.0819137 -0.825246 0)
(-0.115067 -0.863028 0)
(-0.157411 -0.916829 0)
(-0.214694 -0.987385 0)
(-0.298685 -1.10217 0)
(-0.419725 -1.22033 0)
(-0.58005 -1.28952 0)
(-0.773622 -1.09069 0)
(-0.964078 -0.669408 0)
(-1.07836 -0.0726491 0)
(-1.08284 0.282333 0)
(-0.981835 0.521203 0)
(-0.836931 0.516679 0)
(-0.728897 0.431895 0)
(-0.655646 0.457352 0)
(-0.60155 0.434327 0)
(-0.554457 0.4705 0)
(-0.506968 0.489582 0)
(-0.454359 0.533253 0)
(-0.388406 0.576045 0)
(-0.0121219 -0.747499 0)
(-0.0388675 -0.755 0)
(-0.0709216 -0.768841 0)
(-0.108804 -0.790182 0)
(-0.154828 -0.818508 0)
(-0.213124 -0.86019 0)
(-0.291032 -0.908134 0)
(-0.403395 -0.984047 0)
(-0.564827 -1.05451 0)
(-0.770452 -1.08749 0)
(-0.984569 -0.882913 0)
(-1.1437 -0.525778 0)
(-1.17641 -0.0685176 0)
(-1.10018 0.206079 0)
(-0.974956 0.370051 0)
(-0.833313 0.379796 0)
(-0.721318 0.347608 0)
(-0.642451 0.388735 0)
(-0.580821 0.386623 0)
(-0.527587 0.417362 0)
(-0.475535 0.442668 0)
(-0.421839 0.473312 0)
(-0.361337 0.508874 0)
(-0.0172793 -0.71795 0)
(-0.0526661 -0.722103 0)
(-0.091007 -0.730986 0)
(-0.134387 -0.74636 0)
(-0.185729 -0.764465 0)
(-0.249035 -0.792002 0)
(-0.330136 -0.816486 0)
(-0.438928 -0.85339 0)
(-0.589034 -0.872008 0)
(-0.782538 -0.868782 0)
(-0.97146 -0.696477 0)
(-1.08701 -0.4361 0)
(-1.09761 -0.114659 0)
(-1.02452 0.102118 0)
(-0.907936 0.230954 0)
(-0.784265 0.2522 0)
(-0.689259 0.267128 0)
(-0.619949 0.320271 0)
(-0.560871 0.333756 0)
(-0.507274 0.362845 0)
(-0.455457 0.392779 0)
(-0.402995 0.41649 0)
(-0.347168 0.448759 0)
(-0.0195367 -0.680947 0)
(-0.0587118 -0.684165 0)
(-0.0997048 -0.689185 0)
(-0.145119 -0.698911 0)
(-0.197729 -0.707427 0)
(-0.260633 -0.722178 0)
(-0.337378 -0.727644 0)
(-0.432309 -0.737448 0)
(-0.549873 -0.718886 0)
(-0.689365 -0.68717 0)
(-0.824033 -0.55281 0)
(-0.911922 -0.375266 0)
(-0.92524 -0.151449 0)
(-0.872885 0.0128076 0)
(-0.786475 0.116218 0)
(-0.698567 0.154258 0)
(-0.631885 0.202543 0)
(-0.576579 0.259596 0)
(-0.523668 0.281862 0)
(-0.473697 0.310634 0)
(-0.424871 0.343826 0)
(-0.376012 0.363594 0)
(-0.32544 0.394699 0)
(-0.0193812 -0.64183 0)
(-0.0591354 -0.643949 0)
(-0.101505 -0.645612 0)
(-0.147734 -0.650371 0)
(-0.199314 -0.65124 0)
(-0.258268 -0.655877 0)
(-0.326218 -0.6485 0)
(-0.40477 -0.642206 0)
(-0.493557 -0.606703 0)
(-0.589495 -0.562694 0)
(-0.679192 -0.45175 0)
(-0.742843 -0.323994 0)
(-0.761648 -0.170429 0)
(-0.733722 -0.0489106 0)
(-0.680439 0.0375167 0)
(-0.626179 0.0900534 0)
(-0.579994 0.153295 0)
(-0.533634 0.206651 0)
(-0.487342 0.235089 0)
(-0.443197 0.262801 0)
(-0.39952 0.298674 0)
(-0.355724 0.315607 0)
(-0.310849 0.346737 0)
(-0.0196216 -0.602627 0)
(-0.0595245 -0.603086 0)
(-0.101286 -0.601912 0)
(-0.14611 -0.602548 0)
(-0.195184 -0.597889 0)
(-0.249863 -0.595008 0)
(-0.310909 -0.579703 0)
(-0.378632 -0.563966 0)
(-0.451022 -0.522927 0)
(-0.524336 -0.476337 0)
(-0.58784 -0.384106 0)
(-0.628254 -0.287028 0)
(-0.639593 -0.177093 0)
(-0.624781 -0.0852057 0)
(-0.594272 -0.0104156 0)
(-0.560466 0.0494628 0)
(-0.526141 0.112957 0)
(-0.487634 0.161682 0)
(-0.448983 0.194673 0)
(-0.410656 0.220315 0)
(-0.37184 0.258237 0)
(-0.332621 0.272595 0)
(-0.292623 0.304429 0)
(-0.0199767 -0.562826 0)
(-0.0602519 -0.562298 0)
(-0.101535 -0.559229 0)
(-0.144713 -0.556776 0)
(-0.190477 -0.548332 0)
(-0.239594 -0.54023 0)
(-0.292207 -0.520232 0)
(-0.348033 -0.499246 0)
(-0.404782 -0.457835 0)
(-0.458705 -0.413528 0)
(-0.503218 -0.338333 0)
(-0.532916 -0.262324 0)
(-0.545681 -0.177566 0)
(-0.541392 -0.103931 0)
(-0.525428 -0.0384045 0)
(-0.503466 0.0213953 0)
(-0.476348 0.0792629 0)
(-0.445254 0.125414 0)
(-0.413174 0.159841 0)
(-0.380207 0.183481 0)
(-0.346771 0.22244 0)
(-0.312463 0.234478 0)
(-0.277489 0.267179 0)
(-0.0188185 -0.52383 0)
(-0.0567964 -0.522636 0)
(-0.0956831 -0.518307 0)
(-0.136104 -0.513666 0)
(-0.178342 -0.502984 0)
(-0.2226 -0.49172 0)
(-0.268429 -0.469789 0)
(-0.315049 -0.44671 0)
(-0.36061 -0.407528 0)
(-0.403045 -0.366975 0)
(-0.43867 -0.304329 0)
(-0.462766 -0.242252 0)
(-0.473897 -0.173616 0)
(-0.47352 -0.11257 0)
(-0.464763 -0.054616 0)
(-0.449718 0.000409133 0)
(-0.42894 0.0521039 0)
(-0.404058 0.0963069 0)
(-0.376794 0.129294 0)
(-0.348786 0.152733 0)
(-0.32049 0.191133 0)
(-0.290673 0.201322 0)
(-0.260224 0.234565 0)
(-0.0175599 -0.487264 0)
(-0.0529139 -0.485491 0)
(-0.0888403 -0.480252 0)
(-0.125737 -0.474004 0)
(-0.163714 -0.462015 0)
(-0.202812 -0.448899 0)
(-0.242516 -0.426632 0)
(-0.282073 -0.403242 0)
(-0.320121 -0.366951 0)
(-0.35497 -0.329865 0)
(-0.383687 -0.276761 0)
(-0.403536 -0.225645 0)
(-0.414367 -0.168146 0)
(-0.4168 -0.115971 0)
(-0.412367 -0.0644733 0)
(-0.40201 -0.0152666 0)
(-0.386168 0.0309691 0)
(-0.36591 0.0720672 0)
(-0.342805 0.102902 0)
(-0.319629 0.127673 0)
(-0.295824 0.163819 0)
(-0.270176 0.172877 0)
(-0.243949 0.206033 0)
(-0.0165914 -0.452936 0)
(-0.0499014 -0.4508 0)
(-0.0834609 -0.445097 0)
(-0.117437 -0.437918 0)
(-0.151779 -0.425406 0)
(-0.186424 -0.411381 0)
(-0.220883 -0.3896 0)
(-0.254478 -0.36674 0)
(-0.286102 -0.333417 0)
(-0.314308 -0.300014 0)
(-0.337485 -0.254446 0)
(-0.354216 -0.211188 0)
(-0.36416 -0.161718 0)
(-0.367591 -0.116504 0)
(-0.365395 -0.0706023 0)
(-0.357995 -0.0269855 0)
(-0.34574 0.0144444 0)
(-0.329369 0.0517719 0)
(-0.310605 0.0811082 0)
(-0.291592 0.107055 0)
(-0.271052 0.139858 0)
(-0.249058 0.148944 0)
(-0.226706 0.181128 0)
(-0.0150806 -0.421099 0)
(-0.0453155 -0.418761 0)
(-0.0756502 -0.412909 0)
(-0.106151 -0.405293 0)
(-0.136702 -0.392799 0)
(-0.167142 -0.378564 0)
(-0.196993 -0.357771 0)
(-0.225674 -0.335967 0)
(-0.252405 -0.30553 0)
(-0.276336 -0.275491 0)
(-0.296298 -0.235602 0)
(-0.311139 -0.198294 0)
(-0.320605 -0.155099 0)
(-0.324719 -0.115538 0)
(-0.324072 -0.0744258 0)
(-0.318974 -0.0357242 0)
(-0.309647 0.00148788 0)
(-0.296676 0.0352334 0)
(-0.28158 0.0636084 0)
(-0.265691 0.0894692 0)
(-0.247743 0.118752 0)
(-0.22895 0.129046 0)
(-0.210009 0.159512 0)
(-0.0137242 -0.392143 0)
(-0.0412046 -0.389699 0)
(-0.0686836 -0.383855 0)
(-0.0961671 -0.37606 0)
(-0.123506 -0.363839 0)
(-0.150471 -0.349819 0)
(-0.176637 -0.330205 0)
(-0.201524 -0.309684 0)
(-0.224492 -0.281852 0)
(-0.244766 -0.254731 0)
(-0.261511 -0.219462 0)
(-0.274142 -0.186818 0)
(-0.282523 -0.148634 0)
(-0.286659 -0.113708 0)
(-0.286884 -0.0766792 0)
(-0.28328 -0.042218 0)
(-0.276142 -0.00856853 0)
(-0.265947 0.0220025 0)
(-0.253805 0.0494586 0)
(-0.240485 0.0742544 0)
(-0.225161 0.10052 0)
(-0.209346 0.112486 0)
(-0.193166 0.140762 0)
(-0.0123956 -0.365886 0)
(-0.0371688 -0.363428 0)
(-0.0618172 -0.357725 0)
(-0.0862699 -0.349981 0)
(-0.110357 -0.338222 0)
(-0.133852 -0.324711 0)
(-0.156429 -0.306314 0)
(-0.177732 -0.287141 0)
(-0.197266 -0.26167 0)
(-0.214564 -0.237144 0)
(-0.229079 -0.205625 0)
(-0.240366 -0.176609 0)
(-0.248263 -0.142477 0)
(-0.252584 -0.111362 0)
(-0.253499 -0.0778778 0)
(-0.25112 -0.0470331 0)
(-0.245794 -0.0162808 0)
(-0.237894 0.0115249 0)
(-0.228126 0.0379106 0)
(-0.216968 0.0611939 0)
(-0.204108 0.0852463 0)
(-0.190861 0.098542 0)
(-0.176883 0.124386 0)
(-0.0109866 -0.342381 0)
(-0.0329374 -0.339963 0)
(-0.0547619 -0.334472 0)
(-0.0763713 -0.326929 0)
(-0.0976085 -0.315711 0)
(-0.118263 -0.302838 0)
(-0.13805 -0.285599 0)
(-0.156665 -0.267728 0)
(-0.173689 -0.244332 0)
(-0.188748 -0.221953 0)
(-0.201377 -0.193527 0)
(-0.211218 -0.167466 0)
(-0.218139 -0.136723 0)
(-0.222099 -0.108792 0)
(-0.223319 -0.0782993 0)
(-0.221848 -0.050481 0)
(-0.21792 -0.0221346 0)
(-0.21177 0.00325521 0)
(-0.203869 0.0284179 0)
(-0.194565 0.0501161 0)
(-0.183865 0.072637 0)
(-0.17277 0.086679 0)
(-0.160801 0.110162 0)
(-0.00973333 -0.321551 0)
(-0.0291608 -0.319195 0)
(-0.0484303 -0.313928 0)
(-0.0674268 -0.306652 0)
(-0.0859871 -0.29598 0)
(-0.103912 -0.283785 0)
(-0.120959 -0.267623 0)
(-0.13691 -0.250956 0)
(-0.15143 -0.229391 0)
(-0.164244 -0.208873 0)
(-0.17505 -0.183046 0)
(-0.183667 -0.15939 0)
(-0.190048 -0.131425 0)
(-0.19404 -0.106096 0)
(-0.195659 -0.078139 0)
(-0.194908 -0.0528745 0)
(-0.192054 -0.0265578 0)
(-0.187337 -0.00324618 0)
(-0.181054 0.0206611 0)
(-0.173429 0.0408537 0)
(-0.164592 0.062258 0)
(-0.155278 0.0765385 0)
(-0.145102 0.0980388 0)
(-0.00844515 -0.303276 0)
(-0.0252918 -0.301003 0)
(-0.0419863 -0.295964 0)
(-0.0584202 -0.288996 0)
(-0.0744593 -0.278852 0)
(-0.0899508 -0.267319 0)
(-0.104698 -0.252125 0)
(-0.118512 -0.23653 0)
(-0.131117 -0.216547 0)
(-0.142343 -0.197549 0)
(-0.151939 -0.173859 0)
(-0.159648 -0.152164 0)
(-0.165329 -0.126524 0)
(-0.168906 -0.103386 0)
(-0.170542 -0.0775749 0)
(-0.170286 -0.0544508 0)
(-0.1683 -0.0298462 0)
(-0.16472 -0.00829874 0)
(-0.159737 0.014389 0)
(-0.153538 0.0332275 0)
(-0.146291 0.0537148 0)
(-0.138507 0.0678911 0)
(-0.129942 0.0878439 0)
(-0.00726984 -0.287477 0)
(-0.0217723 -0.285285 0)
(-0.0361454 -0.280448 0)
(-0.0502859 -0.273774 0)
(-0.0640667 -0.264095 0)
(-0.0773454 -0.253153 0)
(-0.0899347 -0.238809 0)
(-0.10169 -0.22414 0)
(-0.112396 -0.2055 0)
(-0.121879 -0.187776 0)
(-0.129945 -0.165876 0)
(-0.136501 -0.145805 0)
(-0.141555 -0.122089 0)
(-0.145024 -0.100735 0)
(-0.146893 -0.0767011 0)
(-0.147119 -0.0553545 0)
(-0.145846 -0.0322177 0)
(-0.143193 -0.0121927 0)
(-0.13932 0.00938001 0)
(-0.134395 0.0270522 0)
(-0.128543 0.0467215 0)
(-0.122126 0.060607 0)
(-0.115001 0.0793527 0)
(-0.0060781 -0.274057 0)
(-0.0182095 -0.271928 0)
(-0.0302502 -0.26725 0)
(-0.0421168 -0.260826 0)
(-0.0537031 -0.25154 0)
(-0.0648902 -0.24111 0)
(-0.0755294 -0.227498 0)
(-0.085501 -0.213607 0)
(-0.0946246 -0.196095 0)
(-0.102817 -0.17941 0)
(-0.109953 -0.158957 0)
(-0.115874 -0.14018 0)
(-0.120452 -0.118031 0)
(-0.123594 -0.0981462 0)
(-0.125386 -0.0756076 0)
(-0.125861 -0.0557428 0)
(-0.125118 -0.0338555 0)
(-0.123231 -0.0151181 0)
(-0.120305 0.00547071 0)
(-0.11646 0.0221436 0)
(-0.111805 0.0410669 0)
(-0.106601 0.0545769 0)
(-0.100774 0.0723604 0)
(-0.00496564 -0.262953 0)
(-0.0148924 -0.260854 0)
(-0.0247804 -0.256276 0)
(-0.034566 -0.25003 0)
(-0.0441551 -0.241046 0)
(-0.0534461 -0.231015 0)
(-0.0623076 -0.217987 0)
(-0.0706308 -0.204725 0)
(-0.0782594 -0.188135 0)
(-0.0850699 -0.172286 0)
(-0.0909407 -0.153003 0)
(-0.0958195 -0.135276 0)
(-0.0997268 -0.114403 0)
(-0.10263 -0.095695 0)
(-0.104512 -0.0743631 0)
(-0.105319 -0.0556976 0)
(-0.105108 -0.0348603 0)
(-0.103922 -0.017202 0)
(-0.101842 0.0025223 0)
(-0.098973 0.018342 0)
(-0.0953951 0.0365912 0)
(-0.0912952 0.0496974 0)
(-0.0866407 0.066701 0)
(-0.00381498 -0.254125 0)
(-0.0114587 -0.252016 0)
(-0.0191117 -0.247478 0)
(-0.0267322 -0.241328 0)
(-0.0342518 -0.232546 0)
(-0.041603 -0.222782 0)
(-0.0486973 -0.210177 0)
(-0.0554653 -0.197361 0)
(-0.0617847 -0.181474 0)
(-0.0675835 -0.166269 0)
(-0.0727809 -0.147892 0)
(-0.0772591 -0.130979 0)
(-0.0809037 -0.111107 0)
(-0.0836306 -0.0933299 0)
(-0.0854738 -0.0729819 0)
(-0.0864432 -0.0552921 0)
(-0.0865895 -0.0353307 0)
(-0.0859449 -0.0185716 0)
(-0.0845629 0.000411437 0)
(-0.082516 0.015511 0)
(-0.0798678 0.0331624 0)
(-0.0767606 0.0458795 0)
(-0.0731805 0.062239 0)
(-0.00275776 -0.247516 0)
(-0.00828235 -0.245384 0)
(-0.0138093 -0.240857 0)
(-0.0193168 -0.234748 0)
(-0.0247785 -0.226073 0)
(-0.0301878 -0.216425 0)
(-0.0355222 -0.204038 0)
(-0.0407504 -0.191439 0)
(-0.0457913 -0.175974 0)
(-0.0505368 -0.161167 0)
(-0.0548315 -0.14345 0)
(-0.0585828 -0.127146 0)
(-0.0617748 -0.108065 0)
(-0.06436 -0.0910303 0)
(-0.0663149 -0.0714624 0)
(-0.0675953 -0.054549 0)
(-0.0682162 -0.0353019 0)
(-0.068189 -0.0192752 0)
(-0.0675497 -0.000916977 0)
(-0.0663462 0.0135717 0)
(-0.0646105 0.0306941 0)
(-0.0624382 0.0430394 0)
(-0.0598299 0.0588566 0)
(-0.00174624 -0.242987 0)
(-0.00523191 -0.240853 0)
(-0.00869374 -0.23635 0)
(-0.0121359 -0.230257 0)
(-0.0155728 -0.221617 0)
(-0.0190311 -0.211965 0)
(-0.0225134 -0.199633 0)
(-0.026031 -0.18705 0)
(-0.0295758 -0.17173 0)
(-0.0331569 -0.157039 0)
(-0.036746 -0.139651 0)
(-0.0402329 -0.123667 0)
(-0.0434558 -0.105094 0)
(-0.0462423 -0.0885999 0)
(-0.0484986 -0.0696585 0)
(-0.0501592 -0.0533957 0)
(-0.0512108 -0.0347733 0)
(-0.0516571 -0.0193822 0)
(-0.0515407 -0.0015697 0)
(-0.0509482 0.0124187 0)
(-0.0499554 0.0291036 0)
(-0.0486281 0.041111 0)
(-0.0469507 0.0564754 0)
(-0.000993894 -0.240232 0)