/*--------------------------------*- C++ -*----------------------------------*\
| =========                 |                                                 |
| \\      /  F ield         | OpenFOAM: The Open Source CFD Toolbox           |
|  \\    /   O peration     | Version:  3.0.1                                 |
|   \\  /    A nd           | Web:      www.OpenFOAM.org                      |
|    \\/     M anipulation  |                                                 |
\*---------------------------------------------------------------------------*/
FoamFile
{
    version     2.0;
    format      ascii;
    class       volScalarField;
    location    "0.00025";
    object      rho;
}
// * * * * * * * * * * * * * * * * * * * * * * * * * * * * * * * * * * * * * //

dimensions      [1 -3 0 0 0 0 0];

internalField   nonuniform List<scalar> 
1000
(
0.83124
0.83124
0.83124
0.83124
0.83124
0.83124
0.83124
0.83124
0.83124
0.83124
0.83124
0.83124
0.83124
0.83124
0.83124
0.83124
0.83124
0.83124
0.83124
0.831218
0.830234
0.823315
0.811382
0.801628
0.795066
0.790875
0.788353
0.786963
0.786272
0.785966
0.785844
0.78581
0.785795
0.785803
0.785814
0.785823
0.785825
0.785821
0.78581
0.785798
0.785792
0.785801
0.785843
0.785923
0.785996
0.786024
0.785954
0.785549
0.784204
0.781103
0.775775
0.768789
0.761743
0.756278
0.753058
0.751662
0.751244
0.751176
0.75119
0.751245
0.751319
0.751369
0.751381
0.751375
0.751361
0.751343
0.75133
0.751324
0.751325
0.75133
0.751332
0.751324
0.751285
0.75117
0.750862
0.750097
0.748328
0.744507
0.73689
0.724237
0.713315
0.710806
0.710718
0.710718
0.710718
0.710718
0.710718
0.710718
0.710718
0.710718
0.710718
0.710718
0.710718
0.710718
0.710718
0.710718
0.710718
0.710718
0.710718
0.710718
0.83124
0.83124
0.83124
0.83124
0.83124
0.83124
0.83124
0.83124
0.83124
0.83124
0.83124
0.83124
0.83124
0.83124
0.83124
0.83124
0.83124
0.83124
0.83124
0.831218
0.830233
0.823312
0.811376
0.801623
0.795067
0.790881
0.788363
0.786975
0.786286
0.785979
0.785856
0.78582
0.785804
0.785812
0.78582
0.785827
0.785828
0.785822
0.78581
0.785797
0.78579
0.785798
0.78584
0.78592
0.785993
0.786021
0.785951
0.785546
0.784201
0.781101
0.775772
0.768787
0.761741
0.756276
0.753055
0.751659
0.751241
0.751173
0.751187
0.751243
0.751317
0.751367
0.751379
0.751372
0.751358
0.75134
0.751327
0.751322
0.751322
0.751327
0.751328
0.751323
0.751284
0.751169
0.750862
0.750098
0.74833
0.744511
0.736892
0.724236
0.713314
0.710806
0.710718
0.710718
0.710718
0.710718
0.710718
0.710718
0.710718
0.710718
0.710718
0.710718
0.710718
0.710718
0.710718
0.710718
0.710718
0.710718
0.710718
0.710718
0.83124
0.83124
0.83124
0.83124
0.83124
0.83124
0.83124
0.83124
0.83124
0.83124
0.83124
0.83124
0.83124
0.83124
0.83124
0.83124
0.83124
0.83124
0.83124
0.831218
0.830224
0.823271
0.811332
0.801606
0.795073
0.7909
0.788387
0.786996
0.786302
0.78599
0.785862
0.785819
0.785801
0.785809
0.785817
0.785823
0.785824
0.785819
0.785808
0.785795
0.785789
0.785797
0.78584
0.78592
0.785994
0.786021
0.785953
0.785546
0.784201
0.781102
0.775774
0.768788
0.761743
0.756277
0.753056
0.751659
0.751241
0.751173
0.751186
0.751241
0.751315
0.751364
0.751375
0.751369
0.751354
0.751337
0.751326
0.751323
0.751324
0.751327
0.751328
0.751318
0.751276
0.751159
0.75085
0.750086
0.748321
0.744512
0.736915
0.724281
0.713337
0.710808
0.710718
0.710718
0.710718
0.710718
0.710718
0.710718
0.710718
0.710718
0.710718
0.710718
0.710718
0.710718
0.710718
0.710718
0.710718
0.710718
0.710718
0.710718
0.83124
0.83124
0.83124
0.83124
0.83124
0.83124
0.83124
0.83124
0.83124
0.83124
0.83124
0.83124
0.83124
0.83124
0.83124
0.83124
0.83124
0.83124
0.83124
0.831218
0.830211
0.823226
0.811297
0.801605
0.795095
0.790932
0.788418
0.787021
0.786319
0.786001
0.785867
0.785821
0.785803
0.78581
0.785817
0.785823
0.785823
0.785819
0.785807
0.785794
0.78579
0.785798
0.785841
0.785921
0.785994
0.786021
0.785953
0.785547
0.784203
0.781103
0.775776
0.768791
0.761743
0.756276
0.753054
0.751656
0.751238
0.751169
0.751183
0.751238
0.751311
0.75136
0.751372
0.751365
0.751352
0.751335
0.751325
0.751324
0.751324
0.751327
0.751323
0.751314
0.751272
0.751151
0.750837
0.750068
0.748302
0.744502
0.73693
0.724324
0.713359
0.710809
0.710718
0.710718
0.710718
0.710718
0.710718
0.710718
0.710718
0.710718
0.710718
0.710718
0.710718
0.710718
0.710718
0.710718
0.710718
0.710718
0.710718
0.710718
0.83124
0.83124
0.83124
0.83124
0.83124
0.83124
0.83124
0.83124
0.83124
0.83124
0.83124
0.83124
0.83124
0.83124
0.83124
0.83124
0.83124
0.83124
0.83124
0.831217
0.830203
0.823197
0.811272
0.801594
0.795104
0.790952
0.788436
0.78704
0.786338
0.786015
0.785877
0.785826
0.785805
0.785811
0.785815
0.785819
0.785818
0.785814
0.785803
0.785791
0.785787
0.785795
0.785836
0.785917
0.785991
0.786018
0.785951
0.785545
0.784201
0.781102
0.775775
0.768789
0.761742
0.756275
0.753053
0.751655
0.751237
0.751168
0.751182
0.751237
0.75131
0.751358
0.751368
0.75136
0.751348
0.751335
0.751326
0.751321
0.751319
0.751322
0.751323
0.751311
0.751267
0.751148
0.750834
0.750064
0.748301
0.744505
0.736944
0.724348
0.71337
0.71081
0.710718
0.710718
0.710718
0.710718
0.710718
0.710718
0.710718
0.710718
0.710718
0.710718
0.710718
0.710718
0.710718
0.710718
0.710718
0.710718
0.710718
0.710718
0.83124
0.83124
0.83124
0.83124
0.83124
0.83124
0.83124
0.83124
0.83124
0.83124
0.83124
0.83124
0.83124
0.83124
0.83124
0.83124
0.83124
0.83124
0.83124
0.831217
0.830201
0.823188
0.811261
0.801594
0.795104
0.790954
0.788445
0.78705
0.786344
0.78602
0.785883
0.785831
0.785813
0.785811
0.785818
0.785824
0.785824
0.78582
0.785808
0.785793
0.785785
0.785796
0.785842
0.785922
0.785996
0.786022
0.785953
0.785546
0.784201
0.781102
0.775774
0.768788
0.76174
0.756273
0.753051
0.751652
0.751235
0.751166
0.75118
0.751235
0.751308
0.751355
0.751366
0.75136
0.751349
0.751336
0.751328
0.751325
0.751326
0.751327
0.751321
0.751311
0.751271
0.751151
0.75084
0.750075
0.748311
0.744511
0.736943
0.724342
0.713368
0.71081
0.710718
0.710718
0.710718
0.710718
0.710718
0.710718
0.710718
0.710718
0.710718
0.710718
0.710718
0.710718
0.710718
0.710718
0.710718
0.710718
0.710718
0.710718
0.83124
0.83124
0.83124
0.83124
0.83124
0.83124
0.83124
0.83124
0.83124
0.83124
0.83124
0.83124
0.83124
0.83124
0.83124
0.83124
0.83124
0.83124
0.83124
0.831217
0.830207
0.823212
0.811285
0.801602
0.7951
0.790943
0.788436
0.787041
0.786337
0.786014
0.785877
0.785826
0.785809
0.78581
0.785818
0.785822
0.785822
0.785818
0.785807
0.785793
0.785786
0.785795
0.785839
0.785918
0.785992
0.786018
0.78595
0.785543
0.784199
0.7811
0.775773
0.768787
0.761739
0.756272
0.75305
0.751651
0.751234
0.751165
0.751179
0.751234
0.751307
0.751355
0.751366
0.751361
0.75135
0.751337
0.751329
0.751327
0.751328
0.751331
0.75133
0.75132
0.751278
0.751158
0.750845
0.750075
0.748307
0.744502
0.736922
0.724311
0.713353
0.710809
0.710718
0.710718
0.710718
0.710718
0.710718
0.710718
0.710718
0.710718
0.710718
0.710718
0.710718
0.710718
0.710718
0.710718
0.710718
0.710718
0.710718
0.710718
0.83124
0.83124
0.83124
0.83124
0.83124
0.83124
0.83124
0.83124
0.83124
0.83124
0.83124
0.83124
0.83124
0.83124
0.83124
0.83124
0.83124
0.83124
0.83124
0.831218
0.830221
0.823255
0.811314
0.801599
0.795079
0.790915
0.788407
0.787019
0.786323
0.786007
0.785875
0.785826
0.785809
0.785811
0.78582
0.785824
0.785824
0.785819
0.785807
0.785794
0.785788
0.785798
0.78584
0.78592
0.785994
0.786021
0.785952
0.785544
0.7842
0.7811
0.775772
0.768786
0.761737
0.75627
0.753048
0.75165
0.751232
0.751164
0.751179
0.751234
0.751307
0.751356
0.751367
0.751361
0.751349
0.751336
0.751328
0.751325
0.751326
0.75133
0.751329
0.751322
0.751285
0.751172
0.750865
0.7501
0.748331
0.744514
0.736904
0.724258
0.713325
0.710807
0.710718
0.710718
0.710718
0.710718
0.710718
0.710718
0.710718
0.710718
0.710718
0.710718
0.710718
0.710718
0.710718
0.710718
0.710718
0.710718
0.710718
0.710718
0.83124
0.83124
0.83124
0.83124
0.83124
0.83124
0.83124
0.83124
0.83124
0.83124
0.83124
0.83124
0.83124
0.83124
0.83124
0.83124
0.83124
0.83124
0.83124
0.831218
0.830233
0.823301
0.811351
0.80161
0.795072
0.7909
0.788389
0.787001
0.786308
0.785996
0.785869
0.785827
0.785812
0.785816
0.785825
0.785829
0.785829
0.785823
0.78581
0.785795
0.785788
0.785797
0.785839
0.785918
0.785992
0.786019
0.785951
0.785545
0.784201
0.781102
0.775774
0.768787
0.761739
0.756271
0.753049
0.751651
0.751234
0.751165
0.75118
0.751234
0.751307
0.751356
0.751367
0.751361
0.751349
0.751334
0.751326
0.751326
0.75133
0.751335
0.751338
0.751333
0.751297
0.751184
0.750877
0.750112
0.74834
0.744511
0.736876
0.724203
0.713298
0.710805
0.710718
0.710718
0.710718
0.710718
0.710718
0.710718
0.710718
0.710718
0.710718
0.710718
0.710718
0.710718
0.710718
0.710718
0.710718
0.710718
0.710718
0.710718
0.83124
0.83124
0.83124
0.83124
0.83124
0.83124
0.83124
0.83124
0.83124
0.83124
0.83124
0.83124
0.83124
0.83124
0.83124
0.83124
0.83124
0.83124
0.83124
0.831218
0.830234
0.823303
0.811355
0.801613
0.795072
0.790896
0.788383
0.786993
0.786299
0.785987
0.785861
0.785818
0.785806
0.785812
0.785822
0.785828
0.78583
0.785825
0.785812
0.785798
0.785792
0.7858
0.785842
0.785921
0.785994
0.786022
0.785952
0.785545
0.784201
0.781102
0.775773
0.768787
0.761738
0.75627
0.753048
0.75165
0.751233
0.751164
0.751179
0.751233
0.751307
0.751356
0.751368
0.751363
0.751352
0.751337
0.751329
0.751328
0.751332
0.75134
0.751344
0.751339
0.751301
0.751187
0.75088
0.750113
0.748338
0.744506
0.736871
0.724202
0.713298
0.710805
0.710718
0.710718
0.710718
0.710718
0.710718
0.710718
0.710718
0.710718
0.710718
0.710718
0.710718
0.710718
0.710718
0.710718
0.710718
0.710718
0.710718
0.710718
)
;

boundaryField
{
    sides1
    {
        type            calculated;
        value           nonuniform List<scalar> 
20
(
0.710718
0.710718
0.710718
0.710718
0.710718
0.710718
0.710718
0.710718
0.710718
0.710718
0.83124
0.83124
0.83124
0.83124
0.83124
0.83124
0.83124
0.83124
0.83124
0.83124
)
;
    }
    sides2
    {
        type            calculated;
        value           nonuniform List<scalar> 
200
(
0.83124
0.83124
0.83124
0.83124
0.83124
0.83124
0.83124
0.83124
0.83124
0.83124
0.83124
0.83124
0.83124
0.83124
0.83124
0.83124
0.83124
0.83124
0.83124
0.831218
0.830234
0.823315
0.811382
0.801628
0.795066
0.790875
0.788353
0.786963
0.786272
0.785966
0.785844
0.78581
0.785795
0.785803
0.785814
0.785823
0.785825
0.785821
0.78581
0.785798
0.785792
0.785801
0.785843
0.785923
0.785996
0.786024
0.785954
0.785549
0.784204
0.781103
0.775775
0.768789
0.761743
0.756278
0.753058
0.751662
0.751244
0.751176
0.75119
0.751245
0.751319
0.751369
0.751381
0.751375
0.751361
0.751343
0.75133
0.751324
0.751325
0.75133
0.751332
0.751324
0.751285
0.75117
0.750862
0.750097
0.748328
0.744507
0.73689
0.724237
0.713315
0.710806
0.710718
0.710718
0.710718
0.710718
0.710718
0.710718
0.710718
0.710718
0.710718
0.710718
0.710718
0.710718
0.710718
0.710718
0.710718
0.710718
0.710718
0.710718
0.83124
0.83124
0.83124
0.83124
0.83124
0.83124
0.83124
0.83124
0.83124
0.83124
0.83124
0.83124
0.83124
0.83124
0.83124
0.83124
0.83124
0.83124
0.83124
0.831218
0.830234
0.823303
0.811355
0.801613
0.795072
0.790896
0.788383
0.786993
0.786299
0.785987
0.785861
0.785818
0.785806
0.785812
0.785822
0.785828
0.78583
0.785825
0.785812
0.785798
0.785792
0.7858
0.785842
0.785921
0.785994
0.786022
0.785952
0.785545
0.784201
0.781102
0.775773
0.768787
0.761738
0.75627
0.753048
0.75165
0.751233
0.751164
0.751179
0.751233
0.751307
0.751356
0.751368
0.751363
0.751352
0.751337
0.751329
0.751328
0.751332
0.75134
0.751344
0.751339
0.751301
0.751187
0.75088
0.750113
0.748338
0.744506
0.736871
0.724202
0.713298
0.710805
0.710718
0.710718
0.710718
0.710718
0.710718
0.710718
0.710718
0.710718
0.710718
0.710718
0.710718
0.710718
0.710718
0.710718
0.710718
0.710718
0.710718
0.710718
)
;
    }
    empty
    {
        type            empty;
    }
}


// ************************************************************************* //
