/*--------------------------------*- C++ -*----------------------------------*\
| =========                 |                                                 |
| \\      /  F ield         | OpenFOAM: The Open Source CFD Toolbox           |
|  \\    /   O peration     | Version:  2012                                  |
|   \\  /    A nd           | Website:  www.openfoam.com                      |
|    \\/     M anipulation  |                                                 |
\*---------------------------------------------------------------------------*/
FoamFile
{
    version     2.0;
    format      ascii;
    class       volScalarField;
    location    "0.71";
    object      p_rgh;
}
// * * * * * * * * * * * * * * * * * * * * * * * * * * * * * * * * * * * * * //

dimensions      [1 -1 -2 0 0 0 0];


internalField   nonuniform List<scalar> 
2268
(
101884
101888
101895
101905
101918
101934
101953
101973
101994
102017
102037
102061
102078
102104
102117
102143
102151
102177
102177
102201
102193
102209
102196
101884
101887
101894
101904
101918
101934
101952
101972
101993
102017
102037
102062
102079
102105
102118
102144
102151
102177
102178
102202
102194
102210
102197
101882
101885
101893
101903
101916
101933
101951
101972
101993
102016
102037
102062
102079
102105
102118
102144
102152
102178
102178
102202
102193
102209
102192
101880
101883
101890
101901
101915
101931
101950
101971
101992
102016
102037
102062
102080
102106
102119
102145
102153
102180
102181
102207
102196
102214
102193
101876
101880
101887
101898
101912
101928
101948
101969
101992
102016
102037
102062
102080
102106
102120
102146
102153
102181
102181
102207
102195
102213
102183
101872
101876
101883
101894
101909
101926
101945
101967
101990
102015
102037
102063
102082
102107
102122
102148
102156
102185
102186
102215
102201
102222
102185
101867
101871
101878
101889
101904
101922
101942
101965
101989
102015
102038
102063
102083
102108
102123
102149
102156
102186
102186
102216
102199
102220
102161
101849
101855
101869
101885
101900
101918
101939
101963
101987
102014
102038
102064
102084
102110
102125
102151
102160
102191
102193
102229
102207
102230
102165
102672
102122
101865
101838
101824
102130
102407
102324
102129
101901
101805
101763
101746
101753
101752
101790
101845
102232
102946
102640
102059
101824
101809
101788
102149
102482
102321
102096
101880
101775
101746
101738
101748
101746
101767
101768
102100
102729
102363
101930
101770
101710
101780
102089
102419
102334
102066
101816
101720
101673
101663
101678
101676
101671
101668
101860
102540
102206
101805
101641
101590
101638
102072
102438
102331
102044
101818
101683
101660
101644
101642
101636
101636
101632
101693
102244
101985
101630
101574
101560
101582
101935
102342
102335
102171
101951
101829
101743
101664
101640
101634
101637
101631
101663
102277
101944
101566
101574
101559
101580
102000
102311
102214
102114
101985
101939
101919
101880
101802
101695
101637
101632
101804
102316
101927
101566
101574
101560
101712
101996
102198
102143
102069
101977
101945
101936
101939
101952
101929
101858
101806
102138
102466
101954
101574
101575
101559
101879
102054
102121
101929
101881
101846
101850
101869
101903
101949
101981
102035
102197
102420
102710
101582
101597
101625
101672
101733
101791
101858
101924
101981
102014
102039
102065
102087
102112
102127
102153
102160
102193
102192
102231
102200
102260
102077
101330
101331
101332
101337
101354
101388
101441
101523
101639
101792
101907
101997
102067
102118
102135
102158
102171
102204
102218
102268
102247
102293
102119
101329
101329
101329
101329
101329
101329
101330
101333
101344
101379
101455
101556
101659
101794
101911
102003
102063
102165
102206
102260
102250
102323
102308
101329
101329
101329
101329
101329
101329
101329
101329
101330
101331
101335
101346
101362
101377
101405
101437
101460
101548
101735
101986
102128
102377
102397
101329
101329
101329
101329
101329
101329
101329
101329
101329
101329
101329
101329
101329
101329
101329
101329
101330
101338
101375
101467
101569
101805
102195
101329
101329
101329
101329
101329
101329
101329
101329
101329
101329
101329
101329
101329
101329
101328
101328
101328
101331
101416
101579
101650
101576
101765
101329
101329
101329
101329
101329
101329
101329
101329
101329
101329
101329
101329
101329
101329
101328
101327
101326
101329
101438
101523
101527
101581
101843
101329
101329
101329
101329
101329
101329
101329
101329
101329
101329
101329
101329
101329
101328
101327
101326
101326
101326
101326
101329
101660
102035
102171
101329
101329
101329
101329
101329
101329
101329
101329
101329
101329
101329
101329
101329
101328
101327
101327
101326
101326
101326
101329
101474
102166
102398
101329
101329
101329
101329
101329
101329
101329
101329
101329
101329
101329
101328
101328
101328
101327
101327
101326
101327
101327
101327
101327
101335
101932
101329
101329
101329
101329
101329
101329
101329
101329
101329
101329
101329
101328
101328
101328
101328
101327
101327
101327
101327
101327
101327
101327
101327
101329
101329
101329
101329
101329
101329
101329
101329
101329
101328
101328
101328
101328
101328
101328
101327
101327
101327
101327
101327
101327
101327
101326
101329
101329
101329
101329
101329
101329
101329
101328
101328
101328
101328
101328
101328
101328
101328
101328
101327
101327
101327
101327
101327
101327
101327
101329
101329
101328
101328
101328
101328
101328
101328
101328
101328
101328
101328
101328
101328
101328
101328
101328
101327
101327
101327
101327
101327
101327
101328
101328
101328
101328
101328
101328
101328
101328
101328
101328
101328
101328
101328
101328
101328
101328
101328
101328
101328
101327
101327
101327
101327
101328
101328
101328
101328
101328
101328
101328
101328
101328
101328
101328
101328
101328
101328
101328
101328
101328
101328
101328
101328
101328
101327
101327
101328
101328
101328
101328
101328
101328
101328
101328
101328
101328
101328
101328
101328
101328
101328
101328
101328
101328
101328
101328
101328
101328
101328
101328
101328
101328
101328
101328
101328
101328
101328
101328
101328
101328
101328
101328
101328
101328
101328
101328
101328
101328
101328
101328
101328
101328
101328
101328
101328
101328
101328
101328
101328
101328
101328
101328
101328
101328
101328
101328
101328
101328
101328
101328
101328
101328
101328
101328
101328
101328
101328
101328
101328
101328
101328
101328
101328
101328
101328
101328
101328
101328
101328
101328
101328
101328
101328
101328
101328
101328
101328
101328
101328
101328
101328
101328
101328
101328
101328
101328
101328
101328
101328
101328
101328
101328
101328
101328
101328
101328
101328
101328
101328
101328
101328
101328
101328
101328
101328
101328
101328
101328
101328
101328
101328
101328
101328
101328
101328
101328
101328
101328
101328
101328
101328
101328
101328
101328
101328
101328
101328
101328
101328
101328
101328
101328
101328
101328
101328
101328
101328
101328
101328
101328
101328
101328
101328
101328
101328
101328
101328
101328
101328
101328
101328
101328
101328
101328
101328
101328
101328
101328
101328
101328
101328
101328
101328
101328
101328
101328
101328
101328
101328
101328
101328
101328
101328
101328
101328
101328
101328
101328
101328
101328
101328
101328
101328
101328
101328
101328
101328
101328
101328
101328
101328
101328
101329
101328
101328
101328
101328
101328
101328
101328
101328
101328
101328
101328
101328
101328
101328
101328
101328
101328
101328
101328
101328
101329
101329
101329
101328
101328
101328
101328
101328
101328
101328
101328
101328
101328
101328
101328
101328
101328
101328
101328
101328
101328
101328
101328
101329
101329
101329
101328
101328
101328
101328
101328
101328
101328
101328
101328
101328
101328
101328
101328
101328
101328
101328
101328
101328
101328
101328
101329
101329
101329
101328
101328
101328
101328
101328
101328
101328
101328
101328
101328
101328
101328
101328
101328
101328
101328
101328
101328
101328
101328
101328
101328
101329
101327
101327
101327
101327
101327
101328
101328
101328
101328
101328
101328
101328
101328
101328
101328
101328
101328
101328
101328
101328
101328
101328
101328
101327
101327
101327
101327
101327
101327
101327
101327
101328
101328
101328
101328
101328
101328
101328
101328
101328
101328
101328
101328
101328
101328
101328
101327
101327
101327
101327
101327
101327
101327
101327
101327
101327
101327
101328
101328
101328
101328
101328
101328
101328
101328
101328
101328
101328
101328
101327
101327
101327
101327
101327
101327
101327
101327
101327
101327
101327
101327
101327
101327
101328
101328
101328
101328
101328
101328
101328
101328
101328
101327
101327
101327
101327
101327
101327
101327
101327
101327
101327
101327
101327
101327
101327
101327
101327
101327
101327
101327
101327
101327
101328
101328
101327
101327
101327
101327
101327
101327
101327
101327
101327
101327
101327
101327
101327
101327
101327
101327
101327
101327
101327
101327
101327
101327
101327
101327
101327
101327
101327
101327
101327
101327
101327
101327
101327
101327
101327
101327
101327
101327
101327
101327
101327
101327
101327
101327
101327
101327
101326
101326
101326
101326
101326
101326
101326
101327
101327
101327
101327
101327
101327
101326
101326
101326
101326
101326
101327
101327
101327
101327
101327
101326
101326
101326
101326
101326
101326
101326
101326
101326
101326
101326
101326
101326
101326
101326
101326
101326
101326
101326
101326
101326
101326
101326
101326
101326
101326
101326
101326
101326
101326
101326
101326
101326
101326
101326
101326
101326
101326
101326
101326
101326
101326
101326
101326
101326
101326
101326
101326
101326
101326
101326
101326
101326
101326
101326
101326
101326
101326
101326
101326
101326
101326
101326
101326
101326
101326
101326
101326
101326
101325
101325
101325
101325
101325
101325
101325
101325
101325
101325
101325
101325
101325
101325
101325
101325
101325
101325
101325
101325
101325
101326
101326
101325
101325
101325
101325
101325
101325
101325
101326
101325
101325
101325
101325
101325
101325
101325
101325
101325
101325
101325
101325
101325
101325
101325
102131
101842
101938
101600
101808
101637
101805
102091
102231
101767
101717
101717
102482
102329
102051
101934
102485
102501
102498
102498
102301
102436
102352
102180
102416
102372
101802
101529
101949
101532
101448
101448
102430
101910
101465
101500
102500
102497
102502
102522
101328
101439
102055
102447
101327
101327
101327
101327
101327
101327
101327
101327
101327
101327
101327
101327
101327
101327
101327
101327
101327
101327
101327
101327
101328
101328
101328
101328
101328
101328
101328
101328
101328
101328
101328
101328
101328
101328
101328
101328
101328
101328
101328
101328
101328
101328
101328
101328
101328
101328
101328
101328
101328
101328
101328
101328
101329
101329
101329
101329
101329
101329
101329
101329
101329
101329
101329
101329
101329
101329
101329
101329
101329
101329
101329
101329
101328
101328
101328
101329
101328
101328
101328
101328
101328
101328
101328
101328
101328
101328
101328
101328
101328
101328
101328
101328
101327
101327
101327
101327
101327
101327
101327
101327
101327
101327
101327
101327
101326
101326
101326
101326
101326
101326
101326
101326
101326
101326
101326
101326
101326
101326
101326
101326
101325
101325
101325
101325
101825
101553
101574
101712
102004
102035
101839
101605
101558
101529
101516
101519
101539
101590
101675
101817
102200
102599
102803
101828
101562
101689
102104
102119
101911
101518
101454
101455
101454
101455
101454
101455
101456
101464
101489
101899
102257
102543
101684
101728
102259
102193
102114
101543
101454
101456
101455
101455
101455
101454
101455
101456
101457
101465
101550
101887
102287
102145
102412
102405
102128
101557
101452
101454
101454
101455
101454
101454
101454
101455
101456
101459
101468
101485
101586
102073
102511
102345
101998
101458
101453
101449
101452
101452
101454
101455
101455
101455
101455
101457
101460
101468
101473
101471
102051
102042
101672
101460
101451
101449
101450
101450
101451
101452
101455
101455
101453
101453
101454
101460
101472
101477
101472
102079
101479
101451
101449
101450
101450
101449
101449
101449
101455
101457
101455
101455
101456
101481
101607
101583
101475
101472
102131
101449
101449
101450
101450
101448
101448
101452
101495
101691
101603
101454
101456
101582
102029
102539
102440
101618
101472
102176
101535
101478
101452
101451
101450
101448
101456
101873
102443
102164
101502
101597
102473
102891
102963
102960
102556
101903
102318
102528
101957
101451
101450
101448
101449
101624
102468
102573
102539
102136
102323
103000
102993
103093
103058
103063
102983
102919
102576
102587
102601
102240
102073
102211
102540
102532
102391
102271
102453
102448
101948
101913
102697
103131
103137
103177
103186
101383
102052
102548
102680
102682
102661
102148
101622
101405
101417
101524
101468
101353
101347
101869
102914
103233
103299
103350
101327
101327
101328
101404
101451
101371
101326
101327
101327
101327
101326
101328
101341
101379
101422
101670
102439
103156
103350
101327
101328
101328
101328
101327
101327
101326
101326
101325
101325
101322
101329
101358
101374
101344
101346
101396
101922
102481
101327
101327
101328
101328
101327
101327
101326
101326
101326
101325
101323
101323
101333
101340
101327
101338
101358
101401
101594
101328
101328
101328
101328
101327
101327
101326
101326
101325
101325
101323
101324
101325
101325
101326
101344
101457
101608
102117
101328
101328
101328
101328
101327
101327
101326
101326
101326
101325
101325
101324
101325
101326
101326
101330
101453
101738
102379
101328
101328
101328
101328
101327
101327
101326
101326
101325
101325
101325
101325
101325
101326
101326
101327
101327
101392
102392
101328
101328
101328
101328
101327
101327
101327
101326
101326
101326
101326
101326
101326
101326
101327
101327
101327
101327
102443
101328
101328
101328
101328
101328
101327
101327
101327
101326
101326
101326
101326
101327
101327
101327
101327
101327
101328
102493
101328
101328
101328
101328
101328
101327
101327
101327
101327
101327
101327
101327
101327
101327
101327
101328
101328
101328
102539
101328
101328
101328
101328
101328
101328
101327
101327
101327
101327
101327
101327
101327
101327
101328
101328
101330
101330
101805
101328
101328
101328
101328
101328
101328
101328
101327
101327
101327
101327
101327
101328
101328
101328
101328
101329
101328
101329
101328
101328
101328
101328
101328
101328
101328
101328
101328
101327
101328
101328
101328
101328
101328
101329
101329
101333
101334
101329
101328
101328
101328
101328
101328
101328
101328
101328
101328
101328
101328
101328
101328
101329
101329
101329
101339
101337
101329
101329
101328
101328
101328
101328
101328
101328
101328
101328
101328
101328
101328
101328
101329
101329
101329
101339
101336
101329
101329
101329
101328
101328
101328
101328
101328
101328
101328
101328
101328
101328
101328
101329
101328
101329
101335
101347
101329
101329
101329
101328
101328
101328
101328
101328
101328
101328
101328
101328
101328
101328
101329
101328
101330
101328
101618
101329
101329
101329
101328
101328
101328
101328
101328
101328
101328
101328
101328
101328
101328
101329
101328
101330
101328
101760
101329
101328
101328
101328
101328
101328
101328
101328
101328
101328
101328
101328
101328
101328
101329
101328
101329
101328
101773
101328
101328
101328
101328
101328
101328
101328
101327
101327
101327
101327
101327
101328
101328
101328
101328
101329
101328
101775
101328
101328
101328
101328
101328
101328
101327
101327
101327
101327
101327
101327
101327
101327
101328
101328
101328
101327
101427
101328
101328
101328
101328
101327
101327
101327
101327
101327
101327
101327
101327
101327
101327
101328
101327
101328
101327
101327
101328
101328
101328
101327
101327
101327
101327
101327
101326
101326
101326
101326
101327
101327
101327
101327
101328
101327
101327
101327
101327
101327
101327
101327
101327
101327
101326
101326
101326
101326
101326
101326
101326
101327
101327
101327
101327
101328
101327
101327
101327
101327
101327
101326
101326
101326
101325
101325
101325
101325
101326
101326
101326
101327
101327
101327
101328
101327
101327
101327
101326
101326
101326
101326
101326
101325
101325
101325
101325
101325
101326
101326
101326
101327
101327
101328
101326
101326
101326
101326
101326
101326
101326
101325
101324
101324
101325
101324
101325
101325
101326
101326
101327
101327
101327
101326
101326
101326
101326
101326
101326
101325
101325
101324
101324
101324
101324
101324
101325
101325
101326
101326
101326
101327
101326
101326
101326
101326
101325
101325
101325
101325
101324
101324
101324
101325
101324
101325
101325
101326
101326
101326
101326
101326
101326
101326
101325
101325
101325
101325
101325
101324
101324
101325
101325
101324
101325
101325
101325
101325
101325
101326
101325
101325
101325
101325
101325
101325
101325
101325
101324
101324
101325
101325
101325
101325
101325
101325
101325
101326
101326
)
;

boundaryField
{
    leftWall
    {
        type            zeroGradient;
    }
    rightWall
    {
        type            zeroGradient;
    }
    lowerWall
    {
        type            zeroGradient;
    }
    atmosphere
    {
        type            fixedValue;
        value           uniform 101325;
    }
    defaultFaces
    {
        type            empty;
    }
}


// ************************************************************************* //
