/*--------------------------------*- C++ -*----------------------------------*\
| =========                 |                                                 |
| \\      /  F ield         | OpenFOAM: The Open Source CFD Toolbox           |
|  \\    /   O peration     | Version:  2012                                  |
|   \\  /    A nd           | Website:  www.openfoam.com                      |
|    \\/     M anipulation  |                                                 |
\*---------------------------------------------------------------------------*/
FoamFile
{
    version     2.0;
    format      ascii;
    class       volScalarField;
    location    "0.71";
    object      volumeFraction1;
}
// * * * * * * * * * * * * * * * * * * * * * * * * * * * * * * * * * * * * * //

dimensions      [0 0 0 0 0 0 0];


internalField   nonuniform List<scalar> 
2268
(
1
1
1
1
1
1
1
1
1
1
1
1
1
1
1
1
1
1
1
1
1
0.99999
0.99978
1
1
1
1
1
1
1
1
1
1
1
1
1
1
1
1
1
1
1
1
1
0.999956
0.999711
1
1
1
1
1
1
1
1
1
1
1
1
1
1
1
1
1
1
1
1
1
0.999965
0.999711
1
1
1
1
1
1
1
1
1
1
1
1
1
1
1
1
1
1
1
1
1
0.999979
0.999722
1
1
1
1
1
1
1
1
1
1
1
1
1
1
1
1
1
1
1
1
1
0.999997
0.999984
1
1
1
1
1
1
1
1
1
1
1
1
1
1
1
1
1
1
1
1
1
1
1
1
1
1
1
1
1
1
1
1
1
1
1
1
1
1
1
1
1
1
1
1
1
1
0.970507
0.974416
0.99114
1
1
1
1
1
1
1
1
1
1
1
1
1
1
1
1
1
1
0.999999
0.999968
0.646604
0.646604
0.650684
0.899522
0.909708
0.909708
0.909708
0.909708
0.870947
0.72886
0.835758
0.835759
0.835559
0.834728
0.834967
0.834965
0.834967
0.830785
0.766734
0.767472
0.761089
0.713351
0.839401
0.909708
0.909708
0.888221
0.88525
0.845545
0.718315
0.673268
0.663616
0.729298
0.784468
0.794264
0.770854
0.673935
0.579846
0.579866
0.81289
0.812884
0.707516
0.678208
0.727038
0.842106
0.880902
0.436341
0.23882
0.238468
0.178137
0.0777535
0.128272
0.215873
0.235976
0.190434
0.150114
0.269709
0.72511
0.812884
0.676968
0.245002
0.12125
0.150873
0.656528
0.963093
0.918883
0.590177
0.331065
0.0348055
0.000587261
0.000587261
0.00133491
0.00185097
0.000639856
0.000587261
0.134168
0.800032
0.786755
0.199939
9.70921e-20
0.00105924
0.0170281
0.665478
0.963091
0.997373
0.979298
0.840663
0.613743
0.363028
0.106206
0.000587261
0.000587261
0.000587261
0.000587261
0.0872525
0.800032
0.79027
0.019458
3.70686e-24
1.429e-05
0.0157792
0.813227
0.997373
0.997373
0.997373
0.996885
0.990803
0.954497
0.826452
0.551551
0.203457
0.000587261
0.000587261
0.497014
0.763703
0.790654
0.0209544
-9.38652e-23
-2.00383e-21
0.360814
0.895831
0.997373
0.994602
0.995388
0.997327
0.997331
0.997327
0.997331
0.991397
0.882235
0.622399
0.494806
0.856407
0.737815
0.759462
0.0312206
-1.01711e-22
-3.6568e-19
0.705335
0.954917
0.971515
0.758672
0.748698
0.763715
0.804711
0.853284
0.916274
0.992175
0.99214
0.992175
0.964302
0.964303
0.737897
0.424712
0.448826
0.495778
0.571639
0.666895
0.752621
0.844528
0.929094
0.989185
1
1
1
1
1
1
1
1
1
1
1
1
0.999988
0.996068
0.00137217
0.00226064
0.00417258
0.0109205
0.0343757
0.0817705
0.155015
0.268077
0.42619
0.631648
0.777673
0.881226
0.95848
1
0.999998
1
0.9999
0.999915
0.999992
1
1
0.999941
0.935833
9.04045e-09
3.9965e-08
3.11356e-07
3.15653e-06
2.21651e-05
0.00012865
0.000866665
0.00449987
0.0173583
0.0582696
0.147897
0.265154
0.384327
0.542247
0.679524
0.780955
0.850056
0.948808
0.983396
1
0.998775
0.999941
0.997306
7.33398e-15
7.32613e-14
2.9092e-12
1.77806e-10
9.42265e-09
2.72282e-07
4.12012e-06
4.06345e-05
0.000298134
0.00162362
0.00629473
0.0174614
0.0339727
0.0491444
0.0791166
0.112459
0.136133
0.219618
0.376811
0.587602
0.765019
0.986888
0.999833
1.19373e-15
3.98925e-14
8.96096e-13
1.77931e-11
2.6716e-10
2.23655e-09
9.90495e-09
7.3405e-08
6.1049e-07
3.57431e-06
1.0798e-05
1.50948e-05
6.40469e-06
-8.42159e-26
1.1006e-31
1.55164e-21
0.000385792
0.00647217
0.0348699
0.12135
0.253131
0.454803
0.774056
3.95525e-16
1.68312e-14
3.80662e-13
5.77588e-12
5.5793e-11
1.53701e-10
2.1312e-10
1.64208e-09
2.60552e-08
3.01369e-07
9.77846e-07
1.01186e-06
1.42683e-07
5.91116e-30
1.42006e-11
1.774e-09
1.87305e-07
0.000949997
0.0607426
0.181141
0.251812
0.186598
0.31837
3.3781e-16
1.38523e-14
2.63974e-13
2.89018e-12
1.86416e-11
6.03923e-11
9.95973e-11
1.80138e-10
6.96299e-10
7.41546e-08
8.46715e-07
9.30231e-07
1.50017e-14
1.53766e-14
3.4234e-13
3.30565e-13
4.21899e-07
0.00220454
0.083435
0.153176
0.181047
0.186601
0.367539
2.11635e-16
8.90293e-15
1.63508e-13
1.6749e-12
1.04296e-11
4.07537e-11
1.06357e-10
1.80335e-10
9.15435e-10
3.70744e-07
1.80867e-06
1.80871e-06
2.72802e-07
2.82257e-27
1.55166e-09
6.81536e-06
2.14976e-05
1.22251e-05
3.65914e-07
0.0019311
0.241903
0.477446
0.537925
8.48068e-17
3.67936e-15
7.15968e-14
8.09664e-13
5.94339e-12
3.1523e-11
1.28309e-10
3.18765e-10
1.28687e-09
1.95531e-07
1.52012e-06
1.80867e-06
3.98724e-07
1.44304e-26
9.15281e-09
1.71843e-06
5.56238e-06
3.65902e-07
3.65895e-07
0.00119594
0.0934774
0.540648
0.682689
2.68248e-17
1.216e-15
2.57198e-14
3.34374e-13
3.08852e-12
2.2853e-11
1.37893e-10
6.67915e-10
3.70749e-09
3.82698e-08
2.05067e-07
5.00327e-07
1.60234e-07
3.03189e-10
3.16605e-09
1.12415e-07
2.63353e-07
4.33462e-07
5.03226e-07
5.01189e-07
5.02235e-07
0.00465882
0.351805
7.83647e-18
3.65853e-16
8.29838e-15
1.2335e-13
1.4268e-12
1.4171e-11
1.17636e-10
7.85184e-10
2.9093e-09
3.49352e-09
1.17205e-09
1.37561e-09
4.6175e-09
3.10075e-09
2.87907e-09
1.57233e-08
9.16187e-08
2.83487e-07
4.20814e-07
8.83307e-07
2.83769e-06
7.24148e-07
7.16837e-07
2.11182e-18
9.95443e-17
2.33687e-15
3.75877e-14
4.9959e-13
5.98647e-12
6.38379e-11
4.76738e-10
1.14899e-09
8.86726e-10
1.98192e-10
1.17943e-10
2.12612e-10
1.91429e-09
2.67196e-09
1.2507e-08
2.3177e-08
9.23179e-08
1.40385e-07
1.53094e-07
2.96695e-06
5.65912e-06
3.0229e-06
5.14129e-19
2.40922e-17
5.71306e-16
9.48099e-15
1.33953e-13
1.71986e-12
1.85487e-11
1.38838e-10
3.25455e-10
3.42097e-10
1.65942e-10
1.17943e-10
1.48391e-10
5.73108e-10
1.89049e-09
6.17694e-09
4.31397e-09
5.38932e-09
5.24952e-09
1.88385e-08
1.88883e-07
3.4877e-06
1.10873e-05
1.1559e-19
5.33292e-18
1.25387e-16
2.07027e-15
2.95847e-14
3.90954e-13
4.30188e-12
3.28893e-11
8.70299e-11
1.09161e-10
8.74915e-11
9.22788e-11
1.10645e-10
2.4883e-10
7.28555e-10
1.67125e-09
1.43809e-09
1.02425e-09
7.6756e-10
1.54989e-09
3.20554e-09
5.59425e-08
2.28939e-06
2.3728e-20
1.07791e-18
2.50898e-17
4.06323e-16
5.72937e-15
7.64813e-14
8.59031e-13
6.78172e-12
2.03268e-11
2.90438e-11
2.85763e-11
3.95295e-11
5.55604e-11
1.0243e-10
2.3515e-10
4.87107e-10
5.92546e-10
6.37684e-10
5.75021e-10
4.93596e-10
2.09676e-10
6.52943e-10
3.96173e-08
4.51423e-21
2.0162e-19
4.64395e-18
7.31998e-17
9.9906e-16
1.32278e-14
1.50784e-13
1.22976e-12
4.07389e-12
6.58171e-12
7.66235e-12
1.05941e-11
1.64605e-11
3.20261e-11
6.91809e-11
1.37528e-10
2.01047e-10
2.70619e-10
3.2649e-10
3.16683e-10
2.0333e-10
5.79527e-10
6.63408e-10
7.92682e-22
3.48285e-20
7.97337e-19
1.22725e-17
1.61449e-16
2.10107e-15
2.41393e-14
2.01741e-13
7.11612e-13
1.28664e-12
1.70832e-12
2.41587e-12
3.8755e-12
7.82974e-12
1.71146e-11
3.43207e-11
5.58742e-11
8.42634e-11
1.14456e-10
1.54553e-10
1.46554e-10
3.1797e-10
2.93994e-10
1.29304e-22
5.59179e-21
1.27664e-19
1.92786e-18
2.44445e-17
3.10092e-16
3.56242e-15
3.01175e-14
1.09707e-13
2.18962e-13
3.20501e-13
4.66863e-13
7.53255e-13
1.53642e-12
3.44506e-12
7.12766e-12
1.25666e-11
2.05737e-11
3.06182e-11
4.48523e-11
5.91611e-11
9.34499e-11
1.16553e-10
1.96269e-23
8.36336e-22
1.90902e-20
2.84446e-19
3.49518e-18
4.31326e-17
4.92455e-16
4.11952e-15
1.51183e-14
3.27155e-14
5.1214e-14
7.66853e-14
1.23061e-13
2.4899e-13
5.67912e-13
1.21413e-12
2.27396e-12
3.96395e-12
6.32579e-12
9.71618e-12
1.37791e-11
2.0788e-11
2.9442e-11
2.79478e-24
1.17676e-22
2.68886e-21
3.97385e-20
4.77127e-19
5.73304e-18
6.45054e-17
5.19911e-16
1.88225e-15
4.32614e-15
7.04479e-15
1.07607e-14
1.70172e-14
3.3745e-14
7.6896e-14
1.67847e-13
3.26948e-13
5.93814e-13
9.91973e-13
1.56997e-12
2.31455e-12
3.39046e-12
4.91813e-12
3.74583e-25
1.56464e-23
3.57691e-22
5.25903e-21
6.20621e-20
7.26187e-19
7.97495e-18
6.06424e-17
2.12952e-16
5.08136e-16
8.39843e-16
1.29551e-15
2.00021e-15
3.86197e-15
8.60921e-15
1.88093e-14
3.70653e-14
6.81088e-14
1.15282e-13
1.82647e-13
2.71446e-13
3.803e-13
5.3577e-13
4.7778e-26
1.98934e-24
4.54221e-23
6.65783e-22
7.76957e-21
8.8657e-20
9.37255e-19
6.5908e-18
2.21265e-17
5.35225e-17
8.78378e-17
1.351e-16
2.00948e-16
3.75235e-16
7.97066e-16
1.69421e-15
3.24772e-15
5.77512e-15
9.40866e-15
1.40932e-14
1.99669e-14
2.51732e-14
3.29902e-14
5.85939e-27
2.44337e-25
5.56145e-24
8.137e-23
9.42627e-22
1.04676e-20
1.04689e-19
6.70941e-19
2.1279e-18
5.09502e-18
8.12688e-18
1.22632e-17
1.73204e-17
3.08747e-17
6.06116e-17
1.20998e-16
2.13134e-16
3.41562e-16
4.84432e-16
5.99715e-16
7.89324e-16
1.74051e-15
7.03994e-15
6.99561e-28
2.93266e-26
6.64185e-25
9.70323e-24
1.11709e-22
1.2006e-21
1.11565e-20
6.4469e-20
1.91439e-19
4.42472e-19
6.72887e-19
9.78701e-19
1.2918e-18
2.16142e-18
3.75581e-18
6.68071e-18
9.60672e-18
1.22442e-17
1.31557e-16
3.59721e-15
1.81315e-14
7.43351e-14
3.20443e-13
8.22137e-29
3.47281e-27
7.8166e-26
1.13954e-24
1.3009e-23
1.34095e-22
1.13972e-21
5.90045e-21
1.63139e-20
3.54304e-20
5.06398e-20
6.89419e-20
8.05071e-20
1.22012e-19
1.8431e-19
5.19349e-19
1.62069e-17
1.09736e-15
3.97415e-14
1.94386e-13
5.55479e-13
1.77525e-12
6.4755e-12
9.60787e-30
4.09083e-28
9.1409e-27
1.32668e-25
1.49323e-24
1.46039e-23
1.12241e-22
5.18161e-22
1.30688e-21
2.4857e-21
3.37252e-21
6.43459e-21
6.08424e-20
1.29369e-18
3.00379e-17
6.55937e-16
1.32253e-14
2.34384e-13
1.40912e-12
3.59347e-12
7.63197e-12
2.44372e-11
1.29148e-10
1.08447e-30
4.83029e-29
1.06737e-27
1.52026e-26
1.6218e-25
1.42827e-24
1.01039e-23
4.77322e-23
2.81883e-22
4.66978e-21
1.01296e-19
2.11811e-18
3.94431e-17
6.49432e-16
9.41526e-15
1.16492e-13
1.16556e-12
8.88329e-12
2.43428e-11
7.55959e-11
6.77097e-10
2.60317e-09
2.84203e-08
1.68012e-31
5.30719e-30
1.28161e-28
2.65551e-27
7.15773e-26
2.31285e-24
7.39587e-23
2.17338e-21
5.49975e-20
1.18908e-18
2.21327e-17
3.55896e-16
4.97264e-15
6.02879e-14
6.35833e-13
5.90931e-12
6.00673e-11
5.7786e-10
5.76063e-09
4.12646e-08
3.33947e-07
4.80452e-07
4.51509e-07
1.68064e-31
3.02123e-29
3.17251e-27
2.20505e-25
1.11395e-23
4.33415e-22
1.35107e-20
3.46621e-19
7.47231e-18
1.37377e-16
2.18345e-15
3.02519e-14
3.68061e-13
3.91386e-12
3.61504e-11
3.43413e-10
6.39084e-09
8.50112e-08
8.12985e-07
1.6485e-06
1.65221e-06
1.16068e-06
4.74363e-07
2.13825e-29
4.33238e-27
4.23124e-25
2.64752e-23
1.19321e-21
4.12257e-20
1.13552e-18
2.55704e-17
4.79037e-16
7.53938e-15
1.00246e-13
1.12427e-12
1.06401e-11
8.62127e-11
7.20091e-10
8.01143e-09
1.86072e-07
1.84538e-06
2.75296e-06
2.75355e-06
1.02776e-06
1.32231e-11
1.32235e-11
2.22939e-27
3.93655e-25
3.34126e-23
1.80944e-21
7.00926e-20
2.06072e-18
4.76279e-17
8.83097e-16
1.32833e-14
1.62346e-13
1.60302e-12
1.25655e-11
7.68457e-11
3.85348e-10
3.52432e-09
4.31397e-07
2.55383e-06
2.68963e-06
2.05279e-06
2.54746e-08
3.74205e-11
5.96319e-11
2.10768e-10
7.80549e-26
1.25466e-23
9.59094e-22
4.61981e-20
1.56872e-18
3.97759e-17
7.78287e-16
1.19546e-14
1.45078e-13
1.38461e-12
1.04123e-11
5.3729e-11
7.08925e-11
7.09249e-11
4.92391e-07
2.43323e-06
2.55383e-06
1.17541e-06
3.272e-11
3.27199e-11
1.24568e-10
2.33742e-10
2.96561e-10
1.64997e-24
2.23933e-22
1.43711e-20
5.7851e-19
1.63359e-17
3.41947e-16
5.46309e-15
6.73982e-14
6.40258e-13
4.58909e-12
2.41939e-11
1.26701e-10
8.76603e-09
4.701e-07
2.32122e-06
2.43205e-06
9.15723e-07
4.01798e-11
4.422e-11
1.16018e-10
1.44332e-10
1.18726e-10
8.15437e-11
9.71661e-24
1.25799e-21
7.68239e-20
2.92713e-18
7.76204e-17
1.51362e-15
2.23766e-14
2.54373e-13
2.21948e-12
1.42854e-11
6.01483e-11
8.52895e-10
1.38916e-07
1.8289e-06
2.31825e-06
1.25763e-06
1.26799e-11
4.01789e-11
6.60363e-11
6.29897e-11
3.61392e-11
1.93922e-11
1.61274e-11
4.7344e-23
5.72162e-21
3.26166e-19
1.15856e-17
2.85764e-16
5.17861e-15
7.01101e-14
7.21086e-13
5.74708e-12
3.57427e-11
2.63645e-10
1.83519e-08
9.70076e-07
2.65106e-06
1.81908e-06
2.32047e-12
1.26797e-11
2.81151e-11
2.61119e-11
1.10535e-11
5.23008e-12
3.97362e-12
4.60655e-12
1.20539e-22
1.35455e-20
7.12854e-19
2.31737e-17
5.16365e-16
8.25978e-15
9.76753e-14
8.7137e-13
6.0752e-12
3.97694e-11
2.73286e-09
3.01677e-07
2.28233e-06
2.63475e-06
6.08211e-07
2.32053e-12
8.1275e-12
9.70941e-12
4.08771e-12
1.61781e-12
9.75685e-13
8.77435e-13
1.31967e-12
2.55478e-22
2.70933e-20
1.3365e-18
4.04046e-17
8.30698e-16
1.21847e-14
1.30359e-13
1.01844e-12
5.75295e-12
2.79974e-11
5.24378e-09
1.16513e-06
2.2737e-06
1.7458e-06
1.78462e-12
2.3205e-12
3.58857e-12
1.89315e-12
5.56809e-13
2.442e-13
1.70972e-13
1.72257e-13
2.99839e-13
6.40891e-22
6.42805e-20
2.99057e-18
8.52136e-17
1.65622e-15
2.3139e-14
2.37632e-13
1.77458e-12
8.92249e-12
2.17375e-11
1.62045e-09
1.12409e-06
2.1402e-06
1.54533e-07
1.76697e-12
1.76696e-12
1.76708e-12
3.3659e-13
7.18935e-14
3.13326e-14
2.37641e-14
2.8141e-14
4.7295e-14
1.51711e-21
1.57392e-19
7.57715e-18
2.22925e-16
4.46546e-15
6.46478e-14
7.08713e-13
6.15094e-12
4.46507e-11
1.12659e-09
1.21154e-07
7.39616e-07
3.61246e-07
2.1438e-12
2.14389e-12
2.91045e-12
1.17988e-12
8.65831e-14
7.79872e-15
3.04095e-15
2.43739e-15
3.24546e-15
4.60894e-15
4.56728e-21
4.68441e-19
2.25103e-17
6.64113e-16
1.33371e-14
1.91933e-13
2.03507e-12
1.61183e-11
1.21936e-10
7.60633e-09
1.85474e-07
2.45525e-07
2.47128e-12
2.53241e-12
5.10201e-12
5.17571e-12
9.7644e-13
2.5306e-14
6.75918e-16
1.99249e-16
1.61057e-16
1.99158e-16
2.19315e-16
8.07174e-21
8.61671e-19
4.36705e-17
1.36929e-15
2.9457e-14
4.587e-13
5.36948e-12
4.94666e-11
6.50594e-10
2.89205e-08
1.5113e-07
5.32936e-08
2.47128e-12
5.55155e-12
1.08796e-11
7.21486e-12
4.71575e-13
4.01961e-15
3.10268e-17
6.85994e-18
5.02098e-18
4.00792e-18
2.00261e-18
1.20837e-20
1.49553e-18
8.65792e-17
3.07724e-15
7.40814e-14
1.26212e-12
1.5605e-11
1.50762e-10
2.0845e-09
2.51943e-08
3.76458e-08
2.79676e-09
2.47128e-12
4.21255e-11
4.54658e-11
5.53073e-12
4.29263e-14
-1.65635e-39
2.76136e-21
1.57828e-22
3.73678e-24
4.97308e-26
5.48232e-26
0.928763
0.741074
0.743939
0.744017
0.304696
0.198097
0.328035
0.529969
0.779705
0.190734
0.105284
0.105262
0.996728
0.845524
0.465507
0.354002
0.962655
0.958671
0.930401
0.923113
0.719614
0.828847
0.751133
0.596796
0.747193
0.720209
0.275399
0.0684636
0.362235
0.0590242
5.15523e-06
5.15523e-06
0.682699
0.32776
0.0223094
0.0430494
0.682689
0.682699
0.67679
0.681464
0.000162327
0.0612981
0.394379
0.608375
4.35494e-07
4.35146e-07
4.33695e-07
4.34094e-07
1.10151e-05
2.8483e-06
4.34094e-07
4.34103e-07
6.10527e-06
4.80066e-06
1.41485e-06
7.8189e-06
5.74353e-08
2.04089e-07
1.69528e-07
5.72945e-07
6.26995e-10
5.95331e-10
1.24041e-09
1.32012e-09
2.71867e-10
2.28418e-10
2.24798e-10
2.19062e-10
1.15454e-10
1.08021e-10
1.07958e-10
1.12825e-10
3.09891e-11
3.08196e-11
3.14026e-11
3.32963e-11
5.56575e-12
5.84633e-12
6.18437e-12
6.71177e-12
6.46367e-13
7.12137e-13
7.81225e-13
8.72599e-13
3.95526e-14
4.45798e-14
5.03465e-14
5.83511e-14
1.51182e-14
2.53902e-14
4.29781e-14
6.8957e-14
6.75913e-13
1.18002e-12
1.86827e-12
2.78091e-12
1.4688e-11
2.89292e-11
3.96855e-11
6.71906e-11
4.82426e-10
2.08684e-09
2.74321e-09
1.01481e-08
5.1655e-08
1.5166e-07
2.05165e-07
2.70736e-07
4.90763e-07
5.18849e-07
5.18077e-07
3.42451e-07
3.93556e-07
1.7742e-07
4.08553e-08
3.85696e-11
1.32231e-11
1.32235e-11
1.32231e-11
3.92508e-10
3.13687e-10
4.34593e-10
6.16677e-10
8.60541e-10
3.32732e-10
3.85788e-10
4.27385e-10
4.66375e-10
7.53157e-11
8.31161e-11
9.97859e-11
1.27998e-10
2.13503e-11
2.697e-11
3.20653e-11
3.89871e-11
7.21775e-12
8.54136e-12
9.71744e-12
1.1093e-11
1.94175e-12
2.15126e-12
2.30036e-12
2.4356e-12
3.9146e-13
3.99949e-13
3.90079e-13
3.76116e-13
5.42308e-14
5.09993e-14
4.34974e-14
3.68614e-14
4.7115e-15
3.93176e-15
3.01668e-15
2.45588e-15
1.88685e-16
1.4254e-16
1.16232e-16
1.07766e-16
7.4364e-19
5.95886e-19
6.65311e-19
1.20456e-18
5.91768e-25
2.85058e-24
1.16125e-23
4.37162e-23
0.578747
-4.35536e-21
-1.2485e-19
0.310644
0.891713
0.954917
0.59474
0.241833
0.172261
0.124371
0.102527
0.109801
0.142487
0.225237
0.354223
0.517098
0.788577
0.861832
0.74479
0.414858
-5.31083e-21
0.20407
0.871791
0.924047
0.673835
0.08875
7.0965e-09
7.0965e-09
7.0965e-09
7.0965e-09
6.30658e-05
0.000324184
0.00153364
0.00616686
0.0207824
0.439814
0.601468
0.766457
0.107786
0.242333
0.88498
0.901777
0.810642
0.113981
2.22264e-06
2.98314e-05
1.83947e-06
1.63583e-06
1.09997e-05
1.09056e-05
7.67235e-06
2.89002e-06
2.05872e-05
0.00377881
0.100298
0.415317
0.766457
0.483914
0.969561
0.969565
0.703915
0.114527
5.73759e-07
2.22262e-06
3.26658e-06
3.0313e-11
3.0313e-11
4.85918e-11
3.0313e-11
3.0313e-11
1.86528e-08
1.7368e-05
0.00153416
0.0137119
0.117595
0.658674
0.923115
0.797019
0.512478
0.00664612
6.44623e-08
5.73713e-07
2.47247e-07
5.42883e-11
4.79999e-10
8.68252e-10
1.31007e-09
4.32967e-09
4.29934e-08
4.50875e-07
8.9185e-06
0.000347071
0.0014627
1.09193e-07
0.56134
0.479175
0.183631
0.00947217
6.44623e-08
6.44831e-08
5.01026e-08
5.42883e-11
5.49785e-11
4.64708e-08
8.89889e-08
2.054e-07
1.50799e-07
4.14802e-06
6.01654e-05
0.000445312
0.000293164
1.09193e-07
1.09153e-07
0.52091
0.0220883
2.32693e-07
2.3285e-07
2.32907e-07
8.85323e-08
8.28736e-07
1.30451e-05
0.000418264
0.00148867
0.00106742
1.44841e-05
5.31894e-05
0.00137367
0.019732
0.120164
0.0899101
0.00237977
1.09193e-07
0.51424
5.15523e-06
7.9009e-06
2.32693e-07
4.09544e-07
5.35848e-07
9.34119e-06
0.00202245
0.0344259
0.173159
0.106979
1.44842e-05
0.00221762
0.0933755
0.426959
0.781683
0.711706
0.10799
1.09153e-07
0.510781
0.0582625
0.0178791
0.00133487
4.09409e-07
4.0953e-07
2.71316e-05
0.00594119
0.281582
0.657234
0.479247
0.0321339
0.101447
0.684419
0.94718
0.990203
0.990203
0.741999
0.300914
0.58122
0.680689
0.307998
0.00156675
4.0953e-07
4.14604e-07
4.14555e-07
0.105895
0.628472
0.697333
0.697319
0.435427
0.570287
0.936428
0.936432
0.985188
0.990203
0.990203
0.937724
0.893225
0.676388
0.677157
0.669368
0.457845
0.361053
0.443094
0.641854
0.641857
0.57479
0.50755
0.604351
0.603258
0.330331
0.288451
0.728658
0.990203
0.990203
0.990203
0.990203
0.0284635
0.367523
0.620132
0.684316
0.684386
0.676664
0.417247
0.150203
0.0400843
0.0462197
0.104085
0.0646861
5.96594e-05
5.9675e-05
0.2621
0.813281
0.976533
0.9902
0.990203
2.95276e-07
2.93517e-07
2.93624e-07
0.0363872
0.0590073
0.0215558
3.84079e-10
3.84079e-10
3.84079e-10
3.84079e-10
3.84079e-10
4.17309e-05
0.00283957
0.0186734
0.0444238
0.165119
0.53032
0.867207
0.957594
8.31983e-06
3.9165e-06
2.93625e-07
3.84079e-10
3.84079e-10
3.84079e-10
3.84079e-10
3.84079e-10
4.1772e-10
3.84079e-10
1.25513e-09
0.000176157
0.012673
0.0201084
0.00667306
0.0055115
0.0270395
0.239112
0.408685
7.78328e-07
1.33312e-06
3.53795e-06
9.67543e-07
3.84079e-10
3.84079e-10
3.84079e-10
3.84079e-10
1.05183e-09
3.84079e-10
3.31561e-09
0.000178177
0.00350894
0.00632542
0.000232956
0.00551121
0.00884159
0.00884069
0.0621154
9.54631e-09
5.59003e-08
4.66279e-07
1.53134e-06
2.47242e-07
4.56439e-06
6.52915e-06
7.38184e-07
3.84079e-10
3.84079e-10
4.687e-07
5.10236e-06
1.88611e-08
1.8881e-08
1.88611e-08
0.00699478
0.0570412
0.115813
0.312409
4.90138e-10
1.76341e-09
4.5033e-10
3.87645e-07
2.96642e-06
1.2395e-05
3.59924e-05
3.50916e-05
4.11929e-06
2.1159e-08
4.20172e-08
3.84028e-08
3.83961e-08
1.88961e-08
1.84195e-05
0.001514
0.0487764
0.158433
0.400965
1.87753e-10
5.60825e-10
4.50324e-10
3.69352e-11
2.56015e-06
1.9825e-06
2.83069e-05
4.21206e-05
4.21201e-05
3.20955e-05
7.87983e-06
2.82042e-06
2.11622e-07
1.23765e-11
3.71352e-05
0.000158075
7.09006e-06
0.0239511
0.400965
6.62892e-11
3.09043e-10
3.46996e-10
3.6935e-11
4.35768e-07
2.86032e-07
2.8008e-06
6.60694e-06
1.19032e-05
2.76186e-05
2.76295e-05
1.57306e-05
2.80127e-07
1.23759e-11
3.68206e-05
7.09006e-06
7.08789e-06
8.01566e-06
0.400965
1.67904e-11
7.9608e-11
1.86947e-10
1.2327e-10
8.06024e-10
1.14349e-08
9.72289e-09
1.33131e-08
1.61238e-07
9.2198e-07
1.29937e-06
9.66453e-07
5.38802e-07
1.23765e-11
3.09009e-05
7.08789e-06
7.09006e-06
0.000105496
0.400965
2.52686e-12
1.27761e-11
3.42426e-11
5.57874e-11
2.76898e-11
3.70325e-10
6.95862e-10
1.1619e-09
2.42191e-09
1.23759e-11
1.23765e-11
1.23759e-11
1.23765e-11
1.23759e-11
2.36076e-06
8.29249e-05
0.000117208
5.30735e-05
0.399707
1.8614e-13
1.04335e-12
3.09462e-12
7.24214e-12
5.87858e-12
5.624e-11
2.28613e-10
4.80888e-10
4.81773e-10
3.93859e-10
2.02923e-10
1.51348e-10
1.07697e-10
3.88474e-11
1.04061e-11
0.000161517
0.000232719
0.000495817
0.1491
2.70757e-13
7.44462e-13
8.27204e-13
7.2316e-13
6.90694e-13
4.7466e-12
2.45113e-11
6.72601e-11
7.88656e-11
7.27067e-11
5.60079e-11
6.43829e-11
9.15265e-11
6.85946e-11
1.04055e-11
0.000170619
0.000232344
0.000112127
0.000111536
1.12154e-11
3.12177e-11
3.64417e-11
2.44943e-11
8.37497e-12
2.70645e-12
2.29274e-12
3.87507e-12
6.77651e-12
1.02224e-11
1.41571e-11
2.48685e-11
3.70611e-11
2.31547e-11
1.03455e-11
0.000108943
0.000170347
0.00132405
0.00195945
3.7645e-10
8.63496e-10
9.01539e-10
4.62884e-10
1.65752e-10
5.4269e-11
1.47378e-11
3.42397e-12
1.98542e-12
2.11359e-12
3.89227e-12
1.06576e-11
2.22096e-11
1.47092e-11
1.03462e-11
9.36991e-05
9.82126e-05
0.00293407
0.00232576
3.07016e-08
2.57524e-08
1.20097e-08
2.74437e-09
9.67772e-10
4.3133e-10
1.716e-10
5.24729e-11
1.30698e-11
3.77524e-12
2.82765e-12
5.4339e-12
1.42496e-11
1.03188e-11
1.03455e-11
9.07833e-05
9.9393e-05
0.00294166
0.00232568
1.81658e-07
6.05758e-08
1.8905e-08
5.81731e-09
2.55372e-09
1.60287e-09
9.01752e-10
3.76032e-10
1.23323e-10
3.4409e-11
8.77558e-12
5.97559e-12
1.02877e-11
1.02873e-11
1.02867e-11
8.30584e-05
2.51588e-05
0.00176535
0.00456143
6.28754e-08
1.42545e-08
1.83665e-08
2.63073e-08
1.20549e-08
5.02362e-09
3.02738e-09
1.6366e-09
6.68435e-10
2.24747e-10
6.30747e-11
1.74115e-11
1.14751e-11
1.02867e-11
1.03455e-11
4.42605e-05
2.51593e-05
3.95456e-26
0.0734113
3.59624e-11
3.85696e-11
2.66725e-09
3.18517e-08
3.54344e-08
2.06046e-08
8.58864e-09
4.21957e-09
2.00992e-09
7.4384e-10
2.40343e-10
6.81488e-11
2.26735e-11
1.04298e-11
1.03462e-11
7.30562e-06
2.21868e-05
1.15006e-24
0.106404
6.02878e-10
6.03511e-10
5.31836e-10
4.21969e-09
2.6363e-07
4.15239e-07
1.72706e-07
2.76875e-08
6.73982e-09
1.27796e-09
5.21093e-10
1.90938e-10
6.38089e-11
1.76694e-11
1.03455e-11
2.9819e-08
2.58845e-05
1.01074e-23
0.106404
9.54288e-10
9.57717e-10
6.83151e-10
1.94123e-10
6.67296e-07
9.85312e-07
9.32253e-07
3.19253e-07
5.6244e-08
1.71286e-08
5.09131e-09
1.0708e-09
2.99054e-10
6.54527e-11
1.41884e-11
1.10062e-11
2.58326e-05
-1.70248e-25
0.103999
5.93006e-10
8.1765e-10
6.72648e-10
1.94096e-10
2.4801e-07
9.69975e-07
9.63593e-07
7.56038e-07
7.72333e-07
2.57725e-07
1.67314e-10
1.6733e-10
1.85067e-10
1.09633e-10
2.17456e-11
1.1004e-11
2.16225e-05
9.91202e-24
0.0227043
1.84036e-10
3.34929e-10
4.61299e-10
2.00267e-10
2.24435e-11
1.47998e-07
2.24435e-11
2.24435e-11
2.35632e-06
2.91036e-06
8.15671e-07
4.1021e-08
1.07998e-09
1.89062e-10
2.17456e-11
9.00982e-07
7.56952e-06
8.79928e-07
6.20091e-09
5.22537e-11
9.26302e-11
1.67317e-10
1.32852e-10
2.24435e-11
2.24435e-11
3.44871e-11
2.24435e-11
5.32054e-07
6.5664e-06
3.83886e-06
3.8567e-07
3.06024e-09
1.40456e-10
4.05605e-11
1.40947e-06
3.99432e-07
1.89829e-07
6.19976e-09
1.37428e-11
2.26096e-11
3.68631e-11
3.93101e-11
2.65758e-11
1.51991e-10
5.32579e-10
1.96445e-10
2.45855e-27
1.15177e-05
1.16229e-05
1.68684e-06
6.17006e-11
3.11225e-11
3.09475e-11
6.76939e-07
2.76951e-09
3.10776e-09
3.65068e-07
2.7197e-12
3.76291e-12
5.53933e-12
8.68949e-12
2.65605e-11
2.51269e-10
1.766e-09
7.71513e-10
7.52135e-28
1.36329e-05
9.18911e-06
6.21763e-08
2.24869e-08
7.45237e-09
2.94758e-10
2.16187e-09
3.76001e-07
6.26003e-07
9.91945e-07
3.66063e-13
4.21508e-13
7.16978e-13
2.13201e-12
1.38438e-11
1.92571e-10
1.8753e-09
1.20451e-09
7.18054e-28
6.03882e-05
8.57894e-05
2.12312e-05
5.76181e-07
3.17524e-09
1.02994e-10
1.23885e-11
2.40486e-05
3.2485e-05
3.76774e-06
3.22041e-14
3.35562e-14
1.03752e-13
5.85696e-13
4.24552e-12
4.48639e-11
1.0471e-09
1.73334e-09
5.17825e-28
0.000110028
0.000190416
6.8981e-05
1.03443e-06
9.58605e-10
2.27631e-11
1.24903e-11
3.47895e-05
3.48519e-05
4.24981e-06
2.21951e-15
3.80668e-15
1.8962e-14
1.23798e-13
9.59668e-13
7.65171e-12
1.1285e-10
2.03068e-09
6.51738e-28
0.000145952
0.000190416
0.000128493
5.11356e-06
8.1109e-09
1.39344e-11
1.23885e-11
3.3218e-05
2.38013e-05
7.06574e-06
1.25146e-16
3.74968e-16
1.95368e-15
1.33624e-14
1.21242e-13
1.23721e-12
1.75821e-11
1.53864e-09
-3.23451e-28
8.62084e-05
0.000190416
0.000190416
3.00977e-05
1.14212e-08
1.39346e-11
1.6757e-07
7.21019e-06
1.20492e-06
1.13243e-05
2.97902e-18
1.00599e-17
5.40779e-17
6.17011e-16
1.09427e-14
2.18862e-13
5.56748e-12
2.57366e-10
5.71047e-29
1.72071e-05
0.000190061
0.000190417
3.09814e-05
7.80793e-09
1.94569e-10
2.25566e-07
1.71313e-08
2.40311e-08
1.13238e-05
2.23436e-22
1.57612e-21
1.15098e-20
7.13188e-20
1.50652e-19
-1.35004e-71
-2.33992e-70
-5.12102e-69
-8.69275e-31
-6.32893e-32
0.000115263
8.7621e-05
1.2421e-05
1.03295e-08
5.52332e-10
6.20018e-08
3.28947e-10
1.3539e-06
8.61719e-06
)
;

boundaryField
{
    leftWall
    {
        type            zeroGradient;
    }
    rightWall
    {
        type            zeroGradient;
    }
    lowerWall
    {
        type            zeroGradient;
    }
    atmosphere
    {
        type            inletOutlet;
        inletValue      uniform 0;
        value           nonuniform List<scalar> 
46
(
1.20837e-20
1.49553e-18
8.65792e-17
3.07724e-15
7.40814e-14
1.26212e-12
1.5605e-11
1.50762e-10
2.0845e-09
2.51943e-08
3.76458e-08
2.79676e-09
2.47128e-12
4.21255e-11
4.54658e-11
0
0
0
0
0
0
0
0
0
0
0
0
0
0
0
0
0
0
0
0
0
0
0.000115263
8.7621e-05
1.2421e-05
1.03295e-08
5.52332e-10
6.20018e-08
3.28947e-10
1.3539e-06
8.61719e-06
)
;
    }
    defaultFaces
    {
        type            empty;
    }
}


// ************************************************************************* //
