/*--------------------------------*- C++ -*----------------------------------*\
| =========                 |                                                 |
| \\      /  F ield         | OpenFOAM: The Open Source CFD Toolbox           |
|  \\    /   O peration     | Version:  3.0.1                                 |
|   \\  /    A nd           | Web:      www.OpenFOAM.org                      |
|    \\/     M anipulation  |                                                 |
\*---------------------------------------------------------------------------*/
FoamFile
{
    version     2.0;
    format      ascii;
    class       volVectorField;
    location    "0.0002";
    object      U;
}
// * * * * * * * * * * * * * * * * * * * * * * * * * * * * * * * * * * * * * //

dimensions      [0 1 -1 0 0 0 0];

internalField   nonuniform List<vector> 
1000
(
(1.09531e-13 -2.01991e-13 0)
(1.54712e-13 -1.7861e-13 0)
(1.23932e-13 -1.9369e-13 0)
(7.59363e-14 -1.81533e-13 0)
(-1.86535e-14 -1.57662e-13 0)
(-1.17056e-13 -1.43648e-13 0)
(-4.59432e-14 -1.02932e-13 0)
(1.17387e-13 8.04134e-15 0)
(1.71734e-13 1.00295e-13 0)
(1.8227e-13 1.51634e-13 0)
(2.57957e-13 2.47679e-13 0)
(4.18369e-13 2.5898e-13 0)
(4.43633e-13 2.53981e-13 0)
(2.14376e-13 2.82322e-13 0)
(-1.43517e-13 2.82309e-13 0)
(-1.3289e-13 3.07998e-13 0)
(-4.11211e-14 3.08436e-13 0)
(3.65862e-13 3.79764e-13 0)
(1.60739e-11 1.37888e-13 0)
(3.96485e-10 -2.00584e-12 0)
(1.01773e-08 -5.18781e-11 0)
(2.61418e-07 -1.21972e-09 0)
(6.73488e-06 -2.73908e-08 0)
(0.000177088 -5.72992e-07 0)
(0.00486813 -1.07441e-05 0)
(0.11332 -0.000160737 0)
(1.21336 -0.00125917 0)
(4.58999 -0.0031006 0)
(8.75041 -0.00268826 0)
(12.2758 0.000120405 0)
(14.8529 0.0036163 0)
(16.5586 0.00616434 0)
(17.5821 0.00692061 0)
(18.1344 0.00599302 0)
(18.4013 0.00393299 0)
(18.517 0.00104023 0)
(18.5622 -0.002343 0)
(18.5779 -0.00292465 0)
(18.5834 -0.00390161 0)
(18.5855 -0.00544693 0)
(18.588 -0.00595861 0)
(18.5913 -0.00537638 0)
(18.5945 -0.00605906 0)
(18.5971 -0.00543271 0)
(18.5986 -0.00534519 0)
(18.6011 -0.00504061 0)
(18.6041 -0.00475623 0)
(18.6058 -0.003844 0)
(18.6066 -0.00274782 0)
(18.6067 -0.00221236 0)
(18.608 -0.0012618 0)
(18.6104 -0.000614238 0)
(18.611 0.00125995 0)
(18.6091 0.00183495 0)
(18.6056 0.00428207 0)
(18.6021 0.00464653 0)
(18.5993 0.00647125 0)
(18.5957 0.00733296 0)
(18.5913 0.0056962 0)
(18.5867 0.00761769 0)
(18.5814 0.00456843 0)
(18.5762 0.00703774 0)
(18.5726 0.0031229 0)
(18.5699 0.00313937 0)
(18.5662 0.00165462 0)
(18.5554 5.47815e-05 0)
(18.5219 -0.00373445 0)
(18.4314 -0.00686136 0)
(18.2014 -0.0087937 0)
(17.6684 -0.00848608 0)
(16.5406 -0.00531404 0)
(14.3678 -0.000213109 0)
(10.6494 0.00435759 0)
(5.47001 0.00474086 0)
(1.21485 0.00148555 0)
(0.0852658 0.000141523 0)
(0.00301036 7.8923e-06 0)
(0.000101293 3.66713e-07 0)
(3.61565e-06 1.56853e-08 0)
(1.31125e-07 6.26014e-10 0)
(4.7437e-09 2.09154e-11 0)
(1.58048e-10 -1.23852e-12 0)
(-4.34803e-12 -1.3727e-12 0)
(-1.13294e-11 -9.89616e-13 0)
(-1.20331e-11 -3.61279e-13 0)
(-1.04734e-11 -1.01379e-13 0)
(-5.43424e-12 6.58411e-14 0)
(-1.29694e-12 2.28406e-13 0)
(-4.02693e-13 1.42035e-13 0)
(-3.10952e-13 1.81174e-13 0)
(-1.74739e-13 1.808e-13 0)
(-1.65923e-15 5.73877e-14 0)
(-6.6372e-15 1.29345e-14 0)
(1.46277e-13 -1.57641e-14 0)
(1.93185e-13 -4.54154e-14 0)
(1.92078e-13 -8.29283e-14 0)
(1.89077e-13 -5.33029e-14 0)
(6.09804e-14 -9.70041e-14 0)
(-2.06417e-14 -8.19475e-14 0)
(5.60635e-14 -8.67022e-14 0)
(1.80728e-13 -2.05035e-13 0)
(1.82441e-13 -1.72214e-13 0)
(1.11512e-13 -1.97301e-13 0)
(1.46109e-13 -1.26649e-13 0)
(5.03449e-14 -1.28276e-13 0)
(1.59565e-14 -4.47268e-14 0)
(2.16209e-13 4.61978e-14 0)
(3.14379e-13 1.56066e-13 0)
(2.2554e-13 2.90616e-13 0)
(2.88336e-13 2.90903e-13 0)
(3.89211e-13 3.40102e-13 0)
(4.01825e-13 3.12639e-13 0)
(4.75962e-13 2.74877e-13 0)
(2.24636e-13 2.55371e-13 0)
(-2.35538e-13 3.29808e-13 0)
(-5.81973e-15 5.3708e-13 0)
(-2.27062e-14 5.83775e-13 0)
(4.44511e-13 6.24123e-13 0)
(1.44395e-11 3.7775e-13 0)
(3.75185e-10 9.88863e-13 0)
(9.64523e-09 2.19842e-11 0)
(2.48556e-07 6.06595e-10 0)
(6.43388e-06 1.60132e-08 0)
(0.000170273 3.98507e-07 0)
(0.00471257 9.14241e-06 0)
(0.110448 0.000177466 0)
(1.19011 0.00186319 0)
(4.53558 0.00666961 0)
(8.68385 0.0115118 0)
(12.2072 0.0139399 0)
(14.7907 0.0128074 0)
(16.5077 0.00876319 0)
(17.5442 0.00317417 0)
(18.1092 -0.00292858 0)
(18.3872 -0.00901631 0)
(18.5115 -0.0139303 0)
(18.5621 -0.0170255 0)
(18.5843 -0.0202071 0)
(18.5952 -0.0205931 0)
(18.6008 -0.0181967 0)
(18.6051 -0.0169833 0)
(18.609 -0.0130853 0)
(18.6121 -0.0111628 0)
(18.6139 -0.00778499 0)
(18.6144 -0.00635099 0)
(18.6162 -0.0050882 0)
(18.6181 -0.00471472 0)
(18.6184 -0.00269697 0)
(18.6185 -0.00249631 0)
(18.6181 -0.00228667 0)
(18.6192 -0.00179985 0)
(18.6216 -0.00152723 0)
(18.6226 -0.000297091 0)
(18.621 -4.2954e-05 0)
(18.6185 0.00287302 0)
(18.6162 0.00272578 0)
(18.6149 0.00643056 0)
(18.6133 0.00853983 0)
(18.6104 0.00700411 0)
(18.6066 0.0124804 0)
(18.6015 0.0127498 0)
(18.5959 0.0173579 0)
(18.5901 0.0185315 0)
(18.583 0.0209517 0)
(18.573 0.0201189 0)
(18.5545 0.0161028 0)
(18.5141 0.0118438 0)
(18.4129 0.00552566 0)
(18.1694 -0.00115891 0)
(17.6202 -0.0078077 0)
(16.4751 -0.0134244 0)
(14.2874 -0.0155967 0)
(10.5629 -0.0133165 0)
(5.39813 -0.00708305 0)
(1.18928 -0.00156371 0)
(0.0827528 -0.000129402 0)
(0.00290386 -6.23276e-06 0)
(9.70657e-05 -2.50657e-07 0)
(3.44654e-06 -9.35704e-09 0)
(1.24524e-07 -3.47397e-10 0)
(4.49966e-09 -1.77983e-11 0)
(1.51093e-10 -4.76605e-12 0)
(-3.62468e-12 -3.86793e-12 0)
(-1.00225e-11 -3.15851e-12 0)
(-1.07076e-11 -1.86932e-12 0)
(-9.10741e-12 -8.30739e-13 0)
(-4.48191e-12 -2.42588e-13 0)
(-1.43333e-12 1.57257e-13 0)
(-3.15094e-13 2.02884e-13 0)
(-1.72387e-13 2.55673e-13 0)
(-2.07053e-13 2.61168e-13 0)
(-9.87103e-14 1.92085e-13 0)
(-4.07733e-14 1.10467e-13 0)
(4.93084e-14 5.76791e-14 0)
(7.65867e-14 2.31957e-14 0)
(1.77443e-13 2.17701e-14 0)
(1.23955e-13 6.09855e-14 0)
(-4.12831e-15 -3.55586e-14 0)
(8.69402e-14 -3.30611e-15 0)
(1.01446e-13 -1.29803e-14 0)
(1.82637e-13 -7.919e-14 0)
(1.9134e-13 -1.07266e-13 0)
(1.70776e-13 -5.68243e-14 0)
(1.02997e-13 -1.05246e-13 0)
(1.54901e-13 -9.01455e-14 0)
(1.87465e-13 -3.29747e-14 0)
(2.35365e-13 3.79292e-14 0)
(3.51882e-13 6.14758e-14 0)
(3.08893e-13 9.99851e-14 0)
(2.76259e-13 1.3087e-13 0)
(3.13733e-13 5.818e-14 0)
(3.85365e-13 1.40476e-13 0)
(3.43177e-13 6.45569e-14 0)
(2.05192e-13 -3.17626e-14 0)
(2.32834e-13 5.25261e-14 0)
(2.32342e-13 2.21155e-13 0)
(9.23622e-14 2.97134e-13 0)
(3.7929e-13 1.60102e-13 0)
(1.52805e-11 2.75485e-13 0)
(4.06041e-10 5.71044e-12 0)
(1.04418e-08 1.40473e-10 0)
(2.68914e-07 3.75804e-09 0)
(6.94925e-06 1.02979e-07 0)
(0.000183417 2.86042e-06 0)
(0.00505599 7.53825e-05 0)
(0.117167 0.00142632 0)
(1.23775 0.0121997 0)
(4.62825 0.0370253 0)
(8.77667 0.0532368 0)
(12.2878 0.0489188 0)
(14.858 0.0321615 0)
(16.5648 0.00940694 0)
(17.5948 -0.0116365 0)
(18.1558 -0.0272639 0)
(18.4318 -0.0362326 0)
(18.5557 -0.0393127 0)
(18.6074 -0.0381223 0)
(18.6288 -0.0342481 0)
(18.6373 -0.0302043 0)
(18.6403 -0.0246523 0)
(18.6415 -0.0210716 0)
(18.6424 -0.0161526 0)
(18.6428 -0.0131278 0)
(18.6423 -0.0110975 0)
(18.6414 -0.00971132 0)
(18.6413 -0.00806063 0)
(18.6415 -0.00772116 0)
(18.6408 -0.00556555 0)
(18.6395 -0.00451801 0)
(18.6383 -0.00371576 0)
(18.6391 -0.00237278 0)
(18.6415 -0.00131933 0)
(18.643 0.00164575 0)
(18.6421 0.00289393 0)
(18.6408 0.0053592 0)
(18.6399 0.0080928 0)
(18.6406 0.00975797 0)
(18.6421 0.0117432 0)
(18.6416 0.0119348 0)
(18.6403 0.0158997 0)
(18.6384 0.0176143 0)
(18.636 0.0212097 0)
(18.6338 0.0268542 0)
(18.6301 0.0313112 0)
(18.6225 0.0359971 0)
(18.6052 0.0399062 0)
(18.5639 0.0409952 0)
(18.4631 0.0363575 0)
(18.2219 0.0234222 0)
(17.6781 0.00142894 0)
(16.5442 -0.028299 0)
(14.3765 -0.05422 0)
(10.676 -0.0632203 0)
(5.51862 -0.045098 0)
(1.24329 -0.0135678 0)
(0.0883943 -0.00116092 0)
(0.00313005 -4.78833e-05 0)
(0.000104993 -1.68687e-06 0)
(3.73825e-06 -5.86938e-08 0)
(1.35344e-07 -2.07499e-09 0)
(4.90012e-09 -8.30553e-11 0)
(1.6664e-10 -9.57457e-12 0)
(-1.8931e-12 -5.19538e-12 0)
(-7.80808e-12 -4.32728e-12 0)
(-8.30829e-12 -2.83408e-12 0)
(-7.16548e-12 -1.29845e-12 0)
(-3.38311e-12 -4.49406e-13 0)
(-8.82124e-13 -2.07292e-14 0)
(-2.72534e-13 8.91606e-14 0)
(-1.42227e-13 1.05298e-13 0)
(-1.64191e-13 1.5795e-13 0)
(-2.25754e-13 8.44653e-14 0)
(-1.43692e-13 8.16253e-14 0)
(2.86183e-14 6.27812e-14 0)
(1.77224e-13 3.075e-14 0)
(2.39796e-13 7.8898e-14 0)
(6.51713e-14 -3.78259e-14 0)
(-1.25269e-14 3.21049e-15 0)
(1.06307e-13 2.51417e-14 0)
(8.85119e-14 -2.19095e-14 0)
(1.22944e-13 9.50912e-14 0)
(1.23215e-13 7.97069e-14 0)
(7.90496e-14 5.01865e-14 0)
(8.81851e-14 -7.70366e-14 0)
(1.93451e-13 -4.31291e-14 0)
(1.66337e-13 -6.85234e-14 0)
(2.74541e-13 -4.37452e-14 0)
(3.50129e-13 -1.23128e-13 0)
(4.0111e-13 -2.51255e-14 0)
(2.96452e-13 2.70872e-14 0)
(3.88433e-13 1.75903e-14 0)
(3.82083e-13 4.28009e-15 0)
(1.98794e-13 -6.86724e-14 0)
(9.60506e-14 -8.29986e-14 0)
(1.67273e-13 -1.20507e-13 0)
(2.50255e-13 -2.05716e-13 0)
(6.32515e-14 -2.01767e-13 0)
(7.6929e-14 -1.64599e-13 0)
(1.56707e-11 -1.48189e-13 0)
(4.10656e-10 -1.79664e-12 0)
(1.05598e-08 -4.6326e-11 0)
(2.72406e-07 -1.10732e-09 0)
(7.06598e-06 -2.1779e-08 0)
(0.000188007 -2.28577e-07 0)
(0.0052215 5.56688e-06 0)
(0.122402 0.000172557 0)
(1.26792 0.000308529 0)
(4.68009 -0.00379128 0)
(8.83361 -0.00829376 0)
(12.3375 -0.0115044 0)
(14.9023 -0.0179811 0)
(16.6056 -0.0196994 0)
(17.6332 -0.0211163 0)
(18.1933 -0.0221119 0)
(18.4688 -0.0223417 0)
(18.5918 -0.0217609 0)
(18.642 -0.0205189 0)
(18.6606 -0.0184372 0)
(18.6657 -0.015893 0)
(18.6651 -0.0129748 0)
(18.6634 -0.0111257 0)
(18.6616 -0.00891498 0)
(18.6596 -0.00721523 0)
(18.6573 -0.00555227 0)
(18.6553 -0.00421212 0)
(18.654 -0.00371714 0)
(18.6532 -0.0033441 0)
(18.6521 -0.00232164 0)
(18.6501 -0.00239873 0)
(18.6485 -0.00255857 0)
(18.6492 -0.00260248 0)
(18.6516 -0.00242271 0)
(18.6533 -0.00122923 0)
(18.6528 -0.000788632 0)
(18.6524 0.000636722 0)
(18.6516 0.00253256 0)
(18.6534 0.00356215 0)
(18.6564 0.00449457 0)
(18.6571 0.00529234 0)
(18.658 0.00759533 0)
(18.6587 0.00913241 0)
(18.6597 0.0111684 0)
(18.661 0.0131212 0)
(18.6614 0.0161746 0)
(18.6579 0.0185306 0)
(18.6443 0.0211713 0)
(18.6053 0.0228283 0)
(18.5057 0.0236154 0)
(18.265 0.023602 0)
(17.7227 0.0231039 0)
(16.592 0.0266209 0)
(14.4307 0.0219716 0)
(10.7432 0.0129626 0)
(5.60648 -0.00186505 0)
(1.29058 -0.00211618 0)
(0.0914682 -0.000144339 0)
(0.00322725 5.13705e-07 0)
(0.000107253 2.17371e-07 0)
(3.80201e-06 1.24097e-08 0)
(1.37352e-07 5.22351e-10 0)
(4.97204e-09 1.10478e-11 0)
(1.76265e-10 -6.63587e-12 0)
(2.21498e-13 -5.47508e-12 0)
(-5.179e-12 -4.34549e-12 0)
(-5.42194e-12 -2.87543e-12 0)
(-4.39195e-12 -1.49043e-12 0)
(-2.0945e-12 -4.22431e-13 0)
(-6.59252e-13 -1.01361e-13 0)
(-1.10413e-13 -5.73641e-14 0)
(7.1471e-14 5.77512e-15 0)
(-2.28625e-13 9.8716e-14 0)
(-2.04532e-13 7.6123e-14 0)
(-4.81252e-14 7.39513e-14 0)
(-1.34418e-14 4.27148e-14 0)
(7.50452e-14 3.02492e-14 0)
(3.88306e-14 -3.75059e-14 0)
(-3.86365e-14 -1.16121e-13 0)
(1.05808e-13 -8.73432e-14 0)
(4.25503e-14 -1.11628e-13 0)
(9.40297e-14 -1.54162e-13 0)
(1.05222e-13 2.87347e-13 0)
(8.39664e-14 2.36006e-13 0)
(-1.12662e-13 1.39938e-13 0)
(2.35778e-14 1.43769e-13 0)
(1.65199e-13 9.01308e-14 0)
(1.5681e-13 5.08728e-14 0)
(1.03297e-13 7.61054e-15 0)
(3.08407e-13 -6.76905e-14 0)
(5.02673e-13 -6.51702e-14 0)
(3.71351e-13 -4.14547e-14 0)
(2.9704e-13 1.79807e-14 0)
(2.19559e-13 -3.40719e-14 0)
(1.87138e-13 -3.68836e-14 0)
(1.61778e-13 -5.77845e-14 2.00026e-32)
(8.91293e-14 -9.08807e-14 0)
(1.66607e-13 -1.09799e-13 0)
(6.74443e-14 -1.1765e-13 0)
(1.88485e-13 -7.73674e-14 0)
(1.5271e-11 -1.00181e-13 0)
(3.92292e-10 -3.30643e-14 0)
(1.00792e-08 -4.4095e-12 0)
(2.60195e-07 -1.16992e-10 0)
(6.78193e-06 -2.71926e-09 0)
(0.000182359 -1.81925e-07 0)
(0.00511864 -9.28834e-06 0)
(0.122291 -0.000342524 0)
(1.26276 -0.00770336 0)
(4.64775 -0.0474303 0)
(8.75984 -0.093886 0)
(12.2722 -0.0904399 0)
(14.8426 -0.0760118 0)
(16.5526 -0.060023 2.02667e-32)
(17.5861 -0.041567 0)
(18.1509 -0.0266713 0)
(18.4309 -0.0154073 0)
(18.5577 -0.00745524 0)
(18.611 -0.00294207 -2.03477e-32)
(18.6329 -0.00039384 0)
(18.6411 -3.09574e-06 0)
(18.6434 -0.000640323 2.0738e-32)
(18.644 -0.000480813 0)
(18.6445 -0.00119804 0)
(18.6444 -0.000505078 0)
(18.6436 -0.00045451 -1.97033e-32)
(18.6429 -0.000110782 0)
(18.6427 0.000361853 0)
(18.6427 0.000749548 0)
(18.6421 0.000270168 0)
(18.6407 -0.000469188 0)
(18.6393 -0.00133335 0)
(18.64 -0.00260394 0)
(18.6423 -0.00326965 0)
(18.6436 -0.00394393 0)
(18.6428 -0.00427489 0)
(18.6415 -0.0041312 0)
(18.6404 -0.00334513 -1.03029e-32)
(18.6412 -0.00275085 1.01797e-32)
(18.6427 -0.00271247 0)
(18.6423 -0.00166099 0)
(18.6416 -0.00155511 -1.06974e-32)
(18.6404 0.000683629 0)
(18.6384 -0.000369151 0)
(18.6361 -0.000451584 0)
(18.6328 -0.00118708 0)
(18.6262 -0.000926733 0)
(18.6092 0.00198948 0)
(18.5667 0.00736459 0)
(18.4632 0.0172344 0)
(18.22 0.0337941 0)
(17.678 0.0595114 0)
(16.5513 0.0926339 0)
(14.3885 0.141201 1.04369e-32)
(10.7339 0.107502 0)
(5.60153 0.0308455 0)
(1.29199 0.00287215 0)
(0.0901069 0.000115677 0)
(0.00314593 3.44981e-06 0)
(0.000103238 5.81756e-08 0)
(3.6398e-06 8.58874e-11 0)
(1.31165e-07 6.60556e-12 0)
(4.75523e-09 -6.84016e-12 0)
(1.73502e-10 -5.69171e-12 0)
(3.27506e-12 -4.64246e-12 0)
(-3.53826e-12 -2.61166e-12 0)
(-3.12242e-12 -2.01398e-12 0)
(-2.36723e-12 -1.13865e-12 0)
(-9.94633e-13 -4.70985e-13 0)
(-3.47339e-13 -1.46885e-13 0)
(3.5324e-14 6.52435e-15 0)
(1.47332e-13 -2.19398e-14 0)
(-6.83837e-14 -5.21274e-14 0)
(-2.16527e-13 -3.732e-14 -9.68313e-33)
(-1.08096e-13 -8.71062e-14 0)
(2.96703e-15 -7.37211e-14 -1.02023e-32)
(9.13297e-15 -1.06133e-13 0)
(-3.84208e-14 -1.36714e-13 0)
(-2.96398e-14 -6.80472e-14 0)
(7.95399e-14 -8.19526e-14 0)
(2.70185e-14 -8.25893e-14 0)
(4.11269e-14 -8.55216e-14 0)
(-2.35951e-14 2.36621e-13 0)
(-1.08498e-13 1.24683e-13 0)
(-1.54791e-13 -4.56681e-14 0)
(-9.64191e-14 -2.42828e-14 0)
(-1.79552e-15 -7.10925e-14 0)
(5.75933e-14 -5.10399e-14 0)
(9.17033e-14 -4.32471e-14 0)
(2.26939e-13 -1.39358e-13 0)
(4.23903e-13 -1.77731e-13 0)
(4.33208e-13 -1.3315e-13 0)
(4.32962e-13 -1.19819e-13 0)
(3.44769e-13 -4.3146e-14 0)
(1.99317e-13 1.28117e-14 0)
(6.43477e-14 3.04108e-14 -2.01986e-32)
(1.00579e-14 -7.72978e-14 0)
(1.73511e-13 -9.50501e-14 0)
(3.87305e-14 -8.05353e-14 0)
(2.1195e-13 -6.69867e-14 0)
(1.59007e-11 2.14351e-13 0)
(4.1697e-10 4.62999e-12 0)
(1.06554e-08 1.00478e-10 0)
(2.7394e-07 1.83715e-09 0)
(7.08207e-06 2.45164e-08 0)
(0.000187421 1.7475e-07 0)
(0.00515981 -1.44609e-05 0)
(0.120621 -0.000578634 0)
(1.25248 -0.00602282 0)
(4.62141 -0.0232061 0)
(8.6554 -0.0420647 0)
(12.1814 -0.0526355 0)
(14.7606 -0.0531641 0)
(16.4819 -0.0499921 -1.99763e-32)
(17.5268 -0.0446078 0)
(18.0992 -0.0337925 0)
(18.3827 -0.0254078 0)
(18.5119 -0.0187704 0)
(18.5663 -0.0110342 2.09781e-32)
(18.5884 -0.00624624 0)
(18.599 -0.00420781 0)
(18.6039 -0.00431014 -2.08635e-32)
(18.607 -0.00224696 0)
(18.6098 -0.00421102 0)
(18.6119 -0.00148321 0)
(18.6129 -0.00224579 1.92804e-32)
(18.6128 -0.00130726 0)
(18.6141 -0.000791297 0)
(18.6155 -0.000471756 0)
(18.6156 -0.00106673 0)
(18.6154 -0.00140833 0)
(18.6146 -0.00181579 0)
(18.6154 -0.00238324 0)
(18.6172 -0.00273834 0)
(18.6178 -0.00321325 0)
(18.6161 -0.00342858 0)
(18.6137 -0.00291098 0)
(18.6119 -0.00190835 1.09256e-32)
(18.611 -0.00149745 -1.10382e-32)
(18.6099 -0.00265864 0)
(18.6079 0.00119897 0)
(18.6061 -1.55729e-05 1.08573e-32)
(18.6027 0.00346024 0)
(18.5973 0.00200511 0)
(18.5908 0.00273183 0)
(18.5841 0.00385278 0)
(18.5764 0.00367653 0)
(18.5575 0.0146229 0)
(18.5142 0.0237725 0)
(18.4091 0.0305009 0)
(18.1646 0.0423437 0)
(17.62 0.0544671 0)
(16.493 0.0635294 0)
(14.3266 0.0639512 -1.02736e-32)
(10.7177 0.0484657 0)
(5.57534 0.0258612 0)
(1.27792 0.00609341 0)
(0.0905656 0.000306085 0)
(0.00320873 6.02151e-07 0)
(0.000107342 -2.56291e-07 0)
(3.82201e-06 -1.56288e-08 0)
(1.3856e-07 -9.74697e-10 0)
(5.03505e-09 -4.71288e-11 0)
(1.83131e-10 -4.93013e-12 0)
(5.70189e-12 -2.67547e-12 0)
(-1.50964e-12 -1.31679e-12 0)
(-1.45989e-12 -7.11964e-13 0)
(-1.08897e-12 -3.25471e-13 0)
(-3.86502e-13 -1.33972e-13 0)
(2.51086e-14 8.1935e-14 0)
(5.30425e-14 9.68214e-14 0)
(-1.62143e-14 3.82049e-14 0)
(-1.86544e-13 -8.50836e-14 0)
(-2.51097e-13 -7.46661e-14 1.00133e-32)
(-1.0875e-13 -1.12933e-13 0)
(3.69771e-14 -9.28018e-14 1.01842e-32)
(4.19682e-14 -1.2187e-13 0)
(4.20909e-14 -1.8698e-13 0)
(4.13229e-14 -1.59801e-13 0)
(4.30413e-14 -1.441e-13 0)
(2.66824e-14 -1.21276e-13 0)
(6.69038e-14 -6.28258e-14 0)
(-3.33234e-13 -1.52348e-13 0)
(-4.33165e-13 -1.16772e-13 0)
(-2.39735e-13 -1.34111e-13 0)
(-1.27926e-13 -8.5769e-14 0)
(1.20288e-13 -7.95954e-14 0)
(1.62184e-13 -4.74213e-14 0)
(2.83514e-14 -1.05535e-14 0)
(4.09053e-14 -5.67403e-14 0)
(5.41694e-13 -3.37444e-14 0)
(5.59266e-13 -7.42545e-14 0)
(4.83056e-13 2.2853e-14 0)
(3.91756e-13 -1.56824e-14 0)
(2.65814e-13 -9.32318e-15 0)
(6.24182e-14 2.59973e-14 0)
(-1.16345e-13 4.27947e-14 0)
(1.26927e-13 -5.59715e-14 0)
(1.19334e-13 -8.61766e-14 0)
(3.00784e-13 4.3527e-14 0)
(1.68088e-11 2.2818e-13 0)
(4.25896e-10 -1.99234e-12 0)
(1.08524e-08 -5.79336e-11 0)
(2.77498e-07 -1.62144e-09 0)
(7.11617e-06 -5.27676e-08 0)
(0.000186099 -2.07197e-06 0)
(0.00506005 -6.15501e-05 0)
(0.116536 -0.00116803 0)
(1.22591 -0.00814838 0)
(4.59169 -0.0140286 0)
(8.6761 -0.019966 0)
(12.2178 -0.0369468 0)
(14.8061 -0.0489734 0)
(16.525 -0.0511913 0)
(17.5643 -0.049167 0)
(18.1258 -0.0435543 0)
(18.3945 -0.0365936 0)
(18.5147 -0.0264028 0)
(18.5609 -0.0228166 0)
(18.5748 -0.0191833 0)
(18.5788 -0.0169201 0)
(18.5795 -0.0103594 0)
(18.5804 -0.00947083 0)
(18.5815 -0.00832074 0)
(18.5823 -0.00666165 0)
(18.5825 -0.00470243 0)
(18.5818 -0.0036826 0)
(18.5829 -0.00179491 0)
(18.5844 -0.00171601 0)
(18.5848 -0.00107736 0)
(18.5848 -0.00137202 0)
(18.5841 -0.00156392 0)
(18.5848 -0.00194338 0)
(18.5863 -0.00217736 0)
(18.5865 -0.0024122 0)
(18.5845 -0.00285251 0)
(18.5816 -0.00242185 0)
(18.5791 -0.00390535 0)
(18.578 0.00225154 0)
(18.5767 0.00147023 0)
(18.5744 0.00399541 0)
(18.5732 0.00601161 0)
(18.5712 0.010581 0)
(18.5677 0.0123833 0)
(18.5641 0.0162099 0)
(18.5617 0.0176793 0)
(18.5621 0.0291623 0)
(18.5546 0.0258326 0)
(18.5189 0.0332918 0)
(18.425 0.0447499 0)
(18.1974 0.0527761 0)
(17.6645 0.0568057 0)
(16.5337 0.0506281 0)
(14.3495 0.0300591 0)
(10.6781 0.0283355 0)
(5.5135 0.0359754 0)
(1.24622 0.0122414 0)
(0.0886639 0.0010049 0)
(0.0031672 3.78275e-05 0)
(0.0001074 1.06857e-06 0)
(3.85374e-06 2.68256e-08 0)
(1.40401e-07 9.52837e-10 0)
(5.1156e-09 3.26075e-11 0)
(1.8539e-10 7.20248e-13 0)
(6.29277e-12 -6.01448e-13 0)
(-1.11703e-13 -3.3084e-13 0)
(-4.39119e-13 -1.52265e-13 0)
(-5.0938e-13 -1.10518e-14 0)
(-2.67044e-13 2.56561e-14 0)
(8.69267e-14 1.43192e-13 0)
(-6.15584e-14 5.91027e-14 0)
(-2.56864e-13 -5.72905e-15 0)
(-3.02176e-13 -1.27158e-14 0)
(-2.79544e-13 -5.86821e-14 0)
(-2.16331e-13 -1.18445e-13 0)
(8.97351e-14 -1.59645e-13 0)
(-1.40253e-13 -1.02785e-13 0)
(-1.06851e-13 -9.92124e-14 0)
(5.217e-14 -9.23561e-14 0)
(7.41459e-14 -1.08024e-13 0)
(9.04291e-14 -6.54988e-14 0)
(1.51698e-14 -8.69596e-14 0)
(-8.80941e-14 -4.26892e-13 0)
(-1.5733e-13 -2.92289e-13 0)
(3.06594e-15 -2.44637e-13 0)
(1.71403e-14 -1.61995e-13 0)
(1.19575e-13 -4.4508e-14 0)
(1.60913e-13 -7.54891e-14 0)
(6.97426e-14 -7.09365e-14 0)
(2.3037e-13 6.12096e-14 0)
(4.03082e-13 1.30898e-14 0)
(5.48756e-13 -3.94947e-14 0)
(5.43374e-13 -5.2861e-14 0)
(3.2767e-13 -1.07734e-13 0)
(2.39827e-13 -9.84729e-14 0)
(1.14512e-13 -1.76146e-13 0)
(-2.80137e-14 -6.73945e-14 0)
(2.35002e-14 -4.54948e-14 0)
(1.466e-14 -6.75154e-14 0)
(8.93297e-13 2.32129e-14 0)
(1.61856e-11 -2.84603e-13 0)
(3.91678e-10 -1.2604e-11 0)
(9.99378e-09 -3.20431e-10 0)
(2.54991e-07 -8.0853e-09 0)
(6.52896e-06 -1.9897e-07 0)
(0.000170783 -4.58715e-06 0)
(0.00466569 -9.84561e-05 0)
(0.108605 -0.00166251 0)
(1.1743 -0.0131967 0)
(4.50134 -0.031489 0)
(8.64945 -0.0351679 0)
(12.2016 -0.0464076 0)
(14.8021 -0.043869 0)
(16.527 -0.0357493 0)
(17.5632 -0.0245195 0)
(18.1249 -0.0185009 0)
(18.3983 -0.0103868 0)
(18.5114 -0.00707609 0)
(18.5511 -0.00395883 0)
(18.5648 -0.00326089 0)
(18.5681 -0.000309324 0)
(18.5676 -0.000592488 0)
(18.567 0.000268547 0)
(18.5667 -0.000221972 0)
(18.5664 -0.000795173 0)
(18.5652 -0.00164509 0)
(18.5638 -0.00217004 0)
(18.5636 -0.0025533 0)
(18.5639 -0.00281294 0)
(18.564 -0.00281823 0)
(18.563 -0.0026351 0)
(18.5618 -0.00227956 0)
(18.5622 -0.00155869 0)
(18.5636 -0.00131136 0)
(18.5641 -0.000596056 0)
(18.5624 -0.000389648 0)
(18.5599 -8.4976e-05 0)
(18.558 0.00039202 0)
(18.5578 0.000634366 0)
(18.5579 0.000583509 0)
(18.557 0.000798359 0)
(18.556 0.000634606 0)
(18.5548 0.000755774 0)
(18.554 0.000499328 0)
(18.5541 0.00219335 0)
(18.5541 0.00309993 0)
(18.5516 0.00688381 0)
(18.5437 0.00819581 0)
(18.5171 0.00796748 0)
(18.4324 0.0153462 0)
(18.1978 0.0229514 0)
(17.6577 0.0302962 0)
(16.5183 0.0395527 0)
(14.3116 0.0394959 0)
(10.5609 0.0586862 0)
(5.37355 0.0544529 0)
(1.17655 0.0168195 0)
(0.081613 0.00151787 0)
(0.00288567 7.42546e-05 0)
(9.75934e-05 3.09349e-06 0)
(3.50207e-06 1.2232e-07 0)
(1.27603e-07 4.57973e-09 0)
(4.65067e-09 1.68105e-10 0)
(1.68348e-10 5.20634e-12 0)
(6.02115e-12 -3.17995e-13 0)
(1.4589e-13 -3.38499e-13 0)
(-2.17397e-13 -3.84718e-13 0)
(-3.54924e-13 -2.0466e-13 0)
(-1.45439e-13 -1.99587e-13 0)
(-2.54765e-14 -2.97894e-13 0)
(-1.57144e-13 -2.75723e-13 0)
(-2.10729e-13 -2.86337e-13 0)
(-3.69622e-13 -1.08377e-13 0)
(-3.87954e-13 -1.83012e-13 0)
(-3.20721e-13 -1.68808e-13 0)
(2.85147e-14 -8.8056e-14 0)
(1.09811e-13 -5.33503e-14 0)
(4.39432e-14 -1.5436e-14 0)
(2.99389e-14 -6.05814e-15 0)
(6.9477e-14 1.96678e-14 0)
(-1.03284e-14 1.53573e-14 0)
(-1.31725e-13 -3.88929e-14 0)
(-3.80456e-14 -1.9572e-13 0)
(-6.70681e-14 -1.32033e-13 0)
(-1.13526e-13 -9.26084e-14 0)
(1.39952e-13 -1.15399e-13 0)
(2.45498e-13 -1.37765e-13 0)
(2.08253e-13 -1.56397e-13 0)
(1.91873e-13 -1.9422e-13 0)
(1.80231e-13 -2.44316e-13 0)
(3.81001e-13 -1.94801e-13 0)
(4.46656e-13 -2.40202e-13 0)
(3.5471e-13 -3.85418e-13 0)
(3.26806e-13 -4.12528e-13 0)
(1.93186e-13 -4.27998e-13 0)
(1.82626e-13 -4.2235e-13 0)
(2.62174e-13 -4.08108e-13 0)
(2.0396e-13 -2.78487e-13 0)
(-5.34076e-14 -1.84977e-13 0)
(6.82786e-13 -2.30592e-13 0)
(1.47057e-11 -4.87839e-13 0)
(3.55867e-10 -1.87576e-12 0)
(9.09575e-09 -3.42103e-11 0)
(2.32714e-07 -7.77547e-10 0)
(5.97265e-06 -1.79121e-08 0)
(0.000156455 -4.17892e-07 0)
(0.00428964 -8.83162e-06 0)
(0.101174 -0.000128351 0)
(1.12278 -0.000816403 0)
(4.40134 -0.00211794 0)
(8.54313 -0.00630377 0)
(12.0997 -0.0121625 0)
(14.717 -0.0185518 0)
(16.4626 -0.0212187 0)
(17.5191 -0.0217872 0)
(18.0952 -0.0195724 0)
(18.3773 -0.0172579 0)
(18.4986 -0.0157502 0)
(18.5448 -0.0112793 0)
(18.5606 -0.00842977 0)
(18.5642 -0.0048101 0)
(18.5633 -0.00292572 0)
(18.5617 -0.00101784 0)
(18.5601 -0.000331574 0)
(18.5585 0.000438108 0)
(18.557 -5.48534e-05 0)
(18.5556 0.000435106 0)
(18.5546 -0.000100536 0)
(18.5541 -0.000844702 0)
(18.5537 -0.000906763 0)
(18.5519 -0.000944234 0)
(18.5503 -0.000860564 0)
(18.5505 -0.000596189 0)
(18.552 -0.000569707 0)
(18.5529 -0.000440991 0)
(18.5515 -0.000477723 0)
(18.5496 -0.000732891 0)
(18.5484 -0.000912909 0)
(18.5487 -0.00107081 0)
(18.5494 -0.00106072 0)
(18.5492 -0.000990028 0)
(18.5484 -0.000863468 0)
(18.5477 0.000825907 0)
(18.5483 0.00183006 0)
(18.5499 0.00420351 0)
(18.5514 0.00585583 0)
(18.5482 0.00944671 0)
(18.5357 0.0142973 0)
(18.5038 0.0182136 0)
(18.4079 0.0196596 0)
(18.1614 0.0215853 0)
(17.6009 0.0229501 0)
(16.4314 0.0195096 0)
(14.1972 0.0113276 0)
(10.4166 0.00710194 0)
(5.22255 0.00500979 0)
(1.11014 0.00154814 0)
(0.0750289 0.000148283 0)
(0.00262573 7.48642e-06 0)
(8.86538e-05 2.99639e-07 0)
(3.17154e-06 1.17198e-08 0)
(1.15206e-07 4.53213e-10 0)
(4.18933e-09 1.62652e-11 0)
(1.52537e-10 -1.68929e-13 0)
(5.73849e-12 -4.73408e-13 0)
(1.66348e-14 -5.04086e-13 0)
(-1.41341e-13 -4.19241e-13 0)
(-2.21802e-13 -3.61257e-13 0)
(-2.24672e-13 -3.7132e-13 0)
(-1.37642e-13 -3.83502e-13 0)
(-1.59631e-13 -4.02489e-13 0)
(-1.33597e-13 -3.48292e-13 0)
(-1.87983e-13 -2.4859e-13 0)
(-2.95918e-13 -1.18966e-14 0)
(-1.33103e-14 3.54828e-15 0)
(1.13439e-13 4.44122e-14 0)
(2.35979e-15 8.02633e-17 0)
(-3.11666e-14 -1.80645e-14 0)
(1.18527e-13 -1.16414e-13 0)
(1.48759e-13 -1.00432e-13 0)
(-2.29104e-14 -1.63712e-13 0)
(-5.2389e-14 -1.23979e-13 0)
(1.98127e-13 -1.17745e-14 0)
(1.69613e-13 1.60249e-14 0)
(2.33606e-14 2.99024e-14 0)
(-1.30509e-13 9.23861e-15 0)
(1.52619e-14 -1.24953e-13 0)
(9.55632e-14 -1.13226e-13 0)
(3.48842e-14 -1.5963e-13 0)
(2.68072e-13 -2.22946e-13 0)
(4.65379e-13 -1.58243e-13 0)
(3.79251e-13 -2.25534e-13 0)
(2.37945e-13 -2.75762e-13 0)
(2.42995e-13 -2.99535e-13 0)
(1.38038e-13 -3.04537e-13 0)
(-1.06675e-15 -3.2845e-13 0)
(2.10031e-13 -3.86084e-13 0)
(2.50068e-13 -3.7807e-13 0)
(1.68456e-13 -3.38118e-13 0)
(7.65579e-13 -2.68389e-13 0)
(1.51154e-11 -2.62908e-13 0)
(3.65673e-10 4.93823e-13 0)
(9.35932e-09 2.34879e-11 0)
(2.39434e-07 6.17784e-10 0)
(6.14302e-06 1.57011e-08 0)
(0.00016081 3.8514e-07 0)
(0.00440574 8.79185e-06 0)
(0.10373 0.000167222 0)
(1.14533 0.00175093 0)
(4.45932 0.0064118 0)
(8.62621 0.00866703 0)
(12.1841 0.00508037 0)
(14.7957 -0.00134377 0)
(16.5296 -0.00855344 0)
(17.572 -0.0142753 0)
(18.1344 -0.0174331 0)
(18.4042 -0.0188909 0)
(18.5176 -0.0184117 0)
(18.5579 -0.016777 0)
(18.5691 -0.0148495 0)
(18.5686 -0.011751 0)
(18.5661 -0.00991376 0)
(18.5624 -0.00698878 0)
(18.5593 -0.00610367 0)
(18.5564 -0.00415172 0)
(18.5539 -0.00349116 0)
(18.552 -0.0026311 0)
(18.5507 -0.00210542 0)
(18.5499 -0.00239031 0)
(18.5493 -0.00142879 0)
(18.5474 -0.00133469 0)
(18.5457 -0.000977583 0)
(18.5459 -0.000430149 0)
(18.5475 -0.000205051 0)
(18.5485 0.000256162 0)
(18.5473 0.00042292 0)
(18.5456 0.000583953 0)
(18.5444 0.000904041 0)
(18.5449 0.00101273 0)
(18.5455 0.000786718 0)
(18.5458 0.00352573 0)
(18.5462 0.00388908 0)
(18.547 0.00597607 0)
(18.5486 0.00812753 0)
(18.5521 0.0110231 0)
(18.5559 0.0133672 0)
(18.5584 0.0162772 0)
(18.5512 0.0189505 0)
(18.5255 0.0210631 0)
(18.4395 0.0211354 0)
(18.2078 0.0187645 0)
(17.6633 0.0131862 0)
(16.5079 0.00356082 0)
(14.2843 -0.00708296 0)
(10.5004 -0.0106345 0)
(5.28927 -0.00633367 0)
(1.13243 -0.001459 0)
(0.0768885 -0.000111968 0)
(0.00269493 -5.27763e-06 0)
(9.11027e-05 -2.1724e-07 0)
(3.26251e-06 -8.41043e-09 0)
(1.18582e-07 -3.17772e-10 0)
(4.31437e-09 -1.25336e-11 0)
(1.57278e-10 -9.21092e-13 0)
(6.15035e-12 -3.32534e-13 0)
(1.15999e-13 -3.31341e-13 0)
(2.37472e-14 -2.41324e-13 0)
(-1.95856e-13 -2.16571e-13 0)
(-1.726e-13 -2.08948e-13 0)
(-1.14221e-13 -1.77295e-13 0)
(-1.68269e-13 -1.87126e-13 0)
(-1.58331e-14 -1.45775e-13 0)
(9.8728e-14 -8.64912e-14 0)
(-7.53265e-14 1.04186e-13 0)
(-1.61811e-13 5.13606e-14 0)
(-4.39065e-14 -1.81798e-14 0)
(1.96056e-14 -3.98851e-14 0)
(-1.54461e-13 -2.24179e-14 0)
(-1.43519e-13 -9.14353e-14 0)
(-2.3489e-14 -1.40538e-13 0)
(-3.68107e-14 -1.81413e-13 0)
(3.01466e-14 -1.59877e-13 0)
)
;

boundaryField
{
    sides1
    {
        type            zeroGradient;
    }
    sides2
    {
        type            slip;
    }
    empty
    {
        type            empty;
    }
}


// ************************************************************************* //
