/*--------------------------------*- C++ -*----------------------------------*\
| =========                 |                                                 |
| \\      /  F ield         | OpenFOAM: The Open Source CFD Toolbox           |
|  \\    /   O peration     | Version:  2012                                  |
|   \\  /    A nd           | Website:  www.openfoam.com                      |
|    \\/     M anipulation  |                                                 |
\*---------------------------------------------------------------------------*/
FoamFile
{
    version     2.0;
    format      ascii;
    class       volScalarField;
    location    "720";
    object      maxKappa;
}
// * * * * * * * * * * * * * * * * * * * * * * * * * * * * * * * * * * * * * //

dimensions      [0 0 0 0 0 0 0];


internalField   nonuniform List<scalar> 
20400
(
3.42872e-12
7.74368e-12
2.52427e-11
5.67582e-11
1.00161e-10
1.5097e-10
2.08034e-10
2.68307e-10
3.30271e-10
3.93365e-10
4.55978e-10
5.19027e-10
5.81473e-10
6.43629e-10
7.05344e-10
7.66715e-10
8.27752e-10
8.88469e-10
9.48898e-10
1.0089e-09
1.06837e-09
1.12733e-09
1.1858e-09
1.24378e-09
1.30126e-09
1.35823e-09
1.41469e-09
1.47069e-09
1.52622e-09
1.58136e-09
1.63608e-09
1.69038e-09
1.74403e-09
1.79696e-09
1.85028e-09
1.90339e-09
1.95611e-09
2.00861e-09
2.06077e-09
2.11261e-09
2.16414e-09
2.21536e-09
2.26631e-09
2.31699e-09
2.36745e-09
2.41772e-09
2.46781e-09
2.51778e-09
2.56766e-09
2.61749e-09
2.6673e-09
2.71713e-09
2.76705e-09
2.81687e-09
2.86678e-09
2.91625e-09
2.96627e-09
3.01538e-09
3.06524e-09
3.11425e-09
3.16408e-09
3.2134e-09
3.26394e-09
3.31374e-09
3.36511e-09
3.41545e-09
3.46769e-09
3.51864e-09
3.5718e-09
3.62343e-09
3.67764e-09
3.73002e-09
3.78543e-09
3.83868e-09
3.89555e-09
3.94981e-09
4.00833e-09
4.06345e-09
4.12339e-09
4.18038e-09
4.2414e-09
4.30009e-09
4.36219e-09
4.42208e-09
4.48487e-09
4.54561e-09
4.60874e-09
4.67023e-09
4.73314e-09
4.79492e-09
4.8568e-09
4.91797e-09
4.97908e-09
5.03911e-09
5.09796e-09
5.15554e-09
5.21038e-09
5.26373e-09
5.31275e-09
5.36044e-09
5.40397e-09
5.44755e-09
5.48578e-09
5.52267e-09
5.55071e-09
5.57781e-09
5.59429e-09
5.61057e-09
5.61378e-09
5.61557e-09
5.60498e-09
5.59079e-09
5.56453e-09
5.53144e-09
5.48809e-09
5.43369e-09
5.36785e-09
5.28852e-09
5.19572e-09
5.08687e-09
4.97407e-09
4.84057e-09
4.70314e-09
4.54739e-09
4.38594e-09
4.20653e-09
4.01871e-09
3.81104e-09
3.59567e-09
3.34527e-09
3.11239e-09
2.84249e-09
2.59994e-09
2.38191e-09
2.1383e-09
1.88692e-09
1.61911e-09
1.35428e-09
1.06662e-09
8.11516e-10
6.27142e-10
4.88732e-10
5.02217e-10
6.13352e-10
8.32599e-10
1.08994e-09
1.40219e-09
1.66793e-09
1.97529e-09
2.23733e-09
2.53239e-09
2.78717e-09
3.06541e-09
3.31081e-09
3.56914e-09
3.80351e-09
4.04053e-09
4.26134e-09
4.47729e-09
4.68149e-09
4.87731e-09
5.06297e-09
5.23878e-09
5.40474e-09
5.56092e-09
5.70728e-09
5.84388e-09
5.97083e-09
6.08832e-09
6.19652e-09
6.29571e-09
6.38579e-09
6.46777e-09
6.54062e-09
6.60649e-09
6.66327e-09
6.71408e-09
6.75616e-09
6.79303e-09
6.82172e-09
6.84579e-09
6.86241e-09
6.87491e-09
6.88106e-09
6.88308e-09
6.87968e-09
6.87189e-09
6.85999e-09
6.84415e-09
6.82464e-09
6.80175e-09
6.77573e-09
6.74685e-09
6.71535e-09
6.68147e-09
6.64542e-09
6.60742e-09
6.56765e-09
6.52626e-09
6.48348e-09
6.4395e-09
6.39447e-09
6.34854e-09
6.30183e-09
6.25446e-09
6.20657e-09
6.15825e-09
6.10966e-09
6.06086e-09
6.01218e-09
5.96302e-09
5.91462e-09
5.86553e-09
5.81761e-09
5.76905e-09
5.72169e-09
5.67405e-09
5.62733e-09
5.58081e-09
5.53496e-09
5.48959e-09
5.44487e-09
5.40075e-09
5.35731e-09
5.31453e-09
5.27246e-09
5.2311e-09
5.19048e-09
5.1506e-09
5.11146e-09
5.07305e-09
5.03545e-09
4.99854e-09
4.96259e-09
4.92723e-09
4.89292e-09
4.85907e-09
4.82635e-09
4.794e-09
4.76282e-09
4.73194e-09
4.70227e-09
4.67282e-09
4.64463e-09
4.61658e-09
4.58982e-09
4.56315e-09
4.53779e-09
4.51245e-09
4.48846e-09
4.46443e-09
4.44177e-09
4.41904e-09
4.39767e-09
4.37619e-09
4.35607e-09
4.33579e-09
4.31689e-09
4.29781e-09
4.28012e-09
4.26224e-09
4.24577e-09
4.22911e-09
4.21386e-09
4.19842e-09
4.1844e-09
4.17018e-09
4.15737e-09
4.14435e-09
4.13274e-09
4.12092e-09
4.1105e-09
4.09985e-09
4.0906e-09
4.0811e-09
4.073e-09
4.06462e-09
4.05763e-09
4.05034e-09
4.0444e-09
4.03815e-09
4.03322e-09
4.02795e-09
4.02395e-09
4.0196e-09
4.01647e-09
4.01296e-09
4.0106e-09
4.00787e-09
4.00621e-09
4.00412e-09
4.00308e-09
4.00153e-09
4.00101e-09
3.99992e-09
3.99984e-09
3.99913e-09
3.9994e-09
3.99904e-09
3.99956e-09
3.99952e-09
4.00021e-09
4.0005e-09
4.00122e-09
4.00185e-09
4.00258e-09
4.00332e-09
4.00411e-09
4.00489e-09
4.00575e-09
4.00656e-09
4.00747e-09
4.0083e-09
4.00927e-09
4.01013e-09
4.01114e-09
4.01204e-09
4.01311e-09
4.01406e-09
4.0152e-09
4.01621e-09
4.01744e-09
4.01852e-09
4.01985e-09
4.02102e-09
4.02247e-09
4.02373e-09
4.02533e-09
4.02668e-09
4.02842e-09
4.02987e-09
4.03176e-09
4.03331e-09
4.03535e-09
4.037e-09
4.03917e-09
4.04091e-09
4.04321e-09
4.04504e-09
4.04743e-09
4.04936e-09
4.05182e-09
4.05382e-09
4.05631e-09
4.05836e-09
4.06085e-09
4.06294e-09
4.06543e-09
4.06755e-09
4.07004e-09
4.07218e-09
4.07464e-09
4.07681e-09
4.07922e-09
4.08138e-09
4.08373e-09
4.08588e-09
4.08815e-09
4.09029e-09
4.09247e-09
4.09458e-09
4.09669e-09
4.09876e-09
4.10081e-09
4.10284e-09
4.10484e-09
4.10682e-09
4.10878e-09
4.11072e-09
4.11265e-09
4.11456e-09
4.11645e-09
4.11834e-09
4.12022e-09
4.12208e-09
4.12395e-09
4.1258e-09
4.12767e-09
4.12952e-09
4.13139e-09
4.13324e-09
4.13512e-09
4.13697e-09
4.13888e-09
4.14074e-09
4.14267e-09
4.14454e-09
4.14652e-09
4.14839e-09
4.15042e-09
4.1523e-09
4.15436e-09
4.15626e-09
4.15836e-09
4.1603e-09
4.16241e-09
4.1644e-09
4.16654e-09
4.16857e-09
4.17073e-09
4.17283e-09
4.17501e-09
4.17716e-09
4.17936e-09
4.1816e-09
4.1838e-09
4.18612e-09
4.18832e-09
4.19071e-09
4.19293e-09
4.19536e-09
4.19762e-09
4.2001e-09
4.20241e-09
4.20494e-09
4.20732e-09
4.20992e-09
4.21237e-09
4.21503e-09
4.21755e-09
4.22028e-09
4.22286e-09
4.22565e-09
4.2283e-09
4.23116e-09
4.23389e-09
4.23681e-09
4.23961e-09
4.24261e-09
4.24549e-09
4.24856e-09
4.25151e-09
4.25466e-09
4.2577e-09
4.26092e-09
4.26404e-09
4.26735e-09
4.27055e-09
4.27393e-09
4.27722e-09
4.28069e-09
4.28406e-09
4.28761e-09
4.29107e-09
4.2947e-09
4.29824e-09
4.30195e-09
4.30559e-09
4.30938e-09
4.3131e-09
4.31697e-09
4.32077e-09
4.32473e-09
4.32862e-09
4.33266e-09
4.33663e-09
4.34075e-09
4.3448e-09
4.349e-09
4.35313e-09
4.35741e-09
4.36163e-09
4.36598e-09
4.37027e-09
4.3747e-09
4.37907e-09
4.38357e-09
4.38802e-09
4.3926e-09
4.39712e-09
4.40176e-09
4.40636e-09
4.41107e-09
4.41574e-09
4.42051e-09
4.42524e-09
4.43007e-09
4.43488e-09
4.43977e-09
4.44464e-09
4.44958e-09
4.45452e-09
4.45948e-09
4.46453e-09
4.46946e-09
4.47464e-09
4.47948e-09
4.48486e-09
4.48954e-09
4.49516e-09
4.49959e-09
4.50557e-09
4.50964e-09
4.51612e-09
4.51974e-09
4.52707e-09
4.53029e-09
4.53944e-09
4.54266e-09
4.55666e-09
7.76627e-12
3.08417e-11
8.37124e-11
1.54227e-10
2.40935e-10
3.39038e-10
4.46668e-10
5.59831e-10
6.76557e-10
7.95135e-10
9.13904e-10
1.03296e-09
1.15117e-09
1.26865e-09
1.38517e-09
1.50075e-09
1.61536e-09
1.72894e-09
1.84137e-09
1.9527e-09
2.06306e-09
2.17239e-09
2.28072e-09
2.38801e-09
2.49424e-09
2.5994e-09
2.70349e-09
2.80655e-09
2.90858e-09
3.00965e-09
3.10973e-09
3.2089e-09
3.30713e-09
3.40473e-09
3.50186e-09
3.59734e-09
3.69211e-09
3.78609e-09
3.87929e-09
3.97169e-09
4.06334e-09
4.15423e-09
4.24453e-09
4.33425e-09
4.42349e-09
4.51227e-09
4.60062e-09
4.68857e-09
4.77615e-09
4.86337e-09
4.95027e-09
5.03684e-09
5.12321e-09
5.20921e-09
5.29556e-09
5.38157e-09
5.46767e-09
5.55347e-09
5.64026e-09
5.72609e-09
5.81258e-09
5.8985e-09
5.98508e-09
6.07115e-09
6.15816e-09
6.24449e-09
6.33216e-09
6.41893e-09
6.50744e-09
6.59481e-09
6.68435e-09
6.77245e-09
6.86323e-09
6.9522e-09
7.04444e-09
7.13445e-09
7.22839e-09
7.31984e-09
7.4145e-09
7.50568e-09
7.59784e-09
7.68943e-09
7.78228e-09
7.87476e-09
7.96791e-09
8.06005e-09
8.15247e-09
8.24359e-09
8.33409e-09
8.42339e-09
8.51094e-09
8.59645e-09
8.67851e-09
8.7591e-09
8.83601e-09
8.91029e-09
8.97894e-09
9.0443e-09
9.1022e-09
9.1557e-09
9.19983e-09
9.23766e-09
9.26593e-09
9.28705e-09
9.29553e-09
9.29759e-09
9.28402e-09
9.2635e-09
9.22348e-09
9.17605e-09
9.10708e-09
9.02918e-09
8.92914e-09
8.81461e-09
8.6798e-09
8.51615e-09
8.34568e-09
8.13387e-09
7.93538e-09
7.72465e-09
7.50158e-09
7.24013e-09
6.97118e-09
6.67004e-09
6.36316e-09
6.02631e-09
5.68437e-09
5.31275e-09
4.94122e-09
4.5509e-09
4.18314e-09
3.80207e-09
3.42359e-09
3.10544e-09
2.79898e-09
2.46786e-09
2.11781e-09
1.7656e-09
1.41966e-09
1.15786e-09
1.21267e-09
1.41904e-09
1.84436e-09
2.287e-09
2.79897e-09
3.26157e-09
3.77666e-09
4.23918e-09
4.74357e-09
5.19708e-09
5.68247e-09
6.12268e-09
6.58352e-09
7.00735e-09
7.4389e-09
7.84352e-09
8.24423e-09
8.62476e-09
8.99489e-09
9.3474e-09
9.68629e-09
1.00093e-08
1.03166e-08
1.06082e-08
1.08838e-08
1.11436e-08
1.13876e-08
1.16161e-08
1.18292e-08
1.20271e-08
1.221e-08
1.23781e-08
1.25323e-08
1.26718e-08
1.27986e-08
1.29112e-08
1.30122e-08
1.30995e-08
1.31763e-08
1.32403e-08
1.32945e-08
1.33371e-08
1.33708e-08
1.33941e-08
1.3409e-08
1.34152e-08
1.34129e-08
1.34024e-08
1.33848e-08
1.33605e-08
1.33298e-08
1.32932e-08
1.32509e-08
1.32035e-08
1.31514e-08
1.30948e-08
1.30343e-08
1.297e-08
1.29023e-08
1.28316e-08
1.27582e-08
1.26824e-08
1.26044e-08
1.25245e-08
1.2443e-08
1.236e-08
1.22758e-08
1.21906e-08
1.21045e-08
1.20182e-08
1.19308e-08
1.18441e-08
1.17559e-08
1.16693e-08
1.15813e-08
1.1495e-08
1.14079e-08
1.13221e-08
1.12364e-08
1.11516e-08
1.10673e-08
1.0984e-08
1.09015e-08
1.082e-08
1.07394e-08
1.06599e-08
1.05815e-08
1.05043e-08
1.04282e-08
1.03532e-08
1.02795e-08
1.0207e-08
1.01358e-08
1.0066e-08
9.99731e-09
9.93015e-09
9.86398e-09
9.79947e-09
9.73584e-09
9.67396e-09
9.61287e-09
9.5536e-09
9.49503e-09
9.43834e-09
9.38228e-09
9.32815e-09
9.27455e-09
9.22294e-09
9.17181e-09
9.12268e-09
9.07398e-09
9.02731e-09
8.98102e-09
8.93677e-09
8.89288e-09
8.85101e-09
8.80945e-09
8.76995e-09
8.73072e-09
8.69354e-09
8.65663e-09
8.6218e-09
8.58724e-09
8.55477e-09
8.52257e-09
8.49246e-09
8.4626e-09
8.43484e-09
8.40729e-09
8.38184e-09
8.35658e-09
8.3334e-09
8.31039e-09
8.28943e-09
8.2686e-09
8.24981e-09
8.23109e-09
8.21438e-09
8.19768e-09
8.18296e-09
8.16819e-09
8.15532e-09
8.14236e-09
8.13123e-09
8.11995e-09
8.11041e-09
8.10067e-09
8.09256e-09
8.08421e-09
8.07738e-09
8.07026e-09
8.0646e-09
8.05855e-09
8.05384e-09
8.04867e-09
8.04477e-09
8.04036e-09
8.03716e-09
8.03343e-09
8.0308e-09
8.02766e-09
8.0255e-09
8.02288e-09
8.02101e-09
8.01896e-09
8.01725e-09
8.01558e-09
8.01406e-09
8.01261e-09
8.01133e-09
8.01009e-09
8.00902e-09
8.00797e-09
8.00711e-09
8.00626e-09
8.00562e-09
8.00497e-09
8.00455e-09
8.00412e-09
8.00394e-09
8.00374e-09
8.00382e-09
8.00386e-09
8.00422e-09
8.00452e-09
8.00516e-09
8.00574e-09
8.00668e-09
8.00754e-09
8.00878e-09
8.00987e-09
8.01145e-09
8.01277e-09
8.01465e-09
8.0162e-09
8.01834e-09
8.02012e-09
8.0225e-09
8.02448e-09
8.02705e-09
8.02921e-09
8.03193e-09
8.03425e-09
8.03707e-09
8.03949e-09
8.04237e-09
8.04487e-09
8.04778e-09
8.05035e-09
8.0533e-09
8.05592e-09
8.05887e-09
8.06153e-09
8.06443e-09
8.0671e-09
8.06993e-09
8.0726e-09
8.07536e-09
8.07801e-09
8.08068e-09
8.0833e-09
8.08591e-09
8.08849e-09
8.09105e-09
8.09359e-09
8.0961e-09
8.0986e-09
8.10108e-09
8.10355e-09
8.10601e-09
8.10847e-09
8.11092e-09
8.11337e-09
8.11582e-09
8.11828e-09
8.12075e-09
8.12323e-09
8.12572e-09
8.12823e-09
8.13076e-09
8.13331e-09
8.13588e-09
8.13848e-09
8.14111e-09
8.14376e-09
8.14646e-09
8.14916e-09
8.15197e-09
8.1547e-09
8.15761e-09
8.1604e-09
8.16339e-09
8.16627e-09
8.16933e-09
8.17229e-09
8.17543e-09
8.17848e-09
8.1817e-09
8.18486e-09
8.18816e-09
8.19142e-09
8.19482e-09
8.19819e-09
8.20168e-09
8.20519e-09
8.20873e-09
8.21239e-09
8.21599e-09
8.21978e-09
8.22346e-09
8.22736e-09
8.23114e-09
8.23515e-09
8.23905e-09
8.24319e-09
8.24724e-09
8.25152e-09
8.25572e-09
8.26015e-09
8.2645e-09
8.26908e-09
8.27357e-09
8.27829e-09
8.28293e-09
8.2878e-09
8.2926e-09
8.29762e-09
8.30259e-09
8.30777e-09
8.3129e-09
8.31824e-09
8.32354e-09
8.32905e-09
8.33451e-09
8.34019e-09
8.34583e-09
8.35168e-09
8.3575e-09
8.36352e-09
8.36951e-09
8.37571e-09
8.38188e-09
8.38825e-09
8.39459e-09
8.40114e-09
8.40767e-09
8.41438e-09
8.42109e-09
8.42798e-09
8.43487e-09
8.44193e-09
8.44899e-09
8.45623e-09
8.46347e-09
8.47088e-09
8.47829e-09
8.48587e-09
8.49345e-09
8.5012e-09
8.50895e-09
8.51687e-09
8.52478e-09
8.53286e-09
8.54094e-09
8.54918e-09
8.55743e-09
8.56582e-09
8.57422e-09
8.58277e-09
8.59133e-09
8.60003e-09
8.60874e-09
8.61758e-09
8.62643e-09
8.63542e-09
8.64441e-09
8.65353e-09
8.66266e-09
8.67191e-09
8.68117e-09
8.69055e-09
8.69994e-09
8.70941e-09
8.71897e-09
8.72848e-09
8.73824e-09
8.74771e-09
8.75772e-09
8.76707e-09
8.77741e-09
8.78653e-09
8.79733e-09
8.80607e-09
8.81758e-09
8.82576e-09
8.83848e-09
8.8459e-09
8.86102e-09
8.86726e-09
8.88693e-09
2.72982e-11
8.53061e-11
1.73407e-10
2.87289e-10
4.17788e-10
5.60668e-10
7.13884e-10
8.7372e-10
1.03793e-09
1.20455e-09
1.37218e-09
1.53988e-09
1.70646e-09
1.87166e-09
2.03529e-09
2.19725e-09
2.35748e-09
2.51576e-09
2.67185e-09
2.8259e-09
2.97816e-09
3.12859e-09
3.27717e-09
3.4239e-09
3.56874e-09
3.71172e-09
3.85279e-09
3.99215e-09
4.12968e-09
4.26565e-09
4.3999e-09
4.53281e-09
4.66439e-09
4.79511e-09
4.92368e-09
5.05108e-09
5.17719e-09
5.30221e-09
5.42603e-09
5.54867e-09
5.67017e-09
5.79045e-09
5.9097e-09
6.02785e-09
6.14499e-09
6.26118e-09
6.37649e-09
6.49098e-09
6.60473e-09
6.7178e-09
6.83027e-09
6.94223e-09
7.05378e-09
7.16486e-09
7.27591e-09
7.3861e-09
7.49535e-09
7.60226e-09
7.70989e-09
7.81575e-09
7.92213e-09
8.02802e-09
8.13413e-09
8.24001e-09
8.34593e-09
8.45159e-09
8.55727e-09
8.66261e-09
8.76812e-09
8.87311e-09
8.97849e-09
9.0831e-09
9.18833e-09
9.29245e-09
9.39743e-09
9.50085e-09
9.60533e-09
9.70826e-09
9.81137e-09
9.91327e-09
1.00164e-08
1.01174e-08
1.02164e-08
1.03152e-08
1.04107e-08
1.05052e-08
1.05962e-08
1.06856e-08
1.07708e-08
1.08539e-08
1.09316e-08
1.1006e-08
1.1074e-08
1.11373e-08
1.11917e-08
1.12412e-08
1.12815e-08
1.13144e-08
1.13334e-08
1.13408e-08
1.13424e-08
1.13421e-08
1.13169e-08
1.12861e-08
1.12319e-08
1.11719e-08
1.10873e-08
1.0994e-08
1.08748e-08
1.07454e-08
1.05887e-08
1.04203e-08
1.02238e-08
1.00131e-08
9.79473e-09
9.56904e-09
9.31948e-09
9.0405e-09
8.75759e-09
8.50531e-09
8.25378e-09
7.96879e-09
7.65419e-09
7.31353e-09
6.95131e-09
6.56908e-09
6.17164e-09
5.76132e-09
5.34296e-09
4.92438e-09
4.49361e-09
4.05534e-09
3.58191e-09
3.05573e-09
2.50215e-09
2.01342e-09
1.81312e-09
1.96856e-09
2.31347e-09
2.77776e-09
3.366e-09
3.94133e-09
4.58317e-09
5.17916e-09
5.82836e-09
6.42666e-09
7.07018e-09
7.66075e-09
8.28658e-09
8.86356e-09
9.4659e-09
1.00252e-08
1.05984e-08
1.11369e-08
1.16764e-08
1.219e-08
1.2695e-08
1.31781e-08
1.36478e-08
1.40972e-08
1.45299e-08
1.4944e-08
1.53396e-08
1.57163e-08
1.60741e-08
1.6413e-08
1.67331e-08
1.70345e-08
1.73171e-08
1.75814e-08
1.78274e-08
1.80557e-08
1.82666e-08
1.84599e-08
1.86369e-08
1.87969e-08
1.89415e-08
1.90698e-08
1.91838e-08
1.92824e-08
1.93677e-08
1.94386e-08
1.94972e-08
1.95428e-08
1.95766e-08
1.95993e-08
1.96108e-08
1.96116e-08
1.96021e-08
1.95831e-08
1.95555e-08
1.95197e-08
1.9476e-08
1.94251e-08
1.93672e-08
1.93029e-08
1.92327e-08
1.91569e-08
1.90762e-08
1.89908e-08
1.89011e-08
1.88075e-08
1.87103e-08
1.861e-08
1.85068e-08
1.8401e-08
1.8293e-08
1.81831e-08
1.80713e-08
1.79585e-08
1.78438e-08
1.77292e-08
1.76125e-08
1.74967e-08
1.7379e-08
1.72628e-08
1.7145e-08
1.70288e-08
1.69118e-08
1.6796e-08
1.66802e-08
1.65655e-08
1.64513e-08
1.63381e-08
1.62257e-08
1.61145e-08
1.60045e-08
1.58957e-08
1.57881e-08
1.56819e-08
1.5577e-08
1.54736e-08
1.53717e-08
1.52713e-08
1.51723e-08
1.50751e-08
1.49792e-08
1.48852e-08
1.47924e-08
1.47016e-08
1.4612e-08
1.45246e-08
1.44382e-08
1.43541e-08
1.4271e-08
1.41902e-08
1.41104e-08
1.40329e-08
1.39564e-08
1.38822e-08
1.3809e-08
1.37382e-08
1.36682e-08
1.36007e-08
1.3534e-08
1.34699e-08
1.34067e-08
1.33459e-08
1.32858e-08
1.32283e-08
1.31715e-08
1.31172e-08
1.30638e-08
1.30129e-08
1.29628e-08
1.29153e-08
1.28685e-08
1.28243e-08
1.27808e-08
1.27398e-08
1.26995e-08
1.26618e-08
1.26247e-08
1.25901e-08
1.2556e-08
1.25244e-08
1.24933e-08
1.24647e-08
1.24364e-08
1.24105e-08
1.23849e-08
1.23617e-08
1.23386e-08
1.23178e-08
1.2297e-08
1.22784e-08
1.22598e-08
1.22432e-08
1.22266e-08
1.22118e-08
1.21969e-08
1.21837e-08
1.21704e-08
1.21586e-08
1.21465e-08
1.21359e-08
1.2125e-08
1.21155e-08
1.21056e-08
1.2097e-08
1.2088e-08
1.20802e-08
1.2072e-08
1.20647e-08
1.20573e-08
1.20504e-08
1.20437e-08
1.20373e-08
1.2031e-08
1.20251e-08
1.20193e-08
1.20138e-08
1.20085e-08
1.20034e-08
1.19985e-08
1.19939e-08
1.19894e-08
1.19852e-08
1.19813e-08
1.19775e-08
1.1974e-08
1.19707e-08
1.19677e-08
1.19649e-08
1.19623e-08
1.196e-08
1.19579e-08
1.19561e-08
1.19545e-08
1.19532e-08
1.1952e-08
1.19512e-08
1.19505e-08
1.19501e-08
1.19497e-08
1.19498e-08
1.19498e-08
1.19502e-08
1.19505e-08
1.19513e-08
1.19519e-08
1.19529e-08
1.19537e-08
1.1955e-08
1.1956e-08
1.19574e-08
1.19586e-08
1.19601e-08
1.19614e-08
1.1963e-08
1.19644e-08
1.19661e-08
1.19676e-08
1.19693e-08
1.19708e-08
1.19725e-08
1.1974e-08
1.19757e-08
1.19773e-08
1.19789e-08
1.19805e-08
1.19821e-08
1.19837e-08
1.19853e-08
1.19869e-08
1.19885e-08
1.19901e-08
1.19917e-08
1.19933e-08
1.1995e-08
1.19966e-08
1.19983e-08
1.2e-08
1.20017e-08
1.20035e-08
1.20053e-08
1.20071e-08
1.2009e-08
1.2011e-08
1.2013e-08
1.2015e-08
1.20171e-08
1.20192e-08
1.20215e-08
1.20237e-08
1.20261e-08
1.20284e-08
1.20309e-08
1.20334e-08
1.20361e-08
1.20387e-08
1.20415e-08
1.20443e-08
1.20472e-08
1.20501e-08
1.20532e-08
1.20563e-08
1.20596e-08
1.20628e-08
1.20662e-08
1.20696e-08
1.20732e-08
1.20768e-08
1.20806e-08
1.20843e-08
1.20883e-08
1.20923e-08
1.20963e-08
1.21005e-08
1.21048e-08
1.21092e-08
1.21135e-08
1.21181e-08
1.21227e-08
1.21275e-08
1.21324e-08
1.21374e-08
1.21425e-08
1.21477e-08
1.2153e-08
1.21586e-08
1.21641e-08
1.21698e-08
1.21756e-08
1.21816e-08
1.21876e-08
1.21939e-08
1.22001e-08
1.22066e-08
1.22132e-08
1.22199e-08
1.22267e-08
1.22338e-08
1.22408e-08
1.22481e-08
1.22555e-08
1.2263e-08
1.22706e-08
1.22785e-08
1.22864e-08
1.22945e-08
1.23026e-08
1.2311e-08
1.23195e-08
1.23281e-08
1.23368e-08
1.23457e-08
1.23547e-08
1.23639e-08
1.23732e-08
1.23827e-08
1.23922e-08
1.24019e-08
1.24118e-08
1.24218e-08
1.24318e-08
1.24421e-08
1.24524e-08
1.2463e-08
1.24736e-08
1.24844e-08
1.24952e-08
1.25063e-08
1.25174e-08
1.25287e-08
1.25401e-08
1.25516e-08
1.25632e-08
1.2575e-08
1.25869e-08
1.25989e-08
1.2611e-08
1.26232e-08
1.26355e-08
1.2648e-08
1.26605e-08
1.26732e-08
1.2686e-08
1.26989e-08
1.27118e-08
1.27249e-08
1.27381e-08
1.27514e-08
1.27647e-08
1.27782e-08
1.27918e-08
1.28052e-08
1.28192e-08
1.28326e-08
1.2847e-08
1.28602e-08
1.28751e-08
1.2888e-08
1.29038e-08
1.2916e-08
1.29333e-08
1.29443e-08
1.29641e-08
1.29727e-08
1.29963e-08
6.57256e-11
1.67977e-10
2.95159e-10
4.55418e-10
6.29209e-10
8.13775e-10
1.00735e-09
1.20748e-09
1.41174e-09
1.61877e-09
1.82665e-09
2.03408e-09
2.24003e-09
2.44389e-09
2.64528e-09
2.84394e-09
3.03962e-09
3.23203e-09
3.42131e-09
3.60775e-09
3.79181e-09
3.97302e-09
4.15181e-09
4.32793e-09
4.50144e-09
4.67234e-09
4.84069e-09
5.00663e-09
5.17009e-09
5.33139e-09
5.4904e-09
5.64744e-09
5.80236e-09
5.9553e-09
6.10592e-09
6.25427e-09
6.40045e-09
6.54465e-09
6.68694e-09
6.82719e-09
6.96563e-09
7.10223e-09
7.23732e-09
7.37081e-09
7.50298e-09
7.6338e-09
7.76326e-09
7.8914e-09
8.01821e-09
8.14375e-09
8.26797e-09
8.391e-09
8.51258e-09
8.63325e-09
8.75232e-09
8.87077e-09
8.98825e-09
9.10439e-09
9.22081e-09
9.33589e-09
9.44971e-09
9.56241e-09
9.67395e-09
9.78441e-09
9.89386e-09
1.00023e-08
1.01097e-08
1.02161e-08
1.03214e-08
1.04257e-08
1.05287e-08
1.06307e-08
1.07313e-08
1.08307e-08
1.09287e-08
1.10252e-08
1.11203e-08
1.12133e-08
1.1307e-08
1.13947e-08
1.14753e-08
1.15562e-08
1.16335e-08
1.17089e-08
1.17796e-08
1.18466e-08
1.1908e-08
1.19652e-08
1.20156e-08
1.20613e-08
1.20991e-08
1.21316e-08
1.21531e-08
1.21684e-08
1.21677e-08
1.21635e-08
1.2143e-08
1.21169e-08
1.20699e-08
1.20291e-08
1.19954e-08
1.1966e-08
1.19226e-08
1.18599e-08
1.1781e-08
1.16841e-08
1.15703e-08
1.14379e-08
1.12871e-08
1.11174e-08
1.09288e-08
1.07213e-08
1.04956e-08
1.02524e-08
9.99438e-09
9.72444e-09
9.4475e-09
9.14892e-09
8.81689e-09
8.41786e-09
7.96872e-09
7.54778e-09
7.14925e-09
6.72585e-09
6.28968e-09
5.83088e-09
5.36443e-09
4.87802e-09
4.39216e-09
3.89789e-09
3.40435e-09
2.93257e-09
2.45874e-09
2.67286e-09
3.08641e-09
3.60479e-09
4.23321e-09
4.87282e-09
5.5756e-09
6.25075e-09
6.9858e-09
7.67364e-09
8.41019e-09
9.09556e-09
9.82503e-09
1.05028e-08
1.12162e-08
1.1881e-08
1.25738e-08
1.32211e-08
1.38868e-08
1.45128e-08
1.51456e-08
1.57473e-08
1.63447e-08
1.69169e-08
1.74778e-08
1.80162e-08
1.85394e-08
1.90416e-08
1.95253e-08
1.99894e-08
2.04337e-08
2.0858e-08
2.12623e-08
2.16465e-08
2.20107e-08
2.23549e-08
2.26791e-08
2.29837e-08
2.32688e-08
2.35349e-08
2.37819e-08
2.40105e-08
2.42208e-08
2.44131e-08
2.45882e-08
2.4746e-08
2.48874e-08
2.50125e-08
2.51222e-08
2.52165e-08
2.52963e-08
2.53619e-08
2.54139e-08
2.5453e-08
2.54794e-08
2.5494e-08
2.54966e-08
2.54876e-08
2.5468e-08
2.54385e-08
2.53999e-08
2.53525e-08
2.52967e-08
2.52331e-08
2.5162e-08
2.50841e-08
2.49997e-08
2.49092e-08
2.48131e-08
2.47118e-08
2.46057e-08
2.44953e-08
2.43809e-08
2.42629e-08
2.41414e-08
2.40172e-08
2.38899e-08
2.37608e-08
2.3629e-08
2.34962e-08
2.33609e-08
2.32254e-08
2.30877e-08
2.29504e-08
2.28112e-08
2.2673e-08
2.25333e-08
2.23947e-08
2.22553e-08
2.2117e-08
2.19784e-08
2.18409e-08
2.17038e-08
2.15676e-08
2.14323e-08
2.1298e-08
2.11648e-08
2.10329e-08
2.09023e-08
2.07731e-08
2.06453e-08
2.0519e-08
2.03941e-08
2.02709e-08
2.01491e-08
2.00293e-08
1.99108e-08
1.97944e-08
1.96794e-08
1.95666e-08
1.94551e-08
1.9346e-08
1.92381e-08
1.91327e-08
1.90286e-08
1.8927e-08
1.88266e-08
1.87288e-08
1.86323e-08
1.85385e-08
1.84458e-08
1.83559e-08
1.82672e-08
1.81814e-08
1.80967e-08
1.80148e-08
1.7934e-08
1.78561e-08
1.77795e-08
1.77057e-08
1.76331e-08
1.75635e-08
1.7495e-08
1.74294e-08
1.7365e-08
1.73036e-08
1.72432e-08
1.71858e-08
1.71294e-08
1.70759e-08
1.70235e-08
1.69739e-08
1.69253e-08
1.68794e-08
1.68344e-08
1.67922e-08
1.67507e-08
1.67119e-08
1.66738e-08
1.66382e-08
1.66032e-08
1.65707e-08
1.65385e-08
1.65088e-08
1.64793e-08
1.64521e-08
1.6425e-08
1.64001e-08
1.63752e-08
1.63523e-08
1.63294e-08
1.63084e-08
1.62872e-08
1.62677e-08
1.62481e-08
1.623e-08
1.62118e-08
1.6195e-08
1.6178e-08
1.61622e-08
1.61464e-08
1.61315e-08
1.61166e-08
1.61024e-08
1.60885e-08
1.6075e-08
1.6062e-08
1.60492e-08
1.60369e-08
1.60249e-08
1.60132e-08
1.60019e-08
1.5991e-08
1.59804e-08
1.59701e-08
1.59602e-08
1.59506e-08
1.59415e-08
1.59326e-08
1.59241e-08
1.5916e-08
1.59082e-08
1.59008e-08
1.58938e-08
1.58871e-08
1.58807e-08
1.58747e-08
1.58691e-08
1.58637e-08
1.58587e-08
1.5854e-08
1.58496e-08
1.58455e-08
1.58417e-08
1.58381e-08
1.58348e-08
1.58317e-08
1.58289e-08
1.58262e-08
1.58238e-08
1.58215e-08
1.58194e-08
1.58174e-08
1.58156e-08
1.58138e-08
1.58123e-08
1.58108e-08
1.58094e-08
1.5808e-08
1.58068e-08
1.58056e-08
1.58045e-08
1.58034e-08
1.58024e-08
1.58013e-08
1.58004e-08
1.57995e-08
1.57986e-08
1.57977e-08
1.57969e-08
1.57961e-08
1.57954e-08
1.57947e-08
1.5794e-08
1.57934e-08
1.57928e-08
1.57922e-08
1.57918e-08
1.57913e-08
1.5791e-08
1.57907e-08
1.57905e-08
1.57903e-08
1.57902e-08
1.57902e-08
1.57903e-08
1.57904e-08
1.57907e-08
1.5791e-08
1.57915e-08
1.5792e-08
1.57927e-08
1.57934e-08
1.57942e-08
1.57951e-08
1.57962e-08
1.57973e-08
1.57987e-08
1.58e-08
1.58015e-08
1.58031e-08
1.58048e-08
1.58066e-08
1.58086e-08
1.58106e-08
1.58129e-08
1.58152e-08
1.58176e-08
1.58202e-08
1.58229e-08
1.58257e-08
1.58287e-08
1.58317e-08
1.5835e-08
1.58383e-08
1.58418e-08
1.58455e-08
1.58492e-08
1.58532e-08
1.58572e-08
1.58614e-08
1.58657e-08
1.58702e-08
1.58748e-08
1.58797e-08
1.58846e-08
1.58898e-08
1.5895e-08
1.59006e-08
1.59062e-08
1.5912e-08
1.59179e-08
1.59241e-08
1.59304e-08
1.5937e-08
1.59436e-08
1.59505e-08
1.59575e-08
1.59648e-08
1.59721e-08
1.59798e-08
1.59875e-08
1.59955e-08
1.60036e-08
1.6012e-08
1.60204e-08
1.60292e-08
1.6038e-08
1.60471e-08
1.60564e-08
1.60659e-08
1.60755e-08
1.60853e-08
1.60953e-08
1.61055e-08
1.61159e-08
1.61265e-08
1.61372e-08
1.61482e-08
1.61593e-08
1.61707e-08
1.61822e-08
1.61939e-08
1.62057e-08
1.62178e-08
1.623e-08
1.62424e-08
1.6255e-08
1.62678e-08
1.62807e-08
1.62938e-08
1.63071e-08
1.63205e-08
1.63341e-08
1.63479e-08
1.63619e-08
1.6376e-08
1.63903e-08
1.64048e-08
1.64193e-08
1.64341e-08
1.6449e-08
1.64641e-08
1.64793e-08
1.64947e-08
1.65102e-08
1.65259e-08
1.65417e-08
1.65576e-08
1.65737e-08
1.65899e-08
1.66062e-08
1.66227e-08
1.66393e-08
1.6656e-08
1.6673e-08
1.66896e-08
1.67072e-08
1.67237e-08
1.67419e-08
1.67581e-08
1.67773e-08
1.67927e-08
1.68136e-08
1.68274e-08
1.68509e-08
1.68612e-08
1.68884e-08
1.24554e-10
2.8079e-10
4.5634e-10
6.58231e-10
8.73438e-10
1.09527e-09
1.32308e-09
1.55593e-09
1.79203e-09
2.03069e-09
2.26902e-09
2.50607e-09
2.74085e-09
2.97269e-09
3.20104e-09
3.42567e-09
3.64654e-09
3.86353e-09
4.07691e-09
4.28642e-09
4.49154e-09
4.69304e-09
4.89083e-09
5.08497e-09
5.2754e-09
5.46213e-09
5.64555e-09
5.82542e-09
6.00238e-09
6.17607e-09
6.34709e-09
6.51493e-09
6.68016e-09
6.84238e-09
7.00205e-09
7.15882e-09
7.31339e-09
7.46566e-09
7.61536e-09
7.76272e-09
7.9078e-09
8.05063e-09
8.1913e-09
8.32975e-09
8.46585e-09
8.59977e-09
8.73154e-09
8.86128e-09
8.989e-09
9.1148e-09
9.23871e-09
9.36098e-09
9.48154e-09
9.60127e-09
9.71984e-09
9.83837e-09
9.95203e-09
1.00597e-08
1.01659e-08
1.02698e-08
1.0373e-08
1.0475e-08
1.05755e-08
1.06743e-08
1.0771e-08
1.08658e-08
1.09583e-08
1.10488e-08
1.11367e-08
1.12225e-08
1.13054e-08
1.13861e-08
1.14635e-08
1.15385e-08
1.16098e-08
1.16782e-08
1.1742e-08
1.18027e-08
1.18805e-08
1.19439e-08
1.20005e-08
1.20581e-08
1.21125e-08
1.21643e-08
1.22113e-08
1.22531e-08
1.22889e-08
1.23183e-08
1.23407e-08
1.23559e-08
1.23638e-08
1.23638e-08
1.23609e-08
1.23485e-08
1.23248e-08
1.22918e-08
1.22485e-08
1.21949e-08
1.21305e-08
1.20588e-08
1.19671e-08
1.18639e-08
1.1757e-08
1.16429e-08
1.15012e-08
1.13519e-08
1.11729e-08
1.09851e-08
1.07663e-08
1.05381e-08
1.02778e-08
1.00077e-08
9.70513e-09
9.39256e-09
9.04994e-09
8.69751e-09
8.32457e-09
7.92767e-09
7.5031e-09
7.04213e-09
6.55782e-09
6.07594e-09
5.56656e-09
5.06344e-09
4.53884e-09
4.03081e-09
3.52955e-09
3.08534e-09
3.34121e-09
3.73752e-09
4.2765e-09
4.88284e-09
5.57143e-09
6.27423e-09
7.0253e-09
7.7523e-09
8.53063e-09
9.27552e-09
1.00688e-08
1.08179e-08
1.16084e-08
1.23518e-08
1.31294e-08
1.38627e-08
1.46294e-08
1.535e-08
1.60986e-08
1.6801e-08
1.75237e-08
1.82035e-08
1.88946e-08
1.95494e-08
2.02049e-08
2.08316e-08
2.145e-08
2.20436e-08
2.26241e-08
2.31816e-08
2.37227e-08
2.42426e-08
2.47432e-08
2.52237e-08
2.5684e-08
2.61241e-08
2.65439e-08
2.69435e-08
2.73229e-08
2.76821e-08
2.80214e-08
2.83409e-08
2.86407e-08
2.89212e-08
2.91822e-08
2.9425e-08
2.96489e-08
2.98553e-08
3.00435e-08
3.02152e-08
3.03692e-08
3.05078e-08
3.06295e-08
3.07368e-08
3.08279e-08
3.09056e-08
3.09682e-08
3.10181e-08
3.10543e-08
3.10782e-08
3.10896e-08
3.10891e-08
3.1077e-08
3.10541e-08
3.10211e-08
3.09788e-08
3.09275e-08
3.08676e-08
3.07996e-08
3.07238e-08
3.06406e-08
3.05504e-08
3.04538e-08
3.03511e-08
3.02427e-08
3.0129e-08
3.00105e-08
2.98873e-08
2.976e-08
2.96291e-08
2.94943e-08
2.93568e-08
2.9216e-08
2.90732e-08
2.89274e-08
2.87804e-08
2.86309e-08
2.84807e-08
2.83284e-08
2.8176e-08
2.80219e-08
2.78681e-08
2.7713e-08
2.75585e-08
2.74032e-08
2.72488e-08
2.7094e-08
2.694e-08
2.67862e-08
2.66332e-08
2.64809e-08
2.63296e-08
2.61794e-08
2.60302e-08
2.58822e-08
2.57355e-08
2.559e-08
2.5446e-08
2.53034e-08
2.51625e-08
2.5023e-08
2.48853e-08
2.47491e-08
2.46149e-08
2.44822e-08
2.43517e-08
2.42226e-08
2.40958e-08
2.39705e-08
2.38477e-08
2.37263e-08
2.36075e-08
2.34901e-08
2.33755e-08
2.32623e-08
2.31518e-08
2.30429e-08
2.29368e-08
2.28321e-08
2.27305e-08
2.26304e-08
2.25332e-08
2.24377e-08
2.23452e-08
2.22542e-08
2.21663e-08
2.20799e-08
2.19966e-08
2.19149e-08
2.18362e-08
2.1759e-08
2.1685e-08
2.16124e-08
2.15428e-08
2.14747e-08
2.14095e-08
2.13458e-08
2.12849e-08
2.12254e-08
2.11687e-08
2.11132e-08
2.10605e-08
2.10087e-08
2.09598e-08
2.09117e-08
2.08662e-08
2.08215e-08
2.07793e-08
2.07376e-08
2.06985e-08
2.06596e-08
2.06232e-08
2.0587e-08
2.0553e-08
2.05191e-08
2.04872e-08
2.04554e-08
2.04255e-08
2.03956e-08
2.03675e-08
2.03394e-08
2.03127e-08
2.02861e-08
2.02608e-08
2.02356e-08
2.02115e-08
2.01876e-08
2.01645e-08
2.01419e-08
2.01198e-08
2.00982e-08
2.00772e-08
2.00566e-08
2.00365e-08
2.00169e-08
1.99978e-08
1.99792e-08
1.9961e-08
1.99433e-08
1.99261e-08
1.99094e-08
1.98931e-08
1.98773e-08
1.9862e-08
1.98472e-08
1.98328e-08
1.9819e-08
1.98056e-08
1.97926e-08
1.97802e-08
1.97681e-08
1.97566e-08
1.97454e-08
1.97347e-08
1.97244e-08
1.97145e-08
1.9705e-08
1.96959e-08
1.96871e-08
1.96786e-08
1.96705e-08
1.96627e-08
1.96551e-08
1.96478e-08
1.96408e-08
1.9634e-08
1.96274e-08
1.9621e-08
1.96148e-08
1.96088e-08
1.9603e-08
1.95973e-08
1.95917e-08
1.95863e-08
1.9581e-08
1.95758e-08
1.95707e-08
1.95657e-08
1.95607e-08
1.95559e-08
1.95511e-08
1.95465e-08
1.95419e-08
1.95374e-08
1.9533e-08
1.95286e-08
1.95244e-08
1.95202e-08
1.95161e-08
1.95122e-08
1.95083e-08
1.95045e-08
1.95008e-08
1.94972e-08
1.94937e-08
1.94904e-08
1.94872e-08
1.9484e-08
1.94811e-08
1.94782e-08
1.94755e-08
1.94729e-08
1.94704e-08
1.94681e-08
1.94659e-08
1.94639e-08
1.9462e-08
1.94603e-08
1.94587e-08
1.94573e-08
1.9456e-08
1.94549e-08
1.94539e-08
1.94531e-08
1.94524e-08
1.94519e-08
1.94516e-08
1.94514e-08
1.94514e-08
1.94516e-08
1.94519e-08
1.94524e-08
1.94531e-08
1.94539e-08
1.94549e-08
1.94562e-08
1.94575e-08
1.94591e-08
1.94608e-08
1.94627e-08
1.94648e-08
1.94671e-08
1.94696e-08
1.94723e-08
1.94751e-08
1.94781e-08
1.94814e-08
1.94849e-08
1.94886e-08
1.94924e-08
1.94965e-08
1.95008e-08
1.95054e-08
1.95101e-08
1.9515e-08
1.95202e-08
1.95256e-08
1.95312e-08
1.95371e-08
1.95431e-08
1.95495e-08
1.9556e-08
1.95628e-08
1.95697e-08
1.9577e-08
1.95844e-08
1.95922e-08
1.96001e-08
1.96083e-08
1.96167e-08
1.96254e-08
1.96342e-08
1.96434e-08
1.96527e-08
1.96624e-08
1.96722e-08
1.96823e-08
1.96926e-08
1.97032e-08
1.9714e-08
1.9725e-08
1.97363e-08
1.97478e-08
1.97595e-08