/*--------------------------------*- C++ -*----------------------------------*\
| =========                 |                                                 |
| \\      /  F ield         | OpenFOAM: The Open Source CFD Toolbox           |
|  \\    /   O peration     | Version:  2012                                  |
|   \\  /    A nd           | Website:  www.openfoam.com                      |
|    \\/     M anipulation  |                                                 |
\*---------------------------------------------------------------------------*/
FoamFile
{
    version     2.0;
    format      ascii;
    class       volScalarField;
    location    "0.99";
    object      minKappa;
}
// * * * * * * * * * * * * * * * * * * * * * * * * * * * * * * * * * * * * * //

dimensions      [0 0 0 0 0 0 0];


internalField   nonuniform List<scalar> 
2268
(
8.55094e-08
1.62396e-07
2.03689e-07
1.76613e-07
9.38418e-08
1.20349e-07
2.91516e-07
3.73336e-07
4.48661e-07
3.25311e-07
1.91711e-07
1.85008e-07
3.9373e-07
6.76012e-07
8.37133e-07
1.05327e-06
1.18633e-06
1.34071e-06
1.49745e-06
1.42257e-06
1.34458e-06
7.42323e-07
5.47458e-07
8.55094e-08
1.62396e-07
2.03689e-07
1.76613e-07
9.38418e-08
1.20349e-07
2.91516e-07
3.73336e-07
4.48661e-07
3.25311e-07
1.91711e-07
1.85008e-07
3.9373e-07
6.76012e-07
8.37133e-07
1.05327e-06
1.18633e-06
1.34071e-06
1.49745e-06
1.42257e-06
1.34458e-06
7.42323e-07
5.47458e-07
1.27793e-07
1.8488e-07
2.27489e-07
2.02204e-07
1.38729e-07
1.75891e-07
3.33236e-07
4.13249e-07
4.86583e-07
3.75026e-07
2.81897e-07
2.86859e-07
4.5893e-07
7.24934e-07
8.73116e-07
1.10214e-06
1.19373e-06
1.3705e-06
1.54589e-06
1.49227e-06
1.43197e-06
8.74318e-07
6.86191e-07
1.82487e-07
2.3053e-07
2.76908e-07
2.64748e-07
2.16264e-07
2.64077e-07
4.02165e-07
4.78371e-07
5.51616e-07
4.55207e-07
3.94912e-07
4.03268e-07
5.44404e-07
7.85682e-07
9.1348e-07
1.15616e-06
1.22128e-06
1.44328e-06
1.61441e-06
1.61012e-06
1.60446e-06
1.10142e-06
9.20636e-07
2.55743e-07
2.91891e-07
3.38829e-07
3.31774e-07
3.0426e-07
3.70334e-07
4.97764e-07
5.69483e-07
6.44081e-07
5.6173e-07
5.33161e-07
5.46273e-07
6.67777e-07
8.72326e-07
9.92201e-07
1.24088e-06
1.23943e-06
1.48212e-06
1.68828e-06
1.81929e-06
1.88028e-06
1.41755e-06
1.20395e-06
3.41481e-07
3.75253e-07
4.21175e-07
4.2585e-07
4.11762e-07
5.01461e-07
6.23688e-07
6.95491e-07
7.76203e-07
7.08659e-07
6.92737e-07
7.06574e-07
8.11593e-07
9.74745e-07
1.08157e-06
1.31096e-06
1.1603e-06
1.40004e-06
1.60706e-06
1.84656e-06
2.11143e-06
1.73856e-06
1.61033e-06
4.5871e-07
4.96584e-07
5.53289e-07
5.61027e-07
5.57935e-07
6.59842e-07
7.86951e-07
8.56961e-07
9.40045e-07
8.83308e-07
8.82876e-07
9.00209e-07
9.85127e-07
1.10102e-06
1.21235e-06
1.31394e-06
1.05077e-06
1.40004e-06
1.60706e-06
1.73441e-06
1.95906e-06
1.97514e-06
1.95054e-06
6.0056e-07
6.21178e-07
6.86492e-07
7.19045e-07
7.31303e-07
8.68792e-07
9.94355e-07
1.07411e-06
1.16546e-06
1.10857e-06
1.09899e-06
1.11325e-06
1.19362e-06
1.22891e-06
1.24209e-06
1.31394e-06
1.05077e-06
1.73131e-06
1.76273e-06
1.73441e-06
1.95906e-06
2.14644e-06
2.32755e-06
0.000108731
0.000148892
0.000207264
0.000137274
5.84901e-05
1.88247e-05
9.06135e-06
2.7654e-06
3.32523e-06
5.1736e-06
7.38701e-06
1.81884e-05
1.55024e-05
1.99213e-05
2.91168e-05
3.57428e-05
3.3934e-05
1.12918e-05
3.73217e-06
0.000108731
0.000148892
0.000207264
0.000137274
5.17051e-05
1.62638e-05
9.06135e-06
2.7654e-06
3.29337e-06
4.04539e-06
4.01167e-06
1.17155e-05
1.32302e-05
1.99213e-05
2.91168e-05
3.57428e-05
3.3934e-05
1.12918e-05
3.73217e-06
0.000135033
0.000218675
0.000276719
0.000134172
4.49716e-05
1.62638e-05
9.45624e-06
4.74253e-06
3.29337e-06
4.04539e-06
4.01167e-06
8.17461e-06
1.19034e-05
2.92748e-05
4.40232e-05
5.75858e-05
8.55569e-05
2.40937e-05
4.32377e-06
0.000172651
0.000222547
0.000276719
0.000134172
4.49716e-05
2.13276e-05
1.06364e-05
6.50444e-06
4.00066e-06
4.31214e-06
5.19128e-06
8.17461e-06
1.19034e-05
1.19148e-05
1.17325e-05
3.32589e-05
5.27539e-05
1.76212e-05
3.71341e-06
0.000321189
0.000337556
0.000249067
0.000141094
0.000146835
5.95306e-05
1.19937e-05
1.00513e-05
1.28981e-05
1.71661e-05
3.26892e-05
1.16452e-05
1.23629e-05
1.19148e-05
1.06716e-05
3.3147e-05
3.15292e-05
6.97512e-06
2.62178e-06
0.000167214
0.000119585
0.000175648
0.000189482
0.000138731
0.000145809
1.9352e-05
3.86135e-05
9.9076e-05
9.05839e-05
0.000101347
8.18276e-05
2.33556e-05
1.4459e-05
1.06716e-05
2.69461e-05
1.04414e-05
4.06526e-06
1.56941e-06
8.82411e-05
8.6067e-05
0.000175648
0.00029559
0.000138731
0.000155284
6.9371e-05
0.000102142
0.000212347
9.81854e-05
9.01195e-05
0.000126546
0.000124017
5.79499e-05
1.65669e-05
1.53524e-05
5.2437e-06
2.75097e-06
1.00069e-06
8.82411e-05
8.6067e-05
0.00020548
0.000331339
0.000144927
0.000155284
9.86792e-05
0.000117843
0.000227262
9.81854e-05
9.01195e-05
0.000126546
0.000124017
0.000126743
5.49982e-05
1.35203e-05
5.2437e-06
2.75097e-06
1.00069e-06
1.19267e-06
1.24164e-06
1.37235e-06
1.4287e-06
1.47709e-06
1.74392e-06
1.99064e-06
2.10675e-06
2.21676e-06
2.09955e-06
2.11669e-06
2.17449e-06
2.25303e-06
2.07666e-06
2.46898e-06
2.78585e-06
9.02872e-06
2.55728e-05
1.07181e-05
1.78825e-05
4.86611e-06
4.11543e-06
4.13828e-06
2.80016e-06
2.94814e-06
3.32848e-06
3.39489e-06
3.50155e-06
4.08109e-06
4.31146e-06
4.47232e-06
4.70334e-06
5.51089e-06
6.49815e-06
7.64637e-06
1.01297e-05
1.04095e-05
4.02525e-05
0.000263831
0.000336933
0.000245206
7.61655e-05
3.50688e-05
0.000115026
3.17132e-05
2.53372e-06
4.46407e-06
4.73803e-06
4.8883e-06
5.01599e-06
5.42678e-06
7.68306e-06
9.21173e-06
8.00151e-06
9.88202e-06
2.1996e-05
5.33767e-05
9.22457e-05
0.000104822
0.000101688
0.000626922
0.000809571
0.00032106
7.40644e-05
3.26105e-05
2.1631e-05
2.1631e-05
7.98625e-05
1.67773e-05
6.72128e-06
6.81131e-06
5.6064e-06
8.68418e-06
1.54546e-05
3.51964e-05
6.04507e-05
3.55121e-05
4.37726e-05
0.000133921
0.000287917
0.00034301
0.000273947
0.000725414
0.00109301
0.000340218
8.43889e-05
5.16159e-05
3.97539e-05
2.53777e-05
2.50011e-05
5.55957e-05
5.12321e-05
9.03127e-06
1.0904e-05
1.68116e-05
3.01387e-05
8.44764e-05
0.00020789
0.00027693
0.000235436
0.000249942
0.000394105
0.000481884
0.00047855
0.000433169
0.0012624
0.000641136
0.000187632
7.41806e-05
6.00003e-05
5.56186e-05
4.03218e-05
5.81069e-05
0.000145676
4.83036e-05
9.82463e-06
2.68225e-05
0.000163654
0.000217238
0.000258223
0.00042532
0.000699165
0.000742296
0.000676694
0.000567873
0.000544498
0.000560301
0.000561083
0.00138872
0.000649792
0.000375926
9.96612e-05
6.90696e-05
6.47145e-05
5.72374e-05
7.35266e-05
7.20196e-05
4.69394e-05
1.22713e-05
3.88368e-05
0.00029922
0.000477282
0.00038659
0.000599502
0.00103911
0.00100712
0.000788147
0.000674476
0.000654348
0.000551213
0.00077338
0.00124494
0.00044885
0.000734253
0.000419706
0.000113641
6.58563e-05
6.1476e-05
6.14864e-05
6.24147e-05
7.20284e-05
2.0059e-05
6.9682e-05
0.000332444
0.00055788
0.000627612
0.00104019
0.00103011
0.000819579
0.00059692
0.000570339
0.000699688
0.000551213
0.000777815
0.000803042
0.00028414
0.000492886
0.000673386
0.000494515
0.000104045
5.87576e-05
5.87576e-05
7.48781e-05
0.000197291
3.46479e-05
9.77636e-05
0.000525104
0.000798423
0.000944971
0.00117553
0.000947176
0.000673667
0.000570057
0.000570057
0.00064766
0.000629901
0.000754945
0.000610629
0.000280088
0.000493659
0.000679762
0.000601885
0.000394077
8.4395e-05
6.11053e-05
0.000120914
0.000351094
4.54269e-05
0.00010554
0.000650872
0.000946375
0.000865662
0.000991379
0.000798953
0.000703932
0.00049355
0.000523439
0.000590441
0.000542889
0.000534161
0.000455753
0.00018027
0.000345191
0.000523246
0.000511477
0.000480241
0.000314625
0.000118311
0.000173324
0.00018609
5.53973e-05
0.000106646
0.000751457
0.000931288
0.000783246
0.000748587
0.000456041
0.000387238
0.000255486
0.000284225
0.000408359
0.000382887
0.000391895
0.000256661
0.000114789
0.000218206
0.00039649
0.000441486
0.000425066
0.000410964
0.000254047
0.000147497
6.63503e-05
6.63568e-05
0.000108333
0.000794473
0.000934335
0.000709571
0.000497343
0.000282309
0.000193479
0.000125841
0.000115891
0.000263079
0.000258299
0.000288407
0.000186779
0.000114789
0.00019866
0.000328378
0.000413274
0.000427333
0.000409217
0.000427852
0.000254892
8.56726e-05
0.000103892
0.000267619
0.00082114
0.000982871
0.000666126
0.000403663
0.000219546
0.000143849
7.11176e-05
4.83957e-05
0.000135735
0.000187608
0.000230171
0.000204801
0.000163029
0.000232131
0.000307551
0.000372098
0.000411536
0.000390817
0.000383034
0.000357452
0.000245359
0.000351263
0.000397875
0.000920449
0.00100273
0.000627595
0.000384438
0.000209076
0.000155934
8.3217e-05
4.83957e-05
0.000125049
0.000167857
0.000211072
0.000220902
0.00022254
0.00026641
0.000322781
0.000384667
0.000430382
0.000429228
0.000409506
0.000396794
0.000286192
0.000317619
0.0004536
0.00107328
0.000932222
0.000545825
0.000338276
0.000187679
0.000154751
0.000103698
6.2455e-05
0.00013172
0.000167857
0.000202013
0.000229211
0.000256512
0.000294365
0.000342995
0.000404338
0.000463822
0.000498067
0.000510384
0.000515821
0.000451985
0.000317619
0.00057683
0.00130889
0.000879884
0.000490897
0.000312351
0.000185949
0.00016581
0.000147671
9.87993e-05
0.000168407
0.000171641
0.000220685
0.000240899
0.000276079
0.000310658
0.000349027
0.000398491
0.000455535
0.000524598
0.000601674
0.0007019
0.000579599
0.00039347
0.00082532
0.00135018
0.000804126
0.000408186
0.000280878
0.000185982
0.00016581
0.000181955
0.000136575
0.00019627
0.00019244
0.000240119
0.000257963
0.000295895
0.000328265
0.000365576
0.000408881
0.000456878
0.000518509
0.00059656
0.00068732
0.000643964
0.000697929
0.00091543
0.001271
0.000794619
0.000370718
0.000283233
0.00021032
0.000172822
0.000219815
0.000171122
0.000233915
0.00021979
0.000272566
0.000280286
0.00032125
0.000346114
0.000378656
0.000412859
0.000446903
0.000487256
0.000533811
0.000596337
0.0005721
0.000767034
0.000944318
0.00130102
0.000786551
0.000356809
0.000295514
0.000249821
0.000196013
0.000255204
0.000208294
0.000269097
0.00025403
0.000304404
0.000309618
0.0003518
0.000369672
0.000407845
0.000437835
0.000473766
0.000512509
0.00055038
0.000593736
0.00052178
0.000772763
0.000981548
0.00124738
0.000771449
0.000376173
0.00030986
0.000293962
0.000228956
0.000293955
0.0002454
0.000303524
0.000285075
0.000329189
0.000333405
0.000364628
0.000387002
0.000411056
0.000443151
0.000478225
0.000521774
0.00056665
0.000616639
0.000546062
0.000786144
0.00106213
0.00118579
0.000767581
0.000433667
0.000338469
0.000354303
0.000272214
0.00034202
0.000286044
0.000343689
0.000318583
0.000364339
0.000358774
0.000396682
0.000405573
0.000442565
0.000472412
0.000515234
0.000562577
0.000615272
0.000676686
0.000590812
0.000808853
0.00118681
0.00114509
0.000762619
0.000503611
0.000384927
0.00041096
0.000322626
0.000388501
0.000329129
0.000380703
0.000354415
0.000394316
0.000389806
0.000424165
0.000437905
0.000478543
0.000515349
0.00056637
0.000617115
0.000678916
0.000742658
0.000616236
0.000858275
0.00117898
0.00112637
0.000767335
0.000581231
0.000443336
0.000468433
0.000375961
0.000431853
0.000372283
0.000419066
0.000389157
0.000426452
0.000420626
0.000457858
0.00047788
0.000529326
0.000572539
0.000631946
0.000683369
0.000741664
0.000786556
0.000604678
0.000860666
0.00120003
0.00111279
0.000782453
0.000637901
0.00050874
0.00051657
0.00042945
0.000468954
0.000414438
0.000453574
0.00042354
0.000457275
0.000454789
0.000494764
0.00052683
0.0005779
0.000625837
0.000670941
0.000716924
0.00075464
0.000775701
0.000571782
0.00104095
0.00134698
0.00110727
0.00081622
0.000682768
0.000570743
0.000554398
0.000477669
0.000500836
0.000452995
0.000485067
0.000456808
0.000489775
0.000493812
0.000540463
0.000578772
0.000625494
0.000663249
0.000695677
0.000724567
0.00073647
0.000723543
0.000519938
0.00130905
0.00149606
0.00113262
0.000868266
0.000726578
0.000625773
0.00058301
0.000518916
0.000524515
0.000485918
0.000509543
0.000488296
0.000519486
0.000537873
0.000583084
0.000620939
0.000649484
0.000672909
0.000690535
0.000691162
0.000685719
0.000647872
0.000448633
0.00160395
0.00158855
0.00119796
0.000925514
0.000760498
0.00066027
0.000597607
0.000550854
0.000540786
0.000512346
0.000530665
0.000518747
0.000552955
0.000581688
0.000619757
0.000646062
0.000660869
0.000663115
0.000666728
0.000647094
0.000621578
0.000558285
0.000367655
0.00189566
0.00173042
0.00129636
0.000985109
0.000782323
0.000665662
0.000596384
0.000561446
0.000545653
0.00052979
0.000540998
0.000547488
0.000579804
0.000613855
0.000639041
0.000653079
0.000653666
0.000641877
0.000632148
0.000595701
0.000544974
0.000468835
0.000293535
0.00218644
0.00190534
0.00139087
0.00101122
0.000771048
0.000642028
0.000568701
0.000534924
0.000534806
0.000532978
0.000545799
0.00056929
0.000601726
0.000631708
0.000649119
0.000648298
0.000636478
0.000617072
0.000589066
0.00053873
0.000467691
0.000388678
0.000238863
0.00248239
0.00206727
0.00146218
0.00100139
0.000719865
0.000576078
0.000490444
0.000488672
0.000500906
0.000521994
0.000542703
0.000576289
0.000612639
0.000639506
0.000646819
0.00063037
0.000610813
0.000583366
0.000537768
0.000474747
0.000401085
0.000331895
0.000205471
0.00273637
0.00218972
0.00148891
0.000934027
0.000603217
0.000432934
0.0003829
0.000426007
0.000462663
0.000496429
0.000536651
0.000581205
0.000621693
0.000646624
0.000636474
0.00061219
0.000585225
0.000544847
0.000486363
0.000418338
0.000349092
0.000289257
0.000181908
0.0028415
0.00231676
0.00151889
0.000822218
0.000441128
0.000283722
0.000276746
0.000355373
0.000415499
0.00047167
0.000530494
0.000585141
0.000627544
0.000642326
0.00061502
0.000583901
0.000547267
0.00049427
0.000431806
0.00036874
0.000310355
0.000263328
0.000173225
0.00280029
0.00234454
0.00159597
0.000854373
0.000373037
0.000220513
0.000220513
0.000284322
0.000383321
0.000464036
0.000535928
0.000597297
0.000639105
0.00063396
0.000596793
0.000559605
0.000510499
0.000449372
0.000386393
0.000325863
0.00027325
0.00023617
0.000163436
0.00266527
0.00227735
0.00165524
0.00100819
0.000522359
0.000272564
0.000253002
0.00031691
0.000403254
0.000484475
0.000556558
0.000616404
0.000651231
0.00061383
0.000568464
0.000521672
0.000462129
0.000400378
0.000342145
0.000290603
0.000251164
0.000225875
0.000168929
0.00246464
0.00216866
0.00167811
0.00114744
0.000679076
0.000409136
0.000336754
0.000399138
0.000470257
0.000536404
0.000600227
0.000652543
0.000656612
0.000603631
0.000550853
0.000492622
0.000425889
0.000361809
0.000302354
0.000253529
0.00022326
0.000216396
0.000168937
0.00227639
0.00205538
0.00168613
0.0012553
0.000815518
0.00056889
0.000475642
0.000497569
0.000548916
0.000603598
0.000657182
0.000692226
0.000648545
0.000581649
0.000518554
0.000448651
0.0003791
0.000317894
0.00026807
0.000231927
0.000213101
0.000215942
0.000182793
0.00213943
0.00198683
0.00169876
0.0012698
0.000895766
0.000707793
0.000614799
0.000611236
0.000635198
0.000673759
0.000713019
0.00072391
0.000653069
0.000575247
0.000500823
0.000422536
0.000349484
0.000285095
0.000234804
0.000207681
0.000206326
0.000206326
0.000187512
0.00195411
0.00187026
0.0016272
0.00126752
0.000995241
0.000835466
0.000748311
0.000729062
0.000730943
0.00075391
0.000773675
0.000732054
0.000640126
0.000551867
0.00046455
0.000379317
0.000306147
0.000250467
0.000216632
0.00019788
0.000205926
0.00021927
0.00020472
0.0017877
0.0017042
0.001496
0.00124402
0.00104971
0.000947249
0.00086597
0.000838463
0.000823829
0.000834099
0.000835794
0.000752212
0.000645661
0.000546597
0.00044944
0.000360246
0.000284413
0.00022612
0.000193892
0.000191727
0.000192942
0.000213973
0.000210114
0.00166344
0.00161179
0.00145817
0.00128641
0.00115443
0.0010515
0.000973654
0.000942533
0.000916244
0.00091346
0.000862026
0.000747832
0.000629073
0.00051861
0.000412994
0.000321003
0.000249309
0.000207873
0.000187143
0.000191491
0.000206995
0.000234953
0.000228683
0.00157813
0.00153829
0.00141632
0.00129099
0.00119421
0.00112515
0.00106298
0.00103072
0.000998112
0.000986593
0.000892041
0.00075905
0.000632555
0.000512749
0.000401842
0.00030829
0.000235718
0.000191225
0.000181189
0.000181189
0.000200444
0.000234049
0.000232547
0.00154635
0.00150678
0.00143415
0.00136135
0.00127495
0.0012173
0.00115182
0.00112177
0.00108395
0.00102965
0.000890182
0.000743112
0.000606651
0.000479954
0.000369706
0.000281269
0.000219454
0.000189945
0.000181533
0.000192833
0.000220464
0.000258904
0.000252935
1.67596e-06
1.67596e-06
2.86857e-06
1.00791e-05
2.53372e-06
2.85245e-06
1.19099e-05
2.55645e-05
8.94067e-06
2.65049e-05
2.65049e-05
3.0426e-05
2.51901e-05
2.51901e-05
2.67866e-05
4.38271e-05
2.86731e-05
2.86731e-05
3.53116e-05
9.38576e-05
3.73347e-05
3.73347e-05
0.000121438
0.000235317
0.000116877
0.000239535
0.000258954
0.000258954
0.00025558
0.000237811
0.000200961
0.000200961
0.000191463
0.000152637
0.000116199
0.000116199
0.00013607
0.000123674
0.000123674
0.000132671
5.56047e-05
5.56047e-05
4.93128e-05
4.93128e-05
3.8281e-05
3.8281e-05
6.72716e-05
9.50013e-05
0.000133167
0.000105558
0.000105558
0.000112861
0.000168602
0.000140199
0.000111766
0.000111766
0.000286923
0.000286156
0.000282635
0.000282635
0.000379946
0.000379946
0.000389827
0.000401431
0.000430509
0.000430509
0.00044668
0.000457111
0.00038556
0.00038556
0.000400689
0.000409061
0.000347755
0.000347755
0.000359965
0.000370707
0.000365578
0.000365578
0.000380096
0.000392629
0.000390372
0.000390372
0.000399351
0.000406235
0.000399546
0.000399546
0.000401839
0.000403078
0.000386401
0.000384638
0.000381596
0.000381596
0.000361935
0.000356671
0.000350419
0.000350419
0.000324406
0.000315465
0.000306664
0.000306664
0.000276248
0.000265963
0.0002571
0.0002571
0.000223154
0.00021312
0.000205592
0.000205592
0.00017684
0.000168282
0.00016259
0.00016259
0.000143069
0.000136019
0.000132125
0.000132125
0.000123969
0.000119442
0.000117975
0.000117975
0.00011156
0.000109911
0.000109911
0.000111046
0.000109129
0.000109129
0.000110278
0.000113764
0.000105927
0.000105927
0.000109722
0.000115389
0.000111896
0.000111896
0.000117335
0.000124162
0.000114164
0.000114164
0.000121186
0.000129114
0.000124091
0.000124091
0.000131657
0.000139802
0.000128348
0.000128348
0.000136735
0.000145433
0.000139607
0.000139607
0.000148048
0.000156658
0.000143698
0.000143698
0.000152611
0.000161553
0.00015563
0.00015563
0.000164464
0.000173289
0.00015842
0.00015842
0.000167491
0.000176505
0.000171627
0.000171627
0.00018076
0.000189784
4.23029e-05
0.00012423
0.000130804
0.000177929
0.000328338
0.000183707
9.61325e-05
0.000119686
0.000225083
0.000129198
0.000131212
0.000157053
0.000139724
0.00012572
3.32715e-05
8.6558e-06
6.05252e-06
7.35175e-06
3.53382e-06
7.15407e-05
0.000143595
7.63719e-05
6.58504e-05
0.000139403
7.1812e-05
7.78375e-05
0.000119332
0.000287966
0.000165053
0.000166024
0.000188175
0.000249178
0.000176742
7.36503e-05
2.51384e-05
4.12618e-05
7.46097e-05
3.3855e-05
0.000103817
0.000109857
7.63719e-05
6.58504e-05
5.46336e-05
4.44535e-05
5.48197e-05
0.000176032
0.000380131
0.000188043
0.000209366
0.000318238
0.000300223
0.000341503
0.000419549
0.000409239
0.000354072
0.000280923
0.000139117
0.000155266
0.0001022
8.14069e-05
8.93767e-05
7.17916e-05
4.44535e-05
8.37464e-05
0.000100426
0.000181573
0.000261413
0.000372327
0.000462474
0.00051546
0.000682301
0.000668862
0.000676428
0.000640114
0.000457375
0.000355898
0.000250265
0.000167035
0.000156433
0.000177077
9.85901e-05
0.000107871
0.000119373
8.40886e-05
8.40886e-05
0.00011078
0.000214951
0.000418612
0.000455385
0.000533002
0.000530631
0.000454079
0.000619673
0.000546877
0.000554718
0.000407765
0.000384693
0.000495686
0.000355804
0.000269718
0.000382744
0.000301778
0.00016102
9.38693e-05
0.000205463
0.000282993
0.000320616
0.000364505
0.000501068
0.000484027
0.000353425
0.000493212
0.000727871
0.000642127
0.000407726
0.000289141
0.000370739
0.000422441
0.000482858
0.000513919
0.000278698
0.00016604
0.000248918
0.000123799
0.000123799
0.000196406
0.000347083
0.000462081
0.000463923
0.000270369
0.000413984
0.000717991
0.000657024
0.000230326
0.000289141
0.000380003
0.000504181
0.000576664
0.000310129
0.000176671
0.00016604
0.000223097
0.000245294
0.000227635
0.000335438
0.000429202
0.000510596
0.000412787
0.000270369
0.0005344
0.000871853
0.00054221
0.00013898
0.000267116
0.00041506
0.00052626
0.000518276
0.000408839
0.000296719
0.000283817
0.000278212
0.000332726
0.0003964
0.000450984
0.00054719
0.00062771
0.000518293
0.00039274
0.00081378
0.000687384
0.000366631
0.000247681
0.000403995
0.000472274
0.000588246
0.000588533
0.000435567
0.00056597
0.000438428
0.000388903
0.000363693
0.000374796
0.000415519
0.00044984
0.000538869
0.000612292
0.000552825
0.000611681
0.000442044
0.000222284
0.000167101
0.000445788
0.000461991
0.000607883
0.000699089
0.000792855
0.00072723
0.000489815
0.000396796
0.000388709
0.000353422
0.000352779
0.000319736
0.000326618
0.00037085
0.000360439
0.000366364
0.000252977
0.000145357
0.000189039
0.000353299
0.000366139
0.000586972
0.000920077
0.000835312
0.000560452
0.00050656
0.000396796
0.000401064
0.000353422
0.000347213
0.00026596
0.000211799
0.000182357
0.000171663
0.000185717
0.000162402
0.000109633
0.000256556
0.000353299
0.000366139
0.000456704
0.000735442
0.000699749
0.000540482
0.000517235
0.000453593
0.000458085
0.000384056
0.000326843
0.000235751
0.000157027
8.20572e-05
6.01306e-05
0.000103664
0.000130922
0.000100601
0.00018725
0.000368964
0.00037381
0.000650226
0.000774471
0.000570339
0.000540482
0.000572337
0.000534002
0.000523542
0.000429871
0.000366804
0.000245809
0.000128172
4.78896e-05
4.78896e-05
5.75789e-05
0.000110514
0.000100601
0.000414945
0.000490251
0.000678614
0.000925002
0.000630337
0.000519359
0.000605542
0.000643881
0.00061489
0.000598418
0.00049758
0.000393887
0.00025972
0.000157761
7.98088e-05
5.70309e-05
9.5729e-05
0.000134579
0.000112579
0.00069794
0.000849327
0.00101085
0.00086266
0.000528861
0.000519359
0.000651176
0.0007001
0.000696204
0.000682747
0.000590309
0.000464222
0.000291775
0.000169574
0.000103418
0.000101237
0.000122221
0.000157832
0.00013633
0.000779695
0.000975371
0.000929602
0.000708979
0.000528861
0.000571231
0.000691975
0.000755985
0.000776478
0.000780493
0.000708619
0.000558979
0.000335914
0.000181444
0.000101535
0.00011912
0.000148621
0.000183919
0.00016063
0.00070142
0.000891962
0.000850473
0.000719227
0.000574367
0.000669486
0.000754681
0.000826991
0.000860704
0.000877205
0.0008243
0.000682601
0.000415637
0.000195377
9.86553e-05
0.000106835
0.000159102
0.000210243
0.000185371
0.000637064
0.000879029
0.000850473
0.000719227
0.000697182
0.000767008
0.000833623
0.000905368
0.000944981
0.000969879
0.000934001
0.000811219
0.000507709
0.000234553
9.86553e-05
9.36963e-05
0.000161014
0.000229363
0.000205443
0.000674909
0.000879029
0.000857319
0.000791142
0.000779269
0.000833328
0.000893562
0.000969662
0.00101949
0.0010525
0.00103444
0.000938128
0.000644197
0.000306569
0.000122612
7.28284e-05
0.000156564
0.000243739
0.000221384
0.000688928
0.000860957
0.000832358
0.000817889
0.000814408
0.000869802
0.000936175
0.00101914
0.00108059
0.00112173
0.00112069
0.00104878
0.000794113
0.000396712
0.000135764
4.15683e-05
0.000146358
0.000255119
0.000234341
0.000675309
0.000805449
0.00078147
0.000770384
0.000787654
0.000859874
0.000952075
0.00105062
0.00112477
0.00117604
0.00119009
0.00114248
0.00094898
0.000517511
0.000157063
1.86743e-05
0.00012227
0.000257417
0.000247797
0.000633546
0.000728174
0.000701777
0.000701016
0.000734466
0.000811718
0.000913768
0.00103989
0.00115174
0.0012161
0.0012432
0.00121792
0.0010881
0.00066032
0.000209558
1.86743e-05
0.000111047
0.000254302
0.000258847
0.000576991
0.000639501
0.000622429
0.000642195
0.000687158
0.000768197
0.000868011
0.000997183
0.00112752
0.0012388
0.00127916
0.00127334
0.00117422
0.000813357
0.000303384
3.29599e-05
0.000125315
0.00024868
0.000266989
0.000500541
0.000552894
0.000555375
0.000595176
0.000651785
0.000738223
0.000835368
0.000957449
0.00108892
0.00121796
0.00129836
0.0013112
0.00124018
0.000951664
0.000416779
8.32855e-05
0.00015487
0.000244692
0.000271988
0.000419176
0.000472904
0.000494061
0.000551556
0.000621388
0.000713536
0.000810734
0.000926643
0.00105258
0.00118747
0.00129207
0.00133205
0.00128836
0.00107719
0.000550966
0.000160883
0.000160079
0.000245001
0.000278963
0.000336612
0.000400692
0.000439796
0.000510084
0.000592616
0.000691854
0.000790266
0.000901748
0.00102061
0.0011534
0.00127412
0.00134018
0.0013212
0.00118331
0.000686099
0.000262001
0.000145599
0.000244726
0.000290632
0.000268252
0.000344958
0.000398377
0.000474735
0.00056524
0.000671862
0.000772653
0.000881633
0.000994552
0.00112014
0.00124864
0.00133546
0.00134179
0.00123211
0.000819081
0.000318308
0.000112924
0.000235403
0.000306378
0.000220671
0.000313971
0.0003743
0.000450053
0.000541493
0.000653754
0.000757347
0.000865162
0.000974108
0.00109195
0.00121973
0.00132339
0.00135139
0.00126369
0.000931427
0.000368193
7.93201e-05
0.000218116
0.000324558
0.000200889
0.000304691
0.000365767
0.000436938
0.000523711
0.000637989
0.000744416
0.000851717
0.000957803
0.00106934
0.00119163
0.00130776
0.00134978
0.00128124
0.00101408
0.000421996
7.93201e-05
0.000214007
0.000346636
0.000192957
0.000304691
0.000365767
0.000434221
0.000513453
0.000626034
0.000734038
0.000841849
0.000945591
0.00105249
0.00116689
0.00129009
0.00134458
0.00129035
0.00107995
0.000493571
8.26967e-05
0.000241901
0.000374126
0.000200277
0.000310459
0.000368912
0.000434221
0.000509926
0.000617989
0.000726231
0.000834737
0.000936577
0.00104017
0.00114678
0.00127266
0.00133817
0.00129566
0.00113255
0.000572661
0.000130999
0.000288757
0.000407237
0.00020548
0.000323425
0.000378701
0.000438829
0.000509926
0.000614905
0.000721815
0.00083101
0.000931243
0.00103218
0.00113232
0.00125696
0.0013323
0.00129618
0.00116726
0.000650504
0.000206044
0.000338876
0.000446903
0.000221207
0.000339511
0.000391658
0.000448175
0.00051247
0.000614905
0.000720401
0.000829544
0.000928677
0.00102738
0.0011227
0.00124394
0.0013271
0.00129386
0.00118081
0.000711095
0.000288568
0.000372307
0.00049457
0.000230667
0.000356946
0.000406479
0.000460376
0.000519409
0.000615746
0.000720401
0.000829544
0.000928677
0.00102595
0.00111805
0.00123468
0.00132345
0.00129143
0.00118499
0.000760719
0.000362904
0.00037554
0.000523894
0.000248558
0.000374368
0.000422126
0.000474278
0.000529428
0.000620643
0.000722761
0.000831103
0.00092941
0.00102595
0.00111661
0.00122881
0.00132144
0.00128994
0.00118754
0.000794596
0.000425788
0.00037517
0.000565605
0.000258546
0.00039142
0.000437785
0.000489007
0.000541734
0.000628393
0.000727784
0.000834553
0.000932374
0.00102673
0.00111661
0.0012268
0.00132144
0.00128994
0.00119076
0.000823807
0.000476093
0.00037517
0.000596353
0.000277116
0.000408701
0.000454099
0.000504477
0.000555187
0.00063838
0.000735641
0.000840482
0.000937947
0.00103004
0.00111845
0.0012268
0.00132173
0.00129
0.00119465
0.000838795
0.000504194
0.000381329
0.000653098
0.00028573
0.000425167
0.000469914
0.000519853
0.000569012
0.000649569
0.00074521
0.000847694
0.000944874
0.00103473
0.001122
0.00122723
0.00132368
0.00129196
0.00119951
0.000859557
0.000516815
0.000393622
0.00069694
0.000305131
0.000442519
0.000486629
0.000536083
0.000584003
0.000661979
0.000756241
0.000856425
0.000953336
0.00104105
0.00112755
0.0012304
0.00132754
0.00129573
0.00120563
0.0008689
0.000544441
0.000416589
0.000778904
0.000310781
0.000458027
0.000501607
0.000550625
0.0005979
0.000673938
0.000767183
0.000865258
0.000961848
0.00104762
0.00113348
0.00123443
0.00133188
0.00130016
0.00121145
0.000886736
0.000559095
0.000443213
0.000824199
0.000332988
0.000475625
0.000518989
0.000567252
0.000614081
0.000687768
0.000779727
0.000875631
0.000971698
0.00105537
0.00114069
0.00123985
0.00133735
0.00130545
0.00121858
0.000897897
0.000574048
0.000467084
0.000929481
)
;

boundaryField
{
    leftWall
    {
        type            calculated;
        value           uniform 0;
    }
    rightWall
    {
        type            calculated;
        value           uniform 0;
    }
    lowerWall
    {
        type            calculated;
        value           uniform 0;
    }
    atmosphere
    {
        type            calculated;
        value           uniform 0;
    }
    defaultFaces
    {
        type            empty;
    }
}


// ************************************************************************* //
