/*--------------------------------*- C++ -*----------------------------------*\
| =========                 |                                                 |
| \\      /  F ield         | OpenFOAM: The Open Source CFD Toolbox           |
|  \\    /   O peration     | Version:  2012                                  |
|   \\  /    A nd           | Website:  www.openfoam.com                      |
|    \\/     M anipulation  |                                                 |
\*---------------------------------------------------------------------------*/
FoamFile
{
    version     2.0;
    format      ascii;
    class       volScalarField;
    location    "0.99";
    object      p;
}
// * * * * * * * * * * * * * * * * * * * * * * * * * * * * * * * * * * * * * //

dimensions      [1 -1 -2 0 0 0 0];


internalField   nonuniform List<scalar> 
2268
(
102310
102309
102302
102300
102288
102284
102267
102260
102238
102226
102202
102186
102167
102155
102143
102143
102133
102146
102130
102144
102132
102145
102143
102252
102251
102244
102241
102230
102225
102209
102202
102180
102167
102143
102126
102108
102094
102084
102083
102075
102084
102072
102083
102073
102085
102084
102194
102193
102186
102183
102171
102167
102151
102144
102122
102108
102084
102066
102047
102033
102022
102023
102014
102031
102012
102027
102013
102028
102025
102137
102135
102128
102125
102114
102109
102094
102087
102065
102050
102026
102004
101988
101969
101964
101958
101958
101962
101956
101960
101953
101966
101966
102080
102078
102071
102067
102056
102052
102037
102029
102008
101990
101966
101942
101926
101904
101899
101897
101895
101919
101892
101908
101890
101909
101908
102023
102022
102014
102010
101999
101995
101981
101974
101953
101933
101910
101878
101867
101835
101842
101829
101841
101839
101841
101834
101830
101847
101849
101968
101965
101957
101952
101942
101938
101925
101917
101898
101873
101849
101813
101803
101768
101771
101763
101777
101815
101770
101787
101760
101788
101788
101913
101910
101900
101894
101884
101880
101870
101864
101845
101817
101793
101747
101741
101690
101715
101695
101726
101719
101741
101705
101702
101726
101735
102143
101644
101661
101666
101814
101905
102033
101970
101900
101867
101835
101870
101859
101705
101667
101667
101704
101818
101889
101957
101560
101633
101620
101741
101819
101947
101895
101829
101801
101768
101795
101801
101634
101610
101618
101648
101754
101816
101667
101551
101610
101588
101683
101733
101864
101810
101759
101731
101715
101736
101687
101578
101579
101592
101624
101695
101753
101635
101548
101601
101564
101616
101668
101778
101734
101679
101668
101618
101626
101619
101522
101543
101568
101606
101661
101696
101649
101556
101595
101556
101591
101599
101702
101639
101626
101616
101617
101563
101546
101521
101541
101561
101598
101612
101638
101659
101552
101596
101559
101584
101571
101645
101603
101610
101621
101566
101515
101489
101477
101511
101529
101559
101563
101578
101634
101564
101605
101562
101580
101562
101606
101575
101607
101593
101569
101521
101450
101481
101496
101513
101526
101515
101516
101646
101602
101592
101564
101583
101559
101595
101562
101591
101555
101524
101450
101449
101443
101474
101477
101473
101460
101460
101828
101823
101812
101804
101795
101791
101783
101778
101762
101726
101697
101639
101640
101584
101602
101590
101661
101771
101658
101697
101611
101640
101635
101714
101706
101689
101677
101667
101665
101668
101671
101656
101610
101583
101498
101515
101407
101537
101556
101616
101602
101677
101589
101571
101554
101559
101606
101589
101562
101542
101532
101528
101547
101565
101567
101512
101487
101421
101484
101398
101491
101502
101563
101565
101492
101467
101444
101472
101456
101498
101465
101431
101396
101389
101398
101436
101475
101486
101449
101464
101411
101443
101355
101457
101440
101485
101427
101362
101229
101234
101375
101370
101418
101386
101344
101336
101340
101346
101377
101432
101476
101442
101435
101385
101385
101347
101396
101386
101418
101365
101248
101186
101156
101282
101284
101385
101349
101334
101331
101327
101329
101334
101366
101379
101371
101356
101335
101322
101336
101326
101344
101345
101316
101272
101246
101226
101292
101311
101358
101329
101328
101327
101325
101327
101328
101328
101329
101332
101325
101326
101323
101329
101319
101327
101334
101327
101274
101300
101279
101335
101318
101344
101330
101328
101328
101326
101327
101327
101326
101325
101326
101325
101326
101323
101327
101322
101324
101323
101323
101305
101324
101337
101366
101336
101338
101329
101327
101327
101326
101326
101327
101326
101325
101326
101324
101326
101324
101328
101322
101326
101323
101325
101323
101324
101353
101333
101325
101338
101328
101327
101327
101326
101325
101325
101325
101325
101325
101325
101325
101325
101326
101323
101325
101324
101325
101324
101326
101343
101332
101323
101329
101326
101326
101326
101325
101325
101324
101324
101324
101325
101324
101325
101324
101325
101324
101325
101324
101325
101324
101324
101325
101332
101322
101330
101325
101326
101325
101325
101324
101324
101324
101324
101324
101324
101325
101324
101325
101324
101324
101324
101324
101324
101324
101324
101326
101333
101336
101325
101325
101325
101325
101324
101324
101324
101324
101324
101324
101324
101324
101324
101324
101324
101324
101324
101324
101324
101323
101323
101323
101325
101323
101324
101324
101324
101324
101324
101324
101324
101324
101324
101324
101324
101324
101324
101324
101324
101324
101324
101323
101323
101323
101323
101325
101322
101324
101323
101324
101323
101324
101323
101324
101324
101324
101324
101324
101324
101324
101324
101324
101323
101323
101323
101323
101323
101323
101324
101323
101323
101323
101324
101323
101324
101323
101324
101323
101324
101323
101324
101323
101323
101323
101323
101323
101323
101323
101323
101323
101323
101324
101323
101324
101322
101323
101323
101323
101323
101323
101323
101323
101323
101323
101323
101323
101323
101323
101323
101323
101323
101323
101323
101323
101322
101322
101323
101322
101323
101323
101323
101323
101323
101323
101323
101323
101323
101323
101323
101323
101323
101323
101323
101323
101323
101323
101323
101324
101322
101323
101322
101323
101322
101323
101323
101323
101323
101323
101323
101323
101323
101323
101323
101323
101323
101323
101322
101323
101322
101322
101324
101322
101323
101322
101323
101322
101323
101322
101323
101322
101323
101322
101323
101322
101323
101322
101323
101322
101322
101322
101322
101322
101322
101324
101322
101323
101322
101323
101322
101323
101322
101323
101322
101323
101322
101322
101322
101322
101322
101322
101322
101322
101322
101322
101322
101322
101325
101322
101323
101322
101323
101322
101323
101322
101323
101322
101322
101322
101322
101322
101322
101322
101322
101322
101322
101322
101322
101322
101322
101322
101322
101323
101322
101323
101322
101323
101322
101322
101322
101322
101322
101322
101322
101322
101322
101322
101322
101322
101322
101322
101321
101321
101322
101322
101323
101322
101323
101322
101322
101322
101322
101322
101322
101321
101322
101321
101322
101321
101322
101321
101321
101321
101321
101321
101321
101322
101322
101322
101322
101322
101321
101322
101321
101322
101321
101321
101321
101321
101321
101321
101321
101321
101321
101321
101321
101321
101321
101321
101322
101322
101322
101321
101322
101321
101321
101321
101321
101321
101321
101321
101321
101321
101321
101321
101321
101321
101321
101321
101321
101321
101321
101322
101321
101321
101321
101321
101321
101321
101321
101321
101321
101321
101321
101321
101321
101321
101321
101321
101321
101321
101321
101321
101320
101320
101321
101321
101321
101320
101321
101320
101320
101320
101320
101320
101321
101320
101321
101320
101321
101320
101320
101320
101320
101320
101320
101320
101320
101320
101320
101320
101320
101320
101320
101320
101320
101320
101320
101320
101320
101320
101320
101320
101320
101320
101320
101320
101320
101320
101320
101320
101319
101319
101319
101319
101319
101319
101319
101320
101320
101320
101320
101320
101320
101320
101320
101320
101320
101320
101320
101320
101320
101320
101320
101318
101318
101317
101317
101318
101319
101319
101319
101319
101320
101320
101320
101320
101320
101320
101320
101320
101320
101320
101320
101320
101320
101320
101318
101317
101316
101316
101317
101318
101319
101319
101319
101319
101319
101319
101320
101320
101320
101320
101320
101320
101320
101319
101319
101319
101319
101317
101317
101316
101316
101317
101318
101318
101319
101319
101319
101319
101319
101319
101319
101319
101319
101319
101319
101319
101319
101319
101319
101319
101318
101317
101317
101317
101317
101318
101318
101319
101319
101319
101319
101319
101319
101319
101319
101319
101319
101319
101319
101319
101319
101319
101319
101318
101318
101317
101317
101318
101318
101318
101319
101319
101319
101319
101319
101319
101319
101319
101319
101319
101319
101319
101319
101319
101319
101319
101318
101318
101318
101318
101318
101318
101318
101319
101319
101319
101319
101319
101319
101319
101319
101319
101319
101319
101319
101319
101319
101319
101319
101318
101318
101318
101318
101318
101318
101318
101319
101319
101319
101319
101319
101319
101319
101319
101319
101319
101319
101319
101319
101319
101319
101319
101318
101318
101318
101318
101318
101318
101318
101319
101319
101319
101318
101318
101318
101318
101318
101318
101318
101318
101318
101318
101318
101318
101318
101318
101318
101318
101318
101318
101318
101318
101318
101318
101318
101318
101318
101318
101318
101318
101318
101318
101318
101318
101318
101318
101318
101318
101318
101318
101318
101318
101318
101318
101318
101318
101318
101318
101318
101318
101318
101318
101318
101318
101318
101318
101318
101318
101318
101318
101318
101318
101318
101318
101318
101318
101318
101318
101318
101318
101318
101318
101318
101318
101318
101318
101318
101318
101318
101318
101318
101318
101318
101318
101318
101318
101318
101318
101318
101318
101318
101318
101318
101318
101318
101318
101318
101318
101318
101318
101318
101318
101318
101318
101318
101318
101318
101636
101629
101624
101596
101565
101550
101562
101546
101492
101470
101483
101479
101406
101400
101420
101407
101339
101344
101347
101347
101330
101325
101334
101331
101335
101330
101329
101329
101328
101328
101327
101328
101327
101326
101327
101327
101327
101326
101326
101326
101320
101321
101321
101320
101331
101328
101326
101327
101324
101324
101323
101323
101323
101323
101323
101323
101323
101323
101323
101323
101323
101323
101323
101323
101323
101323
101323
101323
101323
101323
101323
101322
101322
101322
101322
101322
101322
101322
101322
101322
101322
101322
101322
101322
101322
101322
101322
101322
101321
101321
101321
101321
101321
101321
101321
101321
101321
101321
101321
101321
101321
101321
101321
101321
101320
101320
101320
101320
101320
101320
101320
101320
101320
101320
101320
101320
101320
101320
101320
101320
101320
101320
101320
101320
101319
101319
101319
101319
101319
101319
101319
101319
101319
101319
101319
101319
101319
101319
101319
101319
101319
101319
101319
101319
101319
101319
101319
101319
101318
101318
101318
101318
101318
101318
101318
101318
101318
101318
101318
101318
101318
101318
101318
101318
101318
101318
101318
101318
101630
101598
101612
101554
101576
101560
101577
101550
101518
101478
101463
101437
101415
101452
101428
101423
101408
101389
101389
101591
101570
101570
101542
101574
101546
101508
101468
101421
101383
101397
101388
101364
101363
101359
101350
101340
101336
101339
101549
101528
101527
101479
101534
101482
101390
101412
101381
101364
101342
101335
101334
101333
101332
101331
101331
101331
101331
101431
101410
101396
101386
101399
101388
101383
101405
101393
101368
101333
101337
101336
101333
101330
101329
101329
101329
101329
101353
101344
101338
101344
101348
101333
101338
101355
101356
101351
101345
101332
101335
101333
101330
101330
101329
101329
101329
101328
101330
101327
101330
101333
101330
101330
101329
101330
101327
101328
101327
101328
101329
101328
101326
101328
101327
101328
101330
101329
101330
101330
101331
101327
101327
101327
101327
101326
101327
101326
101327
101327
101327
101326
101326
101327
101327
101327
101330
101325
101327
101326
101328
101328
101328
101327
101327
101327
101326
101326
101325
101325
101324
101325
101326
101326
101326
101324
101326
101327
101327
101326
101326
101326
101327
101326
101326
101326
101326
101325
101325
101324
101325
101326
101326
101327
101325
101328
101324
101325
101326
101326
101326
101326
101326
101326
101326
101326
101326
101325
101325
101326
101326
101326
101324
101325
101325
101325
101324
101325
101325
101326
101326
101326
101326
101326
101326
101325
101326
101326
101326
101326
101326
101325
101325
101326
101324
101325
101325
101325
101325
101325
101326
101325
101325
101325
101325
101325
101326
101325
101326
101325
101323
101324
101325
101325
101324
101325
101325
101325
101325
101325
101325
101325
101325
101325
101325
101325
101325
101325
101325
101323
101322
101323
101324
101324
101324
101325
101325
101325
101325
101325
101325
101325
101325
101325
101325
101325
101325
101325
101323
101322
101323
101324
101324
101324
101324
101324
101324
101325
101325
101325
101325
101325
101325
101325
101325
101325
101325
101323
101322
101323
101323
101324
101324
101324
101324
101324
101324
101324
101324
101324
101324
101324
101324
101324
101324
101324
101323
101323
101323
101323
101323
101324
101324
101324
101324
101324
101324
101324
101324
101324
101324
101324
101324
101324
101324
101322
101323
101323
101323
101323
101323
101323
101324
101324
101324
101324
101324
101324
101324
101324
101324
101324
101324
101324
101322
101322
101323
101323
101323
101323
101323
101323
101323
101323
101323
101323
101323
101323
101323
101323
101323
101324
101324
101322
101322
101322
101322
101323
101323
101323
101323
101323
101323
101323
101323
101323
101323
101323
101323
101323
101323
101323
101322
101322
101322
101322
101322
101322
101322
101323
101323
101323
101323
101323
101323
101323
101323
101323
101323
101323
101323
101322
101322
101322
101322
101322
101322
101322
101322
101322
101322
101322
101323
101323
101323
101323
101323
101323
101323
101323
101321
101321
101321
101321
101321
101322
101322
101322
101322
101322
101322
101322
101322
101322
101322
101322
101322
101323
101323
101321
101321
101321
101321
101321
101321
101321
101321
101322
101322
101322
101322
101322
101322
101322
101322
101322
101322
101322
101321
101321
101321
101321
101321
101321
101321
101321
101321
101321
101322
101322
101322
101322
101322
101322
101322
101322
101322
101321
101321
101321
101321
101321
101321
101321
101321
101321
101321
101321
101321
101322
101322
101322
101322
101322
101322
101322
101320
101320
101320
101320
101320
101320
101321
101321
101321
101321
101321
101321
101321
101321
101322
101322
101322
101322
101322
101320
101320
101320
101320
101320
101320
101320
101320
101321
101321
101321
101321
101321
101321
101321
101321
101321
101321
101321
101320
101320
101320
101320
101320
101320
101320
101320
101320
101320
101321
101321
101321
101321
101321
101321
101321
101321
101321
101320
101320
101320
101320
101320
101320
101320
101320
101320
101320
101320
101320
101321
101321
101321
101321
101321
101321
101321
101320
101320
101320
101320
101320
101320
101320
101320
101320
101320
101320
101320
101320
101321
101321
101321
101321
101321
101321
101319
101319
101319
101319
101319
101319
101320
101320
101320
101320
101320
101320
101320
101320
101320
101321
101321
101321
101321
101319
101319
101319
101319
101319
101319
101319
101319
101319
101320
101320
101320
101320
101320
101320
101320
101320
101320
101320
101319
101319
101319
101319
101319
101319
101319
101319
101319
101319
101319
101320
101320
101320
101320
101320
101320
101320
101320
101319
101319
101319
101319
101319
101319
101319
101319
101319
101319
101319
101319
101319
101320
101320
101320
101320
101320
101320
101319
101319
101319
101319
101319
101319
101319
101319
101319
101319
101319
101319
101319
101319
101319
101320
101320
101320
101320
101319
101319
101319
101319
101319
101319
101319
101319
101319
101319
101319
101319
101319
101319
101319
101319
101319
101319
101319
101318
101318
101318
101318
101318
101318
101318
101318
101318
101319
101319
101319
101319
101319
101319
101319
101319
101319
101319
101318
101318
101318
101318
101318
101318
101318
101318
101318
101318
101318
101318
101319
101319
101319
101319
101319
101319
101319
101318
101318
101318
101318
101318
101318
101318
101318
101318
101318
101318
101318
101318
101318
101318
101318
101319
101319
101319
101318
101318
101318
101318
101318
101318
101318
101318
101318
101318
101318
101318
101318
101318
101318
101318
101318
101318
101318
101318
101318
101318
101318
101318
101318
101318
101318
101318
101318
101318
101318
101318
101318
101318
101318
101318
101318
101318
)
;

boundaryField
{
    leftWall
    {
        type            zeroGradient;
    }
    rightWall
    {
        type            zeroGradient;
    }
    lowerWall
    {
        type            zeroGradient;
    }
    atmosphere
    {
        type            fixedValue;
        value           uniform 101325;
    }
    defaultFaces
    {
        type            empty;
    }
}


// ************************************************************************* //
