/*--------------------------------*- C++ -*----------------------------------*\
| =========                 |                                                 |
| \\      /  F ield         | OpenFOAM: The Open Source CFD Toolbox           |
|  \\    /   O peration     | Version:  2012                                  |
|   \\  /    A nd           | Website:  www.openfoam.com                      |
|    \\/     M anipulation  |                                                 |
\*---------------------------------------------------------------------------*/
FoamFile
{
    version     2.0;
    format      ascii;
    class       volScalarField;
    location    "0.99";
    object      p_rgh;
}
// * * * * * * * * * * * * * * * * * * * * * * * * * * * * * * * * * * * * * //

dimensions      [1 -1 -2 0 0 0 0];


internalField   nonuniform List<scalar> 
2268
(
102340
102338
102332
102329
102317
102313
102297
102290
102267
102255
102231
102215
102196
102184
102172
102173
102163
102176
102160
102173
102162
102174
102172
102340
102339
102332
102329
102318
102314
102297
102290
102268
102255
102231
102215
102196
102182
102172
102171
102163
102173
102160
102171
102161
102173
102172
102341
102340
102333
102330
102319
102314
102298
102291
102269
102255
102231
102213
102195
102180
102169
102170
102161
102179
102159
102174
102160
102175
102172
102343
102341
102334
102331
102320
102315
102300
102293
102271
102256
102232
102210
102194
102175
102170
102164
102164
102168
102162
102166
102159
102172
102172
102345
102343
102336
102332
102321
102317
102302
102294
102273
102255
102231
102206
102191
102169
102164
102162
102160
102184
102157
102173
102155
102174
102173
102347
102345
102338
102333
102322
102318
102305
102298
102277
102257
102233
102202
102190
102159
102166
102153
102165
102162
102165
102158
102154
102170
102173
102350
102348
102340
102335
102324
102320
102307
102300
102280
102256
102232
102196
102186
102151
102154
102146
102159
102197
102152
102169
102143
102171
102171
102354
102351
102342
102336
102325
102322
102312
102305
102286
102259
102234
102188
102183
102132
102156
102135
102157
102115
102091
102077
102143
102167
102177
102166
101666
101683
101690
101841
101933
102062
101999
101928
101896
101861
101895
101886
101733
101696
101695
101732
101847
101918
102023
101579
101645
101652
101807
101905
102034
101981
101916
101888
101855
101870
101881
101700
101661
101659
101690
101826
101903
101776
101553
101614
101655
101811
101875
102008
101955
101903
101876
101859
101878
101827
101674
101626
101624
101655
101786
101898
101754
101551
101605
101599
101746
101846
101980
101936
101876
101850
101798
101828
101821
101709
101723
101712
101678
101827
101899
101664
101557
101596
101557
101600
101721
101963
101883
101735
101679
101676
101745
101805
101780
101800
101775
101793
101860
101900
101694
101601
101621
101561
101586
101635
101908
101767
101630
101641
101593
101544
101682
101767
101828
101789
101838
101881
101898
101873
101803
101669
101564
101582
101592
101842
101680
101632
101732
101776
101610
101509
101593
101757
101829
101897
101891
101892
101958
101801
101624
101569
101589
101575
101823
101662
101696
101873
101842
101685
101517
101511
101606
101857
101877
101869
101860
102361
102356
102346
102338
102328
102324
102317
102312
102296
102259
102230
102172
102170
102107
102070
101974
101947
101957
101801
101857
101907
102130
102166
102373
102364
102348
102335
102325
102324
102327
102330
102314
102253
102192
102012
101943
101732
101679
101576
101637
101656
101857
101780
101685
101780
102187
102390
102373
102346
102326
102316
102292
102286
102323
102306
102135
101794
101535
101547
101409
101500
101512
101675
102099
102232
102217
101988
101741
102076
102407
102371
102303
102112
101948
101836
101905
102118
102150
101729
101532
101479
101499
101362
101461
101511
102094
102296
102231
102098
102061
101905
102003
102449
102309
101719
101420
101424
101443
101555
101734
101692
101593
101616
101611
101541
101348
101401
101667
102354
102355
102238
102176
101993
101945
102194
102506
101841
101418
101385
101351
101344
101350
101410
101567
101650
101635
101521
101345
101338
101333
101643
102234
102425
102381
102352
102256
102325
102414
102518
101651
101331
101338
101327
101329
101330
101339
101398
101429
101375
101328
101325
101332
101324
101356
101551
102123
102503
102529
102508
102563
102460
102563
101518
101330
101333
101328
101329
101329
101329
101329
101328
101327
101327
101325
101330
101325
101326
101325
101325
102058
102672
102686
102541
101708
102679
101537
101329
101329
101328
101329
101332
101332
101327
101328
101326
101328
101326
101332
101327
101328
101325
101328
101381
102227
102724
102045
101334
102826
101626
101329
101329
101328
101330
101332
101332
101327
101327
101327
101328
101327
101330
101329
101327
101326
101327
101329
101428
102050
102177
101448
102946
101772
101328
101328
101327
101328
101330
101330
101327
101327
101327
101327
101327
101328
101327
101327
101326
101327
101326
101328
101412
101761
101806
103060
101711
101329
101327
101327
101327
101327
101327
101327
101327
101327
101327
101327
101327
101326
101327
101326
101327
101326
101326
101331
101426
101651
102447
101461
101328
101327
101327
101327
101327
101326
101327
101327
101327
101327
101327
101327
101326
101327
101326
101327
101326
101326
101326
101326
101329
101389
101338
101326
101327
101327
101327
101327
101327
101327
101327
101327
101327
101327
101327
101327
101327
101326
101326
101326
101326
101326
101326
101326
101328
101325
101327
101326
101327
101326
101327
101326
101327
101326
101327
101327
101327
101327
101327
101327
101326
101326
101326
101326
101326
101326
101326
101327
101326
101326
101326
101327
101326
101327
101326
101327
101326
101327
101327
101327
101327
101327
101326
101326
101326
101326
101326
101326
101326
101326
101329
101326
101327
101326
101327
101326
101327
101326
101327
101326
101327
101326
101327
101326
101327
101326
101326
101326
101326
101326
101326
101326
101326
101661
101326
101327
101326
101327
101326
101327
101326
101327
101326
101327
101326
101327
101326
101327
101326
101326
101326
101326
101326
101326
101326
101326
101806
101326
101328
101326
101327
101326
101327
101326
101327
101326
101327
101326
101327
101326
101326
101326
101326
101326
101326
101326
101326
101326
101326
101827
101326
101327
101326
101327
101326
101327
101326
101327
101326
101327
101326
101326
101326
101326
101326
101326
101326
101326
101326
101326
101326
101326
101849
101327
101327
101326
101327
101326
101327
101326
101327
101326
101326
101326
101326
101326
101326
101326
101326
101326
101326
101326
101326
101326
101326
101519
101328
101327
101326
101327
101326
101327
101326
101327
101326
101326
101326
101326
101326
101326
101326
101326
101326
101326
101326
101326
101326
101326
101327
101328
101327
101326
101327
101326
101327
101326
101326
101326
101326
101326
101326
101326
101326
101326
101326
101326
101326
101326
101326
101326
101326
101326
101327
101327
101326
101327
101326
101327
101326
101326
101326
101326
101326
101326
101326
101326
101326
101326
101326
101326
101326
101326
101326
101326
101327
101326
101327
101326
101327
101326
101326
101326
101326
101326
101326
101326
101326
101326
101326
101326
101326
101326
101326
101326
101326
101326
101325
101327
101326
101327
101326
101326
101326
101326
101326
101326
101326
101326
101326
101326
101326
101326
101326
101326
101326
101326
101326
101326
101325
101325
101327
101326
101326
101326
101326
101326
101326
101326
101326
101326
101326
101326
101326
101326
101326
101326
101326
101326
101326
101325
101325
101325
101325
101326
101326
101326
101325
101326
101325
101326
101325
101326
101325
101326
101325
101326
101326
101326
101326
101326
101325
101325
101325
101325
101325
101325
101326
101325
101325
101325
101325
101325
101325
101325
101325
101325
101325
101325
101325
101325
101325
101325
101325
101325
101325
101325
101325
101325
101325
101325
101324
101324
101324
101324
101325
101325
101325
101325
101325
101325
101325
101325
101325
101325
101325
101325
101325
101325
101325
101325
101325
101325
101324
101323
101323
101323
101324
101324
101324
101325
101325
101325
101325
101325
101325
101325
101325
101325
101325
101325
101325
101325
101325
101325
101325
101323
101323
101322
101322
101323
101324
101324
101325
101325
101325
101325
101325
101325
101325
101325
101325
101325
101325
101325
101325
101325
101325
101325
101323
101323
101322
101322
101323
101324
101324
101325
101325
101325
101325
101325
101325
101325
101325
101325
101325
101325
101325
101325
101325
101325
101325
101324
101323
101323
101323
101324
101324
101324
101325
101325
101325
101325
101325
101325
101325
101325
101325
101325
101325
101325
101325
101325
101325
101325
101324
101324
101324
101324
101324
101324
101325
101325
101325
101325
101325
101325
101325
101325
101325
101325
101325
101325
101325
101325
101325
101325
101325
101325
101325
101324
101325
101325
101325
101325
101325
101325
101325
101325
101325
101325
101325
101325
101325
101325
101325
101325
101325
101325
101325
101325
101325
101325
101325
101325
101325
101325
101325
101325
101325
101325
101325
101325
101325
101325
101325
101325
101325
101325
101325
101325
101325
101325
101325
101325
101325
101325
101325
101325
101325
101325
101325
101325
101325
101325
101325
101325
101325
101325
101325
101325
101325
101325
101325
101325
101325
101325
101325
101325
101325
101325
101325
101325
101325
101325
101325
101325
101325
101325
101325
101325
101325
101325
101325
101325
101325
101325
101325
101325
101325
101325
101325
101325
101325
101325
101325
101325
101325
101325
101325
101325
101325
101325
101325
101325
101325
101325
101325
101325
101325
101325
101325
101325
101325
101325
101325
101325
101325
101325
101325
101325
101325
101325
101325
101325
101325
101325
101325
101325
101325
101325
101325
101325
101325
101325
101325
101325
101325
101325
101325
101325
101325
101325
101325
101325
101325
101325
101325
101325
101325
101325
101325
101325
101325
101325
101325
101325
101325
101325
102167
102161
102109
101997
102221
102126
102111
102090
102092
102076
102214
102142
102244
102266
102268
102081
102324
102328
102220
101901
102434
102290
101690
101431
101809
101493
101341
101334
101336
101338
101332
101331
101336
101335
101337
101372
101336
101345
101368
101410
101614
101423
101410
101437
101643
101527
101413
101448
101352
101346
101334
101326
101326
101326
101326
101326
101326
101326
101326
101326
101326
101326
101326
101326
101326
101326
101326
101326
101326
101326
101326
101326
101326
101326
101326
101326
101326
101326
101326
101326
101326
101326
101326
101326
101326
101326
101326
101326
101326
101326
101326
101326
101326
101326
101325
101325
101325
101325
101325
101325
101325
101325
101325
101325
101325
101325
101325
101325
101325
101325
101325
101325
101325
101325
101325
101325
101325
101325
101325
101325
101325
101325
101325
101325
101325
101325
101325
101325
101325
101325
101325
101325
101325
101325
101325
101325
101325
101325
101325
101325
101325
101325
101325
101325
101325
101325
101325
101325
101325
101325
101325
101325
101325
101325
101325
101325
101325
101325
101325
101325
101325
101325
101325
101325
101325
101325
101325
101325
102006
101700
101704
101614
101586
101570
101864
101664
101680
101863
101847
101816
101584
101633
101825
101893
101852
101743
101727
101992
101692
101694
101655
101586
101694
101917
101610
101484
101681
101797
101627
101616
101669
101664
101574
101445
101397
101407
102002
101894
102162
102081
102012
102113
101886
101464
101429
101501
101482
101363
101335
101334
101333
101332
101332
101332
101332
101960
102066
102129
102068
102081
102065
102018
101632
101449
101445
101479
101427
101347
101336
101332
101330
101330
101331
101331
101713
101554
101439
101388
101434
101407
101508
101830
101863
101857
101663
101429
101361
101356
101346
101333
101330
101331
101331
101366
101333
101331
101331
101334
101331
101331
101330
101384
101329
101329
101329
101356
101366
101364
101339
101330
101329
101329
101333
101332
101341
101400
101379
101331
101329
101328
101329
101328
101328
101328
101328
101343
101366
101349
101328
101329
101329
101331
101344
101384
101468
101431
101330
101330
101330
101329
101329
101329
101328
101328
101327
101329
101335
101328
101328
101328
101410
101443
101480
101480
101398
101328
101328
101328
101329
101328
101328
101328
101328
101327
101327
101327
101328
101328
101328
101420
101393
101401
101363
101333
101328
101328
101328
101328
101328
101328
101328
101328
101328
101328
101328
101328
101328
101328
101371
101327
101327
101327
101326
101327
101328
101328
101328
101328
101328
101328
101328
101328
101328
101328
101328
101328
101328
101399
101341
101329
101327
101327
101327
101328
101328
101328
101328
101328
101328
101328
101328
101328
101328
101328
101328
101328
101327
101347
101343
101327
101327
101327
101327
101328
101328
101328
101328
101328
101328
101328
101328
101328
101328
101328
101328
101329
101340
101337
101327
101327
101327
101327
101328
101328
101328
101328
101328
101328
101328
101328
101328
101328
101328
101328
101326
101325
101327
101327
101327
101327
101327
101327
101327
101327
101327
101327
101327
101328
101328
101328
101328
101328
101328
101326
101326
101326
101327
101327
101327
101327
101327
101327
101327
101327
101327
101327
101327
101327
101327
101327
101327
101327
101326
101326
101326
101327
101327
101327
101327
101327
101327
101327
101327
101327
101327
101327
101327
101327
101327
101327
101327
101326
101326
101326
101327
101327
101327
101327
101327
101327
101327
101327
101327
101327
101327
101327
101327
101327
101327
101327
101326
101326
101326
101326
101327
101327
101327
101327
101327
101327
101327
101327
101327
101327
101327
101327
101327
101327
101327
101326
101326
101326
101326
101326
101326
101327
101327
101327
101327
101327
101327
101327
101327
101327
101327
101327
101327
101327
101326
101326
101326
101326
101326
101326
101326
101326
101327
101327
101327
101327
101327
101327
101327
101327
101327
101327
101327
101326
101326
101326
101326
101326
101326
101326
101326
101326
101326
101327
101327
101327
101327
101327
101327
101327
101327
101327
101326
101326
101326
101326
101326
101326
101326
101326
101326
101326
101326
101326
101327
101327
101327
101327
101327
101327
101327
101325
101325
101325
101326
101326
101326
101326
101326
101326
101326
101326
101326
101327
101327
101327
101327
101327
101327
101327
101325
101325
101325
101325
101325
101326
101326
101326
101326
101326
101326
101326
101326
101327
101327
101327
101327
101327
101327
101325
101325
101325
101325
101325
101325
101326
101326
101326
101326
101326
101326
101326
101326
101327
101327
101327
101327
101327
101325
101325
101325
101325
101325
101325
101325
101326
101326
101326
101326
101326
101326
101326
101326
101327
101326
101327
101327
101325
101325
101325
101325
101325
101325
101325
101325
101326
101326
101326
101326
101326
101326
101326
101327
101326
101327
101326
101325
101325
101325
101325
101325
101325
101325
101325
101326
101326
101326
101326
101326
101326
101326
101327
101326
101326
101326
101325
101325
101325
101325
101325
101325
101325
101325
101325
101326
101326
101326
101326
101326
101326
101327
101326
101326
101326
101325
101325
101325
101325
101325
101325
101325
101325
101325
101326
101326
101326
101326
101326
101326
101326
101326
101326
101326
101325
101325
101325
101325
101325
101325
101325
101325
101325
101325
101326
101326
101326
101326
101326
101326
101326
101326
101326
101325
101325
101325
101325
101325
101325
101325
101325
101325
101325
101326
101326
101326
101326
101326
101326
101326
101326
101326
101325
101325
101325
101325
101325
101325
101325
101325
101325
101325
101325
101326
101326
101326
101326
101326
101326
101326
101326
101325
101325
101325
101325
101325
101325
101325
101325
101325
101325
101325
101326
101326
101326
101326
101326
101326
101326
101326
101325
101325
101325
101325
101325
101325
101325
101325
101325
101325
101325
101325
101326
101326
101326
101326
101326
101326
101326
101325
101325
101325
101325
101325
101325
101325
101325
101325
101325
101325
101325
101326
101326
101326
101326
101326
101326
101326
101325
101325
101325
101325
101325
101325
101325
101325
101325
101325
101325
101325
101325
101326
101326
101326
101326
101326
101326
101325
101325
101325
101325
101325
101325
101325
101325
101325
101325
101325
101325
101325
101325
101325
101326
101326
101326
101326
101325
101325
101325
101325
101325
101325
101325
101325
101325
101325
101325
101325
101325
101325
101325
101325
101326
101326
101326
101325
101325
101325
101325
101325
101325
101325
101325
101325
101325
101325
101325
101325
101325
101325
101325
101325
101325
101325
101325
101325
101325
101325
101325
101325
101325
101325
101325
101325
101325
101325
101325
101325
101325
101325
101325
101325
101325
)
;

boundaryField
{
    leftWall
    {
        type            zeroGradient;
    }
    rightWall
    {
        type            zeroGradient;
    }
    lowerWall
    {
        type            zeroGradient;
    }
    atmosphere
    {
        type            fixedValue;
        value           uniform 101325;
    }
    defaultFaces
    {
        type            empty;
    }
}


// ************************************************************************* //
