/*--------------------------------*- C++ -*----------------------------------*\
| =========                 |                                                 |
| \\      /  F ield         | OpenFOAM: The Open Source CFD Toolbox           |
|  \\    /   O peration     | Version:  2012                                  |
|   \\  /    A nd           | Website:  www.openfoam.com                      |
|    \\/     M anipulation  |                                                 |
\*---------------------------------------------------------------------------*/
FoamFile
{
    version     2.0;
    format      ascii;
    class       surfaceScalarField;
    location    "0.99";
    object      phi;
}
// * * * * * * * * * * * * * * * * * * * * * * * * * * * * * * * * * * * * * //

dimensions      [0 3 -1 0 0 0 0];
oriented        oriented;


internalField   nonuniform List<scalar> 
4432
(
5.34346e-07
-5.34347e-07
8.77072e-07
-3.42725e-07
8.91399e-07
-1.43291e-08
5.37383e-07
3.54015e-07
-6.90296e-08
6.06411e-07
-8.68148e-07
7.99118e-07
-1.57436e-06
7.06214e-07
-1.9559e-06
3.8153e-07
-1.83036e-06
-1.25538e-07
-1.12301e-06
-7.07352e-07
-4.30472e-08
-1.07996e-06
1.26008e-06
-1.30313e-06
2.5476e-06
-1.28752e-06
3.66864e-06
-1.12105e-06
4.57773e-06
-9.09089e-07
5.44834e-06
-8.70622e-07
6.11222e-06
-6.63886e-07
6.89216e-06
-7.79942e-07
7.08999e-06
-1.9783e-07
6.73384e-06
3.56145e-07
4.87829e-06
1.85554e-06
2.85546e-06
2.02283e-06
2.85545e-06
5.73061e-07
-1.10741e-06
9.15237e-07
-6.849e-07
9.42254e-07
-4.13486e-08
6.133e-07
6.82969e-07
4.53361e-09
1.21518e-06
-8.52895e-07
1.65655e-06
-1.63388e-06
1.4872e-06
-2.06099e-06
8.08637e-07
-1.95603e-06
-2.30499e-07
-1.21837e-06
-1.44501e-06
-8.57114e-08
-2.21263e-06
1.2492e-06
-2.63804e-06
2.58334e-06
-2.62167e-06
3.73785e-06
-2.27556e-06
4.70299e-06
-1.87423e-06
5.59548e-06
-1.76312e-06
6.31112e-06
-1.37953e-06
7.12451e-06
-1.59334e-06
7.28582e-06
-3.59149e-07
6.82535e-06
8.16616e-07
5.00709e-06
3.67379e-06
2.7688e-06
4.26111e-06
5.62424e-06
6.11558e-07
-1.71897e-06
1.05756e-06
-1.1309e-06
1.11416e-06
-9.79473e-08
7.09005e-07
1.08812e-06
-1.53008e-08
1.93948e-06
-9.89981e-07
2.63123e-06
-1.86271e-06
2.35993e-06
-2.32075e-06
1.26668e-06
-2.1521e-06
-3.99152e-07
-1.36591e-06
-2.2312e-06
-1.83507e-07
-3.39504e-06
1.23098e-06
-4.05253e-06
2.66212e-06
-4.05281e-06
3.85576e-06
-3.4692e-06
4.85212e-06
-2.8706e-06
5.6311e-06
-2.5421e-06
6.22779e-06
-1.97623e-06
7.25498e-06
-2.62054e-06
7.66186e-06
-7.66032e-07
7.39932e-06
1.07915e-06
5.62529e-06
5.44781e-06
3.08364e-06
6.80276e-06
8.70786e-06
7.76717e-07
-2.49569e-06
1.31511e-06
-1.6693e-06
1.43609e-06
-2.18928e-07
1.03494e-06
1.48927e-06
2.12659e-07
2.76176e-06
-9.56109e-07
3.79999e-06
-2.04461e-06
3.44842e-06
-2.65265e-06
1.87472e-06
-2.54962e-06
-5.02187e-07
-1.71355e-06
-3.06727e-06
-3.94048e-07
-4.71454e-06
1.1788e-06
-5.62538e-06
2.73791e-06
-5.61192e-06
3.95431e-06
-4.6856e-06
5.02351e-06
-3.93981e-06
5.91079e-06
-3.42938e-06
6.70651e-06
-2.77196e-06
7.72733e-06
-3.64136e-06
8.19849e-06
-1.2372e-06
8.00359e-06
1.27406e-06
6.0993e-06
7.35209e-06
3.00118e-06
9.90088e-06
1.1709e-05
8.59801e-07
-3.35549e-06
1.55636e-06
-2.36585e-06
1.69921e-06
-3.61786e-07
1.18703e-06
2.00145e-06
1.92818e-07
3.75597e-06
-1.1913e-06
5.18411e-06
-2.46514e-06
4.72226e-06
-3.16606e-06
2.57564e-06
-2.97368e-06
-6.94573e-07
-2.01777e-06
-4.02318e-06
-5.68875e-07
-6.16343e-06
1.15685e-06
-7.35111e-06
2.88158e-06
-7.33666e-06
4.2278e-06
-6.03182e-06
5.38605e-06
-5.09806e-06
5.94874e-06
-3.99207e-06
6.33865e-06
-3.16188e-06
7.73222e-06
-5.03494e-06
9.03509e-06
-2.54007e-06
9.57402e-06
7.35116e-07
7.65421e-06
9.2719e-06
4.24086e-06
1.33142e-05
1.59499e-05
1.17679e-06
-4.53229e-06
1.99295e-06
-3.18201e-06
2.23541e-06
-6.04246e-07
1.67663e-06
2.56023e-06
4.9557e-07
4.93703e-06
-1.19004e-06
6.86972e-06
-2.84904e-06
6.38127e-06
-3.83772e-06
3.56432e-06
-3.77266e-06
-7.59637e-07
-2.69889e-06
-5.09696e-06
-9.64357e-07
-7.89797e-06
1.0777e-06
-9.39316e-06
3.0165e-06
-9.27547e-06
4.39103e-06
-7.40635e-06
5.58088e-06
-6.28792e-06
6.27788e-06
-4.68908e-06
6.84261e-06
-3.72661e-06
7.89274e-06
-6.08508e-06
9.02938e-06
-3.67672e-06
9.49726e-06
2.67233e-07
7.47578e-06
1.12934e-05
3.7788e-06
1.70112e-05
1.97286e-05
1.47393e-06
-6.00623e-06
2.65605e-06
-4.36413e-06
2.9545e-06
-9.02698e-07
2.26153e-06
3.2532e-06
7.53349e-07
6.44521e-06
-1.43386e-06
9.05692e-06
-3.47644e-06
8.42385e-06
-4.65018e-06
4.73806e-06
-4.46862e-06
-9.41201e-07
-3.15499e-06
-6.41058e-06
-1.20749e-06
-9.84547e-06
1.0094e-06
-1.16101e-05
3.24804e-06
-1.15141e-05
4.9107e-06
-9.06901e-06
6.05369e-06
-7.43092e-06
5.53013e-06
-4.16553e-06
4.80585e-06
-3.00234e-06
6.07508e-06
-7.35437e-06
7.62213e-06
-5.22404e-06
8.98427e-06
-1.09499e-06
7.38289e-06
1.28947e-05
3.97588e-06
2.04182e-05
2.37045e-05
1.62398e-06
-7.6302e-06
2.96195e-06
-5.7021e-06
3.59017e-06
-1.53092e-06
2.86258e-06
3.98078e-06
1.11517e-06
8.19262e-06
-1.45984e-06
1.16319e-05
-4.17795e-06
1.1142e-05
-5.86964e-06
6.42975e-06
-5.80318e-06
-1.00767e-06
-4.18387e-06
-8.02989e-06
-1.71728e-06
-1.23121e-05
1.03638e-06
-1.43637e-05
3.31599e-06
-1.37937e-05
4.31106e-06
-1.00641e-05
5.02342e-06
-8.14336e-06
4.83901e-06
-3.98151e-06
3.99183e-06
-2.15955e-06
3.09965e-06
-6.47191e-06
3.02634e-06
-5.18637e-06
4.19034e-06
-2.26792e-06
3.80856e-06
1.32765e-05
2.43461e-06
2.17922e-05
2.61391e-05
-9.23853e-05
9.22967e-05
-0.000113396
2.10195e-05
-0.000112618
-7.76377e-07
-9.70881e-05
-1.55124e-05
-7.48753e-05
-2.22079e-05
-4.62437e-05
-2.86288e-05
-1.71902e-05
-2.90532e-05
4.30254e-06
-2.1492e-05
1.60455e-05
-1.17425e-05
2.21829e-05
-6.13689e-06
2.03103e-05
1.87322e-06
-3.83303e-06
2.41427e-05
-3.58459e-05
3.20089e-05
-5.29432e-05
1.70967e-05
-5.88924e-05
5.94946e-06
-5.70954e-05
-1.79629e-06
-4.44657e-05
-1.26281e-05
-2.24256e-05
-2.20396e-05
-2.24256e-05
-6.81128e-05
0.000160404
-8.82156e-05
4.12009e-05
-8.85872e-05
-4.02075e-07
-6.76146e-05
-3.64469e-05
-5.37942e-05
-3.6014e-05
-3.64926e-05
-4.59287e-05
-1.39584e-05
-5.15874e-05
3.28374e-06
-3.87336e-05
1.20124e-05
-2.04708e-05
1.51483e-05
-9.27228e-06
1.56047e-05
1.41693e-06
8.33454e-07
3.89154e-05
-2.51999e-05
5.80395e-05
-4.12131e-05
3.31091e-05
-4.65444e-05
1.12862e-05
-4.41582e-05
-4.17866e-06
-3.06915e-05
-2.60839e-05
-1.30487e-05
-3.96814e-05
-3.54743e-05
-4.13218e-05
0.000201782
-4.55947e-05
4.55129e-05
-5.31218e-05
7.15813e-06
-4.50438e-05
-4.4492e-05
-4.1114e-05
-3.99401e-05
-3.09418e-05
-5.60993e-05
-1.22e-05
-7.03293e-05
2.18883e-06
-5.31218e-05
8.72165e-06
-2.70035e-05
1.2331e-05
-1.28813e-05
1.69746e-05
-3.22657e-06
1.26482e-05
4.32415e-05
-5.76309e-06
7.64522e-05
-2.11632e-05
4.8508e-05
-2.55933e-05
1.57251e-05
-2.22773e-05
-7.48408e-06
-1.14876e-05
-3.68722e-05
-1.26565e-06
-4.98966e-05
-3.674e-05
1.05661e-06
0.000200706
-1.53143e-06
4.81361e-05
-4.24685e-05
4.80999e-05
-3.57017e-05
-5.12486e-05
-3.63781e-05
-3.92719e-05
-2.79266e-05
-6.45501e-05
-1.24757e-05
-8.57803e-05
7.09563e-09
-6.56042e-05
6.4832e-06
-3.34802e-05
1.11748e-05
-1.75743e-05
1.40106e-05
-6.06269e-06
1.94665e-05
3.77862e-05
2.21494e-05
7.37696e-05
2.2444e-05
4.82132e-05
2.44323e-05
1.37339e-05
2.03051e-05
-3.35418e-06
1.31424e-05
-2.9687e-05
8.09006e-06
-4.48451e-05
-2.86499e-05
2.58698e-05
0.000174774
-6.99788e-08
7.41073e-05
-1.9538e-05
6.75748e-05
-2.98067e-05
-4.09743e-05
-4.03767e-05
-2.86718e-05
-2.56568e-05
-7.92639e-05
-1.39442e-05
-9.74934e-05
-3.84684e-06
-7.57049e-05
-1.36933e-06
-3.59941e-05
8.92626e-06
-2.78818e-05
1.93922e-05
-1.65379e-05
2.22686e-05
3.49071e-05
2.81084e-05
6.79297e-05
3.18838e-05
4.44376e-05
3.27916e-05
1.28261e-05
2.96426e-05
-2.01385e-07
2.18332e-05
-2.18769e-05
1.19086e-05
-3.49206e-05
-1.67413e-05
3.2063e-05
0.000142493
3.27875e-05
7.33589e-05
4.20653e-05
5.82743e-05
4.13614e-08
1.08404e-06
-3.16724e-05
3.05337e-06
-2.15531e-05
-8.93621e-05
-1.45529e-05
-0.00010451
-2.21036e-05
-6.82088e-05
-3.1341e-05
-2.67629e-05
-2.60624e-05
-3.31452e-05
4.05038e-06
-4.65996e-05
3.16074e-05
7.43606e-06
3.3693e-05
6.58731e-05
3.48059e-05
4.33216e-05
3.16242e-05
1.60078e-05
2.69988e-05
4.42741e-06
1.90738e-05
-1.39512e-05
9.73108e-06
-2.55777e-05
-7.0102e-06
2.53051e-05
0.000116963
3.62952e-05
6.23494e-05
5.84795e-05
3.61349e-05
3.51565e-05
2.44483e-05
-1.8082e-07
3.83918e-05
-1.41835e-05
-7.53429e-05
-1.70958e-05
-0.000101614
-3.89714e-05
-4.63462e-05
-5.26941e-05
-1.30035e-05
-4.75026e-05
-3.82685e-05
-3.91882e-05
-5.49014e-05
3.33187e-06
-3.51041e-05
3.58964e-05
3.3391e-05
3.16856e-05
4.75722e-05
2.57278e-05
2.19592e-05
2.00136e-05
1.01407e-05
1.21332e-05
-6.07074e-06
4.63612e-06
-1.80806e-05
-2.37405e-06
2.08262e-05
9.61003e-05
3.89741e-05
4.42123e-05
5.93908e-05
1.58057e-05
5.08581e-05
3.30055e-05
2.30588e-05
6.61801e-05
-1.00515e-06
-5.12714e-05
-1.68852e-05
-8.57422e-05
-4.17922e-05
-2.14488e-05
-5.38066e-05
-8.95227e-07
-5.07976e-05
-4.12748e-05
-4.98262e-05
-5.58822e-05
-3.09571e-05
-5.39695e-05
3.81279e-06
-1.36167e-06
1.69343e-05
3.44508e-05
1.22637e-05
2.66496e-05
9.1699e-06
1.3231e-05
4.7857e-06
-1.68527e-06
-3.06089e-07
-1.29887e-05
-2.67987e-06
5.63479e-06
-1.3265e-05
1.02127e-05
-1.028e-05
1.14955e-05
-2.81375e-06
9.19094e-06
6.28534e-06
3.67139e-06
1.37122e-05
-4.55293e-06
1.98562e-05
-1.213e-05
1.8719e-05
-1.62666e-05
1.05663e-05
-1.48677e-05
-2.40655e-06
-9.70164e-06
-1.31959e-05
-3.8383e-06
-1.81755e-05
1.50755e-06
-1.97096e-05
5.6667e-06
-1.79543e-05
7.48451e-06
-1.18839e-05
7.95675e-06
-8.65307e-06
-1.18453e-05
1.57572e-05
-3.97678e-05
2.55169e-05
-2.68354e-05
-1.95118e-05
8.7e-06
-4.08816e-05
2.14732e-05
-1.51447e-05
1.18402e-05
2.28474e-05
9.76973e-06
2.38501e-05
2.00738e-05
1.58344e-05
8.09952e-06
-2.13645e-05
1.6119e-05
-1.82995e-05
2.01463e-05
-6.84104e-06
1.66994e-05
9.73224e-06
8.70315e-06
2.17084e-05
-3.21269e-06
3.17721e-05
-1.69607e-05
3.2467e-05
-2.59838e-05
1.95894e-05
-2.71061e-05
-1.28438e-06
-2.24392e-05
-1.78611e-05
-1.22817e-05
-2.83453e-05
3.47673e-06
-3.54773e-05
1.08311e-05
-2.53953e-05
-1.0022e-05
8.92239e-06
-8.31449e-05
6.43054e-05
-0.00014114
7.3519e-05
-9.80585e-05
-1.78658e-05
-4.11396e-05
-7.64374e-05
3.04787e-06
-8.50486e-05
3.32216e-05
-4.5236e-05
3.12653e-05
2.47139e-05
1.1278e-05
4.38255e-05
2.16649e-05
9.67789e-06
1.10867e-05
-3.24512e-05
2.11084e-05
-2.83212e-05
2.54128e-05
-1.11454e-05
2.14622e-05
1.36829e-05
1.39415e-05
2.92291e-05
1.41335e-06
4.42991e-05
-1.81275e-05
5.20038e-05
-3.6521e-05
3.79818e-05
-4.358e-05
5.76871e-06
-3.58566e-05
-2.56012e-05
-1.32195e-05
-5.11847e-05
1.5055e-05
-6.37112e-05
2.818e-05
-3.8722e-05
-0.000111729
0.000149021
-0.000202794
0.000155277
-0.00014708
1.78825e-05
-5.96205e-05
-0.000105174
-2.428e-05
-0.000111646
-6.4205e-06
-0.000102922
8.8851e-06
-6.05446e-05
2.19517e-05
1.15998e-05
9.01736e-06
5.6728e-05
4.31847e-05
-1.25247e-05
1.07929e-05
-4.32441e-05
1.58964e-05
-3.34247e-05
1.65861e-05
-1.18369e-05
1.84613e-05
1.18208e-05
1.63509e-05
3.13908e-05
2.3214e-06
5.84623e-05
-2.06663e-05
7.51147e-05
-4.47357e-05
6.20904e-05
-6.58442e-05
2.68151e-05
-7.76933e-05
-1.38224e-05
-7.40021e-05
-5.49383e-05
-6.68292e-05
-7.06385e-05
-5.15541e-05
-5.42128e-05
-0.000220529
0.000318212
-0.000182875
0.000117669
-7.98581e-05
-8.47747e-05
-6.57425e-05
-0.000119146
-5.45411e-05
-0.000122851
-4.372e-05
-0.000113749
-3.95485e-05
-6.47165e-05
-3.53311e-05
7.36212e-06
-3.68505e-05
5.8164e-05
7.03888e-05
-6.40317e-05
-4.3302e-06
-3.89138e-05
-1.00487e-05
-2.77216e-05
-6.77584e-06
-1.51679e-05
-2.90914e-06
8.02376e-06
-5.97929e-06
3.45778e-05
-3.28486e-05
8.54763e-05
-7.96239e-05
0.000122178
-0.00011332
9.59265e-05
-0.000123318
3.68072e-05
-0.000118965
-1.80629e-05
-0.00011536
-5.85492e-05
-0.00011429
-7.16793e-05
-0.00013763
-3.11139e-05
-0.0002221
0.000402753
-0.000124476
2.03716e-05
-0.000105311
-0.000103312
-0.000101853
-0.000122612
-9.72356e-05
-0.000127464
-0.000100192
-0.000110792
-0.000106451
-5.84667e-05
-0.00010426
5.13141e-06
-0.000101772
5.5668e-05
7.69315e-05
-0.000108323
-2.33695e-05
-1.55464e-05
-4.83559e-05
-2.87353e-06
-7.39784e-05
1.04381e-05
-7.7848e-05
1.18632e-05
-6.04697e-05
1.7208e-05
-9.27421e-05
0.000117798
-0.000168911
0.000198537
-0.000199392
0.000126813
-0.000183341
2.09603e-05
-0.000154466
-4.6948e-05
-0.000135918
-7.72574e-05
-0.000129353
-7.86186e-05
-0.000202594
4.21189e-05
-0.000189377
0.000389574
-0.000139003
-2.97748e-05
-0.00012885
-0.000113078
-0.000124181
-0.000127387
-0.000125971
-0.000125685
-0.000137445
-9.93135e-05
-0.000149799
-4.6117e-05
-0.000148318
3.64065e-06
-0.000136067
4.33969e-05
6.70745e-05
-0.000126217
-2.88396e-05
1.32771e-05
-6.49859e-05
3.31068e-05
-0.000107278
5.27394e-05
-0.000113344
1.79253e-05
-0.000127666
3.15319e-05
-0.000160226
0.000150368
-0.0001896
0.00022794
-0.00019466
0.000132024
-0.000183078
9.48555e-06
-0.000172257
-5.78837e-05
-0.00013894
-0.000110743
-0.000164976
-5.25701e-05
-0.000205591
8.27426e-05
-0.000137706
0.000321707
-0.000146961
-2.05152e-05
-0.000147014
-0.000112904
-0.000131573
-0.000142659
-0.000132342
-0.000125035
-0.000145367
-8.62972e-05
-0.000153799
-3.76813e-05
-0.000151857
1.69884e-06
-0.000143472
3.50037e-05
5.41269e-05
-0.000130612
-2.512e-05
3.83666e-05
-5.60496e-05
6.39541e-05
-0.000123759
0.000120454
-0.000177708
7.18709e-05
-0.000243825
9.76456e-05
-0.000247858
0.000154401
-0.000182129
0.000162212
-0.000149677
9.9577e-05
-0.000138939
-1.23885e-06
-0.000145161
-5.1658e-05
-0.000157217
-9.86864e-05
-0.000188449
-2.1334e-05
-0.000175274
6.95724e-05
-7.39992e-05
0.000220443
-0.000110224
1.56991e-05
-0.000115417
-0.000107699
-0.000101337
-0.000156741
-0.000118941
-0.000106899
-0.000134834
-7.01456e-05
-0.000143044
-2.94738e-05
-0.000143222
1.87043e-06
-0.000134709
2.63449e-05
3.29919e-05
-0.000113774
-2.25061e-05
6.08362e-05
-4.32892e-05
8.46265e-05
-0.000123385
0.000200551
-0.00021141
0.000159895
-0.000255282
0.000141516
-0.000240519
0.000139645
-0.000180007
0.000101695
-0.000146253
6.58138e-05
-0.00014291
-4.57927e-06
-0.000154444
-4.01239e-05
-0.000176223
-7.69089e-05
-0.000179453
-1.80974e-05
-0.00015289
4.30125e-05
-7.18052e-05
0.000139354
-8.42505e-05
2.81368e-05
-9.9419e-05
-9.25279e-05
-0.000104907
-0.000151249
-0.000108639
-0.000103133
-0.000115126
-6.30126e-05
-0.000115844
-2.85182e-05
-0.000115345
1.32699e-06
-0.00010957
2.00399e-05
2.0513e-05
-9.70012e-05
-2.20072e-05
8.28106e-05
-3.08395e-05
9.32741e-05
-9.26945e-05
0.000262406
-0.000160795
0.000227995
-0.00018763
0.000168352
-0.000190968
0.000142987
-0.000173819
8.4544e-05
-0.000164059
5.60458e-05
-0.000163197
-5.43974e-06
-0.000159485
-4.38357e-05
-0.000159969
-7.64235e-05
-0.000152719
-2.5343e-05
-0.000120071
1.03709e-05
-6.68916e-05
8.61805e-05
-5.26217e-05
1.38643e-05
-6.06519e-05
-8.44973e-05
-8.92401e-05
-0.000122658
-0.000101519
-9.08528e-05
-0.000101842
-6.26388e-05
-8.95148e-05
-4.03857e-05
-7.79084e-05
-1.02163e-05
-6.73187e-05
9.21476e-06
1.57117e-05
-6.26467e-05
-1.87543e-05
0.000101537
-1.84524e-05
9.28019e-05
-5.68783e-05
0.000300833
-9.55955e-05
0.000266713
-0.000110744
0.000183501
-0.000119025
0.000151274
-0.000110383
7.59054e-05
-9.71004e-05
4.27612e-05
-8.50005e-05
-1.75402e-05
-9.19489e-05
-3.68876e-05
-0.000106811
-6.15605e-05
-0.000111398
-2.07548e-05
-9.249e-05
-8.5363e-06
-4.36303e-05
3.73238e-05
-2.17873e-05
-7.97728e-06
-3.58738e-05
-7.04108e-05
-7.21609e-05
-8.63691e-05
-8.37929e-05
-7.92201e-05
-8.71529e-05
-5.92759e-05
-8.04051e-05
-4.71007e-05
-6.13625e-05
-2.90617e-05
-3.92501e-05
-1.28614e-05
-1.97994e-06
-2.16316e-05
-8.45321e-06
0.000109976
-2.58087e-06
8.697e-05
-1.06027e-05
0.000308854
-3.46775e-05
0.000290788
-4.23308e-05
0.000191153
-3.94671e-05
0.000148409
-3.35904e-05
7.00317e-05
-3.58538e-05
4.50248e-05
-3.40795e-05
-1.93133e-05
-5.20438e-05
-1.8923e-05
-7.34868e-05
-4.01164e-05
-7.9444e-05
-1.47971e-05
-7.30326e-05
-1.49461e-05
-4.11934e-05
5.48547e-06
-3.07733e-05
-1.83955e-05
-5.12307e-05
-4.99534e-05
-7.69908e-05
-6.06071e-05
-9.0683e-05
-6.55279e-05
-9.53795e-05
-5.45778e-05
-9.6708e-05
-4.57699e-05
-8.75885e-05
-3.81398e-05
-5.66948e-05
-4.36444e-05
-3.18697e-05
-2.68897e-05
4.77306e-06
0.000105591
8.99065e-06
8.30879e-05
-1.61464e-05
0.000334014
-3.67137e-05
0.000311357
-2.84909e-05
0.000182932
-1.90844e-05
0.000139004
-2.20701e-06
5.31559e-05
-5.38525e-06
4.82035e-05
-1.30399e-05
-1.16579e-05
-2.97247e-05
-2.23816e-06
-5.0568e-05
-1.92721e-05
-5.77013e-05
-7.66375e-06
-6.09967e-05
-1.16495e-05
-5.06558e-05
-4.8555e-06
-5.1764e-05
-1.72859e-05
-6.32512e-05
-3.84662e-05
-7.872e-05
-4.51368e-05
-8.93645e-05
-5.48832e-05
-9.33361e-05
-5.06046e-05
-8.88223e-05
-5.02835e-05
-8.13882e-05
-4.5572e-05
-6.85093e-05
-5.65208e-05
-5.35026e-05
-4.68697e-05
7.01399e-06
9.94237e-05
-1.48201e-05
0.000104989
-6.01765e-05
0.000379373
-6.5796e-05
0.000316977
-3.71761e-05
0.000154313
-2.76571e-05
0.000129486
-1.13309e-05
3.68304e-05
-9.35272e-06
4.62255e-05
-2.01388e-05
-8.71158e-07
-3.12133e-05
8.83661e-06
-4.69008e-05
-3.58366e-06
-5.30708e-05
-1.49345e-06
-5.94326e-05
-5.28631e-06
-5.79383e-05
-6.34951e-06
-6.1918e-05
-1.33047e-05
-7.29026e-05
-2.74814e-05
-8.65707e-05
-3.14671e-05
-9.70464e-05
-4.44073e-05
-0.000102724
-4.49258e-05
-0.000100323
-5.26837e-05
-9.30172e-05
-5.2877e-05
-8.78799e-05
-6.16573e-05
-6.6251e-05
-7.51299e-05
2.49929e-05
7.44634e-05
-4.79274e-05
0.000177916
-7.86034e-05
0.000410049
-6.90676e-05
0.000307443
-4.1552e-05
0.000126798
-2.6248e-05
0.000114182
-1.49639e-05
2.55466e-05
-1.19459e-05
4.32078e-05
-2.31198e-05
1.03033e-05
-3.13054e-05
1.70224e-05
-4.37678e-05
8.87969e-06
-5.17228e-05
6.46171e-06
-6.06105e-05
3.60247e-06
-6.54233e-05
-1.53667e-06
-7.38294e-05
-4.89737e-06
-8.51464e-05
-1.61643e-05
-9.88329e-05
-1.77793e-05
-0.000112335
-3.09047e-05
-0.000124273
-3.29864e-05
-0.000131406
-4.55509e-05
-0.000134311
-4.99712e-05
-0.000132696
-6.32717e-05
-6.57573e-05
-0.000133189
-1.11883e-05
8.56404e-05
-8.18542e-05
0.000248577
-7.43828e-05
0.000402578
-6.37953e-05
0.000296856
-3.84194e-05
0.000101423
-2.15651e-05
9.73283e-05
-2.04853e-05
2.44674e-05
-1.92919e-05
4.20147e-05
-3.14279e-05
2.24401e-05
-3.87565e-05
2.43513e-05
-4.91059e-05
1.92301e-05
-5.62749e-05
1.3631e-05
-6.44625e-05
1.17912e-05
-7.08061e-05
4.80719e-06
-7.8666e-05
2.96376e-06
-8.84794e-05
-6.35056e-06
-9.97405e-05
-6.51692e-06
-0.000113716
-1.69291e-05
-0.000129587
-1.71138e-05
-0.000146192
-2.8945e-05
-0.000162879
-3.32838e-05
-0.000178399
-4.77511e-05
-5.21701e-05
-0.000191986
-5.98264e-05
0.000145452
-8.28383e-05
0.000271584
-5.01383e-05
0.000369877
-4.69973e-05
0.000293715
-2.9529e-05
8.39554e-05
-1.4664e-05
8.24639e-05
-2.26768e-05
3.24808e-05
-2.42726e-05
4.36109e-05
-3.58041e-05
3.39722e-05
-4.2388e-05
3.09356e-05
-5.16788e-05
2.85218e-05
-5.91059e-05
2.10584e-05
-6.76901e-05
2.03763e-05
-7.53642e-05
1.24816e-05
-8.41584e-05
1.17589e-05
-9.37409e-05
3.23229e-06
-0.000104166
3.9092e-06
-0.000116778
-4.31696e-06
-0.000131804
-2.08647e-06
-0.000151031
-9.71769e-06
-0.000173237
-1.10771e-05
-0.000195867
-2.51214e-05
-2.97707e-05
-0.000218266
-2.8767e-05
0.000173663
-3.71656e-05
0.000279988
-1.5461e-05
0.000348183
-1.46103e-05
0.000292866
-1.68768e-05
8.62249e-05
-9.15764e-06
7.4746e-05
-2.50039e-05
4.83282e-05
-3.01715e-05
4.87793e-05
-4.23986e-05
4.62001e-05
-4.94537e-05
3.79912e-05
-5.86625e-05
3.77314e-05
-6.59662e-05
2.83626e-05
-7.38935e-05
2.83044e-05
-8.11888e-05
1.97774e-05
-8.87894e-05
1.93604e-05
-9.69039e-05
1.13473e-05
-0.000105193
1.21993e-05
-0.000114561
5.05122e-06
-0.000124418
7.77148e-06
-0.000136786
2.65081e-06
-0.000152285
4.42343e-06
-0.000172777
-4.629e-06
-8.05666e-06
-0.000194491
-3.67959e-06
0.000177216
-1.5617e-05
0.000291926
-1.06664e-05
0.000343233
-2.1756e-07
0.000282419
-1.21085e-05
9.81169e-05
-1.2315e-05
7.49535e-05
-2.88589e-05
6.48728e-05
-3.57685e-05
5.56895e-05
-4.7098e-05
5.75304e-05
-5.44683e-05
4.53621e-05
-6.34206e-05
4.66844e-05
-7.10142e-05
3.59567e-05
-7.91646e-05
3.64556e-05
-8.70133e-05
2.76265e-05
-9.50353e-05
2.73831e-05
-0.000103325
1.96371e-05
-0.000111785
2.06602e-05
-0.000120929
1.41956e-05
-0.00013055
1.73939e-05
-0.000140767
1.28678e-05
-0.000151689
1.53469e-05
-0.000165797
9.47934e-06
7.4619e-06
-0.000181315
-3.53233e-06
0.000180733
-1.38851e-05
0.000302285
-6.24986e-06
0.000335603
1.15665e-05
0.000264604
-5.57542e-06
0.000115261
-1.48155e-05
8.41948e-05
-3.21082e-05
8.21666e-05
-4.0948e-05
6.45301e-05
-5.19462e-05
6.85295e-05
-5.94587e-05
5.28753e-05
-6.7701e-05
5.49274e-05
-7.46106e-05
4.28669e-05
-8.1632e-05
4.34778e-05
-8.83343e-05
3.43293e-05
-9.51298e-05
3.41795e-05
-0.000102673
2.71809e-05
-0.000110987
2.89743e-05
-0.00012088
2.40895e-05
-0.000131759
2.82735e-05
-0.000143886
2.49952e-05
-0.000156548
2.80099e-05
-0.000171984
2.49163e-05
2.48544e-05
-0.000189375
4.00153e-08
0.000180617
-1.22681e-05
0.000314642
-1.06715e-05
0.000334008
1.04645e-05
0.000243469
-1.03398e-05
0.000136066
-2.3301e-05
9.71569e-05
-3.96321e-05
9.84985e-05
-4.89078e-05
7.38066e-05
-5.91231e-05
7.87456e-05
-6.65897e-05
6.03425e-05
-7.42859e-05
6.26244e-05
-8.10966e-05
4.96781e-05
-8.78757e-05
5.02576e-05
-9.45605e-05
4.10146e-05
-0.000101309
4.09286e-05
-0.000108814
3.46862e-05
-0.000117587
3.77485e-05
-0.000128116
3.46189e-05
-0.000139958
4.01158e-05
-0.00015407
3.91083e-05
-0.000169861
4.38018e-05
-0.000186968
4.20241e-05
4.13099e-05
-0.000203423
2.52312e-06
0.000178777
-1.37062e-05
0.000330932
-2.15594e-05
0.000341862
-1.99596e-06
0.000223907
-2.26765e-05
0.000156747
-3.55062e-05
0.000109987
-4.86206e-05
0.000111614
-5.7076e-05
8.22628e-05
-6.54631e-05
8.71334e-05
-7.2408e-05
6.72879e-05
-7.92646e-05
6.94815e-05
-8.58156e-05
5.62297e-05
-9.22768e-05
5.67195e-05
-9.92372e-05
4.79755e-05
-0.000106803
4.84956e-05
-0.000115854
4.37367e-05
-0.000126676
4.85719e-05
-0.000138689
4.66316e-05
-0.000151662
5.30902e-05
-0.000166817
5.42643e-05
-0.000182879
5.98645e-05
-0.000198229
5.73743e-05
5.30294e-05
-0.000209948
-2.37283e-05
0.000202706
-3.91811e-05
0.000346387
-4.2845e-05
0.000345527
-2.9394e-05
0.000210458
-4.19784e-05
0.000169333
-5.24143e-05
0.000120424
-6.1302e-05
0.000120502
-6.82166e-05
8.91781e-05
-7.44094e-05
9.33268e-05
-8.02554e-05
7.31345e-05
-8.58478e-05
7.50746e-05
-9.1706e-05
6.20884e-05
-9.77761e-05
6.27904e-05
-0.000105162
5.53614e-05
-0.00011418
5.75147e-05
-0.000125253
5.48104e-05
-0.000138066
6.1385e-05
-0.000151551
6.01172e-05
-0.000165097
6.66376e-05
-0.000178661
6.78281e-05
-0.000190495
7.16991e-05
-0.000199996
6.68759e-05
5.79529e-05
-0.000204919
-5.59782e-05
0.000258683
-7.61622e-05
0.000366578
-6.79293e-05
0.000337297
-6.2591e-05
0.000205121
-6.48999e-05
0.000171642
-7.08707e-05
0.000126396
-7.44808e-05
0.000124113
-7.87998e-05
9.34976e-05
-8.2479e-05
9.70065e-05
-8.71439e-05
7.78e-05
-9.15808e-05
7.95121e-05
-9.71459e-05
6.7654e-05
-0.000103182
6.88273e-05
-0.000111161
6.33403e-05
-0.000121776
6.81306e-05
-0.000133401
6.64358e-05
-0.000145177
7.31621e-05
-0.000157079
7.20192e-05
-0.000168212
7.77712e-05
-0.000178285
7.79016e-05
-0.000186022
7.94367e-05
-0.000191595
7.24495e-05
5.904e-05
-0.000192682
-7.12346e-05
0.000329916
-9.82908e-05
0.00039364
-8.71366e-05
0.000326144
-8.94868e-05
0.000207472
-8.76724e-05
0.000169829
-8.90029e-05
0.000127727
-8.83118e-05
0.000123422
-9.00844e-05
9.52707e-05
-9.13104e-05
9.82331e-05
-9.46556e-05
8.11456e-05
-9.79444e-05
8.28016e-05
-0.000103338
7.3048e-05
-0.00011009
7.558e-05
-0.000119028
7.22789e-05
-0.000130365
7.94678e-05
-0.000141284
7.73551e-05
-0.000150542
8.2421e-05
-0.000159141
8.06184e-05
-0.000165983
8.46136e-05
-0.000171752
8.36713e-05
-0.000175818
8.35032e-05
-0.000177419
7.40509e-05
5.61597e-05
-0.000174538
-7.61036e-05
0.000406018
-0.000109097
0.000426638
-0.000108818
0.000325867
-0.00011503
0.000213685
-0.000110661
0.00016546
-0.000106195
0.000123262
-0.000100589
0.000117816
-9.96179e-05
9.43004e-05
-9.82035e-05
9.68193e-05
-0.00010024
8.31825e-05
-0.000102713
8.52754e-05
-0.000108003
7.83385e-05
-0.000115909
8.34859e-05
-0.000125288
8.16591e-05
-0.00013472
8.89e-05
-0.000143307
8.59424e-05
-0.000149594
8.87088e-05
-0.000154939
8.59637e-05
-0.000158228
8.79032e-05
-0.000160168
8.56119e-05
-0.000160137
8.3473e-05
-0.000157128
7.10426e-05
4.9581e-05
-0.000150549
-7.57298e-05
0.000481747
-0.000116717
0.00046763
-0.000131508
0.000340659
-0.000140609
0.000222786
-0.00013274
0.000157591
-0.000122566
0.000113089
-0.000111969
0.000107219
-0.000108307
9.06388e-05
-0.000104879
9.33919e-05
-0.000105912
8.42152e-05
-0.000108155
8.75192e-05
-0.000113669
8.38525e-05
-0.000122086
9.19035e-05
-0.000130952
9.05259e-05
-0.000137659
9.56072e-05
-0.000142965
9.12494e-05
-0.000145874
9.16176e-05
-0.000147992
8.80823e-05
-0.000148211
8.81229e-05
-0.000146369
8.37702e-05
-0.000141388
7.84927e-05
-0.000133182
6.28374e-05
3.97469e-05
-0.000123348
-7.50898e-05
0.000556834
-0.000127106
0.00051965
-0.000153344
0.000366899
-0.000163376
0.000232817
-0.000151136
0.000145351
-0.000135043
9.69956e-05
-0.00011917
9.13472e-05
-0.000112405
8.38742e-05
-0.000107819
8.8806e-05
-0.00010787
8.42668e-05
-0.000110701
9.03509e-05
-0.000116737
8.98887e-05
-0.000124295
9.94616e-05
-0.000131812
9.80438e-05
-0.000136715
0.00010051
-0.000140095
9.46302e-05
-0.000140842
9.23649e-05
-0.000140661
8.79018e-05
-0.000138109
8.55716e-05
-0.000132463
7.8125e-05
-0.000122979
6.90091e-05
-0.00011085
5.07084e-05
2.83782e-05
-9.94809e-05
-7.64801e-05
0.000633316
-0.000133057
0.000576232
-0.000165383
0.000399225
-0.000174433
0.000241866
-0.000160889
0.000131807
-0.000141008
7.71149e-05
-0.000122073
7.24129e-05
-0.000113113
7.49144e-05
-0.000108493
8.41862e-05
-0.000108367
8.41411e-05
-0.000112102
9.4086e-05
-0.000118665
9.64527e-05
-0.000125021
0.000105817
-0.000131017
0.000104041
-0.000134463
0.000103957
-0.00013624
9.64075e-05
-0.000135381
9.1506e-05
-0.000133131
8.56521e-05
-0.000127784
8.02249e-05
-0.000118885
6.92272e-05
-0.00010635
5.64741e-05
-9.30393e-05
3.73981e-05
1.7082e-05
-8.17428e-05
-7.27953e-05
0.00070611
-0.000122912
0.000626354
-0.000157484
0.000433798
-0.000167564
0.000251946
-0.000154744
0.000118986
-0.000134242
5.66127e-05
-0.000116057
5.42282e-05
-0.000107334
6.61918e-05
-0.000104013
8.08657e-05
-0.000105263
8.53916e-05
-0.000109755
9.85789e-05
-0.00011672
0.000103418
-0.000122667
0.000111765
-0.000128255
0.000109629
-0.000130862
0.000106564
-0.000131347
9.68924e-05
-0.000129759
8.99184e-05
-0.000126058
8.19518e-05
-0.000118484
7.26511e-05
-0.00010766
5.84036e-05
-9.44964e-05
4.33108e-05
-8.20229e-05
2.4925e-05
6.11083e-06
-7.10513e-05
-4.19479e-05
0.000748063
-8.44519e-05
0.000668861
-0.000120329
0.000469676
-0.000134521
0.000266137
-0.000126921
0.000111383
-0.000112768
4.246e-05
-0.000101099
4.256e-05
-9.61786e-05
6.12713e-05
-9.5866e-05
8.05535e-05
-9.9944e-05
8.94702e-05
-0.000105876
0.000104511
-0.000113731
0.000111274
-0.00011993
0.000117965
-0.000124924
0.000114624
-0.000126226
0.000107866
-0.000125568
9.62345e-05
-0.000123066
8.74169e-05
-0.000117483
7.63698e-05
-0.000108043
6.32115e-05
-9.65977e-05
4.69584e-05
-8.42011e-05
3.09146e-05
-7.27117e-05
1.3436e-05
-4.29218e-06
-6.23084e-05
-9.71482e-07
0.000749037
-1.76942e-05
0.000685587
-4.54398e-05
0.000497423
-6.64164e-05
0.000287115
-7.46402e-05
0.000119606
-7.52909e-05
4.31105e-05
-7.54477e-05
4.27177e-05
-7.82508e-05
6.4075e-05
-8.31703e-05
8.54737e-05
-9.09367e-05
9.72372e-05
-9.9057e-05
0.000112632
-0.000107955
0.000120173
-0.000114814
0.000124824
-0.000119459
0.000119269
-0.000119806
0.000108213
-0.000118799
9.52284e-05
-0.000115559
8.41773e-05
-0.000108484
6.92948e-05
-9.89419e-05
5.367e-05
-8.85048e-05
3.65217e-05
-7.75281e-05
1.99382e-05
-6.67574e-05
2.66549e-06
-1.43669e-05
-5.66825e-05
2.56212e-05
0.000723416
4.64719e-05
0.000664739
4.12342e-05
0.000502663
1.6579e-05
0.000311772
-1.02413e-05
0.000146427
-3.01127e-05
6.29821e-05
-4.52489e-05
5.7855e-05
-5.8174e-05
7.70008e-05
-6.97127e-05
9.70132e-05
-8.17134e-05
0.000109239
-9.26522e-05
0.000123571
-0.000102882
0.000130403
-0.000110359
0.000132302
-0.00011386
0.000122771
-0.000113411
0.000107765
-0.000111749
9.35667e-05
-0.000106847
7.92762e-05
-9.88673e-05
6.13151e-05
-8.94397e-05
4.42428e-05
-7.93908e-05
2.64732e-05
-6.90093e-05
9.55694e-06
-5.8845e-05
-7.4986e-06
-2.36913e-05
-4.95204e-05
4.21784e-05
0.000681237
8.10549e-05
0.000625863
9.32359e-05
0.000490483
7.36068e-05
0.000331403
4.18193e-05
0.000178215
1.04702e-05
9.43321e-05
-1.59338e-05
8.42598e-05
-3.72434e-05
9.83114e-05
-5.44625e-05
0.000114233
-7.01719e-05
0.000124949
-8.35986e-05
0.000136999
-9.52153e-05
0.00014202
-0.000103164
0.000140251
-0.000105714
0.000125322
-0.000105532
0.000107583
-0.0001036
9.16352e-05
-9.78661e-05
7.35424e-05
-9.06265e-05
5.40758e-05
-8.2203e-05
3.58196e-05
-7.3037e-05
1.73074e-05
-6.3402e-05
-7.78674e-08
-5.39288e-05
-1.69716e-05
-3.24839e-05
-4.51361e-05
5.21249e-05
0.000629112
9.58227e-05
0.000582167
0.000111825
0.000474482
9.95229e-05
0.000343706
7.18615e-05
0.000205876
3.63831e-05
0.000129812
3.43554e-06
0.000117209
-2.39494e-05
0.000125697
-4.56171e-05
0.000135902
-6.44639e-05
0.000143796
-7.97762e-05
0.000152311
-9.20743e-05
0.000154319
-9.85801e-05
0.000146757
-9.98096e-05
0.000126552
-9.9137e-05
0.000106911
-9.57663e-05
8.82649e-05
-8.93451e-05
6.71217e-05
-8.17793e-05
4.65103e-05
-7.30694e-05
2.71099e-05
-6.40181e-05
8.25628e-06
-5.50843e-05
-9.01139e-06
-4.67763e-05
-2.52794e-05
-4.0325e-05
-3.89351e-05
5.118e-05
0.000577932
9.40301e-05
0.000539317
0.000112289
0.000456226
0.000109029
0.000346965
8.79905e-05
0.000226915
5.23588e-05
0.000165445
1.77832e-05
0.000151786
-1.16241e-05
0.000155105
-3.5212e-05
0.000159491
-5.56687e-05
0.000164254
-7.22584e-05
0.000168902
-8.52022e-05
0.000167264
-9.07534e-05
0.000152309
-9.19686e-05
0.000127768
-9.13547e-05
0.000106297
-8.72756e-05
8.41863e-05
-8.15226e-05
6.1369e-05
-7.47845e-05
3.97725e-05
-6.70739e-05
1.93996e-05
-5.89801e-05
1.62655e-07
-5.07452e-05
-1.72462e-05
-4.30936e-05
-3.29309e-05
-4.74674e-05
-3.59511e-05
4.41696e-05
0.000533761
8.3489e-05
0.000499995
0.000105781
0.000433932
0.000107506
0.000345239
8.81747e-05
0.000246247
5.26907e-05
0.00020093
1.80221e-05
0.000186455
-1.17654e-05
0.000184894
-3.6255e-05
0.000183981
-5.74109e-05
0.00018541
-7.38598e-05
0.000185351
-8.42437e-05
0.000177648
-8.71165e-05
0.000155182
-8.74598e-05