/*--------------------------------*- C++ -*----------------------------------*\
| =========                 |                                                 |
| \\      /  F ield         | OpenFOAM: The Open Source CFD Toolbox           |
|  \\    /   O peration     | Version:  2012                                  |
|   \\  /    A nd           | Website:  www.openfoam.com                      |
|    \\/     M anipulation  |                                                 |
\*---------------------------------------------------------------------------*/
FoamFile
{
    version     2.0;
    format      ascii;
    class       volScalarField;
    location    "820";
    object      minKappa;
}
// * * * * * * * * * * * * * * * * * * * * * * * * * * * * * * * * * * * * * //

dimensions      [0 0 0 0 0 0 0];


internalField   nonuniform List<scalar> 
20400
(
3.40328e-12
3.40328e-12
3.73858e-12
1.05256e-11
2.80461e-11
5.22503e-11
8.07879e-11
1.12252e-10
1.44898e-10
1.78204e-10
2.11479e-10
2.44477e-10
2.77358e-10
3.09919e-10
3.42326e-10
3.74576e-10
4.06725e-10
4.38797e-10
4.70811e-10
5.02744e-10
5.34533e-10
5.66146e-10
5.97593e-10
6.2888e-10
6.59997e-10
6.90933e-10
7.2168e-10
7.52238e-10
7.82616e-10
8.12831e-10
8.42901e-10
8.72816e-10
9.02477e-10
9.31676e-10
9.60333e-10
9.89198e-10
1.01818e-09
1.04681e-09
1.07526e-09
1.10341e-09
1.13134e-09
1.15906e-09
1.18662e-09
1.21404e-09
1.24135e-09
1.26858e-09
1.29574e-09
1.32283e-09
1.34985e-09
1.37681e-09
1.4037e-09
1.43055e-09
1.45733e-09
1.48415e-09
1.51091e-09
1.53764e-09
1.56409e-09
1.59129e-09
1.61879e-09
1.64636e-09
1.67412e-09
1.70181e-09
1.72965e-09
1.75748e-09
1.78541e-09
1.81339e-09
1.84148e-09
1.8697e-09
1.89805e-09
1.92661e-09
1.95533e-09
1.98432e-09
2.01352e-09
2.04306e-09
2.07284e-09
2.10304e-09
2.13354e-09
2.16457e-09
2.19588e-09
2.22736e-09
2.25868e-09
2.29065e-09
2.32248e-09
2.35445e-09
2.38674e-09
2.41943e-09
2.45258e-09
2.48609e-09
2.52004e-09
2.55416e-09
2.58858e-09
2.62266e-09
2.65704e-09
2.69162e-09
2.72645e-09
2.76126e-09
2.79599e-09
2.83048e-09
2.86476e-09
2.89861e-09
2.93184e-09
2.96445e-09
2.99556e-09
3.02483e-09
3.05247e-09
3.07815e-09
3.10142e-09
3.12321e-09
3.1423e-09
3.15893e-09
3.17278e-09
3.18355e-09
3.19084e-09
3.19346e-09
3.1872e-09
3.17457e-09
3.15577e-09
3.12928e-09
3.09275e-09
3.0504e-09
3.00406e-09
2.95634e-09
2.9137e-09
2.86945e-09
2.81839e-09
2.75952e-09
2.69379e-09
2.62086e-09
2.54212e-09
2.45811e-09
2.36872e-09
2.27475e-09
2.17337e-09
2.06397e-09
1.94906e-09
1.82623e-09
1.6917e-09
1.5507e-09
1.40289e-09
1.2483e-09
1.08426e-09
8.9715e-10
7.14559e-10
5.70441e-10
4.48481e-10
3.13206e-10
1.76931e-10
1.10069e-10
1.10069e-10
1.60699e-10
3.02992e-10
4.52783e-10
6.01894e-10
7.50316e-10
8.95216e-10
1.03833e-09
1.17657e-09
1.31253e-09
1.44278e-09
1.57036e-09
1.69193e-09
1.81043e-09
1.9226e-09
2.03115e-09
2.13375e-09
2.23196e-09
2.32476e-09
2.41252e-09
2.49517e-09
2.57286e-09
2.64556e-09
2.71329e-09
2.77612e-09
2.83411e-09
2.88739e-09
2.9361e-09
2.98038e-09
3.02039e-09
3.05619e-09
3.08804e-09
3.116e-09
3.14029e-09
3.16106e-09
3.17846e-09
3.19277e-09
3.20402e-09
3.21254e-09
3.21823e-09
3.22158e-09
3.22111e-09
3.21766e-09
3.21227e-09
3.20505e-09
3.19608e-09
3.18549e-09
3.17344e-09
3.16006e-09
3.14547e-09
3.12979e-09
3.1131e-09
3.09551e-09
3.07715e-09
3.0581e-09
3.03844e-09
3.01819e-09
2.99743e-09
2.97626e-09
2.95474e-09
2.93302e-09
2.91101e-09
2.88895e-09
2.86678e-09
2.84466e-09
2.82241e-09
2.80031e-09
2.77821e-09
2.75628e-09
2.73449e-09
2.71285e-09
2.69148e-09
2.67026e-09
2.6494e-09
2.62869e-09
2.60843e-09
2.58835e-09
2.56866e-09
2.54927e-09
2.53024e-09
2.51158e-09
2.49327e-09
2.47534e-09
2.45781e-09
2.44065e-09
2.42391e-09
2.40754e-09
2.3916e-09
2.37603e-09
2.36089e-09
2.34613e-09
2.33179e-09
2.31784e-09
2.3043e-09
2.29117e-09
2.27844e-09
2.2661e-09
2.25417e-09
2.24263e-09
2.23149e-09
2.22073e-09
2.21035e-09
2.20031e-09
2.19065e-09
2.18134e-09
2.1724e-09
2.1638e-09
2.15557e-09
2.14767e-09
2.14013e-09
2.13291e-09
2.12604e-09
2.11949e-09
2.11326e-09
2.10733e-09
2.10172e-09
2.09641e-09
2.09139e-09
2.08665e-09
2.0822e-09
2.07801e-09
2.07409e-09
2.07043e-09
2.06703e-09
2.06387e-09
2.06095e-09
2.05826e-09
2.0558e-09
2.05356e-09
2.05153e-09
2.04972e-09
2.0481e-09
2.04669e-09
2.04546e-09
2.04443e-09
2.04356e-09
2.04289e-09
2.04236e-09
2.04202e-09
2.04182e-09
2.04179e-09
2.04179e-09
2.04191e-09
2.04218e-09
2.04256e-09
2.04306e-09
2.04367e-09
2.04442e-09
2.04526e-09
2.04626e-09
2.04735e-09
2.04855e-09
2.04983e-09
2.05123e-09
2.05271e-09
2.05428e-09
2.05593e-09
2.05771e-09
2.05952e-09
2.06143e-09
2.06336e-09
2.0654e-09
2.06745e-09
2.06959e-09
2.07174e-09
2.07396e-09
2.07619e-09
2.07848e-09
2.08078e-09
2.08312e-09
2.08547e-09
2.08785e-09
2.09024e-09
2.09263e-09
2.09504e-09
2.09744e-09
2.09985e-09
2.10224e-09
2.10464e-09
2.10701e-09
2.10938e-09
2.11171e-09
2.11405e-09
2.11634e-09
2.11863e-09
2.12086e-09
2.1231e-09
2.12528e-09
2.12745e-09
2.12957e-09
2.13167e-09
2.13373e-09
2.13576e-09
2.13775e-09
2.13972e-09
2.14165e-09
2.14355e-09
2.14542e-09
2.14727e-09
2.14909e-09
2.15089e-09
2.15267e-09
2.15442e-09
2.15617e-09
2.15789e-09
2.15961e-09
2.16131e-09
2.16302e-09
2.16471e-09
2.16641e-09
2.1681e-09
2.16981e-09
2.17153e-09
2.17326e-09
2.175e-09
2.17675e-09
2.17852e-09
2.18029e-09
2.18208e-09
2.18389e-09
2.18571e-09
2.18755e-09
2.18941e-09
2.1913e-09
2.19319e-09
2.19511e-09
2.19704e-09
2.19898e-09
2.20093e-09
2.20288e-09
2.20485e-09
2.2068e-09
2.20877e-09
2.21071e-09
2.21266e-09
2.21457e-09
2.21649e-09
2.21836e-09
2.22022e-09
2.22204e-09
2.22383e-09
2.22558e-09
2.22729e-09
2.22896e-09
2.23057e-09
2.23214e-09
2.23365e-09
2.23511e-09
2.23652e-09
2.23786e-09
2.23915e-09
2.24037e-09
2.24154e-09
2.24264e-09
2.24369e-09
2.24468e-09
2.24561e-09
2.24648e-09
2.2473e-09
2.24807e-09
2.24879e-09
2.24946e-09
2.25009e-09
2.25068e-09
2.25124e-09
2.25176e-09
2.25226e-09
2.25273e-09
2.25318e-09
2.25361e-09
2.25403e-09
2.25444e-09
2.25484e-09
2.25525e-09
2.25566e-09
2.25607e-09
2.25649e-09
2.25693e-09
2.25738e-09
2.25786e-09
2.25835e-09
2.25886e-09
2.2594e-09
2.25996e-09
2.26055e-09
2.26116e-09
2.2618e-09
2.26247e-09
2.26317e-09
2.26389e-09
2.26463e-09
2.2654e-09
2.26619e-09
2.267e-09
2.26783e-09
2.26868e-09
2.26954e-09
2.27042e-09
2.2713e-09
2.2722e-09
2.27309e-09
2.274e-09
2.27491e-09
2.27582e-09
2.27672e-09
2.27762e-09
2.27852e-09
2.27941e-09
2.2803e-09
2.28117e-09
2.28203e-09
2.28288e-09
2.28372e-09
2.28455e-09
2.28536e-09
2.28616e-09
2.28694e-09
2.28771e-09
2.28847e-09
2.28921e-09
2.28994e-09
2.29065e-09
2.29136e-09
2.29205e-09
2.29273e-09
2.29341e-09
2.29407e-09
2.29473e-09
2.29537e-09
2.29602e-09
2.29665e-09
2.29729e-09
2.29792e-09
2.29854e-09
2.29917e-09
2.2998e-09
2.30042e-09
2.30105e-09
2.30168e-09
2.30229e-09
2.30293e-09
2.30354e-09
2.30418e-09
2.30479e-09
2.30543e-09
2.30603e-09
2.30669e-09
2.30729e-09
2.308e-09
2.3086e-09
2.30951e-09
2.31021e-09
3.42589e-12
7.74439e-12
2.5246e-11
5.6758e-11
1.00153e-10
1.50952e-10
2.08003e-10
2.6826e-10
3.30202e-10
3.93275e-10
4.55861e-10
5.18878e-10
5.81289e-10
6.43401e-10
7.05067e-10
7.66383e-10
8.27358e-10
8.88005e-10
9.48356e-10
1.00827e-09
1.06765e-09
1.1265e-09
1.18485e-09
1.2427e-09
1.30003e-09
1.35684e-09
1.41313e-09
1.46892e-09
1.52424e-09
1.57913e-09
1.6336e-09
1.68763e-09
1.74107e-09
1.79381e-09
1.8466e-09
1.89935e-09
1.9516e-09
2.00367e-09
2.05535e-09
2.10669e-09
2.15768e-09
2.20832e-09
2.25863e-09
2.30862e-09
2.35833e-09
2.40778e-09
2.45699e-09
2.506e-09
2.55485e-09
2.60358e-09
2.65219e-09
2.70076e-09
2.7492e-09
2.79779e-09
2.84604e-09
2.89442e-09
2.94207e-09
2.99056e-09
3.03774e-09
3.08565e-09
3.13265e-09
3.18035e-09
3.22765e-09
3.27571e-09
3.32333e-09
3.3719e-09
3.41983e-09
3.4689e-09
3.51717e-09
3.56677e-09
3.61543e-09
3.66563e-09
3.71473e-09
3.76561e-09
3.8152e-09
3.86689e-09
3.91704e-09
3.9697e-09
4.02044e-09
4.0739e-09
4.12509e-09
4.18007e-09
4.23181e-09
4.28776e-09
4.34011e-09
4.39633e-09
4.44908e-09
4.50523e-09
4.55817e-09
4.61386e-09
4.66668e-09
4.7211e-09
4.7734e-09
4.82672e-09
4.87796e-09
4.92934e-09
4.97806e-09
5.02635e-09
5.07123e-09
5.1149e-09
5.15435e-09
5.19296e-09
5.22657e-09
5.26245e-09
5.29195e-09
5.32086e-09
5.34254e-09
5.36282e-09
5.37453e-09
5.385e-09
5.38458e-09
5.38411e-09
5.3713e-09
5.35839e-09
5.33156e-09
5.30523e-09
5.26054e-09
5.22038e-09
5.1572e-09
5.09752e-09
5.01544e-09
4.93389e-09
4.82839e-09
4.72207e-09
4.59681e-09
4.46858e-09
4.32496e-09
4.17703e-09
4.01379e-09
3.84492e-09
3.66134e-09
3.4653e-09
3.26318e-09
3.02298e-09
2.80625e-09
2.56493e-09
2.34468e-09
2.14983e-09
1.92003e-09
1.69742e-09
1.41844e-09
1.17007e-09
9.51977e-10
6.45211e-10
4.53286e-10
4.07884e-10
4.60847e-10
5.60792e-10
7.48057e-10
9.77385e-10
1.25458e-09
1.49154e-09
1.76507e-09
1.99833e-09
2.26174e-09
2.4884e-09
2.73787e-09
2.95619e-09
3.18901e-09
3.39774e-09
3.61223e-09
3.80977e-09
4.00586e-09
4.18972e-09
4.36793e-09
4.53646e-09
4.69738e-09
4.84963e-09
4.99345e-09
5.12888e-09
5.25603e-09
5.37498e-09
5.48579e-09
5.58858e-09
5.68351e-09
5.7708e-09
5.85056e-09
5.92319e-09
5.98848e-09
6.04737e-09
6.09915e-09
6.14519e-09
6.18455e-09
6.2187e-09
6.24679e-09
6.27001e-09
6.28791e-09
6.30116e-09
6.31006e-09
6.31448e-09
6.31516e-09
6.31165e-09
6.30468e-09
6.29437e-09
6.2809e-09
6.26448e-09
6.24536e-09
6.22375e-09
6.19986e-09
6.17386e-09
6.14594e-09
6.11626e-09
6.08499e-09
6.05223e-09
6.01814e-09
5.98291e-09
5.94669e-09
5.9096e-09
5.87175e-09
5.83336e-09
5.79422e-09
5.7551e-09
5.71508e-09
5.67575e-09
5.63502e-09
5.59579e-09
5.55483e-09
5.51582e-09
5.47506e-09
5.43633e-09
5.39619e-09
5.35779e-09
5.3186e-09
5.28065e-09
5.24266e-09
5.20533e-09
5.16844e-09
5.1321e-09
5.09632e-09
5.06113e-09
5.02652e-09
4.99255e-09
4.95925e-09
4.92653e-09
4.8946e-09
4.86318e-09
4.83266e-09
4.80257e-09
4.77348e-09
4.74475e-09
4.71712e-09
4.68978e-09
4.66361e-09
4.63767e-09
4.61295e-09
4.58843e-09
4.56517e-09
4.54205e-09
4.52021e-09
4.49846e-09
4.47801e-09
4.45757e-09
4.43847e-09
4.41933e-09
4.40156e-09
4.38371e-09
4.36726e-09
4.35069e-09
4.33553e-09
4.32022e-09
4.3063e-09
4.29219e-09
4.27947e-09
4.26654e-09
4.25497e-09
4.24315e-09
4.2327e-09
4.22196e-09
4.21256e-09
4.20286e-09
4.19447e-09
4.18576e-09
4.17834e-09
4.17057e-09
4.16407e-09
4.1572e-09
4.15157e-09
4.14557e-09
4.14077e-09
4.13558e-09
4.13156e-09
4.12716e-09
4.12386e-09
4.12021e-09
4.1176e-09
4.11467e-09
4.11267e-09
4.11043e-09
4.10903e-09
4.10742e-09
4.10659e-09
4.10555e-09
4.10521e-09
4.10469e-09
4.10482e-09
4.10482e-09
4.10534e-09
4.1059e-09
4.1068e-09
4.10782e-09
4.10909e-09
4.11053e-09
4.11216e-09
4.11398e-09
4.11595e-09
4.11815e-09
4.12032e-09
4.12289e-09
4.12522e-09
4.12813e-09
4.13061e-09
4.1338e-09
4.13642e-09
4.13983e-09
4.14258e-09
4.14616e-09
4.14903e-09
4.15275e-09
4.1557e-09
4.15953e-09
4.16255e-09
4.16642e-09
4.16951e-09
4.17339e-09
4.17652e-09
4.18037e-09
4.18354e-09
4.18733e-09
4.19052e-09
4.19422e-09
4.19742e-09
4.20102e-09
4.20422e-09
4.2077e-09
4.21088e-09
4.21424e-09
4.21739e-09
4.22062e-09
4.22373e-09
4.22685e-09
4.2299e-09
4.23292e-09
4.2359e-09
4.23886e-09
4.24177e-09
4.24466e-09
4.24752e-09
4.25036e-09
4.25317e-09
4.25598e-09
4.25874e-09
4.26155e-09
4.26428e-09
4.26711e-09
4.26981e-09
4.27267e-09
4.27538e-09
4.27828e-09
4.28101e-09
4.28397e-09
4.28675e-09
4.28977e-09
4.2926e-09
4.29568e-09
4.29857e-09
4.30171e-09
4.30465e-09
4.30785e-09
4.31084e-09
4.31411e-09
4.31715e-09
4.3205e-09
4.32358e-09
4.32698e-09
4.33009e-09
4.33351e-09
4.33666e-09
4.34006e-09
4.34322e-09
4.34657e-09
4.34973e-09
4.35299e-09
4.35612e-09
4.35927e-09
4.36234e-09
4.36537e-09
4.36833e-09
4.37123e-09
4.37405e-09
4.3768e-09
4.37946e-09
4.38204e-09
4.38452e-09
4.38691e-09
4.38919e-09
4.39138e-09
4.39347e-09
4.39546e-09
4.39734e-09
4.39913e-09
4.40081e-09
4.40239e-09
4.40387e-09
4.40526e-09
4.40656e-09
4.40777e-09
4.4089e-09
4.40996e-09
4.41094e-09
4.41185e-09
4.41271e-09
4.41351e-09
4.41426e-09
4.41498e-09
4.41566e-09
4.41632e-09
4.41695e-09
4.41757e-09
4.41818e-09
4.4188e-09
4.41942e-09
4.42005e-09
4.4207e-09
4.42137e-09
4.42208e-09
4.4228e-09
4.42358e-09
4.42439e-09
4.42523e-09
4.42613e-09
4.42706e-09
4.42806e-09
4.42907e-09
4.43016e-09
4.43126e-09
4.43245e-09
4.43364e-09
4.43491e-09
4.43618e-09
4.43752e-09
4.43887e-09
4.44026e-09
4.4417e-09
4.44311e-09
4.44461e-09
4.44605e-09
4.44757e-09
4.44904e-09
4.45058e-09
4.45207e-09
4.4536e-09
4.45509e-09
4.4566e-09
4.45809e-09
4.45958e-09
4.46105e-09
4.4625e-09
4.46394e-09
4.46537e-09
4.46677e-09
4.46815e-09
4.46952e-09
4.47086e-09
4.47219e-09
4.4735e-09
4.47478e-09
4.47605e-09
4.4773e-09
4.47854e-09
4.47976e-09
4.48097e-09
4.48216e-09
4.48334e-09
4.48452e-09
4.48568e-09
4.48683e-09
4.48798e-09
4.48913e-09
4.49028e-09
4.49144e-09
4.49258e-09
4.49374e-09
4.4949e-09
4.49606e-09
4.49723e-09
4.4984e-09
4.49959e-09
4.50074e-09
4.50197e-09
4.50309e-09
4.50438e-09
4.50545e-09
4.50681e-09
4.5078e-09
4.5093e-09
4.51015e-09
4.51188e-09
4.51252e-09
4.51479e-09
4.51495e-09
4.22248e-12
2.72998e-11
8.37052e-11
1.54204e-10
2.4089e-10
3.38967e-10
4.46564e-10
5.59689e-10
6.76368e-10
7.94896e-10
9.13603e-10
1.03259e-09
1.15072e-09
1.26811e-09
1.38453e-09
1.49999e-09
1.61447e-09
1.72791e-09
1.84018e-09
1.95133e-09
2.06149e-09
2.17059e-09
2.27867e-09
2.38569e-09
2.49163e-09
2.59646e-09
2.7002e-09
2.80287e-09
2.90448e-09
3.00509e-09
3.10468e-09
3.20329e-09
3.30096e-09
3.39795e-09
3.49449e-09
3.58935e-09
3.68326e-09
3.77641e-09
3.86873e-09
3.96019e-09
4.05084e-09
4.14064e-09
4.22976e-09
4.31818e-09
4.40604e-09
4.49333e-09
4.5801e-09
4.66636e-09
4.75214e-09
4.83748e-09
4.92231e-09
5.00684e-09
5.09072e-09
5.17453e-09
5.25753e-09
5.34125e-09
5.42382e-09
5.50713e-09
5.58935e-09
5.67263e-09
5.7546e-09
5.83718e-09
5.91911e-09
6.00125e-09
6.08301e-09
6.16511e-09
6.24671e-09
6.32891e-09
6.41052e-09
6.4929e-09
6.5746e-09
6.6573e-09
6.73917e-09
6.82227e-09
6.90436e-09
6.98796e-09
7.0703e-09
7.1545e-09
7.23701e-09
7.3222e-09
7.40482e-09
7.48869e-09
7.56861e-09
7.65227e-09
7.73215e-09
7.81528e-09
7.895e-09
7.97658e-09
8.05525e-09
8.13457e-09
8.21134e-09
8.28765e-09
8.36071e-09
8.43186e-09
8.50083e-09
8.56773e-09
8.63016e-09
8.69039e-09
8.74519e-09
8.79669e-09
8.84133e-09
8.88236e-09
8.91548e-09
8.94523e-09
8.96255e-09
8.97566e-09
8.97684e-09
8.97394e-09
8.95676e-09
8.93429e-09
8.89416e-09
8.84989e-09
8.78586e-09
8.71708e-09
8.62607e-09
8.53066e-09
8.40866e-09
8.28102e-09
8.12836e-09
7.94927e-09
7.7682e-09
7.56386e-09
7.35702e-09
7.15883e-09
6.91511e-09
6.67221e-09
6.3926e-09
6.11509e-09
5.69879e-09
5.27475e-09
4.82501e-09
4.38137e-09
3.91982e-09
3.47133e-09
3.01344e-09
2.58758e-09
2.16538e-09
1.85698e-09
1.68639e-09
1.30363e-09
1.01343e-09
9.68042e-10
9.68042e-10
1.06345e-09
1.12014e-09
1.31983e-09
1.7057e-09
2.10696e-09
2.56598e-09
2.98249e-09
3.44385e-09
3.85905e-09
4.31132e-09
4.71784e-09
5.15411e-09
5.54854e-09
5.96405e-09
6.3438e-09
6.73449e-09
7.09756e-09
7.46092e-09
7.80411e-09
8.14048e-09
8.45996e-09
8.7692e-09
9.0632e-09
9.34485e-09
9.61266e-09
9.86684e-09
1.01074e-08
1.03343e-08
1.05477e-08
1.07478e-08
1.09346e-08
1.11085e-08
1.12697e-08
1.14183e-08
1.15548e-08
1.16791e-08
1.17923e-08
1.18935e-08
1.19847e-08
1.20645e-08
1.21349e-08
1.21948e-08
1.22461e-08
1.22875e-08
1.23213e-08
1.2346e-08
1.23639e-08
1.23739e-08
1.23774e-08
1.23736e-08
1.23634e-08
1.23475e-08
1.23261e-08
1.22996e-08
1.22683e-08
1.22325e-08
1.21926e-08
1.21488e-08
1.21014e-08
1.20507e-08
1.19969e-08
1.19403e-08
1.18813e-08
1.18201e-08
1.17569e-08
1.16919e-08
1.16254e-08
1.15575e-08
1.14887e-08
1.14185e-08
1.13485e-08
1.12765e-08
1.12057e-08
1.11327e-08
1.10615e-08
1.09883e-08
1.09171e-08
1.08442e-08
1.07733e-08
1.07014e-08
1.0631e-08
1.05606e-08
1.0491e-08
1.0422e-08
1.03538e-08
1.02865e-08
1.022e-08
1.01544e-08
1.00898e-08
1.00263e-08
9.96374e-09
9.90243e-09
9.84199e-09
9.78299e-09
9.72479e-09
9.66819e-09
9.61233e-09
9.55818e-09
9.50472e-09
9.45307e-09
9.40206e-09
9.35294e-09
9.3044e-09
9.25783e-09
9.21177e-09
9.16772e-09
9.12412e-09
9.08256e-09
9.04137e-09
9.00226e-09
8.96347e-09
8.92676e-09
8.89032e-09
8.856e-09
8.8219e-09
8.78993e-09
8.75813e-09
8.72844e-09
8.69889e-09
8.67142e-09
8.64404e-09
8.61872e-09
8.59344e-09
8.57019e-09
8.54695e-09
8.5257e-09
8.5044e-09
8.48507e-09
8.46565e-09
8.44815e-09
8.43054e-09
8.41479e-09
8.39891e-09
8.38484e-09
8.37062e-09
8.35813e-09
8.34549e-09
8.33451e-09
8.32338e-09
8.31383e-09
8.30414e-09
8.29593e-09
8.2876e-09
8.28066e-09
8.27363e-09
8.26787e-09
8.26205e-09
8.25741e-09
8.25274e-09
8.24917e-09
8.24554e-09
8.2429e-09
8.24024e-09
8.23846e-09
8.23678e-09
8.23583e-09
8.23502e-09
8.23484e-09
8.23491e-09
8.23543e-09
8.23626e-09
8.23744e-09
8.23898e-09
8.24066e-09
8.24286e-09
8.24496e-09
8.24779e-09
8.25028e-09
8.2536e-09
8.25646e-09
8.26019e-09
8.26339e-09
8.26748e-09
8.27095e-09
8.27534e-09
8.27903e-09
8.28364e-09
8.28751e-09
8.29228e-09
8.2963e-09
8.30115e-09
8.3053e-09
8.31018e-09
8.31442e-09
8.31929e-09
8.3236e-09
8.32841e-09
8.33276e-09
8.33749e-09
8.34186e-09
8.34649e-09
8.35084e-09
8.35537e-09
8.3597e-09
8.36411e-09
8.36841e-09
8.37271e-09
8.37696e-09
8.38119e-09
8.38538e-09
8.38956e-09
8.3937e-09
8.39785e-09
8.40195e-09
8.4061e-09
8.41018e-09
8.41435e-09
8.41842e-09
8.42264e-09
8.42673e-09
8.43102e-09
8.43516e-09
8.43953e-09
8.44376e-09
8.44823e-09
8.45258e-09
8.45717e-09
8.46164e-09
8.46636e-09
8.47096e-09
8.47582e-09
8.48055e-09
8.48553e-09
8.49035e-09
8.49545e-09
8.50037e-09
8.50559e-09
8.5106e-09
8.51592e-09
8.521e-09
8.5264e-09
8.53152e-09
8.53693e-09
8.54207e-09
8.54743e-09
8.55257e-09
8.55782e-09
8.5629e-09
8.56799e-09
8.57297e-09
8.57788e-09
8.58268e-09
8.58737e-09
8.59194e-09
8.59638e-09
8.60068e-09
8.60484e-09
8.60884e-09
8.61268e-09
8.61636e-09
8.61986e-09
8.6232e-09
8.62636e-09
8.62934e-09
8.63215e-09
8.63479e-09
8.63725e-09
8.63955e-09
8.64168e-09
8.64366e-09
8.64548e-09
8.64716e-09
8.64871e-09
8.65012e-09
8.65143e-09
8.65262e-09
8.65373e-09
8.65474e-09
8.65569e-09
8.65657e-09
8.6574e-09
8.6582e-09
8.65897e-09
8.65972e-09
8.66047e-09
8.66123e-09
8.662e-09
8.66281e-09
8.66364e-09
8.66454e-09
8.66547e-09
8.66648e-09
8.66754e-09
8.66869e-09
8.6699e-09
8.6712e-09
8.67258e-09
8.67403e-09
8.67558e-09
8.67719e-09
8.67891e-09
8.68068e-09
8.68255e-09
8.68447e-09
8.68649e-09
8.68854e-09
8.69068e-09
8.69285e-09
8.69509e-09
8.69737e-09
8.69965e-09
8.70203e-09
8.70436e-09
8.70679e-09
8.70915e-09
8.71159e-09
8.71398e-09
8.71641e-09
8.7188e-09
8.7212e-09
8.72358e-09
8.72595e-09
8.72829e-09
8.73062e-09
8.73292e-09
8.73519e-09
8.73744e-09
8.73966e-09
8.74185e-09
8.74402e-09
8.74616e-09
8.74828e-09
8.75037e-09
8.75245e-09
8.7545e-09
8.75654e-09
8.75856e-09
8.76058e-09
8.76258e-09
8.76457e-09
8.76655e-09
8.76854e-09
8.77052e-09
8.77252e-09
8.77451e-09
8.77652e-09
8.77854e-09
8.78057e-09
8.78263e-09
8.78469e-09
8.78678e-09
8.78888e-09
8.791e-09
8.79314e-09
8.79527e-09
8.79749e-09
8.7996e-09
8.8019e-09
8.80398e-09
8.80637e-09
8.80839e-09
8.81092e-09
8.81282e-09
8.81558e-09
8.81726e-09
8.82041e-09
8.82161e-09
1.31507e-11
6.57185e-11
1.67945e-10
2.87224e-10
4.17682e-10
5.60514e-10
7.13672e-10
8.73445e-10
1.03757e-09
1.20412e-09
1.37165e-09
1.53924e-09
1.70569e-09
1.87074e-09
2.03422e-09
2.196e-09
2.35603e-09
2.51409e-09
2.66995e-09
2.82372e-09
2.97569e-09
3.1258e-09
3.27403e-09
3.42038e-09
3.5648e-09
3.70732e-09
3.84792e-09
3.98673e-09
4.12371e-09
4.25905e-09
4.39268e-09
4.5248e-09
4.65556e-09
4.78521e-09
4.91303e-09
5.0394e-09
5.16441e-09
5.2883e-09
5.41091e-09
5.53226e-09
5.65236e-09
5.77116e-09
5.8888e-09
6.00521e-09
6.12049e-09
6.2347e-09
6.34787e-09
6.46008e-09
6.57138e-09
6.68185e-09
6.79148e-09
6.90051e-09
7.0087e-09
7.11656e-09
7.22348e-09
7.33067e-09
7.43601e-09
7.54089e-09
7.64303e-09
7.74584e-09
7.84659e-09
7.94792e-09
8.04839e-09
8.14891e-09
8.24891e-09
8.34865e-09
8.44788e-09
8.5468e-09
8.64516e-09
8.74323e-09
8.84067e-09
8.9379e-09
9.03436e-09
9.13068e-09
9.22603e-09
9.32131e-09
9.41534e-09
9.50938e-09
9.60184e-09
9.69456e-09
9.78539e-09
9.87544e-09
9.96539e-09
1.00539e-08
1.01393e-08
1.02246e-08
1.03057e-08
1.03864e-08
1.04627e-08
1.05379e-08
1.06084e-08
1.06768e-08
1.07398e-08
1.07998e-08
1.08523e-08
1.09016e-08
1.09426e-08
1.09797e-08
1.10075e-08
1.10275e-08
1.10383e-08
1.10321e-08
1.10264e-08
1.1019e-08
1.09908e-08
1.09568e-08
1.09023e-08
1.08442e-08
1.0763e-08
1.06767e-08
1.05657e-08
1.03652e-08
1.01303e-08
9.88825e-09
9.61584e-09
9.33945e-09
9.02728e-09
8.71826e-09
8.37067e-09
8.03262e-09
7.65218e-09
7.26954e-09
6.84e-09
6.39283e-09
5.93517e-09
5.47198e-09
4.99417e-09
4.51741e-09
4.02983e-09
3.561e-09
3.10923e-09
2.72468e-09
2.43498e-09
2.26107e-09
1.96633e-09
1.56367e-09
1.32667e-09
1.32667e-09
1.34962e-09
1.60865e-09
1.69055e-09
1.85551e-09
2.19555e-09
2.63195e-09
3.17054e-09
3.69711e-09
4.27673e-09
4.81852e-09
5.40403e-09
5.94562e-09
6.52619e-09
7.05974e-09
7.62501e-09
8.14568e-09
8.6909e-09
9.19533e-09
9.71565e-09
1.02013e-08
1.06921e-08
1.11564e-08
1.16163e-08
1.20547e-08
1.24835e-08
1.28928e-08
1.32895e-08
1.36681e-08
1.40316e-08
1.43785e-08
1.47092e-08
1.50234e-08
1.53211e-08
1.56024e-08
1.58675e-08
1.61166e-08
1.63497e-08
1.65671e-08
1.67689e-08
1.69559e-08
1.71276e-08
1.72855e-08
1.74285e-08
1.75586e-08
1.76744e-08
1.77781e-08
1.78683e-08
1.79473e-08
1.80136e-08
1.80697e-08
1.8114e-08
1.81492e-08
1.81735e-08
1.81894e-08
1.81958e-08
1.81934e-08
1.81827e-08
1.81644e-08
1.8139e-08
1.8107e-08
1.80686e-08
1.80243e-08
1.79743e-08
1.7919e-08
1.78588e-08
1.77941e-08
1.77253e-08
1.76526e-08
1.75765e-08
1.74972e-08
1.74151e-08
1.73304e-08
1.72432e-08
1.71543e-08
1.70632e-08
1.69712e-08
1.6877e-08
1.67828e-08
1.66865e-08
1.65909e-08
1.64932e-08
1.63968e-08
1.62985e-08
1.62019e-08
1.61039e-08
1.60073e-08
1.59103e-08
1.58143e-08
1.57186e-08
1.56238e-08
1.55297e-08
1.54366e-08
1.53445e-08
1.52534e-08
1.51636e-08
1.50748e-08
1.49874e-08
1.49012e-08
1.48166e-08
1.4733e-08
1.46513e-08
1.45706e-08
1.4492e-08
1.44143e-08
1.43388e-08
1.42642e-08
1.41919e-08
1.41205e-08
1.40514e-08
1.39832e-08
1.39174e-08
1.38524e-08
1.379e-08
1.37283e-08
1.36692e-08
1.36107e-08
1.35547e-08
1.34994e-08
1.34466e-08
1.33945e-08
1.33449e-08
1.32959e-08
1.32494e-08
1.32035e-08
1.31601e-08
1.31171e-08
1.30766e-08
1.30366e-08
1.2999e-08
1.29618e-08
1.2927e-08
1.28925e-08
1.28604e-08
1.28286e-08
1.27991e-08
1.27698e-08
1.27427e-08
1.27159e-08
1.26912e-08
1.26668e-08
1.26444e-08
1.26222e-08
1.2602e-08
1.25819e-08
1.25638e-08
1.25458e-08
1.25296e-08
1.25136e-08
1.24993e-08
1.24851e-08
1.24725e-08
1.24601e-08
1.24492e-08
1.24385e-08
1.24291e-08
1.24199e-08
1.24119e-08
1.24041e-08
1.23975e-08
1.23911e-08
1.23858e-08
1.23807e-08
1.23765e-08
1.23727e-08
1.23695e-08
1.23668e-08
1.23646e-08
1.23629e-08
1.23616e-08
1.23608e-08
1.23603e-08
1.23604e-08
1.23605e-08
1.23613e-08
1.23621e-08
1.23635e-08
1.23648e-08
1.23669e-08
1.23686e-08
1.23712e-08
1.23733e-08
1.23762e-08
1.23787e-08
1.23819e-08
1.23846e-08
1.23881e-08
1.23911e-08
1.23947e-08
1.23979e-08
1.24016e-08
1.24049e-08
1.24087e-08
1.24121e-08
1.2416e-08
1.24195e-08
1.24233e-08
1.24269e-08
1.24306e-08
1.24342e-08
1.2438e-08
1.24417e-08
1.24454e-08
1.24491e-08
1.24528e-08
1.24565e-08
1.24603e-08
1.2464e-08
1.24678e-08
1.24716e-08
1.24755e-08
1.24793e-08
1.24834e-08
1.24873e-08
1.24915e-08
1.24955e-08
1.24998e-08
1.2504e-08
1.25085e-08
1.25129e-08
1.25176e-08
1.25222e-08
1.25271e-08
1.25319e-08
1.2537e-08
1.25421e-08
1.25474e-08
1.25526e-08
1.25582e-08
1.25636e-08
1.25693e-08
1.25748e-08
1.25807e-08
1.25864e-08
1.25924e-08
1.25982e-08
1.26042e-08
1.26101e-08
1.26161e-08
1.2622e-08
1.2628e-08
1.26338e-08
1.26397e-08
1.26454e-08
1.2651e-08
1.26566e-08
1.2662e-08
1.26673e-08
1.26724e-08
1.26774e-08
1.26822e-08
1.26868e-08
1.26912e-08
1.26954e-08
1.26994e-08
1.27032e-08
1.27067e-08
1.27101e-08
1.27132e-08
1.27161e-08
1.27187e-08
1.27212e-08
1.27234e-08
1.27255e-08
1.27273e-08
1.27289e-08
1.27304e-08
1.27316e-08
1.27328e-08
1.27337e-08
1.27346e-08
1.27353e-08
1.27359e-08
1.27364e-08
1.27369e-08
1.27373e-08
1.27376e-08
1.27379e-08
1.27383e-08
1.27386e-08
1.27389e-08
1.27392e-08
1.27396e-08
1.27401e-08
1.27406e-08
1.27412e-08
1.27419e-08
1.27426e-08
1.27435e-08
1.27445e-08
1.27455e-08
1.27467e-08
1.27481e-08
1.27495e-08
1.2751e-08
1.27526e-08
1.27544e-08
1.27563e-08
1.27582e-08
1.27603e-08
1.27625e-08
1.27647e-08
1.2767e-08
1.27694e-08
1.27719e-08
1.27744e-08
1.27769e-08
1.27796e-08
1.27822e-08
1.27849e-08
1.27875e-08
1.27902e-08
1.27929e-08
1.27956e-08
1.27983e-08
1.2801e-08
1.28037e-08
1.28063e-08
1.2809e-08
1.28116e-08
1.28142e-08
1.28168e-08
1.28193e-08
1.28218e-08
1.28243e-08
1.28268e-08
1.28293e-08
1.28317e-08
1.28341e-08
1.28365e-08
1.28389e-08
1.28413e-08
1.28436e-08
1.2846e-08
1.28484e-08
1.28508e-08
1.28532e-08
1.28556e-08
1.2858e-08
1.28604e-08
1.28629e-08
1.28654e-08
1.28679e-08
1.28704e-08
1.2873e-08
1.28756e-08
1.28783e-08
1.28809e-08
1.28837e-08
1.28864e-08
1.28892e-08
1.28921e-08
1.28949e-08
1.28978e-08
1.29006e-08
1.29037e-08
1.29065e-08
1.29097e-08
1.29124e-08
1.29158e-08
1.29183e-08
1.2922e-08
1.29241e-08
3.66702e-11
1.24529e-10
2.80719e-10
4.55292e-10
6.29018e-10
8.13513e-10
1.007e-09
1.20705e-09
1.41119e-09
1.61811e-09
1.82584e-09
2.03313e-09
2.23891e-09
2.44258e-09
2.64376e-09
2.84219e-09
3.03762e-09
3.22975e-09
3.41871e-09
3.6048e-09
3.78849e-09
3.96927e-09
4.14762e-09
4.32325e-09
4.49623e-09
4.66656e-09
4.83431e-09
4.99958e-09
5.16235e-09
5.32288e-09
5.48111e-09
5.63725e-09
5.7912e-09
5.94295e-09
6.09229e-09
6.23969e-09
6.38465e-09
6.5276e-09
6.66851e-09
6.8073e-09
6.94415e-09
7.07906e-09
7.21228e-09
7.3438e-09
7.47385e-09
7.60244e-09
7.72954e-09
7.85517e-09
7.97934e-09
8.10205e-09
8.22342e-09
8.34318e-09
8.46191e-09
8.57877e-09
8.69474e-09
8.80884e-09
8.92173e-09
9.03482e-09
9.14501e-09
9.25642e-09
9.36511e-09
9.47325e-09
9.57955e-09
9.68476e-09
9.78849e-09
9.89114e-09
9.99238e-09
1.00925e-08
1.01912e-08
1.02887e-08
1.03847e-08
1.04795e-08
1.05726e-08
1.06646e-08
1.07546e-08
1.08433e-08
1.09298e-08
1.10149e-08
1.10978e-08
1.11786e-08
1.12587e-08
1.13338e-08
1.14022e-08
1.14707e-08
1.15349e-08
1.1597e-08
1.16541e-08
1.1708e-08
1.1756e-08
1.18003e-08
1.18381e-08
1.18715e-08
1.18905e-08
1.18517e-08
1.17943e-08
1.17353e-08
1.16556e-08
1.15739e-08
1.14694e-08
1.13648e-08
1.12351e-08
1.1109e-08
1.09502e-08
1.07829e-08
1.05922e-08
1.03932e-08
1.01702e-08
9.93941e-09
9.68165e-09
9.41617e-09
9.12201e-09
8.82077e-09
8.48964e-09
8.15213e-09
7.7839e-09
7.41139e-09
7.00649e-09
6.60177e-09
6.16484e-09
5.72967e-09
5.27399e-09
4.82348e-09
4.36681e-09
3.94339e-09
3.53734e-09
3.20231e-09
2.94784e-09
2.79834e-09
2.60347e-09
2.17945e-09
1.85051e-09
1.69155e-09
1.69155e-09
1.74831e-09
2.02226e-09
2.21778e-09
2.32367e-09
2.57544e-09
2.98539e-09
3.48781e-09
4.07343e-09
4.6676e-09
5.30872e-09
5.92953e-09
6.59778e-09
7.22699e-09
7.89474e-09
8.52e-09
9.18134e-09
9.79829e-09
1.04459e-08
1.105e-08
1.16799e-08
1.22676e-08
1.28742e-08
1.3442e-08
1.40204e-08
1.45663e-08
1.51124e-08
1.56336e-08
1.61471e-08
1.66386e-08
1.71189e-08
1.75786e-08
1.80243e-08
1.84508e-08
1.88609e-08
1.92533e-08
1.96281e-08
1.99853e-08
2.03248e-08
2.06468e-08
2.09513e-08
2.12384e-08
2.15082e-08
2.17611e-08
2.19972e-08
2.22171e-08
2.24203e-08
2.26083e-08
2.278e-08
2.29374e-08
2.30791e-08
2.32072e-08
2.33204e-08
2.34209e-08
2.35073e-08
2.35819e-08
2.36434e-08
2.36938e-08
2.37325e-08
2.37606e-08
2.37784e-08
2.37861e-08
2.37839e-08
2.37722e-08
2.3752e-08
2.37237e-08
2.36879e-08
2.36448e-08
2.35947e-08
2.35381e-08
2.34752e-08
2.34067e-08
2.33329e-08
2.32541e-08
2.31708e-08
2.30832e-08
2.29918e-08
2.28968e-08
2.27985e-08
2.26974e-08
2.25934e-08
2.24876e-08
2.23791e-08
2.22695e-08
2.21575e-08
2.20451e-08
2.19304e-08
2.18159e-08
2.16995e-08
2.15838e-08
2.14665e-08
2.13503e-08
2.1233e-08
2.11168e-08
2.10003e-08
2.08847e-08
2.07694e-08
2.0655e-08
2.05414e-08
2.04286e-08
2.03171e-08
2.02065e-08
2.00974e-08
1.99893e-08
1.98829e-08
1.97775e-08
1.96741e-08
1.95717e-08
1.94715e-08
1.93724e-08
1.92756e-08
1.91798e-08
1.90865e-08
1.89943e-08
1.89046e-08
1.88159e-08
1.873e-08
1.8645e-08
1.85629e-08
1.84817e-08
1.84033e-08
1.83258e-08
1.82512e-08
1.81775e-08
1.81066e-08
1.80367e-08
1.79696e-08
1.79033e-08
1.784e-08
1.77774e-08
1.77177e-08
1.76587e-08
1.76026e-08
1.75472e-08
1.74945e-08
1.74425e-08
1.73933e-08
1.73447e-08
1.72987e-08
1.72534e-08
1.72106e-08
1.71684e-08
1.71287e-08
1.70896e-08
1.70529e-08
1.70167e-08
1.69829e-08
1.69495e-08
1.69184e-08
1.68878e-08
1.68593e-08
1.68313e-08
1.68053e-08
1.67797e-08
1.67561e-08
1.67329e-08
1.67116e-08
1.66906e-08
1.66714e-08
1.66526e-08
1.66354e-08
1.66185e-08
1.66032e-08
1.65882e-08
1.65746e-08
1.65615e-08
1.65496e-08
1.65381e-08
1.65277e-08
1.65179e-08
1.65088e-08
1.65005e-08
1.64927e-08
1.64857e-08
1.64792e-08
1.64733e-08
1.64679e-08
1.64631e-08
1.64587e-08
1.64549e-08
1.64513e-08
1.64484e-08
1.64457e-08
1.64435e-08
1.64414e-08
1.644e-08
1.64385e-08
1.64376e-08
1.64366e-08
1.64363e-08
1.64357e-08
1.64358e-08
1.64356e-08
1.6436e-08
1.64362e-08
1.64368e-08
1.64372e-08
1.64381e-08
1.64388e-08
1.64398e-08
1.64407e-08
1.64418e-08
1.64429e-08
1.64441e-08
1.64453e-08
1.64467e-08
1.64481e-08
1.64496e-08
1.64511e-08
1.64527e-08
1.64543e-08
1.64561e-08
1.64579e-08
1.64598e-08
1.64618e-08
1.64639e-08
1.64661e-08
1.64685e-08
1.64708e-08
1.64734e-08
1.6476e-08
1.6479e-08
1.64818e-08
1.6485e-08
1.64882e-08
1.64917e-08
1.64952e-08
1.6499e-08
1.65029e-08
1.6507e-08
1.65111e-08
1.65155e-08
1.65199e-08
1.65246e-08
1.65293e-08
1.65342e-08
1.65392e-08
1.65443e-08
1.65494e-08
1.65547e-08
1.656e-08
1.65654e-08
1.65707e-08
1.65761e-08
1.65814e-08
1.65868e-08
1.65921e-08
1.65974e-08
1.66025e-08
1.66076e-08
1.66125e-08
1.66173e-08
1.66219e-08
1.66264e-08
1.66307e-08
1.66347e-08
1.66386e-08
1.66423e-08
1.66457e-08
1.66489e-08
1.66518e-08
1.66545e-08
1.66569e-08
1.66591e-08
1.6661e-08
1.66627e-08
1.66642e-08
1.66654e-08
1.66664e-08
1.66671e-08
1.66677e-08
1.6668e-08
1.66682e-08
1.66682e-08
1.6668e-08
1.66677e-08
1.66673e-08
1.66668e-08
1.66661e-08
1.66655e-08
1.66647e-08
1.6664e-08
1.66632e-08
1.66625e-08
1.66617e-08
1.6661e-08
1.66604e-08
1.66598e-08
1.66593e-08
1.66588e-08
1.66585e-08
1.66583e-08
1.66583e-08
1.66583e-08
1.66585e-08
1.66588e-08
1.66593e-08
1.66599e-08
1.66607e-08
1.66616e-08
1.66626e-08
1.66638e-08
1.66651e-08
1.66666e-08
1.66681e-08
1.66698e-08
1.66716e-08
1.66735e-08
1.66754e-08
1.66775e-08
1.66796e-08
1.66818e-08
1.6684e-08
1.66863e-08
1.66887e-08
1.6691e-08
1.66934e-08
1.66958e-08