# vtk DataFile Version 2.0
gauge_2
ASCII
DATASET POLYDATA
POINTS 43 double
0.2 0.0359992 0.005
0.2 0.0419991 0.005
0.2 0.047999 0.005
0.2 0.0607609 0.005
0.2 0.0735228 0.005
0.2 0.0862847 0.005
0.2 0.0990467 0.005
0.2 0.111809 0.005
0.2 0.124571 0.005
0.2 0.137332 0.005
0.2 0.150094 0.005
0.2 0.162856 0.005
0.2 0.175618 0.005
0.2 0.18838 0.005
0.2 0.201142 0.005
0.2 0.213904 0.005
0.2 0.226666 0.005
0.2 0.239428 0.005
0.2 0.25219 0.005
0.2 0.264952 0.005
0.2 0.277714 0.005
0.2 0.290476 0.005
0.2 0.303238 0.005
0.2 0.315999 0.005
0.2 0.328761 0.005
0.2 0.341523 0.005
0.2 0.354285 0.005
0.2 0.367047 0.005
0.2 0.379809 0.005
0.2 0.392571 0.005
0.2 0.405333 0.005
0.2 0.418095 0.005
0.2 0.430857 0.005
0.2 0.443619 0.005
0.2 0.456381 0.005
0.2 0.469143 0.005
0.2 0.481905 0.005
0.2 0.494666 0.005
0.2 0.507428 0.005
0.2 0.52019 0.005
0.2 0.532952 0.005
0.2 0.545714 0.005
0.2 0.558476 0.005
POINT_DATA 43
 FIELD attributes 1
alpha.water 1 43 float
1 1 1 1 0.99999 0.923565 0.4712 0.0476319 1.10871e-05 0.000153289 0.000457884 0.000598576 0.00050782 0.000686546 0.000519346 5.09157e-05 5.27683e-13 4.75691e-13 2.85873e-13 6.35639e-14 5.32571e-15 9.77156e-16 3.44331e-16 1.28696e-16 3.80931e-17 1.04864e-17 2.56413e-18 6.48983e-19 1.56717e-19 3.5667e-20 7.663e-21 1.68704e-21 3.90944e-22 8.89335e-23 1.84203e-23 3.37049e-24 5.10764e-25 6.26117e-26 6.10052e-27 3.595e-28 1.1013e-29 1.20095e-31 3.20819e-35
