/*--------------------------------*- C++ -*----------------------------------*\
| =========                 |                                                 |
| \\      /  F ield         | OpenFOAM: The Open Source CFD Toolbox           |
|  \\    /   O peration     | Version:  2012                                  |
|   \\  /    A nd           | Website:  www.openfoam.com                      |
|    \\/     M anipulation  |                                                 |
\*---------------------------------------------------------------------------*/
FoamFile
{
    version     2.0;
    format      ascii;
    class       volScalarField;
    location    "0.46";
    object      maxKappa;
}
// * * * * * * * * * * * * * * * * * * * * * * * * * * * * * * * * * * * * * //

dimensions      [0 0 0 0 0 0 0];


internalField   nonuniform List<scalar> 
2268
(
1.44919e-06
2.83611e-06
4.14518e-06
5.42205e-06
6.71706e-06
8.02806e-06
9.13559e-06
1.01773e-05
1.11361e-05
1.18906e-05
1.2546e-05
1.30814e-05
1.34696e-05
1.35569e-05
1.35569e-05
1.33636e-05
1.29695e-05
1.23172e-05
1.138e-05
1.00866e-05
8.30216e-06
6.15433e-06
3.63999e-06
1.77186e-06
2.98868e-06
4.24886e-06
5.50903e-06
6.79057e-06
8.079e-06
9.17523e-06
1.02236e-05
1.11789e-05
1.19169e-05
1.26034e-05
1.31355e-05
1.34697e-05
1.35838e-05
1.35838e-05
1.34385e-05
1.306e-05
1.24035e-05
1.14258e-05
1.00947e-05
8.28168e-06
6.13872e-06
3.79508e-06
2.24268e-06
3.27921e-06
4.45161e-06
5.67595e-06
6.93294e-06
8.18058e-06
9.25964e-06
1.0324e-05
1.12725e-05
1.20236e-05
1.27239e-05
1.32481e-05
1.35539e-05
1.36947e-05
1.36947e-05
1.3627e-05
1.32939e-05
1.26829e-05
1.18057e-05
1.06279e-05
9.01952e-06
7.0737e-06
4.9715e-06
2.78841e-06
3.67432e-06
4.73862e-06
5.91467e-06
7.13953e-06
8.33108e-06
9.38491e-06
1.04598e-05
1.13873e-05
1.21474e-05
1.28438e-05
1.33369e-05
1.36508e-05
1.38034e-05
1.38034e-05
1.37581e-05
1.34458e-05
1.28429e-05
1.19473e-05
1.08483e-05
9.44552e-06
8.07505e-06
6.6058e-06
3.37879e-06
4.14468e-06
5.09525e-06
6.21394e-06
7.40273e-06
8.53519e-06
9.57118e-06
1.06591e-05
1.15632e-05
1.23481e-05
1.30547e-05
1.35473e-05
1.38856e-05
1.40537e-05
1.40537e-05
1.40325e-05
1.37906e-05
1.33004e-05
1.2565e-05
1.16278e-05
1.04079e-05
9.17626e-06
7.83285e-06
4.00196e-06
4.66807e-06
5.51198e-06
6.57466e-06
7.72246e-06
8.7951e-06
9.81498e-06
1.08889e-05
1.17447e-05
1.2539e-05
1.32517e-05
1.37127e-05
1.40584e-05
1.4243e-05
1.42438e-05
1.42438e-05
1.40353e-05
1.35987e-05
1.29088e-05
1.21197e-05
1.1135e-05
1.06011e-05
1.01805e-05
4.63487e-06
5.21839e-06
5.97413e-06
6.97902e-06
8.08054e-06
9.1016e-06
1.01169e-05
1.11706e-05
1.1996e-05
1.28443e-05
1.3571e-05
1.40506e-05
1.44258e-05
1.46204e-05
1.4621e-05
1.4621e-05
1.44591e-05
1.41346e-05
1.36489e-05
1.31024e-05
1.23693e-05
1.20238e-05
1.16227e-05
5.29688e-06
5.81325e-06
6.49505e-06
7.4469e-06
8.49957e-06
9.47057e-06
1.04734e-05
1.1477e-05
1.22662e-05
1.31522e-05
1.3849e-05
1.43118e-05
1.47009e-05
1.48988e-05
1.49402e-05
1.49402e-05
1.48311e-05
1.46026e-05
1.41868e-05
1.38351e-05
1.37745e-05
1.49532e-05
1.49532e-05
0.000145962
0.000145962
0.00013077
0.000100085
8.72447e-05
0.000124588
0.000258271
0.00052338
0.000987658
0.00198281
0.00339582
0.00439669
0.00451685
0.00451685
0.00400752
0.00376598
0.0028681
0.00140405
0.00069946
0.000168879
0.000168879
0.000151835
0.000110473
9.64556e-05
0.000141623
0.000288226
0.000561137
0.00101225
0.00174287
0.00267635
0.0033798
0.00355336
0.00355336
0.00336093
0.00322868
0.00264571
0.00162349
0.000679148
0.000171157
0.000173571
0.000173571
0.000127141
0.000107269
0.000148316
0.000293171
0.000533793
0.000937905
0.00147945
0.00190857
0.00215919
0.0024695
0.00286054
0.00307944
0.00307944
0.00289075
0.00203455
0.000863483
0.00023816
0.00023816
0.000215811
0.000141502
0.000128849
0.000178768
0.000334036
0.000565257
0.000916045
0.00129335
0.00139751
0.00139751
0.00129123
0.00171113
0.00205007
0.00205007
0.00197331
0.00189153
0.000979178
0.000257772
0.000273427
0.000273427
0.000204332
0.000169815
0.00021195
0.000370297
0.000579912
0.000891615
0.00123994
0.00132228
0.00132228
0.00102602
0.00114887
0.00133163
0.00147008
0.00182054
0.00182054
0.00108693
0.000365247
0.000365247
0.000337249
0.000228249
0.000221
0.000264639
0.000423572
0.000610731
0.000886614
0.00118123
0.00123651
0.00123651
0.000941547
0.000691928
0.000760776
0.00108196
0.00160157
0.00160787
0.00160787
0.000384782
0.000384782
0.000291337
0.000306912
0.000306912
0.000329352
0.000473528
0.000638396
0.000885026
0.0011709
0.00126135
0.00126135
0.00101367
0.000589953
0.000638953
0.0011172
0.00172639
0.00213226
0.00213226
0.000419241
0.00042574
0.000455473
0.000455473
0.000405886
0.000419698
0.000535493
0.000674439
0.000881714
0.0011349
0.00124418
0.00124418
0.0011375
0.000702171
0.000642425
0.000907118
0.0015219
0.00209444
0.00209444
1.20372e-05
1.27007e-05
1.31973e-05
1.43069e-05
1.55867e-05
1.68363e-05
1.76622e-05
1.89497e-05
1.91621e-05
1.95892e-05
1.93551e-05
1.83447e-05
1.77419e-05
1.67866e-05
1.67066e-05
1.61305e-05
1.64387e-05
1.58639e-05
1.63328e-05
1.67014e-05
1.83807e-05
2.20879e-05
2.44141e-05
9.17892e-05
9.41786e-05
9.68413e-05
0.000102796
0.000108668
0.000114094
0.000116982
0.000121679
0.000118684
0.000116671
0.000106971
8.15129e-05
6.04681e-05
4.6052e-05
3.74873e-05
2.88045e-05
2.00893e-05
1.71095e-05
1.73637e-05
1.72034e-05
1.85993e-05
2.06185e-05
2.44141e-05
0.000200677
0.000202876
0.000213138
0.000225968
0.000238898
0.00025161
0.00026539
0.000275421
0.000282611
0.000285116
0.000285116
0.000280264
0.00026633
0.000230639
0.000212408
0.000177437
7.33218e-05
4.28563e-05
3.43563e-05
2.01233e-05
1.99692e-05
2.20887e-05
2.36189e-05
0.000212027
0.000208163
0.000209071
0.000211052
0.000216087
0.000221533
0.000228565
0.000234907
0.000236653
0.000239049
0.000235441
0.000221736
0.000207773
0.000187174
0.000327094
0.000350653
0.000350653
0.00030313
0.000224515
6.49607e-05
4.64221e-05
3.7448e-05
2.34126e-05
0.000213473
0.000210272
0.000208293
0.000207684
0.000202726
0.000198188
0.000193364
0.000185099
0.000174373
0.000162461
0.000148781
0.000127967
0.000148251
0.000236693
0.000283036
0.000252789
0.000348378
0.000352177
0.000352608
0.000354425
0.000317461
0.000231618
6.49346e-05
0.000214606
0.000213393
0.00021079
0.000208304
0.00020418
0.000197591
0.000189117
0.000180345
0.000169271
0.000160532
0.000155168
0.000160185
0.000179518
0.000193391
0.000208657
0.000156971
0.000238246
0.000279829
0.000331835
0.000361551
0.00037184
0.000375108
0.000390288
0.000216033
0.000214757
0.000210944
0.00020853
0.000202245
0.00019643
0.000187081
0.000181372
0.000171156
0.000168397
0.000165233
0.00016942
0.000164543
0.000187992
0.000183901
0.000183901
0.00018623
0.000245811
0.000304211
0.000342112
0.000348597
0.000376054
0.000390288
0.000219142
0.00021756
0.000214688
0.000212289
0.000207105
0.000202684
0.000195595
0.000190861
0.000183722
0.000179713
0.000177806
0.000179294
0.000173926
0.000173756
0.000164785
0.000163556
0.00015391
0.000174693
0.000235197
0.0002792
0.000353357
0.000385805
0.000385805
0.000222811
0.000221419
0.000219422
0.000217357
0.000212681
0.000209457
0.000202191
0.000198954
0.000191281
0.000187329
0.000183268
0.000183022
0.000175642
0.000175713
0.000168697
0.000163593
0.00015368
0.00014663
0.00016809
0.000192157
0.000263191
0.000341369
0.000376883
0.000228545
0.000227579
0.000225712
0.000224065
0.000219584
0.000217402
0.000210988
0.000208648
0.000202085
0.00019851
0.000193349
0.000192984
0.000185878
0.000185895
0.000177065
0.000173482
0.000165563
0.000159254
0.000158817
0.000154783
0.000176583
0.000234147
0.000280919
0.000234948
0.000234234
0.000232532
0.00023115
0.000227055
0.000225442
0.000219913
0.000217706
0.000212605
0.000209223
0.000204884
0.00020416
0.000199282
0.000199819
0.000193449
0.000191732
0.000183489
0.000179755
0.000173652
0.000170583
0.000162414
0.000164622
0.000167994
0.000242565
0.000241974
0.000240442
0.000239458
0.000235835
0.000234856
0.000230124
0.000228417
0.000224212
0.000221825
0.000217751
0.000217103
0.00021242
0.000212303
0.000206391
0.000204917
0.000197932
0.000195018
0.000189562
0.000188954
0.000178344
0.000179844
0.00016185
0.000251159
0.000250681
0.000249293
0.000248638
0.000245455
0.000244771
0.000240773
0.000239094
0.000235797
0.000233551
0.00023016
0.000228906
0.000224691
0.000223932
0.000218715
0.000217449
0.000210827
0.000209075
0.000203457
0.000202438
0.000192937
0.000196885
0.000180373
0.000260739
0.000260421
0.000259298
0.00025893
0.000256137
0.00025574
0.000252334
0.000250876
0.000248028
0.000246105
0.000242989
0.0002418
0.000238013
0.000236952
0.000232526
0.000231121
0.000226044
0.000224849
0.000220313
0.000219834
0.000212842
0.000217578
0.000204064
0.000271129
0.000270959
0.000269973
0.000269816
0.000267336
0.000267
0.000264178
0.000262818
0.000260619
0.00025889
0.000256476
0.000255232
0.000252174
0.000251343
0.00024784
0.000247205
0.000243431
0.000243287
0.000240113
0.000240407
0.000236283
0.000241317
0.000231005
0.000282601
0.000282547
0.000281561
0.000281605
0.000279394
0.000279224
0.000276881
0.000275776
0.000274034
0.000272627
0.000270718
0.000269785
0.000267501
0.000266959
0.000264659
0.000264484
0.000262446
0.000262991
0.000261779
0.000263043
0.00026245
0.0002677
0.00026256
0.000294772
0.00029479
0.000293874
0.000294029
0.000292146
0.000292049
0.000290242
0.000289333
0.000288096
0.000286857
0.000285627
0.000285001
0.00028356
0.000283575
0.000282322
0.00028302
0.000282463
0.000284025
0.00028491
0.000287435
0.000290494
0.000295961
0.000297356
0.000307864
0.000307962
0.000307076
0.000307339
0.000305717
0.000305725
0.000304315
0.000303656
0.000302876
0.000302037
0.000301419
0.000301222
0.000300579
0.000301144
0.000301008
0.000302503
0.000303474
0.000306132
0.000309103
0.000313174
0.000319558
0.000326085
0.000334211
0.000321947
0.000322111
0.000321169
0.000321466
0.000320071
0.000320149
0.000319126
0.000318645
0.000318349
0.000317879
0.000317931
0.00031821
0.000318375
0.000319687
0.000320549
0.00032306
0.00032536
0.000329364
0.000334207
0.000340161
0.000349343
0.000357845
0.000371854
0.000336636
0.000336856
0.000335901
0.000336219
0.000335071
0.000335239
0.000334573
0.000334367
0.000334547
0.000334521
0.00033519
0.000336012
0.000336954
0.000339023
0.000340827
0.000344231
0.000347757
0.000352945
0.000359426
0.000367216
0.000378817
0.000389933
0.000408913
0.000352205
0.000352462
0.000351503
0.000351797
0.000350886
0.000351069
0.000350704
0.000350708
0.000351402
0.000351783
0.000353119
0.00035452
0.000356221
0.000359155
0.000361772
0.000366171
0.00037079
0.000377196
0.000385167
0.000394796
0.00040851
0.000422231
0.000445525
0.00036803
0.000368315
0.00036738
0.000367661
0.000367007
0.000367238
0.000367214
0.000367419
0.000368597
0.000369288
0.00037128
0.000373166
0.000375611
0.000379335
0.00038271
0.000388057
0.000393736
0.000401363
0.00041081
0.000422244
0.000437762
0.000454144
0.00048083
0.000384157
0.000384373
0.00038356
0.000383779
0.000383345
0.000383608
0.000383913
0.000384237
0.000385849
0.000386723
0.000389402
0.000391653
0.000394942
0.000399486
0.000403714
0.000410209
0.000417027
0.000426073
0.000436963
0.00045008
0.000467175
0.000485914
0.000515158
0.000399855
0.000399903
0.000399387
0.000399537
0.000399354
0.000399692
0.00040029
0.000400663
0.00040259
0.000403567
0.000406834
0.000409313
0.00041342
0.000418611
0.000423624
0.000431172
0.000438959
0.000449371
0.000461361
0.000476006
0.000494388
0.000515371
0.000546562
0.000414851
0.000414682
0.000414529
0.000414554
0.000414619
0.000415026
0.000415926
0.000416393
0.000418512
0.000419439
0.000423149
0.000425684
0.000430479
0.000436016
0.000441651
0.000450055
0.000458479
0.000470085
0.000482568
0.000498714
0.000517828
0.000541815
0.000573962
0.000428735
0.000428421
0.000428551
0.000428495
0.000428806
0.000429318
0.000430502
0.000431203
0.000433609
0.000434597
0.000438649
0.000441144
0.000446586
0.000452198
0.000458495
0.000467342
0.000476222
0.000488452
0.000501046
0.000518449
0.000537998
0.000566938
0.000596981
0.000441182
0.000440841
0.00044111
0.000441073
0.000441614
0.000442231
0.000443627
0.00044456
0.00044729
0.000448558
0.00045298
0.000455406
0.000461236
0.000466376
0.000473019
0.00048157
0.000490529
0.00050236
0.00051605
0.000534273
0.000557001
0.000586973
0.000611977
0.000452113
0.000451812
0.000452148
0.000452222
0.000452999
0.000453787
0.00045548
0.00045675
0.000459859
0.000461579
0.000466483
0.000469079
0.000475317
0.000479809
0.000486686
0.000494325
0.000503017
0.000513498
0.000525838
0.000543474
0.000566403
0.000596984
0.000619613
0.000461479
0.00046123
0.000461617
0.00046183
0.000462847
0.000463841
0.000465895
0.000467568
0.000471135
0.000473367
0.000478685
0.000481561
0.000488174
0.000492172
0.000499263
0.000505414
0.000513257
0.000523136
0.000536441
0.000552234
0.000573906
0.000603095
0.000619613
0.000469319
0.000469108
0.000469553
0.00046989
0.000471168
0.000472383
0.000474879
0.000476991
0.000481097
0.00048393
0.000489761
0.000493111
0.000500131
0.000503925
0.000511173
0.000515891
0.000522875
0.000528656
0.000537821
0.000548548
0.000567222
0.000593322
0.000616778
0.000475745
0.000475553
0.000476058
0.000476494
0.00047806
0.000479484
0.000482477
0.000484999
0.000489715
0.000493147
0.000499562
0.000503511
0.000510998
0.000514793
0.000522207
0.000525727
0.000532024
0.000535746
0.000541564
0.000549638
0.000563715
0.000584845
0.000605997
0.000480926
0.000480722
0.00048128
0.000481777
0.00048363
0.000485225
0.000488723
0.000491593
0.000496946
0.00050092
0.000507989
0.000512523
0.00052051
0.000524534
0.000532259
0.00053499
0.000540706
0.00054141
0.000543625
0.000542731
0.000552216
0.000563033
0.00058665
0.000485033
0.000484804
0.000485416
0.00048595
0.000488074
0.000489801
0.000493767
0.000496907
0.000502885
0.000507271
0.000514986
0.000519961
0.000528462
0.000532668
0.000540582
0.000542593
0.000547646
0.000545831
0.000545269
0.000542731
0.000543796
0.000544375
0.000562166
0.000488224
0.000487971
0.000488639
0.000489188
0.000491533
0.000493352
0.000497708
0.000501042
0.000507543
0.000512189
0.000520471
0.000525698
0.000534654
0.000538912
0.000546944
0.000548313
0.000552742
0.000548735
0.000545673
0.000537403
0.000532103
0.000522301
0.00053071
0.000490657
0.000490399
0.00049112
0.000491671
0.000494171
0.000496043
0.000500671
0.000504733
0.000510949
0.00051732
0.000524385
0.000531784
0.000538865
0.000545054
0.000550809
0.000552711
0.0005549
0.000552517
0.000548118
0.000538276
0.000522577
0.000501855
0.000495058
0.000492403
0.000492141
0.000492893
0.000493433
0.000496025
0.000497901
0.000502682
0.000506785
0.000513167
0.00051915
0.000526796
0.000533027
0.000541289
0.00054495
0.000552618
0.000552217
0.00055494
0.000548488
0.000542888
0.000524893
0.000504639
0.000473068
0.000456332
0.000493494
0.000493244
0.000494006
0.000494512
0.00049713
0.000499426
0.000503761
0.000508985
0.000515012
0.000521982
0.000529161
0.000536569
0.000543214
0.000548985
0.000552652
0.00055375
0.00055494
0.000550444
0.000541431
0.000524427
0.000497862
0.000461614
0.000423043
0.000494097
0.000493817
0.000494539
0.000494981
0.000497564
0.000499829
0.000504053
0.000508789
0.000514406
0.000520885
0.000527641
0.000534011
0.000541662
0.000544742
0.000551883
0.000550373
0.000551857
0.000540684
0.000529651
0.0005024
0.000467648
0.000417784
0.00037411
0.000494097
0.000493817
0.000494539
0.000494981
0.000497564
0.000500063
0.000504081
0.000509226
0.000514979
0.000521605
0.000528315
0.000535099
0.000540899
0.000545584
0.000549917
0.000547833
0.000547999
0.000540943
0.000527796
0.000504431
0.000467311
0.00041425
0.000353979
0.000494065
0.000493719
0.000494386
0.000494728
0.0004972
0.000498746
0.000503361
0.000506687
0.000513081
0.000517514
0.000525508
0.000529561
0.000537878
0.000539674
0.000545481
0.000541954
0.0005411
0.000526263
0.000510099
0.000475145
0.000429315
0.000363939
0.000289512
0.000493826
0.000493427
0.000494012
0.000494224
0.000496563
0.000498227
0.000502351
0.000506398
0.000511532
0.000517364
0.000523182
0.000528895
0.000534505
0.000536761
0.000540752
0.000537362
0.000534529
0.000525813
0.000508506
0.000478063
0.000429289
0.000357546
0.000268079
0.00049281
0.000492342
0.000492798
0.000492831
0.000494968
0.000496071
0.00050019
0.000502511
0.000508537
0.000511725
0.000519011
0.000521892
0.000528844
0.000529057
0.000533446
0.000528031
0.000525485
0.000508512
0.000489129
0.000453827
0.000403066
0.000329105
0.000242735
2.26002e-05
1.94393e-05
1.75885e-05
6.89163e-05
2.44136e-05
2.4314e-05
2.46958e-05
2.95259e-05
2.44136e-05
2.48233e-05
2.52783e-05
2.50942e-05
2.43443e-05
2.48233e-05
2.52783e-05
2.50942e-05
5.36527e-05
5.18098e-05
4.84454e-05
4.10157e-05
0.000381242
0.000359345
0.000321476
0.000247944
0.000395063
0.00040227
0.000400715
0.000400058
0.000397974
0.000412849
0.000411909
0.000409455
0.000397974
0.000412849
0.000411909
0.000415175
0.000323974
0.000355496
0.000386961
0.000415175
0.000187433
0.000203225
0.000233491
0.000264302
0.000157588
0.000148815
0.000145614
0.000143894
0.000181027
0.000173839
0.00017206
0.000163151
0.000209227
0.000202627
0.000204465
0.000197305
0.000238967
0.000233772
0.000238541
0.000233593
0.000273531
0.000270138
0.000278814
0.000275854
0.000309393
0.000309055
0.00032034
0.000319564
0.000347042
0.000350609
0.000362801
0.000365169
0.000385949
0.000392945
0.000405066
0.000411581
0.000425328
0.000434878
0.000448126
0.000458414
0.000464031
0.000475942
0.000490702
0.000504315
0.000501249
0.00051502
0.0005312
0.000547308
0.000536852
0.000552098
0.000569376
0.000587369
0.000569618
0.000586443
0.000604937
0.000625317
0.00059906
0.000617799
0.000638499
0.000662523
0.000624564
0.000645557
0.000669527
0.000697676
0.000642175
0.000665706
0.000693541
0.000725606
0.000651804
0.000677442
0.000708832
0.000744283
0.000651804
0.000677442
0.000711456
0.000750882
0.000649454
0.000676468
0.000711456
0.000751939
0.000638078
0.00066719
0.000706945
0.000751939
0.00061694
0.000648541
0.000692403
0.000742416
0.000588465
0.00062195
0.000667722
0.000721701
0.000550369
0.000584659
0.000630377
0.000688228
0.000507577
0.000542097
0.000588841
0.000649099
0.000461318
0.000493751
0.000541539
0.000600379
0.000419506
0.000449656
0.000499169
0.000558691
0.000365483
0.000391997
0.000439874
0.000499452
0.000323204
0.000351284
0.000400293
0.000461683
0.000285554
0.00032157
0.000374633
0.000438418
0.000240202
0.000324514
0.000416641
0.000510302
0.000240202
0.000324514
0.000416641
0.000510302
0.000408105
0.000538494
0.000538494
0.000530804
0.000452135
0.000546445
0.00062438
0.000727507
0.0008867
0.00109645
0.00122092
0.00122402
0.00122402
0.000951503
0.000806195
0.000937449
0.00138609
0.00140582
0.00137427
0.000142575
0.000174677
0.000260538
0.000413325
0.000389834
0.000604384
0.000766679
0.000798978
0.000867579
0.0009884
0.00108564
0.00115193
0.00115193
0.00104661
0.000906152
0.000751912
0.00117804
0.00140582
0.000724125
3.60287e-05
3.26023e-05
4.47941e-05
0.000261483
0.000326615
0.000547738
0.000823411
0.000860644
0.000891931
0.000959952
0.000999587
0.00103446
0.00103446
0.00094495
0.000815324
0.000647113
0.00101966
0.00124873
0.000661399
2.79295e-05
2.79295e-05
3.01309e-05
0.000120939
0.000270761
0.000337487
0.000806637
0.00095047
0.00095047
0.000886382
0.000886776
0.000916251
0.000924704
0.000860246
0.000760578
0.000545137
0.000873798
0.00111529
0.000606318
2.83436e-05
2.686e-05
2.54056e-05
3.6437e-05
0.000222301
0.000283409
0.000479547
0.000872011
0.000968239
0.000972404
0.000972404
0.000932082
0.000904332
0.00082474
0.000750664
0.000492083
0.000773244
0.000990322
0.000513066
9.67904e-05
5.76109e-05
4.25277e-05
2.52727e-05
4.43884e-05
0.00030908
0.000584749
0.000732169
0.000876469
0.000956337
0.000985895
0.00100461
0.00100461
0.000978436
0.000955128
0.000802363
0.000860851
0.00090518
0.000353681
0.000438594
0.000438594
0.000267218
6.48377e-05
5.38034e-05
4.55872e-05
0.000225887
0.000607855
0.000997625
0.00122549
0.00130774
0.00130774
0.00115662
0.00114237
0.00118757
0.00123371
0.00123371
0.000780234
0.000136973
0.000387793
0.000476175
0.000516617
0.000516617
0.00037926
9.36191e-05
7.39272e-05
7.47713e-05
0.000220098
0.00056549
0.000710704
0.000757265
0.00072971
0.000762586
0.000762738
0.000802598
0.000585245
0.000210722
4.66697e-05
0.000437623
0.000437623
0.000415098
0.000585772
0.000635005
0.000635005
0.00054414
0.000387077
0.000182282
0.000114773
0.000111612
0.000110937
0.000116969
0.000121201
0.000119102
0.000112452
8.85017e-05
4.22094e-05
2.33572e-05
0.000495003
0.000495003
0.000432433
0.000381663
0.000559915
0.000779959
0.000841328
0.000841328
0.000816219
0.000787173
0.000765639
0.000747744
0.000709924
0.000621077
0.000485159
0.000220422
6.4311e-05
3.96189e-05
2.58059e-05
0.000337832
0.00036832
0.000318342
0.000294654
0.000272891
0.000413632
0.000628631
0.000917558
0.00106135
0.00115395
0.0012117
0.001241
0.001241
0.00120477
0.00109142
0.000803432
0.000340413
7.02622e-05
3.96015e-05
0.00017962
0.000221195
0.000227908
0.000200602
0.000142813
0.0001362
0.00025207
0.000383112
0.000632569
0.000971088
0.00142094
0.00177025
0.00173002
0.0014059
0.00102912
0.000994168
0.000653902
0.000107669
7.50722e-05
0.000156144
0.000144215
0.000152272
0.000174173
0.000212721
0.000354173
0.000613277
0.000934747
0.00140104
0.0022255
0.00297277
0.00318403
0.00318403
0.0025719
0.00167736
0.00093007
0.000386627
5.51008e-05
7.50722e-05
0.000200505
0.000199218
0.00021365
0.000245426
0.000317878
0.00043802
0.000631532
0.00105765
0.00173022
0.00234065
0.00242103
0.00234819
0.0018582
0.00130501
0.000715747
0.000333067
9.85707e-05
4.05231e-05
7.28518e-05
0.000244413
0.000247516
0.000273098
0.000314174
0.000398943
0.000540268
0.000769787
0.0011532
0.00164046
0.00184047
0.00197915
0.00123895
0.000805043
0.000471917
0.0001357
6.19714e-05
2.38202e-05
3.05878e-05
5.3366e-05
0.000301274
0.000320864
0.000360039
0.000413317
0.000510173
0.000654806
0.00090208
0.00124704
0.00167512
0.00174479
0.0015866
0.00101443
0.000798466
0.000468676
0.000143296
6.52938e-05
3.1188e-05
8.68742e-05
0.000212317
0.000355194
0.000384119
0.000432662
0.000498079
0.000600181
0.000746572
0.000974166
0.00129309
0.00171091
0.00176076
0.00174879
0.00106645
0.000982517
0.000982517
0.000710353
0.000327383
6.82001e-05
0.000240662
0.000395613
0.000415738
0.000454501
0.000512537
0.000588292
0.000697501
0.000846636
0.00105372
0.00133907
0.00173322
0.0020089
0.0020089
0.0014863
0.00070328
0.000843488
0.000843488
0.000623895
0.000282958
0.000232736
0.000395613
0.000470338
0.000517281
0.000583439
0.000671603
0.000788475
0.000944316
0.00113938
0.00138069
0.00168727
0.00200791
0.00200791
0.00195226
0.0013834
0.00070985
0.000776899
0.000776899
0.000496622
0.000255636
0.000388123
0.000529938
0.000585638
0.000662742
0.000763974
0.000893282
0.00105689
0.00125549
0.00148447
0.00173304
0.00198002
0.00203119
0.00203119
0.00174211
0.00127105
0.000673507
0.00057187
0.000501435
0.000307984
0.000327846
0.000588498
0.000652914
0.000738461
0.000848572
0.000981219
0.00114154
0.00133396
0.00155368
0.00177952
0.0020054
0.00209396
0.00209396
0.00193005
0.00155439
0.000905852
0.000490957
0.000468768
0.00027048
0.000292725
0.000647059
0.000719408
0.000812073
0.000925956
0.00105447
0.00120556
0.00137863
0.00157933
0.00178324
0.00197729
0.00209485
0.00209485
0.00204292
0.00183477
0.00148213
0.000852266
0.00045729
0.000280467
0.000248754
0.000698194
0.000778702
0.000877606
0.000991322
0.0011125
0.00124759
0.00139204
0.00155571
0.00173084
0.0019137
0.00204983
0.00204983
0.00202662
0.0018855
0.00159333
0.00117649
0.000628305
0.000262197
0.000138691
0.000750772
0.0008411
0.000947032
0.00106172
0.00117392
0.00129087
0.00140911
0.00153585
0.00166507
0.00182067
0.00199078
0.00204661
0.00204661
0.00199414
0.00178433
0.00148755
0.000742894
0.000293422
0.000293422
0.000800256
0.000899342
0.0010114
0.00112306
0.00122548
0.00132096
0.0014178
0.00152389
0.0016323
0.00173963
0.00188131
0.00198108
0.00198259
0.00198259
0.00186912
0.00164887
0.00113673
0.000393052
0.000219706
0.000854064
0.000962552
0.00107989
0.00119308
0.00128485
0.00135806
0.00143598
0.00153818
0.00164492
0.00172213
0.00183015
0.00195329
0.00200679
0.00200679
0.00190504
0.00167982
0.0011624
0.000408722
0.000288126
0.000900001
0.00101962
0.00115183
0.00126943
0.00134546
0.00140084
0.0014736
0.00159211
0.00170987
0.00177127
0.00183984
0.00194967
0.00202549
0.00202549
0.00198421
0.00180368
0.00130467
0.000585172
0.000377389
0.000940895
0.00108073
0.00122919
0.00133544
0.0013802
0.00142
0.00149649
0.0016476
0.00180753
0.00187999
0.00193029
0.00204404
0.00211253
0.00211253
0.00203253
0.0018117
0.00124992
0.000524011
0.000473309
0.000970938
0.00112799
0.00127323
0.00134209
0.00135489
0.00140419
0.00150618
0.00167915
0.00188789
0.00200393
0.00206533
0.002183
0.00228399
0.00228399
0.00222763
0.00201975
0.00130097
0.000456112
0.000552393
0.000995581
0.00116853
0.00129197
0.00131153
0.00131153
0.00132424
0.00143942
0.00167036
0.00195744
0.00214695
0.00224939
0.00239865
0.00249895
0.00249895
0.00240717
0.00202785
0.00112633
0.000445677
0.000572799
0.00101663
0.00118217
0.0012483
0.0012483
0.00118563
0.00107187
0.00123886
0.00161444
0.00202517
0.00231115
0.00248032
0.00266389
0.0027949
0.00280783
0.00280783
0.00246282
0.00140887
0.000752502
0.000579821
0.00100362
0.00113723
0.00113723
0.0011277
0.00099312
0.000795599
0.000742529
0.00153192
0.00212783
0.00250197
0.00273912
0.0029727
0.00318388
0.00318388
0.00309008
0.00234416
0.00120302
0.000843371
0.000843371
0.000970987
0.001051
0.001051
0.000979923
0.000848201
0.000857276
0.00106637
0.00180895
0.00235096
0.00274233
0.00299484
0.00319104
0.00322406
0.00322406
0.00298417
0.00202889
0.00094462
0.000827525
0.000407747
0.00089526
0.000922058
0.000922058
0.000876122
0.00106454
0.00140858
0.00184321
0.00226917
0.0026895
0.00300386
0.00317709
0.00322038
0.00322038
0.00304976
0.00258245
0.00140684
0.000573135
0.000475423
0.000304476
0.000832218
0.000832218
0.000840186
0.0010504
0.00143655
0.00191961
0.00233908
0.00273304
0.00304602
0.00321955
0.00323748
0.00323748
0.00307795
0.00276154
0.00208895
0.00115511
0.000664144
0.00037634
0.00022853
0.000734183
0.000738373
0.000868876
0.00124247
0.00171161
0.00220836
0.00266912
0.00301595
0.00321686
0.00324754
0.00324754
0.00307806
0.00274146
0.00215318
0.00131758
0.000722042
0.000554411
0.000357739
0.000330684
0.000731404
0.000803934
0.00105956
0.00151531
0.00199314
0.00244708
0.00283194
0.00308784
0.00319238
0.00319238
0.00308405
0.00270535
0.00220545
0.00137485
0.000721388
0.000394242
0.000490047
0.000432321
0.000472517
0.000630866
0.000771885
0.00112712
0.00162374
0.0020833
0.00249574
0.00282238
0.00301758
0.00303847
0.00303847
0.0027166
0.00203209
0.00133174
0.000701345
0.000600563
0.000654746
0.00045493
0.000599827
0.000702648
0.000687403
0.000880296
0.00129714
0.00180867
0.00220483
0.00251246
0.00272564
0.00281675
0.00281675
0.00266386
0.00204538
0.00121426
0.00064953
0.000294142
0.00056224
0.000654746
0.000605063
0.000868226
0.00119997
0.000624447
0.00087788
0.00133551
0.00181777
0.00212859
0.00233674
0.00245628
0.00245628
0.00241851
0.00199161
0.00118994
0.000608207
0.000402639
0.000274843
0.000322539
0.000555547
0.000695774
0.0011631
0.00135542
0.000788091
0.00104172
0.00143508
0.00189515
0.00215137
0.00223232
0.00223232
0.00219178
0.00190228
0.00121628
0.000551532
0.000413403
0.000382273
0.000364821
0.000463911
0.00050803
0.00082128
0.00129201
0.00162201
0.000860667
0.0010038
0.00131887
0.00176958
0.00201015
0.00201015
0.00198855
0.00178957
0.00137454
0.000804191
0.000416911
0.000373759
0.000344433
0.000510981
0.000523871
0.000523871
0.000665471
0.00148788
0.00162201
)
;

boundaryField
{
    leftWall
    {
        type            calculated;
        value           uniform 0;
    }
    rightWall
    {
        type            calculated;
        value           uniform 0;
    }
    lowerWall
    {
        type            calculated;
        value           uniform 0;
    }
    atmosphere
    {
        type            calculated;
        value           uniform 0;
    }
    defaultFaces
    {
        type            empty;
    }
}


// ************************************************************************* //
