/*--------------------------------*- C++ -*----------------------------------*\
| =========                 |                                                 |
| \\      /  F ield         | OpenFOAM: The Open Source CFD Toolbox           |
|  \\    /   O peration     | Version:  2012                                  |
|   \\  /    A nd           | Website:  www.openfoam.com                      |
|    \\/     M anipulation  |                                                 |
\*---------------------------------------------------------------------------*/
FoamFile
{
    version     2.0;
    format      ascii;
    class       volScalarField;
    location    "0.46";
    object      minKappa;
}
// * * * * * * * * * * * * * * * * * * * * * * * * * * * * * * * * * * * * * //

dimensions      [0 0 0 0 0 0 0];


internalField   nonuniform List<scalar> 
2268
(
4.49218e-07
1.07305e-06
1.6798e-06
2.28738e-06
2.87895e-06
3.50526e-06
4.10772e-06
4.547e-06
5.09582e-06
5.45189e-06
5.80139e-06
6.08631e-06
6.30615e-06
6.42784e-06
6.40138e-06
6.26769e-06
6.03611e-06
5.64889e-06
5.13072e-06
4.40814e-06
3.43009e-06
2.37988e-06
1.13941e-06
4.49218e-07
1.07305e-06
1.6798e-06
2.28738e-06
2.87895e-06
3.50526e-06
4.10772e-06
4.547e-06
5.09582e-06
5.45189e-06
5.80139e-06
6.08631e-06
6.30615e-06
6.42784e-06
6.40138e-06
6.26769e-06
6.03611e-06
5.64889e-06
5.13072e-06
4.40814e-06
3.43009e-06
2.37988e-06
1.13941e-06
6.94806e-07
1.20244e-06
1.75979e-06
2.35218e-06
2.93411e-06
3.55208e-06
4.13293e-06
4.58036e-06
5.1317e-06
5.48039e-06
5.83571e-06
6.13608e-06
6.3351e-06
6.43869e-06
6.45565e-06
6.33793e-06
6.11922e-06
5.73867e-06
5.24217e-06
4.55253e-06
3.62475e-06
2.61972e-06
1.53e-06
9.79731e-07
1.39791e-06
1.88833e-06
2.45507e-06
3.02289e-06
3.62817e-06
4.17591e-06
4.63642e-06
5.18719e-06
5.52331e-06
5.90171e-06
6.18364e-06
6.38271e-06
6.47669e-06
6.52148e-06
6.42319e-06
6.21626e-06
5.84924e-06
5.37802e-06
4.77272e-06
3.95447e-06
3.20497e-06
2.26752e-06
1.27628e-06
1.63824e-06
2.05697e-06
2.59057e-06
3.1416e-06
3.73144e-06
4.24017e-06
4.71934e-06
5.26261e-06
5.58528e-06
5.99309e-06
6.24859e-06
6.45917e-06
6.55698e-06
6.61088e-06
6.52554e-06
6.34871e-06
6.00864e-06
5.5775e-06
5.04588e-06
4.33752e-06
3.81561e-06
3.00785e-06
1.58078e-06
1.90721e-06
2.2576e-06
2.75539e-06
3.28865e-06
3.85984e-06
4.33102e-06
4.8317e-06
5.35301e-06
5.66377e-06
6.09965e-06
6.33482e-06
6.55057e-06
6.65829e-06
6.7174e-06
6.6486e-06
6.50433e-06
6.21023e-06
5.83033e-06
5.39391e-06
4.78787e-06
4.5589e-06
3.9536e-06
1.89207e-06
2.18947e-06
2.48272e-06
2.94558e-06
3.45998e-06
4.00879e-06
4.4497e-06
4.9709e-06
5.45552e-06
5.76576e-06
6.2322e-06
6.44628e-06
6.67701e-06
6.78723e-06
6.85639e-06
6.78784e-06
6.68112e-06
6.42778e-06
6.12511e-06
5.7961e-06
5.31271e-06
5.37982e-06
4.92364e-06
2.21163e-06
2.4818e-06
2.73152e-06
3.16131e-06
3.65641e-06
4.17956e-06
4.5981e-06
5.13365e-06
5.5707e-06
5.89699e-06
6.3908e-06
6.57e-06
6.8365e-06
6.93152e-06
7.02216e-06
6.95136e-06
6.89378e-06
6.6897e-06
6.46726e-06
6.26476e-06
5.88205e-06
6.3101e-06
6.2484e-06
3.95027e-05
9.44766e-05
2.57895e-05
6.38148e-05
1.43601e-05
5.54964e-05
5.77619e-05
0.0001748
0.000286983
0.000565301
0.00102603
0.00158141
0.00176778
0.00170891
0.00154901
0.00143631
0.000875218
0.000419952
0.000167498
3.95027e-05
9.44766e-05
2.57895e-05
6.38148e-05
1.43601e-05
5.54964e-05
5.77619e-05
0.0001748
0.00028493
0.000545017
0.000827404
0.00113103
0.00124321
0.00134267
0.00134492
0.001354
0.000875218
0.000419952
0.000167498
4.22179e-05
0.000102489
3.59977e-05
6.51101e-05
2.15782e-05
5.69715e-05
6.63549e-05
0.000180965
0.000279938
0.00050836
0.000670542
0.000735984
0.000703196
0.000905667
0.00105013
0.00112727
0.000940305
0.000570712
0.000210559
5.70008e-05
0.000117153
4.85395e-05
6.57716e-05
3.47019e-05
5.97861e-05
7.93019e-05
0.000187405
0.000279938
0.000482318
0.000593221
0.000561465
0.000391209
0.000559342
0.000662272
0.000781899
0.000728947
0.00073835
0.000266855
7.57547e-05
0.000135267
7.29363e-05
7.42102e-05
5.28612e-05
6.77289e-05
9.83853e-05
0.000201008
0.000285661
0.000464779
0.00056221
0.000522865
0.00031242
0.000381203
0.000374634
0.000516678
0.000571487
0.000849076
0.000308767
0.000102193
0.000162831
7.83689e-05
8.70384e-05
7.92483e-05
8.08294e-05
0.000121787
0.000215574
0.000290161
0.000453287
0.00054406
0.000514705
0.00031242
0.000230456
0.000192456
0.000402683
0.000532962
0.000914492
0.000387765
0.000129981
0.000173353
7.83689e-05
0.000112165
0.000112444
0.000103212
0.000149338
0.000231876
0.000298476
0.000440778
0.000537221
0.000514705
0.000314662
0.000161389
0.000192456
0.000346542
0.000512429
0.000929406
0.000688391
0.000168449
0.000173353
0.00013177
0.000146788
0.000152899
0.000138274
0.000180247
0.000248547
0.000308798
0.000440778
0.000537221
0.000525223
0.000387826
0.000161389
0.000198143
0.000346542
0.000512429
0.000929406
0.000860965
3.98106e-06
4.36284e-06
4.70591e-06
5.33172e-06
6.0718e-06
6.84619e-06
7.47328e-06
8.317e-06
8.92623e-06
9.49052e-06
1.02592e-05
1.0502e-05
1.09896e-05
1.10973e-05
1.12983e-05
1.1151e-05
1.11588e-05
1.08405e-05
1.07792e-05
1.06193e-05
1.06763e-05
1.18573e-05
1.36612e-05
1.20372e-05
1.27007e-05
1.31973e-05
1.43069e-05
1.55867e-05
1.68363e-05
1.76622e-05
1.89497e-05
1.91621e-05
1.95892e-05
1.93551e-05
1.83447e-05
1.77419e-05
1.67866e-05
1.67066e-05
1.61305e-05
1.64387e-05
1.58639e-05
1.63035e-05
1.59891e-05
1.67382e-05
1.77735e-05
1.71248e-05
9.17892e-05
9.41786e-05
9.68413e-05
0.000102796
0.000108668
0.000114094
0.000116982
0.000121679
0.000118684
0.000116671
0.000106971
8.15129e-05
6.04681e-05
4.6052e-05
3.74873e-05
2.88045e-05
2.00893e-05
1.71095e-05
1.73637e-05
1.72034e-05
1.85993e-05
1.93455e-05
1.83107e-05
0.000200677
0.000198478
0.000204149
0.000207684
0.000202726
0.000198188
0.000193364
0.000185099
0.000174373
0.000162461
0.000148781
0.000127161
0.000124859
0.000124859
0.000187174
0.000177437
7.33218e-05
4.28563e-05
3.43563e-05
2.01233e-05
1.95266e-05
1.95266e-05
1.67203e-05
0.000208468
0.000205902
0.000204698
0.000200325
0.000193607
0.000185445
0.000174301
0.000159893
0.000143586
0.000123963
0.000103147
0.000102511
0.000102511
0.000143054
0.000208657
0.000153104
0.000238246
0.000279829
0.000224515
6.49607e-05
4.64221e-05
3.7448e-05
1.73765e-05
0.000213393
0.000210272
0.000208293
0.00020418
0.000197591
0.000189117
0.000180345
0.000169271
0.000157489
0.000148065
0.000131596
0.000127967
0.000135989
0.000163344
0.000127767
0.000127767
0.000145076
0.000200855
0.000265022
0.000327562
0.000317461
0.000231618
6.49346e-05
0.000212364
0.000209828
0.000206537
0.000201817
0.000194749
0.000186157
0.000176784
0.000167157
0.000159012
0.00015517
0.000152648
0.000155175
0.000155353
0.000164543
0.000156378
0.000156971
0.00015391
0.000174693
0.000235197
0.0002792
0.000342112
0.000344539
0.000315542
0.000216033
0.000213973
0.000210944
0.000207105
0.000202117
0.000195595
0.000187081
0.000181372
0.000171156
0.000168397
0.000165233
0.00016942
0.000161464
0.000157687
0.000142765
0.000142402
0.000140582
0.000140582
0.000161724
0.000192157
0.000263191
0.000341369
0.000284712
0.000218251
0.000216347
0.000214006
0.000210379
0.000205793
0.000199836
0.00019368
0.000187647
0.000181316
0.000177935
0.000176581
0.000173328
0.000169575
0.000168697
0.000155372
0.000152522
0.000144918
0.000141928
0.00014663
0.000151084
0.000176316
0.000234147
0.000280919
0.000222811
0.000221419
0.000219422
0.000217357
0.000212681
0.000209457
0.000202191
0.000198954
0.000191281
0.000187329
0.000183268
0.000183022
0.000175642
0.000172065
0.00016332
0.000157345
0.000149833
0.000145489
0.000148335
0.000150716
0.000150861
0.000160931
0.000167053
0.000228545
0.000227579
0.000225712
0.00022393
0.000219584
0.000216501
0.000210988
0.00020805
0.000202085
0.00019851
0.000193349
0.000192984
0.000185878
0.000185895
0.000177065
0.000173482
0.000165563
0.000159254
0.000158817
0.000154783
0.000152932
0.000145814
9.82949e-05
0.000234948
0.000234234
0.000232532
0.00023115
0.000227055
0.000225442
0.000219913
0.000217706
0.000212605
0.000209223
0.000204884
0.00020416
0.000199282
0.000199819
0.000193449
0.000191732
0.000183489
0.000179755
0.000173652
0.000170583
0.000162414
0.00016185
0.000110624
0.000242565
0.000241974
0.000240442
0.000239458
0.000235835
0.000234856
0.000230124
0.000228417
0.000224212
0.000221825
0.000217751
0.000217103
0.00021242
0.000212303
0.000206391
0.000204917
0.000197932
0.000195018
0.000189562
0.000188954
0.000178344
0.000177445
0.000121913
0.000251159
0.000250681
0.000249293
0.000248638
0.000245455
0.000244771
0.000240773
0.000239094
0.000235797
0.000233551
0.00023016
0.000228906
0.000224691
0.000223932
0.000218715
0.000217449
0.000210827
0.000209075
0.000203457
0.000202438
0.000192937
0.000196885
0.000142831
0.000260739
0.000260421
0.000259298
0.00025893
0.000256137
0.00025574
0.000252334
0.000250876
0.000248028
0.000246105
0.000242989
0.0002418
0.000238013
0.000236952
0.000232526
0.000231121
0.000226044
0.000224849
0.000220313
0.000219834
0.000212842
0.000217578
0.000161055
0.000271129
0.000270959
0.000269973
0.000269816
0.000267336
0.000267
0.000264178
0.000262818
0.000260619
0.00025889
0.000256476
0.000255232
0.000252174
0.000251343
0.00024784
0.000247205
0.000243431
0.000243287
0.000240113
0.000240407
0.000236283
0.000241317
0.000185017
0.000282601
0.000282547
0.000281561
0.000281605
0.000279394
0.000279224
0.000276881
0.000275776
0.000274034
0.000272627
0.000270718
0.000269785
0.000267501
0.000266959
0.000264659
0.000264484
0.000262446
0.000262991
0.000261779
0.000263043
0.00026245
0.0002677
0.0002102
0.000294772
0.00029479
0.000293874
0.000294029
0.000292146
0.000292049
0.000290242
0.000289333
0.000288096
0.000286857
0.000285627
0.000285001
0.00028356
0.000283575
0.000282322
0.00028302
0.000282463
0.000284025
0.00028491
0.000287435
0.000290494
0.000295961
0.00023697
0.000307864
0.000307962
0.000307076
0.000307339
0.000305717
0.000305725
0.000304315
0.000303656
0.000302876
0.000302037
0.000301419
0.000301222
0.000300579
0.000301144
0.000301008
0.000302503
0.000303474
0.000306132
0.000309103
0.000313174
0.000319558
0.000326085
0.000264896
0.000321947
0.000322111
0.000321169
0.000321466
0.000320071
0.000320149
0.000319126
0.000318645
0.000318349
0.000317879
0.000317931
0.00031821
0.000318375
0.000319687
0.000320549
0.00032306
0.00032536
0.000329364
0.000334207
0.000340161
0.000349343
0.000357845
0.000293289
0.000336636
0.000336856
0.000335901
0.000336219
0.000335071
0.000335239
0.000334573
0.000334367
0.000334547
0.000334521
0.00033519
0.000336012
0.000336954
0.000339023
0.000340827
0.000344231
0.000347757
0.000352945
0.000359426
0.000367216
0.000378817
0.000389933
0.000321421
0.000352205
0.000352462
0.000351503
0.000351797
0.000350886
0.000351069
0.000350704
0.000350708
0.000351402
0.000351783
0.000353119
0.00035452
0.000356221
0.000359155
0.000361772
0.000366171
0.00037079
0.000377196
0.000385167
0.000394796
0.00040851
0.000422231
0.000348951
0.00036803
0.000368315
0.00036738
0.000367661
0.000367007
0.000367238
0.000367214
0.000367419
0.000368597
0.000369288
0.00037128
0.000373166
0.000375611
0.000379335
0.00038271
0.000388057
0.000393736
0.000401363
0.00041081
0.000422244
0.000437762
0.000454144
0.000375018
0.000384157
0.000384373
0.00038356
0.000383779
0.000383345
0.000383608
0.000383913
0.000384237
0.000385849
0.000386723
0.000389402
0.000391653
0.000394942
0.000399486
0.000403714
0.000410209
0.000417027
0.000426073
0.000436963
0.00045008
0.000467175
0.000485914
0.00040051
0.000399855
0.000399903
0.000399387
0.000399537
0.000399354
0.000399692
0.00040029
0.000400663
0.00040259
0.000403567
0.000406834
0.000409313
0.00041342
0.000418611
0.000423624
0.000431172
0.000438959
0.000449371
0.000461361
0.000476006
0.000494388
0.000515082
0.000422413
0.000414851
0.000414682
0.000414529
0.000414554
0.000414619
0.000415026
0.000415926
0.000416393
0.000418512
0.000419439
0.000423149
0.000425684
0.000430479
0.000436016
0.000441651
0.000450055
0.000458479
0.000470085
0.000482568
0.00049805
0.000516089
0.000537998
0.000442751
0.000428735
0.000428421
0.000428551
0.000428495
0.000428806
0.000429318
0.000430502
0.000431203
0.000433609
0.000434597
0.000438649
0.000441144
0.000446586
0.000452198
0.000458495
0.000467342
0.000476222
0.000488452
0.000501023
0.00051605
0.000534273
0.000557001
0.000458727
0.000441182
0.000440841
0.00044111
0.000441073
0.000441614
0.000442231
0.000443627
0.00044456
0.00044729
0.000448558
0.00045298
0.000455406
0.000461236
0.000466376
0.000473019
0.000480795
0.000489235
0.000499264
0.000511049
0.000525838
0.000543474
0.000566403
0.000467483
0.000452113
0.000451812
0.000452148
0.000452222
0.000452999
0.000453787
0.00045548
0.00045675
0.000459859
0.000461579
0.000466483
0.000469079
0.000475317
0.000479809
0.000486686
0.000494325
0.000503017
0.000512407
0.000523136
0.000536441
0.000552234
0.000573906
0.000472117
0.000461479
0.00046123
0.000461617
0.00046183
0.000462847
0.000463841
0.000465895
0.000467568
0.000471135
0.000473367
0.000478685
0.000481561
0.00048811
0.000492172
0.000498478
0.000504543
0.000510664
0.000517472
0.000525983
0.000536122
0.000548548
0.000567222
0.000464059
0.000469319
0.000469108
0.000469553
0.00046989
0.000471168
0.000472383
0.000474879
0.000476991
0.000481097
0.00048393
0.000489761
0.000493111
0.000500131
0.000503925
0.000511173
0.000515891
0.000522875
0.000528656
0.000535746
0.000541564
0.000549638
0.000563033
0.000455996
0.000475745
0.000475553
0.000476058
0.000476494
0.00047806
0.000479484
0.000482403
0.000484999
0.000489044
0.000493147
0.000498349
0.000503511
0.000509426
0.000514793
0.000520462
0.000525517
0.00052978
0.000533504
0.000536076
0.000537449
0.000540459
0.000544375
0.000434189
0.000480926
0.000480722
0.00048128
0.000481777
0.000483411
0.000485225
0.000488052
0.000491502
0.000495928
0.00050092
0.000506892
0.000512523
0.000519811
0.000524534
0.000532259
0.00053499
0.000540706
0.00054141
0.000542731
0.000537403
0.000532103
0.000522301
0.000416395
0.000485033
0.000484804
0.000485269
0.000485825
0.000487174
0.000489125
0.000492029
0.000495656
0.000500311
0.000505592
0.000511723
0.000518125
0.000524859
0.000531125
0.000536992
0.000541538
0.000544443
0.000542332
0.000535742
0.000525482
0.000513129
0.000499166
0.000381668
0.000487698
0.000487698
0.000487929
0.000488577
0.000490107
0.000492301
0.00049555
0.000499586
0.000504733
0.000510563
0.00051732
0.000524385
0.000531784
0.000538684
0.000545054
0.000548313
0.000552517
0.000548118
0.000538276
0.000522577
0.000501855
0.000473068
0.000357137
0.00048995
0.00048995
0.000490175
0.000490789
0.000492297
0.000494459
0.00049769
0.000501682
0.000506785
0.00051252
0.00051915
0.000525972
0.000533027
0.000539377
0.00054491
0.000548493
0.000547061
0.000539461
0.000524893
0.000502422
0.000472299
0.000442127
0.00031733
0.000491181
0.000491181
0.000491442
0.000492112
0.000493724
0.000496018
0.000499426
0.000503627
0.000508985
0.000515012
0.000521982
0.000529161
0.000536569
0.000543214
0.000548985
0.000550373
0.000550444
0.000540684
0.000524427
0.000497862
0.000461614
0.000415097
0.000298312
0.000492142
0.000492142
0.000492391
0.000492984
0.000494487
0.00049662
0.000499829
0.000503759
0.000508789
0.000514406
0.000520885
0.00052742
0.000534011
0.000539597
0.000544028
0.000544853
0.000538481
0.000525318
0.0005024
0.000467032
0.000417784
0.000362929
0.000241557
0.000492356
0.000492356
0.000492548
0.000493117
0.000494634
0.000496795
0.000500063
0.000504081
0.000509226
0.000514979
0.000521605
0.000528315
0.000535099
0.000539674
0.000545481
0.000541954
0.000540943
0.000526263
0.000504431
0.000467311
0.00041425
0.000353979
0.000237037
0.000492014
0.000492014
0.00049214
0.000492578
0.00049387
0.000495718
0.000498598
0.000502132
0.000506687
0.00051174
0.000517514
0.0005232
0.000528755
0.000533044
0.000535929
0.000532354
0.000522747
0.000504911
0.000475145
0.000429315
0.000363939
0.000286985
0.000183149
0.000491825
0.000491825
0.000491881
0.000492237
0.000493489
0.000495334
0.000498227
0.000501795
0.000506398
0.000511519
0.000517364
0.000521892
0.000528844
0.000529057
0.000533446
0.000528031
0.000525485
0.000508506
0.000478063
0.000429289
0.000357546
0.000268079
0.000156231
0.000489917
0.000489846
0.000489846
0.000489975
0.000490885
0.000492271
0.000494585
0.000497441
0.000501162
0.000505233
0.00050983
0.000514169
0.000518235
0.000520831
0.000520426
0.000515278
0.000504471
0.000485445
0.000453827
0.000403066
0.000329105
0.000242735
0.000182795
8.83383e-06
6.44016e-06
6.44016e-06
7.62658e-06
1.0889e-05
1.0889e-05
1.09611e-05
1.13947e-05
1.20129e-05
1.20129e-05
1.19518e-05
1.19518e-05
1.113e-05
1.113e-05
1.15053e-05
1.17479e-05
1.10015e-05
1.10015e-05
1.11923e-05
1.13287e-05
5.36527e-05
5.18098e-05
4.84454e-05
4.10157e-05
0.000210071
0.000210071
0.000211466
0.000211466
0.00018242
0.000179405
0.000173906
0.000173906
0.000198607
0.000198607
0.000209295
0.000214592
0.00012089
0.00012089
0.000139604
0.000161924
6.26654e-05
6.26654e-05
6.55462e-05
7.1907e-05
6.79852e-05
6.52216e-05
6.24173e-05
6.24173e-05
7.6009e-05
7.31468e-05
6.97413e-05
6.97413e-05
9.07322e-05
8.93779e-05
8.77627e-05
8.77627e-05
0.000102765
0.000101879
0.000100999
0.000100999
0.00011931
0.00011931
0.000119994
0.0001208
0.000136058
0.000136058
0.000137846
0.000139733
0.000154407
0.000154407
0.000157736
0.000160784
0.000173231
0.000173231
0.000177268
0.000181035
0.00019254
0.00019254
0.000197438
0.000202379
0.000211403
0.000211403
0.000217161
0.000223219
0.000229999
0.000229999
0.00023671
0.000243913
0.000247252
0.000247252
0.000254545
0.000262436
0.00026417
0.00026417
0.000272087
0.00028069
0.000278826
0.000278826
0.000287435
0.000297022
0.000292803
0.000292803
0.000302663
0.000314021
0.000303953
0.000303953
0.000315169
0.000328243
0.000310674
0.000310674
0.000323564
0.000338602
0.000314161
0.000314161
0.000328067
0.000344437
0.000309293
0.000309293
0.000324552
0.000343191
0.000304645
0.000304645
0.000321816
0.000343094
0.000290775
0.000290775
0.000309174
0.000332154
0.000278931
0.000278931
0.000297924
0.000322015
0.000255457
0.000255457
0.000274241
0.000299058
0.000238856
0.000238856
0.000258419
0.000284098
0.000210857
0.000210857
0.000229092
0.000253659
0.000198198
0.000198198
0.000217446
0.000244192
0.000158141
0.000158141
0.00017386
0.000197635
0.000158984
0.000158984
0.000179454
0.000207521
0.000126377
0.000126377
0.000147714
0.000174487
0.000109578
0.000109578
0.000138512
0.000178613
0.000155864
0.000155864
0.00020991
0.000257117
6.89163e-05
0.000174677
0.000260538
0.000287335
0.000270282
0.000278079
0.000334104
0.000415311
0.000502754
0.00066943
0.000820392
0.000820557
0.000727464
0.000312574
0.000446285
0.000477765
0.000739522
0.00122153
0.000671548
2.95259e-05
3.26023e-05
3.78402e-05
0.000236734
0.000321812
0.000336978
0.000604384
0.000648326
0.000730916
0.000820992
0.000939946
0.000944721
0.00103386
0.000713511
0.000751912
0.000477568
0.000735555
0.000724125
0.000515156
1.97805e-05
2.43726e-05
2.18627e-05
4.47941e-05
0.000261483
0.000173406
0.000547738
0.000731009
0.000768762
0.000804247
0.000864729
0.000840594
0.000924704
0.00070963
0.000647113
0.000362519
0.000594946
0.000661399
0.000486579
1.99225e-05
2.43726e-05
2.18627e-05
2.6177e-05
0.000120939
0.000168038
0.000337487
0.0008037
0.000797641
0.000804247
0.000852675
0.000792014
0.00085536
0.000669841
0.000545137
0.000275566
0.000453155
0.000606318
0.000436979
1.91739e-05
2.42852e-05
2.19845e-05
2.09771e-05
3.38646e-05
0.000215066
0.000283409
0.000479547
0.000823667
0.000827849
0.000852675
0.000792014
0.00082474
0.000669841
0.000492083
0.000275566
0.000401515
0.000513066
0.000308198
2.83436e-05
2.42852e-05
2.27875e-05
2.09771e-05
2.31098e-05
4.28877e-05
0.000225144
0.000456757
0.000732169
0.00084333
0.000900446
0.000833136
0.000894444
0.00073787
0.000750664
0.000375646
0.000572521
0.000353681
0.000121459
9.67904e-05
5.76109e-05
4.25277e-05
2.37957e-05
2.31098e-05
2.85454e-05
4.38486e-05
7.47713e-05
0.000220098
0.00056549
0.000710704
0.000757265
0.00072971
0.000762586
0.000762738
0.000802363
0.000585245
0.000136973
4.44449e-05
0.000279291
0.000351741
0.000267218
6.48377e-05
5.38034e-05
2.95569e-05
3.5526e-05
3.75479e-05
5.74195e-05
8.8045e-05
0.000102379
0.000110344
0.000116969
0.000121201
0.000119102
0.000112452
8.85017e-05
4.22094e-05
2.0073e-05
0.0003529
0.000351741
0.000322151
0.000373543
0.00037926
9.36191e-05
7.39272e-05
6.01171e-05
6.75586e-05
5.76452e-05
5.76452e-05
6.04577e-05
6.29058e-05
6.33995e-05
6.00327e-05
5.29343e-05
4.07484e-05
2.33572e-05
1.48786e-05
0.000310099
0.00036832
0.000312593
0.000281369
0.000272891
0.000413632
0.00054414
0.000387077
0.000182282
0.000114773
0.000111612
0.000110937
0.000108867
0.000101529
8.81196e-05
6.29287e-05
3.96189e-05
2.58059e-05
1.48786e-05
0.000141527
0.000221195
0.000227908
0.000200602
0.000137282
0.000135761
0.00025207
0.000382144
0.000545385
0.00065764
0.000660383
0.000747744
0.000709924
0.000621077
0.000485159
0.000220422
5.99688e-05
3.12129e-05
2.30614e-05
0.000101658
0.000133875
0.000144761
0.000142813
8.15105e-05
6.97033e-05
6.97033e-05
8.27143e-05
0.000185593
0.0003677
0.000405948
0.000498205
0.000776432
0.000998222
0.000923228
0.000653902
0.000107669
3.54691e-05
3.96015e-05
0.000109559
0.000129182
0.000129182
0.000147232
0.000129948
0.0001362
0.000247401
0.000383112
0.000632569
0.000971088
0.00142094
0.00177025
0.00173002
0.00130501
0.000715747
0.000333067
5.51008e-05
2.61974e-05
4.80361e-05
0.000144045
0.000144215
0.000152272
0.000174173
0.000197769
0.000281969
0.000434535
0.000631532
0.00105765
0.00172355
0.00197915
0.00114201
0.000805043
0.000390751
0.000127198
6.19714e-05
2.00818e-05
1.99539e-05
4.05231e-05
0.00016811
0.000195736
0.000207839
0.000232465
0.000273534
0.000374339
0.000509835
0.000756834
0.0011532
0.00164046
0.00123895
0.00071478
0.000471917
0.0001357
5.92693e-05
2.38202e-05
1.20969e-05
1.53474e-05
3.05878e-05
0.000204721
0.000244251
0.0002701
0.000302673
0.000355162
0.000466451
0.000613001
0.000896229
0.00124704
0.0015866
0.00101443
0.000674485
0.000468676
0.000140078
5.94511e-05
3.1188e-05
1.20969e-05
1.95283e-05
5.3366e-05
0.000238614
0.000299065
0.000339009
0.000378241
0.00044605
0.00055766
0.000708164
0.000974166
0.00129309
0.00171091
0.00106645
0.000674485
0.000618267
0.000385523
0.000143296
6.52938e-05
2.15107e-05
3.25621e-05
0.000212317
0.000276287
0.000353033
0.000406166
0.000449288
0.000533573
0.000639938
0.000799958
0.00103135
0.00133907
0.00171876
0.0014863
0.000664089
0.000618267
0.000625588
0.000554174
0.000282958
5.33973e-05
6.86209e-05
0.000232736
0.000311807
0.00040858
0.00047142
0.000520822
0.000619512
0.000724996
0.000894762
0.00108759
0.0013693
0.00167392
0.00190982
0.00119891
0.000653335
0.000625588
0.000559515
0.000496622
0.000217861
0.000106453
0.000255636
0.000349426
0.000465354
0.000533728
0.000594969
0.000705074
0.000817616
0.000993808
0.00117311
0.00141821
0.00167392
0.00191676
0.00167125
0.001159
0.000636377
0.000378567
0.000432831
0.000307984
0.000183708
0.000281112
0.000386176
0.000524223
0.000598173
0.000671579
0.000789661
0.000908835
0.00108282
0.00126233
0.00148821
0.00169073
0.00190707
0.00181722
0.00150833
0.000905852
0.000378567
0.000408042
0.00027048
0.000126991
0.000220145
0.000422836
0.000582096
0.000662071
0.000743768
0.000865283
0.000980563
0.00114739
0.00131132
0.00151806
0.00166575
0.0018577
0.00188496
0.00171182
0.00135603
0.00080484
0.000408042
0.000280467
0.000115319
0.000138691
0.000455123
0.000635836
0.000722712
0.000810023
0.000929493
0.0010366
0.00118883
0.00132279
0.00148011
0.00159649
0.00178039
0.00187344
0.00178948
0.00157711
0.00117649
0.000628305
0.000205137
0.00010674
0.000103978
0.000487289
0.000686782
0.00078197
0.000873258
0.000990148
0.00108547
0.0012185
0.00132279
0.00144925
0.00154106
0.0016811
0.00182345
0.00181071
0.00169689
0.00135657
0.000742894
0.000205137
0.000210241
0.000103978
0.000516919
0.000736949
0.000840933
0.000935364
0.00104741
0.00113126
0.00124023
0.00132483
0.00144493
0.00152351
0.00160792
0.00174556
0.00180823
0.00177447
0.00152571
0.00113673
0.000391425
3.97178e-05
0.000125854
0.000548651
0.000787433
0.000900192
0.000996176
0.00110541
0.00117419
0.00125914
0.00133074
0.00144493
0.00152351
0.00160576
0.00171361
0.00180823
0.00179323
0.00161288
0.0011624
0.000408722
3.97178e-05
0.000160343
0.000575233
0.000836407
0.000959712
0.00106342
0.00117046
0.00121776
0.00128809
0.00135323
0.00148406
0.00155271
0.00160576
0.00171361
0.00180925
0.00182849
0.00167758
0.00130467
0.000585172
0.000135328
0.000288126
0.000595801
0.000880496
0.00102199
0.00113565
0.00122661
0.00124029
0.00131446
0.0013815
0.00155425
0.00162895
0.00167044
0.00174571
0.00185362
0.00187929
0.00173764
0.00124992
0.000524011
0.00019584
0.000347368
0.00060822
0.000918596
0.00108108
0.00118537
0.00120893
0.00119133
0.00128583
0.00138694
0.00161317
0.00172851
0.00177833
0.00183981
0.001967
0.00199632
0.00183858
0.00130097
0.000456112
0.00019584
0.000393594
0.000611113
0.000951137
0.00112681
0.00115139
0.00110838
0.00103301
0.00110504
0.0012848
0.00164593
0.00182823
0.00191516
0.0019855
0.00213451
0.00217072
0.00200108
0.00112633
0.000390336
0.000210716
0.000445677
0.000615423
0.000979718
0.00110805
0.00103855
0.000930621
0.000759339
0.000671021
0.00112546
0.00161444
0.00193284
0.00208066
0.00218287
0.00236607
0.00240247
0.00229018
0.00140887
0.000515354
0.000368025
0.000550107
0.000600436
0.000962563
0.00101261
0.000889895
0.000777534
0.000536818
0.000492018
0.000742529
0.00153192
0.00206017
0.00227105
0.00241949
0.00264568
0.0027395
0.00234416
0.00120302
0.00046387
0.000752502
0.000301125
0.000584819
0.000901376
0.00087893
0.000781211
0.000738013
0.000616652
0.000492018
0.00106637
0.00180895
0.00222791
0.00248617
0.00266709
0.0028677
0.00272697
0.00202889
0.000814067
0.00046387
0.000407747
0.000172668
0.000546215
0.000823017
0.000756518
0.00078001
0.000787444
0.000857276
0.00104474
0.00159179
0.00208789
0.00247424
0.00270152
0.00285335
0.00276752
0.00246283
0.00140684
0.000571102
0.000464759
0.000254579
0.000172668
0.000519611
0.000736991
0.000678518
0.00078001
0.000974083
0.00131568
0.00171272
0.00207604
0.00244538
0.00274045
0.00287754
0.00277684
0.00247489
0.00195443
0.00111526
0.000571102
0.00037634
0.000219757
0.000186894
0.000464392
0.000689405
0.000678518
0.000868876
0.00121153
0.00163515
0.00207928
0.00246352
0.00275141
0.00292066
0.00279178
0.0024381
0.00202786
0.00115505
0.000686965
0.000323577
0.000357739
0.000228498
0.00022853
0.00045291
0.000650519
0.000706984
0.0010419
0.00146086
0.00190283
0.00232486
0.00266989
0.00283558
0.00281478
0.00244209
0.00184495
0.00133174
0.000540518
0.000394242
0.000323577
0.000347862
0.000298216
0.000330684
0.000373175
0.000630866
0.000771885
0.00112712
0.00162374
0.00205769
0.00242132
0.00260902
0.0026808
0.00248974
0.00182497
0.00111438
0.00064953
0.000250336
0.000398406
0.000350027
0.000295794
0.000431955
0.000472517
0.000395217
0.000644374
0.000852714
0.00129714
0.00176551
0.00209139
0.00229923
0.00239135
0.0023479
0.00187125
0.0010622
0.000588796
0.000294142
0.000164294
0.000232237
0.000555547
0.000295794
0.000505466
0.000702648
0.000337094
0.000624447
0.00087788
0.00133551
0.00181777
0.00201594
0.0021135
0.00208795
0.00181909
0.00108572
0.000490917
0.000402639
0.000274843
0.000164294
0.000221391
0.000322539
0.000458833
0.00066823
0.0011631
0.000377125
0.00073669
0.00100212
0.00143508
0.00183342
0.00192044
0.00188819
0.00170556
0.00121628
0.000551532
0.000303262
0.000373759
0.000256266
0.000223702
0.000306177
0.000354241
0.000461357
0.000799786
0.00129201
0.000495571
0.000836508
0.0010038
0.00131887
0.00176958
0.00192044
0.00178957
0.00137454
0.000804191
0.000416911
0.000303262
0.000313552
0.000256266
0.00032723
0.000463911
0.000377645
0.000419302
0.000665471
0.00148788
)
;

boundaryField
{
    leftWall
    {
        type            calculated;
        value           uniform 0;
    }
    rightWall
    {
        type            calculated;
        value           uniform 0;
    }
    lowerWall
    {
        type            calculated;
        value           uniform 0;
    }
    atmosphere
    {
        type            calculated;
        value           uniform 0;
    }
    defaultFaces
    {
        type            empty;
    }
}


// ************************************************************************* //
