/*--------------------------------*- C++ -*----------------------------------*\
| =========                 |                                                 |
| \\      /  F ield         | OpenFOAM: The Open Source CFD Toolbox           |
|  \\    /   O peration     | Version:  2012                                  |
|   \\  /    A nd           | Website:  www.openfoam.com                      |
|    \\/     M anipulation  |                                                 |
\*---------------------------------------------------------------------------*/
FoamFile
{
    version     2.0;
    format      ascii;
    class       volScalarField;
    location    "0.46";
    object      pcorr;
}
// * * * * * * * * * * * * * * * * * * * * * * * * * * * * * * * * * * * * * //

dimensions      [1 -1 -2 0 0 0 0];


internalField   nonuniform List<scalar> 
2268
(
101409
101410
101414
101419
101426
101437
101451
101469
101494
101525
101567
101619
101687
101771
101876
102004
102156
102331
102527
102733
102932
103096
103193
101408
101410
101413
101418
101426
101436
101450
101468
101492
101523
101564
101616
101683
101767
101871
101998
102150
102327
102524
102734
102939
103112
103214
101408
101409
101412
101417
101424
101434
101448
101465
101489
101519
101559
101610
101675
101758
101861
101987
102140
102318
102519
102737
102954
103143
103259
101407
101408
101411
101416
101422
101432
101445
101461
101484
101513
101551
101600
101663
101744
101845
101971
102123
102303
102511
102739
102976
103190
103329
101405
101407
101409
101414
101420
101429
101441
101456
101477
101505
101541
101588
101648
101726
101824
101948
102100
102283
102497
102740
103002
103253
103430
101404
101405
101407
101411
101417
101425
101436
101450
101469
101495
101528
101572
101629
101703
101798
101919
102071
102256
102477
102737
103031
103334
103571
101402
101403
101405
101408
101414
101421
101430
101443
101460
101483
101513
101553
101606
101675
101766
101883
102033
102220
102449
102726
103057
103429
103765
101399
101400
101402
101405
101410
101416
101424
101435
101450
101469
101496
101531
101579
101643
101728
101840
101988
102176
102409
102704
103075
103532
104035
109706
109706
109707
109707
109707
109707
109707
109707
109707
109708
109709
109711
109713
109716
109720
109730
109820
110187
110576
109706
109706
109707
109707
109707
109707
109707
109707
109707
109708
109709
109711
109713
109716
109720
109727
109760
110015
110447
109705
109706
109707
109707
109707
109707
109707
109707
109707
109708
109709
109710
109713
109716
109719
109725
109738
109841
110239
109705
109706
109707
109708
109708
109707
109707
109707
109707
109707
109709
109710
109712
109715
109719
109724
109732
109761
110022
109705
109706
109707
109708
109708
109707
109707
109706
109707
109707
109708
109710
109712
109715
109718
109723
109729
109740
109845
109704
109706
109708
109708
109708
109707
109707
109706
109706
109707
109708
109709
109711
109714
109717
109722
109726
109731
109748
109703
109706
109708
109709
109708
109707
109706
109706
109706
109706
109707
109709
109711
109713
109716
109720
109724
109728
109741
109701
109706
109709
109710
109709
109707
109706
109705
109705
109705
109706
109708
109710
109712
109715
109719
109722
109726
109738
101396
101396
101398
101400
101403
101407
101413
101421
101431
101446
101466
101493
101531
101584
101658
101761
101903
102090
102327
102642
103072
103679
104632
101391
101391
101391
101392
101393
101395
101397
101400
101404
101410
101419
101433
101453
101484
101534
101614
101740
101925
102134
102443
102888
103529
104483
101392
101392
101392
101392
101393
101393
101394
101395
101396
101397
101398
101399
101401
101402
101410
101440
101521
101734
101843
102105
102509
103064
103858
101392
101392
101392
101392
101393
101393
101394
101395
101396
101397
101398
101399
101400
101401
101403
101406
101410
101423
101476
101627
101975
102357
102961
101392
101392
101392
101392
101393
101393
101394
101395
101396
101397
101398
101399
101400
101402
101403
101405
101407
101410
101414
101421
101446
101570
101896
101391
101391
101392
101392
101392
101393
101394
101395
101395
101396
101398
101399
101400
101402
101404
101406
101408
101410
101413
101416
101421
101426
101442
101391
101391
101391
101392
101392
101393
101393
101394
101395
101396
101397
101399
101400
101402
101403
101405
101408
101410
101413
101416
101419
101423
101427
101391
101391
101391
101391
101392
101392
101393
101394
101395
101396
101397
101398
101400
101401
101403
101405
101407
101410
101412
101415
101419
101422
101427
101390
101390
101390
101391
101391
101392
101392
101393
101394
101395
101396
101398
101399
101401
101402
101404
101407
101409
101412
101415
101418
101422
101425
101389
101389
101390
101390
101390
101391
101392
101392
101393
101394
101396
101397
101398
101400
101402
101404
101406
101408
101411
101414
101417
101420
101424
101389
101389
101389
101389
101390
101390
101391
101392
101393
101394
101395
101396
101397
101399
101401
101403
101405
101407
101410
101412
101415
101419
101422
101388
101388
101388
101388
101389
101389
101390
101391
101392
101393
101394
101395
101396
101398
101400
101402
101404
101406
101408
101411
101414
101417
101420
101387
101387
101387
101387
101388
101388
101389
101390
101390
101391
101393
101394
101395
101397
101398
101400
101402
101404
101407
101409
101412
101415
101418
101386
101386
101386
101386
101387
101387
101388
101388
101389
101390
101391
101393
101394
101395
101397
101399
101401
101403
101405
101407
101410
101412
101415
101384
101384
101385
101385
101385
101386
101386
101387
101388
101389
101390
101391
101392
101394
101395
101397
101399
101401
101403
101405
101407
101410
101413
101383
101383
101383
101384
101384
101384
101385
101386
101387
101387
101388
101390
101391
101392
101394
101395
101397
101399
101401
101403
101405
101407
101410
101382
101382
101382
101382
101383
101383
101384
101384
101385
101386
101387
101388
101389
101390
101392
101393
101395
101397
101398
101400
101402
101405
101407
101380
101380
101380
101381
101381
101381
101382
101383
101383
101384
101385
101386
101387
101388
101390
101391
101393
101394
101396
101398
101400
101402
101404
101379
101379
101379
101379
101379
101380
101380
101381
101382
101382
101383
101384
101385
101386
101388
101389
101390
101392
101394
101395
101397
101399
101401
101377
101377
101377
101377
101378
101378
101379
101379
101380
101381
101381
101382
101383
101384
101386
101387
101388
101390
101391
101393
101394
101396
101398
101375
101375
101375
101376
101376
101376
101377
101377
101378
101379
101379
101380
101381
101382
101383
101384
101386
101387
101388
101390
101391
101393
101395
101373
101373
101373
101374
101374
101374
101375
101375
101376
101377
101377
101378
101379
101380
101381
101382
101383
101384
101386
101387
101388
101390
101391
101371
101371
101372
101372
101372
101372
101373
101373
101374
101374
101375
101376
101377
101378
101379
101380
101381
101382
101383
101384
101385
101387
101388
101369
101369
101370
101370
101370
101370
101371
101371
101372
101372
101373
101374
101374
101375
101376
101377
101378
101379
101380
101381
101382
101384
101385
101367
101367
101368
101368
101368
101368
101369
101369
101370
101370
101371
101371
101372
101373
101374
101374
101375
101376
101377
101378
101379
101381
101382
101365
101365
101365
101366
101366
101366
101366
101367
101367
101368
101368
101369
101370
101370
101371
101372
101373
101374
101374
101375
101376
101377
101378
101363
101363
101363
101363
101364
101364
101364
101365
101365
101365
101366
101366
101367
101368
101368
101369
101370
101371
101372
101372
101373
101374
101375
101361
101361
101361
101361
101361
101362
101362
101362
101363
101363
101363
101364
101365
101365
101366
101366
101367
101368
101369
101369
101370
101371
101372
101359
101359
101359
101359
101359
101359
101360
101360
101360
101361
101361
101361
101362
101363
101363
101364
101364
101365
101366
101366
101367
101368
101369
101356
101356
101356
101357
101357
101357
101357
101357
101358
101358
101358
101359
101359
101360
101360
101361
101362
101362
101363
101363
101364
101365
101365
101354
101354
101354
101354
101354
101354
101355
101355
101355
101356
101356
101356
101357
101357
101358
101358
101359
101359
101360
101360
101361
101361
101362
101352
101352
101352
101352
101352
101352
101352
101352
101353
101353
101353
101354
101354
101354
101355
101355
101356
101356
101357
101357
101358
101358
101359
101349
101349
101349
101349
101349
101350
101350
101350
101350
101350
101351
101351
101351
101352
101352
101353
101353
101353
101354
101354
101355
101355
101356
101347
101347
101347
101347
101347
101347
101347
101347
101348
101348
101348
101348
101349
101349
101349
101350
101350
101350
101351
101351
101352
101352
101352
101344
101344
101344
101344
101344
101345
101345
101345
101345
101345
101345
101346
101346
101346
101346
101347
101347
101347
101348
101348
101348
101349
101349
101342
101342
101342
101342
101342
101342
101342
101342
101342
101343
101343
101343
101343
101343
101344
101344
101344
101344
101345
101345
101345
101346
101346
101339
101339
101339
101339
101339
101339
101339
101340
101340
101340
101340
101340
101340
101341
101341
101341
101341
101341
101342
101342
101342
101342
101343
101337
101337
101337
101337
101337
101337
101337
101337
101337
101337
101337
101337
101338
101338
101338
101338
101338
101338
101339
101339
101339
101339
101339
101334
101334
101334
101334
101334
101334
101334
101334
101334
101334
101335
101335
101335
101335
101335
101335
101335
101335
101336
101336
101336
101336
101336
101331
101331
101331
101331
101332
101332
101332
101332
101332
101332
101332
101332
101332
101332
101332
101332
101332
101332
101333
101333
101333
101333
101333
101329
101329
101329
101329
101329
101329
101329
101329
101329
101329
101329
101329
101329
101329
101329
101329
101329
101329
101330
101330
101330
101330
101330
101326
101326
101326
101326
101326
101326
101326
101326
101326
101326
101326
101326
101326
101326
101326
101326
101326
101326
101327
101327
101327
101327
101327
106035
107045
108217
109464
105534
106296
107140
108043
104639
105189
105775
106375
103533
103928
104352
104795
102294
102545
102847
103193
101471
101505
101573
101689
101433
101436
101439
101443
101430
101433
101435
101437
101429
101431
101433
101435
101427
101429
101431
101433
101425
101427
101429
101431
101423
101424
101426
101428
101420
101422
101423
101425
101417
101419
101420
101422
101415
101416
101417
101419
101412
101413
101414
101415
101409
101410
101411
101412
101405
101407
101408
101409
101402
101403
101404
101405
101399
101400
101401
101402
101396
101397
101397
101398
101392
101393
101394
101395
101389
101390
101390
101391
101386
101386
101387
101387
101382
101383
101383
101384
101379
101380
101380
101380
101376
101376
101377
101377
101372
101373
101373
101374
101369
101369
101370
101370
101366
101366
101366
101367
101362
101363
101363
101363
101359
101359
101360
101360
101356
101356
101356
101357
101353
101353
101353
101353
101349
101349
101350
101350
101346
101346
101346
101346
101343
101343
101343
101343
101340
101340
101340
101340
101336
101336
101336
101337
101333
101333
101333
101333
101330
101330
101330
101330
101327
101327
101327
101327
109695
109707
109713
109713
109710
109707
109705
109704
109704
109704
109705
109707
109709
109711
109714
109717
109720
109723
109729
109501
109547
109659
109732
109713
109706
109704
109703
109702
109702
109703
109704
109706
109708
109711
109714
109716
109718
109720
107344
108072
108831
109661
109711
109704
109702
109700
109700
109700
109701
109702
109704
109706
109708
109711
109713
109715
109717
105545
106507
107611
109035
109700
109701
109698
109697
109697
109697
109698
109699
109701
109703
109705
109708
109711
109713
109715
103817
104826
106065
107765
109384
109695
109694
109693
109693
109694
109695
109696
109697
109699
109702
109705
109709
109712
109714
102005
102952
104141
106005
108119
109370
109688
109687
109689
109690
109691
109693
109694
109696
109699
109703
109707
109712
109703
101449
101498
101950
104037
105142
107597
108504
109672
109681
109682
109684
109688
109689
109691
109694
109698
109704
109682
109311
101441
101449
101461
101505
101919
103189
104673
106432
107972
109145
109546
109617
109678
109681
109685
109655
109520
108820
108359
101439
101445
101452
101461
101470
101510
101693
102482
103559
104624
105297
105664
105976
106284
106627
107041
107247
107108
106987
101437
101442
101448
101454
101459
101466
101477
101493
101535
101613
101719
101873
102089
102395
102894
103841
104790
105311
105507
101434
101439
101444
101449
101455
101460
101466
101473
101483
101495
101509
101527
101552
101582
101623
101943
102886
103781
104180
101431
101436
101440
101445
101450
101455
101461
101467
101474
101484
101495
101511
101534
101563
101593
101634
101895
102734
103200
101428
101432
101436
101441
101445
101450
101455
101461
101468
101476
101485
101499
101520
101551
101589
101641
101821
102288
102600
101425
101428
101432
101436
101441
101445
101450
101455
101460
101466
101473
101483
101501
101545
101597
101647
101800
102050
102227
101421
101425
101428
101432
101436
101440
101444
101448
101452
101456
101461
101465
101472
101517
101551
101614
101731
101879
101985
101418
101421
101424
101427
101431
101434
101437
101441
101444
101446
101448
101449
101447
101427
101456
101527
101637
101752
101833
101414
101417
101420
101423
101426
101428
101431
101434
101436
101437
101437
101435
101425
101417
101413
101430
101537
101661
101757
101410
101413
101416
101418
101421
101423
101425
101427
101428
101429
101428
101425
101419
101415
101413
101413
101441
101551
101622
101407
101409
101411
101414
101416
101418
101419
101421
101422
101422
101421
101419
101415
101413
101411
101410
101412
101470
101520
101403
101405
101407
101409
101411
101413
101414
101415
101416
101416
101415
101413
101411
101409
101408
101406
101408
101433
101476
101399
101401
101403
101405
101406
101408
101409
101410
101410
101410
101410
101408
101407
101405
101404
101402
101400
101408
101437
101396
101397
101399
101400
101402
101403
101404
101405
101405
101405
101405
101404
101403
101401
101400
101399
101398
101398
101414
101392
101394
101395
101396
101397
101398
101399
101400
101400
101400
101400
101399
101399
101398
101397
101396
101394
101389
101399
101388
101390
101391
101392
101393
101394
101395
101395
101396
101396
101396
101395
101395
101394
101393
101392
101390
101388
101388
101385
101386
101387
101388
101389
101390
101391
101391
101391
101391
101391
101391
101391
101390
101390
101389
101388
101387
101387
101381
101382
101383
101384
101385
101386
101386
101387
101387
101387
101387
101387
101387
101387
101386
101386
101385
101385
101385
101378
101379
101380
101380
101381
101382
101382
101383
101383
101383
101383
101383
101383
101383
101383
101383
101383
101383
101383
101374
101375
101376
101377
101377
101378
101378
101379
101379
101379
101379
101380
101380
101380
101380
101380
101380
101380
101380
101371
101371
101372
101373
101373
101374
101375
101375
101375
101375
101376
101376
101376
101376
101377
101377
101378
101378
101378
101367
101368
101369
101369
101370
101370
101371
101371
101371
101372
101372
101372
101372
101373
101373
101374
101375
101377
101376
101364
101364
101365
101365
101366
101367
101367
101367
101368
101368
101368
101368
101368
101369
101369
101371
101373
101375
101378
101360
101361
101361
101362
101362
101363
101363
101363
101363
101364
101364
101364
101364
101365
101365
101367
101371
101375
101376
101357
101357
101358
101358
101358
101359
101359
101359
101359
101360
101360
101360
101360
101360
101360
101361
101363
101376
101375
101353
101354
101354
101354
101355
101355
101355
101355
101356
101356
101356
101356
101356
101356
101356
101355
101354
101371
101372
101350
101350
101351
101351
101351
101351
101351
101352
101352
101352
101352
101352
101352
101352
101351
101351
101349
101316
101332
101347
101347
101347
101347
101348
101348
101348
101348
101348
101348
101348
101348
101348
101348
101347
101346
101344
101306
101320
101343
101344
101344
101344
101344
101344
101344
101344
101344
101345
101344
101344
101344
101344
101343
101342
101339
101296
101314
101340
101340
101340
101340
101341
101341
101341
101341
101341
101341
101341
101341
101340
101340
101339
101338
101337
101336
101321
101337
101337
101337
101337
101337
101337
101337
101337
101337
101337
101337
101337
101337
101336
101336
101335
101334
101333
101342
101333
101333
101334
101334
101334
101334
101334
101334
101334
101334
101334
101334
101333
101333
101333
101332
101332
101331
101331
101330
101330
101330
101330
101330
101330
101330
101330
101330
101330
101330
101330
101330
101330
101330
101329
101329
101328
101328
101327
101327
101327
101327
101327
101327
101327
101327
101327
101327
101327
101327
101327
101327
101327
101326
101326
101326
101326
)
;

boundaryField
{
    leftWall
    {
        type            zeroGradient;
    }
    rightWall
    {
        type            zeroGradient;
    }
    lowerWall
    {
        type            zeroGradient;
    }
    atmosphere
    {
        type            fixedValue;
        value           uniform 101325;
    }
    defaultFaces
    {
        type            empty;
    }
}


// ************************************************************************* //
