/*--------------------------------*- C++ -*----------------------------------*\
| =========                 |                                                 |
| \\      /  F ield         | OpenFOAM: The Open Source CFD Toolbox           |
|  \\    /   O peration     | Version:  2012                                  |
|   \\  /    A nd           | Website:  www.openfoam.com                      |
|    \\/     M anipulation  |                                                 |
\*---------------------------------------------------------------------------*/
FoamFile
{
    version     2.0;
    format      ascii;
    class       volScalarField;
    location    "0.46";
    object      rhogh;
}
// * * * * * * * * * * * * * * * * * * * * * * * * * * * * * * * * * * * * * //

dimensions      [1 -1 -2 0 0 0 0];


internalField   nonuniform List<scalar> 
2268
(
-29.4294
-29.4294
-29.4294
-29.4294
-29.4294
-29.4294
-29.4294
-29.4294
-29.4294
-29.4294
-29.4294
-29.4294
-29.4294
-29.4294
-29.4294
-29.4294
-29.4294
-29.4294
-29.4294
-29.4294
-29.4294
-29.4294
-29.4171
-88.2881
-88.2881
-88.2881
-88.2881
-88.2881
-88.2881
-88.2881
-88.2881
-88.2881
-88.2881
-88.2881
-88.2881
-88.2881
-88.2881
-88.2881
-88.2881
-88.2881
-88.2881
-88.2881
-88.2881
-88.2881
-88.2881
-88.2513
-147.147
-147.147
-147.147
-147.147
-147.147
-147.147
-147.147
-147.147
-147.147
-147.147
-147.147
-147.147
-147.147
-147.147
-147.147
-147.147
-147.147
-147.147
-147.147
-147.147
-147.147
-147.147
-147.097
-206.006
-206.006
-206.006
-206.006
-206.006
-206.006
-206.006
-206.006
-206.006
-206.006
-206.006
-206.006
-206.006
-206.006
-206.006
-206.006
-206.006
-206.006
-206.006
-206.006
-206.006
-206.006
-205.999
-264.864
-264.864
-264.864
-264.864
-264.864
-264.864
-264.864
-264.864
-264.864
-264.864
-264.864
-264.864
-264.864
-264.864
-264.864
-264.864
-264.864
-264.864
-264.864
-264.864
-264.864
-264.864
-264.864
-323.723
-323.723
-323.723
-323.723
-323.723
-323.723
-323.723
-323.723
-323.723
-323.723
-323.723
-323.723
-323.723
-323.723
-323.723
-323.723
-323.723
-323.723
-323.723
-323.723
-323.723
-323.723
-323.723
-382.582
-382.582
-382.582
-382.582
-382.582
-382.582
-382.582
-382.582
-382.582
-382.582
-382.582
-382.582
-382.582
-382.582
-382.582
-382.582
-382.582
-382.582
-382.582
-382.582
-382.582
-382.582
-382.582
-441.44
-441.44
-441.44
-441.44
-441.44
-441.44
-441.44
-441.44
-441.44
-441.44
-441.44
-441.44
-441.44
-441.44
-441.44
-441.44
-441.44
-441.44
-441.44
-441.44
-441.44
-441.44
-441.347
-1.10513e-19
-2.73388e-18
-2.89291e-17
-6.7702e-18
-1.17652e-17
-2.24065e-15
-2.22455e-13
-1.01137e-11
-2.01728e-10
-1.79907e-09
-3.86884e-09
-4.07726e-09
-3.64975e-09
-1.86358e-07
-0.00930778
-1.50806
-11.1683
-17.8795
-17.8795
-1.35434e-17
-5.99211e-16
-5.70384e-15
-1.61824e-15
-2.83182e-16
-5.90755e-15
-5.96156e-13
-2.6867e-11
-5.28247e-10
-4.80599e-09
-1.09584e-08
-1.09493e-08
-1.09594e-08
-1.06461e-05
-0.0378275
-0.967062
-8.92579
-37.7653
-53.6386
-1.12814e-15
-3.30501e-14
-2.50301e-13
-1.02549e-13
-1.54025e-14
-9.81883e-15
-7.44318e-13
-3.57202e-11
-6.94861e-10
-6.43728e-09
-1.92944e-08
-2.24321e-08
-7.30641e-08
-0.000220871
-0.00392583
-0.0550004
-1.69307
-29.2669
-89.3975
-3.82316e-14
-7.87612e-13
-4.3299e-12
-2.54241e-12
-5.02366e-13
-5.00081e-14
-6.49023e-13
-3.74984e-11
-7.80104e-10
-7.57185e-09
-3.29874e-08
-8.29818e-08
-4.43165e-07
-1.66663e-06
-1.67159e-06
-1.69599e-06
-0.189659
-18.6184
-125.157
-1.77163e-12
-1.25001e-11
-2.60925e-11
-2.43535e-11
-1.20699e-11
-8.43309e-13
-5.41282e-13
-2.49148e-11
-6.55829e-10
-7.653e-09
-4.10013e-08
-1.16343e-07
-5.59116e-07
-1.6068e-05
-2.9845e-05
-3.07107e-05
-0.044523
-10.0206
-160.916
-3.54744e-11
-1.11107e-10
-4.56787e-11
-6.46429e-11
-2.75728e-10
-2.51646e-11
-1.90076e-12
-9.36666e-12
-3.57136e-10
-6.01438e-09
-4.09077e-08
-1.39457e-07
-1.00213e-06
-8.72218e-06
-5.0994e-06
-5.5531e-07
-0.00373722
-3.21345
-101.486
-5.04076e-10
-2.38999e-08
-5.57465e-07
-6.94033e-07
-5.27367e-06
-6.27526e-12
-6.27482e-12
-4.91982e-12
-1.04415e-10
-2.85926e-09
-2.9963e-08
-1.33736e-07
-6.91875e-07
-3.40239e-06
-1.04845e-07
-1.04868e-07
-0.00323418
-0.519358
-0.937453
-2.74519e-10
-2.74567e-10
-0.101279
-0.0766791
-0.0184246
-0.000761241
-1.08623e-07
-8.56252e-11
-4.6324e-11
-9.93806e-10
-1.34638e-08
-9.2131e-08
-4.00601e-07
-1.00789e-06
-4.24059e-07
-1.19613e-07
-4.55361e-06
-0.158707
-15.685
-533.005
-532.982
-533.025
-533.049
-533.076
-533.115
-533.189
-533.239
-533.313
-533.372
-533.421
-533.451
-533.463
-533.466
-533.467
-533.467
-533.467
-533.467
-533.467
-533.467
-533.467
-533.467
-533.082
-540.734
-539.223
-542.85
-545.015
-548.201
-552.804
-561.681
-569.252
-582.136
-595.75
-612.351
-629.295
-643.898
-652.156
-656.506
-658.662
-658.662
-658.662
-658.662
-658.662
-658.662
-658.662
-658.199
-98.4676
-97.9397
-100.913
-102.815
-106.513
-111.856
-121.707
-131.574
-149.372
-171.091
-203.765
-247.582
-314.935
-413.115
-527.907
-642.625
-764.735
-783.856
-783.856
-783.856
-783.856
-783.856
-783.802
-2.21874e-32
1.70023e-32
-6.06286e-32
2.3409e-29
-4.5177e-30
-6.86467e-29
-6.56e-28
-2.16831e-28
1.39828e-28
5.30189e-29
1.6822e-25
2.30258e-25
-5.52243e-24
-5.01331e-24
-20.6205
-70.4604
-170.674
-359.596
-632.782
-893.857
-909.051
-909.051
-909.051
-1.52765e-15
-8.68928e-14
-2.75808e-12
-5.37317e-11
-7.07621e-10
-7.17589e-09
-1.4194e-08
-1.04586e-08
-3.87642e-09
-2.20125e-29
-7.35273e-06
-1.04504e-05
-6.17475e-05
-2.01366e-05
-7.46462e-22
-9.39954e-22
-1.33724
-10.0263
-66.4554
-194.372
-435.79
-758.192
-1024.15
-4.62504e-15
-2.6101e-13
-8.19005e-12
-1.53047e-10
-2.01882e-09
-2.1193e-08
-3.78911e-08
-5.01686e-08
-2.82593e-08
-2.04205e-28
-0.000148016
-0.00106826
-0.00204502
-0.00180463
-0.000894355
-2.07319e-05
-3.24309e-06
-0.0149939
-0.314004
-2.73217
-13.033
-83.0942
-262.524
-6.20929e-15
-3.46534e-13
-1.07416e-11
-1.95018e-10
-2.52758e-09
-2.68497e-08
-4.47636e-08
-1.01224e-07
-1.37169e-07
8.31313e-28
-0.000422691
-0.00315494
-0.00315425
-0.00315494
-0.00159404
-2.90461e-05
-3.59325e-06
-3.59327e-06
-1.65463e-05
-0.000486665
-0.0175017
-0.513418
-5.7656
-6.79007e-15
-3.74135e-13
-1.14187e-11
-2.00293e-10
-2.4182e-09
-2.6523e-08
-3.15922e-08
-1.65775e-07
-5.79791e-07
-5.90651e-25
-0.000419032
-0.00148053
-0.00174039
-0.000497533
-1.84248e-08
-4.73496e-05
-5.549e-05
-1.61657e-05
-3.09252e-06
-0.000139336
-0.000477817
-0.00133938
-0.0052668
-5.48345e-15
-2.85379e-13
-8.14333e-12
-1.30821e-10
-1.36553e-09
-1.54562e-08
-1.11216e-08
-2.56896e-07
-1.67736e-06
-8.88358e-06
-2.00644e-08
-2.0061e-08
-2.00644e-08
-2.0061e-08
-2.00644e-08
-5.09312e-05
-7.61963e-05
-5.72296e-05
-3.37572e-06
-0.000159257
-0.000504299
-0.00548976
-0.0107122
-2.80359e-15
-1.40629e-13
-3.88332e-12
-6.07864e-11
-5.93939e-10
-6.57153e-09
-2.08176e-09
-3.14838e-07
-2.5778e-06
-1.44503e-05
-8.72426e-07
-1.22482e-07
-1.67805e-07
-8.25064e-07
-2.36614e-07
-3.12758e-06
-5.60018e-05
-5.96459e-05
-1.53434e-05
-1.0373e-10
-1.00647e-10
-0.000142683
-0.0016097
-1.16131e-15
-5.66255e-14
-1.52628e-12
-2.3329e-11
-2.19907e-10
-2.34549e-09
-7.89226e-10
-3.2713e-07
-1.8129e-06
-1.84214e-06
-8.07042e-07
-2.68912e-07
-3.39347e-07
-1.39517e-06
-1.75848e-06
-5.81361e-07
-3.60169e-07
-3.75541e-07
-3.95439e-06
-2.0465e-06
-3.55751e-07
-1.19915e-08
-1.20106e-08
-3.94861e-16
-1.88473e-14
-4.99747e-13
-7.52329e-12
-7.09376e-11
-6.9641e-10
-8.44567e-10
-1.24201e-07
-5.14424e-07
-3.20278e-07
-2.97211e-07
-2.23389e-07
-2.74607e-07
-6.66728e-07
-1.29383e-06
-1.02777e-06
-4.16404e-07
-2.81835e-07
-2.81834e-07
-3.34812e-07
-2.82612e-07
-1.43477e-07
-5.93927e-08
-1.09514e-16
-5.09787e-15
-1.32959e-13
-1.97873e-12
-1.90492e-11
-1.59122e-10
-7.9222e-10
-3.60225e-08
-5.85805e-08
-9.20492e-08
-9.28528e-08
-7.44737e-08
-8.08683e-08
-1.36434e-07
-2.44818e-07
-4.55335e-07
-5.8632e-07
-5.89663e-07
-5.48493e-07
-4.38049e-07
-2.7328e-07
-1.53611e-07
-8.72458e-08
-2.45661e-17
-1.12856e-15
-2.9245e-14
-4.36069e-13
-4.35363e-12
-3.46205e-11
-3.877e-10
-5.34196e-09
-1.34196e-08
-1.9378e-08
-1.92108e-08
-1.55306e-08
-1.72107e-08
-2.42865e-08
-4.03299e-08
-7.69593e-08
-1.26004e-07
-1.28528e-07
-1.16378e-07
-1.01209e-07
-7.32686e-08
-4.28351e-08
-2.87776e-08
-4.39598e-18
-2.00717e-16
-5.21379e-15
-7.91094e-14
-8.32293e-13
-6.79762e-12
-1.2508e-10
-5.47897e-10
-1.54763e-09
-2.19472e-09
-2.19071e-09
-2.04758e-09
-2.62148e-09
-4.45544e-09
-7.85436e-09
-1.09959e-08
-1.28696e-08
-1.38831e-08
-1.40701e-08
-1.33615e-08
-1.10547e-08
-7.5089e-09
-4.94548e-09
-6.14828e-19
-2.83559e-17
-7.51793e-16
-1.18775e-14
-1.34033e-13
-1.15098e-12
-2.51335e-11
-6.19436e-11
-9.03134e-11
-9.49095e-11
-1.06371e-10
-1.75693e-10
-4.06348e-10
-8.62422e-10
-1.40762e-09
-1.67437e-09
-1.80176e-09
-1.83809e-09
-1.79879e-09
-1.64252e-09
-1.33676e-09
-9.30748e-10
-6.13639e-10
-6.51652e-20
-3.08776e-18
-8.52266e-17
-1.43126e-15
-1.74672e-14
-1.54256e-13
-2.93919e-12
-7.87857e-12
-8.97509e-12
-7.97978e-12
-9.56248e-12
-2.25494e-11
-6.46142e-11
-1.45607e-10
-2.21488e-10
-2.51696e-10
-2.60949e-10
-2.57215e-10
-2.35188e-10
-1.91756e-10
-1.33983e-10
-8.56127e-11
-5.44289e-11
-5.02072e-21
-2.54775e-19
-7.5798e-18
-1.38762e-16
-1.8342e-15
-1.62723e-14
-1.88347e-13
-6.0881e-13
-8.59651e-13
-8.93094e-13
-1.23558e-12
-3.01421e-12
-8.00133e-12
-1.65103e-11
-2.26986e-11
-2.48095e-11
-2.51687e-11
-2.41571e-11
-2.10177e-11
-1.5904e-11
-1.0263e-11
-5.53202e-12
-3.95963e-12
-2.62707e-22
-1.48223e-20
-4.8899e-19
-9.83039e-18
-1.38061e-16
-1.21383e-15
-8.10271e-15
-2.03766e-14
-2.78295e-14
-3.92628e-14
-8.80074e-14
-2.57247e-13
-6.37495e-13
-1.13104e-12
-1.37858e-12
-1.45685e-12
-1.46648e-12
-1.40875e-12
-1.24985e-12
-9.91529e-13
-6.02575e-13
-3.64816e-13
-5.245e-13
-8.47787e-24
-5.71344e-22
-2.1717e-20
-4.81529e-19
-7.07337e-18
-6.03838e-17
-3.27695e-16
-6.76191e-16
-1.09837e-15
-2.1945e-15
-6.35119e-15
-1.80489e-14
-3.75062e-14
-4.69228e-14
-4.94351e-14
-5.05523e-14
-5.14583e-14
-5.13471e-14
-4.90036e-14
-4.20157e-14
-2.69872e-14
-3.278e-14
-2.46227e-13
-1.51177e-25
-1.19504e-23
-5.12718e-22
-1.21434e-20
-1.81977e-19
-1.49364e-18
-6.16461e-18
-1.60483e-17
-4.09135e-17
-1.20424e-16
-3.6902e-16
-9.47071e-16
-1.36306e-15
-1.37999e-15
-1.28644e-15
-1.28596e-15
-1.3674e-15
-1.43235e-15
-1.4034e-15
-1.1207e-15
-1.21974e-15
-1.09431e-14
-2.75616e-13
-2.24252e-27
-1.18487e-25
-3.7325e-24
-7.7175e-23
-1.30846e-21
-1.49112e-20
-8.97988e-20
-4.04865e-19
-1.65133e-18
-5.74178e-18
-1.59871e-17
-3.47457e-17
-4.46182e-17
-4.4817e-17
-4.13705e-17
-3.6801e-17
-3.45831e-17
-3.23942e-17
-2.64345e-17
-2.70036e-17
-2.4452e-16
-1.06584e-14
-3.69131e-13
-8.91994e-29
-4.89506e-27
-1.55705e-25
-3.16304e-24
-5.15086e-23
-5.82588e-22
-3.60384e-21
-1.63103e-20
-6.32264e-20
-2.02661e-19
-4.90275e-19
-9.5074e-19
-1.21844e-18
-1.24683e-18
-1.1544e-18
-8.77715e-19
-5.17015e-19
-2.31973e-19
-2.33463e-19
-2.62617e-18
-2.0116e-16
-1.16849e-14
-3.9968e-13
-1.72781e-30
-9.72331e-29
-3.03683e-27
-5.70008e-26
-7.64409e-25
-7.21146e-24
-5.27903e-23
-2.90651e-22
-1.2313e-21
-3.9114e-21
-9.07595e-21
-1.83406e-20
-2.73444e-20
-2.90873e-20
-2.74394e-20
-2.13242e-20
-1.00096e-20
-5.7258e-21
-3.31305e-20
-1.41196e-18
-1.76969e-16
-1.11495e-14
-3.67009e-13
-6.36775e-36
-2.46837e-34
-5.19067e-33
-6.44082e-32
-5.28456e-31
-1.96284e-30
-5.53856e-30
-3.46356e-29
-2.18509e-28
-9.7565e-28
-3.06741e-27
-7.81406e-27
-1.26119e-26
-1.25417e-26
-1.40659e-26
-2.04388e-25
-1.01245e-23
-3.943e-22
-1.26026e-20
-7.48961e-19
-1.12181e-16
-7.04656e-15
-2.1126e-13
-3.97158e-40
-2.0909e-38
-6.29922e-37
-1.24737e-35
-1.97297e-34
-2.86814e-33
-7.7486e-32
-1.24826e-30
-9.30846e-30
-4.34778e-29
-1.37642e-28
-3.50573e-28
-5.40068e-28
-5.33861e-28
-1.13731e-27
-5.53998e-26
-3.06705e-24
-1.30274e-22
-4.8041e-21
-3.53608e-19
-4.93237e-17
-3.0043e-15
-8.79616e-14
-1.86132e-43
-9.6513e-42
-2.7324e-40
-4.8329e-39
-6.11045e-38
-5.71506e-37
-4.14329e-36
-2.39038e-35
-1.09641e-34
-4.31251e-34
-1.47523e-33
-9.65183e-33
-3.7363e-32
-1.35223e-30
-1.49611e-28
-1.36449e-26
-8.19508e-25
-3.85891e-23
-1.67445e-21
-1.43489e-19
-1.81975e-17
-1.09143e-15
-3.19251e-14
-4.74012e-49
-3.24235e-47
-1.21763e-45
-2.94002e-44
-5.1756e-43
-7.00218e-42
-7.55292e-41
-6.787e-40
-4.9661e-39
-3.17241e-38
-1.89292e-37
-7.37017e-36
-1.29765e-33
-2.28249e-31
-2.92914e-29
-2.95706e-27
-1.92196e-25
-1.02341e-23
-5.29229e-22
-4.91982e-20
-5.58434e-18
-3.33224e-16
-9.91559e-15
-1.37904e-52
-1.04046e-50
-4.27085e-49
-1.1432e-47
-2.25151e-46
-3.51471e-45
-4.49087e-44
-4.97081e-43
-4.58776e-42
-4.57057e-41
-2.83421e-39
-7.38559e-37
-1.64565e-34
-3.31911e-32
-4.81063e-30
-5.4056e-28
-3.83946e-26
-2.37136e-24
-1.4759e-22
-1.38753e-20
-1.36247e-18
-8.0654e-17
-2.79871e-15
-5.13341e-59
-4.92363e-57
-2.81771e-55
-1.17136e-53
-3.81699e-52
-1.00986e-50
-2.16439e-49
-6.61951e-48
-1.36802e-45
-5.49758e-43
-1.91617e-40
-6.39639e-38
-1.67513e-35
-3.91637e-33
-6.53883e-31
-8.28069e-29
-6.54035e-27
-4.81047e-25
-3.62558e-23
-3.27421e-21
-2.65644e-19
-1.55671e-17
-1.28327e-15
-2.74613e-64
-4.44026e-62
-3.96802e-60
-2.39941e-58
-1.09302e-56
-5.83408e-55
-1.45256e-52
-8.23293e-50
-4.34932e-47
-2.19689e-44
-9.42609e-42
-3.82448e-39
-1.22409e-36
-3.39841e-34
-6.74588e-32
-9.84472e-30
-8.88331e-28
-8.07347e-26
-7.63409e-24
-6.96707e-22
-5.61682e-20
-4.47635e-18
-1.42785e-15
-1.62548e-68
-3.91792e-66
-5.01646e-64
-4.37448e-62
-3.97506e-60
-1.48212e-57
-1.19114e-54
-9.81758e-52
-7.10649e-49
-4.9039e-46
-2.85489e-43
-1.51314e-40
-6.26562e-38
-2.15692e-35
-5.39452e-33
-9.89744e-31
-1.2537e-28
-1.76692e-26
-2.66466e-24
-3.53995e-22
-6.26091e-20
-1.04217e-17
-3.93134e-15
-4.35525e-73
-1.58341e-70
-3.31066e-68
-7.10915e-66
-4.56866e-63
-6.32578e-60
-8.77447e-57
-1.15738e-53
-1.37195e-50
-1.4817e-47
-1.39702e-44
-1.13659e-41
-7.66212e-39
-4.12801e-36
-1.80607e-33
-5.96157e-31
-1.67516e-28
-4.30334e-26
-1.01856e-23
-1.90501e-21
-5.06107e-19
-8.42734e-17
-1.73592e-14
-7.85624e-77
-7.48584e-74
-2.40828e-70
-1.15972e-66
-4.41555e-63
-1.28476e-59
-3.00256e-56
-5.45259e-53
-8.23585e-50
-9.87873e-47
-1.02987e-43
-8.80008e-41
-6.49391e-38
-3.72545e-35
-1.78861e-32
-6.44255e-30
-1.94966e-27
-4.89599e-25
-1.09441e-22
-2.01049e-20
-4.75806e-18
-6.92769e-16
-1.00894e-13
-6.97557e-77
-6.0638e-73
-4.81354e-69
-2.50754e-65
-9.57747e-62
-2.74242e-58
-6.212e-55
-1.08989e-51
-1.56792e-48
-1.77514e-45
-1.70597e-42
-1.33366e-39
-9.02476e-37
-4.87867e-34
-2.23809e-31
-7.92308e-29
-2.33769e-26
-5.57076e-24
-1.15704e-21
-2.16586e-19
-4.50673e-17
-5.92591e-15
-6.69695e-13
-8.78739e-76
-1.44276e-71
-1.14977e-67
-6.00596e-64
-2.2728e-60
-6.39877e-57
-1.40494e-53
-2.37604e-50
-3.2453e-47
-3.46811e-44
-3.08301e-41
-2.20103e-38
-1.35731e-35
-6.84191e-33
-2.95842e-30
-1.01726e-27
-2.9075e-25
-6.57212e-23
-1.26945e-20
-2.50196e-18
-4.57841e-16
-5.68892e-14
-5.1356e-12
-2.40036e-74
-3.86817e-70
-3.10988e-66
-1.6185e-62
-6.01647e-59
-1.65252e-55
-3.49007e-52
-5.65469e-49
-7.29535e-46
-7.35008e-43
-6.0592e-40
-3.98052e-37
-2.25555e-34
-1.06057e-31
-4.27185e-29
-1.40125e-26
-3.81279e-24
-8.19787e-22
-1.49424e-19
-3.07913e-17
-5.04186e-15
-4.55329e-13
-2.17149e-11
-6.92397e-73
-1.12891e-68
-9.05759e-65
-4.65923e-61
-1.68919e-57
-4.49989e-54
-9.09859e-51
-1.40786e-47
-1.71234e-44
-1.62685e-41
-1.24706e-38
-7.61168e-36
-3.99909e-33
-1.76117e-30
-6.57289e-28
-2.03192e-25
-5.18897e-23
-1.06614e-20
-1.74329e-18
-2.17626e-16
-1.89618e-14
-1.08303e-12
-3.95657e-11
-2.085e-71
-3.39821e-67
-2.697e-63
-1.36233e-59
-4.79255e-56
-1.23361e-52
-2.38247e-49
-3.51701e-46
-4.03291e-43
-3.6179e-40
-2.58575e-37
-1.47607e-34
-6.86904e-32
-2.61394e-29
-8.20353e-27
-2.1012e-24
-4.32728e-22
-6.98458e-20
-8.36682e-18
-7.33072e-16
-4.75106e-14
-2.22678e-12
-7.37786e-11
-6.21481e-70
-9.74158e-66
-7.39215e-62
-3.51776e-58
-1.15007e-54
-2.71845e-51
-4.77982e-48
-6.37431e-45
-6.53688e-42
-5.19704e-39
-3.23755e-36
-1.57825e-33
-6.07961e-31
-1.85289e-28
-4.48318e-26
-8.6329e-24
-1.32397e-21
-1.61207e-19
-1.57033e-17
-1.19448e-15
-6.83545e-14
-2.81821e-12
-8.01259e-11
-8.2309e-69
-1.21519e-64
-8.58624e-61
-3.76947e-57
-1.13054e-53
-2.4382e-50
-3.89096e-47
-4.67829e-44
-4.29152e-41
-3.0223e-38
-1.64529e-35
-6.93812e-33
-2.27709e-30
-5.82661e-28
-1.166e-25
-1.83472e-23
-2.27963e-21
-2.2478e-19
-1.77303e-17
-1.11963e-15
-5.57906e-14
-2.11049e-12
-5.87539e-11
-2.83691e-68
-3.82703e-64
-2.45712e-60
-9.85506e-57
-2.73055e-53
-5.49327e-50
-8.25211e-47
-9.42616e-44
-8.28164e-41
-5.63905e-38
-2.9936e-35
-1.24464e-32
-4.06642e-30
-1.04871e-27
-2.13637e-25
-3.45932e-23
-4.45323e-21
-4.58388e-19
-3.77565e-17
-2.49725e-15
-1.31718e-13
-5.41176e-12
-1.64473e-10
-533.082
-533.343
-533.371
-423.311
-658.185
-658.463
-658.552
-651.079
-783.671
-783.62
-783.671
-783.625
-909.051
-909.024
-909.013
-909.025
-1034.25
-1034.25
-1034.25
-1034.25
-429.743
-551.23
-693.875
-900.538
-13.7426
-23.2996
-46.4133
-86.1022
-0.0145088
-0.0303807
-0.0609147
-0.114938
-0.0107169
-0.00575507
-0.00253232
-0.00855324
-0.00118785
-0.000382637
-1.44544e-05
-0.0392125
-0.00016942
-0.000312229
-1.5547e-05
-2.13732e-09
-2.28719e-09
-2.28719e-09
-2.28719e-09
-2.28719e-09
-3.50762e-08
-1.37455e-08
-7.3331e-09
-3.56398e-09
-2.31126e-08
-1.97528e-08
-1.65025e-08
-1.31652e-08
-3.59495e-09
-3.1202e-09
-2.64514e-09
-2.33917e-09
-4.50922e-10
-3.78866e-10
-3.32807e-10
-2.81258e-10
-3.95147e-11
-3.33892e-11
-3.21452e-11
-3.3453e-11
-3.96855e-12
-4.31087e-12
-5.29479e-12
-7.43992e-12
-8.49352e-13
-1.36279e-12
-2.38975e-12
-4.43082e-12
-6.00035e-13
-1.11619e-12
-2.15861e-12
-4.60733e-12
-7.28844e-13
-1.43567e-12
-3.08048e-12
-8.07498e-12
-9.9689e-13
-2.04087e-12
-4.83802e-12
-1.52485e-11
-1.08672e-12
-2.27071e-12
-5.7188e-12
-1.96639e-11
-1.0093e-12
-2.16866e-12
-5.7454e-12
-2.01117e-11
-5.93316e-13
-1.36257e-12
-4.15368e-12
-1.48466e-11
-2.50343e-13
-6.06952e-13
-2.20998e-12
-1.05098e-11
-9.41847e-14
-2.82019e-13
-1.66102e-12
-1.25536e-11
-3.57063e-14
-2.11111e-13
-2.82554e-12
-3.85992e-11
-2.27707e-14
-4.02543e-13
-9.68475e-12
-1.44771e-10
-3.60006e-14
-1.2997e-12
-3.1525e-11
-4.28586e-10
-1.01244e-13
-3.62099e-12
-7.8612e-11
-9.03385e-10
-2.74923e-13
-8.74831e-12
-1.64396e-10
-1.69027e-09
-9.10548e-13
-2.4506e-11
-3.87278e-10
-3.82975e-09
-4.26879e-12
-9.4195e-11
-1.2893e-09
-1.40346e-08
-2.4138e-11
-4.63392e-10
-6.22295e-09
-7.29632e-08
-1.45516e-10
-2.03986e-09
-2.3729e-08
-2.38861e-07
-4.47001e-10
-5.06457e-09
-4.8589e-08
-3.93274e-07
-6.9569e-10
-6.83282e-09
-5.80751e-08
-4.31072e-07
-1.26774e-09
-1.24686e-08
-1.03715e-07
-7.97591e-07
-1.15354e-09
-9.70815e-09
-8.2615e-08
-9.84132e-07
-8.66024e-10
-6.5344e-09
-3.5155e-08
-3.84413e-07
-2.42947e-09
-1.69518e-08
-8.57295e-08
-3.93281e-07
-13.2332
-34.8779
-48.9802
-12.7364
-0.570642
-0.000849423
-2.2293e-08
-5.02913e-10
-7.66041e-11
-2.83159e-10
-3.48226e-09
-3.17591e-08
-1.53731e-07
-2.71843e-07
-1.79031e-07
-1.44549e-07
-4.53458e-07
-2.07979e-25
-224.497
-574.211
-607.407
-516.76
-133.022
-3.39827
-0.00491814
-1.50641e-07
-1.00944e-08
-8.3674e-09
-1.79236e-10
-1.79239e-10
-5.30845e-10
-3.11613e-08
-6.96328e-08
-4.72179e-08
-2.47e-07
-4.30347e-06
-3.88123e-24
-496.312
-783.506
-783.804
-783.856
-477.515
-34.2031
-0.136396
-5.79394e-08
-5.79391e-08
-9.64485e-08
-2.51606e-07
-5.24646e-07
-4.48324e-07
-1.29304e-07
-3.87863e-08
-1.50629e-08
-6.11627e-06
-3.22672e-05
8.28185e-24
-590.695
-909.041
-909.048
-909.051
-823.334
-206.032
-0.96862
-0.0164582
-1.9424e-07
-1.15879e-07
-7.42087e-07
-2.84308e-06
-2.85026e-06
-1.8781e-06
-4.49808e-08
-2.3201e-05
-5.36874e-05
-5.36592e-05
8.38596e-24
-683.798
-1034.25
-1034.25
-1034.25
-1034.25
-804.975
-93.2838
-9.07445e-08
-9.07447e-08
-8.65795e-08
-5.553e-07
-2.2082e-06
-2.87594e-06
-2.08151e-06
-2.01701e-07
-1.2374e-05
-5.51413e-05
-1.41289e-05
-9.6571e-18
-801.935
-1126.43
-1159.44
-1159.44
-1159.44
-1159.44
-885.895
-260.261
-3.76232e-13
-3.80706e-13
-3.76233e-13
-3.80725e-13
-3.76353e-13
-3.19077e-08
-9.77383e-09
-8.42984e-08
-3.76959e-13
-3.81026e-13
-67.492
-1002.7
-185.931
-465.66
-1014.84
-1284.63
-1284.63
-1284.63
-1142.3
-713.064
-280.479
-62.2526
-13.7256
-6.50353
-4.1701e-13
-4.21965e-13
-4.17006e-13
-7.3511
-44.2951
-639.916
-1246.24
-0.419203
-8.88243
-101.168
-383.687
-919.814
-1397.99
-1409.71
-1409.71
-1291.01
-1050.85
-924.772
-895.572
-861.019
-826.105
-833.13
-847.571
-997.312
-1306.07
-1398.69
-0.0235634
-0.0242563
-0.0702895
-2.98107
-80.3088
-369.209
-817.643
-1249.19
-1437.92
-1523.54
-1527.43
-1527.43
-1527.43
-1527.43
-1527.43
-1527.35
-1524.39
-1526.9
-1526.9
-0.0562742
-0.0544692
-0.00752289
-0.0010637
-0.149427
-5.5088
-34.9615
-212.871
-466.602
-728.666
-898.315
-1000.6
-1099.43
-1208.06
-1352.17
-1559.74
-1651.43
-1651.43
-1651.43
-0.0578246
-0.0657815
-0.0418606
-0.000741036
-1.19938e-05
-0.000785746
-0.059994
-1.3766
-6.79601
-18.2321
-34.0026
-58.5738
-98.8399
-165.13
-296.749
-754.658
-1489.77
-1758.82
-1775.96
-0.00694466
-0.0193155
-0.0132468
-0.000908316
-5.88888e-07
-5.48975e-07
-6.96454e-07
-2.2068e-05
-0.000619284
-0.00520485
-0.0257757
-0.156281
-0.450031
-0.449928
-1.48007
-82.3016
-975.79
-1847.23
-1817.94
-2.47505e-06
-1.06641e-06
-0.000124652
-0.000211717
-1.93634e-05
-5.26486e-07
-3.27432e-07
-9.34244e-07
-1.98073e-06
-5.43333e-06
-0.0085233
-0.586142
-3.24301
-17.054
-58.0309
-289.838
-1334.5
-2014.2
-1903.53
-5.78135e-09
-2.09746e-09
-3.61679e-08
-5.18456e-06
-7.48412e-06
-1.2617e-06
-3.47563e-07
-9.45328e-07
-1.35501e-06
-1.77628e-06
-0.00172164
-1.39103
-48.2771
-330.088
-905.198
-1489.56
-1976.57
-2140.41
-2061.66
-1.46063e-09
-1.55408e-09
-8.09878e-09
-2.76123e-07
-9.95555e-07
-7.80803e-07
-2.96872e-07
-9.06892e-07
-1.97582e-06
-1.91229e-06
-0.000327548
-1.10425
-200.441
-1435.45
-2103
-2171.04
-2248.33
-2264.4
-2264.41
-2.44144e-10
-4.24589e-10
-2.96096e-09
-5.01443e-08
-1.94477e-07
-2.2793e-07
-1.82989e-07
-4.22952e-07
-2.27882e-06
-2.31904e-06
-0.000104746
-2.4231
-319.64
-1575.16
-2191.44
-2282.44
-2270.9
-2073.04
-2131.91
-5.82226e-11
-1.58867e-10
-1.0547e-09
-6.57335e-09
-2.54855e-07
-9.10489e-07
-7.5729e-07
-3.39681e-07
-1.40044e-06
-2.16201e-06
-4.89154e-05
-2.36429
-25.3763
-72.8319
-679.239
-1750.07
-2358.4
-1494.45
-1362.64
-4.69706e-11
-2.93174e-10
-3.99185e-09
-2.94299e-08
-1.70671e-07
-1.00276e-06
-2.07144e-06
-2.05676e-06
-1.53943e-06
-1.99359e-06
-1.74899e-06
-0.403534
-1.27497e-06
-1.27478e-06
-1.27497e-06
-288.402
-1627.49
-1654.54
-1166.35
-7.84102e-11
-8.28525e-10
-1.22891e-08
-4.14761e-08
-3.87197e-06
-3.35686e-06
-1.96083e-06
-1.96079e-06
-1.59828e-06
-1.59831e-06
-1.83123e-06
-0.000148977
-1.33474e-06
-0.0295181
-0.133283
-5.1489
-810.869
-1508.2
-1034.19
-2.83532e-10
-8.34828e-10
-1.39589e-07
-3.19248e-07
-4.40419e-07
-1.1842e-05
-2.76891e-05
-1.67008e-06
-1.67011e-06
-2.69209e-06
-3.20949e-06
-2.79752e-06
-1.3949e-06
-0.00819651
-0.0121837
-11.3495
-357.352
-1081.97
-462.553
-1.84379e-09
-9.74172e-10
-1.85959e-07
-1.42033e-06
-5.59826e-07
-2.79213e-07
-0.000203423
-0.00087649
-0.000252255
-1.91984e-05
-6.49991e-06
-2.77168e-06
-3.84454e-06
-7.93776e-05
-5.59634e-06
-0.870649
-110.102
-995.089
-482.438
-2.26152e-09
-5.92165e-09
-5.92155e-09
-1.24047e-06
-7.95201e-06
-2.90489e-07
-0.000160971
-0.000922366
-0.00092235
-7.89165e-05
-4.32273e-06
-2.20993e-06
-5.75111e-06
-5.74917e-06
-5.75045e-06
-0.00174042
-0.618529
-989.904
-502.323
-2.73602e-09
-8.14538e-09
-7.12565e-09
-4.04192e-09
-1.10066e-05
-3.27578e-05
-3.27522e-05
-0.000376212
-0.00371958
-0.000297461
-2.29129e-06
-2.32996e-06
-6.18845e-06
-6.54078e-06
-9.27643e-06
-4.21044e-06
-23.9658
-555.232
-522.346
-1.30961e-09
-6.37233e-09
-1.67402e-08
-4.18842e-09
-2.96667e-06
-9.4899e-05
-5.65897e-05
-5.65932e-05
-5.85757e-05
-0.0172519
-0.0262927
-0.00669971
-2.15203e-05
-5.92243e-06
-5.89721e-06
-4.37106e-06
-1.48617
-0.177926
-750.003
-5.74994e-10
-4.60256e-09
-2.55323e-08
-5.99084e-08
-3.10925e-08
-2.95941e-06
-0.00159414
-0.000782652
-6.02339e-05
-0.0257099
-0.0340641
-0.00748143
-2.23076e-05
-2.37645e-05
-7.94123e-06
-4.60579e-06
-1.88282e-06
-0.234464
-827.516
-5.36711e-10
-8.0327e-09
-3.15269e-08
-4.35287e-07
-2.5157e-07
-7.14647e-08
-0.000789318
-0.00579138
-0.00205073
-0.00587841
-0.0245208
-0.0390396
-0.00453606
-9.27077e-06
-5.64627e-06
-5.62927e-06
-1.94946e-06
-1.08107e-07
-850.754
-1.28204e-09
-2.42816e-08
-3.3144e-08
-1.2366e-06
-4.70231e-06
-1.06516e-06
-7.53078e-07
-0.00598917
-0.00608961
-0.00106502
-0.00490816
-0.084115
-0.0350393
-0.00103981
-3.47442e-05
-4.26656e-06
-1.47127e-06
-1.11801e-07
-788.392
-4.11024e-09
-4.65064e-08
-4.06122e-08
-4.06107e-08
-0.000285456
-0.000167588
-7.77155e-07
-0.00157863
-0.00466981
-0.000931979
-0.00017047
-0.0869069
-0.098396
-0.0158521
-6.7378e-05
-1.15496e-07
-1.15496e-07
-1.15496e-07
-839.84
-9.57647e-09
-5.92903e-08
-4.22133e-08
-4.19091e-08
-0.000833866
-0.000984097
-0.000369477
-0.000282595
-0.000319931
-0.000180609
-0.000175894
-0.0893253
-0.101539
-0.0353706
-7.39701e-06
-0.00379388
-0.0392728
-1.1919e-07
-969.816
-1.44671e-08
-6.42514e-08
-4.35246e-08
-0.000161951
-0.000823191
-0.00170138
-0.00381003
-0.000291327
-0.000291355
-0.000478595
-0.000181376
-0.0775194
-0.104691
-0.0296815
-7.63004e-06
-0.00189192
-0.185781
-5.97521
-1000.07
-1.88645e-08
-9.56926e-08
-4.4831e-08
-0.000426459
-0.000680684
-0.0530748
-0.426126
-0.748165
-0.218816
-0.0349849
-0.000263445
-0.0427216
-0.107834
-0.012502
-7.85558e-06
-7.85944e-06
-0.457441
-27.1717
-633.649
-2.63971e-08
-1.75235e-07
-2.31909e-06
-2.31932e-06
-0.0496668
-0.685896
-0.795934
-0.795934
-0.795934
-0.0285796
-2.53474e-05
-0.00868679
-0.0542036
-0.00191537
-0.00352961
-3.78912
-32.3162
-64.2307
-35.9607
-6.247e-08
-2.68762e-07
-2.53759e-05
-0.00133102
-0.234644
-0.818507
-0.818507
-0.818507
-0.643789
-1.65602e-07
-2.61504e-05
-0.000271879
-2.55307e-05
-2.55151e-05
-0.011566
-2.68113
-459.953
-343.399
-31.3965
-2.51421e-07
-3.36416e-06
-5.30477e-05
-0.00157738
-0.149938
-0.802138
-0.841079
-0.50547
-0.0614484
-1.70169e-07
-1.07816e-05
-8.51452e-06
-8.51187e-06
-0.0105119
-0.0172667
-1.52728e-07
-736.312
-1384.97
-513.251
-1.09823e-06
-1.29018e-05
-0.000106159
-0.00198531
-0.0968646
-0.322998
-0.32809
-0.0220512
-1.74736e-07
-1.80768e-07
-7.50359e-06
-0.00209046
-0.014382
-0.0172009
-0.0172014
-1.56827e-07
-656.066
-2235.68
-2224.68
-3.72583e-06
-7.52164e-05
-0.000265341
-0.000776178
-0.00191519
-0.00293905
-0.00367147
-0.00242895
-1.79302e-07
-8.4226e-07
-0.000128686
-0.00294909
-0.0094145
-0.0102556
-0.00207258
-1.60925e-07
-1137.37
-2294.11
-2294.11
-6.26193e-06
-0.00022564
-0.000590769
-8.51709e-05
-4.5059e-05
-4.5059e-05
-0.0013257
-0.00506195
-0.00323746
-5.966e-07
-5.96716e-07
-5.966e-07
-5.96716e-07
-0.00177341
-1.65024e-07
-1.65024e-07
-313.475
-2311.17
-2352.53
-6.97756e-06
-0.000278439
-0.000818854
-0.000124125
-4.61782e-05
-7.44731e-05
-0.00826241
-0.0156433
-0.0156514
-0.0018523
-0.0019668
-0.029934
-0.0506735
-0.0685497
-0.0684686
-0.0142406
-0.000774188
-1232.15
-2410.97
-2.18047e-05
-0.000521177
-0.000838681
-9.47202e-05
-4.72974e-05
-7.6222e-05
-0.00749125
-0.0148531
-0.00991397
-0.0191308
-0.0562941
-0.0625255
-0.0625688
-0.0189205
-0.0127432
-0.00225935
-0.000797103
-69.4258
-1108.86
-6.69746e-05
-0.00101954
-0.0012982
-4.84165e-05
-4.84165e-05
-0.000365251
-0.00204544
-0.00196443
-0.00132486
-0.0241994
-0.0575958
-0.0534743
-0.00626504
-0.00294458
-0.00352753
-0.0026176
-0.0110581
-0.935411
-19.9876
-0.000129929
-0.00444736
-0.00578421
-4.95357e-05
-4.95357e-05
-4.95357e-05
-5.69454e-05
-4.95357e-05
-4.95357e-05
-0.022623
-0.0563298
-0.00190582
-0.00445215
-0.000346453
-0.000532432
-0.00782539
-0.00648271
-0.00388775
-0.0302632
-6.65101e-06
-0.000375886
-0.0117436
-0.0212356
-0.0110003
-0.0027359
-0.000702747
-0.000873778
-0.00761004
-0.0291302
-0.022948
5.11562e-22
-0.00010586
1.353e-28
3.93804e-32
-0.00315503
-0.0102533
-0.00188586
-0.00014794
)
;

boundaryField
{
    leftWall
    {
        type            calculated;
        value           nonuniform List<scalar> 
50
(
-29.4294
-88.2881
-147.147
-206.006
-264.864
-323.723
-382.582
-441.44
-533.005
-540.734
-98.4676
-2.21874e-32
-1.52765e-15
-4.62504e-15
-6.20929e-15
-6.79007e-15
-5.48345e-15
-2.80359e-15
-1.16131e-15
-3.94861e-16
-1.09514e-16
-2.45661e-17
-4.39598e-18
-6.14828e-19
-6.51652e-20
-5.02072e-21
-2.62707e-22
-8.47787e-24
-1.51177e-25
-2.24252e-27
-8.91994e-29
-1.72781e-30
-6.36775e-36
-3.97158e-40
-1.86132e-43
-4.74012e-49
-1.37904e-52
-5.13341e-59
-2.74613e-64
-1.62548e-68
-4.35525e-73
-7.85624e-77
-6.97557e-77
-8.78739e-76
-2.40036e-74
-6.92397e-73
-2.085e-71
-6.21481e-70
-8.2309e-69
-2.83691e-68
)
;
    }
    rightWall
    {
        type            calculated;
        value           nonuniform List<scalar> 
50
(
-17.8795
-53.6386
-89.3975
-125.157
-160.916
-101.486
-0.937453
-15.685
-224.497
-496.312
-590.695
-683.798
-801.935
-1002.7
-1246.24
-1398.69
-1526.9
-1651.43
-1775.96
-1817.94
-1903.53
-2061.66
-2264.41
-2131.91
-1362.64
-1166.35
-1034.19
-462.553
-482.438
-502.323
-522.346
-750.003
-827.516
-850.754
-788.392
-839.84
-969.816
-1000.07
-633.649
-35.9607
-31.3965
-513.251
-2224.68
-2294.11
-2352.53
-2410.97
-1108.86
-19.9876
-0.0302632
-0.00014794
)
;
    }
    lowerWall
    {
        type            calculated;
        value           nonuniform List<scalar> 
62
(
0
0
0
0
0
0
0
0
0
0
0
0
0
0
0
0
0
0
0
0
0
0
0
-29.4171
-88.2513
-147.097
-205.999
-264.864
-323.723
-382.582
-441.347
-470.53
-470.76
-470.785
-373.64
-1.10513e-19
-1.35434e-17
-1.12814e-15
-3.82316e-14
-1.77163e-12
-3.54744e-11
-5.04076e-10
-2.74519e-10
0
0
0
0
0
0
0
0
0
0
0
0
0
0
0
0
0
0
0
)
;
    }
    atmosphere
    {
        type            calculated;
        value           nonuniform List<scalar> 
46
(
-0
-0
-0
-0
-0
-0
-0
-0
-0
-0
-0
-0
-0
-0
-0
-0
-0
-0
-0
-0
-0
-0
-0
-2.45631e-09
-1.71391e-08
-8.66765e-08
-3.97626e-07
-6.72448e-06
-0.000380039
-0.0118733
-0.0214702
-0.0111218
-0.00276612
-0.00071051
-0.00088343
-0.00769411
-0.029452
-0.0232015
5.17213e-22
-0
-0
-0
-0
-0.0103666
-0.00190669
-0.000149575
)
;
    }
    defaultFaces
    {
        type            empty;
    }
}


// ************************************************************************* //
