/*--------------------------------*- C++ -*----------------------------------*\
| =========                 |                                                 |
| \\      /  F ield         | OpenFOAM: The Open Source CFD Toolbox           |
|  \\    /   O peration     | Version:  2012                                  |
|   \\  /    A nd           | Website:  www.openfoam.com                      |
|    \\/     M anipulation  |                                                 |
\*---------------------------------------------------------------------------*/
FoamFile
{
    version     2.0;
    format      ascii;
    class       volScalarField;
    location    "0.1";
    object      maxKappa;
}
// * * * * * * * * * * * * * * * * * * * * * * * * * * * * * * * * * * * * * //

dimensions      [0 0 0 0 0 0 0];


internalField   nonuniform List<scalar> 
160
(
2.974086523e-06
3.7788805e-06
6.802224102e-06
9.401124672e-06
1.127986881e-05
1.322843982e-05
1.576289465e-05
1.784232206e-05
2.010116893e-05
2.236272228e-05
2.443807872e-05
2.699695112e-05
2.901229805e-05
3.092346394e-05
3.368827878e-05
3.576381106e-05
3.801137783e-05
4.028472677e-05
4.254772464e-05
4.481488212e-05
4.708584659e-05
4.936795378e-05
5.16552471e-05
5.393660681e-05
5.603358241e-05
5.914426907e-05
6.077187529e-05
6.298188882e-05
6.553192786e-05
6.75330252e-05
7.004063218e-05
7.215813901e-05
7.45114409e-05
7.685815487e-05
7.89888169e-05
8.149218835e-05
8.351583873e-05
8.609007045e-05
8.817269281e-05
9.059844354e-05
9.28609982e-05
9.51844411e-05
9.753295333e-05
9.977914687e-05
0.0001021895913
0.0001043986993
0.000106812469
0.0001090564282
0.0001113746725
0.0001137170271
0.0001159645043
0.0001183891108
0.0001205846028
0.0001229259117
0.0001251336597
0.0001273211568
0.0001295705889
0.0001315766286
0.0001339693851
0.0001356988866
0.0001382556049
0.0001394773885
0.0001421278091
0.0001425928795
0.0001452477813
0.0001452477813
0.0001471421154
0.0001471421154
0.00014720872
0.00014720872
0.0001434730433
0.0001428392993
0.000129942442
0.0001251252872
0.0001251252872
0.0001173875996
0.000115850898
0.0001059153707
8.75023982e-05
5.905181368e-05
3.20635309e-05
1.635617767e-05
8.967369427e-06
6.284652527e-06
5.326009505e-06
5.032735094e-06
4.919023352e-06
4.89334739e-06
4.886253143e-06
5.061175513e-06
5.940828836e-06
9.171478863e-06
1.789950757e-05
3.42212589e-05
5.975064124e-05
8.638857376e-05
0.0001021208644
0.0001091748954
0.0001091897292
0.0001123228199
0.0001123228199
0.0001152087456
0.0001152087456
0.0001178863399
0.0001178863399
0.0001280930348
0.0001320695133
0.0001320695133
0.0001263637028
0.0001263637028
0.000122040136
0.000122040136
0.0001185002865
0.0001185002865
0.0001156300269
0.0001147383148
0.0001125998405
0.0001107864513
0.0001088592225
0.0001066295948
0.0001044636967
0.0001020018184
9.953728864e-05
9.675692385e-05
9.503299329e-05
9.158223358e-05
8.932741629e-05
8.679677017e-05
8.357434188e-05
8.157172667e-05
7.884296092e-05
7.614962272e-05
7.414520353e-05
7.106539204e-05
6.760029282e-05
6.587727776e-05
6.317412213e-05
6.048292115e-05
5.796282134e-05
5.527472377e-05
5.268237231e-05
4.995270435e-05
4.737764659e-05
4.461914852e-05
4.210493035e-05
3.939814775e-05
3.680345156e-05
3.42392223e-05
3.155035043e-05
2.896445479e-05
2.629284957e-05
2.374157032e-05
2.102669565e-05
1.841042881e-05
1.573367376e-05
1.320849204e-05
1.045986301e-05
7.913766111e-06
5.108578933e-06
3.33233957e-06
)
;

boundaryField
{
    sides
    {
        type            calculated;
        value           uniform 0;
    }
    empty1
    {
        type            empty;
    }
    empty2
    {
        type            empty;
    }
}


// ************************************************************************* //
