/*--------------------------------*- C++ -*----------------------------------*\
| =========                 |                                                 |
| \\      /  F ield         | OpenFOAM: The Open Source CFD Toolbox           |
|  \\    /   O peration     | Version:  2012                                  |
|   \\  /    A nd           | Website:  www.openfoam.com                      |
|    \\/     M anipulation  |                                                 |
\*---------------------------------------------------------------------------*/
FoamFile
{
    version     2.0;
    format      ascii;
    class       volScalarField;
    location    "0.1";
    object      rho;
}
// * * * * * * * * * * * * * * * * * * * * * * * * * * * * * * * * * * * * * //

dimensions      [1 -3 0 0 0 0 0];


internalField   nonuniform List<scalar> 
160
(
1.14305165
1.143064289
1.143074948
1.143074621
1.143077628
1.143081815
1.143084973
1.14308409
1.143088042
1.143090068
1.143090396
1.143096368
1.143096453
1.143098009
1.143101219
1.143099711
1.14310427
1.143106758
1.14310915
1.143111844
1.143114238
1.143117481
1.143119864
1.143122686
1.143122403
1.143134312
1.143133277
1.143140691
1.143142641
1.14314343
1.143146915
1.143148191
1.143152242
1.143155972
1.143157121
1.143160467
1.14316044
1.143164185
1.143163944
1.143166647
1.143166448
1.143168769
1.143171153
1.143172227
1.143175633
1.14317619
1.143178227
1.143179382
1.143182275
1.143184861
1.143185971
1.143188702
1.143189656
1.143190924
1.143191433
1.143190948
1.143176787
1.143170144
1.143138153
1.143122728
1.143067212
1.14303853
1.14294006
1.142886671
1.142702784
1.142604523
1.142264141
1.142088904
1.141480215
1.141180172
1.140113881
1.139529236
1.181742771
1.8576131
6.157924837
23.54199013
74.75159371
189.6754792
392.5738552
670.518622
874.1554474
970.7671922
1010.961881
1025.887627
1030.911227
1032.45938
1032.898997
1033.023004
1032.991963
1032.337769
1028.103884
1010.751594
959.6574529
844.8781883
642.038518
363.7033885
160.3593277
63.56510552
23.29090295
8.428783806
3.580743237
2.110860017
1.691828472
1.556488165
1.511231287
1.496603801
1.490803466
1.489110099
1.488550355
1.487194869
1.486949716
1.486113093
1.485938257
1.48540519
1.485291926
1.484986
1.48491889
1.484776165
1.484753302
1.484685094
1.484678041
1.484678477
1.484675489
1.484688259
1.484695909
1.484709003
1.484713059
1.484712646
1.484721551
1.484718043
1.484736361
1.484743137
1.48474384
1.48473957
1.484749144
1.484737679
1.484744825
1.484745861
1.484752143
1.484753233
1.484753708
1.484753567
1.484749792
1.484748581
1.484743008
1.484742496
1.484741502
1.484739042
1.48473788
1.484734518
1.484733708
1.484731069
1.484731706
1.484727548
1.484727012
1.48472231
1.48472311
1.484752281
1.484765151
1.48477348
)
;

boundaryField
{
    sides
    {
        type            calculated;
        value           nonuniform List<scalar> 2(1.48477348 1.14305165);
    }
    empty1
    {
        type            empty;
    }
    empty2
    {
        type            empty;
    }
}


// ************************************************************************* //
