/*--------------------------------*- C++ -*----------------------------------*\
| =========                 |                                                 |
| \\      /  F ield         | OpenFOAM: The Open Source CFD Toolbox           |
|  \\    /   O peration     | Version:  2012                                  |
|   \\  /    A nd           | Website:  www.openfoam.com                      |
|    \\/     M anipulation  |                                                 |
\*---------------------------------------------------------------------------*/
FoamFile
{
    version     2.0;
    format      ascii;
    class       volScalarField;
    location    "0.1";
    object      T;
}
// * * * * * * * * * * * * * * * * * * * * * * * * * * * * * * * * * * * * * //

dimensions      [0 0 0 1 0 0 0];


internalField   nonuniform List<scalar> 
160
(
259.891224
259.8911562
259.890942
259.890508
259.8905341
259.8905618
259.8905261
259.8906034
259.8906233
259.8906311
259.8906557
259.8906904
259.8907523
259.8902244
259.8901518
259.8900334
259.8900086
259.8899871
259.8899817
259.8898688
259.8898904
259.8893687
259.8893739
259.8892599
259.8892471
259.8892381
259.8893788
259.889444
259.8895633
259.8891429
259.8891586
259.8886614
259.8886883
259.8878311
259.8877961
259.887735
259.8876895
259.8876411
259.8876159
259.8876034
259.8876211
259.8874716
259.8874981
259.8873816
259.8874387
259.8874103
259.8874249
259.8872955
259.8873009
259.886996
259.8870546
259.8869067
259.8869433
259.8873107
259.8873866
259.8874838
259.8924019
259.8927369
259.9031492
259.9037812
259.9214054
259.9224404
259.9528754
259.9547408
260.0099934
260.0134314
260.1133382
260.1195565
260.2952627
260.3061388
260.6065558
260.6250896
261.1656927
261.1962064
263.005467
263.03429
265.2719075
265.2962278
267.2379748
267.258651
268.931431
268.9493093
270.4185244
270.4344061
271.7674013
271.7820717
273.0462668
273.0605026
274.3232892
274.3378589
275.6667853
275.6824544
277.1460013
277.1635452
278.8324004
278.852628
280.7969833
280.8207734
283.0650481
283.0934171
285.2145518
285.2479258
286.4209983
286.4544601
287.1811011
287.212394
287.7091058
287.7498571
287.7704251
288.0862042
288.0967651
288.2888044
288.2961816
288.4209332
288.4253718
288.4984777
288.5010174
288.5380214
288.5389966
288.5506885
288.5508419
288.5509762
288.5509524
288.5509481
288.547533
288.5471377
288.546599
288.5459915
288.5454082
288.5449885
288.5393646
288.5392997
288.5390615
288.5390684
288.5364615
288.5363915
288.534268
288.5341666
288.5318081
288.5317055
288.5299448
288.5299037
288.5290496
288.5290085
288.5289722
288.5284574
288.5276459
288.5275124
288.5273946
288.527296
288.527208
288.5271354
288.5262147
288.5262194
288.5259046
288.5258917
288.5253938
288.5253609
288.5252426
288.5252237
)
;

boundaryField
{
    sides
    {
        type            zeroGradient;
    }
    empty1
    {
        type            empty;
    }
    empty2
    {
        type            empty;
    }
}


// ************************************************************************* //
