/*--------------------------------*- C++ -*----------------------------------*\
| =========                 |                                                 |
| \\      /  F ield         | OpenFOAM: The Open Source CFD Toolbox           |
|  \\    /   O peration     | Version:  2012                                  |
|   \\  /    A nd           | Website:  www.openfoam.com                      |
|    \\/     M anipulation  |                                                 |
\*---------------------------------------------------------------------------*/
FoamFile
{
    version     2.0;
    format      ascii;
    class       volVectorField;
    location    "0.1";
    object      U;
}
// * * * * * * * * * * * * * * * * * * * * * * * * * * * * * * * * * * * * * //

dimensions      [0 1 -1 0 0 0 0];


internalField   nonuniform List<vector> 
160
(
(0.02352875711 0 0)
(0.01134294499 0 0)
(0.04621194304 0 0)
(0.03528904139 0 0)
(0.07589650743 0 0)
(0.06251406991 0 0)
(0.1040649985 0 0)
(0.08819739441 0 0)
(0.1330155416 0 0)
(0.1152150712 0 0)
(0.1600668261 0 0)
(0.1445120992 0 0)
(0.1862408789 0 0)
(0.1726601696 0 0)
(0.2156527325 0 0)
(0.1976136271 0 0)
(0.245891168 0 0)
(0.2242588398 0 0)
(0.2742220887 0 0)
(0.2523388409 0 0)
(0.3025069668 0 0)
(0.2807726496 0 0)
(0.3304313969 0 0)
(0.3092114479 0 0)
(0.357231703 0 0)
(0.3413267271 0 0)
(0.3811259696 0 0)
(0.3740255174 0 0)
(0.407598908 0 0)
(0.4014722893 0 0)
(0.4383641951 0 0)
(0.4272578451 0 0)
(0.4682423432 0 0)
(0.4552825915 0 0)
(0.4960919775 0 0)
(0.4850067731 0 0)
(0.5224336953 0 0)
(0.5160196823 0 0)
(0.5484784253 0 0)
(0.5467843201 0 0)
(0.5758072169 0 0)
(0.5759221874 0 0)
(0.6043171051 0 0)
(0.6044369822 0 0)
(0.6337174603 0 0)
(0.6323872422 0 0)
(0.6637168531 0 0)
(0.6601007958 0 0)
(0.6929185997 0 0)
(0.6886412072 0 0)
(0.7214870473 0 0)
(0.718054458 0 0)
(0.7492896996 0 0)
(0.7473858934 0 0)
(0.7772432166 0 0)
(0.7751599047 0 0)
(0.8048591976 0 0)
(0.8012105603 0 0)
(0.8337369674 0 0)
(0.8247339722 0 0)
(0.8645391677 0 0)
(0.8436966414 0 0)
(0.8970156853 0 0)
(0.8552948163 0 0)
(0.9303249601 0 0)
(0.85643259 0 0)
(0.9632209915 0 0)
(0.8433941116 0 0)
(0.9934861675 0 0)
(0.8135986285 0 0)
(1.016205434 0 0)
(0.7423086026 0 0)
(0.9275196025 0 0)
(0.5585628338 0 0)
(0.6274324545 0 0)
(0.6083602812 0 0)
(0.6131942442 0 0)
(0.6152317779 0 0)
(0.6119173756 0 0)
(0.6172058333 0 0)
(0.6123336678 0 0)
(0.6167617818 0 0)
(0.6131398313 0 0)
(0.6159225556 0 0)
(0.6139819845 0 0)
(0.6151737254 0 0)
(0.6145616392 0 0)
(0.614420057 0 0)
(0.6153277111 0 0)
(0.6137830188 0 0)
(0.616106199 0 0)
(0.6129217644 0 0)
(0.6169210792 0 0)
(0.6121503342 0 0)
(0.6171111811 0 0)
(0.6118653911 0 0)
(0.6137538398 0 0)
(0.6146303228 0 0)
(0.6060640397 0 0)
(0.6257177649 0 0)
(0.5642112918 0 0)
(0.7589285663 0 0)
(0.5674216556 0 0)
(0.9539714879 0 0)
(0.6128653305 0 0)
(1.050157837 0 0)
(0.6243170851 0 0)
(1.135565012 0 0)
(0.6869446191 0 0)
(0.9391262115 0 0)
(0.7565955885 0 0)
(0.870504412 0 0)
(0.7845215152 0 0)
(0.8224349571 0 0)
(0.7836425687 0 0)
(0.7891435275 0 0)
(0.7637507381 0 0)
(0.7688154196 0 0)
(0.7271104885 0 0)
(0.7353753024 0 0)
(0.7034850392 0 0)
(0.7021563521 0 0)
(0.6664702536 0 0)
(0.6725209497 0 0)
(0.6246512251 0 0)
(0.6438500638 0 0)
(0.5839265218 0 0)
(0.6069545554 0 0)
(0.5520351098 0 0)
(0.5679834825 0 0)
(0.519830776 0 0)
(0.5329031426 0 0)
(0.4803907436 0 0)
(0.4964357529 0 0)
(0.4481640508 0 0)
(0.4547417033 0 0)
(0.4164189722 0 0)
(0.417629767 0 0)
(0.3798219784 0 0)
(0.3824540694 0 0)
(0.3429218118 0 0)
(0.346794969 0 0)
(0.3053260361 0 0)
(0.3114178569 0 0)
(0.2678849455 0 0)
(0.2762185538 0 0)
(0.2316196602 0 0)
(0.2395683917 0 0)
(0.1957691056 0 0)
(0.2028357487 0 0)
(0.160166928 0 0)
(0.1660251679 0 0)
(0.125110501 0 0)
(0.1288233921 0 0)
(0.08948852142 0 0)
(0.09176529236 0 0)
(0.05225741211 0 0)
(0.0624417257 0 0)
(0.009093441938 0 0)
(0.02993341338 0 0)
)
;

boundaryField
{
    sides
    {
        type            fixedValue;
        value           uniform (0 0 0);
    }
    empty1
    {
        type            empty;
    }
    empty2
    {
        type            empty;
    }
}


// ************************************************************************* //
