/*--------------------------------*- C++ -*----------------------------------*\
| =========                 |                                                 |
| \\      /  F ield         | OpenFOAM: The Open Source CFD Toolbox           |
|  \\    /   O peration     | Version:  2012                                  |
|   \\  /    A nd           | Website:  www.openfoam.com                      |
|    \\/     M anipulation  |                                                 |
\*---------------------------------------------------------------------------*/
FoamFile
{
    version     2.0;
    format      ascii;
    class       volScalarField;
    location    "0.94";
    object      p;
}
// * * * * * * * * * * * * * * * * * * * * * * * * * * * * * * * * * * * * * //

dimensions      [1 -1 -2 0 0 0 0];


internalField   nonuniform List<scalar> 
2268
(
102330
102323
102316
102298
102286
102262
102249
102225
102210
102188
102170
102147
102125
102101
102076
102054
102030
102016
102001
101999
101999
102006
102012
102272
102265
102258
102240
102228
102204
102190
102166
102151
102129
102111
102089
102066
102042
102017
101994
101970
101955
101941
101939
101939
101946
101952
102215
102208
102200
102182
102169
102145
102131
102106
102092
102070
102053
102030
102007
101983
101957
101933
101909
101893
101878
101878
101879
101888
101896
102160
102153
102145
102125
102112
102087
102072
102048
102034
102012
101995
101972
101949
101924
101897
101873
101846
101830
101814
101814
101817
101826
101835
102106
102098
102088
102068
102054
102027
102012
101987
101975
101954
101937
101915
101891
101865
101836
101809
101781
101763
101746
101750
101753
101767
101780
102053
102045
102035
102012
101997
101970
101953
101929
101916
101896
101880
101857
101833
101807
101776
101747
101716
101697
101678
101680
101687
101705
101719
102002
101992
101980
101956
101939
101909
101893
101867
101857
101838
101822
101801
101775
101746
101713
101681
101645
101622
101603
101613
101616
101639
101661
101953
101942
101929
101902
101883
101852
101832
101808
101798
101781
101766
101745
101719
101690
101653
101619
101579
101554
101533
101538
101548
101582
101608
102079
101768
101681
101674
101716
101801
101953
102170
102068
101972
101894
101885
101895
101739
101707
101724
101727
101851
101936
102033
101667
101659
101646
101678
101733
101844
102061
101975
101897
101830
101828
101829
101668
101640
101662
101664
101784
101854
101787
101662
101647
101635
101676
101741
101832
101958
101886
101808
101739
101722
101689
101600
101614
101635
101636
101723
101791
101774
101642
101648
101638
101647
101704
101765
101857
101791
101718
101658
101633
101627
101552
101574
101614
101627
101687
101731
101676
101644
101648
101635
101648
101677
101734
101776
101705
101615
101574
101545
101534
101491
101579
101620
101629
101648
101675
101702
101645
101648
101636
101622
101643
101674
101701
101624
101540
101540
101534
101513
101455
101517
101600
101618
101605
101615
101651
101646
101645
101628
101618
101625
101648
101650
101560
101516
101537
101515
101483
101439
101503
101589
101599
101568
101551
101637
101636
101633
101616
101614
101615
101613
101592
101523
101511
101525
101518
101479
101425
101465
101563
101548
101512
101495
101877
101864
101846
101815
101791
101754
101734
101707
101705
101690
101678
101659
101629
101596
101554
101514
101475
101459
101453
101479
101461
101478
101504
101788
101772
101745
101709
101675
101635
101598
101572
101574
101572
101566
101547
101518
101491
101456
101437
101427
101431
101428
101434
101439
101425
101438
101708
101683
101640
101588
101542
101505
101469
101449
101463
101466
101466
101466
101442
101428
101422
101425
101422
101427
101425
101421
101359
101335
101340
101654
101626
101562
101518
101489
101467
101421
101374
101368
101388
101400
101410
101427
101431
101422
101423
101420
101425
101410
101341
101219
101177
101231
101625
101576
101485
101450
101442
101443
101374
101360
101333
101354
101380
101418
101410
101420
101418
101424
101415
101421
101374
101279
101110
101074
101154
101630
101548
101466
101488
101471
101440
101363
101325
101327
101335
101356
101372
101411
101402
101401
101408
101383
101392
101352
101300
101203
101182
101231
101564
101455
101389
101403
101354
101342
101331
101327
101330
101327
101337
101347
101362
101363
101369
101347
101355
101348
101327
101298
101275
101302
101299
101469
101359
101338
101334
101328
101326
101327
101324
101328
101328
101326
101328
101337
101340
101338
101321
101344
101326
101348
101341
101339
101409
101381
101415
101332
101332
101328
101325
101325
101326
101325
101325
101325
101321
101325
101325
101325
101326
101323
101329
101323
101328
101333
101342
101369
101389
101375
101327
101330
101325
101325
101325
101326
101325
101326
101323
101323
101323
101324
101324
101325
101323
101327
101324
101325
101324
101324
101329
101335
101332
101323
101328
101324
101326
101325
101325
101324
101325
101324
101323
101323
101324
101324
101325
101324
101325
101324
101324
101323
101324
101323
101325
101326
101324
101326
101325
101326
101325
101325
101324
101325
101324
101324
101324
101324
101324
101325
101324
101325
101324
101324
101324
101324
101324
101324
101328
101323
101326
101324
101325
101324
101325
101324
101324
101324
101324
101323
101324
101324
101324
101324
101324
101324
101324
101324
101324
101324
101324
101327
101323
101326
101324
101325
101324
101324
101324
101324
101324
101324
101323
101324
101324
101324
101323
101324
101323
101324
101323
101324
101323
101324
101326
101323
101325
101324
101324
101324
101324
101323
101324
101323
101324
101323
101324
101323
101324
101323
101324
101323
101324
101323
101323
101323
101323
101326
101323
101325
101323
101324
101323
101324
101323
101324
101323
101323
101323
101323
101323
101323
101323
101323
101323
101323
101323
101323
101323
101323
101326
101323
101324
101323
101324
101323
101324
101323
101323
101323
101323
101323
101323
101323
101323
101323
101323
101323
101323
101323
101323
101323
101323
101323
101322
101324
101323
101324
101323
101323
101323
101323
101323
101323
101323
101323
101323
101323
101323
101323
101323
101323
101323
101323
101323
101323
101322
101322
101323
101322
101323
101322
101323
101322
101323
101322
101323
101322
101323
101323
101323
101323
101323
101323
101323
101323
101323
101323
101323
101322
101321
101322
101322
101322
101322
101322
101322
101322
101322
101322
101322
101322
101322
101322
101322
101322
101322
101322
101322
101322
101322
101323
101322
101321
101322
101321
101322
101321
101322
101322
101322
101322
101322
101322
101322
101322
101322
101322
101322
101322
101322
101322
101322
101322
101322
101321
101320
101320
101320
101321
101321
101321
101321
101321
101321
101322
101322
101322
101322
101322
101322
101322
101322
101322
101322
101322
101322
101322
101320
101319
101319
101319
101320
101320
101321
101321
101321
101321
101321
101322
101322
101322
101322
101322
101322
101322
101322
101322
101322
101322
101322
101319
101319
101318
101318
101319
101319
101320
101320
101321
101321
101321
101321
101321
101321
101322
101322
101322
101322
101322
101322
101322
101322
101322
101319
101318
101318
101317
101318
101319
101320
101320
101321
101321
101321
101321
101321
101321
101321
101321
101321
101321
101321
101321
101321
101321
101321
101319
101319
101318
101318
101318
101319
101320
101320
101321
101321
101321
101321
101321
101321
101321
101321
101321
101321
101321
101321
101321
101321
101321
101319
101319
101319
101318
101319
101319
101320
101320
101321
101321
101321
101321
101321
101321
101321
101321
101321
101321
101321
101321
101321
101321
101321
101320
101320
101319
101319
101319
101320
101320
101320
101320
101321
101321
101321
101321
101321
101321
101321
101321
101321
101321
101321
101321
101321
101321
101320
101320
101320
101320
101320
101320
101320
101320
101320
101321
101321
101321
101321
101321
101321
101321
101321
101320
101320
101320
101320
101320
101320
101320
101320
101320
101320
101320
101320
101320
101320
101320
101320
101320
101320
101320
101320
101320
101320
101320
101320
101320
101320
101320
101320
101320
101320
101321
101320
101320
101320
101320
101320
101320
101320
101320
101320
101320
101320
101320
101320
101320
101320
101320
101320
101320
101320
101320
101320
101321
101321
101320
101320
101320
101320
101320
101320
101320
101320
101320
101320
101320
101320
101320
101320
101320
101320
101320
101320
101320
101320
101320
101320
101320
101320
101320
101320
101320
101320
101320
101320
101320
101320
101320
101320
101320
101320
101320
101320
101320
101320
101320
101320
101320
101320
101320
101320
101320
101320
101320
101320
101320
101320
101320
101320
101320
101320
101320
101320
101320
101319
101319
101319
101319
101319
101319
101319
101319
101320
101320
101320
101320
101320
101320
101320
101320
101320
101320
101320
101319
101319
101319
101319
101319
101319
101319
101319
101319
101319
101319
101319
101320
101320
101320
101320
101320
101320
101320
101319
101319
101319
101319
101319
101319
101319
101319
101319
101319
101319
101319
101319
101319
101319
101319
101319
101319
101319
101319
101319
101319
101319
101319
101319
101319
101319
101319
101319
101319
101319
101319
101319
101319
101319
101319
101319
101319
101319
101319
101319
101319
101319
101319
101319
101319
101319
101319
101319
101319
101319
101319
101319
101319
101319
101319
101319
101318
101318
101318
101318
101318
101319
101319
101319
101319
101319
101319
101319
101319
101319
101319
101319
101318
101318
101318
101318
101318
101318
101318
101318
101318
101318
101318
101318
101318
101318
101318
101318
101318
101318
101318
101318
101318
101318
101318
101318
101318
101318
101318
101318
101318
101318
101318
101318
101318
101318
101318
101318
101318
101318
101318
101318
101318
101318
101318
101318
101318
101318
101318
101318
101318
101318
101318
101318
101318
101318
101318
101318
101318
101318
101318
101318
101318
101318
101318
101318
101318
101318
101318
101318
101318
101318
101318
101318
101318
101318
101318
101318
101318
101318
101318
101318
101318
101481
101517
101523
101500
101466
101462
101471
101475
101377
101378
101381
101406
101266
101305
101331
101361
101214
101235
101285
101286
101274
101294
101304
101312
101313
101312
101315
101313
101363
101335
101322
101316
101355
101328
101316
101313
101329
101330
101329
101328
101327
101321
101321
101319
101327
101330
101329
101329
101324
101324
101324
101325
101324
101324
101324
101324
101323
101323
101323
101323
101323
101323
101323
101323
101323
101323
101323
101323
101323
101323
101323
101323
101323
101323
101323
101323
101323
101323
101323
101323
101322
101322
101322
101322
101322
101322
101322
101322
101322
101322
101322
101322
101322
101322
101322
101322
101321
101321
101321
101321
101321
101321
101321
101321
101321
101321
101321
101321
101321
101321
101321
101321
101320
101320
101320
101320
101320
101320
101320
101320
101320
101320
101320
101320
101320
101320
101320
101320
101320
101320
101320
101320
101319
101319
101319
101319
101319
101319
101319
101319
101319
101319
101319
101319
101319
101319
101319
101319
101318
101318
101318
101318
101318
101318
101318
101318
101318
101318
101318
101318
101318
101318
101318
101318
101318
101318
101318
101318
101584
101618
101628
101607
101616
101607
101601
101551
101482
101500
101489
101463
101426
101422
101469
101502
101475
101430
101408
101521
101584
101610
101596
101606
101595
101559
101484
101453
101475
101446
101418
101397
101395
101393
101384
101359
101345
101339
101487
101551
101562
101510
101561
101527
101479
101454
101452
101436
101379
101358
101343
101338
101337
101334
101330
101331
101330
101426
101430
101452
101420
101430
101442
101418
101401
101410
101377
101366
101334
101331
101331
101331
101331
101330
101330
101330
101348
101336
101352
101334
101376
101369
101374
101386
101397
101376
101343
101331
101331
101331
101331
101330
101330
101330
101330
101330
101321
101328
101331
101332
101349
101333
101341
101334
101331
101333
101334
101332
101330
101330
101330
101329
101329
101329
101316
101314
101318
101315
101334
101329
101326
101327
101327
101327
101326
101327
101327
101327
101330
101329
101328
101329
101329
101316
101312
101316
101310
101322
101327
101326
101326
101326
101327
101327
101327
101327
101327
101326
101327
101328
101328
101328
101309
101308
101312
101306
101324
101326
101325
101326
101326
101327
101326
101326
101326
101325
101326
101326
101327
101327
101328
101324
101327
101327
101326
101327
101326
101326
101326
101326
101326
101326
101326
101326
101326
101326
101326
101327
101327
101327
101324
101321
101326
101326
101327
101326
101326
101326
101326
101326
101326
101326
101326
101326
101326
101326
101327
101327
101327
101327
101324
101325
101325
101325
101326
101325
101325
101325
101325
101326
101326
101326
101326
101326
101326
101326
101326
101326
101324
101323
101323
101325
101325
101325
101325
101325
101325
101325
101325
101325
101325
101326
101326
101326
101326
101326
101326
101324
101324
101324
101323
101325
101324
101324
101324
101325
101325
101325
101325
101325
101325
101325
101325
101326
101326
101326
101323
101323
101323
101323
101324
101324
101324
101324
101325
101325
101325
101325
101325
101325
101325
101325
101325
101325
101325
101323
101323
101323
101323
101324
101324
101324
101324
101324
101324
101325
101325
101325
101325
101325
101325
101325
101325
101325
101323
101323
101323
101324
101324
101324
101324
101324
101324
101324
101324
101324
101324
101325
101325
101325
101325
101325
101325
101323
101323
101323
101323
101324
101324
101324
101324
101324
101324
101324
101324
101324
101324
101324
101324
101324
101324
101324
101323
101323
101323
101323
101324
101324
101324
101324
101324
101324
101324
101324
101324
101324
101324
101324
101324
101324
101324
101323
101323
101323
101323
101323
101323
101324
101324
101324
101324
101324
101324
101324
101324
101324
101324
101324
101324
101324
101322
101323
101323
101323
101323
101323
101323
101323
101323
101323
101323
101323
101323
101323
101323
101323
101324
101324
101324
101322
101322
101322
101322
101323
101323
101323
101323
101323
101323
101323
101323
101323
101323
101323
101323
101323
101323
101323
101322
101322
101322
101322
101322
101322
101322
101323
101323
101323
101323
101323
101323
101323
101323
101323
101323
101323
101323
101322
101322
101322
101322
101322
101322
101322
101322
101322
101322
101323
101323
101323
101323
101323
101323
101323
101323
101323
101321
101321
101321
101321
101322
101322
101322
101322
101322
101322
101322
101322
101322
101322
101322
101323
101323
101323
101323
101321
101321
101321
101321
101321
101321
101321
101321
101322
101322
101322
101322
101322
101322
101322
101322
101322
101322
101322
101321
101321
101321
101321
101321
101321
101321
101321
101321
101321
101322
101322
101322
101322
101322
101322
101322
101322
101322
101321
101320
101321
101321
101321
101321
101321
101321
101321
101321
101321
101321
101322
101322
101322
101322
101322
101322
101322
101320
101320
101320
101320
101320
101320
101320
101321
101321
101321
101321
101321
101321
101321
101322
101322
101322
101322
101322
101320
101320
101320
101320
101320
101320
101320
101320
101320
101321
101321
101321
101321
101321
101321
101321
101322
101322
101322
101320
101320
101320
101320
101320
101320
101320
101320
101320
101320
101320
101321
101321
101321
101321
101321
101321
101321
101321
101320
101320
101320
101320
101320
101320
101320
101320
101320
101320
101320
101320
101321
101321
101321
101321
101321
101321
101321
101320
101319
101319
101319
101320
101320
101320
101320
101320
101320
101320
101320
101320
101320
101321
101321
101321
101321
101321
101319
101319
101319
101319
101319
101319
101319
101319
101319
101320
101320
101320
101320
101320
101320
101321
101321
101321
101321
101319
101319
101319
101319
101319
101319
101319
101319
101319
101319
101319
101320
101320
101320
101320
101320
101320
101320
101320
101319
101319
101319
101319
101319
101319
101319
101319
101319
101319
101319
101319
101320
101320
101320
101320
101320
101320
101320
101319
101319
101319
101319
101319
101319
101319
101319
101319
101319
101319
101319
101319
101319
101320
101320
101320
101320
101320
101318
101318
101318
101318
101318
101319
101319
101319
101319
101319
101319
101319
101319
101319
101319
101319
101320
101320
101320
101318
101318
101318
101318
101318
101318
101318
101318
101318
101318
101319
101319
101319
101319
101319
101319
101319
101319
101319
101318
101318
101318
101318
101318
101318
101318
101318
101318
101318
101318
101318
101318
101318
101319
101319
101319
101319
101319
101318
101318
101318
101318
101318
101318
101318
101318
101318
101318
101318
101318
101318
101318
101318
101318
101318
101318
101318
101318
101318
101318
101318
101318
101318
101318
101318
101318
101318
101318
101318
101318
101318
101318
101318
101318
101318
101318
)
;

boundaryField
{
    leftWall
    {
        type            zeroGradient;
    }
    rightWall
    {
        type            zeroGradient;
    }
    lowerWall
    {
        type            zeroGradient;
    }
    atmosphere
    {
        type            fixedValue;
        value           uniform 101325;
    }
    defaultFaces
    {
        type            empty;
    }
}


// ************************************************************************* //
