/*--------------------------------*- C++ -*----------------------------------*\
| =========                 |                                                 |
| \\      /  F ield         | OpenFOAM: The Open Source CFD Toolbox           |
|  \\    /   O peration     | Version:  2012                                  |
|   \\  /    A nd           | Website:  www.openfoam.com                      |
|    \\/     M anipulation  |                                                 |
\*---------------------------------------------------------------------------*/
FoamFile
{
    version     2.0;
    format      ascii;
    class       volScalarField;
    location    "0.94";
    object      rhogh;
}
// * * * * * * * * * * * * * * * * * * * * * * * * * * * * * * * * * * * * * //

dimensions      [1 -1 -2 0 0 0 0];


internalField   nonuniform List<scalar> 
2268
(
-29.4294
-29.4294
-29.4294
-29.4294
-29.4294
-29.4294
-29.4294
-29.4294
-29.4294
-29.4294
-29.4294
-29.4294
-29.4294
-29.4294
-29.4294
-29.4294
-29.4294
-29.4294
-29.4294
-29.4294
-29.4294
-29.4294
-29.4268
-88.2881
-88.2881
-88.2881
-88.2881
-88.2881
-88.2881
-88.2881
-88.2881
-88.2881
-88.2881
-88.2881
-88.2881
-88.2881
-88.2881
-88.2881
-88.2881
-88.2881
-88.2881
-88.2881
-88.2881
-88.2881
-88.2881
-88.269
-147.147
-147.147
-147.147
-147.147
-147.147
-147.147
-147.147
-147.147
-147.147
-147.147
-147.147
-147.147
-147.147
-147.147
-147.147
-147.147
-147.147
-147.147
-147.147
-147.147
-147.147
-147.147
-147.112
-206.006
-206.006
-206.006
-206.006
-206.006
-206.006
-206.006
-206.006
-206.006
-206.006
-206.006
-206.006
-206.006
-206.006
-206.006
-206.006
-206.006
-206.005
-206.006
-206.006
-206.006
-206.006
-205.957
-264.864
-264.864
-264.864
-264.864
-264.864
-264.864
-264.864
-264.864
-264.864
-264.864
-264.864
-264.864
-264.864
-264.864
-264.864
-264.864
-264.864
-264.864
-264.864
-264.864
-264.864
-264.864
-264.802
-323.723
-323.723
-323.723
-323.723
-323.723
-323.723
-323.723
-323.723
-323.723
-323.723
-323.723
-323.723
-323.723
-323.723
-323.723
-323.723
-323.723
-323.723
-323.722
-323.722
-323.723
-323.723
-323.668
-382.582
-382.582
-382.582
-382.582
-382.582
-382.582
-382.582
-382.582
-382.582
-382.582
-382.582
-382.582
-382.582
-382.582
-382.582
-382.582
-382.582
-382.576
-382.488
-382.501
-382.578
-382.579
-382.577
-441.44
-441.44
-441.44
-441.44
-441.44
-441.44
-441.44
-441.44
-441.44
-441.44
-441.44
-441.44
-441.44
-441.44
-441.434
-441.296
-440.053
-433.027
-403.53
-411.248
-441.439
-441.439
-441.439
-12.9696
-6.59553
-21.3657
-23.7527
-23.7527
-25.0324
-26.8448
-27.8745
-28.6897
-27.7886
-24.8344
-24.0759
-27.0402
-28.5424
-28.5424
-28.6552
-28.7163
-28.804
-28.804
-54.0586
-5.79106
-7.07574
-6.27776
-10.2112
-21.1487
-52.064
-86.2787
-86.4412
-86.4412
-86.3353
-79.948
-82.7818
-65.9732
-59.9345
-59.5675
-52.9925
-72.1881
-86.8328
-93.3662
-7.66185
-0.191017
-3.74981
-11.6532
-12.1107
-54.1131
-144.069
-144.069
-144.069
-144.069
-140.133
-140.133
-131.969
-98.7146
-44.3336
-30.8336
-91.6859
-144.721
-130.446
-7.64828
-0.266981
-7.507
-107.907
-125.431
-172.678
-201.696
-201.696
-201.696
-201.569
-199.08
-191.099
-191.099
-188.656
-75.8622
-43.167
-167.029
-202.671
-169.283
-10.8793
-0.343261
-0.343261
-145.515
-194.489
-259.324
-259.324
-259.324
-254.553
-180.175
-124.792
-167.509
-240.408
-242.537
-125.167
-128.539
-241.995
-262.479
-233.351
-29.1713
-0.419541
-12.5026
-26.7229
-73.8637
-311.782
-316.951
-309.754
-160.341
-40.1385
-30.2571
-67.7131
-163.769
-280.077
-217.934
-281.44
-319.926
-320.808
-313.943
-45.079
-44.428
-65.6566
-5.72425
-37.7328
-302.83
-374.578
-274.856
-41.509
-35.7584
-35.73
-35.7584
-44.708
-235.882
-339.933
-367.377
-369.167
-375.913
-362.318
-69.7667
-117.815
-90.1819
-6.60492
-29.9463
-303.353
-427.697
-176.33
-28.4376
-49.9633
-121.843
-119.289
-51.5882
-113.283
-382.33
-393.711
-417.576
-400.326
-533.467
-533.467
-533.467
-533.467
-533.467
-533.467
-533.467
-533.467
-533.467
-533.467
-533.461
-533.366
-533.236
-532.445
-526.68
-486.074
-380.355
-265.37
-196.095
-215.195
-296.182
-449.016
-530.205
-658.662
-658.662
-658.662
-658.662
-658.662
-658.662
-658.662
-655.936
-653.456
-647.18
-635.629
-628.358
-616.833
-548.437
-361.723
-143.185
-25.7793
-0.076654
-0.0765809
-0.076654
-84.2618
-253.561
-645.96
-783.856
-783.856
-783.856
-783.856
-738.463
-512.509
-363.197
-386.309
-540.538
-625.607
-621.508
-552.884
-339.268
-83.4517
-2.63673e-05
-2.63673e-05
-0.0322358
-0.646598
-18.2886
-180.131
-397.048
-408.616
-550.373
-909.051
-909.024
-888.919
-575.569
-237.2
-155.384
-150.145
-103.295
-166.191
-337.923
-425.884
-257.372
-12.256
-0.00964334
-0.00964293
-3.05785e-05
-0.0120883
-9.2806
-293.522
-796.395
-863.998
-788.302
-607.822
-1034.25
-1025.43
-802.145
-196.667
-46.6962
-46.6966
-46.4503
-32.1493
-15.6118
-39.7679
-45.535
-10.201
-5.19125
-12.9461
-21.4762
-1.23668
-0.25628
-97.8383
-770.839
-982.987
-982.991
-943.651
-844.158
-1156.05
-1075.86
-373.503
-17.0634
-97.0008
-187.798
-187.285
-38.1814
-8.76108e-05
-0.383698
-0.627129
-4.06594
-77.4892
-222.15
-234.383
-66.5334
-0.0702649
-181.995
-946.984
-1101.98
-1101.98
-1101.99
-1101.98
-1275.79
-1017.15
-147.036
-18.914
-208.076
-208.076
-117.316
-9.70708e-05
-9.70708e-05
-9.70708e-05
-0.0551678
-30.4904
-260.634
-314.948
-314.948
-220.489
-0.0778573
-63.9645
-796.438
-1220.97
-1220.97
-1175.02
-1178.11
-1400.13
-982.696
-3.37504
-14.9943
-32.7006
-8.92432
-2.80473
-6.06521
-0.0821651
-0.000106531
-0.344489
-45.469
-257.871
-345.641
-265.646
-53.625
-5.45874
-33.9956
-520.26
-1181.08
-1339.96
-1171.71
-731.257
-1436.91
-825.312
-0.72955
-3.32012
-0.104971
-3.67549e-07
-3.67499e-07
-0.0992534
-0.237947
-0.090306
-17.6459
-40.9001
-28.3398
-33.1756
-2.71127
-0.00840426
-3.93598
-21.6961
-71.9636
-239.144
-795.518
-1208.45
-823.179
-702.242
-263.16
-0.787917
-0.00943354
-3.84112e-07
-4.89874e-06
-1.36254e-06
-6.11872e-05
-0.517851
-4.45586
-4.60325
-2.21416e-07
-2.21416e-07
-2.21416e-07
-2.21416e-07
-0.00909372
-2.66958
-12.1877
-5.45906
-2.21416e-07
-2.21416e-07
-279.141
-838.515
-20.6566
-7.26165
-2.77259
-1.26055e-07
-4.13085e-07
-2.13755e-06
-1.11155e-06
-0.000490518
-0.317566
-1.3682
-0.178322
-2.38112e-07
-0.000664518
-0.00014133
-2.38112e-07
-2.38112e-07
-2.38112e-07
-2.38112e-07
-2.38112e-07
-2.52837e-06
-0.0269443
-2.21793
-193.8
-0.105229
-0.105229
-1.59161
-3.9886e-07
-3.99449e-07
-5.58745e-07
-1.18957e-06
-0.00207578
-0.0234065
-8.82534e-05
-2.82884e-05
-0.00140526
-0.00143853
-0.000493071
-2.54809e-07
-1.73475e-06
-6.38547e-06
-1.50241e-05
-1.77719e-05
-1.9384e-05
-0.000399973
-0.67872
-20.7073
-114.104
-1.69002e-19
-0.00526704
-4.62593e-06
-1.47462e-07
-1.96726e-06
-5.17862e-06
-9.01983e-05
-1.52103e-06
-1.5237e-06
-3.01422e-05
-0.000429803
-0.00129432
-0.000219501
-2.71508e-07
-1.9431e-06
-7.25917e-06
-2.49555e-05
-3.35343e-05
-3.44993e-05
-0.0023021
-0.0956005
-0.780531
-375.232
-1.3262e-08
-0.00120036
-0.00435771
-1.5807e-07
-1.87973e-06
-1.30629e-06
-9.59368e-07
-1.37543e-06
-1.69167e-06
-1.7959e-06
-3.59631e-07
-3.59618e-07
-3.59633e-07
-2.1208e-06
-1.91069e-06
-2.59727e-06
-8.39377e-06
-1.94781e-05
-1.61879e-05
-1.40814e-07
-1.41213e-07
-1.44257e-07
-399.816
3.56257e-22
-0.0021148
-0.00505277
-1.77374e-07
-4.45211e-07
-6.06359e-07
-6.1426e-07
-1.29906e-06
-2.97879e-06
-1.09056e-05
-1.39622e-05
-4.22949e-06
-6.38573e-07
-1.98245e-06
-1.93263e-06
-9.03582e-07
-1.47845e-07
-1.47844e-07
-1.47845e-07
-1.48138e-07
-2.67309e-07
-3.09711e-07
-421.72
-1.47987e-08
-0.00102831
-0.0041432
-0.000136398
-1.86898e-07
-2.99946e-07
-5.43922e-07
-1.19606e-06
-3.16404e-06
-9.09957e-06
-9.6792e-06
-5.37707e-07
-6.32477e-07
-1.21563e-06
-1.31318e-06
-6.51544e-07
-3.33751e-07
-1.86709e-07
-1.5614e-07
-1.63047e-07
-1.63047e-07
-1.74536e-07
-292.299
-0.252363
-5.68684e-06
-0.00026221
-0.000290592
-1.96604e-07
-2.40688e-07
-4.86567e-07
-1.12424e-06
-2.66791e-06
-4.50901e-06
-3.6058e-06
-8.5963e-07
-4.77554e-07
-5.57081e-07
-4.72627e-07
-2.86067e-07
-2.00656e-07
-1.81378e-07
-1.83171e-07
-2.37854e-07
-4.35643e-07
-2.34617e-06
-12.3057
-0.0867256
-5.96747e-06
-5.96751e-06
-0.000143649
-1.51719e-07
-2.33826e-07
-4.08942e-07
-1.06863e-06
-2.13944e-06
-2.5021e-06
-1.05161e-06
-4.11135e-07
-3.08436e-07
-3.19189e-07
-2.08679e-07
-1.21765e-07
-9.21442e-08
-9.77101e-08
-1.53756e-07
-4.23574e-07
-3.95382e-06
-4.09701e-05
-0.00659785
-0.0476077
-6.24819e-06
-0.000480242
-1.58855e-07
-1.58873e-07
-2.15254e-07
-3.12507e-07
-8.75737e-07
-1.67732e-06
-1.84202e-06
-5.79435e-07
-2.12248e-07
-1.78455e-07
-1.57832e-07
-8.93179e-08
-6.43608e-08
-6.98735e-08
-1.21366e-07
-3.18323e-07
-7.64958e-07
-1.13114e-06
-1.06603e-06
-0.000299277
-0.00377448
-0.000344465
-0.00224623
-1.6601e-07
-1.65991e-07
-1.72578e-07
-2.36436e-07
-7.03257e-07
-1.15229e-06
-1.11957e-06
-3.04321e-07
-1.23469e-07
-9.51314e-08
-6.96861e-08
-4.93777e-08
-5.97662e-08
-1.56229e-07
-5.70706e-07
-1.79352e-06
-4.93988e-06
-1.23444e-05
-1.83489e-05
-2.42632e-05
-5.48368e-05
-6.45508e-05
-0.00238032
-2.36679e-07
-7.93618e-07
-1.15618e-07
-1.80991e-07
-5.48764e-07
-8.08114e-07
-6.09199e-07
-1.51814e-07
-6.7358e-08
-4.53489e-08
-3.72257e-08
-5.22544e-08
-1.90087e-07
-9.49055e-07
-4.79611e-06
-2.43024e-05
-5.26093e-05
-5.81373e-05
-3.98425e-05
-2.51369e-05
-0.000267394
-0.002405
-0.00094361
-2.46432e-07
-2.00191e-05
-4.33239e-08
-1.23234e-07
-4.0968e-07
-6.0774e-07
-3.17971e-07
-7.7852e-08
-3.63192e-08
-2.75851e-08
-3.92605e-08
-1.4929e-07
-7.33463e-07
-3.93492e-06
-3.61176e-05
-0.000148174
-0.000154503
-7.45769e-05
-1.10635e-05
-2.80366e-05
-0.0012412
-0.00936206
-0.000392811
-0.000392916
-0.000168327
-4.4956e-08
-8.26671e-08
-2.88687e-07
-4.02399e-07
-1.62736e-07
-4.07092e-08
-2.37409e-08
-3.10557e-08
-1.11367e-07
-5.75685e-07
-3.48139e-06
-4.25483e-05
-0.000189418
-0.000201655
-0.000143633
-9.18817e-08
-9.20505e-07
-4.54538e-05
-0.00587068
-0.00972736
-0.000704641
-0.00327061
-0.00100843
-4.6754e-08
-6.14823e-08
-2.04343e-07
-2.5418e-07
-8.8825e-08
-2.31016e-08
-1.88211e-08
-6.65278e-08
-3.73404e-07
-2.54551e-06
-3.81763e-05
-0.000196407
-0.000216405
-0.000173932
-1.66234e-06
-9.52768e-08
-1.24696e-07
-1.77031e-05
-0.00649977
-0.00942492
-0.00063841
-0.0156206
-0.00358827
-4.83798e-08
-5.02619e-08
-1.5521e-07
-1.53293e-07
-4.55519e-08
-1.27573e-08
-1.02736e-08
-1.00685e-08
-1.00644e-08
-4.57054e-07
-0.000103686
-0.000225827
-0.000203426
-1.2264e-05
-1.12661e-07
-1.12659e-07
-1.64763e-07
-1.83295e-05
-0.00183255
-0.00128622
-0.000398658
-0.0650765
-0.00734816
-5.04262e-07
-4.19658e-08
-1.17012e-07
-9.39203e-08
-3.05864e-08
-4.3987e-08
-2.91067e-07
-1.8851e-06
-2.16528e-05
-0.000197671
-0.000282154
-0.000111947
-5.28713e-06
-1.23355e-06
-2.06269e-07
-1.39228e-07
-1.52436e-07
-1.89559e-05
-1.89559e-05
-1.89559e-05
-0.186108
-0.139951
-0.0015057
-8.42009e-08
-3.81463e-08
-8.3562e-08
-4.67087e-08
-1.8713e-08
-7.81917e-08
-6.55515e-07
-8.70815e-06
-0.000171671
-0.000318154
-0.000291593
-1.03017e-05
-4.14148e-08
-2.8334e-07
-1.75165e-07
-9.5592e-08
-8.17187e-08
-1.95823e-05
-1.95823e-05
-0.214917
-0.431798
-0.129177
-0.000228529
-7.53808e-08
-3.57919e-08
-5.67438e-08
-2.33337e-08
-1.62016e-08
-4.14066e-08
-3.5773e-07
-6.27994e-06
-0.000168507
-0.000328108
-0.000124788
-3.94012e-08
-4.27852e-08
-8.74339e-08
-6.81911e-08
-3.14773e-08
-1.95768e-08
-0.222123
-0.435531
-0.590011
-0.44598
-0.0304305
-5.16546e-05
-9.0754e-08
-3.33379e-08
-3.87831e-08
-2.64128e-08
-4.09279e-08
-1.76581e-08
-1.76624e-08
-1.76581e-08
-0.000117181
-9.91385e-05
-9.35506e-06
-4.0662e-08
-4.56887e-08
-2.33236e-08
-1.44143e-08
-6.35769e-09
-3.14025e-09
-0.611064
-0.613871
-0.608236
-0.143932
-0.00330154
-6.3192e-06
-1.12286e-07
-2.775e-08
-2.19741e-08
-5.63417e-08
-4.22342e-07
-3.33667e-06
-0.000100721
-0.000505791
-0.000191094
-1.34403e-08
-1.45064e-06
-3.56084e-07
-4.90946e-08
-6.23553e-09
-2.52819e-09
-8.79823e-10
-3.06863e-10
-0.171034
-0.260592
-0.112814
-0.00959724
-0.000485651
-3.84974e-06
-1.31955e-07
-1.61827e-08
-2.05046e-08
-1.62331e-07
-2.16118e-06
-6.57692e-05
-0.000574663
-0.000770997
-0.000216077
-1.38446e-08
-3.11066e-07
-2.12831e-07
-2.93604e-08
-1.6742e-09
-3.67397e-10
-8.68918e-11
-2.01226e-11
-0.000110008
-4.74373e-05
-0.000363972
-0.000121953
-2.96182e-05
-1.66439e-06
-7.31809e-08
-1.11623e-08
-2.40938e-08
-2.23886e-07
-4.6998e-06
-0.00027896
-0.000819567
-0.000793432
-9.56564e-06
-1.42485e-08
-7.69908e-08
-5.36444e-08
-7.10614e-09
-3.71033e-10
-4.29883e-11
-6.31518e-12
-1.12111e-12
-1.38983e-08
-5.42398e-09
-5.06124e-08
-2.29362e-07
-1.01709e-06
-2.51185e-07
-1.43673e-08
-1.25808e-08
-3.91874e-08
-2.50025e-07
-5.30453e-06
-0.00030579
-0.000842639
-0.000376055
-1.46526e-08
-1.46528e-08
-2.34989e-08
-1.024e-08
-1.34147e-09
-6.39702e-11
-4.04694e-12
-3.62284e-13
-7.65366e-14
-1.78179e-09
-1.70517e-09
-7.10574e-09
-3.85036e-08
-1.42716e-07
-3.33922e-08
-7.88112e-09
-3.17397e-08
-8.03799e-08
-1.8365e-07
-3.33926e-06
-0.000115982
-0.000420844
-2.36144e-05
-1.50568e-08
-2.33534e-08
-7.49355e-09
-2.00643e-09
-2.10113e-10
-8.10407e-12
-2.7386e-13
-1.49298e-14
-5.17156e-15
-3.97142e-10
-6.15488e-10
-2.3931e-09
-1.04432e-08
-2.26678e-08
-6.76769e-09
-1.45723e-08
-9.54394e-08
-1.36232e-07
-5.88332e-08
-5.70751e-08
-5.70722e-08
-7.78903e-06
-2.23034e-06
-2.42244e-07
-3.71864e-08
-3.87221e-09
-4.62433e-10
-2.95759e-11
-7.80556e-13
-1.31709e-14
-1.08727e-15
-3.2721e-16
-9.27931e-11
-1.82733e-10
-6.39391e-10
-2.39469e-09
-3.77753e-09
-5.39271e-09
-4.27047e-08
-2.47651e-07
-5.85639e-08
-5.85668e-08
-0.00044582
-0.000663865
-5.98081e-09
-4.24898e-07
-2.39985e-07
-3.34698e-08
-2.02819e-09
-1.1326e-10
-3.69481e-12
-5.17607e-14
-3.83625e-16
-6.21213e-17
-1.68541e-17
-2.10498e-11
-4.64061e-11
-1.54048e-10
-6.94513e-10
-2.52922e-09
-1.30635e-08
-1.15097e-07
-1.38682e-06
-3.74146e-05
-0.000772825
-0.002034
-0.000689949
-6.10517e-09
-1.01137e-07
-1.08297e-07
-1.62343e-08
-7.45282e-10
-2.57158e-11
-4.14474e-13
-2.24248e-15
-2.80264e-17
-3.49052e-18
-7.92848e-19
-4.31852e-12
-1.21769e-11
-8.66312e-11
-7.98429e-10
-5.87885e-09
-3.58016e-08
-1.94143e-07
-4.09658e-06
-0.000458184
-0.00209661
-0.00209739
-0.000248123
-6.28547e-09
-4.18381e-08
-3.05945e-08
-3.96139e-09
-1.9515e-10
-4.59388e-12
-3.49077e-14
-3.59985e-17
-1.22025e-18
-1.32485e-19
-2.78751e-20
-1.25702e-12
-1.12738e-11
-1.78172e-10
-2.3322e-09
-1.9175e-08
-9.1239e-08
-3.13749e-07
-5.25994e-06
-0.000600061
-0.00214822
-0.00177669
-1.54287e-08
-1.54284e-08
-3.73084e-08
-1.52827e-08
-8.13247e-10
-4.0754e-11
-6.50877e-13
-1.99068e-15
-8.28247e-19
-4.90472e-20
-4.36514e-21
-7.95818e-22
-1.11527e-12
-2.4552e-11
-5.37315e-10
-7.40331e-09
-6.90109e-08
-4.08724e-07
-6.66382e-07
-4.31313e-06
-0.000234814
-0.00102972
-0.000461395
-1.57898e-08
-3.02097e-08
-3.39182e-08
-7.58408e-09
-1.48423e-10
-6.78904e-12
-6.65148e-14
-5.4299e-17
-1.45385e-20
-7.64415e-22
-6.74179e-23
-1.31756e-23
-1.96268e-12
-7.37027e-11
-1.51109e-09
-1.93416e-08
-1.66989e-07
-5.49019e-07
-4.0437e-07
-4.082e-07
-4.0437e-07
-0.000278968
-3.79532e-06
-1.62819e-08
-3.45941e-08
-2.47069e-08
-2.75761e-09
-2.68016e-11
-9.62422e-13
-4.91799e-15
-2.41591e-19
-1.23467e-22
-4.85613e-24
-4.55852e-25
-1.07116e-25
-9.69585e-12
-3.06502e-10
-4.9263e-09
-5.15311e-08
-3.86337e-07
-4.9233e-06
-0.000249206
-0.00135663
-0.00175206
-0.000317295
-1.52173e-09
-1.7987e-08
-2.55621e-08
-8.0298e-09
-6.27664e-10
-4.17232e-12
-1.0133e-13
-2.23985e-16
-4.40962e-26
-2.78556e-30
-2.61067e-32
-3.24661e-33
-4.16045e-34
-531.907
-518.488
-397.666
-397.636
-636.266
-484.362
-483.563
-524.61
-550.373
-562.495
-727.907
-745.02
-655.057
-862.812
-864.011
-863.992
-966.824
-983
-982.978
-945.505
-1101.99
-1101.97
-1078.84
-745.743
-1220.95
-1175.56
-545.576
-156.851
-804.873
-740.973
-297.809
-112.086
-130.24
-130.236
-130.375
-147.395
-426.642
-176.891
-92.0204
-69.5194
-510.557
-377.212
-163.467
-164.165
-158.982
-190.948
-165.756
-143.62
-3.66202
-7.86626
-17.4016
-21.7706
-0.0317935
-0.214344
-0.894372
-2.82779
-3.09754e-07
-0.168441
-1.19857
-1.70078
-0.000153092
-0.162997
-0.630511
-0.79077
-0.00027979
-0.0156594
-0.176228
-0.336304
-4.73979e-05
-3.96784e-07
-3.9674e-07
-0.00466051
-4.49337e-07
-4.49336e-07
-4.15402e-07
-3.26589e-07
-1.95274e-05
-1.76106e-05
-1.50173e-05
-1.20105e-05
-4.51358e-05
-4.63751e-05
-4.6373e-05
-2.59563e-05
-4.64003e-05
-2.08945e-05
-2.00136e-07
-3.42274e-07
-3.07245e-06
-1.31659e-06
-2.0804e-07
-1.00359e-07
-2.01112e-07
-1.58339e-07
-1.26115e-07
-1.14303e-07
-1.73979e-07
-1.63788e-07
-1.3896e-07
-1.06755e-07
-1.43192e-07
-1.10617e-07
-8.01906e-08
-5.46968e-08
-5.71597e-08
-3.73163e-08
-2.40409e-08
-1.55029e-08
-1.1937e-08
-7.82456e-09
-4.91763e-09
-3.06378e-09
-1.61218e-09
-9.94333e-10
-5.97575e-10
-3.68858e-10
-1.20156e-10
-6.81176e-11
-4.17338e-11
-2.96969e-11
-6.82347e-12
-4.56717e-12
-3.41508e-12
-2.55459e-12
-5.39703e-13
-4.01118e-13
-2.98714e-13
-2.23898e-13
-4.20566e-14
-3.08826e-14
-2.28545e-14
-1.7118e-14
-2.75253e-15
-2.00889e-15
-1.4845e-15
-1.11474e-15
-1.6543e-16
-1.18921e-16
-8.704e-17
-6.50743e-17
-8.27346e-18
-5.89506e-18
-4.28532e-18
-3.18895e-18
-3.65701e-19
-2.55969e-19
-1.83641e-19
-1.35319e-19
-1.25287e-20
-8.63471e-21
-6.1134e-21
-4.45909e-21
-3.4255e-22
-2.31024e-22
-1.6008e-22
-1.14561e-22
-5.76647e-24
-3.87224e-24
-2.67344e-24
-1.91021e-24
-4.84585e-26
-3.2697e-26
-2.26482e-26
-1.61767e-26
-8.14293e-35
-3.58225e-35
-1.61602e-35
-7.73409e-36
-414.418
-268.924
-123.4
-26.7724
-7.86824
-23.3204
-360.403
-460.616
-93.6382
-28.9728
-154.054
-351.962
-344.866
-230.404
-237.198
-465.092
-475.754
-442.109
-381.68
-525.335
-369.4
-93.9331
-127.407
-9.71463
-136.943
-534.664
-325.381
-35.8045
-35.8129
-197.654
-486.771
-501.702
-501.7
-466.596
-429.213
-306.598
-150.646
-91.6178
-614.047
-298.106
-404.99
-709.24
-643.544
-681.734
-624.11
-125.472
-42.1012
-146.207
-264.27
-240.255
-132.038
-77.6732
-68.2425
-54.4522
-0.00803675
-0.00800895
-0.00803675
-660.27
-331.267
-822.517
-822.518
-800.539
-802.908
-802.818
-281.546
-48.8492
-50.9323
-116.718
-50.2398
-3.4422
-0.00881641
-0.00881641
-0.00881641
-0.0163144
-0.130805
-0.119267
-612.038
-322.664
-466.714
-232.286
-231.14
-495.748
-679.422
-693.184
-664.474
-534.164
-236.801
-8.93176
-0.0100306
-0.0100306
-0.0100306
-0.342931
-0.508867
-0.111524
-0.0754771
-356.143
-61.7267
-14.922
-3.8141
-7.07978
-7.07931
-76.8802
-267.74
-135.915
-84.0384
-110.761
-68.7413
-8.18485
-2.56111
-0.0970188
-0.400051
-0.570463
-0.0822218
-0.0967963
-35.3217
-1.02957
-1.02975
-24.4832
-46.3706
-22.0119
-0.0605033
-0.0605034
-0.0605033
-0.0605034
-0.0605033
-13.3991
-44.7116
-44.8184
-18.3417
-0.69231
-0.0622348
-0.0873305
-0.107141
-21.3989
-1.13011
-1.12991
-18.4324
-54.7378
-22.6693
-0.822611
-0.118625
-0.231866
-0.329935
-0.0938448
-3.84519
-41.9726
-49.448
-35.2735
-0.801418
-0.0320861
-0.123916
-0.0580377
-147.386
-140.475
-137.291
-91.4984
-54.1932
-0.0676058
-0.217897
-0.0408253
-0.0558181
-0.00296659
-0.000806569
-0.000807255
-0.000806824
-2.59402
-1.60267
-0.0463619
-0.0105822
-0.0899219
-1.79151e-07
-43.3071
-215.655
-215.669
-181.79
-26.1655
-0.0731185
-0.0271567
-0.0426681
-0.02618
-0.000803761
-0.000806798
-0.00117502
-0.00115331
-0.000777321
-0.0176276
-0.0019098
-3.0507e-05
-1.93762e-07
-1.93753e-07
-37.5049
-27.2871
-54.9878
-14.4649
-3.77138
-0.0292046
-0.029204
-0.027897
-0.0016894
-0.000867637
-0.00124824
-0.00126421
-0.000716101
-0.000835489
-0.000562862
-2.3969e-05
-1.18687e-05
-3.81342e-07
-4.91945e-07
-84.8416
-27.1643
-2.77518
-1.55812
-1.57326
-0.97385
-0.00724483
-0.0281429
-0.00243346
-0.000924981
-0.00154505
-0.000898087
-2.39448e-05
-2.39399e-05
-2.39448e-05
-0.000120661
-2.16927e-05
-2.2454e-06
-7.81101e-06
-25.9787
-30.7846
-24.061
-16.9759
-0.6629
-1.09631
-0.00772056
-0.0162906
-0.00652004
-0.000989316
-0.00164432
-0.000371432
-3.8072e-05
-0.000161554
-0.000209292
-0.000163276
-1.6464e-05
-5.86282e-06
-0.000308161
-8.7896
-20.7884
-21.9837
-8.37211
-0.00829415
-0.963659
-0.000915059
-0.000913152
-0.000930982
-0.00210968
-0.000318275
-3.3692e-05
-0.000271952
-0.00041662
-0.000416791
-6.3487e-05
-4.31875e-07
-2.70018e-05
-0.000636671
-0.132983
-0.00023949
-0.851655
-0.304557
-0.00878017
-0.0872631
-0.00266425
-0.00137131
-0.00192479
-0.00241052
-0.000584449
-3.56456e-05
-0.000212131
-0.000437229
-0.000371854
-4.27115e-05
-4.56896e-07
-0.000250948
-0.000673329
-0.302949
-0.000252595
-0.00027384
-0.000824626
-0.00275957
-0.00748043
-0.0086744
-0.00691859
-0.0038958
-0.00128201
-0.000156901
-3.17202e-05
-7.79051e-07
-6.33866e-05
-5.54614e-05
-2.45406e-05
-4.81915e-07
-0.000495203
-0.00071044
-0.352244
-0.0540402
-0.00023907
-0.000238909
-0.000608825
-0.0046707
-0.00844933
-0.00190361
-7.55907e-08
-7.55629e-08
-7.55907e-08
-7.55629e-08
-8.19351e-07
-7.55629e-08
-7.55907e-08
-5.10539e-06
-5.06936e-07
-0.000381013
-0.000410412
-0.0598353
-0.111069
-0.104421
-0.00947381
-7.93051e-08
-0.000400354
-0.00160159
-1.63068e-07
-2.5755e-07
-9.73784e-07
-1.28448e-06
-3.70521e-06
-7.04791e-05
-8.83359e-05
-1.15796e-05
-2.51623e-06
-6.39953e-07
-2.54223e-05
-5.58493e-06
-3.26605e-07
-2.84212e-06
-9.65282e-07
-0.000157563
-8.30656e-08
-8.30218e-08
-8.30523e-08
-2.04501e-07
-1.07688e-06
-4.21678e-06
-8.59536e-06
-2.00196e-05
-0.000674278
-0.00126394
-0.000366056
-2.0384e-05
-1.95387e-06
-1.61319e-06
-5.84761e-06
-7.15183e-06
-2.46147e-06
-1.00847e-06
-8.82519e-07
-2.12286e-06
-8.57256e-07
-2.84593e-07
-4.46602e-07
-1.46309e-06
-8.91422e-06
-8.02363e-05
-0.000150967
-0.000973791
-0.00158309
-0.00151895
-0.000165926
-1.00519e-05
-7.43978e-06
-9.62049e-06
-7.19142e-06
-2.81677e-06
-1.85755e-06
-9.20468e-07
-4.12221e-07
-1.82085e-07
-1.99348e-07
-4.72192e-07
-1.4471e-06
-1.0804e-05
-0.000173745
-0.000359357
-0.000372822
-0.00135989
-0.00174234
-0.000654701
-4.05093e-05
-1.77337e-05
-1.8957e-05
-4.79552e-07
-2.17792e-07
-1.97721e-07
-5.37876e-08
-3.82555e-08
-5.66573e-08
-1.42044e-07
-3.76095e-07
-1.04911e-06
-7.27362e-06
-0.000130772
-0.000531303
-0.000452095
-0.0004306
-0.00181411
-0.00115023
-7.81785e-05
-3.95017e-05
-2.8754e-05
-7.94299e-08
-5.27202e-08
-3.05959e-08
-1.88715e-08
-1.77827e-08
-3.14221e-08
-7.61394e-08
-1.76303e-07
-4.21699e-07
-1.15995e-06
-5.55285e-06
-0.000552335
-0.00195642
-0.000460623
-0.00186086
-0.00155488
-0.000155234
-0.000107406
-9.20511e-05
-9.68717e-08
-4.97503e-08
-1.69526e-08
-7.52195e-09
-6.72445e-09
-1.21769e-08
-2.9196e-08
-6.35033e-08
-9.42013e-08
-1.09299e-07
-1.21629e-06
-0.000348377
-0.0025497
-0.00254848
-0.00092296
-0.00167358
-0.000289894
-0.000156014
-0.000520313
-6.47575e-08
-2.10027e-08
-5.38867e-09
-2.08752e-09
-1.82927e-09
-3.44081e-09
-8.16992e-09
-1.75831e-08
-4.0685e-08
-1.34476e-07
-6.35042e-07
-1.53318e-05
-0.00138597
-0.00506453
-0.000956471
-0.00173567
-0.000446067
-0.000402871
-0.00061452
-2.83769e-08
-7.13001e-09
-1.55888e-09
-4.76498e-10
-3.69037e-10
-6.72019e-10
-1.72069e-09
-4.5591e-09
-1.62203e-08
-7.52096e-08
-3.30819e-07
-1.72095e-06
-0.000239341
-0.00729248
-0.00425913
-0.00123213
-0.000604835
-0.000636264
-0.000636462
-7.80739e-09
-1.94296e-09
-4.07048e-10
-9.4137e-11
-5.58163e-11
-8.84597e-11
-2.72193e-10
-1.01748e-09
-4.92153e-09
-2.52412e-08
-8.44503e-08
-1.01297e-07
-1.28919e-07
-0.00753393
-0.0263767
-0.00102903
-0.000518178
-0.000521748
-0.000392277
-1.52486e-09
-4.29479e-10
-9.11846e-11
-1.69758e-11
-6.68962e-12
-8.34839e-12
-3.30189e-11
-1.62393e-10
-8.67139e-10
-4.23703e-09
-1.82478e-08
-8.00262e-08
-1.14255e-05
-0.00613802
-0.0271416
-0.00370275
-0.000338438
-0.000108306
-0.000108307
-1.9801e-10
-6.44756e-11
-1.55462e-11
-2.82331e-12
-6.59081e-13
-5.36814e-13
-2.44514e-12
-1.50658e-11
-1.10347e-10
-1.21084e-09
-1.68681e-08
-2.40157e-07
-9.90052e-06
-0.00124164
-0.0160769
-0.00544537
-0.000209061
-3.33954e-05
-0.000712602
-1.80026e-11
-6.88564e-12
-2.01779e-12
-4.19869e-13
-7.34366e-14
-2.45431e-14
-1.01712e-13
-1.28821e-12
-2.71089e-11
-6.98558e-10
-1.80393e-08
-3.88949e-07
-3.15213e-06
-8.37239e-09
-8.37197e-09
-0.00611371
-0.000510921
-3.44297e-05
-0.00365073
-1.59809e-12
-6.74705e-13
-2.27863e-13
-5.45283e-14
-9.51812e-15
-1.39713e-15
-4.26297e-15
-1.5282e-13
-5.04486e-12
-1.39675e-10
-2.97555e-09
-2.64496e-08
-6.17663e-09
-5.25213e-08
-0.00111733
-0.0616571
-0.00294726
-3.57024e-05
-0.00441802
-1.41804e-13
-6.27228e-14
-2.28931e-14
-5.99457e-15
-1.08752e-15
-1.26861e-16
-4.83903e-17
-7.6415e-16
-1.78478e-14
-3.5598e-13
-2.4836e-12
-2.35322e-15
-4.93212e-13
-2.34708e-08
-0.00203252
-0.164213
-0.016796
-0.000149869
-0.004547
-1.09264e-14
-5.00922e-15
-1.94648e-15
-5.53924e-16
-1.07076e-16
-1.08972e-17
-1.55764e-18
-2.07736e-19
-1.1922e-20
-3.75025e-19
-1.32277e-16
-3.14967e-14
-5.27769e-12
-2.94805e-09
-0.000529922
-0.169062
-0.0523375
-0.00049213
-0.00467592
-7.18906e-16
-3.41517e-16
-1.41283e-16
-4.35907e-17
-9.26509e-18
-8.03037e-19
-1.09391e-19
-1.80831e-20
-9.32698e-22
-8.62686e-23
-5.58978e-24
-1.23182e-26
7.48862e-25
3.45403e-23
1.51663e-21
-0.117339
-0.094284
-0.00191137
-0.00341565
-4.20974e-17
-2.05192e-17
-9.03552e-18
-3.04157e-18
-7.25287e-19
-5.38696e-20
-6.17333e-21
-1.23907e-21
-7.02266e-23
-3.78035e-24
-1.65474e-25
-6.03518e-27
-1.90818e-27
4.50363e-24
7.88979e-22
4.01815e-21
-0.146737
-0.010372
-0.000473798
-2.06173e-18
-1.01781e-18
-4.70393e-19
-1.72939e-19
-4.73707e-20
-3.28029e-21
-3.00134e-22
-6.33911e-23
-5.31904e-24
-3.57451e-25
-2.04866e-26
-8.62576e-28
-4.76702e-29
1.03893e-24
3.14044e-22
2.00561e-20
-0.161859
-0.0264657
-0.000102151
-8.6905e-20
-4.31226e-20
-2.07883e-20
-8.28379e-21
-2.62034e-21
-1.83159e-22
-1.61925e-23
-2.72686e-24
-3.03572e-25
-2.46017e-26
-1.63991e-27
-8.20502e-29
-4.10221e-30
1.98164e-25
1.01413e-22
2.25222e-20
-0.165956
-0.0434726
-7.09972e-05
-2.84553e-21
-1.41632e-21
-7.04274e-22
-2.96232e-22
-1.0409e-22
-8.59421e-24
-7.77301e-25
-1.0172e-25
-1.16431e-26
-1.04227e-27
-7.77324e-29
-4.47764e-30
-2.38751e-31
3.03045e-26
2.721e-23
1.07529e-20
-0.169992
-0.0619439
-5.84196e-05
-7.19131e-23
-3.57592e-23
-1.85423e-23
-8.18594e-24
-3.19591e-24
-3.48072e-25
-3.22694e-26
-3.4074e-27
-3.61902e-28
-3.31516e-29
-2.61656e-30
-1.64574e-31
-9.37441e-33
3.406e-27
5.79149e-24
8.0074e-22
-0.174029
-0.0692002
-5.98385e-05
-1.20135e-24
-6.06092e-25
-3.20575e-25
-1.44874e-25
-5.76352e-26
-6.8707e-27
-6.60571e-28
-6.55726e-29
-6.52101e-30
-5.82901e-31
-4.59996e-32
-2.98297e-33
-1.74146e-34
2.52692e-28
7.80806e-25
1.41255e-22
-0.178037
-0.0733013
-6.70928e-05
-1.01459e-26
-5.16765e-27
-2.81478e-27
-1.31199e-27
-5.54498e-28
-8.38095e-29
-8.87399e-30
-8.41203e-31
-7.71128e-32
-6.57522e-33
-5.09413e-34
-3.35232e-35
-1.99388e-36
8.39913e-30
4.7896e-26
5.43359e-23
-0.145341
-0.106152
-0.00185982
-2.86508e-36
-4.39918e-37
-6.21787e-38
-4.94921e-39
-2.9042e-40
-1.47789e-41
-7.45753e-43
-2.5776e-44
-4.48702e-46
-3.14368e-49
4.37965e-47
1.7969e-47
5.90097e-48
3.13546e-48
4.2248e-48
9.72365e-24
-0.00752185
-0.135839
-0.0091767
)
;

boundaryField
{
    leftWall
    {
        type            calculated;
        value           nonuniform List<scalar> 
50
(
-29.4294
-88.2881
-147.147
-206.006
-264.864
-323.723
-382.582
-441.44
-533.467
-658.662
-783.856
-909.051
-1034.25
-1156.05
-1275.79
-1400.13
-1436.91
-702.242
-20.6566
-0.105229
-114.104
-375.232
-399.816
-421.72
-292.299
-12.3057
-0.00659785
-0.000299277
-2.42632e-05
-2.51369e-05
-2.80366e-05
-4.54538e-05
-1.77031e-05
-1.83295e-05
-1.89559e-05
-1.95823e-05
-0.222123
-0.611064
-0.171034
-0.000110008
-1.38983e-08
-1.78179e-09
-3.97142e-10
-9.27931e-11
-2.10498e-11
-4.31852e-12
-1.25702e-12
-1.11527e-12
-1.96268e-12
-9.69585e-12
)
;
    }
    rightWall
    {
        type            calculated;
        value           nonuniform List<scalar> 
50
(
-28.804
-86.8328
-144.721
-202.671
-262.479
-320.808
-375.913
-400.326
-381.68
-91.6178
-0.00803675
-0.119267
-0.0754771
-0.0967963
-0.107141
-0.0580377
-1.79151e-07
-1.93753e-07
-4.91945e-07
-7.81101e-06
-0.000308161
-0.000636671
-0.000673329
-0.00071044
-0.000410412
-5.58493e-06
-5.84761e-06
-9.62049e-06
-1.8957e-05
-2.8754e-05
-9.20511e-05
-0.000520313
-0.00061452
-0.000636462
-0.000392277
-0.000108307
-0.000712602
-0.00365073
-0.00441802
-0.004547
-0.00467592
-0.00341565
-0.000473798
-0.000102151
-7.09972e-05
-5.84196e-05
-5.98385e-05
-6.70928e-05
-0.00185982
-0.0091767
)
;
    }
    lowerWall
    {
        type            calculated;
        value           nonuniform List<scalar> 
62
(
0
0
0
0
0
0
0
0
0
0
0
0
0
0
0
0
0
0
0
0
0
0
0
-29.4268
-88.269
-147.112
-205.957
-264.802
-323.668
-382.577
-441.439
-469.493
-457.648
-351.004
-350.977
-12.9696
-54.0586
-93.3662
-130.446
-169.283
-233.351
-313.943
-362.318
0
0
0
0
0
0
0
0
0
0
0
0
0
0
0
0
0
0
0
)
;
    }
    atmosphere
    {
        type            calculated;
        value           nonuniform List<scalar> 
46
(
-9.80296e-12
-3.09888e-10
-4.98072e-09
-5.21004e-08
-3.90605e-07
-4.97769e-06
-0.000251959
-0.00137162
-0.00177141
-0.0003208
-1.53854e-09
-1.81857e-08
-2.58445e-08
-8.11851e-09
-6.34598e-10
-4.21842e-12
-1.02449e-13
-2.26459e-16
-0
-0
-0
-0
-0
-0
-0
-0
-0
-0
-0
-0
-0
-0
-0
-0
-0
-0
-0
-0
-0
-0
-0
-0
-0
-0
-0.137339
-0.00927808
)
;
    }
    defaultFaces
    {
        type            empty;
    }
}


// ************************************************************************* //
