/*--------------------------------*- C++ -*----------------------------------*\
| =========                 |                                                 |
| \\      /  F ield         | OpenFOAM: The Open Source CFD Toolbox           |
|  \\    /   O peration     | Version:  2012                                  |
|   \\  /    A nd           | Website:  www.openfoam.com                      |
|    \\/     M anipulation  |                                                 |
\*---------------------------------------------------------------------------*/
FoamFile
{
    version     2.0;
    format      ascii;
    class       volScalarField;
    location    "0.94";
    object      volumeFraction1;
}
// * * * * * * * * * * * * * * * * * * * * * * * * * * * * * * * * * * * * * //

dimensions      [0 0 0 0 0 0 0];


internalField   nonuniform List<scalar> 
2268
(
1
1
1
1
1
1
1
1
1
1
1
1
1
1
1
1
1
1
1
1
1
1
0.999912
1
1
1
1
1
1
1
1
1
1
1
1
1
1
1
1
1
1
1
1
1
1
0.999784
1
1
1
1
1
1
1
1
1
1
1
1
1
1
1
1
1
1
1
1
1
1
0.999765
1
1
1
1
1
1
1
1
1
1
1
1
1
1
1
1
1
1
1
1
1
1
0.999765
1
1
1
1
1
1
1
1
1
1
1
1
1
1
1
1
1
1
1
1
1
1
0.999765
1
1
1
1
1
1
1
1
1
1
1
1
1
1
1
1
1
1
0.999996
0.999998
1
1
0.99983
1
1
1
1
1
1
1
1
1
1
1
1
1
1
1
1
1
0.999985
0.999755
0.999789
0.999992
0.999994
0.999988
1
1
1
1
1
1
1
1
1
1
1
1
1
0.999999
0.999985
0.999673
0.996858
0.98094
0.914122
0.931605
0.999997
0.999997
0.999997
0.440702
0.224114
0.726
0.807109
0.80711
0.850592
0.912176
0.947167
0.974865
0.944248
0.843866
0.818092
0.918818
0.969862
0.969862
0.973695
0.975772
0.978751
0.978752
0.612297
0.0655928
0.0801438
0.0711055
0.115658
0.239542
0.589706
0.97724
0.979082
0.979082
0.977882
0.905535
0.937632
0.747249
0.678852
0.674694
0.600223
0.817643
0.983516
0.634511
0.0520694
0.00129814
0.0254835
0.0791945
0.0823035
0.367749
0.979082
0.979082
0.979082
0.979081
0.952336
0.952336
0.896856
0.670858
0.301288
0.209543
0.623092
0.983517
0.633216
0.0371266
0.00129599
0.0364408
0.523804
0.608871
0.838219
0.979082
0.979082
0.979081
0.978464
0.966383
0.927642
0.927641
0.915782
0.368253
0.209543
0.8108
0.983814
0.639131
0.0410751
0.00129599
0.00129599
0.549394
0.734298
0.979081
0.979082
0.979081
0.961068
0.680253
0.471155
0.632434
0.907663
0.915703
0.472571
0.485301
0.913658
0.990996
0.720835
0.0901119
0.00129599
0.0386212
0.0825487
0.228169
0.963112
0.979081
0.956847
0.495302
0.12399
0.0934661
0.20917
0.505891
0.865174
0.673211
0.869384
0.988272
0.990996
0.82059
0.117828
0.116127
0.171614
0.0149622
0.0986268
0.791543
0.979081
0.718424
0.108497
0.0934661
0.0933919
0.0934661
0.116859
0.616554
0.888524
0.960257
0.964936
0.982569
0.820764
0.158043
0.266887
0.20429
0.0149622
0.0678377
0.68719
0.968867
0.399442
0.0644199
0.113182
0.276012
0.270227
0.116863
0.256621
0.866097
0.891878
0.945941
0.906862
1
1
1
1
1
1
1
1
1
1
0.999988
0.999811
0.999566
0.998083
0.987277
0.91116
0.712986
0.497443
0.367586
0.40339
0.555203
0.841695
0.993885
1
1
1
1
1
1
1
0.995862
0.992096
0.982569
0.965032
0.953993
0.936495
0.832654
0.549179
0.217388
0.0391389
0.000116378
0.000116267
0.000116378
0.127929
0.384964
0.980716
1
1
1
1
0.94209
0.65383
0.463347
0.492831
0.689588
0.798115
0.792885
0.705339
0.432819
0.106463
3.36379e-08
3.36379e-08
4.11247e-05
0.000824894
0.0233316
0.229802
0.506532
0.521289
0.702136
1
0.99997
0.977854
0.633153
0.260932
0.170929
0.165167
0.113629
0.182818
0.371732
0.468494
0.283121
0.0134822
1.06081e-05
1.06077e-05
3.36379e-08
1.32977e-05
0.0102091
0.322889
0.876073
0.950439
0.86717
0.668634
1
0.991476
0.775585
0.190155
0.0451501
0.0451504
0.0449123
0.0310848
0.0150949
0.0384512
0.0440273
0.00986323
0.00501936
0.0125174
0.0207651
0.00119574
0.000247794
0.0945987
0.745316
0.950439
0.950443
0.912406
0.816207
0.997076
0.927914
0.322141
0.0147169
0.0836618
0.161973
0.161531
0.0329309
7.5563e-08
0.000330934
0.00054089
0.00350681
0.0668333
0.191601
0.202152
0.0573841
6.06024e-05
0.156968
0.81676
0.950443
0.95044
0.950446
0.950439
0.993119
0.791778
0.114457
0.0147233
0.161973
0.161973
0.0913223
7.5563e-08
7.5563e-08
7.5563e-08
4.29444e-05
0.0237347
0.202886
0.245165
0.245165
0.171635
6.06066e-05
0.049792
0.619973
0.950439
0.950443
0.91467
0.917079
0.993119
0.697032
0.00239394
0.0106355
0.0231948
0.00633007
0.00198941
0.00430209
5.82802e-05
7.5563e-08
0.000244348
0.0322514
0.182909
0.245165
0.188425
0.0380365
0.00387191
0.0241133
0.369024
0.837751
0.950439
0.831098
0.518685
0.936087
0.537655
0.00047527
0.00216291
6.83837e-05
2.39442e-10
2.3941e-10
6.46592e-05
0.000155012
5.88304e-05
0.0114955
0.0266446
0.0184621
0.0216125
0.00176627
5.47501e-06
0.00256412
0.014134
0.0468811
0.155792
0.518245
0.787249
0.536265
0.422982
0.158509
0.000474586
5.68211e-06
2.31363e-10
2.95066e-09
8.20699e-10
3.6855e-08
0.000311918
0.0026839
0.00277268
1.33366e-10
1.33366e-10
1.33366e-10
1.33366e-10
5.47743e-06
0.00160797
0.00734102
0.00328816
1.33366e-10
1.33366e-10
0.168135
0.505063
0.0115696
0.00406721
0.00155291
7.06029e-11
2.31367e-10
1.19723e-09
6.22573e-10
2.74737e-07
0.000177867
0.000766319
9.98774e-05
1.33366e-10
3.72193e-07
7.91583e-08
1.33366e-10
1.33366e-10
1.33366e-10
1.33366e-10
1.33366e-10
1.41613e-09
1.50914e-05
0.00124225
0.108546
5.50763e-05
5.50762e-05
0.000833039
2.08761e-10
2.09069e-10
2.92444e-10
6.22613e-10
1.08645e-06
1.22508e-05
4.61913e-08
1.4806e-08
7.35504e-07
7.52919e-07
2.5807e-07
1.33366e-10
9.07956e-10
3.34212e-09
7.86353e-09
9.30173e-09
1.01455e-08
2.09344e-07
0.000355238
0.0108381
0.0560485
8.30148e-23
2.58721e-06
2.27229e-09
7.24342e-11
9.66332e-10
2.54377e-09
4.4306e-08
7.47141e-10
7.48451e-10
1.4806e-08
2.11122e-07
6.3578e-07
1.0782e-07
1.33366e-10
9.54462e-10
3.56576e-09
1.22583e-08
1.64723e-08
1.69463e-08
1.13081e-06
4.69596e-05
0.000383402
0.173638
6.13699e-12
5.55467e-07
2.01653e-06
7.3147e-11
8.69843e-10
6.04485e-10
4.43947e-10
6.36481e-10
7.82822e-10
8.31054e-10
1.66419e-10
1.66413e-10
1.6642e-10
9.81397e-10
8.84169e-10
1.20189e-09
3.88421e-09
9.01348e-09
7.49092e-09
6.51616e-11
6.53461e-11
6.67548e-11
0.174883
-1.5583e-25
9.25034e-07
2.21013e-06
7.75851e-11
1.94739e-10
2.65227e-10
2.68683e-10
5.6822e-10
1.30295e-09
4.77021e-09
6.10718e-09
1.85001e-09
2.79317e-10
8.67141e-10
8.45347e-10
3.95235e-10
6.46688e-11
6.46685e-11
6.46688e-11
6.47969e-11
1.16923e-10
1.3547e-10
0.174887
6.13699e-12
4.2644e-07
1.71818e-06
5.6564e-08
7.75066e-11
1.24387e-10
2.25564e-10
4.96007e-10
1.31212e-09
3.77359e-09
4.01396e-09
2.22987e-10
2.62288e-10
5.0412e-10
5.44574e-10
2.70195e-10
1.38407e-10
7.74281e-11
6.47512e-11
6.76156e-11
6.76154e-11
7.23799e-11
0.115234
9.94893e-05
2.24193e-09
1.03371e-07
1.14561e-07
7.75075e-11
9.48868e-11
1.9182e-10
4.43213e-10
1.05178e-09
1.77759e-09
1.42152e-09
3.38893e-10
1.88267e-10
2.19619e-10
1.86325e-10
1.12777e-10
7.91051e-11
7.15049e-11
7.22119e-11
9.37696e-11
1.71744e-10
9.24935e-10
0.00462312
3.25819e-05
2.24191e-09
2.24193e-09
5.39673e-08
5.69991e-11
8.78458e-11
1.53635e-10
4.01473e-10
8.03766e-10
9.40011e-10
3.9508e-10
1.54459e-10
1.15876e-10
1.19916e-10
7.83986e-11
4.57457e-11
3.46176e-11
3.67086e-11
5.77644e-11
1.59132e-10
1.48541e-09
1.5392e-08
2.36739e-06
1.70823e-05
2.24193e-09
1.72317e-07
5.69991e-11
5.70057e-11
7.72358e-11
1.12132e-10
3.14226e-10
6.01843e-10
6.6094e-10
2.07909e-10
7.61573e-11
6.4032e-11
5.6632e-11
3.20484e-11
2.30935e-11
2.50715e-11
4.35478e-11
1.14218e-10
2.74477e-10
4.05866e-10
3.82505e-10
1.02768e-07
1.29611e-06
1.18285e-07
7.71329e-07
5.70057e-11
5.69991e-11
5.92613e-11
8.1189e-11
2.4149e-10
3.95681e-10
3.84447e-10
1.045e-10
4.23978e-11
3.26669e-11
2.39293e-11
1.69557e-11
2.05229e-11
5.3647e-11
1.95973e-10
6.15874e-10
1.69629e-09
4.2389e-09
6.30079e-09
7.98826e-09
1.80541e-08
2.12523e-08
7.83682e-07
7.79227e-11
2.61286e-10
3.80654e-11
5.95883e-11
1.80672e-10
2.66058e-10
2.00569e-10
4.99821e-11
2.21765e-11
1.49304e-11
1.22559e-11
1.72039e-11
6.2583e-11
3.12461e-10
1.57904e-09
8.00118e-09
1.73207e-08
1.91407e-08
1.31175e-08
7.9483e-09
8.455e-08
7.6046e-07
2.9837e-07
7.7922e-11
6.33005e-09
1.3699e-11
3.89668e-11
1.29541e-10
1.92168e-10
1.00542e-10
2.46168e-11
1.14841e-11
8.72242e-12
1.24142e-11
4.72054e-11
2.31921e-10
1.24422e-09
1.14204e-08
4.68528e-08
4.8854e-08
2.35813e-08
3.49829e-09
8.52762e-09
3.77524e-07
2.84756e-06
1.19477e-07
1.19509e-07
5.11984e-08
1.36738e-11
2.5144e-11
8.78068e-11
1.22394e-10
4.94978e-11
1.23821e-11
7.22104e-12
9.44588e-12
3.38735e-11
1.751e-10
1.0589e-09
1.29415e-08
5.76132e-08
6.13355e-08
4.36875e-08
2.79467e-11
2.79981e-10
1.33181e-08
1.72012e-06
2.85014e-06
2.06461e-07
9.58297e-07
2.95473e-07
1.3699e-11
1.80145e-11
5.98729e-11
7.44752e-11
2.60259e-11
6.76883e-12
5.51462e-12
1.94928e-11
1.09408e-10
7.45841e-10
1.11857e-08
5.75479e-08
6.34073e-08
5.09623e-08
4.8707e-10
2.79163e-11
3.65363e-11
5.0035e-09
1.83706e-06
2.66381e-06
1.80437e-07
4.41493e-06
1.01417e-06
1.36738e-11
1.42057e-11
4.38678e-11
4.3326e-11
1.28745e-11
3.60566e-12
2.90369e-12
2.84571e-12
2.84456e-12
1.29179e-10
2.93052e-08
6.38266e-08
5.74953e-08
3.46623e-09
3.1842e-11
3.18414e-11
4.65678e-11
5.0035e-09
5.00241e-07
3.51107e-07
1.08824e-07
1.77643e-05
2.00587e-06
1.37651e-10
1.14556e-11
3.19415e-11
2.56379e-11
8.34935e-12
1.20074e-11
7.94543e-11
5.14585e-10
5.91069e-09
5.39593e-08
7.70213e-08
3.05588e-08
1.44326e-09
3.36728e-10
5.63063e-11
3.80059e-11
4.16114e-11
5.0035e-09
5.0035e-09
5.0035e-09
4.91241e-05
3.69409e-05
3.97437e-07
2.22253e-11
1.00689e-11
2.20566e-11
1.2329e-11
4.9394e-12
2.06391e-11
1.73027e-10
2.29856e-09
4.53133e-08
8.39783e-08
7.69673e-08
2.71919e-09
1.09316e-11
7.47891e-11
4.62358e-11
2.5232e-11
2.157e-11
5.0035e-09
5.0035e-09
5.49137e-05
0.000110329
3.30062e-05
5.83917e-08
1.92606e-11
9.14523e-12
1.44987e-11
5.96203e-12
4.13971e-12
1.05799e-11
9.14041e-11
1.6046e-09
4.30554e-08
8.38353e-08
3.18847e-08
1.00674e-11
1.09321e-11
2.23404e-11
1.74236e-11
8.04282e-12
5.0021e-12
5.49956e-05
0.000107834
0.000146082
0.000110421
7.53434e-06
1.27892e-08
2.24699e-11
8.25417e-12
9.60235e-12
6.53957e-12
1.01334e-11
4.372e-12
4.37305e-12
4.372e-12
2.9013e-08
2.45458e-08
2.31623e-09
1.00676e-11
1.13121e-11
5.77472e-12
3.56887e-12
1.57411e-12
7.77498e-13
0.000146745
0.00014742
0.000146066
3.45649e-05
7.92855e-07
1.51754e-09
2.69652e-11
6.66409e-12
5.27703e-12
1.35303e-11
1.01424e-10
8.01292e-10
2.41879e-08
1.21465e-07
4.58907e-08
3.22766e-12
3.48368e-10
8.55127e-11
1.17899e-11
1.49745e-12
6.07137e-13
2.11287e-13
7.36925e-14
3.98746e-05
6.07538e-05
2.63013e-05
2.23748e-06
1.13224e-07
8.97521e-10
3.07637e-11
3.7728e-12
4.78041e-12
3.78454e-11
5.03854e-10
1.53333e-08
1.33976e-07
1.79749e-07
5.03759e-08
3.2277e-12
7.25212e-11
4.9619e-11
6.84504e-12
3.9032e-13
8.56543e-14
2.02578e-14
4.69135e-15
2.49197e-08
1.07458e-08
8.24493e-08
2.76255e-08
6.7093e-09
3.77028e-10
1.65774e-11
2.52856e-12
5.45787e-12
5.07162e-11
1.06463e-09
6.31918e-08
1.85654e-07
1.79733e-07
2.16687e-09
3.22766e-12
1.74404e-11
1.21519e-11
1.60973e-12
8.40489e-14
9.73798e-15
1.43056e-15
2.53962e-16
3.06151e-12
1.19479e-12
1.11489e-11
5.05236e-11
2.24043e-10
5.53308e-11
3.16482e-12
2.77129e-12
8.63218e-12
5.50753e-11
1.16848e-09
6.73592e-08
1.85616e-07
8.2837e-08
3.22766e-12
3.2277e-12
5.17632e-12
2.25566e-12
2.95497e-13
1.40913e-14
8.91458e-16
7.98036e-17
1.68594e-17
3.81959e-13
3.65533e-13
1.52324e-12
8.25392e-12
3.05937e-11
7.15821e-12
1.68946e-12
6.80396e-12
1.72308e-11
3.93686e-11
7.15829e-10
2.48628e-08
9.02152e-08
5.06215e-09
3.2277e-12
5.00621e-12
1.60637e-12
4.30113e-13
4.50415e-14
1.73725e-15
5.87067e-17
3.20047e-18
1.10861e-18
8.29093e-14
1.28492e-13
4.99594e-13
2.18017e-12
4.73225e-12
1.41285e-12
3.04219e-12
1.99244e-11
2.84404e-11
1.22823e-11
1.19153e-11
1.19147e-11
1.62608e-09
4.65616e-10
5.05719e-11
7.76322e-12
8.08381e-13
9.65396e-14
6.17441e-15
1.62953e-16
2.74962e-18
2.26984e-19
6.83098e-20
1.88785e-14
3.71765e-14
1.30082e-13
4.87193e-13
7.68529e-13
1.09713e-12
8.68815e-12
5.0384e-11
1.19147e-11
1.19153e-11
9.0701e-08
1.35062e-07
1.21678e-12
8.64445e-11
4.88244e-11
6.80934e-12
4.12629e-13
2.30424e-14
7.517e-16
1.05306e-17
7.80476e-20
1.26384e-20
3.42893e-21
4.17615e-15
9.2067e-15
3.05621e-14
1.37787e-13
5.01782e-13
2.59172e-12
2.28346e-11
2.75136e-10
7.42284e-09
1.53324e-07
4.03535e-07
1.36882e-07
1.21123e-12
2.00649e-11
2.14855e-11
3.2208e-12
1.4786e-13
5.10186e-15
8.22293e-17
4.44895e-19
5.56028e-21
6.92498e-22
1.57296e-22
8.36004e-16
2.35728e-15
1.67706e-14
1.54565e-13
1.13806e-12
6.93068e-12
3.75834e-11
7.9304e-10
8.86979e-08
4.05874e-07
4.06025e-07
4.80331e-08
1.21678e-12
8.09926e-12
5.92266e-12
7.6687e-13
3.77784e-14
8.89311e-16
6.75764e-18
6.9688e-21
2.36224e-22
2.56473e-23
5.39623e-24
2.37582e-16
2.13081e-15
3.36754e-14
4.40798e-13
3.62418e-12
1.72447e-11
5.93002e-11
9.94156e-10
1.13415e-07
4.06025e-07
3.35803e-07
2.9161e-12
2.91605e-12
7.05148e-12
2.88851e-12
1.53708e-13
7.70272e-15
1.23019e-16
3.76249e-19
1.56543e-22
9.27018e-24
8.25034e-25
1.50414e-25
2.05919e-16
4.5332e-15
9.92079e-14
1.36692e-12
1.27419e-11
7.54653e-11
1.23038e-10
7.96361e-10
4.33552e-08
1.90123e-07
8.51902e-08
2.91538e-12
5.57781e-12
6.26252e-12
1.4003e-12
2.74043e-14
1.2535e-15
1.2281e-17
1.00256e-20
2.68434e-24
1.41139e-25
1.24478e-26
2.43269e-27
3.54195e-16
1.33007e-14
2.72699e-13
3.49047e-12
3.01357e-11
9.90786e-11
7.29746e-11
7.36657e-11
7.29746e-11
5.03438e-08
6.84921e-10
2.93831e-12
6.24302e-12
4.45872e-12
4.97652e-13
4.83674e-15
1.73683e-16
8.87525e-19
4.35987e-23
2.22814e-26
8.76361e-28
8.22653e-29
1.93306e-29
1.7111e-15
5.40907e-14
8.69381e-13
9.09408e-12
6.81798e-11
8.68853e-10
4.39792e-08
2.39415e-07
3.09199e-07
5.59954e-08
2.68551e-13
3.1743e-12
4.51114e-12
1.41708e-12
1.10769e-13
7.36322e-16
1.78824e-17
3.95283e-20
7.78199e-30
4.91589e-34
4.60724e-36
5.72954e-37
7.34227e-38
0.997076
0.971922
0.745437
0.745381
0.965999
0.735373
0.73416
0.796479
0.702135
0.717599
0.928623
0.950454
0.720595
0.949135
0.950454
0.950433
0.934812
0.950452
0.950431
0.914198
0.950449
0.950429
0.930482
0.643193
0.950429
0.915092
0.424694
0.122098
0.570901
0.525577
0.211238
0.0795034
0.0848459
0.0848428
0.0849334
0.0960213
0.256979
0.106547
0.0554267
0.0418736
0.285961
0.211274
0.091557
0.091948
0.08321
0.0999408
0.0867557
0.0751698
0.00179881
0.00386396
0.00854779
0.0106939
1.47124e-05
9.91876e-05
0.00041387
0.00130856
1.35489e-10
7.36776e-05
0.000524264
0.000743936
6.34873e-08
6.75948e-05
0.000261473
0.000327932
1.10302e-07
6.17342e-06
6.94746e-05
0.000132582
1.78069e-08
1.49067e-10
1.49051e-10
1.7509e-06
1.61228e-10
1.61228e-10
1.49051e-10
1.17184e-10
6.70545e-09
6.04725e-09
5.15676e-09
4.12426e-09
1.48602e-08
1.52683e-08
1.52675e-08
8.54567e-09
1.46718e-08
6.60684e-09
6.32829e-11
1.08227e-10
9.34516e-10
4.00452e-10
6.32772e-11
3.05251e-11
5.89263e-11
4.63937e-11
3.6952e-11
3.34909e-11
4.91724e-11
4.62922e-11
3.9275e-11
3.01726e-11
3.90879e-11
3.01958e-11
2.18901e-11
1.49309e-11
1.50876e-11
9.84982e-12
6.34572e-12
4.09208e-12
3.05005e-12
1.99926e-12
1.25651e-12
7.8283e-13
3.99162e-13
2.46188e-13
1.47954e-13
9.1326e-14
2.88551e-14
1.63583e-14
1.00223e-14
7.13164e-15
1.59081e-15
1.06478e-15
7.96185e-16
5.95572e-16
1.22257e-16
9.08639e-17
6.76666e-17
5.07188e-17
9.26421e-18
6.8028e-18
5.03436e-18
3.77074e-18
5.90054e-19
4.30642e-19
3.18229e-19
2.38964e-19
3.45359e-20
2.48265e-20
1.81709e-20
1.35852e-20
1.68321e-21
1.19933e-21
8.71837e-22
6.48784e-22
7.25529e-23
5.07828e-23
3.64334e-23
2.68464e-23
2.42538e-24
1.67156e-24
1.18347e-24
8.63217e-25
6.47437e-26
4.36647e-26
3.0256e-26
2.16526e-26
1.0647e-27
7.14956e-28
4.93613e-28
3.52695e-28
8.74506e-30
5.90066e-30
4.08721e-30
2.91932e-30
1.43704e-38
6.32186e-39
2.85191e-39
1.36489e-39
0.776838
0.504106
0.231317
0.0501857
0.0147493
0.0437148
0.675587
0.863439
0.175528
0.0543104
0.288779
0.659763
0.646461
0.431899
0.444634
0.87183
0.891816
0.828747
0.71547
0.79758
0.560834
0.142612
0.193434
0.014749
0.207911
0.811743
0.494003
0.0543595
0.0543723
0.300084
0.73903
0.761699
0.761696
0.7084
0.651644
0.465486
0.228716
0.139097
0.783367
0.380307
0.516663
0.904809
0.820998
0.869718
0.796205
0.16007
0.0537103
0.186523
0.33714
0.306504
0.168447
0.0990911
0.08706
0.0694671
1.02528e-05
1.02174e-05
1.02528e-05
0.726329
0.36441
0.904809
0.904809
0.880631
0.883238
0.883139
0.309714
0.0537365
0.056028
0.128395
0.0552662
0.00378659
9.69848e-06
9.69848e-06
9.69848e-06
1.79466e-05
0.000143892
0.000131199
0.591772
0.31198
0.451261
0.224594
0.223486
0.479333
0.656925
0.670232
0.642473
0.516477
0.22896
0.00863602
9.69848e-06
9.69848e-06
9.69848e-06
0.000331576
0.000492017
0.000107831
7.2978e-05
0.307169
0.0532383
0.01287
0.0032896
0.00610621
0.00610581
0.0663081
0.230922
0.117225
0.0724819
0.0955295
0.0592884
0.00705931
0.00220892
8.36773e-05
0.000345038
0.000492016
7.09151e-05
8.34854e-05
0.0274955
0.000801453
0.000801592
0.0190585
0.0360963
0.0171347
4.70977e-05
4.70978e-05
4.70977e-05
4.70978e-05
4.70977e-05
0.0104303
0.034805
0.0348881
0.0142778
0.000538916
4.84456e-05
6.79808e-05
8.34018e-05
0.0151783
0.000801592
0.000801453
0.0130742
0.0388258
0.0160795
0.000583483
8.41411e-05
0.000164464
0.000234025
6.65647e-05
0.00272741
0.0297715
0.0350738
0.0250197
0.000568451
2.27589e-05
8.78945e-05
4.11665e-05
0.0960156
0.0915134
0.0894388
0.0596072
0.0353045
4.40422e-05
0.00014195
2.65959e-05
3.63631e-05
1.9326e-06
5.25444e-07
5.25891e-07
5.2561e-07
0.00168989
0.00104407
3.02027e-05
6.89384e-06
5.85801e-05
1.16709e-10
0.0260852
0.129896
0.129904
0.109498
0.0157603
4.40415e-05
1.63573e-05
2.57003e-05
1.5769e-05
4.8413e-07
4.85959e-07
7.07752e-07
6.94675e-07
4.68204e-07
1.06176e-05
1.15033e-06
1.83753e-08
1.16709e-10
1.16703e-10
0.0210063
0.0152834
0.0307984
0.00810171
0.00211233
1.63573e-05
1.6357e-05
1.5625e-05
9.46222e-07
4.85959e-07
6.99134e-07
7.08075e-07
4.01084e-07
4.67953e-07
3.15256e-07
1.34249e-08
6.64759e-09
2.13588e-10
2.75536e-10
0.0444056
0.0142176
0.00145251
0.000815508
0.000823435
0.000509707
3.7919e-06
1.47298e-05
1.27366e-06
4.8413e-07
8.08672e-07
4.70053e-07
1.25326e-08
1.253e-08
1.25326e-08
6.31532e-08
1.13538e-08
1.17523e-09
4.08823e-09
0.0127609
0.0151216
0.0118189
0.00833867
0.000325621
0.000538513
3.79239e-06
8.00207e-06
3.20269e-06
4.85959e-07
8.07704e-07
1.8245e-07
1.87012e-08
7.93567e-08
1.02806e-07
8.02023e-08
8.08722e-09
2.87986e-09
1.51371e-07
0.00406738
0.00961982
0.010173
0.00387419
3.83811e-06
0.000445933
4.23443e-07
4.2256e-07
4.30812e-07
9.76253e-07
1.47282e-07
1.55909e-08
1.25846e-07
1.92791e-07
1.9287e-07
2.93786e-08
1.9985e-10
1.24951e-08
2.94619e-07
5.8168e-05
1.04755e-07
0.000372521
0.000133216
3.84052e-06
3.81697e-05
1.16537e-06
5.99822e-07
8.41921e-07
1.05438e-06
2.55643e-07
1.55917e-08
9.27879e-08
1.91248e-07
1.62652e-07
1.86824e-08
1.9985e-10
1.09767e-07
2.9452e-07
0.000125633
1.04751e-07
1.13561e-07
3.41972e-07
1.14439e-06
3.10213e-06
3.59727e-06
2.86913e-06
1.61559e-06
5.31648e-07
6.50666e-08
1.31544e-08
3.23072e-10
2.62864e-08
2.29998e-08
1.0177e-08
1.9985e-10
2.0536e-07
2.94619e-07
0.000138866
2.13043e-05
9.4249e-08
9.41853e-08
2.40018e-07
1.84134e-06
3.33099e-06
7.50462e-07
2.98002e-11
2.97893e-11
2.98002e-11
2.97893e-11
3.23014e-10
2.97893e-11
2.98002e-11
2.0127e-09
1.9985e-10
1.50207e-07
1.61797e-07
2.24795e-05
4.17273e-05
3.92299e-05
3.55921e-06
2.97941e-11
1.50409e-07
6.01698e-07
6.12628e-11
9.67586e-11
3.6584e-10
4.82566e-10
1.39201e-09
2.64782e-08
3.31868e-08
4.35034e-09
9.45322e-10
2.40424e-10
9.55088e-09
2.0982e-09
1.1719e-10
1.01979e-09
3.46356e-10
5.65357e-08
2.9805e-11
2.97893e-11
2.98002e-11
7.33776e-11
3.86399e-10
1.51303e-09
3.08413e-09
7.18329e-09
2.4194e-07
4.53516e-07
1.31346e-07
7.31406e-09
7.01075e-10
5.78834e-10
2.0982e-09
2.45585e-09
8.45238e-10
3.46297e-10
3.03046e-10
7.28965e-10
2.94371e-10
9.77256e-11
1.53357e-10
5.02407e-10
3.06103e-09
2.75521e-08
5.184e-08
3.34388e-07
5.43614e-07
5.2159e-07
5.69768e-08
3.45171e-09
2.55473e-09
3.30356e-09
2.36766e-09
9.27376e-10
6.11567e-10
3.03049e-10
1.35717e-10
5.99486e-11
6.56322e-11
1.55461e-10
4.76435e-10
3.55703e-09
5.72028e-08
1.18312e-07
1.22745e-07
4.47721e-07
5.73638e-07
2.1555e-07
1.3337e-08
5.83853e-09
6.2413e-09
1.51635e-10
6.88658e-11
6.25194e-11
1.70077e-11
1.20964e-11
1.7915e-11
4.49144e-11
1.18921e-10
3.31728e-10
2.29992e-09
4.13502e-08
1.67998e-07
1.42953e-07
1.36156e-07
5.73623e-07
3.63704e-07
2.47201e-08
1.24904e-08
9.09202e-09
2.41594e-11
1.60354e-11
9.30602e-12
5.73996e-12
5.40877e-12
9.55734e-12
2.31585e-11
5.36242e-11
1.28264e-10
3.52811e-10
1.68895e-09
1.67998e-07
5.95064e-07
1.40103e-07
5.65998e-07
4.72931e-07
4.7216e-08
3.26686e-08
2.79982e-08
2.83836e-11
1.4577e-11
4.96715e-12
2.20395e-12
1.97028e-12
3.56786e-12
8.55451e-12
1.86066e-11
2.76012e-11
3.20249e-11
3.56375e-10
1.02075e-07
7.47069e-07
7.4671e-07
2.7043e-07
4.90363e-07
8.49396e-08
4.57124e-08
1.52453e-07
1.83027e-11
5.9361e-12
1.52302e-12
5.90007e-13
5.17016e-13
9.72491e-13
2.3091e-12
4.96958e-12
1.1499e-11
3.80077e-11
1.79485e-10
4.33329e-09
3.91722e-07
1.43141e-06
2.70332e-07
4.9056e-07
1.26074e-07
1.13865e-07
1.73685e-07
7.74621e-12
1.94632e-12
4.25537e-13
1.30072e-13
1.00738e-13
1.83445e-13
4.69706e-13
1.24452e-12
4.42775e-12
2.05304e-11
9.03055e-11
4.69778e-10
6.53344e-08
1.99067e-06
1.16264e-06
3.3634e-07
1.65105e-07
1.73685e-07
1.73739e-07
2.0608e-12
5.12853e-13
1.07442e-13
2.48479e-14
1.4733e-14
2.33494e-14
7.18467e-14
2.6857e-13
1.29906e-12
6.66253e-12
2.22911e-11
2.67379e-11
3.40287e-11
1.98862e-06
6.96227e-06
2.71618e-07
1.36776e-07
1.37718e-07
1.03543e-07
3.8962e-13
1.09737e-13
2.32987e-14
4.33752e-15
1.70927e-15
2.13311e-15
8.43672e-15
4.14932e-14
2.21564e-13
1.08261e-12
4.66252e-12
2.04476e-11
2.91936e-09
1.56833e-06
6.93499e-06
9.46094e-07
8.64749e-08
2.76734e-08
2.76738e-08
4.90255e-14
1.59636e-14
3.84911e-15
6.99028e-16
1.63183e-16
1.3291e-16
6.05395e-16
3.73016e-15
2.73209e-14
2.99794e-13
4.17641e-12
5.94608e-11
2.45128e-09
3.07419e-07
3.98049e-06
1.34823e-06
5.17618e-08
8.26842e-09
1.76434e-07
4.32327e-15
1.65357e-15
4.84567e-16
1.0083e-16
1.76356e-17
5.89397e-18
2.44258e-17
3.09361e-16
6.51014e-15
1.67757e-13
4.3321e-12
9.34051e-11
7.56976e-10
2.01061e-12
2.01051e-12
1.46819e-06
1.22696e-07
8.26821e-09
8.76713e-07
3.72576e-16
1.57299e-16
5.31235e-17
1.27126e-17
2.21904e-18
3.25723e-19
9.93862e-19
3.56281e-17
1.17615e-15
3.25636e-14
6.93714e-13
6.1664e-12
1.44001e-12
1.22447e-11
2.60493e-07
1.43746e-05
6.87118e-07
8.32358e-09
1.03001e-06
3.21224e-17
1.42084e-17
5.18589e-18
1.35793e-18
2.46352e-19
2.87374e-20
1.09617e-20
1.731e-19
4.04299e-18
8.06389e-17
5.626e-16
5.33067e-19
1.11726e-16
5.31675e-12
4.60419e-07
3.71985e-05
3.80473e-06
3.39493e-08
1.03002e-06
2.40687e-18
1.10343e-18
4.28769e-19
1.22018e-19
2.35866e-20
2.40043e-21
3.43115e-22
4.57598e-23
2.62617e-24
8.26103e-23
2.91379e-20
6.93807e-18
1.16256e-15
6.49394e-13
1.16731e-07
3.72409e-05
1.15289e-05
1.08406e-07
1.03001e-06
1.5411e-19
7.321e-20
3.02864e-20
9.34443e-21
1.98614e-21
1.72145e-22
2.34499e-23
3.87643e-24
1.9994e-25
1.84932e-26
1.19827e-27
2.64062e-30
-1.60532e-28
-7.40432e-27
-3.25115e-25
2.51538e-05
2.02114e-05
4.09735e-07
7.32204e-07
8.78845e-21
4.28369e-21
1.8863e-21
6.34973e-22
1.51414e-22
1.12461e-23
1.28877e-24
2.58675e-25
1.46608e-26
7.89205e-28
3.45451e-29
1.25993e-30
3.98362e-31
-9.40199e-28
-1.64711e-25
-8.38849e-25
3.06334e-05
2.16531e-06
9.89122e-08
4.19453e-22
2.0707e-22
9.57001e-23
3.5184e-23
9.63744e-24
6.67366e-25
6.10615e-26
1.28968e-26
1.08215e-27
7.27225e-29
4.16795e-30
1.75489e-31
9.69838e-33
-2.11368e-28
-6.38914e-26
-4.08036e-24
3.29298e-05
5.38438e-06
2.07823e-08
1.72414e-23
8.55528e-24
4.12427e-24
1.64346e-24
5.19861e-25
3.63377e-26
3.21249e-27
5.40993e-28
6.02269e-29
4.88083e-30
3.25349e-31
1.62783e-32
8.13855e-34
-3.93145e-29
-2.01198e-26
-4.46828e-24
3.29247e-05
8.62471e-06
1.40854e-08
5.50855e-25
2.7418e-25
1.36337e-25
5.73464e-26
2.01504e-26
1.66372e-27
1.50475e-28
1.96915e-29
2.25395e-30
2.01769e-31
1.50479e-32
8.66807e-34
4.62189e-35
-5.86653e-30
-5.26747e-27
-2.08161e-24
3.2908e-05
1.19915e-05
1.13092e-08
1.3592e-26
6.75867e-27
3.50459e-27
1.54719e-27
6.04044e-28
6.57874e-29
6.09909e-30
6.44017e-31
6.84013e-32
6.26582e-33
4.94543e-34
3.11054e-35
1.77181e-36
-6.43753e-31
-1.09462e-27
-1.51344e-25
3.28925e-05
1.30792e-05
1.13098e-08
2.21813e-28
1.11907e-28
5.91897e-29
2.6749e-29
1.06415e-29
1.26858e-30
1.21965e-31
1.21071e-32
1.20401e-33
1.07625e-34
8.49319e-36
5.50765e-37
3.21537e-38
-4.6656e-32
-1.44165e-28
-2.60809e-26
3.28721e-05
1.35341e-05
1.23878e-08
1.83098e-30
9.3258e-31
5.07969e-31
2.36768e-31
1.00067e-31
1.51247e-32
1.60144e-33
1.51807e-34
1.39161e-35
1.1866e-36
9.19311e-38
6.04976e-39
3.59825e-40
-1.51575e-33
-8.64354e-30
-9.80571e-27
2.62289e-05
1.91567e-05
3.35632e-07
5.05623e-40
7.76356e-41
1.09731e-41
8.73425e-43
5.12527e-44
2.60814e-45
1.31609e-46
4.54889e-48
7.91859e-50
5.54789e-53
-7.7291e-51
-3.17113e-51
-1.04139e-51
-5.53338e-52
-7.45582e-52
-1.71601e-27
1.32744e-06
2.39725e-05
1.61948e-06
)
;

boundaryField
{
    leftWall
    {
        type            zeroGradient;
    }
    rightWall
    {
        type            zeroGradient;
    }
    lowerWall
    {
        type            zeroGradient;
    }
    atmosphere
    {
        type            inletOutlet;
        inletValue      uniform 0;
        value           nonuniform List<scalar> 
46
(
1.7111e-15
5.40907e-14
8.69381e-13
9.09408e-12
6.81798e-11
8.68853e-10
4.39792e-08
2.39415e-07
3.09199e-07
5.59954e-08
2.68551e-13
3.1743e-12
4.51114e-12
1.41708e-12
1.10769e-13
7.36322e-16
1.78824e-17
3.95283e-20
0
0
0
0
0
0
0
0
0
0
0
0
0
0
0
0
0
0
0
0
0
0
0
0
0
0
2.39725e-05
1.61948e-06
)
;
    }
    defaultFaces
    {
        type            empty;
    }
}


// ************************************************************************* //
