/*--------------------------------*- C++ -*----------------------------------*\
| =========                 |                                                 |
| \\      /  F ield         | OpenFOAM: The Open Source CFD Toolbox           |
|  \\    /   O peration     | Version:  2012                                  |
|   \\  /    A nd           | Website:  www.openfoam.com                      |
|    \\/     M anipulation  |                                                 |
\*---------------------------------------------------------------------------*/
FoamFile
{
    version     2.0;
    format      ascii;
    class       surfaceScalarField;
    location    "0.45";
    object      alphaPhi0.water;
}
// * * * * * * * * * * * * * * * * * * * * * * * * * * * * * * * * * * * * * //

dimensions      [0 3 -1 0 0 0 0];
oriented        oriented;


internalField   nonuniform List<scalar> 
4432
(
-3.79363e-06
3.79363e-06
-4.2045e-06
4.10876e-07
-7.0816e-07
-3.49634e-06
4.91121e-06
-5.61937e-06
1.12248e-05
-6.31356e-06
1.70382e-05
-5.8134e-06
2.17444e-05
-4.70619e-06
2.52329e-05
-3.4885e-06
2.76475e-05
-2.41466e-06
2.92076e-05
-1.56007e-06
3.01101e-05
-9.02529e-07
3.04773e-05
-3.67163e-07
3.0285e-05
1.92317e-07
2.93352e-05
9.49789e-07
2.72926e-05
2.04255e-06
2.36077e-05
3.68498e-06
1.76087e-05
5.99895e-06
9.15892e-06
8.4498e-06
3.23741e-07
8.83518e-06
-6.35859e-06
7.34937e-06
-1.44012e-05
7.20724e-06
-1.58088e-05
4.61547e-08
-1.58182e-05
-3.9407e-06
7.73433e-06
-3.90525e-06
3.75427e-07
-2.83257e-07
-7.11832e-06
5.31135e-06
-1.1214e-05
1.15719e-05
-1.25741e-05
1.73055e-05
-1.15471e-05
2.19283e-05
-9.32898e-06
2.5351e-05
-6.91122e-06
2.77375e-05
-4.80115e-06
2.93142e-05
-3.13673e-06
3.0277e-05
-1.8653e-06
3.07687e-05
-8.58895e-07
3.09211e-05
3.98774e-08
3.08827e-05
9.88233e-07
3.06668e-05
2.25841e-06
3.01007e-05
4.25111e-06
2.84695e-05
7.6301e-06
2.40822e-05
1.28371e-05
1.49032e-05
1.80142e-05
1.72271e-06
2.07519e-05
-8.45016e-06
1.65447e-05
-8.87503e-06
-1.49826e-08
-2.47025e-05
-3.51332e-06
1.12477e-05
-3.30264e-06
1.64755e-07
3.29193e-07
-1.07502e-05
5.90325e-06
-1.6788e-05
1.20067e-05
-1.86775e-05
1.75287e-05
-1.7069e-05
2.19283e-05
-1.37285e-05
2.51645e-05
-1.01474e-05
2.74377e-05
-7.07441e-06
2.89842e-05
-4.68319e-06
2.99886e-05
-2.8697e-06
3.05639e-05
-1.43422e-06
3.07572e-05
-1.53376e-07
3.05649e-05
1.18051e-06
3.00152e-05
2.80808e-06
2.92561e-05
5.01024e-06
2.8626e-05
8.2602e-06
2.79167e-05
1.35464e-05
2.48754e-05
2.10555e-05
1.69938e-05
2.86335e-05
6.54382e-06
2.86052e-05
1.6416e-06
5.4705e-06
-2.30701e-05
-2.88947e-06
1.41371e-05
-2.40951e-06
-3.15198e-07
1.17756e-06
-1.43372e-05
6.60397e-06
-2.22144e-05
1.24797e-05
-2.45532e-05
1.77336e-05
-2.2323e-05
2.18502e-05
-1.78451e-05
2.48535e-05
-1.31507e-05
2.69971e-05
-9.21803e-06
2.85281e-05
-6.21418e-06
2.96109e-05
-3.95246e-06
3.03289e-05
-2.15227e-06
3.07041e-05
-5.286e-07
3.07075e-05
1.17717e-06
3.0307e-05
3.20861e-06
2.95131e-05
5.80406e-06
2.8551e-05
9.22233e-06
2.81406e-05
1.39568e-05
2.83415e-05
2.08547e-05
2.70421e-05
2.99329e-05
2.20216e-05
3.39944e-05
1.16962e-05
1.5906e-05
-1.13757e-05
-2.09288e-06
1.623e-05
-1.18833e-06
-1.21975e-06
2.21047e-06
-1.7736e-05
7.29153e-06
-2.72955e-05
1.28646e-05
-3.01263e-05
1.78312e-05
-2.72896e-05
2.16574e-05
-2.16713e-05
2.44305e-05
-1.59238e-05
2.64623e-05
-1.12498e-05
2.80087e-05
-7.76058e-06
2.92079e-05
-5.15173e-06
3.0108e-05
-3.05232e-06
3.06988e-05
-1.11942e-06
3.09378e-05
9.38208e-07
3.0799e-05
3.34739e-06
3.02839e-05
6.31916e-06
2.94574e-05
1.00488e-05
2.87003e-05
1.47139e-05
2.90154e-05
2.05395e-05
3.03712e-05
2.85771e-05
2.8912e-05
3.54536e-05
1.82601e-05
2.65583e-05
6.86488e-06
-1.06124e-06
1.72912e-05
4.15798e-07
-2.69678e-06
3.55767e-06
-2.08779e-05
8.16344e-06
-3.19013e-05
1.32857e-05
-3.52486e-05
1.78571e-05
-3.1861e-05
2.13484e-05
-2.51626e-05
2.39045e-05
-1.84799e-05
2.58736e-05
-1.32189e-05
2.74962e-05
-9.38318e-06
2.88683e-05
-6.52386e-06
2.99947e-05
-4.17869e-06
3.08308e-05
-1.95549e-06
3.13061e-05
4.62867e-07
3.13981e-05
3.25542e-06
3.11306e-05
6.58666e-06
3.0595e-05
1.05843e-05
2.98985e-05
1.54104e-05
2.95569e-05
2.08812e-05
3.06073e-05
2.75267e-05
3.05467e-05
3.55142e-05
2.1357e-05
3.57486e-05
2.82038e-05
1.94086e-07
1.70972e-05
2.50915e-06
-5.01185e-06
5.83582e-06
-2.42045e-05
9.97971e-06
-3.60451e-05
1.43313e-05
-3.96001e-05
1.81667e-05
-3.56963e-05
2.11264e-05
-2.81223e-05
2.33971e-05
-2.07506e-05
2.53029e-05
-1.51247e-05
2.70271e-05
-1.11074e-05
2.86038e-05
-8.10056e-06
2.99885e-05
-5.56332e-06
3.10986e-05
-3.06562e-06
3.18518e-05
-2.90282e-07
3.21758e-05
2.93137e-06
3.21079e-05
6.65457e-06
3.17588e-05
1.09334e-05
3.12532e-05
1.5916e-05
3.0656e-05
2.14784e-05
3.07032e-05
2.74795e-05
3.05109e-05
3.57066e-05
2.36579e-05
4.26016e-05
5.18447e-05
2.14038e-06
1.49568e-05
5.64783e-06
-8.51929e-06
9.83074e-06
-2.8387e-05
1.35084e-05
-3.97219e-05
1.65662e-05
-4.26567e-05
1.91773e-05
-3.83066e-05
2.13765e-05
-3.03211e-05
2.32975e-05
-2.26713e-05
2.51118e-05
-1.6939e-05
2.68898e-05
-1.28854e-05
2.85971e-05
-9.8078e-06
3.01559e-05
-7.12214e-06
3.14653e-05
-4.375e-06
3.24245e-05
-1.24953e-06
3.29913e-05
2.36464e-06
3.31765e-05
6.46932e-06
3.30309e-05
1.1079e-05
3.26793e-05
1.62675e-05
3.21732e-05
2.19846e-05
3.16799e-05
2.79727e-05
3.08723e-05
3.65143e-05
2.51096e-05
4.83643e-05
7.69399e-05
3.12301e-10
-1.97857e-09
4.34247e-09
-5.69645e-09
1.45943e-09
1.39087e-09
1.71414e-10
5.70647e-10
1.08854e-11
1.43454e-10
4.91505e-13
9.18815e-12
1.90658e-14
4.00423e-13
2.29794e-16
1.58131e-14
6.11013e-18
2.12236e-16
6.87748e-20
2.82055e-18
-2.33142e-19
9.06427e-21
-8.6195e-19
1.43259e-19
-2.33962e-17
4.11763e-18
-4.28842e-16
1.37715e-16
-7.52485e-15
5.16856e-15
-7.37466e-14
2.56316e-14
-9.91266e-13
3.90772e-13
-1.88143e-12
-1.3169e-12
-1.46602e-11
2.10155e-09
-5.7464e-09
3.89433e-08
-4.86355e-08
1.07929e-08
1.97498e-08
1.9263e-09
5.65809e-09
1.75208e-10
1.74772e-09
9.98247e-12
1.57464e-10
3.85092e-13
8.87718e-12
9.68748e-15
3.3663e-13
1.37941e-16
8.71896e-15
-2.53103e-20
1.40894e-16
-5.42551e-19
2.35622e-19
-1.41353e-17
1.15036e-17
-4.52421e-16
3.45227e-16
-1.30316e-14
1.09971e-14
-2.15736e-13
1.87612e-13
-2.33198e-12
7.41499e-13
-1.89168e-11
6.60868e-12
-3.15636e-11
-1.44885e-12
-7.56173e-11
1.28641e-08
-2.47078e-08
1.54774e-07
-3.07946e-07
7.84439e-08
-2.00278e-07
8.7447e-09
3.83759e-08
6.73264e-10
9.00108e-09
3.66925e-11
7.15687e-10
1.23664e-12
3.9369e-11
2.97622e-14
1.42342e-12
3.9987e-16
3.58435e-14
-1.80987e-19
5.198e-16
-5.51179e-18
2.98557e-18
-1.70563e-16
1.59056e-16
-6.79662e-15
6.13308e-15
-1.92254e-13
1.74757e-13
-2.84833e-12
2.47807e-12
-2.28456e-11
1.02593e-11
-1.85988e-10
5.50045e-11
-3.29179e-10
-6.38159e-11
-7.38678e-10
1.11726e-07
-1.81053e-07
4.80397e-07
-9.14517e-07
2.50266e-07
-9.52284e-07
1.55673e-08
7.83477e-08
1.28276e-09
2.13478e-08
7.4554e-11
1.74855e-09
2.58114e-12
1.0089e-10
6.46872e-14
3.62061e-12
9.89777e-16
9.99889e-14
-7.4243e-19
1.3594e-15
-4.6518e-17
2.61725e-17
-1.49906e-15
1.48736e-15
-6.44569e-14
6.40077e-14
-1.58355e-12
1.54293e-12
-2.38683e-11
2.21431e-11
-1.80044e-10
1.00482e-10
-1.32917e-09
2.71879e-10
-2.48378e-09
-8.69033e-10
-6.47368e-09
3.67011e-07
-8.02934e-07
2.90682e-07
-2.33225e-06
1.2202e-07
-4.0735e-08
-8.42508e-09
3.94009e-08
-5.00502e-10
1.22216e-08
-2.83578e-11
1.17294e-09
-9.50091e-13
6.75071e-11
-1.87429e-14
2.44044e-12
6.88334e-16
7.72226e-14
-7.98202e-19
1.28145e-15
-2.88395e-16
1.62843e-16
-8.89465e-15
9.31881e-15
-3.74647e-13
4.19034e-13
-9.12126e-12
9.62127e-12
-1.47323e-10
1.4528e-10
-1.12499e-09
8.28068e-10
-7.05492e-09
7.42647e-10
-1.437e-08
-5.23665e-09
-4.19019e-08
4.17681e-07
-1.09465e-06
2.55282e-08
-3.81228e-07
1.56681e-10
-1.76067e-08
1.31403e-08
-2.61949e-09
-7.54961e-10
6.40402e-09
-4.62675e-11
3.52781e-10
-1.52933e-12
2.01522e-11
-3.80769e-14
8.49928e-13
2.56249e-15
3.13344e-14
-7.95566e-19
1.01301e-15
-1.32638e-15
7.21194e-16
-3.47201e-14
3.98516e-14
-1.55888e-12
1.82137e-12
-3.87554e-11
4.33148e-11
-6.75038e-10
7.19674e-10
-6.02953e-09
5.34832e-09
-2.74121e-08
5.85016e-10
-6.8676e-08
-1.0616e-08
-2.10243e-07
-3.03942e-07
-3.12653e-05
-8.30087e-09
-6.79113e-07
-1.71692e-09
-2.12318e-08
8.6577e-11
5.23247e-11
3.61291e-10
-6.49849e-10
-1.58072e-11
1.39382e-10
-5.34385e-13
3.9441e-12
-1.73214e-14
2.97259e-13
1.26319e-15
1.13547e-14
2.10731e-18
7.45904e-16
-4.64094e-15
2.53062e-15
-8.41095e-14
1.12083e-13
-4.18703e-12
5.5742e-12
-1.12116e-10
1.38677e-10
-2.13667e-09
2.52939e-09
-2.33672e-08
2.38992e-08
-8.33265e-08
-1.20271e-08
-2.15525e-07
-2.84638e-08
-7.87801e-07
-2.40377e-06
-6.87808e-05
-7.30686e-08
-3.01922e-06
-1.56322e-10
-9.2739e-08
-1.24043e-10
-6.08787e-11
2.00279e-11
3.31846e-12
2.45692e-13
-1.27348e-12
-2.71952e-14
3.95709e-12
-2.10396e-15
2.61364e-13
8.15997e-16
7.44368e-15
6.13449e-18
5.64715e-16
-1.18244e-14
1.25863e-14
-8.90469e-14
1.81295e-13
-6.20013e-12
1.09125e-11
-1.90089e-10
3.01526e-10
-4.05452e-09
5.94073e-09
-4.60017e-08
6.00545e-08
-3.78727e-07
-1.36517e-07
-4.36689e-07
-2.79416e-06
-2.27561e-06
1.20589e-05
2.89789e-06
2.72016e-05
-2.3662e-05
3.94185e-05
-4.05892e-05
4.38007e-05
-4.40746e-05
4.41891e-05
-4.30132e-05
4.48817e-05
-3.89749e-05
4.72341e-05
-3.26585e-05
5.08928e-05
-2.6322e-05
5.51856e-05
-2.1228e-05
5.959e-05
-1.72881e-05
6.37157e-05
-1.39328e-05
6.72945e-05
-1.07007e-05
7.01571e-05
-7.2375e-06
7.21309e-05
-3.22337e-06
7.3025e-05
1.47048e-06
7.364e-05
5.85435e-06
7.38037e-05
1.09153e-05
7.36197e-05
1.64515e-05
7.34965e-05
2.21078e-05
7.36089e-05
2.78603e-05
7.5108e-05
3.50152e-05
8.12733e-05
4.2199e-05
5.73192e-05
0.000100914
2.29394e-05
-2.00416e-05
4.74345e-05
-4.35929e-05
5.16053e-05
-2.85701e-05
4.73221e-05
-1.63817e-05
4.23598e-05
-1.61221e-05
3.94267e-05
-1.78096e-05
4.03346e-05
-1.75393e-05
4.50719e-05
-1.69134e-05
5.20781e-05
-1.64947e-05
5.97352e-05
-1.59082e-05
6.68996e-05
-1.47003e-05
7.2721e-05
-1.25685e-05
7.65738e-05
-9.29824e-06
7.86353e-05
-4.92865e-06
8.00414e-05
8.04454e-08
7.9847e-05
6.04879e-06
7.94502e-05
1.13121e-05
7.89534e-05
1.69483e-05
7.95135e-05
2.15477e-05
8.17587e-05
2.5615e-05
8.65466e-05
3.02274e-05
9.52736e-05
3.3472e-05
3.91545e-05
0.000113418
2.19442e-05
-1.4784e-05
1.104e-05
-8.92626e-07
4.98552e-06
-1.42649e-08
4.03013e-06
-2.46174e-11
4.37934e-06
-3.99079e-19
3.65309e-06
-8.87035e-18
3.5384e-06
-1.64866e-16
4.7169e-06
-6.31903e-15
7.3349e-06
-1.95124e-13
1.14937e-05
-4.83138e-12
1.75154e-05
-1.00487e-10
2.61562e-05
-1.89541e-09
3.82937e-05
-3.19274e-08
5.49849e-05
-5.2097e-07
7.10557e-05
-1.88201e-06
8.35478e-05
1.77381e-06
8.48397e-05
1.00202e-05
8.16228e-05
2.01653e-05
8.08608e-05
2.23097e-05
8.29885e-05
2.34873e-05
8.6956e-05
2.62598e-05
9.22798e-05
2.81482e-05
2.9476e-05
0.000101958
9.06916e-07
-4.96566e-22
1.42895e-08
-1.29202e-20
2.46174e-11
-2.0061e-19
-2.60865e-20
-2.07797e-18
-1.48018e-19
-5.3625e-19
-2.88088e-18
-6.39343e-18
-1.51412e-16
-1.50554e-17
-6.19265e-15
-1.62521e-16
-1.91009e-13
-5.20746e-15
-4.74547e-12
-1.07267e-13
-1.04355e-10
-6.87791e-13
-1.99933e-09
-3.65752e-13
-3.39128e-08
-1.30962e-11
-5.54367e-07
-5.01176e-10
1.91895e-06
-9.26779e-09
9.47253e-06
-6.26352e-08
2.6418e-05
-6.50729e-08
5.51034e-05
3.11326e-07
8.25622e-05
5.92674e-06
9.00332e-05
1.60164e-05
9.19079e-05
2.43851e-05
9.41597e-05
2.58963e-05
2.62658e-05
9.73695e-05
-2.3281e-22
-3.0863e-22
-5.55188e-21
-7.66827e-21
-8.24364e-20
-1.24317e-19
-8.40031e-19
-1.33166e-18
-1.66926e-18
-5.39596e-18
-4.79769e-18
-3.65696e-17
-8.80572e-18
-8.39844e-17
-1.5349e-16
-1.58182e-16
-5.73338e-15
-1.50695e-14
-4.03216e-14
-1.68829e-13
-6.62859e-14
-7.38131e-13
-1.74761e-13
-2.61344e-13
-1.2007e-11
-1.19943e-12
-4.07521e-10
-1.0484e-10
-5.07077e-09
-4.58981e-09
-5.48254e-08
-1.28685e-08
-9.83395e-08
-1.8144e-08
4.59953e-07
-2.44798e-08
8.26388e-06
-2.27343e-08
2.86882e-05
5.67954e-08
6.2848e-05
5.63634e-07
9.20474e-05
8.66298e-06
1.7935e-05
0.000100378
-2.8405e-22
-3.82384e-23
-5.1661e-21
-2.96206e-21
-1.43613e-19
-1.41098e-19
-2.65029e-18
-3.84374e-18
-2.95011e-17
-4.21799e-17
-1.00664e-16
-1.96843e-16
-8.13232e-17
-3.68413e-16
2.06674e-16
-6.69668e-16
-6.31443e-14
-1.77971e-14
-1.84495e-12
-2.04634e-12
-8.43116e-13
-6.42146e-12
-7.15778e-14
-1.98962e-12
1.03902e-14
-6.54918e-13
-8.71603e-11
-1.33341e-11
-3.82197e-09
-3.81597e-09
-2.6965e-09
-1.50292e-08
2.2792e-09
-2.48254e-08
6.4672e-09
-2.92578e-08
9.22213e-09
-1.74877e-08
6.67493e-08
-1.34899e-11
9.66148e-07
2.9622e-08
1.4133e-05
-5.25657e-08
7.12238e-08
4.38773e-05
-3.92846e-23
-7.14433e-24
-1.91585e-21
-1.23362e-21
-2.06545e-19
-1.10714e-19
-7.61862e-18
-4.32415e-18
-7.84217e-17
-6.06291e-17
-2.26424e-16
-2.77282e-16
-2.64115e-16
-5.0316e-16
-1.10519e-15
-5.71562e-16
-1.47821e-14
-1.34822e-14
-3.75809e-12
-2.71388e-12
-3.15866e-12
-6.33586e-12
-7.62704e-13
-5.12904e-12
2.17423e-12
-8.85959e-13
-5.14207e-12
-1.31937e-12
-7.76371e-10
-2.87328e-09
5.28575e-10
-5.59986e-09
2.40451e-09
-1.44513e-08
5.93545e-09
-1.99226e-08
1.09729e-08
-6.35429e-09
2.1355e-08
-4.67793e-09
5.72409e-08
-1.92752e-10
2.88092e-08
-5.61491e-09
-9.01317e-09
1.10658e-07
-6.86994e-24
-1.16599e-24
-8.70167e-22
-3.85884e-22
-1.34591e-19
-4.56627e-20
-7.08212e-18
-3.58512e-18
-7.60714e-17
-5.93667e-17
-2.27875e-16
-2.78889e-16
-2.38322e-16
-5.167e-16
-2.52799e-16
-5.6473e-16
-9.73101e-15
-4.0639e-15
-2.65444e-12
-1.19775e-12
-3.04431e-12
-5.25465e-12
-1.39365e-12
-5.85911e-12
-1.36833e-13
-2.20459e-12
2.3244e-11
-2.52817e-11
5.94159e-10
-9.21313e-12
6.16808e-10
-1.02691e-13
3.93968e-10
-5.6674e-13
2.26856e-09
-2.0809e-09
2.83409e-09
-6.31718e-09
9.1474e-09
-7.26472e-09
3.72302e-08
-1.07797e-08
4.49204e-08
-5.23861e-09
1.04336e-09
2.37685e-08
-9.87057e-25
-2.09462e-25
-3.0808e-22
-8.06733e-23
-4.89958e-20
-1.30889e-20
-4.21839e-18
-1.83344e-18
-5.12082e-17
-3.96949e-17
-1.72118e-16
-1.97037e-16
-1.88076e-16
-4.03648e-16
2.08703e-17
-5.35847e-16
-2.1471e-15
-1.63873e-15
-8.67453e-13
-1.02725e-13
-4.77559e-13
-2.20933e-15
8.41094e-14
-9.2627e-14
6.54648e-15
-3.77575e-12
8.16849e-12
-2.70055e-11
9.60706e-14
-1.15674e-12
1.6094e-15
-1.38667e-14
5.66072e-15
-5.86227e-13
9.28122e-11
-2.67948e-10
2.05491e-09
-1.36491e-08
6.82543e-09
-4.7716e-09
1.00297e-08
-1.2891e-08
1.60466e-08
-5.95742e-09
9.46628e-10
9.91426e-09
-6.07249e-26
-9.97118e-26
-6.72502e-23
-1.36229e-23
-1.36137e-20
-2.98456e-21
-1.7695e-18
-6.73276e-19
-2.2169e-17
-1.68352e-17
-6.38218e-17
-8.27451e-17
-8.99224e-17
-1.76853e-16
-1.43273e-16
-3.65317e-16
-6.95921e-16
-1.05204e-15
-1.00027e-16
-1.82946e-15
-2.74917e-16
-1.90181e-15
-9.0988e-14
-1.58322e-15
9.16891e-13
-8.79541e-13
3.13641e-12
-1.21033e-14
2.00839e-14
-8.81644e-14
1.40212e-14
-3.10141e-15
4.92023e-12
-1.3897e-12
-2.06351e-10
-7.91457e-10
-6.82877e-10
-1.98984e-08
-1.10174e-09
-1.56212e-08
2.49649e-11
-2.13518e-08
1.40136e-09
-7.2644e-09
-8.93835e-10
3.25608e-09
-1.79932e-26
-3.67426e-26
-1.16675e-23
-1.94686e-24
-3.13254e-21
-5.4887e-22
-5.34813e-19
-1.77433e-19
-6.54643e-18
-4.93882e-18
-1.69557e-17
-2.47064e-17
-3.08112e-17
-5.66373e-17
-1.38012e-16
-1.4018e-16
-7.89814e-17
-7.60422e-16
-2.29775e-17
-1.74432e-15
2.59406e-17
-1.84679e-15
1.48093e-16
-1.58682e-15
1.35317e-14
-1.43281e-15
4.2594e-16
-9.93486e-15
6.01862e-15
-1.1714e-13
9.84395e-15
-1.44723e-15
-1.30779e-12
-7.00885e-14
-2.2331e-11
-2.65907e-11
-2.61758e-09
-1.96127e-09
-7.98294e-09
-2.06767e-08
-5.64519e-09
-1.83937e-08
-5.7926e-09
-8.78807e-09
-3.37893e-09
-2.64069e-09
-3.64002e-27
1.31999e-27
-1.70017e-24
-2.18223e-25
-5.56614e-22
-9.53103e-23
-1.16386e-19
-3.64471e-20
-1.44775e-18
-1.08936e-18
-4.03732e-18
-5.67635e-18
-7.55259e-18
-1.512e-17
-3.47463e-17
-4.58793e-17
-1.50305e-16
-2.77309e-16
-7.76754e-17
-1.61758e-15
-4.66734e-18
-2.28783e-15
2.35325e-17
-2.53929e-15
1.22471e-17
-1.76845e-15
-1.33195e-15
-1.93277e-14
-8.27711e-17
-2.63259e-14
8.06966e-16
-1.20766e-15
-6.86135e-14
-5.39642e-16
-2.66126e-11
-3.93422e-14
-1.98594e-09
-1.65811e-12
-4.0914e-09
-4.88287e-11
-5.87183e-09
-9.53622e-10
-2.20075e-10
-7.71262e-09
-1.15759e-08
-7.06677e-09
-4.87549e-27
5.68341e-27
-1.93391e-25
-2.9707e-26
-8.58738e-23
-1.82748e-23
-2.00718e-20
-6.18112e-21
-2.48704e-19
-1.90231e-19
-8.14211e-19
-1.04409e-18
-2.04079e-18
-3.50832e-18
-7.32446e-18
-1.53061e-17
-9.45451e-17
-6.36534e-17
-2.10197e-16
-4.58564e-16
-1.85082e-16
-1.87821e-15
-1.07736e-16
-2.35343e-15
-1.32922e-15
-1.21743e-15
-3.00234e-15
-5.91321e-16
-4.10995e-16
-4.98153e-16
-6.21798e-18
-5.29301e-16
-5.36809e-16
-6.43894e-18
-3.98711e-14
-5.62857e-18
-1.69797e-12
-6.72962e-18
-5.05267e-11
-2.29334e-17
-1.00415e-09
-3.07398e-16
-3.48879e-09
-5.04655e-15
-7.98462e-14
-1.28139e-08
-5.0041e-28
6.47858e-27
-2.41876e-26
-6.0198e-27
-1.22438e-23
-4.36577e-24
-2.88228e-21
-8.78824e-22
-3.46602e-20
-2.62469e-20
-1.38647e-19
-1.5383e-19
-6.42896e-19
-7.37771e-19
-2.27886e-18
-4.78501e-18
-1.30217e-17
-1.79751e-17
-1.30411e-16
-6.58378e-17
-3.42193e-16
-4.13663e-16
-2.50141e-16
-1.54886e-15
-1.04298e-16
-1.09923e-15
-5.78355e-17
-6.77879e-16
-8.41727e-17
-2.67425e-16
-2.39049e-18
-6.39082e-17
-1.32129e-18
-4.73321e-18
-1.78664e-18
-3.07139e-18
-2.73107e-18
-4.25211e-18
-1.54206e-17
-7.29042e-18
-2.76404e-16
-2.05929e-17
-5.23103e-15
-7.2879e-17
-6.66503e-17
-8.50211e-14
-7.37623e-29
5.37136e-27
-8.62966e-27
2.5361e-27
-1.70143e-24
-1.11939e-24
-3.42292e-22
-1.0599e-22
-3.84083e-21
-2.82862e-21
-2.07529e-20
-1.81801e-20
-1.85556e-19
-1.46832e-19
-9.41411e-19
-1.31604e-18
-2.83822e-18
-5.33295e-18
-1.57225e-17
-1.27173e-17
-2.03709e-16
-4.51087e-17
-2.3524e-16
-1.70754e-16
-2.19864e-16
-2.68601e-16
-1.16314e-16
-2.95388e-16
-2.43369e-17
-1.53124e-16
-2.14994e-18
-2.15126e-17
-1.45749e-18
-7.6521e-19
-2.01192e-18
-3.32269e-19
-4.16918e-18
-3.0305e-18
-7.29469e-18
-1.87742e-17
-1.07092e-17
-5.68981e-17
-1.55819e-17
-8.44866e-17
-7.11186e-17
-2.24001e-17
3.07435e-29
3.55387e-27
-3.53176e-26
1.43708e-26
-2.40287e-25
-2.35454e-25
-3.27931e-23
-1.10442e-23
-3.37889e-22
-2.34021e-22
-2.85506e-21
-1.82578e-21
-4.56069e-20
-2.85716e-20
-3.50978e-19
-2.99361e-19
-9.2003e-19
-1.33256e-18
-2.73984e-18
-3.17905e-18
-1.59616e-17
-7.78218e-18
-3.76796e-17
-1.39977e-17
-5.36888e-17
-1.79626e-17
-4.95186e-17
-1.34055e-17
-1.00998e-17
-5.76186e-18
-3.19674e-19
-9.76189e-19
-1.03701e-19
-5.47132e-20
-2.82078e-19
-2.85506e-20
-5.88287e-18
-2.31453e-19
-4.0328e-17
-1.92543e-18
-1.03757e-16
-1.14815e-17
-1.55361e-16
-4.55085e-17
-9.16572e-17
-1.97248e-16
1.78452e-28
1.89878e-27
-6.57327e-27
1.00756e-26
-3.41892e-26
-3.27888e-26
-2.37255e-24
-1.01441e-24
-2.4497e-23
-1.44874e-23
-4.07388e-22
-1.77192e-22
-9.70333e-21
-5.24043e-21
-8.73582e-20
-5.74738e-20
-2.78302e-19
-2.75085e-19
-8.56257e-19
-7.42658e-19
-1.98565e-18
-1.73001e-18
-3.17561e-18
-2.30935e-18
-3.28127e-18
-2.13991e-18
-1.9531e-18
-1.42327e-18
-4.4637e-19
-4.91955e-19
-2.38697e-20
-6.64743e-20
-1.12226e-20
-5.05562e-21
-2.3379e-20
-6.19928e-21
-2.71216e-19
-6.36251e-20
-2.66425e-18
-5.78579e-19
-2.05375e-17
-3.6902e-18
-1.09888e-16
-1.69184e-17
-5.05946e-17
-3.42353e-16
1.2931e-28
8.08243e-28
-8.57274e-28
4.8672e-27
-4.58018e-27
-2.53053e-27
-1.25791e-25
-7.8336e-26
-1.51081e-24
-6.56513e-25
-6.25658e-23
-1.87442e-23
-1.81534e-21
-8.21024e-22
-1.71941e-20
-9.48131e-21
-6.67133e-20
-4.83892e-20
-2.46581e-19
-1.40627e-19
-4.45375e-19
-3.42299e-19
-5.00707e-19
-4.55168e-19
-4.46457e-19
-4.27433e-19
-2.1325e-19
-2.66207e-19
-3.64818e-20
-8.13743e-20
-1.80154e-21
-8.83677e-21
-2.13489e-21
-6.73829e-22
-6.55109e-21
-1.5951e-21
-9.01801e-20
-1.66846e-20
-9.40124e-19
-1.60057e-19
-7.51698e-18
-1.13011e-18
-4.22263e-17
-6.02646e-18
-2.02848e-17
-1.56367e-16
6.32897e-29
2.65563e-28
-6.3579e-29
1.79834e-27
-5.25614e-28
-3.94402e-29
-6.05131e-27
-4.08988e-27
-8.43381e-26
-2.18701e-26
-8.83316e-24
-1.9533e-24
-2.90881e-22
-9.95529e-23
-2.97746e-21
-1.29837e-21
-1.26173e-20
-7.17212e-21
-5.04229e-20
-2.17266e-20
-9.54107e-20
-5.41168e-20
-1.08567e-19
-7.22762e-20
-9.58662e-20
-6.76808e-20
-4.10012e-20
-4.21612e-20
-5.61025e-21
-1.28173e-20
-2.74461e-22
-1.33978e-21
-3.45194e-22
-1.16482e-22
-1.75904e-21
-3.40474e-22
-2.40595e-20
-3.88219e-21
-2.65342e-19
-4.01754e-20
-2.51835e-18
-3.21439e-19
-1.71714e-17
-2.08402e-18
-8.32545e-18
-6.6411e-17
2.30373e-29
6.40745e-29
-1.32863e-31
4.98893e-28
-1.25421e-28
8.58477e-29
-2.70348e-28
-8.74068e-29
-4.92288e-27
-5.27668e-28
-9.50015e-25
-1.52751e-25
-3.72236e-23
-8.71845e-24
-4.33373e-22
-1.38068e-22
-1.97079e-21
-8.53345e-22
-8.1541e-21
-2.73331e-21
-1.55786e-20
-6.0313e-21
-1.7644e-20
-7.44587e-21
-1.56126e-20
-6.84721e-21
-6.74426e-21
-4.25663e-21
-8.9979e-22
-1.32932e-21
-5.15931e-23
-1.4606e-22
-6.56749e-23
-1.80455e-23
-3.94394e-22
-6.66747e-23
-5.72002e-21
-8.30324e-22
-6.79123e-20
-9.36197e-21
-7.86405e-19
-8.90829e-20
-7.03071e-18
-7.59722e-19
-3.77238e-18
-3.18157e-17
6.07857e-30
1.05529e-29
4.15793e-30
9.66463e-29
-3.99045e-30
2.69277e-29
-5.3741e-30
4.61628e-30
-2.67283e-28
-1.34849e-29
-6.99094e-26
-6.80583e-27
-3.52411e-24
-5.13258e-25
-4.90703e-23
-1.05134e-23
-2.64735e-22
-7.52797e-23
-9.83227e-22
-2.69068e-22
-1.62892e-21
-5.02315e-22
-1.82761e-21
-5.36415e-22
-1.59513e-21
-4.67297e-22
-7.04679e-22
-2.75598e-22
-9.77971e-23
-8.48371e-23
-8.33003e-24
-9.81008e-24
-1.09546e-23
-2.46668e-24
-8.06577e-23
-1.2195e-23
-1.21712e-21
-1.66892e-22
-1.59105e-20
-2.11343e-21
-2.50264e-19
-2.59628e-20
-3.13739e-18
-3.21967e-19
-1.97572e-18
-1.69593e-17
1.07802e-30
1.06456e-30
1.32275e-30
1.17659e-29
4.36943e-31
3.23055e-30
-1.80932e-30
5.95292e-31
-1.49298e-29
-2.73177e-31
-3.17418e-27
-1.284e-28
-2.28199e-25
-1.78228e-26
-3.90805e-24
-5.24711e-25
-2.81872e-23
-4.46374e-24
-9.27742e-23
-1.80688e-23
-1.19487e-22
-3.058e-23
-1.31066e-22
-3.10501e-23
-1.0702e-22
-2.57456e-23
-4.58772e-23
-1.47595e-23
-6.2599e-24
-4.7004e-24
-1.17717e-24
-6.26373e-25
-1.63115e-24
-3.1461e-25
-1.51162e-23
-2.18162e-24
-2.38272e-22
-3.35493e-23
-3.64581e-21
-5.0343e-22
-9.08358e-20
-8.52736e-21
-1.67335e-18
-1.58458e-19
-1.16226e-18
-9.90471e-18
1.16041e-31
5.39532e-32
1.58838e-31
7.72194e-31
5.67096e-32
2.09912e-31
-3.66141e-32
3.92303e-32
-3.06525e-31
-1.90574e-33
-7.30622e-29
-6.11097e-31
-9.24172e-27
-2.73599e-28
-2.03981e-25
-1.4856e-26
-1.95912e-24
-1.50606e-25
-5.85702e-24
-6.75934e-25
-6.97453e-24
-1.24168e-24
-7.47927e-24
-1.27911e-24
-5.84956e-24
-1.08688e-24
-2.56004e-24
-6.50917e-25
-3.49045e-25
-2.15961e-25
-1.53269e-25
-3.41258e-26
-2.28318e-25
-3.50294e-26
-2.72772e-24
-4.00014e-25
-4.70015e-23
-7.20382e-24
-9.09861e-22
-1.33816e-22
-3.80892e-20
-3.12576e-21
-1.00736e-18
-8.28098e-20
-7.01777e-19
-6.20114e-18
6.35134e-33
-5.00733e-46
1.0124e-32
-8.1478e-41
3.69536e-33
-6.51184e-38
-2.52485e-34
-6.16514e-36
-2.12125e-33
-3.65743e-35
-6.22025e-31
-2.84743e-33
-2.02919e-28
-1.15058e-30
-6.07429e-27
-1.85344e-28
-6.66619e-26
-2.22388e-27
-2.30041e-25
-9.80683e-27
-2.84399e-25
-2.17689e-26
-3.07735e-25
-2.28322e-26
-2.51646e-25
-1.83466e-26
-1.1487e-25
-9.62604e-27
-1.33984e-26
-2.62498e-27
-1.4804e-26
-7.78448e-28
-2.94559e-26
-3.95005e-27
-5.05601e-25
-7.88009e-26
-1.01303e-23
-1.69512e-24
-2.55778e-22
-3.82101e-23
-1.68607e-20
-1.13474e-21
-6.21454e-19
-3.9824e-20
-3.88745e-19
-3.84846e-18
-5.49639e-46
1.59065e-48
-8.14844e-41
5.8567e-45
-2.78265e-37
-5.04267e-43
-9.70628e-37
-9.09344e-41
-2.83779e-36
-1.81311e-38
-2.89354e-33
-6.41712e-36
-1.9209e-30
-2.73123e-33
-8.52764e-29
-5.09612e-31
-8.29571e-28
-6.38401e-30
-3.84501e-27
-2.72138e-29
-4.95402e-27
-6.18249e-29
-5.23485e-27
-7.4937e-29
-3.82086e-27
-7.01698e-29
-1.32845e-27
-4.80015e-29
-3.06132e-28
-2.42001e-29
-3.97176e-28
-4.09095e-29
-4.06474e-27
-6.44071e-28
-1.01492e-25
-1.64814e-26
-2.40678e-24
-4.15427e-25
-7.43129e-23
-1.06926e-23
-6.69851e-21
-3.66183e-22
-3.38998e-19
-1.59605e-20
-1.79932e-19
-2.18458e-18
2.23287e-47
6.93529e-49
-4.83131e-45
4.66513e-45
-8.48583e-43
3.87908e-43
-6.5549e-42
1.44406e-41
-1.71789e-38
1.68178e-40
-6.51691e-36
-1.49908e-38
-4.83718e-33
-4.23218e-36
-2.39573e-31
-1.3606e-33
-2.20677e-30
-2.68931e-32
-9.3693e-30
-1.55979e-31
-1.58329e-29
-4.78905e-31
-1.76192e-29
-9.66449e-31
-1.64195e-29
-1.09446e-30
-7.94438e-30
-9.68329e-31
-8.92205e-30
-9.07249e-31
-2.83204e-29
-4.19472e-30
-6.97106e-28
-1.14639e-28
-2.15509e-26
-3.4926e-27
-5.83047e-25
-9.93618e-26
-2.00766e-23
-2.75773e-24
-2.20278e-21
-1.03156e-22
-1.51231e-19
-5.39572e-21
-6.85778e-20
-1.06302e-18
2.6673e-48
2.86192e-49
1.44939e-44
1.4535e-45
1.1445e-42
1.47793e-43
1.88559e-41
7.46093e-42
-1.52387e-39
2.55903e-40
-2.22235e-38
5.70885e-39
-7.72131e-36
7.11608e-38
-7.02319e-34
2.38512e-38
-9.39666e-33
-2.25197e-35
-4.86968e-32
-5.47478e-34
-1.70447e-31
-3.25913e-33
-2.56526e-31
-9.93696e-33
-2.6468e-31
-1.40671e-32
-2.85186e-31
-1.31619e-32
-3.51603e-31
-2.42827e-32
-3.39721e-30
-5.41929e-31
-1.23354e-28
-2.03918e-29
-4.49393e-27
-7.06123e-28
-1.32811e-25
-2.17367e-26
-4.79375e-24
-6.27409e-25
-6.18755e-22
-2.4735e-23
-5.72595e-20
-1.54774e-21
-2.17365e-20
-4.23005e-19
-4.21317e-50
1.04236e-49
4.59148e-45
3.41184e-46
5.30821e-43
3.80086e-44
2.6179e-41
2.0422e-42
7.57493e-40
7.42233e-41
1.17709e-38
1.81045e-39
4.7791e-39
2.86398e-38
-2.7448e-36
2.54376e-37
-1.45728e-35
6.66928e-37
-2.10848e-34
5.24184e-38
-1.35068e-33
-1.08434e-35
-3.0602e-33
-3.83941e-35
-3.30584e-33
-4.3577e-35
-3.69334e-33
-7.60915e-35
-1.25911e-32
-1.7877e-33
-4.56284e-31
-8.05947e-32
-2.08279e-29
-3.44762e-30
-8.52846e-28
-1.29633e-28
-2.66674e-26
-4.20115e-27
-9.56629e-25
-1.22574e-25
-1.41882e-22
-4.86652e-24
-1.84245e-20
-3.64917e-22
-5.73146e-21
-1.40359e-19
-3.08639e-50
2.82262e-50
9.17664e-46
5.44486e-47
1.27227e-43
6.67897e-45
6.78872e-42
3.75036e-43
2.16819e-40
1.42048e-41
4.29404e-39
3.65453e-40
4.63175e-38
6.27642e-39
1.44395e-37
6.63382e-38
1.32873e-38
3.35956e-37
-1.52052e-36
7.8947e-37
-5.50793e-36
6.04954e-37
-7.37966e-36
2.53722e-37
-9.49412e-36
-1.32187e-38
-2.86842e-35
-4.06214e-36
-1.11977e-33
-2.24789e-34
-6.19868e-32
-1.11199e-32
-3.14219e-30
-5.30269e-31
-1.39143e-28
-2.12629e-29
-4.54734e-27
-7.22085e-28
-1.51465e-25
-2.08301e-26
-2.46049e-23
-7.78761e-25
-4.74192e-21
-7.09763e-23
-1.28548e-21
-3.72606e-20
-1.06328e-50
4.00651e-51
1.12542e-46
4.58512e-48
2.01926e-44
6.05081e-46
1.14534e-42
3.5323e-44
3.88523e-41
1.38903e-42
8.39697e-40
3.74202e-41
1.07926e-38
6.8742e-40
6.4891e-38
8.22153e-39
1.7828e-37
5.58612e-38
1.58009e-37
1.45104e-37
7.61166e-38
1.10979e-37
-4.75266e-39
4.67248e-38
-1.75165e-38
-6.66358e-40
-1.95127e-36
-4.13861e-37
-1.20407e-34
-2.44501e-35
-7.37655e-33
-1.41607e-33
-4.05331e-31
-7.38147e-32
-1.90972e-29
-3.15028e-30
-6.58303e-28
-1.12978e-28
-1.87688e-26
-3.27341e-27
-3.04113e-24
-1.08212e-25
-9.42115e-22
-1.19871e-23
-2.74734e-22
-7.41726e-21
-1.57391e-51
5.4847e-63
6.13525e-48
1.20565e-59
1.64172e-45
1.06007e-57
9.85476e-44
1.01014e-56
3.53408e-42
-1.23407e-57
8.2074e-41
-9.74347e-55
1.19413e-39
-5.824e-52
9.61261e-39
-2.23535e-49
2.90638e-38
-8.78546e-47
2.55692e-38
-3.34332e-44
1.2268e-38
-1.02109e-41
-3.53288e-40
-2.31512e-40
-1.39668e-39
-1.03846e-39
-1.60565e-37
-3.57792e-38
-1.12356e-35
-2.53831e-36
-7.73681e-34
-1.66054e-34
-4.48337e-32
-9.34112e-33
-2.2247e-30
-4.25416e-31
-8.13754e-29
-1.63507e-29
-1.92699e-27
-4.97292e-28
-2.71483e-25
-1.46869e-26
-1.36469e-22
-1.9551e-24
-6.3216e-23
-1.00949e-21
-2.05541e-63
3.41915e-63
4.3664e-60
4.8588e-60
4.13297e-58
4.53751e-58
-7.90607e-59
4.52995e-57
-5.13771e-57
3.82458e-57
-7.86617e-55
2.3338e-55
-1.26001e-51
-1.33761e-55
-3.47098e-50
-4.84211e-53
-8.78605e-47
-2.88661e-50
-8.93271e-44
-5.07084e-48
-1.36224e-41
-3.02967e-45
-6.57287e-41
-3.74988e-43
-3.41001e-40
-3.6749e-41
-1.22779e-38
-3.00894e-39
-1.00146e-36
-2.44938e-37
-7.4299e-35
-1.76491e-35
-4.45135e-33
-1.0678e-33
-2.27879e-31
-5.21093e-32
-8.80941e-30
-2.17233e-30
-1.78747e-28
-7.22605e-29
-1.96298e-26
-2.08587e-27
-1.34046e-23
-3.278e-25
-1.499e-23
-7.17361e-23
-1.16493e-63
1.5157e-63
-8.12766e-64
1.50296e-60
1.72376e-58
1.47327e-58
2.2944e-58
1.52984e-57
1.90411e-56
1.42375e-57
-8.00412e-57
9.49393e-56
-2.00771e-55
5.90062e-56
-2.2121e-53
-2.84637e-54
-2.60089e-51
-9.83729e-52
-4.86387e-48
-2.6921e-49
-7.39961e-46
-1.53629e-46
-9.77931e-44
-2.15967e-44
-9.95025e-42
-2.34093e-42
-9.61304e-40
-2.29512e-40
-8.72363e-38
-2.11432e-38
-6.86396e-36
-1.63854e-36
-4.23745e-34
-1.0747e-34
-2.2171e-32
-5.61545e-33
-9.00567e-31
-2.57604e-31
-1.64155e-29
-9.66693e-30
-1.35744e-27
-3.03907e-28
-7.54624e-25
-5.28671e-26
-3.12088e-24
1.91008e-24
-4.52164e-64
4.25464e-64
-2.64146e-63
3.1344e-61
5.67907e-59
3.22734e-59
8.41705e-59
3.47746e-58
7.72142e-57
3.52304e-58
6.15553e-57
2.41074e-56
-3.09285e-55
2.44726e-56
-9.26909e-55
-7.92212e-56
-1.52063e-52
-3.07838e-53
-1.34846e-49
-1.1388e-50
-3.90742e-47
-5.49249e-48
-5.57777e-45
-1.00454e-45
-6.53026e-43
-1.25514e-43
-7.38477e-41
-1.47263e-41
-7.25852e-39
-1.48045e-39
-6.1268e-37
-1.25817e-37
-3.9283e-35
-9.00355e-36
-2.13644e-33
-5.02304e-34
-9.31586e-32
-2.5874e-32
-1.71133e-30
-1.12165e-30
-1.19096e-28
-4.07896e-29
-1.60595e-26
-7.2549e-27
-5.07819e-25
1.03176e-24
-1.08161e-64
5.72209e-65
-7.89174e-64
3.31405e-62
1.28767e-59
3.57477e-60
2.0932e-59
3.99284e-59
2.00053e-57
4.27363e-59
2.61318e-57
2.91874e-57
-9.5877e-57
3.22962e-57
-1.25378e-56
-1.75168e-57
-5.62509e-54
-8.39652e-55
-4.21525e-51
-3.53048e-52
-1.53224e-48
-1.61681e-49
-2.60494e-46
-3.5674e-47
-3.76019e-44
-5.11788e-45
-4.80707e-42
-7.17439e-43
-5.17151e-40
-7.67346e-41
-4.80386e-38
-7.3928e-39
-3.21019e-36
-5.6763e-37
-1.86834e-34
-3.46868e-35
-9.13827e-33
-2.05665e-33
-1.91763e-31
-1.04682e-31
-1.33485e-29
-4.48047e-30
-1.63977e-27
-7.47621e-28
-5.96184e-26
1.29075e-25
-1.21893e-65
7.79454e-87
-8.57643e-65
4.05749e-83
1.45974e-60
-4.9919e-73
2.5307e-60
-1.00188e-69
2.45077e-58
-5.28864e-67
3.49054e-58
-2.88877e-64
-2.4313e-58
-2.00247e-61
-1.87792e-57
-1.16885e-58
-1.65579e-55
-2.09837e-56
-1.129e-52
-8.3116e-54
-4.70215e-50
-3.64681e-51
-9.18984e-48
-7.88433e-49
-1.64875e-45
-1.4507e-46
-2.28072e-43
-2.27463e-44
-2.77562e-41
-2.71861e-42
-2.78846e-39
-2.87397e-40
-1.97072e-37
-2.36904e-38
-1.27209e-35
-1.72938e-36
-7.18599e-34
-1.20268e-34
-1.83621e-32
-7.12606e-33
-1.31586e-30
-3.54917e-31
-4.58873e-28
-5.06465e-29
-4.67301e-27
9.35371e-27
-1.36738e-87
3.91062e-87
-9.15152e-86
1.34257e-83
-4.39016e-73