/*--------------------------------*- C++ -*----------------------------------*\
| =========                 |                                                 |
| \\      /  F ield         | OpenFOAM: The Open Source CFD Toolbox           |
|  \\    /   O peration     | Version:  2012                                  |
|   \\  /    A nd           | Website:  www.openfoam.com                      |
|    \\/     M anipulation  |                                                 |
\*---------------------------------------------------------------------------*/
FoamFile
{
    version     2.0;
    format      ascii;
    class       volScalarField;
    location    "0.45";
    object      alpha.water;
}
// * * * * * * * * * * * * * * * * * * * * * * * * * * * * * * * * * * * * * //

dimensions      [0 0 0 0 0 0 0];


internalField   nonuniform List<scalar> 
2268
(
1
1
1
1
1
1
1
1
1
1
1
1
1
1
1
1
1
1
1
0.916525
0.858843
0.911709
0.998364
1
1
1
1
1
1
1
1
1
1
1
1
1
1
1
1
1
1
1
0.988199
0.858843
0.94705
0.998387
1
1
1
1
1
1
1
1
1
1
1
1
1
1
1
1
1
1
1
1
0.904147
0.969255
0.998412
1
1
1
1
1
1
1
1
1
1
1
1
1
1
1
1
1
1
1
1
0.997635
0.998889
0.998851
1
1
1
1
1
1
1
1
1
1
1
1
1
1
1
1
1
1
1
1
0.999999
0.999996
0.999213
1
1
1
1
1
1
1
1
1
1
1
1
1
1
1
1
1
1
1
1
1
0.999998
0.9992
1
1
1
0.999998
0.999997
0.999998
0.999999
1
1
1
1
1
1
1
1
1
1
1
1
1
1
1
0.999201
1
1
0.999993
0.99997
0.999967
0.99998
0.99999
0.999996
0.999999
1
1
1
1
1
1
1
1
1
1
1
1
1
0.999206
9.91852e-06
9.91852e-06
8.0721e-06
3.19177e-06
6.4613e-08
4.28495e-09
2.52295e-10
1.07508e-11
3.45272e-13
1.24662e-14
8.4396e-16
1.2146e-15
3.93084e-14
5.99345e-13
4.48747e-12
9.13504e-11
1.18752e-09
5.13338e-09
3.05857e-08
9.91852e-06
3.63785e-05
4.31393e-05
1.53931e-05
5.79932e-07
6.37207e-08
4.11418e-09
1.76913e-10
3.30843e-12
5.29411e-16
8.39187e-16
4.99093e-15
2.20228e-13
3.80504e-12
4.50878e-11
3.08871e-09
2.39539e-08
3.05857e-08
7.12736e-08
3.63785e-05
0.000946406
0.000802954
0.000104897
3.4211e-06
3.0397e-07
1.77833e-08
4.36565e-10
6.96785e-12
4.7013e-14
5.69857e-15
3.87755e-14
1.8879e-12
4.92716e-11
8.45282e-10
2.39335e-08
2.74346e-07
5.16402e-07
8.55903e-07
0.000287395
0.0091998
0.00744045
0.00148092
1.34707e-05
1.04157e-06
5.17672e-08
1.50747e-09
2.41851e-12
3.43631e-13
4.97925e-14
2.80072e-13
1.15422e-11
3.51973e-10
6.2787e-09
1.58012e-07
2.32885e-06
5.19438e-06
8.82821e-06
0.00178225
0.0136636
0.00841065
0.00181418
1.11161e-05
7.83071e-07
3.88043e-08
1.2257e-09
1.33327e-11
1.82548e-12
3.43639e-13
1.82547e-12
3.33032e-11
1.79761e-09
3.88697e-08
6.36825e-07
1.45093e-05
3.3511e-05
6.12643e-05
0.005527
0.00586246
7.31095e-05
0.000497016
0.000103328
1.19665e-06
1.67263e-08
5.63254e-10
1.50092e-11
7.21173e-12
1.82548e-12
7.25759e-12
3.1831e-10
9.52319e-09
1.60437e-07
2.36653e-06
6.39057e-05
0.000145948
0.000315497
0.143954
7.31095e-05
3.39167e-05
3.63429e-05
4.13059e-05
2.02339e-06
5.42458e-09
1.91033e-10
9.56964e-12
7.7875e-12
7.21173e-12
2.09173e-11
1.01621e-09
3.12893e-08
6.52193e-07
8.26891e-06
0.000233187
0.000510108
0.00127076
0.547034
0.000106902
3.34522e-06
2.96886e-06
7.13616e-07
4.68515e-07
1.41294e-09
5.68453e-11
7.7875e-12
7.7875e-12
7.7875e-12
2.91055e-11
1.94602e-09
7.31766e-08
1.58733e-06
2.17295e-05
0.00121018
0.00750995
0.00416149
1
1
0.999832
0.999584
0.999594
0.999723
0.999836
0.999914
0.999958
0.999981
0.999992
0.999997
0.999999
1
0.999999
1
1
1
1
1
1
1
0.999306
1
0.985675
0.869201
0.776602
0.802789
0.843163
0.862748
0.883536
0.910249
0.937268
0.960656
0.979714
0.993231
0.999128
0.999929
1
1
1
1
1
1
1
0.999923
0.773705
0.42058
0.137577
0.0790664
0.121791
0.148904
0.14989
0.16413
0.195922
0.2396
0.293147
0.360917
0.452336
0.575727
0.717042
0.882496
0.999999
1
1
1
1
1
1
0.0157525
6.4465e-18
9.738e-17
1.21768e-15
2.60019e-15
2.94864e-15
7.2479e-15
8.95916e-14
3.14893e-12
9.78378e-11
1.83268e-09
3.62689e-09
1.01928e-08
2.43252e-07
0.0262785
0.0792356
0.183077
0.406271
0.781967
0.999998
1
1
0.999998
1.43541e-18
1.67155e-18
6.40518e-18
9.73786e-17
2.6759e-14
2.22528e-13
4.92748e-13
6.20195e-13
3.35479e-11
1.40734e-10
7.36175e-10
2.96888e-09
3.62689e-09
1.01928e-08
2.43252e-07
4.2387e-06
3.6271e-05
0.00893743
0.0609895
0.180785
0.4273
0.860631
0.999992
8.01262e-19
3.9095e-18
1.88851e-15
4.83637e-14
6.50783e-13
3.79575e-12
8.21627e-12
1.45713e-12
3.69339e-10
5.22788e-08
1.24714e-07
3.00602e-08
1.58809e-08
3.73424e-08
9.01665e-05
0.00022056
0.000208797
0.000202329
0.000195006
0.000202329
0.00509387
0.086324
0.264424
2.7639e-19
4.03578e-18
2.3961e-15
1.25495e-13
1.95131e-12
9.76753e-12
1.94267e-11
1.84867e-11
3.78122e-11
1.12597e-07
2.48081e-07
2.11675e-07
5.99872e-08
6.33346e-08
0.000126689
0.000265625
0.000264015
0.000262118
0.00019136
0.00022056
0.00022151
0.000230753
0.00016004
6.55813e-20
4.04784e-19
1.30174e-15
1.32411e-13
2.30713e-12
1.1546e-11
2.28901e-11
2.2817e-11
2.73526e-11
8.58569e-08
2.48159e-07
2.45467e-07
6.57457e-08
6.67917e-08
2.33775e-05
9.22787e-05
3.24879e-05
0.00015502
7.98927e-05
8.18599e-05
0.000330673
0.000352229
0.000143478
1.62684e-20
7.56512e-20
3.72885e-16
8.63652e-14
1.93374e-12
1.02929e-11
2.2136e-11
2.53402e-11
2.5861e-11
1.90054e-08
1.75214e-07
5.6738e-08
1.0355e-07
1.00001e-06
1.72003e-10
9.96847e-11
1.70135e-10
4.40453e-10
7.92071e-05
9.74825e-05
9.93282e-05
0.000281841
0.000122525
9.63709e-21
1.65611e-20
7.24109e-17
4.00456e-14
1.07507e-12
5.73393e-12
1.2858e-11
2.16437e-11
5.87335e-11
1.56924e-10
4.02989e-11
4.06363e-11
1.23478e-07
8.11151e-07
1.32096e-08
4.09114e-11
2.70379e-09
2.94533e-06
0.000220686
0.000236532
9.41418e-05
8.37126e-05
8.32242e-05
8.29196e-21
8.74375e-21
1.149e-17
1.39723e-14
4.08979e-13
2.11391e-12
4.81363e-12
1.14054e-11
3.79993e-11
3.82202e-11
3.97871e-11
4.06878e-11
5.1645e-09
1.30477e-10
1.85201e-09
3.58893e-11
2.32593e-11
1.02215e-05
0.000110439
0.000263012
0.000263012
0.000144837
8.29644e-05
2.96143e-21
2.86794e-21
1.81269e-18
3.57559e-15
1.12686e-13
5.87468e-13
1.42162e-12
3.75569e-12
2.36261e-11
6.99766e-11
7.49565e-11
6.07317e-11
4.27517e-11
1.28012e-10
2.10758e-09
2.40808e-11
4.15439e-13
1.91277e-11
7.95806e-10
9.64524e-05
0.00024873
0.000299126
0.000342014
-2.16493e-22
1.73116e-38
4.77452e-19
7.30198e-16
2.40207e-14
1.28978e-13
3.61743e-13
1.18076e-12
6.78318e-12
4.76783e-11
8.24414e-11
8.36185e-11
4.64956e-11
5.19468e-10
6.29636e-10
2.36279e-11
9.38612e-14
6.94662e-14
7.17605e-14
-1.95423e-13
2.2792e-13
3.90175e-06
0.000202263
-1.06361e-21
0
1.78904e-19
1.24364e-16
4.11224e-15
2.30389e-14
8.17396e-14
3.8715e-13
1.5121e-12
9.90753e-12
4.78565e-11
7.84358e-11
3.49885e-11
1.23789e-11
7.0422e-12
7.5958e-12
1.16123e-13
6.83931e-14
7.01193e-14
7.17605e-14
8.15745e-14
1.75157e-13
2.88766e-13
-1.3494e-21
-1.49216e-38
6.78448e-20
1.78648e-17
5.60791e-16
3.32951e-15
1.70282e-14
1.18409e-13
4.39747e-13
1.41049e-12
8.32766e-12
3.37716e-11
3.24467e-11
1.98681e-11
7.05302e-12
1.02121e-12
9.81785e-14
6.811e-14
9.05322e-14
1.47182e-13
1.84396e-13
1.96851e-13
2.49233e-13
-1.23616e-21
-7.15076e-23
2.07817e-20
2.19045e-18
6.01407e-17
3.89482e-16
3.40039e-15
3.18693e-14
1.30013e-13
2.92579e-13
9.32973e-13
3.19303e-12
4.89298e-12
5.40361e-12
2.85216e-12
3.68795e-13
1.10808e-14
3.96023e-15
5.22458e-14
4.81635e-13
1.581e-12
2.69955e-12
3.36148e-12
-9.07683e-22
-4.15981e-22
4.53424e-21
2.33456e-19
4.97504e-18
3.89889e-17
6.67985e-16
7.1452e-15
3.1971e-14
7.6077e-14
1.75997e-13
2.86539e-13
3.42556e-13
2.40979e-13
9.7775e-14
1.58486e-14
8.91105e-16
4.54898e-16
3.79144e-15
3.43471e-14
2.36364e-13
1.25404e-12
4.52784e-12
-5.44631e-22
-2.99056e-22
6.24987e-22
2.19805e-20
3.07838e-19
3.78104e-18
1.23228e-16
1.37041e-15
6.58631e-15
1.78592e-14
4.09219e-14
5.22652e-14
4.64267e-14
2.96933e-14
9.78322e-15
1.25883e-15
9.58585e-17
1.17447e-16
1.29158e-15
1.30959e-14
9.6212e-14
5.44651e-13
2.16833e-12
-2.64651e-22
-1.48087e-22
4.67302e-23
1.72854e-21
1.36746e-20
4.00476e-19
1.92853e-17
2.27367e-16
1.16831e-15
3.39546e-15
8.20755e-15
1.07612e-14
9.97689e-15
6.07955e-15
1.81397e-15
1.92086e-16
1.47093e-17
3.42726e-17
3.77541e-16
4.04377e-15
3.33989e-14
2.26936e-13
1.02753e-12
-1.01103e-22
-5.6109e-23
0
9.0819e-23
4.04524e-22
4.1762e-20
2.33129e-18
3.135e-17
1.75232e-16
5.32227e-16
1.31002e-15
1.72795e-15
1.60492e-15
9.93095e-16
3.01264e-16
3.1625e-17
2.84454e-18
7.96101e-18
9.77907e-17
1.13866e-15
1.07783e-14
9.21639e-14
5.09397e-13
-2.8913e-23
-1.59766e-23
-3.40398e-24
1.83802e-24
5.25728e-24
3.22591e-21
2.03903e-19
3.35839e-18
2.11189e-17
6.83019e-17
1.48383e-16
1.81161e-16
1.66238e-16
1.03373e-16
3.25061e-17
3.63973e-18
4.77099e-19
1.7183e-18
2.32065e-17
2.9366e-16
3.35525e-15
4.01771e-14
2.82939e-13
-5.74867e-24
-3.18066e-24
-1.10466e-24
-2.14927e-25
3.71961e-27
1.37848e-22
1.20018e-20
2.58233e-19
1.88961e-18
6.8563e-18
1.27066e-17
1.35456e-17
1.18509e-17
7.04486e-18
2.20268e-18
2.62683e-19
7.04461e-20
3.45428e-19
5.13216e-18
7.18921e-17
1.07673e-15
2.04548e-14
1.80615e-13
-7.11185e-25
-3.98475e-25
-1.3723e-25
-2.86718e-26
3.61161e-30
2.21331e-24
4.14642e-22
1.30652e-20
1.13947e-19
4.68734e-19
7.97942e-19
8.18191e-19
6.87419e-19
4.01329e-19
1.31074e-19
1.82422e-20
9.59657e-21
6.75968e-20
1.11956e-18
1.79494e-17
3.75744e-16
1.18106e-14
1.26184e-13
-4.4747e-26
-2.69422e-26
-9.23878e-27
-1.95512e-27
1.29451e-32
4.76085e-28
6.14054e-24
3.7679e-22
3.92391e-21
1.79069e-20
3.33853e-20
3.49578e-20
3.03094e-20
1.86053e-20
6.36129e-21
1.06078e-21
1.11343e-21
1.34054e-20
2.55789e-19
4.79001e-18
1.40024e-16
6.97391e-15
8.78104e-14
4.75696e-44
0
2.68715e-33
3.16867e-31
4.81425e-31
5.91819e-31
2.00207e-26
4.81812e-24
5.95251e-23
2.67426e-22
6.0397e-22
6.46913e-22
5.32776e-22
2.87963e-22
8.16245e-23
2.53309e-23
1.3032e-22
2.83583e-21
6.36751e-20
1.3627e-18
5.01333e-17
3.66045e-15
5.47899e-14
-2.00128e-42
-2.1718e-40
7.09986e-40
9.33417e-37
7.89995e-37
1.02702e-33
4.72519e-29
1.37258e-26
1.77403e-25
7.72703e-25
1.79359e-24
2.23279e-24
2.15889e-24
1.53477e-24
8.15594e-25
1.37644e-24
2.28294e-23
6.36577e-22
1.68702e-20
3.95091e-19
1.59484e-17
1.59541e-15
2.87262e-14
-1.00219e-42
-1.78249e-40
-1.89707e-38
-7.96258e-37
-9.3786e-36
0
4.55215e-32
3.75171e-29
7.75455e-28
4.61776e-27
1.45865e-26
3.0409e-26
3.57152e-26
3.3018e-26
3.22863e-26
1.45281e-25
4.32298e-24
1.46121e-22
4.4346e-21
1.10218e-19
4.47582e-18
5.98444e-16
1.27714e-14
-4.22688e-43
-5.71727e-41
-7.4739e-39
-4.24823e-37
-1.47328e-35
-3.30958e-34
-4.17735e-33
-1.42209e-33
6.26182e-31
1.6747e-29
1.03341e-28
3.26266e-28
4.7966e-28
4.68193e-28
8.41448e-28
1.95393e-26
8.24599e-25
3.22114e-23
1.08199e-21
2.82888e-20
1.07725e-18
1.91384e-16
4.9019e-15
-1.34188e-43
-1.3808e-41
-1.98588e-39
-1.19882e-37
-4.40293e-36
-1.08278e-34
-1.73658e-33
-1.56879e-32
-4.19607e-32
-3.37609e-33
3.35674e-31
1.29845e-30
1.54e-30
2.63165e-30
6.22261e-29
3.12932e-27
1.50668e-25
6.46131e-24
2.35684e-22
6.55658e-21
2.20783e-19
5.03689e-17
1.60228e-15
-2.80353e-44
-2.26709e-42
-3.60241e-40
-2.26545e-38
-8.66293e-37
-2.24892e-35
-3.91976e-34
-4.21839e-33
-2.18161e-32
-5.25569e-32
-4.14816e-32
-1.80178e-32
6.36187e-36
1.38566e-31
8.54924e-30
4.59299e-28
2.4894e-26
1.1474e-24
4.5167e-23
1.36082e-21
4.00949e-20
1.07339e-17
4.42331e-16
-2.89054e-45
-1.96572e-43
-3.36878e-41
-2.19073e-39
-8.68589e-38
-2.36306e-36
-4.40768e-35
-5.3701e-34
-3.72863e-33
-9.93585e-33
-7.83302e-33
-3.41829e-33
2.89707e-36
1.52742e-32
9.62026e-31
6.18088e-29
3.66212e-27
1.79625e-25
7.59548e-24
2.50463e-22
6.93678e-21
1.90095e-18
1.02698e-16
-2.84097e-57
-5.335e-55
-6.09435e-53
-6.41818e-52
0
0
9.73341e-48
1.15835e-45
3.47041e-63
3.10649e-40
6.98705e-37
1.71721e-35
7.3154e-35
1.33463e-33
1.03086e-31
7.49892e-30
4.7706e-28
2.48358e-26
1.1235e-24
4.05423e-23
1.15328e-21
3.00152e-19
2.01591e-17
-1.28825e-57
-2.22841e-55
-2.69735e-53
-2.94509e-52
-2.4991e-52
-1.54191e-50
-9.1043e-69
6.15657e-49
1.19488e-46
2.73475e-45
8.9258e-41
1.19882e-38
1.2652e-36
1.12733e-34
1.00307e-32
8.01949e-31
5.45072e-29
3.01065e-27
1.45931e-25
5.7622e-24
1.76915e-22
4.43875e-20
3.37512e-18
-4.25943e-58
-7.18999e-56
-9.07562e-54
-1.0166e-52
-9.49997e-53
-6.40744e-51
-4.03991e-51
3.98214e-50
1.27281e-47
4.99646e-46
4.49673e-42
6.99145e-40
8.02539e-38
8.41661e-36
8.52986e-34
7.29428e-32
5.34894e-30
3.11985e-28
1.63645e-26
7.14035e-25
2.41951e-23
5.92565e-21
4.77868e-19
-9.20882e-59
-1.57675e-56
-2.06378e-54
-2.36222e-53
-2.40189e-53
-1.66276e-51
-1.71114e-51
6.06406e-52
1.60493e-49
5.49075e-47
1.42039e-43
3.08257e-41
4.05923e-39
5.22537e-37
5.75889e-35
5.40225e-33
4.30246e-31
2.63565e-29
1.5255e-27
7.49564e-26
2.84675e-24
6.56064e-22
5.52237e-20
-9.87446e-60
-1.76706e-57
-2.3764e-55
-2.77382e-54
-2.98103e-54
-2.05918e-52
-2.30793e-52
1.11576e-68
8.73987e-52
1.54192e-48
3.68374e-45
1.02682e-42
1.54458e-40
2.46866e-38
2.85477e-36
3.06182e-34
2.58729e-32
1.70999e-30
1.12089e-28
6.3032e-27
2.72531e-25
5.52957e-23
4.90079e-21
-1.10886e-81
-2.30948e-78
0
4.67542e-65
1.41839e-62
-2.69203e-75
2.92634e-57
3.69606e-54
1.45542e-52
6.04982e-50
8.41064e-47
2.03818e-44
4.22617e-42
7.59703e-40
9.87109e-38
1.15644e-35
1.02596e-33
8.04332e-32
6.10311e-30
3.90782e-28
1.94634e-26
3.15411e-24
3.07489e-22
-4.73292e-82
-8.19866e-79
-3.13394e-85
4.77764e-66
1.41305e-63
2.67152e-66
9.35731e-62
8.15302e-57
1.32256e-54
7.12626e-54
5.56037e-49
2.68534e-46
6.06302e-44
1.20721e-41
1.98184e-39
2.29996e-37
2.39782e-35
2.32989e-33
2.15558e-31
1.55786e-29
9.00678e-28
1.03456e-25
1.21284e-23
-1.52906e-82
-1.98494e-79
-8.09176e-73
-7.47988e-70
-2.43013e-67
3.20909e-82
0
2.77572e-60
7.77932e-58
2.24322e-57
6.41467e-52
4.02757e-49
1.27158e-46
3.08803e-44
8.5246e-42
1.539e-39
2.3273e-37
3.02542e-35
3.21081e-33
2.86576e-31
2.00447e-29
1.57441e-27
2.42453e-25
-3.33266e-83
-2.45085e-80
-2.07465e-73
-4.27073e-70
-3.80104e-67
-1.82406e-64
-4.77448e-62
-5.48906e-60
-6.94719e-61
0
4.67034e-59
5.68083e-54
3.36165e-51
1.53489e-48
7.78639e-46
2.468e-43
6.98139e-41
1.65399e-38
3.25244e-36
5.21512e-34
6.47639e-32
1.56149e-29
1.71639e-27
-3.69325e-84
-2.04154e-83
-8.38873e-79
-3.62145e-75
-5.55943e-72
-4.50681e-69
-2.15149e-66
-5.2892e-64
-5.15952e-65
-2.87435e-66
0
1.04094e-66
4.38878e-61
1.62942e-57
1.65436e-54
1.68225e-51
1.36067e-48
8.97038e-46
4.61014e-43
1.3838e-40
1.8821e-37
3.34714e-32
1.97928e-30
-4.64893e-103
-9.39709e-105
-7.26623e-105
-2.14249e-99
-4.09512e-95
-3.79519e-91
-2.15537e-87
-7.91184e-84
-1.7899e-80
-1.96958e-77
-8.01841e-79
-9.59585e-84
0
4.22384e-75
1.74176e-68
1.23082e-65
1.63893e-62
8.24824e-60
-2.57075e-74
1.86081e-54
3.6841e-52
-1.37832e-72
-2.04207e-48
0.999525
0.999886
0.999903
0.999968
0.999659
0.999697
0.999897
0.999982
0.999994
0.999984
0.999926
0.999987
0.999992
0.99999
0.99999
0.999989
0.999991
0.99999
0.999989
0.999988
0.453619
0.646238
0.950453
0.999982
0.00380617
0.023907
0.0818134
0.167523
9.33351e-05
9.64292e-05
9.07359e-05
0.000127068
8.31481e-05
8.34742e-05
8.32377e-05
8.49835e-05
8.27955e-05
8.28036e-05
8.2815e-05
8.2909e-05
8.28036e-05
8.27947e-05
8.28036e-05
8.2815e-05
0.000363403
0.000415049
0.000417414
0.000421157
0.000301651
0.000217855
0.000210436
0.000239053
3.53628e-13
5.57538e-13
1.72315e-12
3.05936e-07
2.88766e-13
3.53628e-13
5.57538e-13
1.72315e-12
3.75514e-12
4.7963e-12
9.63473e-12
1.69219e-11
8.7937e-12
1.34798e-11
1.98725e-11
2.94968e-11
4.84122e-12
9.38674e-12
1.79629e-11
3.06628e-11
2.32706e-12
4.71853e-12
1.10308e-11
2.53131e-11
1.24172e-12
2.23875e-12
3.70597e-12
7.49994e-12
7.62683e-13
1.49678e-12
2.24756e-12
2.437e-12
5.09935e-13
1.13407e-12
1.91437e-12
2.11359e-12
3.61644e-13
9.09318e-13
1.79051e-12
1.92134e-12
2.49121e-13
6.35739e-13
1.35338e-12
1.30834e-12
1.56655e-13
3.81842e-13
8.42737e-13
7.44917e-13
8.49377e-14
1.9235e-13
4.27165e-13
3.73266e-13
3.83867e-14
8.5186e-14
1.97588e-13
1.63589e-13
1.47964e-14
3.12327e-14
7.08529e-14
5.77075e-14
4.8802e-15
1.00982e-14
2.2796e-14
1.73029e-14
1.3519e-15
2.76212e-15
7.00586e-15
4.92069e-15
3.12944e-16
6.21964e-16
1.87665e-15
2.11945e-15
6.0535e-17
1.19916e-16
4.33255e-16
1.90036e-15
9.87506e-18
2.00633e-17
9.11023e-17
4.43447e-16
1.36125e-18
2.95391e-18
1.80462e-17
9.7869e-17
1.54765e-19
3.86205e-19
3.27512e-18
1.93417e-17
1.39179e-20
4.42504e-20
5.20008e-19
3.25107e-18
9.38971e-22
4.24698e-21
6.53535e-20
4.30151e-19
4.44174e-23
3.09908e-22
5.84447e-21
4.12383e-20
1.28145e-24
1.41769e-23
3.25851e-22
2.53621e-21
1.33869e-26
2.31393e-25
7.9302e-24
7.21048e-23
1.59838e-30
2.2202e-29
1.65752e-27
1.51767e-26
-4.48629e-49
-5.77559e-50
-2.08733e-43
-5.75939e-44
0.839385
0.00116667
2.4942e-06
4.93845e-07
1.26414e-07
1.32892e-08
1.03443e-09
1.0727e-09
2.65195e-11
2.8274e-09
2.53361e-09
1.06941e-09
2.99363e-09
9.1582e-08
2.49013e-06
3.92212e-05
0.00326428
0.0189756
0.0111767
0.999987
0.38132
4.18912e-05
8.5124e-07
1.0711e-07
6.49595e-08
5.4641e-07
7.48562e-07
5.60038e-08
2.94269e-09
1.08916e-08
1.85363e-09
6.89828e-09
2.35442e-07
4.39063e-06
3.51824e-05
0.00291457
0.0193127
0.0393311
0.999988
0.849982
0.0229299
7.83334e-06
3.98067e-07
1.1114e-07
3.51262e-07
6.7858e-07
3.87335e-08
1.92291e-07
6.51114e-06
1.18578e-07
2.83527e-08
8.17716e-08
9.17229e-07
2.32101e-05
0.000503105
0.0033569
0.484632
0.999988
0.999988
0.372907
0.000447382
5.38843e-08
2.98102e-08
3.02294e-08
4.16202e-08
2.89936e-08
4.64595e-07
5.14648e-06
3.2815e-08
3.14109e-08
3.203e-08
4.59203e-08
4.79094e-07
8.6852e-06
6.66265e-05
0.821182
0.999988
0.999988
0.934208
0.147879
0.00799843
2.98922e-08
2.98917e-08
2.96485e-08
2.89711e-08
3.12584e-08
3.69433e-08
3.54621e-08
3.2815e-08
3.54621e-08
0.000185159
8.6852e-06
3.4993e-05
0.000632406
0.873722
0.999987
0.999988
0.999933
0.85765
0.719375
0.55794
0.243174
0.000490545
0.0103627
0.112012
0.168262
0.121706
0.0182102
0.0876611
0.000356645
0.0132441
0.0505764
0.293844
0.915934
0.446338
0.95514
0.998437
0.994195
0.988455
0.978804
0.943528
0.777444
0.661326
0.733676
0.846769
0.847132
0.765014
0.771859
0.610257
0.709254
0.826427
0.939124
0.939197
0.00668872
0.131492
0.3982
0.704104
0.922303
0.965221
0.957072
0.956127
0.950104
0.939322
0.931179
0.928385
0.927277
0.926302
0.934317
0.938479
0.939124
0.939197
0.939197
9.22842e-05
0.000101429
0.000304371
0.0429073
0.154374
0.316188
0.476242
0.590268
0.679192
0.729122
0.743711
0.744452
0.747458
0.785055
0.921204
0.938424
0.939027
0.939124
0.939197
8.33488e-05
0.000100183
0.000102032
0.000275102
0.000195457
7.87984e-05
0.00275718
0.0153726
0.0392003
0.0630666
0.0736617
0.0775106
0.0848128
0.10573
0.173292
0.44829
0.901301
0.939027
0.904085
8.2909e-05
0.000207928
0.000561347
0.000564322
0.000235605
1.0592e-06
3.57622e-06
6.17139e-06
1.36537e-05
2.68143e-05
3.5122e-05
3.21303e-05
8.11605e-05
0.000232387
0.00136682
0.0139771
0.572197
0.931982
0.884089
0.000429046
0.000478167
0.000479543
0.000275078
2.99907e-05
2.8293e-08
7.42102e-08
8.62538e-08
1.25229e-07
3.10456e-07
9.36549e-07
3.09495e-06
5.00558e-05
8.10835e-05
0.000232502
0.00303416
0.578619
0.919971
0.743213
0.000194726
9.67916e-05
1.30493e-05
1.30965e-09
5.98146e-09
1.80885e-09
2.79603e-09
5.38007e-09
1.13622e-08
7.34438e-08
4.21359e-07
9.99561e-07
3.09495e-06
4.1757e-05
0.000542196
0.10004
0.723493
0.917187
0.741936
5.45682e-11
7.25201e-10
8.06427e-10
8.82961e-10
8.7035e-10
1.11586e-09
1.46254e-09
4.37329e-09
8.56272e-09
1.17622e-08
5.49336e-08
8.92253e-07
1.6103e-05
0.000224794
0.00857587
0.465951
0.898037
0.917357
0.742119
8.9631e-12
7.6221e-11
3.51217e-10
6.77562e-10
7.63478e-10
1.09275e-09
1.11561e-09
1.32913e-09
1.60656e-07
5.52527e-07
4.93434e-07
1.36054e-06
1.46957e-05
0.000190477
0.00207797
0.290005
0.827244
0.917357
0.807415
3.38443e-11
8.60961e-11
3.43416e-10
6.88515e-10
9.5841e-10
1.0979e-09
1.10086e-09
1.14726e-09
2.25066e-09
1.30287e-06
4.58258e-06
3.90995e-06
8.37656e-06
0.00117247
0.00657537
0.0079646
0.598266
0.880945
0.87952
6.99502e-11
1.6834e-10
4.1625e-10
8.67737e-10
1.34258e-09
1.53547e-09
1.40444e-09
1.38207e-09
1.65231e-09
1.8884e-07
1.36674e-05
2.11071e-05
3.06886e-05
0.000519342
0.000301392
0.00287613
0.543238
0.708408
0.871844
6.35644e-11
1.38457e-10
4.72289e-10
1.35976e-09
2.10478e-09
2.21566e-09
2.02997e-09
1.47339e-09
1.50715e-09
2.64275e-09
6.35102e-06
3.17558e-05
3.16715e-05
2.50158e-05
2.3534e-05
0.098425
0.586676
0.441158
0.387061
6.98202e-11
1.59789e-10
5.05875e-10
1.36808e-09
2.08696e-09
2.3775e-09
3.28783e-09
1.60015e-09
3.31908e-09
3.93283e-09
5.41322e-07
3.03161e-05
3.00514e-05
2.19269e-05
2.35542e-05
0.166108
0.586678
0.112206
0.0689088
8.21374e-11
2.77694e-10
5.98174e-10
8.71855e-10
7.99579e-10
8.2033e-10
5.8946e-08
4.2569e-07
4.5234e-07
8.75859e-08
1.04414e-08
8.3847e-06
3.05183e-05
2.03361e-05
2.19269e-05
0.170211
0.508882
0.0665518
0.0664392
9.63957e-11
4.35882e-10
6.88025e-10
7.23694e-10
7.25324e-10
7.53969e-10
1.13863e-07
8.3711e-07
8.37061e-07
5.83938e-07
1.04414e-08
4.84421e-08
3.05094e-05
2.04093e-05
2.0409e-05
0.114024
0.501619
0.0664162
0.0662257
1.11472e-10
8.40048e-10
1.43703e-09
1.09939e-09
7.36087e-10
7.43049e-10
1.65579e-08
4.43149e-07
8.38097e-07
8.38771e-07
1.82236e-07
8.47238e-08
2.38165e-05
2.0409e-05
8.67983e-05
0.0853775
0.356963
0.0688192
0.0662133
1.56671e-10
1.33912e-09
2.15541e-09
2.01743e-09
1.21146e-09
2.67269e-09
1.55659e-08
1.75767e-08
5.30467e-07
8.386e-07
7.22849e-07
6.04638e-08
3.92009e-06
5.34526e-05
0.00136818
0.000985297
0.107903
0.272469
0.0662147
1.28201e-10
1.26732e-09
2.06682e-09
1.41428e-09
1.2348e-09
6.32349e-08
1.82563e-07
1.49902e-07
1.39213e-07
3.65017e-07
5.56789e-07
6.08866e-08
5.73873e-08
3.89533e-05
0.000340851
0.000355129
0.0538454
0.293059
0.0933018
7.96365e-11
7.89419e-10
1.17277e-09
4.94268e-10
2.34078e-09
1.18756e-07
1.93263e-07
1.93263e-07
1.38447e-07
1.13204e-07
1.54559e-07
6.06987e-08
7.37266e-08
2.78882e-06
1.55454e-05
0.000266255
0.0998534
0.291968
0.279253
5.70504e-11
4.41719e-10
5.52606e-10
4.94268e-10
4.94268e-10
2.60616e-09
7.49288e-08
1.43968e-07
1.54865e-07
8.5117e-08
4.99648e-08
5.77295e-08
1.404e-07
1.45518e-06
1.82349e-05
0.000196521
0.0174907
0.216692
0.27885
3.61703e-11
2.68362e-10
3.34773e-10
6.00544e-10
1.41156e-09
1.41408e-09
3.38976e-09
6.23646e-09
3.574e-08
3.64865e-08
3.74251e-08
4.64613e-08
1.4013e-07
1.39729e-06
1.16033e-05
6.64611e-05
0.00286028
0.168751
0.277716
2.00348e-11
1.97453e-10
2.60012e-10
6.71063e-10
1.86466e-09
4.34002e-09
1.69356e-07
1.1169e-06
3.60499e-08
3.65044e-08
3.73261e-08
4.30006e-08
8.92893e-08
1.75911e-06
3.86862e-06
3.81992e-06
0.00379389
0.191583
0.277142
6.59136e-12
1.34155e-10
2.59607e-10
5.92402e-10
6.03387e-10
3.53486e-08
3.62e-07
3.1002e-06
1.14221e-06
3.73261e-08
3.81851e-08
7.57808e-08
8.69995e-08
1.46513e-07
6.17604e-07
2.05634e-06
8.74105e-05
0.164809
0.276247
2.13284e-12
7.11156e-11
1.62179e-10
1.33352e-10
1.9123e-09
4.13486e-08
2.64097e-08
2.77011e-06
9.53949e-06
1.34316e-07
4.13791e-08
6.78602e-08
3.216e-05
0.000295436
8.44451e-05
3.82015e-06
0.00564806
0.145854
0.27363
7.0362e-13
1.88509e-11
4.42224e-11
3.50719e-11
5.83951e-10
2.42378e-08
4.77261e-09
2.48192e-06
9.53949e-06
2.08482e-06
5.10809e-08
6.40871e-08
2.2139e-05
0.000663586
0.000105449
4.99916e-05
0.108319
0.26777
0.270896
2.90504e-13
3.10881e-12
8.98766e-12
2.6721e-11
4.33353e-11
1.47483e-10
8.15583e-11
4.20384e-07
5.46543e-06
4.33214e-06
5.6967e-08
0.000148831
2.8468e-05
0.000227144
0.000166404
0.0295167
0.122106
0.266089
0.26777
9.46443e-14
5.57554e-13
3.93555e-12
2.93032e-11
3.94327e-11
2.20036e-11
2.48905e-11
8.15583e-11
2.6607e-08
2.63635e-07
9.07745e-09
0.00366555
0.00641578
0.00278458
0.0125331
0.0132739
0.000793103
0.175779
0.266089
1.52064e-14
1.09886e-13
2.26781e-12
2.25408e-11
2.04032e-11
4.43891e-13
5.74813e-08
8.12379e-08
4.76525e-08
1.58094e-08
4.83822e-09
0.000985995
0.0131502
0.0135111
0.0134706
0.00431414
0.000474985
0.0487934
0.259374
2.35666e-15
1.99971e-14
6.60849e-13
6.02262e-12
2.80286e-12
3.54678e-13
1.93279e-07
2.96186e-07
2.96186e-07
5.48809e-08
1.10759e-09
4.83822e-09
0.00683209
0.0134018
0.0134946
0.00399225
0.000242463
0.000394491
0.23946
3.93726e-16
3.03116e-15
1.23801e-13
1.44614e-13
2.6042e-13
2.62943e-13
9.85414e-10
2.17469e-07
1.76745e-07
1.11379e-08
1.26045e-25
1.10759e-09
0.00869156
0.0130012
0.0111788
0.00173775
0.000127186
0.000120797
0.235279
5.65849e-17
3.25703e-16
2.98684e-15
4.13778e-16
1.49973e-12
4.46643e-11
4.63933e-14
7.6844e-30
-1.83829e-12
-2.99307e-12
-9.88879e-13
0.00542961
0.0216979
0.0120167
0.000590681
0.000418093
8.73383e-05
6.885e-05
0.232942
5.51138e-18
2.75244e-17
1.6062e-16
8.19353e-17
1.1517e-13
1.87479e-12
4.8546e-13
3.47293e-15
-4.15305e-12
-4.62548e-12
-1.54432e-12
0.0175454
0.0216979
0.0159831
0.000591924
8.5964e-05
6.885e-05
6.23338e-05
0.193779
3.16064e-19
1.64324e-18
1.13217e-17
7.69296e-18
0
-2.08365e-18
-1.93856e-18
-2.02027e-16
-5.19524e-12
-4.28333e-12
-2.23914e-12
0.00785604
0.0216979
0.0186292
0.00130958
7.17964e-05
6.21167e-05
6.25609e-05
0.0748833
9.2873e-21
5.56526e-20
2.69305e-19
-4.01278e-18
-2.79023e-18
-1.87023e-18
-9.61715e-19
-1.39882e-16
-3.09436e-12
-2.37115e-12
-9.68381e-13
-1.85143e-13
0.0148583
0.0194265
0.0083846
9.48088e-05
6.25609e-05
6.20256e-05
0.0984003
6.72219e-24
3.02369e-22
4.93329e-21
-1.86511e-18
-8.02648e-19
-4.296e-19
-1.6869e-19
-4.4225e-17
-6.10857e-13
-4.67823e-13
-2.21375e-13
-9.26286e-14
0.00465562
0.0194265
0.00818325
9.76766e-05
6.54691e-05
0.00481308
0.115263
-3.81143e-45
-1.92436e-46
-8.73207e-48
-3.22214e-19
-5.97501e-20
-4.03985e-20
-1.00336e-20
-1.66302e-20
-8.23054e-21
-2.39061e-21
-5.4034e-22
-1.45667e-22
9.02299e-05
0.00558338
2.57227e-05
6.14051e-05
6.78416e-05
6.78416e-05
0.0834962
)
;

boundaryField
{
    leftWall
    {
        type            zeroGradient;
    }
    rightWall
    {
        type            zeroGradient;
    }
    lowerWall
    {
        type            zeroGradient;
    }
    atmosphere
    {
        type            inletOutlet;
        inletValue      uniform 0;
        value           nonuniform List<scalar> 
46
(
0
0
0
0
0
0
0
0
0
0
0
0
0
0
0
0
0
0
0
0
0
0
0
0
0
0
0
0
0
0
0
0
0
0
0
0
0
0
0
0
0.00558338
0
0
6.78416e-05
6.78416e-05
0.0834962
)
;
    }
    defaultFaces
    {
        type            empty;
    }
}


// ************************************************************************* //
