/*--------------------------------*- C++ -*----------------------------------*\
| =========                 |                                                 |
| \\      /  F ield         | OpenFOAM: The Open Source CFD Toolbox           |
|  \\    /   O peration     | Version:  2012                                  |
|   \\  /    A nd           | Website:  www.openfoam.com                      |
|    \\/     M anipulation  |                                                 |
\*---------------------------------------------------------------------------*/
FoamFile
{
    version     2.0;
    format      ascii;
    class       volScalarField;
    location    "0.45";
    object      p;
}
// * * * * * * * * * * * * * * * * * * * * * * * * * * * * * * * * * * * * * //

dimensions      [1 -1 -2 0 0 0 0];


internalField   nonuniform List<scalar> 
2268
(
743.263
742.63
748.145
757.21
764.39
767.762
768.043
768.094
770.263
775.522
784.018
795.696
810.526
828.353
849.098
872.545
897.744
922.289
940.117
953.701
934.828
927.803
969.084
683.666
682.448
687.815
696.904
704.1
707.525
707.893
708.079
710.404
715.798
724.387
736.061
750.655
768.117
788.343
811.182
836.03
861.353
882.222
897.471
881.957
857.576
903.157
623.193
621.241
625.995
635.259
642.396
645.943
646.488
646.942
649.571
655.234
664.014
675.803
690.486
707.933
727.955
750.137
773.691
797.366
818.221
833.428
825.601
797.253
843.787
562.24
559.224
563.186
571.994
579.345
583.13
583.943
584.779
587.843
593.886
602.941
614.903
629.663
647.096
666.957
688.762
711.583
733.919
753.386
767.64
767.377
755.585
795.462
501.322
496.692
499.44
507.393
515.085
519.255
520.399
521.703
525.31
531.819
541.205
553.378
568.254
585.712
605.491
627.079
649.561
671.374
690.298
704.651
711.368
714.216
753.81
441.046
434.219
434.849
441.49
449.664
454.445
455.954
457.755
461.988
469.042
478.813
491.241
506.272
523.799
543.576
565.099
587.49
609.234
628.387
643.598
654.966
666.049
704.392
382.067
372.06
369.686
374.563
383.258
388.875
390.832
393.123
397.959
405.546
415.703
428.414
443.658
461.353
481.229
502.806
525.306
547.244
566.93
582.905
595.697
608.161
637.049
325.393
312.018
305.464
307.785
316.424
322.714
325.274
328.266
333.756
341.782
352.181
365.029
380.353
398.206
418.418
440.297
463.137
485.433
505.69
522.198
534.183
543.615
549.398
282.724
282.516
281.078
279.785
279.458
279.512
279.481
279.399
279.344
279.32
279.325
279.379
279.496
279.702
280.054
280.67
281.602
282.563
283.026
282.671
282.379
280.812
279.532
279.317
279.451
279.425
279.336
279.277
279.251
279.254
279.304
279.415
279.61
279.943
280.553
281.517
282.533
283.016
282.631
282.184
280.211
279.104
279.097
279.345
279.339
279.254
279.197
279.168
279.167
279.209
279.307
279.482
279.783
280.379
281.402
282.53
283.061
282.629
281.733
279.054
278.468
278.83
279.195
279.222
279.156
279.105
279.075
279.067
279.096
279.174
279.318
279.565
280.123
281.233
282.542
283.157
282.68
280.457
277.902
277.805
278.597
279.03
279.09
279.049
279.006
278.973
278.956
278.968
279.018
279.118
279.282
279.752
280.961
282.53
283.307
282.991
279.003
277.547
277.684
278.464
278.877
278.959
278.94
278.901
278.864
278.835
278.825
278.84
278.884
278.926
279.215
280.506
282.419
283.561
280.967
278.693
277.563
277.822
278.423
278.753
278.841
278.833
278.794
278.748
278.707
278.671
278.642
278.617
278.492
278.445
279.723
281.966
283.964
273.063
278.292
277.76
278.066
278.437
278.663
278.738
278.73
278.685
278.629
278.573
278.509
278.43
278.321
277.979
277.347
277.937
280.413
284.306
240.172
223.491
208.19
203.663
211.123
217.785
220.918
225.241
232.219
241.27
252.24
265.439
280.778
298.152
318.318
340.96
365.001
388.62
410.393
428.063
437.003
431.178
365.422
134.066
111.9
82.6657
66.69
72.5777
78.6593
80.1256
83.652
90.4925
99.3683
110.136
123.952
142.122
163.849
186.228
208.409
233.318
258.515
282.726
302.949
314.031
312.736
297.304
54.3503
26.9319
8.61105
5.05738
7.69623
9.41857
9.47208
10.3429
12.3171
15.0374
18.3742
22.6222
28.4175
36.5224
49.4959
68.2467
94.5565
126.065
160.297
187.377
205.508
219.349
231.074
1.13486
-0.0975996
-0.17024
-0.062958
-0.0618009
-0.0507169
-0.0448227
-0.0437353
-0.0425692
-0.0345089
-0.0163285
0.0120919
0.0435255
0.203387
1.04335
4.5557
11.2363
26.1317
52.412
79.1172
104.986
129.955
147.53
-0.195566
-0.268185
-0.255883
-0.21043
-0.199834
-0.193994
-0.189685
-0.187256
-0.184404
-0.17862
-0.167795
-0.147133
-0.113092
-0.0655051
-0.121947
-0.128804
-0.0260117
0.395143
3.58429
11.0051
26.1848
48.7724
68.0001
-0.332931
-0.342105
-0.350885
-0.34382
-0.340363
-0.336721
-0.333179
-0.330506
-0.327402
-0.322404
-0.314657
-0.304768
-0.300081
-0.331236
-0.374378
-0.302102
-0.203913
-0.172232
-0.142429
-0.0544837
0.0382571
3.76635
15.746
-0.482787
-0.490828
-0.491063
-0.486119
-0.482732
-0.479847
-0.477117
-0.474703
-0.471997
-0.468088
-0.462569
-0.456006
-0.451488
-0.464138
-0.498159
-0.477789
-0.433319
-0.434458
-0.446746
-0.4499
-0.55667
-0.7005
-0.577614
-0.628651
-0.629612
-0.628237
-0.626981
-0.625038
-0.622999
-0.620954
-0.619084
-0.617168
-0.614779
-0.611802
-0.609111
-0.610138
-0.622271
-0.640681
-0.641531
-0.627239
-0.631728
-0.644179
-0.677131
-0.75879
-0.945746
-0.96066
-0.77247
-0.771595
-0.77011
-0.769262
-0.76798
-0.766509
-0.764981
-0.763596
-0.762376
-0.761213
-0.760082
-0.759544
-0.761864
-0.768337
-0.779995
-0.787507
-0.789137
-0.804415
-0.828467
-0.890543
-1.00634
-1.1523
-1.18277
-0.916258
-0.914827
-0.913251
-0.912434
-0.91147
-0.910351
-0.90919
-0.908155
-0.90737
-0.906894
-0.906817
-0.907441
-0.909769
-0.914627
-0.922112
-0.930062
-0.9391
-0.956168
-0.989997
-1.05654
-1.16434
-1.30791
-1.35717
-1.05955
-1.05816
-1.05684
-1.05608
-1.05528
-1.05439
-1.05347
-1.05265
-1.05207
-1.05183
-1.05208
-1.05309
-1.05534
-1.05928
-1.06521
-1.07329
-1.08462
-1.10282
-1.141
-1.19696
-1.27529
-1.36682
-1.40355
-1.20284
-1.20172
-1.20069
-1.19999
-1.19929
-1.19852
-1.19775
-1.19705
-1.19654
-1.19633
-1.1966
-1.19749
-1.19946
-1.20278
-1.2079
-1.21547
-1.2262
-1.24363
-1.27577
-1.32331
-1.38
-1.42848
-1.43832
-1.34631
-1.34548
-1.34468
-1.34405
-1.3434
-1.3427
-1.34198
-1.34131
-1.34079
-1.34052
-1.34063
-1.34131
-1.34285
-1.34555
-1.34987
-1.35637
-1.36572
-1.38011
-1.40318
-1.43742
-1.47832
-1.51194
-1.52311
-1.49003
-1.48944
-1.48881
-1.48823
-1.48759
-1.48689
-1.48616
-1.48545
-1.48484
-1.48441
-1.48429
-1.48463
-1.48565
-1.48761
-1.49088
-1.4959
-1.50323
-1.51401
-1.52953
-1.55009
-1.57269
-1.591
-1.59958
-1.63406
-1.63362
-1.6331
-1.63252
-1.63187
-1.63112
-1.63031
-1.62949
-1.62872
-1.62806
-1.62762
-1.62751
-1.62791
-1.629
-1.63104
-1.63428
-1.63911
-1.64603
-1.65539
-1.66668
-1.67785
-1.68538
-1.68509
-1.77838
-1.77804
-1.77756
-1.77697
-1.77625
-1.77542
-1.77449
-1.77351
-1.77251
-1.77155
-1.77072
-1.77009
-1.76978
-1.76993
-1.77068
-1.7722
-1.77465
-1.77817
-1.78265
-1.78751
-1.79145
-1.79235
-1.78795
-1.923
-1.9227
-1.92222
-1.92159
-1.92079
-1.91984
-1.91876
-1.91757
-1.9163
-1.915
-1.91371
-1.91251
-1.91145
-1.91063
-1.91011
-1.90997
-1.91026
-1.91094
-1.9118
-1.91228
-1.91142
-1.90776
-1.90012
-2.06792
-2.06762
-2.06711
-2.06642
-2.06552
-2.06444
-2.06317
-2.06174
-2.06018
-2.0585
-2.05674
-2.05494
-2.05312
-2.05134
-2.04961
-2.04795
-2.04631
-2.04458
-2.04249
-2.03962
-2.0353
-2.02861
-2.01881
-2.21313
-2.21282
-2.21227
-2.2115
-2.21049
-2.20925
-2.20779
-2.20612
-2.20424
-2.20217
-2.19993
-2.19753
-2.19498
-2.19228
-2.18943
-2.18639
-2.18308
-2.17937
-2.17501
-2.16965
-2.16282
-2.15388
-2.14238
-2.35865
-2.35832
-2.3577
-2.35685
-2.35572
-2.35433
-2.35267
-2.35075
-2.34856
-2.34611
-2.3434
-2.34042
-2.33716
-2.33362
-2.32975
-2.32549
-2.32076
-2.3154
-2.30921
-2.30191
-2.29316
-2.28253
-2.26969
-2.50449
-2.50413
-2.50345
-2.50252
-2.50127
-2.49973
-2.49787
-2.4957
-2.49321
-2.49039
-2.48723
-2.48371
-2.47982
-2.4755
-2.47072
-2.4654
-2.45945
-2.45272
-2.44505
-2.43622
-2.42598
-2.414
-2.4001
-2.65066
-2.65027
-2.64954
-2.64852
-2.64717
-2.64548
-2.64343
-2.64103
-2.63826
-2.6351
-2.63153
-2.62752
-2.62304
-2.61803
-2.61245
-2.60622
-2.59923
-2.59137
-2.58248
-2.57241
-2.56096
-2.5479
-2.5331
-2.7972
-2.79678
-2.79599
-2.7949
-2.79344
-2.79162
-2.7894
-2.78679
-2.78377
-2.7803
-2.77636
-2.77191
-2.76691
-2.7613
-2.75503
-2.74802
-2.74016
-2.73135
-2.72145
-2.71035
-2.6979
-2.68392
-2.66833
-2.94412
-2.94368
-2.94283
-2.94168
-2.94013
-2.93818
-2.93582
-2.93303
-2.92977
-2.92603
-2.92177
-2.91694
-2.9115
-2.90538
-2.89853
-2.89085
-2.88226
-2.87266
-2.86193
-2.84996
-2.83666
-2.82188
-2.80555
-3.09145
-3.09098
-3.09009
-3.08888
-3.08725
-3.08521
-3.08272
-3.07977
-3.07632
-3.07236
-3.06782
-3.06268
-3.05687
-3.05033
-3.04299
-3.03477
-3.02558
-3.01532
-3.00389
-2.9912
-2.97716
-2.96165
-2.94463
-3.23919
-3.2387
-3.23777
-3.23652
-3.23483
-3.2327
-3.23012
-3.22704
-3.22345
-3.2193
-3.21456
-3.20916
-3.20306
-3.19618
-3.18845
-3.1798
-3.17012
-3.15933
-3.14733
-3.13403
-3.11935
-3.10318
-3.08548
-3.38735
-3.38687
-3.3859
-3.38462
-3.38288
-3.3807
-3.37804
-3.37488
-3.37118
-3.3669
-3.362
-3.35642
-3.3501
-3.34298
-3.33496
-3.32598
-3.31594
-3.30473
-3.29228
-3.27848
-3.26325
-3.24648
-3.22812
-3.53594
-3.53548
-3.53448
-3.53318
-3.53141
-3.5292
-3.5265
-3.52329
-3.51953
-3.51517
-3.51018
-3.50449
-3.49804
-3.49075
-3.48255
-3.47335
-3.46305
-3.45155
-3.43876
-3.42457
-3.40889
-3.3916
-3.37263
-3.68496
-3.68452
-3.6835
-3.6822
-3.68043
-3.67821
-3.6755
-3.67228
-3.66851
-3.66413
-3.65911
-3.65338
-3.64688
-3.63952
-3.63124
-3.62193
-3.61149
-3.59983
-3.58683
-3.57238
-3.55636
-3.53866
-3.51915
-3.8344
-3.83398
-3.83296
-3.83168
-3.82992
-3.82773
-3.82505
-3.82186
-3.81812
-3.81378
-3.80879
-3.8031
-3.79663
-3.7893
-3.78103
-3.77173
-3.76129
-3.74959
-3.73653
-3.72196
-3.70576
-3.68778
-3.66786
-3.98424
-3.98385
-3.98283
-3.9816
-3.97988
-3.97774
-3.97513
-3.97201
-3.96836
-3.96411
-3.95922
-3.95364
-3.94728
-3.94008
-3.93194
-3.92276
-3.91244
-3.90087
-3.88789
-3.87338
-3.85717
-3.83911
-3.81898
-4.13449
-4.13413
-4.13311
-4.13196
-4.13029
-4.12825
-4.12573
-4.12273
-4.11921
-4.11511
-4.11039
-4.10498
-4.09883
-4.09184
-4.08394
-4.07501
-4.06495
-4.05364
-4.04093
-4.02666
-4.01066
-3.99273
-3.97264
-4.28513
-4.28487
-4.28373
-4.28272
-4.28115
-4.27924
-4.27685
-4.27401
-4.27066
-4.26676
-4.26226
-4.25711
-4.25124
-4.24456
-4.237
-4.22845
-4.21879
-4.2079
-4.19562
-4.1818
-4.16623
-4.14871
-4.12897
-4.43612
-4.43592
-4.43477
-4.43389
-4.43244
-4.43067
-4.42845
-4.4258
-4.42266
-4.41902
-4.41481
-4.40998
-4.40446
-4.39819
-4.39107
-4.38301
-4.37389
-4.36358
-4.35192
-4.33875
-4.32386
-4.30703
-4.28795
-4.58741
-4.58724
-4.5862
-4.58543
-4.5841
-4.58249
-4.58046
-4.57803
-4.57516
-4.57181
-4.56794
-4.5635
-4.55842
-4.55264
-4.54606
-4.53861
-4.53016
-4.52059
-4.50974
-4.49744
-4.48348
-4.46763
-4.44957
-4.73902
-4.7389
-4.73798
-4.73733
-4.73614
-4.73472
-4.7329
-4.73072
-4.72815
-4.72514
-4.72166
-4.71766
-4.71309
-4.70787
-4.70195
-4.69521
-4.68757
-4.67889
-4.66903
-4.65781
-4.64504
-4.63048
-4.61383
-4.89101
-4.89099
-4.89017
-4.88966
-4.88861
-4.88738
-4.8858
-4.8839
-4.88165
-4.87903
-4.87599
-4.87249
-4.86849
-4.86392
-4.85873
-4.85282
-4.8461
-4.83846
-4.82976
-4.81985
-4.80852
-4.79557
-4.7807
-5.04339
-5.04349
-5.04274
-5.04237
-5.04148
-5.04046
-5.03914
-5.03755
-5.03566
-5.03345
-5.03089
-5.02795
-5.02458
-5.02074
-5.01637
-5.01139
-5.00572
-4.99927
-4.9919
-4.9835
-4.97387
-4.96282
-4.95009
-5.19593
-5.19609
-5.19545
-5.19519
-5.19448
-5.19367
-5.19262
-5.19135
-5.18985
-5.18809
-5.18606
-5.18372
-5.18104
-5.17798
-5.1745
-5.17054
-5.16602
-5.16087
-5.15499
-5.14827
-5.14056
-5.13168
-5.12143
-5.34837
-5.34856
-5.34805
-5.34789
-5.34736
-5.34677
-5.346
-5.34507
-5.34397
-5.34269
-5.34119
-5.33948
-5.33752
-5.33529
-5.33275
-5.32986
-5.32657
-5.32281
-5.31853
-5.31362
-5.30798
-5.30148
-5.29394
-5.50054
-5.50076
-5.5004
-5.50033
-5.49999
-5.49962
-5.49913
-5.49853
-5.49783
-5.49701
-5.49606
-5.49497
-5.49373
-5.49233
-5.49073
-5.48892
-5.48687
-5.48454
-5.48188
-5.47886
-5.47539
-5.47143
-5.46678
-5.65358
-5.65387
-5.65367
-5.65371
-5.65356
-5.65341
-5.65321
-5.65297
-5.65269
-5.65236
-5.65198
-5.65155
-5.65107
-5.65053
-5.64993
-5.64927
-5.64852
-5.64769
-5.64677
-5.64573
-5.64456
-5.64325
-5.64177
227.303
238.801
255.104
247.363
267.635
256.517
243.564
234.394
232.597
231.609
234.786
244.763
156.331
164.043
175.457
189.998
82.9383
95.3258
109.785
125.233
26.9697
36.4839
48.6508
61.1391
-0.388164
0.267194
3.58744
9.66777
-0.907944
-0.871388
-0.787911
-0.660226
-1.12262
-1.07952
-1.04987
-1.01586
-1.30605
-1.25459
-1.2019
-1.15309
-1.37495
-1.33706
-1.2911
-1.246
-1.41185
-1.38944
-1.36424
-1.33807
-1.50857
-1.49423
-1.47505
-1.4528
-1.59452
-1.5876
-1.57727
-1.56485
-1.67788
-1.67162
-1.66345
-1.65323
-1.78022
-1.77388
-1.76613
-1.75698
-1.8913
-1.88461
-1.87688
-1.8681
-2.00901
-2.00189
-1.99394
-1.98515
-2.13179
-2.1243
-2.11614
-2.10728
-2.25844
-2.25064
-2.24227
-2.23333
-2.38831
-2.38023
-2.37168
-2.36264
-2.52083
-2.51251
-2.50376
-2.49462
-2.65561
-2.64705
-2.63811
-2.62881
-2.79239
-2.78357
-2.7744
-2.7649
-2.93098
-2.92188
-2.91244
-2.90269
-3.07133
-3.0619
-3.05213
-3.04207
-3.21345
-3.20368
-3.19354
-3.18311
-3.35744
-3.3473
-3.33678
-3.32594
-3.50346
-3.49298
-3.48207
-3.47079
-3.65172
-3.64094
-3.62969
-3.61798
-3.80257
-3.79152
-3.77997
-3.7679
-3.9561
-3.94489
-3.9332
-3.92088
-4.11265
-4.10162
-4.08983
-4.07743
-4.27206
-4.26126
-4.24979
-4.23762
-4.43445
-4.42414
-4.41316
-4.40148
-4.59982
-4.59023
-4.57999
-4.56907
-4.76813
-4.7595
-4.75028
-4.74042
-4.93929
-4.93187
-4.92393
-4.91542
-5.1127
-5.10671
-5.10029
-5.09341
-5.28753
-5.28313
-5.2784
-5.27333
-5.4629
-5.46024
-5.45738
-5.4543
-5.64056
-5.63975
-5.63891
-5.63803
239.458
277.266
278.027
278.368
278.491
278.562
278.6
278.579
278.517
278.44
278.359
278.251
278.084
277.829
277.107
275.347
273.069
273.15
284.034
241.76
273.234
277.815
278.563
278.435
278.426
278.456
278.406
278.297
278.182
278.081
277.929
277.641
277.244
276.228
273.693
269.244
262.29
289.259
263.766
269.766
279.528
278.707
278.248
278.235
278.371
278.268
278.066
277.924
277.831
277.688
277.331
276.923
275.941
273.922
271.689
265.979
284.913
217.651
259.56
281.054
280.182
278.246
278.077
278.469
278.189
277.81
277.656
277.653
277.569
277.176
276.916
276.311
275.508
274.917
274.025
288.837
155.748
215.368
291.513
286.447
278.397
277.92
278.407
278.21
277.528
277.327
277.434
277.43
277.105
276.833
276.277
276.954
277.508
280.358
284.316
85.9762
134.543
190.679
224.496
228.558
243.045
266.032
278.891
275.627
269.378
266.782
270.046
275.551
271.19
275.285
275.705
274.918
290.509
400.977
26.0901
53.9297
88.3918
126.239
156.613
189.016
214.741
232.78
238.445
209.469
195.354
203.908
221.803
203.739
237.507
234.121
244.591
402.576
685.271
-0.384533
6.63361
24.0553
43.4281
66.472
89.8756
110.754
129.081
141.664
128.365
118.835
122.314
135.241
142.464
186.823
250.839
405.153
662.626
964.244
-0.982022
-0.943969
-0.716017
1.04826
8.64503
19.0017
28.887
36.8746
44.6033
48.447
48.7587
49.3998
53.1392
63.3909
103.439
216.931
452.227
753.556
1018.74
-1.08961
-1.11192
-1.05048
-1.10756
-1.02609
-0.905762
-0.705266
0.261918
1.92487
3.54222
4.32482
4.68794
5.40601
7.38644
16.7447
70.7143
306.462
646.428
851.211
-1.18505
-1.1752
-1.14891
-1.19105
-1.11067
-1.01351
-0.902706
-0.776683
-0.644884
-0.491795
-0.341705
-0.220379
-0.0566543
0.25836
2.22551
12.7676
80.904
448.514
622.6
-1.29938
-1.27954
-1.25725
-1.24463
-1.19404
-1.10714
-1.00148
-0.891724
-0.775042
-0.649587
-0.510647
-0.368429
-0.16394
0.0570341
1.079
6.0526
23.3726
309.568
414.823
-1.41859
-1.38758
-1.37185
-1.35413
-1.29129
-1.20408
-1.11011
-1.0111
-0.906377
-0.796301
-0.674392
-0.531289
-0.353938
-0.0858464
0.809253
2.9288
68.8704
223.04
279.815
-1.54184
-1.51252
-1.47529
-1.43429
-1.37863
-1.30773
-1.22791
-1.1401
-1.04601
-0.947998
-0.842272
-0.716783
-0.60992
-0.605496
0.0800185
9.38102
109.036
184.302
208.721
-1.63333
-1.60442
-1.57176
-1.53121
-1.48034
-1.4194
-1.34971
-1.27206
-1.18824
-1.10226
-1.01629
-0.92035
-0.876772
-1.24922
-2.135
3.14347
89.6405
152.674
158.829
-1.7397
-1.71131
-1.67875
-1.64005
-1.59343
-1.53878
-1.4767
-1.40807
-1.33457
-1.25988
-1.19098
-1.13731
-1.15731
-1.56342
-3.04552
-5.99432
21.8497
92.4827
93.1338
-1.85178
-1.82472
-1.79312
-1.75642
-1.71369
-1.66443
-1.60883
-1.54799
-1.48431
-1.42215
-1.36987
-1.34535
-1.39938
-1.70807
-2.26462
-2.98027
-3.17661
1.33308
29.4761
-1.96912
-1.94288
-1.91267
-1.8783
-1.83923
-1.79478
-1.74499
-1.69127
-1.63664
-1.58575
-1.5475
-1.53485
-1.56072
-1.72275
-1.8294
-1.99084
-7.61811
-31.4466
9.08089
-2.0913
-2.06566
-2.03678
-2.00466
-1.96887
-1.9287
-1.88433
-1.83743
-1.79101
-1.74879
-1.71596
-1.70421
-1.68662
-1.72839
-1.68231
-1.43231
-4.31982
-12.5242
1.30348
-2.2174
-2.19234
-2.16465
-2.1345
-2.10154
-2.06524
-2.02607
-1.98571
-1.94683
-1.91105
-1.8791
-1.8617
-1.82635
-1.81438
-1.74671
-1.75848
0.916378
1.5179
4.26052
-2.34671
-2.32213
-2.29544
-2.2669
-2.23636
-2.20364
-2.16927
-2.13527
-2.10325
-2.0729
-2.04087
-2.02011
-1.97153
-1.93491
-1.80925
-1.81543
2.88317
5.30878
5.70718
-2.47863
-2.45435
-2.42838
-2.40102
-2.37235
-2.34254
-2.31278
-2.28519
-2.26022
-2.23654
-2.21066
-2.18053
-2.12142
-2.05736
-1.95578
-0.834598
6.99277
5.19638
7.00389
-2.61269
-2.58846
-2.56284
-2.53618
-2.50877
-2.48121
-2.45546
-2.4339
-2.41624
-2.40047
-2.384
-2.35732
-2.31381
-2.24982
-2.41513
-3.02261
-1.53442
0.457917
5.30974
-2.74849
-2.72404
-2.69836
-2.67187
-2.64501
-2.61882
-2.59588
-2.57885
-2.56787
-2.56275
-2.56052
-2.54602
-2.50147
-2.3889
-2.24583
-2.6143
-3.44307
2.35008
1.45103
-2.88587
-2.86082
-2.83462
-2.80766
-2.78048
-2.75434
-2.7321
-2.71678
-2.70979
-2.71765
-2.73517
-2.73463
-2.66343
-2.46181
-2.18026
-2.24888
-1.90439
11.8606
11.4711
-3.02473
-2.99876
-2.97149
-2.94334
-2.91467
-2.88667
-2.86198
-2.8437
-2.83467
-2.85037
-2.88844
-2.90293
-2.82207
-2.63411
-2.51704
-2.51466
-1.75174
7.01945
17.2063
-3.16512
-3.13795
-3.10921
-3.07924
-3.04798
-3.01621
-2.98518
-2.95637
-2.9351
-2.94303
-2.99175
-3.02049
-2.96507
-2.8855
-2.9904
-3.16247
-2.71188
0.425265
26.1072
-3.3072
-3.27866
-3.24818
-3.21626
-3.18243
-3.14649
-3.10812
-3.0639
-3.02436
-3.01213
-3.05012
-3.08461
-3.05362
-3.04105
-3.19806
-3.35494
-3.29768
-1.39064
34.3595
-3.45122
-3.42119
-3.38878
-3.35487
-3.31889
-3.27928
-3.23771
-3.19204
-3.13589
-3.10627
-3.12508
-3.15582
-3.12784
-3.08177
-3.18943
-3.32782
-3.44656
-1.22986
46.0385
-3.59758
-3.56597
-3.53145
-3.49514
-3.45661
-3.4128
-3.36704
-3.32137
-3.27279
-3.24909
-3.25871
-3.26808
-3.23781
-3.14364
-3.10906
-3.26012
-3.09219
16.3861
71.48
-3.74674
-3.71361
-3.67692
-3.63759
-3.59543
-3.54763
-3.4926
-3.43938
-3.40756
-3.41013
-3.42233
-3.34683
-3.25366
-3.08841
-2.78836
-2.8155
-2.09017
48.1779
100.133
-3.89926
-3.86488
-3.82613
-3.78382
-3.73675
-3.68715
-3.61767
-3.55066
-3.52242
-3.55647
-3.60899
-3.44555
-3.23294
-3.03135
-2.62447
-1.75617
12.8378
37.555
87.2743
-4.05553
-4.02052
-3.9808
-3.93634
-3.88704
-3.83233
-3.7636
-3.67824
-3.64145
-3.71203
-3.8366
-3.98385
-3.66551
-3.40917
-3.16649
-0.231727
2.57507
10.4643
53.5628
-4.21593
-4.1809
-4.14107
-4.09559
-4.04438
-3.98695
-3.91971
-3.83751
-3.79712
-3.85606
-3.94409
-4.04888
-4.08939
-4.01393
-3.2296
-1.6699
-0.799947
1.44751
21.4957
-4.38064
-4.34689
-4.3075
-4.2622
-4.21057
-4.15269
-4.08986
-4.0134
-3.95917
-3.95634
-3.96775
-3.98359
-4.11724
-3.99643
-3.4209
-2.79259
-2.46878
-1.98659
1.63005
-4.54952
-4.51753
-4.48017
-4.43651
-4.3861
-4.32855
-4.26255
-4.19504
-4.12584
-4.07034
-4.03798
-4.06986
-4.37671
-4.01525
-3.40581
-3.34662
-3.05659
-3.05189
-2.28249
-4.72272
-4.69356
-4.65939
-4.61907
-4.5727
-4.51993
-4.46035
-4.40035
-4.33846
-4.27239
-4.24402
-4.36607
-4.78148
-3.90771
-3.62783
-3.57934
-3.35714
-3.47026
-2.27033
-4.90015
-4.87482
-4.84501
-4.8095
-4.76917
-4.72264
-4.66914
-4.62272
-4.57464
-4.50548
-4.54501
-4.75764
-5.02751
-4.18459
-3.75988
-3.72588
-3.63842
-3.75041
-2.2498
-5.08102
-5.06038
-5.03599
-5.00673
-4.97372
-4.93471
-4.88798
-4.85096
-4.80985
-4.72873
-4.74747
-4.51642
-5.01471
-4.86112
-4.13742
-4.05573
-4.03299
-4.13957
-3.64524
-5.2642
-5.24892
-5.23081
-5.20907
-5.18435
-5.15457
-5.11737
-5.08858
-5.05092
-4.93942
-4.90174
-4.63449
-3.99959
-3.38319
-4.48114
-4.63898
-4.6661
-4.76475
-3.24926
-5.44876
-5.43955
-5.42877
-5.41605
-5.40184
-5.38474
-5.36463
-5.35096
-5.33033
-5.23756
-5.22064
-5.36316
-4.40856
-6.41679
-3.50014
-5.28173
-5.39484
-5.79124
-17.3964
-5.63651
-5.63422
-5.63203
-5.63032
-5.63016
-5.63195
-5.64113
-5.66203
-5.69065
-5.74698
-6.10748
-7.37045
-6.58633
-9.6023
-5.28441
-6.41063
-6.44678
-7.85727
-45.1338
)
;

boundaryField
{
    leftWall
    {
        type            calculated;
        value           nonuniform List<scalar> 
50
(
743.263
683.666
623.193
562.24
501.322
441.046
382.067
325.393
240.172
134.066
54.3503
1.13486
-0.195566
-0.332931
-0.482787
-0.628651
-0.77247
-0.916258
-1.05955
-1.20284
-1.34631
-1.49003
-1.63406
-1.77838
-1.923
-2.06792
-2.21313
-2.35865
-2.50449
-2.65066
-2.7972
-2.94412
-3.09145
-3.23919
-3.38735
-3.53594
-3.68496
-3.8344
-3.98424
-4.13449
-4.28513
-4.43612
-4.58741
-4.73902
-4.89101
-5.04339
-5.19593
-5.34837
-5.50054
-5.65358
)
;
    }
    rightWall
    {
        type            calculated;
        value           nonuniform List<scalar> 
50
(
283.026
283.016
283.061
283.157
283.307
283.561
283.964
284.306
284.034
289.259
284.913
288.837
284.316
400.977
685.271
964.244
1018.74
851.211
622.6
414.823
279.815
208.721
158.829
93.1338
29.4761
9.08089
1.30348
4.26052
5.70718
7.00389
5.30974
1.45103
11.4711
17.2063
26.1072
34.3595
46.0385
71.48
100.133
87.2743
53.5628
21.4957
1.63005
-2.28249
-2.27033
-2.2498
-3.64524
-3.24926
-17.3964
-45.1338
)
;
    }
    lowerWall
    {
        type            calculated;
        value           nonuniform List<scalar> 
62
(
772.693
772.059
777.574
786.64
793.819
797.191
797.473
797.523
799.693
804.951
813.448
825.126
839.955
857.782
878.527
901.974
927.173
951.719
969.546
980.676
960.107
954.637
998.465
969.084
903.157
843.787
795.462
753.81
704.392
637.049
549.398
289.871
301.391
317.695
309.958
282.724
282.671
282.631
282.629
282.68
282.991
280.967
273.063
282.753
282.546
281.108
279.814
279.487
279.542
279.51
279.429
279.374
279.35
279.354
279.409
279.526
279.731
280.083
280.699
281.631
282.593
283.055
)
;
    }
    atmosphere
    {
        type            calculated;
        value           nonuniform List<scalar> 
46
(
-5.73072
-5.73119
-5.73106
-5.73113
-5.73109
-5.73106
-5.73102
-5.73096
-5.73089
-5.73082
-5.73074
-5.73065
-5.73057
-5.73049
-5.73042
-5.73036
-5.73031
-5.73028
-5.73027
-5.7303
-5.73037
-5.73051
-5.73073
-5.731
-5.73122
-5.73151
-5.73186
-5.73263
-5.73434
-5.73728
-5.74234
-5.75131
-5.76592
-5.79715
-5.84592
-5.90209
-6.08721
-6.7814
-8.41414
-5.9265
-37.6845
-5.75774
-5.72954
-6.11732
-6.11732
-483.604
)
;
    }
    defaultFaces
    {
        type            empty;
    }
}


// ************************************************************************* //
