/*--------------------------------*- C++ -*----------------------------------*\
| =========                 |                                                 |
| \\      /  F ield         | OpenFOAM: The Open Source CFD Toolbox           |
|  \\    /   O peration     | Version:  2012                                  |
|   \\  /    A nd           | Website:  www.openfoam.com                      |
|    \\/     M anipulation  |                                                 |
\*---------------------------------------------------------------------------*/
FoamFile
{
    version     2.0;
    format      ascii;
    class       surfaceScalarField;
    location    "0.45";
    object      phi;
}
// * * * * * * * * * * * * * * * * * * * * * * * * * * * * * * * * * * * * * //

dimensions      [0 3 -1 0 0 0 0];
oriented        oriented;


internalField   nonuniform List<scalar> 
4432
(
-3.8045e-06
3.8045e-06
-4.274e-06
4.69499e-07
-8.44539e-07
-3.42946e-06
4.72789e-06
-5.57243e-06
1.10194e-05
-6.29148e-06
1.68315e-05
-5.81211e-06
2.15433e-05
-4.71182e-06
2.50342e-05
-3.49085e-06
2.74441e-05
-2.40997e-06
2.89923e-05
-1.54821e-06
2.98771e-05
-8.84776e-07
3.02216e-05
-3.44489e-07
3.00043e-05
2.17331e-07
2.90304e-05
9.73863e-07
2.69701e-05
2.06029e-06
2.32789e-05
3.69124e-06
1.72938e-05
5.98509e-06
8.89975e-06
8.39405e-06
2.02345e-07
8.6974e-06
-7.4371e-06
7.63945e-06
-1.58168e-05
8.37974e-06
-1.58268e-05
9.94513e-09
-1.58268e-05
-3.95655e-06
7.76106e-06
-3.97116e-06
4.84113e-07
-4.22306e-07
-6.97831e-06
5.13267e-06
-1.11274e-05
1.13706e-05
-1.25294e-05
1.71026e-05
-1.15441e-05
2.17302e-05
-9.33943e-06
2.51539e-05
-6.91448e-06
2.75339e-05
-4.79004e-06
2.90972e-05
-3.11148e-06
3.00417e-05
-1.82927e-06
3.05145e-05
-8.1726e-07
3.0651e-05
8.08553e-08
3.06003e-05
1.02456e-06
3.03744e-05
2.28619e-06
2.97984e-05
4.26724e-06
2.81554e-05
7.62805e-06
2.37579e-05
1.27916e-05
1.45895e-05
1.78658e-05
1.5235e-06
2.07054e-05
-9.04901e-06
1.89523e-05
-8.90937e-06
-1.29706e-07
-2.47361e-05
-3.52103e-06
1.12821e-05
-3.35337e-06
3.16453e-07
2.2971e-07
-1.05614e-05
5.73333e-06
-1.6631e-05
1.18107e-05
-1.86068e-05
1.73315e-05
-1.7065e-05
2.17352e-05
-1.37431e-05
2.49695e-05
-1.01488e-05
2.72328e-05
-7.0533e-06
2.87627e-05
-4.64141e-06
2.97465e-05
-2.81301e-06
3.02996e-05
-1.37037e-06
3.04721e-05
-9.17257e-08
3.02643e-05
1.23244e-06
2.97078e-05
2.84265e-06
2.89534e-05
5.02165e-06
2.8338e-05
8.24341e-06
2.76329e-05
1.34967e-05
2.45671e-05
2.09316e-05
1.68228e-05
2.84497e-05
6.89238e-06
2.88827e-05
1.54155e-06
5.22111e-06
-2.31946e-05
-2.88663e-06
1.41687e-05
-2.44182e-06
-1.28353e-07
1.0774e-06
-1.40806e-05
6.43431e-06
-2.19879e-05
1.22821e-05
-2.44545e-05
1.75385e-05
-2.23214e-05
2.1661e-05
-1.78655e-05
2.466e-05
-1.31479e-05
2.67891e-05
-9.18239e-06
2.82992e-05
-6.15147e-06
2.93581e-05
-3.8719e-06
3.00523e-05
-2.06459e-06
3.0406e-05
-4.45462e-07
3.03934e-05
1.2451e-06
2.99843e-05
3.25171e-06
2.9192e-05
5.81397e-06
2.82458e-05
9.18961e-06
2.78625e-05
1.388e-05
2.807e-05
2.07242e-05
2.67684e-05
2.97514e-05
2.18834e-05
3.37676e-05
1.15721e-05
1.55325e-05
-1.16225e-05
-2.0728e-06
1.62415e-05
-1.19698e-06
-1.00416e-06
2.12255e-06
-1.74001e-05
7.12339e-06
-2.69888e-05
1.26627e-05
-2.99938e-05
1.76336e-05
-2.72924e-05
2.14676e-05
-2.16995e-05
2.42348e-05
-1.59151e-05
2.62482e-05
-1.11958e-05
2.77697e-05
-7.67293e-06
2.8942e-05
-5.04419e-06
2.98164e-05
-2.93899e-06
3.03853e-05
-1.01443e-06
3.06089e-05
1.02152e-06
3.04623e-05
3.39831e-06
2.99479e-05
6.32836e-06
2.91328e-05
1.00048e-05
2.8403e-05
1.46097e-05
2.87522e-05
2.03749e-05
3.01364e-05
2.83672e-05
2.87283e-05
3.51758e-05
1.81359e-05
2.61248e-05
6.51342e-06
-1.02056e-06
1.72621e-05
4.50984e-07
-2.47571e-06
3.52084e-06
-2.047e-05
8.04216e-06
-3.15101e-05
1.31146e-05
-3.50662e-05
1.76751e-05
-3.18529e-05
2.11626e-05
-2.5187e-05
2.3704e-05
-1.84565e-05
2.56485e-05
-1.31403e-05
2.72421e-05
-9.26655e-06
2.8585e-05
-6.38712e-06
2.96851e-05
-4.03903e-06
3.04998e-05
-1.82914e-06
3.0961e-05
5.60334e-07
3.10462e-05
3.3131e-06
3.07795e-05
6.59501e-06
3.02548e-05
1.05295e-05
2.95816e-05
1.5283e-05
2.9279e-05
2.06775e-05
3.03829e-05
2.72633e-05
3.03775e-05
3.51811e-05
2.12403e-05
3.5262e-05
2.77537e-05
3.00878e-07
1.69612e-05
2.62727e-06
-4.8021e-06
5.92484e-06
-2.37676e-05
9.99861e-06
-3.55839e-05
1.42714e-05
-3.9339e-05
1.80526e-05
-3.56342e-05
2.09744e-05
-2.81088e-05
2.32075e-05
-2.06896e-05
2.50738e-05
-1.50065e-05
2.67598e-05
-1.09525e-05
2.83017e-05
-7.92909e-06
2.96575e-05
-5.39481e-06
3.07462e-05
-2.91786e-06
3.14864e-05
-1.79831e-07
3.18064e-05
2.99311e-06
3.17401e-05
6.66129e-06
3.14027e-05
1.08668e-05
3.09196e-05
1.57662e-05
3.03573e-05
2.12397e-05
3.04633e-05
2.71574e-05
3.03394e-05
3.5305e-05
2.35502e-05
4.20511e-05
5.1304e-05
2.26457e-06
1.46966e-05
5.87325e-06
-8.41077e-06
1.01102e-05
-2.80045e-05
1.374e-05
-3.92137e-05
1.66785e-05
-4.22775e-05
1.91728e-05
-3.81285e-05
2.12891e-05
-3.02251e-05
2.31473e-05
-2.25478e-05
2.49069e-05
-1.67662e-05
2.66348e-05
-1.26804e-05
2.82969e-05
-9.5912e-06
2.98183e-05
-6.91613e-06
3.10983e-05
-4.19787e-06
3.20388e-05
-1.12035e-06
3.26e-05
2.43189e-06
3.27859e-05
6.47539e-06
3.26541e-05
1.09986e-05
3.23277e-05
1.60926e-05
3.18555e-05
2.17119e-05
3.14172e-05
2.75957e-05
3.06839e-05
3.60383e-05
2.49948e-05
4.77402e-05
7.62988e-05
3.29231e-05
-3.29231e-05
0.000111684
-7.87611e-05
0.000141403
-2.97181e-05
0.00011104
3.03623e-05
6.78045e-05
4.32362e-05
4.41584e-05
2.3646e-05
3.25371e-05
1.16213e-05
2.20856e-05
1.04519e-05
1.11456e-05
1.09404e-05
-3.86763e-08
1.11841e-05
-1.15365e-05
1.1498e-05
-2.42096e-05
1.26731e-05
-3.84758e-05
1.42657e-05
-5.46443e-05
1.61682e-05
-7.08319e-05
1.61879e-05
-7.88783e-05
8.04667e-06
-6.74084e-05
-1.147e-05
-3.35384e-05
-3.38698e-05
-3.3538e-05
3.47788e-05
-6.77014e-05
0.000105256
-0.000149238
0.000145113
-6.95754e-05
0.000135718
3.97571e-05
9.90516e-05
7.99027e-05
6.39951e-05
5.87033e-05
3.97099e-05
3.59072e-05
2.33704e-05
2.67912e-05
1.05465e-05
2.37642e-05
-1.15552e-06
2.28863e-05
-1.31003e-05
2.34428e-05
-2.62466e-05
2.58189e-05
-4.11819e-05
2.92009e-05
-5.78348e-05
3.28214e-05
-7.40451e-05
3.23981e-05
-8.24244e-05
1.64261e-05
-7.08768e-05
-2.30172e-05
-3.53973e-05
-6.93488e-05
-6.89357e-05
3.63812e-05
-0.000104082
8.26512e-05
-0.000195508
0.000118235
-0.000105159
0.000121077
3.69153e-05
9.31938e-05
0.000107786
6.07025e-05
9.11951e-05
3.62801e-05
6.03296e-05
2.08597e-05
4.2212e-05
9.49618e-06
3.51278e-05
-9.89448e-07
3.33719e-05
-1.20338e-05
3.44867e-05
-2.46102e-05
3.83949e-05
-3.93559e-05
4.39468e-05
-5.67692e-05
5.0235e-05
-7.58599e-05
5.14885e-05
-8.84082e-05
2.89744e-05
-7.82936e-05
-3.31317e-05
-3.94088e-05
-0.000108234
-0.000108345
3.81953e-05
-0.000142278
5.46962e-05
-0.000212008
7.96841e-05
-0.000130147
8.95975e-05
2.70019e-05
7.48427e-05
0.00012254
5.10001e-05
0.000115038
3.18793e-05
7.94505e-05
1.94585e-05
5.46323e-05
9.43456e-06
4.51518e-05
-5.2476e-07
4.33309e-05
-1.12306e-05
4.5192e-05
-2.36495e-05
5.08139e-05
-3.85467e-05
5.88442e-05
-5.70227e-05
6.87108e-05
-7.95403e-05
7.40059e-05
-9.79062e-05
4.73402e-05
-9.01753e-05
-4.0863e-05
-4.59823e-05
-0.000152427
-0.000154327
3.14707e-05
-0.000173748
3.29246e-05
-0.000213462
5.11461e-05
-0.000148369
5.63596e-05
2.17884e-05
5.28421e-05
0.000126058
3.9426e-05
0.000128454
2.76554e-05
9.12211e-05
1.83359e-05
6.39516e-05
9.34117e-06
5.41467e-05
-1.52023e-07
5.28238e-05
-1.04223e-05
5.5462e-05
-2.252e-05
6.29117e-05
-3.74342e-05
7.37584e-05
-5.70183e-05
8.82944e-05
-8.38821e-05
0.00010087
-0.000110597
7.40552e-05
-0.000105647
-4.58136e-05
-5.38271e-05
-0.000204247
-0.000208153
1.18734e-05
-0.000185622
-7.49582e-07
-0.000200839
1.09759e-05
-0.000160094
2.50407e-05
7.72375e-06
3.08843e-05
0.000120214
2.85467e-05
0.000130792
2.37102e-05
9.60579e-05
1.69644e-05
7.06972e-05
9.01647e-06
6.20943e-05
1.7458e-07
6.16658e-05
-9.35812e-06
6.4995e-05
-2.08442e-05
7.4398e-05
-3.55259e-05
8.84399e-05
-5.61636e-05
0.000108932
-8.81031e-05
0.000132809
-0.000124426
0.000110378
-0.000118639
-5.16005e-05
-5.70545e-05
-0.000265831
-0.000265208
-2.14937e-05
-0.000164128
-4.06121e-05
-0.000181721
-2.03466e-05
-0.00018036
-5.15164e-07
-1.21077e-05
1.30949e-05
0.000106604
1.99906e-05
0.000123896
2.00562e-05
9.59927e-05
1.53028e-05
7.54504e-05
8.63774e-06
6.87589e-05
7.22076e-07
6.95821e-05
-7.95224e-06
7.36697e-05
-1.85595e-05
8.5005e-05
-3.26228e-05
0.000102503
-5.39519e-05
0.000130261
-9.04697e-05
0.000169327
-0.00013272
0.000152628
-0.00011805
-6.62707e-05
-5.09855e-05
-0.000332895
-0.000316194
-3.19851e-05
-0.000132143
-4.53793e-05
-0.000168327
-3.75127e-05
-0.000188227
-1.97196e-05
-2.99005e-05
1.76086e-06
8.51239e-05
1.44664e-05
0.000111191
1.72376e-05
9.32217e-05
1.41196e-05
7.85682e-05
8.55412e-06
7.43243e-05
1.46622e-06
7.66704e-05
-6.10295e-06
8.12389e-05
-1.53971e-05
9.42986e-05
-2.8219e-05
0.000115325
-4.91853e-05
0.000151227
-8.63975e-05
0.000206539
-0.000121031
0.000187262
-9.88535e-05
-8.84485e-05
-3.97563e-05
-0.000391992
-0.00035595
1.24197e-05
2.27693e-06
2.80208e-05
-2.40119e-05
4.07108e-05
-4.06945e-05
4.50473e-05
-4.35501e-05
4.4988e-05
-4.22182e-05
4.52123e-05
-3.83528e-05
4.72556e-05
-3.22684e-05
5.07148e-05
-2.6007e-05
5.48656e-05
-2.0917e-05
5.91526e-05
-1.69673e-05
6.3169e-05
-1.36076e-05
6.6653e-05
-1.04001e-05
6.94347e-05
-6.97959e-06
7.13262e-05
-3.01182e-06
7.21767e-05
1.58136e-06
7.275e-05
5.90209e-06
7.29227e-05
1.08259e-05
7.27837e-05
1.62316e-05
7.273e-05
2.17655e-05
7.29532e-05
2.73725e-05
7.46201e-05
3.43715e-05
8.09938e-05
4.13665e-05
5.63082e-05
0.000100984
2.34638e-05
-2.11868e-05
5.11966e-05
-5.17447e-05
6.60489e-05
-5.55468e-05
6.13524e-05
-3.88536e-05
5.12374e-05
-3.21033e-05
4.54873e-05
-3.26026e-05
4.5457e-05
-3.22381e-05
4.94287e-05
-2.99786e-05
5.54704e-05
-2.69587e-05
6.20953e-05
-2.35922e-05
6.8211e-05
-1.97233e-05
7.30171e-05
-1.52062e-05
7.61315e-05
-1.0094e-05
7.78857e-05
-4.76607e-06
7.91977e-05
2.69379e-07
7.89447e-05
6.15509e-06
7.85469e-05
1.12238e-05
7.80575e-05
1.6721e-05
7.86417e-05
2.11813e-05
8.09608e-05
2.50534e-05
8.58664e-05
2.94658e-05
9.472e-05
3.25129e-05
3.79497e-05
0.000113078
3.36054e-05
-5.47922e-05
6.23654e-05
-8.05047e-05
6.3353e-05
-5.65344e-05
4.25442e-05
-1.80448e-05
2.72184e-05
-1.67775e-05
2.12507e-05
-2.6635e-05
1.99151e-05
-3.09025e-05
2.26177e-05
-3.26812e-05
2.87765e-05
-3.31175e-05
3.71598e-05
-3.19756e-05
4.65464e-05
-2.91098e-05
5.62549e-05
-2.49148e-05
6.58545e-05
-1.96936e-05
7.61865e-05
-1.50981e-05
8.33418e-05
-6.88592e-06
8.63744e-05
3.12248e-06
8.46917e-05
1.29064e-05
8.0814e-05
2.05987e-05
7.9921e-05
2.20743e-05
8.20446e-05
2.29298e-05
8.60456e-05
2.54648e-05
9.14584e-05
2.71001e-05
2.81621e-05
0.000101246
2.68402e-05
-8.16324e-05
1.41602e-05
-6.78248e-05
-5.14784e-07
-4.18594e-05
-1.02301e-05
-8.32949e-06
-1.34671e-05
-1.35405e-05
-1.76354e-05
-2.24667e-05
-2.50142e-05
-2.35237e-05
-3.30116e-05
-2.46838e-05
-4.09574e-05
-2.51715e-05
-4.86929e-05
-2.424e-05
-5.73144e-05
-2.04881e-05
-6.47855e-05
-1.74435e-05
-6.05068e-05
-2.39722e-05
-2.87727e-05
-4.68322e-05
3.09408e-05
-6.65994e-05
6.1678e-05
-2.76148e-05
7.36263e-05
9.58148e-07
8.00493e-05
1.41757e-05
8.72665e-05
1.48571e-05
9.01581e-05
2.00382e-05
9.1007e-05
2.46159e-05
9.32486e-05
2.48586e-05
2.48639e-05
9.65468e-05
-1.99955e-05
-6.16369e-05
-3.18042e-05
-5.60161e-05
-3.83077e-05
-3.5356e-05
-2.28002e-05
-2.3837e-05
-1.39151e-05
-2.24257e-05
-1.35592e-05
-2.28225e-05
-1.54347e-05
-2.16481e-05
-1.85385e-05
-2.15798e-05
-2.15235e-05
-2.21863e-05
-2.23382e-05
-2.34251e-05
-1.99627e-05
-2.28635e-05
-1.91489e-05
-1.82574e-05
-2.91707e-05
-1.39507e-05
-5.30845e-05
-2.29184e-05
-7.94824e-05
-4.02016e-05
-6.74831e-05
-3.96141e-05
-3.93875e-05
-2.71375e-05
1.2684e-05
-3.78958e-05
5.83302e-05
-3.07891e-05
7.59873e-05
2.3811e-06
8.67701e-05
1.38331e-05
9.59468e-05
1.5682e-05
2.04734e-05
0.000100337
-2.58904e-05
-3.57465e-05
-2.733e-05
-5.45766e-05
-2.25024e-05
-4.01836e-05
-1.746e-05
-2.88794e-05
-1.54933e-05
-2.43925e-05
-1.53723e-05
-2.29434e-05
-1.59186e-05
-2.11016e-05
-1.73516e-05
-2.01466e-05
-1.85558e-05
-2.09818e-05
-1.83733e-05
-2.36075e-05
-1.59817e-05
-2.5255e-05
-1.2923e-05
-2.13162e-05
-1.54656e-05
-1.14082e-05
-2.78015e-05
-1.05827e-05
-3.37957e-05
-3.42076e-05
-1.68992e-05
-5.65107e-05
1.00003e-05
-5.4037e-05
2.98589e-05
-5.77543e-05
4.26183e-05
-4.35486e-05
4.58007e-05
-8.01414e-07
3.01407e-05
2.94931e-05
6.71545e-05
-2.13319e-05
1.29826e-06
8.63297e-05
-1.16242e-05
-2.41224e-05
-1.46349e-05
-5.15658e-05
-1.65533e-05
-3.82653e-05
-1.56998e-05
-2.97328e-05
-1.45907e-05
-2.55016e-05
-1.40622e-05
-2.34717e-05
-1.38691e-05
-2.12944e-05
-1.41379e-05
-1.98777e-05
-1.47129e-05
-2.04066e-05
-1.53484e-05
-2.29719e-05
-1.51482e-05
-2.54553e-05
-1.29557e-05
-2.35088e-05
-8.53928e-06
-1.58249e-05
-4.34362e-06
-1.47785e-05
-2.44921e-06
-3.61021e-05
1.22078e-06
-6.01807e-05
1.20888e-05
-6.49051e-05
2.65498e-05
-7.22154e-05
4.81426e-05
-6.51415e-05
8.3841e-05
-3.64999e-05
0.000112247
1.0866e-06
0.000101756
-1.08403e-05
2.41278e-05
7.89264e-05
-7.09699e-06
-1.70254e-05
-1.0961e-05
-4.77017e-05
-1.25363e-05
-3.669e-05
-1.26088e-05
-2.96602e-05
-1.18665e-05
-2.62437e-05
-1.11691e-05
-2.41689e-05
-1.05189e-05
-2.19444e-05
-1.02376e-05
-2.01587e-05
-1.0639e-05
-2.00051e-05
-1.16982e-05
-2.19127e-05
-1.24237e-05
-2.47299e-05
-1.02028e-05
-2.57299e-05
-2.61571e-06
-2.34121e-05
7.37886e-06
-2.47732e-05
1.05595e-05
-3.92828e-05
6.16796e-06
-5.57892e-05
6.86765e-06
-6.56048e-05
1.38213e-05
-7.91692e-05
3.13674e-05
-8.26877e-05
6.55663e-05
-7.06988e-05
0.000114281
-4.76277e-05
0.000125641
-2.22003e-05
2.57996e-05
0.000123969
-5.18904e-06
-1.18363e-05
-8.23178e-06
-4.4659e-05
-9.30407e-06
-3.56176e-05
-9.75649e-06
-2.92077e-05
-9.50827e-06
-2.64918e-05
-8.94484e-06
-2.47322e-05
-8.0636e-06
-2.28255e-05
-7.13053e-06
-2.10916e-05
-6.61118e-06
-2.05244e-05
-6.74149e-06
-2.17824e-05
-7.04143e-06
-2.44301e-05
-5.46262e-06
-2.73089e-05
4.0237e-07
-2.92773e-05
8.43918e-06
-3.28102e-05
1.13477e-05
-4.21914e-05
8.81276e-06
-5.32544e-05
7.20198e-06
-6.39941e-05
6.23129e-06
-7.81986e-05
1.48466e-05
-9.13031e-05
3.34982e-05
-8.93505e-05
6.13921e-05
-7.55215e-05
8.43582e-05
-4.51664e-05
5.87096e-06
0.000104287
-3.20236e-06
-8.6339e-06
-5.71587e-06
-4.21454e-05
-6.98876e-06
-3.43447e-05
-7.56631e-06
-2.86301e-05
-7.56595e-06
-2.6492e-05
-7.1304e-06
-2.51675e-05
-6.17955e-06
-2.37762e-05
-4.79977e-06
-2.24713e-05
-3.39888e-06
-2.19252e-05
-2.3876e-06
-2.27937e-05
-1.75312e-06
-2.50647e-05
-6.74843e-07
-2.83874e-05
2.14022e-06
-3.20926e-05
5.97602e-06
-3.66461e-05
7.59533e-06
-4.38108e-05
6.30942e-06
-5.19686e-05
3.34947e-06
-6.10343e-05
-1.86513e-06
-7.29841e-05
-5.66799e-06
-8.75003e-05
-5.37802e-06
-8.96404e-05
4.08471e-07
-8.13079e-05
1.59349e-05
-6.06927e-05
-1.61271e-05
3.79334e-05
-1.94103e-06
-6.69287e-06
-4.00834e-06
-4.00781e-05
-5.28129e-06
-3.30717e-05
-5.93007e-06
-2.79812e-05
-6.08495e-06
-2.63371e-05
-5.81353e-06
-2.54389e-05
-5.02389e-06
-2.45658e-05
-3.69064e-06
-2.38045e-05
-2.06452e-06
-2.35514e-05
-5.58134e-07
-2.43002e-05
6.13397e-07
-2.62364e-05
1.48428e-06
-2.92584e-05
2.40323e-06
-3.30116e-05
3.38343e-06
-3.76264e-05
2.92981e-06
-4.33573e-05
5.07983e-07
-4.95469e-05
-3.96493e-06
-5.65615e-05
-1.09888e-05
-6.59604e-05
-2.11907e-05
-7.72984e-05
-2.99049e-05
-8.09262e-05
-3.71833e-05
-7.40295e-05
-4.11507e-05
-5.67254e-05
-2.56525e-05
-3.16256e-05
-1.2027e-06
-5.4902e-06
-2.89884e-06
-3.83821e-05
-4.07934e-06
-3.18912e-05
-4.76234e-06
-2.72982e-05
-5.04708e-06
-2.60523e-05
-4.97834e-06
-2.55076e-05
-4.50583e-06
-2.50383e-05
-3.58716e-06
-2.47232e-05
-2.33251e-06
-2.48061e-05
-1.06183e-06
-2.55709e-05
-8.39621e-08
-2.72144e-05
3.83404e-07
-2.97259e-05
2.90434e-07
-3.29187e-05
-6.18513e-07
-3.67176e-05
-2.80932e-06
-4.11666e-05
-6.37967e-06
-4.59766e-05
-1.17849e-05
-5.11564e-05
-1.96856e-05
-5.80598e-05
-3.09722e-05
-6.60118e-05
-4.10667e-05
-7.08316e-05
-4.83456e-05
-6.67507e-05
-5.28044e-05
-5.22665e-05
-2.92801e-05
-4.91766e-05
-7.68757e-07
-4.72147e-06
-2.18115e-06
-3.69698e-05
-3.27784e-06
-3.07946e-05
-3.97537e-06
-2.66008e-05
-4.36072e-06
-2.56671e-05
-4.4887e-06
-2.53798e-05
-4.3529e-06
-2.51742e-05
-3.93398e-06
-2.51422e-05
-3.29843e-06
-2.54416e-05
-2.64683e-06
-2.62225e-05
-2.25543e-06
-2.76058e-05
-2.37593e-06
-2.96054e-05
-3.16867e-06
-3.2126e-05
-4.78169e-06
-3.51046e-05
-7.44891e-06
-3.84994e-05
-1.13332e-05
-4.20925e-05
-1.68688e-05
-4.56209e-05
-2.51778e-05
-4.97509e-05
-3.65806e-05
-5.4609e-05
-4.90368e-05
-5.83755e-05
-5.82038e-05
-5.75837e-05
-6.07502e-05
-4.97202e-05
-3.54617e-05
-5.45685e-05
-5.55749e-07
-4.1658e-06
-1.74461e-06
-3.57811e-05
-2.7571e-06
-2.97823e-05
-3.46644e-06
-2.58916e-05
-3.94322e-06
-2.51905e-05
-4.23557e-06
-2.50876e-05
-4.36905e-06
-2.50408e-05
-4.36361e-06
-2.51477e-05
-4.27747e-06
-2.55277e-05
-4.23509e-06
-2.62649e-05
-4.4285e-06
-2.74123e-05
-5.0493e-06
-2.89845e-05
-6.23018e-06
-3.09451e-05
-8.09586e-06
-3.32389e-05
-1.07994e-05
-3.57959e-05
-1.44058e-05
-3.84862e-05
-1.8864e-05
-4.11628e-05
-2.48559e-05
-4.3759e-05
-3.36204e-05
-4.58446e-05
-4.5287e-05
-4.67088e-05
-5.76764e-05
-4.51943e-05
-6.72335e-05
-4.0163e-05
-3.08608e-05
-7.18343e-05
-4.6749e-07
-3.69838e-06
-1.49484e-06
-3.47538e-05
-2.44184e-06
-2.88354e-05
-3.16029e-06
-2.51734e-05
-3.71103e-06
-2.464e-05
-4.14012e-06
-2.46587e-05
-4.47709e-06
-2.47039e-05
-4.76055e-06
-2.48642e-05
-5.05027e-06
-2.5238e-05
-5.43772e-06
-2.58773e-05
-6.04393e-06
-2.68059e-05
-7.00132e-06
-2.8027e-05
-8.42954e-06
-2.95168e-05
-1.0447e-05
-3.12213e-05
-1.31834e-05
-3.30595e-05
-1.67622e-05
-3.49073e-05
-2.12721e-05
-3.66529e-05
-2.68968e-05
-3.81344e-05
-3.38319e-05
-3.89094e-05
-4.21459e-05
-3.83949e-05
-5.12977e-05
-3.60424e-05
-5.9951e-05
-3.15096e-05
-2.47172e-05
-6.60945e-05
-4.40437e-07
-3.25804e-06
-1.36408e-06
-3.38304e-05
-2.26628e-06
-2.79334e-05
-2.99267e-06
-2.44472e-05
-3.60396e-06
-2.4029e-05
-4.14234e-06
-2.41205e-05
-4.63479e-06
-2.42116e-05
-5.11842e-06
-2.43806e-05
-5.64978e-06
-2.47065e-05
-6.30278e-06
-2.52242e-05
-7.16442e-06
-2.59441e-05
-8.32961e-06
-2.68616e-05
-9.8965e-06
-2.79497e-05
-1.19647e-05
-2.91531e-05
-1.46189e-05
-3.04052e-05
-1.79561e-05
-3.15701e-05
-2.20779e-05
-3.25311e-05
-2.71013e-05
-3.3111e-05
-3.29586e-05
-3.30522e-05
-3.93081e-05
-3.20453e-05
-4.56262e-05
-2.97242e-05
-5.13432e-05
-2.57924e-05
-2.03773e-05
-5.5683e-05
-4.39027e-07
-2.81909e-06
-1.30087e-06
-3.29687e-05
-2.17729e-06
-2.70572e-05
-2.9118e-06
-2.3713e-05
-3.56954e-06
-2.33715e-05
-4.19356e-06
-2.34967e-05
-4.80617e-06
-2.35991e-05
-5.43808e-06
-2.37487e-05
-6.13529e-06
-2.40092e-05
-6.95918e-06
-2.44002e-05
-7.97401e-06
-2.49292e-05
-9.25743e-06
-2.5578e-05
-1.08854e-05
-2.63216e-05
-1.29275e-05
-2.71109e-05
-1.5454e-05
-2.78786e-05
-1.85053e-05
-2.85188e-05
-2.21217e-05
-2.89146e-05
-2.63151e-05
-2.89175e-05
-3.10315e-05
-2.83358e-05
-3.60761e-05
-2.70007e-05
-4.10656e-05
-2.47345e-05
-4.54562e-05
-2.14018e-05
-1.71334e-05
-4.87e-05
-4.42477e-07
-2.37669e-06
-1.27441e-06
-3.21369e-05
-2.13764e-06
-2.61942e-05
-2.87953e-06
-2.29714e-05
-3.57132e-06
-2.26799e-05
-4.25771e-06
-2.28104e-05
-4.95729e-06
-2.28995e-05
-5.6947e-06
-2.30112e-05
-6.50733e-06
-2.31965e-05
-7.44107e-06
-2.34663e-05
-8.55157e-06
-2.38185e-05
-9.89204e-06
-2.42374e-05
-1.15209e-05
-2.46925e-05
-1.34909e-05
-2.51408e-05
-1.58467e-05
-2.55228e-05
-1.86164e-05
-2.5749e-05
-2.1799e-05
-2.57319e-05
-2.53772e-05
-2.53392e-05
-2.92527e-05
-2.44602e-05
-3.32611e-05
-2.29922e-05
-3.71377e-05
-2.08578e-05
-4.05641e-05
-1.79754e-05
-1.44583e-05
-4.32393e-05
-4.37993e-07
-1.93878e-06
-1.26388e-06
-3.13112e-05
-2.12204e-06
-2.53362e-05
-2.8681e-06
-2.22256e-05
-3.58252e-06
-2.19657e-05
-4.31089e-06
-2.20821e-05
-5.06963e-06
-2.21408e-05
-5.8769e-06
-2.22039e-05
-6.7612e-06
-2.23121e-05
-7.75733e-06
-2.247e-05
-8.90861e-06
-2.26671e-05
-1.02579e-05
-2.2888e-05
-1.18481e-05
-2.31022e-05
-1.37057e-05
-2.32831e-05
-1.58673e-05
-2.33611e-05
-1.83288e-05
-2.32873e-05
-2.10987e-05
-2.29619e-05
-2.41255e-05
-2.23123e-05
-2.73252e-05
-2.12603e-05
-3.0569e-05
-1.97484e-05
-3.36747e-05
-1.77521e-05
-3.64272e-05
-1.5223e-05
-1.22341e-05
-3.86514e-05
-4.21962e-07
-1.51691e-06
-1.25683e-06
-3.04765e-05
-2.11307e-06
-2.44802e-05
-2.85857e-06
-2.14802e-05
-3.58439e-06
-2.124e-05
-4.33548e-06
-2.13311e-05
-5.1243e-06
-2.13519e-05
-5.96682e-06
-2.13613e-05
-6.88572e-06
-2.13931e-05
-7.90863e-06
-2.1447e-05
-9.06486e-06
-2.15108e-05
-1.03873e-05
-2.15655e-05
-1.18973e-05
-2.15922e-05
-1.36277e-05
-2.15526e-05
-1.55861e-05
-2.14027e-05
-1.7781e-05
-2.10923e-05
-2.01767e-05
-2.0566e-05
-2.2742e-05
-1.9747e-05
-2.54099e-05
-1.85923e-05
-2.80776e-05
-1.70807e-05
-3.06134e-05
-1.52164e-05
-3.28741e-05
-1.29625e-05
-1.03536e-05
-3.47548e-05
-3.92799e-07
-1.12421e-06
-1.24518e-06
-2.96243e-05
-2.09883e-06
-2.36267e-05
-2.83806e-06
-2.07411e-05
-3.56533e-06
-2.05127e-05
-4.32454e-06
-2.05718e-05
-5.12509e-06
-2.05513e-05
-5.97875e-06
-2.05076e-05
-6.90313e-06
-2.04687e-05
-7.9195e-06
-2.04306e-05
-9.0512e-06
-2.03791e-05
-1.03165e-05
-2.03002e-05
-1.17359e-05
-2.01728e-05
-1.33258e-05
-1.99627e-05
-1.50904e-05
-1.96379e-05
-1.70236e-05
-1.91588e-05
-1.91079e-05
-1.84815e-05
-2.12977e-05
-1.7557e-05
-2.35407e-05
-1.63493e-05
-2.57609e-05
-1.48606e-05
-2.78648e-05
-1.31126e-05
-2.97538e-05
-1.10736e-05
-8.75067e-06
-3.13567e-05
-3.52286e-07
-7.7202e-07
-1.22276e-06
-2.8754e-05
-2.06933e-06
-2.27802e-05
-2.79707e-06
-2.00134e-05
-3.51695e-06
-1.97928e-05
-4.27156e-06
-1.98171e-05
-5.06767e-06
-1.97551e-05
-5.91389e-06
-1.96613e-05
-6.82421e-06
-1.95583e-05
-7.81446e-06
-1.94404e-05
-8.89661e-06
-1.92969e-05
-1.00872e-05
-1.91096e-05
-1.14037e-05
-1.88563e-05
-1.28517e-05
-1.85147e-05
-1.44313e-05
-1.80582e-05
-1.61356e-05
-1.74544e-05
-1.79457e-05
-1.66712e-05
-1.98231e-05
-1.56795e-05
-2.17229e-05
-1.44495e-05
-2.35913e-05
-1.29923e-05
-2.53647e-05
-1.13392e-05
-2.69665e-05
-9.47178e-06
-7.36576e-06
-2.83514e-05
-3.055e-07
-4.66585e-07
-1.18412e-06
-2.78754e-05
-2.01619e-06
-2.19482e-05
-2.72555e-06
-1.9304e-05
-3.43011e-06
-1.90882e-05
-4.16979e-06
-1.90774e-05
-4.94819e-06
-1.89766e-05
-5.77139e-06
-1.8838e-05
-6.64953e-06
-1.86801e-05
-7.59373e-06
-1.84961e-05
-8.61593e-06
-1.82747e-05
-9.72743e-06
-1.79981e-05
-1.09372e-05
-1.76465e-05
-1.22485e-05
-1.72033e-05
-1.366e-05
-1.66465e-05
-1.51578e-05
-1.59565e-05
-1.67229e-05
-1.5106e-05
-1.83321e-05
-1.40704e-05
-1.99552e-05
-1.28264e-05
-2.15461e-05
-1.14016e-05
-2.30575e-05
-9.82791e-06
-2.44396e-05
-8.08974e-06
-6.14924e-06
-2.56562e-05
-2.50927e-07
-2.1568e-07
-1.12353e-06
-2.70028e-05
-1.93002e-06
-2.11417e-05
-2.61738e-06
-1.86166e-05
-3.30024e-06
-1.84053e-05
-4.01609e-06
-1.83615e-05
-4.7667e-06
-1.8226e-05
-5.55631e-06
-1.80483e-05
-6.39271e-06
-1.78436e-05
-7.28395e-06
-1.76048e-05
-8.23947e-06
-1.73191e-05
-9.26777e-06
-1.69698e-05
-1.03655e-05
-1.65487e-05
-1.15381e-05
-1.60305e-05
-1.27838e-05
-1.54008e-05
-1.40945e-05
-1.46457e-05
-1.54611e-05
-1.37394e-05
-1.68565e-05
-1.26749e-05
-1.8238e-05
-1.1445e-05
-1.96026e-05
-1.0037e-05
-2.09089e-05
-8.52156e-06
-2.21191e-05
-6.87954e-06
-5.0596e-06
-2.32088e-05
-1.91014e-07
-2.46706e-08
-1.03769e-06
-2.61562e-05
-1.81006e-06
-2.03693e-05
-2.46941e-06
-1.79573e-05
-3.12409e-06
-1.77506e-05
-3.80828e-06
-1.76773e-05
-4.52286e-06
-1.75113e-05
-5.27064e-06
-1.73004e-05
-6.05752e-06
-1.70566e-05
-6.89108e-06
-1.67711e-05
-7.77514e-06
-1.6435e-05
-8.7073e-06
-1.60376e-05
-9.69941e-06
-1.55565e-05
-1.07474e-05
-1.49825e-05
-1.18487e-05
-1.42994e-05
-1.3001e-05
-1.34934e-05
-1.41757e-05
-1.25647e-05
-1.53683e-05
-1.14824e-05
-1.65748e-05
-1.02386e-05
-1.77419e-05
-8.8699e-06
-1.88816e-05
-7.38186e-06
-1.99527e-05
-5.80839e-06
-4.06411e-06
-2.09482e-05
-1.18895e-07
9.42132e-08
-9.27043e-07
-2.5348e-05
-1.65907e-06
-1.96373e-05
-2.28394e-06
-1.73324e-05
-2.90303e-06
-1.71315e-05
-3.54813e-06
-1.70322e-05
-4.21885e-06
-1.68405e-05
-4.91782e-06
-1.66014e-05
-5.65108e-06
-1.63232e-05
-6.41648e-06
-1.60056e-05
-7.22014e-06
-1.56313e-05
-8.0673e-06
-1.51903e-05
-8.9562e-06
-1.46675e-05
-9.88528e-06
-1.40533e-05
-1.08516e-05
-1.33331e-05
-1.18427e-05
-1.25023e-05
-1.28629e-05
-1.15445e-05
-1.3897e-05
-1.04484e-05
-1.49137e-05
-9.22192e-06
-1.5932e-05
-7.85151e-06
-1.69276e-05
-6.38633e-06
-1.78955e-05
-4.84045e-06
-3.1537e-06
-1.88059e-05
-3.07248e-08
1.24911e-07
-7.93801e-07
-2.4585e-05
-1.48047e-06
-1.89507e-05
-2.06819e-06
-1.67448e-05
-2.64615e-06
-1.65536e-05
-3.24433e-06
-1.6434e-05
-3.86444e-06
-1.62204e-05
-4.5071e-06
-1.59586e-05
-5.17173e-06
-1.56585e-05
-5.86629e-06
-1.53109e-05
-6.59076e-06
-1.49067e-05
-7.34575e-06
-1.44351e-05
-8.1323e-06
-1.38807e-05
-8.94489e-06
-1.32406e-05
-9.77803e-06
-1.24999e-05
-1.06322e-05
-1.16482e-05
-1.1499e-05
-1.06777e-05
-1.23675e-05
-9.57986e-06
-1.32372e-05
-8.35218e-06
-1.41038e-05
-6.98493e-06
-1.49665e-05
-5.52359e-06
-1.5819e-05
-3.98791e-06
-2.30486e-06
-1.66679e-05
8.36446e-08
4.1236e-08
-6.44815e-07
-2.38566e-05
-1.29323e-06
-1.83023e-05
-1.83524e-06
-1.62028e-05
-2.36254e-06
-1.60263e-05
-2.90783e-06
-1.58887e-05
-3.46798e-06
-1.56602e-05
-4.04359e-06
-1.53829e-05
-4.6396e-06
-1.50624e-05
-5.25549e-06
-1.46949e-05
-5.89279e-06
-1.42692e-05
-6.55216e-06
-1.37756e-05
-7.22574e-06
-1.3207e-05
-7.91711e-06
-1.25491e-05
-8.62031e-06
-1.17968e-05
-9.33223e-06
-1.09363e-05
-1.00462e-05
-9.96377e-06
-1.07578e-05
-8.86816e-06
-1.14719e-05
-7.63804e-06
-1.21721e-05
-6.2848e-06
-1.28871e-05
-4.8085e-06
-1.36253e-05
-3.24965e-06
-1.56487e-06
-1.43652e-05
2.14561e-07
-1.73335e-07
-4.92673e-07
-2.31493e-05
-1.10534e-06
-1.76897e-05
-1.60037e-06
-1.57078e-05
-2.07623e-06
-1.55504e-05
-2.56278e-06
-1.54021e-05
-3.05986e-06
-1.51631e-05
-3.56722e-06
-1.48755e-05
-4.08191e-06
-1.45476e-05
-4.60882e-06
-1.41679e-05
-5.14893e-06
-1.37289e-05
-5.69897e-06
-1.32253e-05
-6.25636e-06
-1.26495e-05
-6.81795e-06
-1.19876e-05
-7.38299e-06
-1.12319e-05
-7.94014e-06
-1.03793e-05
-8.49053e-06
-9.41342e-06
-9.03249e-06
-8.32621e-06
-9.55274e-06
-7.1178e-06
-1.00689e-05
-5.76865e-06
-1.05908e-05
-4.28664e-06
-1.11301e-05
-2.71022e-06
-9.91047e-07
-1.17039e-05
3.64093e-07
-5.37418e-07
-3.4325e-07
-2.2442e-05
-9.35301e-07
-1.70977e-05
-1.38034e-06
-1.52628e-05
-1.80096e-06
-1.51299e-05
-2.23173e-06
-1.49713e-05
-2.66522e-06
-1.47295e-05
-3.09978e-06
-1.44408e-05
-3.5375e-06
-1.41098e-05
-3.97632e-06
-1.37289e-05
-4.41559e-06
-1.32894e-05
-4.85434e-06
-1.27864e-05
-5.29127e-06
-1.22126e-05
-5.72089e-06
-1.15581e-05
-6.13339e-06
-1.08195e-05
-6.52964e-06
-9.98309e-06
-6.90319e-06
-9.03987e-06
-7.24293e-06
-7.9865e-06
-7.55499e-06
-6.80583e-06
-7.83355e-06
-5.49017e-06
-8.08928e-06
-4.03094e-06
-8.35453e-06
-2.44498e-06
-7.17377e-07
-8.62824e-06
5.29673e-07
-1.06707e-06
-2.12777e-07
-2.16996e-05
-7.92897e-07
-1.65176e-05
-1.19203e-06
-1.48637e-05
-1.56783e-06
-1.47541e-05
-1.95029e-06
-1.45889e-05
-2.32896e-06
-1.43508e-05
-2.70173e-06
-1.4068e-05
-3.0687e-06
-1.37427e-05
-3.42946e-06
-1.3368e-05
-3.77785e-06
-1.29409e-05
-4.11686e-06
-1.24474e-05
-4.44073e-06
-1.18888e-05
-4.74156e-06
-1.12573e-05
-5.01594e-06
-1.05452e-05
-5.25395e-06
-9.7451e-06
-5.44704e-06
-8.84679e-06
-5.58932e-06
-7.84429e-06
-5.6694e-06
-6.72584e-06
-5.68279e-06
-5.47683e-06
-5.6271e-06
-4.08659e-06
-5.52327e-06
-2.54877e-06
-8.65764e-07
-5.37495e-06
7.09096e-07
-1.77619e-06
-1.03125e-07
-2.08875e-05
-6.86646e-07
-1.59342e-05
-1.05711e-06
-1.44933e-05
-1.39868e-06
-1.44124e-05
-1.7475e-06
-1.424e-05
-2.08769e-06
-1.40105e-05
-2.41605e-06
-1.37396e-05
-2.73163e-06
-1.34271e-05
-3.03277e-06
-1.30669e-05
-3.3202e-06
-1.26535e-05
-3.58425e-06
-1.21834e-05
-3.82259e-06
-1.16505e-05
-4.0284e-06
-1.10517e-05
-4.19047e-06
-1.03832e-05
-4.30102e-06
-9.63461e-06
-4.34326e-06
-8.80465e-06
-4.30865e-06
-7.87903e-06
-4.18229e-06
-6.85228e-06
-3.94754e-06
-5.71153e-06
-3.59066e-06
-4.44337e-06
-3.09282e-06
-3.04657e-06
-1.48939e-06
-2.46927e-06
8.91945e-07
-2.6682e-06
-2.1395e-08
-1.99743e-05
-6.24332e-07
-1.53313e-05
-9.70988e-07
-1.41465e-05
-1.30229e-06
-1.4081e-05
-1.63622e-06
-1.39059e-05
-1.95742e-06
-1.36892e-05
-2.26415e-06
-1.34328e-05
-2.55479e-06
-1.31365e-05
-2.82782e-06
-1.27939e-05
-3.07969e-06
-1.24017e-05
-3.30623e-06
-1.19569e-05
-3.49924e-06
-1.14577e-05
-3.64923e-06
-1.09018e-05
-3.74718e-06
-1.02853e-05
-3.77665e-06
-9.60524e-06
-3.72525e-06
-8.85619e-06
-3.57286e-06
-8.03156e-06
-3.29752e-06
-7.12764e-06
-2.87183e-06
-6.13712e-06
-2.26634e-06
-5.04874e-06
-1.47285e-06
-3.84005e-06
-2.51979e-06
-4.42489e-07
1.05047e-06
-3.71876e-06
1.5291e-08
-1.89392e-05
-5.93939e-07
-1.4722e-05
-9.34899e-07
-1.38055e-05
-1.26814e-06
-1.37477e-05
-1.60142e-06
-1.35726e-05
-1.92087e-06
-1.33698e-05
-2.22387e-06
-1.31299e-05
-2.51079e-06
-1.28498e-05
-2.77963e-06
-1.25252e-05
-3.02717e-06
-1.21543e-05
-3.24548e-06
-1.17387e-05
-3.42732e-06
-1.1276e-05
-3.56328e-06
-1.07659e-05
-3.63983e-06
-1.02088e-05
-3.64239e-06
-9.60275e-06
-3.55289e-06
-8.94578e-06
-3.3493e-06
-8.2352e-06
-3.00484e-06
-7.47205e-06
-2.48933e-06
-6.65252e-06
-1.76618e-06
-5.77182e-06
-7.80397e-07
-4.82581e-06
-3.80684e-06
5.06665e-07
1.16346e-06
-4.88225e-06
2.9546e-08
-1.78052e-05
-5.77031e-07
-1.41153e-05
-9.1584e-07
-1.34665e-05
-1.26066e-06
-1.34028e-05
-1.59824e-06
-1.32349e-05
-1.92111e-06
-1.3047e-05
-2.2301e-06
-1.28211e-05
-2.52425e-06
-1.25558e-05
-2.80153e-06
-1.22482e-05
-3.05581e-06
-1.19002e-05
-3.28204e-06
-1.15127e-05
-3.47162e-06
-1.10865e-05
-3.6143e-06
-1.06233e-05
-3.69759e-06
-1.01255e-05
-3.70468e-06
-9.59567e-06
-3.61662e-06
-9.03385e-06
-3.41192e-06
-8.43986e-06
-3.06093e-06
-7.82295e-06
-2.52547e-06
-7.1879e-06
-1.76638e-06
-6.53085e-06
-7.31461e-07
-5.86063e-06
-5.18565e-06
6.47491e-07
1.22376e-06
-6.10598e-06
3.09e-08
-1.66123e-05
-5.54051e-07
-1.35303e-05
-8.87946e-07
-1.31325e-05
-1.2409e-06
-1.30498e-05
-1.57537e-06
-1.29005e-05
-1.89793e-06
-1.27245e-05
-2.20816e-06
-1.2511e-05
-2.5052e-06
-1.22589e-05
-2.78565e-06
-1.19679e-05
-3.04503e-06
-1.16409e-05
-3.27675e-06
-1.1281e-05
-3.47323e-06
-1.08901e-05
-3.62467e-06
-1.04718e-05
-3.71788e-06
-1.00323e-05
-3.73797e-06
-9.57558e-06
-3.66717e-06
-9.10463e-06
-3.4785e-06
-8.6285e-06
-3.14656e-06
-8.15482e-06
-2.63767e-06