/*--------------------------------*- C++ -*----------------------------------*\
| =========                 |                                                 |
| \\      /  F ield         | OpenFOAM: The Open Source CFD Toolbox           |
|  \\    /   O peration     | Version:  2012                                  |
|   \\  /    A nd           | Website:  www.openfoam.com                      |
|    \\/     M anipulation  |                                                 |
\*---------------------------------------------------------------------------*/
FoamFile
{
    version     2.0;
    format      ascii;
    class       volScalarField;
    location    "0.7";
    object      maxKappa;
}
// * * * * * * * * * * * * * * * * * * * * * * * * * * * * * * * * * * * * * //

dimensions      [0 0 0 0 0 0 0];


internalField   nonuniform List<scalar> 
160
(
5.808724732e-05
0.0001193065478
0.0001766436175
0.0002397976495
0.0003004522132
0.0003606548765
0.0004209978456
0.0004811222628
0.0005415992464
0.0006016759402
0.0006623201189
0.0007223835599
0.0007832643204
0.000843276402
0.0009045969687
0.0009641976803
0.001026796117
0.00108329796
0.001151713034
0.00120284231
0.001286610234
0.001313051244
0.001396006555
0.001411520679
0.001462523957
0.001547653866
0.001614602957
0.001686257219
0.001746525646
0.001809588645
0.001867272639
0.001929382345
0.001988170015
0.002049832943
0.002108344738
0.00216190663
0.002230049577
0.00231046823
0.002335659029
0.002423144242
0.002457675154
0.002524958836
0.002584345217
0.002644440382
0.002701844842
0.002760993448
0.002818170222
0.002876150487
0.002932851413
0.002989394188
0.003045610568
0.003099384714
0.003156767677
0.003208893461
0.003259865164
0.003308891919
0.003355311889
0.003408773917
0.003470473529
0.003529944126
0.003593362307
0.003624429045
0.003663705987
0.003719711663
0.003772082372
0.003819664964
0.003876329602
0.003933902838
0.004004897342
0.004052908014
0.004126781504
0.004204769348
0.004286689308
0.00437756493
0.004469709767
0.004548889666
0.004636984698
0.004672987838
0.004729732799
0.004731519304
0.004749927551
0.004760186101
0.004760186101
0.004735261818
0.00471604629
0.004655388189
0.004578596778
0.004476954808
0.004337066729
0.004163873738
0.003935771854
0.003645741283
0.003300995341
0.00289171519
0.002422803336
0.001918570305
0.001465532283
0.001118310562
0.0008694707217
0.000725913749
0.0006569223748
0.0006416286047
0.0006576490437
0.0007110440779
0.0008079343506
0.0009683010793
0.00118834501
0.001474994465
0.001826375758
0.002236269464
0.002682186713
0.003093888738
0.003411243907
0.003643100376
0.003799860784
0.003902565346
0.003946997192
0.003963251024
0.003963251024
0.003936855802
0.003894160541
0.00382292334
0.003755025403
0.003626299074
0.00355469526
0.003409716301
0.003279783505
0.00316244287
0.002995567327
0.002905761635
0.002776895451
0.002694358422
0.002597985683
0.002511184961
0.00242585888
0.002340104029
0.002252073246
0.002167177231
0.002081403951
0.001991439583
0.00190397875
0.001811751953
0.001719230621
0.001626817553
0.001535243114
0.001442662005
0.001342637877
0.001253709079
0.001178214646
0.001055503869
0.0009682197436
0.0008734642967
0.0007566109659
0.0006848068889
0.0006097658014
0.0004847391873
0.0003883944473
0.0002969478284
0.0001860761051
0.0001163294066
)
;

boundaryField
{
    sides
    {
        type            calculated;
        value           uniform 0;
    }
    empty1
    {
        type            empty;
    }
    empty2
    {
        type            empty;
    }
}


// ************************************************************************* //
