/*--------------------------------*- C++ -*----------------------------------*\
| =========                 |                                                 |
| \\      /  F ield         | OpenFOAM: The Open Source CFD Toolbox           |
|  \\    /   O peration     | Version:  2012                                  |
|   \\  /    A nd           | Website:  www.openfoam.com                      |
|    \\/     M anipulation  |                                                 |
\*---------------------------------------------------------------------------*/
FoamFile
{
    version     2.0;
    format      ascii;
    class       volScalarField;
    location    "0.7";
    object      p;
}
// * * * * * * * * * * * * * * * * * * * * * * * * * * * * * * * * * * * * * //

dimensions      [1 -1 -2 0 0 0 0];


internalField   nonuniform List<scalar> 
160
(
91508.04175
91522.37205
91521.67941
91523.96205
91519.51572
91524.70672
91518.99028
91526.41142
91518.79817
91528.3375
91518.76765
91530.39543
91518.85835
91532.55527
91519.08006
91534.8565
91519.55295
91537.34498
91520.62815
91540.87841
91520.8149
91527.21157
91522.33698
91541.48366
91527.89435
91539.1883
91553.51895
91529.27738
91553.43549
91529.202
91555.4253
91530.78849
91557.71811
91532.59857
91560.49144
91534.00998
91561.90512
91534.51808
91555.21413
91537.49583
91562.94108
91540.2265
91566.6363
91543.23104
91569.89797
91547.86951
91573.33828
91553.00757
91576.75327
91558.69904
91580.15357
91564.93393
91583.40946
91572.37332
91586.53877
91579.45922
91586.6628
91589.34273
91591.54644
91593.23429
91596.97425
91607.08607
91600.96622
91618.18836
91601.60953
91629.51455
91603.79403
91642.95548
91606.39936
91660.02929
91608.0286
91678.99269
91603.38344
91701.73103
91590.39714
91734.09763
91566.17943
91791.04223
91558.07996
91848.69101
91585.98901
92001.88015
91716.55374
92220.45637
92033.3325
92628.83146
92543.82322
94123.23638
94643.27605
95282.67868
97698.23783
98929.86721
103126.3969
105719.348
112627.5506
117118.0889
126372.7849
132686.4744
143383.3955
150658.7294
161007.7312
166837.6416
175066.2706
182545.7944
194108.6202
201027.728
212105.9298
217662.8732
227754.7671
231435.3759
239730.2604
241468.4821
245886.8607
245662.8655
250283.5748
249441.4737
251316.1267
250280.8742
252211.5082
250861.5558
252787.4909
251351.3953
253088.9374
251830.5867
253033.0331
252145.7802
252833.6983
252281.6341
252724.9917
252349.8765
252684.6374
252399.4614
252668.4589
252444.5291
252657.5379
252482.9274
252646.6072
252513.2883
252635.2884
252537.0126
252629.411
252555.7195
252625.0588
252569.6487
252622.0414
252579.351
252615.0353
252590.1008
252619.2194
252604.0369
252625.2419
252603.8797
252615.2452
252608.4324
252601.8623
252621.3073
252616.888
252619.0513
252629.0127
252660.2654
)
;

boundaryField
{
    sides
    {
        type            zeroGradient;
    }
    empty1
    {
        type            empty;
    }
    empty2
    {
        type            empty;
    }
}


// ************************************************************************* //
