/*--------------------------------*- C++ -*----------------------------------*\
| =========                 |                                                 |
| \\      /  F ield         | OpenFOAM: The Open Source CFD Toolbox           |
|  \\    /   O peration     | Version:  2012                                  |
|   \\  /    A nd           | Website:  www.openfoam.com                      |
|    \\/     M anipulation  |                                                 |
\*---------------------------------------------------------------------------*/
FoamFile
{
    version     2.0;
    format      ascii;
    class       volScalarField;
    location    "0.7";
    object      rho;
}
// * * * * * * * * * * * * * * * * * * * * * * * * * * * * * * * * * * * * * //

dimensions      [1 -3 0 0 0 0 0];


internalField   nonuniform List<scalar> 
160
(
1.214879855
1.215098714
1.215161489
1.215243496
1.215450106
1.215599422
1.215916467
1.216127437
1.216551208
1.216822919
1.217353542
1.217685733
1.218322909
1.218715343
1.219459307
1.219912317
1.220766386
1.221279794
1.222253079
1.222830974
1.223857707
1.224269511
1.225540128
1.226133728
1.227070894
1.227833111
1.228445257
1.229648219
1.230378107
1.231706269
1.232483501
1.23386638
1.234665742
1.236080511
1.236902318
1.238328746
1.239161001
1.240660723
1.241404245
1.243038322
1.243835302
1.245284948
1.246075702
1.247442732
1.24822681
1.249546714
1.250298226
1.251541581
1.252245691
1.253382881
1.254023741
1.255021123
1.255580711
1.256405854
1.256860201
1.257468026
1.257819495
1.258136762
1.258441564
1.258806812
1.259342169
1.259893915
1.260737741
1.261600227
1.263260123
1.265173614
1.268600385
1.272876526
1.279785011
1.288859945
1.303128775
1.323025761
1.354333339
1.401990513
1.478639181
1.602459122
1.803479605
2.132375879
2.662362537
3.529406265
4.906465323
7.107876485
10.59457613
15.99036534
24.15956184
36.21382714
53.5705108
77.72904313
110.5921057
153.9690466
209.6525077
278.9508731
362.9029736
461.4519308
573.8524265
689.8391619
782.5383791
849.7428323
893.6077369
917.675315
927.0401668
928.1496452
925.67762
916.9878758
898.7745156
868.0801667
822.6403547
760.7792592
681.9977112
586.7045534
477.0156129
362.1479989
267.9078802
195.0292982
139.6606739
98.68400871
68.49037565
46.92063023
31.77184905
21.31774838
14.27828302
9.616790794
6.683736988
4.886913297
3.854278811
3.263339667
2.933145107
2.751174637
2.64816049
2.596683558
2.56461699
2.550203345
2.536988334
2.531051916
2.522802829
2.518980221
2.512852558
2.510018616
2.505348203
2.503256858
2.499787116
2.498226906
2.495697509
2.494539
2.492706752
2.491833297
2.490472351
2.489898961
2.488833498
2.488429059
2.48769267
2.487307595
2.486857059
2.486536147
2.486264277
2.486007815
2.485902801
2.485750031
2.485853699
2.486192924
)
;

boundaryField
{
    sides
    {
        type            calculated;
        value           nonuniform List<scalar> 2(2.486192924 1.214879855);
    }
    empty1
    {
        type            empty;
    }
    empty2
    {
        type            empty;
    }
}


// ************************************************************************* //
