/*--------------------------------*- C++ -*----------------------------------*\
| =========                 |                                                 |
| \\      /  F ield         | OpenFOAM: The Open Source CFD Toolbox           |
|  \\    /   O peration     | Version:  2012                                  |
|   \\  /    A nd           | Website:  www.openfoam.com                      |
|    \\/     M anipulation  |                                                 |
\*---------------------------------------------------------------------------*/
FoamFile
{
    version     2.0;
    format      ascii;
    class       volVectorField;
    location    "0.7";
    object      U;
}
// * * * * * * * * * * * * * * * * * * * * * * * * * * * * * * * * * * * * * //

dimensions      [0 1 -1 0 0 0 0];


internalField   nonuniform List<vector> 
160
(
(0.02978654889 0 0)
(0.1274338069 0 0)
(0.1132497614 0 0)
(0.2777121863 0 0)
(0.2461997216 0 0)
(0.4104117413 0 0)
(0.3772672655 0 0)
(0.5417272364 0 0)
(0.508752655 0 0)
(0.6731231674 0 0)
(0.6403985236 0 0)
(0.8044922059 0 0)
(0.7721870314 0 0)
(0.935773544 0 0)
(0.9042266863 0 0)
(1.066565247 0 0)
(1.037297375 0 0)
(1.194121858 0 0)
(1.174713316 0 0)
(1.318008193 0 0)
(1.302730392 0 0)
(1.421327173 0 0)
(1.490152408 0 0)
(1.484579899 0 0)
(1.615729436 0 0)
(1.565760969 0 0)
(1.759890418 0 0)
(1.764202441 0 0)
(1.888243022 0 0)
(1.900094458 0 0)
(2.015319611 0 0)
(2.029649568 0 0)
(2.140988568 0 0)
(2.157858251 0 0)
(2.26747122 0 0)
(2.280501049 0 0)
(2.402724308 0 0)
(2.422899729 0 0)
(2.500338181 0 0)
(2.577713154 0 0)
(2.594277775 0 0)
(2.717445389 0 0)
(2.698372216 0 0)
(2.847610503 0 0)
(2.82017121 0 0)
(2.970473462 0 0)
(2.940279181 0 0)
(3.091759805 0 0)
(3.059058577 0 0)
(3.210720446 0 0)
(3.176613484 0 0)
(3.326258134 0 0)
(3.292865389 0 0)
(3.440491533 0 0)
(3.404131107 0 0)
(3.551768949 0 0)
(3.504155906 0 0)
(3.651106387 0 0)
(3.625928602 0 0)
(3.773010274 0 0)
(3.743318203 0 0)
(3.873729654 0 0)
(3.853509309 0 0)
(3.969981717 0 0)
(3.940990486 0 0)
(4.074115598 0 0)
(4.034230003 0 0)
(4.167946161 0 0)
(4.128733918 0 0)
(4.245848354 0 0)
(4.215162746 0 0)
(4.315697381 0 0)
(4.270456093 0 0)
(4.37719017 0 0)
(4.289894891 0 0)
(4.396998804 0 0)
(4.293996674 0 0)
(4.367229842 0 0)
(4.319331497 0 0)
(4.341302472 0 0)
(4.363280405 0 0)
(4.357607934 0 0)
(4.405743171 0 0)
(4.398258322 0 0)
(4.431223999 0 0)
(4.422819728 0 0)
(4.442618026 0 0)
(4.424228651 0 0)
(4.447835738 0 0)
(4.435060699 0 0)
(4.43932008 0 0)
(4.44178826 0 0)
(4.438533708 0 0)
(4.445481462 0 0)
(4.438848669 0 0)
(4.446253647 0 0)
(4.440012472 0 0)
(4.445356288 0 0)
(4.441489017 0 0)
(4.443923307 0 0)
(4.442203409 0 0)
(4.442007922 0 0)
(4.443371603 0 0)
(4.441439386 0 0)
(4.444673399 0 0)
(4.439887955 0 0)
(4.445770719 0 0)
(4.438403183 0 0)
(4.445944548 0 0)
(4.437049108 0 0)
(4.443633775 0 0)
(4.436429095 0 0)
(4.438874974 0 0)
(4.436004263 0 0)
(4.42690975 0 0)
(4.434633794 0 0)
(4.405736821 0 0)
(4.410563694 0 0)
(4.356081801 0 0)
(4.36941432 0 0)
(4.273397054 0 0)
(4.330328153 0 0)
(4.149235285 0 0)
(4.352279782 0 0)
(4.046434593 0 0)
(4.423156593 0 0)
(4.04162204 0 0)
(4.357777919 0 0)
(4.005524484 0 0)
(4.149098969 0 0)
(3.857886505 0 0)
(3.907721613 0 0)
(3.649760982 0 0)
(3.669372339 0 0)
(3.421525835 0 0)
(3.428251992 0 0)
(3.182912443 0 0)
(3.184166614 0 0)
(2.928811879 0 0)
(2.938475847 0 0)
(2.660964127 0 0)
(2.680512269 0 0)
(2.395029203 0 0)
(2.408580651 0 0)
(2.127666783 0 0)
(2.125967704 0 0)
(1.858469993 0 0)
(1.856986346 0 0)
(1.553706945 0 0)
(1.602311752 0 0)
(1.252030304 0 0)
(1.305533233 0 0)
(0.9989859287 0 0)
(1.024466622 0 0)
(0.704826497 0 0)
(0.7495927501 0 0)
(0.3975029987 0 0)
(0.45149535 0 0)
(0.1215318269 0 0)
(0.230560659 0 0)
)
;

boundaryField
{
    sides
    {
        type            fixedValue;
        value           uniform (0 0 0);
    }
    empty1
    {
        type            empty;
    }
    empty2
    {
        type            empty;
    }
}


// ************************************************************************* //
