/*--------------------------------*- C++ -*----------------------------------*\
| =========                 |                                                 |
| \\      /  F ield         | OpenFOAM: The Open Source CFD Toolbox           |
|  \\    /   O peration     | Version:  2012                                  |
|   \\  /    A nd           | Website:  www.openfoam.com                      |
|    \\/     M anipulation  |                                                 |
\*---------------------------------------------------------------------------*/
FoamFile
{
    version     2.0;
    format      ascii;
    class       volScalarField;
    location    "0.88";
    object      maxKappa;
}
// * * * * * * * * * * * * * * * * * * * * * * * * * * * * * * * * * * * * * //

dimensions      [0 0 0 0 0 0 0];


internalField   nonuniform List<scalar> 
2268
(
2.13159e-06
4.06831e-06
5.86298e-06
7.37462e-06
8.55296e-06
9.40905e-06
9.95836e-06
1.02484e-05
1.03706e-05
1.03706e-05
1.03219e-05
1.00551e-05
9.62411e-06
8.96572e-06
8.01648e-06
6.71129e-06
4.97074e-06
2.87692e-06
1.9945e-06
3.58826e-06
3.58826e-06
3.47028e-06
2.55933e-06
2.64762e-06
4.35772e-06
6.07278e-06
7.52101e-06
8.63715e-06
9.45324e-06
9.99578e-06
1.02966e-05
1.04038e-05
1.04038e-05
1.03449e-05
1.00915e-05
9.68187e-06
9.05702e-06
8.13032e-06
6.8477e-06
5.17527e-06
3.26267e-06
2.39061e-06
3.72471e-06
3.76939e-06
3.76939e-06
3.13425e-06
3.3074e-06
4.75368e-06
6.32142e-06
7.72735e-06
8.85897e-06
9.68356e-06
1.02049e-05
1.04648e-05
1.05098e-05
1.05098e-05
1.04103e-05
1.01869e-05
9.82656e-06
9.22067e-06
8.34872e-06
7.15159e-06
5.65592e-06
4.09927e-06
3.67477e-06
4.8494e-06
4.8494e-06
4.60431e-06
3.58286e-06
4.21225e-06
5.43019e-06
6.84903e-06
8.10798e-06
9.09739e-06
9.8327e-06
1.03122e-05
1.05545e-05
1.05822e-05
1.05822e-05
1.05153e-05
1.03341e-05
1.00085e-05
9.48879e-06
8.71529e-06
7.63744e-06
6.32786e-06
5.02276e-06
4.5575e-06
5.63596e-06
5.90969e-06
5.90969e-06
5.62192e-06
5.09019e-06
6.13111e-06
7.38107e-06
8.58117e-06
9.58431e-06
1.03018e-05
1.07146e-05
1.08393e-05
1.08393e-05
1.07645e-05
1.0643e-05
1.05107e-05
1.02895e-05
9.82131e-06
9.15874e-06
8.23311e-06
7.1778e-06
6.25402e-06
6.57106e-06
7.75054e-06
7.75054e-06
7.55516e-06
6.93949e-06
6.18261e-06
7.06366e-06
8.19234e-06
9.20022e-06
9.99117e-06
1.0571e-05
1.08934e-05
1.09668e-05
1.09668e-05
1.08769e-05
1.08273e-05
1.07515e-05
1.05655e-05
1.02635e-05
9.76946e-06
9.01144e-06
8.19357e-06
7.5616e-06
8.14466e-06
8.9126e-06
9.08465e-06
9.84484e-06
9.84484e-06
7.20561e-06
7.96161e-06
8.88958e-06
9.84126e-06
1.06654e-05
1.12232e-05
1.14581e-05
1.14581e-05
1.13501e-05
1.10942e-05
1.09563e-05
1.0992e-05
1.0992e-05
1.08079e-05
1.04515e-05
9.86857e-06
9.34319e-06
9.42934e-06
1.05551e-05
1.07427e-05
1.07427e-05
1.17545e-05
1.17545e-05
8.54639e-06
9.28529e-06
1.01753e-05
1.08713e-05
1.13745e-05
1.17032e-05
1.17523e-05
1.17523e-05
1.15096e-05
1.11977e-05
1.1264e-05
1.13588e-05
1.13643e-05
1.13643e-05
1.11552e-05
1.08172e-05
1.09888e-05
1.14675e-05
1.19819e-05
1.31533e-05
1.15721e-05
1.49975e-05
1.49975e-05
0.000115784
0.000237611
0.000482313
0.000672651
0.00141068
0.00245555
0.00261994
0.00261994
0.00160743
0.000472807
0.000150802
5.7759e-05
6.40583e-05
8.79779e-05
8.79779e-05
8.70916e-05
6.8272e-05
5.47627e-05
3.44499e-05
0.000115854
0.000233391
0.000879272
0.00192894
0.00251827
0.00260513
0.00260513
0.00220266
0.00128119
0.000213512
5.56975e-05
5.7554e-05
0.000126085
0.000316703
0.000316703
0.000203154
0.000169584
0.00010343
3.23755e-05
0.000231086
0.000478233
0.000951792
0.00175637
0.00176076
0.00176076
0.00153299
0.00146734
0.00108389
0.000184252
6.3818e-05
8.7556e-05
0.000124235
0.000246255
0.000459652
0.000459652
0.000324363
0.000143975
3.32329e-05
0.000356418
0.000664544
0.000814941
0.000814941
0.000637076
0.000363495
0.000636551
0.000895968
0.000895968
0.000194894
0.000126857
0.000326029
0.000326029
0.000268752
0.000244873
0.000417161
0.000417161
0.000195875
3.38401e-05
0.000185999
0.000386368
0.000489525
0.000489525
0.000310373
9.24461e-05
0.000332087
0.000493899
0.000493899
0.000196988
8.16071e-05
6.81556e-05
0.000354823
0.000372613
0.000372613
0.000182094
0.000122828
3.9661e-05
1.66638e-05
0.0001268
0.0001268
0.000195094
0.000230833
0.000230833
9.7338e-05
0.000197695
0.000197695
0.000106468
8.85782e-05
6.32292e-05
5.63538e-05
0.000205858
0.000399053
0.000399053
0.000227212
4.28193e-05
1.95211e-05
1.04998e-05
0.000135372
0.000141499
0.000335684
0.000335684
0.000292384
0.000180404
8.381e-05
0.000105252
5.80074e-05
5.79429e-05
6.95552e-05
0.000202751
0.00037492
0.00037492
0.000342108
0.00028497
9.44075e-05
2.67927e-05
5.35155e-06
0.000161277
0.000274522
0.000411224
0.000411224
0.000385413
0.000385413
0.000120326
5.395e-05
5.05242e-05
6.14591e-05
0.000133229
0.000563817
0.000770586
0.000770586
0.000703731
0.000439336
0.00017952
3.51285e-05
2.1443e-05
1.19334e-05
1.2332e-05
1.29948e-05
1.3596e-05
1.3745e-05
1.35069e-05
1.32766e-05
1.56702e-05
1.56085e-05
1.48364e-05
1.49368e-05
1.49428e-05
1.57499e-05
1.69867e-05
1.78042e-05
1.82759e-05
2.37082e-05
3.51526e-05
6.72324e-05
0.000143374
0.000131749
7.08789e-05
3.26361e-05
1.58229e-05
1.63364e-05
1.67831e-05
1.8143e-05
2.43184e-05
4.22666e-05
5.36341e-05
0.000109012
9.16693e-05
5.35116e-05
6.43639e-05
7.38209e-05
7.01436e-05
6.86731e-05
7.68705e-05
9.10958e-05
0.000167377
0.00027033
0.000392613
0.000377961
0.000299837
0.000148894
0.000102893
3.09563e-05
3.73654e-05
4.17659e-05
4.79667e-05
0.0001471
0.0004753
0.000693246
0.000638518
0.000507557
0.000236679
0.000226795
0.000240598
0.000212773
0.00026084
0.000273704
0.000380419
0.000488717
0.000545419
0.000557604
0.000488114
0.000381313
0.000172475
0.000102893
0.000213407
0.000243107
0.000265969
0.000428676
0.000758913
0.00103619
0.0010157
0.0010157
0.0008816
0.000863923
0.00055671
0.000355762
0.000315725
0.000417569
0.000404014
0.000417126
0.000478963
0.000581914
0.000567802
0.000523911
0.000414601
0.00018631
6.72762e-05
0.000664424
0.000522628
0.000680208
0.00135792
0.00181369
0.0013569
0.00108563
0.00102646
0.00106573
0.00156858
0.00139658
0.00102933
0.000659381
0.000559904
0.000382676
0.000473808
0.000642177
0.000823679
0.000736402
0.000608686
0.000353855
9.70353e-05
9.08746e-05
0.00102473
0.00081285
0.00143324
0.00219357
0.00228184
0.0017994
0.00128543
0.00125937
0.00153029
0.00189271
0.00189271
0.00179112
0.00141789
0.00121143
0.00088388
0.000981257
0.001079
0.00107971
0.00118712
0.000926729
0.000579491
0.000132116
9.15326e-05
0.00148994
0.00116807
0.00190722
0.00260181
0.00242837
0.00205504
0.00149958
0.00156553
0.00167856
0.001936
0.00173942
0.00160766
0.00177666
0.00177666
0.00149748
0.00134638
0.00131687
0.00125738
0.00130015
0.00132826
0.00106056
0.000661342
0.0001293
0.00198043
0.00142301
0.00221239
0.00261551
0.00239617
0.00159004
0.00142554
0.00152728
0.00167814
0.001936
0.0018131
0.00159399
0.00159408
0.00170749
0.0014814
0.00135089
0.00122954
0.00126514
0.0014186
0.00145488
0.00145488
0.00121969
0.000638218
0.00247077
0.0018738
0.00226178
0.00261551
0.00214519
0.00152999
0.00140779
0.00140348
0.00149475
0.00156131
0.00153116
0.00155703
0.00152573
0.00154321
0.00147075
0.001338
0.00113211
0.00107549
0.00107952
0.00132229
0.00131473
0.00112574
0.000761425
0.002692
0.00219584
0.0026346
0.0023775
0.00207811
0.00146145
0.00121407
0.00111997
0.00120116
0.00118657
0.00126799
0.00135697
0.00134668
0.00141607
0.00145059
0.0012445
0.00104102
0.000983328
0.000936565
0.000972145
0.00107712
0.000837553
0.000691039
0.00275386
0.00258282
0.00293697
0.00258074
0.00201614
0.00125497
0.000866305
0.000791475
0.000863261
0.000822046
0.000897899
0.000947633
0.00105817
0.00111924
0.00111236
0.00106299
0.00116783
0.00116783
0.00107058
0.000997281
0.000945372
0.000924418
0.000813326
0.00320986
0.00287367
0.00301392
0.00258408
0.00180565
0.000933566
0.000638913
0.000610996
0.000656952
0.00059491
0.000618654
0.000617555
0.000686972
0.000705708
0.000734369
0.000738979
0.000944535
0.00100475
0.000973363
0.000937646
0.000798812
0.000824366
0.000840677
0.00364717
0.00323756
0.00302215
0.00250376
0.00148288
0.00056594
0.000471853
0.000541045
0.000550893
0.000492618
0.000455578
0.000446808
0.00048237
0.000491289
0.000493258
0.000441351
0.00054912
0.00073676
0.000809851
0.000835616
0.000702123
0.00076252
0.000840677
0.00414573
0.00361632
0.00317536
0.00233909
0.00114201
0.000408137
0.000475396
0.000577004
0.000513908
0.00046128
0.000395659
0.000359979
0.000392805
0.000420626
0.000428608
0.000429499
0.000480081
0.000523163
0.000596528
0.000658668
0.000599252
0.000667586
0.000791238
0.00487246
0.00422484
0.00321944
0.00211695
0.000844815
0.000544821
0.000551492
0.000603349
0.000534063
0.000440185
0.000343146
0.000311693
0.000301453
0.000328059
0.000350295
0.000369096
0.000395149
0.000460379
0.00051155
0.000557468
0.000581388
0.00065046
0.000711243
0.00506915
0.00448405
0.00314751
0.00183828
0.000700032
0.000743993
0.000642097
0.000604961
0.00051713
0.000395004
0.000307353
0.000262448
0.000246653
0.000279272
0.000297971
0.000333902
0.000375472
0.000413331
0.000456096
0.000512053
0.000541055
0.000614523
0.000678865
0.00506915
0.00442468
0.00300828
0.00165444
0.000899599
0.000877312
0.000750417
0.000619956
0.000477085
0.000347898
0.00025577
0.000217129
0.000190699
0.000216394
0.000240452
0.000285466
0.000327119
0.000385896
0.000441058
0.000485071
0.000520042
0.00056151
0.000624137
0.00469878
0.00394609
0.00276671
0.00171134
0.00113486
0.000982601
0.000792435
0.000594055
0.000431225
0.00030225
0.00020665
0.000152858
0.000124877
0.000161238
0.000211812
0.0002655
0.000314105
0.000361101
0.000409516
0.000457247
0.00050102
0.000542525
0.000577981
0.00429523
0.00352669
0.0025729
0.00181458
0.00131602
0.001045
0.000782621
0.000581475
0.000421817
0.000293363
0.000186433
9.73443e-05
6.75837e-05
0.000133596
0.000195715
0.000255925
0.000314112
0.000367712
0.000415885
0.00045832
0.000494799
0.000527759
0.000557233
0.0036729
0.00292765
0.00232369
0.00176647
0.00130988
0.00100759
0.000754702
0.000572057
0.000417217
0.000294153
0.000190693
0.000108157
0.000101571
0.000139921
0.000199684
0.000255904
0.00030965
0.000359667
0.000405946
0.000447955
0.000485038
0.000517342
0.00054227
0.00282857
0.0023821
0.00200093
0.00158616
0.0012314
0.000967016
0.000753096
0.000589437
0.000448288
0.000333747
0.000239053
0.000181921
0.000177207
0.000191465
0.000234879
0.000285572
0.000336284
0.000382602
0.000424815
0.000462776
0.000501356
0.000538302
0.000575922
0.00210576
0.00199771
0.00167177
0.00138107
0.00113314
0.000919816
0.000745616
0.000601438
0.000478788
0.000379845
0.000307788
0.000262529
0.00025473
0.00025975
0.000290213
0.000323118
0.000366461
0.000407432
0.000453977
0.000498606
0.000548137
0.000595783
0.000641004
0.00168466
0.00166995
0.00143529
0.00124545
0.00107069
0.000905658
0.000763131
0.000637188
0.000528784
0.000438942
0.000382745
0.000343547
0.000332886
0.000332569
0.000353928
0.000379599
0.000417627
0.000457565
0.000507966
0.000561689
0.000621304
0.000671945
0.00070891
0.00144928
0.00144828
0.00128564
0.00115319
0.00102211
0.000891992
0.000775014
0.000669782
0.000579269
0.000503752
0.000458001
0.00042386
0.000411029
0.000407913
0.000423632
0.000446376
0.000483639
0.000529221
0.000588624
0.000650031
0.000705519
0.000736632
0.000754478
0.00130821
0.00130235
0.00119566
0.00110155
0.00100329
0.000900151
0.000802636
0.000711645
0.000632279
0.000573671
0.000533006
0.000502913
0.000489579
0.000486116
0.000500352
0.000524841
0.000567564
0.000622752
0.000686318
0.000736952
0.000760255
0.000767147
0.000777381
0.00121895
0.00120962
0.00113491
0.00106612
0.000990214
0.000908845
0.000830056
0.000755955
0.000690736
0.000643835
0.000607549
0.000581649
0.000569505
0.000568847
0.000586063
0.000617597
0.000668901
0.000726667
0.000773432
0.000783412
0.000779174
0.000779206
0.000789521
0.0011659
0.00115267
0.001106
0.0010552
0.000996005
0.000930173
0.000864229
0.000801786
0.000752879
0.000713506
0.000681832
0.00066075
0.000651781
0.000656886
0.000680774
0.000722429
0.000776194
0.000815411
0.000814506
0.000797089
0.000786185
0.000785619
0.000792275
0.0011383
0.00112289
0.00109158
0.00105236
0.00100591
0.000954385
0.000902076
0.00085613
0.000815473
0.000783307
0.000757014
0.000742041
0.000739418
0.000753414
0.000787223
0.000833257
0.000868004
0.000855866
0.000827876
0.000800965
0.000787432
0.000785619
0.000792275
0.00113004
0.00111831
0.00109654
0.00106556
0.00102774
0.000987778
0.000947932
0.000912952
0.000879827
0.000853938
0.000834079
0.00082657
0.000832023
0.000857082
0.000896842
0.000927143
0.000909577
0.000880173
0.000837716
0.000807621
0.00078894
0.000783279
0.000778007
0.0011419
0.00113318
0.00111368
0.00108989
0.00105978
0.00103016
0.000998677
0.000970964
0.000944857
0.000925897
0.000913733
0.000915134
0.000930602
0.000963745
0.000992624
0.000975543
0.000930864
0.00087568
0.000830011
0.000798395
0.000779321
0.000762833
0.000743514
0.00116342
0.00115762
0.00114333
0.00112477
0.00110139
0.00107813
0.00105348
0.00103176
0.00101251
0.00100037
0.000997101
0.00100695
0.00103144
0.00106162
0.00105086
0.00100725
0.000944234
0.000879032
0.000827693
0.000783774
0.000750576
0.000720232
0.000690221
0.00119311
0.00118906
0.00117861
0.00116447
0.00114686
0.00112936
0.00111105
0.00109544
0.00108319
0.00107858
0.001084
0.00110301
0.00113096
0.0011318
0.00107946
0.00101301
0.000929601
0.000859777
0.000798905
0.00074773
0.000706176
0.00066974
0.000636265
0.00123105
0.00122838
0.00122103
0.00121084
0.00119817
0.00118577
0.00117296
0.00116319
0.00115752
0.00116018
0.00117369
0.0011978
0.00120936
0.00116417
0.00110469
0.00100901
0.000919747
0.000838129
0.000763371
0.000699119
0.000653484
0.000615128
0.000584865
0.00127434
0.00127283
0.00126803
0.00126128
0.00125308
0.00124565
0.00123847
0.00123479
0.00123592
0.00124508
0.00126445
0.00128215
0.00125085
0.00119122
0.00109223
0.000984192
0.000884635
0.000792151
0.000711898
0.000646658
0.000600366
0.000564702
0.00053964
0.00132683
0.00132574
0.0013224
0.00131857
0.00131422
0.00131094
0.00130849
0.00131028
0.0013165
0.00132921
0.00134721
0.0013388
0.00128634
0.00119802
0.00107787
0.000961502
0.000849884
0.000746889
0.000657975
0.00058963
0.000544478
0.000515468
0.000499673
0.00138167
0.00138133
0.00137992
0.00137906
0.00137817
0.00137926
0.00138157
0.00138879
0.00139927
0.00141299
0.0014191
0.00136751
0.00129786
0.00117468
0.00104165
0.00091365
0.000793016
0.000687425
0.000601316
0.000535962
0.000496201
0.000474949
0.000471933
0.00144811
0.00144817
0.00144757
0.0014479
0.00144968
0.00145371
0.0014591
0.00146929
0.00147916
0.00148675
0.00146223
0.00140491
0.00129428
0.00115221
0.0010106
0.000873611
0.000746807
0.000635581
0.000543533
0.000479993
0.000451919
0.000441867
0.000452996
0.00151275
0.00151354
0.00151447
0.0015172
0.00152208
0.00152922
0.00153812
0.00155017
0.0015572
0.00155052
0.00149188
0.00140407
0.00126156
0.00110542
0.000953794
0.000810447
0.000682281
0.000574583
0.000492408
0.000438975
0.000417863
0.000438844
0.000450628
0.00159379
0.00159491
0.00159651
0.00159966
0.00160525
0.00161295
0.00162174
0.00162911
0.00162599
0.0015881
0.00152826
0.00140022
0.00123714
0.00107318
0.000915509
0.000768189
0.000636308
0.000523234
0.000435421
0.000394804
0.000392397
0.000420425
0.000462698
0.00166681
0.00166839
0.00167092
0.00167606
0.00168412
0.00169313
0.00170154
0.0017049
0.00168822
0.00162203
0.00151739
0.00135616
0.00118021
0.00100999
0.00084877
0.00070058
0.000571588
0.000468728
0.000400035
0.000374719
0.000406112
0.00045196
0.000478545
0.00176469
0.00176661
0.00177009
0.00177637
0.00178329
0.00178916
0.0017906
0.00177895
0.00172555
0.00166176
0.00152234
0.00134253
0.00115911
0.000981892
0.000814407
0.000661721
0.000528744
0.00042157
0.000355213
0.000348586
0.000390555
0.000444477
0.00049951
0.00185034
0.00185152
0.00185389
0.00185633
0.00185668
0.00185668
0.0018515
0.0018319
0.00177276
0.00164879
0.00147041
0.00127332
0.0010832
0.000904706
0.000740582
0.00059505
0.000473956
0.000385527
0.000340577
0.000374485
0.000427606
0.000488002
0.00049951
5.31121e-05
4.3113e-05
7.71905e-05
7.30378e-05
0.000150874
9.13997e-05
7.71905e-05
0.000110795
0.000150874
9.22589e-05
0.000108438
0.000140597
9.39087e-05
0.000116667
0.00015647
0.000240608
0.00011161
0.00013041
0.000364783
0.000962031
0.00011161
0.000131787
0.000725919
0.00120812
0.000109654
0.000131787
0.000725919
0.00120812
0.000244651
0.000355786
0.000605272
0.000909679
0.000498196
0.000488343
0.000665887
0.000758058
0.000633158
0.000493924
0.000665887
0.000738976
0.000745549
0.000700326
0.000567382
0.000422653
0.000924171
0.000719352
0.000567382
0.000465238
0.000924171
0.000857855
0.000698828
0.00062913
0.000917519
0.000885154
0.000886287
0.000886322
0.000822366
0.000885154
0.000886287
0.000886727
0.000746538
0.000796445
0.000827592
0.000886727
0.000671484
0.000709526
0.000732479
0.000767524
0.000602071
0.000621722
0.000631872
0.000648515
0.000574306
0.000586464
0.000590728
0.000598701
0.000556362
0.000566105
0.000569437
0.000574284
0.000595258
0.000606154
0.000612847
0.000620015
0.000662827
0.00067549
0.000683793
0.000693339
0.000724028
0.000735877
0.000743545
0.000754903
0.000765263
0.000775463
0.000783446
0.000795095
0.000788539
0.000797801
0.000805432
0.000815241
0.000799086
0.000805522
0.000809892
0.000815241
0.000799086
0.000805522
0.000809892
0.00081489
0.000794907
0.00079546
0.000793424
0.000791024
0.000769356
0.000762057
0.000752637
0.000742474
0.000723818
0.000711599
0.000697176
0.00068396
0.000666506
0.000652477
0.000637967
0.000624735
0.000613595
0.000600382
0.000587919
0.000577059
0.000564905
0.000555045
0.000545806
0.000539518
0.000526091
0.000520389
0.000516428
0.000515026
0.000494794
0.000494969
0.000496998
0.000501671
0.000476087
0.000482654
0.000492956
0.000508881
0.000469932
0.000487478
0.000504935
0.000524991
0.000480116
0.000501758
0.000522219
0.00054529
0.000497552
0.000522123
0.000544997
0.000570078
0.000517337
0.000543727
0.000568308
0.000594609
0.000541769
0.000569609
0.000595786
0.00062307
0.000541769
0.000569609
0.000595786
0.00062307
0.000178752
0.000289596
0.000520628
0.000596119
0.000596119
0.000400877
0.00013995
3.30012e-05
5.31362e-05
8.80909e-05
0.000386314
0.000825307
0.000884537
0.000884537
0.000661362
0.000571023
0.000449701
0.000168632
0.000100865
0.000177019
0.000418722
0.000330128
0.000401816
0.000371528
0.000222556
0.000155824
7.12428e-05
7.80462e-05
0.000291252
0.000760638
0.000994295
0.000994295
0.000866672
0.00052381
0.000377711
0.000211587
0.00013923
0.000184508
0.000291285
0.0008867
0.00069251
0.000640491
0.00039413
0.000145978
8.77639e-05
0.000108102
0.000427153
0.000886989
0.00100322
0.00100322
0.000955646
0.000836877
0.000642767
0.000444298
0.000280538
0.000482108
0.000576044
0.000842651
0.00114377
0.00101528
0.000509731
0.000242418
0.000104059
5.37901e-05
0.000106234
0.000493603
0.000921266
0.00108675
0.00108675
0.000789345
0.000588435
0.000467483
0.000467666
0.000662558
0.00084749
0.00101528
0.00141143
0.00137388
0.000617115
0.000381735
0.000472397
0.000334792
0.000129139
0.000111393
0.000238334
0.000452172
0.000777934
0.000671178
0.000814679
0.000814679
0.000672342
0.000943805
0.00107799
0.00115131
0.00122487
0.00141372
0.00141372
0.000872356
0.000805859
0.000805859
0.000721963
0.000451857
0.00014386
0.000371938
0.000652368
0.000782926
0.000782926
0.000519926
0.000618189
0.00107247
0.00136716
0.00139445
0.00139445
0.00145115
0.00127378
0.00108437
0.000741041
0.000819425
0.000856397
0.00082834
0.000737056
0.000429822
0.000340857
0.000433584
0.000392884
0.000408602
0.000625126
0.00067791
0.000743565
0.000898738
0.00103951
0.00153523
0.00164953
0.000980561
0.000891542
0.000896997
0.00076214
0.0010517
0.0010517
0.000889
0.000588983
0.000379457
0.000513899
0.000513899
0.000463482
0.000505536
0.000583406
0.000823004
0.000606488
0.000926278
0.00155886
0.00169537
0.000889099
0.000927427
0.000927427
0.000840125
0.000967273
0.000967273
0.000921333
0.000660242
0.000449304
0.000543925
0.000601561
0.000479048
0.000527662
0.000775121
0.000921148
0.000603723
0.000972027
0.00153204
0.00169537
0.00108541
0.00108541
0.00105047
0.000919695
0.000775705
0.000875154
0.000875154
0.00081285
0.000923223
0.00083616
0.00104522
0.00101181
0.00105
0.000994633
0.00097871
0.000635191
0.000939085
0.00142795
0.00162541
0.000718194
0.00112786
0.00112786
0.000922875
0.000548461
0.000780369
0.00103928
0.00139883
0.00159308
0.00159465
0.00159465
0.00148746
0.00141231
0.00119836
0.000676108
0.000703187
0.000921847
0.00127629
0.0014101
0.000421472
0.000679848
0.000870939
0.000765721
0.000506301
0.000707474
0.00131874
0.00148609
0.00155868
0.00155868
0.00152843
0.00137062
0.00114082
0.00086954
0.000517171
0.000775747
0.000913561
0.00115915
0.00124898
0.000483249
0.000563671
0.000706384
0.000488964
0.000608209
0.00125317
0.0013502
0.0013502
0.0012852
0.00119446
0.00112901
0.000931955
0.000792303
0.000690367
0.000703616
0.000838195
0.000906634
0.00109082
0.00113858
0.000843357
0.000756711
0.000721592
0.000704544
0.00111829
0.0013344
0.0013344
0.00116605
0.000957253
0.000797851
0.000759095
0.000732317
0.000740346
0.000758965
0.000820955
0.000888242
0.00090437
0.00101733
0.00104349
0.00110185
0.00110185
0.00104613
0.00106222
0.00110936
0.00112239
0.00112239
0.000843955
0.000560022
0.000682523
0.000736375
0.000782921
0.000802281
0.000822264
0.000856667
0.000872695
0.000872695
0.000930471
0.000945524
0.00105604
0.00115605
0.00117135
0.00117135
0.00108215
0.000935467
0.000830969
0.000473866
0.000653952
0.000884391
0.000929391
0.000936092
0.000936092
0.000926548
0.000903187
0.000884798
0.000853354
0.000824437
0.000844618
0.000808465
0.000886597
0.000932056
0.00093585
0.000803999
0.000637494
0.000500632
0.000602299
0.000895794
0.000994812
0.00100075
0.00100075
0.00097923
0.000944452
0.000897374
0.000848461
0.000771811
0.000713426
0.000742412
0.000666651
0.000683362
0.000668728
0.000618037
0.000444737
0.000288759
0.000466653
0.000749276
0.000954951
0.00103489
0.00103902
0.00103902
0.00101344
0.000968332
0.000892553
0.000796128
0.000685248
0.000608932
0.000641773
0.000613101
0.000613101
0.00054742
0.000428837
0.000272827
0.000214747
0.000464572
0.000725786
0.000904499
0.000980617
0.000999259
0.000999259
0.000982121
0.000920593
0.000817927
0.000701587
0.000584442
0.000499294
0.00054008
0.000603517
0.000603517
0.000547832
0.000463373
0.000365338
0.000382889
0.000494411
0.000697998
0.000851041
0.000941624
0.000965691
0.000965691
0.000933418
0.000859996
0.000752828
0.000630131
0.000508147
0.000405728
0.000439389
0.000634291
0.000634291
0.000604444
0.000573614
0.000539153
0.000565304
0.000608928
0.000744689
0.00085354
0.000921613
0.000936028
0.000936028
0.000895081
0.000811868
0.000698469
0.00056964
0.000442356
0.000329561
0.00034101
0.000734771
0.000734771
0.000729492
0.000724235
0.000720238
0.000742059
0.000792136
0.000883263
0.000965578
0.00101823
0.00101823
0.00100384
0.00092956
0.000812763
0.000664258
0.000514606
0.000384826
0.000266139
0.000241916
0.000825313
0.000842384
0.000858822
0.000866412
0.000880765
0.000912013
0.00096434
0.00103556
0.001102
0.00113929
0.00113929
0.00110013
0.000990558
0.000836965
0.000649324
0.000467942
0.000328943
0.000216537
0.000147872
0.000891541
0.000915832
0.000940764
0.000955524
0.000984429
0.00103619
0.00110131
0.00117664
0.00125177
0.00129639
0.00129639
0.00124952
0.00111221
0.00091397
0.000675661
0.000447643
0.000297559
0.000207438
0.000112798
0.000922603
0.000941864
0.00096003
0.000985891
0.00103795
0.00111229
0.00119675
0.00128705
0.00137649
0.00143377
0.00143377
0.00139602
0.00124409
0.00100424
0.00072093
0.000447483
0.000288609
0.000238179
0.000164055
0.000921655
0.000928655
0.000944255
0.000984969
0.00106223
0.00115833
0.00126252
0.00137186
0.00148052
0.00156184
0.00156184
0.00155053
0.00140363
0.00113206
0.000799384
0.000469881
0.000297285
0.00029785
0.000245108
0.00088491
0.00088491
0.000882103
0.000943079
0.00104523
0.00116473
0.00129489
0.0014268
0.00155717
0.00166547
0.00168481
0.00168481
0.00155159
0.0012626
0.000886051
0.000501633
0.000336626
0.000368606
0.000329634
0.000819965
0.000819965
0.000809149
0.000883056
0.00100057
0.00114037
0.00129669
0.00145772
0.00161367
0.00175131
0.00180462
0.00180462
0.00169714
0.00140884
0.000997228
0.000555388
0.000402022
0.000449562
0.000422211
0.000742013
0.000742013
0.000740378
0.000825126
0.000955457
0.0011048
0.00127463
0.00145861
0.00164176
0.0018122
0.00190367
0.00190367
0.00182813
0.00154856
0.00111042
0.000619191
0.000476144
0.000540561
0.000526503
0.000684189
0.000684189
0.000700275
0.000794612
0.000938892
0.00109861
0.00127155
0.00146357
0.00166253
0.00186168
0.00198903
0.00198903
0.00194724
0.00168825
0.00123494
0.000691449
0.000559516
0.000642387
0.00064132
0.000626194
0.000626194
0.000654836
0.000753504
0.000911297
0.00108673
0.00126576
0.001462
0.00167035
0.00189386
0.00205748
0.00205748
0.00205057
0.00181977
0.00136277
0.000779361
0.000650591
0.000771295
0.000771295
0.000603351
0.000608843
0.000650727
0.000745602
0.000906176
0.00109437
0.0012795
0.00147747
0.00168716
0.00192501
0.00211927
0.00214367
0.00214367
0.00194298
0.00149237
0.000865507
0.000752781
0.000914556
0.000914556
0.000575829
0.000595772
0.000645466
0.0007343
0.000891513
0.00108962
0.00128456
0.00148751
0.0016984
0.00194542
0.00216698
0.00222242
0.00222242
0.00205503
0.00162341
0.000973632
0.000859356
0.00107326
0.00107613
0.000586373
0.000618384
0.000674954
0.000760949
0.000909965
0.00110699
0.0013059
0.00151431
0.00172709
0.00197823
0.00221849
0.00229852
0.00229852
0.00216141
0.00174753
0.00106398
0.000980985
0.00124891
0.00125271
0.000581807
0.000625932
0.000689402
0.000774627
0.000917624
0.00111311
0.00131572
0.00153024
0.00174694
0.00200085
0.00225883
0.00236415
0.00236415
0.00225765
0.0018646
0.00115967
0.00109891
0.00143472
0.00144475
0.000615156
0.000665492
0.000731023
0.000815702
0.000954339
0.00114547
0.00134679
0.001564
0.0017842
0.00203812
0.00230782
0.00243345
0.00243345
0.00235092
0.00197847
0.00124398
0.0012363
0.00164049
0.00164317
0.000624866
0.000683731
0.000752495
0.000837079
0.000972789
0.00116184
0.00136316
0.0015829
0.0018081
0.00206237
0.00234462
0.00249237
0.00249237
0.00243526
0.00208878
0.00133793
0.00135722
0.00183852
0.00184971
0.000669217
0.000731108
0.000800682
0.000883867
0.00101618
0.00120268
0.00140315
0.00162238
0.00184954
0.00210219
0.0023899
0.00255084
0.00255084
0.00251296
0.002188
0.00139974
0.00150562
0.00206076
0.00206076
0.000682652
0.000749496
0.000822031
0.000906188
0.00103613
0.00122136
0.00142283
0.00164249
0.00187357
0.00212691
0.00242159
0.00259701
0.00259701
0.00257956
0.00228174
0.00147799
0.00160974
0.00224464
0.00224484
0.000733997
0.000801668
0.000874193
0.000957756
0.00108526
0.00126767
0.0014683
0.00168581
0.00191601
0.00216759
0.00246335
0.00264356
0.00264356
0.00263531
0.00235337
0.00150346
0.00176253
0.00246272
0.00246272
0.000743188
0.00081347
0.000887997
0.000973112
0.0011001
0.00128219
0.00148413
0.00170127
0.00193337
0.00218525
0.00248395
0.00267238
0.00267551
0.00267551
0.00242201
0.00157045
0.00185173
0.00260966
0.00260966
0.000803097
0.000874253
0.000949085
0.00103387
0.00116002
0.00133921
0.00153946
0.00175373
0.0019841
0.00223377
0.00253043
0.00271768
0.00271949
0.00271949
0.00247095
0.0015391
0.00200449
0.0028132
0.0028132
)
;

boundaryField
{
    leftWall
    {
        type            calculated;
        value           uniform 0;
    }
    rightWall
    {
        type            calculated;
        value           uniform 0;
    }
    lowerWall
    {
        type            calculated;
        value           uniform 0;
    }
    atmosphere
    {
        type            calculated;
        value           uniform 0;
    }
    defaultFaces
    {
        type            empty;
    }
}


// ************************************************************************* //
