/*--------------------------------*- C++ -*----------------------------------*\
| =========                 |                                                 |
| \\      /  F ield         | OpenFOAM: The Open Source CFD Toolbox           |
|  \\    /   O peration     | Version:  2012                                  |
|   \\  /    A nd           | Website:  www.openfoam.com                      |
|    \\/     M anipulation  |                                                 |
\*---------------------------------------------------------------------------*/
FoamFile
{
    version     2.0;
    format      ascii;
    class       volScalarField;
    location    "0.88";
    object      rho2;
}
// * * * * * * * * * * * * * * * * * * * * * * * * * * * * * * * * * * * * * //

dimensions      [1 -3 0 0 0 0 0];


internalField   nonuniform List<scalar> 
2268
(
1.30918
1.30906
1.30889
1.30857
1.30822
1.30778
1.3073
1.30686
1.30635
1.30598
1.30552
1.30526
1.30488
1.30468
1.30437
1.3042
1.30392
1.30374
1.30347
1.30328
1.30311
1.30307
1.3031
1.30844
1.30832
1.30814
1.30783
1.30747
1.30703
1.30656
1.3061
1.30559
1.30521
1.30476
1.30449
1.30412
1.30392
1.30361
1.30344
1.30316
1.30298
1.30271
1.30252
1.30237
1.30231
1.30234
1.30772
1.30759
1.30743
1.3071
1.30675
1.30629
1.30581
1.30536
1.30483
1.30446
1.30399
1.30374
1.30335
1.30316
1.30284
1.30267
1.30239
1.3022
1.30191
1.3017
1.30153
1.30149
1.30156
1.307
1.30688
1.30671
1.30638
1.30603
1.30556
1.30507
1.30458
1.30406
1.30364
1.30321
1.30293
1.30258
1.30238
1.30207
1.30189
1.30161
1.30141
1.30113
1.30091
1.3008
1.30073
1.30079
1.3063
1.30616
1.30603
1.30566
1.30532
1.30482
1.30432
1.30384
1.30328
1.30289
1.30241
1.30218
1.30178
1.3016
1.30127
1.30111
1.30081
1.30059
1.30026
1.29998
1.2998
1.29979
1.29989
1.30561
1.30548
1.30532
1.30498
1.30463
1.30411
1.30359
1.30305
1.30249
1.30203
1.30161
1.30133
1.30101
1.3008
1.3005
1.30031
1.3
1.29977
1.29944
1.29909
1.29902
1.299
1.29916
1.30491
1.30477
1.30468
1.30427
1.30395
1.30336
1.30284
1.30231
1.30169
1.30126
1.30078
1.30058
1.30019
1.30003
1.29969
1.29951
1.29918
1.29891
1.29842
1.29792
1.29767
1.29785
1.29795
1.30425
1.30411
1.304
1.30364
1.30329
1.30268
1.30211
1.30151
1.30087
1.30035
1.29996
1.29971
1.29943
1.29922
1.29891
1.29868
1.29833
1.29801
1.2975
1.2969
1.29667
1.29695
1.29732
1.31505
1.31026
1.30356
1.29971
1.29863
1.29836
1.2983
1.29864
1.30151
1.30849
1.30577
1.30465
1.30125
1.2997
1.29828
1.29903
1.29884
1.30059
1.30217
1.31371
1.30873
1.30185
1.29871
1.29814
1.29821
1.29831
1.29844
1.30021
1.30656
1.30461
1.30387
1.3
1.29844
1.29794
1.29845
1.29807
1.29985
1.3013
1.31005
1.3057
1.30031
1.29831
1.2982
1.2983
1.29837
1.29841
1.29926
1.30438
1.30291
1.30212
1.29876
1.29772
1.29731
1.29783
1.29746
1.29893
1.30051
1.30775
1.30447
1.29905
1.29813
1.29813
1.29822
1.29832
1.29835
1.2988
1.30258
1.3014
1.30044
1.29699
1.29608
1.29671
1.29761
1.29728
1.29878
1.30002
1.30601
1.30311
1.29946
1.2982
1.29815
1.29823
1.29821
1.29812
1.29858
1.30129
1.29996
1.29871
1.29612
1.29509
1.29567
1.29712
1.29748
1.29872
1.29957
1.30396
1.30194
1.29837
1.29764
1.29793
1.29801
1.29812
1.29795
1.29886
1.30016
1.29875
1.29735
1.29477
1.29457
1.295
1.2965
1.29783
1.29899
1.29924
1.3018
1.30009
1.29812
1.29744
1.29762
1.29755
1.29823
1.29803
1.29851
1.29912
1.29751
1.29581
1.29398
1.29433
1.29476
1.29605
1.29753
1.2985
1.29848
1.30032
1.29941
1.29774
1.29739
1.29754
1.29739
1.298
1.29866
1.2988
1.2984
1.29649
1.29508
1.29388
1.29437
1.29479
1.29584
1.2975
1.29876
1.29801
1.30317
1.303
1.30306
1.30253
1.3023
1.30151
1.30097
1.30035
1.29963
1.29913
1.29864
1.29855
1.29813
1.29798
1.2976
1.29741
1.297
1.29657
1.29556
1.29483
1.29446
1.29482
1.29419
1.30178
1.30168
1.30165
1.3014
1.30098
1.30025
1.29937
1.29879
1.29768
1.297
1.29671
1.29661
1.29652
1.29624
1.29588
1.29543
1.29484
1.29428
1.29381
1.29356
1.29369
1.29365
1.29412
1.30031
1.30004
1.30061
1.29995
1.30008
1.29865
1.29833
1.29747
1.2965
1.29547
1.29515
1.29536
1.29489
1.29455
1.29412
1.29393
1.29373
1.29352
1.29341
1.29331
1.29325
1.29301
1.29228
1.29835
1.29836
1.2989
1.29877
1.29885
1.29802
1.29737
1.29711
1.29541
1.29462
1.29407
1.29412
1.29398
1.29358
1.29352
1.29352
1.29351
1.29348
1.29342
1.29337
1.29319
1.29188
1.29084
1.29701
1.29657
1.29732
1.29538
1.29725
1.29681
1.29667
1.29594
1.29477
1.29382
1.29362
1.29385
1.29353
1.29348
1.29347
1.29346
1.29346
1.2934
1.29334
1.2933
1.29294
1.29213
1.29141
1.29605
1.29445
1.29338
1.29308
1.29325
1.29323
1.29341
1.29343
1.29331
1.29364
1.29401
1.29374
1.29355
1.29346
1.29343
1.29344
1.29338
1.29327
1.29325
1.29329
1.29324
1.29285
1.29321
1.29478
1.29319
1.293
1.29297
1.29299
1.29309
1.29314
1.29314
1.29314
1.29304
1.29339
1.29349
1.29344
1.29341
1.29336
1.2933
1.29325
1.29321
1.2932
1.29322
1.29324
1.29311
1.29394
1.29331
1.293
1.29296
1.29295
1.29302
1.29312
1.29316
1.29315
1.29315
1.29311
1.29317
1.29326
1.29329
1.29335
1.29333
1.29326
1.29324
1.29324
1.29327
1.29339
1.29335
1.29346
1.29592
1.29311
1.29298
1.29299
1.29295
1.29308
1.29313
1.29316
1.29315
1.29316
1.29314
1.29314
1.29316
1.29322
1.2932
1.29329
1.29344
1.29336
1.29345
1.29351
1.29359
1.29354
1.29373
1.29461
1.29306
1.293
1.29302
1.29302
1.29312
1.29315
1.29318
1.29318
1.29318
1.29317
1.29317
1.29317
1.29317
1.29317
1.29315
1.29326
1.29328
1.29336
1.29338
1.29335
1.29334
1.2935
1.29376
1.29298
1.29301
1.29305
1.29307
1.29313
1.29316
1.2932
1.2932
1.2932
1.29318
1.29317
1.29317
1.29319
1.29319
1.29319
1.29318
1.29319
1.29326
1.29328
1.29323
1.29322
1.29322
1.29342
1.29298
1.29303
1.29306
1.29308
1.29314
1.29317
1.2932
1.2932
1.29321
1.2932
1.29319
1.29318
1.29319
1.29319
1.2932
1.2932
1.2932
1.2932
1.29321
1.29321
1.29322
1.2932
1.29322
1.29298
1.29304
1.29307
1.29309
1.29314
1.29318
1.2932
1.2932
1.29321
1.2932
1.2932
1.29319
1.29319
1.2932
1.2932
1.2932
1.2932
1.2932
1.2932
1.29321
1.29321
1.2932
1.2932
1.29298
1.29304
1.29307
1.2931
1.29316
1.29318
1.2932
1.2932
1.2932
1.2932
1.2932
1.29319
1.29319
1.2932
1.2932
1.2932
1.2932
1.2932
1.29321
1.2932
1.29321
1.2932
1.29321
1.29297
1.29304
1.29307
1.29313
1.29318
1.29318
1.2932
1.29319
1.2932
1.2932
1.2932
1.29319
1.29319
1.2932
1.2932
1.2932
1.2932
1.2932
1.2932
1.2932
1.29321
1.2932
1.2932
1.29296
1.29303
1.29308
1.29314
1.29318
1.29318
1.29319
1.29318
1.29319
1.29319
1.29319
1.29319
1.29319
1.29319
1.2932
1.2932
1.2932
1.2932
1.2932
1.2932
1.2932
1.2932
1.2932
1.29295
1.29302
1.29308
1.29314
1.29318
1.29318
1.29318
1.29318
1.29319
1.29319
1.29319
1.29319
1.29319
1.29319
1.2932
1.2932
1.2932
1.2932
1.2932
1.2932
1.2932
1.2932
1.2932
1.29296
1.29301
1.29309
1.29315
1.29318
1.29318
1.29318
1.29318
1.29319
1.29319
1.29319
1.29319
1.29319
1.29319
1.29319
1.29319
1.2932
1.2932
1.2932
1.2932
1.2932
1.2932
1.2932
1.29299
1.29304
1.29312
1.29317
1.29318
1.29318
1.29318
1.29318
1.29319
1.29319
1.29319
1.29319
1.29319
1.29319
1.29319
1.29319
1.29319
1.29319
1.2932
1.2932
1.2932
1.2932
1.29319
1.29307
1.29312
1.29317
1.29319
1.29319
1.29318
1.29318
1.29318
1.29319
1.29319
1.29319
1.29319
1.29319
1.29319
1.29319
1.29319
1.29319
1.29319
1.29319
1.29319
1.29319
1.29319
1.29318
1.29317
1.29319
1.29319
1.29319
1.29319
1.29318
1.29319
1.29318
1.29319
1.29319
1.29319
1.29319
1.29319
1.29319
1.29319
1.29319
1.29319
1.29319
1.29319
1.29318
1.29317
1.29316
1.29316
1.2932
1.2932
1.2932
1.29319
1.29319
1.29319
1.29319
1.29319
1.29319
1.29319
1.29319
1.29319
1.29319
1.29319
1.29319
1.29319
1.29319
1.29318
1.29318
1.29316
1.29315
1.29314
1.29313
1.2932
1.2932
1.29319
1.29319
1.29319
1.29319
1.29319
1.29319
1.29319
1.29318
1.29319
1.29318
1.29319
1.29318
1.29318
1.29318
1.29318
1.29317
1.29315
1.29314
1.29313
1.29312
1.29311
1.29319
1.29319
1.29319
1.29319
1.29319
1.29319
1.29319
1.29318
1.29318
1.29318
1.29318
1.29318
1.29318
1.29318
1.29318
1.29317
1.29316
1.29314
1.29313
1.29312
1.29311
1.2931
1.29308
1.29319
1.29319
1.29319
1.29319
1.29318
1.29318
1.29318
1.29318
1.29318
1.29318
1.29318
1.29318
1.29318
1.29317
1.29317
1.29315
1.29313
1.29312
1.29311
1.29311
1.29309
1.29307
1.29305
1.29318
1.29318
1.29318
1.29318
1.29318
1.29318
1.29318
1.29318
1.29318
1.29318
1.29318
1.29318
1.29317
1.29316
1.29314
1.29313
1.29312
1.29311
1.2931
1.29308
1.29306
1.29305
1.29303
1.29318
1.29318
1.29318
1.29318
1.29318
1.29318
1.29318
1.29318
1.29318
1.29317
1.29317
1.29317
1.29316
1.29314
1.29312
1.29312
1.29311
1.2931
1.29308
1.29306
1.29305
1.29303
1.29302
1.29318
1.29318
1.29318
1.29318
1.29317
1.29317
1.29317
1.29317
1.29317
1.29317
1.29316
1.29316
1.29314
1.29312
1.29311
1.29311
1.29309
1.29307
1.29306
1.29305
1.29304
1.29303
1.29302
1.29317
1.29317
1.29317
1.29317
1.29317
1.29317
1.29317
1.29317
1.29316
1.29316
1.29315
1.29314
1.29312
1.29311
1.2931
1.29309
1.29307
1.29306
1.29305
1.29304
1.29303
1.29303
1.29302
1.29317
1.29317
1.29317
1.29317
1.29316
1.29316
1.29316
1.29316
1.29316
1.29315
1.29313
1.29312
1.29311
1.2931
1.29309
1.29308
1.29306
1.29305
1.29304
1.29304
1.29303
1.29303
1.29302
1.29316
1.29316
1.29316
1.29316
1.29316
1.29316
1.29315
1.29315
1.29314
1.29313
1.29312
1.29311
1.2931
1.29309
1.29308
1.29306
1.29305
1.29305
1.29304
1.29304
1.29304
1.29304
1.29303
1.29315
1.29315
1.29315
1.29315
1.29315
1.29315
1.29314
1.29314
1.29313
1.29311
1.2931
1.2931
1.29309
1.29308
1.29307
1.29306
1.29305
1.29305
1.29305
1.29305
1.29305
1.29304
1.29304
1.29315
1.29314
1.29314
1.29314
1.29314
1.29314
1.29313
1.29312
1.29311
1.2931
1.2931
1.29309
1.29308
1.29307
1.29306
1.29305
1.29305
1.29305
1.29305
1.29305
1.29305
1.29305
1.29305
1.29314
1.29314
1.29313
1.29313
1.29313
1.29313
1.29312
1.29311
1.2931
1.29309
1.29309
1.29308
1.29307
1.29306
1.29305
1.29305
1.29305
1.29305
1.29306
1.29306
1.29306
1.29306
1.29306
1.29312
1.29312
1.29312
1.29312
1.29312
1.29311
1.2931
1.29309
1.29309
1.29309
1.29308
1.29308
1.29306
1.29306
1.29305
1.29305
1.29306
1.29306
1.29306
1.29307
1.29307
1.29307
1.29307
1.29311
1.29311
1.29311
1.29311
1.2931
1.2931
1.29309
1.29309
1.29308
1.29308
1.29308
1.29307
1.29306
1.29305
1.29305
1.29305
1.29306
1.29306
1.29307
1.29307
1.29307
1.29308
1.29308
1.2931
1.2931
1.2931
1.29309
1.29309
1.29308
1.29308
1.29308
1.29308
1.29308
1.29307
1.29306
1.29305
1.29305
1.29305
1.29306
1.29306
1.29307
1.29307
1.29308
1.29308
1.29308
1.29309
1.29309
1.29309
1.29309
1.29308
1.29308
1.29308
1.29308
1.29308
1.29308
1.29307
1.29306
1.29306
1.29305
1.29305
1.29306
1.29306
1.29307
1.29308
1.29308
1.29308
1.29309
1.29309
1.29309
1.29308
1.29308
1.29307
1.29307
1.29307
1.29307
1.29307
1.29307
1.29307
1.29306
1.29306
1.29305
1.29305
1.29306
1.29306
1.29307
1.29308
1.29308
1.29309
1.29309
1.29309
1.2931
1.2931
1.29307
1.29307
1.29307
1.29307
1.29307
1.29307
1.29307
1.29307
1.29307
1.29306
1.29305
1.29305
1.29305
1.29306
1.29307
1.29308
1.29308
1.29309
1.29309
1.2931
1.2931
1.2931
1.2931
1.29306
1.29306
1.29306
1.29305
1.29306
1.29306
1.29306
1.29306
1.29306
1.29305
1.29305
1.29305
1.29306
1.29307
1.29308
1.29308
1.29309
1.2931
1.2931
1.2931
1.2931
1.2931
1.2931
1.29306
1.29306
1.29306
1.29306
1.29306
1.29306
1.29306
1.29306
1.29305
1.29305
1.29305
1.29305
1.29306
1.29308
1.29309
1.29309
1.2931
1.2931
1.2931
1.2931
1.2931
1.2931
1.2931
1.29477
1.29378
1.29594
1.29275
1.29509
1.29503
1.29531
1.29527
1.29258
1.29254
1.29286
1.29345
1.29177
1.29177
1.29236
1.29265
1.29176
1.29201
1.29239
1.29288
1.29336
1.29354
1.29343
1.29313
1.29377
1.29362
1.29303
1.29307
1.29436
1.29438
1.29354
1.29339
1.29446
1.29404
1.29317
1.29319
1.29357
1.29326
1.29315
1.29304
1.29343
1.29338
1.29333
1.29327
1.29323
1.29321
1.29322
1.2932
1.29319
1.29318
1.29316
1.29314
1.29319
1.29317
1.29316
1.29314
1.2932
1.29319
1.29317
1.29315
1.2932
1.2932
1.29319
1.29317
1.2932
1.2932
1.2932
1.2932
1.2932
1.2932
1.2932
1.2932
1.29319
1.29319
1.29319
1.29319
1.29318
1.29318
1.29318
1.29318
1.29315
1.29315
1.29315
1.29315
1.29313
1.29312
1.29312
1.29311
1.2931
1.29309
1.29308
1.29307
1.29306
1.29305
1.29305
1.29304
1.29304
1.29303
1.29303
1.29302
1.29302
1.29302
1.29301
1.29301
1.29301
1.29301
1.293
1.293
1.29301
1.29301
1.293
1.293
1.29301
1.29301
1.293
1.293
1.29302
1.29301
1.29301
1.29301
1.29303
1.29303
1.29302
1.29302
1.29304
1.29304
1.29303
1.29303
1.29305
1.29305
1.29304
1.29304
1.29306
1.29306
1.29305
1.29305
1.29307
1.29307
1.29307
1.29306
1.29308
1.29308
1.29307
1.29307
1.29308
1.29308
1.29308
1.29308
1.29309
1.29309
1.29309
1.29309
1.2931
1.2931
1.29309
1.29309
1.2931
1.2931
1.2931
1.29309
1.2931
1.2931
1.2931
1.2931
1.2931
1.2931
1.29309
1.29309
1.29787
1.29747
1.29795
1.29726
1.29758
1.2973
1.29792
1.29817
1.29817
1.29696
1.29535
1.29414
1.29419
1.2942
1.29485
1.29567
1.29626
1.29703
1.2968
1.29639
1.29758
1.29758
1.29735
1.29743
1.29733
1.29737
1.29733
1.29709
1.29576
1.29425
1.29403
1.29365
1.29401
1.29398
1.29419
1.2949
1.29521
1.29503
1.29559
1.29726
1.29774
1.29692
1.29708
1.29668
1.29615
1.29557
1.29489
1.2938
1.29386
1.29342
1.29348
1.29312
1.29318
1.29327
1.29319
1.29343
1.29352
1.29583
1.29714
1.29689
1.29647
1.29568
1.29611
1.29559
1.29444
1.29344
1.29379
1.29313
1.29331
1.29341
1.29351
1.29325
1.29322
1.29313
1.29332
1.29337
1.29329
1.29481
1.29395
1.29408
1.29375
1.2943
1.2942
1.29342
1.29321
1.29285
1.293
1.2932
1.29322
1.2933
1.29329
1.29325
1.29322
1.29335
1.2934
1.29326
1.29197
1.29275
1.29282
1.29285
1.2933
1.29341
1.29332
1.29328
1.2931
1.29282
1.29281
1.29298
1.29317
1.2931
1.29313
1.29325
1.29331
1.29336
1.2927
1.29255
1.29253
1.29275
1.29266
1.29295
1.29319
1.29316
1.29314
1.29299
1.29273
1.29279
1.29286
1.29303
1.2931
1.29312
1.2932
1.29325
1.29329
1.29294
1.29237
1.29234
1.29245
1.29236
1.29286
1.29311
1.29318
1.29317
1.29315
1.29304
1.29294
1.29295
1.29302
1.29311
1.2931
1.2932
1.29322
1.29326
1.29276
1.29274
1.29232
1.29222
1.29232
1.29287
1.29312
1.29316
1.29317
1.29315
1.29316
1.29314
1.29309
1.29307
1.29312
1.29316
1.29321
1.29322
1.29325
1.29292
1.29271
1.29242
1.29241
1.29236
1.29303
1.29317
1.29315
1.29315
1.29314
1.29313
1.29314
1.29314
1.29314
1.29317
1.29321
1.29323
1.29323
1.29324
1.293
1.29277
1.29248
1.29247
1.29276
1.29314
1.29317
1.29316
1.29317
1.29317
1.29318
1.29318
1.29318
1.29319
1.2932
1.29322
1.29322
1.29323
1.29324
1.29315
1.29279
1.29244
1.29261
1.29297
1.29314
1.29317
1.29317
1.29318
1.29317
1.29318
1.29318
1.29319
1.2932
1.29321
1.29321
1.29322
1.29322
1.29323
1.29312
1.29298
1.29275
1.29295
1.29316
1.29315
1.29316
1.29315
1.29315
1.29312
1.29312
1.29313
1.29316
1.29318
1.2932
1.29321
1.29322
1.29322
1.29323
1.29312
1.29309
1.29304
1.29314
1.29316
1.29315
1.29315
1.29314
1.2931
1.29308
1.29309
1.29311
1.29314
1.29317
1.2932
1.29321
1.29322
1.29322
1.29322
1.29314
1.29313
1.29314
1.29317
1.29317
1.29315
1.29314
1.29311
1.29308
1.29307
1.29308
1.29311
1.29314
1.29317
1.2932
1.29321
1.29321
1.29322
1.29322
1.29315
1.29313
1.29314
1.29316
1.29316
1.29316
1.29314
1.29311
1.29308
1.2931
1.29313
1.29315
1.29317
1.29319
1.2932
1.29321
1.29321
1.29321
1.29322
1.29319
1.29316
1.29313
1.29313
1.29313
1.29313
1.29313
1.2931
1.29312
1.29314
1.29316
1.29317
1.29318
1.29319
1.2932
1.2932
1.29321
1.29321
1.29321
1.2932
1.2932
1.29318
1.29316
1.29315
1.29314
1.29313
1.29315
1.29316
1.29317
1.29318
1.29318
1.29318
1.29319
1.29319
1.2932
1.29321
1.29321
1.29321
1.2932
1.2932
1.2932
1.2932
1.2932
1.2932
1.29319
1.29319
1.29318
1.29316
1.29316
1.29315
1.29316
1.29316
1.29317
1.29318
1.2932
1.2932
1.29321
1.29318
1.29318
1.29318
1.29318
1.29318
1.29317
1.29316
1.29313
1.2931
1.29308
1.29308
1.29308
1.2931
1.29312
1.29314
1.29317
1.29319
1.2932
1.2932
1.29314
1.29314
1.29313
1.29312
1.29311
1.29308
1.29306
1.29304
1.29302
1.29301
1.29301
1.29303
1.29305
1.29308
1.29312
1.29315
1.29318
1.29319
1.2932
1.2931
1.29309
1.29308
1.29306
1.29304
1.29302
1.293
1.29298
1.29297
1.29296
1.29297
1.29298
1.29301
1.29305
1.29309
1.29313
1.29317
1.29319
1.2932
1.29306
1.29305
1.29303
1.29301
1.29299
1.29297
1.29296
1.29295
1.29294
1.29293
1.29293
1.29294
1.29297
1.29301
1.29307
1.29312
1.29316
1.29318
1.29319
1.29303
1.29301
1.293
1.29298
1.29297
1.29295
1.29294
1.29293
1.29292
1.29291
1.2929
1.29291
1.29294
1.29298
1.29304
1.2931
1.29315
1.29318
1.29319
1.29301
1.293
1.29298
1.29297
1.29296
1.29295
1.29293
1.29292
1.29291
1.29289
1.29288
1.29288
1.2929
1.29294
1.29301
1.29308
1.29314
1.29317
1.29319
1.293
1.29299
1.29297
1.29296
1.29295
1.29294
1.29293
1.29292
1.2929
1.29289
1.29287
1.29286
1.29288
1.29291
1.29297
1.29306
1.29313
1.29317
1.29318
1.29299
1.29298
1.29297
1.29296
1.29295
1.29294
1.29293
1.29292
1.2929
1.29288
1.29286
1.29285
1.29285
1.29288
1.29293
1.29302
1.29311
1.29316
1.29318
1.29299
1.29298
1.29297
1.29296
1.29296
1.29295
1.29294
1.29293
1.29291
1.29289
1.29286
1.29284
1.29283
1.29285
1.2929
1.29299
1.29309
1.29316
1.29318
1.29299
1.29298
1.29298
1.29297
1.29297
1.29296
1.29295
1.29294
1.29292
1.29289
1.29286
1.29283
1.29281
1.29283
1.29287
1.29295
1.29307
1.29315
1.29317
1.293
1.29299
1.29299
1.29298
1.29298
1.29297
1.29296
1.29295
1.29293
1.2929
1.29287
1.29283
1.2928
1.29281
1.29284
1.29291
1.29304
1.29314
1.29317
1.29301
1.29301
1.293
1.29299
1.29299
1.29298
1.29297
1.29296
1.29293
1.29291
1.29287
1.29283
1.29279
1.29279
1.29282
1.29288
1.293
1.29312
1.29316
1.29303
1.29302
1.29301
1.293
1.293
1.29299
1.29298
1.29296
1.29294
1.29291
1.29288
1.29283
1.29278
1.29278
1.2928
1.29285
1.29296
1.2931
1.29316
1.29304
1.29303
1.29302
1.29301
1.29301
1.293
1.29299
1.29297
1.29295
1.29292
1.29288
1.29284
1.29278
1.29277
1.29278
1.29282
1.29292
1.29308
1.29315
1.29305
1.29304
1.29303
1.29302
1.29301
1.29301
1.29299
1.29298
1.29295
1.29292
1.29289
1.29284
1.29278
1.29275
1.29277
1.2928
1.29289
1.29306
1.29315
1.29306
1.29305
1.29304
1.29303
1.29302
1.29301
1.293
1.29298
1.29296
1.29293
1.29289
1.29284
1.29278
1.29274
1.29275
1.29278
1.29286
1.29303
1.29314
1.29307
1.29306
1.29305
1.29304
1.29303
1.29302
1.293
1.29299
1.29296
1.29293
1.29289
1.29284
1.29278
1.29273
1.29274
1.29277
1.29284
1.293
1.29313
1.29308
1.29307
1.29306
1.29305
1.29304
1.29302
1.29301
1.29299
1.29297
1.29294
1.29289
1.29284
1.29277
1.29272
1.29272
1.29275
1.29282
1.29297
1.29312
1.29308
1.29308
1.29306
1.29305
1.29304
1.29303
1.29301
1.29299
1.29297
1.29294
1.2929
1.29284
1.29277
1.29271
1.29271
1.29274
1.2928
1.29295
1.29311
1.29309
1.29308
1.29307
1.29306
1.29304
1.29303
1.29302
1.293
1.29297
1.29294
1.2929
1.29284
1.29277
1.29271
1.29269
1.29272
1.29279
1.29293
1.29309
1.29309
1.29308
1.29307
1.29306
1.29304
1.29303
1.29302
1.293
1.29297
1.29294
1.2929
1.29284
1.29276
1.2927
1.29268
1.29271
1.29278
1.29292
1.29309
1.29309
1.29308
1.29307
1.29306
1.29305
1.29303
1.29302
1.293
1.29297
1.29294
1.29289
1.29284
1.29276
1.2927
1.29267
1.29268
1.29276
1.2929
1.29307
1.29309
1.29308
1.29307
1.29306
1.29304
1.29303
1.29301
1.29299
1.29297
1.29293
1.29289
1.29283
1.29275
1.29269
1.29266
1.29267
1.29275
1.2929
1.29307
)
;

boundaryField
{
    leftWall
    {
        type            calculated;
        value           nonuniform List<scalar> 
50
(
1.30918
1.30844
1.30772
1.307
1.3063
1.30561
1.30491
1.30425
1.30317
1.30178
1.30031
1.29835
1.29701
1.29605
1.29478
1.29331
1.29311
1.29306
1.29298
1.29298
1.29298
1.29298
1.29297
1.29296
1.29295
1.29296
1.29299
1.29307
1.29317
1.2932
1.2932
1.29319
1.29319
1.29318
1.29318
1.29318
1.29317
1.29317
1.29316
1.29315
1.29315
1.29314
1.29312
1.29311
1.2931
1.29309
1.29308
1.29307
1.29306
1.29306
)
;
    }
    rightWall
    {
        type            calculated;
        value           nonuniform List<scalar> 
50
(
1.30217
1.3013
1.30051
1.30002
1.29957
1.29924
1.29848
1.29801
1.2968
1.29503
1.29352
1.29337
1.2934
1.29336
1.29329
1.29326
1.29325
1.29324
1.29324
1.29323
1.29323
1.29322
1.29322
1.29322
1.29321
1.29321
1.29321
1.2932
1.2932
1.2932
1.29319
1.29319
1.29319
1.29318
1.29318
1.29318
1.29317
1.29317
1.29316
1.29316
1.29315
1.29315
1.29314
1.29313
1.29312
1.29311
1.29309
1.29309
1.29307
1.29307
)
;
    }
    lowerWall
    {
        type            calculated;
        value           nonuniform List<scalar> 
62
(
1.30956
1.30944
1.30926
1.30894
1.30859
1.30816
1.30768
1.30724
1.30672
1.30635
1.3059
1.30563
1.30525
1.30506
1.30474
1.30458
1.3043
1.30412
1.30385
1.30366
1.30349
1.30344
1.30348
1.3031
1.30234
1.30156
1.30079
1.29989
1.29916
1.29795
1.29732
1.29554
1.29427
1.2965
1.29348
1.31505
1.31371
1.31005
1.30775
1.30601
1.30396
1.3018
1.30032
1.31539
1.31061
1.30387
1.30001
1.29889
1.29846
1.29832
1.29868
1.30172
1.3088
1.30608
1.30495
1.30159
1.30005
1.29863
1.29939
1.2992
1.30096
1.30253
)
;
    }
    atmosphere
    {
        type            calculated;
        value           nonuniform List<scalar> 
46
(
1.29314
1.29314
1.29314
1.29314
1.29315
1.29315
1.29315
1.29315
1.29315
1.29314
1.29314
1.29315
1.29316
1.29317
1.29318
1.29319
1.29319
1.29319
1.29319
1.29319
1.29319
1.29319
1.29319
1.29319
1.29319
1.29319
1.29319
1.29318
1.29317
1.29316
1.29315
1.29314
1.29312
1.29311
1.29309
1.29306
1.29303
1.29298
1.29292
1.29285
1.29278
1.29275
1.29277
1.29285
1.29299
1.29316
)
;
    }
    defaultFaces
    {
        type            empty;
    }
}


// ************************************************************************* //
