/*--------------------------------*- C++ -*----------------------------------*\
| =========                 |                                                 |
| \\      /  F ield         | OpenFOAM: The Open Source CFD Toolbox           |
|  \\    /   O peration     | Version:  2012                                  |
|   \\  /    A nd           | Website:  www.openfoam.com                      |
|    \\/     M anipulation  |                                                 |
\*---------------------------------------------------------------------------*/
FoamFile
{
    version     2.0;
    format      ascii;
    class       volScalarField;
    location    "0.88";
    object      rhogh;
}
// * * * * * * * * * * * * * * * * * * * * * * * * * * * * * * * * * * * * * //

dimensions      [1 -1 -2 0 0 0 0];


internalField   nonuniform List<scalar> 
2268
(
-29.4294
-29.4294
-29.4294
-29.4294
-29.4294
-29.4294
-29.4294
-29.4294
-29.4294
-29.4294
-29.4294
-29.4294
-29.4294
-29.4294
-29.4294
-29.4294
-29.4294
-29.4294
-29.4294
-29.4294
-29.4294
-29.4293
-29.4249
-88.2881
-88.2881
-88.2881
-88.2881
-88.2881
-88.2881
-88.2881
-88.2881
-88.2881
-88.2881
-88.2881
-88.2881
-88.2881
-88.2881
-88.2881
-88.2881
-88.2881
-88.2881
-88.2881
-88.2881
-88.2881
-88.2862
-88.2639
-147.147
-147.147
-147.147
-147.147
-147.147
-147.147
-147.147
-147.147
-147.147
-147.147
-147.147
-147.147
-147.147
-147.147
-147.147
-147.147
-147.147
-147.147
-147.147
-147.147
-147.147
-147.146
-147.106
-206.006
-206.006
-206.006
-206.006
-206.006
-206.006
-206.006
-206.006
-206.006
-206.006
-206.006
-206.006
-206.006
-206.006
-206.006
-206.006
-206.006
-206.006
-206.006
-206.006
-206.006
-206.006
-205.949
-264.864
-264.864
-264.864
-264.864
-264.864
-264.864
-264.864
-264.864
-264.864
-264.864
-264.864
-264.864
-264.864
-264.864
-264.864
-264.864
-264.864
-264.864
-264.864
-264.864
-264.864
-264.864
-264.813
-323.723
-323.723
-323.723
-323.723
-323.723
-323.723
-323.723
-323.723
-323.723
-323.723
-323.723
-323.723
-323.723
-323.723
-323.723
-323.723
-323.723
-323.723
-323.721
-323.723
-323.723
-323.723
-323.719
-382.582
-382.582
-382.582
-382.582
-382.582
-382.582
-382.582
-382.582
-382.582
-382.582
-382.582
-382.582
-382.582
-382.582
-382.582
-382.582
-382.582
-382.582
-382.568
-382.535
-382.54
-382.573
-382.58
-441.44
-441.44
-441.44
-441.44
-441.44
-441.44
-441.44
-441.44
-441.44
-441.44
-441.44
-441.44
-441.44
-441.44
-441.44
-441.44
-441.44
-441.439
-441.377
-440.235
-437.971
-441.436
-441.436
-27.054
-27.0539
-24.4249
-23.9503
-19.8792
-7.70515
-1.21977
-2.59253
-15.8397
-23.8278
-24.4976
-23.1069
-26.7154
-27.3885
-27.3885
-27.9892
-28.3664
-28.5156
-28.5199
-81.1618
-81.1619
-68.3507
-29.649
-8.57356
-3.31168
-1.54322
-2.88449
-37.7322
-82.8843
-83.4126
-83.4065
-82.8839
-39.3479
-26.3772
-50.6072
-68.4225
-78.5578
-86.313
-124.881
-108.591
-88.7192
-18.7
-0.135582
-0.135582
-0.135582
-0.996213
-48.1585
-139.021
-139.012
-123.076
-132.706
-124.085
-71.2367
-29.1131
-29.1042
-94.2566
-143.855
-153.374
-100.355
-47.3152
-1.10104
-1.10102
-11.8801
-0.189815
-0.796076
-48.3697
-193.623
-184.022
-133.513
-103.21
-160.682
-160.681
-70.7467
-64.1003
-158.084
-201.699
-240.074
-199.041
-128.633
-72.8853
-117.208
-167.039
-7.01576
-3.19444
-142.632
-242.315
-252.72
-253.69
-114.946
-106.748
-176.127
-219.8
-228.416
-261.473
-262.479
-304.606
-304.606
-282.64
-133.012
-154.365
-204.164
-155.181
-41.3945
-303.877
-305.387
-315.859
-315.858
-254.083
-68.6929
-107.558
-275.149
-320.808
-320.808
-320.808
-359.989
-359.989
-259.105
-23.1317
-5.63699
-136.688
-301.464
-229.718
-373.284
-373.286
-373.286
-344.553
-176.647
-78.2251
-77.4946
-204.313
-348.517
-361.657
-378.985
-415.371
-389.015
-58.2107
-6.50422
-6.5042
-18.7781
-326.429
-378.532
-430.712
-430.712
-424.409
-234.95
-79.3756
-89.4163
-89.4179
-98.9259
-306.152
-417.297
-388.294
-533.467
-533.467
-533.467
-533.467
-533.467
-533.467
-533.467
-533.456
-533.366
-533.326
-533.371
-533.415
-533.413
-533.366
-533.312
-533.295
-533.2
-531.996
-523.328
-467.031
-389.975
-446.088
-533.462
-658.662
-658.662
-658.662
-658.662
-658.662
-658.662
-658.52
-623.805
-595.87
-595.631
-617.592
-629.767
-630.733
-630.752
-633.492
-634.763
-603.335
-512.563
-333.187
-164.686
-141.824
-270.92
-487.174
-783.856
-783.856
-783.856
-783.856
-744.438
-514.928
-330.73
-265.129
-255.173
-264.487
-362.96
-467.34
-537.81
-570.065
-492.097
-340.971
-182.862
-62.3459
-6.35251
-7.3286
-87.347
-423.563
-543.755
-814.474
-732.61
-724.706
-761.289
-689.379
-363.653
-117.764
-117.729
-117.444
-99.6737
-99.972
-252.938
-380.96
-137.398
-2.33695
-3.05791e-05
-3.05791e-05
-3.05791e-05
-3.05791e-05
-1.72158
-234.185
-715.493
-854.985
-276.948
-533.298
-617.297
-348.175
-241.4
-363.49
-441.973
-442.037
-441.222
-108.107
-8.71785
-10.93
-28.7673
-6.22503
-0.0918148
-0.000375521
-3.47905e-05
-3.47905e-05
-0.00882141
-27.5005
-612.926
-974.529
-974.669
-272.873
-533.235
-259.031
-6.00172
-24.8399
-239.503
-427.076
-463.344
-336.404
-87.1667
-10.3672
-16.9847
-0.824095
-0.0353221
-0.0353229
-3.90018e-05
-3.90018e-05
-5.63314e-05
-0.010644
-15.8911
-466.178
-1087.11
-1092.51
-302.077
-302.173
-4.31946
-1.43509
-5.72421
-5.35439
-6.76185e-07
-6.76185e-07
-6.76185e-07
-57.963
-222.092
-221.979
-58.3246
-11.5002
-9.54626e-05
-9.43269e-05
-0.00240259
-0.0198605
-0.0483087
-1.3651
-63.6141
-764.341
-1210.56
-329.984
-7.06488e-06
-1.06756
-0.815354
-0.927851
-0.0637877
-7.42083e-07
-2.17395e-05
-0.0284639
-4.66178
-141.036
-250.17
-250.656
-149.026
-0.000110787
-0.206378
-3.59595
-24.6711
-36.2224
-6.58946
-8.62572
-172.7
-862.126
-267.147
-7.69192e-06
-0.103798
-0.208861
-0.00983024
-1.50945e-05
-1.78371e-05
-0.000753492
-0.00275649
-3.67972e-05
-3.67922e-05
-78.0313
-217.411
-217.589
-171.442
-0.538451
-117.913
-299.232
-347.835
-140.99
-17.3346
-247.72
-506.876
-61.799
-8.31923e-06
-0.00330413
-0.00344489
-0.00106207
-1.64977e-05
-3.62865e-05
-0.00013383
-4.59148e-07
-3.97988e-05
-6.63697e-05
-4.52586e-05
-4.52388e-05
-17.3476
-41.7533
-250.717
-410.201
-410.297
-410.201
-322.977
-55.5867
-436.587
-548.199
-0.38079
-8.94619e-06
-1.69829e-05
-5.49512e-05
-8.54665e-05
-8.5133e-05
-4.20339e-07
-4.22027e-07
-4.93686e-07
-4.00425e-05
-0.00034945
-0.000743464
-0.000743281
-2.38112e-07
-2.38112e-07
-2.38112e-07
-39.2428
-182.096
-187.325
-37.4969
-26.4635
-102.956
-481.686
-0.0124725
-9.57343e-06
-9.5735e-06
-9.57391e-06
-9.57395e-06
-2.67801e-05
-7.5852e-07
-4.60917e-07
-4.69046e-07
-4.33036e-07
-4.34061e-07
-0.000768685
-0.00223618
-0.00141199
-4.12638e-06
-2.54809e-07
-2.54809e-07
-2.54809e-07
-2.54809e-07
-2.54809e-07
-2.54809e-07
-2.54809e-07
-2.54809e-07
-1.02007e-05
-1.02003e-05
-1.02007e-05
-1.02008e-05
-0.000503747
-3.77563e-05
-2.59693e-06
-9.68836e-07
-1.02713e-06
-1.51971e-06
-1.47022e-06
-0.00015492
-0.00238253
-0.00238271
-0.000730174
-2.71506e-07
-1.10556e-05
-1.12169e-05
-5.62227e-06
-2.29987e-05
-4.54032e-05
-3.30118e-05
-1.34833e-05
-0.00141145
-0.204656
-1.08281e-05
-0.0127112
-0.0052946
-7.12812e-05
-3.42534e-06
-1.08142e-06
-1.17005e-06
-2.0164e-06
-1.65127e-06
-1.65127e-06
-0.000624924
-0.00248504
-0.00039357
-2.88202e-07
-3.09684e-06
-3.6172e-06
-2.77607e-06
-3.99718e-05
-0.000140582
-0.000140694
-9.93923e-05
-0.494328
-0.56441
-1.14559e-05
-0.0203052
-0.00535341
-3.9768e-05
-1.38953e-06
-7.54077e-07
-1.06057e-06
-1.93844e-06
-1.64249e-06
-2.1641e-06
-0.000335058
-8.1124e-06
-2.40111e-05
-5.48146e-06
-3.16542e-06
-2.89927e-06
-1.23166e-06
-1.56854e-07
-1.56758e-07
-1.56757e-07
-2.2301e-05
-0.596637
-0.596733
-1.20833e-05
-0.0146197
-0.00168164
-1.50656e-05
-5.31994e-07
-4.71096e-07
-1.00468e-06
-1.45241e-06
-1.67031e-06
-2.95675e-05
-1.99976e-06
-3.32025e-07
-3.32216e-07
-2.96402e-06
-3.32405e-06
-2.85356e-06
-1.53389e-06
-5.87166e-07
-2.60706e-07
-1.6534e-07
-1.62906e-07
-0.366159
-0.319599
-0.0127175
-0.0017871
-0.000102818
-2.46078e-06
-3.0322e-07
-3.85044e-07
-9.71292e-07
-1.289e-06
-2.0127e-06
-1.52563e-05
-4.6116e-06
-6.10537e-07
-4.09909e-07
-1.21942e-06
-1.5009e-06
-9.43697e-07
-6.17634e-07
-4.87898e-07
-4.01108e-07
-2.82296e-07
-1.90969e-07
-0.00383389
-0.00184164
-0.00591478
-0.000824645
-8.12108e-06
-3.07459e-07
-2.02988e-07
-3.68331e-07
-7.56345e-07
-1.22211e-06
-3.40237e-06
-4.32376e-06
-1.58001e-06
-3.23706e-07
-4.45357e-07
-5.97652e-07
-6.16902e-07
-3.98197e-07
-2.57407e-07
-1.74442e-07
-1.28218e-07
-1.14367e-07
-1.26691e-07
-4.62575e-08
-6.17535e-08
-3.76571e-06
-1.1046e-05
-1.12738e-06
-1.31416e-07
-1.53048e-07
-3.11404e-07
-5.94284e-07
-1.10777e-06
-3.02728e-06
-2.24664e-06
-4.73744e-07
-2.10008e-07
-2.57561e-07
-2.90256e-07
-2.40569e-07
-1.37138e-07
-8.28964e-08
-5.46559e-08
-4.60874e-08
-5.30276e-08
-8.00176e-08
-1.03694e-08
-1.0282e-08
-1.69537e-08
-6.02075e-08
-6.33318e-08
-7.58199e-08
-1.07907e-07
-2.2204e-07
-4.76354e-07
-1.1038e-06
-1.91177e-06
-9.25236e-07
-2.01111e-07
-1.29205e-07
-1.31616e-07
-1.28285e-07
-8.18394e-08
-4.15807e-08
-2.46271e-08
-2.37038e-08
-3.81687e-08
-1.11948e-07
-2.98798e-07
-1.03144e-08
-1.00973e-08
-1.1636e-08
-2.08638e-08
-3.90125e-08
-4.52412e-08
-6.60112e-08
-1.64256e-07
-4.22393e-07
-1.01085e-06
-9.37814e-07
-3.32398e-07
-9.87809e-08
-6.97793e-08
-6.15285e-08
-4.67505e-08
-2.12098e-08
-1.14608e-08
-1.38735e-08
-4.74164e-08
-2.35914e-07
-9.25351e-07
-3.59568e-06
-4.99938e-09
-5.15539e-09
-6.70224e-09
-1.39812e-08
-1.98206e-08
-2.2172e-08
-4.24479e-08
-1.32175e-07
-3.79295e-07
-6.84168e-07
-4.10863e-07
-1.22769e-07
-4.90695e-08
-3.3845e-08
-2.56144e-08
-1.39579e-08
-7.69637e-09
-1.14509e-08
-6.23884e-08
-3.83883e-07
-1.95747e-06
-1.19318e-05
-8.75995e-05
-1.0661e-09
-1.38138e-09
-2.73507e-09
-5.95999e-09
-7.66051e-09
-1.06911e-08
-2.84208e-08
-1.03483e-07
-3.06302e-07
-3.27231e-07
-1.53799e-07
-4.96083e-08
-2.24985e-08
-1.37074e-08
-8.4563e-09
-7.4873e-09
-1.42404e-08
-9.32839e-08
-5.59709e-07
-2.79455e-06
-1.89689e-05
-0.000193917
-0.000360364
-1.81185e-10
-3.30925e-10
-9.15191e-10
-1.97802e-09
-2.8511e-09
-5.49532e-09
-1.86888e-08
-7.53012e-08
-1.84885e-07
-1.40175e-07
-5.64525e-08
-2.01816e-08
-9.07948e-09
-5.63492e-09
-6.15903e-09
-2.1394e-08
-1.2116e-07
-2.76105e-07
-5.2333e-07
-5.53674e-05
-0.000298568
-0.000321231
-0.000198967
-2.73204e-11
-7.35477e-11
-2.67324e-10
-6.08672e-10
-1.08131e-09
-2.94892e-09
-1.20354e-08
-5.00238e-08
-8.91983e-08
-5.40038e-08
-2.05372e-08
-7.78156e-09
-4.22273e-09
-4.96665e-09
-1.44417e-08
-2.32038e-08
-2.32041e-08
-2.32045e-08
-0.000152863
-0.00030343
-0.000302787
-9.41618e-05
-4.74332e-08
-3.90866e-12
-1.53904e-11
-7.15703e-11
-1.83936e-10
-4.33986e-10
-1.62436e-09
-7.83395e-09
-2.89147e-08
-3.86429e-08
-2.00054e-08
-7.45388e-09
-3.10787e-09
-2.57908e-09
-1.2861e-08
-1.58678e-07
-2.6859e-06
-7.65216e-05
-0.000398778
-0.000398776
-0.000246823
-4.87202e-08
-8.95014e-07
-7.37156e-08
-5.57822e-13
-3.10939e-12
-1.83773e-11
-5.75085e-11
-1.93177e-10
-9.72907e-10
-5.20097e-09
-1.42658e-08
-1.54052e-08
-6.70475e-09
-2.13566e-09
-9.0487e-10
-3.6919e-10
-3.6852e-10
-3.6919e-10
-3.6852e-10
-0.000245951
-0.000428919
-0.000318305
-5.03852e-08
-5.03842e-08
-1.06097e-07
-1.03095e-07
-8.2565e-14
-6.35655e-13
-4.79637e-12
-2.01982e-11
-1.01221e-10
-6.09032e-10
-3.08205e-09
-6.32536e-09
-5.62968e-09
-2.77162e-09
-6.04746e-09
-5.90079e-08
-6.00582e-07
-8.8031e-06
-0.000154648
-0.000710824
-0.00061385
-2.99507e-05
-3.34826e-05
-4.47433e-07
-3.11135e-08
-8.23596e-08
-3.53176e-08
-1.33538e-14
-1.45986e-13
-1.43764e-12
-9.01866e-12
-6.10091e-11
-3.82546e-10
-1.54834e-09
-2.45266e-09
-2.06312e-09
-2.23298e-09
-1.54006e-08
-1.54772e-07
-2.40324e-06
-0.000133811
-0.000786869
-0.000791844
-0.000420764
-3.02605e-08
-1.13561e-06
-3.54021e-07
-2.95949e-08
-1.34171e-08
-3.90288e-09
-2.59158e-15
-4.22831e-14
-5.24546e-13
-4.32768e-12
-3.15147e-11
-1.81933e-10
-6.28563e-10
-9.32343e-10
-9.0956e-10
-9.09088e-10
-1.03846e-09
-3.87692e-08
-9.60046e-07
-0.000129653
-0.000858012
-0.000816289
-1.7838e-08
-3.12016e-08
-1.36256e-07
-5.82264e-08
-7.09907e-09
-1.38065e-09
-4.21858e-10
-5.87072e-16
-1.48604e-14
-2.18621e-13
-2.27977e-12
-1.8678e-11
-1.12719e-10
-4.78709e-10
-1.7949e-09
-1.64589e-08
-1.96771e-07
-6.93174e-07
-1.06495e-08
-1.05966e-08
-0.000228357
-0.000344307
-0.000152144
-1.83482e-08
-1.84362e-08
-2.25686e-08
-6.6429e-09
-7.66103e-10
-1.44101e-10
-5.09419e-11
-3.69577e-16
-9.27054e-15
-1.92186e-13
-2.65025e-12
-2.86197e-11
-2.40847e-10
-1.51814e-09
-7.63569e-09
-4.43862e-08
-3.42088e-07
-8.48693e-06
-0.000538093
-0.00225892
-0.00155372
-5.37147e-09
-2.51282e-06
-5.54389e-07
-4.83069e-08
-4.96506e-09
-7.33401e-10
-7.61271e-11
-1.56139e-11
-5.84423e-12
-3.88802e-16
-1.65052e-14
-4.79475e-13
-9.93368e-12
-1.52189e-10
-1.65088e-09
-1.14663e-08
-3.92082e-08
-8.34549e-08
-2.27106e-07
-9.20542e-06
-0.000958647
-0.00239775
-0.0016218
-5.49861e-09
-1.38566e-07
-1.95999e-07
-2.62127e-08
-1.17275e-09
-8.0262e-11
-7.63273e-12
-1.68188e-12
-5.8821e-13
-1.10746e-15
-6.17435e-14
-1.88779e-12
-3.96045e-11
-6.00994e-10
-6.49793e-09
-4.62898e-08
-1.06008e-07
-8.57563e-08
-1.3566e-06
-0.000327376
-0.00230507
-0.00143781
-0.000318659
-5.67614e-09
-2.44162e-08
-3.69574e-08
-4.85785e-09
-2.04396e-10
-7.99345e-12
-7.0597e-13
-1.5661e-13
-5.02048e-14
-6.12088e-15
-2.95033e-13
-7.42995e-12
-1.29773e-10
-1.71764e-09
-1.8128e-08
-1.71824e-07
-1.4038e-06
-3.71012e-06
-1.39316e-06
-0.0001134
-0.00236701
-0.000171576
-1.69751e-07
-3.83773e-07
-8.03472e-09
-7.8075e-09
-7.34539e-10
-2.66752e-11
-7.38329e-13
-6.95211e-14
-1.35489e-14
-3.85245e-15
-2.7951e-14
-1.16632e-12
-2.42168e-11
-3.37732e-10
-3.55331e-09
-2.9443e-08
-1.94041e-07
-1.22703e-06
-3.11184e-05
-0.00103699
-0.00478168
-0.000934409
-6.59437e-09
-1.74191e-07
-3.70544e-07
-3.41921e-09
-1.36936e-09
-9.94474e-11
-2.55841e-12
-5.48433e-14
-5.69456e-15
-9.52718e-16
-2.45099e-16
-1.28381e-13
-4.70362e-12
-8.20353e-11
-9.11209e-10
-7.28449e-09
-4.3991e-08
-1.97398e-07
-2.00483e-06
-0.000297238
-0.00438026
-0.00490517
-0.000719623
-6.76178e-09
-9.72643e-08
-1.32212e-07
-1.37165e-09
-2.52292e-10
-1.24285e-11
-1.88445e-13
-3.89725e-15
-4.4157e-16
-6.19316e-17
-1.3927e-17
-4.456e-13
-1.51028e-11
-2.39031e-10
-2.33482e-09
-1.57787e-08
-7.83655e-08
-3.03578e-07
-8.06287e-06
-0.00165528
-0.00528304
-0.00464718
-1.38724e-09
-1.58429e-08
-3.61934e-08
-2.10919e-08
-4.37169e-10
-4.46367e-11
-1.29985e-12
-9.20297e-15
-2.19316e-16
-2.25576e-17
-2.82559e-18
-6.01262e-19
-1.50102e-12
-4.65887e-11
-6.71295e-10
-5.89785e-09
-3.51041e-08
-1.48551e-07
-2.91049e-07
-2.91052e-07
-0.00111963
-0.00541113
-0.000830756
-1.42106e-09
-2.79897e-08
-2.38388e-08
-3.32086e-09
-1.24121e-10
-7.39152e-12
-1.09036e-13
-2.68483e-16
-1.0613e-17
-9.50035e-19
-1.0467e-19
-2.01843e-20
-4.04904e-12
-1.16649e-10
-1.55717e-09
-1.26668e-08
-6.99142e-08
-2.9201e-07
-4.89173e-06
-0.000884402
-0.00474919
-0.00243863
-7.5387e-10
-1.46888e-08
-3.47454e-08
-2.14239e-08
-5.83137e-10
-3.08471e-11
-1.03833e-12
-6.21177e-15
-3.28727e-18
-2.23191e-19
-1.75317e-20
-1.87221e-21
-4.00562e-22
-1.07045e-11
-2.81003e-10
-3.39101e-09
-2.4623e-08
-1.16665e-07
-2.27823e-07
-2.27825e-07
-0.000507664
-0.00486146
-0.000705204
-7.71296e-10
-2.05582e-08
-3.21931e-08
-1.26136e-08
-1.2479e-10
-6.91919e-12
-1.27685e-13
-2.14174e-16
-4.28923e-20
-2.01778e-21
-1.16673e-22
-1.26049e-23
-3.64596e-24
-4.55296e-11
-1.01676e-09
-1.03181e-08
-6.3678e-08
-2.99625e-07
-1.13438e-05
-0.00142259
-0.00557455
-0.00235506
-7.88722e-10
-3.6516e-09
-1.42835e-08
-1.51294e-08
-3.1103e-09
-2.56384e-11
-1.22268e-12
-1.20228e-14
-2.97503e-18
-7.68348e-25
-8.14421e-29
-1.11446e-30
-2.58961e-31
-6.41171e-32
-514.939
-325.229
-371.856
-489.299
-401.554
-401.581
-528.813
-615.552
-518.964
-599.503
-737.661
-737.661
-841.767
-848.601
-855.478
-855.478
-974.562
-974.738
-914.109
-627.355
-1092.65
-1078.01
-553.148
-163.213
-1210.48
-1198.18
-627.967
-274.028
-1169.11
-1138.13
-653.341
-346.074
-253.18
-253.178
-214.341
-156.471
-518.42
-82.1185
-44.5301
-54.0464
-557.255
-292.433
-19.8145
-19.8185
-31.5424
-19.786
-39.0264
-115.185
-2.71618e-07
-2.71507e-07
-2.71618e-07
-2.71507e-07
-2.4064e-05
-2.94844e-05
-9.26512e-05
-0.0114661
-6.11803e-05
-5.3796e-05
-6.97595e-05
-0.00189202
-1.62911e-07
-1.50051e-07
-1.31399e-06
-0.000174288
-1.57841e-07
-1.57846e-07
-1.58618e-07
-4.17201e-06
-1.69321e-07
-1.93373e-07
-2.34545e-07
-4.09398e-07
-1.25627e-07
-1.72323e-07
-2.35748e-07
-2.84736e-07
-5.82328e-07
-1.06146e-06
-1.92396e-06
-2.96831e-06
-1.26572e-05
-2.66747e-05
-3.45113e-05
-3.89491e-05
-0.00024901
-0.000237304
-0.000112491
-6.21049e-05
-0.000351979
-6.02524e-05
-4.41032e-08
-3.09522e-06
-4.57548e-08
-4.57459e-08
-4.57829e-08
-4.57426e-08
-4.74313e-08
-6.70259e-08
-8.75474e-08
-1.08069e-07
-1.0296e-07
-1.1071e-07
-1.20262e-07
-1.34577e-07
-7.59568e-08
-6.17747e-08
-5.65911e-08
-5.37982e-08
-1.55824e-08
-1.3061e-08
-1.17552e-08
-1.09973e-08
-2.13083e-09
-1.79268e-09
-1.59713e-09
-1.47179e-09
-2.44189e-10
-1.99919e-10
-1.7119e-10
-1.51673e-10
-2.96382e-11
-2.35763e-11
-1.94557e-11
-1.66073e-11
-3.38799e-12
-2.69201e-12
-2.21654e-12
-1.88465e-12
-3.32883e-13
-2.62797e-13
-2.1525e-13
-1.82223e-13
-2.77727e-14
-2.18168e-14
-1.78155e-14
-1.50709e-14
-2.0687e-15
-1.61504e-15
-1.31176e-15
-1.10441e-15
-1.29301e-16
-1.01082e-16
-8.23407e-17
-6.94531e-17
-7.01544e-18
-5.39927e-18
-4.35692e-18
-3.66028e-18
-3.05133e-19
-2.3436e-19
-1.87691e-19
-1.56077e-19
-1.00607e-20
-7.71579e-21
-6.14158e-21
-5.03771e-21
-2.12881e-22
-1.6448e-22
-1.30882e-22
-1.07272e-22
-2.11087e-24
-1.65066e-24
-1.33647e-24
-1.11375e-24
-2.11578e-32
-1.14548e-32
-6.28333e-33
-3.56493e-33
-501.963
-437.18
-23.7651
-27.5987
-13.8232
-23.423
-265.989
-484.936
-520.499
-520.502
-450.721
-150.148
-94.7817
-151.947
-271.589
-261.119
-316.376
-442.573
-417.501
-619.765
-450.618
-41.4797
-94.678
-30.3813
-60.9624
-402.433
-611.433
-637.195
-589.668
-356.997
-119.951
-116.98
-241.558
-429.524
-464.32
-539.155
-539.154
-517.978
-710.862
-172.717
-49.3637
-199.844
-577.284
-700.372
-718.997
-723.64
-593.526
-249.787
-197.28
-215.976
-141.966
-141.94
-157.42
-304.04
-489.28
-383.448
-216.873
-641.407
-119.599
-235.883
-620.241
-753.075
-834.281
-849.639
-832.319
-272.203
-32.4688
-33.0779
-252.306
-383.699
-383.795
-248.396
-266.637
-115.627
-6.38241
-6.38419
-280.213
-136.074
-674.62
-695.107
-664.18
-727.298
-780.314
-705.427
-505.336
-210.46
-0.836091
-0.0100306
-56.8768
-160.131
-233.84
-163.307
-7.89442
-8.03408
-7.26461
-127.416
-127.422
-334.448
-154.67
-111.422
-270.603
-410.241
-579.123
-478.552
-311.403
-28.5986
-0.0112448
-0.0112448
-0.0112448
-0.0112448
-0.970882
-8.84019
-1.75754
-0.0282207
-279.794
-280.059
-17.4244
-0.00935038
-0.00935038
-19.5621
-8.58058
-14.4922
-0.13544
-16.8696
-13.7917
-9.42637
-14.5156
-5.8389
-0.067193
-0.0312679
-0.0312597
-0.0312679
-0.0312597
-245.114
-321.357
-54.3389
-0.0102616
-6.69522
-71.124
-13.5656
-0.148639
-0.14864
-6.54689
-54.5704
-81.9456
-81.9062
-22.0635
-0.0410521
-0.0933408
-0.187285
-0.0343432
-0.0740225
-67.671
-199.506
-109.637
-19.7521
-14.2453
-102.97
-50.5245
-0.215304
-0.0642528
-0.0031487
-0.00314873
-22.7308
-19.3221
-5.0379
-0.0197091
-0.250179
-0.0988283
-0.187275
-0.251983
-22.9499
-4.90598
-45.9413
-3.79961
-94.2554
-108.057
-13.2971
-0.00129098
-0.00177259
-0.0572973
-0.199428
-0.0315485
-0.417348
-0.247176
-0.0213155
-0.00199619
-1.30184e-08
-0.270465
-0.270517
-20.2124
-0.17696
-0.177026
-0.181117
-137.023
-11.4464
-0.00127657
-0.00241079
-0.0418213
-0.0616167
-0.0596455
-0.0339256
-0.0273178
-0.0122947
-0.00582525
-1.40001e-08
-1.40002e-08
-0.229868
-0.0413466
-115.173
-82.6996
-2.11462
-20.0506
-53.33
-6.81501
-0.00136617
-0.00136609
-0.0233605
-0.0649034
-0.0648148
-0.0299394
-0.00855843
-0.00561392
-1.64199e-06
-1.91843e-05
-7.18123e-07
-2.57823e-07
-2.57783e-07
-5.1565
-30.4195
-32.8341
-32.8306
-4.57174e-05
-0.48283
-0.0357391
-0.00382354
-0.0668921
-0.0689783
-0.0647944
-0.0647753
-0.0446001
-0.00396807
-3.56629e-05
-0.000183327
-1.39635e-05
-2.78259e-07
-2.74717e-07
-0.439867
-8.23955
-16.1367
-6.32475
-4.85288e-05
-0.0139827
-0.0387015
-0.011051
-0.0230799
-0.0174424
-0.00908414
-0.010189
-0.00490298
-1.14554e-05
-0.00102665
-0.00024347
-1.17186e-05
-8.39208e-07
-9.6793e-07
-0.2165
-0.928068
-1.2538
-0.772117
-5.13403e-05
-0.000281944
-0.00406068
-0.00195261
-0.000215279
-1.2059e-06
-1.19789e-06
-1.2059e-06
-1.19789e-06
-1.3194e-05
-7.30659e-06
-5.92716e-07
-7.22427e-06
-1.19678e-05
-4.83646e-05
-0.00616429
-0.271518
-0.971316
-0.921141
-0.20599
-5.41518e-05
-5.41517e-05
-0.000110545
-0.00278696
-0.00203236
-0.00113548
-0.000774616
-0.000692754
-0.000379373
-1.71102e-05
-6.25145e-07
-4.81915e-07
-0.000202786
-0.000570837
-0.000915076
-0.0178427
-0.188572
-0.537404
-0.497917
-0.0741917
-0.00778031
-0.0105785
-0.00951853
-0.00194427
-0.00065283
-0.00094519
-0.000949074
-0.000669983
-5.68165e-05
-2.6615e-06
-5.07254e-07
-0.000669083
-0.000767294
-1.6858e-06
-7.88361e-05
-0.000934817
-0.0082484
-0.0541567
-0.0296551
-0.0123972
-0.00460476
-7.92923e-08
-7.93215e-08
-7.92923e-08
-7.93215e-08
-1.47529e-07
-4.27951e-05
-7.02242e-05
-9.30783e-06
-5.31955e-07
-0.000766703
-0.000767099
-2.97562e-07
-2.97559e-07
-6.82174e-07
-1.06756e-06
-1.90135e-06
-8.30218e-08
-8.30523e-08
-8.30218e-08
-2.19698e-07
-1.18133e-06
-2.78797e-06
-2.64805e-06
-6.3922e-07
-1.77521e-07
-1.77607e-07
-1.7359e-06
-5.57326e-07
-0.000435904
-3.97169e-05
-4.58905e-06
-7.5832e-06
-9.03376e-06
-9.67914e-06
-1.00605e-05
-8.82567e-06
-4.32759e-06
-3.70979e-06
-2.96917e-06
-2.82911e-06
-3.51625e-06
-2.63038e-05
-8.10537e-06
-2.52201e-06
-1.23329e-06
-2.38698e-06
-2.47919e-06
-2.15032e-05
-1.91212e-05
-4.31993e-05
-4.39624e-05
-3.58125e-05
-2.23869e-05
-1.53209e-05
-9.92768e-06
-6.10704e-06
-4.24248e-06
-2.65832e-06
-1.15485e-06
-8.8046e-10
-0.000111321
-0.000294674
-0.000224939
-3.51788e-05
-4.19463e-06
-4.09778e-05
-1.99432e-05
-1.99434e-05
-6.11217e-05
-4.20408e-05
-1.62592e-05
-6.90916e-06
-3.39381e-06
-1.84932e-06
-1.15895e-06
-5.12264e-07
-2.25553e-07
-7.22736e-08
-9.16686e-10
-0.000107061
-0.00153856
-0.00169905
-0.000447908
-2.10039e-05
-7.8253e-05
-7.36522e-05
-2.49452e-05
-5.74134e-06
-8.91381e-07
-1.25599e-07
-1.54609e-07
-1.80681e-07
-1.58691e-07
-7.2006e-08
-3.49059e-08
-2.92762e-08
-8.46016e-08
-3.84617e-07
-7.38465e-05
-0.00146973
-0.00187594
-0.00152462
-0.000117521
-5.78258e-05
-0.000326196
-0.000163347
-4.57628e-08
-5.24359e-08
-1.32672e-07
-1.90885e-07
-1.79098e-07
-8.33481e-08
-3.6881e-08
-2.46316e-08
-4.83752e-08
-3.21807e-07
-3.27778e-06
-4.10715e-05
-4.10716e-05
-0.00186082
-0.00197568
-0.000531767
-2.38587e-05
-0.000560989
-0.000511512
-1.59909e-07
-2.24935e-07
-2.39746e-07
-2.07305e-07
-9.28579e-08
-3.15604e-08
-1.51242e-08
-1.40849e-08
-5.89283e-08
-3.95505e-07
-4.11819e-06
-9.08516e-05
-0.000381215
-0.000614952
-0.00204816
-0.00106801
-2.47552e-05
-0.000718441
-0.00071871
-1.49797e-07
-1.59019e-07
-1.45738e-07
-7.23762e-08
-2.42112e-08
-8.32288e-09
-4.37853e-09
-5.0947e-09
-2.47936e-08
-1.5283e-07
-1.7996e-06
-0.000160609
-0.00140424
-0.000454155
-0.00211185
-0.00137689
-4.51097e-05
-0.000725632
-0.000737131
-5.03754e-08
-4.52624e-08
-3.4678e-08
-1.50567e-08
-5.11823e-09
-1.78849e-09
-9.2279e-10
-1.09121e-09
-6.03649e-09
-5.0291e-08
-9.48764e-07
-0.000141603
-0.00145323
-0.000469751
-0.000760815
-0.00142395
-0.000184376
-0.00034486
-0.0012725
-1.00287e-08
-8.65417e-09
-6.41847e-09
-2.74816e-09
-9.62193e-10
-3.37339e-10
-1.50825e-10
-1.7575e-10
-1.67995e-09
-2.45032e-08
-4.19811e-07
-2.98299e-05
-0.000452185
-0.00069161
-0.000524109
-0.00127212
-0.000223606
-3.6927e-05
-0.0040756
-1.31184e-09
-1.0969e-09
-8.24776e-10
-3.84559e-10
-1.49938e-10
-5.5725e-11
-2.27366e-11
-2.80509e-11
-4.53458e-10
-9.02728e-09
-7.21424e-08
-3.81809e-20
-3.82119e-20
-0.00617073
-0.000844754
-0.000742592
-0.000297735
-3.81066e-05
-0.00465149
-1.28699e-10
-1.01508e-10
-7.67434e-11
-4.21197e-11
-1.88192e-11
-7.6741e-12
-2.88366e-12
-7.3903e-13
-1.38827e-13
-3.94051e-20
-3.9388e-20
-4.94631e-17
-3.09733e-19
-0.00765087
-0.00234008
-0.000409558
-0.000231408
-3.91456e-05
-0.00479586
-1.34134e-11
-9.9635e-12
-7.32955e-12
-4.36196e-12
-2.03465e-12
-8.34338e-13
-3.3583e-13
-9.15283e-14
-1.81357e-14
-4.67495e-15
-1.23963e-15
-1.44219e-16
-4.04685e-20
-0.00601029
-0.00483802
-0.000846539
-0.000137217
-4.03214e-05
-0.00392011
-1.51002e-12
-1.10634e-12
-7.99903e-13
-4.60416e-13
-1.98489e-13
-7.36734e-14
-3.13478e-14
-9.9103e-15
-1.90528e-15
-3.76174e-16
-4.84237e-17
-8.97592e-18
-4.16498e-20
-2.95284e-23
-0.0382733
-0.00700836
-0.000318528
-4.14964e-05
-0.000506078
-1.45239e-13
-1.05853e-13
-7.60929e-14
-4.27038e-14
-1.75795e-14
-5.53386e-15
-2.43906e-15
-9.54526e-16
-1.69674e-16
-3.30143e-17
-4.35011e-18
-8.78407e-19
-4.16067e-20
-5.84966e-22
-0.0713273
-0.0310785
-0.00078378
-3.76865e-05
-5.12337e-06
-1.20492e-14
-8.87287e-15
-6.47654e-15
-3.554e-15
-1.46794e-15
-3.71386e-16
-1.56479e-16
-7.83295e-17
-1.27578e-17
-2.22925e-18
-2.86261e-19
-6.12857e-20
-7.51549e-21
1.4492e-21
-0.0645726
-0.068871
-0.00680288
-3.99854e-05
-1.3993e-06
-8.79603e-16
-6.48271e-16
-4.8056e-16
-2.69904e-16
-1.16899e-16
-2.36859e-17
-8.37557e-18
-5.28501e-18
-8.45392e-19
-1.27621e-19
-1.5943e-20
-3.18498e-21
-6.69172e-22
3.28754e-21
-0.00349774
-0.13791
-0.0273116
-0.000121589
-1.43467e-06
-5.53197e-17
-4.07244e-17
-3.03184e-17
-1.76726e-17
-8.23281e-18
-1.45534e-18
-4.06777e-19
-2.73621e-19
-4.87765e-20
-6.82199e-21
-7.57116e-22
-1.18887e-22
-2.59434e-23
2.22991e-21
2.54638e-21
-0.235635
-0.0640391
-0.000276247
-1.4744e-06
-2.91146e-18
-2.14387e-18
-1.61075e-18
-9.9119e-19
-5.11954e-19
-8.36212e-20
-1.86325e-20
-1.12934e-20
-2.52238e-21
-3.27836e-22
-3.29159e-23
-3.85569e-24
-6.55604e-25
1.04266e-21
4.46659e-21
-0.303058
-0.11972
-0.000464229
-1.5096e-06
-1.22825e-19
-8.99461e-20
-6.89e-20
-4.4169e-20
-2.47096e-20
-3.93105e-21
-7.91929e-22
-3.95959e-22
-8.84966e-23
-1.1489e-23
-1.09118e-24
-1.02449e-25
-1.32837e-26
3.91967e-22
6.34712e-21
-0.310576
-0.175558
-0.00107856
-1.54951e-06
-3.88229e-21
-2.80251e-21
-2.22968e-21
-1.50846e-21
-9.31036e-22
-1.57175e-22
-2.91484e-23
-1.11498e-23
-2.41488e-24
-3.25081e-25
-3.10381e-26
-2.61718e-27
-2.80416e-28
1.07192e-22
7.20939e-21
-0.318017
-0.198726
-0.00306508
-1.58353e-06
-8.32457e-23
-6.13863e-23
-5.01504e-23
-3.50012e-23
-2.19455e-23
-4.02587e-24
-6.83957e-25
-2.17237e-25
-4.18251e-26
-5.29864e-27
-4.80719e-28
-3.62645e-29
-3.64046e-30
1.7441e-23
5.38961e-21
-0.325385
-0.295715
-0.0146032
-0.0237763
-8.78189e-25
-6.60481e-25
-5.56493e-25
-4.05087e-25
-2.65272e-25
-6.03919e-26
-9.35325e-27
-2.29557e-27
-4.06568e-28
-5.13124e-29
-4.75474e-30
-3.50417e-31
-4.00714e-32
1.14552e-24
1.95557e-21
-0.280491
-0.336307
-0.0588224
-0.0825862
-1.62072e-33
-4.08517e-34
-9.42242e-35
-1.27629e-35
-7.60606e-37
-3.33054e-38
-1.38453e-39
-3.06835e-41
-6.38979e-60
6.83157e-43
3.42837e-43
1.5044e-43
9.41309e-44
1.22736e-43
3.71455e-43
-0.0148254
-0.309094
-0.0571072
-0.0845577
)
;

boundaryField
{
    leftWall
    {
        type            calculated;
        value           nonuniform List<scalar> 
50
(
-29.4294
-88.2881
-147.147
-206.006
-264.864
-323.723
-382.582
-441.44
-533.467
-658.662
-783.856
-814.474
-276.948
-272.873
-302.077
-329.984
-267.147
-61.799
-0.38079
-0.0124725
-1.02007e-05
-0.00141145
-0.494328
-0.596637
-0.366159
-0.00383389
-4.62575e-08
-1.03694e-08
-1.03144e-08
-4.99938e-09
-1.0661e-09
-1.81185e-10
-2.73204e-11
-3.90866e-12
-5.57822e-13
-8.2565e-14
-1.33538e-14
-2.59158e-15
-5.87072e-16
-3.69577e-16
-3.88802e-16
-1.10746e-15
-6.12088e-15
-2.7951e-14
-1.28381e-13
-4.456e-13
-1.50102e-12
-4.04904e-12
-1.07045e-11
-4.55296e-11
)
;
    }
    rightWall
    {
        type            calculated;
        value           nonuniform List<scalar> 
50
(
-28.5199
-86.313
-143.855
-201.699
-262.479
-320.808
-378.985
-388.294
-417.501
-517.978
-216.873
-6.38419
-7.26461
-0.0282207
-0.0312597
-0.0740225
-0.251983
-0.270517
-0.0413466
-2.57783e-07
-2.74717e-07
-9.6793e-07
-4.83646e-05
-0.000570837
-0.000767294
-0.000767099
-3.97169e-05
-1.91212e-05
-1.99434e-05
-2.49452e-05
-0.000163347
-0.000511512
-0.00071871
-0.000737131
-0.0012725
-0.0040756
-0.00465149
-0.00479586
-0.00392011
-0.000506078
-5.12337e-06
-1.3993e-06
-1.43467e-06
-1.4744e-06
-1.5096e-06
-1.54951e-06
-1.58353e-06
-0.0237763
-0.0825862
-0.0845577
)
;
    }
    lowerWall
    {
        type            calculated;
        value           nonuniform List<scalar> 
62
(
0
0
0
0
0
0
0
0
0
0
0
0
0
0
0
0
0
0
0
0
0
0
0
-29.4249
-88.2639
-147.106
-205.949
-264.813
-323.719
-382.58
-441.436
-454.515
-287.066
-328.222
-431.884
-27.054
-81.1618
-124.881
-153.374
-240.074
-304.606
-359.989
-415.371
0
0
0
0
0
0
0
0
0
0
0
0
0
0
0
0
0
0
0
)
;
    }
    atmosphere
    {
        type            calculated;
        value           nonuniform List<scalar> 
46
(
-4.60326e-11
-1.02799e-09
-1.04321e-08
-6.43815e-08
-3.02935e-07
-1.14692e-05
-0.00143831
-0.00563613
-0.00238107
-7.97435e-10
-3.69194e-09
-1.44413e-08
-1.52965e-08
-3.14466e-09
-2.59216e-11
-1.23619e-12
-1.21556e-14
-3.00789e-18
-0
-0
-0
-0
-0
-0
-0
-0
-0
-0
-0
-0
-0
-0
-0
-0
-0
-0
-0
-0
-0
-0
-0
-0
-0
-0.312508
-0.0577381
-0.0854918
)
;
    }
    defaultFaces
    {
        type            empty;
    }
}


// ************************************************************************* //
