/*--------------------------------*- C++ -*----------------------------------*\
| =========                 |                                                 |
| \\      /  F ield         | OpenFOAM: The Open Source CFD Toolbox           |
|  \\    /   O peration     | Version:  2012                                  |
|   \\  /    A nd           | Website:  www.openfoam.com                      |
|    \\/     M anipulation  |                                                 |
\*---------------------------------------------------------------------------*/
FoamFile
{
    version     2.0;
    format      ascii;
    class       volVectorField;
    location    "0.88";
    object      U;
}
// * * * * * * * * * * * * * * * * * * * * * * * * * * * * * * * * * * * * * //

dimensions      [0 1 -1 0 0 0 0];


internalField   nonuniform List<vector> 
2268
(
(-0.0222317 0.00923807 0)
(-0.0636085 0.00861596 0)
(-0.104021 0.00726793 0)
(-0.138394 0.00568033 0)
(-0.166855 0.00283583 0)
(-0.187305 0.00169782 0)
(-0.202335 0.000599064 0)
(-0.210062 0.000539425 0)
(-0.214347 0.000221964 0)
(-0.215124 -0.000417175 0)
(-0.212327 -0.00103337 0)
(-0.204054 -0.00302869 0)
(-0.194449 -0.00337663 0)
(-0.176713 -0.00583378 0)
(-0.15499 -0.00733111 0)
(-0.122332 -0.010182 0)
(-0.082179 -0.0122065 0)
(-0.0333764 -0.0136174 0)
(0.0157214 -0.0142651 0)
(0.0597764 -0.0138467 0)
(0.0868626 -0.00796272 0)
(0.0557544 -0.00897738 0)
(0.0492814 0.00360636 0)
(-0.0222738 0.0313169 0)
(-0.0645436 0.0300637 0)
(-0.105591 0.0280251 0)
(-0.140181 0.0240383 0)
(-0.168008 0.0202576 0)
(-0.18785 0.0150592 0)
(-0.202769 0.0101975 0)
(-0.210863 0.00505598 0)
(-0.215473 0.00225561 0)
(-0.215362 -0.000658927 0)
(-0.213008 -0.0040829 0)
(-0.204791 -0.00555696 0)
(-0.195853 -0.00942217 0)
(-0.178521 -0.0129288 0)
(-0.156637 -0.0182619 0)
(-0.123497 -0.0243199 0)
(-0.0832797 -0.0297578 0)
(-0.0332793 -0.0327119 0)
(0.0167663 -0.0296955 0)
(0.0618027 -0.0197698 0)
(0.0887906 0.00997175 0)
(0.0611022 0.0268004 0)
(0.042718 0.0460315 0)
(-0.0234054 0.0502631 0)
(-0.0658675 0.0480079 0)
(-0.107012 0.0430284 0)
(-0.142135 0.0352117 0)
(-0.171703 0.0253608 0)
(-0.192447 0.0181263 0)
(-0.207401 0.0114804 0)
(-0.214791 0.00656329 0)
(-0.21847 0.00239598 0)
(-0.216751 -0.00155719 0)
(-0.21428 -0.00597544 0)
(-0.207203 -0.0111422 0)
(-0.198815 -0.0157395 0)
(-0.180765 -0.0244339 0)
(-0.159897 -0.0332704 0)
(-0.125002 -0.044925 0)
(-0.085305 -0.0547785 0)
(-0.0309241 -0.0609713 0)
(0.0224711 -0.0592328 0)
(0.0747226 -0.0480022 0)
(0.111723 -0.00786196 0)
(0.0776342 0.0126611 0)
(0.0453953 0.0525826 0)
(-0.0235744 0.0734891 0)
(-0.0678779 0.069632 0)
(-0.110439 0.0639476 0)
(-0.146114 0.0546566 0)
(-0.174291 0.0439927 0)
(-0.194375 0.0319362 0)
(-0.209179 0.0208263 0)
(-0.216605 0.0101152 0)
(-0.220225 0.00329891 0)
(-0.217966 -0.00290459 0)
(-0.217318 -0.00842246 0)
(-0.210072 -0.0131316 0)
(-0.202831 -0.0217249 0)
(-0.186318 -0.0314786 0)
(-0.166106 -0.044463 0)
(-0.131404 -0.059673 0)
(-0.0914462 -0.074125 0)
(-0.0338431 -0.0836849 0)
(0.0239521 -0.0794552 0)
(0.0858058 -0.0617761 0)
(0.127332 0.0090598 0)
(0.101409 0.058484 0)
(0.0492624 0.10432 0)
(-0.0256648 0.0934649 0)
(-0.0709362 0.0890489 0)
(-0.114898 0.0800507 0)
(-0.152158 0.0653997 0)
(-0.183532 0.0481382 0)
(-0.204256 0.0345953 0)
(-0.218356 0.0219487 0)
(-0.223947 0.0118954 0)
(-0.224604 0.00304978 0)
(-0.221144 -0.00274808 0)
(-0.21938 -0.00970784 0)
(-0.214942 -0.0178626 0)
(-0.208694 -0.0269838 0)
(-0.191785 -0.0418151 0)
(-0.173144 -0.0592078 0)
(-0.136034 -0.0802751 0)
(-0.0960655 -0.100843 0)
(-0.0310063 -0.115606 0)
(0.0338471 -0.115959 0)
(0.116028 -0.0971088 0)
(0.168905 -0.0159408 0)
(0.134517 0.0491401 0)
(0.0739289 0.123376 0)
(-0.0251134 0.119143 0)
(-0.0741106 0.111938 0)
(-0.12088 0.102138 0)
(-0.158584 0.0872369 0)
(-0.18788 0.0685622 0)
(-0.208185 0.0484849 0)
(-0.22197 0.0302145 0)
(-0.226747 0.0128347 0)
(-0.227045 0.00209645 0)
(-0.223314 -0.0057766 0)
(-0.224722 -0.0111464 0)
(-0.219464 -0.0185813 0)
(-0.214864 -0.0324088 0)
(-0.202006 -0.0484774 0)
(-0.18373 -0.0706086 0)
(-0.147783 -0.0962153 0)
(-0.106121 -0.123659 0)
(-0.0386594 -0.145101 0)
(0.0347509 -0.148628 0)
(0.135661 -0.125218 0)
(0.184466 0.00132406 0)
(0.161061 0.104046 0)
(0.0719975 0.203549 0)
(-0.0284348 0.140288 0)
(-0.0779372 0.134244 0)
(-0.126588 0.120045 0)
(-0.167623 0.0970009 0)
(-0.201572 0.0715016 0)
(-0.222106 0.0506215 0)
(-0.234993 0.0306629 0)
(-0.237091 0.0144536 0)
(-0.232506 0.00144782 0)
(-0.226907 -0.00350605 0)
(-0.225729 -0.0115498 0)
(-0.226617 -0.0222611 0)
(-0.22474 -0.0353235 0)
(-0.212706 -0.056513 0)
(-0.195072 -0.0848689 0)
(-0.15718 -0.116984 0)
(-0.115141 -0.152349 0)
(-0.0405565 -0.182264 0)
(0.044071 -0.198806 0)
(0.160741 -0.168399 0)
(0.208876 -0.0293172 0)
(0.200856 0.101493 0)
(0.120758 0.232098 0)
(-0.0286437 0.16947 0)
(-0.0893218 0.158592 0)
(-0.142132 0.144218 0)
(-0.181045 0.123013 0)
(-0.21127 0.0941995 0)
(-0.230877 0.0645356 0)
(-0.242077 0.0373372 0)
(-0.241489 0.0114169 0)
(-0.234873 -0.00265626 0)
(-0.228641 -0.00950531 0)
(-0.232792 -0.0110918 0)
(-0.232593 -0.0195848 0)
(-0.233808 -0.038663 0)
(-0.225064 -0.0627291 0)
(-0.206874 -0.096599 0)
(-0.173897 -0.134168 0)
(-0.135547 -0.178734 0)
(-0.0679672 -0.220469 0)
(0.017101 -0.243104 0)
(0.135285 -0.202238 0)
(0.189818 -0.0160242 0)
(0.195988 0.146761 0)
(0.115627 0.35793 0)
(-0.429619 0.198389 0)
(-1.02364 0.139661 0)
(-1.56734 0.0973391 0)
(-1.94439 0.0421336 0)
(-2.13687 0.0141074 0)
(-2.227 -0.0105028 0)
(-2.27434 -0.00662947 0)
(-2.07204 -0.053588 0)
(-1.59478 -0.141797 0)
(-0.811697 -0.159139 0)
(-0.276835 -0.0557126 0)
(-0.0918532 0.110519 0)
(-0.316573 0.0810591 0)
(-0.555545 -0.0584302 0)
(-0.695573 -0.0883852 0)
(-0.68907 0.00910432 0)
(-0.62079 0.0186211 0)
(-0.540436 -0.0776471 0)
(-0.182793 -0.0872507 0)
(-0.344905 0.420794 0)
(-0.899247 0.3446 0)
(-1.37698 0.294063 0)
(-1.75333 0.199331 0)
(-2.0337 0.104688 0)
(-2.15176 0.0680074 0)
(-2.01699 -0.0611862 0)
(-1.47685 -0.235872 0)
(-1.00493 -0.396739 0)
(-0.470612 -0.40762 0)
(-0.10753 -0.247995 0)
(0.308312 -0.0945736 0)
(0.589708 0.116746 0)
(0.505112 0.217866 0)
(0.179992 0.147945 0)
(-0.329107 -0.0417335 0)
(-0.447785 -0.0815884 0)
(-0.334774 -0.108876 0)
(-0.130696 -0.221047 0)
(-0.279918 0.722332 0)
(-0.706185 0.574359 0)
(-1.07578 0.462373 0)
(-1.32702 0.323159 0)
(-1.60321 0.190194 0)
(-1.26301 -0.0258332 0)
(-1.2014 -0.30334 0)
(-1.03576 -0.461979 0)
(-0.675248 -0.57065 0)
(-0.320429 -0.544422 0)
(-0.147852 -0.38511 0)
(0.251481 -0.188871 0)
(0.617786 -0.000872797 0)
(0.661055 0.118319 0)
(0.619799 0.263083 0)
(0.331609 0.274092 0)
(-0.186743 0.0230674 0)
(-0.012396 -0.21381 0)
(-0.0135328 -0.285057 0)
(-0.168024 0.843574 0)
(-0.365328 0.687867 0)
(-0.594991 0.552541 0)
(-0.503087 0.390807 0)
(-0.35078 0.0963476 0)
(-0.0738609 -0.105754 0)
(-0.21105 -0.162371 0)
(-0.627711 -0.422101 0)
(-0.443578 -0.709949 0)
(-0.287486 -0.635498 0)
(-0.171503 -0.488959 0)
(0.1072 -0.420879 0)
(0.679401 -0.058549 0)
(0.631837 0.213978 0)
(0.522715 0.291659 0)
(0.463591 0.300407 0)
(0.383719 0.065427 0)
(0.225467 -0.181168 0)
(0.0935098 -0.232018 0)
(-0.178443 0.94944 0)
(-0.375566 0.749908 0)
(-0.502763 0.521166 0)
(-0.401119 0.298595 0)
(-0.219264 -0.00159298 0)
(-0.0399316 -0.0876587 0)
(-0.0506226 -0.100751 0)
(-0.186632 -0.365889 0)
(-0.218122 -0.723468 0)
(-0.295479 -0.663205 0)
(-0.205394 -0.551816 0)
(-0.0663046 -0.553133 0)
(0.162897 -0.218658 0)
(0.611382 0.186168 0)
(0.466101 0.333728 0)
(0.443272 0.330279 0)
(0.431773 0.129151 0)
(0.296472 -0.0926207 0)
(0.120751 -0.149794 0)
(-0.182547 1.07792 0)
(-0.367436 0.826808 0)
(-0.478118 0.553534 0)
(-0.366545 0.243821 0)
(-0.163623 -0.0589984 0)
(0.0147059 -0.175513 0)
(0.0315074 -0.10637 0)
(0.00236306 -0.318736 0)
(-0.129596 -0.666265 0)
(-0.320903 -0.642876 0)
(-0.246763 -0.585264 0)
(-0.19298 -0.577514 0)
(-0.13939 -0.349384 0)
(0.337138 0.0853627 0)
(0.335672 0.3635 0)
(0.378494 0.314457 0)
(0.35194 0.128173 0)
(0.222825 -0.0474961 0)
(0.0794323 -0.0540784 0)
(-0.185003 1.18279 0)
(-0.33836 0.872533 0)
(-0.436969 0.525985 0)
(-0.259487 0.168287 0)
(-0.0138524 -0.161314 0)
(0.0777574 -0.170326 0)
(0.0818951 -0.0965496 0)
(0.0732536 -0.296439 0)
(-0.124869 -0.58877 0)
(-0.333081 -0.614446 0)
(-0.316935 -0.606079 0)
(-0.299571 -0.60095 0)
(-0.317369 -0.442496 0)
(-0.339059 -0.016135 0)
(0.00157097 0.317132 0)
(0.226043 0.323032 0)
(0.205898 0.194037 0)
(0.0784283 0.0208276 0)
(0.0482701 -0.0221832 0)
(-0.142001 1.30164 0)
(-0.282678 0.936838 0)
(-0.288062 0.514684 0)
(0.0803464 0.0751655 0)
(0.320326 -0.222684 0)
(0.073921 -0.210217 0)
(0.0985254 -0.106062 0)
(0.0330746 -0.229282 0)
(-0.222629 -0.491028 0)
(-0.359525 -0.561189 0)
(-0.411898 -0.599037 0)
(-0.407866 -0.576557 0)
(-0.579558 -0.331213 0)
(-0.801567 -0.0501169 0)
(-0.533893 0.124003 0)
(-0.202963 0.226064 0)
(-0.104143 0.19215 0)
(-0.163183 0.022348 0)
(-0.0610992 0.00121127 0)
(-0.0324285 0.210756 0)
(-0.0883826 0.204181 0)
(-0.147134 0.174358 0)
(-0.200239 0.133121 0)
(-0.243699 0.0954088 0)
(-0.264023 0.0652079 0)
(-0.270777 0.0347465 0)
(-0.259125 0.0110038 0)
(-0.238362 -0.00549464 0)
(-0.222848 -0.000913842 0)
(-0.223171 -0.00883719 0)
(-0.240592 -0.0224176 0)
(-0.249341 -0.0392379 0)
(-0.244674 -0.0728516 0)
(-0.237824 -0.116192 0)
(-0.21059 -0.159902 0)
(-0.185469 -0.215415 0)
(-0.112782 -0.273335 0)
(-0.0431764 -0.325397 0)
(0.0727471 -0.278772 0)
(0.127803 -0.0845076 0)
(0.320753 0.128335 0)
(0.222945 0.385202 0)
(-0.0363059 0.276008 0)
(-0.121901 0.258222 0)
(-0.185533 0.244841 0)
(-0.234226 0.217518 0)
(-0.260874 0.157069 0)
(-0.268983 0.0924466 0)
(-0.271181 0.0330869 0)
(-0.25772 -0.0211765 0)
(-0.220946 -0.0382909 0)
(-0.212458 -0.028652 0)
(-0.248922 0.0062543 0)
(-0.262219 0.00668443 0)
(-0.278386 -0.0336978 0)
(-0.305349 -0.0710784 0)
(-0.314463 -0.123273 0)
(-0.308188 -0.177967 0)
(-0.296666 -0.263922 0)
(-0.258665 -0.345623 0)
(-0.217471 -0.399356 0)
(-0.15319 -0.345981 0)
(-0.14562 -0.237149 0)
(0.0509027 0.0570915 0)
(0.0852089 0.328438 0)
(-0.0521557 0.369839 0)
(-0.157225 0.354151 0)
(-0.254577 0.287776 0)
(-0.373518 0.208479 0)
(-0.455531 0.130698 0)
(-0.481281 0.0744877 0)
(-0.507484 0.0245372 0)
(-0.464647 -0.0406528 0)
(-0.269216 -0.0493725 0)
(-0.121248 0.0276337 0)
(-0.223099 0.0413562 0)
(-0.410593 0.00798976 0)
(-0.431442 0.00362502 0)
(-0.428013 -0.0366164 0)
(-0.442841 -0.113748 0)
(-0.444733 -0.177961 0)
(-0.413063 -0.264819 0)
(-0.354395 -0.352432 0)
(-0.214892 -0.431429 0)
(-0.104423 -0.35299 0)
(-0.145541 -0.29438 0)
(-0.0207091 -0.103552 0)
(0.0368807 0.223973 0)
(-0.0524973 0.485637 0)
(-0.164394 0.463122 0)
(-0.31935 0.459997 0)
(-0.569694 0.422679 0)
(-0.954255 0.263158 0)
(-1.11854 0.149061 0)
(-1.07467 0.0141041 0)
(-0.883896 -0.256911 0)
(-0.711366 -0.387045 0)
(-0.369829 -0.0727352 0)
(-0.0944181 0.2973 0)
(-0.254443 0.21343 0)
(-0.377453 -0.0149642 0)
(-0.437484 -0.0604485 0)
(-0.302888 -0.107647 0)
(-0.375017 -0.206194 0)
(-0.287568 -0.363559 0)
(-0.135015 -0.543211 0)
(-0.00541049 -0.652781 0)
(-0.129414 -0.403735 0)
(-0.251204 -0.320175 0)
(-0.282176 -0.128194 0)
(-0.354371 0.235235 0)
(-0.0868117 0.588043 0)
(-0.301614 0.623212 0)
(-0.45094 0.696171 0)
(-0.79306 0.844881 0)
(-1.50649 0.685677 0)
(-1.61597 0.195836 0)
(-1.42549 -0.202641 0)
(-1.2988 -0.423033 0)
(-1.19556 -0.553553 0)
(-1.11576 -0.600289 0)
(-0.684064 -0.100434 0)
(-0.237187 0.295855 0)
(-0.0944754 0.185408 0)
(0.320175 -0.109567 0)
(0.346048 -0.149118 0)
(0.263392 -0.220128 0)
(-0.109148 -0.462446 0)
(-0.127684 -0.666602 0)
(-0.290929 -0.394192 0)
(-0.396661 -0.153341 0)
(-0.51727 -0.131701 0)
(-0.592307 0.00277709 0)
(-0.682504 0.331733 0)
(-0.207356 0.874807 0)
(-0.516367 0.832221 0)
(-0.632639 0.936737 0)
(-0.842863 1.40974 0)
(-1.59935 1.01267 0)
(-1.5942 0.0618277 0)
(-1.55273 -0.312647 0)
(-1.48973 -0.489495 0)
(-1.48645 -0.576503 0)
(-1.57529 -0.59171 0)
(-1.6714 -0.446349 0)
(-1.33651 -0.446185 0)
(-0.827135 -0.53797 0)
(-0.606678 -0.512604 0)
(-0.401028 -0.0784246 0)
(-0.606986 0.268416 0)
(-0.890748 -0.00515308 0)
(-1.01473 -0.35318 0)
(-0.997168 -0.375698 0)
(-0.614057 -0.177168 0)
(-0.60969 -0.118501 0)
(-0.682775 0.0376572 0)
(-0.752547 0.385715 0)
(-0.374441 1.31226 0)
(-0.627 1.05315 0)
(-0.590366 1.01121 0)
(-0.947525 2.03459 0)
(-1.45535 1.51006 0)
(-1.4958 0.165932 0)
(-1.52019 -0.308032 0)
(-1.57312 -0.486561 0)
(-1.65006 -0.455355 0)
(-1.68485 -0.402656 0)
(-1.61185 -0.47844 0)
(-1.5384 -0.538877 0)
(-1.47921 -0.550593 0)
(-1.48325 -0.535477 0)
(-1.46025 -0.117099 0)
(-1.3995 0.253228 0)
(-1.39972 -0.0457898 0)
(-1.08111 -0.556516 0)
(-1.18784 -0.797464 0)
(-0.826293 -0.58111 0)
(-0.666363 -0.0605578 0)
(-0.708375 0.146913 0)
(-0.668244 0.382102 0)
(-0.461991 1.87443 0)
(-0.562761 1.05882 0)
(-0.945875 1.27355 0)
(-1.179 2.19837 0)
(-1.17585 1.53044 0)
(-1.21714 0.147999 0)
(-1.45964 -0.232532 0)
(-1.54239 -0.337299 0)
(-1.60718 -0.504666 0)
(-1.57771 -0.594348 0)
(-1.53064 -0.567003 0)
(-1.49579 -0.580702 0)
(-1.47969 -0.580616 0)
(-1.47274 -0.526876 0)
(-1.51451 -0.158656 0)
(-1.3009 0.241667 0)
(-0.949183 -0.350256 0)
(-0.923455 -0.557154 0)
(-0.982293 -0.605157 0)
(-1.17546 -0.660482 0)
(-1.17463 -0.228618 0)
(-1.05022 0.0446818 0)
(-0.618725 0.323892 0)
(-0.524906 2.30694 0)
(-0.0450999 1.5964 0)
(-1.28847 1.59696 0)
(-1.11631 2.26158 0)
(-1.23545 1.52121 0)
(-1.229 0.464248 0)
(-1.51317 -0.0255566 0)
(-1.36571 -0.32705 0)
(-1.41022 -0.441038 0)
(-1.37637 -0.483499 0)
(-1.41462 -0.571041 0)
(-1.3748 -0.590297 0)
(-1.35473 -0.572424 0)
(-1.37568 -0.477925 0)
(-1.39306 -0.405308 0)
(-1.07797 -0.26768 0)
(-0.917274 -0.438152 0)
(-0.902076 -0.516325 0)
(-0.908296 -0.53629 0)
(-0.927702 -0.45438 0)
(-1.06808 -0.179372 0)
(-0.958289 -0.401493 0)
(-0.664644 -0.367877 0)
(-0.513018 2.39839 0)
(0.254892 1.9932 0)
(-1.28381 2.21094 0)
(-1.02952 2.23554 0)
(-1.19551 1.58576 0)
(-1.03964 0.477788 0)
(-1.05915 -0.115361 0)
(-0.887459 -0.406924 0)
(-0.951787 -0.501502 0)
(-0.905781 -0.560144 0)
(-1.03018 -0.558303 0)
(-1.08423 -0.640537 0)
(-1.20707 -0.579954 0)
(-1.16016 -0.486801 0)
(-1.15102 -0.377068 0)
(-1.07086 -0.386015 0)
(-0.950597 -0.473067 0)
(-0.884342 -0.569418 0)
(-0.844385 -0.580745 0)
(-0.806314 -0.497751 0)
(-0.782061 -0.20807 0)
(-0.722569 -0.360828 0)
(-0.69658 -0.44881 0)
(-0.482646 2.52222 0)
(-0.259602 2.43959 0)
(-1.30118 2.7942 0)
(-1.06236 2.2063 0)
(-1.11612 1.49947 0)
(-0.739127 0.349989 0)
(-0.747228 -0.206088 0)
(-0.562299 -0.427726 0)
(-0.616561 -0.444291 0)
(-0.544994 -0.411998 0)
(-0.621414 -0.397587 0)
(-0.626396 -0.424124 0)
(-0.766043 -0.494117 0)
(-0.828686 -0.536693 0)
(-0.911849 -0.482116 0)
(-0.937279 -0.447587 0)
(-0.931756 -0.62441 0)
(-0.854532 -0.622766 0)
(-0.772958 -0.614303 0)
(-0.713513 -0.516884 0)
(-0.736717 -0.247807 0)
(-0.724792 -0.487539 0)
(-0.654347 -0.561446 0)
(-0.484485 3.13905 0)
(-0.68273 2.85845 0)
(-1.17651 2.98609 0)
(-1.02173 2.09015 0)
(-0.920396 1.23386 0)
(-0.436682 0.138207 0)
(-0.4936 -0.309593 0)
(-0.294754 -0.514332 0)
(-0.358657 -0.526614 0)
(-0.23708 -0.531543 0)
(-0.309229 -0.488133 0)
(-0.291305 -0.473999 0)
(-0.388633 -0.386937 0)
(-0.388422 -0.335566 0)
(-0.43966 -0.296167 0)
(-0.408083 -0.342331 0)
(-0.532279 -0.560104 0)
(-0.710462 -0.728358 0)
(-0.730251 -0.721708 0)
(-0.822818 -0.531358 0)
(-0.702757 -0.19671 0)
(-0.673801 -0.442485 0)
(-0.61848 -0.61874 0)
(-0.354803 3.68755 0)
(-0.628127 3.15763 0)
(-0.940697 3.11137 0)
(-0.764344 1.96626 0)
(-0.580206 0.889739 0)
(-0.131787 -0.0652087 0)
(-0.202288 -0.368471 0)
(-0.0317169 -0.557067 0)
(-0.128944 -0.518718 0)
(-0.0608824 -0.46162 0)
(-0.173256 -0.350354 0)
(-0.189061 -0.345085 0)
(-0.263543 -0.396602 0)
(-0.232087 -0.476748 0)
(-0.2496 -0.454683 0)
(-0.206133 -0.349251 0)
(-0.223023 -0.325986 0)
(-0.349335 -0.425351 0)
(-0.46707 -0.517041 0)
(-0.593879 -0.532737 0)
(-0.572046 -0.409683 0)
(-0.451416 -0.555598 0)
(-0.541055 -0.737 0)
(-0.304256 4.12072 0)
(-0.55256 3.45395 0)
(-0.740715 3.10806 0)
(-0.448899 1.74808 0)
(-0.218262 0.588013 0)
(0.0977973 -0.223037 0)
(0.0515757 -0.42181 0)
(0.15367 -0.569922 0)
(0.0512394 -0.504605 0)
(0.0808053 -0.470768 0)
(-0.00711992 -0.367041 0)
(0.0100721 -0.371641 0)
(-0.063228 -0.352916 0)
(-0.108061 -0.346991 0)
(-0.206599 -0.333745 0)
(-0.231015 -0.371833 0)
(-0.238559 -0.416182 0)
(-0.268923 -0.475055 0)
(-0.325904 -0.469898 0)
(-0.43037 -0.422216 0)
(-0.447254 -0.35404 0)
(-0.459446 -0.470333 0)
(-0.546479 -0.54195 0)
(-0.390204 4.54368 0)
(-0.432755 3.60647 0)
(-0.616886 2.99627 0)
(-0.146507 1.45494 0)
(0.0773178 0.324374 0)
(0.329939 -0.326234 0)
(0.285509 -0.44132 0)
(0.325108 -0.547843 0)
(0.206961 -0.459621 0)
(0.176002 -0.398988 0)
(0.0747234 -0.287164 0)
(0.0538856 -0.28575 0)
(-0.0321751 -0.280262 0)
(-0.0619189 -0.327959 0)
(-0.119545 -0.331135 0)
(-0.152625 -0.311529 0)
(-0.211373 -0.291972 0)
(-0.273709 -0.335688 0)
(-0.358134 -0.364427 0)
(-0.42004 -0.403384 0)
(-0.451702 -0.38729 0)
(-0.470118 -0.445633 0)
(-0.581237 -0.462776 0)
(-0.283214 4.94315 0)
(-0.230006 3.68382 0)
(-0.401515 2.81047 0)
(0.225253 1.06217 0)
(0.395708 0.0942136 0)
(0.55607 -0.415596 0)
(0.483236 -0.430212 0)
(0.437225 -0.475736 0)
(0.281499 -0.36275 0)
(0.203625 -0.3263 0)
(0.106705 -0.249963 0)
(0.0725938 -0.256919 0)
(-0.000628472 -0.242063 0)
(-0.0472285 -0.255518 0)
(-0.133084 -0.247852 0)
(-0.188714 -0.277523 0)
(-0.233514 -0.296731 0)
(-0.274032 -0.324213 0)
(-0.325667 -0.322866 0)
(-0.388444 -0.324697 0)
(-0.44831 -0.306522 0)
(-0.512597 -0.337145 0)
(-0.607397 -0.348854 0)
(-0.025913 5.05402 0)
(0.0987191 3.73637 0)
(0.135802 2.53004 0)
(0.742533 0.666921 0)
(0.783194 -0.0254865 0)
(0.791654 -0.40133 0)
(0.633735 -0.337642 0)
(0.506418 -0.335651 0)
(0.338737 -0.234941 0)
(0.248387 -0.218838 0)
(0.142331 -0.161506 0)
(0.0861066 -0.174322 0)
(0.000107657 -0.16316 0)
(-0.0572183 -0.191619 0)
(-0.127618 -0.190889 0)
(-0.174465 -0.207461 0)
(-0.238922 -0.208826 0)
(-0.296255 -0.240385 0)
(-0.36273 -0.25441 0)
(-0.415724 -0.277001 0)
(-0.465455 -0.268379 0)
(-0.500253 -0.282313 0)
(-0.567305 -0.265005 0)
(0.260263 4.86517 0)
(0.44003 3.52768 0)
(0.966047 2.15235 0)
(1.22772 0.439931 0)
(1.12651 0.0206799 0)
(0.946348 -0.243928 0)
(0.701698 -0.156201 0)
(0.525448 -0.167624 0)
(0.353783 -0.10901 0)
(0.247207 -0.121765 0)
(0.138752 -0.0907786 0)
(0.0710768 -0.109213 0)
(-0.0110406 -0.101526 0)
(-0.0704154 -0.123975 0)
(-0.143664 -0.132968 0)
(-0.197852 -0.163419 0)
(-0.25554 -0.176407 0)
(-0.301705 -0.197384 0)
(-0.357005 -0.203716 0)
(-0.409498 -0.218464 0)
(-0.462792 -0.221832 0)
(-0.507211 -0.232197 0)
(-0.556739 -0.229331 0)
(0.576409 4.33959 0)
(0.841455 3.05362 0)
(1.5926 1.72467 0)
(1.44765 0.535971 0)
(1.25515 0.234732 0)
(0.960424 0.0399188 0)
(0.709498 0.0757376 0)
(0.52966 0.01908 0)
(0.369599 0.0387719 0)
(0.255173 0.000769988 0)
(0.142593 0.0111006 0)
(0.0613811 -0.0208634 0)
(-0.0269781 -0.0240273 0)
(-0.0925883 -0.0559196 0)
(-0.164726 -0.0651073 0)
(-0.222263 -0.0928868 0)
(-0.286633 -0.10665 0)
(-0.338797 -0.136635 0)
(-0.393162 -0.149096 0)
(-0.436717 -0.1693 0)
(-0.480888 -0.17376 0)
(-0.513498 -0.186944 0)
(-0.553332 -0.18018 0)
(0.761568 3.43485 0)
(1.09047 2.52357 0)
(1.61916 1.53858 0)
(1.34286 0.782286 0)
(1.14871 0.499128 0)
(0.849126 0.31282 0)
(0.656607 0.26941 0)
(0.480459 0.181182 0)
(0.341301 0.162957 0)
(0.224178 0.111161 0)
(0.119993 0.101305 0)
(0.0358783 0.0645915 0)
(-0.0466993 0.0510423 0)
(-0.113813 0.0169781 0)
(-0.183691 -0.00436964 0)
(-0.239632 -0.038959 0)
(-0.29783 -0.0605562 0)
(-0.346598 -0.0884337 0)
(-0.397015 -0.105966 0)
(-0.438336 -0.128267 0)
(-0.479493 -0.144619 0)
(-0.51232 -0.15788 0)
(-0.545882 -0.164123 0)
(0.5624 2.48047 0)
(0.919335 2.1578 0)
(1.25305 1.48222 0)
(1.05353 1.00604 0)
(0.929372 0.726589 0)
(0.708611 0.537891 0)
(0.569999 0.441556 0)
(0.419468 0.338622 0)
(0.30005 0.292259 0)
(0.188825 0.225453 0)
(0.0894499 0.197062 0)
(0.00425053 0.148628 0)
(-0.0783861 0.12384 0)
(-0.146824 0.0833903 0)
(-0.216184 0.0592531 0)
(-0.274743 0.0231883 0)
(-0.334427 -0.00102905 0)
(-0.382506 -0.0359139 0)
(-0.429512 -0.0588475 0)
(-0.466704 -0.0857898 0)
(-0.504726 -0.101275 0)
(-0.534052 -0.120193 0)
(-0.568454 -0.125216 0)
(0.252834 1.94172 0)
(0.594046 1.82854 0)
(0.803019 1.41237 0)
(0.748656 1.09957 0)
(0.69281 0.84644 0)
(0.554443 0.674735 0)
(0.45572 0.558334 0)
(0.333754 0.455473 0)
(0.235586 0.393034 0)
(0.136318 0.325665 0)
(0.0481798 0.2854 0)
(-0.0326982 0.235593 0)
(-0.110273 0.201756 0)
(-0.178381 0.157369 0)
(-0.245499 0.123359 0)
(-0.303113 0.081446 0)
(-0.360094 0.047187 0)
(-0.408543 0.00855653 0)
(-0.457673 -0.0216451 0)
(-0.500464 -0.0512935 0)
(-0.544769 -0.0768803 0)
(-0.58884 -0.0928005 0)
(-0.632044 -0.109029 0)
(0.118532 1.63433 0)
(0.369242 1.59984 0)
(0.51562 1.32975 0)
(0.529514 1.1174 0)
(0.506918 0.922442 0)
(0.420647 0.776793 0)
(0.347545 0.661785 0)
(0.249847 0.560741 0)
(0.165022 0.488442 0)
(0.0758534 0.414867 0)
(-0.00655483 0.364738 0)
(-0.0838558 0.308912 0)
(-0.158047 0.268291 0)
(-0.223916 0.220162 0)
(-0.288783 0.182859 0)
(-0.345584 0.139058 0)
(-0.402116 0.10339 0)
(-0.452339 0.062649 0)
(-0.50485 0.032231 0)
(-0.555856 0.00186802 0)
(-0.613926 -0.0133771 0)
(-0.668561 -0.0328895 0)
(-0.718535 -0.0488593 0)
(0.0624747 1.45194 0)
(0.235538 1.42832 0)
(0.33843 1.25439 0)
(0.361231 1.10755 0)
(0.35237 0.956335 0)
(0.296943 0.835532 0)
(0.242358 0.729774 0)
(0.166208 0.64042 0)
(0.0952767 0.567417 0)
(0.0181356 0.499805 0)
(-0.0564862 0.445399 0)
(-0.128897 0.389435 0)
(-0.199698 0.342148 0)
(-0.264619 0.290208 0)
(-0.328724 0.245452 0)
(-0.386908 0.196587 0)
(-0.446034 0.154393 0)
(-0.502757 0.112886 0)
(-0.56708 0.0823422 0)
(-0.634282 0.0593649 0)
(-0.704423 0.0363087 0)
(-0.757447 0.0130793 0)
(-0.784701 -0.0327527 0)
(0.0371747 1.33589 0)
(0.151865 1.32074 0)
(0.218538 1.20466 0)
(0.239615 1.10295 0)
(0.233355 0.987282 0)
(0.193802 0.887301 0)
(0.14754 0.792355 0)
(0.0832433 0.708767 0)
(0.0195199 0.635937 0)
(-0.0512636 0.567771 0)
(-0.120222 0.511062 0)
(-0.188801 0.453257 0)
(-0.256046 0.403222 0)
(-0.319958 0.350138 0)
(-0.384129 0.304359 0)
(-0.44567 0.257212 0)
(-0.510796 0.21866 0)
(-0.580473 0.1845 0)
(-0.657403 0.16358 0)
(-0.730566 0.139691 0)
(-0.78561 0.110053 0)
(-0.805567 0.047468 0)
(-0.81695 -0.00880977 0)
(0.0195908 1.26206 0)
(0.0930214 1.24571 0)
(0.132511 1.16677 0)
(0.145962 1.09273 0)
(0.138343 1.0027 0)
(0.107728 0.922283 0)
(0.0678469 0.841031 0)
(0.013747 0.769978 0)
(-0.0436997 0.702596 0)
(-0.108057 0.641314 0)
(-0.173061 0.583594 0)
(-0.2386 0.527032 0)
(-0.304362 0.474069 0)
(-0.36913 0.420023 0)
(-0.436503 0.37201 0)
(-0.505627 0.324796 0)
(-0.582348 0.290026 0)
(-0.664906 0.260889 0)
(-0.745258 0.23309 0)
(-0.799983 0.188972 0)
(-0.814156 0.11172 0)
(-0.821244 0.0447799 0)
(-0.833977 -0.00653344 0)
(0.00812675 1.22287 0)
(0.050584 1.20655 0)
(0.0682335 1.15168 0)
(0.072868 1.09681 0)
(0.0595497 1.02556 0)
(0.0303769 0.95806 0)
(-0.00882168 0.886273 0)
(-0.0596056 0.82089 0)
(-0.114067 0.757544 0)
(-0.175612 0.697855 0)
(-0.237346 0.641307 0)
(-0.302219 0.585273 0)
(-0.367843 0.533282 0)
(-0.435738 0.48293 0)
(-0.508305 0.440422 0)
(-0.586374 0.403906 0)
(-0.672423 0.377891 0)
(-0.753717 0.348256 0)
(-0.809529 0.299067 0)
(-0.816509 0.208697 0)
(-0.823241 0.131136 0)
(-0.829976 0.0673797 0)
(-0.842613 0.0201248 0)
(0.00127357 1.20317 0)
(0.0202161 1.1853 0)
(0.0215235 1.14457 0)
(0.0171546 1.10159 0)
(-0.00113828 1.04556 0)
(-0.0300023 0.991318 0)
(-0.0683315 0.93159 0)
(-0.116029 0.876275 0)
(-0.168697 0.819294 0)
(-0.227264 0.765883 0)
(-0.287775 0.711002 0)
(-0.351978 0.658958 0)
(-0.418476 0.608663 0)
(-0.491719 0.561945 0)
(-0.571424 0.523871 0)
(-0.662529 0.490188 0)
(-0.750091 0.458277 0)
(-0.810364 0.399276 0)
(-0.816253 0.296023 0)
(-0.821089 0.203172 0)
(-0.82725 0.125334 0)
(-0.833621 0.0642247 0)
(-0.839675 0.017375 0)
(-0.00279427 1.20125 0)
(-0.00109259 1.18593 0)
(-0.0133027 1.15474 0)
(-0.028226 1.11952 0)
(-0.0545567 1.07284 0)
(-0.0878782 1.0256 0)
(-0.129805 0.972471 0)
(-0.179243 0.921772 0)
(-0.233102 0.868899 0)
(-0.293143 0.817504 0)
(-0.354579 0.766026 0)
(-0.422858 0.716501 0)
(-0.49385 0.672832 0)
(-0.572467 0.636584 0)
(-0.659685 0.611212 0)
(-0.747221 0.583537 0)
(-0.811369 0.526224 0)
(-0.817391 0.414489 0)
(-0.819701 0.309806 0)
(-0.823285 0.219711 0)
(-0.823895 0.143701 0)
(-0.823921 0.0800267 0)
(-0.812217 0.0232795 0)
(-0.00702042 1.20713 0)
(-0.0181331 1.19595 0)
(-0.0394501 1.17187 0)
(-0.0621526 1.14302 0)
(-0.0934049 1.1055 0)
(-0.129597 1.067 0)
(-0.173034 1.0234 0)
(-0.222351 0.980315 0)
(-0.276233 0.933814 0)
(-0.335406 0.888376 0)
(-0.399087 0.841583 0)
(-0.469837 0.799513 0)
(-0.547133 0.759549 0)
(-0.636355 0.729031 0)
(-0.726489 0.699855 0)
(-0.797366 0.642965 0)
(-0.810349 0.528789 0)
(-0.809318 0.407993 0)
(-0.815872 0.301831 0)
(-0.812664 0.207335 0)
(-0.809739 0.125821 0)
(-0.790939 0.0521491 0)
(-0.766406 -0.0163223 0)
(-0.0122414 1.22654 0)
(-0.0337375 1.21855 0)
(-0.0638686 1.19916 0)
(-0.0951333 1.17395 0)
(-0.134408 1.14079 0)
(-0.177062 1.10583 0)
(-0.226279 1.06574 0)
(-0.279229 1.02558 0)
(-0.336536 0.982403 0)
(-0.399221 0.94086 0)
(-0.465793 0.900779 0)
(-0.542356 0.864956 0)
(-0.622172 0.839517 0)
(-0.712359 0.816682 0)
(-0.788511 0.772495 0)
(-0.812099 0.667901 0)
(-0.806239 0.537833 0)
(-0.809305 0.420343 0)
(-0.800178 0.313204 0)
(-0.789455 0.213914 0)
(-0.765477 0.12216 0)
(-0.736217 0.0368947 0)
(-0.698295 -0.0392373 0)
(-0.0163288 1.25311 0)
(-0.0462732 1.24753 0)
(-0.0817767 1.23325 0)
(-0.118253 1.21355 0)
(-0.160817 1.18755 0)
(-0.206507 1.15911 0)
(-0.257681 1.12592 0)
(-0.3127 1.09116 0)
(-0.372499 1.05444 0)
(-0.437405 1.01867 0)
(-0.509128 0.985687 0)
(-0.587401 0.957461 0)
(-0.677125 0.930856 0)
(-0.76192 0.896429 0)
(-0.801597 0.800962 0)
(-0.796382 0.660398 0)
(-0.796388 0.526491 0)
(-0.788953 0.401286 0)
(-0.774758 0.281679 0)
(-0.751667 0.171767 0)
(-0.721474 0.0718805 0)
(-0.685088 -0.0160506 0)
(-0.645153 -0.0951866 0)
(-0.0209393 1.28996 0)
(-0.0604583 1.28487 0)
(-0.104429 1.27206 0)
(-0.148997 1.2539 0)
(-0.199102 1.22991 0)
(-0.251212 1.20352 0)
(-0.30865 1.1726 0)
(-0.368379 1.141 0)
(-0.43373 1.10757 0)
(-0.502456 1.07777 0)
(-0.578101 1.0512 0)
(-0.660268 1.03284 0)
(-0.742294 1.01425 0)
(-0.795996 0.941949 0)
(-0.792844 0.805853 0)
(-0.786154 0.663392 0)
(-0.775568 0.530113 0)
(-0.754803 0.399317 0)
(-0.728746 0.276256 0)
(-0.696002 0.161176 0)
(-0.660655 0.0559772 0)
(-0.619943 -0.0391017 0)
(-0.576916 -0.125231 0)
(-0.0232323 1.33421 0)
(-0.0681318 1.33078 0)
(-0.116068 1.32164 0)
(-0.164741 1.30818 0)
(-0.217586 1.28993 0)
(-0.272824 1.26902 0)
(-0.332705 1.24371 0)
(-0.396195 1.21709 0)
(-0.464849 1.18962 0)
(-0.538617 1.16447 0)
(-0.617838 1.145 0)
(-0.703456 1.12352 0)
(-0.773175 1.0683 0)
(-0.784422 0.947279 0)
(-0.773754 0.791966 0)
(-0.764572 0.642506 0)
(-0.744746 0.494741 0)
(-0.718495 0.353368 0)
(-0.687364 0.221808 0)
(-0.651491 0.102274 0)
(-0.612073 -0.00542456 0)
(-0.569427 -0.101173 0)
(-0.523725 -0.187352 0)
(-0.0285053 1.38253 0)
(-0.0838687 1.3789 0)
(-0.140833 1.36974 0)
(-0.197644 1.35634 0)
(-0.258342 1.33872 0)
(-0.320362 1.3192 0)
(-0.386429 1.29629 0)
(-0.454679 1.27339 0)
(-0.528536 1.24994 0)
(-0.603397 1.2307 0)
(-0.681728 1.2156 0)
(-0.752035 1.18776 0)
(-0.783477 1.09471 0)
(-0.771172 0.941853 0)
(-0.753899 0.78586 0)
(-0.731268 0.634506 0)
(-0.698402 0.484571 0)
(-0.664557 0.342574 0)
(-0.625359 0.210024 0)
(-0.586702 0.0866333 0)
(-0.543651 -0.0254179 0)
(-0.500889 -0.12689 0)
(-0.455962 -0.21838 0)
(-0.0293339 1.44656 0)
(-0.0873942 1.44325 0)
(-0.146624 1.43572 0)
(-0.207095 1.42627 0)
(-0.270102 1.41353 0)
(-0.335068 1.39827 0)
(-0.403758 1.37947 0)
(-0.475502 1.36085 0)
(-0.552204 1.34036 0)
(-0.631229 1.31966 0)
(-0.70968 1.296 0)
(-0.766602 1.22745 0)
(-0.763935 1.08837 0)
(-0.746951 0.918221 0)
(-0.725836 0.751708 0)
(-0.695677 0.586098 0)
(-0.660882 0.426757 0)
(-0.624236 0.278696 0)
(-0.585323 0.142276 0)
(-0.54339 0.0187585 0)
(-0.501197 -0.0928761 0)
(-0.454052 -0.190552 0)
(-0.410531 -0.280897 0)
(-0.0354369 1.49987 0)
(-0.105376 1.49679 0)
(-0.176196 1.48977 0)
(-0.246102 1.47986 0)
(-0.317118 1.46642 0)
(-0.389628 1.45242 0)
(-0.463687 1.43607 0)
(-0.539606 1.42117 0)
(-0.616851 1.40473 0)
(-0.689587 1.38719 0)
(-0.753309 1.34999 0)
(-0.768506 1.24034 0)
(-0.749895 1.07425 0)
(-0.719849 0.903297 0)
(-0.688555 0.734682 0)
(-0.646212 0.570153 0)
(-0.607853 0.414038 0)
(-0.563178 0.268059 0)
(-0.522456 0.130341 0)
(-0.475637 0.00356047 0)
(-0.435668 -0.113782 0)
(-0.39044 -0.216661 0)
(-0.348687 -0.308278 0)
(-0.0353683 1.58904 0)
(-0.104917 1.58586 0)
(-0.176193 1.57852 0)
(-0.247298 1.56955 0)
(-0.320994 1.5598 0)
(-0.395674 1.54774 0)
(-0.472259 1.53243 0)
(-0.551136 1.51701 0)
(-0.629021 1.49341 0)
(-0.703075 1.45887 0)
(-0.752897 1.37755 0)
(-0.74375 1.22566 0)
(-0.721021 1.03989 0)
(-0.689258 0.856518 0)
(-0.653417 0.676889 0)
(-0.611896 0.503736 0)
(-0.572261 0.341689 0)
(-0.528614 0.191094 0)
(-0.487843 0.0524879 0)
(-0.442195 -0.0702026 0)
(-0.398717 -0.180154 0)
(-0.356014 -0.279539 0)
(-0.315284 -0.368671 0)
(-0.0421907 1.63817 0)
(-0.125916 1.63564 0)
(-0.210057 1.62992 0)
(-0.293703 1.6222 0)
(-0.37653 1.61193 0)
(-0.458762 1.60102 0)
(-0.5404 1.58891 0)
(-0.620286 1.57573 0)
(-0.691124 1.55444 0)
(-0.750021 1.50954 0)
(-0.76082 1.38838 0)
(-0.733458 1.20727 0)
(-0.695282 1.01956 0)
(-0.654427 0.835824 0)
(-0.608657 0.658267 0)
(-0.562656 0.490167 0)
(-0.516618 0.332399 0)
(-0.469061 0.185165 0)
(-0.424002 0.0456251 0)
(-0.381709 -0.0841486 0)
(-0.342953 -0.198486 0)
(-0.302676 -0.298766 0)
(-0.267321 -0.390166 0)
(-0.0415799 1.76327 0)
(-0.123082 1.76004 0)
(-0.206163 1.75268 0)
(-0.287823 1.7426 0)
(-0.372448 1.73167 0)
(-0.45588 1.71796 0)
(-0.538913 1.69973 0)
(-0.617601 1.67296 0)
(-0.690635 1.62699 0)
(-0.73935 1.53161 0)
(-0.728361 1.36296 0)
(-0.702428 1.1598 0)
(-0.666463 0.960056 0)
(-0.6271 0.768046 0)
(-0.581896 0.582905 0)
(-0.536282 0.408927 0)
(-0.489662 0.245239 0)
(-0.444179 0.0955864 0)
(-0.398909 -0.0376661 0)
(-0.355797 -0.153902 0)
(-0.319537 -0.261768 0)
(-0.280583 -0.357734 0)