/*--------------------------------*- C++ -*----------------------------------*\
| =========                 |                                                 |
| \\      /  F ield         | OpenFOAM: The Open Source CFD Toolbox           |
|  \\    /   O peration     | Version:  2012                                  |
|   \\  /    A nd           | Website:  www.openfoam.com                      |
|    \\/     M anipulation  |                                                 |
\*---------------------------------------------------------------------------*/
FoamFile
{
    version     2.0;
    format      ascii;
    class       volScalarField;
    location    "1.2";
    object      maxKappa;
}
// * * * * * * * * * * * * * * * * * * * * * * * * * * * * * * * * * * * * * //

dimensions      [0 0 0 0 0 0 0];


internalField   nonuniform List<scalar> 
160
(
0.005477042662
0.01021812171
0.01612699778
0.02160743321
0.02775073067
0.03342790723
0.03949195587
0.04462417537
0.04950224582
0.05418279298
0.0576075052
0.06115180522
0.06396406915
0.06681338739
0.06871539844
0.07082093481
0.07254497206
0.07444584812
0.0744717099
0.07477335943
0.07477335943
0.07426015915
0.07348328491
0.07233616025
0.07111611247
0.07022798987
0.06933913432
0.06840190778
0.06758874602
0.06678841592
0.06641423887
0.06605397651
0.06575168041
0.06581642018
0.06613881538
0.06650882332
0.06667364473
0.06701783771
0.06733459776
0.06779270111
0.0683398511
0.06910359065
0.06997847817
0.07114020914
0.07245957787
0.07408471088
0.07585371082
0.07800988296
0.08043394716
0.08300949569
0.08577298534
0.08864838379
0.09171983593
0.09477126134
0.09751829963
0.1002745856
0.1027182934
0.104951667
0.1070650183
0.1089823393
0.1108797487
0.1125051456
0.1142794196
0.1156824018
0.1173790885
0.1184745695
0.1202847042
0.121737673
0.1240420895
0.1260042633
0.1283179751
0.1297465226
0.132199561
0.1339393656
0.1373141348
0.1395822881
0.1430010695
0.1454839122
0.1489378294
0.1516169011
0.1554251572
0.1585274186
0.1625113757
0.1657300562
0.1696572599
0.1733053708
0.1775316871
0.1815277894
0.1846064575
0.1879062641
0.1905271448
0.1936717991
0.1956156724
0.1977283195
0.1992922367
0.2006911762
0.201576161
0.2022522233
0.2025400012
0.2025400012
0.2023767634
0.2018190143
0.2010079341
0.1999418469
0.1985652813
0.1968986112
0.1950325277
0.1929792002
0.1907634886
0.1883711557
0.1858345558
0.1832020897
0.1805114409
0.1777924049
0.1750834553
0.1724257721
0.1698279386
0.1673377848
0.1650093759
0.1628709628
0.1609555422
0.1592645527
0.1578150878
0.1565896173
0.1555774281
0.1547670414
0.1541319312
0.1536583973
0.1533276709
0.1530982855
0.1529754817
0.1529764856
0.1530425319
0.1530821471
0.1531106383
0.1531106383
0.1530509132
0.1528711983
0.1525474411
0.1520164177
0.1512266688
0.1501318954
0.1486807974
0.1468181864
0.144483651
0.1416100263
0.1381251215
0.1339518288
0.129011694
0.1232302374
0.1165426647
0.1088983497
0.1002559713
0.09060940989
0.07999578429
0.06845530484
0.0560275657
0.04284044544
0.02903075073
0.01472733916
)
;

boundaryField
{
    sides
    {
        type            calculated;
        value           uniform 0;
    }
    empty1
    {
        type            empty;
    }
    empty2
    {
        type            empty;
    }
}


// ************************************************************************* //
