/*--------------------------------*- C++ -*----------------------------------*\
| =========                 |                                                 |
| \\      /  F ield         | OpenFOAM: The Open Source CFD Toolbox           |
|  \\    /   O peration     | Version:  2012                                  |
|   \\  /    A nd           | Website:  www.openfoam.com                      |
|    \\/     M anipulation  |                                                 |
\*---------------------------------------------------------------------------*/
FoamFile
{
    version     2.0;
    format      ascii;
    class       volScalarField;
    location    "1.2";
    object      p;
}
// * * * * * * * * * * * * * * * * * * * * * * * * * * * * * * * * * * * * * //

dimensions      [1 -1 -2 0 0 0 0];


internalField   nonuniform List<scalar> 
160
(
7947212.087
7949749.422
7950251.805
7948503.226
7952502.977
7941453.827
7946054.775
7927773.313
7935631.975
7893320.417
7901559.883
7842490.222
7839732.626
7766459.917
7746221.134
7661074.219
7632793.646
7544099.31
7490208.067
7342901.278
7295998.71
7136383.724
7058098.017
6889125.021
6790754.685
6637212.585
6490856.857
6339427.472
6173579.847
5983366.664
5796291.92
5596570.187
5401162.822
5190808.104
5012259.081
4807061.157
4600467.941
4405565.259
4194662.993
3986034.62
3774588.273
3566134.186
3362004.187
3156388.016
2963769.492
2760751.511
2569225.398
2396393.315
2209327.455
2051134.275
1867726.719
1711534.623
1541218.317
1405790.17
1253892.913
1148065.021
1025064.464
933967.2575
839417.6802
772314.2716
697066.0524
646741.6783
590772.2186
555690.8553
514998.9115
491273.5745
460138.7309
445578.2348
424192.7539
416197.6019
400899.9165
396234.3328
383293.6131
381544.521
375232.6607
373556.8502
367399.0695
366771.9839
361950.1058
361881.5699
357446.1599
357328.6898
353435.9639
353188.9159
349785.9272
349495.9604
346873.701
345921.3188
343018.059
342191.2134
340253.3844
339052.3222
337486.7265
336091.2177
334627.2839
333258.4902
331816.9533
330483.9846
329135.7413
327881.4357
326683.2184
325548.2282
324462.9284
323433.6592
322452.5663
321518.0213
320628.095
319778.2434
318966.0923
318188.0743
317442.502
316725.1022
316031.3699
315353.5272
314686.1396
314023.2067
313356.9749
312677.0031
311972.6107
311235.0048
310459.8454
309640.393
308777.6113
307870.4374
306922.2211
305932.8104
304908.8952
303849.5238
302762.8822
301647.503
300510.9169
299358.4105
298187.1806
297013.6303
295831.6261
294660.465
293491.6469
292358.0638
291232.662
290146.1665
289096.6263
288090.6635
287135.0951
286236.6092
285402.3234
284639.5738
283955.6928
283357.5472
282850.9978
282439.751
282124.4967
281901.9758
281766.5159
281708.7808
281704.8672
281736.3739
281792.9003
281859.7827
281908.0968
281937.7575
)
;

boundaryField
{
    sides
    {
        type            zeroGradient;
    }
    empty1
    {
        type            empty;
    }
    empty2
    {
        type            empty;
    }
}


// ************************************************************************* //
