/*--------------------------------*- C++ -*----------------------------------*\
| =========                 |                                                 |
| \\      /  F ield         | OpenFOAM: The Open Source CFD Toolbox           |
|  \\    /   O peration     | Version:  2012                                  |
|   \\  /    A nd           | Website:  www.openfoam.com                      |
|    \\/     M anipulation  |                                                 |
\*---------------------------------------------------------------------------*/
FoamFile
{
    version     2.0;
    format      ascii;
    class       volScalarField;
    location    "2020";
    object      maxKappa;
}
// * * * * * * * * * * * * * * * * * * * * * * * * * * * * * * * * * * * * * //

dimensions      [0 0 0 0 0 0 0];


internalField   nonuniform List<scalar> 
20400
(
3.41823e-12
7.74031e-12
2.52346e-11
5.67187e-11
1.0007e-10
1.50815e-10
2.07801e-10
2.67988e-10
3.29844e-10
3.92833e-10
4.55318e-10
5.18225e-10
5.80518e-10
6.42493e-10
7.04009e-10
7.6516e-10
8.25953e-10
8.86399e-10
9.46532e-10
1.00621e-09
1.06532e-09
1.12389e-09
1.18193e-09
1.23944e-09
1.29641e-09
1.35282e-09
1.40869e-09
1.46402e-09
1.51885e-09
1.5732e-09
1.6271e-09
1.68054e-09
1.73348e-09
1.78566e-09
1.83708e-09
1.8888e-09
1.9403e-09
1.99128e-09
2.04193e-09
2.0921e-09
2.14184e-09
2.19114e-09
2.24e-09
2.28844e-09
2.33647e-09
2.3841e-09
2.43136e-09
2.47825e-09
2.5248e-09
2.57102e-09
2.61695e-09
2.66261e-09
2.70802e-09
2.75323e-09
2.79825e-09
2.84305e-09
2.88768e-09
2.93196e-09
2.97581e-09
3.0195e-09
3.06214e-09
3.10497e-09
3.14694e-09
3.18912e-09
3.23099e-09
3.27284e-09
3.31453e-09
3.35611e-09
3.39753e-09
3.4388e-09
3.4799e-09
3.52085e-09
3.56162e-09
3.60222e-09
3.64263e-09
3.68288e-09
3.72292e-09
3.76279e-09
3.80244e-09
3.84191e-09
3.88115e-09
3.92021e-09
3.959e-09
3.99756e-09
4.03569e-09
4.07346e-09
4.11113e-09
4.14882e-09
4.18595e-09
4.22285e-09
4.25915e-09
4.29494e-09
4.32994e-09
4.36431e-09
4.39799e-09
4.4312e-09
4.46346e-09
4.49507e-09
4.52539e-09
4.55507e-09
4.58308e-09
4.61039e-09
4.63538e-09
4.6599e-09
4.68146e-09
4.70262e-09
4.72008e-09
4.737e-09
4.74939e-09
4.76127e-09
4.76715e-09
4.77346e-09
4.77136e-09
4.77607e-09
4.77295e-09
4.77321e-09
4.76447e-09
4.75522e-09
4.73948e-09
4.72108e-09
4.69751e-09
4.67023e-09
4.63819e-09
4.60175e-09
4.56113e-09
4.5149e-09
4.46574e-09
4.40893e-09
4.35079e-09
4.28321e-09
4.21513e-09
4.13661e-09
4.05579e-09
3.96608e-09
3.87032e-09
3.7657e-09
3.66025e-09
3.54618e-09
3.42918e-09
3.30646e-09
3.17937e-09
3.04714e-09
2.90986e-09
2.76767e-09
2.6167e-09
2.46662e-09
2.28899e-09
2.1339e-09
1.95257e-09
1.80056e-09
1.65522e-09
1.50667e-09
1.34746e-09
1.18545e-09
1.02031e-09
8.57004e-10
6.83947e-10
5.29577e-10
4.34757e-10
3.57262e-10
3.10397e-10
3.67098e-10
4.49748e-10
5.68748e-10
7.40515e-10
8.90879e-10
1.06175e-09
1.2097e-09
1.37512e-09
1.51864e-09
1.67673e-09
1.81479e-09
1.96437e-09
2.09629e-09
2.23658e-09
2.36181e-09
2.49237e-09
2.61043e-09
2.73101e-09
2.84136e-09
2.95219e-09
3.05423e-09
3.15545e-09
3.24901e-09
3.34073e-09
3.42577e-09
3.50832e-09
3.58489e-09
3.65857e-09
3.72689e-09
3.79203e-09
3.85243e-09
3.90942e-09
3.96226e-09
4.01154e-09
4.0573e-09
4.0994e-09
4.13823e-09
4.1738e-09
4.20621e-09
4.23565e-09
4.26209e-09
4.28591e-09
4.30689e-09
4.32554e-09
4.34156e-09
4.35551e-09
4.36705e-09
4.37676e-09
4.38432e-09
4.39024e-09
4.39428e-09
4.39682e-09
4.39797e-09
4.39746e-09
4.39546e-09
4.39234e-09
4.38803e-09
4.38265e-09
4.37637e-09
4.3691e-09
4.36118e-09
4.3524e-09
4.34311e-09
4.3331e-09
4.3227e-09
4.31172e-09
4.30046e-09
4.28876e-09
4.27687e-09
4.26464e-09
4.25233e-09
4.23973e-09
4.22724e-09
4.21439e-09
4.20187e-09
4.18896e-09
4.17644e-09
4.16379e-09
4.1513e-09
4.139e-09
4.12671e-09
4.11478e-09
4.10282e-09
4.09132e-09
4.07979e-09
4.06878e-09
4.05774e-09
4.04727e-09
4.03676e-09
4.0269e-09
4.01699e-09
4.0078e-09
3.99855e-09
3.99005e-09
3.98146e-09
3.97367e-09
3.96576e-09
3.95868e-09
3.95146e-09
3.9451e-09
3.93858e-09
3.93293e-09
3.92711e-09
3.92218e-09
3.91706e-09
3.91283e-09
3.90842e-09
3.90488e-09
3.90116e-09
3.89828e-09
3.89525e-09
3.89301e-09
3.89066e-09
3.88903e-09
3.88736e-09
3.8863e-09
3.88527e-09
3.88482e-09
3.88437e-09
3.88445e-09
3.88458e-09
3.88521e-09
3.88594e-09
3.88704e-09
3.88831e-09
3.88991e-09
3.89169e-09
3.89375e-09
3.896e-09
3.89848e-09
3.90118e-09
3.90409e-09
3.9072e-09
3.91052e-09
3.91398e-09
3.91771e-09
3.92144e-09
3.92561e-09
3.92958e-09
3.93415e-09
3.93834e-09
3.94324e-09
3.94765e-09
3.95283e-09
3.95746e-09
3.9629e-09
3.96773e-09
3.97339e-09
3.97842e-09
3.98428e-09
3.98948e-09
3.99554e-09
4.0009e-09
4.00712e-09
4.01263e-09
4.01898e-09
4.02461e-09
4.03108e-09
4.03682e-09
4.04337e-09
4.0492e-09
4.05582e-09
4.06172e-09
4.0684e-09
4.07435e-09
4.08107e-09
4.08707e-09
4.0938e-09
4.09983e-09
4.10657e-09
4.11261e-09
4.11935e-09
4.1254e-09
4.13212e-09
4.13817e-09
4.14485e-09
4.15091e-09
4.15753e-09
4.16358e-09
4.17014e-09
4.17619e-09
4.18267e-09
4.1887e-09
4.1951e-09
4.20111e-09
4.20741e-09
4.2134e-09
4.21961e-09
4.22557e-09
4.23167e-09
4.23759e-09
4.24358e-09
4.24947e-09
4.25535e-09
4.26118e-09
4.26697e-09
4.27272e-09
4.27843e-09
4.28409e-09
4.28971e-09
4.29529e-09
4.30082e-09
4.30631e-09
4.31175e-09
4.31714e-09
4.32249e-09
4.32779e-09
4.33304e-09
4.33825e-09
4.34341e-09
4.34852e-09
4.35358e-09
4.35859e-09
4.36356e-09
4.36848e-09
4.37335e-09
4.37817e-09
4.38295e-09
4.38767e-09
4.39235e-09
4.39698e-09
4.40156e-09
4.4061e-09
4.41059e-09
4.41503e-09
4.41942e-09
4.42377e-09
4.42807e-09
4.43233e-09
4.43654e-09
4.44071e-09
4.44483e-09
4.4489e-09
4.45294e-09
4.45693e-09
4.46087e-09
4.46477e-09
4.46863e-09
4.47245e-09
4.47623e-09
4.47996e-09
4.48366e-09
4.48731e-09
4.49092e-09
4.49449e-09
4.49803e-09
4.50152e-09
4.50498e-09
4.5084e-09
4.51178e-09
4.51512e-09
4.51842e-09
4.52169e-09
4.52493e-09
4.52812e-09
4.53128e-09
4.53441e-09
4.5375e-09
4.54056e-09
4.54358e-09
4.54657e-09
4.54953e-09
4.55246e-09
4.55535e-09
4.55821e-09
4.56104e-09
4.56383e-09
4.5666e-09
4.56934e-09
4.57204e-09
4.57472e-09
4.57737e-09
4.57998e-09
4.58257e-09
4.58513e-09
4.58767e-09
4.59017e-09
4.59265e-09
4.5951e-09
4.59752e-09
4.59992e-09
4.60229e-09
4.60464e-09
4.60696e-09
4.60925e-09
4.61152e-09
4.61377e-09
4.61599e-09
4.61819e-09
4.62036e-09
4.62251e-09
4.62464e-09
4.62674e-09
4.62882e-09
4.63088e-09
4.63292e-09
4.63494e-09
4.63693e-09
4.6389e-09
4.64085e-09
4.64278e-09
4.64469e-09
4.64658e-09
4.64844e-09
4.65029e-09
4.65212e-09
4.65392e-09
4.65571e-09
4.65748e-09
4.65922e-09
4.66095e-09
4.66266e-09
4.66435e-09
4.66602e-09
4.66767e-09
4.6693e-09
4.67091e-09
4.67251e-09
4.67408e-09
4.67564e-09
4.67717e-09
4.6787e-09
4.68019e-09
4.68168e-09
4.68313e-09
4.6846e-09
4.68598e-09
4.68744e-09
4.68875e-09
4.69022e-09
4.69142e-09
4.69294e-09
4.69397e-09
4.69561e-09
4.69641e-09
4.69828e-09
4.69871e-09
4.70113e-09
4.70083e-09
7.76296e-12
3.08274e-11
8.36337e-11
1.54055e-10
2.40641e-10
3.38601e-10
4.4606e-10
5.59037e-10
6.7554e-10
7.93887e-10
9.12385e-10
1.03115e-09
1.14903e-09
1.26614e-09
1.38226e-09
1.49739e-09
1.6115e-09
1.72454e-09
1.83638e-09
1.94702e-09
2.05665e-09
2.16517e-09
2.27263e-09
2.37897e-09
2.48417e-09
2.58821e-09
2.69111e-09
2.79287e-09
2.89353e-09
2.9931e-09
3.09161e-09
3.18906e-09
3.28546e-09
3.38084e-09
3.47544e-09
3.56916e-09
3.66125e-09
3.75255e-09
3.84286e-09
3.93218e-09
4.02049e-09
4.10785e-09
4.19425e-09
4.27983e-09
4.36458e-09
4.44858e-09
4.53181e-09
4.61429e-09
4.69603e-09
4.77704e-09
4.85733e-09
4.93692e-09
5.01582e-09
5.09405e-09
5.17165e-09
5.24849e-09
5.32489e-09
5.40059e-09
5.47633e-09
5.55095e-09
5.62481e-09
5.6986e-09
5.77152e-09
5.84404e-09
5.91584e-09
5.9871e-09
6.05774e-09
6.12783e-09
6.19733e-09
6.26628e-09
6.33466e-09
6.4025e-09
6.46975e-09
6.53646e-09
6.60254e-09
6.66806e-09
6.73292e-09
6.79719e-09
6.86073e-09
6.92365e-09
6.98577e-09
7.04724e-09
7.1078e-09
7.16764e-09
7.22652e-09
7.28476e-09
7.34192e-09
7.39792e-09
7.45201e-09
7.50551e-09
7.55773e-09
7.60889e-09
7.65862e-09
7.70693e-09
7.75301e-09
7.79723e-09
7.83984e-09
7.88078e-09
7.91875e-09
7.95513e-09
7.98807e-09
8.01906e-09
8.04621e-09
8.07118e-09
8.09141e-09
8.10991e-09
8.12221e-09
8.13341e-09
8.13721e-09
8.14033e-09
8.13432e-09
8.12847e-09
8.1103e-09
8.09289e-09
8.06332e-09
8.03319e-09
7.99233e-09
7.94817e-09
7.89469e-09
7.83594e-09
7.76845e-09
7.69421e-09
7.61161e-09
7.52115e-09
7.42275e-09
7.31504e-09
7.20035e-09
7.07391e-09
6.94182e-09
6.79366e-09
6.64276e-09
6.46441e-09
6.29836e-09
6.10422e-09
5.92354e-09
5.74199e-09
5.54876e-09
5.3401e-09
5.12369e-09
4.89599e-09
4.66289e-09
4.42013e-09
4.17312e-09
3.91672e-09
3.65542e-09
3.39307e-09
3.12582e-09
2.87375e-09
2.6218e-09
2.37373e-09
2.17228e-09
1.97772e-09
1.76873e-09
1.5487e-09
1.32461e-09
1.1043e-09
8.91064e-10
7.73195e-10
8.07421e-10
9.17751e-10
1.15506e-09
1.41443e-09
1.71327e-09
1.98487e-09
2.28194e-09
2.55117e-09
2.84175e-09
3.10475e-09
3.38548e-09
3.64018e-09
3.90902e-09
4.15403e-09
4.40941e-09
4.64359e-09
4.8844e-09
5.10691e-09
5.33208e-09
5.54215e-09
5.75149e-09
5.94796e-09
6.1417e-09
6.32377e-09
6.50194e-09
6.66935e-09
6.83202e-09
6.98473e-09
7.13216e-09
7.27036e-09
7.4029e-09
7.52691e-09
7.64503e-09
7.75531e-09
7.85959e-09
7.95669e-09
8.04783e-09
8.13237e-09
8.21106e-09
8.28368e-09
8.35066e-09
8.4121e-09
8.4682e-09
8.51907e-09
8.56511e-09
8.60621e-09
8.64293e-09
8.67509e-09
8.70328e-09
8.72729e-09
8.74769e-09
8.76433e-09
8.77771e-09
8.78773e-09
8.79483e-09
8.79912e-09
8.80075e-09
8.79939e-09
8.79564e-09
8.78973e-09
8.78187e-09
8.77207e-09
8.76065e-09
8.74753e-09
8.73302e-09
8.7171e-09
8.7e-09
8.68177e-09
8.66261e-09
8.64253e-09
8.62174e-09
8.60023e-09
8.57819e-09
8.55566e-09
8.53268e-09
8.50952e-09
8.4859e-09
8.4624e-09
8.43844e-09
8.41478e-09
8.39092e-09
8.36723e-09
8.34372e-09
8.32022e-09
8.29719e-09
8.27414e-09
8.25174e-09
8.22933e-09
8.20766e-09
8.18602e-09
8.16522e-09
8.14445e-09
8.12464e-09
8.10489e-09
8.08618e-09
8.06751e-09
8.04995e-09
8.03243e-09
8.01607e-09
7.99973e-09
7.98459e-09
7.96948e-09
7.9556e-09
7.94173e-09
7.92912e-09
7.91651e-09
7.90518e-09
7.89384e-09
7.88377e-09
7.8737e-09
7.86488e-09
7.85608e-09
7.84849e-09
7.84094e-09
7.83454e-09
7.82822e-09
7.82299e-09
7.81786e-09
7.81378e-09
7.80981e-09
7.80685e-09
7.804e-09
7.80208e-09
7.80031e-09
7.79942e-09
7.79874e-09
7.7988e-09
7.7991e-09
7.80007e-09
7.80141e-09
7.80326e-09
7.80548e-09
7.80815e-09
7.81123e-09
7.81474e-09
7.81863e-09
7.82291e-09
7.82749e-09
7.83254e-09
7.83775e-09
7.84353e-09
7.84934e-09
7.85581e-09
7.86214e-09
7.86922e-09
7.87604e-09
7.88368e-09
7.89097e-09
7.89911e-09
7.90684e-09
7.91543e-09
7.92356e-09
7.93257e-09
7.94109e-09
7.95048e-09
7.95934e-09
7.96908e-09
7.97825e-09
7.98828e-09
7.99772e-09
8.008e-09
8.01768e-09
8.02818e-09
8.03806e-09
8.04873e-09
8.05879e-09
8.06962e-09
8.07981e-09
8.09076e-09
8.10106e-09
8.1121e-09
8.1225e-09
8.1336e-09
8.14406e-09
8.1552e-09
8.16571e-09
8.17686e-09
8.1874e-09
8.19855e-09
8.20909e-09
8.22021e-09
8.23075e-09
8.24182e-09
8.25235e-09
8.26334e-09
8.27386e-09
8.28475e-09
8.29524e-09
8.30602e-09
8.31647e-09
8.32713e-09
8.33753e-09
8.34805e-09
8.35839e-09
8.36876e-09
8.37903e-09
8.38926e-09
8.39943e-09
8.40953e-09
8.41957e-09
8.42955e-09
8.43946e-09
8.4493e-09
8.45906e-09
8.46876e-09
8.47839e-09
8.48794e-09
8.49742e-09
8.50682e-09
8.51614e-09
8.52539e-09
8.53456e-09
8.54365e-09
8.55267e-09
8.5616e-09
8.57045e-09
8.57923e-09
8.58792e-09
8.59653e-09
8.60507e-09
8.61352e-09
8.62189e-09
8.63018e-09
8.63838e-09
8.64651e-09
8.65456e-09
8.66253e-09
8.67041e-09
8.67822e-09
8.68595e-09
8.6936e-09
8.70117e-09
8.70866e-09
8.71608e-09
8.72341e-09
8.73068e-09
8.73786e-09
8.74497e-09
8.752e-09
8.75896e-09
8.76585e-09
8.77266e-09
8.7794e-09
8.78607e-09
8.79266e-09
8.79919e-09
8.80564e-09
8.81203e-09
8.81834e-09
8.82459e-09
8.83077e-09
8.83688e-09
8.84293e-09
8.84891e-09
8.85482e-09
8.86067e-09
8.86646e-09
8.87218e-09
8.87784e-09
8.88344e-09
8.88898e-09
8.89446e-09
8.89988e-09
8.90523e-09
8.91053e-09
8.91578e-09
8.92096e-09
8.92609e-09
8.93116e-09
8.93617e-09
8.94114e-09
8.94604e-09
8.9509e-09
8.9557e-09
8.96044e-09
8.96514e-09
8.96979e-09
8.97438e-09
8.97893e-09
8.98342e-09
8.98787e-09
8.99227e-09
8.99662e-09
9.00093e-09
9.00518e-09
9.0094e-09
9.01356e-09
9.01769e-09
9.02176e-09
9.0258e-09
9.02979e-09
9.03374e-09
9.03764e-09
9.04151e-09
9.04533e-09
9.04911e-09
9.05285e-09
9.05655e-09
9.06021e-09
9.06383e-09
9.06742e-09
9.07096e-09
9.07447e-09
9.07794e-09
9.08137e-09
9.08476e-09
9.08812e-09
9.09144e-09
9.09472e-09
9.09797e-09
9.10118e-09
9.10436e-09
9.1075e-09
9.1106e-09
9.11367e-09
9.11671e-09
9.11971e-09
9.12268e-09
9.12561e-09
9.12851e-09
9.13138e-09
9.13421e-09
9.13701e-09
9.13977e-09
9.14251e-09
9.14519e-09
9.14787e-09
9.15048e-09
9.15311e-09
9.15563e-09
9.15822e-09
9.16063e-09
9.1632e-09
9.16547e-09
9.16806e-09
9.17014e-09
9.17281e-09
9.17461e-09
9.17747e-09
9.17886e-09
9.18205e-09
9.18271e-09
2.72836e-11
8.52226e-11
1.73193e-10
2.86903e-10
4.17194e-10
5.59838e-10
7.1278e-10
8.7232e-10
1.03619e-09
1.20244e-09
1.36966e-09
1.53691e-09
1.70297e-09
1.86761e-09
2.03063e-09
2.19191e-09
2.3514e-09
2.50887e-09
2.6641e-09
2.81718e-09
2.96839e-09
3.11768e-09
3.26503e-09
3.41043e-09
3.55383e-09
3.69524e-09
3.83469e-09
3.97222e-09
4.10789e-09
4.24174e-09
4.37387e-09
4.50424e-09
4.63308e-09
4.76055e-09
4.88684e-09
5.01061e-09
5.1333e-09
5.25451e-09
5.37431e-09
5.49267e-09
5.60956e-09
5.72503e-09
5.839e-09
5.9516e-09
6.06276e-09
6.17257e-09
6.28105e-09
6.38823e-09
6.49416e-09
6.59887e-09
6.7024e-09
6.80478e-09
6.90607e-09
7.00632e-09
7.1056e-09
7.20385e-09
7.30135e-09
7.39778e-09
7.4935e-09
7.58705e-09
7.6781e-09
7.76867e-09
7.85747e-09
7.94585e-09
8.03314e-09
8.11972e-09
8.20533e-09
8.28998e-09
8.37358e-09
8.45615e-09
8.53761e-09
8.618e-09
8.6972e-09
8.7753e-09
8.85214e-09
8.92782e-09
9.00217e-09
9.07528e-09
9.14695e-09
9.21733e-09
9.28613e-09
9.35361e-09
9.41938e-09
9.48377e-09
9.54635e-09
9.60739e-09
9.66588e-09
9.72316e-09
9.77829e-09
9.83113e-09
9.88144e-09
9.92956e-09
9.9747e-09
1.00176e-08
1.0057e-08
1.00939e-08
1.01259e-08
1.01558e-08
1.01806e-08
1.02029e-08
1.022e-08
1.02336e-08
1.02405e-08
1.02454e-08
1.02415e-08
1.0236e-08
1.02203e-08
1.0203e-08
1.01742e-08
1.01428e-08
1.00974e-08
1.005e-08
9.98026e-09
9.92476e-09
9.86228e-09
9.78488e-09
9.70086e-09
9.60386e-09
9.50019e-09
9.38448e-09
9.26117e-09
9.12607e-09
8.98262e-09
8.82741e-09
8.66343e-09
8.48721e-09
8.30315e-09
8.10458e-09
7.90059e-09
7.70075e-09
7.49819e-09
7.27035e-09
7.03509e-09
6.79485e-09
6.55546e-09
6.3456e-09
6.13661e-09
5.9068e-09
5.66013e-09
5.39923e-09
5.12729e-09
4.84635e-09
4.55859e-09
4.26475e-09
3.96812e-09
3.6719e-09
3.3783e-09
3.08356e-09
2.78418e-09
2.47414e-09
2.12014e-09
1.75866e-09
1.44994e-09
1.22459e-09
1.28558e-09
1.42912e-09
1.69487e-09
2.00785e-09
2.3773e-09
2.73322e-09
3.12253e-09
3.48613e-09
3.87516e-09
4.23469e-09
4.6172e-09
4.9703e-09
5.34259e-09
5.6864e-09
6.04531e-09
6.37785e-09
6.72166e-09
7.04146e-09
7.36858e-09
7.6745e-09
7.98351e-09
8.2745e-09
8.56464e-09
8.83928e-09
9.11049e-09
9.36752e-09
9.6197e-09
9.85852e-09
1.00915e-08
1.03118e-08
1.05255e-08
1.07273e-08
1.0922e-08
1.11054e-08
1.12814e-08
1.14469e-08
1.16047e-08
1.17527e-08
1.18929e-08
1.20241e-08
1.21476e-08
1.22625e-08
1.23699e-08
1.24696e-08
1.25618e-08
1.26468e-08
1.27248e-08
1.27961e-08
1.28608e-08
1.29192e-08
1.29715e-08
1.30179e-08
1.30589e-08
1.30944e-08
1.31248e-08
1.31503e-08
1.31711e-08
1.31875e-08
1.31998e-08
1.3208e-08
1.32127e-08
1.32136e-08
1.32108e-08
1.32049e-08
1.31962e-08
1.31848e-08
1.31709e-08
1.31548e-08
1.31364e-08
1.31161e-08
1.30939e-08
1.30702e-08
1.30447e-08
1.30181e-08
1.299e-08
1.29612e-08
1.2931e-08
1.29004e-08
1.28687e-08
1.28367e-08
1.2804e-08
1.27711e-08
1.27376e-08
1.27043e-08
1.26705e-08
1.26369e-08
1.26033e-08
1.25697e-08
1.25365e-08
1.25032e-08
1.24707e-08
1.24381e-08
1.24063e-08
1.23745e-08
1.23437e-08
1.2313e-08
1.22834e-08
1.2254e-08
1.22257e-08
1.21975e-08
1.21707e-08
1.21439e-08
1.21186e-08
1.20934e-08
1.20696e-08
1.2046e-08
1.20239e-08
1.20019e-08
1.19814e-08
1.19611e-08
1.19423e-08
1.19238e-08
1.19067e-08
1.18898e-08
1.18744e-08
1.18592e-08
1.18455e-08
1.1832e-08
1.18199e-08
1.18081e-08
1.17977e-08
1.17875e-08
1.17787e-08
1.17701e-08
1.17628e-08
1.17558e-08
1.175e-08
1.17445e-08
1.17402e-08
1.17361e-08
1.17332e-08
1.17305e-08
1.17289e-08
1.17276e-08
1.17273e-08
1.17273e-08
1.17281e-08
1.17295e-08
1.17314e-08
1.17339e-08
1.1737e-08
1.17405e-08
1.17447e-08
1.17492e-08
1.17543e-08
1.17597e-08
1.17659e-08
1.17721e-08
1.17792e-08
1.17862e-08
1.17941e-08
1.18018e-08
1.18104e-08
1.18189e-08
1.18281e-08
1.18372e-08
1.18471e-08
1.18568e-08
1.18673e-08
1.18775e-08
1.18885e-08
1.18992e-08
1.19107e-08
1.19219e-08
1.19338e-08
1.19453e-08
1.19576e-08
1.19694e-08
1.1982e-08
1.19942e-08
1.20071e-08
1.20195e-08
1.20326e-08
1.20452e-08
1.20585e-08
1.20713e-08
1.20848e-08
1.20978e-08
1.21113e-08
1.21244e-08
1.21381e-08
1.21512e-08
1.2165e-08
1.21782e-08
1.2192e-08
1.22052e-08
1.2219e-08
1.22322e-08
1.2246e-08
1.22593e-08
1.22729e-08
1.22862e-08
1.22998e-08
1.2313e-08
1.23265e-08
1.23397e-08
1.23531e-08
1.23662e-08
1.23795e-08
1.23925e-08
1.24056e-08
1.24186e-08
1.24315e-08
1.24444e-08
1.24572e-08
1.24699e-08
1.24825e-08
1.24951e-08
1.25076e-08
1.252e-08
1.25323e-08
1.25445e-08
1.25567e-08
1.25687e-08
1.25807e-08
1.25926e-08
1.26043e-08
1.2616e-08
1.26276e-08
1.26391e-08
1.26505e-08
1.26618e-08
1.2673e-08
1.26841e-08
1.26951e-08
1.2706e-08
1.27168e-08
1.27275e-08
1.27382e-08
1.27487e-08
1.27591e-08
1.27694e-08
1.27796e-08
1.27897e-08
1.27997e-08
1.28096e-08
1.28195e-08
1.28292e-08
1.28388e-08
1.28483e-08
1.28577e-08
1.28671e-08
1.28763e-08
1.28855e-08
1.28945e-08
1.29035e-08
1.29123e-08
1.29211e-08
1.29298e-08
1.29384e-08
1.29469e-08
1.29553e-08
1.29636e-08
1.29718e-08
1.298e-08
1.2988e-08
1.2996e-08
1.30039e-08
1.30117e-08
1.30194e-08
1.30271e-08
1.30346e-08
1.30421e-08
1.30495e-08
1.30568e-08
1.3064e-08
1.30712e-08
1.30783e-08
1.30853e-08
1.30922e-08
1.30991e-08
1.31058e-08
1.31125e-08
1.31192e-08
1.31257e-08
1.31322e-08
1.31386e-08
1.3145e-08
1.31513e-08
1.31575e-08
1.31636e-08
1.31697e-08
1.31757e-08
1.31817e-08
1.31876e-08
1.31934e-08
1.31992e-08
1.32049e-08
1.32105e-08
1.32161e-08
1.32216e-08
1.32271e-08
1.32325e-08
1.32378e-08
1.32431e-08
1.32484e-08
1.32535e-08
1.32587e-08
1.32637e-08
1.32687e-08
1.32737e-08
1.32786e-08
1.32835e-08
1.32883e-08
1.3293e-08
1.32977e-08
1.33024e-08
1.3307e-08
1.33115e-08
1.3316e-08
1.33205e-08
1.33249e-08
1.33292e-08
1.33335e-08
1.33378e-08
1.3342e-08
1.33462e-08
1.33503e-08
1.33544e-08
1.33584e-08
1.33624e-08
1.33663e-08
1.33702e-08
1.3374e-08
1.33778e-08
1.33816e-08
1.33853e-08
1.3389e-08
1.33926e-08
1.33962e-08
1.33997e-08
1.34032e-08
1.34067e-08
1.341e-08
1.34134e-08
1.34167e-08
1.342e-08
1.34231e-08
1.34265e-08
1.34294e-08
1.34327e-08
1.34354e-08
1.34388e-08
1.34411e-08
1.34447e-08
1.34463e-08
6.56592e-11
1.67767e-10
2.94744e-10
4.54741e-10
6.28228e-10
8.12461e-10
1.00565e-09
1.20539e-09
1.40917e-09
1.61571e-09
1.82302e-09
2.02985e-09
2.23513e-09
2.43826e-09
2.63885e-09
2.83665e-09
3.0314e-09
3.22281e-09
3.41095e-09
3.59615e-09
3.7789e-09
3.95865e-09
4.13588e-09
4.31033e-09
4.48202e-09
4.65099e-09
4.81728e-09
4.98096e-09
5.14206e-09
5.30072e-09
5.45701e-09
5.61096e-09
5.7627e-09
5.91224e-09
6.05957e-09
6.20463e-09
6.3466e-09
6.48647e-09
6.62415e-09
6.75963e-09
6.89283e-09
7.02397e-09
7.153e-09
7.28021e-09
7.40555e-09
7.5292e-09
7.65107e-09
7.77118e-09
7.88952e-09
8.00611e-09
8.12096e-09
8.2341e-09
8.34552e-09
8.4552e-09
8.56309e-09
8.66942e-09
8.77378e-09
8.87662e-09
8.97767e-09
9.07735e-09
9.17579e-09
9.27278e-09
9.36863e-09
9.46212e-09
9.55377e-09
9.64371e-09
9.73182e-09
9.81827e-09
9.90288e-09
9.98582e-09
1.00668e-08
1.01461e-08
1.02234e-08
1.0299e-08
1.03723e-08
1.04439e-08
1.05132e-08
1.05805e-08
1.06453e-08
1.07083e-08
1.07683e-08
1.08266e-08
1.08817e-08
1.09351e-08
1.0985e-08
1.10328e-08
1.10771e-08
1.11183e-08
1.11542e-08
1.11882e-08
1.12185e-08
1.12456e-08
1.12686e-08
1.12883e-08
1.13027e-08
1.13146e-08
1.13175e-08
1.13191e-08
1.13122e-08
1.13032e-08
1.12854e-08
1.12645e-08
1.12329e-08
1.12002e-08
1.11545e-08
1.1108e-08
1.10473e-08
1.0986e-08
1.0909e-08
1.08317e-08
1.07546e-08
1.06732e-08
1.05741e-08
1.04784e-08
1.0403e-08
1.03158e-08
1.02143e-08
1.00999e-08
9.97311e-09
9.83534e-09
9.6861e-09
9.52626e-09
9.35531e-09
9.17391e-09
8.98175e-09
8.77925e-09
8.56727e-09
8.3452e-09
8.1154e-09
7.87809e-09
7.63591e-09
7.39307e-09
7.14239e-09
6.87798e-09
6.58952e-09
6.2596e-09
5.90509e-09
5.58125e-09
5.27638e-09
4.96203e-09
4.64146e-09
4.31314e-09
3.98012e-09
3.64082e-09
3.29964e-09
2.9611e-09
2.61843e-09
2.28872e-09
1.96716e-09
1.75549e-09
1.92643e-09
2.18567e-09
2.54252e-09
2.92591e-09
3.35729e-09
3.77639e-09
4.22783e-09
4.65619e-09
5.11522e-09
5.54541e-09
6.00087e-09
6.42551e-09
6.87194e-09
7.28905e-09
7.72453e-09
8.13167e-09
8.55446e-09
8.9499e-09
9.35719e-09
9.73894e-09
1.01287e-08
1.04955e-08
1.08662e-08
1.1217e-08
1.15674e-08
1.19007e-08
1.22307e-08
1.25449e-08
1.28542e-08
1.31485e-08
1.34366e-08
1.37105e-08
1.39773e-08
1.42305e-08
1.4476e-08
1.47085e-08
1.49328e-08
1.51448e-08
1.53483e-08
1.55402e-08
1.57234e-08
1.58958e-08
1.60594e-08
1.62128e-08
1.63575e-08
1.64926e-08
1.66192e-08
1.6737e-08
1.68463e-08
1.69474e-08
1.70404e-08
1.71258e-08
1.72035e-08
1.72739e-08
1.73373e-08
1.73939e-08
1.7444e-08
1.74877e-08
1.75255e-08
1.75575e-08
1.75838e-08
1.76051e-08
1.76212e-08
1.76326e-08
1.76396e-08
1.76423e-08
1.76404e-08
1.76346e-08
1.76253e-08
1.76128e-08
1.7597e-08
1.75785e-08
1.75572e-08
1.75334e-08
1.75072e-08
1.74789e-08
1.74485e-08
1.74165e-08
1.73826e-08
1.73475e-08
1.73108e-08
1.72731e-08
1.72342e-08
1.71946e-08
1.7154e-08
1.7113e-08
1.70713e-08
1.70293e-08
1.69869e-08
1.69444e-08
1.69017e-08
1.6859e-08
1.68165e-08
1.6774e-08
1.67319e-08
1.66899e-08
1.66486e-08
1.66073e-08
1.6567e-08
1.65268e-08
1.64877e-08
1.64488e-08
1.6411e-08
1.63735e-08
1.63374e-08
1.63014e-08
1.62669e-08
1.62327e-08
1.62e-08
1.61676e-08
1.61368e-08
1.61062e-08
1.60773e-08
1.60488e-08
1.60218e-08
1.59952e-08
1.59703e-08
1.59457e-08
1.59228e-08
1.59003e-08
1.58794e-08
1.58589e-08
1.584e-08
1.58215e-08
1.58046e-08
1.5788e-08
1.57731e-08
1.57585e-08
1.57454e-08
1.57328e-08
1.57216e-08
1.57107e-08
1.57014e-08
1.56923e-08
1.56847e-08
1.56774e-08
1.56715e-08
1.56658e-08
1.56615e-08
1.56575e-08
1.56547e-08
1.56523e-08
1.5651e-08
1.56501e-08
1.56501e-08
1.56506e-08
1.56519e-08
1.56538e-08
1.56564e-08
1.56594e-08
1.56633e-08
1.56674e-08
1.56724e-08
1.56776e-08
1.56836e-08
1.56899e-08
1.56968e-08
1.5704e-08
1.57119e-08
1.57199e-08
1.57287e-08
1.57375e-08
1.57471e-08
1.57566e-08
1.57669e-08
1.57771e-08
1.5788e-08
1.57989e-08
1.58104e-08
1.58218e-08
1.58338e-08
1.58457e-08
1.58582e-08
1.58705e-08
1.58835e-08
1.58962e-08
1.59095e-08
1.59226e-08
1.59362e-08
1.59495e-08
1.59635e-08
1.59771e-08
1.59912e-08
1.6005e-08
1.60194e-08
1.60334e-08
1.60478e-08
1.6062e-08
1.60766e-08
1.60908e-08
1.61055e-08
1.61198e-08
1.61346e-08
1.61489e-08
1.61637e-08
1.61781e-08
1.61928e-08
1.62073e-08
1.6222e-08
1.62364e-08
1.6251e-08
1.62654e-08
1.62799e-08
1.62943e-08
1.63087e-08
1.6323e-08
1.63372e-08
1.63514e-08
1.63656e-08
1.63797e-08
1.63937e-08
1.64077e-08
1.64216e-08
1.64354e-08
1.64491e-08
1.64627e-08
1.64763e-08
1.64898e-08
1.65032e-08
1.65164e-08
1.65297e-08
1.65428e-08
1.65558e-08
1.65687e-08
1.65815e-08
1.65942e-08
1.66069e-08
1.66194e-08
1.66318e-08
1.66441e-08
1.66563e-08
1.66684e-08
1.66804e-08
1.66923e-08
1.67041e-08
1.67158e-08
1.67274e-08
1.67389e-08
1.67503e-08
1.67615e-08
1.67727e-08
1.67837e-08
1.67947e-08
1.68055e-08
1.68163e-08
1.68269e-08
1.68374e-08
1.68478e-08
1.68582e-08
1.68684e-08
1.68785e-08
1.68885e-08
1.68984e-08
1.69082e-08
1.6918e-08
1.69276e-08
1.69371e-08
1.69465e-08
1.69558e-08
1.69651e-08
1.69742e-08
1.69832e-08
1.69922e-08
1.7001e-08
1.70098e-08
1.70184e-08
1.7027e-08
1.70355e-08
1.70439e-08
1.70522e-08
1.70604e-08
1.70685e-08
1.70766e-08
1.70845e-08
1.70924e-08
1.71002e-08
1.71079e-08
1.71155e-08
1.71231e-08
1.71305e-08
1.71379e-08
1.71452e-08
1.71524e-08
1.71596e-08
1.71667e-08
1.71737e-08
1.71806e-08
1.71874e-08
1.71942e-08
1.72009e-08
1.72076e-08
1.72141e-08
1.72206e-08
1.7227e-08
1.72334e-08
1.72397e-08
1.72459e-08
1.72521e-08
1.72582e-08
1.72642e-08
1.72702e-08
1.72761e-08
1.72819e-08
1.72877e-08
1.72934e-08
1.7299e-08
1.73046e-08
1.73102e-08
1.73156e-08
1.73211e-08
1.73264e-08
1.73317e-08
1.7337e-08
1.73422e-08
1.73473e-08
1.73524e-08
1.73574e-08
1.73624e-08
1.73673e-08
1.73721e-08
1.73769e-08
1.73817e-08
1.73864e-08
1.7391e-08
1.73956e-08
1.74001e-08
1.74046e-08
1.74091e-08
1.74135e-08
1.74178e-08
1.74221e-08
1.74263e-08
1.74305e-08
1.74346e-08
1.74387e-08
1.74427e-08
1.74467e-08
1.74506e-08
1.74545e-08
1.74583e-08
1.74621e-08
1.74657e-08
1.74695e-08
1.74729e-08
1.74767e-08
1.74799e-08
1.74837e-08
1.74865e-08
1.74904e-08
1.74928e-08
1.24395e-10
2.80391e-10
4.55653e-10
6.5719e-10
8.71993e-10
1.09341e-09
1.32072e-09
1.55309e-09
1.78857e-09
2.02665e-09
2.26429e-09
2.50061e-09
2.73459e-09
2.96557e-09
3.19297e-09
3.41659e-09
3.63634e-09
3.85211e-09
4.06417e-09
4.27241e-09
4.47601e-09
4.67592e-09
4.872e-09
5.06432e-09
5.2528e-09
5.43757e-09
5.61863e-09
5.79633e-09
5.97044e-09
6.14167e-09
6.30947e-09
6.47449e-09
6.63614e-09
6.79519e-09
6.95114e-09
7.10455e-09
7.25448e-09
7.40227e-09
7.5472e-09
7.68954e-09
7.82926e-09
7.96652e-09
8.10119e-09
8.23345e-09
8.36306e-09
8.4901e-09
8.61462e-09
8.73671e-09
8.85639e-09
8.97371e-09
9.08868e-09
9.20136e-09
9.31173e-09
9.4199e-09
9.52579e-09
9.62996e-09
9.73205e-09
9.83302e-09
9.9331e-09
1.00283e-08
1.0118e-08
1.02051e-08
1.02905e-08
1.03742e-08
1.04563e-08
1.05363e-08
1.0614e-08
1.06894e-08
1.07622e-08
1.08326e-08
1.09003e-08
1.09656e-08
1.10279e-08
1.10877e-08
1.11444e-08
1.11985e-08
1.12493e-08
1.12973e-08
1.13417e-08
1.13833e-08
1.1421e-08
1.14557e-08
1.14864e-08
1.15141e-08
1.15375e-08
1.15579e-08
1.15726e-08
1.15951e-08
1.16135e-08
1.16299e-08
1.16428e-08
1.16521e-08
1.16574e-08
1.16575e-08
1.16575e-08
1.16528e-08
1.16417e-08
1.16254e-08
1.16034e-08
1.15754e-08
1.1541e-08
1.15001e-08
1.1452e-08
1.13971e-08
1.13348e-08
1.12653e-08
1.11882e-08
1.11045e-08
1.10131e-08
1.09163e-08
1.08133e-08
1.07075e-08
1.05993e-08
1.04655e-08
1.03004e-08
1.01509e-08
1.00047e-08
9.84643e-09
9.67902e-09
9.49996e-09
9.31062e-09
9.11e-09
8.89834e-09
8.6757e-09
8.44163e-09
8.19659e-09
7.94106e-09
7.67311e-09
7.39743e-09
7.10759e-09
6.81532e-09
6.50789e-09
6.19693e-09
5.86859e-09
5.52623e-09
5.16546e-09
4.79817e-09
4.43342e-09
4.05939e-09
3.68924e-09
3.31347e-09
2.9484e-09
2.59216e-09
2.29637e-09
2.4574e-09
2.69861e-09
3.04205e-09
3.43165e-09
3.87659e-09
4.32376e-09
4.81787e-09
5.28754e-09
5.7871e-09
6.26617e-09
6.77274e-09
7.25276e-09
7.75778e-09
8.2347e-09
8.73411e-09
9.20475e-09
9.69267e-09
1.01534e-08
1.06311e-08
1.1082e-08
1.15479e-08
1.19865e-08
1.24371e-08
1.28611e-08
1.32938e-08
1.3702e-08
1.4115e-08
1.45064e-08
1.48985e-08
1.52718e-08
1.56424e-08
1.59961e-08
1.6345e-08
1.6678e-08
1.70049e-08
1.73165e-08
1.76211e-08
1.79109e-08
1.8193e-08
1.8461e-08
1.87207e-08
1.89669e-08
1.92044e-08
1.94291e-08
1.96448e-08
1.98484e-08
2.00429e-08
2.0226e-08
2.04e-08
2.05632e-08
2.07174e-08
2.08615e-08
2.09967e-08
2.11224e-08
2.12393e-08
2.13475e-08
2.14471e-08
2.15385e-08
2.16218e-08
2.16974e-08
2.17654e-08
2.18261e-08
2.18797e-08
2.19267e-08
2.1967e-08
2.20012e-08
2.20295e-08
2.2052e-08
2.2069e-08
2.20809e-08
2.20879e-08
2.209e-08
2.20871e-08
2.20802e-08
2.20688e-08
2.20542e-08
2.20357e-08
2.20142e-08
2.19893e-08
2.19618e-08
2.19313e-08
2.18986e-08
2.18632e-08
2.1826e-08
2.17866e-08
2.17456e-08
2.17027e-08
2.16587e-08
2.16131e-08
2.15666e-08
2.15189e-08
2.14705e-08
2.14212e-08
2.13714e-08
2.1321e-08
2.12704e-08
2.12194e-08
2.11684e-08
2.11173e-08
2.10661e-08
2.10152e-08
2.09643e-08
2.0914e-08
2.08638e-08
2.08145e-08
2.07652e-08
2.0717e-08
2.06689e-08
2.0622e-08
2.05754e-08
2.05301e-08
2.04851e-08
2.04415e-08
2.03983e-08
2.03566e-08
2.03153e-08
2.02756e-08
2.02363e-08
2.01986e-08
2.01615e-08
2.0126e-08
2.0091e-08
2.00577e-08
2.00249e-08
1.99939e-08
1.99633e-08
1.99345e-08
1.99062e-08
1.98797e-08
1.98536e-08
1.98293e-08
1.98055e-08
1.97834e-08
1.97618e-08
1.97419e-08
1.97224e-08
1.97047e-08
1.96873e-08
1.96716e-08
1.96564e-08
1.96427e-08
1.96294e-08
1.96177e-08
1.96064e-08
1.95966e-08
1.95872e-08
1.95792e-08
1.95716e-08
1.95653e-08
1.95595e-08
1.95548e-08
1.95507e-08
1.95476e-08
1.95451e-08
1.95435e-08
1.95424e-08
1.95423e-08
1.95426e-08
1.95438e-08
1.95454e-08
1.9548e-08
1.95508e-08
1.95545e-08
1.95585e-08
1.95633e-08
1.95684e-08
1.95743e-08
1.95804e-08
1.95873e-08
1.95943e-08
1.96021e-08
1.961e-08
1.96186e-08
1.96273e-08
1.96367e-08
1.96461e-08
1.96561e-08
1.96662e-08
1.96769e-08
1.96875e-08
1.96988e-08
1.971e-08
1.97218e-08
1.97335e-08
1.97457e-08
1.97578e-08
1.97705e-08
1.97829e-08
1.97959e-08
1.98088e-08
1.98221e-08
1.98352e-08
1.98487e-08
1.98621e-08
1.98759e-08
1.98894e-08
1.99034e-08
1.99171e-08
1.99313e-08
1.99451e-08
1.99594e-08
1.99733e-08
1.99876e-08
2.00016e-08
2.0016e-08
2.00301e-08
2.00444e-08
2.00586e-08
2.00729e-08
2.0087e-08
2.01013e-08
2.01154e-08
2.01297e-08
2.01438e-08
2.01579e-08
2.01719e-08
2.0186e-08
2.01999e-08
2.02138e-08
2.02277e-08
2.02415e-08
2.02552e-08
2.02689e-08
2.02825e-08
2.02961e-08
2.03095e-08
2.03229e-08
2.03362e-08
2.03494e-08
2.03626e-08
2.03756e-08
2.03886e-08
2.04014e-08
2.04142e-08
2.04269e-08
2.04395e-08
2.0452e-08
2.04644e-08
2.04767e-08
2.04889e-08
2.0501e-08
2.0513e-08
2.05249e-08
2.05367e-08
2.05484e-08
2.056e-08
2.05715e-08
2.05829e-08
2.05942e-08
2.06054e-08
2.06165e-08
2.06275e-08
2.06384e-08
2.06492e-08
2.06599e-08
2.06704e-08
2.06809e-08
2.06913e-08
2.07016e-08
2.07118e-08
2.07219e-08
2.07318e-08
2.07417e-08
2.07515e-08
2.07612e-08
2.07708e-08
2.07803e-08
2.07897e-08
2.0799e-08
2.08082e-08
2.08174e-08
2.08264e-08
2.08353e-08
2.08442e-08
2.08529e-08
2.08616e-08
2.08701e-08
2.08786e-08
2.0887e-08
2.08953e-08
2.09035e-08
2.09117e-08
2.09197e-08
2.09277e-08
2.09356e-08
2.09434e-08
2.09511e-08
2.09587e-08
2.09663e-08
2.09738e-08
2.09812e-08
2.09885e-08
2.09957e-08
2.10029e-08
2.101e-08
2.1017e-08
2.10239e-08
2.10308e-08
2.10376e-08
2.10443e-08
2.1051e-08
2.10576e-08
2.10641e-08
2.10705e-08
2.10769e-08
2.10832e-08
2.10895e-08
2.10957e-08
2.11018e-08