/*--------------------------------*- C++ -*----------------------------------*\
| =========                 |                                                 |
| \\      /  F ield         | OpenFOAM: The Open Source CFD Toolbox           |
|  \\    /   O peration     | Version:  2012                                  |
|   \\  /    A nd           | Website:  www.openfoam.com                      |
|    \\/     M anipulation  |                                                 |
\*---------------------------------------------------------------------------*/
FoamFile
{
    version     2.0;
    format      ascii;
    class       volVectorField;
    location    "2020";
    object      U;
}
// * * * * * * * * * * * * * * * * * * * * * * * * * * * * * * * * * * * * * //

dimensions      [0 1 -1 0 0 0 0];


internalField   nonuniform List<vector> 
20400
(
(3.5286e-06 -3.45295e-06 0)
(5.17797e-06 -1.16974e-06 0)
(-4.67374e-06 3.70712e-06 0)
(-2.50045e-05 6.36413e-06 0)
(-5.82709e-05 7.81234e-06 0)
(-9.85097e-05 7.15771e-06 0)
(-0.000144675 6.39715e-06 0)
(-0.00019353 5.47945e-06 0)
(-0.000243171 4.71031e-06 0)
(-0.000293943 4.21496e-06 0)
(-0.000343459 4.26813e-06 0)
(-0.00039337 4.19512e-06 0)
(-0.000442507 4.01938e-06 0)
(-0.000491451 3.62755e-06 0)
(-0.000540091 3.06329e-06 0)
(-0.000588541 2.27918e-06 0)
(-0.000636842 1.25e-06 0)
(-0.000685028 3.50223e-08 0)
(-0.000733114 -1.32849e-06 0)
(-0.00078101 -2.51456e-06 0)
(-0.000828619 -3.74155e-06 0)
(-0.000875942 -4.9653e-06 0)
(-0.000923008 -6.10331e-06 0)
(-0.000969803 -7.0834e-06 0)
(-0.00101631 -7.83177e-06 0)
(-0.00106252 -8.28195e-06 0)
(-0.00110842 -8.37443e-06 0)
(-0.001154 -8.05719e-06 0)
(-0.00119929 -7.29399e-06 0)
(-0.00124431 -6.04877e-06 0)
(-0.00128908 -4.31175e-06 0)
(-0.00133357 -2.05167e-06 0)
(-0.00137769 8.39402e-07 0)
(-0.00142107 5.46061e-06 0)
(-0.00146357 8.98122e-06 0)
(-0.00150588 1.14176e-05 0)
(-0.00154913 1.51555e-05 0)
(-0.00159119 1.8854e-05 0)
(-0.00163311 2.23349e-05 0)
(-0.00167448 2.54701e-05 0)
(-0.00171547 2.81418e-05 0)
(-0.00175609 3.02731e-05 0)
(-0.00179639 3.18506e-05 0)
(-0.00183644 3.28782e-05 0)
(-0.00187625 3.3408e-05 0)
(-0.00191587 3.3504e-05 0)
(-0.00195528 3.3234e-05 0)
(-0.00199449 3.26525e-05 0)
(-0.00203349 3.17944e-05 0)
(-0.00207228 3.06697e-05 0)
(-0.00211086 2.92643e-05 0)
(-0.00214922 2.75381e-05 0)
(-0.00218738 2.54273e-05 0)
(-0.00222535 2.28573e-05 0)
(-0.00226318 1.97195e-05 0)
(-0.00230084 1.59911e-05 0)
(-0.00233843 1.16095e-05 0)
(-0.00237569 7.25988e-06 0)
(-0.00241251 1.13192e-06 0)
(-0.00245037 -5.46743e-06 0)
(-0.00248761 -1.11239e-05 0)
(-0.00252568 -1.6e-05 0)
(-0.0025629 -1.97013e-05 0)
(-0.00260054 -2.23178e-05 0)
(-0.00263772 -2.39469e-05 0)
(-0.00267486 -2.47865e-05 0)
(-0.00271179 -2.49847e-05 0)
(-0.00274857 -2.47109e-05 0)
(-0.0027852 -2.4077e-05 0)
(-0.00282172 -2.31836e-05 0)
(-0.00285815 -2.20835e-05 0)
(-0.0028945 -2.08333e-05 0)
(-0.00293077 -1.94472e-05 0)
(-0.002967 -1.79586e-05 0)
(-0.00300315 -1.63623e-05 0)
(-0.00303927 -1.46821e-05 0)
(-0.00307532 -1.29038e-05 0)
(-0.00311134 -1.10531e-05 0)
(-0.00314727 -9.10733e-06 0)
(-0.00318319 -7.10321e-06 0)
(-0.00321903 -5.0071e-06 0)
(-0.00325489 -2.86423e-06 0)
(-0.00329063 -6.30573e-07 0)
(-0.0033263 1.66402e-06 0)
(-0.00336153 4.44138e-06 0)
(-0.00339624 6.86298e-06 0)
(-0.00343093 8.00482e-06 0)
(-0.00346626 8.95773e-06 0)
(-0.0035007 9.52621e-06 0)
(-0.00353532 9.37636e-06 0)
(-0.00356955 8.57449e-06 0)
(-0.0036036 7.34841e-06 0)
(-0.00363697 5.80858e-06 0)
(-0.00366994 2.16552e-06 0)
(-0.00370317 -9.04765e-07 0)
(-0.00373599 -4.55709e-06 0)
(-0.00376846 -8.35054e-06 0)
(-0.00380063 -1.26208e-05 0)
(-0.00383191 -1.67896e-05 0)
(-0.00386293 -2.15773e-05 0)
(-0.00389279 -2.5996e-05 0)
(-0.00392238 -3.13013e-05 0)
(-0.00395052 -3.55614e-05 0)
(-0.00397845 -4.07119e-05 0)
(-0.00400451 -4.43232e-05 0)
(-0.00403085 -4.83767e-05 0)
(-0.00405456 -5.0092e-05 0)
(-0.00407962 -5.1454e-05 0)
(-0.00410014 -4.86657e-05 0)
(-0.00412396 -4.44838e-05 0)
(-0.00414047 -3.45543e-05 0)
(-0.00416226 -1.87135e-05 0)
(-0.00417159 1.39488e-06 0)
(-0.00418832 2.9096e-05 0)
(-0.00418952 5.03258e-05 0)
(-0.00420023 7.42865e-05 0)
(-0.00419682 8.93508e-05 0)
(-0.0042005 0.000110239 0)
(-0.00419247 0.00011954 0)
(-0.00418905 0.00013937 0)
(-0.00417502 0.000144959 0)
(-0.00416493 0.000164333 0)
(-0.00414373 0.000167972 0)
(-0.00412572 0.000186293 0)
(-0.00409691 0.000188273 0)
(-0.00406918 0.000203845 0)
(-0.00403189 0.000202508 0)
(-0.00399207 0.000211615 0)
(-0.00394378 0.000201965 0)
(-0.00388904 0.00019697 0)
(-0.00382718 0.00016702 0)
(-0.0037552 0.000135633 0)
(-0.00367873 6.63618e-05 0)
(-0.00360498 7.71096e-06 0)
(-0.00352727 -8.61018e-05 0)
(-0.00345701 -0.000147665 0)
(-0.00338823 -0.000209698 0)
(-0.00330744 -0.000251507 0)
(-0.00322334 -0.000283662 0)
(-0.00313107 -0.00031112 0)
(-0.0030342 -0.000327875 0)
(-0.00293219 -0.000342776 0)
(-0.00282685 -0.000348067 0)
(-0.00271915 -0.000347294 0)
(-0.00260942 -0.000333531 0)
(-0.00250087 -0.000302485 0)
(-0.00238517 -0.000251573 0)
(-0.00226985 -0.000164035 0)
(-0.0021424 -6.99311e-05 0)
(-0.00201775 5.45746e-05 0)
(-0.00184793 0.000152524 0)
(-0.00170478 0.000218759 0)
(-0.00153615 0.000249036 0)
(-0.00138755 0.000269316 0)
(-0.00121702 0.000263647 0)
(-0.00106036 0.000239887 0)
(-0.000855929 0.000175531 0)
(-0.000711857 7.21066e-05 0)
(-0.000596097 -1.52995e-05 0)
(-0.000479587 -4.47684e-05 0)
(-0.000327169 -6.5179e-05 0)
(-0.000198363 -6.84095e-05 0)
(-4.05772e-05 -7.11018e-05 0)
(8.68295e-05 -6.27055e-05 0)
(0.000246866 -5.75402e-05 0)
(0.000373708 -4.86535e-05 0)
(0.000528132 -4.41747e-05 0)
(0.000651827 -3.66346e-05 0)
(0.000799756 -3.42757e-05 0)
(0.000919507 -2.85573e-05 0)
(0.00105988 -2.77036e-05 0)
(0.00117495 -2.30393e-05 0)
(0.00130685 -2.31561e-05 0)
(0.00141672 -1.91567e-05 0)
(0.00153957 -1.98343e-05 0)
(0.00164384 -1.64322e-05 0)
(0.00175731 -1.73123e-05 0)
(0.00185551 -1.42276e-05 0)
(0.00195978 -1.51373e-05 0)
(0.00205133 -1.28475e-05 0)
(0.0021465 -1.31613e-05 0)
(0.00223104 -1.16721e-05 0)
(0.00231718 -1.15091e-05 0)
(0.00239465 -1.05193e-05 0)
(0.00247191 -1.01332e-05 0)
(0.00254221 -9.27765e-06 0)
(0.0026112 -8.90532e-06 0)
(0.00267419 -8.15587e-06 0)
(0.0027353 -7.78463e-06 0)
(0.00279122 -7.12207e-06 0)
(0.00284478 -6.76215e-06 0)
(0.00289394 -6.16736e-06 0)
(0.00294034 -5.82998e-06 0)
(0.00298309 -5.28433e-06 0)
(0.00302274 -4.99644e-06 0)
(0.0030596 -4.47918e-06 0)
(0.00309305 -4.20933e-06 0)
(0.00312396 -3.8356e-06 0)
(0.00315202 -3.47855e-06 0)
(0.0031774 -3.1697e-06 0)
(0.00320033 -2.84901e-06 0)
(0.00322069 -2.55948e-06 0)
(0.00323896 -2.26556e-06 0)
(0.00325476 -2.00425e-06 0)
(0.00326878 -1.72955e-06 0)
(0.00328048 -1.49821e-06 0)
(0.00329065 -1.23255e-06 0)
(0.00329868 -1.00551e-06 0)
(0.00330539 -6.90424e-07 0)
(0.00331023 -4.66723e-07 0)
(0.00331391 -1.67433e-07 0)
(0.00331597 3.54792e-08 0)
(0.00331698 2.94006e-07 0)
(0.00331688 2.82681e-07 0)
(0.00331513 7.40318e-07 0)
(0.00331287 5.10349e-07 0)
(0.00330902 9.85442e-07 0)
(0.00330496 4.57454e-07 0)
(0.00329925 9.65597e-07 0)
(0.00329376 3.51408e-07 0)
(0.00328649 8.79008e-07 0)
(0.00327984 2.94486e-07 0)
(0.00327146 8.41115e-07 0)
(0.00326384 2.61533e-07 0)
(0.00325459 7.83514e-07 0)
(0.00324617 2.4422e-07 0)
(0.00323628 7.3249e-07 0)
(0.00322726 2.38171e-07 0)
(0.00321694 6.81021e-07 0)
(0.00320748 2.46033e-07 0)
(0.0031969 6.2704e-07 0)
(0.00318715 2.51124e-07 0)
(0.00317647 5.29114e-07 0)
(0.00316658 3.04303e-07 0)
(0.00315589 4.22715e-07 0)
(0.00314598 3.49363e-07 0)
(0.00313544 3.75083e-07 0)
(0.00312554 3.61723e-07 0)
(0.00311538 3.392e-07 0)
(0.00310552 3.85928e-07 0)
(0.00309581 3.2982e-07 0)
(0.00308613 4.19146e-07 0)
(0.00307682 3.69215e-07 0)
(0.00306747 5.03252e-07 0)
(0.00305859 4.54506e-07 0)
(0.00304965 6.33021e-07 0)
(0.00304124 5.80893e-07 0)
(0.00303275 7.79866e-07 0)
(0.00302486 6.85899e-07 0)
(0.00301685 8.74154e-07 0)
(0.00300951 7.28432e-07 0)
(0.00300203 8.96865e-07 0)
(0.00299529 7.03529e-07 0)
(0.00298837 8.72393e-07 0)
(0.00298225 6.55373e-07 0)
(0.0029759 8.30291e-07 0)
(0.00297039 5.99851e-07 0)
(0.00296461 7.78677e-07 0)
(0.00295972 5.39043e-07 0)
(0.00295452 7.18785e-07 0)
(0.00295025 4.70485e-07 0)
(0.00294562 6.33181e-07 0)
(0.00294196 3.94903e-07 0)
(0.00293791 5.34113e-07 0)
(0.00293484 3.16675e-07 0)
(0.00293138 4.33684e-07 0)
(0.00292889 2.32567e-07 0)
(0.00292601 3.32393e-07 0)
(0.00292408 1.3371e-07 0)
(0.00292178 2.315e-07 0)
(0.00292038 4.07917e-08 0)
(0.00291865 1.34017e-07 0)
(0.00291776 -4.76136e-08 0)
(0.0029166 3.99944e-08 0)
(0.00291618 -1.32904e-07 0)
(0.00291561 -4.68835e-08 0)
(0.00291557 -2.27599e-07 0)
(0.00291554 -8.97559e-08 0)
(0.00291602 -2.95665e-07 0)
(0.00291643 -1.38459e-07 0)
(0.00291735 -3.61364e-07 0)
(0.00291821 -2.07226e-07 0)
(0.0029196 -4.36431e-07 0)
(0.0029209 -3.00495e-07 0)
(0.00292263 -4.38287e-07 0)
(0.0029244 -3.53766e-07 0)
(0.00292648 -3.86266e-07 0)
(0.00292872 -3.53138e-07 0)
(0.00293115 -3.78008e-07 0)
(0.00293375 -3.66947e-07 0)
(0.00293652 -3.90044e-07 0)
(0.00293945 -4.01756e-07 0)
(0.00294255 -4.22864e-07 0)
(0.00294579 -4.36775e-07 0)
(0.00294922 -4.58376e-07 0)
(0.00295271 -4.75255e-07 0)
(0.00295649 -4.64068e-07 0)
(0.00296013 -5.43748e-07 0)
(0.00296434 -4.67712e-07 0)
(0.00296807 -5.76632e-07 0)
(0.00297262 -4.9053e-07 0)
(0.00297648 -5.9682e-07 0)
(0.00298131 -5.17611e-07 0)
(0.00298532 -6.12814e-07 0)
(0.00299037 -5.55066e-07 0)
(0.00299452 -6.36605e-07 0)
(0.00299978 -5.93202e-07 0)
(0.00300406 -6.71463e-07 0)
(0.00300949 -6.33108e-07 0)
(0.0030139 -7.08587e-07 0)
(0.00301948 -6.73142e-07 0)
(0.00302401 -7.45953e-07 0)
(0.00302974 -7.12238e-07 0)
(0.00303438 -7.79512e-07 0)
(0.00304022 -7.4405e-07 0)
(0.00304496 -8.03526e-07 0)
(0.00305089 -7.5891e-07 0)
(0.00305572 -8.1624e-07 0)
(0.00306172 -7.63713e-07 0)
(0.00306662 -8.21269e-07 0)
(0.00307267 -7.66667e-07 0)
(0.00307763 -8.19561e-07 0)
(0.00308372 -7.77015e-07 0)
(0.00308873 -8.20388e-07 0)
(0.00309484 -7.88363e-07 0)
(0.00309987 -8.25641e-07 0)
(0.00310599 -7.96807e-07 0)
(0.00311105 -8.2709e-07 0)
(0.00311716 -7.98729e-07 0)
(0.00312223 -8.2271e-07 0)
(0.00312833 -7.96308e-07 0)
(0.0031334 -8.14796e-07 0)
(0.00313946 -7.91736e-07 0)
(0.00314454 -8.04958e-07 0)
(0.00315056 -7.86133e-07 0)
(0.00315563 -7.93085e-07 0)
(0.0031616 -7.79397e-07 0)
(0.00316667 -7.83818e-07 0)
(0.00317255 -7.69998e-07 0)
(0.00317763 -7.73457e-07 0)
(0.00318343 -7.601e-07 0)
(0.0031885 -7.60865e-07 0)
(0.00319421 -7.51008e-07 0)
(0.00319928 -7.49152e-07 0)
(0.00320488 -7.41705e-07 0)
(0.00320994 -7.37387e-07 0)
(0.00321543 -7.3181e-07 0)
(0.00322048 -7.25088e-07 0)
(0.00322586 -7.21652e-07 0)
(0.00323089 -7.12561e-07 0)
(0.00323615 -7.11167e-07 0)
(0.00324117 -6.9948e-07 0)
(0.00324631 -6.98966e-07 0)
(0.0032513 -6.9126e-07 0)
(0.00325632 -6.86065e-07 0)
(0.00326127 -6.80721e-07 0)
(0.0032662 -6.74118e-07 0)
(0.00327108 -6.68398e-07 0)
(0.00327593 -6.62191e-07 0)
(0.00328073 -6.56254e-07 0)
(0.0032855 -6.50134e-07 0)
(0.00329022 -6.44134e-07 0)
(0.00329491 -6.38119e-07 0)
(0.00329955 -6.32188e-07 0)
(0.00330415 -6.26234e-07 0)
(0.00330871 -6.20317e-07 0)
(0.00331323 -6.14364e-07 0)
(0.0033177 -6.08428e-07 0)
(0.00332214 -6.02451e-07 0)
(0.00332653 -5.96491e-07 0)
(0.00333088 -5.9052e-07 0)
(0.00333519 -5.8458e-07 0)
(0.00333945 -5.78657e-07 0)
(0.00334367 -5.72771e-07 0)
(0.00334785 -5.66918e-07 0)
(0.00335199 -5.61106e-07 0)
(0.00335608 -5.55331e-07 0)
(0.00336014 -5.49597e-07 0)
(0.00336415 -5.439e-07 0)
(0.00336812 -5.38242e-07 0)
(0.00337204 -5.3262e-07 0)
(0.00337593 -5.27039e-07 0)
(0.00337977 -5.21495e-07 0)
(0.00338358 -5.15994e-07 0)
(0.00338734 -5.10534e-07 0)
(0.00339106 -5.0512e-07 0)
(0.00339474 -4.99753e-07 0)
(0.00339838 -4.94433e-07 0)
(0.00340198 -4.89163e-07 0)
(0.00340554 -4.83943e-07 0)
(0.00340907 -4.78775e-07 0)
(0.00341255 -4.73658e-07 0)
(0.003416 -4.68594e-07 0)
(0.0034194 -4.63582e-07 0)
(0.00342277 -4.58623e-07 0)
(0.00342611 -4.53718e-07 0)
(0.0034294 -4.48865e-07 0)
(0.00343266 -4.44065e-07 0)
(0.00343588 -4.39319e-07 0)
(0.00343907 -4.34625e-07 0)
(0.00344222 -4.29983e-07 0)
(0.00344533 -4.25394e-07 0)
(0.00344841 -4.20857e-07 0)
(0.00345146 -4.16371e-07 0)
(0.00345447 -4.11937e-07 0)
(0.00345745 -4.07554e-07 0)
(0.00346039 -4.03221e-07 0)
(0.00346331 -3.9894e-07 0)
(0.00346618 -3.94711e-07 0)
(0.00346903 -3.9054e-07 0)
(0.00347185 -3.8644e-07 0)
(0.00347463 -3.82398e-07 0)
(0.00347738 -3.78385e-07 0)
(0.0034801 -3.74401e-07 0)
(0.00348279 -3.70452e-07 0)
(0.00348546 -3.66543e-07 0)
(0.00348809 -3.62674e-07 0)
(0.00349069 -3.58849e-07 0)
(0.00349326 -3.55066e-07 0)
(0.0034958 -3.51325e-07 0)
(0.00349832 -3.47626e-07 0)
(0.00350081 -3.43969e-07 0)
(0.00350327 -3.40353e-07 0)
(0.0035057 -3.36779e-07 0)
(0.0035081 -3.33244e-07 0)
(0.00351048 -3.2975e-07 0)
(0.00351283 -3.26296e-07 0)
(0.00351516 -3.22881e-07 0)
(0.00351746 -3.19505e-07 0)
(0.00351973 -3.16167e-07 0)
(0.00352198 -3.12867e-07 0)
(0.0035242 -3.09605e-07 0)
(0.0035264 -3.0638e-07 0)
(0.00352857 -3.03192e-07 0)
(0.00353072 -3.00041e-07 0)
(0.00353285 -2.96925e-07 0)
(0.00353496 -2.93846e-07 0)
(0.00353704 -2.90801e-07 0)
(0.00353909 -2.87791e-07 0)
(0.00354113 -2.84816e-07 0)
(0.00354314 -2.81875e-07 0)
(0.00354513 -2.78968e-07 0)
(0.0035471 -2.76094e-07 0)
(0.00354905 -2.73253e-07 0)
(0.00355097 -2.70445e-07 0)
(0.00355288 -2.67669e-07 0)
(0.00355476 -2.64924e-07 0)
(0.00355662 -2.6221e-07 0)
(0.00355847 -2.59528e-07 0)
(0.00356029 -2.56875e-07 0)
(0.0035621 -2.54252e-07 0)
(0.00356388 -2.51658e-07 0)
(0.00356564 -2.49093e-07 0)
(0.00356739 -2.46556e-07 0)
(0.00356912 -2.44046e-07 0)
(0.00357083 -2.41562e-07 0)
(0.00357251 -2.39105e-07 0)
(0.00357419 -2.36673e-07 0)
(0.00357584 -2.34265e-07 0)
(0.00357748 -2.31881e-07 0)
(0.00357909 -2.29516e-07 0)
(0.00358069 -2.27168e-07 0)
(0.00358228 -2.24829e-07 0)
(0.00358384 -2.22489e-07 0)
(0.00358539 -2.2012e-07 0)
(0.00358692 -2.1779e-07 0)
(0.00358844 -2.15509e-07 0)
(0.00358993 -2.13266e-07 0)
(0.00359142 -2.11053e-07 0)
(0.00359288 -2.08864e-07 0)
(0.00359433 -2.06694e-07 0)
(0.00359576 -2.0454e-07 0)
(0.00359718 -2.02401e-07 0)
(0.00359858 -2.00267e-07 0)
(0.00359996 -1.98144e-07 0)
(0.00360133 -1.95928e-07 0)
(0.00360268 -1.93871e-07 0)
(0.00360402 -1.90724e-07 0)
(0.00360534 -1.92945e-07 0)
(0.00360665 -1.84494e-07 0)
(0.00360794 -1.89828e-07 0)
(0.00360921 -1.79011e-07 0)
(0.00361048 -1.87018e-07 0)
(0.00361171 -1.7364e-07 0)
(0.00361295 -1.84095e-07 0)
(0.00361414 -1.68129e-07 0)
(0.00361537 -1.80741e-07 0)
(0.0036165 -1.62145e-07 0)
(0.00361774 -1.77409e-07 0)
(0.00361877 -1.54949e-07 0)
(0.00362005 -1.74522e-07 0)
(0.00362096 -1.45116e-07 0)
(0.00362233 -1.73268e-07 0)
(0.00362303 -1.30437e-07 0)
(0.00362458 -1.78664e-07 0)
(0.00362499 -1.09857e-07 0)
(0.00362687 -2.07639e-07 0)
(0.00362684 -9.08914e-08 0)
(0.00362971 -4.33396e-07 0)
(0.00362863 -9.5655e-07 0)
(1.08622e-06 -5.26597e-06 0)
(-1.30992e-05 1.2413e-05 0)
(-5.7318e-05 4.04868e-05 0)
(-0.000130439 6.40953e-05 0)
(-0.000228682 8.26165e-05 0)
(-0.000344071 9.24921e-05 0)
(-0.000472047 9.8335e-05 0)
(-0.000606809 9.99893e-05 0)
(-0.000745361 9.98712e-05 0)
(-0.000885871 9.84152e-05 0)
(-0.00102579 9.67208e-05 0)
(-0.00116637 9.51643e-05 0)
(-0.00130569 9.39922e-05 0)
(-0.00144412 9.33342e-05 0)
(-0.00158137 9.30902e-05 0)
(-0.00171764 9.32312e-05 0)
(-0.00185293 9.37316e-05 0)
(-0.00198726 9.45313e-05 0)
(-0.00212071 9.53638e-05 0)
(-0.00225298 9.58694e-05 0)
(-0.00238381 9.64163e-05 0)
(-0.00251328 9.70557e-05 0)
(-0.0026414 9.7621e-05 0)
(-0.0027682 9.8004e-05 0)
(-0.00289364 9.81158e-05 0)
(-0.00301773 9.78935e-05 0)
(-0.00314048 9.7288e-05 0)
(-0.00326195 9.62693e-05 0)
(-0.00338218 9.48119e-05 0)
(-0.00350125 9.29192e-05 0)
(-0.00361922 9.0521e-05 0)
(-0.00373609 8.75266e-05 0)
(-0.00385182 8.33515e-05 0)
(-0.00396607 7.6635e-05 0)
(-0.00407878 7.18382e-05 0)
(-0.00419258 7.00002e-05 0)
(-0.00430478 6.54916e-05 0)
(-0.00441659 6.04415e-05 0)
(-0.0045275 5.57466e-05 0)
(-0.00463753 5.15481e-05 0)
(-0.00474663 4.79872e-05 0)
(-0.00485476 4.50475e-05 0)
(-0.00496188 4.28544e-05 0)
(-0.005068 4.13115e-05 0)
(-0.00517311 4.03598e-05 0)
(-0.00527724 3.98786e-05 0)
(-0.00538042 3.97753e-05 0)
(-0.00548271 3.99792e-05 0)
(-0.00558418 4.04514e-05 0)
(-0.00568488 4.11794e-05 0)
(-0.0057849 4.21838e-05 0)
(-0.00588433 4.35178e-05 0)
(-0.00598322 4.52453e-05 0)
(-0.00608167 4.75317e-05 0)
(-0.00617969 5.0283e-05 0)
(-0.00627721 5.39556e-05 0)
(-0.00637429 5.77623e-05 0)
(-0.00647062 6.13297e-05 0)
(-0.00656605 6.7946e-05 0)
(-0.00665995 7.50339e-05 0)
(-0.00675126 8.09064e-05 0)
(-0.00684236 8.54018e-05 0)
(-0.00693173 8.89519e-05 0)
(-0.00702131 9.13076e-05 0)
(-0.00711044 9.25649e-05 0)
(-0.00719955 9.29735e-05 0)
(-0.00728845 9.27802e-05 0)
(-0.00737713 9.21296e-05 0)
(-0.00746549 9.11909e-05 0)
(-0.00755353 9.00017e-05 0)
(-0.00764116 8.86778e-05 0)
(-0.00772839 8.71904e-05 0)
(-0.00781515 8.56373e-05 0)
(-0.00790148 8.39513e-05 0)
(-0.00798729 8.22263e-05 0)
(-0.00807264 8.03681e-05 0)
(-0.00815744 7.84931e-05 0)
(-0.00824175 7.64568e-05 0)
(-0.00832547 7.44589e-05 0)
(-0.00840868 7.22822e-05 0)
(-0.00849125 7.02111e-05 0)
(-0.00857329 6.79315e-05 0)
(-0.00865461 6.57126e-05 0)
(-0.0087353 6.29241e-05 0)
(-0.00881514 5.91509e-05 0)
(-0.00889443 5.64592e-05 0)
(-0.00897339 5.60082e-05 0)
(-0.00905182 5.43896e-05 0)
(-0.00912941 5.33922e-05 0)
(-0.00920611 5.3114e-05 0)
(-0.00928142 5.35401e-05 0)
(-0.00935537 5.34868e-05 0)
(-0.00942761 5.39285e-05 0)
(-0.0094983 5.72281e-05 0)
(-0.00956671 5.97436e-05 0)
(-0.00963406 6.22055e-05 0)
(-0.0096989 6.52974e-05 0)
(-0.00976209 6.7352e-05 0)
(-0.00982225 7.07167e-05 0)
(-0.00988075 7.26877e-05 0)
(-0.00993535 7.63047e-05 0)
(-0.00998812 7.8031e-05 0)
(-0.0100353 8.17249e-05 0)
(-0.0100813 8.23775e-05 0)
(-0.0101202 8.61849e-05 0)
(-0.0101577 8.49772e-05 0)
(-0.0101866 8.82876e-05 0)
(-0.0102127 8.28654e-05 0)
(-0.0102296 8.33997e-05 0)
(-0.0102417 7.18703e-05 0)
(-0.0102431 6.6141e-05 0)
(-0.0102406 4.21384e-05 0)
(-0.010225 2.6273e-05 0)
(-0.0102224 -1.21912e-05 0)
(-0.0102116 -2.76765e-05 0)
(-0.0102012 -5.94076e-05 0)
(-0.0101778 -7.05843e-05 0)
(-0.0101455 -9.68878e-05 0)
(-0.0101057 -0.000104443 0)
(-0.0100527 -0.000127566 0)
(-0.00999534 -0.000134804 0)
(-0.0099221 -0.000156215 0)
(-0.00984633 -0.000163669 0)
(-0.00975321 -0.00018378 0)
(-0.00965918 -0.000191032 0)
(-0.00954623 -0.00020892 0)
(-0.00943505 -0.00021514 0)
(-0.00930259 -0.000228101 0)
(-0.00917577 -0.000231024 0)
(-0.00902669 -0.000232751 0)
(-0.00888464 -0.000225263 0)
(-0.00872128 -0.000208067 0)
(-0.00855659 -0.000166474 0)
(-0.00836096 -0.000121931 0)
(-0.00814939 -5.71693e-05 0)
(-0.00790208 -1.04916e-05 0)
(-0.00764933 2.04639e-05 0)
(-0.00738281 3.46167e-05 0)
(-0.00711094 4.36336e-05 0)
(-0.00682994 4.70441e-05 0)
(-0.0065411 4.60214e-05 0)
(-0.00624182 4.53435e-05 0)
(-0.00593159 3.92332e-05 0)
(-0.00560954 3.35546e-05 0)
(-0.00526468 2.13521e-05 0)
(-0.00492342 3.41971e-06 0)
(-0.00450807 -2.92057e-05 0)
(-0.004162 -8.39516e-05 0)
(-0.00374553 -0.000134295 0)
(-0.00340654 -0.000230698 0)
(-0.00312823 -0.000272616 0)
(-0.0028111 -0.000302362 0)
(-0.002489 -0.000320083 0)
(-0.00213873 -0.000325836 0)
(-0.00180197 -0.000337709 0)
(-0.0014593 -0.000341303 0)
(-0.00113333 -0.000362619 0)
(-0.000791755 -0.000389544 0)
(-0.000334203 -0.000407233 0)
(4.20708e-05 -0.000396115 0)
(0.000464686 -0.000384227 0)
(0.000820386 -0.000364752 0)
(0.00122234 -0.000363188 0)
(0.00157263 -0.000340077 0)
(0.00195342 -0.000328665 0)
(0.00229054 -0.000308215 0)
(0.00265636 -0.000303407 0)
(0.00298331 -0.000287805 0)
(0.00333655 -0.00028454 0)
(0.00365235 -0.000268857 0)
(0.0039901 -0.00026567 0)
(0.00429332 -0.000250253 0)
(0.00461344 -0.000246899 0)
(0.00490279 -0.000232186 0)
(0.00520372 -0.000228333 0)
(0.00547816 -0.000214595 0)
(0.00575901 -0.000209773 0)
(0.00601763 -0.00019808 0)
(0.00627751 -0.000191584 0)
(0.00651934 -0.000181239 0)
(0.00675887 -0.000174006 0)
(0.00698251 -0.000164678 0)
(0.007202 -0.000157117 0)
(0.00740707 -0.000148496 0)
(0.00760674 -0.000141001 0)
(0.00779323 -0.00013281 0)
(0.00797345 -0.000125661 0)
(0.00814162 -0.000117859 0)
(0.00830294 -0.000111083 0)
(0.00845328 -0.000103643 0)
(0.00859636 -9.73021e-05 0)
(0.00872951 -9.01859e-05 0)
(0.00885515 -8.43514e-05 0)
(0.00897188 -7.74952e-05 0)
(0.00908098 -7.24538e-05 0)
(0.00918224 -6.59614e-05 0)
(0.00927586 -6.07335e-05 0)
(0.00936215 -5.54433e-05 0)
(0.00944145 -5.0255e-05 0)
(0.00951388 -4.54531e-05 0)
(0.0095798 -4.06634e-05 0)
(0.00963925 -3.63153e-05 0)
(0.00969285 -3.19427e-05 0)
(0.00974036 -2.80247e-05 0)
(0.00978264 -2.40454e-05 0)
(0.00981927 -2.05395e-05 0)
(0.00985121 -1.6935e-05 0)
(0.00987802 -1.3868e-05 0)
(0.00990059 -1.07834e-05 0)
(0.00991857 -8.17945e-06 0)
(0.00993274 -5.438e-06 0)
(0.0099429 -3.09458e-06 0)
(0.00994954 -7.70567e-07 0)
(0.00995311 8.70301e-07 0)
(0.0099533 3.66988e-06 0)
(0.00994954 5.31408e-06 0)
(0.00994399 7.41853e-06 0)
(0.00993503 9.09024e-06 0)
(0.00992451 1.08369e-05 0)
(0.00991105 1.22423e-05 0)
(0.00989639 1.3558e-05 0)
(0.00987914 1.47068e-05 0)
(0.00986101 1.56248e-05 0)
(0.00984062 1.67088e-05 0)
(0.00981964 1.7314e-05 0)
(0.0097967 1.8269e-05 0)
(0.00977345 1.85714e-05 0)
(0.00974851 1.9403e-05 0)
(0.00972352 1.94554e-05 0)
(0.00969709 2.01749e-05 0)
(0.00967076 2.00232e-05 0)
(0.00964339 2.06259e-05 0)
(0.00961603 2.03367e-05 0)
(0.00958825 2.07749e-05 0)
(0.00956015 2.04233e-05 0)
(0.00953228 2.06301e-05 0)
(0.00950388 2.0304e-05 0)
(0.009476 2.02471e-05 0)
(0.009448 1.99543e-05 0)
(0.00942019 1.9689e-05 0)
(0.00939278 1.93817e-05 0)
(0.00936538 1.90172e-05 0)
(0.00933868 1.85875e-05 0)
(0.00931195 1.81782e-05 0)
(0.00928614 1.75933e-05 0)
(0.00926029 1.71656e-05 0)
(0.00923548 1.64742e-05 0)
(0.00921064 1.6055e-05 0)
(0.00918695 1.53212e-05 0)
(0.00916324 1.49204e-05 0)
(0.00914084 1.41418e-05 0)
(0.00911843 1.37601e-05 0)
(0.00909744 1.29541e-05 0)
(0.00907643 1.26062e-05 0)
(0.00905692 1.17732e-05 0)
(0.00903736 1.14622e-05 0)
(0.00901935 1.06012e-05 0)
(0.00900127 1.03195e-05 0)
(0.00898479 9.43433e-06 0)
(0.00896821 9.17142e-06 0)
(0.00895329 8.27237e-06 0)
(0.00893824 8.06516e-06 0)
(0.00892487 7.12873e-06 0)
(0.00891135 6.98223e-06 0)
(0.00889954 6.00074e-06 0)
(0.00888757 5.90761e-06 0)
(0.0088773 4.90215e-06 0)
(0.00886687 4.84521e-06 0)
(0.0088581 3.85831e-06 0)
(0.0088492 3.80362e-06 0)
(0.0088419 2.84107e-06 0)
(0.0088345 2.78784e-06 0)
(0.00882862 1.85058e-06 0)
(0.0088227 1.80556e-06 0)
(0.00881819 8.84096e-07 0)
(0.00881372 8.83294e-07 0)
(0.00881055 -9.40978e-08 0)
(0.00880747 7.14524e-08 0)
(0.00880563 -9.90475e-07 0)
(0.00880387 -8.19169e-07 0)
(0.00880319 -1.83031e-06 0)
(0.00880273 -1.73854e-06 0)
(0.00880326 -2.59059e-06 0)
(0.00880415 -2.50497e-06 0)
(0.00880574 -3.32262e-06 0)
(0.00880779 -3.41323e-06 0)
(0.00881053 -4.08024e-06 0)
(0.00881367 -4.37233e-06 0)
(0.00881746 -4.7241e-06 0)
(0.00882165 -5.06374e-06 0)
(0.00882637 -5.39101e-06 0)
(0.00883156 -5.69108e-06 0)
(0.00883726 -5.99872e-06 0)
(0.00884339 -6.28277e-06 0)
(0.00884999 -6.57176e-06 0)
(0.00885693 -6.84769e-06 0)
(0.00886441 -7.04695e-06 0)
(0.00887202 -7.37634e-06 0)
(0.00888042 -7.47665e-06 0)
(0.00888863 -7.82503e-06 0)
(0.00889789 -7.88996e-06 0)
(0.00890666 -8.24427e-06 0)
(0.00891662 -8.24642e-06 0)
(0.00892592 -8.62429e-06 0)
(0.0089365 -8.55201e-06 0)
(0.00894632 -8.95266e-06 0)
(0.00895747 -8.83863e-06 0)
(0.00896777 -9.22321e-06 0)
(0.00897942 -9.09192e-06 0)
(0.00899017 -9.4634e-06 0)
(0.00900228 -9.31926e-06 0)
(0.00901345 -9.6794e-06 0)
(0.00902599 -9.52545e-06 0)
(0.00903753 -9.8627e-06 0)
(0.00905045 -9.70516e-06 0)
(0.00906234 -1.00147e-05 0)
(0.00907557 -9.87509e-06 0)
(0.00908775 -1.0141e-05 0)
(0.00910124 -1.00203e-05 0)
(0.00911366 -1.02427e-05 0)
(0.00912737 -1.0134e-05 0)
(0.00914 -1.03334e-05 0)
(0.00915389 -1.02027e-05 0)
(0.00916669 -1.03906e-05 0)
(0.00918073 -1.0245e-05 0)
(0.00919366 -1.0409e-05 0)
(0.0092078 -1.02672e-05 0)
(0.00922085 -1.04079e-05 0)
(0.00923505 -1.02762e-05 0)
(0.00924817 -1.03937e-05 0)
(0.00926242 -1.02709e-05 0)
(0.00927558 -1.03647e-05 0)
(0.00928984 -1.02501e-05 0)
(0.00930303 -1.03198e-05 0)
(0.00931727 -1.02142e-05 0)
(0.00933047 -1.02578e-05 0)
(0.00934466 -1.01652e-05 0)
(0.00935785 -1.01829e-05 0)
(0.00937196 -1.01024e-05 0)
(0.00938514 -1.01016e-05 0)
(0.00939913 -1.0024e-05 0)
(0.00941229 -1.00148e-05 0)
(0.00942615 -9.93181e-06 0)
(0.00943928 -9.91072e-06 0)
(0.00945298 -9.8318e-06 0)
(0.00946606 -9.79759e-06 0)
(0.00947959 -9.72358e-06 0)
(0.00949261 -9.67798e-06 0)
(0.00950595 -9.60742e-06 0)
(0.0095189 -9.55077e-06 0)
(0.00953204 -9.48353e-06 0)
(0.00954491 -9.41598e-06 0)
(0.00955784 -9.35166e-06 0)
(0.00957061 -9.2843e-06 0)
(0.00958334 -9.21264e-06 0)
(0.00959597 -9.14378e-06 0)
(0.00960853 -9.06968e-06 0)
(0.00962099 -8.99699e-06 0)
(0.00963337 -8.92245e-06 0)
(0.00964565 -8.84845e-06 0)
(0.00965784 -8.77272e-06 0)
(0.00966994 -8.69725e-06 0)
(0.00968195 -8.62017e-06 0)
(0.00969386 -8.54341e-06 0)
(0.00970567 -8.46561e-06 0)
(0.00971739 -8.38792e-06 0)
(0.00972901 -8.30957e-06 0)
(0.00974052 -8.23109e-06 0)
(0.00975194 -8.15228e-06 0)
(0.00976326 -8.07338e-06 0)
(0.00977448 -7.99429e-06 0)
(0.00978559 -7.91519e-06 0)
(0.0097966 -7.83603e-06 0)
(0.00980751 -7.75692e-06 0)
(0.00981831 -7.67784e-06 0)
(0.00982902 -7.5989e-06 0)
(0.00983962 -7.5201e-06 0)
(0.00985011 -7.44153e-06 0)
(0.00986051 -7.3632e-06 0)
(0.0098708 -7.28519e-06 0)
(0.00988099 -7.20752e-06 0)
(0.00989107 -7.13023e-06 0)
(0.00990106 -7.05336e-06 0)
(0.00991094 -6.97693e-06 0)
(0.00992072 -6.90098e-06 0)
(0.0099304 -6.82553e-06 0)
(0.00993998 -6.75062e-06 0)
(0.00994946 -6.67627e-06 0)
(0.00995884 -6.60248e-06 0)
(0.00996812 -6.5293e-06 0)
(0.0099773 -6.45673e-06 0)
(0.00998639 -6.38479e-06 0)
(0.00999538 -6.3135e-06 0)
(0.0100043 -6.24286e-06 0)
(0.0100131 -6.17289e-06 0)
(0.0100218 -6.10359e-06 0)
(0.0100304 -6.03498e-06 0)
(0.0100389 -5.96706e-06 0)
(0.0100473 -5.89983e-06 0)
(0.0100557 -5.83329e-06 0)
(0.0100639 -5.76745e-06 0)
(0.0100721 -5.70231e-06 0)
(0.0100801 -5.63786e-06 0)
(0.0100881 -5.57412e-06 0)
(0.010096 -5.51106e-06 0)
(0.0101038 -5.4487e-06 0)
(0.0101115 -5.38703e-06 0)
(0.0101191 -5.32605e-06 0)
(0.0101267 -5.26575e-06 0)
(0.0101341 -5.20613e-06 0)
(0.0101415 -5.14718e-06 0)
(0.0101488 -5.08891e-06 0)
(0.0101561 -5.0313e-06 0)
(0.0101632 -4.97434e-06 0)
(0.0101703 -4.91804e-06 0)
(0.0101772 -4.86238e-06 0)
(0.0101842 -4.80737e-06 0)
(0.010191 -4.75301e-06 0)
(0.0101977 -4.69928e-06 0)
(0.0102044 -4.64619e-06 0)
(0.010211 -4.59372e-06 0)
(0.0102176 -4.54188e-06 0)
(0.010224 -4.49066e-06 0)
(0.0102304 -4.44005e-06 0)
(0.0102367 -4.39004e-06 0)
(0.010243 -4.34065e-06 0)
(0.0102492 -4.29185e-06 0)
(0.0102553 -4.24364e-06 0)
(0.0102613 -4.19602e-06 0)
(0.0102673 -4.14899e-06 0)
(0.0102732 -4.10253e-06 0)
(0.0102791 -4.05665e-06 0)
(0.0102849 -4.01133e-06 0)
(0.0102906 -3.96658e-06 0)
(0.0102963 -3.92238e-06 0)
(0.0103019 -3.87873e-06 0)
(0.0103074 -3.83562e-06 0)
(0.0103129 -3.79306e-06 0)
(0.0103183 -3.75102e-06 0)
(0.0103237 -3.7095e-06 0)
(0.010329 -3.66851e-06 0)
(0.0103342 -3.62802e-06 0)
(0.0103394 -3.58803e-06 0)
(0.0103445 -3.54853e-06 0)
(0.0103496 -3.50953e-06 0)
(0.0103546 -3.47099e-06 0)
(0.0103596 -3.43293e-06 0)
(0.0103645 -3.39532e-06 0)
(0.0103694 -3.35817e-06 0)
(0.0103742 -3.32145e-06 0)
(0.0103789 -3.28517e-06 0)
(0.0103836 -3.2493e-06 0)
(0.0103883 -3.21385e-06 0)
(0.0103929 -3.17879e-06 0)
(0.0103974 -3.14413e-06 0)
(0.0104019 -3.10984e-06 0)
(0.0104064 -3.07592e-06 0)
(0.0104108 -3.04235e-06 0)
(0.0104152 -3.00913e-06 0)
(0.0104195 -2.97623e-06 0)
(0.0104237 -2.94366e-06 0)
(0.010428 -2.9114e-06 0)
(0.0104321 -2.87946e-06 0)
(0.0104363 -2.84784e-06 0)
(0.0104404 -2.81663e-06 0)
(0.0104444 -2.78566e-06 0)
(0.0104484 -2.75488e-06 0)
(0.0104523 -2.72428e-06 0)
(0.0104563 -2.69388e-06 0)
(0.0104601 -2.66367e-06 0)
(0.0104639 -2.63367e-06 0)
(0.0104677 -2.60385e-06 0)
(0.0104715 -2.57421e-06 0)
(0.0104752 -2.54471e-06 0)
(0.0104788 -2.51534e-06 0)
(0.0104824 -2.48581e-06 0)
(0.010486 -2.45681e-06 0)
(0.0104895 -2.42466e-06 0)
(0.010493 -2.40922e-06 0)
(0.0104965 -2.36332e-06 0)
(0.0104999 -2.35252e-06 0)
(0.0105032 -2.30318e-06 0)
(0.0105066 -2.29822e-06 0)
(0.0105098 -2.24368e-06 0)
(0.0105131 -2.24401e-06 0)
(0.0105163 -2.18292e-06 0)
(0.0105195 -2.18519e-06 0)
(0.0105225 -2.12362e-06 0)
(0.0105257 -2.12466e-06 0)
(0.0105286 -2.06459e-06 0)
(0.0105317 -2.06289e-06 0)
(0.0105344 -2.00584e-06 0)
(0.0105377 -2.00104e-06 0)
(0.0105401 -1.95244e-06 0)
(0.0105435 -1.94806e-06 0)
(0.0105455 -1.9285e-06 0)
(0.0105492 -1.94256e-06 0)
(0.0105506 -2.03725e-06 0)
(0.010555 -2.23375e-06 0)
(0.0105552 -3.09772e-06 0)
(-4.42732e-06 5.87143e-06 0)
(-4.63223e-05 5.89459e-05 0)
(-0.000133608 0.000123838 0)
(-0.00026273 0.000181798 0)
(-0.000426125 0.000227259 0)
(-0.000613937 0.000256524 0)
(-0.000818806 0.000274887 0)
(-0.00103365 0.000283366 0)
(-0.00125392 0.000286725 0)
(-0.00147654 0.000286477 0)
(-0.00169888 0.00028485 0)
(-0.00192046 0.000281971 0)
(-0.00213983 0.000278718 0)
(-0.00235714 0.00027561 0)
(-0.00257218 0.000272587 0)
(-0.00278488 0.000269493 0)
(-0.00299527 0.000266145 0)
(-0.00320318 0.000263034 0)
(-0.00340819 0.000259334 0)
(-0.00361074 0.000254902 0)
(-0.00381156 0.00025031 0)
(-0.00401029 0.000245744 0)
(-0.00420708 0.000241313 0)
(-0.00440175 0.000237045 0)
(-0.00459426 0.000233069 0)
(-0.0047846 0.000229503 0)
(-0.00497274 0.000226465 0)
(-0.0051587 0.000224086 0)
(-0.0053425 0.00022239 0)
(-0.00552415 0.0002215 0)
(-0.00570368 0.00022125 0)
(-0.00588104 0.000221706 0)
(-0.00605642 0.000222309 0)
(-0.00623021 0.000222777 0)
(-0.00640297 0.000227661 0)
(-0.00657202 0.000230333 0)
(-0.00673776 0.000233486 0)
(-0.00690152 0.000236424 0)
(-0.00706317 0.000238949 0)
(-0.00722272 0.000240928 0)
(-0.00738017 0.000242335 0)
(-0.00753573 0.000242925 0)
(-0.00768942 0.000242888 0)
(-0.00784162 0.000242113 0)
(-0.00799237 0.000240744 0)
(-0.0081418 0.000238885 0)
(-0.00828988 0.000236665 0)
(-0.00843659 0.000234183 0)
(-0.00858189 0.000231512 0)
(-0.00872573 0.000228682 0)
(-0.00886809 0.000225708 0)
(-0.00900892 0.000222555 0)