/*--------------------------------*- C++ -*----------------------------------*\
| =========                 |                                                 |
| \\      /  F ield         | OpenFOAM: The Open Source CFD Toolbox           |
|  \\    /   O peration     | Version:  3.0.1                                 |
|   \\  /    A nd           | Web:      www.OpenFOAM.org                      |
|    \\/     M anipulation  |                                                 |
\*---------------------------------------------------------------------------*/
FoamFile
{
    version     2.0;
    format      ascii;
    class       volScalarField;
    location    "5e-05";
    object      minKappa;
}
// * * * * * * * * * * * * * * * * * * * * * * * * * * * * * * * * * * * * * //

dimensions      [0 0 0 0 0 0 0];

internalField   nonuniform List<scalar> 
1000
(
0.894825
0.894825
0.894825
0.894825
0.894825
0.894825
0.894825
0.894825
0.894825
0.894825
0.894825
0.894825
0.894825
0.894825
0.894825
0.894825
0.894825
0.894825
0.894825
0.894825
0.894825
0.894825
0.894825
0.894825
0.894825
0.894825
0.894825
0.894825
0.894825
0.894825
0.894825
0.894825
0.894825
0.894825
0.894825
0.894825
0.894826
0.894827
0.894831
0.894833
0.894849
0.89492
0.895032
0.895281
0.895393
0.895822
0.899034
0.902579
0.902282
0.896257
0.889121
0.886926
0.886921
0.886921
0.889208
0.892002
0.893858
0.894486
0.894661
0.89473
0.894758
0.894794
0.89481
0.894823
0.894824
0.894824
0.894825
0.894825
0.894825
0.894825
0.894825
0.894825
0.894825
0.894825
0.894825
0.894825
0.894825
0.894825
0.894825
0.894825
0.894825
0.894825
0.894825
0.894825
0.894825
0.894825
0.894825
0.894825
0.894825
0.894825
0.894825
0.894825
0.894825
0.894825
0.894825
0.894825
0.894825
0.894825
0.894825
0.894825
0.894825
0.894825
0.894825
0.894825
0.894825
0.894825
0.894825
0.894825
0.894825
0.894825
0.894825
0.894825
0.894825
0.894825
0.894825
0.894825
0.894825
0.894825
0.894825
0.894825
0.894825
0.894825
0.894825
0.894825
0.894825
0.894825
0.894825
0.894825
0.894825
0.894825
0.894825
0.894825
0.894825
0.894825
0.894825
0.894825
0.894825
0.894825
0.89483
0.894833
0.894846
0.894909
0.89498
0.895123
0.895382
0.895957
0.898109
0.902216
0.903202
0.896899
0.889753
0.887307
0.8872
0.8872
0.888825
0.891861
0.893883
0.894451
0.894639
0.894728
0.894762
0.894797
0.894812
0.894823
0.894824
0.894824
0.894825
0.894825
0.894825
0.894825
0.894825
0.894825
0.894825
0.894825
0.894825
0.894825
0.894825
0.894825
0.894825
0.894825
0.894825
0.894825
0.894825
0.894825
0.894825
0.894825
0.894825
0.894825
0.894825
0.894825
0.894825
0.894825
0.894825
0.894825
0.894825
0.894825
0.894825
0.894825
0.894825
0.894825
0.894825
0.894825
0.894825
0.894825
0.894825
0.894825
0.894825
0.894825
0.894825
0.894825
0.894825
0.894825
0.894825
0.894825
0.894825
0.894825
0.894825
0.894825
0.894825
0.894825
0.894825
0.894825
0.894825
0.894825
0.894825
0.894825
0.894825
0.894825
0.894825
0.894825
0.894825
0.894825
0.894825
0.894825
0.894825
0.894825
0.894825
0.894825
0.894826
0.894829
0.894837
0.89488
0.894979
0.895063
0.895128
0.895603
0.897352
0.900138
0.901882
0.898398
0.891814
0.887331
0.887299
0.887299
0.889664
0.892211
0.893868
0.894347
0.89455
0.894704
0.894761
0.894797
0.894814
0.894822
0.894824
0.894824
0.894825
0.894825
0.894825
0.894825
0.894825
0.894825
0.894825
0.894825
0.894825
0.894825
0.894825
0.894825
0.894825
0.894825
0.894825
0.894825
0.894825
0.894825
0.894825
0.894825
0.894825
0.894825
0.894825
0.894825
0.894825
0.894825
0.894825
0.894825
0.894825
0.894825
0.894825
0.894825
0.894825
0.894825
0.894825
0.894825
0.894825
0.894825
0.894825
0.894825
0.894825
0.894825
0.894825
0.894825
0.894825
0.894825
0.894825
0.894825
0.894825
0.894825
0.894825
0.894825
0.894825
0.894825
0.894825
0.894825
0.894825
0.894825
0.894825
0.894825
0.894825
0.894825
0.894825
0.894825
0.894825
0.894825
0.894825
0.894825
0.894825
0.894825
0.894825
0.894825
0.894825
0.894831
0.894835
0.894879
0.894898
0.895091
0.895623
0.896051
0.897271
0.898381
0.900244
0.900509
0.893484
0.88807
0.887957
0.887957
0.890826
0.893011
0.893835
0.894213
0.8945
0.894754
0.894787
0.894795
0.894817
0.894822
0.894824
0.894824
0.894825
0.894825
0.894825
0.894825
0.894825
0.894825
0.894825
0.894825
0.894825
0.894825
0.894825
0.894825
0.894825
0.894825
0.894825
0.894825
0.894825
0.894825
0.894825
0.894825
0.894825
0.894825
0.894825
0.894825
0.894825
0.894825
0.894825
0.894825
0.894825
0.894825
0.894825
0.894825
0.894825
0.894825
0.894825
0.894825
0.894825
0.894825
0.894825
0.894825
0.894825
0.894825
0.894825
0.894825
0.894825
0.894825
0.894825
0.894825
0.894825
0.894825
0.894825
0.894825
0.894825
0.894825
0.894825
0.894825
0.894825
0.894825
0.894825
0.894825
0.894825
0.894825
0.894825
0.894825
0.894825
0.894825
0.894825
0.894825
0.894825
0.894825
0.894825
0.894826
0.894827
0.894835
0.894836
0.894846
0.894929
0.895071
0.895809
0.896914
0.897888
0.897938
0.898333
0.900049
0.894308
0.888549
0.888299
0.888299
0.891435
0.893146
0.893944
0.894353
0.894556
0.894743
0.894795
0.894808
0.894819
0.894822
0.894824
0.894824
0.894825
0.894825
0.894825
0.894825
0.894825
0.894825
0.894825
0.894825
0.894825
0.894825
0.894825
0.894825
0.894825
0.894825
0.894825
0.894825
0.894825
0.894825
0.894825
0.894825
0.894825
0.894825
0.894825
0.894825
0.894825
0.894825
0.894825
0.894825
0.894825
0.894825
0.894825
0.894825
0.894825
0.894825
0.894825
0.894825
0.894825
0.894825
0.894825
0.894825
0.894825
0.894825
0.894825
0.894825
0.894825
0.894825
0.894825
0.894825
0.894825
0.894825
0.894825
0.894825
0.894825
0.894825
0.894825
0.894825
0.894825
0.894825
0.894825
0.894825
0.894825
0.894825
0.894825
0.894825
0.894825
0.894825
0.894825
0.894825
0.894825
0.894824
0.894824
0.894826
0.894833
0.894839
0.894851
0.894866
0.894936
0.895132
0.895529
0.896644
0.897452
0.899038
0.901276
0.899437
0.89302
0.887767
0.887297
0.887297
0.88961
0.893402
0.894234
0.894304
0.894663
0.89481
0.89481
0.894812
0.894819
0.894822
0.894824
0.894825
0.894825
0.894825
0.894825
0.894825
0.894825
0.894825
0.894825
0.894825
0.894825
0.894825
0.894825
0.894825
0.894825
0.894825
0.894825
0.894825
0.894825
0.894825
0.894825
0.894825
0.894825
0.894825
0.894825
0.894825
0.894825
0.894825
0.894825
0.894825
0.894825
0.894825
0.894825
0.894825
0.894825
0.894825
0.894825
0.894825
0.894825
0.894825
0.894825
0.894825
0.894825
0.894825
0.894825
0.894825
0.894825
0.894825
0.894825
0.894825
0.894825
0.894825
0.894825
0.894825
0.894825
0.894825
0.894825
0.894825
0.894825
0.894825
0.894825
0.894825
0.894825
0.894825
0.894825
0.894825
0.894825
0.894825
0.894825
0.894825
0.894825
0.894825
0.894826
0.894826
0.894829
0.894835
0.894852
0.894889
0.894933
0.89512
0.895633
0.896353
0.89864
0.901679
0.902777
0.897176
0.889911
0.887041
0.887041
0.887134
0.889171
0.893471
0.894414
0.894414
0.894695
0.89475
0.894803
0.894815
0.894821
0.894823
0.894824
0.894825
0.894825
0.894825
0.894825
0.894825
0.894825
0.894825
0.894825
0.894825
0.894825
0.894825
0.894825
0.894825
0.894825
0.894825
0.894825
0.894825
0.894825
0.894825
0.894825
0.894825
0.894825
0.894825
0.894825
0.894825
0.894825
0.894825
0.894825
0.894825
0.894825
0.894825
0.894825
0.894825
0.894825
0.894825
0.894825
0.894825
0.894825
0.894825
0.894825
0.894825
0.894825
0.894825
0.894825
0.894825
0.894825
0.894825
0.894825
0.894825
0.894825
0.894825
0.894825
0.894825
0.894825
0.894825
0.894825
0.894825
0.894825
0.894825
0.894825
0.894825
0.894825
0.894825
0.894825
0.894825
0.894825
0.894825
0.894825
0.894825
0.894825
0.894825
0.894826
0.894826
0.894828
0.894833
0.894847
0.894891
0.894947
0.895094
0.895575
0.896426
0.898932
0.90226
0.902358
0.896162
0.888817
0.886883
0.886883
0.887171
0.889939
0.892686
0.893745
0.894501
0.894692
0.894728
0.894801
0.894815
0.89482
0.894823
0.894824
0.894825
0.894825
0.894825
0.894825
0.894825
0.894825
0.894825
0.894825
0.894825
0.894825
0.894825
0.894825
0.894825
0.894825
0.894825
0.894825
0.894825
0.894825
0.894825
0.894825
0.894825
0.894825
0.894825
0.894825
0.894825
0.894825
0.894825
0.894825
0.894825
0.894825
0.894825
0.894825
0.894825
0.894825
0.894825
0.894825
0.894825
0.894825
0.894825
0.894825
0.894825
0.894825
0.894825
0.894825
0.894825
0.894825
0.894825
0.894825
0.894825
0.894825
0.894825
0.894825
0.894825
0.894825
0.894825
0.894825
0.894825
0.894825
0.894825
0.894825
0.894825
0.894825
0.894825
0.894825
0.894825
0.894825
0.894825
0.894825
0.894825
0.894825
0.894825
0.894825
0.894826
0.894829
0.894811
0.894811
0.894881
0.894979
0.895121
0.895675
0.896583
0.898666
0.901001
0.901808
0.897208
0.890553
0.887395
0.887395
0.887399
0.889646
0.892941
0.893928
0.894443
0.894682
0.894747
0.894799
0.894812
0.894819
0.894822
0.894824
0.894825
0.894825
0.894825
0.894825
0.894825
0.894825
0.894825
0.894825
0.894825
0.894825
0.894825
0.894825
0.894825
0.894825
0.894825
0.894825
0.894825
0.894825
0.894825
0.894825
0.894825
0.894825
0.894825
0.894825
0.894825
0.894825
0.894825
0.894825
0.894825
0.894825
0.894825
0.894825
0.894825
0.894825
0.894825
0.894825
0.894825
0.894825
0.894825
0.894825
0.894825
0.894825
0.894825
0.894825
0.894825
0.894825
0.894825
0.894825
0.894825
0.894825
0.894825
0.894825
0.894825
0.894825
0.894825
0.894825
0.894825
0.894825
0.894825
0.894825
0.894825
0.894825
0.894825
0.894825
0.894825
0.894825
0.894825
0.894825
0.894825
0.894825
0.894825
0.894825
0.894826
0.894828
0.894832
0.894843
0.894881
0.894961
0.895167
0.895642
0.896771
0.898022
0.89996
0.900653
0.898294
0.892136
0.887637
0.887473
0.887473
0.889575
0.892863
0.893814
0.894447
0.894736
0.894741
0.894797
0.894808
0.89482
0.894823
0.894824
0.894825
0.894825
0.894825
0.894825
0.894825
0.894825
0.894825
0.894825
0.894825
0.894825
0.894825
0.894825
0.894825
0.894825
0.894825
0.894825
0.894825
0.894825
0.894825
0.894825
0.894825
0.894825
0.894825
0.894825
0.894825
0.894825
0.894825
0.894825
0.894825
0.894825
0.894825
0.894825
0.894825
0.894825
0.894825
)
;

boundaryField
{
    sides1
    {
        type            calculated;
        value           uniform 0;
    }
    sides2
    {
        type            calculated;
        value           uniform 0;
    }
    empty
    {
        type            empty;
    }
}


// ************************************************************************* //
