/*--------------------------------*- C++ -*----------------------------------*\
| =========                 |                                                 |
| \\      /  F ield         | OpenFOAM: The Open Source CFD Toolbox           |
|  \\    /   O peration     | Version:  3.0.1                                 |
|   \\  /    A nd           | Web:      www.OpenFOAM.org                      |
|    \\/     M anipulation  |                                                 |
\*---------------------------------------------------------------------------*/
FoamFile
{
    version     2.0;
    format      ascii;
    class       volScalarField;
    location    "5e-05";
    object      T;
}
// * * * * * * * * * * * * * * * * * * * * * * * * * * * * * * * * * * * * * //

dimensions      [0 0 0 1 0 0 0];

internalField   nonuniform List<scalar> 
1000
(
289
289
289
289
289
289
289
289
289
289
289
289
289
289
289
289
289
289
289
289
289
289
289
289
289
289
289
289
289
289
289
289
289
289
289
289
288.999
288.997
288.995
288.994
288.956
288.909
288.794
288.65
288.61
287.339
285.19
283.761
283.893
285.905
290.689
293.544
294.242
293.613
291.458
290.384
289.3
289.185
289.07
289.056
289.03
289.014
289.007
288.999
289
289
289
289
289
289
289
289
289
289
289
289
289
289
289
289
289
289
289
289
289
289
289
289
289
289
289
289
289
289
289
289
289
289
289
289
289
289
289
289
289
289
289
289
289
289
289
289
289
289
289
289
289
289
289
289
289
289
289
289
289
289
289
289
289
289
289
289
289
289
289
289
289
289
288.994
288.996
288.96
288.926
288.85
288.725
288.445
287.777
285.509
283.734
283.366
285.445
290.303
293.171
294.018
293.641
291.694
290.362
289.327
289.204
289.078
289.055
289.029
289.013
289.006
289
289.001
289
289
289
289
289
289
289
289
289
289
289
289
289
289
289
289
289
289
289
289
289
289
289
289
289
289
289
289
289
289
289
289
289
289
289
289
289
289
289
289
289
289
289
289
289
289
289
289
289
289
289
289
289
289
289
289
289
289
289
289
289
289
289
289
289
289
289
289
289
289
289
289
289
288.998
288.995
288.98
288.933
288.868
288.822
288.743
287.823
286.723
284.763
284.274
285.675
288.505
292.762
294.059
293.192
291.395
290.221
289.392
289.267
289.117
289.061
289.03
289.012
289.004
289.001
289.001
289
289
289
289
289
289
289
289
289
289
289
289
289
289
289
289
289
289
289
289
289
289
289
289
289
289
289
289
289
289
289
289
289
289
289
289
289
289
289
289
289
289
289
289
289
289
289
289
289
289
289
289
289
289
289
289
289
289
289
289
289
289
289
289
289
289
289
289
289
289
289
289
289
288.998
288.994
288.991
288.941
288.965
288.568
288.391
287.828
286.998
286.364
284.975
284.838
287.61
291.815
293.721
292.529
290.781
289.893
289.518
289.311
289.136
289.024
289.025
289.009
289.004
289.001
289
289
289
289
289
289
289
289
289
289
289
289
289
289
289
289
289
289
289
289
289
289
289
289
289
289
289
289
289
289
289
289
289
289
289
289
289
289
289
289
289
289
289
289
289
289
289
289
289
289
289
289
289
289
289
289
289
289
289
289
289
289
289
289
289
289
289
289
289
289
289
289
289
288.999
288.997
288.992
288.993
288.955
288.885
288.695
287.899
287.446
286.866
287.142
285.906
285.289
287.439
291.3
293.516
292.248
290.454
289.889
289.399
289.253
289.114
289.03
289.016
289.008
289.002
289.001
289
289
289
289
289
289
289
289
289
289
289
289
289
289
289
289
289
289
289
289
289
289
289
289
289
289
289
289
289
289
289
289
289
289
289
289
289
289
289
289
289
289
289
289
289
289
289
289
289
289
289
289
289
289
289
289
289
289
289
289
289
289
289
289
289
289
289
289
289
289
289
289
289.001
288.996
288.994
288.986
288.978
288.957
288.854
288.692
288.231
287.466
287.104
285.349
284.812
285.234
288.173
291.899
294.01
293.294
291.103
289.513
289.357
289.311
288.939
289.006
289.01
289.006
289.003
289.001
289
289
289
289
289
289
289
289
289
289
289
289
289
289
289
289
289
289
289
289
289
289
289
289
289
289
289
289
289
289
289
289
289
289
289
289
289
289
289
289
289
289
289
289
289
289
289
289
289
289
289
289
289
289
289
289
289
289
289
289
289
289
289
289
289
289
289
289
289
289
289
289
288.999
288.998
288.995
288.99
288.968
288.943
288.89
288.617
288.247
287.472
285.417
284.2
283.623
285.637
289.908
293.32
294.185
293.291
291.657
289.078
289.387
289.11
289.072
289.03
289.009
289.005
289.002
289.001
289
289
289
289
289
289
289
289
289
289
289
289
289
289
289
289
289
289
289
289
289
289
289
289
289
289
289
289
289
289
289
289
289
289
289
289
289
289
289
289
289
289
289
289
289
289
289
289
289
289
289
289
289
289
289
289
289
289
289
289
289
289
289
289
289
289
289
289
289
289
289
289
288.999
288.999
288.996
288.991
288.973
288.935
288.892
288.647
288.258
287.305
285.262
283.944
283.841
286.079
290.615
293.785
294.227
293.062
291.248
289.959
289.539
289.09
289.083
289.033
289.01
289.005
289.002
289.001
289
289
289
289
289
289
289
289
289
289
289
289
289
289
289
289
289
289
289
289
289
289
289
289
289
289
289
289
289
289
289
289
289
289
289
289
289
289
289
289
289
289
289
289
289
289
289
289
289
289
289
289
289
289
289
289
289
289
289
289
289
289
289
289
289
289
289
289
289
289
289
289
289
288.999
288.996
288.996
289.021
288.902
288.899
288.563
288.261
287.122
285.903
284.584
284.296
285.952
289.627
292.981
293.978
293.157
291.306
289.749
289.485
289.122
289.078
289.031
289.012
289.007
289.002
289.001
289
289
289
289
289
289
289
289
289
289
289
289
289
289
289
289
289
289
289
289
289
289
289
289
289
289
289
289
289
289
289
289
289
289
289
289
289
289
289
289
289
289
289
289
289
289
289
289
289
289
289
289
289
289
289
289
289
289
289
289
289
289
289
289
289
289
289
289
289
289
289
289
289
288.998
288.997
288.99
288.982
288.928
288.881
288.572
288.297
287.126
286.743
284.948
285.121
285.882
288.682
292.364
293.946
293.102
291.456
289.755
289.58
289.039
289.076
289.025
289.015
289.007
289.001
289.001
289
289
289
289
289
289
289
289
289
289
289
289
289
289
289
289
289
289
289
289
289
289
289
289
289
289
289
289
289
289
289
289
289
289
289
289
)
;

boundaryField
{
    sides1
    {
        type            zeroGradient;
    }
    sides2
    {
        type            slip;
    }
    empty
    {
        type            empty;
    }
}


// ************************************************************************* //
