/*--------------------------------*- C++ -*----------------------------------*\
| =========                 |                                                 |
| \\      /  F ield         | OpenFOAM: The Open Source CFD Toolbox           |
|  \\    /   O peration     | Version:  3.0.1                                 |
|   \\  /    A nd           | Web:      www.OpenFOAM.org                      |
|    \\/     M anipulation  |                                                 |
\*---------------------------------------------------------------------------*/
FoamFile
{
    version     2.0;
    format      ascii;
    class       volVectorField;
    location    "5e-05";
    object      U;
}
// * * * * * * * * * * * * * * * * * * * * * * * * * * * * * * * * * * * * * //

dimensions      [0 1 -1 0 0 0 0];

internalField   nonuniform List<vector> 
1000
(
(-8.36928e-06 -4.18745e-06 0)
(-8.8827e-06 -1.77466e-06 0)
(-1.03074e-05 -2.14144e-06 0)
(-5.37791e-06 -6.11527e-06 0)
(-2.18012e-06 -6.0117e-06 0)
(4.57198e-06 -6.12184e-06 0)
(-8.5672e-07 -1.31865e-05 0)
(-6.5896e-06 -2.28787e-05 0)
(-1.07503e-05 -1.07368e-05 0)
(-1.31722e-05 -4.50379e-06 0)
(1.51459e-06 -1.08988e-06 0)
(3.61312e-06 -4.1029e-06 0)
(-2.70809e-06 -3.08943e-06 0)
(2.6618e-07 5.08045e-07 0)
(3.21813e-06 3.06342e-06 0)
(1.85262e-06 5.19293e-06 0)
(9.03757e-06 1.32666e-06 0)
(1.21765e-05 -1.00954e-06 0)
(1.58614e-06 -2.05647e-06 0)
(-7.38486e-06 -9.0032e-07 0)
(3.02615e-06 -2.46651e-06 0)
(2.79957e-05 -1.41236e-05 0)
(2.82787e-05 -3.25812e-05 0)
(1.639e-06 -5.12501e-05 0)
(-3.9113e-05 -8.16973e-05 0)
(2.75378e-06 -0.000124706 0)
(2.55996e-05 -0.000131694 0)
(3.74307e-05 -0.00011846 0)
(-3.3248e-05 -3.80253e-05 0)
(7.28119e-06 5.0252e-06 0)
(2.28881e-05 9.54734e-05 0)
(2.11069e-06 0.000123638 0)
(0.000186315 0.000141771 0)
(0.000576675 0.000165314 0)
(0.00138982 -0.000319291 0)
(0.00343357 -0.000423272 0)
(0.00982305 -0.000734447 0)
(0.0233645 -0.00171734 0)
(0.0557186 -0.00160143 0)
(0.146413 -0.00606991 0)
(0.327281 -0.0104028 0)
(0.647357 -0.0320385 0)
(1.39382 -0.0675255 0)
(2.70335 -0.123945 0)
(5.32188 -0.0512162 0)
(9.72397 0.0591573 0)
(11.7758 -0.113454 0)
(14.5529 -0.294052 0)
(16.5273 -0.108336 0)
(15.7437 0.634476 0)
(15.5765 0.440671 0)
(15.7673 0.250743 0)
(15.3156 0.18437 0)
(13.7731 0.0878319 0)
(10.6322 0.236703 0)
(6.45841 0.0539361 0)
(3.62964 -0.00512451 0)
(1.59372 -0.0192692 0)
(0.772708 -0.00762339 0)
(0.325765 0.00644363 0)
(0.147642 0.00381934 0)
(0.0695563 0.000516753 0)
(0.0366628 0.000557081 0)
(0.0151852 0.000352957 0)
(0.00603317 0.000128217 0)
(0.00281873 4.60986e-05 0)
(0.00122434 1.39636e-05 0)
(0.000499946 3.16792e-06 0)
(0.000197157 2.49304e-06 0)
(7.99874e-05 1.79643e-06 0)
(3.08689e-05 6.44713e-07 0)
(1.22706e-05 2.16443e-07 0)
(4.84945e-06 2.88828e-07 0)
(1.559e-06 1.3516e-07 0)
(4.68791e-07 5.35904e-08 0)
(2.06775e-07 1.73719e-08 0)
(1.03862e-07 8.73825e-09 0)
(5.04992e-08 3.37181e-09 0)
(2.1964e-08 1.30498e-09 0)
(8.07488e-09 2.58082e-10 0)
(3.37681e-09 -2.36848e-10 0)
(6.56145e-10 -3.84386e-10 0)
(-2.36958e-11 -4.87085e-10 0)
(-9.46273e-11 -5.56907e-10 0)
(7.24601e-12 -7.61643e-10 0)
(-2.35681e-10 -8.09018e-10 0)
(-4.34779e-10 -8.96656e-10 0)
(-1.83233e-09 -6.78393e-10 0)
(-2.56241e-09 -7.9809e-10 0)
(-4.69563e-09 -1.37498e-09 0)
(-6.44982e-09 -3.67178e-09 0)
(-5.02386e-09 -4.66138e-09 0)
(-1.03147e-09 -5.20653e-09 0)
(5.85097e-09 -4.7978e-09 0)
(6.22461e-09 -4.71483e-09 0)
(7.4613e-09 1.25279e-10 0)
(-2.71417e-09 1.7549e-09 0)
(4.21108e-09 -3.78466e-09 0)
(2.85348e-10 -9.67942e-10 0)
(-1.61478e-09 -1.19627e-09 0)
(-2.09263e-06 -6.35012e-06 0)
(-4.90172e-06 -4.73379e-06 0)
(-6.11124e-06 -3.98492e-06 0)
(-7.65577e-06 -3.45362e-06 0)
(-8.22383e-06 -2.61008e-06 0)
(-7.80479e-06 -3.17232e-06 0)
(-1.97551e-06 -2.26476e-06 0)
(-3.78902e-06 -5.43433e-06 0)
(-4.88468e-06 -1.37569e-08 0)
(1.2016e-06 2.89386e-06 0)
(5.82488e-06 1.91818e-06 0)
(4.05928e-06 2.35025e-07 0)
(4.77156e-06 -1.43447e-07 0)
(5.50862e-06 5.32614e-07 0)
(9.30944e-06 -1.73527e-06 0)
(-1.77426e-06 5.53365e-07 0)
(2.75516e-06 -1.39646e-07 0)
(8.56627e-06 -4.76894e-08 0)
(-4.97331e-06 -5.70124e-06 0)
(-9.3253e-06 -7.28031e-06 0)
(-2.5763e-06 -7.06135e-06 0)
(-1.53692e-06 -1.66228e-05 0)
(-5.55832e-05 -3.87297e-05 0)
(-5.90989e-05 -3.95772e-05 0)
(-7.18879e-05 -2.77074e-05 0)
(-3.41523e-05 -3.19918e-05 0)
(1.24655e-05 -1.88042e-05 0)
(3.51876e-05 -4.03251e-06 0)
(6.39096e-05 -2.97952e-06 0)
(0.000118982 7.20723e-06 0)
(9.74871e-05 3.38153e-05 0)
(2.98519e-05 4.57612e-05 0)
(-0.000107323 8.7545e-06 0)
(6.24392e-06 -0.000105032 0)
(0.000251835 -0.000239657 0)
(0.00157057 -0.000623972 0)
(0.0057566 -0.00182913 0)
(0.0172918 -0.00331779 0)
(0.0455398 -0.00832115 0)
(0.103133 -0.0247681 0)
(0.235318 -0.0590922 0)
(0.482647 -0.119838 0)
(1.08053 -0.238087 0)
(2.25566 -0.371093 0)
(4.3393 -0.206192 0)
(8.74904 -0.331661 0)
(12.4619 -0.379669 0)
(13.57 -0.573609 0)
(16.2112 0.350563 0)
(15.9315 -0.217148 0)
(15.8707 0.343274 0)
(16.1498 0.152189 0)
(14.4566 0.381578 0)
(12.8519 0.335916 0)
(9.86613 0.282895 0)
(5.63482 0.200889 0)
(3.66798 0.106231 0)
(1.3945 -0.0145007 0)
(0.753029 -0.032679 0)
(0.273684 -0.000663932 0)
(0.148246 0.0027792 0)
(0.0581235 0.000583613 0)
(0.0293842 0.000784828 0)
(0.0119726 0.000187398 0)
(0.00653117 0.00012037 0)
(0.00230575 2.81744e-05 0)
(0.00133681 7.47369e-06 0)
(0.000430536 -1.533e-06 0)
(0.000168539 1.46046e-06 0)
(6.3874e-05 9.1624e-07 0)
(2.4168e-05 9.65052e-07 0)
(1.07154e-05 2.46477e-07 0)
(3.68782e-06 1.88755e-07 0)
(2.11532e-06 1.56171e-07 0)
(6.11384e-07 6.52376e-08 0)
(2.51416e-07 3.20432e-08 0)
(1.00146e-07 1.9794e-08 0)
(3.77681e-08 1.38263e-08 0)
(1.37582e-08 5.08573e-09 0)
(2.97895e-09 -1.00397e-10 0)
(-5.8858e-10 -3.8703e-09 0)
(-2.02615e-09 -6.41055e-09 0)
(-2.6591e-09 -1.04161e-08 0)
(-5.53717e-10 -1.07535e-08 0)
(-6.85523e-10 -8.62608e-09 0)
(-6.04686e-10 -9.86297e-09 0)
(-1.8293e-11 -1.09021e-08 0)
(-3.76491e-09 -1.09909e-08 0)
(-1.26616e-08 -1.71074e-08 0)
(-2.13385e-08 -2.48988e-08 0)
(-2.2967e-08 -3.34803e-08 0)
(-2.25235e-08 -5.95658e-08 0)
(-3.15817e-09 -5.61532e-08 0)
(7.45643e-09 -6.41129e-08 0)
(1.9618e-08 -5.96011e-08 0)
(1.31228e-08 -9.2954e-08 0)
(-1.05146e-08 -1.20606e-07 0)
(1.49104e-08 -1.3197e-07 0)
(9.30935e-09 -7.07172e-08 0)
(1.3824e-09 -6.3586e-08 0)
(-1.81e-06 -6.00221e-06 0)
(-3.53348e-06 -5.33259e-06 0)
(-5.14049e-06 -4.80858e-06 0)
(-5.33925e-06 -3.01461e-06 0)
(-3.50414e-06 -7.34778e-07 0)
(4.56421e-06 -9.1399e-07 0)
(1.10896e-05 3.23056e-06 0)
(5.2196e-06 8.99636e-06 0)
(-3.79061e-06 8.45271e-06 0)
(-4.38172e-06 8.02409e-06 0)
(-6.74857e-06 5.93735e-06 0)
(-5.71867e-06 2.31262e-06 0)
(2.44085e-06 6.07207e-07 0)
(4.23092e-06 -1.08509e-06 0)
(2.98788e-06 -2.75879e-06 0)
(-4.67701e-07 -3.57198e-06 0)
(-2.38483e-06 -3.03083e-06 0)
(-3.18885e-06 -2.66518e-06 0)
(-5.1417e-06 -3.7918e-06 0)
(-6.1996e-06 -7.65176e-07 0)
(-7.72852e-06 2.48277e-06 0)
(-1.15562e-05 4.75233e-06 0)
(-4.5939e-06 1.77304e-05 0)
(-5.88166e-05 2.23795e-05 0)
(-4.80943e-05 3.72513e-05 0)
(-4.08425e-05 4.52306e-05 0)
(-4.03473e-05 6.53184e-05 0)
(-2.42166e-05 6.47512e-05 0)
(-2.32528e-05 2.39712e-05 0)
(4.45836e-05 -1.47943e-05 0)
(0.000103479 -5.97674e-05 0)
(5.52165e-05 -8.43817e-05 0)
(6.79036e-05 -9.8371e-05 0)
(-3.66026e-05 -6.31512e-05 0)
(3.10099e-05 -7.11235e-05 0)
(0.0005257 -0.000241212 0)
(0.00416208 -0.0010875 0)
(0.0135561 -0.00509551 0)
(0.0302859 -0.0115742 0)
(0.0813174 -0.0100337 0)
(0.141919 -0.0442467 0)
(0.278082 -0.0339622 0)
(0.635496 -0.00191957 0)
(1.923 -0.0862771 0)
(3.75414 -0.167999 0)
(7.83416 -0.29285 0)
(11.7075 -0.467456 0)
(14.2386 -1.12392 0)
(15.353 -1.45269 0)
(16.3498 1.6904 0)
(15.924 1.37576 0)
(14.9121 0.81195 0)
(14.2059 0.672333 0)
(12.6974 0.639823 0)
(9.83849 0.480641 0)
(5.50019 0.227556 0)
(3.37985 0.223013 0)
(1.29457 0.017957 0)
(0.798983 -0.0165845 0)
(0.297512 0.0035653 0)
(0.172967 -0.00214539 0)
(0.0588572 0.00160256 0)
(0.0308316 0.00047307 0)
(0.0122077 -0.000357429 0)
(0.00743522 1.00338e-05 0)
(0.00247716 -4.37205e-06 0)
(0.00145767 1.66894e-05 0)
(0.000485041 3.16655e-06 0)
(0.000182255 2.43559e-06 0)
(6.93813e-05 2.11362e-07 0)
(2.63523e-05 -4.15657e-08 0)
(1.05248e-05 8.24336e-08 0)
(3.87395e-06 -1.52824e-07 0)
(1.5124e-06 -3.41662e-08 0)
(5.11658e-07 2.48918e-08 0)
(1.76677e-07 1.76808e-08 0)
(5.26636e-08 1.1259e-08 0)
(1.17013e-08 3.83483e-09 0)
(-5.66065e-10 2.57421e-09 0)
(-4.84388e-09 -1.56752e-09 0)
(-1.35225e-08 -1.19055e-08 0)
(-1.81907e-08 -2.57238e-08 0)
(-1.36679e-08 -4.15696e-08 0)
(-1.19799e-08 -4.05535e-08 0)
(-1.76959e-09 -4.67485e-08 0)
(-1.88449e-10 -3.98559e-08 0)
(-9.71374e-10 -3.97597e-08 0)
(-3.2818e-09 -4.41515e-08 0)
(-2.69025e-08 -4.78484e-08 0)
(-4.6789e-08 -6.62172e-08 0)
(-1.04448e-07 -1.31805e-07 0)
(-1.23476e-07 -1.72318e-07 0)
(-7.30163e-08 -2.94e-07 0)
(-1.08083e-08 -2.68129e-07 0)
(-4.64716e-08 -2.9674e-07 0)
(-2.02562e-07 -5.53777e-07 0)
(2.45968e-08 -7.25329e-07 0)
(9.06686e-08 -6.46344e-07 0)
(1.7985e-07 -5.09159e-07 0)
(7.40733e-08 -3.70648e-07 0)
(-9.34816e-07 -3.56672e-06 0)
(-4.10821e-06 -3.17062e-06 0)
(-5.45095e-06 -4.74686e-06 0)
(-5.7767e-06 -7.47638e-07 0)
(-4.71285e-06 -4.43162e-07 0)
(3.43473e-06 1.58955e-06 0)
(1.45083e-05 3.03843e-06 0)
(1.35591e-05 4.40259e-06 0)
(2.15547e-06 6.17604e-06 0)
(-3.21531e-06 7.90822e-06 0)
(-6.16821e-06 7.18613e-06 0)
(-6.26612e-06 1.41892e-06 0)
(-2.31125e-06 9.60423e-07 0)
(-3.43686e-07 -2.2293e-06 0)
(3.74428e-07 -3.37137e-06 0)
(-9.72917e-08 -3.54392e-06 0)
(-2.00287e-07 -1.95639e-06 0)
(-8.23052e-07 -1.32997e-06 0)
(2.88031e-06 7.05402e-07 0)
(3.98879e-06 3.7885e-06 0)
(-1.08164e-06 9.99962e-06 0)
(1.93195e-06 2.09183e-05 0)
(1.45322e-06 2.28916e-05 0)
(-6.0757e-06 2.58918e-05 0)
(-3.05628e-05 2.89845e-05 0)
(-7.73269e-06 2.73418e-05 0)
(-3.47692e-05 5.96155e-05 0)
(2.16823e-06 4.663e-05 0)
(-1.82732e-05 1.43188e-05 0)
(2.18382e-05 6.57627e-07 0)
(-9.52401e-06 -2.18445e-05 0)
(-1.71594e-05 -6.23215e-05 0)
(-5.66839e-05 -1.50334e-05 0)
(-4.73685e-05 -5.43967e-05 0)
(2.6749e-05 -8.23754e-05 0)
(0.000466426 0.000250476 0)
(0.00176526 0.000472106 0)
(0.00361694 -0.00084776 0)
(0.0147119 -0.00081395 0)
(0.0498381 0.00133556 0)
(0.135 0.0101567 0)
(0.371265 0.00384411 0)
(0.933197 0.12122 0)
(1.84256 0.158206 0)
(3.72655 0.180536 0)
(6.94815 0.013801 0)
(11.7991 -0.312355 0)
(15.4589 -1.26662 0)
(15.4104 -0.981705 0)
(15.8801 2.06635 0)
(16.0406 1.41452 0)
(16.0948 0.645475 0)
(13.8188 0.397707 0)
(12.1764 0.561687 0)
(8.97153 0.438972 0)
(5.58604 0.209584 0)
(2.93461 0.0601562 0)
(1.19718 0.0817394 0)
(0.669407 0.0268019 0)
(0.329959 0.0163666 0)
(0.143779 0.00210395 0)
(0.062278 0.00248861 0)
(0.0321186 0.00252471 0)
(0.0149317 0.000338774 0)
(0.00681094 0.000196109 0)
(0.0027543 0.00011916 0)
(0.00126978 8.4192e-05 0)
(0.000478802 4.21906e-05 0)
(0.000200212 1.3214e-05 0)
(7.6907e-05 3.48246e-06 0)
(3.07767e-05 4.79985e-07 0)
(1.16278e-05 2.12731e-07 0)
(4.41653e-06 7.55816e-08 0)
(1.54013e-06 3.4243e-08 0)
(5.23804e-07 9.11761e-09 0)
(1.56019e-07 4.98705e-09 0)
(7.18178e-08 4.25053e-09 0)
(2.33209e-08 4.24046e-09 0)
(-1.18589e-09 4.18422e-09 0)
(-1.72433e-08 5.5923e-10 0)
(-4.674e-08 -6.93334e-09 0)
(-7.25216e-08 -4.42004e-08 0)
(-8.86071e-08 -9.58752e-08 0)
(-7.16487e-08 -1.70669e-07 0)
(-3.6887e-08 -2.01317e-07 0)
(-1.31332e-09 -2.22032e-07 0)
(1.69683e-08 -1.97797e-07 0)
(3.10622e-08 -1.50689e-07 0)
(2.86646e-09 -1.34659e-07 0)
(-1.20522e-07 -9.95283e-08 0)
(-2.61634e-07 -1.80586e-07 0)
(-2.91289e-07 -4.39534e-07 0)
(-5.97651e-07 -4.16218e-07 0)
(-2.92315e-07 -7.7579e-07 0)
(-4.41316e-07 -8.21834e-07 0)
(-5.49615e-07 -1.29878e-06 0)
(5.92439e-07 -1.99934e-06 0)
(1.10336e-06 -1.80197e-06 0)
(9.90347e-07 -1.12432e-06 0)
(4.44687e-07 -8.55271e-07 0)
(-1.46579e-06 7.21296e-07 0)
(-2.0055e-06 1.12309e-06 0)
(-8.51126e-07 4.48921e-06 0)
(-7.28683e-07 6.322e-06 0)
(3.93441e-06 5.75848e-06 0)
(8.68665e-06 7.28956e-06 0)
(9.98537e-06 4.78789e-06 0)
(6.10574e-06 -6.1308e-07 0)
(-3.04979e-06 -4.59862e-06 0)
(-8.04976e-06 1.30274e-06 0)
(-9.07501e-06 9.80025e-07 0)
(-1.00182e-05 -4.80735e-07 0)
(-7.38875e-06 -2.55169e-06 0)
(-3.35716e-06 -2.03099e-06 1.28822e-31)
(7.33961e-07 -9.34512e-07 0)
(3.14606e-06 2.5882e-06 0)
(4.02706e-07 3.31384e-06 0)
(1.64117e-06 4.36546e-06 0)
(1.91569e-06 7.11131e-06 0)
(1.29193e-05 1.05301e-05 0)
(2.39095e-05 1.92212e-05 0)
(3.03501e-05 2.78796e-05 0)
(1.88627e-05 5.5276e-05 0)
(1.95252e-05 1.50856e-05 0)
(4.13412e-05 -2.28028e-05 0)
(3.43668e-05 -2.03259e-05 0)
(2.51998e-05 -2.91836e-05 0)
(-3.84343e-06 -2.60379e-05 0)
(-1.24998e-05 -3.0733e-05 0)
(-1.51432e-05 -3.97892e-05 0)
(-9.68472e-06 -3.4755e-05 0)
(1.78628e-05 -2.12265e-05 1.1813e-31)
(2.13382e-05 4.81715e-05 0)
(9.26992e-05 0.00017024 0)
(0.000538475 0.000437688 0)
(0.00143402 0.00102348 0)
(0.00538459 0.00194916 -2.56106e-31)
(0.0120789 0.00620178 0)
(0.0286307 0.00954767 0)
(0.0719354 0.0120782 1.42971e-31)
(0.206723 -0.00630546 0)
(0.460851 0.0256343 0)
(1.14928 0.038041 0)
(2.09531 0.0333072 -1.52546e-31)
(4.38981 0.190144 0)
(7.77193 0.168584 0)
(12.8597 0.0138206 0)
(16.3329 0.386267 0)
(16.2973 -0.0677192 0)
(16.0099 -0.510282 0)
(16.3987 -0.353606 0)
(16.6223 0.293052 0)
(13.9025 -0.372379 0)
(12.6374 -0.398849 0)
(8.86605 -0.0055477 0)
(5.63446 0.112126 -8.54042e-32)
(3.07675 0.0335362 1.02064e-31)
(1.15974 0.0102193 0)
(0.720276 0.0494286 0)
(0.344203 0.0141349 -8.96393e-32)
(0.163188 0.00747843 0)
(0.0670086 0.00423968 0)
(0.0305953 0.00306735 0)
(0.0134913 0.00180425 0)
(0.00642464 0.000958194 0)
(0.00263123 0.000397806 0)
(0.00122586 0.000138694 0)
(0.000488365 6.49215e-05 0)
(0.000192743 2.01577e-05 0)
(7.93903e-05 7.43216e-06 0)
(2.97159e-05 3.22987e-06 0)
(1.14087e-05 1.3538e-06 9.83042e-32)
(3.91811e-06 4.96196e-07 0)
(1.42474e-06 2.01234e-07 0)
(5.21668e-07 5.87337e-08 0)
(1.77415e-07 1.99121e-08 0)
(8.73921e-08 2.78339e-08 0)
(3.71133e-08 3.79449e-08 0)
(3.44199e-09 5.61754e-08 0)
(-1.31774e-08 9.40713e-08 0)
(-1.39265e-07 6.02362e-08 0)
(-2.01242e-07 4.45592e-10 0)
(-3.01867e-07 -3.40233e-08 0)
(-2.8076e-07 -2.96728e-07 0)
(-1.85278e-07 -4.00592e-07 0)
(-1.39684e-08 -4.78619e-07 0)
(1.93566e-07 -4.88736e-07 0)
(2.18691e-07 -3.90371e-07 0)
(1.5718e-07 -2.42689e-07 0)
(-4.88919e-08 -1.13774e-07 0)
(-3.23777e-07 -4.00367e-08 0)
(-9.2649e-07 -1.37502e-07 -6.42117e-32)
(-1.11703e-06 -3.45521e-07 0)
(-2.58431e-07 -4.95496e-07 -6.21461e-32)
(-4.71308e-07 -5.8215e-07 0)
(-2.37487e-06 -9.75732e-07 0)
(2.23239e-07 -2.48026e-06 0)
(1.41128e-06 -2.6971e-06 0)
(2.60467e-06 -1.56715e-06 0)
(2.63251e-08 -1.32279e-06 0)
(-4.33065e-07 -2.23877e-07 0)
(-6.30997e-07 -4.92496e-07 0)
(-1.82914e-08 -1.67682e-06 0)
(2.24135e-06 -4.84891e-06 0)
(5.45418e-06 -9.39247e-07 0)
(4.74116e-06 -4.64973e-07 0)
(-4.30668e-06 -8.12431e-06 0)
(-2.95975e-06 -1.32401e-05 0)
(-2.98561e-06 -1.44801e-05 0)
(9.56572e-06 -1.11863e-05 0)
(-1.79488e-06 -4.27913e-06 0)
(-7.85487e-06 -5.91804e-07 0)
(-6.2273e-06 1.40882e-06 0)
(-1.61608e-07 4.27817e-07 -9.16427e-32)
(3.47291e-06 6.95355e-07 0)
(4.75679e-06 1.74376e-06 0)
(3.52945e-06 1.72832e-06 0)
(2.62487e-06 -1.53787e-06 0)
(6.63867e-06 -7.99455e-06 0)
(1.53253e-05 -1.48267e-05 0)
(3.90806e-05 -3.51239e-05 0)
(2.14576e-05 -4.64117e-05 0)
(2.1829e-06 -7.79356e-05 0)
(-2.49175e-05 -4.93645e-05 0)
(-9.87377e-06 -7.47886e-05 0)
(2.01526e-05 -6.70158e-05 0)
(3.03374e-05 -6.04714e-05 0)
(4.68481e-05 -5.39508e-05 0)
(1.13113e-05 -7.78059e-06 0)
(1.76355e-05 -7.13476e-06 0)
(2.39365e-05 -1.12843e-05 0)
(4.87883e-05 -3.10712e-06 -1.04339e-31)
(0.000188942 1.45961e-05 0)
(0.000513713 6.04499e-05 0)
(0.00103478 0.000140504 0)
(0.00217594 0.000219892 0)
(0.00809211 0.000392118 2.04511e-31)
(0.0162807 0.00116209 0)
(0.0405304 0.00110408 0)
(0.0809131 0.00444802 -1.63522e-31)
(0.208807 -0.00135627 0)
(0.474116 -0.00325659 0)
(1.07675 -0.022324 0)
(2.31526 0.0171575 1.60368e-31)
(4.52685 -0.0115541 0)
(8.91205 0.258192 0)
(12.787 0.765509 0)
(15.7118 1.62857 0)
(16.3423 0.938635 0)
(16.8564 -1.06235 0)
(16.9638 -1.17913 0)
(15.3496 -0.796668 0)
(14.7426 -0.738509 0)
(12.5979 -0.49621 0)
(9.94204 -0.481508 0)
(6.76875 0.0404111 1.00026e-31)
(2.76293 0.0432566 -8.52583e-32)
(1.70936 0.0027933 0)
(0.863535 0.00389952 0)
(0.28411 0.0201212 7.92833e-32)
(0.156327 0.0177631 0)
(0.0608499 0.0081109 0)
(0.0266685 0.00282993 0)
(0.0113316 0.00143149 0)
(0.00450649 0.000643173 0)
(0.0020899 0.000353768 0)
(0.000827982 0.000142984 0)
(0.000352124 6.36992e-05 0)
(0.000141431 2.8228e-05 0)
(5.69793e-05 1.35336e-05 0)
(2.00924e-05 5.12805e-06 0)
(8.00083e-06 1.99871e-06 -1.02469e-31)
(3.10728e-06 7.27225e-07 0)
(1.1022e-06 2.32006e-07 0)
(4.47727e-07 1.09049e-07 0)
(1.76269e-07 5.9346e-08 0)
(1.1561e-07 6.92444e-08 0)
(1.25134e-07 1.22172e-07 0)
(1.76975e-07 2.44954e-07 0)
(9.33542e-08 4.22553e-07 0)
(-1.72817e-08 6.05882e-07 0)
(-3.72941e-07 8.07143e-07 0)
(-9.59728e-07 -2.31048e-07 0)
(-9.10387e-07 -3.34632e-07 0)
(-3.33622e-07 -6.62817e-07 0)
(-4.61776e-08 -1.01054e-06 0)
(1.127e-07 -1.05924e-06 0)
(4.92777e-07 -6.3593e-07 0)
(4.00075e-07 -3.04267e-07 0)
(1.99827e-07 -2.08237e-07 0)
(-6.96375e-08 2.85274e-08 0)
(-4.33077e-07 1.47829e-07 6.73894e-32)
(-5.23231e-07 3.94776e-07 0)
(9.0137e-08 6.71444e-07 4.89551e-32)
(-1.47136e-06 5.0209e-07 0)
(-2.44121e-06 -5.77646e-08 0)
(-1.05013e-06 -4.68055e-07 0)
(1.61826e-06 -7.739e-07 0)
(2.21387e-06 -5.86731e-07 0)
(6.38705e-07 -6.33485e-07 0)
(-1.95865e-06 -3.78579e-07 0)
(-2.15125e-06 -5.35771e-07 0)
(-1.32137e-06 -1.07141e-06 0)
(1.91195e-06 -7.77549e-07 0)
(7.04219e-06 -1.17423e-06 0)
(4.26529e-06 -2.29211e-07 0)
(-9.5098e-06 2.60372e-06 0)
(-5.72613e-06 7.02705e-06 0)
(1.32107e-06 5.47779e-06 0)
(1.07282e-05 6.91265e-06 0)
(1.283e-05 3.53269e-06 0)
(-3.74632e-06 2.7733e-06 0)
(-7.39056e-06 2.59561e-06 0)
(-6.18436e-06 1.90361e-06 0)
(-1.55368e-07 4.86086e-06 0)
(-2.57188e-06 -9.11178e-06 0)
(-6.89229e-06 -6.17292e-06 0)
(-9.09165e-06 -9.66677e-06 0)
(-1.2425e-05 -1.99945e-05 0)
(-2.26019e-05 -3.44017e-05 0)
(-5.1481e-05 -3.12625e-05 0)
(-6.31832e-05 -2.79015e-05 0)
(-5.82787e-05 5.58748e-06 0)
(-3.19423e-06 2.05594e-05 0)
(2.61022e-05 5.43797e-05 0)
(5.97567e-05 6.23664e-05 0)
(2.81707e-05 4.39808e-05 0)
(5.4242e-05 6.99489e-05 0)
(2.71183e-05 3.50659e-05 0)
(1.50356e-05 4.59413e-06 0)
(1.17355e-05 -5.21926e-06 0)
(1.33879e-05 -8.79417e-06 0)
(5.22237e-05 -1.4512e-05 0)
(0.000278441 -1.83847e-05 0)
(0.0011466 5.8063e-05 0)
(0.00226406 2.57054e-05 0)
(0.00618576 0.000501696 0)
(0.0163166 -0.000120234 0)
(0.0342141 0.00158489 0)
(0.0852224 0.00143573 0)
(0.195241 0.00413599 0)
(0.431054 0.00139264 0)
(0.918321 -0.00113999 0)
(2.35424 0.00753545 0)
(4.16064 0.0173219 0)
(8.99568 0.319501 0)
(11.4678 0.624083 0)
(14.9 0.72806 0)
(16.2086 0.541227 0)
(16.54 -1.67722 0)
(15.6052 -1.05567 0)
(15.6333 -1.11998 0)
(14.5541 -0.185706 0)
(13.4371 -0.12943 0)
(10.3192 -0.124817 0)
(6.81244 -0.192616 0)
(2.77206 -0.0860817 0)
(1.73894 0.0334831 0)
(0.663552 -0.00694636 0)
(0.296754 0.00955159 0)
(0.12363 0.00170128 0)
(0.0538564 0.00116464 0)
(0.0248881 0.000661296 0)
(0.00975102 0.000265727 0)
(0.00411189 0.000190475 0)
(0.00172592 8.67327e-05 0)
(0.000648479 6.38917e-05 0)
(0.000268496 2.48208e-05 0)
(0.000105666 1.36262e-05 0)
(3.85416e-05 6.4784e-06 0)
(1.38019e-05 2.42446e-06 0)
(5.58451e-06 1.30038e-06 0)
(2.01219e-06 4.9623e-07 0)
(7.7949e-07 1.91261e-07 0)
(2.99233e-07 9.84722e-08 0)
(1.65654e-07 6.55835e-08 0)
(2.1231e-07 9.87808e-08 0)
(3.75952e-07 2.02547e-07 0)
(6.27618e-07 4.67405e-07 0)
(1.04034e-06 1.03102e-06 0)
(6.75527e-07 2.26357e-06 0)
(-6.07293e-07 2.9846e-06 0)
(1.74274e-06 4.18058e-06 0)
(-1.46481e-06 3.51662e-06 0)
(-1.75755e-06 2.74113e-06 0)
(-1.28539e-06 1.07423e-06 0)
(1.41137e-08 2.24595e-06 0)
(1.25954e-07 -1.64199e-06 0)
(7.64052e-07 -9.49068e-07 0)
(8.03415e-07 -4.85959e-07 0)
(3.57829e-07 -1.75266e-07 0)
(-1.56044e-07 -3.78341e-09 0)
(-5.41644e-07 5.41019e-07 0)
(-1.28955e-07 8.11121e-07 0)
(-1.04238e-06 6.20507e-07 0)
(-2.73849e-06 7.59937e-07 0)
(-3.58469e-06 1.26768e-06 0)
(1.36847e-06 7.45069e-07 0)
(2.18469e-06 7.0067e-07 0)
(-3.83786e-07 -7.49538e-08 0)
(-1.07421e-06 -2.53095e-07 0)
(-1.15366e-06 4.00433e-07 0)
(3.04501e-07 1.10789e-06 0)
(3.41361e-06 3.5478e-06 0)
(5.47978e-06 4.39957e-06 0)
(6.69265e-06 -6.83651e-07 0)
(1.40811e-06 2.64453e-06 0)
(-1.84011e-06 7.78989e-06 0)
(1.63693e-06 7.89043e-06 0)
(7.02041e-06 8.80748e-06 0)
(9.31014e-07 2.60581e-06 0)
(-2.74481e-06 -1.5852e-06 0)
(1.32574e-06 -7.38349e-07 0)
(3.1054e-06 -3.0518e-07 0)
(-1.34992e-07 -1.66904e-06 0)
(-1.0689e-06 -4.28204e-06 0)
(-8.33908e-06 -5.58143e-06 0)
(-2.60614e-05 -1.15993e-05 0)
(-4.74799e-05 -1.68804e-05 0)
(-2.66787e-05 -4.44539e-05 0)
(-2.99839e-05 -3.86681e-05 0)
(2.53795e-06 -5.49943e-05 0)
(6.36841e-05 -6.13572e-05 0)
(7.11922e-05 -2.27875e-05 0)
(4.18131e-05 5.89017e-06 0)
(-7.71795e-05 1.55774e-05 0)
(-6.10766e-05 -4.42784e-06 0)
(-6.1389e-05 -2.09748e-06 0)
(-2.04225e-05 5.86432e-05 0)
(-2.50814e-05 1.70278e-05 0)
(1.60725e-05 1.10813e-05 0)
(6.88629e-05 1.02061e-05 0)
(9.08943e-05 -2.24313e-05 0)
(0.000359101 -1.23001e-05 0)
(0.00131301 -5.72001e-05 0)
(0.00276256 -7.09966e-05 0)
(0.00685313 -0.000173446 0)
(0.0183716 0.000142414 0)
(0.0408246 0.00159077 0)
(0.123854 -0.00243089 0)
(0.194395 0.00163248 0)
(0.542764 0.0482967 0)
(1.14284 0.0417852 0)
(2.46928 0.038882 0)
(4.28248 0.000249865 0)
(8.32608 0.149937 0)
(11.6856 0.14495 0)
(14.2665 -0.166696 0)
(15.7343 -0.35069 0)
(16.1245 0.112495 0)
(15.7161 -0.0698979 0)
(15.3168 -0.0217586 0)
(15.2269 -0.100025 0)
(13.5609 -0.0165966 0)
(10.4644 0.0913435 0)
(5.90715 -0.132339 0)
(3.13215 -0.0537111 0)
(1.44142 -0.00325019 0)
(0.645749 0.0305535 0)
(0.325704 0.00689747 0)
(0.125773 -0.00308457 0)
(0.0610459 -0.00234777 0)
(0.0246632 -0.000790621 0)
(0.0105411 -0.000185272 0)
(0.00430207 9.30014e-05 0)
(0.00161672 2.38093e-05 0)
(0.000636297 1.94945e-05 0)
(0.00023736 1.04979e-05 0)
(8.87879e-05 5.25945e-06 0)
(3.20103e-05 1.26744e-06 0)
(1.04609e-05 5.29939e-07 0)
(3.62126e-06 1.78438e-07 0)
(1.28832e-06 9.06936e-08 0)
(5.63488e-07 6.65205e-08 0)
(2.09946e-07 2.23719e-08 0)
(1.82067e-07 3.66282e-08 0)
(3.15656e-07 6.83888e-08 0)
(6.31334e-07 1.65977e-07 0)
(1.41393e-06 4.057e-07 0)
(2.70048e-06 7.90707e-07 0)
(2.59892e-06 1.38339e-06 0)
(6.74426e-06 2.56344e-06 0)
(2.53107e-06 1.78234e-06 0)
(-7.59467e-06 -2.53903e-06 0)
(-1.05425e-05 -5.54254e-06 0)
(-1.93561e-06 -7.62112e-06 0)
(-2.1995e-06 -7.26876e-06 0)
(2.7346e-06 -3.46343e-06 0)
(2.44192e-06 -2.51873e-06 0)
(2.09984e-06 -1.14963e-06 0)
(1.03838e-06 -5.58463e-07 0)
(2.66708e-07 -2.54059e-07 0)
(-4.5703e-07 -8.20776e-08 0)
(-1.91809e-07 6.7508e-07 0)
(-9.37403e-07 -5.69239e-07 0)
(-1.8737e-06 -1.39596e-07 0)
(-9.20196e-07 1.82742e-06 0)
(3.84737e-07 1.57159e-06 0)
(6.48737e-08 1.63582e-06 0)
(-7.1401e-07 9.99534e-07 0)
(1.55014e-07 7.9813e-07 0)
(6.08851e-07 8.34368e-07 0)
(2.44076e-06 3.47603e-07 0)
(1.55192e-06 1.38246e-06 0)
(5.60224e-06 -2.20378e-07 0)
(3.04457e-06 -2.9114e-06 0)
(-1.08757e-06 -6.81357e-06 0)
(-1.72358e-06 -9.8631e-06 0)
(5.22723e-06 -6.55059e-06 0)
(-1.85871e-06 -4.78936e-06 0)
(-3.66757e-06 -3.23807e-06 0)
(4.25137e-06 1.46137e-06 0)
(9.61396e-06 2.24733e-06 0)
(6.95888e-06 -8.39553e-07 0)
(-1.61628e-06 -5.93563e-06 0)
(-1.91634e-06 -8.9501e-06 0)
(-2.20224e-06 -2.12569e-06 0)
(-4.3068e-05 -3.62004e-06 0)
(-5.4329e-05 2.92052e-06 0)
(-7.3059e-05 -2.71147e-06 0)
(-8.35216e-05 -2.53464e-06 0)
(-6.41471e-05 -1.5627e-05 0)
(3.59406e-06 -8.76487e-06 0)
(-2.92057e-05 -3.32437e-05 0)
(-7.3078e-05 -2.49394e-05 0)
(-5.53865e-05 2.65067e-06 0)
(-2.46509e-05 1.46818e-05 0)
(4.97031e-05 1.68081e-05 0)
(3.09717e-05 1.7981e-05 0)
(-0.000115917 -3.0203e-05 0)
(-0.000113507 -2.64336e-05 0)
(3.30845e-05 5.46948e-05 0)
(7.49532e-05 4.81671e-05 0)
(0.000259775 7.78444e-05 0)
(0.00070409 7.87221e-05 0)
(0.00265118 3.61537e-05 0)
(0.00585673 -2.46061e-05 0)
(0.0157549 4.16365e-05 0)
(0.0380285 -0.000162575 0)
(0.0968669 0.00339357 0)
(0.204842 0.00733274 0)
(0.620136 0.0129378 0)
(1.18488 0.0431137 0)
(2.41413 0.10844 0)
(4.40767 0.0440829 0)
(8.08556 -0.00621144 0)
(12.1356 -0.374176 0)
(14.7396 -0.563333 0)
(15.4169 -0.690864 0)
(16.2054 0.597192 0)
(16.0329 0.453304 0)
(15.6203 0.454742 0)
(14.6426 0.162508 0)
(12.7154 0.0538956 0)
(10.1807 -0.118191 0)
(5.51396 -0.0414805 0)
(2.9685 -0.0534525 0)
(1.34432 -0.0103335 0)
(0.60411 -0.00773932 0)
(0.309029 -0.0026098 0)
(0.119295 -0.00163184 0)
(0.0589596 -0.00203755 0)
(0.0230919 -0.000797754 0)
(0.0098424 -0.000375287 0)
(0.00407462 -0.00022183 0)
(0.00141079 -6.9625e-05 0)
(0.000563752 -2.19473e-05 0)
(0.000211069 -9.04186e-06 0)
(7.67374e-05 -4.0892e-06 0)
(2.78292e-05 -1.44383e-06 0)
(9.88716e-06 -5.72531e-07 0)
(3.42523e-06 -2.54462e-07 0)
(1.19635e-06 -1.04221e-07 0)
(4.72345e-07 -2.71721e-08 0)
(1.99674e-07 -6.50055e-09 0)
(1.90337e-07 3.47115e-09 0)
(3.39413e-07 8.067e-09 0)
(7.49389e-07 1.04608e-08 0)
(1.72726e-06 -1.76311e-08 0)
(2.59863e-06 -7.62027e-08 0)
(4.35621e-06 -9.10341e-07 0)
(2.92954e-06 -1.34681e-06 0)
(-5.07848e-07 -2.86301e-06 0)
(-1.52144e-05 -3.66372e-06 0)
(-1.39324e-05 -4.30637e-06 0)
(-6.13353e-06 -7.469e-06 0)
(-1.07829e-07 -3.33664e-06 0)
(6.21814e-06 -2.58331e-06 0)
(5.14309e-06 -1.3108e-06 0)
(3.99123e-06 -8.62858e-07 0)
(1.86043e-06 -4.12337e-07 0)
(8.51561e-07 -1.2934e-07 0)
(1.00238e-07 5.83762e-08 0)
(-5.04943e-08 2.52253e-07 0)
(-4.37827e-07 3.79291e-07 0)
(-5.18838e-07 7.15576e-07 0)
(-3.09211e-07 9.51208e-07 0)
(7.00792e-08 1.01042e-06 0)
(-1.17626e-07 8.85846e-07 0)
(-1.80241e-07 9.2068e-07 0)
(-1.059e-06 1.32476e-06 0)
(-3.13122e-07 8.87769e-07 0)
(6.45517e-07 5.85382e-07 0)
(1.75871e-06 1.11814e-08 0)
(1.49019e-06 -3.61965e-08 0)
(-2.45088e-07 -6.80906e-07 0)
(-2.81929e-06 -1.82502e-06 0)
(-8.91895e-08 -1.11639e-05 0)
(8.24294e-06 -8.39763e-06 0)
(7.46246e-06 -2.05137e-06 0)
(7.61008e-06 6.7367e-06 0)
(2.90421e-06 9.03273e-06 0)
(-4.18723e-07 7.56934e-06 0)
(-1.73132e-06 -1.08089e-06 0)
(-2.69502e-06 -1.01772e-05 0)
(3.00644e-06 -9.44948e-06 0)
(-5.23166e-07 -2.20455e-06 0)
(-1.9069e-05 2.6518e-06 0)
(-2.93401e-05 5.40499e-06 0)
(-3.52169e-05 1.03245e-05 0)
(-2.40992e-05 4.26356e-05 0)
(-0.000123302 9.15099e-05 0)
(-0.000142224 0.000157088 0)
(-0.00028489 0.000133096 0)
(-0.000161342 0.000127124 0)
(-0.000197927 3.60101e-05 0)
(-0.000217807 4.3029e-05 0)
(-0.000143419 8.20846e-05 0)
(-0.000195924 -1.71289e-05 0)
(-0.000277307 -0.000119846 0)
(-0.000254544 -0.000161646 0)
(0.000340278 6.15005e-05 0)
(0.000256119 8.13728e-05 0)
(0.000255474 0.000121883 0)
(0.0010173 0.000210583 0)
(0.00383904 3.74827e-05 0)
(0.00640425 6.24475e-05 0)
(0.0181411 0.000403927 0)
(0.0418351 0.000209119 0)
(0.103077 0.0030442 0)
(0.250943 0.012482 0)
(0.574971 0.00355917 0)
(1.24347 0.0103544 0)
(2.57267 0.0405289 0)
(5.0248 0.0440468 0)
(8.71269 -0.0484549 0)
(13.2627 -0.277959 0)
(15.4487 -0.594293 0)
(15.9032 -0.634408 0)
(16.4111 0.21012 0)
(16.5532 0.266565 0)
(15.8796 0.242238 0)
(14.8737 0.0701657 0)
(12.9835 -0.0200043 0)
(10.2915 -0.132399 0)
(6.24317 -0.106826 0)
(3.2912 -0.0711758 0)
(1.53391 -0.00993035 0)
(0.661866 -0.0108874 0)
(0.30094 -0.00229682 0)
(0.127304 -0.0018043 0)
(0.062357 -0.000592236 0)
(0.0253842 -0.000341773 0)
(0.0105961 -0.000218821 0)
(0.00438481 -0.000167391 0)
(0.00171523 -6.16848e-05 0)
(0.000656211 -2.25446e-05 0)
(0.000243269 -9.02104e-06 0)
(9.57535e-05 -3.57058e-06 0)
(3.38869e-05 -1.0782e-06 0)
(1.27377e-05 -4.30585e-07 0)
(4.76818e-06 -2.12639e-07 0)
(1.69824e-06 -9.69074e-08 0)
(6.21882e-07 -2.50062e-08 0)
(2.4584e-07 -7.2508e-09 0)
(2.15296e-07 -1.36809e-10 0)
(3.571e-07 8.74742e-10 0)
(7.11384e-07 -5.36369e-09 0)
(1.30394e-06 -8.3934e-08 0)
(1.42258e-06 -3.26359e-07 0)
(1.26317e-06 -6.79491e-07 0)
(3.93849e-07 -1.82699e-06 0)
(-7.96623e-07 -8.15016e-06 0)
(-8.4181e-06 -9.46586e-06 0)
(-6.8317e-06 1.03567e-05 0)
(9.03201e-07 7.46756e-06 0)
(7.16382e-06 2.3609e-06 0)
(8.61314e-06 7.72426e-08 0)
(6.45274e-06 -2.41183e-07 0)
(4.56121e-06 -1.05621e-07 0)
(2.32743e-06 -7.32981e-08 0)
(1.01449e-06 -2.4455e-08 0)
(3.63367e-07 1.5048e-08 0)
(5.02794e-09 6.03387e-08 0)
(-9.06862e-08 6.80398e-08 0)
(-1.5925e-07 9.5954e-08 0)
(-1.30042e-07 1.31339e-07 0)
(-1.47349e-07 1.31247e-07 0)
(-2.84506e-08 1.55833e-07 0)
(-1.25177e-09 1.53034e-07 0)
)
;

boundaryField
{
    sides1
    {
        type            zeroGradient;
    }
    sides2
    {
        type            slip;
    }
    empty
    {
        type            empty;
    }
}


// ************************************************************************* //
