/*--------------------------------*- C++ -*----------------------------------*\
| =========                 |                                                 |
| \\      /  F ield         | OpenFOAM: The Open Source CFD Toolbox           |
|  \\    /   O peration     | Version:  3.0.1                                 |
|   \\  /    A nd           | Web:      www.OpenFOAM.org                      |
|    \\/     M anipulation  |                                                 |
\*---------------------------------------------------------------------------*/
FoamFile
{
    version     2.0;
    format      ascii;
    class       volScalarField;
    location    "0.00015";
    object      minKappa;
}
// * * * * * * * * * * * * * * * * * * * * * * * * * * * * * * * * * * * * * //

dimensions      [0 0 0 0 0 0 0];

internalField   nonuniform List<scalar> 
1000
(
6.78474e-15
3.39237e-15
1.69618e-15
4.24046e-15
5.25958e-15
2.54428e-15
3.39237e-15
0
8.48092e-16
3.39237e-15
2.54428e-15
1.44176e-14
0
2.54428e-15
2.62909e-14
2.20504e-14
9.2442e-14
3.4687e-13
1.46041e-12
5.96209e-12
2.36431e-11
9.13819e-11
3.44508e-10
1.26071e-09
4.46954e-09
1.52865e-08
5.01988e-08
1.57253e-07
4.65694e-07
1.28576e-06
3.23504e-06
7.16132e-06
1.33705e-05
2.04447e-05
2.59028e-05
2.84808e-05
8.1068e-06
2.96909e-06
1.31772e-05
3.87728e-05
7.03408e-05
0.000122397
8.30123e-05
0.000498923
0.000452466
0.00045831
0.00270423
0.00452469
0.00156673
0.00939949
0.00512332
0.00420394
0.000161864
0.0024153
0.000233848
0.000140631
0.00111086
0.00061987
0.00330545
0.000839513
0.00109369
0.00154819
0.0012908
0.000486222
3.69668e-05
0.000414586
0.000598353
0.000361066
0.000229374
0.000141957
0.00024399
0.000200871
0.000269957
0.000131397
5.46459e-05
1.13201e-05
2.0365e-06
3.4837e-07
5.80174e-08
9.50297e-09
1.53908e-09
2.47229e-10
3.94782e-11
6.23878e-12
1.00234e-12
1.57957e-13
1.48416e-14
1.74919e-14
1.21913e-14
7.95086e-15
5.30058e-16
5.75267e-15
3.56118e-15
0
1.09575e-15
1.09575e-15
1.09575e-15
1.09575e-15
8.2181e-16
8.2181e-16
6.78474e-15
3.39237e-15
1.69618e-15
8.48092e-16
1.69618e-15
2.54428e-15
3.06809e-15
0
8.48092e-16
1.69618e-15
2.54428e-15
4.24046e-15
0
2.54428e-15
1.35695e-14
1.10252e-14
9.2442e-14
3.4687e-13
1.46041e-12
5.96209e-12
2.36431e-11
9.13819e-11
3.44508e-10
1.26071e-09
4.46954e-09
1.52865e-08
5.01988e-08
1.57253e-07
4.65694e-07
1.28576e-06
3.23504e-06
7.16132e-06
1.33705e-05
2.04447e-05
2.59028e-05
2.84808e-05
8.1068e-06
2.96909e-06
1.18737e-05
3.87728e-05
7.03408e-05
0.000122397
8.30123e-05
0.000498923
0.000452466
0.00045831
7.85238e-05
0.000386604
2.599e-05
0.00408873
0.000687526
0.00404806
0.000161864
0.000880054
0.000233848
0.000140631
0.00111086
0.000445187
0.00330545
0.000839513
0.00106818
0.000444518
0.000820172
0.000486222
3.69668e-05
0.000414586
0.000598353
0.000361066
0.000229374
0.000141957
0.00024399
0.000200871
0.000269957
0.000131397
5.46459e-05
1.13201e-05
2.0365e-06
3.4837e-07
5.80174e-08
9.50297e-09
1.53908e-09
2.47229e-10
3.94782e-11
6.23878e-12
1.00234e-12
1.57957e-13
1.48416e-14
1.74919e-14
1.21913e-14
7.95086e-15
5.30058e-16
1.09575e-15
1.09575e-15
0
0
4.24046e-15
1.06012e-15
1.06012e-14
1.32514e-14
8.48092e-15
1.3149e-15
1.3149e-15
7.45108e-15
8.48092e-16
1.69618e-15
2.54428e-15
5.25958e-15
8.48092e-16
2.54428e-15
1.69618e-15
4.24046e-15
4.24046e-15
3.39237e-15
1.69618e-14
0
1.10252e-14
1.5096e-13
5.75854e-13
2.53495e-12
1.01508e-11
3.99655e-11
1.53819e-10
5.76376e-10
2.09737e-09
7.39008e-09
2.51146e-08
8.19097e-08
2.54712e-07
7.4829e-07
2.0479e-06
5.10454e-06
1.12059e-05
2.08789e-05
3.242e-05
4.32431e-05
3.82415e-05
3.40093e-05
1.72412e-05
1.18737e-05
2.52258e-05
7.82189e-05
0.000152989
0.000156149
0.000558557
0.000421638
0.00150991
7.85238e-05
0.000386604
2.599e-05
0.000706502
0.000687526
0.0023015
0.000364833
0.000764689
0.00179076
0.00157403
0.00126895
0.000329445
0.00374109
0.00082152
0.000317966
0.000171168
0.000350899
0.000706486
0.00071421
0.00100836
0.00196083
0.00124333
0.00123419
0.00124108
0.00117324
0.00126655
0.00127783
0.000842823
0.000198816
3.29245e-05
5.02949e-06
7.74856e-07
1.2043e-07
1.88187e-08
2.94843e-09
4.62321e-10
7.24483e-11
1.13962e-11
1.74654e-12
3.03193e-13
4.24046e-15
2.27925e-14
1.37815e-14
5.30058e-16
6.89075e-15
3.18035e-15
0
2.19149e-15
0
0
0
5.47873e-16
8.2181e-16
7.67023e-15
7.01278e-15
0
0
8.76597e-16
2.62979e-15
1.3149e-15
8.76597e-16
8.48092e-16
2.62979e-15
3.39237e-15
4.24046e-15
4.24046e-15
7.63283e-15
1.69618e-15
0
4.83412e-14
1.19581e-13
5.75854e-13
2.25677e-12
9.34089e-12
3.61177e-11
1.37936e-10
5.12114e-10
1.84481e-09
6.43818e-09
2.1657e-08
6.99079e-08
2.15079e-07
6.25035e-07
1.69368e-06
4.20168e-06
9.3191e-06
1.80373e-05
3.00149e-05
4.30279e-05
5.18411e-05
5.7536e-05
4.2607e-05
1.39877e-05
2.52258e-05
4.22723e-06
6.11142e-05
0.000112071
0.000347079
5.47885e-05
0.0012268
0.000206917
0.00129737
0.000113338
0.000706502
0.00210649
9.25171e-05
0.000849582
0.000764689
0.00154208
0.00152861
0.00126895
0.000329445
0.00245972
0.000328286
0.000317966
5.7377e-05
0.000201
0.000441075
0.000497647
0.00066199
0.000946543
0.0009998
0.0010448
0.00123906
0.00114112
0.00121483
0.00110305
0.000657705
0.000154035
2.66763e-05
4.34867e-06
6.99384e-07
1.11734e-07
1.7763e-08
2.81263e-09
4.43826e-10
6.97853e-11
1.09346e-11
1.76827e-12
2.38526e-13
4.24046e-15
1.96121e-14
2.06722e-14
5.30058e-16
6.89075e-15
3.18035e-15
0
5.47873e-16
5.30058e-16
2.12023e-15
0
2.12023e-15
1.06012e-15
1.69618e-14
3.94469e-15
3.50639e-15
2.62979e-15
8.76597e-16
0
0
2.19149e-15
2.54428e-15
1.69618e-15
7.63283e-15
0
4.24046e-15
7.63283e-15
1.69618e-15
9.32901e-15
5.93664e-15
1.19581e-13
3.57895e-13
1.59865e-12
6.25383e-12
2.42563e-11
9.22826e-11
3.40112e-10
1.22009e-09
4.23092e-09
1.41475e-08
4.53704e-08
1.38656e-07
4.00231e-07
1.07776e-06
2.66219e-06
5.91072e-06
1.15936e-05
2.00106e-05
3.07767e-05
4.2925e-05
5.4518e-05
5.2743e-05
4.69277e-05
3.02278e-05
4.22723e-06
2.7484e-05
1.94126e-06
9.93486e-05
1.98572e-06
0.000733163
0.000206917
0.00129737
0.000113338
0.000904543
0.00232073
9.25171e-05
0.0010304
0.00151805
0.001486
0.00128874
0.00118606
0.00090608
0.00143432
0.000328286
0.000324725
5.7377e-05
0.000201
0.000441075
0.000275617
0.000351698
0.000699447
0.000640392
0.000692382
0.000975897
0.00091977
0.000827278
0.000715617
0.000429202
9.9326e-05
1.68318e-05
2.70592e-06
4.32331e-07
6.90021e-08
1.10045e-08
1.7531e-09
2.78807e-10
4.42826e-11
7.04393e-12
1.03149e-12
2.08313e-13
1.64318e-14
8.48092e-15
1.53717e-14
2.12023e-15
9.54104e-15
1.06012e-15
1.59017e-15
1.64362e-15
5.30058e-16
2.12023e-15
1.06012e-15
5.47873e-16
5.47873e-16
1.15053e-14
1.3149e-15
1.3149e-15
5.25958e-15
2.54428e-15
8.76597e-16
8.76597e-16
1.75319e-15
2.54428e-15
1.69618e-15
8.48092e-16
0
5.08855e-15
0
2.54428e-15
1.27214e-14
5.93664e-15
8.82016e-14
2.0015e-13
9.21876e-13
3.43053e-12
1.36763e-11
5.08194e-11
1.87006e-10
6.64357e-10
2.28551e-09
7.57686e-09
2.40813e-08
7.2921e-08
2.08533e-07
5.56487e-07
1.3639e-06
3.01635e-06
5.95112e-06
1.05287e-05
1.70467e-05
2.57347e-05
3.63845e-05
4.70356e-05
5.54578e-05
5.47353e-05
4.74831e-05
2.7484e-05
1.94126e-06
2.61576e-05
1.98572e-06
0.000146832
0.000160506
0.000849186
0.000428452
0.000904543
0.00180955
4.69557e-05
0.0010304
0.00151805
0.00140146
0.00128874
0.000921016
0.00093786
0.000994616
0.000394872
0.000402491
0.000759964
0.000567093
7.71314e-05
0.000275617
0.000351698
0.000699447
0.000255841
0.000418146
0.000541669
0.000436087
0.000405957
0.00034101
0.000189869
4.52002e-05
7.83131e-06
1.28499e-06
2.08789e-07
3.37874e-08
5.45395e-09
8.78795e-10
1.41477e-10
2.27638e-11
3.56729e-12
6.27588e-13
5.83063e-14
1.64318e-14
3.7104e-15
1.53717e-14
1.59017e-15
8.48092e-15
1.06012e-15
1.09575e-15
1.09575e-15
1.09575e-15
1.09575e-15
1.06012e-15
1.64362e-15
5.2048e-15
9.03991e-15
1.62171e-14
3.39237e-15
5.25958e-15
2.54428e-15
1.69618e-15
8.76597e-16
4.38299e-16
4.38299e-16
3.50639e-15
8.48092e-16
1.01771e-14
1.52657e-14
0
7.63283e-15
6.78474e-15
1.8658e-14
1.18733e-14
1.53505e-13
4.18109e-13
1.73096e-12
6.2445e-12
2.3739e-11
8.54708e-11
3.01281e-10
1.02453e-09
3.35741e-09
1.05447e-08
3.15375e-08
8.90537e-08
2.34649e-07
5.68277e-07
1.24495e-06
2.44719e-06
4.35918e-06
7.22043e-06
1.14098e-05
1.73918e-05
2.54467e-05
3.53458e-05
4.5037e-05
4.84464e-05
4.79407e-05
4.3158e-05
2.61576e-05
2.89665e-05
1.26177e-05
7.15355e-05
0.000187471
0.000215893
0.000360549
0.000796172
3.77108e-06
0.000774497
0.00110906
0.0010304
0.000930066
0.000910624
0.000620252
0.000644718
0.000608471
0.000394379
0.000110297
0.000475728
7.71314e-05
0.000260589
0.00054325
0.000111872
0.000179788
0.000418146
0.000238587
0.000149817
0.000143408
0.000121422
6.85263e-05
1.58323e-05
2.53024e-06
3.9128e-07
6.17653e-08
9.9545e-09
1.6276e-09
2.6811e-10
4.43695e-11
7.2814e-12
1.24404e-12
1.8446e-13
1.11312e-14
1.48416e-14
3.7104e-15
4.77052e-15
1.59017e-15
2.65029e-15
0
0
1.64362e-15
0
0
1.59017e-15
1.59017e-15
2.12023e-15
1.00711e-14
7.45108e-15
3.39237e-15
7.63283e-15
8.48092e-16
0
4.38299e-15
1.3149e-15
8.48092e-16
4.38299e-15
5.08855e-15
7.63283e-15
7.63283e-15
1.27214e-14
1.35695e-14
6.78474e-15
2.7987e-14
1.18733e-14
1.29758e-13
1.01771e-14
7.777e-13
2.52392e-12
9.31375e-12
3.34776e-11
1.15632e-10
3.88173e-10
1.25179e-09
3.87114e-09
1.13889e-08
3.16217e-08
8.18924e-08
1.94955e-07
4.20366e-07
8.15745e-07
1.44102e-06
2.37999e-06
3.78153e-06
5.89085e-06
9.07663e-06
1.38304e-05
2.04975e-05
2.86035e-05
3.59281e-05
3.98356e-05
2.95385e-05
2.96027e-05
1.26177e-05
3.68565e-05
6.02925e-06
5.82566e-05
5.36355e-05
0.00018172
3.77108e-06
0.000299082
0.000404701
0.000543966
0.000552334
0.000606075
0.000569745
0.000355018
0.000516309
0.000394379
0.000110297
0.000225744
0.000220517
0.00021821
7.9564e-05
3.58073e-05
4.48921e-05
5.4284e-05
5.16376e-05
5.38847e-05
1.8347e-05
2.16184e-05
1.50764e-05
4.3078e-06
8.53859e-07
1.43286e-07
2.32205e-08
3.76519e-09
6.16164e-10
1.02045e-10
1.71097e-11
2.86549e-12
5.5073e-13
6.78474e-14
1.11312e-14
1.48416e-14
1.00711e-14
4.77052e-15
2.65029e-15
2.65029e-15
0
1.09575e-15
1.09575e-15
2.73937e-15
2.73937e-15
1.06012e-15
1.06012e-15
1.36968e-15
1.36968e-15
2.54428e-15
8.48092e-16
8.48092e-16
8.48092e-16
0
8.48092e-16
1.69618e-15
8.48092e-16
0
2.54428e-15
5.93664e-15
7.63283e-15
3.39237e-15
1.35695e-14
3.7316e-14
2.7987e-14
7.63283e-15
2.54428e-15
1.01771e-14
2.222e-13
9.6004e-13
3.14473e-12
1.1183e-11
3.80014e-11
1.24004e-10
3.91242e-10
1.17712e-09
3.36898e-09
9.06936e-09
2.2713e-08
5.21577e-08
1.08431e-07
2.03391e-07
3.49209e-07
5.63535e-07
8.77441e-07
1.342e-06
2.05007e-06
3.16625e-06
4.95632e-06
7.75551e-06
1.1846e-05
1.67533e-05
2.06673e-05
1.95927e-05
1.7705e-05
1.03036e-05
6.02925e-06
3.30364e-05
1.28008e-06
1.7861e-05
6.18987e-06
5.1449e-05
7.62892e-05
0.000134385
0.000175554
0.000222391
0.000243232
0.00022438
0.000293634
0.000306551
0.000136406
0.000119362
0.000132694
0.000137678
5.19716e-05
3.58073e-05
1.87877e-05
1.45944e-05
5.33008e-06
1.71759e-06
6.93742e-07
1.57505e-06
1.14053e-07
3.76714e-09
3.01322e-08
9.40732e-09
2.17143e-09
4.43107e-10
8.53693e-11
1.60289e-11
2.86443e-12
5.98965e-13
6.57271e-14
1.74919e-14
2.12023e-14
4.77052e-15
1.59017e-14
8.48092e-15
5.30058e-16
5.83063e-15
0
0
0
1.64362e-15
3.56118e-15
1.06012e-15
1.06012e-15
4.24046e-15
8.48092e-15
2.54428e-15
8.48092e-16
8.48092e-16
3.39237e-15
5.08855e-15
8.48092e-16
1.69618e-15
1.75319e-15
0
2.54428e-15
5.93664e-15
1.18733e-14
3.39237e-15
2.88351e-14
3.7316e-14
3.90122e-14
7.63283e-15
2.54428e-15
1.2467e-13
2.222e-13
9.6004e-13
3.14473e-12
1.1183e-11
3.80014e-11
1.24004e-10
3.91242e-10
1.17712e-09
3.36898e-09
9.06936e-09
2.2713e-08
5.21577e-08
1.08431e-07
2.03391e-07
3.49209e-07
5.63535e-07
8.77441e-07
1.342e-06
2.05007e-06
3.16625e-06
4.95632e-06
7.75551e-06
1.1846e-05
1.67533e-05
2.06673e-05
1.95927e-05
1.7705e-05
1.03036e-05
6.35258e-06
3.30364e-05
1.28008e-06
1.7861e-05
6.18987e-06
5.1449e-05
7.62892e-05
0.000134385
0.000175554
0.000222391
0.000243232
0.00022438
0.000293634
0.000306551
0.000136406
0.000119362
0.000132694
0.000137678
5.19716e-05
3.65612e-05
1.87877e-05
1.45944e-05
5.33008e-06
1.71759e-06
6.93742e-07
1.57505e-06
1.14053e-07
3.76714e-09
3.01322e-08
9.40732e-09
2.17143e-09
4.43107e-10
8.53693e-11
1.60289e-11
2.86443e-12
5.98965e-13
6.57271e-14
1.74919e-14
3.28636e-14
4.77052e-15
1.59017e-14
1.59017e-14
5.30058e-16
1.53405e-14
5.30058e-16
5.47873e-16
1.64362e-15
5.47873e-16
5.47873e-16
2.19149e-15
3.83511e-15
5.47873e-15
6.02661e-15
)
;

boundaryField
{
    sides1
    {
        type            calculated;
        value           uniform 0;
    }
    sides2
    {
        type            calculated;
        value           uniform 0;
    }
    empty
    {
        type            empty;
    }
}


// ************************************************************************* //
