/*--------------------------------*- C++ -*----------------------------------*\
| =========                 |                                                 |
| \\      /  F ield         | OpenFOAM: The Open Source CFD Toolbox           |
|  \\    /   O peration     | Version:  3.0.1                                 |
|   \\  /    A nd           | Web:      www.OpenFOAM.org                      |
|    \\/     M anipulation  |                                                 |
\*---------------------------------------------------------------------------*/
FoamFile
{
    version     2.0;
    format      ascii;
    class       surfaceScalarField;
    location    "0.00015";
    object      phi;
}
// * * * * * * * * * * * * * * * * * * * * * * * * * * * * * * * * * * * * * //

dimensions      [1 0 -1 0 0 0 0];

internalField   nonuniform List<scalar> 
1890
(
6.245e-17
1.38778e-17
3.81639e-17
-6.93889e-18
4.51028e-17
-3.46945e-18
5.55112e-17
8.67362e-18
4.16334e-17
2.77556e-17
7.97973e-17
5.20417e-18
9.02056e-17
6.93889e-18
9.71445e-17
0
1.11022e-16
1.73472e-18
4.30211e-16
6.93889e-18
1.87003e-15
5.20417e-18
8.403e-15
-2.94903e-17
3.74041e-14
0
1.64948e-13
5.20417e-18
7.1591e-13
-5.37764e-17
3.0556e-12
-4.51028e-17
1.28138e-11
-1.89085e-16
5.27354e-11
-7.09502e-16
2.12731e-10
-2.98719e-15
8.39938e-10
-1.21951e-14
3.24083e-09
-4.83606e-14
1.2197e-08
-1.86916e-13
4.46779e-08
-7.04671e-13
1.58876e-07
-2.5787e-12
5.46759e-07
-9.14206e-12
1.81391e-06
-3.12662e-11
5.77257e-06
-1.02664e-10
1.75065e-05
-3.21512e-10
5.01363e-05
-9.51322e-10
0.000133815
-2.62059e-09
0.00032652
-6.55716e-09
0.000710261
-1.43439e-08
0.00134541
-2.62014e-08
0.00220637
-3.8733e-08
0.00319358
-4.69359e-08
0.00421112
-4.89732e-08
0.00520095
-1.31578e-08
0.00613065
-4.53201e-09
0.00698435
1.88668e-08
0.00775488
5.19726e-08
0.00844042
8.81438e-08
0.00904142
1.43222e-07
0.0095609
9.0633e-08
0.0100028
5.07993e-07
0.0103738
-4.29442e-07
0.0106775
4.05355e-07
0.0109175
2.22975e-06
0.0111006
-3.4831e-06
0.0112135
1.13282e-06
0.0112631
6.48708e-06
0.0112818
-3.45194e-06
0.0113036
-2.80838e-06
0.011345
-1.0743e-07
0.0114071
1.59009e-06
0.011433
1.52608e-07
0.0114213
-9.17651e-08
0.0113534
-7.27417e-07
0.0111498
-4.04119e-07
0.0107627
-2.1452e-06
0.010165
-5.45359e-07
0.00943637
7.09665e-07
0.00870759
1.00315e-06
0.00808998
8.36706e-07
0.00765128
3.15076e-07
0.00740032
-2.39454e-08
0.00729611
-2.68513e-07
0.00726505
-3.87364e-07
0.00724432
-2.33474e-07
0.00719196
-1.47842e-07
0.0070446
-9.05921e-08
0.00662236
-1.51286e-07
0.00537965
-1.14078e-07
0.00254341
-1.21256e-07
0.0005152
-3.82552e-08
8.51055e-05
-1.20392e-08
1.36894e-05
-2.34463e-09
2.19704e-06
-4.17397e-10
3.52349e-07
-7.12802e-11
5.64777e-08
-1.18678e-11
9.04763e-09
-1.94379e-12
1.44843e-09
-3.14811e-13
2.31684e-10
-5.05692e-14
3.7021e-11
-8.07503e-15
5.90817e-12
-1.27611e-15
9.41459e-13
-2.05023e-16
1.49756e-13
-3.23092e-17
2.37727e-14
-3.03577e-18
3.76262e-15
-3.57787e-18
5.86337e-16
2.49366e-18
9.28077e-17
-1.6263e-18
1.19262e-17
1.0842e-19
-4.55365e-18
-2.60209e-18
-2.81893e-18
-1.6263e-18
-4.55365e-18
0
-8.67362e-19
-2.1684e-18
8.67362e-19
-8.67362e-19
9.32414e-18
-3.25261e-18
8.67362e-19
2.1684e-18
6.50521e-19
-2.71051e-18
1.73472e-18
6.245e-17
2.08167e-17
3.81639e-17
3.46945e-17
1.73472e-17
3.64292e-17
6.245e-17
1.73472e-18
7.28584e-17
-3.46945e-18
7.63278e-17
5.20417e-18
2.42861e-17
3.64292e-17
4.51028e-17
3.46945e-18
9.36751e-17
5.20417e-18
4.19803e-16
3.46945e-18
1.87003e-15
1.04083e-17
8.33014e-15
8.67362e-18
3.73937e-14
-6.93889e-18
1.64944e-13
-3.46945e-17
7.15792e-13
-2.77556e-17
3.05521e-12
-2.25514e-17
1.28125e-11
-3.64292e-16
5.27301e-11
-1.18482e-15
2.12709e-10
-5.18509e-15
8.39851e-10
-2.07629e-14
3.24049e-09
-8.17471e-14
1.21957e-08
-3.14629e-13
4.46732e-08
-1.17894e-12
1.5886e-07
-4.29002e-12
5.46701e-07
-1.51158e-11
1.81373e-06
-5.13683e-11
5.77197e-06
-1.67518e-10
1.75047e-05
-5.2077e-10
5.01313e-05
-1.52861e-09
0.000133803
-4.17396e-09
0.000326491
-1.03465e-08
0.000710206
-2.2445e-08
0.00134533
-4.09155e-08
0.00220629
-6.14209e-08
0.00319353
-7.83567e-08
0.00421111
-6.57567e-08
0.00520097
-5.51992e-08
0.00613072
-2.63166e-08
0.00698446
1.70002e-08
0.00775502
7.284e-08
0.00844058
1.31269e-07
0.00904161
2.06368e-07
0.00956103
1.70483e-07
0.0100032
6.02217e-07
0.0103737
-5.05261e-07
0.010677
1.33558e-06
0.0109209
-6.47458e-08
0.0110965
-2.97424e-07
0.0112129
-1.87845e-08
0.0112696
2.82421e-06
0.0112812
-4.62908e-07
0.0113007
-2.70297e-06
0.0113415
-2.42125e-07
0.0114062
5.79383e-07
0.011431
1.59149e-06
0.0114186
1.14183e-06
0.0113473
1.87403e-06
0.01114
2.90255e-07
0.0107492
2.42866e-06
0.0101456
1.66895e-06
0.00941825
6.93496e-07
0.0086936
-2.88139e-07
0.00808089
-5.31832e-07
0.00764594
-7.93653e-07
0.00739569
-6.28444e-07
0.00729332
-1.43307e-06
0.0072623
-1.37978e-06
0.00724189
-1.11138e-06
0.00718974
-7.95625e-07
0.00704297
-7.9214e-07
0.00662124
-7.27586e-07
0.00537905
-7.19403e-07
0.00254353
-5.74048e-07
0.000515313
-2.59989e-07
8.51299e-05
-4.57029e-08
1.36939e-05
-6.81939e-09
2.19781e-06
-1.03084e-09
3.52478e-07
-1.58544e-10
5.64989e-08
-2.46345e-11
9.05106e-09
-3.84928e-12
1.44898e-09
-6.03086e-13
2.31772e-10
-9.45651e-14
3.7035e-11
-1.48189e-14
5.91041e-12
-2.33103e-15
9.41799e-13
-3.57245e-16
1.49808e-13
-6.20164e-17
2.37874e-14
-1.02999e-17
3.76457e-15
-5.09575e-18
5.97612e-16
2.81893e-18
9.69277e-17
-3.79471e-18
1.51788e-17
-1.40946e-18
8.67362e-19
6.50521e-19
-3.25261e-18
-3.25261e-19
-5.20417e-18
6.50521e-19
-7.15573e-18
0
-1.04083e-17
4.01155e-18
-1.40946e-17
2.1684e-19
-1.99493e-17
3.68629e-18
-2.36356e-17
4.33681e-18
4.77049e-18
1.04083e-17
3.1225e-17
5.89806e-17
6.93889e-18
8.67362e-17
3.81639e-17
5.20417e-17
3.64292e-17
4.85723e-17
3.98986e-17
4.51028e-17
5.20417e-18
4.16334e-17
2.25514e-17
6.245e-17
-1.73472e-18
9.71445e-17
1.73472e-17
4.19803e-16
-6.93889e-18
1.86656e-15
8.67362e-18
8.40647e-15
-1.21431e-17
3.74388e-14
2.42861e-17
1.64882e-13
-4.51028e-17
7.15612e-13
0
3.05476e-12
-1.04083e-16
1.28101e-11
-3.08781e-16
5.27203e-11
-1.17788e-15
2.12669e-10
-5.68469e-15
8.39696e-10
-2.17396e-14
3.2399e-09
-8.66546e-14
1.21935e-08
-3.32992e-13
4.46652e-08
-1.24448e-12
1.58832e-07
-4.52429e-12
5.46607e-07
-1.59069e-11
1.81342e-06
-5.39375e-11
5.77102e-06
-1.75438e-10
1.75019e-05
-5.43738e-10
5.01238e-05
-1.5904e-09
0.000133784
-4.32652e-09
0.000326452
-1.07042e-08
0.00071014
-2.33484e-08
0.00134525
-4.34695e-08
0.00220624
-6.77679e-08
0.00319351
-8.79333e-08
0.00421114
-8.91413e-08
0.00520106
-9.3384e-08
0.00613086
-6.50341e-08
0.00698463
-2.00267e-08
0.0077552
3.38125e-08
0.00844076
9.80128e-08
0.00904176
1.79015e-07
0.00956114
1.9258e-07
0.0100034
5.68715e-07
0.0103738
-4.00173e-07
0.0106779
1.6008e-06
0.01092
-7.99494e-07
0.0110979
2.74313e-06
0.0112134
2.90991e-07
0.0112688
4.87219e-07
0.0112841
1.4197e-06
0.0113019
-1.53637e-06
0.0113417
5.63867e-07
0.011406
5.03386e-07
0.0114338
1.16885e-06
0.0114227
1.02753e-06
0.0113556
8.31364e-07
0.0111526
-2.14801e-07
0.0107638
3.17914e-06
0.0101676
5.33622e-07
0.00944069
2.06323e-07
0.00871305
-1.10902e-07
0.008095
-2.27372e-07
0.00765735
-4.57739e-07
0.00740195
-4.62511e-07
0.00729607
-6.52945e-07
0.00726694
-1.26978e-06
0.00724408
-8.03814e-07
0.00719092
-8.36303e-07
0.00704383
-8.88386e-07
0.00662223
-8.33301e-07
0.00538068
-9.05072e-07
0.0025456
-6.46171e-07
0.000515836
-2.45505e-07
8.52127e-05
-4.38078e-08
1.37067e-05
-7.10178e-09
2.1998e-06
-1.13191e-09
3.52789e-07
-1.79311e-10
5.65479e-08
-2.82887e-11
9.05879e-09
-4.45049e-12
1.4502e-09
-6.98703e-13
2.31964e-10
-1.09498e-13
3.70652e-11
-1.71225e-14
5.91512e-12
-2.68188e-15
9.42545e-13
-4.07768e-16
1.49928e-13
-6.88468e-17
2.37985e-14
-8.67362e-19
3.76045e-15
-4.66207e-18
5.99781e-16
-6.50521e-18
9.5193e-17
1.0842e-19
1.30104e-17
1.40946e-18
5.20417e-18
9.75782e-19
1.73472e-18
0
-1.73472e-18
1.95156e-18
-1.51788e-18
-2.1684e-19
0
-8.67362e-19
-4.33681e-19
0
6.50521e-19
-4.33681e-19
6.07153e-18
3.25261e-19
6.72205e-18
5.55112e-17
5.89806e-17
0
6.41848e-17
6.93889e-18
4.85723e-17
2.08167e-17
5.20417e-18
2.08167e-17
3.1225e-17
1.04083e-17
2.42861e-17
6.93889e-18
2.94903e-17
2.08167e-17
1.56125e-17
4.16334e-17
1.9082e-17
3.95517e-16
-1.56125e-17
1.85268e-15
1.04083e-17
8.3232e-15
8.67362e-18
3.74041e-14
-1.56125e-17
1.64764e-13
3.46945e-18
7.15518e-13
-1.9082e-17
3.05404e-12
-9.88792e-17
1.28074e-11
-2.44596e-16
5.27094e-11
-1.26288e-15
2.12625e-10
-4.6161e-15
8.39523e-10
-1.91062e-14
3.23924e-09
-7.38767e-14
1.2191e-08
-2.82141e-13
4.46564e-08
-1.0475e-12
1.58801e-07
-3.77343e-12
5.46503e-07
-1.31688e-11
1.81308e-06
-4.42963e-11
5.77e-06
-1.42972e-10
1.74989e-05
-4.39739e-10
5.01158e-05
-1.27683e-09
0.000133765
-3.452e-09
0.00032641
-8.51649e-09
0.000710067
-1.8666e-08
0.00134515
-3.5347e-08
0.00220614
-5.68647e-08
0.00319344
-7.79671e-08
0.00421112
-9.33142e-08
0.00520111
-1.01874e-07
0.00613095
-8.05049e-08
0.00698475
-6.71875e-08
0.00775535
-4.05166e-08
0.00844092
5.29682e-09
0.00904194
7.15083e-08
0.00956133
1.22354e-07
0.0100037
3.53371e-07
0.0103738
-5.19956e-08
0.0106785
1.08512e-06
0.0109195
-1.7055e-07
0.0110996
9.98237e-07
0.0112142
8.19083e-08
0.0112674
1.20745e-06
0.0112833
1.5631e-06
0.0113026
-6.17502e-08
0.0113435
7.04499e-07
0.0114069
1.09891e-06
0.0114349
1.00654e-06
0.0114235
9.97803e-07
0.0113559
9.42291e-07
0.0111527
5.90794e-07
0.0107665
1.5961e-06
0.0101698
2.13196e-07
0.00944262
2.10685e-07
0.00871538
3.71725e-08
0.00809781
-1.30238e-07
0.00766002
-2.85771e-07
0.00740417
-3.22259e-07
0.00729853
-4.28647e-07
0.00726852
-6.12859e-07
0.00724541
-6.46328e-07
0.00719159
-6.73335e-07
0.00704411
-7.90646e-07
0.00662238
-7.07539e-07
0.00538135
-6.90027e-07
0.00254731
-4.9569e-07
0.000516373
-1.91624e-07
8.53056e-05
-3.3943e-08
1.37217e-05
-5.5254e-09
2.2022e-06
-8.91301e-10
3.5317e-07
-1.43102e-10
5.66082e-08
-2.28557e-11
9.0683e-09
-3.63336e-12
1.4517e-09
-5.75307e-13
2.322e-10
-9.07821e-14
3.71022e-11
-1.42742e-14
5.92092e-12
-2.2366e-15
9.43466e-13
-3.6169e-16
1.50067e-13
-4.87891e-17
2.38251e-14
-1.02999e-17
3.77953e-15
-4.01155e-18
5.78097e-16
4.22839e-18
9.19403e-17
4.33681e-19
1.14925e-17
-1.95156e-18
3.68629e-18
6.50521e-19
8.67362e-19
-1.30104e-18
4.33681e-19
-1.0842e-18
-2.81893e-18
-1.0842e-19
-3.25261e-18
4.33681e-19
-7.80626e-18
2.05998e-18
-1.25767e-17
3.25261e-18
-1.36609e-17
2.1684e-19
3.46945e-18
-3.1225e-17
5.37764e-17
2.77556e-17
1.04083e-17
2.08167e-17
4.68375e-17
-6.93889e-18
4.16334e-17
0
2.94903e-17
1.73472e-17
-3.46945e-18
3.1225e-17
2.42861e-17
4.16334e-17
-5.20417e-18
1.45717e-16
3.46945e-18
4.02456e-16
1.9082e-17
1.83534e-15
0
8.37871e-15
-1.04083e-17
3.73694e-14
3.29597e-17
1.64823e-13
5.20417e-18
7.154e-13
-2.77556e-17
3.05335e-12
-1.21431e-17
1.28051e-11
-2.56739e-16
5.26994e-11
-7.32053e-16
2.12586e-10
-3.26995e-15
8.39372e-10
-1.27919e-14
3.23867e-09
-4.96148e-14
1.21889e-08
-1.88759e-13
4.46488e-08
-6.95678e-13
1.58775e-07
-2.49561e-12
5.46416e-07
-8.654e-12
1.81281e-06
-2.89366e-11
5.76915e-06
-9.27896e-11
1.74965e-05
-2.83489e-10
5.01092e-05
-8.17596e-10
0.000133749
-2.19666e-09
0.000326376
-5.39607e-09
0.000710006
-1.18391e-08
0.00134506
-2.27196e-08
0.00220604
-3.79111e-08
0.00319338
-5.57678e-08
0.0042111
-7.38101e-08
0.0052011
-8.84855e-08
0.00613097
-8.99497e-08
0.00698481
-8.61496e-08
0.00775543
-7.33656e-08
0.00844103
-5.94969e-08
0.00904207
-3.21577e-08
0.00956148
2.11929e-09
0.0100038
1.01143e-07
0.010374
1.88442e-09
0.0106785
6.48448e-07
0.0109202
-3.7691e-07
0.0110991
1.31721e-06
0.0112141
-3.87826e-07
0.0112686
6.23755e-07
0.0112834
2.09786e-06
0.0113025
1.6589e-07
0.0113432
6.83944e-07
0.0114073
9.9952e-07
0.011435
9.69949e-07
0.0114237
8.41213e-07
0.0113561
7.76846e-07
0.011153
7.49753e-07
0.0107656
9.30657e-07
0.0101683
2.56457e-07
0.00944097
2.61161e-07
0.00871375
4.92404e-07
0.00809673
-3.67452e-07
0.00765949
-3.29381e-07
0.00740378
-1.78474e-07
0.00729817
-2.27715e-07
0.00726844
-4.52864e-07
0.00724521
-4.13968e-07
0.00719139
-4.4619e-07
0.00704387
-6.22698e-07
0.00662239
-5.70288e-07
0.005382
-4.69893e-07
0.00254876
-3.21614e-07
0.000516815
-1.25069e-07
8.53818e-05
-2.18884e-08
1.37341e-05
-3.48636e-09
2.20419e-06
-5.54603e-10
3.5349e-07
-8.84597e-11
5.66593e-08
-1.41147e-11
9.07642e-09
-2.25092e-12
1.45299e-09
-3.58587e-13
2.32404e-10
-5.70284e-14
3.71344e-11
-9.05775e-15
5.926e-12
-1.4408e-15
9.44238e-13
-2.10986e-16
1.50195e-13
-4.26091e-17
2.3842e-14
-3.36103e-18
3.77302e-15
-1.73472e-18
6.01082e-16
-3.14419e-18
1.01915e-16
-1.30104e-18
1.47451e-17
2.49366e-18
5.63785e-18
2.1684e-19
1.30104e-18
-3.25261e-19
-1.51788e-18
-8.67362e-19
-3.90313e-18
1.0842e-18
-2.1684e-18
-1.30104e-18
-1.73472e-18
-2.1684e-19
-4.33681e-19
6.50521e-19
-9.1073e-18
2.38524e-18
4.66207e-18
1.04083e-17
6.07153e-17
-4.16334e-17
5.20417e-17
-6.245e-17
3.1225e-17
-4.16334e-17
5.20417e-18
6.93889e-18
3.46945e-17
-1.38778e-17
1.73472e-17
2.77556e-17
6.93889e-18
-4.16334e-17
3.98986e-17
1.73472e-17
-1.04083e-17
3.98986e-16
1.73472e-18
1.89085e-15
-2.25514e-17
8.3232e-15
3.29597e-17
3.7359e-14
0
1.64761e-13
1.56125e-17
7.15299e-13
-2.60209e-17
3.05304e-12
-3.81639e-17
1.28033e-11
-1.80411e-16
5.26926e-11
-4.09395e-16
2.12559e-10
-1.88564e-15
8.39267e-10
-7.01696e-15
3.23827e-09
-2.79742e-14
1.21875e-08
-1.03948e-13
4.46436e-08
-3.8251e-13
1.58757e-07
-1.3589e-12
5.46357e-07
-4.67483e-12
1.81262e-06
-1.54974e-11
5.76858e-06
-4.92499e-11
1.74949e-05
-1.49091e-10
5.01049e-05
-4.25993e-10
0.000133738
-1.13421e-09
0.000326354
-2.76453e-09
0.000709966
-6.04169e-09
0.001345
-1.16622e-08
0.00220597
-1.99472e-08
0.00319331
-3.08889e-08
0.00421104
-4.42513e-08
0.00520107
-5.90539e-08
0.00613096
-7.17935e-08
0.0069848
-7.94002e-08
0.00775545
-7.89586e-08
0.00844106
-6.07039e-08
0.00904211
-5.60928e-08
0.00956155
-4.71158e-08
0.0100038
-2.66294e-08
0.0103741
-2.74881e-08
0.0106785
1.29849e-07
0.0109198
-1.3228e-07
0.0110997
6.53326e-07
0.0112141
-3.09598e-07
0.0112681
6.30519e-07
0.0112839
1.21866e-06
0.0113033
3.13377e-08
0.0113438
7.07942e-07
0.0114075
1.06051e-06
0.0114351
9.14771e-07
0.0114237
8.44258e-07
0.011356
6.03217e-07
0.011153
6.11559e-07
0.0107653
6.45376e-07
0.0101678
4.01144e-07
0.00944015
5.83803e-07
0.00871318
4.97746e-07
0.00809638
-8.18159e-07
0.00765905
-4.99728e-08
0.00740344
2.19455e-07
0.0072975
4.10291e-07
0.00726819
-6.54561e-07
0.007245
-1.65386e-07
0.00719141
-2.69454e-07
0.00704397
-3.45618e-07
0.00662253
-2.70368e-07
0.0053827
-2.30583e-07
0.0025498
-1.53265e-07
0.00051711
-5.53317e-08
8.54316e-05
-9.96096e-09
1.3742e-05
-1.6221e-09
2.20547e-06
-2.63372e-10
3.53695e-07
-4.27205e-11
5.6692e-08
-6.91139e-12
9.08167e-09
-1.11558e-12
1.45382e-09
-1.79753e-13
2.32537e-10
-2.89383e-14
3.71556e-11
-4.65621e-15
5.92934e-12
-7.29668e-16
9.44802e-13
-1.2837e-16
1.5027e-13
-1.19262e-17
2.38529e-14
-6.07153e-18
3.7791e-15
-7.58942e-19
5.93926e-16
4.98733e-18
8.80372e-17
-3.25261e-19
1.40946e-17
1.73472e-18
3.68629e-18
-6.50521e-19
8.67362e-19
4.33681e-19
-1.51788e-18
-7.58942e-19
8.67362e-19
-6.50521e-19
8.67362e-19
-6.50521e-19
1.30104e-18
-3.25261e-19
4.11997e-18
-2.81893e-18
7.15573e-18
-3.25261e-18
-3.03577e-18
-1.2837e-16
3.64292e-17
-7.28584e-17
6.93889e-18
-4.16334e-17
1.73472e-17
-6.59195e-17
2.60209e-17
-4.16334e-17
-3.46945e-18
-6.93889e-18
1.9082e-17
-3.46945e-18
-5.20417e-18
2.77556e-17
1.73472e-17
1.17961e-16
-2.60209e-17
3.85109e-16
4.51028e-17
1.80064e-15
-2.08167e-17
8.31279e-15
3.1225e-17
3.74249e-14
-7.97973e-17
1.64778e-13
5.89806e-17
7.15164e-13
1.38778e-17
3.05286e-12
-1.38778e-16
1.28021e-11
2.42861e-17
5.26887e-11
-3.13985e-16
2.12543e-10
-8.55219e-16
8.39207e-10
-3.54057e-15
3.23804e-09
-1.27728e-14
1.21866e-08
-4.85566e-14
4.46407e-08
-1.74825e-13
1.58747e-07
-6.1625e-13
5.46324e-07
-2.0956e-12
1.81251e-06
-6.86709e-12
5.76827e-06
-2.15655e-11
1.7494e-05
-6.44799e-11
5.01026e-05
-1.8192e-10
0.000133733
-4.78255e-10
0.000326342
-1.15186e-09
0.000709944
-2.49362e-09
0.00134497
-4.79569e-09
0.00220593
-8.25872e-09
0.00319326
-1.30836e-08
0.00421099
-1.96194e-08
0.00520103
-2.82279e-08
0.00613094
-3.8841e-08
0.0069848
-5.06054e-08
0.00775545
-6.03662e-08
0.00844106
-6.25211e-08
0.00904212
-5.84634e-08
0.00956156
-5.39919e-08
0.0100038
-4.15396e-08
0.0103742
-3.96369e-08
0.0106784
-1.1158e-08
0.0109198
-5.89541e-08
0.0110996
1.44215e-07
0.0112139
-1.55994e-07
0.0112682
2.48573e-07
0.0112838
5.36087e-07
0.0113031
-2.51657e-09
0.0113436
5.14028e-07
0.0114075
7.30191e-07
0.0114352
6.72535e-07
0.0114238
6.07072e-07
0.0113559
5.96405e-07
0.0111529
4.04435e-07
0.0107649
4.18316e-07
0.0101676
3.95217e-07
0.00944037
2.55901e-07
0.00871354
7.14693e-08
0.0080957
3.08319e-07
0.00765609
2.28336e-07
0.0074034
1.68769e-07
0.00729811
-3.51758e-07
0.00726607
7.24241e-08
0.00724467
-1.16221e-07
0.00719184
-2.6969e-07
0.00704429
-1.52238e-07
0.00662285
-9.28834e-08
0.00538324
-8.14568e-08
0.0025503
-5.45737e-08
0.000517251
-1.99705e-08
8.54554e-05
-3.48907e-09
1.37459e-05
-5.24091e-10
2.2061e-06
-8.01966e-11
3.53795e-07
-1.26379e-11
5.67082e-08
-2.03624e-12
9.08428e-09
-3.32919e-13
1.45424e-09
-5.48404e-14
2.32605e-10
-9.07553e-15
3.71665e-11
-1.48937e-15
5.93113e-12
-2.54462e-16
9.4506e-13
-3.77302e-17
1.50316e-13
2.27682e-18
2.38655e-14
-3.03577e-18
3.77671e-15
-2.05998e-18
6.00648e-16
-9.75782e-19
9.15067e-17
1.95156e-18
1.14925e-17
-5.42101e-19
0
1.73472e-18
-1.30104e-18
-9.75782e-19
-2.60209e-18
-1.0842e-18
0
-6.50521e-19
-3.03577e-18
1.95156e-18
-3.90313e-18
-2.81893e-18
-9.75782e-18
3.25261e-19
-1.27936e-17
-4.33681e-19
-2.05998e-18
-5.89806e-17
3.64292e-17
-9.02056e-17
2.94903e-17
-8.32667e-17
1.56125e-17
-4.85723e-17
1.73472e-18
-3.46945e-17
0
-3.46945e-17
2.25514e-17
-1.04083e-17
-1.04083e-17
3.46945e-17
1.73472e-18
5.89806e-17
-1.21431e-17
4.23273e-16
-1.04083e-17
1.88391e-15
-1.56125e-17
8.36137e-15
1.56125e-17
3.72792e-14
2.60209e-17
1.64768e-13
-2.77556e-17
7.1524e-13
-7.80626e-17
3.05253e-12
5.72459e-17
1.28017e-11
-4.85723e-17
5.26867e-11
-2.65413e-16
2.12536e-10
-2.08167e-17
8.39178e-10
-1.59074e-15
3.23794e-09
-5.16254e-15
1.21863e-08
-1.90507e-14
4.46394e-08
-6.84765e-14
1.58742e-07
-2.36517e-13
5.46309e-07
-7.93976e-13
1.81247e-06
-2.56036e-12
5.76813e-06
-7.91707e-12
1.74936e-05
-2.32851e-11
5.01016e-05
-6.4597e-11
0.00013373
-1.6691e-10
0.000326337
-3.95159e-10
0.000709935
-8.41987e-10
0.00134496
-1.59859e-09
0.00220591
-2.7301e-09
0.00319324
-4.3126e-09
0.00421096
-6.50241e-09
0.005201
-9.56119e-09
0.00613091
-1.38543e-08
0.00698478
-1.98014e-08
0.00775544
-2.74743e-08
0.00844107
-3.58405e-08
0.00904213
-4.20375e-08
0.00956156
-4.34887e-08
0.0100038
-3.00713e-08
0.0103742
-2.80918e-08
0.0106783
-2.26434e-08
0.0109199
-3.03742e-08
0.0110994
4.63792e-09
0.0112139
-4.20924e-08
0.0112681
3.69755e-08
0.0112836
1.22343e-07
0.0113028
-2.51145e-08
0.0113435
1.98473e-07
0.0114074
2.66402e-07
0.011435
3.55002e-07
0.0114236
3.60488e-07
0.0113557
3.96923e-07
0.0111525
3.71492e-07
0.0107645
2.30339e-07
0.010167
3.35351e-07
0.00943916
2.96879e-07
0.00871262
1.89106e-07
0.00809559
1.46293e-07
0.00765644
1.42863e-07
0.00740395
1.41322e-07
0.00729653
5.15176e-08
0.00726748
2.31833e-08
0.00724591
-2.90155e-08
0.00719178
-3.49812e-08
0.00704436
-3.29489e-08
0.00662308
-3.34077e-08
0.00538351
-1.04212e-08
0.00255051
-9.71657e-09
0.000517303
-4.39373e-09
8.54641e-05
-9.4934e-10
1.37472e-05
-1.76861e-10
2.2063e-06
-2.93678e-11
3.53828e-07
-4.75116e-12
5.67136e-08
-7.70187e-13
9.08515e-09
-1.26034e-13
1.45439e-09
-2.08728e-14
2.32628e-10
-3.4997e-15
3.71703e-11
-5.8612e-16
5.93175e-12
-1.12649e-16
9.45164e-13
-1.38778e-17
1.50333e-13
-4.33681e-18
2.38711e-14
-5.31259e-18
3.77671e-15
4.01155e-18
5.93492e-16
-1.73472e-18
8.60857e-17
5.42101e-19
1.12757e-17
-1.19262e-18
1.73472e-18
0
8.67362e-19
-1.95156e-18
-2.38524e-18
6.50521e-19
-2.1684e-18
-6.50521e-19
-2.1684e-18
-8.67362e-19
-4.98733e-18
-2.1684e-19
-1.95156e-18
-2.1684e-19
-1.0842e-18
-8.67362e-19
1.73472e-18
-2.04697e-16
-5.20417e-18
-1.76942e-16
-1.73472e-18
-1.21431e-16
-1.73472e-18
-7.63278e-17
-6.93889e-18
-7.63278e-17
-1.04083e-17
-3.46945e-17
1.73472e-18
-1.73472e-17
3.46945e-18
-2.08167e-17
1.38778e-17
8.32667e-17
0
3.53884e-16
-5.20417e-18
1.80064e-15
-1.21431e-17
8.35443e-15
2.42861e-17
3.73972e-14
6.93889e-18
1.64826e-13
-5.89806e-17
7.15039e-13
7.63278e-17
3.05273e-12
-7.97973e-17
1.28015e-11
1.56125e-17
5.26857e-11
5.20417e-18
2.12533e-10
-2.55004e-16
8.39166e-10
-4.54498e-16
3.23789e-09
-1.96371e-15
1.21861e-08
-6.43235e-15
4.46388e-08
-2.28741e-14
1.58741e-07
-7.77295e-14
5.46303e-07
-2.53639e-13
1.81245e-06
-8.00228e-13
5.76808e-06
-2.40739e-12
1.74935e-05
-6.88803e-12
5.01012e-05
-1.8527e-11
0.000133729
-4.62929e-11
0.000326335
-1.0572e-10
0.000709932
-2.17186e-10
0.00134495
-3.98579e-10
0.00220591
-6.61598e-10
0.00319323
-1.02114e-09
0.00421095
-1.50878e-09
0.00520099
-2.17814e-09
0.0061309
-3.12916e-09
0.00698477
-4.5332e-09
0.00775544
-6.64331e-09
0.00844107
-9.71775e-09
0.00904213
-1.38604e-08
0.00956158
-1.82896e-08
0.0100038
-2.104e-08
0.0103742
-1.85926e-08
0.0106783
-1.56567e-08
0.0109199
-8.49137e-09
0.0110993
-4.88664e-09
0.011214
-2.38699e-08
0.0112681
8.82458e-10
0.0112834
1.20245e-08
0.0113027
-4.1304e-09
0.0113433
3.41399e-08
0.0114071
5.02149e-08
0.0114348
8.76946e-08
0.0114233
1.14567e-07
0.0113554
1.45633e-07
0.0111522
1.58585e-07
0.0107641
1.45576e-07
0.0101666
1.90718e-07
0.00943881
1.98919e-07
0.00871255
8.83907e-08
0.00809556
7.73509e-08
0.00765635
8.59658e-08
0.00740379
8.91672e-08
0.00729653
3.36513e-08
0.00726747
2.36714e-08
0.00724591
1.21433e-08
0.00719183
9.40483e-09
0.00704443
3.40101e-09
0.00662313
1.06488e-09
0.00538358
3.94051e-10
0.00255056
-7.07919e-10
0.000517315
3.32386e-11
8.54663e-05
-8.30191e-13
1.37476e-05
-6.24132e-12
2.20637e-06
-1.92812e-12
3.5384e-07
-4.44299e-13
5.67155e-08
-9.06396e-14
9.08546e-09
-1.74619e-14
1.45444e-09
-3.27863e-15
2.32637e-10
-5.85903e-16
3.71718e-11
-1.22515e-16
5.93199e-12
-1.34441e-17
9.45207e-13
-3.57787e-18
1.50341e-13
-6.72205e-18
2.38594e-14
9.75782e-19
3.78126e-15
-3.25261e-18
5.90457e-16
3.25261e-18
8.93383e-17
1.0842e-19
1.58294e-17
-4.01155e-18
7.58942e-18
1.0842e-19
0
-8.67362e-19
-1.30104e-18
-1.19262e-18
-2.81893e-18
1.6263e-18
-5.42101e-18
8.67362e-19
-7.80626e-18
9.75782e-19
-1.0842e-17
2.1684e-18
-1.30104e-17
1.6263e-18
4.01155e-18
-9.36751e-17
-8.67362e-17
-6.93889e-17
-5.20417e-17
-5.89806e-17
-2.42861e-17
-1.73472e-17
1.38778e-17
5.55112e-17
3.60822e-16
1.81105e-15
8.35443e-15
3.73486e-14
1.64715e-13
7.15202e-13
3.05256e-12
1.28015e-11
5.26855e-11
2.12532e-10
8.39162e-10
3.23788e-09
1.2186e-08
4.46387e-08
1.5874e-07
5.46302e-07
1.81244e-06
5.76806e-06
1.74934e-05
5.01011e-05
0.000133729
0.000326335
0.000709931
0.00134495
0.0022059
0.00319323
0.00421095
0.00520099
0.0061309
0.00698477
0.00775543
0.00844107
0.00904214
0.00956159
0.0100038
0.0103742
0.0106783
0.01092
0.0110993
0.011214
0.011268
0.0112833
0.0113027
0.0113433
0.011407
0.0114346
0.011423
0.0113551
0.011152
0.0107639
0.0101664
0.00943864
0.00871238
0.00809541
0.00765624
0.00740369
0.00729644
0.0072674
0.00724586
0.0071918
0.00704442
0.00662314
0.00538359
0.00255056
0.000517315
8.54663e-05
1.37477e-05
2.20638e-06
3.53841e-07
5.67157e-08
9.0855e-09
1.45445e-09
2.32638e-10
3.71721e-11
5.93204e-12
9.45222e-13
1.50337e-13
2.38622e-14
3.78278e-15
6.00214e-16
9.17235e-17
1.21431e-17
4.33681e-19
-1.30104e-18
-1.73472e-18
4.33681e-19
1.73472e-18
3.03577e-18
4.33681e-18
4.77049e-18
)
;

boundaryField
{
    sides1
    {
        type            calculated;
        value           nonuniform List<scalar> 
20
(
-1.51788e-18
-2.51535e-17
9.1073e-18
-1.4962e-17
-1.36609e-17
1.38778e-17
-1.53957e-17
-4.77049e-18
-1.38778e-17
1.01915e-17
-9.02056e-17
-5.55112e-17
-6.93889e-18
-7.97973e-17
3.81639e-17
-2.08167e-17
1.38778e-16
6.245e-17
2.42861e-16
1.04083e-16
)
;
    }
    sides2
    {
        type            calculated;
        value           uniform 0;
    }
    empty
    {
        type            empty;
        value           nonuniform 0();
    }
}


// ************************************************************************* //
