/*--------------------------------*- C++ -*----------------------------------*\
| =========                 |                                                 |
| \\      /  F ield         | OpenFOAM: The Open Source CFD Toolbox           |
|  \\    /   O peration     | Version:  3.0.1                                 |
|   \\  /    A nd           | Web:      www.OpenFOAM.org                      |
|    \\/     M anipulation  |                                                 |
\*---------------------------------------------------------------------------*/
FoamFile
{
    version     2.0;
    format      ascii;
    class       volScalarField;
    location    "0.00015";
    object      rho;
}
// * * * * * * * * * * * * * * * * * * * * * * * * * * * * * * * * * * * * * //

dimensions      [1 -3 0 0 0 0 0];

internalField   nonuniform List<scalar> 
1000
(
0.831556
0.831556
0.831556
0.831556
0.831556
0.831556
0.831556
0.831556
0.831556
0.831556
0.831556
0.831556
0.831556
0.831556
0.831556
0.831556
0.831556
0.831556
0.831556
0.831556
0.831556
0.831556
0.831556
0.831554
0.831547
0.831526
0.831457
0.831251
0.830663
0.829109
0.825396
0.817617
0.803846
0.783618
0.758412
0.730312
0.700856
0.670996
0.641324
0.612185
0.583798
0.556316
0.529845
0.504448
0.480161
0.456952
0.434903
0.414477
0.396654
0.383858
0.377496
0.375298
0.374676
0.374273
0.373725
0.37381
0.373505
0.367884
0.356738
0.340732
0.318562
0.294085
0.271959
0.254675
0.243522
0.237798
0.235955
0.235399
0.235017
0.233845
0.230487
0.220805
0.193082
0.140887
0.111181
0.105139
0.104141
0.103981
0.103955
0.103951
0.10395
0.10395
0.10395
0.10395
0.10395
0.10395
0.10395
0.10395
0.10395
0.10395
0.10395
0.10395
0.10395
0.10395
0.10395
0.10395
0.10395
0.10395
0.10395
0.10395
0.831556
0.831556
0.831556
0.831556
0.831556
0.831556
0.831556
0.831556
0.831556
0.831556
0.831556
0.831556
0.831556
0.831556
0.831556
0.831556
0.831556
0.831556
0.831556
0.831556
0.831556
0.831556
0.831556
0.831554
0.831547
0.831526
0.831457
0.831251
0.830663
0.82911
0.825397
0.817618
0.803848
0.78362
0.758413
0.730312
0.700855
0.670994
0.641319
0.612179
0.583792
0.556309
0.529839
0.504446
0.480156
0.456953
0.434949
0.4144
0.396692
0.383926
0.377418
0.375343
0.374693
0.374245
0.373753
0.373814
0.373519
0.367879
0.356633
0.340658
0.318405
0.293928
0.271857
0.254629
0.243504
0.237798
0.235976
0.235404
0.235017
0.23384
0.230485
0.220802
0.193083
0.140892
0.111183
0.10514
0.104141
0.103981
0.103955
0.103951
0.10395
0.10395
0.10395
0.10395
0.10395
0.10395
0.10395
0.10395
0.10395
0.10395
0.10395
0.10395
0.10395
0.10395
0.10395
0.10395
0.10395
0.10395
0.10395
0.10395
0.831556
0.831556
0.831556
0.831556
0.831556
0.831556
0.831556
0.831556
0.831556
0.831556
0.831556
0.831556
0.831556
0.831556
0.831556
0.831556
0.831556
0.831556
0.831556
0.831556
0.831556
0.831556
0.831556
0.831554
0.831547
0.831526
0.831458
0.831251
0.830663
0.82911
0.825397
0.817619
0.80385
0.783621
0.758413
0.73031
0.700852
0.670989
0.641313
0.612173
0.583787
0.556306
0.529838
0.504448
0.480153
0.456949
0.434921
0.414419
0.396714
0.383951
0.377471
0.375316
0.374687
0.374251
0.373732
0.373833
0.373513
0.367927
0.356849
0.340862
0.31873
0.294232
0.272071
0.254777
0.243586
0.237902
0.235912
0.235407
0.235013
0.233833
0.230482
0.220809
0.193108
0.14092
0.11119
0.105141
0.104141
0.103981
0.103955
0.103951
0.10395
0.10395
0.10395
0.10395
0.10395
0.10395
0.10395
0.10395
0.10395
0.10395
0.10395
0.10395
0.10395
0.10395
0.10395
0.10395
0.10395
0.10395
0.10395
0.10395
0.831556
0.831556
0.831556
0.831556
0.831556
0.831556
0.831556
0.831556
0.831556
0.831556
0.831556
0.831556
0.831556
0.831556
0.831556
0.831556
0.831556
0.831556
0.831556
0.831556
0.831556
0.831556
0.831556
0.831554
0.831547
0.831526
0.831458
0.831251
0.830663
0.82911
0.825398
0.817621
0.803852
0.783623
0.758415
0.73031
0.700849
0.670985
0.641308
0.612166
0.583779
0.556298
0.52983
0.504442
0.480145
0.456955
0.434907
0.414456
0.396697
0.383912
0.377489
0.375313
0.374702
0.374271
0.373754
0.373886
0.3736
0.367984
0.356822
0.340873
0.318757
0.29426
0.272095
0.254804
0.243604
0.237915
0.235912
0.235401
0.235006
0.233823
0.230472
0.220805
0.193123
0.140948
0.111198
0.105142
0.104142
0.103981
0.103955
0.103951
0.10395
0.10395
0.10395
0.10395
0.10395
0.10395
0.10395
0.10395
0.10395
0.10395
0.10395
0.10395
0.10395
0.10395
0.10395
0.10395
0.10395
0.10395
0.10395
0.10395
0.831556
0.831556
0.831556
0.831556
0.831556
0.831556
0.831556
0.831556
0.831556
0.831556
0.831556
0.831556
0.831556
0.831556
0.831556
0.831556
0.831556
0.831556
0.831556
0.831556
0.831556
0.831556
0.831556
0.831554
0.831547
0.831526
0.831458
0.831251
0.830663
0.829111
0.825399
0.817622
0.803854
0.783625
0.758416
0.730311
0.700849
0.670983
0.641304
0.612161
0.583772
0.556288
0.529819
0.50443
0.480137
0.456945
0.434906
0.414418
0.396678
0.383907
0.377471
0.375333
0.374714
0.374283
0.373768
0.37389
0.373594
0.367987
0.356833
0.34086
0.318734
0.294234
0.272078
0.254793
0.243597
0.237913
0.235915
0.235402
0.235006
0.23382
0.230471
0.220809
0.19314
0.140971
0.111204
0.105143
0.104142
0.103981
0.103955
0.103951
0.10395
0.10395
0.10395
0.10395
0.10395
0.10395
0.10395
0.10395
0.10395
0.10395
0.10395
0.10395
0.10395
0.10395
0.10395
0.10395
0.10395
0.10395
0.10395
0.10395
0.831556
0.831556
0.831556
0.831556
0.831556
0.831556
0.831556
0.831556
0.831556
0.831556
0.831556
0.831556
0.831556
0.831556
0.831556
0.831556
0.831556
0.831556
0.831556
0.831556
0.831556
0.831556
0.831556
0.831554
0.831547
0.831526
0.831458
0.831251
0.830663
0.829111
0.825399
0.817623
0.803855
0.783627
0.758418
0.730313
0.70085
0.670983
0.641304
0.61216
0.583768
0.556283
0.529812
0.504419
0.480124
0.45693
0.434887
0.414415
0.396655
0.383888
0.377472
0.375321
0.374712
0.374293
0.373772
0.373894
0.373604
0.368004
0.35685
0.340867
0.318735
0.294237
0.27208
0.254793
0.243598
0.237911
0.235916
0.235404
0.235003
0.233821
0.230472
0.220812
0.193155
0.140987
0.111208
0.105144
0.104142
0.103981
0.103955
0.103951
0.10395
0.10395
0.10395
0.10395
0.10395
0.10395
0.10395
0.10395
0.10395
0.10395
0.10395
0.10395
0.10395
0.10395
0.10395
0.10395
0.10395
0.10395
0.10395
0.10395
0.831556
0.831556
0.831556
0.831556
0.831556
0.831556
0.831556
0.831556
0.831556
0.831556
0.831556
0.831556
0.831556
0.831556
0.831556
0.831556
0.831556
0.831556
0.831556
0.831556
0.831556
0.831556
0.831556
0.831554
0.831547
0.831526
0.831458
0.831251
0.830663
0.829111
0.825399
0.817623
0.803856
0.783628
0.75842
0.730315
0.700852
0.670985
0.641304
0.61216
0.583768
0.556282
0.52981
0.504415
0.480119
0.456919
0.434878
0.4144
0.396638
0.38387
0.377444
0.3753
0.374702
0.374291
0.373775
0.373896
0.373602
0.368002
0.35686
0.340868
0.318722
0.294254
0.272098
0.254785
0.243598
0.23785
0.23597
0.235404
0.23501
0.233835
0.230477
0.22082
0.193165
0.140995
0.11121
0.105144
0.104142
0.103981
0.103955
0.103951
0.10395
0.10395
0.10395
0.10395
0.10395
0.10395
0.10395
0.10395
0.10395
0.10395
0.10395
0.10395
0.10395
0.10395
0.10395
0.10395
0.10395
0.10395
0.10395
0.10395
0.831556
0.831556
0.831556
0.831556
0.831556
0.831556
0.831556
0.831556
0.831556
0.831556
0.831556
0.831556
0.831556
0.831556
0.831556
0.831556
0.831556
0.831556
0.831556
0.831556
0.831556
0.831556
0.831556
0.831554
0.831547
0.831526
0.831458
0.831251
0.830663
0.829111
0.8254
0.817623
0.803856
0.783629
0.758421
0.730316
0.700853
0.670986
0.641306
0.612161
0.583769
0.556283
0.52981
0.504415
0.480118
0.456916
0.434876
0.414391
0.39663
0.383855
0.377424
0.37528
0.374682
0.374274
0.373763
0.373887
0.373598
0.367994
0.356858
0.340872
0.318737
0.294259
0.272079
0.25477
0.243602
0.23787
0.235952
0.235413
0.235029
0.233841
0.230482
0.220825
0.193171
0.140998
0.111211
0.105144
0.104142
0.103981
0.103955
0.103951
0.10395
0.10395
0.10395
0.10395
0.10395
0.10395
0.10395
0.10395
0.10395
0.10395
0.10395
0.10395
0.10395
0.10395
0.10395
0.10395
0.10395
0.10395
0.10395
0.10395
0.831556
0.831556
0.831556
0.831556
0.831556
0.831556
0.831556
0.831556
0.831556
0.831556
0.831556
0.831556
0.831556
0.831556
0.831556
0.831556
0.831556
0.831556
0.831556
0.831556
0.831556
0.831556
0.831556
0.831554
0.831547
0.831526
0.831458
0.831251
0.830663
0.829111
0.8254
0.817623
0.803856
0.783629
0.758421
0.730316
0.700854
0.670987
0.641307
0.612162
0.58377
0.556284
0.529811
0.504415
0.480119
0.456917
0.434876
0.414389
0.39663
0.383849
0.377415
0.37527
0.374667
0.374256
0.373748
0.373873
0.373589
0.367987
0.356852
0.340868
0.318738
0.294263
0.272077
0.254767
0.243603
0.237874
0.235955
0.235415
0.235031
0.233843
0.230484
0.220827
0.193172
0.140999
0.111211
0.105144
0.104142
0.103981
0.103955
0.103951
0.10395
0.10395
0.10395
0.10395
0.10395
0.10395
0.10395
0.10395
0.10395
0.10395
0.10395
0.10395
0.10395
0.10395
0.10395
0.10395
0.10395
0.10395
0.10395
0.10395
0.831556
0.831556
0.831556
0.831556
0.831556
0.831556
0.831556
0.831556
0.831556
0.831556
0.831556
0.831556
0.831556
0.831556
0.831556
0.831556
0.831556
0.831556
0.831556
0.831556
0.831556
0.831556
0.831556
0.831554
0.831547
0.831526
0.831458
0.831251
0.830663
0.829111
0.8254
0.817623
0.803856
0.783629
0.758421
0.730316
0.700854
0.670988
0.641308
0.612163
0.583771
0.556285
0.529812
0.504416
0.480119
0.456917
0.434877
0.414389
0.39663
0.383849
0.377413
0.375268
0.374662
0.374249
0.373739
0.373862
0.373578
0.367978
0.356847
0.340864
0.318734
0.294259
0.272075
0.254765
0.243602
0.237874
0.235955
0.235416
0.235032
0.233844
0.230484
0.220827
0.193172
0.140999
0.111211
0.105144
0.104142
0.103981
0.103955
0.103951
0.10395
0.10395
0.10395
0.10395
0.10395
0.10395
0.10395
0.10395
0.10395
0.10395
0.10395
0.10395
0.10395
0.10395
0.10395
0.10395
0.10395
0.10395
0.10395
0.10395
)
;

boundaryField
{
    sides1
    {
        type            calculated;
        value           nonuniform List<scalar> 
20
(
0.10395
0.10395
0.10395
0.10395
0.10395
0.10395
0.10395
0.10395
0.10395
0.10395
0.831556
0.831556
0.831556
0.831556
0.831556
0.831556
0.831556
0.831556
0.831556
0.831556
)
;
    }
    sides2
    {
        type            calculated;
        value           nonuniform List<scalar> 
200
(
0.831556
0.831556
0.831556
0.831556
0.831556
0.831556
0.831556
0.831556
0.831556
0.831556
0.831556
0.831556
0.831556
0.831556
0.831556
0.831556
0.831556
0.831556
0.831556
0.831556
0.831556
0.831556
0.831556
0.831554
0.831547
0.831526
0.831457
0.831251
0.830663
0.829109
0.825396
0.817617
0.803846
0.783618
0.758412
0.730312
0.700856
0.670996
0.641324
0.612185
0.583798
0.556316
0.529845
0.504448
0.480161
0.456952
0.434903
0.414477
0.396654
0.383858
0.377496
0.375298
0.374676
0.374273
0.373725
0.37381
0.373505
0.367884
0.356738
0.340732
0.318562
0.294085
0.271959
0.254675
0.243522
0.237798
0.235955
0.235399
0.235017
0.233845
0.230487
0.220805
0.193082
0.140887
0.111181
0.105139
0.104141
0.103981
0.103955
0.103951
0.10395
0.10395
0.10395
0.10395
0.10395
0.10395
0.10395
0.10395
0.10395
0.10395
0.10395
0.10395
0.10395
0.10395
0.10395
0.10395
0.10395
0.10395
0.10395
0.10395
0.831556
0.831556
0.831556
0.831556
0.831556
0.831556
0.831556
0.831556
0.831556
0.831556
0.831556
0.831556
0.831556
0.831556
0.831556
0.831556
0.831556
0.831556
0.831556
0.831556
0.831556
0.831556
0.831556
0.831554
0.831547
0.831526
0.831458
0.831251
0.830663
0.829111
0.8254
0.817623
0.803856
0.783629
0.758421
0.730316
0.700854
0.670988
0.641308
0.612163
0.583771
0.556285
0.529812
0.504416
0.480119
0.456917
0.434877
0.414389
0.39663
0.383849
0.377413
0.375268
0.374662
0.374249
0.373739
0.373862
0.373578
0.367978
0.356847
0.340864
0.318734
0.294259
0.272075
0.254765
0.243602
0.237874
0.235955
0.235416
0.235032
0.233844
0.230484
0.220827
0.193172
0.140999
0.111211
0.105144
0.104142
0.103981
0.103955
0.103951
0.10395
0.10395
0.10395
0.10395
0.10395
0.10395
0.10395
0.10395
0.10395
0.10395
0.10395
0.10395
0.10395
0.10395
0.10395
0.10395
0.10395
0.10395
0.10395
0.10395
)
;
    }
    empty
    {
        type            empty;
    }
}


// ************************************************************************* //
