/*--------------------------------*- C++ -*----------------------------------*\
| =========                 |                                                 |
| \\      /  F ield         | OpenFOAM: The Open Source CFD Toolbox           |
|  \\    /   O peration     | Version:  3.0.1                                 |
|   \\  /    A nd           | Web:      www.OpenFOAM.org                      |
|    \\/     M anipulation  |                                                 |
\*---------------------------------------------------------------------------*/
FoamFile
{
    version     2.0;
    format      ascii;
    class       surfaceScalarField;
    location    "0.00015";
    object      phi;
}
// * * * * * * * * * * * * * * * * * * * * * * * * * * * * * * * * * * * * * //

dimensions      [1 0 -1 0 0 0 0];

internalField   nonuniform List<scalar> 
1890
(
-3.31998e-10
1.07861e-11
-2.31953e-10
-1.52539e-12
-1.73483e-10
4.92377e-12
-1.61888e-10
1.77872e-11
-1.71615e-10
1.95988e-11
-1.79134e-10
-2.4349e-11
-1.77021e-10
-8.12892e-11
-1.37066e-10
-1.39678e-10
-1.95727e-10
-1.1778e-10
-3.01326e-10
-1.01157e-10
-4.08833e-10
-8.03973e-11
-5.26321e-10
-6.37314e-11
-4.98442e-10
-6.69753e-11
-1.47324e-10
-8.78746e-11
7.84858e-10
-7.57579e-11
3.41051e-09
-9.79137e-11
1.02789e-08
-3.17251e-10
2.61347e-08
-2.82406e-10
6.21507e-08
-8.57233e-10
1.34543e-07
-2.90106e-09
2.71792e-07
-6.15954e-09
5.27988e-07
-1.16771e-08
1.03064e-06
-1.81486e-08
2.03273e-06
-4.912e-08
3.92412e-06
-4.97268e-08
7.27741e-06
-7.44542e-08
1.35761e-05
-2.19491e-07
2.44413e-05
-4.0865e-07
4.3219e-05
-6.51368e-07
7.22166e-05
-5.91415e-07
0.000117739
-1.20097e-06
0.000187785
-3.27224e-06
0.000289104
-3.92444e-06
0.0004242
-4.67858e-06
0.000611432
-4.12228e-06
0.000804925
-7.38123e-06
0.00101147
-5.51877e-06
0.00121266
-1.27569e-06
0.00136216
6.66665e-07
0.00147787
-4.91865e-06
0.00153304
-1.89056e-06
0.00156927
2.76858e-07
0.00158101
3.6453e-07
0.00158614
1.89801e-07
0.00159537
1.01126e-06
0.00160232
1.19311e-06
0.00160737
1.51715e-06
0.00161116
3.00222e-07
0.00161254
9.2707e-07
0.00160506
1.49964e-06
0.0015829
1.25345e-06
0.00155255
-1.02886e-07
0.00152638
-2.96347e-06
0.00151024
-3.57385e-06
0.00149679
-5.48707e-07
0.00148491
4.69624e-07
0.00147421
2.53881e-08
0.00146116
1.25933e-06
0.00144676
1.80209e-06
0.00141096
2.16866e-06
0.00135155
3.96328e-07
0.00124254
4.73577e-07
0.0010805
2.03844e-06
0.000879978
1.41861e-06
0.000659729
2.95246e-06
0.000464194
3.60297e-07
0.000306462
2.05193e-06
0.000191231
7.04186e-07
0.000116702
4.08603e-07
6.82475e-05
-2.49427e-07
3.8576e-05
-3.26675e-08
2.12515e-05
4.72486e-07
1.13741e-05
6.11075e-08
6.02629e-06
1.14753e-07
3.06263e-06
6.66655e-08
1.54429e-06
5.37906e-08
7.71699e-07
1.27081e-08
3.7742e-07
1.11343e-08
1.8592e-07
4.28189e-09
8.74445e-08
4.00841e-09
4.0786e-08
1.67916e-09
1.91246e-08
5.02484e-10
8.98621e-09
3.00742e-10
4.23813e-09
1.1462e-10
1.90604e-09
1.10915e-10
8.7443e-10
2.56003e-11
3.78497e-10
9.89168e-12
1.59031e-10
-4.78069e-12
6.71174e-11
-6.56283e-12
1.14796e-11
-6.44187e-12
-1.05593e-11
-6.8982e-12
-2.08808e-11
-6.08507e-12
-2.6703e-11
-4.09934e-12
-3.05621e-11
-2.10947e-12
-3.25624e-11
-1.06378e-12
-3.23099e-11
2.95402e-13
-3.04631e-11
3.22234e-12
-2.7847e-11
5.43615e-12
-2.13243e-11
7.26796e-13
3.15489e-12
-2.88161e-10
-7.38827e-12
-2.28623e-10
-2.00579e-11
-1.75925e-10
-1.1938e-11
-1.45663e-10
-1.0862e-11
-1.43462e-10
1.13864e-11
-1.67484e-10
-6.02544e-11
-2.17272e-10
-1.35418e-10
-2.89846e-10
-2.08035e-10
-3.49873e-10
-2.32249e-10
-4.12639e-10
-2.38235e-10
-5.04043e-10
-2.31708e-10
-5.92696e-10
-2.23538e-10
-5.45404e-10
-2.38451e-10
-2.00737e-10
-2.48612e-10
6.77439e-10
-1.77723e-10
3.18755e-09
-1.14997e-10
8.39568e-09
2.25643e-10
2.25224e-08
-1.09158e-11
5.55524e-08
-4.40559e-10
1.22884e-07
-2.64645e-09
2.43391e-07
-4.94973e-09
4.70291e-07
-1.08008e-08
8.88885e-07
-7.22612e-09
1.7369e-06
-3.09583e-08
3.42338e-06
-2.84969e-08
6.74945e-06
-9.25179e-08
1.2366e-05
-1.18934e-07
2.21153e-05
-1.78773e-07
4.1606e-05
-6.75545e-07
7.09461e-05
-9.35902e-07
0.000113894
-1.54038e-06
0.000174241
-2.0841e-06
0.000274435
-4.3115e-06
0.000404271
-5.31762e-06
0.000588152
-7.26142e-06
0.000777927
-9.92798e-06
0.000992168
-1.01648e-05
0.00118421
-7.58385e-06
0.00135199
-7.6959e-07
0.00145698
-9.0612e-06
0.00151578
-6.1479e-06
0.00155853
-6.72855e-06
0.00156966
1.07496e-06
0.00156737
3.30919e-06
0.00157105
5.426e-06
0.00157436
4.75913e-06
0.00157711
4.02896e-06
0.00158199
1.07183e-06
0.00158658
2.49746e-06
0.00157928
4.434e-06
0.00156283
2.39633e-06
0.00153811
-2.65765e-07
0.00151611
-3.95682e-06
0.00149968
-4.13057e-06
0.00149231
-2.52635e-06
0.00148264
1.00379e-06
0.00146953
2.33093e-06
0.00145396
9.57051e-06
0.00143348
9.60157e-06
0.00139622
8.28208e-06
0.00132895
7.63849e-06
0.00121158
7.30284e-06
0.00104396
6.66807e-06
0.000838054
4.2899e-07
0.000625698
-1.43443e-06
0.000432716
-3.17203e-06
0.000285315
-4.11675e-06
0.000177349
-3.38642e-06
0.00010726
-2.91667e-06
6.22924e-05
-2.51061e-06
3.4694e-05
-1.74833e-06
1.94681e-05
-8.7471e-07
9.80006e-06
-2.3528e-07
5.31496e-06
-9.8291e-08
2.54068e-06
-1.01409e-07
1.3602e-06
-1.12965e-07
6.66803e-07
-5.40705e-08
3.34323e-07
-2.06344e-08
1.61679e-07
-6.71262e-09
7.43915e-08
-4.69645e-10
3.62334e-08
-1.22196e-09
1.65588e-08
-6.33578e-10
7.60842e-09
-3.6144e-10
3.48414e-09
-1.4496e-10
1.62874e-09
-1.37519e-10
7.05022e-10
-4.46234e-11
3.15134e-10
-2.47991e-11
1.31157e-10
-2.16176e-11
4.60272e-11
-1.73868e-11
1.74029e-12
-1.7521e-11
-1.44467e-11
-1.49913e-11
-1.75153e-11
-1.12324e-11
-2.24812e-11
-8.09707e-12
-2.42125e-11
-6.13443e-12
-2.49954e-11
-3.43835e-12
-2.80497e-11
3.15513e-12
-2.48497e-11
4.8138e-12
-2.11522e-11
4.1625e-12
-1.94482e-11
2.3165e-12
4.25164e-12
-1.87704e-10
-5.24769e-11
-1.69138e-10
-5.96855e-11
-1.39994e-10
-5.06956e-11
-1.27784e-10
-5.04755e-11
-1.27276e-10
-6.86834e-11
-1.53441e-10
-1.24988e-10
-2.32626e-10
-1.76009e-10
-3.39946e-10
-2.57215e-10
-4.59733e-10
-3.05751e-10
-5.88982e-10
-3.30107e-10
-7.22261e-10
-3.85438e-10
-7.90772e-10
-4.09948e-10
-6.6039e-10
-4.87876e-10
-1.84776e-10
-4.95358e-10
9.74211e-10
-4.65981e-10
3.9477e-09
-4.17556e-10
1.11539e-08
-4.47715e-10
2.62445e-08
-6.51964e-10
5.73091e-08
-8.64899e-10
1.20339e-07
-1.58965e-09
2.28567e-07
1.13713e-09
4.31511e-07
-2.75075e-09
8.81024e-07
-3.90502e-09
1.66622e-06
-2.20213e-09
3.5131e-06
-1.20082e-07
6.82605e-06
-1.04897e-07
1.27186e-05
-3.62976e-07
2.35552e-05
-5.05374e-08
4.36177e-05
-1.32499e-06
7.18398e-05
-1.23233e-06
0.000115865
-1.57469e-06
0.000173087
-2.72774e-06
0.000276286
-4.21329e-06
0.000411098
-8.39412e-06
0.000594497
-1.23007e-05
0.000789386
-1.21661e-05
0.00100985
-1.09215e-05
0.00116316
-1.89232e-06
0.00134169
-3.92278e-06
0.0014384
-8.07306e-06
0.00150127
-7.90593e-06
0.0015322
-1.78427e-06
0.00153984
4.78023e-06
0.00153853
8.07845e-06
0.00153849
1.19567e-05
0.00153857
9.96665e-06
0.00154033
6.86041e-06
0.00153928
5.40198e-06
0.00154119
1.14457e-06
0.00154161
4.09159e-06
0.00153019
3.05556e-06
0.00151621
-1.6098e-06
0.00150004
-5.77098e-06
0.00148949
-6.97425e-06
0.00148348
-5.94849e-06
0.00147787
-3.07927e-06
0.00146553
1.08724e-06
0.00145427
9.65975e-06
0.00144196
8.65675e-06
0.00141054
8.56145e-06
0.00134822
7.33247e-06
0.00123095
8.36603e-06
0.00106333
5.59618e-06
0.000852252
1.54271e-06
0.000640468
-9.49278e-07
0.000452487
-4.33966e-06
0.00029834
-2.49804e-06
0.000191128
-4.76749e-06
0.000119307
-2.19258e-06
7.1587e-05
-2.16409e-06
3.93316e-05
-2.00888e-06
2.1419e-05
-1.10245e-06
1.07683e-05
-2.36714e-07
6.15445e-06
-2.41984e-07
3.24934e-06
-4.4007e-08
1.66915e-06
-1.10322e-07
7.98427e-07
-4.71831e-08
3.80535e-07
-1.63195e-08
1.75473e-07
3.57894e-09
8.48229e-08
-1.54264e-09
4.1362e-08
-4.41093e-10
1.94017e-08
-4.90921e-10
8.52325e-09
-2.39547e-10
4.29526e-09
-2.61098e-10
1.90641e-09
-9.32178e-11
7.57887e-10
-4.17927e-11
3.24463e-10
-4.14235e-11
1.24898e-10
-3.07531e-11
4.38689e-11
-2.71029e-11
9.37044e-12
-2.46683e-11
-6.79259e-12
-2.25363e-11
-8.17143e-12
-1.9165e-11
-6.76532e-12
-1.86872e-11
-6.82406e-12
-1.006e-11
-9.638e-12
-6.23048e-12
-9.69629e-12
-1.00747e-12
-9.96386e-12
-2.42522e-13
-1.03821e-11
-1.80234e-13
-1.18663e-11
-1.04792e-12
4.73104e-13
-1.75973e-10
-1.11379e-10
-1.83451e-10
-1.13118e-10
-1.61005e-10
-1.10522e-10
-1.39788e-10
-1.11771e-10
-1.61351e-10
-1.29828e-10
-2.20794e-10
-1.71278e-10
-3.42946e-10
-1.95576e-10
-5.07156e-10
-2.42587e-10
-6.64542e-10
-2.90765e-10
-8.41245e-10
-3.6174e-10
-1.01834e-09
-4.73464e-10
-1.04884e-09
-6.02731e-10
-8.79948e-10
-6.99756e-10
-3.39811e-10
-7.53877e-10
1.02957e-09
-8.25332e-10
4.31431e-09
-8.39857e-10
1.06749e-08
-3.11895e-10
2.55584e-08
-9.0805e-10
5.38355e-08
-8.77858e-10
1.13816e-07
-7.11235e-10
2.34679e-07
-1.92959e-09
4.71411e-07
-5.80823e-09
9.31183e-07
-1.40335e-08
1.82781e-06
-1.7242e-08
3.34253e-06
-4.47029e-08
7.1203e-06
-3.04748e-07
1.25624e-05
-3.33747e-07
2.51931e-05
-6.48855e-07
4.23986e-05
-1.20755e-06
6.86176e-05
-1.03874e-06
0.000115507
-3.25574e-06
0.00017362
-3.83227e-06
0.000267464
-4.27904e-06
0.000391576
-5.97096e-06
0.00057362
-3.19635e-06
0.000764509
-1.39076e-05
0.000976317
-7.79867e-06
0.00115201
-4.68537e-06
0.00131434
1.3177e-07
0.00141983
-7.87886e-07
0.00147206
6.85389e-07
0.00150253
2.12451e-06
0.00150823
5.26813e-06
0.00151578
8.20682e-06
0.00151988
1.16252e-05
0.00152095
1.14577e-05
0.00151992
9.08014e-06
0.00151802
4.08952e-06
0.00151751
-9.6998e-07
0.00151822
1.39904e-06
0.00152138
-4.69695e-06
0.00151013
-3.24743e-06
0.00149603
-5.94851e-06
0.00148591
-5.92606e-06
0.00148028
-4.99956e-06
0.00147404
-2.01386e-06
0.00146139
2.13436e-06
0.00145661
5.19689e-06
0.00144717
7.5747e-06
0.00142004
7.7449e-06
0.00135848
6.19305e-06
0.00124172
3.10868e-06
0.00106954
2.94297e-06
0.000850875
2.5551e-06
0.000647178
1.56994e-06
0.000448927
2.95075e-07
0.000307323
-2.96588e-06
0.000187828
-2.36882e-06
0.000122385
-1.30657e-06
7.68453e-05
-2.74967e-06
4.24473e-05
-8.96757e-07
2.2423e-05
-2.74294e-07
1.11122e-05
-6.60063e-08
6.39771e-06
-1.32894e-07
3.80095e-06
-7.70109e-08
1.96574e-06
-3.6998e-09
8.74643e-07
5.61305e-09
4.01547e-07
-6.23573e-10
1.82844e-07
-3.67617e-10
8.64756e-08
-2.18607e-09
4.28468e-08
-1.83613e-11
2.0863e-08
-9.33598e-10
9.52572e-09
-1.63893e-10
4.5562e-09
-2.4225e-10
1.99591e-09
-6.96734e-11
8.60416e-10
-5.38914e-11
3.59657e-10
-4.9985e-11
1.38475e-10
-2.86879e-11
4.12867e-11
-2.81293e-11
4.9468e-12
-2.57911e-11
-6.03614e-12
-2.70434e-11
-7.33339e-12
-3.04973e-11
-2.96643e-13
-2.65534e-11
8.72062e-12
-2.38427e-11
1.7151e-11
-1.96439e-11
1.96267e-11
-1.62195e-11
1.61221e-11
-1.43896e-11
1.18945e-11
-1.29578e-11
6.7858e-12
-1.14407e-11
-8.8838e-12
-1.41539e-10
-1.29208e-10
-1.7938e-10
-1.27554e-10
-1.91958e-10
-1.33466e-10
-2.00761e-10
-1.31302e-10
-2.53483e-10
-1.44749e-10
-3.50604e-10
-1.81191e-10
-5.01956e-10
-2.02295e-10
-7.18613e-10
-1.99687e-10
-9.49491e-10
-2.79846e-10
-1.17584e-09
-3.80786e-10
-1.35851e-09
-5.20615e-10
-1.40818e-09
-6.89366e-10
-1.2442e-09
-8.53071e-10
-7.29809e-10
-9.13494e-10
3.99856e-10
-1.06962e-09
2.99673e-09
-1.08826e-09
9.28556e-09
-1.30068e-09
2.33472e-08
-2.05345e-09
5.33029e-08
-1.74142e-09
1.20628e-07
-3.03374e-09
2.47327e-07
-5.02843e-09
4.89004e-07
-3.37023e-09
9.62601e-07
-2.63367e-08
1.77161e-06
-4.83077e-08
3.57064e-06
-1.37293e-07
6.78178e-06
-3.57012e-07
1.22019e-05
-4.23628e-07
2.18715e-05
-8.31027e-07
3.70931e-05
-1.18242e-06
6.40463e-05
-1.73734e-06
0.000108401
-3.49229e-06
0.000168048
-4.5219e-06
0.000266652
-3.76569e-06
0.000389883
-4.69157e-06
0.000568648
-4.58702e-06
0.000741588
-1.22585e-07
0.00095491
2.87786e-06
0.00114477
-5.71658e-06
0.0013098
1.56123e-06
0.00141246
5.06996e-06
0.00147056
1.00977e-05
0.00149291
7.07619e-06
0.00150192
6.04518e-06
0.00150565
7.67566e-06
0.0015127
6.77462e-06
0.00151751
6.39437e-06
0.00151987
5.58011e-06
0.0015167
4.03092e-06
0.00151326
-3.46054e-06
0.00151684
-6.85483e-06
0.00151816
-9.53002e-06
0.00151281
-8.35334e-06
0.00149811
-5.92157e-06
0.00148648
-3.71375e-06
0.00148387
-2.45878e-06
0.00148105
1.90104e-06
0.00147553
3.93809e-06
0.00146732
5.47073e-06
0.00145963
3.46872e-06
0.00143111
4.39975e-06
0.0013744
-9.61594e-07
0.00125969
-7.49146e-07
0.00108899
5.61855e-07
0.00087311
5.00906e-06
0.000664725
8.81009e-06
0.000464181
9.44625e-06
0.000314177
9.92275e-07
0.00019675
1.60471e-07
0.000125149
-9.99163e-07
7.27105e-05
-5.7347e-07
4.12562e-05
-3.92053e-07
2.256e-05
-7.96992e-08
1.19359e-05
-1.10278e-08
6.57804e-06
-1.82857e-08
3.47283e-06
1.4075e-08
1.80441e-06
2.54153e-09
8.16809e-07
1.20263e-08
3.91941e-07
-9.02521e-09
1.78469e-07
-3.64688e-09
8.4267e-08
-5.2979e-09
4.36938e-08
-2.48679e-09
2.0568e-08
-1.25527e-09
9.94284e-09
-4.02956e-10
4.52103e-09
-2.89409e-10
2.04791e-09
-1.57529e-10
1.02487e-09
-4.53925e-11
3.98131e-10
-1.3961e-11
1.46108e-10
-1.2565e-11
3.01849e-11
-2.00521e-11
1.45518e-12
-2.61632e-11
-5.6116e-12
-2.75142e-11
-5.47241e-12
-2.74527e-11
4.21008e-12
-3.85937e-11
2.28745e-11
-3.84446e-11
4.01844e-11
-3.79249e-11
4.96043e-11
-3.73337e-11
4.42198e-11
-3.505e-11
3.49969e-11
-3.08471e-11
1.98295e-11
-2.81417e-11
-2.59221e-11
-7.32109e-11
-1.21139e-10
-1.29802e-10
-1.13452e-10
-1.94039e-10
-1.03687e-10
-2.72707e-10
-1.09189e-10
-3.61127e-10
-1.32651e-10
-5.68977e-10
-1.23076e-10
-8.13636e-10
-1.52911e-10
-1.04295e-09
-1.5187e-10
-1.34242e-09
-2.76402e-10
-1.62091e-09
-3.67147e-10
-1.76025e-09
-5.2823e-10
-1.73956e-09
-7.6115e-10
-1.52656e-09
-9.20855e-10
-8.77171e-10
-1.13091e-09
5.57795e-10
-1.47174e-09
3.23644e-09
-1.50806e-09
8.87608e-09
-1.61262e-09
1.95651e-08
-1.6932e-09
4.90163e-08
-2.08393e-09
1.19012e-07
-5.11358e-09
2.47942e-07
-8.49746e-09
5.22231e-07
-1.61488e-08
9.24236e-07
-9.87835e-09
1.63294e-06
5.12697e-09
3.1192e-06
-1.87571e-08
5.64022e-06
-1.46967e-07
1.0409e-05
-3.14188e-07
1.77903e-05
-3.74508e-07
3.21148e-05
-2.65265e-07
5.2528e-05
-4.4351e-07
9.09653e-05
-2.05594e-07
0.000148073
-1.20099e-06
0.000250042
-2.88393e-06
0.000373564
-3.56752e-06
0.000552995
-4.40457e-06
0.000731087
3.37526e-06
0.000970911
5.27141e-06
0.00115183
3.92583e-06
0.00131399
7.66973e-06
0.00141567
1.04138e-05
0.00147398
1.08285e-05
0.00150005
6.75178e-06
0.0015076
2.10549e-06
0.00151472
4.06857e-06
0.00152019
1.37558e-06
0.00152879
-3.30356e-07
0.0015285
5.57594e-06
0.00153022
2.57816e-06
0.00152694
-4.41118e-06
0.00152724
-1.09958e-05
0.00152493
-1.24386e-05
0.00151239
-8.52711e-06
0.00149744
-6.49886e-06
0.00149095
-4.33457e-06
0.00149016
-2.81848e-06
0.00149411
-3.04563e-06
0.00149309
5.07382e-06
0.0014912
-5.00047e-07
0.00147729
2.49481e-06
0.00144476
1.60499e-06
0.00137616
-1.76927e-06
0.00124769
3.58782e-06
0.00106894
3.26376e-06
0.000853606
8.65929e-06
0.000653688
9.71836e-06
0.000458933
1.02094e-05
0.000320414
7.83174e-06
0.000206272
2.74868e-06
0.000125063
1.58314e-06
7.21784e-05
8.63884e-07
4.13263e-05
-4.9376e-07
2.33849e-05
5.38802e-08
1.23454e-05
2.06423e-07
6.52984e-06
3.36518e-07
3.35065e-06
6.03792e-08
1.75616e-06
-1.02067e-08
8.80121e-07
9.88864e-09
4.19759e-07
4.0511e-09
2.01541e-07
-4.58679e-10
9.7817e-08
-2.71347e-09
4.88137e-08
-1.49024e-09
2.27465e-08
-5.05665e-11
1.07144e-08
-1.34387e-10
4.83584e-09
-1.00268e-10
2.03182e-09
-3.92911e-11
9.42726e-10
-2.28238e-11
3.14096e-10
7.78929e-12
9.83504e-11
6.34267e-13
2.74014e-12
-9.12872e-12
-2.32937e-11
-1.86531e-11
-3.3337e-11
-2.38045e-11
-2.87867e-11
-2.88884e-11
-1.77758e-11
-3.0421e-11
1.30189e-12
-3.86862e-11
3.58542e-11
-5.52427e-11
4.84746e-11
-5.94335e-11
4.70933e-11
-5.88598e-11
3.07191e-11
-4.83532e-11
1.1205e-12
-4.09885e-11
-3.84459e-11
-2.33202e-11
-7.32715e-11
-8.51236e-11
-6.26946e-11
-1.60811e-10
-6.09607e-11
-2.7991e-10
-5.44333e-11
-4.32936e-10
-7.16109e-11
-6.11903e-10
-1.11195e-10
-9.41229e-10
-1.03791e-10
-1.29044e-09
-2.18524e-10
-1.78852e-09
-2.02851e-10
-2.02076e-09
-3.87447e-10
-2.22643e-09
-4.68564e-10
-2.21519e-09
-6.8904e-10
-2.11579e-09
-8.53144e-10
-1.75482e-09
-1.13197e-09
-8.69553e-10
-1.43374e-09
1.86329e-09
-1.76793e-09
7.71752e-09
-1.85765e-09
1.90921e-08
-2.14678e-09
5.2207e-08
-4.06854e-09
1.18667e-07
-6.75842e-09
2.30313e-07
-1.29788e-08
4.45896e-07
-2.86199e-08
8.34932e-07
-3.73837e-08
1.8552e-06
-7.12111e-08
3.57779e-06
-1.82447e-07
6.6297e-06
-2.32482e-07
1.15278e-05
-5.00645e-07
1.80525e-05
-2.54823e-07
3.26655e-05
-4.39972e-07
5.4294e-05
-5.68476e-08
9.41527e-05
-8.43163e-07
0.000152831
-7.9371e-07
0.0002482
-1.63987e-06
0.000380083
-2.56328e-07
0.000545108
2.43554e-06
0.000737172
3.72087e-06
0.000990382
6.66777e-06
0.00117281
2.10786e-05
0.00132051
1.51883e-05
0.00142142
1.10023e-05
0.00147975
9.75197e-06
0.00151221
1.64695e-06
0.00152137
-3.20838e-06
0.00152995
-5.52576e-06
0.00153533
-5.7479e-06
0.00153678
-5.3815e-06
0.00153891
4.37955e-08
0.00154289
-1.08076e-06
0.00154444
-3.48167e-06
0.00153974
-8.39686e-06
0.00152547
-6.80975e-06
0.001506
-6.09248e-06
0.00149162
-5.20977e-06
0.00148561
-5.69979e-06
0.00148836
-5.40445e-06
0.00149283
-4.50445e-06
0.0014966
-3.62725e-06
0.00149483
-4.16497e-06
0.00148238
-2.7363e-06
0.00144398
3.30681e-06
0.00136377
6.73798e-06
0.00123488
9.97415e-06
0.00104629
1.02275e-05
0.000832238
1.03946e-05
0.000635994
7.47465e-06
0.000445103
8.61329e-06
0.000336809
3.3977e-06
0.000221338
8.47554e-06
0.000133609
6.76286e-06
7.98744e-05
4.9273e-06
4.18697e-05
2.75429e-06
2.27169e-05
8.32337e-07
1.16669e-05
6.36919e-07
6.75687e-06
3.80525e-07
3.72286e-06
1.21319e-07
1.8691e-06
9.60201e-08
9.25188e-07
3.97594e-08
4.65457e-07
1.74214e-08
2.26095e-07
1.45072e-08
1.06866e-07
7.35599e-09
5.12276e-08
2.70292e-09
2.48573e-08
1.25917e-09
1.14324e-08
7.83725e-10
5.28256e-09
3.72779e-10
2.29128e-09
1.88876e-10
9.17209e-10
7.55949e-11
2.99011e-10
4.79034e-11
9.53107e-11
-1.19464e-12
2.03428e-12
1.50054e-13
-4.36184e-11
-8.55821e-13
-6.20922e-11
-1.29086e-11
-6.71233e-11
-1.15309e-11
-4.6832e-11
-5.10159e-11
-8.04643e-12
-4.57799e-11
1.86198e-11
-5.45706e-11
3.80022e-11
-6.76918e-11
4.14201e-11
-7.05932e-11
3.11452e-11
-6.08499e-11
2.25055e-12
-5.15404e-11
-4.87725e-11
5.72428e-12
-1.70434e-11
-4.11891e-11
-2.57763e-11
-1.06122e-10
-2.47882e-11
-2.48696e-10
3.15866e-12
-4.30029e-10
-5.36403e-12
-7.15213e-10
-3.53477e-11
-1.17067e-09
-7.75681e-11
-1.66794e-09
-1.7916e-10
-2.01331e-09
-2.35949e-10
-2.49787e-09
-2.79678e-10
-2.54605e-09
-4.06011e-10
-2.60534e-09
-5.50516e-10
-2.63469e-09
-6.4787e-10
-2.38322e-09
-8.85467e-10
-1.739e-09
-1.20924e-09
-4.32846e-10
-1.24088e-09
5.4097e-09
-1.75046e-09
1.66949e-08
-2.37012e-09
4.44553e-08
-3.80146e-09
9.11066e-08
-6.5338e-09
1.76359e-07
-1.08917e-08
3.47733e-07
-1.97312e-08
7.12456e-07
-3.39915e-08
1.41015e-06
-7.12025e-08
2.73777e-06
-1.11873e-07
5.25164e-06
-2.21179e-07
9.44377e-06
-3.40054e-07
1.59669e-05
-1.72836e-07
2.96546e-05
-7.13927e-07
5.34673e-05
-1.01399e-06
9.21514e-05
-1.13051e-06
0.000151788
-1.21285e-06
0.000245153
-5.17352e-07
0.000385912
-1.3618e-06
0.00055055
4.28675e-06
0.000728557
8.89842e-06
0.00097631
8.94329e-06
0.00119419
1.33763e-05
0.00135322
1.60735e-05
0.0014311
1.62129e-05
0.00149469
8.67584e-06
0.00152573
5.80841e-06
0.00153751
-4.94969e-06
0.0015411
-9.10391e-06
0.00154458
-9.22414e-06
0.00154363
-6.8902e-06
0.0015469
-5.64334e-06
0.00155006
-7.2436e-06
0.00155255
-7.36939e-06
0.00154721
-5.49194e-06
0.00152899
-2.98912e-06
0.00150682
-4.53448e-06
0.00148673
-3.30804e-06
0.00147592
-3.35427e-06
0.00147215
-5.16674e-06
0.00147138
-6.1825e-06
0.00146863
-6.93039e-06
0.00146326
-6.3921e-06
0.00144314
-1.78935e-06
0.00141173
4.60801e-06
0.00135542
4.19475e-06
0.00123197
8.3349e-06
0.00105683
8.60899e-06
0.000849313
1.0384e-05
0.00062436
7.36435e-06
0.000441922
4.29169e-06
0.000301836
4.19588e-06
0.000194998
8.40339e-06
0.000116379
6.65549e-06
7.00126e-05
4.47425e-06
3.8807e-05
2.56308e-06
1.97607e-05
1.29326e-06
1.02386e-05
5.62324e-07
6.04849e-06
1.33877e-07
3.23344e-06
1.54146e-07
1.6473e-06
1.17743e-07
7.95562e-07
6.40379e-08
3.91783e-07
3.09635e-08
1.86529e-07
1.30509e-08
9.32479e-08
6.18001e-09
4.4699e-08
3.06661e-09
2.1247e-08
1.46839e-09
1.01493e-08
7.71788e-10
4.94401e-09
3.90898e-10
2.18491e-09
2.69353e-10
8.77736e-10
1.5924e-10
3.7659e-10
8.39748e-11
8.15538e-11
3.14403e-11
-2.91941e-12
1.04317e-11
-4.93791e-11
-2.48674e-12
-7.88254e-11
-1.16764e-11
-8.0303e-11
-1.64326e-11
-5.58447e-11
-2.60197e-11
-5.29183e-11
-1.97844e-11
4.16502e-12
-5.33648e-11
3.54334e-11
-6.06985e-11
4.47564e-11
-6.08476e-11
3.73319e-11
-5.43838e-11
8.19e-12
-4.65969e-11
-4.42632e-11
6.60152e-11
-8.64777e-12
1.83163e-11
-3.1806e-12
-6.51873e-11
2.69309e-12
-1.6563e-10
4.80025e-12
-3.45717e-10
8.98562e-12
-6.45475e-10
-2.07307e-11
-1.13399e-09
-3.7696e-11
-1.78604e-09
-6.91214e-11
-2.38702e-09
-1.16039e-10
-2.78798e-09
-1.77166e-10
-3.08397e-09
-1.89926e-10
-3.14681e-09
-2.85289e-10
-3.08535e-09
-3.30135e-10
-2.89799e-09
-6.49316e-10
-1.58233e-09
-8.28902e-10
6.83387e-10
-9.55064e-10
5.2712e-09
-1.25528e-09
1.2927e-08
-1.41698e-09
3.14279e-08
-1.68484e-09
6.37769e-08
-1.52192e-09
1.24361e-07
-1.52329e-09
2.58735e-07
-2.59938e-09
5.49234e-07
-6.0809e-09
1.066e-06
-4.63372e-10
2.17458e-06
-1.46482e-08
4.12876e-06
-5.07715e-10
7.82645e-06
-9.10054e-09
1.4697e-05
8.62854e-08
2.64142e-05
2.49665e-07
4.69913e-05
9.11651e-07
8.32151e-05
6.72706e-07
0.000137909
2.25831e-06
0.000230311
2.07268e-06
0.000359344
2.14796e-06
0.000530878
3.78192e-06
0.000724765
5.2287e-06
0.000966561
4.6327e-06
0.00118508
5.02779e-06
0.00135014
8.54906e-06
0.00144925
8.5761e-06
0.00150559
5.84314e-06
0.00154677
2.07543e-06
0.00155331
-6.43895e-07
0.00155654
-6.72932e-06
0.00155935
-6.58755e-06
0.00156047
-5.53594e-06
0.00156007
-4.14865e-06
0.00155819
-5.89627e-06
0.00155677
-6.06324e-06
0.00154926
-3.86354e-06
0.00153062
-4.22999e-07
0.00150756
-6.57091e-07
0.00148648
-1.97735e-06
0.00147226
-2.0697e-06
0.00146271
-2.90044e-06
0.00145485
-3.06297e-06
0.00144653
-2.20412e-06
0.00143779
-7.29063e-07
0.00142106
2.25149e-06
0.00139062
4.93499e-06
0.00132236
5.5453e-06
0.0012078
6.32582e-06
0.00103863
5.16961e-06
0.000827586
4.22341e-06
0.000599846
1.95469e-06
0.000416853
2.74952e-07
0.00026162
6.93936e-07
0.00016356
-6.07576e-07
9.86181e-05
3.74647e-07
5.75321e-05
5.33476e-07
3.29823e-05
4.84885e-07
1.80657e-05
-3.87941e-08
9.51087e-06
7.77812e-08
5.0301e-06
-2.70128e-08
2.47558e-06
3.42349e-08
1.30554e-06
-7.59215e-09
6.27482e-07
6.40476e-09
3.15739e-07
-1.27692e-08
1.51768e-07
-2.42545e-09
7.48053e-08
-3.16963e-09
3.58415e-08
-6.60558e-11
1.70762e-08
-3.05873e-10
7.97754e-09
7.32791e-12
3.73831e-09
2.48862e-11
1.64433e-09
5.45388e-11
8.03958e-10
4.14873e-11
3.62199e-10
3.63466e-11
1.59925e-10
6.47077e-12
2.2717e-11
2.07513e-11
-4.54912e-11
-4.03662e-12
-8.72723e-11
-1.80007e-11
-1.20327e-10
-1.37892e-11
-1.1172e-10
-1.6471e-11
-3.36017e-11
-1.61523e-11
-2.50237e-12
-2.39785e-11
3.18719e-11
-3.02119e-11
5.13892e-11
-3.15002e-11
4.93198e-11
-3.14729e-11
2.27812e-11
-2.67284e-11
-2.64085e-11
7.49862e-11
3.75907e-11
-2.65742e-11
-1.49938e-10
-3.01881e-10
-6.42238e-10
-1.14385e-09
-1.82639e-09
-2.49936e-09
-3.04284e-09
-3.19906e-09
-3.17504e-09
-2.94625e-09
-2.7539e-09
-2.16964e-09
-1.01127e-10
3.95739e-09
1.09804e-08
2.70949e-08
6.02894e-08
1.28457e-07
2.76189e-07
5.80548e-07
1.17175e-06
2.34919e-06
4.56668e-06
8.73101e-06
1.65118e-05
2.99197e-05
5.41503e-05
9.30756e-05
0.000156186
0.000251756
0.000385178
0.000562585
0.000769321
0.000996901
0.00119555
0.00136192
0.00146803
0.00152547
0.00155714
0.00156927
0.00157586
0.00157677
0.00157639
0.00157393
0.0015681
0.00155992
0.00154863
0.00153294
0.00151242
0.00149028
0.00147321
0.00146185
0.00145283
0.00144572
0.00143992
0.00142948
0.00140195
0.00134312
0.00123555
0.00107453
0.000869782
0.000636715
0.000442538
0.000287652
0.000177815
0.000107748
6.19416e-05
3.59237e-05
1.94124e-05
1.03712e-05
5.40869e-06
2.85343e-06
1.45103e-06
7.4e-07
3.60548e-07
1.77316e-07
8.35301e-08
4.00441e-08
1.87044e-08
8.79677e-09
4.06825e-09
1.91043e-09
9.2248e-10
4.18218e-10
1.69799e-10
7.36708e-11
-1.26604e-11
-9.88139e-11
-1.46951e-10
-1.59545e-10
-8.5677e-11
-3.35639e-11
1.78101e-11
4.90447e-11
5.34654e-11
3.5104e-11
)
;

boundaryField
{
    sides1
    {
        type            calculated;
        value           nonuniform List<scalar> 
20
(
-1.55103e-11
-1.45706e-11
-1.11071e-11
1.83133e-12
1.2495e-11
-1.81239e-11
-1.85285e-11
-1.67203e-11
-4.79453e-12
9.97507e-12
4.3685e-10
3.58565e-10
2.0161e-10
1.55313e-10
9.6491e-11
2.43683e-11
-1.28876e-11
-4.06408e-11
-8.07462e-11
-9.63739e-11
)
;
    }
    sides2
    {
        type            calculated;
        value           uniform 0;
    }
    empty
    {
        type            empty;
        value           nonuniform 0();
    }
}


// ************************************************************************* //
