/*--------------------------------*- C++ -*----------------------------------*\
| =========                 |                                                 |
| \\      /  F ield         | OpenFOAM: The Open Source CFD Toolbox           |
|  \\    /   O peration     | Version:  3.0.1                                 |
|   \\  /    A nd           | Web:      www.OpenFOAM.org                      |
|    \\/     M anipulation  |                                                 |
\*---------------------------------------------------------------------------*/
FoamFile
{
    version     2.0;
    format      ascii;
    class       volVectorField;
    location    "0.00015";
    object      U;
}
// * * * * * * * * * * * * * * * * * * * * * * * * * * * * * * * * * * * * * //

dimensions      [0 1 -1 0 0 0 0];

internalField   nonuniform List<vector> 
1000
(
(-4.23878e-06 -1.10429e-06 0)
(-3.21617e-06 -1.16619e-06 0)
(-2.36584e-06 -8.15664e-07 0)
(-2.00188e-06 -4.63555e-07 0)
(-1.75262e-06 -4.93452e-07 0)
(-1.60604e-06 -1.14735e-06 0)
(-1.86654e-06 -1.92843e-06 0)
(-1.82277e-06 -2.58025e-06 0)
(-1.57294e-06 -2.33554e-06 0)
(-2.37589e-06 -1.61625e-06 0)
(-3.74466e-06 -8.5882e-07 0)
(-4.95966e-06 -7.55337e-07 0)
(-4.66132e-06 -7.14225e-07 0)
(-4.9189e-06 -7.12889e-07 0)
(-1.46293e-06 -7.39438e-07 0)
(1.39431e-05 -1.31816e-06 0)
(6.49598e-05 -6.20071e-07 0)
(0.000163849 -2.6472e-06 0)
(0.000426772 -2.50177e-06 0)
(0.00101011 -1.21949e-05 0)
(0.00191417 -4.72195e-05 0)
(0.00419158 -4.81877e-05 0)
(0.00749593 -0.000126381 0)
(0.0159405 -0.000143418 0)
(0.031058 -0.000600719 0)
(0.0562541 -0.000613275 0)
(0.106616 -0.00150771 0)
(0.188619 -0.00363743 0)
(0.34733 -0.0056589 0)
(0.586345 -0.00821365 0)
(0.973031 -0.0111066 0)
(1.57623 -0.0231945 0)
(2.47286 -0.0424654 0)
(3.73556 -0.0618681 0)
(5.35036 -0.07169 0)
(7.57863 -0.0861139 0)
(9.38579 -0.0725336 0)
(11.9744 -0.025523 0)
(13.2942 -0.0564166 0)
(15.2173 -0.0949962 0)
(15.7977 -0.0768547 0)
(16.4151 -0.0398949 0)
(16.664 0.00489659 0)
(16.716 -0.00859519 0)
(16.8713 -0.00571913 0)
(16.9559 -0.0148042 0)
(16.998 0.00398848 0)
(17.0469 -0.0238368 0)
(17.066 0.00924528 0)
(17.0848 0.0589301 0)
(17.0384 0.107911 0)
(16.9821 0.0974804 0)
(16.8698 0.00297323 0)
(16.7762 -0.0265409 0)
(16.6762 0.0364934 0)
(16.5357 0.0200574 0)
(16.4405 0.0319153 0)
(16.2812 0.0621835 0)
(16.1049 0.0690452 0)
(15.8458 0.0933386 0)
(15.3057 0.0925345 0)
(14.5171 0.07073 0)
(13.0812 0.0581892 0)
(11.2741 0.0311665 0)
(8.90978 -0.00404319 0)
(6.69664 -0.00480543 0)
(4.51435 0.00310286 0)
(2.99908 0.00146006 0)
(1.81489 0.00153553 0)
(1.09343 0.00318363 0)
(0.640099 0.00118766 0)
(0.34292 0.00311325 0)
(0.194583 0.0010906 0)
(0.101536 0.00191553 0)
(0.0525276 0.000922632 0)
(0.0269067 0.000332098 0)
(0.0130384 0.000129725 0)
(0.0066845 3.1322e-05 0)
(0.00314938 2.86139e-05 0)
(0.00155933 2.50108e-05 0)
(0.000738354 8.1996e-06 0)
(0.000332414 3.55862e-06 0)
(0.000159765 2.56693e-06 0)
(7.25785e-05 8.71976e-07 0)
(3.40858e-05 6.80121e-07 0)
(1.55744e-05 1.4362e-07 0)
(6.91928e-06 -3.76895e-09 0)
(3.01211e-06 -1.10158e-07 0)
(1.10344e-06 -1.48537e-07 0)
(2.73306e-07 -1.58215e-07 0)
(-5.33948e-08 -1.55383e-07 0)
(-2.13745e-07 -1.66217e-07 0)
(-2.9253e-07 -1.85485e-07 0)
(-3.48685e-07 -1.7281e-07 0)
(-3.70001e-07 -1.93527e-07 0)
(-3.8042e-07 -1.94893e-07 0)
(-3.61869e-07 -1.74013e-07 0)
(-3.52398e-07 -1.52458e-07 0)
(-2.80726e-07 -2.25849e-07 0)
(-1.93367e-07 -2.21142e-07 0)
(-3.51835e-06 7.68829e-07 0)
(-2.91555e-06 4.745e-07 0)
(-2.43892e-06 5.21284e-07 0)
(-1.90729e-06 5.12603e-07 0)
(-1.68911e-06 2.07184e-07 0)
(-1.44616e-06 -8.43559e-07 0)
(-1.66684e-06 -1.98542e-06 0)
(-2.02533e-06 -2.87646e-06 0)
(-3.3325e-06 -2.33332e-06 0)
(-3.80974e-06 -2.14067e-06 0)
(-4.66914e-06 -2.18672e-06 0)
(-5.82356e-06 -2.54519e-06 0)
(-5.17291e-06 -2.98963e-06 0)
(-5.20216e-06 -3.45267e-06 0)
(-1.73209e-06 -2.47351e-06 0)
(1.3755e-05 -1.6369e-06 0)
(4.90769e-05 -2.9824e-06 0)
(0.000139553 -2.63384e-06 0)
(0.000374445 -9.80965e-06 0)
(0.000907115 -5.59621e-05 0)
(0.00179677 -9.85623e-05 0)
(0.00364574 -0.000245646 0)
(0.00675936 -0.000336787 0)
(0.0132845 -0.000418313 0)
(0.0268411 -0.000586603 0)
(0.0494435 -0.000997379 0)
(0.100284 -0.00243577 0)
(0.166042 -0.00482008 0)
(0.335287 -0.0142923 0)
(0.551063 -0.0181944 0)
(1.01209 -0.028973 0)
(1.41372 -0.0597183 0)
(2.44961 -0.0820094 0)
(3.38686 -0.10323 0)
(5.39846 -0.11151 0)
(7.02318 -0.183325 0)
(9.49639 -0.188028 0)
(11.2858 -0.0644456 0)
(13.5206 -0.0298944 0)
(14.7942 -0.101771 0)
(15.7224 -0.0722161 0)
(16.2044 -0.0593924 0)
(16.6077 0.0905404 0)
(16.5472 0.095329 0)
(16.6566 0.0657461 0)
(16.6648 0.0287669 0)
(16.7013 -0.00455947 0)
(16.7188 -0.0566532 0)
(16.8247 -0.00317916 0)
(16.7985 0.0158156 0)
(16.8172 0.0399546 0)
(16.775 -0.00735115 0)
(16.7249 -0.0894331 0)
(16.6558 -0.110792 0)
(16.569 -0.0820597 0)
(16.5187 -0.0430865 0)
(16.3728 0.024713 0)
(16.2305 0.0997411 0)
(15.9918 0.0915434 0)
(15.6329 0.136061 0)
(15.1757 0.124097 0)
(14.0753 0.118515 0)
(12.8929 0.0827763 0)
(10.5927 0.0406181 0)
(8.70381 0.000661328 0)
(6.08992 -0.0549871 0)
(4.36352 -0.0331456 0)
(2.681 -0.0332715 0)
(1.73938 -0.0311808 0)
(0.986414 -0.0147856 0)
(0.579168 -0.0123374 0)
(0.326378 -8.85739e-05 0)
(0.173562 -0.000716147 0)
(0.0950402 0.00072929 0)
(0.0433299 -0.000574466 0)
(0.0239723 -0.000241653 0)
(0.0113709 -0.000115156 0)
(0.00588882 0.000100798 0)
(0.00278065 8.53778e-06 0)
(0.00135639 1.13578e-05 0)
(0.000600237 -3.86703e-06 0)
(0.000312823 1.39204e-06 0)
(0.000134582 -9.03248e-07 0)
(6.10106e-05 -1.14936e-07 0)
(3.14476e-05 9.96583e-08 0)
(1.2532e-05 -2.25745e-07 0)
(5.80068e-06 -2.19016e-07 0)
(2.62822e-06 -2.72326e-07 0)
(8.86954e-07 -3.3774e-07 0)
(1.9142e-07 -2.87924e-07 0)
(-5.37129e-08 -2.78365e-07 0)
(-2.02996e-07 -2.38602e-07 0)
(-2.49998e-07 -1.8397e-07 0)
(-2.80188e-07 -1.10672e-07 0)
(-2.90497e-07 -4.03004e-08 0)
(-2.92725e-07 3.51072e-08 0)
(-2.98682e-07 1.29549e-07 0)
(-2.60497e-07 1.77608e-07 0)
(-2.41835e-07 9.30171e-08 0)
(-1.80141e-07 1.39457e-07 0)
(-2.02105e-06 -9.50204e-07 0)
(-2.03667e-06 -1.07657e-06 0)
(-1.97001e-06 -8.23193e-07 0)
(-1.80154e-06 -6.67637e-07 0)
(-1.35855e-06 -1.13877e-06 0)
(-8.43661e-07 -2.01849e-06 0)
(-1.29815e-06 -2.78453e-06 0)
(-2.40945e-06 -3.82572e-06 0)
(-4.05672e-06 -4.62722e-06 0)
(-5.54587e-06 -5.25668e-06 0)
(-7.23653e-06 -6.08922e-06 0)
(-8.02431e-06 -6.68422e-06 0)
(-7.14925e-06 -7.61921e-06 0)
(-5.76386e-06 -8.41293e-06 0)
(5.40115e-07 -7.21179e-06 0)
(1.53969e-05 -5.99835e-06 0)
(6.35289e-05 -5.33772e-06 0)
(0.000184985 -2.05858e-06 0)
(0.000379954 -1.83264e-05 0)
(0.000934057 -2.53456e-05 0)
(0.00166876 -1.77948e-05 0)
(0.00340364 -7.92995e-05 0)
(0.00636712 -7.85795e-05 0)
(0.0136837 -0.000118737 0)
(0.0274094 -0.00128043 0)
(0.0496625 -0.0018591 0)
(0.104297 -0.0033035 0)
(0.164819 -0.00175494 0)
(0.37326 -0.0138586 0)
(0.528908 -0.019485 0)
(1.04962 -0.0364412 0)
(1.39455 -0.035598 0)
(2.48582 -0.126421 0)
(3.30776 -0.135468 0)
(5.61138 -0.204489 0)
(6.76403 -0.236316 0)
(10.0949 -0.207691 0)
(10.8958 -0.139764 0)
(13.5819 -0.115396 0)
(14.5791 -0.169078 0)
(15.4729 -0.200677 0)
(16.0473 -0.100716 0)
(16.2488 0.134211 0)
(16.2873 0.17057 0)
(16.3036 0.210403 0)
(16.3144 0.149115 0)
(16.3128 0.0799438 0)
(16.3684 -0.0172442 0)
(16.3689 0.0128081 0)
(16.4428 0.0859287 0)
(16.4387 0.113189 0)
(16.4843 0.0690273 0)
(16.4917 -0.0111785 0)
(16.4852 -0.129466 0)
(16.4637 -0.13635 0)
(16.4185 -0.0655581 0)
(16.3321 0.0243734 0)
(16.1435 0.26524 0)
(16.0895 0.231861 0)
(15.6625 0.227777 0)
(15.526 0.233311 0)
(14.0686 0.183723 0)
(13.3506 0.165672 0)
(10.5289 0.0238872 0)
(9.07113 -0.0759694 0)
(6.07059 -0.133331 0)
(4.69555 -0.11332 0)
(2.74147 -0.0870419 0)
(1.94376 -0.0863686 0)
(1.12317 -0.0652122 0)
(0.661753 -0.0462534 0)
(0.382829 -0.0225433 0)
(0.179448 -0.00556326 0)
(0.104561 -0.00488787 0)
(0.0545295 -0.00329641 0)
(0.0278262 -0.00265564 0)
(0.0149602 -0.00149695 0)
(0.00698981 -0.000203491 0)
(0.00303432 -0.000159436 0)
(0.0015636 -1.77657e-05 0)
(0.000651725 -1.46596e-05 0)
(0.000379116 -1.16976e-05 0)
(0.00014502 -8.45758e-06 0)
(7.12197e-05 -4.00687e-06 0)
(3.67279e-05 -3.0363e-06 0)
(1.3678e-05 -8.69753e-07 0)
(5.87783e-06 -5.88361e-07 0)
(2.73197e-06 -6.46779e-07 0)
(7.8251e-07 -5.45561e-07 0)
(2.06935e-07 -4.91776e-07 0)
(-1.79893e-09 -4.55781e-07 0)
(-1.05708e-07 -3.64008e-07 0)
(-9.7818e-08 -3.54572e-07 0)
(-7.12718e-08 -2.19774e-07 0)
(-1.07657e-07 -1.89894e-07 0)
(-1.14531e-07 -7.23635e-08 0)
(-1.12086e-07 -5.88052e-08 0)
(-1.03625e-07 -6.05777e-08 0)
(-1.24703e-07 -5.50075e-08 0)
(-1.28683e-07 1.609e-08 0)
(-1.62858e-06 -1.89324e-06 0)
(-1.86165e-06 -2.00722e-06 0)
(-2.05333e-06 -1.81364e-06 0)
(-1.77948e-06 -1.85074e-06 0)
(-1.41164e-06 -2.02832e-06 0)
(-1.05746e-06 -2.53975e-06 0)
(-1.97352e-06 -3.33281e-06 0)
(-3.82277e-06 -4.45698e-06 0)
(-6.0608e-06 -5.30288e-06 0)
(-8.06797e-06 -6.42409e-06 0)
(-1.0254e-05 -8.42442e-06 0)
(-1.12504e-05 -1.00875e-05 0)
(-9.50582e-06 -1.30873e-05 0)
(-8.13964e-06 -1.34787e-05 0)
(9.75462e-07 -1.43605e-05 0)
(1.49939e-05 -1.43522e-05 0)
(6.43678e-05 -1.45907e-05 0)
(0.000175423 -1.76984e-05 0)
(0.000381669 -1.52072e-05 0)
(0.000816457 -1.84218e-05 0)
(0.00168874 -1.05784e-05 0)
(0.00365747 -4.18509e-05 0)
(0.00630864 -0.000110524 0)
(0.0147498 -0.000475178 0)
(0.0248992 -0.00152108 0)
(0.0524714 -0.0024569 0)
(0.0984539 -0.00465374 0)
(0.197731 -0.00809328 0)
(0.353152 -0.0176647 0)
(0.520006 -0.0246734 0)
(0.963973 -0.0431113 0)
(1.51414 -0.0519558 0)
(2.24308 -0.106955 0)
(3.52083 -0.132235 0)
(5.00045 -0.226002 0)
(7.06505 -0.292765 0)
(9.18448 -0.184502 0)
(11.1636 -0.0741285 0)
(13.1017 -0.0920682 0)
(14.4081 -0.12195 0)
(15.2178 -0.179165 0)
(15.7022 -0.00953291 0)
(15.9465 0.167235 0)
(15.989 0.215213 0)
(16.0951 0.353265 0)
(16.1032 0.264617 0)
(16.1346 0.138249 0)
(16.123 0.0821918 0)
(16.2078 -0.0909429 0)
(16.2047 0.0198891 0)
(16.3211 0.0325228 0)
(16.3804 -0.0129487 0)
(16.4247 -0.107563 0)
(16.4343 -0.121766 0)
(16.4259 -0.114826 0)
(16.4147 -0.05911 0)
(16.2927 0.0335772 0)
(16.2493 0.106069 0)
(15.9939 0.168733 0)
(15.9381 0.197156 0)
(15.2948 0.162243 0)
(14.6996 0.127743 0)
(12.8763 0.0761548 0)
(11.1363 0.0492091 0)
(8.56804 -0.0479486 0)
(6.54181 -0.0643481 0)
(4.40898 -0.0471862 0)
(2.94247 -0.0683582 0)
(1.88617 -0.0333493 0)
(1.15441 -0.0361203 0)
(0.762284 -0.00169604 0)
(0.366719 -0.010077 0)
(0.195036 -0.00389584 0)
(0.102922 -0.00362967 0)
(0.0601025 -0.000286475 0)
(0.0336466 -0.000696493 0)
(0.0162312 -0.000358109 0)
(0.00755129 -0.000350573 0)
(0.00341162 -8.06168e-05 0)
(0.00163465 -4.63283e-06 0)
(0.00067829 -4.33867e-06 0)
(0.000389353 -1.10497e-05 0)
(0.000166005 -3.06619e-06 0)
(7.72666e-05 -3.47599e-06 0)
(3.8533e-05 -1.66134e-06 0)
(1.43883e-05 -9.45832e-07 0)
(7.0914e-06 -8.14379e-07 0)
(2.92848e-06 -7.0192e-07 0)
(7.69754e-07 -6.77778e-07 0)
(1.89702e-07 -6.20497e-07 0)
(-8.08523e-08 -5.68453e-07 0)
(-6.08213e-08 -6.03204e-07 0)
(-4.25881e-08 -5.45758e-07 0)
(2.52715e-08 -4.99108e-07 0)
(1.07501e-07 -4.03019e-07 0)
(1.76365e-07 -3.616e-07 0)
(2.45985e-07 -3.49569e-07 0)
(2.31286e-07 -3.27577e-07 0)
(1.8595e-07 -2.81442e-07 0)
(3.62667e-08 -2.16438e-07 0)
(-1.06349e-06 -2.46709e-06 0)
(-1.77485e-06 -2.44319e-06 0)
(-2.08271e-06 -2.373e-06 0)
(-2.14821e-06 -2.36821e-06 0)
(-2.11737e-06 -2.57783e-06 0)
(-2.4258e-06 -3.51253e-06 0)
(-3.35383e-06 -4.01094e-06 0)
(-5.85342e-06 -4.64514e-06 0)
(-8.65988e-06 -6.19139e-06 0)
(-1.14228e-05 -7.82945e-06 0)
(-1.34208e-05 -9.99414e-06 0)
(-1.47968e-05 -1.34991e-05 0)
(-1.33997e-05 -1.49238e-05 0)
(-1.18655e-05 -1.77785e-05 1.79652e-31)
(-3.12947e-06 -1.82596e-05 0)
(7.20698e-06 -1.99285e-05 0)
(6.75789e-05 -2.31256e-05 0)
(0.000148069 -2.91896e-05 0)
(0.000379301 -3.18807e-05 0)
(0.000814103 -4.39618e-05 0)
(0.00192425 -5.6147e-05 0)
(0.00353316 -0.000143373 0)
(0.00737539 -0.000394665 0)
(0.0138085 -0.00102599 0)
(0.0248488 -0.00128352 0)
(0.0542425 -0.00501126 0)
(0.0927064 -0.00681305 0)
(0.17348 -0.0241687 0)
(0.298811 -0.0210918 0)
(0.498648 -0.0382152 0)
(0.908296 -0.0707412 0)
(1.39623 -0.0998685 1.87678e-31)
(2.32532 -0.0978999 0)
(3.34204 -0.0724524 0)
(5.0961 -0.0846175 0)
(6.95641 -0.0816703 0)
(8.73985 -0.110342 -1.33894e-31)
(11.163 -0.124671 0)
(13.0191 -0.0312957 0)
(14.3743 -0.00802478 1.34934e-31)
(15.1574 0.0646612 0)
(15.6791 0.113661 0)
(15.8038 0.0971555 0)
(15.9406 0.202181 -1.82273e-31)
(15.9661 0.202768 0)
(16.0707 0.20384 0)
(16.1069 0.188395 0)
(16.1529 0.12544 0)
(16.1503 -0.0211862 0)
(16.2149 -0.109307 0)
(16.2847 -0.14519 0)
(16.422 -0.149849 0)
(16.4199 -0.125732 0)
(16.461 -0.0774482 0)
(16.4636 -0.0190228 0)
(16.4586 0.0667345 -7.12777e-32)
(16.3727 0.110904 9.09884e-32)
(16.3078 0.125463 0)
(16.2008 0.110955 0)
(16.0172 0.127659 -9.05418e-32)
(15.4989 0.0896164 0)
(14.7884 -0.0111642 0)
(13.2064 0.0230199 0)
(11.3296 0.0715233 0)
(8.87154 0.11037 0)
(6.68885 0.0873537 0)
(4.55472 -0.00284328 0)
(3.03208 -0.0134767 0)
(1.98134 -0.0154123 0)
(1.14252 -0.0133314 0)
(0.711234 0.00444741 0)
(0.377712 -0.00215176 8.13579e-32)
(0.19816 -0.000714342 0)
(0.110902 -0.000845673 0)
(0.0560904 -0.000531778 0)
(0.0323318 0.000321112 0)
(0.0144471 0.000171145 0)
(0.00697055 -4.70619e-05 0)
(0.00323805 -3.12714e-05 0)
(0.00152453 -5.57115e-05 0)
(0.000696591 -1.94241e-05 0)
(0.000382943 -1.40747e-05 0)
(0.000173992 -5.44779e-06 0)
(7.88049e-05 -3.50682e-06 0)
(3.90613e-05 -2.40422e-06 0)
(1.6262e-05 -1.5989e-06 0)
(8.91055e-06 -5.9211e-07 0)
(2.54002e-06 -5.02725e-07 0)
(8.51821e-07 -5.9528e-07 0)
(-2.0982e-08 -6.36882e-07 0)
(-1.21262e-07 -6.71718e-07 0)
(-1.65545e-07 -6.8267e-07 -6.22389e-32)
(-5.591e-09 -7.29472e-07 0)
(1.28657e-07 -7.34752e-07 -7.17312e-32)
(3.02845e-07 -7.02642e-07 0)
(4.71886e-07 -6.90188e-07 0)
(5.52171e-07 -6.72007e-07 0)
(5.83298e-07 -5.96409e-07 0)
(4.54877e-07 -4.92852e-07 0)
(1.80846e-07 -4.24671e-07 0)
(-3.39532e-07 -2.46273e-06 0)
(-1.34414e-06 -2.41529e-06 0)
(-1.62429e-06 -2.59738e-06 0)
(-2.53975e-06 -2.44103e-06 0)
(-2.89788e-06 -2.61442e-06 0)
(-4.50596e-06 -3.46479e-06 0)
(-6.98173e-06 -3.50794e-06 0)
(-8.70712e-06 -4.00851e-06 0)
(-1.27303e-05 -6.04525e-06 0)
(-1.49884e-05 -8.24657e-06 0)
(-1.82636e-05 -1.11271e-05 0)
(-1.72913e-05 -1.3783e-05 0)
(-1.81814e-05 -1.85207e-05 0)
(-1.33444e-05 -1.97801e-05 -2.45653e-31)
(-4.32984e-06 -2.75032e-05 0)
(1.20864e-05 -2.63746e-05 0)
(6.95979e-05 -2.67466e-05 0)
(0.000121923 -3.12568e-05 0)
(0.000331084 -4.19758e-05 0)
(0.000829593 -7.86866e-05 0)
(0.00186308 -0.000141897 0)
(0.00369002 -0.000176901 0)
(0.00840941 -0.00049962 0)
(0.0115244 -0.000293554 0)
(0.0242573 -0.00105548 0)
(0.0452448 -0.00181625 0)
(0.0915265 -0.00462866 0)
(0.137182 -0.00917752 0)
(0.271519 -0.0143142 0)
(0.408309 -0.0161282 0)
(0.754838 -0.0321322 0)
(1.21826 -0.0543284 -1.44951e-31)
(2.057 -0.0454668 0)
(3.30515 -0.092864 0)
(4.88032 -0.0783534 0)
(6.71358 -0.0358522 0)
(9.0867 0.0344966 1.58408e-31)
(11.1956 -0.0971191 0)
(13.0262 0.0540643 0)
(14.4361 0.212334 -1.53448e-31)
(15.2001 0.219307 0)
(15.71 0.144175 0)
(15.8875 0.125232 0)
(15.9932 0.0809497 1.08385e-31)
(16.0699 0.0751053 0)
(16.1346 0.0813597 0)
(16.2322 0.148906 0)
(16.2403 0.162883 0)
(16.268 -0.0329996 0)
(16.2696 -0.139141 0)
(16.3967 -0.28657 0)
(16.4293 -0.243406 0)
(16.4557 -0.195062 0)
(16.461 -0.121422 0)
(16.5069 -0.0721916 0)
(16.5421 0.0543357 6.89823e-32)
(16.5814 0.0942176 -7.54535e-32)
(16.5465 0.0981396 0)
(16.4415 0.0738642 0)
(16.148 0.0427211 7.56363e-32)
(15.7143 -0.0434913 0)
(14.533 0.0142036 0)
(13.1423 0.0485571 0)
(11.0474 0.162183 0)
(8.68547 0.203581 0)
(6.56853 0.202064 0)
(4.60217 0.144033 0)
(3.13404 0.0346958 0)
(1.97999 0.00823757 0)
(1.19645 -0.00185579 0)
(0.673959 -0.0112479 0)
(0.385923 -0.00286205 -8.25443e-32)
(0.213133 0.000307528 0)
(0.106473 0.00123838 0)
(0.0585095 0.000545169 0)
(0.0291725 0.000461479 0)
(0.0156691 0.000206645 0)
(0.00779035 -0.000112056 0)
(0.00355456 -0.00010153 0)
(0.00175106 -9.23242e-05 0)
(0.00079376 -5.04333e-05 0)
(0.000423892 -1.29386e-05 0)
(0.000179801 -7.86623e-06 0)
(8.90433e-05 -3.31023e-06 0)
(3.78137e-05 -1.79947e-06 0)
(1.81009e-05 -6.17278e-07 0)
(7.86367e-06 -3.32134e-07 0)
(1.64737e-06 -3.77526e-07 0)
(3.84122e-07 -4.0705e-07 0)
(-2.0577e-07 -5.36874e-07 0)
(-4.38047e-07 -5.86802e-07 0)
(-3.39595e-07 -6.31773e-07 9.85466e-32)
(-3.12595e-07 -8.20652e-07 0)
(-1.82822e-07 -8.91189e-07 9.47821e-32)
(2.27455e-07 -1.08207e-06 0)
(4.21e-07 -1.12874e-06 0)
(6.00919e-07 -1.11211e-06 0)
(5.63114e-07 -9.53016e-07 0)
(5.00191e-07 -8.44765e-07 0)
(-1.44715e-07 -7.7298e-07 0)
(6.11008e-08 -2.0058e-06 0)
(-4.32379e-07 -1.94304e-06 0)
(-1.32646e-06 -1.72298e-06 0)
(-2.2153e-06 -1.77512e-06 0)
(-3.78489e-06 -2.04727e-06 0)
(-4.94762e-06 -2.27542e-06 0)
(-8.09895e-06 -3.16981e-06 0)
(-1.12291e-05 -3.72743e-06 0)
(-1.60848e-05 -5.29888e-06 0)
(-1.95315e-05 -7.49024e-06 0)
(-2.05093e-05 -9.78838e-06 0)
(-2.3797e-05 -1.52773e-05 0)
(-2.13924e-05 -1.75362e-05 0)
(-2.22296e-05 -2.29614e-05 0)
(-1.45841e-05 -2.83449e-05 0)
(-2.34514e-06 -3.31659e-05 0)
(4.15214e-05 -3.52585e-05 0)
(0.000136396 -3.88348e-05 0)
(0.000298755 -5.12528e-05 0)
(0.000952773 -0.000100913 0)
(0.00147072 -0.000225089 0)
(0.00351924 -0.000413835 0)
(0.00653467 -0.000604038 0)
(0.011934 -0.000498663 0)
(0.0309443 -0.00081656 0)
(0.0413184 -0.00119788 0)
(0.109084 -0.0049812 0)
(0.128078 -0.00702217 0)
(0.277324 -0.00925133 0)
(0.419919 -0.00838652 0)
(0.762723 -0.0133521 0)
(1.27861 -0.0182907 0)
(2.05962 -0.0151275 0)
(3.24783 -0.016409 0)
(4.99067 -0.0364066 0)
(6.58784 -0.010228 0)
(9.18885 0.123275 0)
(11.5197 0.340448 0)
(13.0832 0.248368 0)
(14.5441 0.229481 0)
(15.225 0.195861 0)
(15.8155 0.0677783 0)
(16.0322 -0.0326859 0)
(16.138 -0.011089 0)
(16.2375 -0.0433845 0)
(16.2493 -0.0962264 0)
(16.3182 0.117773 0)
(16.3419 0.120548 0)
(16.3962 0.0608237 0)
(16.4376 -0.237178 0)
(16.4216 -0.251952 0)
(16.4209 -0.213154 0)
(16.4041 -0.173908 0)
(16.4329 -0.125123 0)
(16.4414 -0.11366 0)
(16.5498 -0.0729753 0)
(16.5752 -0.0616454 0)
(16.6622 -0.0301773 0)
(16.3958 0.0108078 0)
(16.3471 0.0215516 0)
(15.3998 0.0451989 0)
(14.6278 0.125306 0)
(12.7221 0.15103 0)
(10.9372 0.19441 0)
(8.34872 0.210401 0)
(6.54552 0.187962 0)
(4.32331 0.134089 0)
(3.65816 0.123828 0)
(1.86951 0.0523934 0)
(1.38373 0.051696 0)
(0.69416 0.0113692 0)
(0.385728 0.0187201 0)
(0.21653 0.00661123 0)
(0.0943598 0.00495537 0)
(0.0676674 0.00220866 0)
(0.0315157 0.00080609 0)
(0.0157734 0.000611051 0)
(0.00816541 0.000145859 0)
(0.0038633 5.84373e-05 0)
(0.00192482 2.30033e-05 0)
(0.000867656 6.00442e-06 0)
(0.000418089 7.64333e-06 0)
(0.000216029 2.88531e-06 0)
(8.45449e-05 1.02549e-06 0)
(4.66235e-05 2.38164e-08 0)
(1.61937e-05 5.7461e-07 0)
(6.97143e-06 2.35249e-07 0)
(1.99254e-06 -6.37309e-08 0)
(3.3442e-07 -1.48623e-07 0)
(-4.39357e-07 -2.32885e-07 0)
(-7.05882e-07 -4.46788e-07 0)
(-9.48834e-07 -4.61382e-07 0)
(-7.93703e-07 -6.58113e-07 0)
(-3.47924e-07 -1.05635e-06 0)
(-1.00942e-07 -1.25987e-06 0)
(3.43167e-07 -1.43483e-06 0)
(4.91368e-07 -1.45246e-06 0)
(5.23651e-07 -1.1876e-06 0)
(4.98055e-07 -9.91784e-07 0)
(-1.36194e-07 -9.57875e-07 0)
(3.46408e-07 -9.29219e-07 0)
(-1.25216e-07 -6.88864e-07 0)
(-7.57951e-07 -5.3487e-07 0)
(-1.90981e-06 -2.62294e-07 0)
(-3.31684e-06 -2.69417e-07 0)
(-6.32542e-06 -8.45498e-07 0)
(-8.79113e-06 -1.73524e-06 0)
(-1.7036e-05 -4.40636e-06 0)
(-1.80729e-05 -4.56006e-06 0)
(-2.3963e-05 -7.83463e-06 0)
(-2.61981e-05 -1.02826e-05 0)
(-2.50381e-05 -1.33957e-05 0)
(-2.82292e-05 -1.6746e-05 0)
(-2.60814e-05 -2.27244e-05 0)
(-2.40313e-05 -2.82548e-05 0)
(-1.26967e-05 -3.28137e-05 0)
(1.79378e-05 -3.68101e-05 0)
(0.000107484 -4.5572e-05 0)
(0.00030416 -8.96282e-05 0)
(0.000662858 -0.000170326 0)
(0.00123153 -0.000237177 0)
(0.00259603 -0.000488708 0)
(0.00521196 -0.000719765 0)
(0.0104318 -0.00173158 0)
(0.021187 -0.00314115 0)
(0.0400881 -0.00528258 0)
(0.0766686 -0.00870905 0)
(0.131526 -0.00599375 0)
(0.22587 -0.0105207 0)
(0.427639 -0.0189987 0)
(0.757278 -0.0236486 0)
(1.21325 -0.0237061 0)
(2.13601 -0.0142682 0)
(3.08825 -0.00470991 0)
(5.23059 0.0661683 0)
(6.52464 0.116336 0)
(9.04789 0.194043 0)
(11.5125 0.352242 0)
(13.4354 0.403604 0)
(14.7908 0.303875 0)
(15.3131 0.231998 0)
(16.0271 0.0674949 0)
(16.1523 -0.0851543 0)
(16.3254 -0.202861 0)
(16.3164 -0.18882 0)
(16.372 -0.0963417 0)
(16.3348 -0.113861 0)
(16.4281 -0.174159 0)
(16.4706 -0.178392 0)
(16.4827 -0.135188 0)
(16.498 -0.102466 0)
(16.411 -0.119099 0)
(16.4176 -0.10312 0)
(16.337 -0.15598 0)
(16.3363 -0.150868 0)
(16.3217 -0.185569 0)
(16.327 -0.223101 0)
(16.2473 -0.218496 0)
(16.2395 -0.124092 0)
(15.6038 0.113868 0)
(15.6256 0.113328 0)
(13.9658 0.217719 0)
(13.4154 0.21443 0)
(10.4106 0.227302 0)
(8.96122 0.237685 0)
(6.07596 0.178301 0)
(4.51496 0.190628 0)
(3.02244 0.294369 0)
(1.85558 0.196894 0)
(1.14327 0.151712 0)
(0.673684 0.0724164 0)
(0.377235 0.0349486 0)
(0.161286 0.0124543 0)
(0.0988068 0.00574325 0)
(0.0558 0.00426384 0)
(0.027356 0.00264183 0)
(0.0144158 0.0010723 0)
(0.00691867 0.000781681 0)
(0.00321062 0.000374157 0)
(0.00161337 0.000178032 0)
(0.000787707 7.17793e-05 0)
(0.000372881 3.64526e-05 0)
(0.0001785 2.04868e-05 0)
(7.86161e-05 9.59966e-06 0)
(4.37474e-05 6.27546e-06 0)
(1.52959e-05 2.21156e-06 0)
(7.79283e-06 1.31518e-06 0)
(2.37414e-06 3.67174e-07 0)
(1.62417e-07 6.68739e-08 0)
(-3.47114e-07 -2.0964e-08 0)
(-7.8459e-07 -1.79095e-07 0)
(-1.1018e-06 -2.74033e-07 0)
(-9.43e-07 -6.89889e-07 0)
(-8.41627e-07 -9.9206e-07 0)
(-1.53321e-07 -1.26e-06 0)
(1.04675e-07 -1.45113e-06 0)
(4.91119e-07 -1.45203e-06 0)
(5.71073e-07 -1.25798e-06 0)
(5.26577e-07 -1.06787e-06 0)
(-1.09316e-07 -1.03353e-06 0)
(7.8862e-07 -2.52538e-07 0)
(4.89878e-07 -1.18367e-07 0)
(-7.18483e-08 8.95299e-08 0)
(-9.68058e-07 2.52223e-07 0)
(-2.88386e-06 3.23849e-07 0)
(-5.44445e-06 -1.11625e-07 0)
(-8.97939e-06 -5.67043e-07 0)
(-1.62765e-05 -1.88143e-06 0)
(-2.05869e-05 -3.0778e-06 0)
(-2.80929e-05 -4.4064e-06 0)
(-2.74076e-05 -5.41282e-06 0)
(-3.26266e-05 -8.21565e-06 0)
(-3.17971e-05 -1.03289e-05 0)
(-3.09879e-05 -1.54987e-05 0)
(-2.41397e-05 -1.92594e-05 0)
(-8.38091e-06 -2.25601e-05 0)
(2.24933e-05 -3.05321e-05 0)
(7.04115e-05 -3.52499e-05 0)
(0.000252996 -3.54577e-05 0)
(0.000450215 -5.08349e-05 0)
(0.000896414 -6.89447e-05 0)
(0.00194426 -0.000144168 0)
(0.00394442 -0.000201935 0)
(0.00818116 -0.00022245 0)
(0.0161516 -0.000578093 0)
(0.0318986 -0.000612673 0)
(0.0586313 -0.00182701 0)
(0.116315 -8.11034e-05 0)
(0.201602 -0.00242471 0)
(0.385447 5.23015e-05 0)
(0.660133 -0.00276637 0)
(1.13018 0.00209319 0)
(1.94587 0.0113074 0)
(2.99886 0.0177926 0)
(4.80038 0.0577557 0)
(6.5535 0.143559 0)
(8.9513 0.159689 0)
(11.408 0.185462 0)
(13.4554 0.258779 0)
(14.773 0.252034 0)
(15.5944 0.192693 0)
(16.057 0.128518 0)
(16.4639 -0.13353 0)
(16.4291 -0.182208 0)
(16.5282 -0.213818 0)
(16.5018 -0.207927 0)
(16.5333 -0.161048 0)
(16.5232 -0.160579 0)
(16.5377 -0.153917 0)
(16.5387 -0.0739737 0)
(16.491 -0.0043245 0)
(16.4584 -0.00174926 0)
(16.3855 -0.0288856 0)
(16.3236 -0.0456725 0)
(16.2454 -0.0855801 0)
(16.1821 -0.105526 0)
(16.0886 -0.129047 0)
(16.0056 -0.116162 0)
(15.8412 -0.00674119 0)
(15.5121 0.0634678 0)
(15.1424 0.116147 0)
(13.9907 0.148038 0)
(12.8888 0.145144 0)
(10.4272 0.136532 0)
(8.63496 0.108068 0)
(5.83492 0.075203 0)
(4.15591 0.0525544 0)
(2.55994 0.0564842 0)
(1.57496 0.0483619 0)
(0.933519 0.0284158 0)
(0.535671 0.0273891 0)
(0.3058 0.0013858 0)
(0.158469 0.00503946 0)
(0.0855081 0.000552505 0)
(0.0433309 0.00115983 0)
(0.0224976 0.000458043 0)
(0.0114158 0.000390626 0)
(0.0056981 2.20066e-05 0)
(0.00268004 4.19832e-05 0)
(0.00133083 1.9496e-05 0)
(0.000621215 2.27811e-05 0)
(0.000304126 4.50491e-06 0)
(0.000139036 3.34572e-06 0)
(6.44825e-05 1.87335e-06 0)
(3.01818e-05 1.55728e-06 0)
(1.36122e-05 1.60471e-06 0)
(6.86321e-06 1.05394e-06 0)
(2.71929e-06 5.1896e-07 0)
(6.28101e-07 4.03605e-07 0)
(-3.30696e-07 -4.48679e-08 0)
(-8.46912e-07 -3.04648e-07 0)
(-1.42626e-06 -3.53508e-07 0)
(-1.31573e-06 -5.10084e-07 0)
(-1.36305e-06 -6.63771e-07 0)
(-3.11769e-07 -9.41771e-07 0)
(2.63425e-07 -1.04317e-06 0)
(5.38994e-07 -1.05633e-06 0)
(6.82693e-07 -9.96627e-07 0)
(6.11603e-07 -8.48773e-07 0)
(3.09327e-08 -8.658e-07 0)
(9.52459e-07 -6.76716e-09 0)
(7.86633e-07 6.29897e-08 0)
(1.4539e-07 1.46545e-07 0)
(-5.781e-07 2.5183e-07 0)
(-2.20104e-06 2.20654e-07 0)
(-5.4272e-06 -7.36865e-08 0)
(-9.56817e-06 -4.69599e-07 0)
(-1.57607e-05 -1.0765e-06 0)
(-2.30847e-05 -1.44083e-06 0)
(-2.7926e-05 -1.3102e-06 0)
(-3.13062e-05 -4.64813e-07 0)
(-3.17862e-05 -1.50987e-06 0)
(-3.21431e-05 -4.52774e-06 0)
(-3.01856e-05 -7.71767e-06 0)
(-2.5423e-05 -1.24586e-05 0)
(-1.13992e-05 -1.55973e-05 0)
(1.3452e-05 -1.95686e-05 0)
(6.25355e-05 -2.15839e-05 0)
(0.000192932 -2.61172e-05 0)
(0.000434273 -2.39377e-05 0)
(0.000887697 -2.80019e-05 0)
(0.00204775 -3.35278e-05 0)
(0.00413297 -3.17711e-05 0)
(0.00855297 2.96599e-07 0)
(0.0178887 -1.64975e-05 0)
(0.0330993 7.21789e-05 0)
(0.0676169 -4.95035e-05 0)
(0.125541 0.00124927 0)
(0.232856 0.00146759 0)
(0.428461 0.00616124 0)
(0.742771 0.00694739 0)
(1.28561 0.0158312 0)
(2.10001 0.0212901 0)
(3.3369 0.0305096 0)
(4.94954 0.0349813 0)
(7.0711 0.0532563 0)
(9.29921 0.0922178 0)
(11.7052 0.118019 0)
(13.3679 0.13501 0)
(15.1087 0.126955 0)
(15.6555 0.130336 0)
(16.3508 0.0596762 0)
(16.5094 0.00394011 0)
(16.664 -0.094984 0)
(16.6763 -0.0856933 0)
(16.6865 -0.0728584 0)
(16.6921 -0.0682408 0)
(16.6526 -0.135448 0)
(16.6192 -0.151141 0)
(16.5645 -0.10001 0)
(16.5037 0.0268868 0)
(16.5004 0.0282229 0)
(16.4326 -0.0337274 0)
(16.3425 -0.0601198 0)
(16.242 -0.0930584 0)
(16.1655 -0.10547 0)
(16.0771 -0.0995357 0)
(16.0081 -0.0653078 0)
(15.891 -0.0134905 0)
(15.6824 0.0411767 0)
(15.1817 0.060469 0)
(14.5043 0.0727697 0)
(12.9091 0.0668067 0)
(11.2272 0.0506425 0)
(8.73524 0.0188326 0)
(6.46188 0.00634631 0)
(4.32112 0.00404493 0)
(2.8246 0.000136184 0)
(1.6688 0.00705871 0)
(1.0258 0.00370768 0)
(0.566707 0.00174162 0)
(0.32957 0.000235984 0)
(0.1782 0.000639583 0)
(0.0904998 -0.000448106 0)
(0.0484126 -2.49738e-05 0)
(0.0246639 -0.000327475 0)
(0.0125377 -4.14e-05 0)
(0.00629261 -0.00011053 0)
(0.00304113 -1.70084e-05 0)
(0.00147111 -1.86346e-05 0)
(0.000704072 -8.41639e-08 0)
(0.000324983 -1.37863e-06 0)
(0.000154845 -2.96965e-07 0)
(7.01798e-05 -1.58157e-07 0)
(3.35236e-05 5.05425e-07 0)
(1.5397e-05 1.1771e-06 0)
(7.84187e-06 6.79273e-07 0)
(3.53418e-06 3.39285e-08 0)
(1.54819e-06 -6.07696e-07 0)
(-3.97087e-08 -5.70793e-07 0)
(-7.79174e-07 -5.04551e-07 0)
(-1.65496e-06 -4.66017e-07 0)
(-1.67264e-06 -4.09114e-07 0)
(-1.96557e-06 -3.06798e-07 0)
(-6.59306e-07 -3.40992e-07 0)
(4.21715e-08 -3.41646e-07 0)
(4.92241e-07 -2.85723e-07 0)
(7.81073e-07 -2.41172e-07 0)
(5.45117e-07 -1.48858e-07 0)
(2.09841e-07 -1.45072e-07 0)
)
;

boundaryField
{
    sides1
    {
        type            zeroGradient;
    }
    sides2
    {
        type            slip;
    }
    empty
    {
        type            empty;
    }
}


// ************************************************************************* //
