/*--------------------------------*- C++ -*----------------------------------*\
| =========                 |                                                 |
| \\      /  F ield         | OpenFOAM: The Open Source CFD Toolbox           |
|  \\    /   O peration     | Version:  2012                                  |
|   \\  /    A nd           | Website:  www.openfoam.com                      |
|    \\/     M anipulation  |                                                 |
\*---------------------------------------------------------------------------*/
FoamFile
{
    version     2.0;
    format      ascii;
    class       volScalarField;
    location    "0.37";
    object      minKappa;
}
// * * * * * * * * * * * * * * * * * * * * * * * * * * * * * * * * * * * * * //

dimensions      [0 0 0 0 0 0 0];


internalField   nonuniform List<scalar> 
2268
(
1.17334e-06
2.74282e-06
4.2837e-06
5.92001e-06
7.5487e-06
9.18212e-06
1.06659e-05
1.2054e-05
1.35544e-05
1.45938e-05
1.58727e-05
1.67991e-05
1.74883e-05
1.7974e-05
1.82285e-05
1.80903e-05
1.75732e-05
1.66157e-05
1.51157e-05
1.30299e-05
1.02032e-05
6.91595e-06
3.36532e-06
1.17334e-06
2.74282e-06
4.2837e-06
5.92001e-06
7.5487e-06
9.18212e-06
1.06659e-05
1.2054e-05
1.35544e-05
1.45938e-05
1.58727e-05
1.67991e-05
1.74883e-05
1.7974e-05
1.82285e-05
1.80903e-05
1.75732e-05
1.66157e-05
1.51157e-05
1.30299e-05
1.02032e-05
6.91595e-06
3.36532e-06
1.80303e-06
3.06842e-06
4.49525e-06
6.0852e-06
7.67694e-06
9.2855e-06
1.07494e-05
1.21508e-05
1.3625e-05
1.46709e-05
1.59711e-05
1.68574e-05
1.75595e-05
1.81473e-05
1.83472e-05
1.82329e-05
1.77497e-05
1.68624e-05
1.54776e-05
1.3525e-05
1.08497e-05
7.71448e-06
4.62662e-06
2.53919e-06
3.55607e-06
4.83122e-06
6.35158e-06
7.88952e-06
9.45611e-06
1.08911e-05
1.23122e-05
1.37451e-05
1.4806e-05
1.61307e-05
1.69565e-05
1.77229e-05
1.83382e-05
1.85326e-05
1.84567e-05
1.80137e-05
1.71916e-05
1.59016e-05
1.41785e-05
1.18374e-05
9.38891e-06
6.93802e-06
3.30804e-06
4.15178e-06
5.26666e-06
6.70366e-06
8.17787e-06
9.68861e-06
1.10874e-05
1.25291e-05
1.39049e-05
1.49945e-05
1.63363e-05
1.71057e-05
1.79543e-05
1.85434e-05
1.87999e-05
1.87784e-05
1.84176e-05
1.76844e-05
1.6528e-05
1.50323e-05
1.30177e-05
1.1145e-05
9.47429e-06
4.09228e-06
4.81986e-06
5.78262e-06
7.13219e-06
8.54007e-06
9.98803e-06
1.13464e-05
1.28038e-05
1.41094e-05
1.52467e-05
1.65885e-05
1.73155e-05
1.82443e-05
1.88243e-05
1.91217e-05
1.91852e-05
1.89123e-05
1.83195e-05
1.73105e-05
1.60951e-05
1.44296e-05
1.32711e-05
1.25865e-05
4.88654e-06
5.5346e-06
6.36013e-06
7.62367e-06
8.96523e-06
1.03467e-05
1.16639e-05
1.31257e-05
1.43562e-05
1.556e-05
1.68766e-05
1.7574e-05
1.86055e-05
1.91403e-05
1.95189e-05
1.96669e-05
1.94998e-05
1.90405e-05
1.82268e-05
1.7313e-05
1.60326e-05
1.56289e-05
1.56771e-05
5.69114e-06
6.27919e-06
6.98757e-06
8.17243e-06
9.44953e-06
1.07635e-05
1.20436e-05
1.34946e-05
1.46623e-05
1.59431e-05
1.71944e-05
1.7899e-05
1.90516e-05
1.95077e-05
2.00211e-05
2.02357e-05
2.01719e-05
1.98823e-05
1.92812e-05
1.8759e-05
1.78181e-05
1.82808e-05
1.98815e-05
2.89188e-05
9.02159e-05
0.000134857
0.000199835
0.000241434
0.000316884
0.000357379
0.000405989
0.000441191
0.000488
0.000517683
0.00055188
0.000596344
0.00061299
0.000670094
0.000640484
0.000633761
0.000436521
0.000180637
2.89188e-05
9.02159e-05
0.000134857
0.000199835
0.000241434
0.000316884
0.000357379
0.000405989
0.000441191
0.000488
0.000517683
0.00055188
0.000596344
0.00061299
0.000670094
0.000640484
0.000633761
0.000436521
0.000180637
5.4978e-05
0.000109499
0.000145016
0.000204118
0.000247859
0.000324066
0.000362362
0.000409171
0.000444072
0.000490376
0.000518397
0.00055538
0.00059947
0.000619369
0.000680834
0.000652823
0.000664064
0.000487878
0.000267863
8.72851e-05
0.000128935
0.00015987
0.00021629
0.000260863
0.000335895
0.000367715
0.000415291
0.000450431
0.000495685
0.000518803
0.00055756
0.000601972
0.000627381
0.00069476
0.000673033
0.000711923
0.000572565
0.000387697
0.000112325
0.000153301
0.00017956
0.000228732
0.000275347
0.000351761
0.000377943
0.000422797
0.000457436
0.000501739
0.000520673
0.00056286
0.000607577
0.000640475
0.000713727
0.000700448
0.000777108
0.00068211
0.000545945
0.000144179
0.000178448
0.000202131
0.000247974
0.000297522
0.000372908
0.00038908
0.000433052
0.000468112
0.000511128
0.000523267
0.00056568
0.000610673
0.000653136
0.000734825
0.00073529
0.000866871
0.00082323
0.00076521
0.000165226
0.000210789
0.000228979
0.000264874
0.000321833
0.000399746
0.000403776
0.000441907
0.000480166
0.000521577
0.000527371
0.00057196
0.000618693
0.00066945
0.000758442
0.000783385
0.000990123
0.00101648
0.00108875
0.000200859
0.000237274
0.000255541
0.000288297
0.000354905
0.000433062
0.000421529
0.000449952
0.000497156
0.000537678
0.000534412
0.000580439
0.000626777
0.000685949
0.0007824
0.000855008
0.00113859
0.00121542
0.00150519
1.01703e-05
1.10124e-05
1.19795e-05
1.37175e-05
1.56144e-05
1.75675e-05
1.95152e-05
2.17449e-05
2.35097e-05
2.56101e-05
2.74193e-05
2.86226e-05
3.05676e-05
3.11688e-05
3.22135e-05
3.25465e-05
3.27551e-05
3.25023e-05
3.21739e-05
3.19763e-05
3.19335e-05
3.42852e-05
4.12506e-05
1.75696e-05
1.85507e-05
1.9589e-05
2.16588e-05
2.39674e-05
2.63778e-05
2.88309e-05
3.14526e-05
3.40103e-05
3.66474e-05
3.91275e-05
4.14144e-05
4.38065e-05
4.48418e-05
4.70388e-05
4.73157e-05
4.8647e-05
4.82108e-05
4.93805e-05
4.92456e-05
5.1496e-05
5.41779e-05
4.81176e-05
2.19311e-05
2.28204e-05
2.37671e-05
2.57273e-05
2.79558e-05
3.03948e-05
3.30687e-05
3.62275e-05
3.893e-05
4.24626e-05
4.49994e-05
4.8389e-05
5.0343e-05
5.18332e-05
5.33982e-05
5.2657e-05
5.27938e-05
5.26154e-05
5.45635e-05
5.43674e-05
5.78455e-05
5.97734e-05
5.40889e-05
5.50867e-05
5.71382e-05
5.96593e-05
6.48033e-05
7.09911e-05
7.84346e-05
8.73478e-05
9.90043e-05
0.000109967
0.000125128
0.000136053
0.000151447
0.000155237
0.000158831
0.000150201
0.000137931
0.000116026
0.000102142
8.15917e-05
6.01124e-05
6.25173e-05
6.43672e-05
5.35281e-05
0.000412706
0.000424551
0.000442731
0.000475016
0.00051228
0.000557574
0.000608947
0.000604611
0.000649481
0.000704052
0.000724488
0.000737391
0.000759553
0.000788558
0.000797504
0.000765359
0.000824391
0.000706016
0.000483806
0.000161451
0.000139847
9.68908e-05
5.5596e-05
0.000674629
0.00068023
0.000684064
0.000685885
0.000676999
0.000667649
0.000652466
0.000626314
0.00059399
0.000567449
0.000565043
0.000565043
0.0005891
0.000638122
0.000719267
0.000829608
0.000943586
0.00107003
0.0012795
0.00123905
0.000997375
0.000555916
0.000171144
0.000676276
0.000674325
0.000671709
0.000664306
0.000647404
0.000626529
0.000605299
0.000589876
0.000589876
0.000595159
0.00060059
0.000634677
0.000675351
0.000742075
0.000812539
0.000875661
0.000926219
0.00103968
0.00121194
0.0013628
0.00138897
0.00146542
0.00122373
0.000698287
0.000700075
0.000694462
0.000695789
0.000683515
0.000669226
0.000652713
0.000638293
0.000628511
0.000646542
0.000673551
0.000711308
0.000726476
0.000728802
0.000727697
0.000735691
0.000754823
0.000808652
0.000930014
0.00124226
0.00149718
0.00149107
0.00109629
0.000720679
0.000716517
0.000711719
0.000705702
0.000695235
0.000684391
0.000678169
0.000678169
0.000676608
0.000693804
0.000722097
0.000738332
0.000729292
0.000719252
0.000705745
0.000695659
0.000685257
0.000669959
0.000700602
0.000853407
0.00114432
0.00152041
0.0012606
0.000741907
0.000740598
0.000734968
0.000733137
0.000725319
0.000717961
0.000709601
0.000709762
0.000709164
0.000729573
0.00074978
0.000744223
0.000732293
0.000718045
0.000701975
0.00068356
0.000654566
0.00063512
0.000619688
0.00061849
0.000732589
0.00104684
0.00130746
0.000764344
0.000762364
0.000759822
0.000758407
0.00075379
0.000750686
0.000745236
0.000748301
0.000745348
0.000755905
0.000764447
0.000760427
0.000750198
0.000738157
0.000716274
0.000689081
0.000656915
0.00061995
0.000588605
0.000588605
0.000596322
0.000700769
0.00095513
0.000787763
0.000786199
0.000784903
0.000784255
0.000780787
0.000779921
0.000774637
0.000778279
0.000772946
0.000777879
0.00078495
0.000783221
0.00077802
0.000771899
0.000756056
0.000738321
0.000713775
0.000684901
0.000657873
0.000641753
0.00066055
0.000726881
0.000745945
0.000814322
0.000813365
0.000813078
0.000812958
0.000810629
0.000812042
0.000808062
0.000811904
0.000806765
0.000809762
0.000816549
0.000819059
0.000819265
0.000819101
0.000811084
0.0008034
0.0007898
0.000777001
0.000771946
0.000773821
0.000794592
0.0008663
0.000844159
0.000840676
0.000840203
0.000840405
0.000840805
0.000839048
0.000841708
0.000838723
0.000843819
0.000842488
0.000846436
0.000853776
0.000858512
0.000863412
0.000867756
0.000866845
0.00086592
0.000863151
0.00086574
0.000877855
0.000898988
0.0009496
0.00103225
0.000932858
0.000869919
0.000869806
0.000869882
0.000871328
0.000870307
0.000874401
0.00087262
0.000878854
0.000880035
0.000884817
0.000892446
0.000899024
0.000905907
0.000913472
0.000917379
0.000923557
0.000930169
0.000944373
0.000969323
0.00100528
0.00106931
0.00115317
0.00102145
0.000899003
0.000899094
0.000899414
0.000901577
0.000901308
0.000906479
0.000906093
0.000912888
0.000916279
0.00092211
0.000930501
0.0009382
0.000947114
0.000957308
0.000966234
0.000979039
0.000994946
0.00102001
0.00105595
0.00110351
0.00117798
0.00126461
0.00110684
0.00092941
0.000929959
0.000930742
0.000933662
0.000933851
0.00093977
0.000940267
0.000947444
0.000952187
0.000958957
0.00096816
0.000977691
0.000988653
0.00100223
0.00101635
0.00103637
0.00106084
0.00109495
0.00113996
0.00119728
0.00127812
0.00136683
0.0011926
0.00096026
0.000961239
0.000962103
0.000965689
0.000966287
0.000972777
0.000974346
0.000982032
0.000988203
0.000996331
0.00100695
0.00101844
0.00103216
0.00104945
0.00106915
0.00109512
0.00112659
0.0011673
0.00121929
0.00128284
0.00136051
0.0014553
0.00127061
0.000992317
0.000993472
0.000994242
0.000998164
0.000998931
0.00100575
0.00100807
0.00101625
0.00102339
0.00103284
0.00104458
0.00105825
0.00107452
0.00109539
0.00111904
0.00114936
0.00118565
0.00123139
0.00128632
0.00135335
0.00143724
0.00153979
0.00134367
0.00102382
0.00102517
0.00102602
0.0010304
0.00103156
0.00103885
0.00104201
0.00105092
0.0010589
0.00106978
0.00108272
0.00109842
0.00111665
0.00113981
0.00116609
0.00119971
0.00123945
0.00128661
0.00134498
0.00141631
0.0015042
0.00161185
0.0014037
0.00105642
0.00105789
0.00105871
0.00106331
0.00106462
0.00107206
0.00107561
0.00108501
0.00109322
0.00110533
0.00111866
0.00113591
0.00115476
0.00118017
0.00120795
0.0012417
0.00128215
0.00133175
0.00139158
0.00146521
0.00155483
0.00166643
0.0014468
0.00108874
0.00109024
0.00109098
0.0010956
0.00109702
0.0011045
0.00110843
0.00111819
0.00112669
0.00113965
0.00115325
0.00117172
0.00119121
0.00121857
0.0012472
0.00128215
0.00132299
0.00137345
0.00143337
0.00150796
0.00159779
0.00171025
0.00147526
0.00112216
0.00112356
0.00112411
0.00112846
0.00112987
0.00113705
0.00114116
0.0011508
0.00115944
0.00117248
0.00118643
0.00120515
0.00122548
0.0012492
0.00127737
0.00131123
0.00135228
0.00140185
0.00146158
0.00153434
0.00162204
0.00172933
0.00148493
0.001155
0.00115627
0.00115665
0.00116059
0.00116199
0.00116854
0.00117279
0.00118177
0.0011907
0.001203
0.00121742
0.00123503
0.00125604
0.00127874
0.00130648
0.00133956
0.00137966
0.00142696
0.00148438
0.00155209
0.0016356
0.00173498
0.0014808
0.00118888
0.00118999
0.00119013
0.00119349
0.00119478
0.00120039
0.00120458
0.00121244
0.00122146
0.00123231
0.00124695
0.00126249
0.00128119
0.00130263
0.00132892
0.00135965
0.00139709
0.00144115
0.00149513
0.00155899
0.00163695
0.00172798
0.00145376
0.00122214
0.00122306
0.00122295
0.00122564
0.00122684
0.00123131
0.00123537
0.00124174
0.00125064
0.00125946
0.00127393
0.00128673
0.00130439
0.00132357
0.00134694
0.00137489
0.00140933
0.00145047
0.00150049
0.00155866
0.00162779
0.00170896
0.00141306
0.00125565
0.00125638
0.00125606
0.00125807
0.00125917
0.00126238
0.00126615
0.00127081
0.00127927
0.00128574
0.00129954
0.00130924
0.00132487
0.00134115
0.00136126
0.00138605
0.00141635
0.00145251
0.00149624
0.00154842
0.00161015
0.00168203
0.00137127
0.00128812
0.00128863
0.00128821
0.00128953
0.00129049
0.0012925
0.00129581
0.00129862
0.00130622
0.00131009
0.00132263
0.00132899
0.00134155
0.00135462
0.00137056
0.0013907
0.00141521
0.00144548
0.00148332
0.00152878
0.00158204
0.00164467
0.00132198
0.00131936
0.00131958
0.00131925
0.00131993
0.00132082
0.00132184
0.0013247
0.00132576
0.00133214
0.00133368
0.00134448
0.00134778
0.00135963
0.00136928
0.00138034
0.00139485
0.00141292
0.00143589
0.00146544
0.00150255
0.00154792
0.0016024
0.00127668
0.0013485
0.00134837
0.00134822
0.00134828
0.00134914
0.00134934
0.00135184
0.00135147
0.00135638
0.00135578
0.00136433
0.00136481
0.00137219
0.00137749
0.00138323
0.00139197
0.00140301
0.00141753
0.00143818
0.00146305
0.00150146
0.00154258
0.00122475
0.00137469
0.00137426
0.00137428
0.00137388
0.00137482
0.00137447
0.00137679
0.00137562
0.00137953
0.0013774
0.0013837
0.0013818
0.0013897
0.00138916
0.00139354
0.00139667
0.00139813
0.00139764
0.00140641
0.00141621
0.00144438
0.00147538
0.00116723
0.00139768
0.00139706
0.0013972
0.00139653
0.00139756
0.00139688
0.00139903
0.00139738
0.00140067
0.00139766
0.00140192
0.00139779
0.00139853
0.00139507
0.00139125
0.0013863
0.00138248
0.00137848
0.00137299
0.00136796
0.00138279
0.00140439
0.00110508
0.001417
0.00141626
0.00141641
0.00141557
0.00141662
0.00141574
0.00141783
0.00141607
0.00141915
0.00141588
0.00141919
0.0014137
0.00141537
0.0014078
0.00140131
0.00138988
0.00137604
0.00136094
0.00134242
0.00132103
0.00131618
0.0013217
0.00104888
0.00143264
0.00143186
0.00143204
0.00143118
0.00143231
0.00143144
0.00143364
0.00143218
0.0014353
0.00143221
0.00143327
0.00142859
0.00142126
0.0014107
0.00139702
0.00137919
0.00135826
0.00133385
0.00130705
0.00128241
0.00125411
0.00123463
0.000970952
0.00144487
0.00144402
0.00144414
0.00144324
0.00144443
0.00144369
0.0014461
0.00144502
0.00144824
0.00144558
0.00144811
0.0014418
0.00143827
0.00142732
0.00141201
0.00139074
0.00136339
0.00132883
0.00128751
0.00124429
0.00120131
0.00115307
0.000894179
0.00145335
0.00145281
0.00145267
0.00145207
0.00145296
0.00145284
0.00145437
0.00145479
0.00145664
0.00145617
0.00145551
0.00145104
0.00144256
0.00142897
0.00140925
0.0013824
0.00134809
0.00130589
0.0012557
0.00119875
0.00113866
0.00108941
0.000791938
0.00145774
0.00145714
0.00145659
0.00145659
0.0014568
0.00145728
0.00145855
0.00146
0.00146199
0.00146354
0.00146426
0.00146129
0.00145479
0.00144329
0.00142554
0.00139968
0.00136416
0.00131721
0.00125787
0.0011869
0.00110736
0.00103004
0.000719312
0.00146018
0.00145973
0.00145931
0.00145931
0.00145955
0.00145997
0.00146113
0.00146247
0.00146428
0.00146563
0.00146545
0.00146185
0.00145414
0.00144108
0.00142091
0.00139171
0.00135174
0.00129927
0.00123326
0.00115257
0.00105834
0.000953526
0.000627073
0.0014614
0.00146052
0.00145967
0.00145962
0.00145962
0.00145996
0.00146121
0.00146279
0.00146499
0.0014669
0.00146852
0.00146629
0.00146021
0.00144923
0.00143159
0.0014052
0.00136759
0.00131555
0.00124692
0.00115868
0.001052
0.000931776
0.0005951
0.00146078
0.00145994
0.00145902
0.00145876
0.00145876
0.0014588
0.00145967
0.0014608
0.00146245
0.00146369
0.00146357
0.0014602
0.00145274
0.0014401
0.00142048
0.00139189
0.00135224
0.00129854
0.00122854
0.00113819
0.00102615
0.000890104
0.000543358
0.00146154
0.00146046
0.00145927
0.00145877
0.00145858
0.00145858
0.00145926
0.00146024
0.00146186
0.00146263
0.00146386
0.00146013
0.00145458
0.00144307
0.00142474
0.00139759
0.00135934
0.00130641
0.00123629
0.00114446
0.00102887
0.000886836
0.000533625
0.00145942
0.00145818
0.00145669
0.00145578
0.00145504
0.00145504
0.00145504
0.0014552
0.00145585
0.0014558
0.00145377
0.00144939
0.00144091
0.00142737
0.00140699
0.00137796
0.00133817
0.00128415
0.0012134
0.00112101
0.0010047
0.000858871
0.00050605
2.29888e-05
2.29888e-05
3.33559e-05
0.000195107
2.97702e-05
2.97702e-05
3.30227e-05
7.51351e-05
3.47237e-05
3.41092e-05
3.26394e-05
3.26394e-05
3.51139e-05
3.51139e-05
3.568e-05
3.57527e-05
3.63992e-05
3.63992e-05
3.71056e-05
3.77788e-05
0.00014895
0.000131529
5.35633e-05
5.35633e-05
0.000779355
0.000749632
0.000651108
0.000209245
0.000753813
0.000753813
0.000805789
0.000833474
0.000796825
0.000780999
0.000765576
0.000765576
0.000871658
0.000871658
0.000887131
0.000896215
0.000698132
0.000698132
0.00075784
0.000815168
0.000529039
0.000529039
0.000585328
0.000642785
0.000575588
0.000575588
0.000615604
0.000658038
0.000633207
0.000633207
0.000671902
0.00071104
0.000688906
0.000688906
0.00072547
0.000763603
0.000744971
0.000744971
0.000781822
0.000820965
0.000799929
0.000799929
0.000837273
0.00087771
0.00085149
0.00085149
0.000891486
0.000934161
0.000899755
0.000899755
0.000942017
0.000986141
0.000939805
0.000939805
0.000984348
0.00103246
0.000968825
0.000968825
0.00101678
0.00107195
0.000989232
0.000989232
0.00104035
0.0010991
0.000995769
0.000995769
0.00104477
0.00110097
0.000988424
0.000988424
0.0010294
0.0010791
0.000965194
0.000965194
0.0010012
0.00104594
0.000936874
0.000936874
0.000968059
0.00100401
0.000904551
0.000904551
0.000930897
0.000959735
0.00086825
0.00086825
0.000890736
0.000913608
0.000834889
0.000834889
0.000852
0.000870626
0.000801118
0.000801118
0.000816735
0.000833276
0.000762371
0.000762371
0.000776975
0.000793292
0.000719896
0.000719896
0.000731905
0.000745725
0.000682739
0.000682739
0.000693222
0.00070534
0.000633082
0.000633082
0.000643983
0.00065661
0.000582785
0.000582785
0.0005933
0.000605051
0.000512848
0.000512848
0.000521928
0.000533068
0.000458923
0.000458923
0.000463972
0.000474039
0.000385327
0.000377201
0.000377201
0.0003792
0.000355356
0.000333203
0.000319505
0.000319505
0.000312672
0.00027823
0.000250454
0.000250454
0.000302283
0.000260564
0.000221164
0.000221164
0.000281989
0.000237907
0.000195751
0.000195751
0.000341316
0.000447502
0.000447032
0.000488414
0.000635253
0.000749882
0.00068449
0.000704828
0.000788585
0.0008533
0.000838365
0.000925696
0.00099746
0.00110259
0.00127025
0.00147557
0.00194844
0.00207334
0.0030014
0.000298332
0.000709215
0.000715402
0.000852199
0.00113243
0.00107287
0.000722583
0.000966665
0.00110787
0.00120444
0.0010426
0.00123631
0.0012371
0.00143432
0.00157548
0.00203506
0.00154277
0.00283869
0.00511571
7.40857e-05
0.000729836
0.00106068
0.00126082
0.00129436
0.000868529
0.000722583
0.000796073
0.00104544
0.00113704
0.000937823
0.00108707
0.000869586
0.00113256
0.00118574
0.00151349
0.000862359
0.0020236
0.00551335
5.99349e-05
0.000143538
0.000298268
0.000829337
0.00127403
0.00149641
0.0012301
0.00127616
0.00131773
0.00119635
0.000937823
0.000723247
0.000696512
0.000696512
0.000941063
0.00127319
0.000862359
0.00195415
0.00543081
6.42141e-05
8.84732e-05
0.000102158
0.000142909
0.000186083
0.000222146
0.00027108
0.000420574
0.000842293
0.00115879
0.00162261
0.00152716
0.00132531
0.00120311
0.00135085
0.00147714
0.00159818
0.00231741
0.00493854
6.39574e-05
8.84732e-05
9.93092e-05
0.00010507
0.000106173
0.000109983
0.000115483
0.000129373
0.000156781
0.000187355
0.000230774
0.000336541
0.00086343
0.00160056
0.00205155
0.00192262
0.0023092
0.00181061
0.00393836
0.000187705
0.000149702
0.000124583
0.000112554
0.000106173
0.000109983
0.000115483
0.000125014
0.000129075
0.000133032
0.000135789
0.000136405
0.00016554
0.000228973
0.000397782
0.00130051
0.00169308
0.00178782
0.00334599
0.00136772
0.000955181
0.000667051
0.000390908
0.000251552
0.000246083
0.000242581
0.000235056
0.000220153
0.000199303
0.000175226
0.000136405
0.000139923
0.000139923
0.000145894
0.000208082
0.000312929
0.000630336
0.001372
0.0012689
0.00181794
0.00189989
0.00188952
0.00187981
0.0018414
0.00178948
0.00168818
0.00150278
0.00125186
0.000976902
0.000317802
0.000262176
0.000177455
0.000142874
0.000132762
0.000139544
0.000138365
0.000524789
0.00150371
0.00181794
0.00190311
0.00197935
0.00207827
0.00208693
0.0020845
0.00203655
0.00212606
0.00216308
0.00226661
0.00234429
0.00188003
0.000989241
0.000264924
0.000132762
0.000124624
9.02056e-05
0.000144373
0.00144663
0.00197422
0.00203424
0.00205237
0.00209674
0.00208693
0.0020845
0.00203655
0.00201774
0.00176346
0.00171263
0.0015724
0.00179481
0.00208135
0.00164031
0.0002795
0.0001126
8.08532e-05
0.000152271
0.00117212
0.00184386
0.00206769
0.00221091
0.00229963
0.00230867
0.00228103
0.00211058
0.00201774
0.00176346
0.00146625
0.00131698
0.00128373
0.00162118
0.00167008
0.000617628
0.000135685
8.08532e-05
0.000208125
0.00117857
0.00184386
0.00206769
0.0022201
0.00238228
0.00245811
0.00250474
0.00237713
0.00229329
0.00195066
0.00176321
0.00133526
0.00128373
0.00177619
0.00147836
0.000668151
0.000171491
8.9025e-05
0.000295723
0.0012618
0.00186711
0.00209989
0.00226882
0.00246328
0.00255496
0.00266664
0.00259098
0.00260309
0.00233923
0.00224028
0.0018168
0.00169645
0.00201157
0.00126384
0.000502303
0.000218276
0.000126859
0.000438345
0.00134895
0.00196181
0.00222076
0.00240766
0.00263547
0.0027383
0.00289545
0.00285116
0.00291722
0.00271631
0.00275221
0.00241404
0.00247008
0.00211973
0.00119507
0.000407901
0.000201368
0.000203991
0.000518214
0.00144541
0.0020869
0.00238016
0.00259209
0.00286431
0.00300454
0.00321509
0.0032228
0.00334517
0.00320259
0.0033365
0.00308902
0.00337196
0.00261624
0.00131616
0.000407305
0.000172925
0.000204835
0.000447145
0.00154083
0.00223466
0.00256765
0.0028368
0.00318067
0.00338265
0.00365416
0.00371864
0.00388339
0.00377982
0.00400231
0.00385563
0.00453844
0.00287639
0.00111803
0.000507254
0.000116249
0.000178736
0.000414262
0.00163909
0.00240786
0.00280988
0.00316401
0.00355895
0.00381355
0.00415499
0.00431023
0.00456452
0.00449552
0.00469845
0.00466645
0.00545869
0.00399241
0.00111501
0.000180288
0.000116249
0.000224022
0.000846174
0.00173301
0.00262022
0.00311267
0.00348034
0.00384083
0.00405427
0.00445291
0.00478526
0.00521066
0.00534313
0.00541166
0.00543842
0.00581912
0.00540659
0.00233509
0.000518214
0.000213031
0.000401429
0.000769014
0.00182893
0.00285949
0.00337948
0.0034485
0.00346277
0.00356332
0.00404422
0.00461654
0.00537972
0.00598072
0.00611618
0.00613216
0.00609071
0.00605788
0.00357795
0.001203
0.00063673
0.000401429
0.00068324
0.00191235
0.00304967
0.00330674
0.00300824
0.00279289
0.00294924
0.00356898
0.00424605
0.00520579
0.0059755
0.0065421
0.00665508
0.0064301
0.00623406
0.00435775
0.00213152
0.000946574
0.000616778
0.000958597
0.00196184
0.0030262
0.00305473
0.00242848
0.00219531
0.00236497
0.00267903
0.00329639
0.00456571
0.0057999
0.00653519
0.00690338
0.00670128
0.00629541
0.00512932
0.00244729
0.00107195
0.000956372
0.00157676
0.00195014
0.00293273
0.00270895
0.00183544
0.00179439
0.00201187
0.00181791
0.00191328
0.00360575
0.00548314
0.00642941
0.00681188
0.00672144
0.0063767
0.00558618
0.00286974
0.00107195
0.00170564
0.00189194
0.0018979
0.00278764
0.00224184
0.00136505
0.00158029
0.00185411
0.00139302
0.000901473
0.00226023
0.00459697
0.00615175
0.00655585
0.00652086
0.00637251
0.00594096
0.00333902
0.00124325
0.00176564
0.00233728
0.00182947
0.00258644
0.00187768
0.00106528
0.00124399
0.00188221
0.00125854
0.000901473
0.00163281
0.00389222
0.00556318
0.00623081
0.00619673
0.00617548
0.00589142
0.00382766
0.00175218
0.00176564
0.00260602
0.00174573
0.00236499
0.00168372
0.000844874
0.000539127
0.00160408
0.00189621
0.00141383
0.00248399
0.00392606
0.00507986
0.00580924
0.00573405
0.00580965
0.00566771
0.00425013
0.002383
0.00187122
0.00326517
0.00166998
0.00218709
0.00164916
0.000464428
0.000464428
0.000936316
0.00218197
0.00258174
0.00308179
0.0043564
0.00484272
0.00535571
0.00505061
0.00519578
0.00525705
0.00472448
0.00314424
0.00217673
0.00407484
0.00158153
0.00209278
0.00174808
0.000872265
0.000562224
0.00116267
0.00174989
0.00285991
0.00362123
0.00444587
0.00484272
0.00501698
0.00437382
0.00444465
0.00485561
0.00435274
0.00363424
0.00236869
0.0038599
0.00149656
0.00201231
0.00189409
0.00124183
0.000434111
0.0014784
0.00194749
0.00248675
0.00359823
0.0045348
0.00490011
0.00453043
0.00311837
0.00280125
0.00394631
0.00435274
0.00436524
0.00285537
0.00457719
0.00142707
0.00192177
0.00187631
0.000934308
0.000430305
0.00139357
0.00232317
0.00271334
0.00350512
0.00432868
0.00404552
0.00330573
0.00200472
0.0019499
0.00259202
0.00433017
0.00498004
0.00391964
0.00527452
0.00135956
0.00184289
0.00187631
0.00131416
0.000430305
0.00137814
0.00308962
0.00312984
0.00362007
0.00382808
0.00265351
0.00231457
0.00175324
0.0019499
0.00263839
0.00377395
0.00586301
0.00523012
0.0061293
0.00127817
0.00174678
0.00186101
0.00166737
0.00104614
0.000659277
0.00250498
0.00371732
0.00398737
0.00341304
0.00244783
0.00186952
0.00155733
0.0016098
0.00219985
0.00290519
0.00487724
0.00652194
0.00728073
0.00120546
0.00164179
0.00179403
0.00177931
0.00110745
0.000659277
0.00186938
0.00380376
0.00432025
0.00355455
0.00237742
0.0018081
0.00155733
0.0016098
0.0019713
0.00274885
0.0044672
0.00740132
0.00844843
0.00112547
0.0015356
0.00170592
0.00185515
0.00160628
0.000853692
0.00141623
0.00302845
0.00402648
0.00343783
0.00237742
0.00200964
0.00165519
0.00171104
0.00258157
0.00274885
0.00429675
0.00760135
0.00940527
0.00103815
0.00139648
0.00157265
0.0018306
0.00178083
0.00145113
0.00138868
0.00224134
0.00354263
0.00357913
0.00247974
0.00224315
0.00227144
0.00229072
0.00247295
0.00277394
0.0045269
0.00785815
0.0100741
0.000915177
0.00124978
0.00141292
0.00168537
0.00192363
0.0018092
0.00138868
0.00188764
0.00270467
0.00297178
0.00227351
0.0019221
0.00190165
0.00195762
0.00241451
0.00292385
0.00474769
0.007937
0.0104836
0.000816693
0.0010936
0.00126251
0.00151139
0.00183285
0.00204316
0.00193119
0.00188764
0.00216761
0.00218094
0.00180944
0.00158648
0.00148664
0.00164493
0.00237655
0.00310053
0.00500961
0.00803236
0.0108169
0.000655363
0.00091966
0.00110509
0.00135095
0.00167753
0.0020092
0.0022914
0.00217377
0.00216761
0.00195162
0.00168249
0.00134155
0.000941621
0.00109163
0.00210916
0.00335121
0.00528987
0.00819761
0.0111855
0.00053444
0.000747057
0.000962475
0.00120992
0.00150814
0.00181252
0.00213577
0.00231502
0.00228777
0.00204485
0.00166271
0.00105685
0.000654191
0.000541044
0.00145418
0.00333195
0.0058711
0.00879222
0.0116682
0.000397476
0.000545384
0.000793093
0.00106394
0.00135842
0.00163672
0.00191428
0.00209845
0.00213737
0.00201294
0.00160377
0.00104665
0.000555647
0.000541044
0.000720528
0.00249091
0.00577334
0.00934383
0.0123314
0.000319573
0.000432706
0.000622638
0.000929739
0.00125256
0.00150286
0.00171392
0.0018631
0.00193032
0.0019125
0.00176073
0.00145392
0.00118713
0.000892675
0.0010559
0.00158677
0.00562322
0.010087
0.0130586
0.00027721
0.000412472
0.000633491
0.00091767
0.00119362
0.00144702
0.00165975
0.00182515
0.00193032
0.0019125
0.00181364
0.00173927
0.0018299
0.00171939
0.00143785
0.00143785
0.00362247
0.00976768
0.0140096
)
;

boundaryField
{
    leftWall
    {
        type            calculated;
        value           uniform 0;
    }
    rightWall
    {
        type            calculated;
        value           uniform 0;
    }
    lowerWall
    {
        type            calculated;
        value           uniform 0;
    }
    atmosphere
    {
        type            calculated;
        value           uniform 0;
    }
    defaultFaces
    {
        type            empty;
    }
}


// ************************************************************************* //
