/*--------------------------------*- C++ -*----------------------------------*\
| =========                 |                                                 |
| \\      /  F ield         | OpenFOAM: The Open Source CFD Toolbox           |
|  \\    /   O peration     | Version:  2012                                  |
|   \\  /    A nd           | Website:  www.openfoam.com                      |
|    \\/     M anipulation  |                                                 |
\*---------------------------------------------------------------------------*/
FoamFile
{
    version     2.0;
    format      ascii;
    class       volScalarField;
    location    "0.37";
    object      pcorr;
}
// * * * * * * * * * * * * * * * * * * * * * * * * * * * * * * * * * * * * * //

dimensions      [1 -1 -2 0 0 0 0];


internalField   nonuniform List<scalar> 
2268
(
101532
101537
101548
101565
101589
101621
101662
101715
101782
101866
101970
102100
102260
102455
102691
102972
103300
103671
104077
104496
104895
105221
105409
101531
101536
101547
101564
101587
101619
101660
101712
101778
101861
101964
102093
102252
102446
102681
102962
103290
103663
104073
104501
104911
105251
105451
101528
101533
101544
101561
101584
101615
101655
101706
101770
101852
101953
102080
102236
102428
102661
102941
103270
103647
104066
104510
104944
105313
105537
101525
101530
101540
101556
101578
101608
101647
101696
101759
101838
101936
102059
102212
102401
102631
102909
103239
103622
104054
104520
104990
105407
105674
101520
101525
101535
101550
101571
101600
101637
101684
101744
101820
101914
102033
102180
102364
102590
102865
103196
103586
104034
104530
105049
105534
105869
101514
101519
101528
101543
101563
101590
101625
101669
101726
101797
101887
101999
102141
102318
102538
102809
103141
103537
104003
104535
105115
105695
106139
101508
101512
101521
101534
101553
101578
101610
101652
101704
101770
101854
101960
102093
102262
102474
102740
103070
103472
103957
104529
105180
105887
106507
101500
101504
101512
101524
101541
101564
101594
101632
101680
101740
101816
101914
102037
102196
102398
102657
102984
103389
103892
104505
105234
106098
107014
113731
113731
113732
113733
113733
113734
113735
113736
113737
113738
113739
113740
113741
113743
113744
113745
113745
113746
113746
113731
113731
113732
113733
113733
113734
113735
113736
113737
113738
113739
113740
113741
113743
113744
113745
113745
113746
113746
113731
113731
113732
113733
113733
113734
113735
113736
113737
113738
113739
113740
113741
113743
113744
113745
113745
113746
113746
113730
113731
113732
113733
113733
113734
113735
113736
113737
113738
113739
113740
113741
113743
113744
113745
113746
113746
113746
113730
113731
113732
113732
113733
113734
113735
113736
113737
113738
113739
113740
113741
113743
113744
113745
113746
113746
113747
113730
113731
113732
113732
113733
113734
113735
113736
113737
113738
113739
113740
113741
113743
113744
113745
113746
113747
113747
113729
113730
113731
113732
113733
113734
113735
113736
113737
113738
113739
113740
113742
113743
113744
113745
113746
113747
113747
113728
113730
113731
113732
113733
113734
113735
113736
113737
113738
113739
113740
113742
113743
113744
113745
113746
113747
113748
101487
101490
101497
101507
101522
101541
101566
101597
101636
101687
101751
101832
101939
102077
102261
102503
102821
103225
103753
104428
105271
106410
108125
101465
101467
101472
101480
101490
101503
101520
101541
101567
101600
101643
101698
101771
101872
102013
102218
102513
102876
103415
104152
105024
106251
108026
101441
101443
101445
101449
101455
101462
101471
101480
101491
101505
101523
101545
101578
101626
101704
101843
102134
102351
102877
103740
104417
105540
107180
101420
101421
101422
101424
101426
101429
101433
101435
101437
101439
101441
101444
101446
101450
101453
101456
101495
101618
102037
103517
103361
104307
105918
101427
101428
101428
101429
101430
101432
101434
101435
101437
101439
101441
101443
101446
101449
101452
101455
101459
101468
101483
101549
101712
102500
104875
101427
101428
101428
101429
101430
101431
101433
101435
101436
101438
101441
101443
101446
101449
101452
101455
101459
101465
101471
101480
101489
101517
101680
101427
101428
101428
101429
101430
101431
101432
101434
101436
101438
101440
101442
101445
101448
101451
101455
101459
101464
101469
101475
101481
101488
101499
101427
101427
101428
101428
101429
101430
101432
101433
101435
101437
101439
101442
101444
101447
101450
101454
101458
101462
101467
101472
101478
101483
101489
101426
101426
101427
101428
101428
101430
101431
101432
101434
101436
101438
101440
101443
101446
101449
101452
101456
101460
101465
101470
101475
101480
101485
101425
101426
101426
101427
101427
101429
101430
101431
101433
101435
101437
101439
101442
101444
101447
101451
101454
101458
101462
101467
101471
101476
101481
101424
101424
101425
101425
101426
101427
101428
101430
101431
101433
101435
101437
101440
101443
101445
101449
101452
101456
101459
101464
101468
101472
101477
101423
101423
101424
101424
101425
101426
101427
101428
101430
101432
101433
101436
101438
101440
101443
101446
101449
101453
101457
101460
101464
101468
101473
101421
101422
101422
101423
101423
101424
101425
101427
101428
101430
101432
101434
101436
101438
101441
101444
101447
101450
101453
101457
101461
101465
101469
101420
101420
101420
101421
101422
101422
101423
101425
101426
101428
101429
101431
101433
101436
101438
101441
101444
101447
101450
101453
101457
101461
101464
101418
101418
101418
101419
101420
101420
101421
101423
101424
101425
101427
101429
101431
101433
101436
101438
101441
101444
101447
101450
101453
101456
101460
101416
101416
101416
101417
101417
101418
101419
101420
101422
101423
101425
101426
101428
101430
101433
101435
101437
101440
101443
101446
101449
101452
101455
101414
101414
101414
101415
101415
101416
101417
101418
101419
101420
101422
101424
101425
101427
101429
101432
101434
101437
101439
101442
101445
101448
101451
101411
101411
101412
101412
101413
101413
101414
101415
101416
101418
101419
101421
101422
101424
101426
101428
101431
101433
101435
101438
101441
101443
101446
101409
101409
101409
101410
101410
101411
101412
101413
101414
101415
101416
101418
101419
101421
101423
101425
101427
101429
101431
101434
101436
101439
101441
101406
101406
101407
101407
101407
101408
101409
101410
101411
101412
101413
101415
101416
101418
101419
101421
101423
101425
101427
101430
101432
101434
101437
101403
101403
101404
101404
101405
101405
101406
101407
101408
101409
101410
101411
101413
101414
101416
101417
101419
101421
101423
101425
101427
101429
101432
101400
101401
101401
101401
101402
101402
101403
101404
101405
101406
101407
101408
101409
101411
101412
101414
101415
101417
101419
101421
101423
101425
101427
101397
101398
101398
101398
101399
101399
101400
101400
101401
101402
101403
101404
101406
101407
101408
101410
101411
101413
101415
101416
101418
101420
101422
101394
101394
101395
101395
101395
101396
101396
101397
101398
101399
101400
101401
101402
101403
101404
101406
101407
101409
101410
101412
101414
101415
101417
101391
101391
101391
101392
101392
101393
101393
101394
101394
101395
101396
101397
101398
101399
101400
101402
101403
101404
101406
101407
101409
101410
101412
101388
101388
101388
101388
101389
101389
101390
101390
101391
101392
101392
101393
101394
101395
101396
101398
101399
101400
101401
101403
101404
101406
101407
101384
101385
101385
101385
101385
101386
101386
101387
101387
101388
101389
101390
101390
101391
101392
101393
101395
101396
101397
101398
101400
101401
101402
101381
101381
101381
101381
101382
101382
101382
101383
101384
101384
101385
101386
101386
101387
101388
101389
101390
101391
101392
101394
101395
101396
101397
101377
101377
101378
101378
101378
101378
101379
101379
101380
101380
101381
101382
101382
101383
101384
101385
101386
101387
101388
101389
101390
101391
101392
101374
101374
101374
101374
101374
101375
101375
101375
101376
101377
101377
101378
101378
101379
101380
101381
101382
101382
101383
101384
101385
101386
101387
101370
101370
101370
101370
101371
101371
101371
101372
101372
101373
101373
101374
101374
101375
101376
101376
101377
101378
101379
101380
101380
101381
101382
101366
101366
101367
101367
101367
101367
101367
101368
101368
101369
101369
101370
101370
101371
101371
101372
101373
101373
101374
101375
101376
101376
101377
101363
101363
101363
101363
101363
101363
101364
101364
101364
101365
101365
101365
101366
101366
101367
101368
101368
101369
101369
101370
101371
101371
101372
101359
101359
101359
101359
101359
101359
101360
101360
101360
101361
101361
101361
101362
101362
101363
101363
101364
101364
101365
101365
101366
101367
101367
101355
101355
101355
101355
101355
101355
101356
101356
101356
101356
101357
101357
101357
101358
101358
101359
101359
101360
101360
101361
101361
101362
101362
101351
101351
101351
101351
101351
101351
101352
101352
101352
101352
101353
101353
101353
101354
101354
101354
101355
101355
101355
101356
101356
101357
101357
101347
101347
101347
101347
101347
101347
101348
101348
101348
101348
101348
101349
101349
101349
101349
101350
101350
101350
101351
101351
101352
101352
101352
101343
101343
101343
101343
101343
101343
101343
101344
101344
101344
101344
101344
101345
101345
101345
101345
101346
101346
101346
101346
101347
101347
101347
101339
101339
101339
101339
101339
101339
101339
101339
101340
101340
101340
101340
101340
101340
101341
101341
101341
101341
101341
101342
101342
101342
101342
101335
101335
101335
101335
101335
101335
101335
101335
101335
101336
101336
101336
101336
101336
101336
101336
101336
101337
101337
101337
101337
101337
101337
101331
101331
101331
101331
101331
101331
101331
101331
101331
101331
101331
101331
101332
101332
101332
101332
101332
101332
101332
101332
101332
101332
101332
101327
101327
101327
101327
101327
101327
101327
101327
101327
101327
101327
101327
101327
101327
101327
101327
101327
101327
101327
101327
101327
101327
101327
110561
112273
113715
113720
109883
111188
112534
113704
108693
109792
111050
112535
106945
107678
108495
109361
104862
105200
105735
106389
101937
102224
102623
103140
101506
101513
101528
101557
101493
101496
101499
101503
101489
101491
101494
101496
101485
101487
101489
101492
101480
101483
101485
101487
101476
101478
101480
101482
101472
101474
101476
101478
101467
101469
101471
101473
101462
101464
101466
101468
101458
101459
101461
101463
101453
101454
101456
101457
101448
101450
101451
101452
101443
101445
101446
101447
101438
101440
101441
101442
101433
101434
101436
101437
101428
101429
101430
101431
101423
101424
101425
101426
101418
101419
101420
101421
101413
101414
101415
101416
101408
101409
101410
101410
101403
101404
101404
101405
101398
101399
101399
101400
101393
101393
101394
101394
101388
101388
101389
101389
101383
101383
101384
101384
101378
101378
101378
101379
101373
101373
101373
101374
101368
101368
101368
101368
101363
101363
101363
101363
101357
101358
101358
101358
101352
101353
101353
101353
101347
101348
101348
101348
101342
101343
101343
101343
101337
101338
101338
101338
101332
101333
101333
101333
101327
101328
101328
101328
113727
113730
113731
113733
113733
113734
113735
113735
113736
113738
113739
113740
113742
113743
113744
113746
113747
113748
113748
113732
113731
113731
113733
113734
113734
113734
113735
113736
113737
113739
113740
113742
113743
113745
113747
113748
113749
113750
113252
113731
113731
113734
113735
113735
113734
113734
113735
113737
113738
113740
113741
113743
113745
113747
113749
113751
113752
110735
112781
113725
113738
113739
113736
113732
113733
113734
113737
113738
113739
113741
113743
113746
113748
113751
113753
113754
107591
109573
111507
112922
113312
113548
113724
113728
113732
113737
113738
113738
113740
113744
113746
113750
113753
113756
113758
104198
106000
108186
110799
109788
109908
110361
111019
111820
112622
113538
113730
113739
113744
113746
113751
113755
113759
113764
101675
102387
103441
104518
104748
105046
105462
106056
106865
107844
109040
110344
111793
113485
113741
113754
113756
113766
113784
101511
101526
101558
101611
101655
101703
101790
101989
102391
103001
103818
104940
106580
108776
110886
112943
113749
113779
113964
101501
101508
101517
101527
101534
101541
101548
101555
101565
101581
101618
101718
102090
103606
106040
108849
111017
112452
112805
101496
101502
101508
101515
101521
101527
101533
101538
101544
101550
101558
101568
101584
101607
102223
104867
107690
109749
110746
101491
101497
101502
101508
101514
101520
101525
101530
101535
101540
101546
101553
101560
101570
101590
102179
104969
107450
108672
101486
101491
101497
101502
101507
101512
101517
101522
101527
101532
101538
101544
101550
101557
101566
101584
103197
105681
106898
101481
101486
101491
101496
101501
101505
101510
101515
101519
101524
101529
101534
101540
101546
101554
101565
102393
104470
105464
101476
101480
101485
101489
101494
101498
101503
101507
101511
101516
101520
101525
101529
101535
101542
101552
102136
103735
104470
101471
101475
101479
101483
101487
101491
101495
101499
101503
101507
101511
101515
101519
101523
101529
101541
102000
103179
103739
101465
101469
101473
101477
101481
101485
101488
101492
101495
101499
101502
101505
101508
101510
101514
101531
101888
102704
103142
101460
101464
101467
101471
101474
101478
101481
101484
101487
101490
101493
101495
101497
101498
101496
101505
101730
102296
102612
101455
101458
101461
101465
101468
101471
101474
101477
101480
101482
101484
101486
101487
101487
101484
101481
101540
102104
102346
101449
101452
101455
101458
101461
101464
101467
101470
101472
101474
101476
101477
101478
101477
101476
101473
101475
101905
102099
101444
101447
101449
101452
101455
101458
101460
101463
101465
101467
101468
101469
101469
101469
101468
101467
101467
101682
101931
101438
101441
101444
101446
101449
101451
101454
101456
101458
101459
101461
101461
101462
101461
101460
101459
101455
101492
101787
101433
101435
101438
101440
101442
101444
101446
101449
101451
101452
101453
101454
101454
101454
101453
101452
101449
101448
101535
101428
101430
101432
101434
101436
101438
101440
101442
101443
101445
101446
101447
101447
101447
101447
101446
101444
101442
101382
101422
101424
101426
101428
101430
101432
101433
101435
101436
101438
101439
101440
101441
101441
101441
101440
101438
101435
101431
101417
101419
101420
101422
101424
101425
101427
101428
101430
101431
101433
101434
101435
101435
101435
101434
101433
101431
101427
101411
101413
101415
101416
101418
101419
101421
101422
101423
101425
101426
101428
101429
101429
101429
101429
101428
101428
101429
101406
101407
101409
101410
101412
101413
101414
101416
101417
101419
101420
101422
101423
101424
101424
101424
101423
101424
101427
101401
101402
101403
101405
101406
101407
101408
101410
101411
101413
101414
101416
101418
101419
101419
101419
101418
101418
101417
101395
101396
101398
101399
101400
101401
101402
101403
101405
101406
101408
101411
101413
101415
101415
101414
101413
101412
101412
101390
101391
101392
101393
101394
101395
101396
101397
101398
101399
101402
101406
101409
101412
101412
101410
101408
101407
101406
101385
101386
101386
101387
101388
101389
101390
101390
101391
101392
101393
101400
101402
101410
101409
101405
101402
101401
101400
101379
101380
101381
101382
101382
101383
101383
101384
101384
101384
101382
101371
101169
101270
101405
101398
101395
101394
101394
101374
101375
101375
101376
101376
101377
101377
101377
101377
101377
101375
101364
101244
101283
101402
101390
101388
101387
101387
101369
101369
101370
101370
101371
101371
101371
101371
101371
101371
101370
101370
101352
101386
101384
101380
101380
101380
101380
101364
101364
101364
101365
101365
101365
101365
101365
101365
101365
101364
101360
101361
101363
101366
101370
101372
101372
101372
101358
101359
101359
101359
101360
101360
101360
101360
101359
101359
101357
101356
101356
101357
101359
101362
101364
101365
101365
101353
101353
101354
101354
101354
101354
101354
101354
101354
101353
101352
101352
101352
101353
101354
101356
101357
101358
101359
101348
101348
101348
101349
101349
101349
101349
101349
101348
101348
101348
101347
101347
101348
101349
101350
101351
101352
101352
101343
101343
101343
101343
101343
101343
101343
101343
101343
101343
101343
101343
101343
101343
101344
101344
101345
101346
101346
101338
101338
101338
101338
101338
101338
101338
101338
101338
101338
101338
101338
101338
101338
101338
101339
101339
101340
101340
101333
101333
101333
101333
101333
101333
101333
101333
101333
101333
101333
101333
101333
101333
101333
101333
101334
101334
101334
101328
101328
101328
101328
101328
101328
101328
101328
101328
101328
101328
101328
101328
101328
101328
101328
101328
101328
101328
)
;

boundaryField
{
    leftWall
    {
        type            zeroGradient;
    }
    rightWall
    {
        type            zeroGradient;
    }
    lowerWall
    {
        type            zeroGradient;
    }
    atmosphere
    {
        type            fixedValue;
        value           uniform 101325;
    }
    defaultFaces
    {
        type            empty;
    }
}


// ************************************************************************* //
