/*--------------------------------*- C++ -*----------------------------------*\
| =========                 |                                                 |
| \\      /  F ield         | OpenFOAM: The Open Source CFD Toolbox           |
|  \\    /   O peration     | Version:  2012                                  |
|   \\  /    A nd           | Website:  www.openfoam.com                      |
|    \\/     M anipulation  |                                                 |
\*---------------------------------------------------------------------------*/
FoamFile
{
    version     2.0;
    format      ascii;
    class       volScalarField;
    location    "0.37";
    object      rho2;
}
// * * * * * * * * * * * * * * * * * * * * * * * * * * * * * * * * * * * * * //

dimensions      [1 -3 0 0 0 0 0];


internalField   nonuniform List<scalar> 
2268
(
1.30563
1.30562
1.30559
1.30556
1.3055
1.30546
1.30538
1.30533
1.30524
1.30518
1.30511
1.30502
1.30498
1.30492
1.30488
1.30484
1.30481
1.30479
1.30478
1.30476
1.30476
1.30475
1.30473
1.30487
1.30486
1.30483
1.3048
1.30475
1.3047
1.30462
1.30457
1.30448
1.30442
1.30436
1.30427
1.30423
1.30416
1.30413
1.30408
1.30406
1.30404
1.30402
1.304
1.30399
1.30396
1.30394
1.30411
1.3041
1.30407
1.30404
1.30398
1.30394
1.30386
1.30381
1.30372
1.30366
1.3036
1.30351
1.30347
1.30341
1.30338
1.30333
1.3033
1.30327
1.30324
1.30318
1.30314
1.30308
1.30302
1.30333
1.30332
1.30329
1.30326
1.30321
1.30317
1.30308
1.30304
1.30295
1.30289
1.30283
1.30274
1.3027
1.30264
1.30262
1.30257
1.30254
1.30251
1.30248
1.30241
1.30235
1.30225
1.30209
1.30256
1.30255
1.30252
1.30249
1.30244
1.30239
1.30231
1.30227
1.30218
1.30212
1.30206
1.30198
1.30195
1.30189
1.30187
1.30182
1.30179
1.30172
1.30165
1.30149
1.30134
1.30109
1.30093
1.30177
1.30176
1.30173
1.3017
1.30164
1.3016
1.30152
1.30148
1.30139
1.30134
1.30127
1.3012
1.30117
1.30111
1.30109
1.30105
1.30102
1.30096
1.30089
1.30076
1.30058
1.30038
1.29996
1.30098
1.30097
1.30094
1.30091
1.30086
1.30082
1.30074
1.30069
1.30061
1.30056
1.30049
1.30043
1.3004
1.30035
1.30034
1.30031
1.30026
1.30017
1.30004
1.29972
1.29938
1.29868
1.29809
1.30017
1.30016
1.30013
1.3001
1.30005
1.30001
1.29994
1.29989
1.29981
1.29976
1.29969
1.29964
1.29961
1.29957
1.29955
1.29953
1.29949
1.29942
1.29929
1.29904
1.29868
1.29819
1.29737
1.28587
1.28587
1.28587
1.28586
1.28586
1.28585
1.28585
1.28585
1.28584
1.28584
1.28584
1.28583
1.28583
1.28583
1.28583
1.28583
1.28584
1.28584
1.28585
1.28587
1.28587
1.28586
1.28586
1.28586
1.28585
1.28585
1.28584
1.28584
1.28584
1.28584
1.28583
1.28583
1.28583
1.28583
1.28583
1.28583
1.28584
1.28584
1.28587
1.28587
1.28586
1.28586
1.28586
1.28585
1.28585
1.28584
1.28584
1.28584
1.28584
1.28583
1.28583
1.28583
1.28583
1.28583
1.28583
1.28584
1.28584
1.28587
1.28587
1.28586
1.28586
1.28586
1.28585
1.28585
1.28584
1.28584
1.28584
1.28583
1.28583
1.28583
1.28583
1.28583
1.28583
1.28583
1.28584
1.28584
1.28587
1.28587
1.28586
1.28586
1.28586
1.28585
1.28585
1.28584
1.28584
1.28584
1.28583
1.28583
1.28583
1.28583
1.28583
1.28583
1.28583
1.28583
1.28581
1.28587
1.28587
1.28586
1.28586
1.28586
1.28585
1.28585
1.28584
1.28584
1.28584
1.28583
1.28583
1.28583
1.28582
1.28582
1.28583
1.28582
1.28576
1.28558
1.28587
1.28587
1.28586
1.28586
1.28586
1.28585
1.28585
1.28584
1.28584
1.28583
1.28583
1.28583
1.28583
1.28582
1.28582
1.28582
1.28578
1.28541
1.28487
1.28588
1.28587
1.28587
1.28586
1.28586
1.28585
1.28585
1.28584
1.28584
1.28584
1.28583
1.28583
1.28583
1.28582
1.28582
1.2858
1.28561
1.28483
1.28452
1.29892
1.29891
1.29889
1.29886
1.29881
1.29876
1.2987
1.29864
1.29857
1.29852
1.29846
1.29841
1.2984
1.29835
1.29837
1.29834
1.2983
1.29816
1.29795
1.29731
1.29661
1.29431
1.29191
1.29716
1.29715
1.29712
1.29709
1.29704
1.297
1.29694
1.29688
1.29683
1.29678
1.29674
1.2967
1.29669
1.29667
1.2967
1.29669
1.29675
1.29668
1.29665
1.29623
1.29572
1.2944
1.29272
1.29543
1.29542
1.2954
1.29537
1.29532
1.29527
1.29522
1.29516
1.2951
1.29503
1.29499
1.29495
1.29495
1.29497
1.29506
1.29508
1.29519
1.29508
1.2951
1.29458
1.2941
1.29252
1.2911
1.29391
1.2939
1.29389
1.29386
1.29384
1.2938
1.29377
1.29373
1.29371
1.29367
1.29365
1.29363
1.29363
1.29364
1.29366
1.29371
1.29382
1.294
1.29416
1.2941
1.29375
1.29305
1.29193
1.29332
1.29332
1.29331
1.29331
1.29331
1.29331
1.29331
1.29332
1.29333
1.29332
1.29332
1.29332
1.29332
1.29332
1.29332
1.2933
1.29327
1.29331
1.29337
1.29346
1.29344
1.29302
1.29206
1.29325
1.29324
1.29324
1.29324
1.29324
1.29324
1.29324
1.29324
1.29323
1.29322
1.29321
1.2932
1.2932
1.2932
1.2932
1.2932
1.2932
1.29322
1.29322
1.29324
1.29328
1.29337
1.29348
1.29319
1.29319
1.29319
1.29319
1.29319
1.29319
1.29318
1.29318
1.29318
1.29318
1.29318
1.29318
1.29317
1.29317
1.29317
1.29317
1.29317
1.29317
1.29318
1.2932
1.29323
1.29322
1.29323
1.29318
1.29317
1.29317
1.29317
1.29317
1.29317
1.29317
1.29317
1.29317
1.29317
1.29317
1.29317
1.29317
1.29317
1.29317
1.29317
1.29316
1.29316
1.29316
1.29317
1.29318
1.2932
1.29323
1.29317
1.29317
1.29317
1.29317
1.29317
1.29317
1.29317
1.29317
1.29317
1.29317
1.29317
1.29317
1.29317
1.29317
1.29316
1.29316
1.29316
1.29316
1.29316
1.29316
1.29316
1.29317
1.29319
1.29317
1.29317
1.29317
1.29317
1.29317
1.29317
1.29317
1.29317
1.29317
1.29317
1.29317
1.29317
1.29317
1.29316
1.29316
1.29316
1.29316
1.29316
1.29316
1.29316
1.29315
1.29316
1.29316
1.29317
1.29317
1.29317
1.29317
1.29317
1.29317
1.29317
1.29317
1.29317
1.29317
1.29317
1.29316
1.29316
1.29316
1.29316
1.29316
1.29316
1.29316
1.29316
1.29316
1.29316
1.29315
1.29315
1.29317
1.29317
1.29317
1.29317
1.29317
1.29317
1.29316
1.29316
1.29316
1.29316
1.29316
1.29316
1.29316
1.29316
1.29316
1.29316
1.29316
1.29316
1.29316
1.29316
1.29316
1.29316
1.29315
1.29316
1.29316
1.29316
1.29316
1.29316
1.29316
1.29316
1.29316
1.29316
1.29316
1.29316
1.29316
1.29316
1.29316
1.29316
1.29316
1.29316
1.29316
1.29316
1.29316
1.29316
1.29315
1.29315
1.29316
1.29316
1.29316
1.29316
1.29316
1.29316
1.29316
1.29316
1.29316
1.29316
1.29316
1.29316
1.29316
1.29316
1.29316
1.29316
1.29316
1.29316
1.29316
1.29316
1.29316
1.29316
1.29315
1.29316
1.29316
1.29316
1.29316
1.29316
1.29316
1.29316
1.29316
1.29316
1.29316
1.29316
1.29316
1.29316
1.29316
1.29316
1.29316
1.29316
1.29316
1.29316
1.29315
1.29315
1.29315
1.29315
1.29316
1.29316
1.29316
1.29316
1.29316
1.29316
1.29316
1.29316
1.29316
1.29316
1.29316
1.29316
1.29316
1.29316
1.29316
1.29316
1.29316
1.29316
1.29316
1.29315
1.29315
1.29315
1.29315
1.29316
1.29316
1.29316
1.29316
1.29316
1.29316
1.29316
1.29316
1.29316
1.29316
1.29316
1.29316
1.29316
1.29316
1.29316
1.29315
1.29315
1.29315
1.29315
1.29315
1.29315
1.29315
1.29315
1.29316
1.29316
1.29316
1.29316
1.29316
1.29316
1.29316
1.29316
1.29316
1.29316
1.29316
1.29316
1.29315
1.29315
1.29315
1.29315
1.29315
1.29315
1.29315
1.29315
1.29315
1.29315
1.29315
1.29315
1.29315
1.29315
1.29315
1.29315
1.29315
1.29315
1.29315
1.29315
1.29315
1.29315
1.29315
1.29315
1.29315
1.29315
1.29315
1.29315
1.29315
1.29315
1.29315
1.29315
1.29315
1.29315
1.29315
1.29315
1.29315
1.29315
1.29315
1.29315
1.29315
1.29315
1.29315
1.29315
1.29315
1.29315
1.29315
1.29315
1.29315
1.29315
1.29315
1.29315
1.29315
1.29315
1.29315
1.29315
1.29315
1.29315
1.29315
1.29315
1.29315
1.29315
1.29315
1.29315
1.29315
1.29315
1.29315
1.29315
1.29315
1.29315
1.29315
1.29315
1.29315
1.29315
1.29315
1.29315
1.29315
1.29315
1.29315
1.29315
1.29315
1.29315
1.29315
1.29315
1.29315
1.29315
1.29315
1.29315
1.29315
1.29315
1.29315
1.29315
1.29315
1.29315
1.29315
1.29315
1.29315
1.29315
1.29315
1.29315
1.29315
1.29315
1.29314
1.29315
1.29315
1.29315
1.29315
1.29315
1.29315
1.29315
1.29315
1.29315
1.29315
1.29315
1.29315
1.29315
1.29315
1.29315
1.29315
1.29315
1.29315
1.29315
1.29315
1.29314
1.29314
1.29314
1.29314
1.29314
1.29314
1.29315
1.29315
1.29315
1.29315
1.29315
1.29315
1.29315
1.29315
1.29315
1.29315
1.29315
1.29315
1.29315
1.29315
1.29315
1.29314
1.29314
1.29314
1.29314
1.29314
1.29314
1.29314
1.29314
1.29314
1.29314
1.29314
1.29314
1.29314
1.29314
1.29314
1.29314
1.29314
1.29314
1.29314
1.29314
1.29314
1.29314
1.29314
1.29314
1.29314
1.29314
1.29314
1.29314
1.29314
1.29314
1.29314
1.29314
1.29314
1.29314
1.29314
1.29314
1.29314
1.29314
1.29314
1.29314
1.29314
1.29314
1.29314
1.29314
1.29314
1.29314
1.29314
1.29314
1.29314
1.29314
1.29314
1.29313
1.29313
1.29313
1.29313
1.29313
1.29313
1.29313
1.29313
1.29314
1.29314
1.29314
1.29314
1.29314
1.29314
1.29314
1.29314
1.29314
1.29314
1.29314
1.29314
1.29314
1.29314
1.29314
1.29312
1.29312
1.29312
1.29312
1.29312
1.29313
1.29313
1.29313
1.29313
1.29313
1.29313
1.29313
1.29313
1.29314
1.29314
1.29314
1.29314
1.29314
1.29314
1.29314
1.29314
1.29314
1.29314
1.29311
1.29311
1.29311
1.29311
1.29311
1.29311
1.29312
1.29312
1.29312
1.29312
1.29312
1.29312
1.29313
1.29313
1.29313
1.29313
1.29313
1.29314
1.29314
1.29314
1.29314
1.29314
1.29314
1.2931
1.2931
1.2931
1.2931
1.2931
1.2931
1.2931
1.2931
1.2931
1.29311
1.29311
1.29311
1.29312
1.29312
1.29312
1.29313
1.29313
1.29313
1.29313
1.29314
1.29314
1.29314
1.29314
1.29308
1.29308
1.29308
1.29308
1.29308
1.29309
1.29309
1.29309
1.29309
1.29309
1.29309
1.2931
1.2931
1.29311
1.29311
1.29312
1.29312
1.29313
1.29313
1.29313
1.29313
1.29313
1.29313
1.29307
1.29307
1.29307
1.29307
1.29307
1.29307
1.29308
1.29308
1.29308
1.29308
1.29308
1.29308
1.29309
1.29309
1.29309
1.2931
1.29311
1.29312
1.29312
1.29313
1.29313
1.29313
1.29314
1.29306
1.29306
1.29306
1.29306
1.29306
1.29306
1.29307
1.29307
1.29307
1.29307
1.29307
1.29307
1.29307
1.29308
1.29308
1.29309
1.29309
1.2931
1.29311
1.29312
1.29313
1.29313
1.29313
1.29306
1.29306
1.29306
1.29306
1.29306
1.29306
1.29306
1.29306
1.29306
1.29306
1.29306
1.29306
1.29307
1.29307
1.29307
1.29308
1.29308
1.29309
1.2931
1.29311
1.29312
1.29313
1.29313
1.29305
1.29305
1.29305
1.29305
1.29305
1.29305
1.29305
1.29305
1.29305
1.29305
1.29306
1.29306
1.29306
1.29306
1.29306
1.29307
1.29307
1.29308
1.29308
1.29309
1.29311
1.29312
1.29313
1.29305
1.29305
1.29305
1.29305
1.29305
1.29305
1.29305
1.29305
1.29305
1.29305
1.29305
1.29305
1.29305
1.29306
1.29306
1.29306
1.29306
1.29307
1.29308
1.29308
1.2931
1.29311
1.29313
1.29305
1.29305
1.29305
1.29305
1.29305
1.29305
1.29305
1.29305
1.29305
1.29305
1.29305
1.29305
1.29305
1.29305
1.29305
1.29306
1.29306
1.29306
1.29307
1.29308
1.29309
1.2931
1.29312
1.29304
1.29304
1.29304
1.29304
1.29304
1.29304
1.29304
1.29304
1.29304
1.29305
1.29305
1.29305
1.29305
1.29305
1.29305
1.29305
1.29306
1.29306
1.29306
1.29307
1.29308
1.29309
1.29311
1.29304
1.29304
1.29304
1.29304
1.29304
1.29304
1.29304
1.29304
1.29304
1.29304
1.29304
1.29304
1.29305
1.29305
1.29305
1.29305
1.29305
1.29306
1.29306
1.29307
1.29307
1.29308
1.29309
1.29305
1.29305
1.29305
1.29305
1.29305
1.29305
1.29305
1.29305
1.29305
1.29305
1.29305
1.29305
1.29305
1.29305
1.29305
1.29305
1.29305
1.29306
1.29306
1.29307
1.29307
1.29308
1.29309
1.29305
1.29305
1.29305
1.29305
1.29305
1.29305
1.29305
1.29305
1.29305
1.29305
1.29305
1.29305
1.29305
1.29306
1.29306
1.29306
1.29306
1.29306
1.29307
1.29307
1.29308
1.29308
1.29309
1.29306
1.29306
1.29306
1.29306
1.29306
1.29306
1.29306
1.29306
1.29306
1.29306
1.29306
1.29306
1.29306
1.29306
1.29306
1.29307
1.29307
1.29307
1.29308
1.29308
1.29309
1.2931
1.2931
1.28516
1.28604
1.2828
1.28905
1.28962
1.28736
1.28467
1.28258
1.28853
1.28805
1.28658
1.28597
1.29059
1.28972
1.28873
1.28773
1.29101
1.2905
1.28983
1.28929
1.29333
1.29307
1.29267
1.29214
1.29324
1.29326
1.29328
1.29328
1.29324
1.29323
1.29322
1.2932
1.2932
1.29321
1.29321
1.29321
1.29317
1.29317
1.29318
1.29318
1.29315
1.29315
1.29315
1.29316
1.29315
1.29315
1.29315
1.29315
1.29315
1.29315
1.29315
1.29315
1.29315
1.29315
1.29315
1.29315
1.29315
1.29315
1.29315
1.29315
1.29315
1.29315
1.29315
1.29315
1.29315
1.29315
1.29315
1.29315
1.29315
1.29315
1.29315
1.29315
1.29315
1.29315
1.29315
1.29315
1.29315
1.29315
1.29315
1.29314
1.29314
1.29314
1.29314
1.29314
1.29314
1.29314
1.29314
1.29314
1.29314
1.29314
1.29314
1.29314
1.29314
1.29314
1.29314
1.29314
1.29314
1.29314
1.29314
1.29313
1.29314
1.29314
1.29314
1.29313
1.29314
1.29313
1.29313
1.29313
1.29314
1.29314
1.29313
1.29313
1.29313
1.29313
1.29313
1.29313
1.29314
1.29313
1.29313
1.29313
1.29313
1.29313
1.29313
1.29313
1.29313
1.29313
1.29313
1.29313
1.29313
1.29313
1.29313
1.29313
1.29313
1.29313
1.29313
1.29313
1.29313
1.29313
1.29313
1.29313
1.29313
1.29313
1.29313
1.29313
1.29313
1.29313
1.29313
1.29313
1.29312
1.29313
1.29313
1.29313
1.2931
1.29311
1.29312
1.29313
1.2931
1.29311
1.29312
1.29312
1.2931
1.2931
1.29311
1.29312
1.29311
1.29312
1.29312
1.29313
1.28591
1.28588
1.28587
1.28586
1.28586
1.28585
1.28585
1.28584
1.28584
1.28583
1.28583
1.28583
1.28583
1.28582
1.28581
1.28572
1.28519
1.2845
1.28493
1.2819
1.2851
1.28523
1.28609
1.28589
1.28586
1.28585
1.28585
1.28585
1.28584
1.28584
1.28583
1.28583
1.28582
1.28579
1.28552
1.28474
1.28454
1.28699
1.28307
1.28026
1.28717
1.28747
1.28588
1.28431
1.28453
1.28597
1.28586
1.28589
1.28589
1.28584
1.28585
1.28583
1.28581
1.28553
1.28482
1.28488
1.28812
1.28628
1.28202
1.28217
1.28266
1.28182
1.27997
1.2814
1.28746
1.28763
1.28528
1.28554
1.28601
1.28588
1.28591
1.2859
1.28572
1.2854
1.28547
1.28821
1.28819
1.2866
1.28478
1.28335
1.28222
1.28111
1.28085
1.2827
1.28271
1.28096
1.28111
1.28627
1.28639
1.28575
1.28591
1.28595
1.28611
1.2865
1.28761
1.29109
1.28945
1.2884
1.28772
1.28686
1.2862
1.28557
1.285
1.28393
1.28258
1.28155
1.28235
1.28185
1.28148
1.28598
1.28686
1.28689
1.28702
1.28539
1.29318
1.29253
1.29181
1.2911
1.29048
1.2899
1.28939
1.28893
1.28829
1.28734
1.28659
1.2852
1.28389
1.28178
1.28232
1.28252
1.28759
1.28556
1.28308
1.29319
1.29323
1.29329
1.29327
1.29324
1.2932
1.29312
1.29294
1.29268
1.29214
1.29135
1.29033
1.28884
1.28723
1.28562
1.2834
1.28323
1.28329
1.28675
1.29321
1.29319
1.29316
1.29313
1.2931
1.29309
1.2931
1.29311
1.29315
1.29318
1.29323
1.29322
1.29313
1.29188
1.29051
1.29002
1.29166
1.29176
1.29813
1.29318
1.29318
1.29318
1.29316
1.29315
1.29314
1.29314
1.29315
1.29317
1.29316
1.29315
1.29311
1.29316
1.29335
1.29354
1.29266
1.29404
1.29681
1.29969
1.29316
1.29316
1.29316
1.29316
1.29316
1.29315
1.29316
1.29315
1.29316
1.29315
1.29316
1.29314
1.29318
1.29318
1.29331
1.29436
1.29589
1.29742
1.29925
1.29315
1.29315
1.29315
1.29315
1.29315
1.29315
1.29315
1.29315
1.29316
1.29316
1.29317
1.29315
1.29318
1.29317
1.29325
1.29351
1.29558
1.29684
1.29713
1.29315
1.29315
1.29315
1.29315
1.29315
1.29315
1.29316
1.29315
1.29316
1.29316
1.29317
1.29315
1.29318
1.29319
1.29325
1.29326
1.29457
1.2958
1.2951
1.29315
1.29315
1.29315
1.29315
1.29315
1.29315
1.29316
1.29315
1.29316
1.29316
1.29317
1.29316
1.29318
1.29319
1.29324
1.29326
1.29451
1.29518
1.29388
1.29315
1.29315
1.29315
1.29315
1.29315
1.29315
1.29316
1.29315
1.29316
1.29316
1.29317
1.29316
1.29317
1.29319
1.29323
1.29326
1.29458
1.29469
1.29336
1.29315
1.29315
1.29315
1.29315
1.29315
1.29315
1.29316
1.29315
1.29316
1.29316
1.29317
1.29316
1.29318
1.29318
1.29324
1.29332
1.29471
1.29465
1.29298
1.29315
1.29315
1.29315
1.29315
1.29315
1.29315
1.29315
1.29315
1.29316
1.29315
1.29316
1.29315
1.29315
1.29314
1.29312
1.2933
1.29393
1.29457
1.29312
1.29315
1.29315
1.29315
1.29314
1.29314
1.29314
1.29314
1.29314
1.29315
1.29315
1.29316
1.29315
1.29315
1.29313
1.2931
1.29323
1.29358
1.2947
1.29303
1.29315
1.29314
1.29314
1.29313
1.29313
1.29312
1.29312
1.29311
1.29313
1.29313
1.29315
1.29314
1.29315
1.29313
1.29314
1.29325
1.29324
1.29439
1.29314
1.29314
1.29314
1.29313
1.29312
1.29311
1.29309
1.29309
1.29308
1.2931
1.2931
1.29313
1.29313
1.29315
1.29313
1.29315
1.29322
1.29331
1.29432
1.29355
1.29314
1.29313
1.29312
1.2931
1.29309
1.29307
1.29306
1.29305
1.29306
1.29308
1.29311
1.29312
1.29315
1.29313
1.29317
1.2932
1.2933
1.29341
1.29418
1.29314
1.29313
1.29311
1.29309
1.29308
1.29307
1.29305
1.29302
1.29302
1.29304
1.29308
1.29311
1.29314
1.29314
1.29316
1.2932
1.29328
1.29326
1.29422
1.29313
1.29312
1.2931
1.29308
1.29308
1.29306
1.29304
1.293
1.29299
1.29301
1.29306
1.2931
1.29314
1.29315
1.29318
1.29321
1.29326
1.29322
1.29376
1.29313
1.29312
1.29309
1.29309
1.29309
1.29306
1.29303
1.29299
1.29297
1.29299
1.29305
1.29309
1.29313
1.29315
1.29317
1.2932
1.29323
1.29317
1.29263
1.29313
1.29312
1.2931
1.29309
1.2931
1.29307
1.29303
1.29299
1.29298
1.293
1.29305
1.29309
1.29314
1.29315
1.29319
1.29321
1.29323
1.29311
1.29255
1.29313
1.29312
1.29311
1.2931
1.29311
1.29309
1.29306
1.29302
1.29301
1.29302
1.29307
1.29311
1.29314
1.29316
1.29319
1.29321
1.29323
1.29307
1.29237
1.29313
1.29313
1.29311
1.2931
1.29311
1.29311
1.29309
1.29305
1.29304
1.29305
1.29308
1.29311
1.29316
1.29317
1.29321
1.29321
1.29324
1.29311
1.29228
1.29313
1.29313
1.29312
1.2931
1.29311
1.29313
1.29313
1.2931
1.29309
1.29308
1.2931
1.29313
1.29316
1.29317
1.29321
1.29321
1.29324
1.29314
1.29234
1.29313
1.29313
1.29312
1.29311
1.2931
1.29312
1.29314
1.29314
1.29313
1.2931
1.29312
1.29313
1.2932
1.29322
1.29325
1.29324
1.29324
1.29319
1.29242
1.29313
1.29313
1.29313
1.29312
1.29309
1.29311
1.29314
1.29316
1.29319
1.29319
1.29321
1.29329
1.29329
1.29325
1.29325
1.29324
1.29323
1.2932
1.29252
1.29313
1.29313
1.29313
1.29312
1.2931
1.29308
1.2931
1.29313
1.29316
1.2932
1.29331
1.29332
1.2934
1.2934
1.29333
1.29325
1.29322
1.29321
1.2926
1.29313
1.29313
1.29313
1.29312
1.2931
1.29307
1.29308
1.2931
1.29314
1.29319
1.29342
1.29333
1.29329
1.29314
1.29312
1.29311
1.29317
1.29317
1.29265
1.29313
1.29313
1.29313
1.29312
1.29311
1.29307
1.29305
1.29307
1.2931
1.29318
1.29334
1.29329
1.29324
1.29314
1.29299
1.29296
1.29312
1.29315
1.29265
1.29313
1.29313
1.29313
1.29312
1.29311
1.29308
1.29305
1.29306
1.2931
1.29318
1.29325
1.29313
1.29308
1.29297
1.29285
1.29294
1.29308
1.29312
1.29262
1.29313
1.29313
1.29313
1.29312
1.29312
1.29309
1.29305
1.29304
1.29308
1.29315
1.29309
1.29298
1.29285
1.29284
1.29287
1.29298
1.29308
1.29311
1.29259
1.29313
1.29313
1.29313
1.29313
1.29312
1.29311
1.29307
1.29305
1.29306
1.29309
1.29304
1.29297
1.29292
1.29294
1.29299
1.29302
1.29308
1.2931
1.29256
1.29313
1.29313
1.29313
1.29313
1.29313
1.29312
1.2931
1.29307
1.29306
1.29306
1.29305
1.29303
1.29306
1.29308
1.29307
1.29305
1.29308
1.2931
1.29256
1.29314
1.29314
1.29313
1.29313
1.29313
1.29313
1.29312
1.29311
1.2931
1.29309
1.2931
1.29311
1.29312
1.2931
1.29306
1.29302
1.29305
1.29308
1.29256
1.29313
1.29313
1.29313
1.29313
1.29313
1.29313
1.29313
1.29313
1.29313
1.29314
1.29314
1.29314
1.29312
1.29306
1.29294
1.29292
1.29299
1.29306
1.29258
1.29313
1.29314
1.29314
1.29313
1.29313
1.29314
1.29314
1.29314
1.29314
1.29314
1.29314
1.29313
1.29309
1.29296
1.29275
1.29271
1.29285
1.29301
1.29259
1.29312
1.29313
1.29313
1.29313
1.29313
1.29313
1.29313
1.29313
1.29314
1.29314
1.29313
1.29311
1.29302
1.29281
1.2926
1.29254
1.2927
1.29294
1.2926
1.29314
1.29314
1.29314
1.29314
1.29313
1.29312
1.29312
1.29311
1.2931
1.29309
1.29307
1.29304
1.29296
1.29278
1.29257
1.29247
1.29253
1.29285
1.29261
)
;

boundaryField
{
    leftWall
    {
        type            calculated;
        value           nonuniform List<scalar> 
50
(
1.30563
1.30487
1.30411
1.30333
1.30256
1.30177
1.30098
1.30017
1.29892
1.29716
1.29543
1.29391
1.29332
1.29325
1.29319
1.29318
1.29317
1.29317
1.29317
1.29317
1.29316
1.29316
1.29316
1.29316
1.29316
1.29316
1.29315
1.29315
1.29315
1.29315
1.29315
1.29314
1.29314
1.29314
1.29313
1.29312
1.29311
1.2931
1.29308
1.29307
1.29306
1.29306
1.29305
1.29305
1.29305
1.29304
1.29304
1.29305
1.29305
1.29306
)
;
    }
    rightWall
    {
        type            calculated;
        value           nonuniform List<scalar> 
50
(
1.28585
1.28584
1.28584
1.28584
1.28581
1.28558
1.28487
1.28452
1.28493
1.28699
1.28812
1.28821
1.28761
1.28539
1.28308
1.28675
1.29813
1.29969
1.29925
1.29713
1.2951
1.29388
1.29336
1.29298
1.29312
1.29303
1.29314
1.29355
1.29418
1.29422
1.29376
1.29263
1.29255
1.29237
1.29228
1.29234
1.29242
1.29252
1.2926
1.29265
1.29265
1.29262
1.29259
1.29256
1.29256
1.29256
1.29258
1.29259
1.2926
1.29261
)
;
    }
    lowerWall
    {
        type            calculated;
        value           nonuniform List<scalar> 
62
(
1.30601
1.306
1.30597
1.30594
1.30588
1.30584
1.30575
1.30571
1.30561
1.30555
1.30549
1.3054
1.30536
1.3053
1.30526
1.30522
1.30519
1.30517
1.30516
1.30513
1.30513
1.30512
1.30511
1.30473
1.30394
1.30302
1.30209
1.30093
1.29996
1.29809
1.29737
1.28596
1.28684
1.28326
1.28905
1.28587
1.28587
1.28587
1.28587
1.28587
1.28587
1.28587
1.28588
1.28587
1.28587
1.28587
1.28586
1.28586
1.28585
1.28585
1.28585
1.28584
1.28584
1.28584
1.28583
1.28583
1.28583
1.28583
1.28583
1.28584
1.28584
1.28585
)
;
    }
    atmosphere
    {
        type            calculated;
        value           nonuniform List<scalar> 
46
(
1.29315
1.29315
1.29315
1.29315
1.29315
1.29315
1.29315
1.29315
1.29315
1.29315
1.29315
1.29315
1.29315
1.29316
1.29316
1.29316
1.29316
1.29316
1.29317
1.29317
1.29318
1.29319
1.2932
1.2932
1.29321
1.29322
1.29322
1.29323
1.29324
1.29324
1.29323
1.29322
1.29321
1.29321
1.2932
1.2932
1.29319
1.29317
1.29313
1.29306
1.29288
1.29268
1.29259
1.29267
1.29293
1.29268
)
;
    }
    defaultFaces
    {
        type            empty;
    }
}


// ************************************************************************* //
