/*--------------------------------*- C++ -*----------------------------------*\
| =========                 |                                                 |
| \\      /  F ield         | OpenFOAM: The Open Source CFD Toolbox           |
|  \\    /   O peration     | Version:  2012                                  |
|   \\  /    A nd           | Website:  www.openfoam.com                      |
|    \\/     M anipulation  |                                                 |
\*---------------------------------------------------------------------------*/
FoamFile
{
    version     2.0;
    format      ascii;
    class       volVectorField;
    location    "0.37";
    object      Uc;
}
// * * * * * * * * * * * * * * * * * * * * * * * * * * * * * * * * * * * * * //

dimensions      [0 1 -1 0 0 0 0];


internalField   nonuniform List<vector> 
2268
(
(0.0206887 -0.00977733 0)
(0.0620042 -0.00974804 0)
(0.102425 -0.00935434 0)
(0.142308 -0.00949408 0)
(0.182397 -0.00945169 0)
(0.221479 -0.00901839 0)
(0.25804 -0.00825977 0)
(0.293114 -0.00831612 0)
(0.326183 -0.00731204 0)
(0.355664 -0.00662052 0)
(0.383059 -0.0063257 0)
(0.406339 -0.00467642 0)
(0.422969 -0.00318285 0)
(0.433939 -0.00200146 0)
(0.43899 -0.000385486 0)
(0.435761 0.00191155 0)
(0.422671 0.00427485 0)
(0.398521 0.0071383 0)
(0.361488 0.0103634 0)
(0.309765 0.0140809 0)
(0.242993 0.017475 0)
(0.161151 0.0212033 0)
(0.0581424 0.0274793 0)
(0.0206608 -0.0293188 0)
(0.0620098 -0.0292732 0)
(0.102579 -0.0281045 0)
(0.142554 -0.0284842 0)
(0.182654 -0.0283583 0)
(0.221787 -0.0270756 0)
(0.258495 -0.0248289 0)
(0.293731 -0.024975 0)
(0.326881 -0.0219476 0)
(0.356567 -0.0199469 0)
(0.384193 -0.0190013 0)
(0.407333 -0.0139385 0)
(0.424486 -0.0098867 0)
(0.436521 -0.00616913 0)
(0.441473 -0.000944911 0)
(0.437596 0.00582937 0)
(0.424023 0.0129578 0)
(0.399281 0.0215615 0)
(0.361171 0.0314527 0)
(0.306892 0.0430878 0)
(0.234525 0.0542242 0)
(0.144087 0.0658728 0)
(0.0472168 0.0772738 0)
(0.0206423 -0.0488383 0)
(0.0620753 -0.0488758 0)
(0.102855 -0.0469471 0)
(0.142928 -0.0474714 0)
(0.183012 -0.0472653 0)
(0.222202 -0.045183 0)
(0.259171 -0.041541 0)
(0.294697 -0.0417047 0)
(0.328006 -0.0366256 0)
(0.358094 -0.0335175 0)
(0.385994 -0.0316717 0)
(0.409158 -0.0231508 0)
(0.427209 -0.017312 0)
(0.440357 -0.0106447 0)
(0.445689 -0.00132913 0)
(0.442658 0.00947823 0)
(0.431093 0.0211891 0)
(0.409513 0.0352217 0)
(0.375882 0.051697 0)
(0.326922 0.0716336 0)
(0.259582 0.0917035 0)
(0.169433 0.113737 0)
(0.0589032 0.127427 0)
(0.0206727 -0.0683635 0)
(0.062281 -0.0685952 0)
(0.103349 -0.0659084 0)
(0.143593 -0.0664672 0)
(0.183708 -0.0661709 0)
(0.222999 -0.0633669 0)
(0.260382 -0.0584952 0)
(0.296382 -0.0585533 0)
(0.329993 -0.0514025 0)
(0.360668 -0.0474567 0)
(0.389017 -0.0443154 0)
(0.412499 -0.0325513 0)
(0.431373 -0.0253619 0)
(0.445158 -0.0153231 0)
(0.450965 -0.00191464 0)
(0.448288 0.0127613 0)
(0.436237 0.029067 0)
(0.413006 0.0485217 0)
(0.377039 0.0712887 0)
(0.325986 0.0993073 0)
(0.25757 0.128188 0)
(0.167455 0.162444 0)
(0.05801 0.182681 0)
(0.0207058 -0.0879186 0)
(0.0624955 -0.0884532 0)
(0.103845 -0.0850001 0)
(0.144273 -0.0855007 0)
(0.184451 -0.0850832 0)
(0.223847 -0.0816417 0)
(0.261665 -0.0757596 0)
(0.298139 -0.0755396 0)
(0.332098 -0.0663491 0)
(0.363533 -0.0618628 0)
(0.392484 -0.0569889 0)
(0.416488 -0.0423189 0)
(0.436291 -0.0338726 0)
(0.45108 -0.0203163 0)
(0.458522 -0.00318317 0)
(0.458336 0.0153831 0)
(0.449554 0.0362909 0)
(0.430662 0.0612057 0)
(0.400054 0.0900673 0)
(0.354607 0.126134 0)
(0.29033 0.164072 0)
(0.199781 0.211941 0)
(0.0732407 0.244716 0)
(0.020797 -0.107533 0)
(0.0628547 -0.108465 0)
(0.104561 -0.10424 0)
(0.14531 -0.104625 0)
(0.185727 -0.104047 0)
(0.225385 -0.100038 0)
(0.263765 -0.0933737 0)
(0.300783 -0.092657 0)
(0.33524 -0.0815644 0)
(0.367632 -0.0768117 0)
(0.397329 -0.0697565 0)
(0.422027 -0.0525675 0)
(0.443166 -0.0429727 0)
(0.458914 -0.0256478 0)
(0.467057 -0.00521727 0)
(0.467882 0.0171154 0)
(0.459765 0.0425454 0)
(0.440515 0.072977 0)
(0.40841 0.107934 0)
(0.360713 0.152288 0)
(0.294657 0.199513 0)
(0.201607 0.263267 0)
(0.0731503 0.313907 0)
(0.020898 -0.127237 0)
(0.0631665 -0.128612 0)
(0.105165 -0.123651 0)
(0.146253 -0.12389 0)
(0.186929 -0.123106 0)
(0.226859 -0.118592 0)
(0.265779 -0.111352 0)
(0.303299 -0.109905 0)
(0.338378 -0.0971788 0)
(0.371879 -0.0923382 0)
(0.402264 -0.0826241 0)
(0.428002 -0.0635356 0)
(0.450518 -0.0526356 0)
(0.467357 -0.0313848 0)
(0.477785 -0.0082571 0)
(0.48179 0.017873 0)
(0.477139 0.0478223 0)
(0.462583 0.0836765 0)
(0.437056 0.124471 0)
(0.397242 0.177108 0)
(0.339262 0.233312 0)
(0.249774 0.315735 0)
(0.0970307 0.394342 0)
(0.0210841 -0.147078 0)
(0.0635637 -0.148823 0)
(0.105926 -0.143308 0)
(0.14763 -0.14336 0)
(0.188762 -0.142297 0)
(0.229133 -0.137351 0)
(0.268729 -0.129699 0)
(0.30692 -0.127337 0)
(0.34296 -0.113357 0)
(0.377579 -0.108353 0)
(0.408616 -0.0956368 0)
(0.435892 -0.0755768 0)
(0.460435 -0.0628344 0)
(0.478507 -0.0376841 0)
(0.490492 -0.01255 0)
(0.495899 0.0177178 0)
(0.492348 0.0518541 0)
(0.478912 0.0928736 0)
(0.454399 0.138923 0)
(0.414825 0.200174 0)
(0.355831 0.265527 0)
(0.264068 0.369178 0)
(0.103348 0.489049 0)
(-0.0274146 0.016499 0)
(-0.0902415 0.019901 0)
(-0.161582 0.0201216 0)
(-0.235395 0.0209548 0)
(-0.31162 0.0211494 0)
(-0.386736 0.0204868 0)
(-0.451608 0.0167947 0)
(-0.506004 0.0160346 0)
(-0.55786 0.0157182 0)
(-0.60853 0.0155347 0)
(-0.653858 0.0134503 0)
(-0.69909 0.0154989 0)
(-0.742657 0.0127464 0)
(-0.783079 0.0141659 0)
(-0.812938 0.00825778 0)
(-0.806034 -0.0014681 0)
(-0.722332 -0.0244066 0)
(-0.499318 -0.060725 0)
(-0.17256 -0.068536 0)
(-0.0288606 0.0501119 0)
(-0.097966 0.0617586 0)
(-0.174371 0.0604635 0)
(-0.242355 0.060286 0)
(-0.311017 0.0628103 0)
(-0.38566 0.0618965 0)
(-0.451889 0.0505251 0)
(-0.507484 0.048473 0)
(-0.560184 0.047145 0)
(-0.609749 0.0461434 0)
(-0.652989 0.0399234 0)
(-0.697319 0.0465399 0)
(-0.741881 0.0386196 0)
(-0.78529 0.0433874 0)
(-0.819286 0.0256433 0)
(-0.81843 -0.00270186 0)
(-0.741391 -0.0720878 0)
(-0.516619 -0.184055 0)
(-0.179001 -0.208348 0)
(-0.0364313 0.0875598 0)
(-0.105737 0.102536 0)
(-0.170309 0.0990057 0)
(-0.238239 0.0989136 0)
(-0.314797 0.105316 0)
(-0.392346 0.103496 0)
(-0.456514 0.0837667 0)
(-0.509088 0.0806251 0)
(-0.560144 0.0785174 0)
(-0.609944 0.0764362 0)
(-0.655216 0.0666885 0)
(-0.702697 0.0782452 0)
(-0.749677 0.0652799 0)
(-0.797151 0.0748209 0)
(-0.836747 0.0449585 0)
(-0.845275 0.000699055 0)
(-0.778867 -0.117047 0)
(-0.551367 -0.312015 0)
(-0.193142 -0.356915 0)
(-0.0291358 0.125124 0)
(-0.0946842 0.141684 0)
(-0.167745 0.137755 0)
(-0.237889 0.138252 0)
(-0.311496 0.149213 0)
(-0.389796 0.145258 0)
(-0.455769 0.116736 0)
(-0.512116 0.113369 0)
(-0.566341 0.109946 0)
(-0.613013 0.105442 0)
(-0.651389 0.0926711 0)
(-0.695646 0.110701 0)
(-0.745926 0.093621 0)
(-0.801218 0.109628 0)
(-0.85222 0.0681336 0)
(-0.87943 0.0121782 0)
(-0.835021 -0.156205 0)
(-0.615063 -0.443727 0)
(-0.223811 -0.524541 0)
(-0.0360214 0.162514 0)
(-0.106271 0.181405 0)
(-0.171755 0.176316 0)
(-0.238639 0.177333 0)
(-0.318588 0.19481 0)
(-0.402252 0.187921 0)
(-0.466332 0.148766 0)
(-0.515809 0.145734 0)
(-0.566332 0.141526 0)
(-0.61465 0.133665 0)
(-0.657205 0.11828 0)
(-0.705974 0.144078 0)
(-0.759813 0.123959 0)
(-0.821289 0.148394 0)
(-0.881317 0.0960408 0)
(-0.928856 0.0355192 0)
(-0.912441 -0.18596 0)
(-0.709713 -0.574302 0)
(-0.273648 -0.726397 0)
(-0.0237468 0.197609 0)
(-0.0881106 0.222915 0)
(-0.166605 0.215399 0)
(-0.237486 0.216203 0)
(-0.31556 0.242516 0)
(-0.400666 0.231368 0)
(-0.466388 0.179903 0)
(-0.521271 0.178367 0)
(-0.576776 0.173381 0)
(-0.620326 0.160283 0)
(-0.650356 0.141943 0)
(-0.690614 0.1777 0)
(-0.747554 0.156884 0)
(-0.821496 0.192505 0)
(-0.90194 0.131125 0)
(-0.988963 0.0771261 0)
(-1.03004 -0.197614 0)
(-0.881927 -0.692387 0)
(-0.371895 -0.99118 0)
(-0.0381509 0.23361 0)
(-0.11028 0.264317 0)
(-0.173195 0.253495 0)
(-0.23763 0.255017 0)
(-0.327232 0.294382 0)
(-0.423474 0.276005 0)
(-0.482789 0.207824 0)
(-0.524029 0.210713 0)
(-0.577462 0.206761 0)
(-0.62683 0.185823 0)
(-0.662806 0.163885 0)
(-0.708517 0.211741 0)
(-0.767944 0.191765 0)
(-0.844665 0.241144 0)
(-0.93796 0.175832 0)
(-1.07461 0.147015 0)
(-1.20823 -0.173711 0)
(-1.15053 -0.784285 0)
(-0.524792 -1.36288 0)
(-0.0131904 0.265116 0)
(-0.0809302 0.311643 0)
(-0.174273 0.29198 0)
(-0.242217 0.292192 0)
(-0.326534 0.350542 0)
(-0.427288 0.323002 0)
(-0.487762 0.23115 0)
(-0.530212 0.242363 0)
(-0.591531 0.243308 0)
(-0.639058 0.209887 0)
(-0.659267 0.183123 0)
(-0.693012 0.245713 0)
(-0.753211 0.2281 0)
(-0.841035 0.294233 0)
(-0.967324 0.23559 0)
(-1.17568 0.253472 0)
(-1.38945 -0.112851 0)
(-1.38178 -0.853432 0)
(-0.648666 -1.85249 0)
(0.0213395 -0.178493 0)
(0.0641439 -0.180511 0)
(0.106999 -0.174718 0)
(0.149491 -0.174373 0)
(0.19127 -0.172719 0)
(0.232329 -0.167281 0)
(0.272899 -0.159263 0)
(0.312255 -0.155383 0)
(0.350001 -0.140287 0)
(0.386194 -0.134165 0)
(0.418479 -0.116947 0)
(0.448693 -0.0975287 0)
(0.475899 -0.0798294 0)
(0.496221 -0.0496574 0)
(0.511613 -0.0217132 0)
(0.521696 0.0141907 0)
(0.525128 0.05361 0)
(0.522925 0.0996814 0)
(0.51567 0.150994 0)
(0.50659 0.215932 0)
(0.49706 0.287229 0)
(0.492828 0.395098 0)
(0.491151 0.540789 0)
(0.0218967 -0.221954 0)
(0.0655834 -0.223992 0)
(0.109476 -0.218437 0)
(0.15344 -0.217561 0)
(0.196663 -0.214978 0)
(0.239235 -0.209089 0)
(0.281578 -0.200801 0)
(0.323015 -0.195061 0)
(0.363371 -0.179118 0)
(0.402008 -0.170555 0)
(0.43791 -0.1491 0)
(0.472371 -0.130387 0)
(0.502557 -0.104662 0)
(0.528349 -0.0711788 0)
(0.549912 -0.0373402 0)
(0.56332 0.00620513 0)
(0.568034 0.0534067 0)
(0.564284 0.105869 0)
(0.552952 0.163491 0)
(0.539601 0.225984 0)
(0.529173 0.29724 0)
(0.531265 0.387239 0)
(0.562602 0.518849 0)
(0.0223363 -0.266418 0)
(0.066706 -0.268044 0)
(0.111396 -0.26343 0)
(0.156501 -0.2621 0)
(0.200895 -0.258513 0)
(0.244744 -0.252424 0)
(0.288613 -0.244126 0)
(0.331966 -0.236968 0)
(0.374621 -0.220653 0)
(0.416206 -0.209657 0)
(0.456287 -0.186372 0)
(0.494121 -0.165781 0)
(0.528113 -0.133775 0)
(0.559784 -0.0998196 0)
(0.585313 -0.0560265 0)
(0.603794 -0.00715276 0)
(0.618322 0.0487675 0)
(0.626362 0.107539 0)
(0.627644 0.171922 0)
(0.627454 0.231166 0)
(0.627154 0.302843 0)
(0.632868 0.373791 0)
(0.656228 0.477317 0)
(0.0227635 -0.312046 0)
(0.067848 -0.312929 0)
(0.113455 -0.309917 0)
(0.159931 -0.30829 0)
(0.205854 -0.303751 0)
(0.251439 -0.297749 0)
(0.297334 -0.289711 0)
(0.342947 -0.281491 0)
(0.388112 -0.265073 0)
(0.432555 -0.252351 0)
(0.475666 -0.227903 0)
(0.517203 -0.204568 0)
(0.558182 -0.170809 0)
(0.596084 -0.133101 0)
(0.628592 -0.0813668 0)
(0.658433 -0.0305222 0)
(0.677748 0.0393114 0)
(0.682202 0.105581 0)
(0.676922 0.177827 0)
(0.674258 0.242392 0)
(0.672383 0.308065 0)
(0.67124 0.363975 0)
(0.69046 0.444333 0)
(0.0235514 -0.358877 0)
(0.0700762 -0.358731 0)
(0.117473 -0.358141 0)
(0.166485 -0.356571 0)
(0.215286 -0.351184 0)
(0.263932 -0.345516 0)
(0.311837 -0.336709 0)
(0.354767 -0.323581 0)
(0.38997 -0.303862 0)
(0.418081 -0.286977 0)
(0.440245 -0.259334 0)
(0.459961 -0.235082 0)
(0.478777 -0.200698 0)
(0.497714 -0.160561 0)
(0.521075 -0.110178 0)
(0.560143 -0.0709377 0)
(0.620715 -0.000211827 0)
(0.671206 0.090579 0)
(0.692013 0.178075 0)
(0.700776 0.250788 0)
(0.70929 0.307175 0)
(0.715608 0.359537 0)
(0.731936 0.431048 0)
(0.00968882 -0.392188 0)
(0.0291875 -0.391572 0)
(0.0480978 -0.391717 0)
(0.0665505 -0.390542 0)
(0.0842022 -0.383697 0)
(0.0992882 -0.37671 0)
(0.111844 -0.365915 0)
(0.122965 -0.347936 0)
(0.134815 -0.326055 0)
(0.152674 -0.31066 0)
(0.18295 -0.288026 0)
(0.227142 -0.270287 0)
(0.282553 -0.239757 0)
(0.347895 -0.205863 0)
(0.421419 -0.161901 0)
(0.495045 -0.132118 0)
(0.565267 -0.0697982 0)
(0.628892 0.0466089 0)
(0.665872 0.165325 0)
(0.676697 0.245157 0)
(0.686075 0.2962 0)
(0.703113 0.348594 0)
(0.728078 0.419042 0)
(0.00498604 -0.406771 0)
(0.015504 -0.406825 0)
(0.02486 -0.40454 0)
(0.0328596 -0.40397 0)
(0.0408263 -0.39568 0)
(0.0474751 -0.386232 0)
(0.0530273 -0.374251 0)
(0.0616807 -0.359131 0)
(0.0781124 -0.34294 0)
(0.105704 -0.339112 0)
(0.148243 -0.332416 0)
(0.205297 -0.327317 0)
(0.27397 -0.307098 0)
(0.351703 -0.281977 0)
(0.436612 -0.244676 0)
(0.518546 -0.205337 0)
(0.589957 -0.138565 0)
(0.663577 -0.0221384 0)
(0.729204 0.131576 0)
(0.747684 0.250459 0)
(0.718443 0.312617 0)
(0.696699 0.339191 0)
(0.715545 0.386318 0)
(0.00563177 -0.417277 0)
(0.0166873 -0.41767 0)
(0.027052 -0.413182 0)
(0.0366744 -0.412705 0)
(0.046669 -0.404664 0)
(0.0584718 -0.395459 0)
(0.0729106 -0.384782 0)
(0.0913034 -0.375447 0)
(0.113992 -0.365603 0)
(0.13989 -0.369869 0)
(0.168657 -0.372984 0)
(0.197346 -0.372583 0)
(0.224456 -0.357753 0)
(0.253772 -0.338564 0)
(0.289952 -0.309438 0)
(0.338518 -0.271379 0)
(0.408997 -0.214767 0)
(0.508063 -0.119131 0)
(0.639336 0.0310464 0)
(0.77373 0.19774 0)
(0.839417 0.329205 0)
(0.820179 0.364618 0)
(0.775927 0.388059 0)
(0.00630777 -0.429112 0)
(0.0182787 -0.428648 0)
(0.0299329 -0.424004 0)
(0.0411301 -0.422476 0)
(0.0519991 -0.415528 0)
(0.0638734 -0.408056 0)
(0.0766118 -0.399163 0)
(0.0910034 -0.393679 0)
(0.107467 -0.386382 0)
(0.125272 -0.392674 0)
(0.144442 -0.398014 0)
(0.162833 -0.394524 0)
(0.180169 -0.38013 0)
(0.199386 -0.364609 0)
(0.221628 -0.34175 0)
(0.247871 -0.313889 0)
(0.281986 -0.277013 0)
(0.335055 -0.209424 0)
(0.432229 -0.107898 0)
(0.588638 0.0447753 0)
(0.765712 0.238566 0)
(0.88208 0.358057 0)
(0.90509 0.416461 0)
(0.00576928 -0.441086 0)
(0.0170835 -0.439748 0)
(0.029084 -0.436349 0)
(0.0420207 -0.434058 0)
(0.055813 -0.428402 0)
(0.071553 -0.422605 0)
(0.089073 -0.414694 0)
(0.10799 -0.411291 0)
(0.126958 -0.404043 0)
(0.142417 -0.408105 0)
(0.153055 -0.412196 0)
(0.160919 -0.40638 0)
(0.169336 -0.393802 0)
(0.179796 -0.380406 0)
(0.191836 -0.360047 0)
(0.205951 -0.335787 0)
(0.222308 -0.305468 0)
(0.245643 -0.257381 0)
(0.284957 -0.19674 0)
(0.35793 -0.0965515 0)
(0.49702 0.0625015 0)
(0.687602 0.226003 0)
(0.860587 0.351943 0)
(0.00697171 -0.453728 0)
(0.0209721 -0.452223 0)
(0.0353289 -0.450039 0)
(0.0500622 -0.447851 0)
(0.0650699 -0.443228 0)
(0.0807757 -0.439056 0)
(0.0969152 -0.431743 0)
(0.113028 -0.429118 0)
(0.128591 -0.420586 0)
(0.141518 -0.419754 0)
(0.151236 -0.420663 0)
(0.159932 -0.414211 0)
(0.169841 -0.404038 0)
(0.181289 -0.391833 0)
(0.193623 -0.372755 0)
(0.206117 -0.349455 0)
(0.218399 -0.320209 0)
(0.232714 -0.2801 0)
(0.251515 -0.232044 0)
(0.282779 -0.165622 0)
(0.345916 -0.0712931 0)
(0.460568 0.0534003 0)
(0.626081 0.184722 0)
(0.00712822 -0.467739 0)
(0.0215529 -0.46646 0)
(0.0364348 -0.464867 0)
(0.0517509 -0.462902 0)
(0.0675363 -0.458803 0)
(0.0843307 -0.455822 0)
(0.102229 -0.448861 0)
(0.120522 -0.446253 0)
(0.138759 -0.437091 0)
(0.155574 -0.432809 0)
(0.169853 -0.431387 0)
(0.182965 -0.425064 0)
(0.196493 -0.416394 0)
(0.210918 -0.405131 0)
(0.226539 -0.387198 0)
(0.243966 -0.364723 0)
(0.262663 -0.335707 0)
(0.282917 -0.298969 0)
(0.307243 -0.256137 0)
(0.336709 -0.202175 0)
(0.374689 -0.135974 0)
(0.434081 -0.0564496 0)
(0.526908 0.0353159 0)
(0.0077734 -0.482558 0)
(0.0234295 -0.481557 0)
(0.0393045 -0.480365 0)
(0.0553852 -0.478642 0)
(0.0716513 -0.474958 0)
(0.0883177 -0.472977 0)
(0.105554 -0.466698 0)
(0.123415 -0.464431 0)
(0.142727 -0.456325 0)
(0.163179 -0.450702 0)
(0.183072 -0.447507 0)
(0.202215 -0.441025 0)
(0.221582 -0.433153 0)
(0.241879 -0.422923 0)
(0.263665 -0.406652 0)
(0.287451 -0.386334 0)
(0.31389 -0.359097 0)
(0.344591 -0.326422 0)
(0.380213 -0.288558 0)
(0.421929 -0.240913 0)
(0.474874 -0.188231 0)
(0.541779 -0.130733 0)
(0.620825 -0.0627458 0)
(0.00803756 -0.498293 0)
(0.0242106 -0.4975 0)
(0.0404321 -0.496369 0)
(0.0568984 -0.495038 0)
(0.0738421 -0.491627 0)
(0.0913542 -0.490345 0)
(0.109555 -0.484631 0)
(0.128304 -0.482974 0)
(0.148037 -0.476705 0)
(0.168784 -0.471407 0)
(0.189704 -0.467495 0)
(0.210726 -0.461075 0)
(0.232045 -0.453661 0)
(0.25394 -0.44448 0)
(0.277177 -0.430002 0)
(0.302954 -0.412445 0)
(0.332458 -0.388855 0)
(0.367147 -0.362024 0)
(0.408696 -0.330149 0)
(0.458969 -0.291403 0)
(0.519969 -0.251883 0)
(0.591913 -0.206248 0)
(0.676219 -0.151018 0)
(0.00853931 -0.514801 0)
(0.0256772 -0.514166 0)
(0.0429121 -0.513023 0)
(0.060374 -0.512177 0)
(0.0781881 -0.509113 0)
(0.0964638 -0.508518 0)
(0.115415 -0.503487 0)
(0.134906 -0.502239 0)
(0.155245 -0.4974 0)
(0.17674 -0.492849 0)
(0.198958 -0.489088 0)
(0.221844 -0.483288 0)
(0.245635 -0.476458 0)
(0.270607 -0.468453 0)
(0.297447 -0.456023 0)
(0.327242 -0.441934 0)
(0.361221 -0.422823 0)
(0.400792 -0.402338 0)
(0.446994 -0.37767 0)
(0.501308 -0.348634 0)
(0.565709 -0.320318 0)
(0.640643 -0.285059 0)
(0.727851 -0.244208 0)
(0.00847926 -0.531756 0)
(0.0255682 -0.531311 0)
(0.0429238 -0.530343 0)
(0.0606278 -0.5299 0)
(0.0786784 -0.527134 0)
(0.0970755 -0.527053 0)
(0.115977 -0.522692 0)
(0.135287 -0.521726 0)
(0.155165 -0.518025 0)
(0.175885 -0.514341 0)
(0.197309 -0.511145 0)
(0.219708 -0.506428 0)
(0.243407 -0.500726 0)
(0.26883 -0.494507 0)
(0.296827 -0.484752 0)
(0.328624 -0.474771 0)
(0.365491 -0.460849 0)
(0.40853 -0.446993 0)
(0.458922 -0.429747 0)
(0.518135 -0.410303 0)
(0.586806 -0.392033 0)
(0.665445 -0.367329 0)
(0.757743 -0.341984 0)
(0.00903656 -0.549214 0)
(0.0272276 -0.549019 0)
(0.0455439 -0.548194 0)
(0.064058 -0.548156 0)
(0.0828736 -0.545636 0)
(0.101978 -0.545946 0)
(0.121598 -0.542217 0)
(0.141738 -0.54155 0)
(0.162503 -0.538748 0)
(0.184222 -0.535966 0)
(0.206871 -0.533508 0)
(0.230649 -0.530164 0)
(0.25594 -0.525912 0)
(0.283271 -0.52202 0)
(0.313496 -0.51543 0)
(0.347487 -0.509885 0)
(0.386196 -0.501361 0)
(0.430569 -0.493997 0)
(0.481716 -0.484454 0)
(0.541161 -0.474509 0)
(0.610118 -0.465801 0)
(0.690279 -0.452808 0)
(0.785194 -0.444308 0)
(0.00905029 -0.567249 0)
(0.0272114 -0.567233 0)
(0.0454244 -0.566407 0)
(0.0637535 -0.566685 0)
(0.0823035 -0.564374 0)
(0.101087 -0.564999 0)
(0.120309 -0.561912 0)
(0.140058 -0.561652 0)
(0.160408 -0.559674 0)
(0.181689 -0.557958 0)
(0.203981 -0.556383 0)
(0.2276 -0.55462 0)
(0.253026 -0.552121 0)
(0.280799 -0.550881 0)
(0.311616 -0.547604 0)
(0.346126 -0.546238 0)
(0.38521 -0.542871 0)
(0.429812 -0.541584 0)
(0.481198 -0.539586 0)
(0.540983 -0.538873 0)
(0.610505 -0.540277 0)
(0.691876 -0.540338 0)
(0.788888 -0.549331 0)
(0.00921388 -0.585466 0)
(0.0276999 -0.58557 0)
(0.0462737 -0.584765 0)
(0.0650183 -0.585309 0)
(0.0840422 -0.583233 0)
(0.10336 -0.584151 0)
(0.123131 -0.581667 0)
(0.143466 -0.581898 0)
(0.164394 -0.580628 0)
(0.186208 -0.580027 0)
(0.209076 -0.579409 0)
(0.233257 -0.579339 0)
(0.259143 -0.578672 0)
(0.287007 -0.579945 0)
(0.317417 -0.579769 0)
(0.351055 -0.582252 0)
(0.388914 -0.583872 0)
(0.43213 -0.588525 0)
(0.482031 -0.59412 0)
(0.540099 -0.602461 0)
(0.608032 -0.614508 0)
(0.687988 -0.627918 0)
(0.783208 -0.654621 0)
(0.00928617 -0.603925 0)
(0.0278965 -0.604125 0)
(0.0465536 -0.603358 0)
(0.065299 -0.604124 0)
(0.0842226 -0.602285 0)
(0.103331 -0.603445 0)
(0.122756 -0.601492 0)
(0.142654 -0.602232 0)
(0.163064 -0.60156 0)
(0.184276 -0.602056 0)
(0.206488 -0.602402 0)
(0.22989 -0.603881 0)
(0.254818 -0.604909 0)
(0.281613 -0.608347 0)
(0.31095 -0.611116 0)
(0.343461 -0.617085 0)
(0.380028 -0.623534 0)
(0.42146 -0.633628 0)
(0.468904 -0.64654 0)
(0.52353 -0.662988 0)
(0.587314 -0.686043 0)
(0.662617 -0.712106 0)
(0.75205 -0.7557 0)
(0.00944612 -0.622621 0)
(0.0283469 -0.622868 0)
(0.0472397 -0.622093 0)
(0.0661247 -0.622947 0)
(0.0850893 -0.621278 0)
(0.104157 -0.622556 0)
(0.123466 -0.621044 0)
(0.143149 -0.622193 0)
(0.163276 -0.622068 0)
(0.184027 -0.623448 0)
(0.205604 -0.624744 0)
(0.228148 -0.627437 0)
(0.252099 -0.630196 0)
(0.277676 -0.635409 0)
(0.305547 -0.641259 0)
(0.33601 -0.649939 0)
(0.369836 -0.66113 0)
(0.407542 -0.675268 0)
(0.450234 -0.695187 0)
(0.49901 -0.717957 0)
(0.555795 -0.751944 0)
(0.62285 -0.788972 0)
(0.701597 -0.847553 0)
(0.00958857 -0.641626 0)
(0.0287402 -0.641856 0)
(0.047832 -0.641029 0)
(0.0668218 -0.641823 0)
(0.0858011 -0.640283 0)
(0.104776 -0.64153 0)
(0.123878 -0.640416 0)
(0.143193 -0.641755 0)
(0.162837 -0.642214 0)
(0.182903 -0.644059 0)
(0.203672 -0.646424 0)
(0.225232 -0.649812 0)
(0.248069 -0.654569 0)
(0.272148 -0.660664 0)
(0.298003 -0.669719 0)
(0.325683 -0.679631 0)
(0.355982 -0.695598 0)
(0.389152 -0.711742 0)
(0.426196 -0.738557 0)
(0.467823 -0.765148 0)
(0.515359 -0.809301 0)
(0.570016 -0.853641 0)
(0.632931 -0.92496 0)
(0.00959971 -0.66079 0)
(0.0287627 -0.660957 0)
(0.0478533 -0.66006 0)
(0.0667924 -0.660669 0)
(0.0856538 -0.659223 0)
(0.104384 -0.660238 0)
(0.123087 -0.659454 0)
(0.141796 -0.660682 0)
(0.160672 -0.661749 0)
(0.179758 -0.663618 0)
(0.199303 -0.667123 0)
(0.219317 -0.670635 0)
(0.240191 -0.677411 0)
(0.261919 -0.683591 0)
(0.284946 -0.695648 0)
(0.309427 -0.70585 0)
(0.335837 -0.726094 0)
(0.364307 -0.742914 0)
(0.395233 -0.775412 0)
(0.42882 -0.8036 0)
(0.465517 -0.855217 0)
(0.505794 -0.902845 0)
(0.550869 -0.983998 0)
(0.00977494 -0.680146 0)
(0.0292786 -0.68023 0)
(0.0486848 -0.679244 0)
(0.0678767 -0.679573 0)
(0.0869174 -0.678177 0)
(0.105709 -0.678759 0)
(0.124306 -0.678183 0)
(0.142685 -0.678987 0)
(0.160975 -0.680553 0)
(0.179149 -0.682017 0)
(0.197394 -0.686455 0)
(0.215682 -0.689545 0)
(0.234334 -0.697969 0)
(0.253474 -0.703847 0)
(0.273326 -0.718224 0)
(0.294097 -0.728488 0)
(0.315729 -0.75147 0)
(0.338557 -0.768822 0)
(0.362357 -0.804231 0)
(0.38746 -0.833491 0)
(0.413309 -0.887907 0)
(0.439885 -0.937063 0)
(0.467251 -1.0223 0)
(0.00973799 -0.699646 0)
(0.029167 -0.699636 0)
(0.0484964 -0.698546 0)
(0.0675999 -0.698536 0)
(0.0865483 -0.697169 0)
(0.105217 -0.697188 0)
(0.12362 -0.696712 0)
(0.141683 -0.696853 0)
(0.159462 -0.698704 0)
(0.176876 -0.699397 0)
(0.193999 -0.70438 0)
(0.210786 -0.706628 0)
(0.227368 -0.716052 0)
(0.243905 -0.721373 0)
(0.260267 -0.736842 0)
(0.276807 -0.747114 0)
(0.293371 -0.770972 0)
(0.310503 -0.78922 0)
(0.327779 -0.824852 0)
(0.34528 -0.855423 0)
(0.361494 -0.907979 0)
(0.37592 -0.957926 0)
(0.386105 -1.0389 0)
(0.00970595 -0.719082 0)
(0.0290766 -0.718983 0)
(0.0483724 -0.717806 0)
(0.0674664 -0.717453 0)
(0.0864086 -0.716119 0)
(0.105046 -0.715515 0)
(0.123332 -0.715042 0)
(0.141161 -0.714375 0)
(0.158507 -0.716261 0)
(0.175255 -0.715948 0)
(0.191377 -0.721012 0)
(0.206804 -0.72214 0)
(0.221389 -0.731627 0)
(0.235244 -0.736104 0)
(0.24814 -0.751273 0)
(0.260594 -0.761577 0)
(0.272344 -0.784717 0)
(0.283661 -0.803815 0)
(0.294048 -0.837805 0)
(0.303306 -0.869108 0)
(0.310244 -0.917303 0)
(0.313617 -0.966229 0)
(0.310247 -1.03718 0)
(0.00951541 -0.7383 0)
(0.0285081 -0.738121 0)
(0.0474778 -0.736925 0)
(0.066329 -0.736267 0)
(0.0850787 -0.734982 0)
(0.103603 -0.733795 0)
(0.121808 -0.733229 0)
(0.139528 -0.731705 0)
(0.156635 -0.733345 0)
(0.172972 -0.7319 0)
(0.188402 -0.736552 0)
(0.202826 -0.73638 0)
(0.215902 -0.744963 0)
(0.227703 -0.748326 0)
(0.23788 -0.762009 0)
(0.24666 -0.771947 0)
(0.253649 -0.792943 0)
(0.258879 -0.811978 0)
(0.262287 -0.843264 0)
(0.263708 -0.874136 0)
(0.262389 -0.917673 0)
(0.256976 -0.963557 0)
(0.244427 -1.0236 0)
(0.0090731 -0.756887 0)
(0.027165 -0.756615 0)
(0.0452791 -0.75551 0)
(0.0633692 -0.754617 0)
(0.0814325 -0.753438 0)
(0.0994125 -0.751833 0)
(0.117204 -0.751173 0)
(0.134596 -0.748851 0)
(0.15133 -0.750009 0)
(0.167272 -0.747474 0)
(0.182216 -0.751298 0)
(0.196017 -0.74979 0)
(0.208287 -0.756812 0)
(0.218904 -0.758791 0)
(0.227213 -0.769903 0)
(0.233025 -0.778496 0)
(0.236002 -0.796184 0)
(0.235987 -0.813749 0)
(0.233022 -0.841706 0)
(0.226826 -0.870661 0)
(0.217155 -0.909867 0)
(0.203193 -0.951651 0)
(0.183063 -1.00242 0)
(0.0085521 -0.774511 0)
(0.025593 -0.774121 0)
(0.0426904 -0.773213 0)
(0.0598401 -0.772151 0)
(0.0770401 -0.771163 0)
(0.0942956 -0.769337 0)
(0.111541 -0.768697 0)
(0.128636 -0.765802 0)
(0.14521 -0.766346 0)
(0.161045 -0.762882 0)
(0.175831 -0.765575 0)
(0.189373 -0.762795 0)
(0.201223 -0.767847 0)
(0.210953 -0.768002 0)
(0.217865 -0.775782 0)
(0.221569 -0.781972 0)
(0.221621 -0.795538 0)
(0.217471 -0.809993 0)
(0.209009 -0.833758 0)
(0.196046 -0.859132 0)
(0.178849 -0.894169 0)
(0.156986 -0.931115 0)
(0.130561 -0.975935 0)
(0.00761775 -0.790679 0)
(0.0228035 -0.790175 0)
(0.0380651 -0.789514 0)
(0.0534324 -0.788363 0)
(0.068938 -0.787652 0)
(0.084635 -0.785796 0)
(0.100495 -0.785337 0)
(0.116502 -0.782257 0)
(0.132408 -0.782358 0)
(0.147979 -0.778254 0)
(0.162756 -0.779734 0)
(0.176424 -0.7758 0)
(0.188484 -0.778685 0)
(0.198339 -0.776656 0)
(0.205374 -0.78095 0)
(0.208905 -0.783878 0)
(0.207903 -0.792476 0)
(0.201376 -0.80212 0)
(0.18902 -0.820502 0)
(0.170665 -0.840702 0)
(0.146683 -0.871 0)
(0.117059 -0.902324 0)
(0.0815904 -0.942304 0)
(0.00674254 -0.805034 0)
(0.0202094 -0.804462 0)
(0.0337598 -0.804028 0)
(0.0474495 -0.802895 0)
(0.0613386 -0.802505 0)
(0.0754895 -0.800782 0)
(0.0898893 -0.800602 0)
(0.104577 -0.79768 0)
(0.119467 -0.797721 0)
(0.134469 -0.793449 0)
(0.149122 -0.793947 0)
(0.162947 -0.789047 0)
(0.175354 -0.789853 0)
(0.185727 -0.785641 0)
(0.193396 -0.786564 0)
(0.197167 -0.785419 0)
(0.195943 -0.788511 0)
(0.188906 -0.792263 0)
(0.175122 -0.803895 0)
(0.154024 -0.817462 0)
(0.126257 -0.842034 0)
(0.0925399 -0.867429 0)
(0.0530575 -0.901666 0)
(0.00562248 -0.817389 0)
(0.0168618 -0.816793 0)
(0.0281581 -0.816524 0)
(0.0395656 -0.815477 0)
(0.0511474 -0.815376 0)
(0.0629664 -0.813865 0)
(0.0750575 -0.813996 0)
(0.0875247 -0.811428 0)
(0.100374 -0.811699 0)
(0.11362 -0.807707 0)
(0.127066 -0.807774 0)
(0.140353 -0.80231 0)
(0.15293 -0.80154 0)
(0.164079 -0.795421 0)
(0.173008 -0.793301 0)
(0.178562 -0.787887 0)
(0.179488 -0.785573 0)
(0.174348 -0.782789 0)
(0.161186 -0.78611 0)
(0.138739 -0.7913 0)
(0.107555 -0.808764 0)
(0.0695159 -0.828394 0)
(0.026521 -0.857619 0)
(0.00457578 -0.827573 0)
(0.0137406 -0.826984 0)
(0.0229753 -0.826835 0)
(0.0323421 -0.825912 0)
(0.0419043 -0.826058 0)
(0.0517337 -0.824805 0)
(0.0618961 -0.825284 0)
(0.0725411 -0.82323 0)
(0.0837033 -0.823891 0)
(0.0954208 -0.820464 0)
(0.107567 -0.820596 0)
(0.11989 -0.815081 0)
(0.131917 -0.81335 0)
(0.142931 -0.805737 0)
(0.152251 -0.801177 0)
(0.158873 -0.792095 0)
(0.161637 -0.784918 0)
(0.158949 -0.775419 0)
(0.148646 -0.769736 0)
(0.128609 -0.764811 0)
(0.0971325 -0.772109 0)
(0.0547799 -0.784081 0)
(0.00527595 -0.808793 0)
(0.00355059 -0.83568 0)
(0.0106478 -0.835101 0)
(0.0177555 -0.835023 0)
(0.0249209 -0.834219 0)
(0.0322151 -0.83457 0)
(0.039732 -0.833603 0)
(0.0475547 -0.834438 0)
(0.0558097 -0.832946 0)
(0.0645215 -0.834022 0)
(0.0737654 -0.831271 0)
(0.0835153 -0.831665 0)
(0.0937039 -0.826506 0)
(0.104078 -0.824306 0)
(0.114104 -0.815793 0)
(0.123203 -0.809497 0)
(0.130387 -0.797511 0)
(0.13471 -0.786485 0)
(0.13481 -0.771111 0)
(0.128572 -0.757276 0)
(0.11305 -0.741387 0)
(0.084424 -0.734976 0)
(0.0404954 -0.734341 0)
(-0.0163111 -0.751527 0)
(0.00256526 -0.841773 0)
(0.00770611 -0.8412 0)
(0.0128778 -0.841157 0)
(0.0181312 -0.840458 0)
(0.0235356 -0.840985 0)
(0.0291591 -0.840285 0)
(0.0350616 -0.841439 0)
(0.0413403 -0.840439 0)
(0.0480299 -0.841894 0)
(0.0552515 -0.839833 0)
(0.063036 -0.84061 0)
(0.0714394 -0.836129 0)
(0.0803687 -0.833965 0)
(0.0894609 -0.825229 0)
(0.0981655 -0.817834 0)
(0.105546 -0.80369 0)
(0.110595 -0.789603 0)
(0.111853 -0.769233 0)
(0.107743 -0.748626 0)
(0.0962496 -0.722754 0)
(0.0738825 -0.702224 0)
(0.0360556 -0.684785 0)
(-0.0200662 -0.68744 0)
(0.00176183 -0.846075 0)
(0.0052688 -0.845495 0)
(0.00873983 -0.845453 0)
(0.012209 -0.844832 0)
(0.0157304 -0.845485 0)
(0.0193511 -0.844979 0)
(0.0231191 -0.846366 0)
(0.027135 -0.84576 0)
(0.0314604 -0.847544 0)
(0.0361963 -0.846099 0)
(0.0413468 -0.847242 0)
(0.046955 -0.843477 0)
(0.0530041 -0.841567 0)
(0.0594117 -0.8331 0)
(0.0660235 -0.825251 0)
(0.0722607 -0.809852 0)
(0.0773977 -0.79357 0)
(0.0802041 -0.769242 0)
(0.0791473 -0.743316 0)
(0.0722651 -0.709484 0)
(0.0563328 -0.676886 0)
(0.0265458 -0.642047 0)
(-0.0231485 -0.6237 0)
(0.00100849 -0.848818 0)
(0.00301517 -0.848211 0)
(0.00500146 -0.84814 0)
(0.00698324 -0.847542 0)
(0.00898521 -0.848244 0)
(0.0110374 -0.847838 0)
(0.0131809 -0.849364 0)
(0.0155018 -0.849045 0)
(0.0180501 -0.85108 0)
(0.0209038 -0.850103 0)
(0.0240997 -0.851538 0)
(0.0276997 -0.848346 0)
(0.0317442 -0.846752 0)
(0.0362452 -0.838787 0)
(0.041188 -0.831085 0)
(0.0463248 -0.815357 0)
(0.0511202 -0.797955 0)
(0.0545975 -0.771079 0)
(0.0553158 -0.741044 0)
(0.0514696 -0.700878 0)
(0.0404508 -0.658307 0)
(0.0188386 -0.608866 0)
(-0.0202465 -0.567546 0)
(0.000487776 -0.850288 0)
(0.00143181 -0.849639 0)
(0.00229391 -0.849506 0)
(0.00306167 -0.84887 0)
(0.00375007 -0.84955 0)
(0.00439681 -0.849173 0)
(0.00504005 -0.850758 0)
(0.00572399 -0.850599 0)
(0.00647766 -0.852772 0)
(0.00735028 -0.852082 0)
(0.00836403 -0.853715 0)
(0.00954834 -0.850902 0)
(0.0109413 -0.849584 0)
(0.0125462 -0.842015 0)
(0.0143634 -0.834574 0)
(0.0162878 -0.818888 0)
(0.018133 -0.801022 0)
(0.0194154 -0.772719 0)
(0.0191668 -0.739798 0)
(0.0159977 -0.694994 0)
(0.00733927 -0.644334 0)
(-0.00993882 -0.583669 0)
(-0.0405497 -0.522606 0)
(0.000150348 -0.850902 0)
(0.000407996 -0.850178 0)
(0.000561329 -0.849933 0)
(0.000578701 -0.849177 0)
(0.000456584 -0.849757 0)
(0.000231529 -0.849335 0)
(-5.96327e-05 -0.850894 0)
(-0.000394109 -0.850757 0)
(-0.000756064 -0.85295 0)
(-0.00112683 -0.852351 0)
(-0.00147439 -0.854057 0)
(-0.00176703 -0.851396 0)
(-0.00195108 -0.850245 0)
(-0.00201297 -0.842845 0)
(-0.00189645 -0.835627 0)
(-0.00154992 -0.820056 0)
(-0.000936704 -0.802262 0)
(-0.000124236 -0.773522 0)
(0.000446614 -0.739257 0)
(-4.91841e-05 -0.691789 0)
(-0.00334895 -0.635456 0)
(-0.0119834 -0.566437 0)
(-0.0300501 -0.490845 0)
(-8.4437e-05 -0.850948 0)
(-0.000273964 -0.85016 0)
(-0.000526449 -0.849811 0)
(-0.000886438 -0.848914 0)
(-0.00139367 -0.849346 0)
(-0.00207419 -0.848794 0)
(-0.00293637 -0.850234 0)
(-0.00398807 -0.849982 0)
(-0.00523155 -0.852069 0)
(-0.00666775 -0.851372 0)
(-0.00828521 -0.853016 0)
(-0.0100936 -0.85028 0)
(-0.0120849 -0.849129 0)
(-0.0142995 -0.841627 0)
(-0.0167612 -0.834442 0)
(-0.0195368 -0.818754 0)