/*--------------------------------*- C++ -*----------------------------------*\
| =========                 |                                                 |
| \\      /  F ield         | OpenFOAM: The Open Source CFD Toolbox           |
|  \\    /   O peration     | Version:  2012                                  |
|   \\  /    A nd           | Website:  www.openfoam.com                      |
|    \\/     M anipulation  |                                                 |
\*---------------------------------------------------------------------------*/
FoamFile
{
    version     2.0;
    format      ascii;
    class       volScalarField;
    location    "0.37";
    object      volumeFraction1;
}
// * * * * * * * * * * * * * * * * * * * * * * * * * * * * * * * * * * * * * //

dimensions      [0 0 0 0 0 0 0];


internalField   nonuniform List<scalar> 
2268
(
1
1
1
1
1
1
1
1
1
1
1
1
1
1
1
1
1
1
1
1
1
1
0.999187
1
1
1
1
1
1
1
1
1
1
1
1
1
1
1
1
1
1
1
1
1
1
0.999562
1
1
1
1
1
1
1
1
1
1
1
1
1
1
1
1
1
1
1
1
1
1
0.999845
1
1
1
1
1
1
1
1
1
1
1
1
1
1
1
1
1
1
1
1
1
1
0.999025
1
1
1
1
1
1
1
1
1
1
1
1
1
1
1
1
1
1
1
1
1
1
0.998202
1
1
1
1
1
1
1
1
1
1
1
1
1
1
1
1
1
1
1
1
1
1
0.998202
1
1
1
1
1
1
1
1
1
1
1
1
1
1
1
1
1
1
1
1
1
1
0.998203
1
1
1
1
1
1
1
1
1
1
1
1
1
1
1
1
1
1
1
1
1
1
0.998203
1.16385e-22
1.30088e-21
1.16071e-20
3.47071e-20
4.28756e-20
3.09337e-20
1.12644e-20
2.91268e-21
4.22268e-22
1.84807e-22
1.85269e-22
2.81108e-22
1.09714e-21
9.88694e-21
1.24839e-19
1.62116e-18
2.16189e-17
1.09418e-16
1.09414e-16
6.25972e-21
1.27059e-19
1.00124e-18
2.59666e-18
3.0474e-18
2.1021e-18
9.04173e-19
2.68221e-19
3.94761e-20
1.80452e-20
1.70438e-20
2.76592e-20
7.71461e-20
5.77337e-19
6.85341e-18
8.18825e-17
1.00302e-15
4.57698e-15
2.59201e-15
2.99056e-19
5.37049e-18
4.333e-17
1.11803e-16
1.27425e-16
8.27912e-17
3.71756e-17
1.13143e-17
1.82094e-18
9.18414e-19
9.10738e-19
1.38759e-18
2.99168e-18
1.68851e-17
1.82882e-16
1.97463e-15
2.17644e-14
8.83587e-14
5.04725e-14
9.16171e-18
1.70777e-16
1.30331e-15
3.01709e-15
3.28722e-15
1.97251e-15
8.84766e-16
2.65162e-16
5.01666e-17
3.04867e-17
3.18545e-17
4.42877e-17
7.60475e-17
3.09111e-16
3.05698e-15
2.96787e-14
2.85586e-13
1.00191e-12
5.56365e-13
2.0863e-16
3.48817e-15
2.53368e-14
5.30782e-14
5.33447e-14
3.00447e-14
1.44647e-14
4.4477e-15
9.83104e-16
6.75085e-16
7.56498e-16
9.85166e-16
1.42796e-15
4.11743e-15
3.64132e-14
3.1015e-13
2.51878e-12
7.38643e-12
3.75315e-12
3.02754e-15
5.15151e-14
3.41381e-13
6.27217e-13
5.98686e-13
3.37158e-13
1.63861e-13
4.88157e-14
1.36184e-14
1.14907e-14
1.43303e-14
1.63496e-14
2.05075e-14
3.98456e-14
3.16103e-13
2.33314e-12
1.55843e-11
3.73122e-11
1.49611e-11
3.85372e-14
5.08296e-13
2.78032e-12
4.44455e-12
3.89805e-12
2.45493e-12
1.35259e-12
4.29925e-13
1.49914e-13
1.48427e-13
1.95337e-13
2.11321e-13
2.33809e-13
3.04399e-13
2.08648e-12
1.3024e-11
6.58579e-11
1.0908e-10
2.82471e-11
2.29285e-13
5.71207e-12
3.40247e-11
6.9278e-11
3.464e-11
1.44799e-11
9.00724e-12
2.73978e-12
1.2144e-12
1.66435e-12
2.24669e-12
2.40079e-12
2.42437e-12
1.77805e-12
1.06404e-11
5.8003e-11
1.5129e-10
1.53909e-10
3.94622e-11
1
1
1
1
1
1
1
1
1
1
1
1
1
1
1
1
1
1
1
1
1
1
0.998475
1
1
1
1
0.999999
0.999999
0.999999
0.999998
0.999998
0.999997
0.999996
0.999995
0.999996
0.999997
0.999998
1
1
1
1
1
1
1
0.999712
0.995996
0.995754
0.995505
0.994891
0.994089
0.993119
0.991925
0.990306
0.988841
0.986768
0.985443
0.983292
0.98419
0.985827
0.989197
0.993501
1
1
1
1
1
1
0.999989
0.685191
0.678639
0.671119
0.655209
0.636141
0.614785
0.59088
0.55773
0.528145
0.491628
0.472756
0.449922
0.453331
0.463496
0.501933
0.571584
0.664046
0.777934
0.916583
1
1
1
1
0.0425608
0.0397481
0.0358468
0.028983
0.0213968
0.0133011
0.00485557
-4.39568e-22
-2.68526e-23
7.40366e-30
5.64668e-29
-2.84593e-30
-5.75465e-29
-8.00518e-28
-3.12263e-28
5.15458e-29
0.0206834
0.0700996
0.167466
0.347033
0.611865
0.902046
1
4.5045e-35
1.10548e-34
2.83904e-34
-8.27783e-33
1.25422e-32
-2.67837e-30
4.26218e-30
3.87277e-13
-2.74327e-33
1.24578e-10
5.01607e-10
3.34572e-09
1.43883e-09
1.19806e-08
4.26226e-09
6.42828e-11
6.42785e-11
0.000109828
0.00141657
0.00758088
0.0404216
0.172969
0.4443
1.33668e-18
8.96198e-17
3.34384e-15
7.73922e-14
1.16194e-12
1.35346e-11
2.96309e-11
2.32391e-11
-9.68032e-32
5.58228e-09
5.17727e-08
9.56563e-07
1.1736e-06
6.26541e-07
3.04294e-08
6.42785e-11
1.04756e-08
5.56766e-08
2.0356e-07
3.50163e-06
0.000122323
0.00245838
0.0172284
3.9803e-18
2.57877e-16
9.05754e-15
1.88497e-13
2.78582e-12
3.02111e-11
4.79489e-11
4.14718e-11
-6.43576e-31
5.34738e-08
1.39454e-06
2.48568e-06
2.48532e-06
1.03815e-06
1.04876e-08
1.34513e-09
1.34514e-09
4.3129e-07
7.62169e-07
7.62168e-07
1.26371e-06
1.70648e-06
2.27985e-05
5.34005e-18
3.39268e-16
1.15686e-14
2.28922e-13
3.29839e-12
3.45555e-11
4.70311e-11
5.96618e-11
3.005e-30
2.33649e-07
2.48485e-06
2.48532e-06
1.53545e-06
2.13249e-07
3.92711e-08
3.4454e-08
6.25042e-09
8.72184e-10
8.38939e-06
2.65532e-05
1.27062e-05
1.72141e-06
1.71944e-06
5.614e-18
3.54754e-16
1.19493e-14
2.3146e-13
3.16367e-12
3.17966e-11
3.20525e-11
1.60133e-10
1.78374e-28
1.92005e-07
7.6149e-07
6.64524e-07
1.45553e-11
1.45307e-11
6.08889e-08
9.11322e-08
3.76254e-08
8.77894e-10
3.73806e-06
2.79465e-05
4.04996e-05
4.0486e-05
4.04945e-05
4.80112e-18
2.9055e-16
9.2367e-15
1.64959e-13
1.76204e-12
1.77797e-11
7.6238e-12
5.01965e-10
3.70662e-09
1.30711e-11
1.30688e-11
1.30711e-11
1.84284e-10
5.35443e-10
1.76624e-08
7.54389e-08
5.8239e-08
4.95715e-09
3.08716e-16
3.00681e-16
2.35114e-06
9.7294e-06
2.7868e-05
2.48279e-18
1.4588e-16
4.46309e-15
7.64413e-14
7.54188e-13
7.3057e-12
9.75581e-13
8.18582e-10
5.32691e-09
6.17125e-10
7.6194e-11
1.58212e-10
7.79e-10
5.55638e-09
2.46188e-10
1.16587e-10
1.16587e-10
1.56806e-10
8.83336e-11
1.53692e-11
4.16398e-12
4.16135e-12
3.65278e-07
9.56448e-19
5.49372e-17
1.64595e-15
2.76268e-14
2.7591e-13
2.4903e-12
9.75587e-13
7.3524e-10
9.39066e-10
5.74639e-10
1.43756e-10
2.40467e-10
7.98825e-10
1.77317e-09
1.66531e-09
1.18918e-09
7.45041e-10
4.08875e-10
1.80262e-10
7.15363e-11
2.63533e-11
5.65856e-12
5.45649e-12
2.95726e-19
1.67631e-17
4.97035e-16
8.29373e-15
8.53628e-14
7.52458e-13
9.75586e-13
2.80982e-10
2.96561e-10
2.87195e-10
1.26837e-10
1.20043e-10
4.15921e-10
4.80111e-10
6.74472e-10
8.28993e-10
6.96616e-10
3.57143e-10
1.42828e-10
6.11624e-11
2.71042e-11
1.21737e-11
5.6539e-12
7.25695e-20
4.06888e-18
1.20108e-16
2.01834e-15
2.18081e-14
1.86982e-13
1.34083e-12
3.86657e-11
6.96595e-11
6.15855e-11
3.00276e-11
2.32698e-11
5.89376e-11
1.35315e-10
1.63474e-10
1.58639e-10
1.30427e-10
7.81091e-11
3.63537e-11
1.63128e-11
7.30639e-12
3.27284e-12
1.54042e-12
1.38884e-20
7.87121e-19
2.35783e-17
4.09571e-16
4.76797e-15
4.42147e-14
1.05341e-12
1.78168e-12
2.81396e-12
2.79045e-12
2.49243e-12
5.59044e-12
1.12981e-11
1.63363e-11
1.81342e-11
1.78969e-11
1.64839e-11
1.24463e-11
6.57778e-12
2.93293e-12
1.29205e-12
5.46093e-13
2.50573e-13
2.00968e-21
1.16458e-19
3.59985e-18
6.63708e-17
8.51044e-16
8.5086e-15
2.29674e-13
2.10727e-13
1.11707e-13
8.47713e-14
2.9819e-13
1.47066e-12
3.51505e-12
4.01242e-12
3.88952e-12
3.4226e-12
2.65089e-12
1.64669e-12
8.09818e-13
3.65429e-13
1.54394e-13
5.63997e-14
5.57481e-14
2.10026e-22
1.29565e-20
4.29456e-19
8.71816e-18
1.24651e-16
1.24834e-15
2.31356e-14
4.03274e-14
3.68346e-14
2.5987e-14
7.32384e-14
2.98436e-13
6.00386e-13
6.40769e-13
5.99204e-13
4.89293e-13
3.28947e-13
1.69374e-13
7.8293e-14
3.34239e-14
1.13073e-14
8.70414e-15
3.65249e-14
1.47524e-23
1.02073e-21
3.79164e-20
8.67332e-19
1.36046e-17
1.36806e-16
1.03377e-15
1.42085e-15
1.44536e-15
2.42994e-15
1.05596e-14
3.62469e-14
5.50321e-14
5.49818e-14
5.02825e-14
4.10797e-14
2.88999e-14
1.53863e-14
6.84368e-15
2.51371e-15
1.07726e-15
3.8464e-15
4.21274e-14
6.23056e-25
5.28308e-23
2.31822e-21
6.01011e-20
1.00193e-18
9.66424e-18
5.01155e-17
5.82279e-17
8.45377e-17
2.49356e-16
1.07643e-15
2.55699e-15
2.612e-15
2.37268e-15
2.34234e-15
2.23691e-15
1.87677e-15
1.19094e-15
4.81527e-16
1.47068e-16
2.50511e-16
3.67822e-15
4.15946e-14
1.35577e-26
1.46281e-24
7.65821e-23
2.18805e-21
3.73472e-20
3.31893e-19
1.19973e-18
2.22314e-18
6.15582e-18
2.2642e-17
7.90223e-17
9.91662e-17
7.16422e-17
6.04367e-17
8.09573e-17
9.28165e-17
8.21865e-17
5.29315e-17
1.72702e-17
1.01082e-17
1.42343e-16
2.87509e-15
2.67629e-14
1.83348e-28
1.25183e-26
4.68203e-25
1.16563e-23
2.33281e-22
3.05345e-21
1.84668e-20
8.83873e-20
4.11794e-19
1.48692e-18
3.44344e-18
3.78563e-18
2.90815e-18
2.40285e-18
2.78797e-18
2.84562e-18
2.36598e-18
1.29869e-18
3.92697e-19
1.94025e-18
7.90447e-17
1.35962e-15
1.59768e-14
1.04012e-29
7.51817e-28
2.87914e-26
7.14189e-25
1.40928e-23
1.88945e-22
1.15988e-21
5.23095e-21
2.14727e-20
6.69121e-20
1.08789e-19
1.20072e-19
1.09271e-19
7.08052e-20
3.06743e-20
1.80009e-20
1.16803e-20
5.20824e-21
1.70182e-20
8.03288e-19
3.08171e-17
6.34897e-16
1.31878e-14
2.90003e-31
2.15565e-29
8.06018e-28
1.80917e-26
2.81645e-25
3.0396e-24
2.47895e-23
1.45125e-22
6.29784e-22
1.78053e-21
3.09539e-21
4.3552e-21
4.0453e-21
2.70448e-21
9.11115e-22
2.17851e-22
4.7634e-23
2.49233e-22
7.55657e-21
3.14064e-19
1.17658e-17
3.9762e-16
1.37875e-14
1.27251e-36
6.4641e-35
1.61298e-33
2.35125e-32
2.17351e-31
7.42669e-31
1.68804e-30
1.45855e-29
9.58131e-29
3.95332e-28
1.0595e-27
1.49924e-27
1.33495e-27
6.99214e-28
1.172e-27
5.79394e-26
3.06462e-24
1.24125e-22
3.82476e-21
1.34522e-19
6.22288e-18
3.65352e-16
1.74151e-14
9.36334e-41
6.39248e-39
2.29122e-37
5.38881e-36
1.00113e-34
1.72361e-33
5.84153e-32
1.0676e-30
8.13411e-30
3.53595e-29
9.33936e-29
1.26256e-28
1.07871e-28
5.11369e-29
3.13087e-28
2.37047e-26
1.355e-24
5.80387e-23
1.83637e-21
7.25437e-20
5.36733e-18
4.13716e-16
2.03185e-14
5.17042e-44
3.41869e-42
1.14192e-40
2.36557e-39
3.45655e-38
3.67737e-37
2.99717e-36
1.87405e-35
9.2126e-35
3.7475e-34
1.37273e-33
1.53726e-32
2.2226e-32
8.06516e-31
9.2094e-29
8.35156e-27
5.15928e-25
2.35433e-23
8.14069e-22
4.54822e-20
5.43375e-18
4.47542e-16
2.11979e-14
1.51708e-49
1.29245e-47
5.67117e-46
1.59002e-44
3.23952e-43
5.02675e-42
6.22902e-41
6.29096e-40
5.2138e-39
3.63422e-38
2.23232e-37
6.10886e-36
1.0709e-33
1.88053e-31
2.45061e-29
2.47656e-27
1.65496e-25
8.13428e-24
3.25684e-22
2.7044e-20
4.9759e-18
4.05851e-16
1.74438e-14
5.02966e-53
4.62058e-51
2.18939e-49
6.71995e-48
1.52188e-46
2.71233e-45
3.99419e-44
5.01365e-43
5.32812e-42
5.55281e-41
2.82571e-39
7.33623e-37
1.74548e-34
3.56389e-32
5.28323e-30
5.98308e-28
4.33616e-26
2.3489e-24
1.14847e-22
1.29817e-20
2.44724e-18
1.88066e-16
7.39285e-15
2.08478e-59
2.36409e-57
1.53533e-55
7.21138e-54
2.6799e-52
8.03707e-51
1.97091e-49
6.2572e-48
1.30427e-45
5.63199e-43
2.18316e-40
7.67775e-38
2.16335e-35
5.17662e-33
8.87918e-31
1.13252e-28
8.96882e-27
5.57142e-25
3.41826e-23
4.39351e-21
6.69547e-19
4.99508e-17
1.97491e-15
1.21651e-64
2.26668e-62
2.26169e-60
1.52034e-58
7.78642e-57
4.58701e-55
1.25939e-52
7.86825e-50
4.70496e-47
2.58408e-44
1.24018e-41
5.32156e-39
1.84896e-36
5.29507e-34
1.08932e-31
1.58299e-29
1.40003e-27
1.05401e-25
8.01692e-24
8.86202e-22
9.34793e-20
6.4605e-18
2.56251e-16
7.70348e-69
2.08051e-66
2.91725e-64
2.77345e-62
2.77373e-60
1.1228e-57
1.0074e-54
9.12998e-52
7.47757e-49
5.64413e-46
3.73029e-43
2.12614e-40
9.8326e-38
3.49036e-35
9.02397e-33
1.52925e-30
1.57357e-28
1.51711e-26
1.40962e-24
9.52053e-23
4.36123e-21
1.48183e-19
3.91566e-18
2.1632e-73
8.59608e-71
1.93236e-68
4.3539e-66
2.70629e-63
3.5224e-60
4.65379e-57
5.83705e-54
6.66639e-51
6.98277e-48
6.29686e-45
4.77094e-42
2.8448e-39
1.2904e-36
4.24724e-34
9.03414e-32
1.1645e-29
1.50832e-27
1.85229e-25
1.55812e-23
8.70912e-22
3.61271e-20
1.47275e-18
3.57042e-77
1.79417e-74
5.2527e-72
1.70083e-69
1.54643e-66
2.68074e-63
5.03712e-60
9.18399e-57
1.5441e-53
2.45466e-50
3.23179e-47
3.80736e-44
3.45832e-41
2.44226e-38
1.18241e-35
3.46576e-33
5.78475e-31
9.63132e-29
1.59323e-26
1.7783e-24
1.29292e-22
6.87858e-21
4.84546e-19
1.90531e-81
1.36683e-78
5.79642e-76
2.57155e-73
2.97711e-70
7.497e-67
2.09182e-63
6.05716e-60
1.55211e-56
3.71295e-53
7.43227e-50
1.35083e-46
1.74406e-43
1.86954e-40
1.23824e-37
5.58138e-35
1.32261e-32
2.94959e-30
7.40161e-28
1.27642e-25
1.37919e-23
1.05813e-21
1.3592e-19
6.37778e-86
6.51402e-83
3.9503e-80
2.26689e-77
2.91172e-74
9.74161e-71
3.92809e-67
1.65934e-63
6.42934e-60
2.37064e-56
7.54995e-53
2.09349e-49
4.3582e-46
7.7656e-43
8.24391e-40
6.16021e-37
2.13659e-34
6.4502e-32
2.46244e-29
6.28595e-27
9.60303e-25
1.0436e-22
2.2886e-20
5.51688e-91
9.08373e-88
8.69348e-85
6.825e-82
7.54951e-79
2.9284e-75
1.81885e-71
1.18359e-67
7.68502e-64
4.40487e-60
2.20896e-56
9.50225e-53
3.44346e-49
9.71838e-46
1.70803e-42
2.12287e-39
1.21525e-36
4.69887e-34
2.39574e-31
1.01328e-28
2.61948e-26
4.90608e-24
2.26148e-21
3.20899e-96
8.31771e-93
1.35351e-89
2.84539e-86
1.85243e-82
1.71254e-78
1.26557e-74
6.68981e-71
2.9412e-67
1.3018e-63
6.94107e-60
4.04051e-56
2.29293e-52
1.1655e-48
3.32799e-45
7.05163e-42
5.77366e-39
3.35497e-36
3.45685e-33
2.38371e-30
9.43748e-28
1.18173e-24
3.26255e-22
5.15696e-99
2.61472e-94
1.14783e-89
2.89303e-85
4.34898e-81
4.2099e-77
2.94626e-73
1.38e-69
4.58088e-66
1.14596e-62
2.49202e-59
5.96557e-56
1.1889e-52
1.83161e-49
2.36671e-46
2.52096e-43
2.14279e-40
1.46342e-37
8.48671e-35
4.07401e-32
2.20814e-29
1.69731e-26
6.25573e-24
8.24268e-98
7.7489e-93
3.24822e-88
7.67271e-84
1.10103e-79
1.02343e-75
6.43819e-72
2.80034e-68
8.88755e-65
2.20125e-61
4.54149e-58
8.29556e-55
1.3936e-51
2.07927e-48
2.59355e-45
2.62146e-42
2.08858e-39
1.29916e-36
6.25096e-34
2.30971e-31
6.49985e-29
1.36707e-26
2.10341e-24
7.18396e-97
5.17646e-92
1.81954e-87
3.72531e-83
4.69203e-79
3.84096e-75
2.11734e-71
8.25525e-68
2.33522e-64
4.9279e-61
7.87948e-58
9.75986e-55
9.46024e-52
7.40028e-49
4.69985e-46
2.4702e-43
1.08402e-40
4.04699e-38
1.30011e-35
3.62629e-33
8.76489e-31
1.80649e-28
3.08617e-26
7.31607e-96
3.7662e-91
8.79407e-87
1.22476e-82
1.12373e-78
7.21703e-75
3.34857e-71
1.15759e-67
3.0287e-64
6.11097e-61
9.5699e-58
1.17785e-54
1.14203e-51
8.80261e-49
5.40243e-46
2.66076e-43
1.05533e-40
3.40641e-38
9.02471e-36
1.98441e-33
3.65125e-31
5.65291e-29
7.27879e-27
0.999404
0.999965
0.586375
2.29287e-13
0.999765
0.999965
0.966119
0.829366
0.999997
0.999965
0.999205
1
1
0.999983
0.999987
1
1
1
1
1
0.669413
0.792854
0.892657
0.999743
0.0562851
0.107991
0.179757
0.277826
0.000173695
0.000687213
0.00203715
0.0050233
2.36296e-06
1.76224e-06
1.03074e-06
2.02708e-06
3.46026e-05
1.14887e-05
4.14133e-08
2.04503e-10
3.06853e-05
1.61535e-05
1.2781e-07
1.44403e-10
1.11942e-06
1.88753e-06
1.18791e-06
1.51925e-07
4.06442e-11
2.06744e-12
3.2895e-08
2.39072e-08
3.28156e-12
2.06744e-12
4.61433e-13
2.07258e-11
9.1043e-13
6.57683e-13
4.61432e-13
2.87928e-13
1.59753e-13
1.47098e-13
1.54645e-13
1.8159e-13
6.85428e-14
9.49292e-14
1.59072e-13
3.09419e-13
8.39484e-14
1.50579e-13
4.08638e-13
6.34487e-13
1.00715e-13
1.80678e-13
5.59557e-13
5.95459e-13
9.83798e-14
1.79977e-13
5.91138e-13
8.51038e-13
6.74101e-14
1.54264e-13
5.56506e-13
2.53663e-12
5.26848e-14
1.76096e-13
9.46936e-13
6.37045e-12
5.93532e-14
3.42074e-13
2.15467e-12
1.07896e-11
9.96742e-14
6.97756e-13
4.4732e-12
1.83871e-11
1.6103e-13
1.22406e-12
7.99678e-12
3.12654e-11
2.11598e-13
1.68419e-12
1.10187e-11
4.11261e-11
2.36241e-13
1.91772e-12
1.24183e-11
4.56771e-11
2.18655e-13
1.79696e-12
1.10531e-11
3.23161e-11
9.92682e-14
8.09079e-13
4.64375e-12
1.0905e-11
2.82278e-14
2.35498e-13
1.31869e-12
2.64013e-12
4.03849e-15
3.69774e-14
1.949e-13
3.27497e-13
6.17664e-17
5.50743e-16
3.31768e-15
2.33011e-14
2.9794e-17
3.44588e-16
3.22422e-15
3.22188e-14
1.06683e-17
1.54302e-16
2.5501e-15
4.37382e-14
4.08252e-18
8.63352e-17
2.05988e-15
4.22246e-14
7.82162e-19
1.29427e-17
1.65111e-16
1.6384e-15
1.20898e-19
2.79573e-18
4.61185e-17
5.66157e-16
1.91259e-20
5.20718e-19
1.02862e-17
1.49673e-16
6.46732e-22
3.0441e-20
1.00003e-18
2.29055e-17
1.65048e-22
6.55047e-21
1.98619e-19
4.53091e-18
3.03446e-24
1.60812e-22
6.92532e-21
2.36841e-19
5.49259e-25
2.26606e-23
7.84167e-22
2.26666e-20
2.29283e-13
4.67599e-11
2.84254e-10
4.13658e-10
3.87489e-10
3.10574e-10
1.78707e-10
4.50951e-11
1.56172e-11
1.92685e-11
1.40452e-11
5.60233e-12
1.97438e-11
1.32991e-11
5.66353e-11
1.87097e-10
2.67258e-10
1.60546e-10
6.45357e-11
0.219644
4.67599e-11
6.08472e-11
2.27373e-10
3.1273e-10
3.93636e-10
4.33431e-10
2.7557e-10
3.16287e-10
7.76e-10
9.23847e-10
3.01091e-12
3.01409e-12
3.01091e-12
1.58131e-10
3.68955e-10
3.57467e-10
1.5464e-10
1.25765e-10
0.796464
0.173952
3.5954e-16
3.59628e-16
3.59585e-16
3.59629e-16
1.56013e-11
9.4648e-11
2.83454e-10
1.09213e-09
6.73423e-09
4.54495e-08
5.64742e-08
1.96851e-08
1.58132e-10
2.37836e-10
2.37836e-10
7.23577e-10
2.54476e-10
0.998207
0.809866
0.440825
0.183637
0.070305
0.0293831
3.59828e-16
3.59725e-16
3.59829e-16
3.59725e-16
3.59857e-16
1.3495e-08
1.85886e-07
5.34099e-07
5.18053e-07
2.37836e-10
2.13166e-07
2.11721e-07
9.93205e-09
0.999946
0.996738
0.977269
0.876968
0.746897
0.657809
0.553213
0.394737
0.248847
0.146213
0.0192358
3.83137e-11
3.83314e-11
3.83137e-11
3.83314e-11
1.21919e-06
6.93497e-06
6.01387e-06
9.98854e-07
1
1
1
1
0.999049
0.996751
0.992552
0.974347
0.925306
0.851286
0.708503
0.476897
0.261212
0.0214951
3.83137e-11
3.83314e-11
2.5621e-06
1.38857e-05
0.000411614
0.521553
0.80155
0.922979
0.971838
0.998989
0.99996
0.99996
0.99996
0.99996
0.99996
0.99996
0.990604
0.930692
0.743358
0.436529
0.0958578
2.56211e-06
0.00204986
0.0620268
0.0190979
0.117809
0.240262
0.348251
0.435734
0.507824
0.569114
0.642473
0.732954
0.822695
0.899111
0.998123
0.999912
0.999912
0.981297
0.81939
0.542442
0.253651
0.379449
3.46589e-05
0.000630082
0.00250046
0.00576865
0.0101672
0.0149066
0.0225978
0.041101
0.0824374
0.149601
0.237904
0.382183
0.621097
0.899232
0.995353
0.995352
0.980904
0.910809
0.587858
1.6124e-09
1.30809e-08
1.23683e-07
6.65554e-07
2.2797e-06
5.45024e-06
1.21362e-05
4.36683e-05
0.000226365
0.000939422
0.00305938
0.0102517
0.0385535
0.206501
0.597665
0.974066
0.980901
0.980915
0.554297
1.44339e-10
1.44341e-10
1.44341e-10
1.37837e-10
7.55325e-11
6.52356e-10
1.51375e-08
4.7171e-08
5.12871e-08
5.30165e-08
3.94727e-07
5.58956e-06
0.000277852
0.000785405
0.0555854
0.630094
0.975282
0.980849
0.498676
1.44979e-09
1.85047e-10
1.74743e-10
1.43379e-10
6.8582e-11
4.05837e-11
4.76841e-10
1.84489e-08
3.00682e-08
1.23106e-08
2.43166e-09
6.66709e-09
7.76719e-08
2.28116e-06
2.28124e-06
0.273033
0.896869
0.973237
0.459518
3.19946e-09
3.05976e-10
1.09253e-10
7.37038e-11
4.65057e-11
4.05834e-11
3.69696e-10
3.72242e-09
1.00411e-08
8.03282e-09
2.30072e-09
2.798e-09
5.74628e-09
2.15045e-08
0.000247008
0.15683
0.826301
0.949753
0.407761
4.68558e-11
1.89211e-11
1.11812e-11
1.11813e-11
1.15779e-11
2.17082e-11
1.18555e-10
6.37838e-10
2.0258e-09
4.01875e-09
2.30072e-09
2.03985e-09
1.22658e-09
1.85309e-08
0.000711998
0.165672
0.811055
0.886804
0.305571
3.11791e-13
1.24911e-12
9.70422e-12
1.21201e-10
1.80674e-10
2.17083e-11
2.17075e-11
1.09708e-10
4.69149e-10
1.76442e-09
1.80761e-09
1.30864e-09
1.18125e-09
4.52216e-08
0.00140123
0.187056
0.810237
0.820945
0.303085
3.68718e-13
4.52912e-12
4.52906e-12
3.0017e-10
4.21686e-09
5.21181e-09
2.33808e-09
6.68762e-11
6.68178e-11
3.44576e-10
1.17462e-09
1.17462e-09
1.18121e-09
2.9884e-07
0.00352997
0.242988
0.790619
0.830204
0.356201
5.94853e-13
1.2399e-10
3.67049e-10
3.04926e-10
3.04942e-10
1.33483e-08
6.54337e-08
5.46609e-08
1.41091e-08
3.44575e-10
8.58523e-10
1.55249e-09
1.18125e-09
1.22954e-07
0.00204872
0.154514
0.641081
0.830288
0.437319
5.94862e-13
4.20402e-09
4.27339e-08
4.23003e-08
1.5177e-08
6.54624e-09
8.52121e-09
1.80726e-07
1.81072e-07
1.15043e-07
5.66389e-09
2.14642e-09
1.25993e-09
1.25991e-09
1.22074e-05
0.02204
0.56288
0.487621
0.215969
5.94898e-13
3.30528e-08
2.41492e-07
2.38807e-07
7.51381e-08
9.04225e-08
5.01224e-09
5.06643e-09
6.54069e-08
1.02537e-07
2.52962e-08
3.28868e-09
2.13265e-09
2.55852e-09
1.87781e-07
2.95104e-11
0.448593
0.41631
0.1576
5.95411e-13
5.81084e-08
2.41607e-07
1.18871e-07
6.54167e-08
3.77371e-06
8.21483e-06
7.68139e-10
4.61422e-10
1.72511e-08
1.51855e-08
3.69036e-09
2.36923e-09
2.25693e-09
1.13038e-09
2.95106e-11
0.249402
0.635681
0.157592
1.7437e-12
7.05627e-13
1.72192e-07
3.1649e-07
6.54175e-08
2.09443e-05
0.000149628
0.00017056
8.80304e-05
2.65552e-08
1.43715e-09
1.35496e-09
2.11889e-09
2.96301e-09
1.52243e-09
2.95104e-11
0.0554911
0.635808
0.16351
1.00586e-11
7.05589e-13
3.25482e-07
1.59381e-05
2.25463e-05
4.99203e-05
0.000164416
0.000170751
0.000170764
3.51633e-05
1.43795e-09
8.33462e-09
9.06131e-09
4.2285e-09
1.54885e-09
1.54602e-10
2.95104e-11
0.456675
0.331481
2.89571e-11
7.05627e-13
3.62442e-06
4.05297e-05
1.54568e-05
7.93792e-06
7.93827e-06
6.83069e-05
0.000170751
0.000170231
2.59095e-05
3.9912e-07
7.47091e-09
2.64888e-09
1.10507e-09
9.25778e-11
2.95104e-11
0.103135
0.408991
4.63211e-11
7.05589e-13
1.65288e-06
3.75031e-05
1.2362e-05
3.07532e-05
3.46838e-05
2.01697e-05
0.000164558
0.000170513
9.31307e-05
5.76054e-07
2.5198e-09
1.01617e-09
3.67616e-10
7.51161e-11
6.89515e-05
4.93266e-05
0.408955
3.4671e-11
2.34751e-09
1.92441e-06
9.64795e-08
1.2313e-05
5.58625e-05
5.58486e-05
1.63773e-05
5.08925e-05
0.00016796
7.22089e-05
2.97673e-07
1.01226e-08
2.05158e-09
1.0489e-10
4.52623e-05
0.000289344
4.90395e-05
0.408876
3.46759e-11
1.65862e-08
3.31579e-08
9.64752e-08
3.23391e-06
3.32914e-05
3.74447e-05
1.70016e-06
3.71865e-06
2.50207e-05
1.2909e-05
6.53427e-08
1.35473e-08
5.64614e-09
1.04879e-10
0.000274003
0.000297287
4.93266e-05
0.297745
7.80301e-11
7.80301e-11
1.67306e-07
2.76621e-06
1.11903e-06
2.14446e-06
6.63773e-06
6.83104e-06
1.99991e-06
2.43305e-07
2.02567e-07
1.02912e-08
5.61127e-09
5.61126e-09
2.39271e-10
0.000282873
0.000255395
5.79932e-05
0.0290166
4.52423e-11
1.41321e-10
3.10197e-07
3.81043e-06
3.25455e-06
3.64765e-07
8.77474e-07
3.70695e-06
3.70612e-06
3.09018e-06
1.18293e-06
2.32509e-07
1.9542e-07
5.61127e-09
1.74675e-06
0.000111929
4.23504e-05
1.62159e-05
2.82524e-05
1.69301e-11
1.335e-10
1.51888e-08
1.18525e-06
5.47801e-06
3.64706e-07
9.11825e-09
3.19621e-07
2.37726e-06
3.12997e-06
1.56308e-06
1.92206e-07
1.78024e-07
9.97638e-08
3.6535e-06
6.86028e-07
6.86116e-07
7.9922e-07
1.01995e-07
4.2904e-12
1.93107e-11
7.22824e-13
7.22904e-13
6.77744e-07
1.60461e-06
4.49341e-09
4.49329e-09
8.60223e-08
3.62403e-07
2.23306e-07
3.27399e-11
3.27403e-11
3.27399e-11
3.27403e-11
2.64461e-06
1.55218e-05
4.10986e-06
2.97926e-08
5.17616e-13
4.90942e-12
6.83573e-11
1.12691e-09
5.78306e-08
9.86708e-06
1.20643e-06
3.81554e-11
3.81554e-11
4.56339e-10
1.45996e-10
0.0137898
0.12953
0.0649031
0.00584773
0.00044884
2.76683e-05
2.69869e-06
2.18527e-08
2.90487e-13
3.77959e-12
2.9492e-11
6.55395e-10
4.88592e-07
9.86697e-06
1.86518e-05
7.90177e-06
4.248e-07
2.08153e-09
1.47345e-10
0.261411
0.471713
0.407857
0.103225
0.000986349
2.57393e-05
1.10351e-06
1.1946e-08
6.0392e-13
1.08705e-11
1.09779e-10
3.23751e-10
3.38798e-10
7.66858e-07
1.94227e-05
1.94403e-05
5.38005e-06
3.28629e-09
1.45996e-10
0.35087
0.471739
0.471713
0.139074
0.000899478
1.59344e-05
5.11319e-07
6.91845e-09
1.00452e-12
1.88745e-11
1.89652e-10
6.78539e-10
3.57481e-09
2.41785e-06
1.50117e-05
1.94244e-05
4.9863e-06
1.76081e-09
1.47345e-10
0.123671
0.31083
0.248009
0.0591508
0.000618088
5.5682e-06
2.92567e-07
4.52135e-09
1.0359e-12
2.03652e-11
2.29415e-10
6.7854e-10
5.87188e-10
1.84943e-09
1.10156e-06
7.0438e-06
2.56697e-06
1.76155e-09
0.00116768
0.003535
0.013631
0.00589247
0.00393307
0.000583979
1.39403e-06
1.34381e-07
3.57031e-09
1.90877e-14
1.56889e-13
2.85249e-13
1.18648e-12
5.60513e-12
2.08088e-10
4.82286e-08
3.69713e-06
7.41464e-06
7.00181e-05
0.000127351
1.38516e-05
4.18304e-06
1.03356e-06
7.19268e-07
0.000223673
9.87756e-06
4.61184e-08
2.58228e-09
8.48593e-15
1.11765e-13
1.01855e-12
6.40113e-12
3.41544e-11
3.72651e-10
6.27531e-08
2.35985e-06
1.27211e-05
6.18066e-05
4.04131e-06
5.7354e-08
1.14599e-09
3.69675e-11
8.03576e-12
2.98906e-06
9.70452e-06
2.84697e-07
1.88828e-09
2.5991e-15
3.74553e-14
3.58518e-13
2.67676e-12
2.24307e-11
2.58781e-10
1.38542e-08
3.59786e-07
2.05165e-06
2.56251e-06
5.26576e-08
1.62706e-11
1.62706e-11
8.03576e-12
8.03572e-12
8.03576e-12
1.90278e-06
2.65727e-07
1.88842e-09
5.95512e-16
1.11658e-14
1.25355e-13
9.00255e-13
3.94574e-12
7.27641e-12
3.45738e-11
6.01388e-10
3.88923e-10
7.05431e-11
1.71943e-10
3.51474e-11
7.31328e-11
8.03572e-12
7.24168e-07
3.51669e-06
6.08072e-08
6.08091e-08
2.80986e-09
1.24271e-16
2.60397e-15
3.25363e-14
2.6478e-13
1.46836e-12
4.58742e-12
6.62489e-12
7.26756e-12
6.38085e-12
8.29747e-12
1.89689e-11
5.18239e-11
1.71307e-10
8.03576e-12
5.80025e-06
1.43143e-05
8.44198e-06
4.11643e-07
3.12077e-09
1.02206e-17
3.3865e-16
6.00566e-15
6.27916e-14
4.23789e-13
1.90406e-12
4.09269e-12
5.16641e-12
5.8107e-12
8.10551e-12
1.69724e-11
3.00496e-11
9.64148e-10
9.90598e-07
1.04547e-05
1.43143e-05
1.43143e-05
3.15925e-06
4.12542e-09
8.8526e-19
3.18694e-17
6.83415e-16
8.53389e-15
6.69249e-14
3.4735e-13
1.12748e-12
2.15889e-12
3.16865e-12
6.55514e-12
2.66348e-11
1.51006e-10
6.52148e-09
2.12808e-07
1.29673e-06
8.0514e-06
1.10916e-05
3.53629e-06
3.30933e-09
)
;

boundaryField
{
    leftWall
    {
        type            zeroGradient;
    }
    rightWall
    {
        type            zeroGradient;
    }
    lowerWall
    {
        type            zeroGradient;
    }
    atmosphere
    {
        type            inletOutlet;
        inletValue      uniform 0;
        value           nonuniform List<scalar> 
46
(
0
0
0
0
0
0
0
0
0
0
0
0
0
0
0
0
0
0
0
0
0
0
0
0
0
0
0
0
3.18694e-17
6.83415e-16
8.53389e-15
6.69249e-14
3.4735e-13
1.12748e-12
2.15889e-12
3.16865e-12
6.55514e-12
2.66348e-11
1.51006e-10
0
0
0
0
1.10916e-05
3.53629e-06
3.30933e-09
)
;
    }
    defaultFaces
    {
        type            empty;
    }
}


// ************************************************************************* //
