/*--------------------------------*- C++ -*----------------------------------*\
| =========                 |                                                 |
| \\      /  F ield         | OpenFOAM: The Open Source CFD Toolbox           |
|  \\    /   O peration     | Version:  2012                                  |
|   \\  /    A nd           | Website:  www.openfoam.com                      |
|    \\/     M anipulation  |                                                 |
\*---------------------------------------------------------------------------*/
FoamFile
{
    version     2.0;
    format      ascii;
    class       volScalarField;
    location    "3620";
    object      maxKappa;
}
// * * * * * * * * * * * * * * * * * * * * * * * * * * * * * * * * * * * * * //

dimensions      [0 0 0 0 0 0 0];


internalField   nonuniform List<scalar> 
20400
(
3.41807e-12
7.74017e-12
2.52342e-11
5.67176e-11
1.00068e-10
1.50812e-10
2.07796e-10
2.67981e-10
3.29835e-10
3.92822e-10
4.55305e-10
5.1821e-10
5.805e-10
6.42472e-10
7.03985e-10
7.65132e-10
8.25921e-10
8.86363e-10
9.46491e-10
1.00616e-09
1.06527e-09
1.12383e-09
1.18186e-09
1.23936e-09
1.29632e-09
1.35272e-09
1.40858e-09
1.4639e-09
1.51871e-09
1.57303e-09
1.62691e-09
1.68033e-09
1.73325e-09
1.78541e-09
1.83678e-09
1.8885e-09
1.93996e-09
1.99091e-09
2.04151e-09
2.09165e-09
2.14135e-09
2.19061e-09
2.23942e-09
2.28782e-09
2.33579e-09
2.38337e-09
2.43057e-09
2.47739e-09
2.52387e-09
2.57002e-09
2.61586e-09
2.66144e-09
2.70677e-09
2.75187e-09
2.79679e-09
2.84147e-09
2.886e-09
2.93014e-09
2.97391e-09
3.01727e-09
3.05993e-09
3.10251e-09
3.14443e-09
3.18636e-09
3.22809e-09
3.26972e-09
3.31121e-09
3.35256e-09
3.39374e-09
3.43476e-09
3.47561e-09
3.51628e-09
3.55676e-09
3.59705e-09
3.63714e-09
3.67703e-09
3.71673e-09
3.75621e-09
3.79549e-09
3.83452e-09
3.87337e-09
3.91195e-09
3.95034e-09
3.98841e-09
4.02619e-09
4.0635e-09
4.10045e-09
4.13751e-09
4.17423e-09
4.21049e-09
4.24635e-09
4.28146e-09
4.31601e-09
4.34965e-09
4.38298e-09
4.41533e-09
4.44724e-09
4.4779e-09
4.50799e-09
4.53659e-09
4.56458e-09
4.59063e-09
4.61598e-09
4.63885e-09
4.66129e-09
4.68057e-09
4.69934e-09
4.71422e-09
4.7283e-09
4.73826e-09
4.74743e-09
4.75068e-09
4.7526e-09
4.75016e-09
4.75279e-09
4.74826e-09
4.74441e-09
4.73227e-09
4.72054e-09
4.70026e-09
4.68036e-09
4.65152e-09
4.62337e-09
4.58559e-09
4.54911e-09
4.50188e-09
4.45705e-09
4.39989e-09
4.34655e-09
4.27898e-09
4.2159e-09
4.13796e-09
4.06315e-09
3.97371e-09
3.8878e-09
3.7886e-09
3.68351e-09
3.57316e-09
3.4585e-09
3.33943e-09
3.21671e-09
3.08822e-09
2.95673e-09
2.8182e-09
2.67683e-09
2.52443e-09
2.3743e-09
2.19795e-09
2.04618e-09
1.86672e-09
1.72698e-09
1.58193e-09
1.43255e-09
1.27564e-09
1.11676e-09
9.53009e-10
7.97017e-10
6.23165e-10
4.80952e-10
4.06648e-10
3.3058e-10
3.21186e-10
3.79662e-10
4.66997e-10
5.97465e-10
7.64499e-10
9.11982e-10
1.07712e-09
1.22142e-09
1.38122e-09
1.52074e-09
1.67337e-09
1.8073e-09
1.95163e-09
2.07938e-09
2.21472e-09
2.33581e-09
2.46177e-09
2.57578e-09
2.69211e-09
2.79857e-09
2.90552e-09
3.00389e-09
3.1016e-09
3.19177e-09
3.28031e-09
3.36228e-09
3.442e-09
3.51579e-09
3.58698e-09
3.65282e-09
3.71581e-09
3.77401e-09
3.82918e-09
3.8801e-09
3.9279e-09
3.97194e-09
4.01282e-09
4.05044e-09
4.0849e-09
4.11645e-09
4.14505e-09
4.17095e-09
4.19418e-09
4.21486e-09
4.23317e-09
4.24911e-09
4.26293e-09
4.27462e-09
4.28435e-09
4.29225e-09
4.29839e-09
4.30289e-09
4.30585e-09
4.30745e-09
4.30759e-09
4.30636e-09
4.30382e-09
4.30038e-09
4.29567e-09
4.29036e-09
4.28384e-09
4.27702e-09
4.269e-09
4.26092e-09
4.25168e-09
4.24259e-09
4.23236e-09
4.22251e-09
4.21151e-09
4.20108e-09
4.18958e-09
4.17875e-09
4.16694e-09
4.15584e-09
4.14391e-09
4.13266e-09
4.1208e-09
4.10947e-09
4.09791e-09
4.08657e-09
4.0754e-09
4.06419e-09
4.05338e-09
4.04246e-09
4.03208e-09
4.02157e-09
4.01168e-09
4.00168e-09
3.99233e-09
3.98288e-09
3.9741e-09
3.96524e-09
3.95708e-09
3.94882e-09
3.9413e-09
3.93368e-09
3.92682e-09
3.91985e-09
3.91367e-09
3.90736e-09
3.90187e-09
3.89624e-09
3.89143e-09
3.88647e-09
3.88234e-09
3.87806e-09
3.87459e-09
3.87099e-09
3.86817e-09
3.86524e-09
3.86305e-09
3.86079e-09
3.85919e-09
3.8576e-09
3.85657e-09
3.8556e-09
3.85517e-09
3.85478e-09
3.85488e-09
3.85506e-09
3.85572e-09
3.85648e-09
3.85761e-09
3.85891e-09
3.86054e-09
3.86234e-09
3.86442e-09
3.8667e-09
3.8692e-09
3.87192e-09
3.87486e-09
3.878e-09
3.88134e-09
3.88486e-09
3.88852e-09
3.89242e-09
3.89637e-09
3.90065e-09
3.90482e-09
3.90948e-09
3.91387e-09
3.91886e-09
3.92346e-09
3.92875e-09
3.93356e-09
3.93913e-09
3.94413e-09
3.94994e-09
3.95513e-09
3.96115e-09
3.96652e-09
3.97271e-09
3.97823e-09
3.98457e-09
3.99022e-09
3.99669e-09
4.00245e-09
4.00903e-09
4.01489e-09
4.02156e-09
4.02751e-09
4.03424e-09
4.04026e-09
4.04705e-09
4.05312e-09
4.05994e-09
4.06605e-09
4.07289e-09
4.07903e-09
4.08588e-09
4.09204e-09
4.09888e-09
4.10504e-09
4.11186e-09
4.11803e-09
4.12482e-09
4.13098e-09
4.13771e-09
4.14387e-09
4.15053e-09
4.15669e-09
4.16327e-09
4.16941e-09
4.1759e-09
4.18202e-09
4.18842e-09
4.19451e-09
4.20081e-09
4.20687e-09
4.21306e-09
4.21909e-09
4.22516e-09
4.23115e-09
4.23711e-09
4.24303e-09
4.24891e-09
4.25475e-09
4.26054e-09
4.26629e-09
4.272e-09
4.27766e-09
4.28327e-09
4.28883e-09
4.29435e-09
4.29983e-09
4.30525e-09
4.31063e-09
4.31596e-09
4.32124e-09
4.32647e-09
4.33166e-09
4.3368e-09
4.34188e-09
4.34692e-09
4.35191e-09
4.35685e-09
4.36175e-09
4.36659e-09
4.37139e-09
4.37614e-09
4.38084e-09
4.38549e-09
4.3901e-09
4.39466e-09
4.39917e-09
4.40363e-09
4.40805e-09
4.41242e-09
4.41674e-09
4.42102e-09
4.42526e-09
4.42945e-09
4.43359e-09
4.43769e-09
4.44174e-09
4.44576e-09
4.44973e-09
4.45365e-09
4.45753e-09
4.46138e-09
4.46518e-09
4.46893e-09
4.47265e-09
4.47633e-09
4.47997e-09
4.48356e-09
4.48712e-09
4.49064e-09
4.49412e-09
4.49756e-09
4.50097e-09
4.50433e-09
4.50767e-09
4.51096e-09
4.51422e-09
4.51744e-09
4.52063e-09
4.52378e-09
4.5269e-09
4.52998e-09
4.53303e-09
4.53605e-09
4.53904e-09
4.54199e-09
4.54491e-09
4.5478e-09
4.55065e-09
4.55348e-09
4.55628e-09
4.55904e-09
4.56178e-09
4.56448e-09
4.56716e-09
4.56981e-09
4.57243e-09
4.57502e-09
4.57758e-09
4.58012e-09
4.58263e-09
4.58511e-09
4.58756e-09
4.58999e-09
4.59239e-09
4.59477e-09
4.59712e-09
4.59945e-09
4.60175e-09
4.60402e-09
4.60628e-09
4.6085e-09
4.61071e-09
4.61289e-09
4.61505e-09
4.61718e-09
4.61929e-09
4.62138e-09
4.62345e-09
4.62549e-09
4.62751e-09
4.62951e-09
4.63149e-09
4.63345e-09
4.63538e-09
4.6373e-09
4.63919e-09
4.64106e-09
4.64292e-09
4.64475e-09
4.64656e-09
4.64835e-09
4.65013e-09
4.65188e-09
4.65361e-09
4.65533e-09
4.65702e-09
4.6587e-09
4.66035e-09
4.66199e-09
4.66361e-09
4.66521e-09
4.66679e-09
4.66836e-09
4.6699e-09
4.67143e-09
4.67292e-09
4.67443e-09
4.67587e-09
4.67737e-09
4.67873e-09
4.68024e-09
4.6815e-09
4.68305e-09
4.68416e-09
4.68582e-09
4.68671e-09
4.68859e-09
4.68913e-09
4.69155e-09
4.69138e-09
7.76282e-12
3.08268e-11
8.36317e-11
1.54051e-10
2.40635e-10
3.38592e-10
4.46048e-10
5.59021e-10
6.7552e-10
7.93862e-10
9.12356e-10
1.03112e-09
1.14899e-09
1.2661e-09
1.38221e-09
1.49733e-09
1.61143e-09
1.72447e-09
1.83629e-09
1.94692e-09
2.05654e-09
2.16504e-09
2.27248e-09
2.3788e-09
2.48398e-09
2.588e-09
2.69088e-09
2.79261e-09
2.89324e-09
2.99277e-09
3.09125e-09
3.18865e-09
3.28501e-09
3.38032e-09
3.47485e-09
3.56855e-09
3.66058e-09
3.75183e-09
3.84207e-09
3.93133e-09
4.01957e-09
4.10686e-09
4.19318e-09
4.27866e-09
4.36333e-09
4.44722e-09
4.53034e-09
4.6127e-09
4.69431e-09
4.77518e-09
4.85533e-09
4.93477e-09
5.01353e-09
5.09158e-09
5.16903e-09
5.24564e-09
5.32187e-09
5.39724e-09
5.47282e-09
5.54713e-09
5.62076e-09
5.69422e-09
5.76688e-09
5.83906e-09
5.91057e-09
5.98148e-09
6.05179e-09
6.12149e-09
6.19061e-09
6.25914e-09
6.3271e-09
6.39447e-09
6.46125e-09
6.52742e-09
6.59299e-09
6.65792e-09
6.72222e-09
6.78583e-09
6.84879e-09
6.91099e-09
6.97252e-09
7.03319e-09
7.09314e-09
7.15211e-09
7.21029e-09
7.26752e-09
7.32415e-09
7.37933e-09
7.43337e-09
7.48568e-09
7.53722e-09
7.58732e-09
7.63643e-09
7.68371e-09
7.72927e-09
7.77241e-09
7.81459e-09
7.85405e-09
7.89208e-09
7.92685e-09
7.96001e-09
7.98957e-09
8.017e-09
8.0403e-09
8.06174e-09
8.07778e-09
8.09241e-09
8.10047e-09
8.1075e-09
8.10689e-09
8.1068e-09
8.09556e-09
8.08575e-09
8.0619e-09
8.03885e-09
8.00488e-09
7.96931e-09
7.92336e-09
7.87498e-09
7.81526e-09
7.75304e-09
7.67843e-09
7.60158e-09
7.51128e-09
7.41921e-09
7.31237e-09
7.20444e-09
7.08023e-09
6.95503e-09
6.81263e-09
6.66407e-09
6.50609e-09
6.33193e-09
6.15461e-09
5.96748e-09
5.78684e-09
5.60749e-09
5.40073e-09
5.1965e-09
4.97148e-09
4.74971e-09
4.51068e-09
4.27432e-09
4.02212e-09
3.77352e-09
3.50771e-09
3.25266e-09
2.99399e-09
2.74622e-09
2.49965e-09
2.26578e-09
2.07738e-09
1.88165e-09
1.67236e-09
1.45527e-09
1.23523e-09
1.02208e-09
8.19079e-10
7.68431e-10
8.10735e-10
9.56692e-10
1.20659e-09
1.46657e-09
1.75638e-09
2.02328e-09
2.31149e-09
2.57453e-09
2.85613e-09
3.11224e-09
3.38406e-09
3.63155e-09
3.89167e-09
4.12935e-09
4.37627e-09
4.60315e-09
4.83585e-09
5.05116e-09
5.26873e-09
5.47175e-09
5.67398e-09
5.86372e-09
6.05085e-09
6.22661e-09
6.39868e-09
6.56024e-09
6.71734e-09
6.8647e-09
7.00709e-09
7.14043e-09
7.26846e-09
7.3881e-09
7.50223e-09
7.60863e-09
7.70943e-09
7.80314e-09
7.89127e-09
7.97291e-09
8.04907e-09
8.11932e-09
8.18426e-09
8.24386e-09
8.29832e-09
8.3479e-09
8.39272e-09
8.433e-09
8.46894e-09
8.50065e-09
8.52843e-09
8.55237e-09
8.57274e-09
8.58965e-09
8.60327e-09
8.61383e-09
8.62149e-09
8.62645e-09
8.62889e-09
8.62875e-09
8.62595e-09
8.6213e-09
8.61454e-09
8.60626e-09
8.59608e-09
8.58469e-09
8.57153e-09
8.55749e-09
8.54185e-09
8.52564e-09
8.50798e-09
8.49007e-09
8.47079e-09
8.45154e-09
8.43107e-09
8.41084e-09
8.38951e-09
8.3686e-09
8.34675e-09
8.3254e-09
8.30337e-09
8.28177e-09
8.25991e-09
8.23823e-09
8.21678e-09
8.19526e-09
8.17429e-09
8.15318e-09
8.13284e-09
8.11237e-09
8.09277e-09
8.07307e-09
8.05429e-09
8.03549e-09
8.01764e-09
7.99981e-09
7.98298e-09
7.96619e-09
7.95045e-09
7.93475e-09
7.92016e-09
7.9056e-09
7.89218e-09
7.8788e-09
7.86659e-09
7.8544e-09
7.84341e-09
7.83244e-09
7.82265e-09
7.81291e-09
7.80433e-09
7.79581e-09
7.78843e-09
7.78112e-09
7.7749e-09
7.76879e-09
7.76372e-09
7.75878e-09
7.75483e-09
7.75102e-09
7.74818e-09
7.74547e-09
7.74365e-09
7.74202e-09
7.74123e-09
7.74065e-09
7.7408e-09
7.7412e-09
7.74227e-09
7.74368e-09
7.74561e-09
7.7479e-09
7.75065e-09
7.75381e-09
7.75739e-09
7.76136e-09
7.7657e-09
7.77039e-09
7.77543e-09
7.78081e-09
7.78648e-09
7.79256e-09
7.79875e-09
7.80549e-09
7.81219e-09
7.81953e-09
7.82671e-09
7.83463e-09
7.84227e-09
7.85071e-09
7.85878e-09
7.8677e-09
7.87617e-09
7.8855e-09
7.89433e-09
7.90403e-09
7.91319e-09
7.92321e-09
7.93266e-09
7.94296e-09
7.95267e-09
7.96321e-09
7.97315e-09
7.9839e-09
7.99403e-09
8.00496e-09
8.01526e-09
8.02633e-09
8.03677e-09
8.04795e-09
8.0585e-09
8.06977e-09
8.08041e-09
8.09174e-09
8.10244e-09
8.1138e-09
8.12454e-09
8.13593e-09
8.14669e-09
8.15807e-09
8.16884e-09
8.18018e-09
8.19094e-09
8.20223e-09
8.21298e-09
8.22418e-09
8.23492e-09
8.24601e-09
8.25672e-09
8.2677e-09
8.27836e-09
8.28921e-09
8.29982e-09
8.31052e-09
8.32107e-09
8.33162e-09
8.34208e-09
8.3525e-09
8.36285e-09
8.37314e-09
8.38335e-09
8.39351e-09
8.40359e-09
8.4136e-09
8.42354e-09
8.4334e-09
8.44319e-09
8.45291e-09
8.46255e-09
8.47211e-09
8.4816e-09
8.491e-09
8.50033e-09
8.50958e-09
8.51874e-09
8.52783e-09
8.53684e-09
8.54576e-09
8.5546e-09
8.56336e-09
8.57204e-09
8.58064e-09
8.58916e-09
8.59759e-09
8.60595e-09
8.61422e-09
8.62241e-09
8.63052e-09
8.63855e-09
8.6465e-09
8.65437e-09
8.66216e-09
8.66987e-09
8.67751e-09
8.68506e-09
8.69254e-09
8.69993e-09
8.70726e-09
8.7145e-09
8.72167e-09
8.72877e-09
8.73579e-09
8.74273e-09
8.74961e-09
8.75641e-09
8.76313e-09
8.76979e-09
8.77637e-09
8.78289e-09
8.78933e-09
8.79571e-09
8.80202e-09
8.80826e-09
8.81443e-09
8.82054e-09
8.82658e-09
8.83256e-09
8.83847e-09
8.84432e-09
8.8501e-09
8.85583e-09
8.86149e-09
8.86709e-09
8.87263e-09
8.87811e-09
8.88353e-09
8.8889e-09
8.8942e-09
8.89945e-09
8.90464e-09
8.90978e-09
8.91486e-09
8.91989e-09
8.92486e-09
8.92978e-09
8.93465e-09
8.93947e-09
8.94423e-09
8.94894e-09
8.95361e-09
8.95822e-09
8.96278e-09
8.9673e-09
8.97177e-09
8.97619e-09
8.98056e-09
8.98488e-09
8.98916e-09
8.9934e-09
8.99759e-09
9.00173e-09
9.00583e-09
9.00989e-09
9.0139e-09
9.01787e-09
9.0218e-09
9.02569e-09
9.02953e-09
9.03333e-09
9.0371e-09
9.04082e-09
9.0445e-09
9.04815e-09
9.05175e-09
9.05532e-09
9.05884e-09
9.06233e-09
9.06578e-09
9.0692e-09
9.07257e-09
9.07591e-09
9.07922e-09
9.08249e-09
9.08572e-09
9.08891e-09
9.09207e-09
9.0952e-09
9.09829e-09
9.10135e-09
9.10437e-09
9.10736e-09
9.11031e-09
9.11323e-09
9.11612e-09
9.11897e-09
9.1218e-09
9.12457e-09
9.12734e-09
9.13004e-09
9.13275e-09
9.13537e-09
9.13804e-09
9.14056e-09
9.14321e-09
9.14559e-09
9.14826e-09
9.15046e-09
9.1532e-09
9.15514e-09
9.15806e-09
9.15961e-09
9.16284e-09
9.1637e-09
2.7283e-11
8.52205e-11
1.73189e-10
2.86895e-10
4.17182e-10
5.59822e-10
7.12759e-10
8.72293e-10
1.03615e-09
1.2024e-09
1.36961e-09
1.53685e-09
1.70291e-09
1.86754e-09
2.03054e-09
2.19182e-09
2.35129e-09
2.50875e-09
2.66397e-09
2.81702e-09
2.96822e-09
3.11748e-09
3.26481e-09
3.41018e-09
3.55355e-09
3.69493e-09
3.83435e-09
3.97183e-09
4.10747e-09
4.24126e-09
4.37334e-09
4.50364e-09
4.63242e-09
4.75982e-09
4.88605e-09
5.00976e-09
5.13237e-09
5.2535e-09
5.37321e-09
5.49148e-09
5.60828e-09
5.72365e-09
5.83751e-09
5.94999e-09
6.06103e-09
6.17071e-09
6.27904e-09
6.38607e-09
6.49182e-09
6.59635e-09
6.69969e-09
6.80187e-09
6.90295e-09
7.00294e-09
7.10199e-09
7.19992e-09
7.29718e-09
7.39324e-09
7.48876e-09
7.58201e-09
7.67286e-09
7.76304e-09
7.85152e-09
7.93952e-09
8.02642e-09
8.11256e-09
8.19775e-09
8.28192e-09
8.36507e-09
8.44712e-09
8.52809e-09
8.6079e-09
8.68659e-09
8.76405e-09
8.84033e-09
8.91531e-09
8.98905e-09
9.06143e-09
9.13248e-09
9.20205e-09
9.27028e-09
9.33689e-09
9.4021e-09
9.46555e-09
9.52749e-09
9.58749e-09
9.64566e-09
9.70181e-09
9.75639e-09
9.80829e-09
9.8583e-09
9.90512e-09
9.95026e-09
9.99182e-09
1.00312e-08
1.00664e-08
1.00992e-08
1.01272e-08
1.01531e-08
1.01735e-08
1.01916e-08
1.02036e-08
1.02126e-08
1.02144e-08
1.02143e-08
1.02051e-08
1.01943e-08
1.01731e-08
1.01501e-08
1.0115e-08
1.00757e-08
1.00289e-08
9.96218e-09
9.90189e-09
9.84732e-09
9.76914e-09
9.69106e-09
9.59418e-09
9.49638e-09
9.38161e-09
9.26464e-09
9.13105e-09
8.99468e-09
8.84148e-09
8.68574e-09
8.51186e-09
8.33681e-09
8.14164e-09
7.94714e-09
7.73613e-09
7.5389e-09
7.33241e-09
7.1064e-09
6.86972e-09
6.62883e-09
6.39576e-09
6.19521e-09
5.97933e-09
5.74376e-09
5.49377e-09
5.23063e-09
4.95883e-09
4.67839e-09
4.39202e-09
4.10115e-09
3.80865e-09
3.51663e-09
3.22829e-09
2.93686e-09
2.63942e-09
2.32267e-09
1.9675e-09
1.61485e-09
1.34142e-09
1.21869e-09
1.30007e-09
1.47484e-09
1.76374e-09
2.07861e-09
2.44587e-09
2.79832e-09
3.17839e-09
3.53468e-09
3.9128e-09
4.26462e-09
4.63605e-09
4.98061e-09
5.34182e-09
5.6765e-09
6.02453e-09
6.34772e-09
6.68085e-09
6.99125e-09
7.30793e-09
7.60454e-09
7.90357e-09
8.18535e-09
8.46604e-09
8.73172e-09
8.994e-09
9.24249e-09
9.48629e-09
9.71707e-09
9.94222e-09
1.01551e-08
1.03616e-08
1.05565e-08
1.07446e-08
1.09218e-08
1.10918e-08
1.12515e-08
1.1404e-08
1.15468e-08
1.16824e-08
1.18089e-08
1.19283e-08
1.20393e-08
1.21432e-08
1.22394e-08
1.23288e-08
1.24111e-08
1.24868e-08
1.2556e-08
1.26189e-08
1.26758e-08
1.27269e-08
1.27724e-08
1.28126e-08
1.28476e-08
1.28778e-08
1.29032e-08
1.29242e-08
1.29409e-08
1.29537e-08
1.29626e-08
1.2968e-08
1.29701e-08
1.29685e-08
1.29639e-08
1.29565e-08
1.29468e-08
1.29346e-08
1.29203e-08
1.29037e-08
1.28855e-08
1.28653e-08
1.28438e-08
1.28205e-08
1.27963e-08
1.27706e-08
1.27442e-08
1.27165e-08
1.26884e-08
1.26592e-08
1.26299e-08
1.25996e-08
1.25694e-08
1.25386e-08
1.25079e-08
1.24768e-08
1.24458e-08
1.2415e-08
1.2384e-08
1.23536e-08
1.2323e-08
1.22933e-08
1.22633e-08
1.22344e-08
1.22053e-08
1.21772e-08
1.21492e-08
1.21222e-08
1.20954e-08
1.20697e-08
1.20441e-08
1.20198e-08
1.19956e-08
1.19727e-08
1.19501e-08
1.19287e-08
1.19075e-08
1.18878e-08
1.18682e-08
1.185e-08
1.1832e-08
1.18155e-08
1.17992e-08
1.17842e-08
1.17695e-08
1.17562e-08
1.17432e-08
1.17315e-08
1.172e-08
1.17099e-08
1.17001e-08
1.16915e-08
1.16832e-08
1.16762e-08
1.16694e-08
1.16639e-08
1.16586e-08
1.16545e-08
1.16506e-08
1.16479e-08
1.16454e-08
1.1644e-08
1.16429e-08
1.16427e-08
1.16429e-08
1.16439e-08
1.16454e-08
1.16475e-08
1.16501e-08
1.16533e-08
1.1657e-08
1.16612e-08
1.16659e-08
1.16711e-08
1.16768e-08
1.16828e-08
1.16895e-08
1.16963e-08
1.17038e-08
1.17113e-08
1.17196e-08
1.1728e-08
1.1737e-08
1.1746e-08
1.17558e-08
1.17654e-08
1.17758e-08
1.17859e-08
1.17969e-08
1.18075e-08
1.1819e-08
1.18302e-08
1.18421e-08
1.18536e-08
1.1866e-08
1.18779e-08
1.18906e-08
1.19028e-08
1.19158e-08
1.19284e-08
1.19416e-08
1.19545e-08
1.19679e-08
1.1981e-08
1.19946e-08
1.20078e-08
1.20216e-08
1.2035e-08
1.20489e-08
1.20623e-08
1.20764e-08
1.20899e-08
1.2104e-08
1.21175e-08
1.21316e-08
1.21452e-08
1.21593e-08
1.2173e-08
1.2187e-08
1.22006e-08
1.22146e-08
1.22282e-08
1.22421e-08
1.22557e-08
1.22695e-08
1.2283e-08
1.22966e-08
1.23101e-08
1.23236e-08
1.2337e-08
1.23503e-08
1.23636e-08
1.23768e-08
1.23899e-08
1.2403e-08
1.2416e-08
1.24289e-08
1.24417e-08
1.24545e-08
1.24671e-08
1.24797e-08
1.24922e-08
1.25045e-08
1.25168e-08
1.25291e-08
1.25412e-08
1.25532e-08
1.25651e-08
1.25769e-08
1.25887e-08
1.26003e-08
1.26118e-08
1.26233e-08
1.26346e-08
1.26458e-08
1.2657e-08
1.2668e-08
1.26789e-08
1.26898e-08
1.27005e-08
1.27111e-08
1.27216e-08
1.27321e-08
1.27424e-08
1.27526e-08
1.27628e-08
1.27728e-08
1.27827e-08
1.27926e-08
1.28023e-08
1.28119e-08
1.28215e-08
1.28309e-08
1.28403e-08
1.28495e-08
1.28587e-08
1.28677e-08
1.28767e-08
1.28856e-08
1.28944e-08
1.29031e-08
1.29117e-08
1.29202e-08
1.29286e-08
1.2937e-08
1.29452e-08
1.29534e-08
1.29615e-08
1.29695e-08
1.29774e-08
1.29852e-08
1.29929e-08
1.30006e-08
1.30082e-08
1.30157e-08
1.30231e-08
1.30305e-08
1.30377e-08
1.30449e-08
1.3052e-08
1.30591e-08
1.3066e-08
1.30729e-08
1.30797e-08
1.30865e-08
1.30932e-08
1.30998e-08
1.31063e-08
1.31128e-08
1.31191e-08
1.31255e-08
1.31317e-08
1.31379e-08
1.31441e-08
1.31501e-08
1.31561e-08
1.31621e-08
1.31679e-08
1.31737e-08
1.31795e-08
1.31852e-08
1.31908e-08
1.31964e-08
1.32019e-08
1.32073e-08
1.32127e-08
1.32181e-08
1.32233e-08
1.32286e-08
1.32337e-08
1.32389e-08
1.32439e-08
1.32489e-08
1.32539e-08
1.32588e-08
1.32636e-08
1.32684e-08
1.32732e-08
1.32779e-08
1.32825e-08
1.32871e-08
1.32916e-08
1.32961e-08
1.33006e-08
1.3305e-08
1.33093e-08
1.33136e-08
1.33179e-08
1.33221e-08
1.33262e-08
1.33304e-08
1.33344e-08
1.33385e-08
1.33424e-08
1.33464e-08
1.33503e-08
1.33541e-08
1.33579e-08
1.33617e-08
1.33654e-08
1.33691e-08
1.33727e-08
1.33763e-08
1.33798e-08
1.33833e-08
1.33867e-08
1.33902e-08
1.33934e-08
1.33969e-08
1.33999e-08
1.34034e-08
1.34062e-08
1.34098e-08
1.34123e-08
1.3416e-08
1.34179e-08
6.56576e-11
1.67762e-10
2.94736e-10
4.54728e-10
6.28208e-10
8.12436e-10
1.00562e-09
1.20535e-09
1.40912e-09
1.61566e-09
1.82296e-09
2.02978e-09
2.23504e-09
2.43816e-09
2.63874e-09
2.83652e-09
3.03126e-09
3.22265e-09
3.41077e-09
3.59595e-09
3.77868e-09
3.95839e-09
4.1356e-09
4.31001e-09
4.48166e-09
4.65059e-09
4.81684e-09
4.98046e-09
5.14153e-09
5.30011e-09
5.45635e-09
5.61022e-09
5.76189e-09
5.91136e-09
6.05862e-09
6.20356e-09
6.34545e-09
6.48524e-09
6.62283e-09
6.75821e-09
6.89131e-09
7.02233e-09
7.15124e-09
7.27834e-09
7.40353e-09
7.52703e-09
7.64874e-09
7.76868e-09
7.88684e-09
8.00323e-09
8.11788e-09
8.2308e-09
8.34196e-09
8.45141e-09
8.559e-09
8.6651e-09
8.76915e-09
8.87178e-09
8.97256e-09
9.07168e-09
9.17006e-09
9.26646e-09
9.36213e-09
9.45509e-09
9.54646e-09
9.63594e-09
9.7237e-09
9.80966e-09
9.89388e-09
9.97627e-09
1.00569e-08
1.01356e-08
1.02125e-08
1.02873e-08
1.03603e-08
1.04312e-08
1.05e-08
1.05666e-08
1.06311e-08
1.0693e-08
1.0753e-08
1.08101e-08
1.08652e-08
1.09173e-08
1.09673e-08
1.10139e-08
1.10581e-08
1.10984e-08
1.11357e-08
1.11681e-08
1.11985e-08
1.12246e-08
1.12479e-08
1.12663e-08
1.12821e-08
1.12911e-08
1.12976e-08
1.12958e-08
1.12927e-08
1.12805e-08
1.12665e-08
1.12425e-08
1.12164e-08
1.11788e-08
1.11404e-08
1.10888e-08
1.10364e-08
1.09696e-08
1.09026e-08
1.08189e-08
1.07383e-08
1.06638e-08
1.05658e-08
1.0464e-08
1.03905e-08
1.03083e-08
1.02108e-08
1.01006e-08
9.97773e-09
9.84428e-09
9.69953e-09
9.5444e-09
9.37851e-09
9.20225e-09
9.01604e-09
8.81912e-09
8.61332e-09
8.39714e-09
8.17394e-09
7.94227e-09
7.70715e-09
7.46543e-09
7.21594e-09
6.96631e-09
6.69704e-09
6.38789e-09
6.04318e-09
5.69487e-09
5.39954e-09
5.08919e-09
4.78163e-09
4.45753e-09
4.13641e-09
3.80052e-09
3.47163e-09
3.12799e-09
2.80184e-09
2.4607e-09
2.1433e-09
1.8298e-09
1.77532e-09
1.98119e-09
2.26395e-09
2.63254e-09
3.01967e-09
3.44718e-09
3.86182e-09
4.30362e-09
4.72379e-09
5.17479e-09
5.59557e-09
6.03908e-09
6.45417e-09
6.88922e-09
7.29603e-09
7.71946e-09
8.1163e-09
8.52709e-09
8.91196e-09
9.3073e-09
9.67838e-09
1.00564e-08
1.04126e-08
1.07718e-08
1.11121e-08
1.14516e-08
1.17745e-08
1.20941e-08
1.23983e-08
1.26976e-08
1.29824e-08
1.32611e-08
1.3526e-08
1.37841e-08
1.40289e-08
1.42663e-08
1.4491e-08
1.47079e-08
1.49128e-08
1.51095e-08
1.52948e-08
1.54719e-08
1.56383e-08
1.57963e-08
1.59443e-08
1.60842e-08
1.62146e-08
1.6337e-08
1.64506e-08
1.65565e-08
1.66542e-08
1.67444e-08
1.6827e-08
1.69025e-08
1.6971e-08
1.70327e-08
1.7088e-08
1.71369e-08
1.71799e-08
1.7217e-08
1.72486e-08
1.72748e-08
1.72961e-08
1.73125e-08
1.73244e-08
1.7332e-08
1.73356e-08
1.73349e-08
1.73304e-08
1.73224e-08
1.73115e-08
1.72975e-08
1.72808e-08
1.72614e-08
1.72398e-08
1.72158e-08
1.71899e-08
1.71619e-08
1.71325e-08
1.71012e-08
1.70688e-08
1.70348e-08
1.7e-08
1.69639e-08
1.69273e-08
1.68896e-08
1.68517e-08
1.6813e-08
1.67741e-08
1.67348e-08
1.66954e-08
1.66559e-08
1.66163e-08
1.65771e-08
1.65377e-08
1.64991e-08
1.64601e-08
1.64222e-08
1.63841e-08
1.63471e-08
1.631e-08
1.62741e-08
1.62384e-08
1.62038e-08
1.61694e-08
1.61364e-08
1.61036e-08
1.60721e-08
1.6041e-08
1.60113e-08
1.59819e-08
1.5954e-08
1.59264e-08
1.59004e-08
1.58747e-08
1.58505e-08
1.58268e-08
1.58046e-08
1.57827e-08
1.57625e-08
1.57426e-08
1.57243e-08
1.57063e-08
1.56899e-08
1.56739e-08
1.56594e-08
1.56453e-08
1.56326e-08
1.56203e-08
1.56095e-08
1.55991e-08
1.559e-08
1.55813e-08
1.5574e-08
1.5567e-08
1.55614e-08
1.5556e-08
1.5552e-08
1.55483e-08
1.55457e-08
1.55436e-08
1.55424e-08
1.55418e-08
1.5542e-08
1.55427e-08
1.55442e-08
1.55464e-08
1.55491e-08
1.55524e-08
1.55563e-08
1.55608e-08
1.55657e-08
1.55714e-08
1.55773e-08
1.55841e-08
1.5591e-08
1.55987e-08
1.56065e-08
1.56151e-08
1.56238e-08
1.56332e-08
1.56427e-08
1.56529e-08
1.5663e-08
1.56739e-08
1.56847e-08
1.56963e-08
1.57077e-08
1.57198e-08
1.57317e-08
1.57443e-08
1.57568e-08
1.57699e-08
1.57827e-08
1.57962e-08
1.58094e-08
1.58233e-08
1.58369e-08
1.5851e-08
1.58649e-08
1.58793e-08
1.58934e-08
1.5908e-08
1.59224e-08
1.59372e-08
1.59517e-08
1.59666e-08
1.59812e-08
1.59963e-08
1.6011e-08
1.60262e-08
1.60409e-08
1.60561e-08
1.6071e-08
1.60862e-08
1.6101e-08
1.61162e-08
1.6131e-08
1.61461e-08
1.6161e-08
1.6176e-08
1.61908e-08
1.62057e-08
1.62204e-08
1.62352e-08
1.62499e-08
1.62646e-08
1.62792e-08
1.62937e-08
1.63081e-08
1.63225e-08
1.63368e-08
1.63511e-08
1.63652e-08
1.63793e-08
1.63933e-08
1.64072e-08
1.6421e-08
1.64347e-08
1.64483e-08
1.64619e-08
1.64753e-08
1.64886e-08
1.65019e-08
1.6515e-08
1.6528e-08
1.6541e-08
1.65538e-08
1.65665e-08
1.65792e-08
1.65917e-08
1.66041e-08
1.66164e-08
1.66286e-08
1.66407e-08
1.66527e-08
1.66645e-08
1.66763e-08
1.6688e-08
1.66995e-08
1.6711e-08
1.67223e-08
1.67335e-08
1.67446e-08
1.67557e-08
1.67666e-08
1.67774e-08
1.67881e-08
1.67987e-08
1.68092e-08
1.68196e-08
1.68299e-08
1.684e-08
1.68501e-08
1.68601e-08
1.687e-08
1.68798e-08
1.68894e-08
1.6899e-08
1.69085e-08
1.69179e-08
1.69272e-08
1.69364e-08
1.69455e-08
1.69545e-08
1.69634e-08
1.69722e-08
1.6981e-08
1.69896e-08
1.69982e-08
1.70066e-08
1.7015e-08
1.70233e-08
1.70315e-08
1.70396e-08
1.70477e-08
1.70556e-08
1.70635e-08
1.70713e-08
1.7079e-08
1.70866e-08
1.70941e-08
1.71016e-08
1.7109e-08
1.71163e-08
1.71235e-08
1.71307e-08
1.71378e-08
1.71448e-08
1.71517e-08
1.71586e-08
1.71654e-08
1.71721e-08
1.71787e-08
1.71853e-08
1.71918e-08
1.71983e-08
1.72046e-08
1.72109e-08
1.72172e-08
1.72234e-08
1.72295e-08
1.72355e-08
1.72415e-08
1.72474e-08
1.72533e-08
1.72591e-08
1.72648e-08
1.72705e-08
1.72761e-08
1.72816e-08
1.72871e-08
1.72926e-08
1.72979e-08
1.73033e-08
1.73085e-08
1.73137e-08
1.73189e-08
1.7324e-08
1.7329e-08
1.7334e-08
1.73389e-08
1.73438e-08
1.73486e-08
1.73534e-08
1.73581e-08
1.73628e-08
1.73674e-08
1.73719e-08
1.73764e-08
1.73809e-08
1.73853e-08
1.73897e-08
1.73939e-08
1.73982e-08
1.74024e-08
1.74066e-08
1.74106e-08
1.74147e-08
1.74187e-08
1.74227e-08
1.74265e-08
1.74305e-08
1.74341e-08
1.7438e-08
1.74414e-08
1.74454e-08
1.74484e-08
1.74524e-08
1.74551e-08
1.24392e-10
2.80383e-10
4.55639e-10
6.5717e-10
8.71965e-10
1.09337e-09
1.32067e-09
1.55303e-09
1.78851e-09
2.02657e-09
2.2642e-09
2.50051e-09
2.73448e-09
2.96544e-09
3.19283e-09
3.41643e-09
3.63617e-09
3.85192e-09
4.06395e-09
4.27217e-09
4.47574e-09
4.67563e-09
4.87168e-09
5.06396e-09
5.25239e-09
5.4371e-09
5.61812e-09
5.79576e-09
5.96985e-09
6.14099e-09
6.30875e-09
6.47368e-09
6.63528e-09
6.79423e-09
6.95008e-09
7.1034e-09
7.25326e-09
7.40094e-09
7.54578e-09
7.68802e-09
7.82764e-09
7.96479e-09
8.09935e-09
8.23149e-09
8.36097e-09
8.48787e-09
8.61225e-09
8.73417e-09
8.85369e-09
8.97082e-09
9.0856e-09
9.19806e-09
9.30819e-09
9.41612e-09
9.52171e-09
9.62559e-09
9.72727e-09
9.82779e-09
9.92768e-09
1.00231e-08
1.01129e-08
1.01993e-08
1.02845e-08
1.03679e-08
1.04496e-08
1.05292e-08
1.06066e-08
1.06816e-08
1.07542e-08
1.08241e-08
1.08916e-08
1.09564e-08
1.10185e-08
1.10778e-08
1.11344e-08
1.11878e-08
1.12385e-08
1.12859e-08
1.13303e-08
1.13711e-08
1.1409e-08
1.1443e-08
1.14739e-08
1.15009e-08
1.15247e-08
1.15443e-08
1.15614e-08
1.15789e-08
1.15982e-08
1.16134e-08
1.1626e-08
1.16349e-08
1.16397e-08
1.16403e-08
1.16403e-08
1.16351e-08
1.16249e-08
1.16089e-08
1.15874e-08
1.15601e-08
1.15266e-08
1.14864e-08
1.14397e-08
1.13858e-08
1.13251e-08
1.1257e-08
1.11821e-08
1.10994e-08
1.10111e-08
1.09148e-08
1.08149e-08
1.07091e-08
1.06015e-08
1.04838e-08
1.03248e-08
1.0162e-08
1.0021e-08
9.86519e-09
9.70414e-09
9.52782e-09
9.34621e-09
9.14843e-09
8.94573e-09
8.72605e-09
8.5024e-09
8.26022e-09
8.01615e-09
7.75139e-09
7.48787e-09
7.20211e-09
6.92127e-09
6.61758e-09
6.31485e-09
6.00137e-09
5.67345e-09
5.31715e-09
4.95788e-09
4.5958e-09
4.23343e-09
3.86434e-09
3.49825e-09
3.12917e-09
2.77281e-09
2.43098e-09
2.31851e-09
2.51086e-09
2.78157e-09
3.14676e-09
3.54468e-09
3.99342e-09
4.44052e-09
4.92491e-09
5.38728e-09
5.87995e-09
6.35067e-09
6.84767e-09
7.3182e-09
7.81199e-09
8.27797e-09
8.76568e-09
9.2253e-09
9.70091e-09
1.0151e-08
1.06167e-08
1.10566e-08
1.151e-08
1.19372e-08
1.23751e-08
1.27878e-08
1.32079e-08
1.36047e-08
1.40054e-08
1.43855e-08
1.47657e-08
1.5128e-08
1.54872e-08
1.583e-08
1.61681e-08
1.64906e-08
1.68073e-08
1.71089e-08
1.74038e-08
1.76843e-08
1.79573e-08
1.82166e-08
1.84677e-08
1.87059e-08
1.89355e-08
1.91527e-08
1.93613e-08
1.9558e-08
1.97459e-08
1.99228e-08
2.00907e-08
2.02483e-08
2.03971e-08
2.05361e-08
2.06667e-08
2.0788e-08
2.09011e-08
2.10055e-08
2.1102e-08
2.11905e-08
2.12713e-08
2.13446e-08
2.14107e-08
2.14698e-08
2.1522e-08
2.15677e-08
2.16072e-08
2.16407e-08
2.16685e-08
2.16908e-08
2.17079e-08
2.172e-08
2.17274e-08
2.17303e-08
2.17285e-08
2.17225e-08
2.17126e-08
2.16993e-08
2.16825e-08
2.16627e-08
2.16398e-08
2.16143e-08
2.15861e-08
2.15556e-08
2.15228e-08
2.14881e-08
2.14514e-08
2.14132e-08
2.13732e-08
2.13321e-08
2.12895e-08
2.12461e-08
2.12015e-08
2.11563e-08
2.11102e-08
2.10638e-08
2.10167e-08
2.09695e-08
2.09219e-08
2.08742e-08
2.08267e-08
2.07789e-08
2.07317e-08
2.06843e-08
2.06377e-08
2.05909e-08
2.05452e-08
2.04994e-08
2.04548e-08
2.04102e-08
2.03669e-08
2.03238e-08
2.02821e-08
2.02406e-08
2.02005e-08
2.01607e-08
2.01225e-08
2.00846e-08
2.00483e-08
2.00124e-08
1.99781e-08
1.99442e-08
1.9912e-08
1.98802e-08
1.98501e-08
1.98205e-08
1.97925e-08
1.97651e-08
1.97393e-08
1.9714e-08
1.96903e-08
1.96672e-08
1.96457e-08
1.96247e-08
1.96054e-08
1.95865e-08
1.95692e-08
1.95524e-08
1.95372e-08
1.95224e-08
1.95092e-08
1.94964e-08
1.94851e-08
1.94742e-08
1.94647e-08
1.94557e-08
1.9448e-08
1.94408e-08
1.94348e-08
1.94294e-08
1.94249e-08
1.94212e-08
1.94183e-08
1.94161e-08
1.94147e-08
1.94141e-08
1.94141e-08
1.94148e-08
1.9416e-08
1.94182e-08
1.94208e-08
1.94242e-08
1.9428e-08
1.94325e-08
1.94374e-08
1.94431e-08
1.9449e-08
1.94557e-08
1.94626e-08
1.94703e-08
1.94781e-08
1.94866e-08
1.94953e-08
1.95046e-08
1.95141e-08
1.95242e-08
1.95343e-08
1.95451e-08
1.95558e-08
1.95672e-08
1.95786e-08
1.95905e-08
1.96024e-08
1.96149e-08
1.96272e-08
1.96401e-08
1.96528e-08
1.96661e-08
1.96793e-08
1.96929e-08
1.97063e-08
1.97203e-08
1.9734e-08
1.97482e-08
1.97621e-08
1.97765e-08
1.97906e-08
1.98052e-08
1.98195e-08
1.98342e-08
1.98486e-08
1.98634e-08
1.98779e-08
1.98928e-08
1.99073e-08
1.99222e-08
1.99368e-08
1.99517e-08
1.99663e-08
1.99812e-08
1.99958e-08
2.00106e-08
2.00252e-08
2.00399e-08
2.00544e-08
2.0069e-08
2.00835e-08
2.0098e-08
2.01124e-08
2.01268e-08
2.01411e-08
2.01554e-08
2.01695e-08
2.01836e-08
2.01977e-08
2.02116e-08
2.02255e-08
2.02393e-08
2.0253e-08
2.02666e-08
2.02801e-08
2.02936e-08
2.03069e-08
2.03202e-08
2.03334e-08
2.03464e-08
2.03594e-08
2.03723e-08
2.03851e-08
2.03978e-08
2.04103e-08
2.04228e-08
2.04352e-08
2.04475e-08
2.04596e-08
2.04717e-08
2.04837e-08
2.04955e-08
2.05073e-08
2.05189e-08
2.05305e-08
2.05419e-08
2.05533e-08
2.05645e-08
2.05756e-08
2.05867e-08
2.05976e-08
2.06084e-08
2.06191e-08
2.06298e-08
2.06403e-08
2.06507e-08
2.0661e-08
2.06712e-08
2.06813e-08
2.06914e-08
2.07013e-08
2.07111e-08
2.07208e-08
2.07304e-08
2.074e-08
2.07494e-08
2.07587e-08
2.0768e-08
2.07771e-08
2.07862e-08
2.07952e-08
2.08041e-08
2.08128e-08
2.08215e-08
2.08302e-08
2.08387e-08
2.08471e-08
2.08555e-08
2.08637e-08
2.08719e-08
2.088e-08
2.0888e-08
2.08959e-08
2.09038e-08
2.09116e-08
2.09193e-08
2.09269e-08
2.09344e-08
2.09418e-08
2.09492e-08
2.09565e-08
2.09637e-08
2.09709e-08
2.0978e-08
2.0985e-08
2.09919e-08
2.09988e-08
2.10056e-08
2.10123e-08
2.10189e-08
2.10255e-08