/*--------------------------------*- C++ -*----------------------------------*\
| =========                 |                                                 |
| \\      /  F ield         | OpenFOAM: The Open Source CFD Toolbox           |
|  \\    /   O peration     | Version:  2012                                  |
|   \\  /    A nd           | Website:  www.openfoam.com                      |
|    \\/     M anipulation  |                                                 |
\*---------------------------------------------------------------------------*/
FoamFile
{
    version     2.0;
    format      ascii;
    class       volVectorField;
    location    "3620";
    object      U;
}
// * * * * * * * * * * * * * * * * * * * * * * * * * * * * * * * * * * * * * //

dimensions      [0 1 -1 0 0 0 0];


internalField   nonuniform List<vector> 
20400
(
(3.52851e-06 -3.45286e-06 0)
(5.17764e-06 -1.16969e-06 0)
(-4.6739e-06 3.70705e-06 0)
(-2.50044e-05 6.36401e-06 0)
(-5.827e-05 7.81218e-06 0)
(-9.85079e-05 7.15757e-06 0)
(-0.000144672 6.39703e-06 0)
(-0.000193526 5.47936e-06 0)
(-0.000243165 4.71036e-06 0)
(-0.000293935 4.21477e-06 0)
(-0.000343451 4.268e-06 0)
(-0.00039336 4.19523e-06 0)
(-0.000442495 4.01935e-06 0)
(-0.000491437 3.6276e-06 0)
(-0.000540074 3.06348e-06 0)
(-0.000588522 2.27953e-06 0)
(-0.00063682 1.25039e-06 0)
(-0.000685003 3.53431e-08 0)
(-0.000733085 -1.32868e-06 0)
(-0.000780976 -2.51554e-06 0)
(-0.000828579 -3.74374e-06 0)
(-0.000875895 -4.96913e-06 0)
(-0.000922954 -6.10921e-06 0)
(-0.000969742 -7.09158e-06 0)
(-0.00101624 -7.84286e-06 0)
(-0.00106244 -8.29545e-06 0)
(-0.00110833 -8.39353e-06 0)
(-0.00115391 -8.08027e-06 0)
(-0.00119918 -7.32397e-06 0)
(-0.00124418 -6.08494e-06 0)
(-0.00128893 -4.35697e-06 0)
(-0.0013334 -2.10824e-06 0)
(-0.0013775 7.68201e-07 0)
(-0.00142086 5.34448e-06 0)
(-0.00146338 8.93179e-06 0)
(-0.00150563 1.13682e-05 0)
(-0.00154886 1.50879e-05 0)
(-0.00159089 1.87804e-05 0)
(-0.00163279 2.22607e-05 0)
(-0.00167414 2.53983e-05 0)
(-0.00171509 2.80744e-05 0)
(-0.00175569 3.02114e-05 0)
(-0.00179595 3.17957e-05 0)
(-0.00183596 3.28304e-05 0)
(-0.00187573 3.33671e-05 0)
(-0.0019153 3.34704e-05 0)
(-0.00195466 3.32081e-05 0)
(-0.00199382 3.26359e-05 0)
(-0.00203277 3.17896e-05 0)
(-0.0020715 3.06815e-05 0)
(-0.00211002 2.92984e-05 0)
(-0.00214832 2.76052e-05 0)
(-0.00218642 2.55336e-05 0)
(-0.00222432 2.30253e-05 0)
(-0.0022621 1.99538e-05 0)
(-0.00229966 1.6315e-05 0)
(-0.0023372 1.20296e-05 0)
(-0.00237437 7.67287e-06 0)
(-0.00241118 2.20512e-06 0)
(-0.00244835 -4.75526e-06 0)
(-0.00248588 -1.03833e-05 0)
(-0.00252349 -1.54131e-05 0)
(-0.00256084 -1.91569e-05 0)
(-0.00259815 -2.18734e-05 0)
(-0.00263528 -2.35828e-05 0)
(-0.00267224 -2.44823e-05 0)
(-0.002709 -2.47396e-05 0)
(-0.00274559 -2.45066e-05 0)
(-0.00278203 -2.39104e-05 0)
(-0.00281835 -2.30393e-05 0)
(-0.00285455 -2.19663e-05 0)
(-0.00289066 -2.07294e-05 0)
(-0.00292669 -1.93685e-05 0)
(-0.00296263 -1.7893e-05 0)
(-0.00299851 -1.63268e-05 0)
(-0.0030343 -1.46668e-05 0)
(-0.00307004 -1.2932e-05 0)
(-0.00310569 -1.11164e-05 0)
(-0.00314128 -9.24434e-06 0)
(-0.00317678 -7.30123e-06 0)
(-0.00321224 -5.32598e-06 0)
(-0.00324761 -3.29357e-06 0)
(-0.00328295 -1.25195e-06 0)
(-0.00331816 8.42592e-07 0)
(-0.00335318 3.04991e-06 0)
(-0.00338761 5.79816e-06 0)
(-0.0034215 7.10809e-06 0)
(-0.00345616 7.91982e-06 0)
(-0.00349049 8.2851e-06 0)
(-0.00352461 8.38111e-06 0)
(-0.00355847 7.81593e-06 0)
(-0.00359181 7.03048e-06 0)
(-0.00362463 5.55538e-06 0)
(-0.00365685 2.0686e-06 0)
(-0.00368979 -9.83092e-07 0)
(-0.00372173 -4.32691e-06 0)
(-0.00375386 -8.17409e-06 0)
(-0.003785 -1.20369e-05 0)
(-0.00381601 -1.64686e-05 0)
(-0.00384594 -2.06749e-05 0)
(-0.00387563 -2.56289e-05 0)
(-0.00390405 -3.00245e-05 0)
(-0.00393214 -3.52464e-05 0)
(-0.00395864 -3.92735e-05 0)
(-0.00398508 -4.40757e-05 0)
(-0.00400944 -4.7011e-05 0)
(-0.00403448 -5.0476e-05 0)
(-0.00405607 -5.00677e-05 0)
(-0.00408023 -5.07154e-05 0)
(-0.00409815 -4.43512e-05 0)
(-0.00412138 -3.83159e-05 0)
(-0.00413487 -2.26438e-05 0)
(-0.00415381 -5.00595e-06 0)
(-0.00415895 2.19057e-05 0)
(-0.00417097 4.37351e-05 0)
(-0.00417219 6.91287e-05 0)
(-0.00417752 8.32913e-05 0)
(-0.00417384 0.000105386 0)
(-0.00417268 0.000114122 0)
(-0.00416393 0.00013365 0)
(-0.00415607 0.000140121 0)
(-0.00414099 0.000157555 0)
(-0.00412626 0.000163514 0)
(-0.00410359 0.000178768 0)
(-0.00408127 0.000184305 0)
(-0.00404995 0.000196132 0)
(-0.00401882 0.00019998 0)
(-0.0039773 0.000205173 0)
(-0.00393543 0.000203117 0)
(-0.00388147 0.000195636 0)
(-0.00382518 0.000177397 0)
(-0.00375986 0.000147916 0)
(-0.00368718 0.000102352 0)
(-0.0036133 4.24842e-05 0)
(-0.00353218 -2.95912e-05 0)
(-0.00345971 -0.000109158 0)
(-0.00339265 -0.000172066 0)
(-0.00331712 -0.000228693 0)
(-0.00323692 -0.000260424 0)
(-0.00314673 -0.000296185 0)
(-0.00305613 -0.000311368 0)
(-0.00295414 -0.00033317 0)
(-0.00285571 -0.000338621 0)
(-0.00274651 -0.000345896 0)
(-0.00264314 -0.000337545 0)
(-0.00253105 -0.000321302 0)
(-0.00242607 -0.000280695 0)
(-0.00230892 -0.000224653 0)
(-0.00219615 -0.000126858 0)
(-0.00206417 -3.00594e-05 0)
(-0.00193999 9.55418e-05 0)
(-0.00176539 0.000169975 0)
(-0.0016284 0.000229677 0)
(-0.00145946 0.000251011 0)
(-0.00132051 0.000264242 0)
(-0.00114297 0.000256268 0)
(-0.00100124 0.000219804 0)
(-0.00077418 0.000150227 0)
(-0.000662447 1.20919e-05 0)
(-0.000563812 -2.62287e-05 0)
(-0.000429288 -5.68664e-05 0)
(-0.000292436 -6.50564e-05 0)
(-0.000156546 -6.86122e-05 0)
(-8.18693e-06 -6.7605e-05 0)
(0.000120436 -5.97953e-05 0)
(0.000273141 -5.43397e-05 0)
(0.000398337 -4.6063e-05 0)
(0.000546535 -4.16805e-05 0)
(0.000667576 -3.47287e-05 0)
(0.000809905 -3.25694e-05 0)
(0.000926485 -2.71567e-05 0)
(0.00106161 -2.64536e-05 0)
(0.00117328 -2.19834e-05 0)
(0.00130026 -2.21843e-05 0)
(0.00140665 -1.83326e-05 0)
(0.00152493 -1.90455e-05 0)
(0.00162572 -1.57403e-05 0)
(0.00173501 -1.66483e-05 0)
(0.00182978 -1.36456e-05 0)
(0.00193025 -1.45672e-05 0)
(0.00201849 -1.23259e-05 0)
(0.00211024 -1.26762e-05 0)
(0.00219164 -1.11874e-05 0)
(0.00227478 -1.10814e-05 0)
(0.00234932 -1.01153e-05 0)
(0.0024239 -9.7643e-06 0)
(0.00249157 -8.93416e-06 0)
(0.0025582 -8.59061e-06 0)
(0.00261883 -7.86045e-06 0)
(0.0026779 -7.51306e-06 0)
(0.00273172 -6.86898e-06 0)
(0.00278357 -6.52748e-06 0)
(0.00283086 -5.95564e-06 0)
(0.00287588 -5.62881e-06 0)
(0.00291699 -5.1139e-06 0)
(0.00295559 -4.81031e-06 0)
(0.00299091 -4.33838e-06 0)
(0.00302354 -4.08764e-06 0)
(0.00305351 -3.65352e-06 0)
(0.00308066 -3.3177e-06 0)
(0.00310545 -3.08346e-06 0)
(0.00312778 -2.75814e-06 0)
(0.00314784 -2.47118e-06 0)
(0.00316568 -2.18698e-06 0)
(0.00318137 -1.95465e-06 0)
(0.00319517 -1.69123e-06 0)
(0.00320696 -1.4833e-06 0)
(0.00321708 -1.24053e-06 0)
(0.00322539 -1.02871e-06 0)
(0.00323214 -7.6373e-07 0)
(0.00323739 -5.43907e-07 0)
(0.00324133 -2.91193e-07 0)
(0.00324391 -6.06587e-08 0)
(0.0032453 1.5888e-07 0)
(0.00324569 2.58701e-07 0)
(0.00324469 5.09018e-07 0)
(0.00324286 6.65292e-07 0)
(0.0032399 7.06278e-07 0)
(0.00323633 6.61829e-07 0)
(0.00323159 6.69884e-07 0)
(0.00322664 5.69023e-07 0)
(0.00322039 5.59194e-07 0)
(0.0032144 5.03857e-07 0)
(0.00320698 4.38502e-07 0)
(0.00320015 4.82546e-07 0)
(0.00319183 3.52966e-07 0)
(0.00318431 4.81504e-07 0)
(0.00317531 2.89532e-07 0)
(0.00316727 4.84956e-07 0)
(0.00315777 2.92208e-07 0)
(0.00314937 4.73549e-07 0)
(0.00313957 3.32263e-07 0)
(0.00313094 4.591e-07 0)
(0.00312101 3.64419e-07 0)
(0.00311224 4.53958e-07 0)
(0.00310234 3.91751e-07 0)
(0.00309349 4.62978e-07 0)
(0.00308381 4.27044e-07 0)
(0.00307491 5.00021e-07 0)
(0.00306565 4.97456e-07 0)
(0.00305673 6.03474e-07 0)
(0.00304796 6.11381e-07 0)
(0.00303917 7.46631e-07 0)
(0.00303079 7.34709e-07 0)
(0.00302227 8.89846e-07 0)
(0.00301433 8.23e-07 0)
(0.0030062 9.65573e-07 0)
(0.00299873 8.20927e-07 0)
(0.00299107 9.65498e-07 0)
(0.0029841 7.8438e-07 0)
(0.00297694 9.39139e-07 0)
(0.00297048 7.32057e-07 0)
(0.00296384 8.99435e-07 0)
(0.00295792 6.73994e-07 0)
(0.0029518 8.50054e-07 0)
(0.00294645 6.11105e-07 0)
(0.00294087 7.93618e-07 0)
(0.0029361 5.44918e-07 0)
(0.00293106 7.31606e-07 0)
(0.00292688 4.73333e-07 0)
(0.0029224 6.39854e-07 0)
(0.0029188 3.98388e-07 0)
(0.00291488 5.44322e-07 0)
(0.00291185 3.2486e-07 0)
(0.0029085 4.46772e-07 0)
(0.00290603 2.38844e-07 0)
(0.00290324 3.46829e-07 0)
(0.00290133 1.4448e-07 0)
(0.00289909 2.46206e-07 0)
(0.00289771 5.39917e-08 0)
(0.00289603 1.46943e-07 0)
(0.00289514 -3.24845e-08 0)
(0.00289403 5.12021e-08 0)
(0.0028936 -1.1794e-07 0)
(0.00289307 -3.57106e-08 0)
(0.00289303 -2.13066e-07 0)
(0.00289303 -7.86133e-08 0)
(0.00289351 -2.80871e-07 0)
(0.00289395 -1.27354e-07 0)
(0.00289486 -3.47441e-07 0)
(0.00289574 -2.09451e-07 0)
(0.00289712 -4.26372e-07 0)
(0.00289844 -3.01017e-07 0)
(0.00290017 -4.14787e-07 0)
(0.00290196 -3.50329e-07 0)
(0.00290405 -3.84116e-07 0)
(0.0029063 -3.60179e-07 0)
(0.00290874 -3.9464e-07 0)
(0.00291134 -3.97579e-07 0)
(0.00291412 -4.33708e-07 0)
(0.00291706 -4.61947e-07 0)
(0.00292016 -4.97706e-07 0)
(0.00292342 -5.24141e-07 0)
(0.00292683 -5.43915e-07 0)
(0.0029304 -5.59461e-07 0)
(0.00293402 -5.42484e-07 0)
(0.00293792 -5.60927e-07 0)
(0.00294172 -5.5919e-07 0)
(0.00294594 -5.26457e-07 0)
(0.00294987 -5.91744e-07 0)
(0.00295445 -5.09413e-07 0)
(0.00295849 -5.99313e-07 0)
(0.00296335 -5.3948e-07 0)
(0.00296751 -6.27018e-07 0)
(0.00297263 -5.84579e-07 0)
(0.00297691 -6.70003e-07 0)
(0.00298225 -6.33184e-07 0)
(0.00298667 -7.1525e-07 0)
(0.0029922 -6.79517e-07 0)
(0.00299673 -7.57363e-07 0)
(0.00300243 -7.21136e-07 0)
(0.00300708 -7.93908e-07 0)
(0.0030129 -7.54983e-07 0)
(0.00301765 -8.17502e-07 0)
(0.00302358 -7.73658e-07 0)
(0.00302841 -8.2969e-07 0)
(0.00303443 -7.77063e-07 0)
(0.00303935 -8.34382e-07 0)
(0.00304542 -7.78654e-07 0)
(0.00305041 -8.34557e-07 0)
(0.00305654 -7.88521e-07 0)
(0.00306158 -8.34767e-07 0)
(0.00306775 -7.98447e-07 0)
(0.00307283 -8.38665e-07 0)
(0.00307901 -8.05998e-07 0)
(0.00308413 -8.39473e-07 0)
(0.00309032 -8.07829e-07 0)
(0.00309546 -8.35515e-07 0)
(0.00310164 -8.05715e-07 0)
(0.00310679 -8.28345e-07 0)
(0.00311296 -8.01598e-07 0)
(0.00311811 -8.1939e-07 0)
(0.00312425 -7.96324e-07 0)
(0.0031294 -8.08939e-07 0)
(0.0031355 -7.90341e-07 0)
(0.00314065 -7.96353e-07 0)
(0.00314669 -7.83424e-07 0)
(0.00315184 -7.87624e-07 0)
(0.0031578 -7.73879e-07 0)
(0.00316296 -7.7672e-07 0)
(0.00316883 -7.64591e-07 0)
(0.00317399 -7.64557e-07 0)
(0.00317976 -7.55844e-07 0)
(0.00318491 -7.53307e-07 0)
(0.00319058 -7.4656e-07 0)
(0.00319572 -7.41376e-07 0)
(0.00320128 -7.36572e-07 0)
(0.00320641 -7.28901e-07 0)
(0.00321185 -7.26354e-07 0)
(0.00321697 -7.16206e-07 0)
(0.00322228 -7.15571e-07 0)
(0.00322738 -7.02902e-07 0)
(0.00323257 -7.0255e-07 0)
(0.00323765 -6.97557e-07 0)
(0.00324272 -6.89897e-07 0)
(0.00324775 -6.84248e-07 0)
(0.00325274 -6.77986e-07 0)
(0.00325768 -6.72158e-07 0)
(0.00326259 -6.65918e-07 0)
(0.00326746 -6.59875e-07 0)
(0.00327229 -6.5365e-07 0)
(0.00327707 -6.47528e-07 0)
(0.00328181 -6.41371e-07 0)
(0.00328652 -6.35308e-07 0)
(0.00329118 -6.29223e-07 0)
(0.00329579 -6.23198e-07 0)
(0.00330037 -6.1714e-07 0)
(0.0033049 -6.11119e-07 0)
(0.00330939 -6.05074e-07 0)
(0.00331383 -5.99066e-07 0)
(0.00331824 -5.93059e-07 0)
(0.0033226 -5.87095e-07 0)
(0.00332692 -5.81154e-07 0)
(0.00333119 -5.75256e-07 0)
(0.00333542 -5.69393e-07 0)
(0.00333961 -5.63576e-07 0)
(0.00334376 -5.57798e-07 0)
(0.00334786 -5.52064e-07 0)
(0.00335192 -5.46368e-07 0)
(0.00335594 -5.40714e-07 0)
(0.00335992 -5.35098e-07 0)
(0.00336386 -5.29526e-07 0)
(0.00336775 -5.23996e-07 0)
(0.00337161 -5.1851e-07 0)
(0.00337542 -5.13069e-07 0)
(0.00337919 -5.07674e-07 0)
(0.00338292 -5.02326e-07 0)
(0.00338661 -4.97026e-07 0)
(0.00339027 -4.91773e-07 0)
(0.00339388 -4.8657e-07 0)
(0.00339745 -4.81416e-07 0)
(0.00340098 -4.76312e-07 0)
(0.00340448 -4.71258e-07 0)
(0.00340794 -4.66255e-07 0)
(0.00341135 -4.61302e-07 0)
(0.00341474 -4.564e-07 0)
(0.00341808 -4.51548e-07 0)
(0.00342139 -4.46748e-07 0)
(0.00342466 -4.41998e-07 0)
(0.00342789 -4.373e-07 0)
(0.00343109 -4.32652e-07 0)
(0.00343425 -4.28055e-07 0)
(0.00343738 -4.23509e-07 0)
(0.00344048 -4.19013e-07 0)
(0.00344354 -4.14567e-07 0)
(0.00344656 -4.10172e-07 0)
(0.00344955 -4.05826e-07 0)
(0.00345251 -4.01529e-07 0)
(0.00345544 -3.97283e-07 0)
(0.00345833 -3.93087e-07 0)
(0.00346119 -3.88945e-07 0)
(0.00346402 -3.84862e-07 0)
(0.00346682 -3.8086e-07 0)
(0.00346958 -3.76898e-07 0)
(0.00347232 -3.72963e-07 0)
(0.00347503 -3.69061e-07 0)
(0.0034777 -3.65197e-07 0)
(0.00348035 -3.61373e-07 0)
(0.00348297 -3.57593e-07 0)
(0.00348555 -3.53857e-07 0)
(0.00348811 -3.50163e-07 0)
(0.00349065 -3.46513e-07 0)
(0.00349315 -3.42906e-07 0)
(0.00349563 -3.39341e-07 0)
(0.00349807 -3.35818e-07 0)
(0.0035005 -3.32336e-07 0)
(0.00350289 -3.28895e-07 0)
(0.00350526 -3.25493e-07 0)
(0.00350761 -3.22132e-07 0)
(0.00350992 -3.18809e-07 0)
(0.00351222 -3.15525e-07 0)
(0.00351448 -3.12278e-07 0)
(0.00351673 -3.09069e-07 0)
(0.00351895 -3.05897e-07 0)
(0.00352114 -3.0276e-07 0)
(0.00352331 -2.99659e-07 0)
(0.00352546 -2.96593e-07 0)
(0.00352758 -2.93562e-07 0)
(0.00352968 -2.90564e-07 0)
(0.00353176 -2.876e-07 0)
(0.00353382 -2.84669e-07 0)
(0.00353585 -2.81769e-07 0)
(0.00353786 -2.78902e-07 0)
(0.00353985 -2.76065e-07 0)
(0.00354182 -2.73259e-07 0)
(0.00354377 -2.70483e-07 0)
(0.00354569 -2.67736e-07 0)
(0.0035476 -2.65019e-07 0)
(0.00354949 -2.6233e-07 0)
(0.00355135 -2.59668e-07 0)
(0.0035532 -2.57034e-07 0)
(0.00355502 -2.54427e-07 0)
(0.00355683 -2.51846e-07 0)
(0.00355861 -2.4929e-07 0)
(0.00356038 -2.46759e-07 0)
(0.00356213 -2.44253e-07 0)
(0.00356385 -2.41771e-07 0)
(0.00356557 -2.39312e-07 0)
(0.00356726 -2.36877e-07 0)
(0.00356893 -2.34463e-07 0)
(0.00357059 -2.32071e-07 0)
(0.00357222 -2.29699e-07 0)
(0.00357384 -2.27347e-07 0)
(0.00357544 -2.25011e-07 0)
(0.00357703 -2.22684e-07 0)
(0.0035786 -2.20359e-07 0)
(0.00358015 -2.18013e-07 0)
(0.00358168 -2.15678e-07 0)
(0.00358319 -2.13387e-07 0)
(0.00358469 -2.11138e-07 0)
(0.00358618 -2.08923e-07 0)
(0.00358764 -2.06735e-07 0)
(0.00358909 -2.04568e-07 0)
(0.00359053 -2.02417e-07 0)
(0.00359194 -2.00282e-07 0)
(0.00359335 -1.98124e-07 0)
(0.00359473 -1.96007e-07 0)
(0.0035961 -1.93531e-07 0)
(0.00359745 -1.92473e-07 0)
(0.0035988 -1.88017e-07 0)
(0.00360012 -1.91971e-07 0)
(0.00360143 -1.81443e-07 0)
(0.00360272 -1.88488e-07 0)
(0.00360399 -1.76291e-07 0)
(0.00360526 -1.85776e-07 0)
(0.00360649 -1.70628e-07 0)
(0.00360775 -1.82488e-07 0)
(0.00360892 -1.64741e-07 0)
(0.00361018 -1.79063e-07 0)
(0.00361126 -1.57868e-07 0)
(0.00361256 -1.75876e-07 0)
(0.00361352 -1.48694e-07 0)
(0.00361491 -1.73959e-07 0)
(0.00361568 -1.35467e-07 0)
(0.00361723 -1.78069e-07 0)
(0.00361772 -1.18783e-07 0)
(0.00361961 -2.07983e-07 0)
(0.00361967 -1.10032e-07 0)
(0.00362252 -4.31173e-07 0)
(0.00362159 -9.95016e-07 0)
(1.08618e-06 -5.26562e-06 0)
(-1.30991e-05 1.2413e-05 0)
(-5.73169e-05 4.0486e-05 0)
(-0.000130436 6.40939e-05 0)
(-0.000228677 8.26145e-05 0)
(-0.000344063 9.24898e-05 0)
(-0.000472035 9.83324e-05 0)
(-0.000606793 9.99865e-05 0)
(-0.00074534 9.98681e-05 0)
(-0.000885846 9.8412e-05 0)
(-0.00102576 9.67172e-05 0)
(-0.00116634 9.51605e-05 0)
(-0.00130565 9.39881e-05 0)
(-0.00144407 9.33296e-05 0)
(-0.00158131 9.3085e-05 0)
(-0.00171758 9.32252e-05 0)
(-0.00185286 9.37249e-05 0)
(-0.00198717 9.45237e-05 0)
(-0.00212062 9.53549e-05 0)
(-0.00225288 9.58598e-05 0)
(-0.00238369 9.64062e-05 0)
(-0.00251314 9.70456e-05 0)
(-0.00264124 9.76117e-05 0)
(-0.00276802 9.79967e-05 0)
(-0.00289343 9.81107e-05 0)
(-0.0030175 9.78937e-05 0)
(-0.00314023 9.7285e-05 0)
(-0.00326166 9.62714e-05 0)
(-0.00338187 9.48119e-05 0)
(-0.00350089 9.2923e-05 0)
(-0.00361882 9.05241e-05 0)
(-0.00373564 8.75356e-05 0)
(-0.00385132 8.33877e-05 0)
(-0.00396549 7.67958e-05 0)
(-0.00407809 7.18241e-05 0)
(-0.0041919 6.99688e-05 0)
(-0.004304 6.55208e-05 0)
(-0.00441574 6.04775e-05 0)
(-0.00452657 5.5779e-05 0)
(-0.00463653 5.15724e-05 0)
(-0.00474553 4.80019e-05 0)
(-0.00485358 4.50482e-05 0)
(-0.00496059 4.28425e-05 0)
(-0.00506661 4.12857e-05 0)
(-0.00517161 4.03195e-05 0)
(-0.00527561 3.9824e-05 0)
(-0.00537865 3.97058e-05 0)
(-0.0054808 3.98947e-05 0)
(-0.0055821 4.03503e-05 0)
(-0.00568263 4.10619e-05 0)
(-0.00578247 4.20425e-05 0)
(-0.00588169 4.33566e-05 0)
(-0.00598039 4.50058e-05 0)
(-0.00607858 4.72656e-05 0)
(-0.00617638 4.98825e-05 0)
(-0.00627361 5.35204e-05 0)
(-0.00637044 5.71954e-05 0)
(-0.00646644 6.08529e-05 0)
(-0.00656164 6.61123e-05 0)
(-0.00665526 7.40546e-05 0)
(-0.00674636 8.0109e-05 0)
(-0.00683715 8.45464e-05 0)
(-0.00692622 8.81777e-05 0)
(-0.00701538 9.05689e-05 0)
(-0.00710414 9.1893e-05 0)
(-0.00719279 9.23723e-05 0)
(-0.00728122 9.22063e-05 0)
(-0.0073694 9.15953e-05 0)
(-0.00745725 9.06492e-05 0)
(-0.00754474 8.94837e-05 0)
(-0.00763182 8.81273e-05 0)
(-0.00771843 8.66615e-05 0)
(-0.00780459 8.50634e-05 0)
(-0.00789024 8.34003e-05 0)
(-0.00797538 8.16251e-05 0)
(-0.00805998 7.9803e-05 0)
(-0.00814405 7.78742e-05 0)
(-0.00822755 7.59225e-05 0)
(-0.00831049 7.38392e-05 0)
(-0.00839281 7.18102e-05 0)
(-0.00847457 6.96433e-05 0)
(-0.00855566 6.75979e-05 0)
(-0.00863614 6.53912e-05 0)
(-0.00871585 6.31958e-05 0)
(-0.00879484 6.02048e-05 0)
(-0.008873 5.62744e-05 0)
(-0.00895061 5.52804e-05 0)
(-0.00902776 5.517e-05 0)
(-0.00910423 5.39514e-05 0)
(-0.00917955 5.34462e-05 0)
(-0.00925388 5.30673e-05 0)
(-0.00932647 5.28737e-05 0)
(-0.0093979 5.29221e-05 0)
(-0.00946719 5.6488e-05 0)
(-0.00953481 5.85735e-05 0)
(-0.00960043 6.13571e-05 0)
(-0.00966458 6.33206e-05 0)
(-0.00972591 6.64984e-05 0)
(-0.00978567 6.83901e-05 0)
(-0.009842 7.18275e-05 0)
(-0.00989672 7.37096e-05 0)
(-0.00994684 7.72346e-05 0)
(-0.00999518 7.85164e-05 0)
(-0.0100376 8.22995e-05 0)
(-0.0100788 8.23005e-05 0)
(-0.0101126 8.61249e-05 0)
(-0.0101442 8.3396e-05 0)
(-0.0101675 8.59991e-05 0)
(-0.0101858 7.87042e-05 0)
(-0.0101981 7.71e-05 0)
(-0.0102027 6.32963e-05 0)
(-0.0101992 5.08394e-05 0)
(-0.0101862 2.45229e-05 0)
(-0.0101737 -1.15484e-08 0)
(-0.0101694 -2.77189e-05 0)
(-0.010154 -4.98383e-05 0)
(-0.0101367 -7.03551e-05 0)
(-0.0101031 -8.77865e-05 0)
(-0.0100685 -0.000104179 0)
(-0.0100153 -0.000119081 0)
(-0.00996273 -0.00013398 0)
(-0.00988995 -0.000147675 0)
(-0.00981926 -0.000162096 0)
(-0.00972706 -0.000174856 0)
(-0.00963875 -0.000188558 0)
(-0.00952674 -0.000199911 0)
(-0.00942208 -0.000211664 0)
(-0.00929058 -0.000220304 0)
(-0.00917135 -0.000227197 0)
(-0.00902165 -0.000229251 0)
(-0.00888851 -0.000224476 0)
(-0.00872022 -0.000208334 0)
(-0.00856904 -0.000189673 0)
(-0.00837508 -0.000144201 0)
(-0.0081976 -0.000110115 0)
(-0.00796987 -2.71422e-05 0)
(-0.00771725 -4.3646e-06 0)
(-0.00745623 3.39753e-05 0)
(-0.00718788 3.11717e-05 0)
(-0.00691526 4.88273e-05 0)
(-0.00663369 4.19851e-05 0)
(-0.00634504 4.79942e-05 0)
(-0.00604548 4.04572e-05 0)
(-0.00573502 3.7975e-05 0)
(-0.00541212 2.87554e-05 0)
(-0.00506556 1.49845e-05 0)
(-0.00472173 -6.41344e-06 0)
(-0.00431187 -4.0817e-05 0)
(-0.00397274 -0.000105277 0)
(-0.00356461 -0.000157255 0)
(-0.00325902 -0.000248618 0)
(-0.0029866 -0.000278892 0)
(-0.00266072 -0.000303083 0)
(-0.00234699 -0.000315409 0)
(-0.00199714 -0.000321774 0)
(-0.00167191 -0.000329981 0)
(-0.00133746 -0.00033899 0)
(-0.00102967 -0.000362605 0)
(-0.000658879 -0.000399526 0)
(-0.00020349 -0.000390022 0)
(0.000156413 -0.000386334 0)
(0.000559583 -0.000367608 0)
(0.000906526 -0.000357938 0)
(0.00129491 -0.000348429 0)
(0.00163581 -0.000327493 0)
(0.00200345 -0.000316052 0)
(0.0023318 -0.000297724 0)
(0.00268591 -0.00029333 0)
(0.00300406 -0.000278241 0)
(0.00334571 -0.000274968 0)
(0.00365243 -0.000259761 0)
(0.00397885 -0.000256584 0)
(0.00427284 -0.000241668 0)
(0.00458202 -0.000238337 0)
(0.00486218 -0.000224154 0)
(0.00515271 -0.000220314 0)
(0.00541809 -0.000207171 0)
(0.0056892 -0.000202351 0)
(0.005939 -0.000191144 0)
(0.00618984 -0.000184819 0)
(0.00642322 -0.000174865 0)
(0.00665443 -0.000167883 0)
(0.00687014 -0.000158906 0)
(0.00708202 -0.000151603 0)
(0.00727977 -0.00014336 0)
(0.00747252 -0.000136069 0)
(0.00765235 -0.000128252 0)
(0.00782639 -0.000121288 0)
(0.00798853 -0.000113874 0)
(0.00814436 -0.000107245 0)
(0.00828932 -0.000100217 0)
(0.0084276 -9.39683e-05 0)
(0.00855599 -8.7326e-05 0)
(0.00867753 -8.15075e-05 0)
(0.00879011 -7.52343e-05 0)
(0.00889578 -6.98879e-05 0)
(0.00899339 -6.39515e-05 0)
(0.00908414 -5.92049e-05 0)
(0.00916772 -5.36483e-05 0)
(0.00924457 -4.90668e-05 0)
(0.00931501 -4.42607e-05 0)
(0.009379 -3.9912e-05 0)
(0.0094371 -3.56356e-05 0)
(0.00948937 -3.14986e-05 0)
(0.00953607 -2.77207e-05 0)
(0.00957754 -2.39854e-05 0)
(0.00961386 -2.05727e-05 0)
(0.00964545 -1.72356e-05 0)
(0.0096724 -1.40912e-05 0)
(0.00969503 -1.12437e-05 0)
(0.00971359 -8.70776e-06 0)
(0.00972821 -6.19765e-06 0)
(0.00973919 -3.85959e-06 0)
(0.00974674 -1.67299e-06 0)
(0.00975117 1.12229e-07 0)
(0.00975261 2.32862e-06 0)
(0.00975073 4.10612e-06 0)
(0.00974601 5.97282e-06 0)
(0.0097392 7.68769e-06 0)
(0.00972973 9.30216e-06 0)
(0.00971865 1.06924e-05 0)
(0.00970523 1.20407e-05 0)
(0.00969064 1.30318e-05 0)
(0.00967385 1.40738e-05 0)
(0.00965632 1.49302e-05 0)
(0.00963674 1.57022e-05 0)
(0.00961682 1.64234e-05 0)
(0.00959498 1.69247e-05 0)
(0.00957328 1.75132e-05 0)
(0.0095496 1.77534e-05 0)
(0.00952653 1.82501e-05 0)
(0.00950163 1.82177e-05 0)
(0.00947758 1.8652e-05 0)
(0.00945187 1.84575e-05 0)
(0.00942716 1.87646e-05 0)
(0.00940105 1.84973e-05 0)
(0.00937595 1.86073e-05 0)
(0.00934986 1.83015e-05 0)
(0.00932457 1.81987e-05 0)
(0.00929895 1.78684e-05 0)
(0.00927365 1.75706e-05 0)
(0.00924872 1.71791e-05 0)
(0.0092237 1.68335e-05 0)
(0.00919946 1.63229e-05 0)
(0.00917503 1.59998e-05 0)
(0.00915164 1.53357e-05 0)
(0.00912806 1.50741e-05 0)
(0.0091057 1.43264e-05 0)
(0.00908318 1.41441e-05 0)
(0.00906194 1.33135e-05 0)
(0.0090406 1.31545e-05 0)
(0.00902057 1.2301e-05 0)
(0.00900048 1.21372e-05 0)
(0.00898176 1.12567e-05 0)
(0.00896297 1.10904e-05 0)
(0.00894562 1.01869e-05 0)
(0.00892821 1.00192e-05 0)
(0.00891229 9.09935e-06 0)
(0.00889629 8.92446e-06 0)
(0.00888184 7.99965e-06 0)
(0.00886728 7.87437e-06 0)
(0.00885431 6.91014e-06 0)
(0.00884123 6.81983e-06 0)
(0.00882974 5.81899e-06 0)
(0.00881815 5.76688e-06 0)
(0.00880814 4.76571e-06 0)
(0.00879804 4.72917e-06 0)
(0.00878948 3.75166e-06 0)
(0.00878086 3.7087e-06 0)
(0.00877372 2.75811e-06 0)
(0.00876657 2.70777e-06 0)
(0.00876082 1.7871e-06 0)
(0.00875512 1.73752e-06 0)
(0.00875073 8.3418e-07 0)
(0.00874644 8.2781e-07 0)
(0.00874339 -1.3211e-07 0)
(0.00874046 2.9036e-08 0)
(0.0087387 -1.01966e-06 0)
(0.00873708 -8.74269e-07 0)
(0.00873645 -1.84799e-06 0)
(0.00873613 -1.76853e-06 0)
(0.00873674 -2.60295e-06 0)
(0.00873771 -2.53529e-06 0)
(0.00873939 -3.34222e-06 0)
(0.00874152 -3.47062e-06 0)
(0.00874434 -4.09226e-06 0)
(0.00874754 -4.37695e-06 0)
(0.00875139 -4.71928e-06 0)
(0.00875564 -5.04279e-06 0)
(0.00876042 -5.35709e-06 0)
(0.00876568 -5.62867e-06 0)
(0.00877144 -5.93199e-06 0)
(0.00877766 -6.18108e-06 0)
(0.00878432 -6.47481e-06 0)
(0.00879139 -6.74848e-06 0)
(0.00879882 -6.9692e-06 0)
(0.00880669 -7.25475e-06 0)
(0.0088148 -7.47521e-06 0)
(0.00882347 -7.70051e-06 0)
(0.00883213 -7.98667e-06 0)
(0.00884163 -8.11206e-06 0)
(0.00885082 -8.4262e-06 0)
(0.00886103 -8.43047e-06 0)
(0.00887073 -8.80555e-06 0)
(0.0088816 -8.73203e-06 0)
(0.0088918 -9.1248e-06 0)
(0.00890327 -9.01791e-06 0)
(0.00891396 -9.40028e-06 0)
(0.00892596 -9.27436e-06 0)
(0.00893709 -9.64007e-06 0)
(0.00894956 -9.49764e-06 0)
(0.00896108 -9.8416e-06 0)
(0.00897396 -9.68816e-06 0)
(0.00898584 -1.00125e-05 0)
(0.00899907 -9.86349e-06 0)
(0.00901127 -1.01594e-05 0)
(0.00902478 -1.00333e-05 0)
(0.00903725 -1.02844e-05 0)
(0.00905102 -1.01717e-05 0)
(0.00906372 -1.03933e-05 0)
(0.0090777 -1.02639e-05 0)
(0.00909061 -1.0476e-05 0)
(0.00910476 -1.03317e-05 0)
(0.00911783 -1.052e-05 0)
(0.00913213 -1.03782e-05 0)
(0.00914533 -1.05423e-05 0)
(0.00915972 -1.04091e-05 0)
(0.00917303 -1.05481e-05 0)
(0.00918749 -1.04231e-05 0)
(0.00920087 -1.0538e-05 0)
(0.00921536 -1.04197e-05 0)
(0.00922879 -1.05113e-05 0)
(0.00924329 -1.03994e-05 0)
(0.00925674 -1.04683e-05 0)
(0.00927122 -1.03647e-05 0)
(0.00928468 -1.04067e-05 0)
(0.00929911 -1.03166e-05 0)
(0.00931256 -1.03306e-05 0)
(0.0093269 -1.02529e-05 0)
(0.00934033 -1.02498e-05 0)
(0.00935456 -1.01724e-05 0)
(0.00936797 -1.01589e-05 0)
(0.00938206 -1.0079e-05 0)
(0.00939543 -1.00527e-05 0)
(0.00940935 -9.97753e-06 0)
(0.00942268 -9.93786e-06 0)
(0.00943642 -9.86659e-06 0)
(0.00944969 -9.81554e-06 0)
(0.00946323 -9.7473e-06 0)
(0.00947643 -9.68489e-06 0)
(0.00948976 -9.61985e-06 0)
(0.00950287 -9.54605e-06 0)
(0.00951599 -9.48281e-06 0)
(0.00952899 -9.41532e-06 0)
(0.00954191 -9.33995e-06 0)
(0.00955475 -9.26761e-06 0)
(0.00956751 -9.19235e-06 0)
(0.00958017 -9.11829e-06 0)
(0.00959274 -9.04238e-06 0)
(0.00960522 -8.96694e-06 0)
(0.0096176 -8.88977e-06 0)
(0.00962989 -8.81279e-06 0)
(0.00964208 -8.73433e-06 0)
(0.00965418 -8.65602e-06 0)
(0.00966617 -8.57682e-06 0)
(0.00967807 -8.49761e-06 0)
(0.00968986 -8.41793e-06 0)
(0.00970156 -8.33818e-06 0)
(0.00971315 -8.2582e-06 0)
(0.00972464 -8.17823e-06 0)
(0.00973603 -8.09818e-06 0)
(0.00974731 -8.01818e-06 0)
(0.00975849 -7.93822e-06 0)
(0.00976957 -7.85839e-06 0)
(0.00978054 -7.77867e-06 0)
(0.00979141 -7.69916e-06 0)
(0.00980217 -7.61987e-06 0)
(0.00981283 -7.54087e-06 0)
(0.00982339 -7.46218e-06 0)
(0.00983384 -7.38384e-06 0)
(0.00984419 -7.30589e-06 0)
(0.00985444 -7.22835e-06 0)
(0.00986459 -7.15124e-06 0)
(0.00987463 -7.07461e-06 0)
(0.00988457 -6.99845e-06 0)
(0.00989441 -6.92281e-06 0)
(0.00990414 -6.84769e-06 0)
(0.00991378 -6.77312e-06 0)
(0.00992332 -6.69912e-06 0)
(0.00993276 -6.6257e-06 0)
(0.0099421 -6.55288e-06 0)
(0.00995134 -6.48066e-06 0)
(0.00996048 -6.40907e-06 0)
(0.00996953 -6.33812e-06 0)
(0.00997848 -6.2678e-06 0)
(0.00998733 -6.19815e-06 0)
(0.0099961 -6.12915e-06 0)
(0.0100048 -6.06083e-06 0)
(0.0100133 -5.99318e-06 0)
(0.0100218 -5.92622e-06 0)
(0.0100302 -5.85994e-06 0)
(0.0100385 -5.79435e-06 0)
(0.0100467 -5.72945e-06 0)
(0.0100549 -5.66525e-06 0)
(0.0100629 -5.60175e-06 0)
(0.0100708 -5.53895e-06 0)
(0.0100787 -5.47684e-06 0)
(0.0100865 -5.41543e-06 0)
(0.0100942 -5.35472e-06 0)
(0.0101018 -5.2947e-06 0)
(0.0101093 -5.23538e-06 0)
(0.0101167 -5.17675e-06 0)
(0.0101241 -5.11881e-06 0)
(0.0101314 -5.06155e-06 0)
(0.0101386 -5.00496e-06 0)
(0.0101457 -4.94904e-06 0)
(0.0101528 -4.89379e-06 0)
(0.0101597 -4.8392e-06 0)
(0.0101666 -4.78527e-06 0)
(0.0101735 -4.73199e-06 0)
(0.0101802 -4.67936e-06 0)
(0.0101869 -4.62738e-06 0)
(0.0101935 -4.57602e-06 0)
(0.0102 -4.52529e-06 0)
(0.0102065 -4.47518e-06 0)
(0.0102129 -4.42569e-06 0)
(0.0102192 -4.3768e-06 0)
(0.0102254 -4.3285e-06 0)
(0.0102316 -4.28079e-06 0)
(0.0102377 -4.23367e-06 0)
(0.0102438 -4.18712e-06 0)
(0.0102498 -4.14113e-06 0)
(0.0102557 -4.0957e-06 0)
(0.0102615 -4.05082e-06 0)
(0.0102673 -4.00647e-06 0)
(0.0102731 -3.96266e-06 0)
(0.0102787 -3.91937e-06 0)
(0.0102844 -3.87659e-06 0)
(0.0102899 -3.83432e-06 0)
(0.0102954 -3.79255e-06 0)
(0.0103008 -3.75127e-06 0)
(0.0103062 -3.71046e-06 0)
(0.0103115 -3.67013e-06 0)
(0.0103168 -3.63025e-06 0)
(0.010322 -3.59084e-06 0)
(0.0103271 -3.55186e-06 0)
(0.0103322 -3.51332e-06 0)
(0.0103372 -3.47522e-06 0)
(0.0103422 -3.43753e-06 0)
(0.0103472 -3.40025e-06 0)
(0.010352 -3.36337e-06 0)
(0.0103569 -3.32689e-06 0)
(0.0103616 -3.29079e-06 0)
(0.0103664 -3.25507e-06 0)
(0.010371 -3.21973e-06 0)
(0.0103757 -3.18474e-06 0)
(0.0103802 -3.1501e-06 0)
(0.0103848 -3.11581e-06 0)
(0.0103892 -3.08186e-06 0)
(0.0103937 -3.04824e-06 0)
(0.010398 -3.01493e-06 0)
(0.0104024 -2.98194e-06 0)
(0.0104067 -2.94926e-06 0)
(0.0104109 -2.91687e-06 0)
(0.0104151 -2.88479e-06 0)
(0.0104192 -2.85302e-06 0)
(0.0104233 -2.82162e-06 0)
(0.0104274 -2.79054e-06 0)
(0.0104314 -2.75966e-06 0)
(0.0104354 -2.72899e-06 0)
(0.0104393 -2.69851e-06 0)
(0.0104432 -2.66825e-06 0)
(0.010447 -2.6382e-06 0)
(0.0104508 -2.60835e-06 0)
(0.0104546 -2.57869e-06 0)
(0.0104583 -2.54901e-06 0)
(0.0104619 -2.51975e-06 0)
(0.0104656 -2.48845e-06 0)
(0.0104692 -2.46807e-06 0)
(0.0104727 -2.42726e-06 0)
(0.0104762 -2.41562e-06 0)
(0.0104797 -2.3664e-06 0)
(0.0104831 -2.36048e-06 0)
(0.0104865 -2.30724e-06 0)
(0.0104898 -2.30716e-06 0)
(0.0104931 -2.24694e-06 0)
(0.0104964 -2.2494e-06 0)
(0.0104996 -2.1889e-06 0)
(0.0105028 -2.19041e-06 0)
(0.0105059 -2.13236e-06 0)
(0.0105091 -2.13076e-06 0)
(0.010512 -2.07843e-06 0)
(0.0105153 -2.07176e-06 0)
(0.0105178 -2.03392e-06 0)
(0.0105213 -2.02095e-06 0)
(0.0105235 -2.02472e-06 0)
(0.0105273 -2.01436e-06 0)
(0.0105288 -2.1537e-06 0)
(0.0105333 -2.28296e-06 0)
(0.0105337 -3.27036e-06 0)
(-4.4272e-06 5.87151e-06 0)
(-4.63212e-05 5.89446e-05 0)
(-0.000133605 0.000123835 0)
(-0.000262723 0.000181793 0)
(-0.000426114 0.000227253 0)
(-0.000613919 0.000256517 0)
(-0.000818783 0.000274879 0)
(-0.00103362 0.000283357 0)
(-0.00125388 0.000286715 0)
(-0.00147649 0.000286466 0)
(-0.00169882 0.000284839 0)
(-0.00192039 0.000281959 0)
(-0.00213975 0.000278705 0)
(-0.00235706 0.000275596 0)
(-0.00257208 0.000272572 0)
(-0.00278477 0.000269477 0)
(-0.00299514 0.000266127 0)
(-0.00320304 0.000263015 0)
(-0.00340803 0.000259311 0)
(-0.00361055 0.000254875 0)
(-0.00381134 0.000250276 0)
(-0.00401004 0.000245704 0)
(-0.0042068 0.000241265 0)
(-0.00440143 0.000236993 0)
(-0.0045939 0.000233009 0)
(-0.00478419 0.00022945 0)
(-0.00497229 0.000226381 0)
(-0.0051582 0.000224002 0)
(-0.00534194 0.000222275 0)
(-0.00552352 0.000221379 0)
(-0.00570298 0.000221107 0)
(-0.00588026 0.000221554 0)
(-0.00605556 0.00022212 0)
(-0.00622924 0.000222466 0)
(-0.00640189 0.000227499 0)
(-0.00657087 0.000230165 0)
(-0.00673653 0.000233267 0)
(-0.00690019 0.00023619 0)
(-0.00706173 0.000238706 0)
(-0.00722116 0.000240681 0)
(-0.00737849 0.000242084 0)
(-0.00753392 0.000242667 0)
(-0.00768746 0.000242626 0)
(-0.0078395 0.000241845 0)
(-0.00799008 0.000240464 0)
(-0.00813933 0.000238595 0)
(-0.00828721 0.00023636 0)
(-0.00843371 0.000233865 0)
(-0.00857878 0.000231183 0)
(-0.00872239 0.000228352 0)
(-0.0088645 0.000225377 0)