/*--------------------------------*- C++ -*----------------------------------*\
| =========                 |                                                 |
| \\      /  F ield         | OpenFOAM: The Open Source CFD Toolbox           |
|  \\    /   O peration     | Version:  2012                                  |
|   \\  /    A nd           | Website:  www.openfoam.com                      |
|    \\/     M anipulation  |                                                 |
\*---------------------------------------------------------------------------*/
FoamFile
{
    version     2.0;
    format      ascii;
    class       volScalarField;
    location    "0.48";
    object      p_rgh;
}
// * * * * * * * * * * * * * * * * * * * * * * * * * * * * * * * * * * * * * //

dimensions      [1 -1 -2 0 0 0 0];


internalField   nonuniform List<scalar> 
2268
(
102047
102048
102050
102052
102056
102062
102067
102076
102087
102099
102116
102135
102159
102184
102217
102250
102290
102329
102376
102415
102461
102490
102514
102047
102048
102049
102052
102055
102061
102067
102076
102086
102098
102116
102134
102158
102184
102216
102249
102290
102329
102376
102416
102462
102492
102516
102046
102047
102048
102051
102054
102060
102066
102074
102085
102097
102114
102132
102156
102182
102214
102247
102287
102327
102374
102415
102463
102494
102521
102044
102045
102046
102049
102052
102057
102063
102072
102082
102094
102111
102129
102153
102179
102212
102245
102286
102327
102375
102417
102467
102500
102528
102042
102043
102044
102047
102050
102055
102061
102070
102080
102092
102109
102126
102150
102175
102208
102241
102282
102322
102371
102413
102467
102501
102539
102038
102039
102041
102043
102047
102051
102057
102065
102075
102087
102104
102121
102145
102171
102204
102238
102280
102321
102372
102418
102474
102515
102551
102036
102036
102038
102040
102044
102048
102054
102062
102072
102084
102100
102117
102140
102165
102197
102231
102272
102314
102365
102410
102471
102509
102566
102031
102031
102033
102035
102038
102043
102048
102056
102065
102077
102092
102109
102133
102159
102191
102226
102269
102312
102364
102414
102478
102530
102587
102650
102650
102650
102650
102650
102650
102651
102650
102649
102647
102646
102647
102660
102677
102685
102695
102803
103051
103852
102650
102650
102650
102650
102650
102650
102651
102650
102649
102646
102645
102645
102646
102645
102648
102654
102705
102964
103810
102650
102650
102650
102650
102650
102650
102650
102650
102649
102646
102646
102645
102646
102645
102648
102646
102663
102800
103619
102650
102649
102650
102650
102650
102650
102650
102650
102648
102645
102644
102644
102645
102644
102646
102645
102658
102741
103613
102649
102649
102650
102650
102650
102650
102650
102649
102648
102645
102645
102645
102645
102644
102646
102644
102649
102684
103383
102649
102649
102650
102650
102650
102650
102649
102649
102647
102645
102644
102644
102645
102644
102645
102644
102645
102660
103211
102649
102649
102649
102650
102650
102650
102649
102648
102647
102645
102645
102644
102645
102644
102645
102644
102645
102651
103074
102649
102649
102650
102651
102651
102649
102649
102648
102647
102645
102645
102644
102645
102644
102645
102644
102645
102645
102994
102023
102023
102025
102027
102030
102035
102041
102048
102057
102069
102084
102101
102122
102146
102177
102210
102254
102295
102352
102397
102475
102507
102611
101802
101801
101808
101814
101822
101833
101852
101870
101898
101928
101967
102011
102061
102109
102154
102196
102240
102285
102335
102395
102466
102538
102641
101351
101351
101353
101356
101360
101365
101374
101384
101401
101422
101453
101494
101557
101656
101805
101978
102172
102250
102306
102367
102428
102492
102591
101332
101332
101332
101332
101332
101332
101332
101332
101332
101332
101333
101333
101333
101333
101341
101378
101472
101663
101952
102294
102389
102466
102554
101332
101332
101332
101332
101332
101332
101332
101332
101332
101332
101332
101333
101333
101333
101333
101333
101334
101342
101390
101502
101712
102021
102406
101332
101332
101332
101332
101332
101332
101332
101332
101332
101332
101333
101333
101333
101333
101333
101333
101333
101334
101334
101336
101343
101385
101516
101332
101332
101332
101332
101332
101332
101332
101332
101332
101332
101332
101333
101333
101333
101333
101333
101333
101333
101334
101334
101334
101335
101335
101332
101332
101332
101332
101332
101332
101332
101332
101332
101332
101332
101332
101333
101333
101333
101333
101333
101333
101334
101334
101334
101334
101335
101332
101332
101332
101332
101332
101332
101332
101332
101332
101332
101332
101332
101332
101333
101333
101333
101333
101333
101334
101334
101334
101334
101335
101332
101332
101332
101332
101332
101332
101332
101332
101332
101332
101332
101332
101332
101333
101333
101333
101333
101333
101333
101334
101334
101334
101335
101332
101332
101332
101332
101332
101332
101332
101332
101332
101332
101332
101332
101332
101332
101333
101333
101333
101333
101333
101334
101334
101334
101334
101331
101331
101331
101331
101332
101332
101332
101332
101332
101332
101332
101332
101332
101332
101332
101333
101333
101333
101333
101333
101334
101334
101334
101331
101331
101331
101331
101331
101331
101331
101332
101332
101332
101332
101332
101332
101332
101332
101332
101333
101333
101333
101333
101334
101334
101334
101331
101331
101331
101331
101331
101331
101331
101331
101332
101332
101332
101332
101332
101332
101332
101332
101332
101333
101333
101333
101333
101333
101334
101331
101331
101331
101331
101331
101331
101331
101331
101331
101331
101332
101332
101332
101332
101332
101332
101332
101332
101333
101333
101333
101333
101334
101331
101331
101331
101331
101331
101331
101331
101331
101331
101331
101331
101331
101332
101332
101332
101332
101332
101332
101332
101333
101333
101333
101333
101331
101331
101331
101331
101331
101331
101331
101331
101331
101331
101331
101331
101331
101331
101332
101332
101332
101332
101332
101332
101333
101333
101333
101331
101331
101331
101331
101331
101331
101331
101331
101331
101331
101331
101331
101331
101331
101331
101331
101332
101332
101332
101332
101332
101332
101333
101330
101330
101330
101330
101330
101331
101331
101331
101331
101331
101331
101331
101331
101331
101331
101331
101331
101332
101332
101332
101332
101332
101332
101330
101330
101330
101330
101330
101330
101330
101330
101330
101331
101331
101331
101331
101331
101331
101331
101331
101331
101331
101331
101332
101332
101332
101330
101330
101330
101330
101330
101330
101330
101330
101330
101330
101330
101330
101331
101331
101331
101331
101331
101331
101331
101331
101331
101331
101332
101330
101330
101330
101330
101330
101330
101330
101330
101330
101330
101330
101330
101330
101330
101330
101331
101331
101331
101331
101331
101331
101331
101331
101330
101330
101330
101330
101330
101330
101330
101330
101330
101330
101330
101330
101330
101330
101330
101330
101330
101330
101330
101331
101331
101331
101331
101329
101329
101329
101329
101329
101330
101330
101330
101330
101330
101330
101330
101330
101330
101330
101330
101330
101330
101330
101330
101330
101330
101330
101329
101329
101329
101329
101329
101329
101329
101329
101329
101329
101329
101329
101330
101330
101330
101330
101330
101330
101330
101330
101330
101330
101330
101329
101329
101329
101329
101329
101329
101329
101329
101329
101329
101329
101329
101329
101329
101329
101329
101329
101329
101330
101330
101330
101330
101330
101329
101329
101329
101329
101329
101329
101329
101329
101329
101329
101329
101329
101329
101329
101329
101329
101329
101329
101329
101329
101329
101329
101329
101329
101329
101329
101329
101329
101329
101329
101329
101329
101329
101329
101329
101329
101329
101329
101329
101329
101329
101329
101329
101329
101329
101329
101328
101328
101328
101328
101328
101328
101328
101328
101328
101328
101328
101328
101328
101329
101329
101329
101329
101329
101329
101329
101329
101329
101328
101328
101328
101328
101328
101328
101328
101328
101328
101328
101328
101328
101328
101328
101328
101328
101328
101328
101328
101328
101328
101328
101328
101328
101328
101328
101328
101328
101328
101328
101328
101328
101328
101328
101328
101328
101328
101328
101328
101328
101328
101328
101328
101328
101328
101328
101328
101328
101328
101328
101328
101328
101328
101328
101328
101328
101328
101328
101328
101328
101328
101328
101328
101328
101328
101328
101328
101328
101328
101327
101327
101327
101327
101327
101327
101327
101327
101327
101327
101327
101327
101327
101327
101327
101327
101327
101327
101327
101327
101327
101327
101327
101327
101327
101327
101327
101327
101327
101327
101327
101327
101327
101327
101327
101327
101327
101327
101327
101327
101327
101327
101327
101327
101327
101327
101327
101327
101327
101327
101327
101327
101327
101327
101327
101327
101327
101327
101327
101327
101327
101327
101327
101327
101327
101327
101327
101327
101327
101327
101327
101327
101327
101327
101327
101327
101327
101327
101327
101327
101327
101327
101327
101327
101327
101327
101327
101327
101327
101327
101327
101327
101326
101326
101326
101326
101326
101326
101326
101326
101326
101326
101326
101326
101326
101326
101326
101326
101326
101326
101326
101326
101326
101326
101326
101326
101326
101326
101326
101326
101326
101326
101326
101326
101326
101326
101326
101326
101326
101326
101326
101326
101326
101326
101326
101326
101326
101326
101326
101326
101326
101326
101326
101326
101326
101326
101326
101326
101326
101326
101326
101326
101326
101326
101326
101326
101326
101326
101326
101326
101326
101326
101326
101326
101326
101326
101326
101326
101326
101326
101326
101326
101326
101326
101326
101326
101326
101326
101326
101326
101326
101326
101326
101326
101326
101325
101325
101325
101325
101325
101325
101325
101325
101325
101325
101325
101325
101325
101325
101325
101325
101325
101325
101325
101325
101325
101325
101325
101325
101325
101325
101325
101325
101325
101325
101325
101325
101325
101325
101325
101325
101325
101325
101325
101325
101325
101325
101325
101325
101325
101325
102555
102815
102854
103058
102719
102781
102854
102918
102638
102708
102756
102829
102609
102650
102700
102742
102507
102550
102590
102635
101638
101735
101847
101999
101338
101341
101348
101359
101335
101335
101336
101336
101335
101335
101335
101336
101335
101335
101335
101335
101335
101335
101335
101335
101334
101335
101335
101335
101334
101334
101335
101335
101334
101334
101334
101334
101334
101334
101334
101334
101333
101333
101334
101334
101333
101333
101333
101333
101333
101333
101333
101333
101332
101333
101333
101333
101332
101332
101332
101332
101332
101332
101332
101332
101331
101331
101331
101331
101331
101331
101331
101331
101330
101330
101331
101331
101330
101330
101330
101330
101330
101330
101330
101330
101329
101329
101329
101329
101329
101329
101329
101329
101328
101328
101328
101328
101328
101328
101328
101328
101328
101328
101327
101327
101327
101327
101327
101327
101327
101327
101327
101327
101327
101327
101327
101326
101327
101326
101326
101326
101326
101326
101326
101326
101326
101326
101326
101326
101326
101326
101326
101326
101326
101326
101326
101326
101326
101326
101326
101326
101325
101325
101325
101325
101325
101325
101325
101325
102719
102704
102778
102742
102661
102649
102648
102647
102647
102645
102645
102645
102645
102644
102645
102644
102645
102644
102985
103069
103144
103203
103114
102723
102647
102647
102646
102646
102645
102645
102644
102645
102644
102645
102644
102646
102644
103044
102927
103030
103124
103249
102944
102653
102646
102645
102645
102645
102645
102645
102645
102645
102645
102645
102646
102645
103139
102843
102943
103073
103229
103204
102697
102645
102644
102644
102644
102644
102644
102644
102644
102645
102645
102646
102645
103320
102721
102822
102954
103108
103371
103023
102657
102643
102644
102644
102644
102644
102645
102644
102645
102644
102645
102645
103525
102372
102571
102778
102992
103210
103447
103059
102642
102642
102642
102643
102643
102644
102643
102644
102644
102645
102757
103759
101398
101522
101905
102567
102943
103274
103494
103373
102768
102642
102643
102643
102643
102643
102644
102644
102645
103337
104070
101336
101337
101337
101445
101858
102715
103178
103492
103643
103441
102991
102850
102829
102838
102859
102935
103306
104068
104345
101336
101337
101337
101338
101342
101499
101945
102676
103200
103450
103677
103772
103805
103819
103857
103915
104092
104243
104422
101336
101336
101337
101336
101338
101338
101352
101499
101833
102303
102681
102903
103110
103315
103511
103774
103995
104204
104370
101336
101336
101337
101337
101337
101337
101339
101340
101349
101384
101490
101630
101857
102108
102340
102832
103660
104050
104205
101335
101336
101336
101336
101337
101337
101338
101338
101339
101342
101357
101405
101491
101585
101659
101785
102734
103860
104039
101335
101335
101336
101336
101337
101337
101338
101338
101339
101339
101347
101395
101541
101762
101874
102033
103119
103906
103889
101335
101335
101335
101336
101336
101337
101338
101338
101338
101336
101338
101406
102224
103030
103232
103319
103757
103936
103871
101334
101335
101335
101336
101336
101336
101337
101337
101336
101335
101334
101403
102615
103652
103759
103836
103934
103947
103933
101334
101334
101335
101335
101335
101336
101336
101336
101335
101334
101332
101374
101776
102403
103203
103743
103841
103812
103951
101334
101334
101334
101335
101335
101335
101335
101335
101334
101332
101332
101332
101331
101332
101524
102696
103671
103059
103886
101333
101333
101334
101334
101334
101334
101334
101334
101333
101332
101331
101331
101331
101331
101332
101484
102751
103008
103183
101333
101333
101333
101333
101334
101334
101334
101334
101333
101332
101331
101331
101331
101332
101333
101355
102193
102981
102300
101332
101333
101333
101333
101333
101333
101333
101333
101333
101332
101332
101332
101332
101333
101333
101351
101760
102458
101840
101332
101332
101332
101332
101333
101333
101333
101332
101332
101332
101332
101332
101332
101333
101333
101335
101470
102256
101851
101332
101332
101332
101332
101332
101332
101332
101332
101332
101332
101332
101332
101332
101333
101333
101333
101363
102128
101855
101331
101331
101331
101331
101331
101331
101331
101331
101331
101332
101332
101332
101332
101333
101333
101334
101366
101556
101886
101331
101331
101331
101331
101331
101331
101331
101331
101331
101331
101331
101332
101332
101332
101333
101333
101334
101333
101992
101330
101330
101330
101330
101330
101330
101330
101330
101330
101331
101331
101331
101332
101332
101333
101333
101334
101333
102103
101330
101330
101330
101330
101329
101329
101330
101330
101330
101330
101330
101331
101332
101332
101333
101333
101334
101333
102126
101329
101329
101329
101329
101329
101329
101329
101329
101329
101330
101330
101330
101331
101332
101333
101333
101334
101334
102038
101329
101329
101328
101328
101328
101328
101328
101328
101328
101329
101329
101330
101331
101331
101333
101333
101334
101333
101962
101328
101328
101328
101327
101327
101327
101327
101327
101328
101328
101329
101329
101330
101331
101333
101333
101334
101334
102163
101328
101327
101327
101326
101326
101326
101325
101326
101326
101327
101328
101329
101330
101330
101331
101332
101335
101367
102295
101327
101327
101326
101326
101325
101324
101324
101324
101325
101326
101327
101328
101329
101329
101332
101333
101336
101476
102354
101327
101326
101326
101325
101324
101323
101323
101323
101324
101325
101326
101327
101327
101326
101326
101377
101550
101498
101662
101326
101326
101325
101324
101323
101322
101321
101322
101323
101324
101325
101326
101326
101325
101321
101323
101799
102066
101510
101326
101326
101325
101324
101323
101321
101320
101321
101322
101323
101324
101325
101326
101326
101324
101325
101376
103103
102045
101326
101325
101325
101324
101323
101321
101320
101321
101322
101323
101324
101325
101325
101325
101324
101323
101322
103148
103610
101326
101326
101325
101324
101323
101322
101321
101321
101322
101324
101325
101326
101326
101326
101326
101325
101384
103336
103666
101326
101326
101325
101325
101324
101323
101322
101323
101324
101325
101326
101326
101327
101327
101326
101325
101327
102976
103721
101326
101326
101326
101325
101325
101324
101323
101324
101324
101325
101326
101327
101327
101327
101326
101327
101326
102347
103764
101326
101326
101326
101325
101325
101324
101324
101324
101325
101326
101327
101327
101327
101327
101327
101326
101326
101380
103796
101326
101326
101326
101326
101325
101325
101324
101325
101325
101326
101326
101327
101327
101326
101326
101326
101326
101331
103022
101325
101325
101325
101325
101325
101325
101325
101325
101325
101326
101326
101326
101326
101326
101326
101326
101326
101326
101462
101326
101325
101326
101325
101325
101325
101324
101324
101325
101325
101325
101325
101325
101325
101325
101325
101325
101325
101326
)
;

boundaryField
{
    leftWall
    {
        type            zeroGradient;
    }
    rightWall
    {
        type            zeroGradient;
    }
    lowerWall
    {
        type            zeroGradient;
    }
    atmosphere
    {
        type            fixedValue;
        value           uniform 101325;
    }
    defaultFaces
    {
        type            empty;
    }
}


// ************************************************************************* //
