/*--------------------------------*- C++ -*----------------------------------*\
| =========                 |                                                 |
| \\      /  F ield         | OpenFOAM: The Open Source CFD Toolbox           |
|  \\    /   O peration     | Version:  2012                                  |
|   \\  /    A nd           | Website:  www.openfoam.com                      |
|    \\/     M anipulation  |                                                 |
\*---------------------------------------------------------------------------*/
FoamFile
{
    version     2.0;
    format      ascii;
    class       volScalarField;
    location    "0.48";
    object      rho;
}
// * * * * * * * * * * * * * * * * * * * * * * * * * * * * * * * * * * * * * //

dimensions      [1 -3 0 0 0 0 0];


internalField   nonuniform List<scalar> 
2268
(
1000.05
1000.05
1000.05
1000.05
1000.05
1000.05
1000.05
1000.05
1000.05
1000.05
1000.05
1000.05
1000.05
1000.05
1000.05
1000.05
1000.05
1000.05
1000.05
1000.05
1000.05
1000.05
999.685
1000.05
1000.05
1000.05
1000.05
1000.05
1000.05
1000.05
1000.05
1000.05
1000.05
1000.05
1000.05
1000.05
1000.05
1000.05
1000.05
1000.05
1000.05
1000.05
1000.05
1000.05
1000.05
999.681
1000.05
1000.05
1000.05
1000.05
1000.05
1000.05
1000.05
1000.05
1000.05
1000.05
1000.05
1000.05
1000.05
1000.05
1000.05
1000.05
1000.05
1000.05
1000.05
1000.05
1000.05
1000.05
999.681
1000.05
1000.05
1000.05
1000.05
1000.05
1000.05
1000.05
1000.05
1000.05
1000.05
1000.05
1000.05
1000.05
1000.05
1000.05
1000.05
1000.05
1000.05
1000.05
1000.05
1000.05
1000.05
999.971
1000.05
1000.05
1000.05
1000.05
1000.05
1000.05
1000.05
1000.05
1000.05
1000.05
1000.05
1000.05
1000.05
1000.05
1000.05
1000.05
1000.05
1000.05
1000.05
1000.05
1000.05
1000.05
1000.05
1000.05
1000.05
1000.05
1000.05
1000.05
1000.05
1000.05
1000.05
1000.05
1000.05
1000.05
1000.05
1000.05
1000.05
1000.05
1000.05
1000.05
1000.05
1000.05
1000.05
1000.05
1000.05
1000.05
1000.05
1000.05
1000.05
1000.05
1000.05
1000.05
1000.05
1000.05
1000.05
1000.05
1000.05
1000.05
1000.05
1000.05
1000.05
1000.05
1000.05
1000.05
1000.05
1000.05
1000.05
1000.05
1000.05
1000.05
1000.05
1000.05
1000.05
1000.05
1000.05
1000.05
1000.05
1000.05
1000.05
1000.05
1000.05
1000.05
1000.05
1000.05
1000.05
1000.05
1000.05
1000.05
1000.05
1000.05
1000.05
1000.05
1.30528
1.30528
1.30528
1.30528
1.30528
1.30528
1.30538
1.30616
1.30666
1.30641
1.3107
11.4813
241.205
523.804
583.892
589.292
611.402
611.408
611.408
1.30528
1.30527
1.30528
1.30528
1.30528
1.30528
1.30536
1.30605
1.30655
1.30622
1.56009
5.02557
7.60102
7.79195
13.7144
73.5765
276.932
467.369
608.979
1.30527
1.30527
1.30527
1.30528
1.30528
1.30528
1.30531
1.30584
1.30652
1.30666
1.30659
1.3041
1.30364
1.30348
1.30369
1.30485
2.84751
103.332
290.035
1.30527
1.30527
1.30527
1.30528
1.30528
1.30527
1.30528
1.30554
1.30634
1.3066
1.30578
1.30517
1.30494
1.30492
1.30549
1.32426
4.81872
69.1982
327.461
1.30527
1.30527
1.30529
1.30535
1.30528
1.30527
1.30527
1.30532
1.3059
1.3062
1.30581
1.30535
1.30515
1.30512
1.30537
1.32344
2.00876
96.8482
717.004
1.30527
1.30527
1.30548
1.30569
1.30536
1.30527
1.30527
1.30527
1.30547
1.30591
1.3058
1.30548
1.30521
1.30514
1.30548
1.30615
1.34881
41.1391
717.006
1.30527
1.3053
1.3073
1.30717
1.30614
1.3053
1.30526
1.30525
1.30531
1.30554
1.30566
1.30552
1.3053
1.3052
1.3053
1.30522
1.3059
14.45
717.003
1.30527
1.3058
4.23534
3.82421
2.51007
1.4063
1.30554
1.30525
1.30526
1.30533
1.30545
1.30548
1.30539
1.30529
1.30533
1.30525
1.30512
3.61591
705.179
995.013
994.87
995.269
995.581
995.927
996.337
997.066
997.604
998.34
998.95
999.457
999.819
999.989
1000.04
1000.05
1000.05
1000.05
1000.05
1000.05
1000.05
1000.05
1000.05
999.669
648.647
647.1
655.887
663.445
673.759
687.076
710.298
732.22
766.023
802.459
846.055
893.967
940.924
976.203
993.154
1000.05
1000.05
1000.05
1000.05
1000.05
1000.05
1000.05
999.561
23.3077
24.0704
26.6921
29.2578
34.0034
40.4062
50.9082
62.7083
82.6252
107.117
143.42
192.417
266.205
382.535
556.47
752.139
956.675
1000.05
1000.05
1000.05
1000.05
1000.05
999.989
1.29333
1.29333
1.29333
1.29333
1.29333
1.29334
1.29334
1.29335
1.29336
1.29336
1.29337
1.29337
1.29338
1.2934
9.75291
47.3193
143.734
339.282
628.391
955.947
1000.05
1000.05
1000.05
1.29328
1.29328
1.29328
1.29328
1.29328
1.29328
1.29328
1.29328
1.29329
1.29329
1.29331
1.29331
1.2934
1.29342
1.29331
1.29333
2.03621
9.10046
52.7092
154.544
344.804
619.349
944.335
1.29326
1.29326
1.29326
1.29327
1.29327
1.29327
1.29327
1.29327
1.29327
1.29327
1.29337
1.29429
1.29523
1.29539
1.29434
1.2933
1.29329
1.30466
1.48501
2.7666
8.87225
42.7322
149.07
1.29326
1.29326
1.29326
1.29326
1.29326
1.29326
1.29326
1.29326
1.29326
1.29326
1.29339
1.2956
1.29572
1.29572
1.2946
1.29331
1.29328
1.29328
1.29329
1.29349
1.30162
1.29385
1.54214
1.29326
1.29326
1.29326
1.29326
1.29326
1.29326
1.29326
1.29326
1.29326
1.29326
1.29341
1.29366
1.29409
1.29344
1.29327
1.29329
1.29331
1.29329
1.29328
1.29332
1.29343
1.29382
1.29332
1.29325
1.29326
1.29326
1.29326
1.29326
1.29326
1.29326
1.29326
1.29326
1.29327
1.29326
1.29326
1.29326
1.29326
1.29327
1.29329
1.29331
1.29331
1.29328
1.29332
1.29328
1.29328
1.29945
1.29325
1.29325
1.29325
1.29325
1.29325
1.29325
1.29326
1.29326
1.29326
1.29326
1.29326
1.29326
1.29326
1.29326
1.29326
1.29327
1.29328
1.2933
1.29328
1.29327
1.29327
1.29328
1.29354
1.29325
1.29325
1.29325
1.29325
1.29325
1.29325
1.29325
1.29325
1.29325
1.29326
1.29326
1.29326
1.29326
1.29326
1.29326
1.29326
1.29326
1.29327
1.29327
1.29327
1.29327
1.29327
1.29328
1.29325
1.29325
1.29325
1.29325
1.29325
1.29325
1.29325
1.29325
1.29325
1.29325
1.29325
1.29325
1.29326
1.29326
1.29326
1.29326
1.29326
1.29326
1.29326
1.29327
1.29327
1.29327
1.29327
1.29324
1.29325
1.29325
1.29325
1.29325
1.29325
1.29325
1.29325
1.29325
1.29325
1.29325
1.29325
1.29325
1.29325
1.29326
1.29326
1.29326
1.29326
1.29326
1.29326
1.29327
1.29327
1.29327
1.29324
1.29324
1.29324
1.29324
1.29324
1.29324
1.29324
1.29324
1.29325
1.29325
1.29325
1.29325
1.29325
1.29325
1.29325
1.29325
1.29325
1.29326
1.29326
1.29326
1.29326
1.29326
1.29327
1.29324
1.29324
1.29324
1.29324
1.29324
1.29324
1.29324
1.29324
1.29324
1.29324
1.29324
1.29324
1.29325
1.29325
1.29325
1.29325
1.29325
1.29325
1.29325
1.29326
1.29326
1.29326
1.29326
1.29324
1.29324
1.29324
1.29324
1.29324
1.29324
1.29324
1.29324
1.29324
1.29324
1.29324
1.29324
1.29324
1.29324
1.29324
1.29325
1.29325
1.29325
1.29325
1.29325
1.29325
1.29326
1.29326
1.29323
1.29323
1.29323
1.29323
1.29323
1.29323
1.29323
1.29323
1.29323
1.29324
1.29324
1.29324
1.29324
1.29324
1.29324
1.29324
1.29324
1.29325
1.29325
1.29325
1.29325
1.29325
1.29325
1.29323
1.29323
1.29323
1.29323
1.29323
1.29323
1.29323
1.29323
1.29323
1.29323
1.29323
1.29323
1.29323
1.29324
1.29324
1.29324
1.29324
1.29324
1.29324
1.29324
1.29325
1.29325
1.29325
1.29322
1.29322
1.29322
1.29322
1.29322
1.29322
1.29322
1.29323
1.29323
1.29323
1.29323
1.29323
1.29323
1.29323
1.29323
1.29323
1.29324
1.29324
1.29324
1.29324
1.29324
1.29324
1.29324
1.29322
1.29322
1.29322
1.29322
1.29322
1.29322
1.29322
1.29322
1.29322
1.29322
1.29322
1.29322
1.29323
1.29323
1.29323
1.29323
1.29323
1.29323
1.29323
1.29323
1.29324
1.29324
1.29324
1.29321
1.29321
1.29321
1.29321
1.29321
1.29321
1.29321
1.29321
1.29321
1.29322
1.29322
1.29322
1.29322
1.29322
1.29322
1.29322
1.29323
1.29323
1.29323
1.29323
1.29323
1.29323
1.29323
1.2932
1.2932
1.2932
1.2932
1.2932
1.2932
1.2932
1.29321
1.29321
1.29321
1.29321
1.29321
1.29321
1.29321
1.29322
1.29322
1.29322
1.29322
1.29322
1.29322
1.29323
1.29323
1.29323
1.29319
1.29319
1.29319
1.29319
1.29319
1.29319
1.29319
1.29319
1.29319
1.2932
1.2932
1.2932
1.2932
1.2932
1.29321
1.29321
1.29321
1.29321
1.29321
1.29322
1.29322
1.29322
1.29322
1.29317
1.29317
1.29317
1.29317
1.29317
1.29317
1.29317
1.29318
1.29318
1.29318
1.29318
1.29319
1.29319
1.29319
1.29319
1.2932
1.2932
1.2932
1.29321
1.29321
1.29321
1.29321
1.29321
1.29315
1.29315
1.29315
1.29315
1.29315
1.29315
1.29316
1.29316
1.29316
1.29316
1.29316
1.29317
1.29317
1.29317
1.29318
1.29318
1.29319
1.29319
1.29319
1.2932
1.2932
1.2932
1.29321
1.29313
1.29313
1.29314
1.29314
1.29314
1.29314
1.29314
1.29314
1.29314
1.29314
1.29315
1.29315
1.29315
1.29315
1.29316
1.29316
1.29317
1.29317
1.29318
1.29318
1.29319
1.29319
1.2932
1.29312
1.29312
1.29312
1.29312
1.29312
1.29312
1.29312
1.29313
1.29313
1.29313
1.29313
1.29313
1.29313
1.29314
1.29314
1.29314
1.29315
1.29315
1.29316
1.29316
1.29317
1.29318
1.29319
1.29311
1.29311
1.29311
1.29311
1.29311
1.29311
1.29311
1.29311
1.29311
1.29312
1.29312
1.29312
1.29312
1.29312
1.29312
1.29313
1.29313
1.29314
1.29314
1.29315
1.29315
1.29316
1.29317
1.2931
1.2931
1.2931
1.2931
1.2931
1.2931
1.2931
1.2931
1.29311
1.29311
1.29311
1.29311
1.29311
1.29311
1.29311
1.29312
1.29312
1.29312
1.29313
1.29313
1.29314
1.29315
1.29316
1.2931
1.2931
1.2931
1.2931
1.2931
1.2931
1.2931
1.2931
1.2931
1.2931
1.2931
1.2931
1.2931
1.2931
1.29311
1.29311
1.29311
1.29311
1.29312
1.29312
1.29313
1.29314
1.29315
1.29309
1.29309
1.29309
1.29309
1.29309
1.29309
1.29309
1.29309
1.29309
1.29309
1.29309
1.29309
1.2931
1.2931
1.2931
1.2931
1.2931
1.29311
1.29311
1.29311
1.29312
1.29313
1.29314
1.29309
1.29309
1.29309
1.29309
1.29309
1.29309
1.29309
1.29309
1.29309
1.29309
1.29309
1.29309
1.29309
1.29309
1.29309
1.2931
1.2931
1.2931
1.2931
1.29311
1.29311
1.29312
1.29314
1.29308
1.29308
1.29308
1.29308
1.29308
1.29308
1.29308
1.29308
1.29309
1.29309
1.29309
1.29309
1.29309
1.29309
1.29309
1.29309
1.29309
1.2931
1.2931
1.2931
1.29311
1.29312
1.29313
1.29308
1.29308
1.29308
1.29308
1.29308
1.29308
1.29308
1.29308
1.29308
1.29309
1.29309
1.29309
1.29309
1.29309
1.29309
1.29309
1.29309
1.2931
1.2931
1.2931
1.29311
1.29312
1.29313
1.29309
1.29309
1.29309
1.29309
1.29309
1.29309
1.29309
1.29309
1.29309
1.29309
1.29309
1.29309
1.29309
1.29309
1.29309
1.29309
1.2931
1.2931
1.2931
1.2931
1.29311
1.29312
1.29313
1.29309
1.29309
1.29309
1.29309
1.29309
1.29309
1.29309
1.29309
1.29309
1.29309
1.29309
1.29309
1.29309
1.29309
1.29309
1.29309
1.2931
1.2931
1.2931
1.29311
1.29311
1.29312
1.29313
1.29309
1.29309
1.29309
1.29309
1.29309
1.29309
1.29309
1.29309
1.29309
1.29309
1.29309
1.29309
1.29309
1.29309
1.29309
1.29309
1.2931
1.2931
1.2931
1.29311
1.29312
1.29312
1.29314
1.29309
1.29309
1.29309
1.29309
1.29309
1.29309
1.29309
1.29309
1.29309
1.29309
1.29309
1.29309
1.29309
1.29309
1.29309
1.29309
1.2931
1.2931
1.2931
1.29311
1.29312
1.29313
1.29314
1.29309
1.29309
1.29309
1.29309
1.29309
1.29309
1.29309
1.29309
1.29309
1.29309
1.29309
1.29309
1.29309
1.29309
1.29309
1.29309
1.29309
1.2931
1.2931
1.29311
1.29312
1.29313
1.29314
1.29309
1.29309
1.29309
1.29309
1.29309
1.29309
1.29309
1.29309
1.29309
1.29309
1.29309
1.29309
1.29309
1.29309
1.29309
1.29309
1.29309
1.2931
1.2931
1.29311
1.29312
1.29314
1.29315
1.29309
1.29309
1.29309
1.29308
1.29308
1.29308
1.29308
1.29308
1.29308
1.29308
1.29308
1.29308
1.29308
1.29308
1.29308
1.29309
1.29309
1.29309
1.2931
1.29311
1.29312
1.29314
1.29316
1.29308
1.29308
1.29308
1.29308
1.29308
1.29308
1.29308
1.29308
1.29308
1.29308
1.29308
1.29308
1.29308
1.29308
1.29308
1.29308
1.29309
1.29309
1.2931
1.29311
1.29312
1.29315
1.29317
999.588
999.879
999.879
981.869
999.503
999.504
999.866
999.867
999.918
999.945
999.714
999.696
1000.05
1000.05
1000.04
999.995
995.138
1000.05
1000.05
1000.02
248.09
326.761
416.112
537.123
3.27222
5.85985
10.9082
18.7254
1.2933
1.29331
1.29332
1.29333
1.30053
1.30054
1.29788
1.2933
1.29392
1.29385
1.29346
1.29329
1.29328
1.29335
1.29332
1.29328
1.29328
1.29328
1.29328
1.29328
1.29327
1.29327
1.29328
1.29328
1.29327
1.29327
1.29327
1.29327
1.29326
1.29327
1.29327
1.29327
1.29326
1.29326
1.29326
1.29326
1.29326
1.29326
1.29326
1.29326
1.29325
1.29325
1.29325
1.29325
1.29325
1.29325
1.29325
1.29325
1.29324
1.29324
1.29324
1.29324
1.29324
1.29324
1.29324
1.29324
1.29323
1.29323
1.29323
1.29323
1.29322
1.29322
1.29322
1.29322
1.29322
1.29322
1.29322
1.29322
1.29321
1.29321
1.29321
1.29321
1.2932
1.2932
1.2932
1.2932
1.29319
1.29319
1.29319
1.2932
1.29318
1.29318
1.29319
1.29319
1.29317
1.29317
1.29318
1.29318
1.29316
1.29317
1.29317
1.29318
1.29315
1.29316
1.29317
1.29317
1.29315
1.29316
1.29317
1.29317
1.29315
1.29316
1.29316
1.29317
1.29315
1.29316
1.29316
1.29316
1.29315
1.29316
1.29316
1.29316
1.29315
1.29316
1.29316
1.29316
1.29315
1.29316
1.29316
1.29315
1.29315
1.29316
1.29316
1.29316
1.29315
1.29316
1.29316
1.29318
1.29316
1.29316
1.29317
1.29324
1.29316
1.29316
1.29321
1.29342
1.29318
1.29318
1.29318
1.2932
151.386
120.281
277.518
193.719
24.9691
1.54028
1.30526
1.30523
1.30524
1.30525
1.3053
1.30536
1.30537
1.30534
1.30534
1.30524
1.30513
1.30546
636.415
919.19
944.684
997.216
765.296
120.732
2.72405
1.30561
1.30518
1.30522
1.30522
1.30524
1.30525
1.30529
1.30529
1.30528
1.30518
1.30515
1.30554
605.213
1000.01
1000.05
1000.05
988.349
403.494
13.1242
1.31159
1.30526
1.30523
1.30521
1.30522
1.30522
1.30524
1.30523
1.30523
1.30516
1.30521
1.30548
630.174
1000.02
1000.05
1000.05
1000.05
703.366
62.9942
1.68698
1.30569
1.30522
1.3052
1.30521
1.30521
1.30522
1.30521
1.30521
1.30518
1.30527
1.30537
743.06
999.729
999.987
1000.05
1000.05
985.84
394.769
15.0777
1.50639
1.30522
1.30514
1.30515
1.30517
1.30522
1.30522
1.30522
1.30518
1.30532
1.30628
843.204
828.167
942.257
988.165
998.942
999.838
937.767
373.493
1.30637
1.305
1.3047
1.30471
1.30475
1.3049
1.30515
1.30548
1.30566
1.30529
98.4636
910.616
47.5303
138.37
422.129
871.68
990.574
995.526
951.308
603.876
102.94
1.30286
1.30224
1.30255
1.30323
1.30423
1.30528
1.30538
1.30499
532.676
979.721
1.29335
1.29338
1.29344
75.6866
353.068
877.278
999.143
999.145
860.73
596.987
260.684
155.476
140.134
146.147
161.209
217.118
472.941
917.923
993.506
1.30201
1.29912
1.29346
1.29339
4.13228
102.74
378.85
780.551
976.505
976.505
948.95
919.344
900.905
890.766
899.157
927.595
983.055
994.839
994.839
1.31113
1.32919
1.31714
1.29475
1.29335
1.29336
9.33632
94.7281
286.131
546.804
726.957
796.286
842.423
885.344
929.06
992.307
994.839
994.839
994.839
1.31149
1.32921
1.32772
1.2988
1.29332
1.29333
1.29334
1.9285
6.43328
25.2082
77.5659
140.422
211.528
275.61
353.694
569.41
873.458
985.134
994.839
1.29401
1.30109
1.30055
1.29531
1.29332
1.29331
1.29332
1.29331
1.29471
1.34993
1.96863
3.88165
4.01764
5.58194
5.66755
40.4171
463.005
958.168
993.874
1.29328
1.29328
1.29329
1.29339
1.29331
1.2933
1.29331
1.2933
1.29327
1.29336
1.87509
19.4324
45.1468
82.2344
97.0961
161.939
643.07
986.704
946.258
1.29327
1.29328
1.29328
1.29329
1.29329
1.2933
1.2933
1.29329
1.29326
1.29325
1.42281
27.8787
381.053
702.184
747.441
752.921
915.647
990.511
943.64
1.29327
1.29327
1.29328
1.29328
1.29329
1.29329
1.29329
1.29329
1.29324
1.29322
1.325
30.5374
550.802
974.187
974.418
974.418
987.854
990.511
973.125
1.29326
1.29327
1.29327
1.29327
1.29328
1.29328
1.29328
1.29328
1.29325
1.29323
1.32425
18.3924
181.41
435.666
752.59
941.447
948.998
938.273
980.816
1.29326
1.29326
1.29327
1.29327
1.29327
1.29327
1.29327
1.29327
1.29326
1.29357
1.66551
1.59257
1.29325
1.29326
75.2501
530.035
883.578
640.986
955.334
1.29325
1.29326
1.29326
1.29326
1.29326
1.29326
1.29326
1.29326
1.29325
1.29324
1.40512
1.41185
1.29323
1.2953
1.2953
58.3915
528.114
616.787
671.478
1.29325
1.29325
1.29325
1.29326
1.29326
1.29326
1.29326
1.29326
1.29325
1.29324
1.29449
1.2942
1.29324
1.29675
1.31648
9.41193
309.217
579.161
330.046
1.29324
1.29324
1.29325
1.29325
1.29325
1.29325
1.29325
1.29325
1.29324
1.29324
1.29324
1.29324
1.29324
1.29324
1.29639
7.42261
147.676
378.998
159.93
1.29324
1.29324
1.29324
1.29324
1.29324
1.29324
1.29324
1.29326
1.29324
1.29324
1.29323
1.29324
1.29324
1.29326
1.29325
1.80296
46.9131
297.834
159.93
1.29323
1.29323
1.29323
1.29323
1.29324
1.29324
1.29323
1.29323
1.29335
1.2934
1.29328
1.29324
1.29324
1.29324
1.29325
1.29324
10.6586
249.72
159.93
1.29323
1.29323
1.29323
1.29323
1.29323
1.29323
1.29323
1.29323
1.29344
1.29347
1.29337
1.29323
1.29323
1.29324
1.29324
1.29325
11.1025
67.9632
166.577
1.29322
1.29322
1.29322
1.29322
1.29322
1.29322
1.29323
1.29322
1.29327
1.29338
1.29322
1.29322
1.29323
1.29325
1.29324
1.29324
1.57091
1.33116
194.198
1.29321
1.29321
1.29321
1.29321
1.29321
1.29321
1.29324
1.29331
1.29325
1.29325
1.29409
1.29625
1.29427
1.29326
1.29324
1.29324
1.29324
1.33113
218.801
1.29321
1.29321
1.29321
1.29321
1.2932
1.2932
1.29321
1.2933
1.29325
1.29324
1.29806
1.2986
1.29605
1.29323
1.29323
1.29323
1.29325
1.29324
217.442
1.2932
1.2932
1.2932
1.2932
1.2932
1.2932
1.29319
1.29321
1.29322
1.29337
1.29818
1.29799
1.2943
1.29322
1.29323
1.29323
1.29325
1.29325
187.005
1.29319
1.29319
1.29319
1.29319
1.29319
1.29321
1.29319
1.29319
1.29351
1.29403
1.29472
1.29493
1.29322
1.29321
1.29323
1.29322
1.29325
1.29324
161.579
1.29319
1.29319
1.29318
1.29318
1.29317
1.29324
1.29324
1.29318
1.29375
1.29378
1.29319
1.29766
1.29334
1.29358
1.29323
1.29376
1.29566
1.29323
206.677
1.29318
1.29318
1.29317
1.29316
1.29317
1.29329
1.29315
1.29315
1.29327
1.29322
1.29318
1.29989
1.31284
1.29555
1.29321
1.29361
1.33963
9.66038
232.237
1.29317
1.29317
1.29316
1.29314
1.29313
1.30552
1.30682
1.29312
1.29314
1.29316
1.29317
1.30862
1.31654
1.29583
1.29322
1.29322
1.82619
34.6658
232.322
1.29317
1.29316
1.29315
1.29312
1.2931
1.39821
1.47315
1.42248
1.29311
1.29454
1.29338
1.31825
1.31652
1.294
1.29895
12.674
50.3954
34.6789
63.9772
1.29316
1.29315
1.29314
1.29311
1.38656
1.47314
1.47312
1.47313
1.38493
1.29393
1.29488
1.31824
1.31818
1.29398
1.29647
1.41156
106.867
154.858
29.084
1.29316
1.29314
1.29316
1.30036
1.43519
1.47313
1.47311
1.47312
1.44293
1.2931
1.2966
1.31824
1.31822
1.29399
1.29462
1.29324
12.2631
380.654
145.433
1.29315
1.29315
1.29318
1.29719
1.3296
1.3938
1.42795
1.41685
1.33495
1.29309
1.29536
1.31144
1.31172
1.29413
1.29452
1.29343
1.29363
382.121
467.466
1.29316
1.29321
1.29318
1.2931
1.29308
1.29412
1.29831
1.29889
1.29402
1.29313
1.29365
1.29448
1.29503
1.29421
1.29439
1.29347
13.1034
410.106
467.466
1.29318
1.29323
1.29313
1.29311
1.29309
1.29308
1.29308
1.29308
1.2931
1.29313
1.29317
1.29319
1.29321
1.29322
1.29398
1.29407
1.29332
328.856
467.466
1.29319
1.29323
1.29317
1.2932
1.29311
1.2931
1.2931
1.29311
1.29312
1.29313
1.29315
1.29316
1.2944
1.30303
1.30304
1.29941
1.29305
198.602
467.466
1.29321
1.29321
1.29316
1.29395
1.29552
1.29392
1.29313
1.29313
1.29314
1.29438
1.29894
1.30123
1.30123
1.29786
1.29686
1.29427
1.29298
11.5187
467.466
1.29327
1.29317
1.29315
1.29445
1.29555
1.29549
1.29341
1.29659
1.30175
1.30358
1.30355
1.30163
1.29699
1.29273
1.29265
1.29308
1.29284
2.29307
314.323
1.29348
1.29315
1.29315
1.29369
1.29494
1.29428
1.29364
1.29868
1.30356
1.30351
1.2995
1.2931
1.29314
1.29255
1.29252
1.293
1.29267
1.50264
25.4043
1.2936
1.29443
1.29369
1.29319
1.29321
1.29316
1.29321
1.29421
1.29753
1.29846
1.29407
1.29262
1.29258
1.29254
1.29251
1.29257
1.29383
1.31642
1.31087
)
;

boundaryField
{
    leftWall
    {
        type            calculated;
        value           nonuniform List<scalar> 
50
(
1000.05
1000.05
1000.05
1000.05
1000.05
1000.05
1000.05
1000.05
995.013
648.647
23.3077
1.29333
1.29328
1.29326
1.29326
1.29326
1.29325
1.29325
1.29325
1.29325
1.29324
1.29324
1.29324
1.29324
1.29323
1.29323
1.29322
1.29322
1.29321
1.2932
1.29319
1.29317
1.29315
1.29313
1.29312
1.29311
1.2931
1.2931
1.29309
1.29309
1.29308
1.29308
1.29309
1.29309
1.29309
1.29309
1.29309
1.29309
1.29309
1.29308
)
;
    }
    rightWall
    {
        type            calculated;
        value           nonuniform List<scalar> 
50
(
611.408
608.979
290.035
327.461
717.004
717.006
717.003
705.179
636.415
605.213
630.174
743.06
843.204
910.616
979.721
993.506
994.839
994.839
994.839
993.874
946.258
943.64
973.125
980.816
955.334
671.478
330.046
159.93
159.93
159.93
166.577
194.198
218.801
217.442
187.005
161.579
206.677
232.237
232.322
63.9772
29.084
145.433
467.466
467.466
467.466
467.466
467.466
314.323
25.4043
1.31087
)
;
    }
    lowerWall
    {
        type            calculated;
        value           nonuniform List<scalar> 
62
(
1000.05
1000.05
1000.05
1000.05
1000.05
1000.05
1000.05
1000.05
1000.05
1000.05
1000.05
1000.05
1000.05
1000.05
1000.05
1000.05
1000.05
1000.05
1000.05
1000.05
1000.05
1000.05
999.685
999.685
999.681
999.681
999.971
1000.05
1000.05
1000.05
1000.05
999.588
999.879
999.879
981.869
1.30528
1.30528
1.30527
1.30527
1.30527
1.30527
1.30527
1.30527
1.30528
1.30528
1.30528
1.30528
1.30528
1.30528
1.30538
1.30616
1.30666
1.30641
1.3107
11.4813
241.205
523.804
583.893
589.292
611.402
611.408
611.408
)
;
    }
    atmosphere
    {
        type            calculated;
        value           nonuniform List<scalar> 
46
(
1.29317
1.29317
1.29317
1.29317
1.29317
1.29317
1.29317
1.29317
1.29317
1.29317
1.29317
1.29317
1.29317
1.29317
1.29317
1.29317
1.29318
1.29318
1.29319
1.2932
1.29321
1.29324
1.29326
1.29327
1.29327
1.29327
1.29329
1.29369
1.29452
1.29378
1.29328
1.2933
1.29325
1.29331
1.29432
1.29762
1.29856
1.29417
1.29271
1.29267
1.29264
1.2926
1.29262
1.29392
1.31652
1.31094
)
;
    }
    defaultFaces
    {
        type            empty;
    }
}


// ************************************************************************* //
