/*--------------------------------*- C++ -*----------------------------------*\
| =========                 |                                                 |
| \\      /  F ield         | OpenFOAM: The Open Source CFD Toolbox           |
|  \\    /   O peration     | Version:  2012                                  |
|   \\  /    A nd           | Website:  www.openfoam.com                      |
|    \\/     M anipulation  |                                                 |
\*---------------------------------------------------------------------------*/
FoamFile
{
    version     2.0;
    format      ascii;
    class       volScalarField;
    location    "0.48";
    object      rho2;
}
// * * * * * * * * * * * * * * * * * * * * * * * * * * * * * * * * * * * * * //

dimensions      [1 -3 0 0 0 0 0];


internalField   nonuniform List<scalar> 
2268
(
1.30206
1.30207
1.30209
1.30213
1.30217
1.30224
1.30232
1.30243
1.30257
1.30272
1.30294
1.30318
1.30349
1.30381
1.30422
1.30465
1.30516
1.30566
1.30625
1.30675
1.30734
1.30771
1.30801
1.3013
1.30131
1.30133
1.30137
1.30141
1.30148
1.30156
1.30167
1.30181
1.30196
1.30218
1.30241
1.30272
1.30305
1.30346
1.30389
1.3044
1.30491
1.30551
1.30601
1.30661
1.30698
1.3073
1.30054
1.30055
1.30057
1.3006
1.30065
1.30072
1.30079
1.30091
1.30104
1.30119
1.30141
1.30164
1.30195
1.30228
1.30268
1.30311
1.30362
1.30413
1.30473
1.30525
1.30586
1.30626
1.3066
1.29976
1.29977
1.29979
1.29982
1.29987
1.29994
1.30001
1.30012
1.30026
1.30041
1.30062
1.30085
1.30116
1.30149
1.3019
1.30234
1.30286
1.30337
1.30399
1.30453
1.30517
1.30559
1.30594
1.29899
1.299
1.29902
1.29905
1.29909
1.29916
1.29923
1.29934
1.29947
1.29963
1.29984
1.30006
1.30037
1.30069
1.3011
1.30153
1.30205
1.30256
1.30319
1.30373
1.30441
1.30484
1.30533
1.29819
1.2982
1.29822
1.29825
1.2983
1.29836
1.29843
1.29854
1.29866
1.29882
1.29902
1.29925
1.29955
1.29988
1.3003
1.30074
1.30127
1.3018
1.30245
1.30303
1.30375
1.30427
1.30473
1.29741
1.29742
1.29744
1.29747
1.29751
1.29757
1.29764
1.29774
1.29787
1.29802
1.29822
1.29844
1.29874
1.29906
1.29947
1.2999
1.30043
1.30095
1.30161
1.30218
1.30297
1.30345
1.30418
1.29661
1.29662
1.29663
1.29666
1.2967
1.29676
1.29683
1.29692
1.29704
1.29719
1.29738
1.2976
1.2979
1.29823
1.29864
1.29909
1.29963
1.30018
1.30085
1.30148
1.3023
1.30296
1.30369
1.30528
1.30528
1.30528
1.30528
1.30528
1.30528
1.30538
1.30616
1.30666
1.30641
1.30646
1.30821
1.30945
1.30958
1.30951
1.30969
1.31143
1.31499
1.32549
1.30528
1.30527
1.30528
1.30528
1.30528
1.30528
1.30536
1.30605
1.30655
1.30622
1.30614
1.30707
1.30744
1.30705
1.30673
1.30684
1.30822
1.313
1.32427
1.30527
1.30527
1.30527
1.30528
1.30528
1.30528
1.30531
1.30584
1.30642
1.30602
1.3049
1.3041
1.30364
1.30348
1.30369
1.30485
1.30781
1.31141
1.32167
1.30527
1.30527
1.30527
1.30528
1.30528
1.30527
1.30528
1.30554
1.30623
1.30618
1.30559
1.30517
1.30494
1.30492
1.30546
1.30731
1.3094
1.31114
1.32114
1.30527
1.30527
1.30529
1.30535
1.30528
1.30527
1.30527
1.30532
1.30588
1.30616
1.3058
1.30534
1.30513
1.30509
1.3053
1.3059
1.30746
1.31023
1.31666
1.30527
1.30527
1.30548
1.30569
1.30536
1.30527
1.30527
1.30527
1.30547
1.3059
1.3058
1.30547
1.3052
1.30513
1.30521
1.30521
1.30555
1.30872
1.31395
1.30527
1.3053
1.30692
1.30677
1.30576
1.3053
1.30526
1.30525
1.30531
1.30554
1.30566
1.30552
1.30529
1.3052
1.3053
1.30522
1.30512
1.30691
1.31166
1.30527
1.3058
1.31011
1.30939
1.30767
1.30557
1.30528
1.30525
1.30526
1.30533
1.30545
1.30548
1.30539
1.30529
1.30533
1.30525
1.30512
1.30589
1.31017
1.2954
1.2954
1.29542
1.29545
1.29548
1.29554
1.29561
1.29569
1.29581
1.29595
1.29613
1.29633
1.2966
1.29691
1.2973
1.29772
1.29827
1.29879
1.29951
1.30009
1.30108
1.30149
1.30282
1.29395
1.29395
1.29396
1.29397
1.29399
1.29402
1.29406
1.29411
1.29418
1.29426
1.29438
1.29454
1.29478
1.29508
1.2955
1.29596
1.29651
1.29708
1.29771
1.29848
1.29937
1.30029
1.30161
1.29342
1.29342
1.29342
1.29342
1.29343
1.29344
1.29345
1.29346
1.29348
1.2935
1.29353
1.29357
1.29363
1.29372
1.29387
1.29412
1.29453
1.29508
1.29578
1.29654
1.2973
1.29811
1.29938
1.29333
1.29333
1.29333
1.29333
1.29333
1.29334
1.29334
1.29335
1.29336
1.29336
1.29337
1.29337
1.29338
1.2934
1.29341
1.29345
1.29353
1.2937
1.29402
1.29458
1.29526
1.29621
1.29733
1.29328
1.29328
1.29328
1.29328
1.29328
1.29328
1.29328
1.29328
1.29329
1.29329
1.29329
1.2933
1.2933
1.2933
1.29331
1.29333
1.29337
1.29341
1.29346
1.29355
1.2937
1.29402
1.29463
1.29326
1.29326
1.29326
1.29327
1.29327
1.29327
1.29327
1.29327
1.29327
1.29327
1.29327
1.29327
1.29327
1.29327
1.29327
1.29328
1.29328
1.29331
1.29332
1.29335
1.29339
1.29343
1.29353
1.29326
1.29326
1.29326
1.29326
1.29326
1.29326
1.29326
1.29326
1.29326
1.29326
1.29327
1.29327
1.29327
1.29327
1.29327
1.29327
1.29327
1.29328
1.29328
1.29328
1.2933
1.29331
1.29336
1.29326
1.29326
1.29326
1.29326
1.29326
1.29326
1.29326
1.29326
1.29326
1.29326
1.29326
1.29326
1.29327
1.29327
1.29327
1.29327
1.29327
1.29327
1.29327
1.29328
1.29328
1.29329
1.29329
1.29325
1.29326
1.29326
1.29326
1.29326
1.29326
1.29326
1.29326
1.29326
1.29326
1.29326
1.29326
1.29326
1.29326
1.29327
1.29327
1.29327
1.29327
1.29327
1.29327
1.29328
1.29328
1.29328
1.29325
1.29325
1.29325
1.29325
1.29325
1.29325
1.29326
1.29326
1.29326
1.29326
1.29326
1.29326
1.29326
1.29326
1.29326
1.29326
1.29327
1.29327
1.29327
1.29327
1.29327
1.29328
1.29328
1.29325
1.29325
1.29325
1.29325
1.29325
1.29325
1.29325
1.29325
1.29325
1.29326
1.29326
1.29326
1.29326
1.29326
1.29326
1.29326
1.29326
1.29327
1.29327
1.29327
1.29327
1.29327
1.29328
1.29325
1.29325
1.29325
1.29325
1.29325
1.29325
1.29325
1.29325
1.29325
1.29325
1.29325
1.29325
1.29326
1.29326
1.29326
1.29326
1.29326
1.29326
1.29326
1.29327
1.29327
1.29327
1.29327
1.29324
1.29325
1.29325
1.29325
1.29325
1.29325
1.29325
1.29325
1.29325
1.29325
1.29325
1.29325
1.29325
1.29325
1.29325
1.29326
1.29326
1.29326
1.29326
1.29326
1.29327
1.29327
1.29327
1.29324
1.29324
1.29324
1.29324
1.29324
1.29324
1.29324
1.29324
1.29325
1.29325
1.29325
1.29325
1.29325
1.29325
1.29325
1.29325
1.29325
1.29326
1.29326
1.29326
1.29326
1.29326
1.29327
1.29324
1.29324
1.29324
1.29324
1.29324
1.29324
1.29324
1.29324
1.29324
1.29324
1.29324
1.29324
1.29325
1.29325
1.29325
1.29325
1.29325
1.29325
1.29325
1.29326
1.29326
1.29326
1.29326
1.29324
1.29324
1.29324
1.29324
1.29324
1.29324
1.29324
1.29324
1.29324
1.29324
1.29324
1.29324
1.29324
1.29324
1.29324
1.29325
1.29325
1.29325
1.29325
1.29325
1.29325
1.29326
1.29326
1.29323
1.29323
1.29323
1.29323
1.29323
1.29323
1.29323
1.29323
1.29323
1.29324
1.29324
1.29324
1.29324
1.29324
1.29324
1.29324
1.29324
1.29325
1.29325
1.29325
1.29325
1.29325
1.29325
1.29323
1.29323
1.29323
1.29323
1.29323
1.29323
1.29323
1.29323
1.29323
1.29323
1.29323
1.29323
1.29323
1.29324
1.29324
1.29324
1.29324
1.29324
1.29324
1.29324
1.29325
1.29325
1.29325
1.29322
1.29322
1.29322
1.29322
1.29322
1.29322
1.29322
1.29323
1.29323
1.29323
1.29323
1.29323
1.29323
1.29323
1.29323
1.29323
1.29324
1.29324
1.29324
1.29324
1.29324
1.29324
1.29324
1.29322
1.29322
1.29322
1.29322
1.29322
1.29322
1.29322
1.29322
1.29322
1.29322
1.29322
1.29322
1.29323
1.29323
1.29323
1.29323
1.29323
1.29323
1.29323
1.29323
1.29324
1.29324
1.29324
1.29321
1.29321
1.29321
1.29321
1.29321
1.29321
1.29321
1.29321
1.29321
1.29322
1.29322
1.29322
1.29322
1.29322
1.29322
1.29322
1.29323
1.29323
1.29323
1.29323
1.29323
1.29323
1.29323
1.2932
1.2932
1.2932
1.2932
1.2932
1.2932
1.2932
1.29321
1.29321
1.29321
1.29321
1.29321
1.29321
1.29321
1.29322
1.29322
1.29322
1.29322
1.29322
1.29322
1.29323
1.29323
1.29323
1.29319
1.29319
1.29319
1.29319
1.29319
1.29319
1.29319
1.29319
1.29319
1.2932
1.2932
1.2932
1.2932
1.2932
1.29321
1.29321
1.29321
1.29321
1.29321
1.29322
1.29322
1.29322
1.29322
1.29317
1.29317
1.29317
1.29317
1.29317
1.29317
1.29317
1.29318
1.29318
1.29318
1.29318
1.29319
1.29319
1.29319
1.29319
1.2932
1.2932
1.2932
1.29321
1.29321
1.29321
1.29321
1.29321
1.29315
1.29315
1.29315
1.29315
1.29315
1.29315
1.29316
1.29316
1.29316
1.29316
1.29316
1.29317
1.29317
1.29317
1.29318
1.29318
1.29319
1.29319
1.29319
1.2932
1.2932
1.2932
1.29321
1.29313
1.29313
1.29314
1.29314
1.29314
1.29314
1.29314
1.29314
1.29314
1.29314
1.29315
1.29315
1.29315
1.29315
1.29316
1.29316
1.29317
1.29317
1.29318
1.29318
1.29319
1.29319
1.2932
1.29312
1.29312
1.29312
1.29312
1.29312
1.29312
1.29312
1.29313
1.29313
1.29313
1.29313
1.29313
1.29313
1.29314
1.29314
1.29314
1.29315
1.29315
1.29316
1.29316
1.29317
1.29318
1.29319
1.29311
1.29311
1.29311
1.29311
1.29311
1.29311
1.29311
1.29311
1.29311
1.29312
1.29312
1.29312
1.29312
1.29312
1.29312
1.29313
1.29313
1.29314
1.29314
1.29315
1.29315
1.29316
1.29317
1.2931
1.2931
1.2931
1.2931
1.2931
1.2931
1.2931
1.2931
1.29311
1.29311
1.29311
1.29311
1.29311
1.29311
1.29311
1.29312
1.29312
1.29312
1.29313
1.29313
1.29314
1.29315
1.29316
1.2931
1.2931
1.2931
1.2931
1.2931
1.2931
1.2931
1.2931
1.2931
1.2931
1.2931
1.2931
1.2931
1.2931
1.29311
1.29311
1.29311
1.29311
1.29312
1.29312
1.29313
1.29314
1.29315
1.29309
1.29309
1.29309
1.29309
1.29309
1.29309
1.29309
1.29309
1.29309
1.29309
1.29309
1.29309
1.2931
1.2931
1.2931
1.2931
1.2931
1.29311
1.29311
1.29311
1.29312
1.29313
1.29314
1.29309
1.29309
1.29309
1.29309
1.29309
1.29309
1.29309
1.29309
1.29309
1.29309
1.29309
1.29309
1.29309
1.29309
1.29309
1.2931
1.2931
1.2931
1.2931
1.29311
1.29311
1.29312
1.29314
1.29308
1.29308
1.29308
1.29308
1.29308
1.29308
1.29308
1.29308
1.29309
1.29309
1.29309
1.29309
1.29309
1.29309
1.29309
1.29309
1.29309
1.2931
1.2931
1.2931
1.29311
1.29312
1.29313
1.29308
1.29308
1.29308
1.29308
1.29308
1.29308
1.29308
1.29308
1.29308
1.29309
1.29309
1.29309
1.29309
1.29309
1.29309
1.29309
1.29309
1.2931
1.2931
1.2931
1.29311
1.29312
1.29313
1.29309
1.29309
1.29309
1.29309
1.29309
1.29309
1.29309
1.29309
1.29309
1.29309
1.29309
1.29309
1.29309
1.29309
1.29309
1.29309
1.2931
1.2931
1.2931
1.2931
1.29311
1.29312
1.29313
1.29309
1.29309
1.29309
1.29309
1.29309
1.29309
1.29309
1.29309
1.29309
1.29309
1.29309
1.29309
1.29309
1.29309
1.29309
1.29309
1.2931
1.2931
1.2931
1.29311
1.29311
1.29312
1.29313
1.29309
1.29309
1.29309
1.29309
1.29309
1.29309
1.29309
1.29309
1.29309
1.29309
1.29309
1.29309
1.29309
1.29309
1.29309
1.29309
1.2931
1.2931
1.2931
1.29311
1.29312
1.29312
1.29314
1.29309
1.29309
1.29309
1.29309
1.29309
1.29309
1.29309
1.29309
1.29309
1.29309
1.29309
1.29309
1.29309
1.29309
1.29309
1.29309
1.2931
1.2931
1.2931
1.29311
1.29312
1.29313
1.29314
1.29309
1.29309
1.29309
1.29309
1.29309
1.29309
1.29309
1.29309
1.29309
1.29309
1.29309
1.29309
1.29309
1.29309
1.29309
1.29309
1.29309
1.2931
1.2931
1.29311
1.29312
1.29313
1.29314
1.29309
1.29309
1.29309
1.29309
1.29309
1.29309
1.29309
1.29309
1.29309
1.29309
1.29309
1.29309
1.29309
1.29309
1.29309
1.29309
1.29309
1.2931
1.2931
1.29311
1.29312
1.29314
1.29315
1.29309
1.29309
1.29309
1.29308
1.29308
1.29308
1.29308
1.29308
1.29308
1.29308
1.29308
1.29308
1.29308
1.29308
1.29308
1.29309
1.29309
1.29309
1.2931
1.29311
1.29312
1.29314
1.29316
1.29308
1.29308
1.29308
1.29308
1.29308
1.29308
1.29308
1.29308
1.29308
1.29308
1.29308
1.29308
1.29308
1.29308
1.29308
1.29308
1.29309
1.29309
1.2931
1.29311
1.29312
1.29315
1.29317
1.30211
1.30542
1.30593
1.30916
1.30261
1.3034
1.30433
1.30518
1.29997
1.30087
1.30148
1.30242
1.29802
1.29854
1.29917
1.29971
1.29524
1.29571
1.29621
1.29678
1.29362
1.2937
1.29381
1.29395
1.29338
1.2934
1.29342
1.29343
1.2933
1.29331
1.29332
1.29333
1.29329
1.29329
1.29329
1.2933
1.29328
1.29328
1.29329
1.29329
1.29328
1.29328
1.29328
1.29328
1.29328
1.29328
1.29328
1.29328
1.29327
1.29327
1.29328
1.29328
1.29327
1.29327
1.29327
1.29327
1.29326
1.29327
1.29327
1.29327
1.29326
1.29326
1.29326
1.29326
1.29326
1.29326
1.29326
1.29326
1.29325
1.29325
1.29325
1.29325
1.29325
1.29325
1.29325
1.29325
1.29324
1.29324
1.29324
1.29324
1.29324
1.29324
1.29324
1.29324
1.29323
1.29323
1.29323
1.29323
1.29322
1.29322
1.29322
1.29322
1.29322
1.29322
1.29322
1.29322
1.29321
1.29321
1.29321
1.29321
1.2932
1.2932
1.2932
1.2932
1.29319
1.29319
1.29319
1.2932
1.29318
1.29318
1.29319
1.29319
1.29317
1.29317
1.29318
1.29318
1.29316
1.29317
1.29317
1.29318
1.29315
1.29316
1.29317
1.29317
1.29315
1.29316
1.29317
1.29317
1.29315
1.29316
1.29316
1.29317
1.29315
1.29316
1.29316
1.29316
1.29315
1.29316
1.29316
1.29316
1.29315
1.29316
1.29316
1.29316
1.29315
1.29316
1.29316
1.29315
1.29315
1.29316
1.29316
1.29315
1.29315
1.29316
1.29316
1.29315
1.29316
1.29316
1.29316
1.29316
1.29316
1.29316
1.29316
1.29316
1.29318
1.29318
1.29318
1.29318
1.31145
1.3126
1.31211
1.31065
1.3091
1.30548
1.3052
1.30523
1.30524
1.30525
1.3053
1.30536
1.30537
1.30534
1.30534
1.30524
1.30512
1.30546
1.30968
1.30825
1.30923
1.3094
1.30974
1.30907
1.30625
1.30514
1.30518
1.30522
1.30522
1.30524
1.30525
1.30529
1.30529
1.30528
1.30518
1.30512
1.30554
1.30967
1.30372
1.30505
1.3062
1.30773
1.30997
1.31015
1.30597
1.30526
1.30523
1.30521
1.30522
1.30522
1.30524
1.30523
1.30523
1.30515
1.30517
1.30548
1.30965
1.301
1.30228
1.30389
1.30573
1.30956
1.31124
1.30646
1.3053
1.30521
1.3052
1.30521
1.30521
1.30521
1.30521
1.3052
1.30515
1.30523
1.30537
1.30954
1.29787
1.29916
1.30079
1.30261
1.30618
1.31024
1.31106
1.30615
1.30522
1.30514
1.30515
1.30517
1.30521
1.30522
1.30522
1.30515
1.30532
1.30628
1.30961
1.2944
1.29525
1.29718
1.29968
1.3023
1.30661
1.31038
1.30637
1.305
1.3047
1.30471
1.30475
1.30489
1.30515
1.30548
1.30566
1.30529
1.30892
1.31038
1.29346
1.29355
1.29378
1.29483
1.29757
1.30173
1.3053
1.30921
1.30872
1.30286
1.30224
1.30255
1.30323
1.30423
1.30528
1.30538
1.30499
1.30861
1.31174
1.29335
1.29338
1.29344
1.29347
1.29373
1.29519
1.29886
1.30274
1.30655
1.3064
1.30596
1.30617
1.30672
1.30776
1.30915
1.30989
1.31001
1.31135
1.31353
1.29331
1.29333
1.29335
1.29337
1.29343
1.29349
1.29373
1.2951
1.29768
1.30032
1.30323
1.30496
1.30587
1.30666
1.3076
1.30795
1.30903
1.31063
1.31297
1.29329
1.29331
1.29332
1.29333
1.29335
1.29336
1.2934
1.29345
1.29359
1.29394
1.29479
1.29608
1.29775
1.29952
1.30123
1.30326
1.30598
1.30863
1.31078
1.29329
1.2933
1.2933
1.29331
1.29332
1.29333
1.29334
1.29336
1.29338
1.29337
1.29348
1.2938
1.29506
1.2968
1.29798
1.29934
1.30295
1.30538
1.30713
1.29328
1.29329
1.29329
1.2933
1.29331
1.29331
1.29332
1.29331
1.29333
1.29335
1.29346
1.29396
1.29494
1.29602
1.29693
1.29794
1.29977
1.30207
1.30345
1.29328
1.29328
1.29329
1.29329
1.2933
1.2933
1.29331
1.2933
1.29327
1.29324
1.29331
1.29346
1.29465
1.29652
1.29755
1.29792
1.2993
1.30042
1.30117
1.29327
1.29328
1.29328
1.29328
1.29329
1.29329
1.2933
1.29329
1.29326
1.29322
1.29324
1.29343
1.29417
1.2956
1.29692
1.29786
1.29895
1.29916
1.29948
1.29327
1.29327
1.29328
1.29328
1.29328
1.29329
1.29329
1.29329
1.29324
1.29322
1.29324
1.29332
1.29363
1.29453
1.29588
1.29683
1.29764
1.29771
1.29784
1.29326
1.29327
1.29327
1.29327
1.29328
1.29328
1.29328
1.29328
1.29325
1.29323
1.29324
1.29329
1.29343
1.29361
1.29404
1.29504
1.29595
1.29589
1.2962
1.29326
1.29326
1.29327
1.29327
1.29327
1.29327
1.29327
1.29327
1.29326
1.29324
1.29323
1.29326
1.29325
1.29326
1.29333
1.29347
1.29418
1.29406
1.29449
1.29325
1.29326
1.29326
1.29326
1.29326
1.29326
1.29326
1.29326
1.29325
1.29324
1.29322
1.29323
1.29323
1.29323
1.29323
1.29316
1.2929
1.29284
1.29341
1.29325
1.29325
1.29325
1.29326
1.29326
1.29326
1.29326
1.29326
1.29325
1.29324
1.29323
1.29323
1.29323
1.29324
1.29324
1.29313
1.29258
1.29248
1.29283
1.29324
1.29324
1.29325
1.29325
1.29325
1.29325
1.29325
1.29325
1.29324
1.29324
1.29324
1.29324
1.29324
1.29324
1.29324
1.29318
1.29276
1.29223
1.29224
1.29324
1.29324
1.29324
1.29324
1.29324
1.29324
1.29324
1.29324
1.29324
1.29324
1.29323
1.29324
1.29324
1.29324
1.29325
1.29324
1.29313
1.29268
1.29205
1.29323
1.29323
1.29323
1.29323
1.29324
1.29324
1.29323
1.29323
1.29323
1.29323
1.29323
1.29323
1.29324
1.29324
1.29324
1.29324
1.29325
1.29321
1.29237
1.29323
1.29323
1.29323
1.29323
1.29323
1.29323
1.29323
1.29323
1.29322
1.29323
1.29323
1.29323
1.29323
1.29324
1.29324
1.29325
1.29326
1.29337
1.293
1.29322
1.29322
1.29322
1.29322
1.29322
1.29322
1.29322
1.29322
1.29322
1.29322
1.29322
1.29322
1.29323
1.29323
1.29324
1.29324
1.29324
1.29328
1.29303
1.29321
1.29321
1.29321
1.29321
1.29321
1.29321
1.29321
1.29321
1.29321
1.29321
1.29321
1.29321
1.29322
1.29323
1.29324
1.29324
1.29324
1.29325
1.29303
1.29321
1.29321
1.29321
1.29321
1.2932
1.2932
1.2932
1.2932
1.2932
1.2932
1.2932
1.2932
1.29321
1.29322
1.29323
1.29323
1.29325
1.29324
1.29306
1.2932
1.2932
1.2932
1.2932
1.2932
1.29319
1.29319
1.29319
1.29319
1.29319
1.29319
1.2932
1.29321
1.29321
1.29323
1.29323
1.29325
1.29325
1.2931
1.29319
1.29319
1.29319
1.29319
1.29318
1.29318
1.29318
1.29318
1.29318
1.29318
1.29319
1.29319
1.2932
1.29321
1.29322
1.29322
1.29325
1.29324
1.29312
1.29319
1.29319
1.29318
1.29318
1.29317
1.29316
1.29316
1.29316
1.29316
1.29317
1.29318
1.29318
1.29319
1.2932
1.29323
1.29323
1.29326
1.29323
1.2931
1.29318
1.29318
1.29317
1.29316
1.29315
1.29314
1.29314
1.29314
1.29315
1.29316
1.29317
1.29317
1.29318
1.29319
1.29321
1.29322
1.29324
1.29311
1.29305
1.29317
1.29317
1.29316
1.29314
1.29313
1.29311
1.29311
1.29311
1.29313
1.29314
1.29316
1.29316
1.29317
1.29318
1.29322
1.29322
1.29313
1.29302
1.29337
1.29317
1.29316
1.29314
1.29312
1.2931
1.29308
1.29307
1.29308
1.2931
1.29312
1.29314
1.29314
1.29315
1.29315
1.29314
1.29312
1.29319
1.29326
1.29361
1.29316
1.29315
1.29313
1.29311
1.29308
1.29306
1.29305
1.29305
1.29308
1.29311
1.29313
1.29313
1.29314
1.29314
1.29308
1.2931
1.29323
1.2937
1.29371
1.29316
1.29314
1.29312
1.2931
1.29307
1.29305
1.29303
1.29304
1.29307
1.2931
1.29312
1.29313
1.29314
1.29314
1.29312
1.29321
1.29341
1.29342
1.29361
1.29315
1.29313
1.29311
1.2931
1.29307
1.29305
1.29304
1.29304
1.29307
1.29309
1.29311
1.29312
1.29313
1.29313
1.29312
1.29325
1.29346
1.29338
1.29362
1.29315
1.29313
1.29311
1.2931
1.29308
1.29306
1.29305
1.29306
1.29308
1.2931
1.29312
1.29313
1.29314
1.29315
1.29317
1.2933
1.2935
1.2934
1.29349
1.29314
1.29313
1.29312
1.29311
1.29309
1.29308
1.29308
1.29308
1.2931
1.29311
1.29313
1.29314
1.29316
1.29317
1.29321
1.2932
1.29332
1.29329
1.29345
1.29314
1.29313
1.29312
1.29312
1.29311
1.2931
1.2931
1.29311
1.29312
1.29313
1.29315
1.29316
1.29317
1.29318
1.29318
1.2931
1.29305
1.29315
1.29323
1.29314
1.29313
1.29313
1.29312
1.29312
1.29312
1.29313
1.29313
1.29314
1.29316
1.29317
1.29317
1.29317
1.29301
1.29291
1.29293
1.29298
1.29299
1.29284
1.29315
1.29314
1.29313
1.29314
1.29314
1.29314
1.29314
1.29314
1.29315
1.29315
1.29313
1.29309
1.293
1.29261
1.29255
1.29263
1.29284
1.29289
1.29265
1.29315
1.29314
1.29313
1.29313
1.29313
1.29314
1.29314
1.29314
1.29313
1.29309
1.29296
1.2928
1.29267
1.29255
1.29252
1.29253
1.29267
1.29282
1.2926
1.29318
1.29316
1.29314
1.29313
1.29313
1.29312
1.29311
1.2931
1.29308
1.29297
1.29275
1.29262
1.29257
1.29254
1.29251
1.29252
1.29261
1.29277
1.29259
)
;

boundaryField
{
    leftWall
    {
        type            calculated;
        value           nonuniform List<scalar> 
50
(
1.30206
1.3013
1.30054
1.29976
1.29899
1.29819
1.29741
1.29661
1.2954
1.29395
1.29342
1.29333
1.29328
1.29326
1.29326
1.29326
1.29325
1.29325
1.29325
1.29325
1.29324
1.29324
1.29324
1.29324
1.29323
1.29323
1.29322
1.29322
1.29321
1.2932
1.29319
1.29317
1.29315
1.29313
1.29312
1.29311
1.2931
1.2931
1.29309
1.29309
1.29308
1.29308
1.29309
1.29309
1.29309
1.29309
1.29309
1.29309
1.29309
1.29308
)
;
    }
    rightWall
    {
        type            calculated;
        value           nonuniform List<scalar> 
50
(
1.32549
1.32427
1.32167
1.32114
1.31666
1.31395
1.31166
1.31017
1.30968
1.30967
1.30965
1.30954
1.30961
1.31038
1.31174
1.31353
1.31297
1.31078
1.30713
1.30345
1.30117
1.29948
1.29784
1.2962
1.29449
1.29341
1.29283
1.29224
1.29205
1.29237
1.293
1.29303
1.29303
1.29306
1.2931
1.29312
1.2931
1.29305
1.29337
1.29361
1.29371
1.29361
1.29362
1.29349
1.29345
1.29323
1.29284
1.29265
1.2926
1.29259
)
;
    }
    lowerWall
    {
        type            calculated;
        value           nonuniform List<scalar> 
62
(
1.30244
1.30245
1.30247
1.3025
1.30255
1.30262
1.30269
1.30281
1.30295
1.3031
1.30332
1.30355
1.30386
1.30419
1.3046
1.30502
1.30553
1.30603
1.30663
1.30713
1.30771
1.30808
1.30839
1.30801
1.3073
1.3066
1.30594
1.30533
1.30473
1.30418
1.30369
1.30291
1.30622
1.30673
1.30994
1.30528
1.30528
1.30527
1.30527
1.30527
1.30527
1.30527
1.30527
1.30528
1.30528
1.30528
1.30528
1.30528
1.30528
1.30538
1.30616
1.30666
1.30641
1.30646
1.30821
1.30954
1.30978
1.30973
1.30991
1.31166
1.31522
1.32572
)
;
    }
    atmosphere
    {
        type            calculated;
        value           nonuniform List<scalar> 
46
(
1.29317
1.29317
1.29317
1.29317
1.29317
1.29317
1.29317
1.29317
1.29317
1.29317
1.29317
1.29317
1.29317
1.29317
1.29317
1.29317
1.29318
1.29318
1.29319
1.2932
1.29321
1.29324
1.29326
1.29327
1.29327
1.29327
1.29327
1.29327
1.29325
1.29323
1.29322
1.29322
1.29322
1.29321
1.2932
1.29317
1.29306
1.29284
1.29271
1.29267
1.29264
1.2926
1.29262
1.29271
1.29286
1.29267
)
;
    }
    defaultFaces
    {
        type            empty;
    }
}


// ************************************************************************* //
