/*--------------------------------*- C++ -*----------------------------------*\
| =========                 |                                                 |
| \\      /  F ield         | OpenFOAM: The Open Source CFD Toolbox           |
|  \\    /   O peration     | Version:  2012                                  |
|   \\  /    A nd           | Website:  www.openfoam.com                      |
|    \\/     M anipulation  |                                                 |
\*---------------------------------------------------------------------------*/
FoamFile
{
    version     2.0;
    format      ascii;
    class       volVectorField;
    location    "0.48";
    object      Uc;
}
// * * * * * * * * * * * * * * * * * * * * * * * * * * * * * * * * * * * * * //

dimensions      [0 1 -1 0 0 0 0];


internalField   nonuniform List<vector> 
2268
(
(0.014748 -0.00696981 0)
(0.0446077 -0.00714163 0)
(0.0736553 -0.00658605 0)
(0.100939 -0.00630783 0)
(0.127724 -0.00635067 0)
(0.155073 -0.00657418 0)
(0.18067 -0.0055228 0)
(0.202973 -0.00501751 0)
(0.223507 -0.00468658 0)
(0.241111 -0.00363312 0)
(0.255208 -0.00302894 0)
(0.266667 -0.00238643 0)
(0.275637 -0.00185307 0)
(0.280563 -0.000474593 0)
(0.279513 0.000970864 0)
(0.273279 0.00197504 0)
(0.26241 0.00316164 0)
(0.246269 0.00446651 0)
(0.223872 0.00611821 0)
(0.192825 0.00855426 0)
(0.152614 0.0104491 0)
(0.102945 0.0130242 0)
(0.037693 0.0178135 0)
(0.0146858 -0.02088 0)
(0.0445275 -0.0214459 0)
(0.0737683 -0.0198285 0)
(0.101297 -0.0189689 0)
(0.128176 -0.0190508 0)
(0.15542 -0.0196743 0)
(0.180901 -0.0165621 0)
(0.203334 -0.0151202 0)
(0.224098 -0.0141009 0)
(0.24159 -0.0108049 0)
(0.255827 -0.00924753 0)
(0.267788 -0.00723594 0)
(0.276342 -0.00528535 0)
(0.280771 -0.00146308 0)
(0.280167 0.00274078 0)
(0.274478 0.00583963 0)
(0.263764 0.00949705 0)
(0.247011 0.0136768 0)
(0.222984 0.0188478 0)
(0.189384 0.0263761 0)
(0.145079 0.0325686 0)
(0.0889946 0.0408832 0)
(0.0288022 0.0492388 0)
(0.0146306 -0.0347347 0)
(0.0445188 -0.0358191 0)
(0.0740564 -0.0332335 0)
(0.101929 -0.0317462 0)
(0.128975 -0.031758 0)
(0.156057 -0.0326409 0)
(0.181367 -0.0275993 0)
(0.204149 -0.0254513 0)
(0.225317 -0.0235863 0)
(0.243122 -0.0180009 0)
(0.257888 -0.0157578 0)
(0.270217 -0.012205 0)
(0.278532 -0.00828831 0)
(0.282701 -0.00252379 0)
(0.283012 0.00393999 0)
(0.278763 0.00933674 0)
(0.269205 0.0155803 0)
(0.25401 0.0226921 0)
(0.232487 0.0313595 0)
(0.202264 0.0440263 0)
(0.161619 0.0550648 0)
(0.106017 0.0711697 0)
(0.0366605 0.0801761 0)
(0.0146229 -0.0485597 0)
(0.044675 -0.0503214 0)
(0.0745674 -0.0468174 0)
(0.102815 -0.0446846 0)
(0.13012 -0.0445053 0)
(0.157055 -0.0454208 0)
(0.182162 -0.0386461 0)
(0.205307 -0.0361097 0)
(0.226849 -0.0331121 0)
(0.244881 -0.0254117 0)
(0.259954 -0.0224486 0)
(0.27211 -0.0170855 0)
(0.280124 -0.011125 0)
(0.284356 -0.00365749 0)
(0.284916 0.00466233 0)
(0.280889 0.0125253 0)
(0.271139 0.0215166 0)
(0.254922 0.0316012 0)
(0.23196 0.043474 0)
(0.200582 0.0610235 0)
(0.159378 0.0767487 0)
(0.103051 0.102383 0)
(0.0348503 0.113972 0)
(0.0146831 -0.0624095 0)
(0.044919 -0.0649631 0)
(0.0751003 -0.0605661 0)
(0.103762 -0.057831 0)
(0.131465 -0.0573551 0)
(0.158388 -0.058024 0)
(0.183486 -0.0497691 0)
(0.207248 -0.0471552 0)
(0.229325 -0.0426807 0)
(0.247833 -0.0331114 0)
(0.263613 -0.0293297 0)
(0.276211 -0.0219028 0)
(0.284704 -0.0141089 0)
(0.289512 -0.00494587 0)
(0.290572 0.00518538 0)
(0.287453 0.0153795 0)
(0.279473 0.0270415 0)
(0.265964 0.0401244 0)
(0.246379 0.0550585 0)
(0.218798 0.0773026 0)
(0.181466 0.0975851 0)
(0.126105 0.134329 0)
(0.0459293 0.152147 0)
(0.0149 -0.0763903 0)
(0.0452892 -0.0796333 0)
(0.0756569 -0.0745109 0)
(0.104892 -0.0712477 0)
(0.133117 -0.0703694 0)
(0.160156 -0.0705119 0)
(0.185412 -0.0610781 0)
(0.20969 -0.0585497 0)
(0.231887 -0.0522097 0)
(0.250457 -0.0411056 0)
(0.266734 -0.0364852 0)
(0.2794 -0.0266869 0)
(0.287654 -0.0172394 0)
(0.292517 -0.00638598 0)
(0.29372 0.00555673 0)
(0.290786 0.0178686 0)
(0.282989 0.0320082 0)
(0.269268 0.048026 0)
(0.249136 0.0659273 0)
(0.220607 0.0929512 0)
(0.182486 0.117595 0)
(0.1257 0.167318 0)
(0.0450709 0.195154 0)
(0.0152296 -0.0906293 0)
(0.045717 -0.0941641 0)
(0.0761192 -0.0886995 0)
(0.10601 -0.0850015 0)
(0.134885 -0.0836007 0)
(0.162236 -0.0829848 0)
(0.187962 -0.0726993 0)
(0.212917 -0.0701954 0)
(0.235397 -0.0616781 0)
(0.254802 -0.0495842 0)
(0.272315 -0.0439753 0)
(0.28583 -0.0315698 0)
(0.294999 -0.0205904 0)
(0.300584 -0.00797244 0)
(0.302058 0.00587834 0)
(0.299495 0.0201449 0)
(0.293106 0.0364358 0)
(0.282471 0.0551089 0)
(0.267158 0.0755956 0)
(0.2449 0.107284 0)
(0.213956 0.135901 0)
(0.160345 0.201185 0)
(0.0621211 0.245812 0)
(0.0156604 -0.105228 0)
(0.046439 -0.10852 0)
(0.0769093 -0.103112 0)
(0.107462 -0.0991541 0)
(0.137065 -0.0970841 0)
(0.16479 -0.0955298 0)
(0.191022 -0.0847095 0)
(0.216342 -0.0819447 0)
(0.238753 -0.0711442 0)
(0.258877 -0.058799 0)
(0.277169 -0.0516813 0)
(0.290605 -0.0366012 0)
(0.299808 -0.0242415 0)
(0.305411 -0.00960846 0)
(0.30688 0.00612365 0)
(0.304705 0.0221385 0)
(0.299129 0.0400965 0)
(0.289293 0.0611228 0)
(0.274581 0.083771 0)
(0.252294 0.120161 0)
(0.22132 0.152287 0)
(0.168148 0.235265 0)
(0.0660691 0.306393 0)
(-0.0367631 0.0156374 0)
(-0.111608 0.0161983 0)
(-0.140898 -0.00373967 0)
(-0.110698 -0.00910585 0)
(-0.0890919 -8.42618e-05 0)
(-0.188965 0.0425662 0)
(-0.521279 0.0987608 0)
(-1.17698 0.180122 0)
(-1.98144 0.162143 0)
(-2.54401 0.0771836 0)
(-2.74323 0.00742044 0)
(-2.73547 -0.0109286 0)
(-2.68162 -0.011936 0)
(-2.57384 -0.0337457 0)
(-2.33416 -0.0681994 0)
(-1.98251 -0.0813356 0)
(-1.6244 -0.0707626 0)
(-1.18869 -0.114036 0)
(-0.459877 -0.195801 0)
(-0.0417574 0.0490365 0)
(-0.125772 0.0503711 0)
(-0.15744 -0.0119839 0)
(-0.113115 -0.0325611 0)
(-0.0729125 -0.00291942 0)
(-0.164692 0.126923 0)
(-0.463772 0.28293 0)
(-1.01929 0.511107 0)
(-1.72376 0.473143 0)
(-2.28039 0.242319 0)
(-2.53691 0.0358565 0)
(-2.52543 -0.0477407 0)
(-2.33934 -0.0768434 0)
(-2.06798 -0.129585 0)
(-1.7908 -0.19192 0)
(-1.56867 -0.201377 0)
(-1.36055 -0.191094 0)
(-1.00294 -0.330401 0)
(-0.381053 -0.55507 0)
(-0.0483166 0.0873503 0)
(-0.141953 0.0876231 0)
(-0.176684 -0.0209926 0)
(-0.108496 -0.0714111 0)
(-0.0202826 -0.018692 0)
(-0.0594219 0.198384 0)
(-0.279358 0.432213 0)
(-0.747611 0.79726 0)
(-1.49077 0.802876 0)
(-2.28764 0.488471 0)
(-2.82938 0.12906 0)
(-3.02712 -0.0618372 0)
(-3.05612 -0.129418 0)
(-3.07259 -0.185356 0)
(-3.17047 -0.212519 0)
(-3.16415 -0.278242 0)
(-2.64952 -0.421492 0)
(-1.62624 -0.686008 0)
(-0.514326 -0.936735 0)
(-0.0583566 0.132725 0)
(-0.170805 0.129909 0)
(-0.208211 -0.0325939 0)
(-0.104845 -0.132783 0)
(0.040461 -0.0566509 0)
(0.0610589 0.24423 0)
(-0.0570933 0.530169 0)
(-0.320737 1.01059 0)
(-0.83001 1.12236 0)
(-1.45581 0.774376 0)
(-1.86371 0.247105 0)
(-2.07128 -0.00761031 0)
(-2.30915 -0.070247 0)
(-2.60481 -0.112039 0)
(-2.89773 -0.12002 0)
(-2.95994 -0.347351 0)
(-2.452 -0.786768 0)
(-1.4204 -1.19249 0)
(-0.411769 -1.33136 0)
(-0.0629287 0.184314 0)
(-0.196687 0.183045 0)
(-0.247646 -0.0481448 0)
(-0.0981634 -0.224791 0)
(0.124444 -0.121146 0)
(0.202454 0.266782 0)
(0.145474 0.582114 0)
(0.0729187 1.10163 0)
(-0.102148 1.32246 0)
(-0.50029 1.01001 0)
(-0.933848 0.369506 0)
(-1.25662 0.0955951 0)
(-1.47559 0.0208956 0)
(-1.58521 -0.0307993 0)
(-1.59898 -0.0708416 0)
(-1.45342 -0.43187 0)
(-1.1036 -1.06646 0)
(-0.614164 -1.5583 0)
(-0.174363 -1.58228 0)
(-0.0771446 0.243896 0)
(-0.201875 0.233411 0)
(-0.177391 -0.0872653 0)
(0.0310271 -0.337942 0)
(0.256874 -0.198782 0)
(0.351084 0.271152 0)
(0.325967 0.612668 0)
(0.330113 1.10017 0)
(0.415317 1.36213 0)
(0.377858 1.15569 0)
(0.0500431 0.547781 0)
(-0.440992 0.263521 0)
(-0.806111 0.101419 0)
(-0.895007 -0.0268976 0)
(-0.711106 -0.14711 0)
(-0.496258 -0.508983 0)
(-0.466508 -1.15097 0)
(-0.358028 -1.72755 0)
(-0.112017 -1.70495 0)
(-0.0663704 0.304941 0)
(-0.0832223 0.232574 0)
(0.0995326 -0.174652 0)
(0.28687 -0.419051 0)
(0.408618 -0.265698 0)
(0.498898 0.2595 0)
(0.482301 0.642047 0)
(0.474034 1.07254 0)
(0.59896 1.30034 0)
(0.679799 1.19902 0)
(0.490407 0.724502 0)
(0.103934 0.460101 0)
(-0.231973 0.203046 0)
(-0.325413 -0.0509646 0)
(-0.155045 -0.273712 0)
(0.0421203 -0.557646 0)
(0.0105992 -1.10172 0)
(-0.109694 -1.77155 0)
(-0.0697019 -1.78312 0)
(0.0665281 0.304544 0)
(0.250816 0.161158 0)
(0.412348 -0.249852 0)
(0.421717 -0.42745 0)
(0.445345 -0.319248 0)
(0.587583 0.21403 0)
(0.636325 0.673826 0)
(0.611274 1.05495 0)
(0.729613 1.21445 0)
(0.883539 1.18503 0)
(0.837439 0.838676 0)
(0.622348 0.601847 0)
(0.367295 0.3127 0)
(0.186705 -0.0440434 0)
(0.189226 -0.35415 0)
(0.288972 -0.603473 0)
(0.255962 -1.02846 0)
(0.0645811 -1.71223 0)
(-0.0225471 -1.82281 0)
(0.0161638 -0.128877 0)
(0.0474773 -0.130893 0)
(0.0782363 -0.126058 0)
(0.109566 -0.12214 0)
(0.140131 -0.118813 0)
(0.168657 -0.115577 0)
(0.196014 -0.104559 0)
(0.222414 -0.1006 0)
(0.24602 -0.0868095 0)
(0.268376 -0.0751166 0)
(0.288395 -0.0641317 0)
(0.303569 -0.0457543 0)
(0.314845 -0.0307725 0)
(0.321765 -0.0126808 0)
(0.323846 0.00640961 0)
(0.322081 0.0246551 0)
(0.317402 0.0449178 0)
(0.313322 0.0650523 0)
(0.311699 0.0884246 0)
(0.315984 0.121733 0)
(0.327791 0.153484 0)
(0.355797 0.231043 0)
(0.397055 0.317384 0)
(0.0169904 -0.162344 0)
(0.0492481 -0.161607 0)
(0.0806664 -0.158118 0)
(0.113359 -0.154698 0)
(0.145363 -0.1494 0)
(0.175168 -0.143857 0)
(0.204097 -0.133067 0)
(0.2318 -0.12666 0)
(0.256774 -0.109735 0)
(0.279851 -0.0979791 0)
(0.29891 -0.0806345 0)
(0.314124 -0.0598477 0)
(0.326035 -0.0400097 0)
(0.332889 -0.0172958 0)
(0.335998 0.00580632 0)
(0.336218 0.0268129 0)
(0.333533 0.050161 0)
(0.328845 0.0686236 0)
(0.32259 0.0927722 0)
(0.322213 0.113458 0)
(0.332971 0.139078 0)
(0.366254 0.183839 0)
(0.432065 0.256961 0)
(0.0171656 -0.19683 0)
(0.0483249 -0.191172 0)
(0.0785676 -0.190837 0)
(0.111333 -0.188075 0)
(0.142894 -0.180211 0)
(0.172119 -0.172671 0)
(0.201058 -0.162705 0)
(0.229239 -0.153474 0)
(0.255776 -0.134974 0)
(0.281041 -0.121605 0)
(0.303981 -0.0994979 0)
(0.326218 -0.0789054 0)
(0.34461 -0.0516942 0)
(0.357393 -0.0256454 0)
(0.366074 0.00201836 0)
(0.369103 0.0271209 0)
(0.366595 0.0549818 0)
(0.358842 0.080289 0)
(0.351215 0.0990532 0)
(0.354777 0.103974 0)
(0.3716 0.120838 0)
(0.403207 0.13685 0)
(0.457004 0.183718 0)
(0.00632621 -0.220455 0)
(0.0191416 -0.211772 0)
(0.0317158 -0.213302 0)
(0.0441416 -0.211068 0)
(0.0565071 -0.201413 0)
(0.0689613 -0.193416 0)
(0.0805975 -0.182814 0)
(0.0909039 -0.172142 0)
(0.0988695 -0.151105 0)
(0.104938 -0.13712 0)
(0.103745 -0.106029 0)
(0.0944618 -0.0856184 0)
(0.0607421 -0.0298293 0)
(0.0293524 -0.0290909 0)
(0.0955807 -0.0700975 0)
(0.221188 -0.0302087 0)
(0.298052 0.0375685 0)
(0.321588 0.0857969 0)
(0.334281 0.0922621 0)
(0.356024 0.0851833 0)
(0.379368 0.103345 0)
(0.403704 0.102216 0)
(0.440891 0.126895 0)
(0.000932758 -0.227749 0)
(0.00519722 -0.221641 0)
(0.00993069 -0.220824 0)
(0.0126405 -0.218754 0)
(0.016045 -0.209573 0)
(0.0205281 -0.202275 0)
(0.024591 -0.189729 0)
(0.0286957 -0.179706 0)
(0.0340238 -0.156897 0)
(0.0422771 -0.145718 0)
(0.0552325 -0.109249 0)
(0.0754498 -0.0933827 0)
(0.101852 -0.0147023 0)
(0.134833 -0.0458085 0)
(0.164814 -0.150063 0)
(0.189655 -0.101397 0)
(0.218797 0.00231354 0)
(0.238168 0.0780067 0)
(0.262597 0.0627576 0)
(0.304219 0.0510437 0)
(0.345386 0.0767465 0)
(0.3891 0.0642861 0)
(0.437158 0.0789364 0)
(0.00079487 -0.229482 0)
(0.0031908 -0.226597 0)
(0.00564211 -0.223085 0)
(0.0071617 -0.220738 0)
(0.0083357 -0.212184 0)
(0.00930859 -0.205142 0)
(0.0100937 -0.191729 0)
(0.0115554 -0.183294 0)
(0.0155773 -0.1627 0)
(0.0233674 -0.156034 0)
(0.0418317 -0.130508 0)
(0.075387 -0.126168 0)
(0.139522 -0.0729182 0)
(0.211701 -0.0932906 0)
(0.216914 -0.13795 0)
(0.179841 -0.101206 0)
(0.182616 -0.0299311 0)
(0.222785 0.0505135 0)
(0.255962 0.032567 0)
(0.261078 0.0344928 0)
(0.257589 0.0555433 0)
(0.286409 0.0124809 0)
(0.34903 0.0193191 0)
(0.0016857 -0.231972 0)
(0.00531896 -0.23016 0)
(0.00903081 -0.225709 0)
(0.0125414 -0.223163 0)
(0.0163476 -0.214758 0)
(0.0210977 -0.208313 0)
(0.0266838 -0.194955 0)
(0.0333687 -0.18825 0)
(0.0416946 -0.170149 0)
(0.0508757 -0.165637 0)
(0.0610358 -0.149671 0)
(0.0721353 -0.151885 0)
(0.0864005 -0.126002 0)
(0.104045 -0.130489 0)
(0.129893 -0.131966 0)
(0.16604 -0.106251 0)
(0.210497 -0.0723546 0)
(0.272715 -0.00997285 0)
(0.336247 -0.00413633 0)
(0.373802 0.028351 0)
(0.378304 0.0607786 0)
(0.349347 0.00752907 0)
(0.317137 -0.006258 0)
(0.00208205 -0.235756 0)
(0.00609495 -0.234055 0)
(0.0105183 -0.229985 0)
(0.0155115 -0.227428 0)
(0.0208905 -0.219719 0)
(0.027245 -0.214507 0)
(0.0347777 -0.20194 0)
(0.043375 -0.196619 0)
(0.0538693 -0.18069 0)
(0.0652414 -0.175748 0)
(0.0781424 -0.162733 0)
(0.0923673 -0.164271 0)
(0.109839 -0.14551 0)
(0.127549 -0.146511 0)
(0.13216 -0.146552 0)
(0.132196 -0.128027 0)
(0.144104 -0.107227 0)
(0.174318 -0.068004 0)
(0.22675 -0.0626642 0)
(0.301026 -0.0255259 0)
(0.387614 0.0231028 0)
(0.451454 0.0101518 0)
(0.473 0.00184875 0)
(0.00318676 -0.241049 0)
(0.00973398 -0.23937 0)
(0.0167192 -0.23613 0)
(0.0240322 -0.233646 0)
(0.0315082 -0.226416 0)
(0.0395184 -0.222242 0)
(0.0482519 -0.210549 0)
(0.0573074 -0.205748 0)
(0.066846 -0.191691 0)
(0.0759269 -0.185299 0)
(0.0834815 -0.173736 0)
(0.0890434 -0.17315 0)
(0.0947638 -0.159936 0)
(0.10183 -0.156982 0)
(0.111538 -0.150466 0)
(0.124585 -0.137254 0)
(0.139016 -0.124468 0)
(0.158023 -0.100232 0)
(0.175763 -0.100964 0)
(0.194921 -0.0811387 0)
(0.238824 -0.0524457 0)
(0.31199 -0.0520101 0)
(0.392029 -0.0380947 0)
(0.00379795 -0.248066 0)
(0.011598 -0.246768 0)
(0.0195881 -0.243779 0)
(0.0276801 -0.241475 0)
(0.0359909 -0.234449 0)
(0.044701 -0.23101 0)
(0.0543495 -0.220252 0)
(0.0647354 -0.21558 0)
(0.0763454 -0.20311 0)
(0.0889104 -0.195631 0)
(0.101353 -0.183498 0)
(0.112493 -0.180168 0)
(0.122452 -0.168671 0)
(0.131698 -0.164635 0)
(0.137368 -0.158263 0)
(0.141734 -0.146951 0)
(0.148496 -0.136064 0)
(0.15861 -0.117899 0)
(0.171203 -0.113777 0)
(0.185883 -0.10233 0)
(0.201042 -0.0906138 0)
(0.21254 -0.0989374 0)
(0.23018 -0.0893452 0)
(0.00459585 -0.2565 0)
(0.0138783 -0.255498 0)
(0.0232863 -0.252531 0)
(0.0328083 -0.250423 0)
(0.0425474 -0.243638 0)
(0.0525326 -0.240606 0)
(0.0630251 -0.230895 0)
(0.0737335 -0.226134 0)
(0.0849371 -0.215481 0)
(0.0968412 -0.207849 0)
(0.109084 -0.196086 0)
(0.120782 -0.190528 0)
(0.131747 -0.179337 0)
(0.142026 -0.173587 0)
(0.151514 -0.16454 0)
(0.160934 -0.154524 0)
(0.169522 -0.143912 0)
(0.177969 -0.1287 0)
(0.183474 -0.121159 0)
(0.185044 -0.111274 0)
(0.186536 -0.0983979 0)
(0.185326 -0.101486 0)
(0.177002 -0.0961505 0)
(0.00502362 -0.266167 0)
(0.0150874 -0.265273 0)
(0.025231 -0.262404 0)
(0.0355416 -0.260479 0)
(0.0461945 -0.254074 0)
(0.0571855 -0.25125 0)
(0.0687453 -0.242412 0)
(0.0807372 -0.237429 0)
(0.0932764 -0.228046 0)
(0.106651 -0.220688 0)
(0.12081 -0.209779 0)
(0.135087 -0.202938 0)
(0.148767 -0.191695 0)
(0.161349 -0.184201 0)
(0.171815 -0.173976 0)
(0.18078 -0.16356 0)
(0.188871 -0.151633 0)
(0.196662 -0.137293 0)
(0.2042 -0.125668 0)
(0.210289 -0.114455 0)
(0.212798 -0.0992295 0)
(0.209044 -0.0956546 0)
(0.199381 -0.0838898 0)
(0.00583787 -0.277082 0)
(0.0175519 -0.276243 0)
(0.0293366 -0.27347 0)
(0.0412013 -0.271697 0)
(0.0532308 -0.26565 0)
(0.0653079 -0.262855 0)
(0.0775687 -0.254744 0)
(0.0898336 -0.249473 0)
(0.102116 -0.240946 0)
(0.114497 -0.233671 0)
(0.127032 -0.223623 0)
(0.139488 -0.21596 0)
(0.151787 -0.204781 0)
(0.163773 -0.195804 0)
(0.175019 -0.184191 0)
(0.185547 -0.172931 0)
(0.194787 -0.159674 0)
(0.20296 -0.145291 0)
(0.209358 -0.131672 0)
(0.212867 -0.118092 0)
(0.213419 -0.0986618 0)
(0.209802 -0.0888035 0)
(0.198762 -0.0699205 0)
(0.00621369 -0.289193 0)
(0.0186974 -0.288449 0)
(0.0313491 -0.285822 0)
(0.0441589 -0.284143 0)
(0.0571859 -0.278385 0)
(0.0703328 -0.275469 0)
(0.0837337 -0.267919 0)
(0.0973392 -0.262297 0)
(0.111035 -0.254229 0)
(0.124799 -0.246663 0)
(0.138488 -0.236985 0)
(0.151932 -0.228628 0)
(0.164926 -0.217532 0)
(0.177326 -0.20756 0)
(0.188823 -0.195288 0)
(0.199315 -0.182957 0)
(0.208967 -0.168631 0)
(0.21786 -0.153481 0)
(0.225744 -0.137829 0)
(0.231958 -0.1217 0)
(0.236373 -0.100038 0)
(0.238247 -0.0856674 0)
(0.236106 -0.0597981 0)
(0.00687587 -0.302348 0)
(0.020662 -0.301695 0)
(0.0344745 -0.299172 0)
(0.0482797 -0.297541 0)
(0.0621713 -0.292041 0)
(0.0760177 -0.288942 0)
(0.0899312 -0.281898 0)
(0.103912 -0.276043 0)
(0.11795 -0.268355 0)
(0.132038 -0.260528 0)
(0.146183 -0.251093 0)
(0.160158 -0.242077 0)
(0.173792 -0.230842 0)
(0.187033 -0.220019 0)
(0.199695 -0.207108 0)
(0.211722 -0.193768 0)
(0.222833 -0.178685 0)
(0.232812 -0.162391 0)
(0.241179 -0.145248 0)
(0.247143 -0.126516 0)
(0.250756 -0.103284 0)
(0.251045 -0.0845882 0)
(0.245815 -0.0534603 0)
(0.00736888 -0.316665 0)
(0.0221345 -0.316074 0)
(0.0368903 -0.313505 0)
(0.051606 -0.311872 0)
(0.0664259 -0.306565 0)
(0.0812664 -0.303249 0)
(0.0961991 -0.296582 0)
(0.11123 -0.290516 0)
(0.126262 -0.283098 0)
(0.141244 -0.275 0)
(0.156125 -0.265794 0)
(0.170904 -0.256274 0)
(0.185476 -0.244991 0)
(0.199717 -0.23349 0)
(0.213514 -0.220229 0)
(0.226754 -0.206039 0)
(0.239484 -0.190373 0)
(0.251499 -0.172804 0)
(0.262615 -0.154413 0)
(0.272281 -0.133057 0)
(0.280708 -0.108839 0)
(0.287097 -0.0857398 0)
(0.290307 -0.0502714 0)
(0.00789032 -0.332001 0)
(0.0236769 -0.331445 0)
(0.0394634 -0.328831 0)
(0.0551983 -0.32715 0)
(0.0709875 -0.322051 0)
(0.0867647 -0.318535 0)
(0.102591 -0.31221 0)
(0.118505 -0.305989 0)
(0.134466 -0.298774 0)
(0.150403 -0.290399 0)
(0.166295 -0.281323 0)
(0.182089 -0.271471 0)
(0.197714 -0.260143 0)
(0.213153 -0.248168 0)
(0.228263 -0.234603 0)
(0.242971 -0.219753 0)
(0.257133 -0.203686 0)
(0.270511 -0.185009 0)
(0.282925 -0.165855 0)
(0.293777 -0.142235 0)
(0.303343 -0.117741 0)
(0.310453 -0.0904009 0)
(0.314664 -0.0530635 0)
(0.00838542 -0.348359 0)
(0.0251645 -0.347817 0)
(0.0419075 -0.345153 0)
(0.058543 -0.343363 0)
(0.0751752 -0.338424 0)
(0.0917559 -0.334684 0)
(0.108305 -0.328601 0)
(0.124851 -0.322223 0)
(0.141402 -0.315217 0)
(0.158021 -0.306678 0)
(0.174715 -0.297795 0)
(0.191445 -0.287687 0)
(0.208124 -0.276396 0)
(0.224748 -0.264141 0)
(0.241263 -0.250414 0)
(0.257634 -0.235178 0)
(0.273859 -0.218801 0)
(0.289831 -0.199392 0)
(0.30554 -0.179737 0)
(0.320701 -0.154496 0)
(0.33554 -0.130006 0)
(0.348986 -0.0987937 0)
(0.36144 -0.0614165 0)
(0.00900036 -0.365833 0)
(0.0270141 -0.365313 0)
(0.0449751 -0.362538 0)
(0.0627931 -0.360606 0)
(0.0805964 -0.355791 0)
(0.0983593 -0.351835 0)
(0.116111 -0.345925 0)
(0.133859 -0.339367 0)
(0.151592 -0.332532 0)
(0.169338 -0.323903 0)
(0.187128 -0.315228 0)
(0.204948 -0.30498 0)
(0.22276 -0.293769 0)
(0.240626 -0.281433 0)
(0.258456 -0.267642 0)
(0.276241 -0.252281 0)
(0.293909 -0.235764 0)
(0.311419 -0.21608 0)
(0.328729 -0.196234 0)
(0.345711 -0.170305 0)
(0.362535 -0.146019 0)
(0.378353 -0.112192 0)
(0.394107 -0.0763677 0)
(0.00925399 -0.384181 0)
(0.0277755 -0.383687 0)
(0.0462958 -0.380832 0)
(0.0647385 -0.378759 0)
(0.0832138 -0.374102 0)
(0.10171 -0.369967 0)
(0.120213 -0.364232 0)
(0.138774 -0.357555 0)
(0.157419 -0.350908 0)
(0.176161 -0.3422 0)
(0.195022 -0.333768 0)
(0.213998 -0.323424 0)
(0.233051 -0.312378 0)
(0.252278 -0.300106 0)
(0.27164 -0.286351 0)
(0.291173 -0.271081 0)
(0.310931 -0.25458 0)
(0.331013 -0.235048 0)
(0.351508 -0.215263 0)
(0.372517 -0.189462 0)
(0.394281 -0.165648 0)
(0.4163 -0.130593 0)
(0.439461 -0.097079 0)
(0.00979389 -0.403326 0)
(0.0293932 -0.402857 0)
(0.0490154 -0.399999 0)
(0.0685997 -0.397813 0)
(0.0882533 -0.393372 0)
(0.107971 -0.389107 0)
(0.127724 -0.383544 0)
(0.147542 -0.376818 0)
(0.167462 -0.370407 0)
(0.187484 -0.361664 0)
(0.207657 -0.353539 0)
(0.227988 -0.343161 0)
(0.248426 -0.332335 0)
(0.269088 -0.320241 0)
(0.289868 -0.306563 0)
(0.31078 -0.291521 0)
(0.331857 -0.275185 0)
(0.353246 -0.256128 0)
(0.375054 -0.236701 0)
(0.397613 -0.211816 0)
(0.421282 -0.18896 0)
(0.445983 -0.15424 0)
(0.47301 -0.123878 0)
(0.00972131 -0.422942 0)
(0.0291635 -0.422484 0)
(0.0487059 -0.419738 0)
(0.0683714 -0.417525 0)
(0.0882528 -0.413397 0)
(0.108408 -0.409159 0)
(0.128852 -0.403895 0)
(0.149602 -0.397243 0)
(0.170635 -0.391146 0)
(0.191905 -0.382429 0)
(0.213453 -0.37471 0)
(0.235275 -0.364359 0)
(0.257346 -0.353866 0)
(0.279791 -0.342038 0)
(0.302542 -0.328521 0)
(0.325636 -0.313795 0)
(0.349151 -0.297733 0)
(0.37327 -0.279322 0)
(0.398176 -0.260461 0)
(0.424313 -0.237005 0)
(0.451977 -0.215368 0)
(0.48153 -0.182364 0)
(0.514336 -0.155895 0)
(0.00986644 -0.44263 0)
(0.029535 -0.442107 0)
(0.0493613 -0.439685 0)
(0.0694493 -0.437535 0)
(0.0898208 -0.433847 0)
(0.1106 -0.429855 0)
(0.131834 -0.425092 0)
(0.153555 -0.418736 0)
(0.175723 -0.413075 0)
(0.198278 -0.40455 0)
(0.221283 -0.397371 0)
(0.244678 -0.387146 0)
(0.268441 -0.377148 0)
(0.292659 -0.365659 0)
(0.317234 -0.35247 0)
(0.34222 -0.338173 0)
(0.367657 -0.322559 0)
(0.393738 -0.304953 0)
(0.420637 -0.286902 0)
(0.448741 -0.265086 0)
(0.478413 -0.244919 0)
(0.510377 -0.21465 0)
(0.546064 -0.192455 0)
(0.00931298 -0.461908 0)
(0.0278525 -0.461234 0)
(0.0466408 -0.459372 0)
(0.0658583 -0.457356 0)
(0.0855316 -0.454277 0)
(0.105885 -0.450769 0)
(0.126995 -0.446739 0)
(0.148938 -0.440979 0)
(0.171669 -0.435963 0)
(0.195114 -0.4279 0)
(0.219366 -0.421521 0)
(0.244413 -0.411687 0)
(0.270304 -0.402518 0)
(0.297045 -0.391511 0)
(0.324519 -0.378936 0)
(0.352741 -0.36519 0)
(0.381635 -0.350155 0)
(0.411291 -0.333383 0)
(0.441791 -0.316168 0)
(0.473485 -0.295927 0)
(0.506754 -0.277345 0)
(0.542591 -0.250377 0)
(0.582297 -0.232513 0)
(0.00888464 -0.4802 0)
(0.0265971 -0.479381 0)
(0.0445685 -0.478174 0)
(0.0629668 -0.476364 0)
(0.081865 -0.47404 0)
(0.101512 -0.471214 0)
(0.122035 -0.468142 0)
(0.14364 -0.463349 0)
(0.166421 -0.45934 0)
(0.190341 -0.452133 0)
(0.215384 -0.446839 0)
(0.241456 -0.437754 0)
(0.268675 -0.429837 0)
(0.297003 -0.419546 0)
(0.326334 -0.408 0)
(0.356699 -0.395016 0)
(0.387949 -0.380785 0)
(0.420076 -0.364856 0)
(0.453094 -0.348541 0)
(0.487373 -0.329869 0)
(0.523345 -0.313002 0)
(0.562092 -0.28969 0)
(0.604907 -0.276151 0)
(0.0080116 -0.497183 0)
(0.0240516 -0.496325 0)
(0.040344 -0.495672 0)
(0.0570419 -0.494144 0)
(0.0743075 -0.492611 0)
(0.0923681 -0.490546 0)
(0.11139 -0.48856 0)
(0.131657 -0.48502 0)
(0.153409 -0.482433 0)
(0.176853 -0.476651 0)
(0.202117 -0.47289 0)
(0.229086 -0.465018 0)
(0.257781 -0.458775 0)
(0.288025 -0.449485 0)
(0.319779 -0.439463 0)
(0.353071 -0.427541 0)
(0.387716 -0.414498 0)
(0.423554 -0.399462 0)
(0.460411 -0.384173 0)
(0.498544 -0.367026 0)
(0.538251 -0.351917 0)
(0.58071 -0.332405 0)
(0.62731 -0.323317 0)
(0.00722485 -0.512499 0)
(0.0217465 -0.511729 0)
(0.0364985 -0.511473 0)
(0.0516302 -0.510338 0)
(0.0673601 -0.509583 0)
(0.083865 -0.508318 0)
(0.101315 -0.507449 0)
(0.119973 -0.505257 0)
(0.140088 -0.50428 0)
(0.161991 -0.500386 0)
(0.186021 -0.498705 0)
(0.212337 -0.492766 0)
(0.241106 -0.48879 0)
(0.272058 -0.480985 0)
(0.305087 -0.473083 0)
(0.340105 -0.462585 0)
(0.376863 -0.451228 0)
(0.415085 -0.437178 0)
(0.45461 -0.423236 0)
(0.495535 -0.407433 0)
(0.537815 -0.393923 0)
(0.582684 -0.378181 0)
(0.631745 -0.3737 0)
(0.00626501 -0.526058 0)
(0.0188759 -0.525442 0)
(0.0316865 -0.525465 0)
(0.0448468 -0.524785 0)
(0.0585833 -0.524756 0)
(0.0730581 -0.524286 0)
(0.0884836 -0.524528 0)
(0.10514 -0.523675 0)
(0.123282 -0.524317 0)
(0.143224 -0.522412 0)
(0.165265 -0.522989 0)
(0.189681 -0.519478 0)
(0.216859 -0.518316 0)
(0.246818 -0.512687 0)
(0.279724 -0.50766 0)
(0.315508 -0.499178 0)
(0.353857 -0.490134 0)
(0.394305 -0.477354 0)
(0.436595 -0.465301 0)
(0.480463 -0.450602 0)
(0.525571 -0.438596 0)
(0.573264 -0.426553 0)
(0.625229 -0.426881 0)
(0.0054575 -0.537842 0)
(0.0164408 -0.537376 0)
(0.0275932 -0.537619 0)
(0.0390571 -0.537383 0)
(0.0510509 -0.538022 0)
(0.0637341 -0.538319 0)
(0.0773337 -0.539671 0)
(0.09212 -0.540139 0)
(0.108335 -0.542389 0)
(0.126292 -0.542437 0)
(0.14625 -0.545182 0)
(0.168469 -0.544162 0)
(0.193295 -0.545905 0)
(0.220904 -0.542965 0)
(0.251748 -0.541464 0)
(0.285888 -0.535662 0)
(0.323268 -0.529773 0)
(0.363817 -0.519135 0)
(0.407243 -0.509682 0)
(0.452533 -0.495845 0)
(0.498916 -0.485321 0)
(0.54735 -0.476457 0)
(0.599267 -0.481401 0)
(0.00456555 -0.547917 0)
(0.0137444 -0.547568 0)
(0.0230562 -0.547998 0)
(0.0326228 -0.548144 0)
(0.0426536 -0.549401 0)
(0.0532997 -0.550392 0)
(0.0647837 -0.552813 0)
(0.0773559 -0.554498 0)
(0.0912384 -0.558284 0)
(0.106733 -0.560168 0)
(0.124079 -0.564949 0)
(0.143568 -0.566322 0)
(0.165522 -0.57077 0)
(0.190088 -0.57055 0)
(0.217669 -0.57261 0)
(0.248355 -0.569682 0)
(0.282383 -0.567532 0)
(0.320192 -0.560144 0)
(0.361617 -0.553967 0)
(0.40581 -0.541511 0)
(0.452403 -0.533116 0)
(0.501231 -0.526432 0)
(0.552755 -0.535407 0)
(0.00388212 -0.556409 0)
(0.0116727 -0.556134 0)
(0.0195634 -0.556724 0)
(0.0276576 -0.557171 0)
(0.0361563 -0.559 0)
(0.0451986 -0.560584 0)
(0.054994 -0.564011 0)
(0.0657592 -0.566759 0)
(0.077694 -0.571976 0)
(0.0910775 -0.575505 0)
(0.106121 -0.582171 0)
(0.123101 -0.58576 0)
(0.142275 -0.592674 0)
(0.163815 -0.594994 0)
(0.188109 -0.600312 0)
(0.21523 -0.600091 0)
(0.245483 -0.601741 0)
(0.279004 -0.597639 0)
(0.315343 -0.594643 0)
(0.354438 -0.584558 0)
(0.396733 -0.579421 0)
(0.441056 -0.573765 0)
(0.487037 -0.586089 0)
(0.00316076 -0.563489 0)
(0.00949381 -0.563252 0)
(0.0159069 -0.563985 0)
(0.0224816 -0.564656 0)
(0.0293937 -0.567007 0)
(0.0367586 -0.569071 0)
(0.0447563 -0.573411 0)
(0.0535615 -0.577032 0)
(0.0633532 -0.583544 0)
(0.0743582 -0.588455 0)
(0.0867537 -0.596805 0)
(0.100769 -0.602283 0)
(0.116599 -0.611339 0)
(0.134418 -0.615895 0)
(0.154515 -0.624034 0)
(0.176942 -0.626177 0)
(0.201965 -0.631222 0)
(0.229459 -0.629492 0)
(0.259171 -0.629188 0)
(0.291149 -0.621459 0)
(0.325014 -0.619078 0)
(0.359657 -0.613488 0)
(0.395411 -0.628528 0)
(0.00264931 -0.56933 0)
(0.00795352 -0.56911 0)
(0.0133282 -0.569977 0)
(0.0188347 -0.570809 0)
(0.0246176 -0.573616 0)
(0.0307712 -0.576052 0)
(0.0374498 -0.581184 0)
(0.0447864 -0.585487 0)
(0.0529375 -0.593127 0)
(0.06206 -0.599105 0)
(0.0722973 -0.608907 0)
(0.0838069 -0.615841 0)
(0.0967233 -0.62668 0)
(0.111182 -0.633002 0)
(0.127304 -0.643336 0)
(0.145082 -0.64729 0)
(0.16461 -0.654894 0)
(0.185671 -0.654631 0)
(0.208148 -0.656513 0)
(0.231526 -0.649781 0)
(0.254432 -0.647825 0)
(0.275703 -0.640949 0)
(0.295214 -0.656622 0)
(0.00206573 -0.57407 0)
(0.00620941 -0.573868 0)
(0.0104278 -0.574864 0)
(0.0147606 -0.575815 0)
(0.0193063 -0.578994 0)
(0.0241309 -0.581711 0)
(0.0293481 -0.587484 0)
(0.0350424 -0.592287 0)
(0.0413268 -0.600839 0)
(0.0482921 -0.607567 0)
(0.0560533 -0.61854 0)
(0.0646937 -0.626465 0)
(0.0742919 -0.63869 0)
(0.0848949 -0.646186 0)
(0.0964997 -0.658026 0)
(0.109038 -0.663078 0)
(0.12242 -0.672191 0)
(0.136232 -0.672391 0)
(0.149981 -0.67517 0)
(0.162785 -0.667496 0)
(0.173096 -0.663502 0)
(0.179138 -0.65273 0)
(0.179565 -0.664885 0)
(0.00167419 -0.577831 0)
(0.00503463 -0.577653 0)
(0.00845125 -0.578756 0)
(0.0119444 -0.579792 0)
(0.0155802 -0.583243 0)
(0.0194067 -0.58616 0)
(0.0234984 -0.592395 0)
(0.027899 -0.597526 0)
(0.0326796 -0.606725 0)
(0.0378865 -0.613919 0)
(0.0435965 -0.625732 0)
(0.0498157 -0.634213 0)
(0.0565642 -0.647377 0)
(0.063775 -0.655409 0)
(0.0713362 -0.668072 0)
(0.0790591 -0.673401 0)
(0.0865997 -0.682902 0)
(0.0932793 -0.682281 0)
(0.0983257 -0.684177 0)
(0.100279 -0.673326 0)
(0.0969479 -0.66469 0)
(0.0855991 -0.646209 0)
(0.0638512 -0.649976 0)
(0.00115028 -0.580671 0)
(0.00346382 -0.580519 0)
(0.00581819 -0.581694 0)
(0.00822179 -0.582784 0)
(0.0107097 -0.58641 0)
(0.0132921 -0.589439 0)
(0.0160028 -0.595956 0)
(0.0188513 -0.601254 0)
(0.0218713 -0.610841 0)
(0.0250741 -0.618259 0)
(0.0284833 -0.630561 0)
(0.0320648 -0.639238 0)
(0.035768 -0.652861 0)
(0.0394576 -0.660886 0)
(0.0429679 -0.673728 0)
(0.0460051 -0.678565 0)
(0.0481357 -0.687464 0)
(0.0484883 -0.684792 0)
(0.0458343 -0.684075 0)
(0.0379969 -0.667517 0)
(0.0215744 -0.650646 0)
(-0.00778884 -0.619332 0)
(-0.0546161 -0.607922 0)
(0.000795604 -0.582629 0)
(0.00238589 -0.582489 0)
(0.0039734 -0.58369 0)
(0.00555337 -0.584797 0)
(0.00713879 -0.588496 0)
(0.00871881 -0.591541 0)
(0.0103035 -0.598177 0)
(0.0118813 -0.603488 0)
(0.0134534 -0.613228 0)
(0.0150004 -0.620651 0)
(0.0164947 -0.633103 0)
(0.0178564 -0.64167 0)
(0.0189736 -0.655279 0)
(0.0196569 -0.662868 0)
(0.0196692 -0.675292 0)
(0.0186238 -0.679008 0)
(0.0159851 -0.686515 0)
(0.0107236 -0.680811 0)
(0.00126192 -0.675881 0)
(-0.0149548 -0.651536 0)
(-0.0422452 -0.62269 0)
(-0.0869803 -0.572806 0)
(-0.156542 -0.537455 0)
(0.000354982 -0.583789 0)
(0.00104287 -0.583626 0)
(0.00168613 -0.584802 0)
(0.00227376 -0.585869 0)
(0.00279981 -0.589551 0)
(0.0032346 -0.592516 0)
(0.00356514 -0.599132 0)
(0.00376174 -0.604322 0)
(0.00379512 -0.614014 0)
(0.00361822 -0.621248 0)
(0.00315714 -0.63355 0)
(0.00231177 -0.641748 0)
(0.000948859 -0.654961 0)
(-0.00113659 -0.661783 0)
(-0.00418409 -0.673332 0)
(-0.00857663 -0.675509 0)
(-0.014821 -0.681091 0)
(-0.0238224 -0.671904 0)
(-0.0370743 -0.661963 0)
(-0.0570829 -0.629046 0)
(-0.0882693 -0.586404 0)
(-0.13806 -0.514079 0)
(-0.21567 -0.448248 0)
(5.38606e-05 -0.584204 0)
(0.00013382 -0.58399 0)
(0.000144392 -0.585102 0)
(4.09436e-05 -0.586064 0)
(-0.00021025 -0.589641 0)
(-0.000637175 -0.592442 0)
(-0.0012622 -0.598918 0)
(-0.00212771 -0.603871 0)
(-0.00329865 -0.613329 0)
(-0.00485107 -0.620203 0)
(-0.00690254 -0.632078 0)
(-0.00957622 -0.639691 0)
(-0.0130394 -0.652175 0)
(-0.0175342 -0.657963 0)
(-0.0233057 -0.668296 0)
(-0.0308197 -0.668585 0)
(-0.0406911 -0.671824 0)
(-0.0539382 -0.658816 0)
(-0.0723959 -0.643186 0)
(-0.099268 -0.600708 0)
(-0.139842 -0.542617 0)
(-0.204066 -0.443267 0)
(-0.307609 -0.336972 0)
(-0.000248842 -0.584013 0)
(-0.000789699 -0.583729 0)
(-0.00144217 -0.58473 0)
(-0.00225713 -0.585524 0)
(-0.00326936 -0.588922 0)
(-0.00451489 -0.591491 0)
(-0.00604257 -0.597716 0)
(-0.00791416 -0.602333 0)
(-0.0102185 -0.611385 0)
(-0.0130484 -0.617753 0)
(-0.0165374 -0.62897 0)