/*--------------------------------*- C++ -*----------------------------------*\
| =========                 |                                                 |
| \\      /  F ield         | OpenFOAM: The Open Source CFD Toolbox           |
|  \\    /   O peration     | Version:  2012                                  |
|   \\  /    A nd           | Website:  www.openfoam.com                      |
|    \\/     M anipulation  |                                                 |
\*---------------------------------------------------------------------------*/
FoamFile
{
    version     2.0;
    format      ascii;
    class       volScalarField;
    location    "0.48";
    object      volumeFraction1;
}
// * * * * * * * * * * * * * * * * * * * * * * * * * * * * * * * * * * * * * //

dimensions      [0 0 0 0 0 0 0];


internalField   nonuniform List<scalar> 
2268
(
1
1
1
1
1
1
1
1
1
1
1
1
1
1
1
1
1
1
1
1
1
1
0.999631
1
1
1
1
1
1
1
1
1
1
1
1
1
1
1
1
1
1
1
1
1
1
0.999626
1
1
1
1
1
1
1
1
1
1
1
1
1
1
1
1
1
1
1
1
1
1
0.999626
1
1
1
1
1
1
1
1
1
1
1
1
1
1
1
1
1
1
1
1
1
1
0.999916
1
1
1
1
1
1
1
1
1
1
1
1
1
1
1
1
1
1
1
1
1
1
1
1
1
1
1
1
1
1
1
1
1
1
1
1
1
1
1
1
1
1
1
1
1
1
1
1
1
1
1
1
1
1
1
1
1
1
1
1
1
1
1
1
1
1
1
1
1
1
1
1
1
1
1
1
1
1
1
1
1
1
1
1
1
1
1
1
1
1
1
1
1.81755e-20
3.24449e-19
3.67588e-18
1.5367e-17
2.15498e-15
2.99842e-13
9.50544e-12
4.53718e-11
4.03003e-11
3.28496e-10
4.25185e-06
0.0101858
0.240197
0.523151
0.583315
0.588721
0.610858
0.610863
0.610858
6.76007e-19
2.28876e-17
1.79998e-16
1.67351e-16
1.24788e-15
2.40506e-13
8.04585e-12
3.5391e-11
3.53908e-11
1.69171e-09
0.000254269
0.00372316
0.00630149
0.00649304
0.0124233
0.0723603
0.27597
0.466643
0.608428
2.50024e-17
5.96789e-16
3.6451e-15
3.76063e-15
4.45904e-16
7.20611e-14
7.06778e-12
7.82281e-10
1.00972e-07
6.40438e-07
1.70061e-06
7.45165e-10
7.45116e-10
7.45165e-10
7.45116e-10
7.45165e-10
0.00154164
0.102149
0.289079
4.01117e-16
7.27011e-15
3.18183e-14
3.2993e-14
9.51322e-15
5.68805e-15
2.38489e-12
5.94817e-10
1.03989e-07
4.15679e-07
1.83909e-07
7.45116e-10
2.23748e-09
3.92292e-09
2.98108e-08
1.69754e-05
0.00351373
0.0679725
0.326554
6.1674e-15
4.85805e-14
9.15322e-14
8.67505e-14
7.79704e-14
9.75691e-15
1.15331e-13
9.78211e-11
1.93881e-08
4.5621e-08
5.9984e-09
8.20365e-09
2.4115e-08
2.85283e-08
7.34274e-08
1.75585e-05
0.00070218
0.0956581
0.716592
5.97782e-14
4.85805e-14
3.015e-13
6.40548e-13
1.79583e-12
3.21695e-13
3.5773e-14
1.03358e-11
6.73754e-10
6.22651e-10
2.67015e-10
4.23288e-09
1.02174e-08
1.00888e-08
2.65745e-07
9.32498e-07
4.33164e-05
0.0398804
0.716594
3.36753e-12
1.13153e-09
3.76548e-07
3.97572e-07
3.8074e-07
5.9622e-15
5.9608e-15
1.08292e-12
9.84842e-11
1.58879e-10
1.61237e-10
8.86434e-10
5.43147e-09
5.14254e-09
2.8632e-10
2.85608e-10
7.81816e-07
0.0131596
0.716592
4.54701e-14
4.547e-14
0.00292891
0.00251797
0.00120391
0.000100861
2.65386e-07
6.37449e-12
1.86804e-11
7.2425e-11
1.18913e-10
3.25697e-10
1.36218e-09
1.78602e-09
4.65036e-10
2.8632e-10
2.85608e-10
0.00231291
0.704754
0.994953
0.99481
0.995209
0.995522
0.995868
0.996278
0.997009
0.997547
0.998284
0.998895
0.999403
0.999765
0.999935
0.999989
1
1
1
1
1
1
1
1
0.999614
0.648157
0.646608
0.655406
0.662974
0.6733
0.686633
0.709884
0.731834
0.765679
0.80216
0.84581
0.893782
0.940797
0.97612
0.993092
1
1
1
1
1
1
1
0.999507
0.0220417
0.0228052
0.0254302
0.0279991
0.0327505
0.0391613
0.0496764
0.0614911
0.0814327
0.105955
0.142303
0.19136
0.26524
0.381714
0.555866
0.751778
0.956568
1
1
1
1
1
0.999935
-1.78628e-37
-2.0318e-35
1.29338e-34
-2.86749e-32
4.02269e-31
2.53236e-31
7.21545e-31
-2.91482e-30
-1.59895e-31
-6.46179e-32
-3.36593e-27
1.42304e-27
-4.39588e-29
-7.58842e-31
0.00847
0.046083
0.142617
0.338408
0.627876
0.955839
1
1
1
2.24496e-18
1.24774e-16
3.86935e-15
7.29016e-14
9.45155e-13
9.58897e-12
1.85144e-11
1.61731e-11
7.95611e-12
-4.55967e-31
1.49422e-08
1.88941e-08
9.80712e-08
1.12539e-07
1.8693e-24
1.02913e-24
0.00074376
0.00781673
0.0514796
0.15344
0.343937
0.618823
0.944213
4.35574e-18
2.40985e-16
7.4268e-15
1.35583e-13
1.75507e-12
1.84758e-11
3.25286e-11
5.35798e-11
4.28176e-11
5.98618e-31
9.97984e-08
1.01487e-06
1.95866e-06
2.12072e-06
1.06303e-06
2.68441e-08
6.01043e-09
1.13654e-05
0.000191923
0.00147508
0.00758828
0.0414902
0.14796
4.80121e-18
2.62763e-16
8.01665e-15
1.4287e-13
1.80906e-12
1.92788e-11
3.14228e-11
8.65681e-11
1.63883e-10
-2.86435e-29
1.21492e-07
2.33661e-06
2.45537e-06
2.45591e-06
1.3284e-06
4.25991e-08
6.01966e-09
6.01043e-09
9.03105e-09
2.06573e-07
8.33577e-06
5.38366e-07
0.000249097
4.47314e-18
2.38234e-16
7.03784e-15
1.18227e-13
1.34577e-12
1.52098e-11
1.61281e-11
1.20027e-10
5.47512e-10
8.38215e-14
1.48276e-07
3.99238e-07
8.22939e-07
1.72004e-07
1.30688e-11
2.37626e-08
4.44631e-08
1.9076e-08
5.73601e-09
4.43771e-08
1.54021e-07
5.38336e-07
2.61155e-08
2.73825e-18
1.36755e-16
3.79455e-15
5.96159e-14
6.06994e-13
6.98416e-12
4.64031e-12
1.38852e-10
1.07318e-09
5.69621e-09
1.30836e-11
1.30688e-11
1.30711e-11
1.30688e-11
1.30711e-11
1.79109e-08
4.44684e-08
4.32346e-08
8.28111e-09
4.48153e-08
6.13464e-10
3.51737e-10
6.17073e-06
1.19517e-18
5.79114e-17
1.56221e-15
2.39223e-14
2.30049e-13
2.5836e-12
7.69121e-13
1.40297e-10
1.30267e-09
5.67312e-09
1.38954e-09
1.53011e-10
1.14391e-10
4.42361e-10
3.53112e-10
2.99124e-10
1.75907e-08
2.89907e-08
1.28062e-08
8.71703e-11
4.96222e-12
1.55828e-09
2.62988e-07
4.32508e-19
2.03291e-17
5.3529e-16
8.00448e-15
7.47875e-14
8.02387e-13
3.84567e-13
1.15705e-10
6.14251e-10
7.74504e-10
4.2215e-10
1.68291e-10
1.70853e-10
5.69377e-10
8.18558e-10
4.65567e-10
1.48105e-10
1.48202e-10
9.88661e-10
1.07355e-09
4.10206e-10
6.46054e-12
1.1971e-12
1.2923e-19
5.93162e-18
1.53544e-16
2.261e-15
2.11871e-14
2.01352e-13
3.84566e-13
3.45104e-11
1.38999e-10
9.77253e-11
1.05447e-10
8.9605e-11
9.94234e-11
1.89429e-10
4.66715e-10
4.76598e-10
2.91523e-10
1.73538e-10
1.71332e-10
1.76445e-10
1.58404e-10
1.03029e-10
4.41404e-11
3.16384e-20
1.41343e-18
3.59529e-17
5.23177e-16
5.0041e-15
4.0657e-14
2.54963e-13
8.32483e-12
1.58326e-11
2.62618e-11
2.84571e-11
2.45331e-11
2.53716e-11
3.68762e-11
6.43573e-11
1.25745e-10
2.11693e-10
2.2715e-10
2.25452e-10
1.99129e-10
1.44298e-10
8.34829e-11
5.13141e-11
6.28807e-21
2.77032e-19
7.00059e-18
1.02119e-16
1.01257e-15
7.9328e-15
9.48338e-14
1.07973e-12
3.00965e-12
4.86088e-12
5.08768e-12
4.44234e-12
4.70907e-12
6.31e-12
1.01959e-11
1.8609e-11
3.29635e-11
4.43883e-11
3.99188e-11
3.56814e-11
2.96248e-11
1.98053e-11
1.30762e-11
9.99681e-22
4.36965e-20
1.10665e-18
1.64361e-17
1.71599e-16
1.38388e-15
2.51344e-14
1.06684e-13
3.00878e-13
4.76855e-13
5.04675e-13
4.99413e-13
6.19956e-13
1.01939e-12
1.80852e-12
2.75957e-12
3.42626e-12
3.88768e-12
4.14782e-12
4.17549e-12
3.88745e-12
3.07783e-12
2.154e-12
1.24483e-22
5.49002e-21
1.41939e-19
2.1945e-18
2.45124e-17
2.06915e-16
4.26665e-15
1.18138e-14
1.85876e-14
2.01001e-14
2.25326e-14
3.47322e-14
7.71563e-14
1.69654e-13
3.07754e-13
4.04675e-13
4.59497e-13
4.90956e-13
5.00452e-13
4.89755e-13
4.42043e-13
3.51681e-13
2.51433e-13
1.17724e-23
5.33187e-22
1.43531e-20
2.35622e-19
2.83541e-18
2.4536e-17
4.31064e-16
1.33244e-15
1.72315e-15
1.64079e-15
1.87379e-15
3.78896e-15
1.0442e-14
2.46677e-14
4.35886e-14
5.46415e-14
6.00949e-14
6.21465e-14
6.10465e-14
5.56174e-14
4.47617e-14
3.11705e-14
2.13707e-14
8.10887e-25
3.92629e-23
1.13775e-21
2.02999e-20
2.63277e-19
2.28842e-18
2.48625e-17
8.61139e-17
1.38752e-16
1.52482e-16
2.01563e-16
4.4012e-16
1.15023e-15
2.52943e-15
4.07218e-15
4.84799e-15
5.20621e-15
5.2819e-15
5.05908e-15
4.4004e-15
3.33074e-15
2.03253e-15
1.33512e-15
3.80207e-26
2.0404e-24
6.53828e-23
1.27581e-21
1.75034e-20
1.50687e-19
9.83507e-19
2.6938e-18
4.02501e-18
5.75687e-18
1.17409e-17
3.25193e-17
8.25811e-17
1.63304e-16
2.27298e-16
2.57531e-16
2.72945e-16
2.77174e-16
2.68816e-16
2.41946e-16
1.85671e-16
1.1184e-16
1.23087e-16
1.10495e-27
7.04858e-26
2.59107e-24
5.55344e-23
7.94751e-22
6.65757e-21
3.58138e-20
8.14712e-20
1.39753e-19
2.70512e-19
7.27664e-19
2.05339e-18
4.6636e-18
6.83362e-18
7.69767e-18
8.16312e-18
8.61801e-18
9.01125e-18
9.11305e-18
8.77932e-18
6.82968e-18
7.1302e-18
3.40814e-17
1.79745e-29
1.32663e-27
5.45396e-26
1.24201e-24
1.81004e-23
1.4655e-22
6.18162e-22
1.689e-21
4.33211e-21
1.24282e-20
3.72251e-20
9.83108e-20
1.74478e-19
1.95194e-19
1.92654e-19
1.9361e-19
2.03161e-19
2.22393e-19
2.31939e-19
2.14667e-19
2.26054e-19
1.3203e-18
3.19364e-17
2.52488e-31
1.25703e-29
3.81161e-28
7.5783e-27
1.2396e-25
1.37416e-24
8.26441e-24
3.71803e-23
1.49356e-22
5.19518e-22
1.47225e-21
3.43225e-21
5.30134e-21
5.77206e-21
5.69753e-21
5.31495e-21
4.99058e-21
4.78849e-21
4.26633e-21
4.3278e-21
2.62869e-20
1.09194e-18
3.52772e-17
8.96924e-33
4.6273e-31
1.41372e-29
2.75653e-28
4.31571e-27
4.72628e-26
2.914e-25
1.32118e-24
5.0901e-24
1.64708e-23
4.13924e-23
8.61729e-23
1.30376e-22
1.44809e-22
1.43692e-22
1.27479e-22
9.35054e-23
4.64978e-23
3.57967e-23
2.22016e-22
1.78491e-20
1.0333e-18
3.28149e-17
1.554e-34
8.24429e-33
2.47744e-31
4.4819e-30
5.81928e-29
5.34311e-28
3.8205e-27
2.07958e-26
8.77251e-26
2.84127e-25
6.88925e-25
1.43297e-24
2.46621e-24
2.94424e-24
2.97079e-24
2.69117e-24
1.84058e-24
9.25466e-25
2.6132e-24
9.78162e-23
1.24535e-20
7.52554e-19
2.23986e-17
5.2821e-40
1.93659e-38
3.92559e-37
4.71533e-36
3.77015e-35
1.41635e-34
4.06964e-34
2.37854e-33
1.46446e-32
6.5938e-32
2.12484e-31
5.56004e-31
1.08813e-30
1.21688e-30
1.379e-30
1.30066e-29
6.05573e-28
2.31998e-26
7.44144e-25
4.44119e-23
5.93607e-21
3.48725e-19
9.76196e-18
3.0541e-44
1.5282e-42
4.44086e-41
8.50264e-40
1.30033e-38
1.82512e-37
4.69229e-36
7.34412e-35
5.43018e-34
2.55593e-33
8.27074e-33
2.15864e-32
4.05023e-32
4.45081e-32
8.03502e-32
3.03094e-30
1.62201e-28
6.76719e-27
2.49882e-25
1.79063e-23
2.20784e-21
1.25478e-19
3.42158e-18
1.33174e-47
6.5941e-46
1.80547e-44
3.09786e-43
3.80165e-42
3.46153e-41
2.44621e-40
1.38331e-39
6.23479e-39
2.42025e-38
8.15155e-38
4.77538e-37
1.99047e-36
7.10548e-35
7.58227e-33
6.70225e-31
3.89194e-29
1.80003e-27
7.79085e-26
6.30501e-24
7.02935e-22
3.91573e-20
1.06366e-18
3.17684e-53
2.08692e-51
7.6027e-50
1.78427e-48
3.04954e-47
4.01004e-46
4.19865e-45
3.66925e-44
2.60708e-43
1.62269e-42
9.52856e-42
3.77983e-40
6.45752e-38
1.10275e-35
1.36659e-33
1.33123e-31
8.32388e-30
4.35115e-28
2.22704e-26
1.90388e-24
1.88086e-22
1.03201e-20
3.06263e-19
8.69488e-57
6.33099e-55
2.52887e-53
6.5954e-52
1.26312e-50
1.91789e-49
2.37684e-48
2.55246e-47
2.27826e-46
2.22466e-45
1.39278e-43
3.5456e-41
7.62272e-39
1.49091e-36
2.08249e-34
2.25492e-32
1.53615e-30
9.3034e-29
5.72557e-27
4.94935e-25
4.31346e-23
2.47264e-21
1.39636e-19
3.06269e-63
2.8509e-61
1.59328e-59
6.47035e-58
2.05349e-56
5.2901e-55
1.10068e-53
3.31527e-52
6.75003e-50
2.6382e-47
8.87304e-45
2.87535e-42
7.26254e-40
1.64846e-37
2.67045e-35
3.33067e-33
2.72543e-31
2.26476e-29
1.98615e-27
1.99163e-25
2.02729e-23
1.67253e-21
2.30082e-19
1.55794e-68
2.45581e-66
2.14957e-64
1.27327e-62
5.66257e-61
2.96326e-59
7.31701e-57
4.14852e-54
2.23563e-51
1.1752e-48
5.31687e-46
2.24268e-43
7.72519e-41
2.32781e-38
5.638e-36
1.13433e-33
2.01276e-31
3.34358e-29
5.19576e-27
7.95401e-25
1.18363e-22
1.2094e-20
1.45808e-18
8.80683e-73
2.07931e-70
2.62078e-68
2.45161e-66
5.22799e-64
6.77747e-61
1.09464e-57
1.43007e-54
1.57044e-51
1.33694e-48
9.51033e-46
5.20287e-43
2.46457e-40
9.31364e-38
3.19304e-35
8.88788e-33
2.16979e-30
4.00469e-28
6.26447e-26
9.72305e-24
1.37132e-21
1.29588e-19
1.2149e-17
3.5468e-77
6.82446e-74
3.87522e-70
1.66444e-66
5.28045e-63
1.17619e-59
2.02719e-56
2.66088e-53
2.89539e-50
2.41521e-47
1.65369e-44
8.66662e-42
3.88069e-39
1.38452e-36
4.43559e-34
1.17822e-31
2.75242e-29
4.92219e-27
7.4023e-25
1.11758e-22
1.47634e-20
1.30543e-18
1.04223e-16
9.58351e-77
1.19941e-72
8.11944e-69
3.45405e-65
1.03482e-61
2.23379e-58
3.72753e-55
4.74066e-52
4.99717e-49
4.04641e-46
2.66108e-43
1.33874e-40
5.67794e-38
1.91459e-35
5.72178e-33
1.44594e-30
3.22355e-28
5.58929e-26
8.12402e-24
1.18859e-21
1.48467e-19
1.25242e-17
8.84784e-16
1.75484e-75
2.37381e-71
1.56951e-67
6.5449e-64
1.91492e-60
4.03165e-57
6.51853e-54
8.04026e-51
8.20216e-48
6.43374e-45
4.05421e-42
1.9537e-39
7.83296e-37
2.49257e-34
6.93451e-32
1.65972e-29
3.51378e-27
5.90326e-25
8.35656e-23
1.19391e-20
1.4178e-18
1.16941e-16
7.4102e-15
3.47084e-74
4.54017e-70
2.93027e-66
1.19473e-62
3.40651e-59
6.99035e-56
1.09626e-52
1.31599e-49
1.29807e-46
9.83116e-44
5.91666e-41
2.72358e-38
1.02942e-35
3.08804e-33
8.01607e-31
1.81377e-28
3.63221e-26
5.92236e-24
8.29029e-22
1.18542e-19
1.34148e-17
1.11485e-15
6.31532e-14
6.72466e-73
8.56385e-69
5.37531e-65
2.13437e-61
5.91231e-58
1.18215e-54
1.80481e-51
2.12225e-48
2.02042e-45
1.47016e-42
8.41162e-40
3.68515e-37
1.30859e-34
3.70389e-32
9.05445e-30
1.94009e-27
3.67039e-25
5.84878e-23
8.37446e-21
1.23584e-18
1.33719e-16
8.83121e-15
3.35671e-13
1.31974e-71
1.63348e-67
9.93625e-64
3.82477e-60
1.02676e-56
2.00641e-53
3.00548e-50
3.48121e-47
3.18245e-44
2.21054e-41
1.19572e-38
4.9657e-36
1.65129e-33
4.4578e-31
1.04166e-28
2.12464e-26
3.82083e-24
6.05001e-22
8.56431e-20
9.18618e-18
6.62624e-16
3.09346e-14
8.99976e-13
2.69775e-70
3.24505e-66
1.90839e-62
7.09682e-59
1.85572e-55
3.58002e-52
5.30118e-49
6.01666e-46
5.22866e-43
3.44323e-40
1.75043e-37
6.86544e-35
2.13319e-32
5.30106e-30
1.08566e-27
1.86161e-25
2.70169e-23
3.2888e-21
3.29457e-19
2.64808e-17
1.63852e-15
7.24326e-14
2.0101e-12
5.87434e-69
6.87822e-65
3.91083e-61
1.40018e-57
3.46446e-54
6.26892e-51
8.64063e-48
8.9203e-45
6.92807e-42
4.06992e-39
1.8315e-36
6.32006e-34
1.69143e-31
3.51646e-29
5.7415e-27
7.44829e-25
7.81748e-23
6.81625e-21
4.98763e-19
3.05716e-17
1.53425e-15
5.8854e-14
1.59342e-12
7.84175e-68
8.40949e-64
4.30701e-60
1.37548e-56
3.02193e-53
4.78149e-50
5.58844e-47
4.9197e-44
3.30967e-41
1.71137e-38
6.85492e-36
2.13037e-33
5.16618e-31
9.78333e-29
1.45011e-26
1.68735e-24
1.54005e-22
1.10166e-20
6.25527e-19
2.86869e-17
1.08588e-15
3.29231e-14
8.05724e-13
2.18912e-67
2.16385e-63
1.01689e-59
2.97574e-56
6.0034e-53
8.77432e-50
9.56753e-47
7.91812e-44
5.03647e-41
2.48143e-38
9.54227e-36
2.87768e-33
6.83892e-31
1.28617e-28
1.91849e-26
2.2843e-24
2.17577e-22
1.67267e-20
1.04569e-18
5.37493e-17
2.28092e-15
7.80533e-14
2.01111e-12
0.999533
0.999825
0.999825
0.981792
0.999449
0.99945
0.999812
0.999812
0.999864
0.999891
0.99966
0.999641
1
1
0.999982
0.999942
0.995078
1
1
0.999963
0.247102
0.325871
0.415334
0.536495
0.00198129
0.00457212
0.0096267
0.0174536
1.1971e-12
1.1971e-12
1.1971e-12
1.1971e-12
7.25305e-06
7.26306e-06
4.59033e-06
1.1971e-12
6.41841e-07
5.63311e-07
1.72808e-07
1.1971e-12
1.1971e-12
6.78892e-08
4.18489e-08
1.1971e-12
5.48432e-12
1.1971e-12
1.1971e-12
1.1971e-12
2.7928e-11
1.32141e-11
6.78413e-12
3.1833e-12
1.02926e-11
9.30236e-12
8.22746e-12
6.96133e-12
1.58802e-12
1.36426e-12
1.18017e-12
1.07091e-12
1.91388e-13
1.60422e-13
1.42896e-13
1.27547e-13
1.61933e-14
1.33167e-14
1.1998e-14
1.21746e-14
1.22713e-15
1.2564e-15
1.38493e-15
1.71975e-15
1.60845e-16
2.30075e-16
3.7238e-16
6.52208e-16
7.96513e-17
1.46335e-16
2.75553e-16
5.43833e-16
8.47991e-17
1.65065e-16
3.31171e-16
8.09755e-16
9.44332e-17
1.85675e-16
3.83978e-16
8.92396e-16
8.80509e-17
1.74214e-16
3.66577e-16
8.80131e-16
6.04272e-17
1.21307e-16
2.6431e-16
6.62663e-16
2.63348e-17
5.33806e-17
1.22667e-16
3.51449e-16
9.22072e-18
1.91902e-17
5.43789e-17
2.33174e-16
2.96127e-18
8.0818e-18
4.46746e-17
4.30294e-16
1.19252e-18
7.28307e-18
1.23934e-16
1.68941e-15
1.23801e-18
2.45432e-17
5.19331e-16
6.85436e-15
5.36524e-18
1.21364e-16
2.33939e-15
2.96318e-14
3.69596e-17
7.62557e-16
1.32818e-14
1.7044e-13
3.10235e-16
5.88623e-15
9.45469e-14
1.19927e-12
2.71905e-15
4.73453e-14
6.89779e-13
8.13653e-12
2.30596e-14
3.59117e-13
4.52902e-12
4.76227e-11
1.83535e-13
2.4506e-12
2.52958e-11
2.33962e-10
1.37791e-12
1.47191e-11
1.13235e-10
8.81784e-10
5.41377e-12
4.13794e-11
2.29617e-10
2.04797e-09
1.17444e-11
7.28659e-11
3.98479e-10
4.63407e-09
2.45344e-11
1.56846e-10
1.79719e-09
2.68666e-08
2.15418e-11
2.67434e-10
1.26256e-08
8.54072e-08
1.14048e-11
3.41827e-10
4.89928e-08
2.58472e-07
2.47971e-11
1.91336e-10
2.20233e-09
1.94845e-08
0.150264
0.119119
0.276554
0.19265
0.0236898
0.000235096
5.33647e-08
2.56331e-12
2.56392e-12
1.67181e-11
4.7523e-11
1.33079e-10
3.62932e-10
5.01507e-10
3.05039e-10
3.24285e-10
2.50704e-09
6.20949e-27
0.635904
0.919034
0.94456
0.997158
0.764947
0.119573
0.00141958
4.64919e-07
4.44815e-12
2.16228e-12
4.16574e-12
9.89176e-12
2.69522e-11
6.85573e-11
1.12851e-10
7.23134e-11
7.21276e-10
2.2662e-08
5.69395e-27
0.604662
0.999956
1
1
0.98828
0.402689
0.0118289
5.63039e-06
4.44726e-12
6.94916e-12
2.69308e-11
5.38019e-11
8.59251e-11
1.19695e-10
1.13208e-10
7.2315e-11
1.2739e-08
3.71148e-08
-4.08637e-27
0.629655
0.999968
0.999993
1
1
0.702939
0.0617605
0.000380994
3.88175e-07
3.8289e-09
1.73893e-10
5.00273e-10
1.17556e-09
1.25904e-09
1.13208e-10
8.38267e-09
3.74061e-08
3.71043e-08
-3.56847e-26
0.742683
0.999675
0.999933
0.999995
1
0.985768
0.393953
0.0137839
0.000200491
3.39998e-09
1.6146e-10
8.66802e-10
2.05874e-09
2.09571e-09
4.89397e-10
2.6082e-09
3.73999e-08
7.98108e-09
5.89141e-20
0.842953
0.8279
0.942131
0.988097
0.998887
0.999784
0.937635
0.37265
8.46345e-11
8.52496e-11
9.67896e-11
4.94721e-10
1.17863e-09
1.23708e-09
4.98488e-10
6.59194e-10
1.22962e-10
3.1138e-16
0.0972767
0.910449
0.0462943
0.137247
0.421358
0.871467
0.990509
0.995466
0.951193
0.603324
0.101759
3.1194e-16
3.10892e-16
3.11575e-16
3.10791e-16
3.1138e-16
3.10493e-16
3.1138e-16
3.10102e-16
0.532035
0.979641
1.1971e-12
1.1971e-12
1.1971e-12
0.0744855
0.352211
0.877072
0.999088
0.99909
0.860501
0.596427
0.259703
0.154363
0.139001
0.145021
0.160101
0.216079
0.472224
0.917765
0.993443
8.71166e-06
5.79469e-06
1.09099e-07
1.2641e-08
0.00284238
0.101572
0.378025
0.780224
0.976422
0.976422
0.948832
0.919189
0.900726
0.890575
0.898976
0.92745
0.982979
0.994778
0.994778
1.78548e-05
3.59242e-05
2.38488e-05
1.41624e-06
1.78397e-10
1.78397e-10
0.00805291
0.0935507
0.285191
0.546187
0.726564
0.795979
0.842173
0.885147
0.928918
0.992243
0.994778
0.994778
0.994778
1.82216e-05
3.59546e-05
3.44583e-05
5.4895e-06
1.77385e-09
1.78397e-10
1.78397e-10
0.000635935
0.00514628
0.0239445
0.0763671
0.139301
0.210494
0.274655
0.352835
0.568819
0.873246
0.985061
0.994778
7.27843e-07
7.81073e-06
7.26471e-06
2.01795e-06
1.43914e-08
1.78397e-10
1.78397e-10
1.78397e-10
1.37814e-06
5.6653e-05
0.000676002
0.00259091
0.00272608
0.00429125
0.00437605
0.0391679
0.462282
0.958061
0.993813
1.03706e-12
1.03706e-12
1.65179e-10
9.47559e-08
1.02138e-08
1.78397e-10
1.78397e-10
1.78397e-10
2.01366e-10
1.19376e-07
0.000582502
0.0181614
0.0439067
0.0810386
0.0959178
0.160841
0.642571
0.986634
0.946137
3.7825e-12
1.28264e-12
1.2826e-12
1.98359e-09
4.59659e-09
5.49448e-10
2.50173e-10
2.36979e-10
1.79905e-10
2.53833e-08
0.000129731
0.0266183
0.38023
0.701759
0.747073
0.752559
0.915488
0.990446
0.943516
7.52914e-13
7.0119e-13
2.40781e-12
1.34244e-10
8.38442e-10
4.33295e-10
2.43913e-10
3.45467e-10
1.79875e-10
4.32513e-09
3.17988e-05
0.0292804
0.550191
0.974102
0.974332
0.974333
0.987785
0.990445
0.973037
1.11521e-13
1.64779e-13
9.60063e-13
2.66929e-11
1.60524e-10
1.99523e-10
1.66222e-10
3.87889e-10
3.2567e-10
1.75295e-09
3.10458e-05
0.0171203
0.18034
0.434911
0.752229
0.941321
0.948881
0.938143
0.980738
1.75545e-14
4.54762e-14
2.84251e-13
4.1936e-12
7.09771e-11
2.00049e-10
1.73142e-10
2.90939e-10
2.90947e-10
3.38451e-07
0.000372735
0.000299682
3.84079e-10
3.84871e-10
0.0740486
0.529398
0.883379
0.640487
0.955225
7.73366e-15
4.96931e-14
5.10356e-13
3.9393e-12
3.40797e-11
1.77982e-10
2.8868e-10
3.42122e-10
3.15988e-10
3.15941e-10
0.000112031
0.000118765
3.84871e-10
2.07237e-06
2.07238e-06
0.0571692
0.527475
0.616258
0.671016
1.01735e-14
1.09542e-13
1.29188e-12
3.19993e-12
3.3626e-10
5.18829e-10
5.59551e-10
3.35976e-10
3.15941e-10
3.15887e-10
1.2643e-06
9.73464e-07
1.54755e-08
3.51155e-06
2.32686e-05
0.00812888
0.308307
0.578586
0.329161
4.2772e-14
1.34628e-13
1.04208e-11
3.31972e-11
1.53039e-10
1.00132e-09
1.91286e-09
1.40768e-09
4.58865e-10
3.24653e-10
5.47288e-10
6.02039e-10
5.07578e-10
4.21174e-10
3.15647e-06
0.00613703
0.146564
0.378174
0.158834
2.54508e-13
3.04465e-13
1.85149e-11
1.50073e-10
2.07918e-10
3.27067e-10
9.60098e-10
2.12327e-08
3.33949e-10
3.24614e-10
3.24544e-10
3.27324e-10
3.5213e-10
1.34341e-08
1.00324e-09
0.000510358
0.0456766
0.29691
0.158834
1.52079e-13
1.02518e-12
1.48033e-12
1.08815e-10
6.4352e-10
6.18122e-10
2.74313e-10
2.65024e-10
1.16963e-07
1.66856e-07
5.04127e-08
2.58593e-09
5.2859e-10
1.71197e-09
1.00321e-09
7.57497e-10
0.009377
0.248735
0.158834
1.4703e-13
9.4315e-13
2.00686e-12
3.05417e-12
2.96477e-10
1.69406e-09
3.45457e-10
2.57124e-10
2.18964e-07
2.48785e-07
1.40963e-07
3.27557e-09
5.23818e-10
5.23808e-10
7.57585e-10
7.57525e-10
0.00982138
0.0667526
0.165489
4.9515e-14
4.72524e-13
2.15043e-12
3.18414e-12
3.18409e-12
2.45858e-09
7.36554e-09
2.60841e-10
5.15587e-08
1.63361e-07
5.23808e-10
5.23818e-10
5.23808e-10
1.87319e-08
5.48581e-09
7.57497e-10
0.000278011
3.79277e-05
0.193145
2.77267e-14
3.60688e-13
1.72361e-12
1.4457e-11
1.39296e-11
2.75024e-12
2.83983e-08
1.02691e-07
4.35492e-08
4.35403e-08
8.82223e-07
3.04093e-06
1.05121e-06
3.16805e-08
1.96851e-09
1.12439e-09
6.1859e-10
3.79278e-05
0.217778
4.24933e-14
9.46644e-13
2.72002e-12
1.74637e-11
3.69394e-10
2.9459e-12
5.89957e-09
1.02864e-07
4.60393e-08
4.35349e-08
4.86704e-06
5.40395e-06
2.83831e-06
1.28314e-08
1.36363e-09
1.36357e-09
6.186e-10
2.95104e-11
0.216417
1.32629e-13
3.10548e-12
5.37734e-12
5.37726e-12
3.29304e-09
3.61061e-09
2.21763e-09
1.63761e-08
2.8067e-08
1.8157e-07
4.98818e-06
4.80172e-06
1.09428e-06
6.77611e-09
1.45683e-09
1.14846e-09
4.77815e-10
2.95104e-11
0.185942
3.4959e-13
4.97712e-12
8.11646e-12
5.37745e-12
1.94911e-09
3.35855e-08
1.41676e-08
1.2401e-08
3.34207e-07
8.51913e-07
1.53875e-06
1.74638e-06
2.12481e-08
2.31629e-09
9.06491e-09
2.95109e-11
2.95104e-11
2.95104e-11
0.160485
7.19265e-13
6.32868e-12
1.98048e-11
8.28199e-12
8.28237e-12
8.2213e-08
8.37555e-08
2.30887e-08
5.90646e-07
6.15166e-07
1.11458e-08
4.48763e-06
1.46435e-07
3.84868e-07
2.25465e-09
5.25104e-07
2.40746e-06
2.95104e-11
0.205639
1.60928e-12
1.25111e-11
8.08287e-11
8.28237e-12
1.3616e-08
1.50702e-07
1.20925e-08
1.20912e-08
1.19572e-07
6.5931e-08
1.05795e-08
6.73187e-06
1.96845e-05
2.36963e-06
1.83178e-09
3.88758e-07
4.64433e-05
0.00837766
0.23123
5.99755e-12
4.82942e-11
3.75866e-10
9.03399e-11
6.67898e-12
1.24204e-05
1.37325e-05
1.05795e-08
1.05783e-08
2.27172e-08
1.05783e-08
1.54814e-05
2.33985e-05
2.65178e-06
1.83143e-09
1.83178e-09
0.000533729
0.0334142
0.231315
2.8847e-11
2.1409e-10
1.61614e-09
6.18403e-11
6.68136e-12
0.000105252
0.000180301
0.000129559
1.05795e-08
1.41535e-06
2.44237e-07
2.51413e-05
2.33956e-05
8.47493e-07
5.81931e-06
0.011395
0.0491632
0.0334271
0.0627615
1.30971e-10
7.88901e-10
1.2639e-08
6.16086e-11
9.35952e-05
0.000180301
0.000180301
0.000180301
9.19602e-05
8.18197e-07
1.7543e-06
2.51413e-05
2.50775e-05
8.47185e-07
3.39177e-06
0.000118614
0.105704
0.153755
0.0278248
5.79837e-10
2.57484e-09
3.78056e-08
7.27652e-06
0.000142293
0.000180301
0.000180301
0.000180301
0.000150049
3.64786e-11
3.48624e-06
2.51413e-05
2.51171e-05
8.47493e-07
1.50102e-06
2.56839e-08
0.0109833
0.379832
0.144318
2.86623e-09
1.6114e-08
6.66901e-08
4.09479e-06
3.65697e-05
0.000100871
0.000135081
0.000123958
4.19292e-05
3.64786e-11
2.25641e-06
1.83367e-05
1.86106e-05
1.00638e-06
1.40528e-06
1.76863e-07
1.76861e-07
0.3813
0.466751
1.60264e-08
8.01278e-08
6.55842e-08
1.66087e-10
1.65391e-10
1.05861e-06
5.26621e-06
5.83638e-06
9.48298e-07
2.73722e-08
5.3627e-07
1.34739e-06
1.88315e-06
1.0612e-06
1.22287e-06
1.76861e-07
0.0118246
0.40932
0.466751
4.13775e-08
1.03754e-07
1.37947e-08
1.65391e-10
1.65415e-10
1.90465e-10
4.46827e-10
1.15913e-09
3.77935e-09
1.70494e-08
4.3718e-08
5.02871e-08
5.0318e-08
5.0242e-08
7.68653e-07
8.67369e-07
3.27398e-11
0.327969
0.466751
5.1959e-08
1.03753e-07
4.83267e-08
8.76974e-08
1.18362e-10
1.18373e-10
1.18362e-10
1.18373e-10
1.18362e-10
1.18373e-10
1.18362e-10
1.18373e-10
1.23311e-06
9.859e-06
9.87464e-06
6.31509e-06
3.27398e-11
0.197554
0.466751
7.30241e-08
7.87446e-08
3.44214e-08
8.28581e-07
2.40428e-06
7.99645e-07
1.18373e-10
1.18362e-10
1.18373e-10
1.22089e-06
5.77511e-06
8.06597e-06
8.07069e-06
4.86197e-06
3.95393e-06
1.34149e-06
3.27398e-11
0.0102384
0.466751
1.23647e-07
3.59649e-08
1.78068e-08
1.31268e-06
2.413e-06
2.35127e-06
2.75233e-07
3.45345e-06
8.61769e-06
1.04447e-05
1.04338e-05
8.54232e-06
3.99721e-06
1.28398e-07
9.99773e-08
4.48148e-07
3.27398e-11
0.00100142
0.313418
3.24581e-07
1.57656e-08
1.57301e-08
5.58704e-07
1.80455e-06
1.14915e-06
5.0217e-07
5.54689e-06
1.04447e-05
1.04338e-05
6.54909e-06
3.0348e-07
4.64493e-07
-2.20301e-33
-9.98325e-36
4.68648e-07
3.27398e-11
0.000210077
0.0241416
4.23861e-07
1.26624e-06
5.5186e-07
5.79709e-08
8.50344e-08
3.90802e-08
1.02234e-07
1.11556e-06
4.45653e-06
5.49884e-06
1.32787e-06
3.26089e-25
9.91145e-09
-1.20369e-32
-1.69421e-34
4.26086e-08
1.21852e-06
2.36855e-05
1.8295e-05
)
;

boundaryField
{
    leftWall
    {
        type            zeroGradient;
    }
    rightWall
    {
        type            zeroGradient;
    }
    lowerWall
    {
        type            zeroGradient;
    }
    atmosphere
    {
        type            inletOutlet;
        inletValue      uniform 0;
        value           nonuniform List<scalar> 
46
(
0
0
0
0
0
0
0
0
0
0
0
0
0
0
0
0
0
0
0
0
0
0
2.01111e-12
2.47971e-11
1.91336e-10
2.20233e-09
1.94845e-08
4.23861e-07
1.26624e-06
5.5186e-07
5.79709e-08
8.50344e-08
3.90802e-08
1.02234e-07
1.11556e-06
4.45653e-06
5.49884e-06
1.32787e-06
3.26089e-25
9.91145e-09
0
0
0
1.21852e-06
2.36855e-05
1.8295e-05
)
;
    }
    defaultFaces
    {
        type            empty;
    }
}


// ************************************************************************* //
