/*--------------------------------*- C++ -*----------------------------------*\
| =========                 |                                                 |
| \\      /  F ield         | OpenFOAM: The Open Source CFD Toolbox           |
|  \\    /   O peration     | Version:  3.0.1                                 |
|   \\  /    A nd           | Web:      www.OpenFOAM.org                      |
|    \\/     M anipulation  |                                                 |
\*---------------------------------------------------------------------------*/
FoamFile
{
    version     2.0;
    format      ascii;
    class       volScalarField;
    location    "5e-05";
    object      maxKappa;
}
// * * * * * * * * * * * * * * * * * * * * * * * * * * * * * * * * * * * * * //

dimensions      [0 0 0 0 0 0 0];

internalField   nonuniform List<scalar> 
1000
(
7.51901e-15
7.51901e-15
6.51647e-15
3.50887e-15
3.50887e-15
3.50887e-15
3.87974e-15
1.93987e-15
2.00507e-15
4.84967e-15
2.9098e-15
2.9098e-15
4.84967e-15
4.84967e-15
2.9098e-15
4.84967e-15
2.9098e-15
3.0076e-15
3.87974e-15
4.84967e-15
2.9098e-15
4.84967e-15
2.00507e-15
3.87974e-15
3.50887e-15
1.25317e-14
5.01267e-14
3.35348e-13
2.33641e-12
1.60812e-11
1.08904e-10
7.22112e-10
4.68085e-09
2.95887e-08
1.81878e-07
1.08347e-06
6.22957e-06
3.43948e-05
0.000181183
0.000902918
0.00420766
0.0180255
0.0689438
0.221811
0.540471
0.954111
1
1
1
1
1
1
1
1
1
1
1
1
1
0.391299
0.0569624
0.00733049
0.000921939
0.000114708
1.41281e-05
1.72149e-06
2.07407e-07
2.47003e-08
2.90734e-09
3.38247e-10
3.89102e-11
4.4193e-12
4.95315e-13
5.01267e-14
7.51901e-15
2.42483e-15
2.81963e-15
3.63725e-15
3.63725e-15
9.39876e-16
1.21242e-15
9.39876e-16
1.56646e-15
4.84967e-15
4.24346e-15
3.63725e-15
2.50634e-15
2.50634e-15
6.66829e-15
1.56646e-15
1.56646e-15
6.66829e-15
6.06209e-15
4.0728e-15
4.0728e-15
4.24346e-15
2.50634e-15
2.50634e-15
3.03104e-15
1.81863e-15
5.8196e-15
2.50634e-15
2.9098e-15
7.75947e-15
3.87974e-15
3.0076e-15
5.8196e-15
2.50634e-15
2.50634e-15
4.84967e-15
2.9098e-15
2.9098e-15
4.84967e-15
4.84967e-15
3.87974e-15
4.84967e-15
2.9098e-15
3.50887e-15
3.87974e-15
6.78954e-15
2.9098e-15
4.84967e-15
3.0076e-15
3.87974e-15
2.9098e-15
1.06693e-14
4.16052e-14
3.29834e-13
2.32738e-12
1.60842e-11
1.08867e-10
7.21845e-10
4.67893e-09
2.95756e-08
1.81792e-07
1.08293e-06
6.22631e-06
3.4376e-05
0.00018108
0.000902386
0.00420509
0.0180141
0.068899
0.221685
0.540335
0.954237
1
1
1
1
1
1
1
1
1
1
1
1
1
0.390083
0.0568191
0.00731661
0.00092058
0.000114569
1.4113e-05
1.71977e-06
2.07202e-07
2.46757e-08
2.9044e-09
3.37898e-10
3.88551e-11
4.4218e-12
4.97194e-13
5.13799e-14
4.0728e-15
2.81963e-15
5.45588e-15
3.63725e-15
3.63725e-15
3.13292e-15
3.63725e-15
3.03104e-15
4.38609e-15
4.84967e-15
4.24346e-15
3.63725e-15
7.2745e-15
3.63725e-15
6.66829e-15
4.0728e-15
5.45588e-15
6.66829e-15
6.06209e-15
1.87975e-15
3.63725e-15
5.45588e-15
2.81963e-15
2.42483e-15
6.26584e-15
7.2745e-15
2.9098e-15
4.5114e-15
4.5114e-15
7.75947e-15
4.84967e-15
3.0076e-15
5.8196e-15
1.93987e-15
1.93987e-15
4.01014e-15
4.84967e-15
5.51394e-15
5.51394e-15
2.50634e-15
3.87974e-15
2.50634e-15
4.84967e-15
4.84967e-15
2.00507e-15
6.78954e-15
3.0076e-15
2.9098e-15
4.5114e-15
4.5114e-15
2.9098e-15
7.01774e-15
4.5114e-14
3.30335e-13
2.32788e-12
1.60756e-11
1.08802e-10
7.21412e-10
4.67593e-09
2.95558e-08
1.81667e-07
1.08217e-06
6.22185e-06
3.43513e-05
0.00018095
0.000901748
0.0042022
0.0180023
0.0688594
0.221594
0.540253
0.954278
1
1
1
1
1
1
1
1
1
1
1
1
1
0.391305
0.0569575
0.00732894
0.00092162
0.000114649
1.41177e-05
1.71979e-06
2.07148e-07
2.46635e-08
2.9024e-09
3.37609e-10
3.88188e-11
4.41992e-12
4.94375e-13
5.54527e-14
4.0728e-15
2.50634e-15
6.66829e-15
2.42483e-15
3.13292e-15
3.13292e-15
3.63725e-15
4.0728e-15
4.24346e-15
3.63725e-15
1.21242e-15
4.24346e-15
7.2745e-15
3.63725e-15
4.24346e-15
6.26584e-15
6.26584e-15
2.81963e-15
3.7595e-15
3.7595e-15
6.06209e-15
5.45588e-15
3.13292e-15
5.32596e-15
5.32596e-15
7.2745e-15
2.00507e-15
2.00507e-15
3.87974e-15
3.87974e-15
4.84967e-15
3.87974e-15
3.0076e-15
3.87974e-15
2.50634e-15
2.50634e-15
4.84967e-15
5.8196e-15
1.93987e-15
2.9098e-15
3.87974e-15
4.84967e-15
4.84967e-15
4.84967e-15
2.00507e-15
1.16392e-14
3.87974e-15
2.9098e-15
8.7294e-15
4.84967e-15
4.84967e-15
5.8196e-15
4.81216e-14
3.24821e-13
2.3349e-12
1.60641e-11
1.08752e-10
7.21073e-10
4.67371e-09
2.95416e-08
1.81579e-07
1.08165e-06
6.21893e-06
3.43356e-05
0.000180872
0.000901379
0.00420063
0.0179964
0.0688408
0.221551
0.540193
0.95424
1
1
1
1
1
1
1
1
1
1
1
1
1
0.391929
0.0570559
0.00734036
0.000922819
0.000114767
1.41287e-05
1.72078e-06
2.07232e-07
2.46698e-08
2.90268e-09
3.37587e-10
3.87956e-11
4.42055e-12
4.97194e-13
5.88989e-14
3.44621e-15
3.63725e-15
6.66829e-15
2.42483e-15
8.48692e-15
6.66829e-15
6.26584e-15
3.63725e-15
4.24346e-15
1.81863e-15
7.2745e-15
4.24346e-15
4.69938e-15
4.69938e-15
4.24346e-15
3.63725e-15
3.13292e-15
3.03104e-15
3.63725e-15
2.50634e-15
6.06209e-15
2.81963e-15
5.45588e-15
3.7595e-15
4.84967e-15
1.25317e-15
8.7294e-15
5.01267e-15
5.51394e-15
5.51394e-15
3.0076e-15
3.87974e-15
2.50634e-15
3.87974e-15
1.93987e-15
9.69934e-16
3.50887e-15
5.8196e-15
2.50634e-15
2.9098e-15
4.84967e-15
5.01267e-15
5.01267e-15
4.84967e-15
9.69934e-15
1.16392e-14
3.87974e-15
3.87974e-15
8.7294e-15
4.84967e-15
4.84967e-15
7.51901e-15
4.91242e-14
3.27829e-13
2.32738e-12
1.60571e-11
1.08734e-10
7.20917e-10
4.67273e-09
2.95355e-08
1.81543e-07
1.08145e-06
6.21783e-06
3.433e-05
0.000180845
0.000901261
0.00420015
0.0179947
0.068836
0.221541
0.540176
0.95422
1
1
1
1
1
1
1
1
1
1
1
1
1
0.392015
0.0570755
0.00734337
0.000923227
0.000114819
1.4135e-05
1.72148e-06
2.07303e-07
2.46764e-08
2.90326e-09
3.37644e-10
3.8809e-11
4.40457e-12
5.00014e-13
6.48514e-14
8.77218e-15
3.63725e-15
1.81863e-15
3.03104e-15
8.48692e-15
6.66829e-15
8.48692e-15
6.06209e-15
2.81963e-15
2.81963e-15
7.2745e-15
4.24346e-15
7.88071e-15
2.81963e-15
1.87975e-15
3.63725e-15
1.81863e-15
3.03104e-15
2.42483e-15
4.24346e-15
2.42483e-15
3.63725e-15
6.66829e-15
4.0728e-15
4.0728e-15
2.81963e-15
8.7294e-15
4.84967e-15
6.78954e-15
1.93987e-15
1.5038e-15
1.5038e-15
2.9098e-15
9.69934e-16
1.5038e-15
4.84967e-15
5.8196e-15
1.93987e-15
3.87974e-15
8.7294e-15
4.84967e-15
1.00253e-15
5.8196e-15
3.87974e-15
9.69934e-15
4.84967e-15
4.01014e-15
4.01014e-15
6.78954e-15
4.5114e-15
1.06693e-14
7.51901e-15
2.45621e-14
3.38355e-13
2.33691e-12
1.60586e-11
1.0872e-10
7.20871e-10
4.67245e-09
2.95339e-08
1.81534e-07
1.0814e-06
6.21757e-06
3.43288e-05
0.000180839
0.000901237
0.00420006
0.0179944
0.0688352
0.221539
0.540174
0.954217
1
1
1
1
1
1
1
1
1
1
1
1
1
0.392016
0.0570767
0.00734366
0.000923283
0.000114828
1.41364e-05
1.72166e-06
2.07326e-07
2.46792e-08
2.9036e-09
3.37674e-10
3.88181e-11
4.41742e-12
4.97821e-13
5.38862e-14
8.77218e-15
2.19304e-15
2.42483e-15
3.63725e-15
6.66829e-15
1.25317e-15
8.48692e-15
7.88071e-15
4.38609e-15
3.13292e-15
7.2745e-15
4.24346e-15
7.88071e-15
2.19304e-15
1.81863e-15
1.87975e-15
1.87975e-15
6.66829e-15
1.81863e-15
4.24346e-15
6.06209e-15
5.45588e-15
6.66829e-15
3.63725e-15
4.0728e-15
4.24346e-15
2.9098e-15
4.84967e-15
6.78954e-15
3.0076e-15
3.0076e-15
1.00253e-15
2.9098e-15
2.00507e-15
4.84967e-15
4.84967e-15
5.8196e-15
4.01014e-15
5.8196e-15
8.7294e-15
5.01267e-15
9.69934e-15
5.8196e-15
5.8196e-15
4.5114e-15
2.50634e-15
1.93987e-15
2.50634e-15
3.87974e-15
6.01521e-15
1.06693e-14
1.06693e-14
4.66178e-14
3.35849e-13
2.32989e-12
1.60586e-11
1.0872e-10
7.20866e-10
4.67239e-09
2.95335e-08
1.81532e-07
1.08139e-06
6.21753e-06
3.43286e-05
0.000180838
0.000901234
0.00420005
0.0179944
0.0688351
0.221539
0.540174
0.954216
1
1
1
1
1
1
1
1
1
1
1
1
1
0.392014
0.0570765
0.00734365
0.000923285
0.000114829
1.41365e-05
1.72169e-06
2.07332e-07
2.468e-08
2.90372e-09
3.37683e-10
3.88144e-11
4.41428e-12
5.0252e-13
5.76457e-14
6.06209e-15
6.26584e-15
9.39876e-15
9.39876e-15
6.66829e-15
6.26584e-15
1.81863e-15
7.88071e-15
4.24346e-15
3.63725e-15
3.13292e-15
6.06209e-15
4.24346e-15
1.81863e-15
5.45588e-15
3.63725e-15
2.42483e-15
6.66829e-15
4.38609e-15
6.06209e-15
6.06209e-15
5.45588e-15
2.50634e-15
3.13292e-15
3.13292e-15
6.66829e-15
3.87974e-15
3.0076e-15
1.93987e-15
3.87974e-15
1.93987e-15
2.9098e-15
5.8196e-15
1.93987e-15
4.84967e-15
2.50634e-15
2.50634e-15
3.87974e-15
5.8196e-15
1.06693e-14
5.8196e-15
9.69934e-15
5.8196e-15
5.8196e-15
3.87974e-15
2.00507e-15
2.50634e-15
2.50634e-15
5.8196e-15
9.69934e-16
5.01267e-15
1.06693e-14
3.0076e-14
3.32841e-13
2.33089e-12
1.60606e-11
1.08721e-10
7.20856e-10
4.67238e-09
2.95334e-08
1.81531e-07
1.08139e-06
6.21752e-06
3.43285e-05
0.000180838
0.000901233
0.00420005
0.0179944
0.0688351
0.221539
0.540174
0.954216
1
1
1
1
1
1
1
1
1
1
1
1
1
0.392013
0.0570763
0.00734363
0.000923283
0.000114828
1.41365e-05
1.72169e-06
2.07332e-07
2.46801e-08
2.90373e-09
3.37684e-10
3.88228e-11
4.41428e-12
4.91868e-13
5.70191e-14
7.51901e-15
4.84967e-15
1.87975e-15
4.84967e-15
6.06209e-15
2.42483e-15
3.03104e-15
4.84967e-15
2.42483e-15
3.63725e-15
1.81863e-15
6.06209e-15
4.24346e-15
4.0728e-15
7.2745e-15
5.45588e-15
2.50634e-15
3.44621e-15
3.44621e-15
6.06209e-15
2.42483e-15
5.01267e-15
5.01267e-15
4.0728e-15
6.06209e-15
6.66829e-15
1.35791e-14
1.00253e-15
1.93987e-15
3.87974e-15
1.93987e-15
4.01014e-15
5.8196e-15
3.0076e-15
5.8196e-15
3.87974e-15
1.93987e-15
2.00507e-15
2.50634e-15
1.06693e-14
5.8196e-15
1.93987e-15
5.8196e-15
2.00507e-15
3.87974e-15
3.50887e-15
3.0076e-15
9.69934e-16
5.8196e-15
7.51901e-15
7.75947e-15
1.00253e-14
5.86483e-14
3.20811e-13
2.3324e-12
1.60611e-11
1.0871e-10
7.2086e-10
4.67235e-09
2.95334e-08
1.81531e-07
1.08138e-06
6.21751e-06
3.43285e-05
0.000180838
0.000901233
0.00420005
0.0179944
0.0688351
0.221539
0.540174
0.954216
1
1
1
1
1
1
1
1
1
1
1
1
1
0.392013
0.0570763
0.00734363
0.000923283
0.000114828
1.41365e-05
1.72169e-06
2.07332e-07
2.46802e-08
2.90373e-09
3.37697e-10
3.88156e-11
4.40708e-12
5.00014e-13
5.63926e-14
6.66829e-15
4.24346e-15
2.19304e-15
6.06209e-15
6.06209e-15
5.45588e-15
3.03104e-15
3.63725e-15
2.50634e-15
2.42483e-15
4.84967e-15
6.06209e-16
2.50634e-15
2.50634e-15
7.2745e-15
5.45588e-15
4.0728e-15
2.50634e-15
4.24346e-15
6.06209e-15
2.81963e-15
4.84967e-15
3.63725e-15
2.19304e-15
6.06209e-15
3.7595e-15
1.35791e-14
5.51394e-15
5.51394e-15
9.69934e-16
1.93987e-15
1.5038e-15
1.5038e-15
1.93987e-15
5.8196e-15
3.87974e-15
2.00507e-15
2.00507e-15
1.5038e-15
1.5038e-15
1.93987e-15
1.93987e-15
1.5038e-15
3.50887e-15
3.87974e-15
2.50634e-15
2.50634e-15
2.50634e-15
2.00507e-15
1.93987e-15
7.75947e-15
4.5114e-15
4.01014e-14
3.26325e-13
2.32989e-12
1.60566e-11
1.08725e-10
7.20859e-10
4.67233e-09
2.95333e-08
1.81531e-07
1.08138e-06
6.21751e-06
3.43285e-05
0.000180838
0.000901232
0.00420005
0.0179944
0.0688351
0.221539
0.540174
0.954216
1
1
1
1
1
1
1
1
1
1
1
1
1
0.392013
0.0570763
0.00734363
0.000923283
0.000114828
1.41365e-05
1.72169e-06
2.07332e-07
2.46802e-08
2.90372e-09
3.37693e-10
3.88303e-11
4.41616e-12
4.85603e-13
5.10666e-14
7.51901e-15
2.42483e-15
1.21242e-15
6.06209e-15
3.13292e-15
5.45588e-15
4.38609e-15
6.89242e-15
6.89242e-15
2.50634e-15
4.84967e-15
1.87975e-15
2.81963e-15
2.81963e-15
4.84967e-15
1.21242e-15
3.63725e-15
2.19304e-15
4.24346e-15
3.63725e-15
3.44621e-15
2.50634e-15
3.63725e-15
1.81863e-15
5.45588e-15
2.42483e-15
)
;

boundaryField
{
    sides1
    {
        type            calculated;
        value           uniform 0;
    }
    sides2
    {
        type            calculated;
        value           uniform 0;
    }
    empty
    {
        type            empty;
    }
}


// ************************************************************************* //
