/*--------------------------------*- C++ -*----------------------------------*\
| =========                 |                                                 |
| \\      /  F ield         | OpenFOAM: The Open Source CFD Toolbox           |
|  \\    /   O peration     | Version:  3.0.1                                 |
|   \\  /    A nd           | Web:      www.OpenFOAM.org                      |
|    \\/     M anipulation  |                                                 |
\*---------------------------------------------------------------------------*/
FoamFile
{
    version     2.0;
    format      ascii;
    class       volVectorField;
    location    "5e-05";
    object      U;
}
// * * * * * * * * * * * * * * * * * * * * * * * * * * * * * * * * * * * * * //

dimensions      [0 1 -1 0 0 0 0];

internalField   nonuniform List<vector> 
1000
(
(5.58372e-13 2.37724e-13 0)
(4.86514e-13 6.85898e-14 0)
(2.15739e-13 6.12867e-14 0)
(1.32246e-13 -4.96491e-14 0)
(-3.29594e-14 -2.40731e-14 0)
(-3.99765e-13 8.35313e-14 0)
(-2.68856e-13 1.81998e-13 0)
(1.83677e-13 1.65722e-13 0)
(-2.01022e-13 9.16791e-14 0)
(1.97973e-14 1.57888e-13 0)
(-2.96965e-13 1.88741e-13 0)
(4.01773e-14 3.14333e-13 0)
(2.86907e-13 6.90649e-14 0)
(-9.24391e-14 -6.28317e-14 0)
(-2.974e-14 1.80863e-13 0)
(3.58265e-13 1.93379e-13 0)
(3.45096e-14 1.96803e-14 0)
(-2.87762e-13 2.33918e-13 0)
(3.44773e-13 -2.32274e-14 0)
(-3.50791e-15 -6.71962e-15 0)
(-1.81137e-13 -5.8519e-14 0)
(1.81205e-13 1.67372e-13 0)
(3.90579e-13 -3.18962e-14 0)
(-2.40213e-13 -3.73942e-13 0)
(2.62353e-13 1.03958e-15 0)
(2.8814e-13 -1.12475e-13 0)
(1.33358e-13 9.74544e-14 0)
(7.67969e-12 -3.06735e-14 0)
(4.95107e-11 -1.88383e-13 0)
(3.54463e-10 -7.49783e-14 0)
(2.4573e-09 -2.09255e-13 0)
(1.67357e-08 -4.20076e-13 0)
(1.11676e-07 -2.54506e-12 0)
(7.2859e-07 -2.01528e-11 0)
(4.63616e-06 -1.42674e-10 0)
(2.86898e-05 -9.7402e-10 0)
(0.000172054 -6.39135e-09 0)
(0.000995646 -4.02632e-08 0)
(0.00552975 -2.42914e-07 0)
(0.029273 -1.39839e-06 0)
(0.146404 -7.64845e-06 0)
(0.683738 -3.94827e-05 0)
(2.91816 -0.000188463 0)
(10.7454 -0.000768119 0)
(30.772 -0.00220876 0)
(63.3275 -0.00326138 0)
(100.238 -0.00105074 0)
(139.055 0.00792809 0)
(177.149 -0.0148398 0)
(210.427 0.116623 0)
(237.088 -0.040968 0)
(251.85 -0.0532188 0)
(243.734 -0.0223092 0)
(250.719 0.0160976 0)
(256.327 0.168765 0)
(251.88 0.207212 0)
(229.193 0.170701 0)
(177.087 0.102207 0)
(66.9994 0.0304436 0)
(8.63019 0.00311856 0)
(0.950172 0.000302779 0)
(0.117866 2.98398e-05 0)
(0.0145938 3.05395e-06 0)
(0.00179144 3.22523e-07 0)
(0.000217478 3.48367e-08 0)
(2.6097e-05 3.42144e-09 0)
(3.09475e-06 3.49169e-10 0)
(3.62664e-07 3.72015e-11 0)
(4.20038e-08 4.05764e-12 0)
(4.80939e-09 5.33357e-13 0)
(5.44499e-10 6.77305e-14 0)
(6.0775e-11 -4.08167e-14 0)
(6.97889e-12 -3.65764e-14 0)
(7.80077e-13 -6.68531e-15 0)
(-1.96906e-13 -7.60595e-14 0)
(1.31127e-13 3.06069e-14 0)
(2.32022e-13 -6.96546e-14 0)
(-2.31261e-13 -9.44189e-14 0)
(8.87828e-14 4.65678e-14 0)
(1.94721e-13 -3.36629e-14 0)
(-3.79108e-14 5.66485e-15 0)
(-2.94414e-13 1.27649e-13 0)
(1.83851e-13 1.79926e-15 0)
(-1.51624e-13 -9.22159e-14 0)
(2.44085e-13 -6.18575e-14 0)
(3.07085e-14 -8.86489e-14 0)
(-2.37266e-13 -6.41634e-14 0)
(-5.46692e-14 -6.55088e-14 0)
(-1.73904e-13 -4.92475e-14 0)
(-1.72093e-13 7.86023e-14 0)
(-3.41037e-15 1.8872e-13 0)
(1.52278e-13 1.29297e-13 0)
(3.77043e-14 1.92972e-13 0)
(4.27584e-13 -2.43375e-14 0)
(-2.10709e-13 1.80704e-13 0)
(2.23297e-13 -6.32459e-14 0)
(1.19765e-13 -3.41655e-14 0)
(-2.39492e-13 -8.81959e-14 0)
(-7.02224e-14 5.71433e-14 0)
(-4.274e-14 -2.1333e-13 0)
(2.23352e-13 -4.43303e-15 0)
(1.20724e-13 -1.91607e-13 0)
(-4.83547e-14 -1.75805e-13 0)
(-2.85368e-14 -1.49945e-13 0)
(1.49669e-13 -1.70523e-13 0)
(1.60178e-13 -2.05227e-13 0)
(2.44866e-14 -9.38586e-14 0)
(-5.35544e-14 1.90388e-13 0)
(-2.67295e-13 -1.18386e-13 0)
(2.13989e-13 -9.27739e-14 0)
(7.32272e-14 -6.24503e-14 0)
(-2.2082e-13 1.16138e-13 0)
(-2.1835e-13 -2.28043e-13 0)
(2.10694e-13 1.91596e-13 0)
(1.75752e-13 -8.02189e-14 0)
(-2.72874e-15 2.22389e-13 0)
(1.681e-13 -1.47171e-13 0)
(-4.156e-13 3.10296e-13 0)
(-1.25458e-13 8.55041e-14 0)
(-1.55112e-14 6.49492e-14 0)
(1.15816e-13 2.72019e-13 0)
(3.53684e-13 -7.37111e-14 0)
(-3.4369e-13 1.88669e-13 0)
(-2.39339e-13 -8.87646e-14 0)
(3.06551e-13 1.34047e-13 0)
(1.96489e-13 -3.95967e-13 0)
(7.93947e-13 1.11389e-14 0)
(6.66801e-12 -1.73007e-13 0)
(4.92167e-11 -1.92185e-13 0)
(3.55079e-10 -2.36736e-13 0)
(2.45584e-09 -5.69695e-13 0)
(1.67311e-08 -3.01646e-12 0)
(1.11635e-07 -2.17815e-11 0)
(7.28281e-07 -1.59458e-10 0)
(4.63405e-06 -1.09779e-09 0)
(2.86758e-05 -7.28251e-09 0)
(0.000171965 -4.64108e-08 0)
(0.000995104 -2.8347e-07 0)
(0.00552659 -1.6528e-06 0)
(0.0292556 -9.15212e-06 0)
(0.146313 -4.77512e-05 0)
(0.683286 -0.000231853 0)
(2.91611 -0.00101712 0)
(10.7384 -0.00371996 0)
(30.7601 -0.00957802 0)
(63.3302 -0.0137334 0)
(100.268 -0.00651484 0)
(139.111 0.0199673 0)
(177.207 -0.000145707 0)
(210.464 0.196543 0)
(237.127 0.0240574 0)
(251.703 0.0293201 0)
(243.448 0.0665675 0)
(250.387 0.107358 0)
(255.95 0.146934 0)
(251.542 0.127761 0)
(228.92 0.0632512 0)
(176.765 0.0305524 0)
(66.7584 0.0113423 0)
(8.59969 0.0015311 0)
(0.948172 0.000182838 0)
(0.117677 2.21321e-05 0)
(0.0145744 2.82637e-06 0)
(0.00178933 3.81288e-07 0)
(0.000217238 5.35424e-08 0)
(2.60687e-05 8.56598e-09 0)
(3.09138e-06 1.23354e-09 0)
(3.62265e-07 1.62392e-10 0)
(4.19574e-08 2.02669e-11 0)
(4.80401e-09 2.355e-12 0)
(5.43596e-10 2.91577e-13 0)
(6.07809e-11 -1.32368e-14 0)
(6.92052e-12 8.30029e-14 0)
(5.12872e-13 -1.36199e-13 0)
(8.17396e-14 6.11905e-16 0)
(7.8205e-14 1.44995e-14 0)
(-4.65859e-14 1.79329e-15 0)
(1.14911e-13 -1.07968e-13 0)
(1.65268e-13 5.13159e-14 0)
(-3.77958e-14 3.73574e-14 0)
(3.64909e-13 -1.51905e-13 0)
(-1.70921e-13 5.87614e-14 0)
(-3.10005e-13 3.8371e-14 0)
(-3.2345e-13 -8.30168e-14 0)
(2.79852e-13 1.26683e-13 0)
(-4.52964e-14 -1.83559e-13 0)
(-1.15386e-13 1.413e-13 0)
(-4.22731e-14 -3.04479e-14 0)
(1.10199e-13 2.74406e-13 0)
(3.5617e-13 -1.32254e-13 0)
(-3.38063e-14 2.71488e-13 0)
(1.82985e-13 -2.51693e-13 0)
(-2.05449e-13 1.28666e-13 0)
(2.36562e-13 -1.68595e-13 0)
(-1.02236e-13 -8.53265e-14 0)
(-2.26473e-13 -6.59208e-15 0)
(4.45669e-14 -1.73033e-13 0)
(-1.50717e-14 6.07135e-14 0)
(-3.05102e-13 7.61783e-14 0)
(-6.0887e-13 2.1908e-13 0)
(2.40095e-13 -2.05016e-13 0)
(1.14751e-13 -2.29695e-13 0)
(5.56956e-13 -5.25884e-14 0)
(2.24898e-13 -2.29851e-13 0)
(-1.28161e-13 6.20286e-14 0)
(-3.21255e-13 -1.84138e-13 0)
(4.14036e-13 3.44808e-14 0)
(4.66702e-14 -3.14203e-14 0)
(-6.5536e-13 -8.40842e-14 0)
(2.43935e-13 -1.08889e-13 0)
(-9.97145e-14 -1.08544e-13 0)
(-1.76499e-13 -2.42497e-13 0)
(2.99141e-13 7.85884e-14 0)
(1.72893e-13 -7.70904e-14 0)
(1.99524e-13 -9.04471e-14 0)
(1.57369e-13 -1.38942e-13 0)
(5.93689e-14 -1.31521e-13 0)
(3.59203e-13 -2.34766e-13 0)
(-1.9631e-13 2.00641e-13 0)
(3.22947e-13 -3.48008e-13 0)
(-4.4894e-13 2.35519e-13 0)
(-4.62468e-14 -2.84142e-13 0)
(4.88536e-13 -8.13636e-14 0)
(-4.80326e-13 1.07704e-13 0)
(-6.03025e-14 3.8268e-14 0)
(-1.37484e-13 -1.25248e-13 0)
(1.03822e-12 1.39881e-14 0)
(7.04792e-12 -8.37202e-14 0)
(4.93281e-11 1.45494e-13 0)
(3.54354e-10 -1.12689e-13 0)
(2.45535e-09 -3.60942e-13 0)
(1.67216e-08 -3.08827e-12 0)
(1.11566e-07 -2.3061e-11 0)
(7.2781e-07 -1.56191e-10 0)
(4.63091e-06 -1.0393e-09 0)
(2.86556e-05 -6.6319e-09 0)
(0.000171841 -4.06026e-08 0)
(0.000994372 -2.37551e-07 0)
(0.0055225 -1.3214e-06 0)
(0.029234 -6.93331e-06 0)
(0.146206 -3.39201e-05 0)
(0.682801 -0.000151767 0)
(2.91419 -0.00059904 0)
(10.7328 -0.00194331 0)
(30.7523 -0.0046048 0)
(63.3306 -0.00656808 0)
(100.283 -0.00643999 0)
(139.145 -0.00136065 0)
(177.249 -0.00156562 0)
(210.524 0.0716074 0)
(237.19 -0.0112579 0)
(251.854 0.177289 0)
(243.682 0.222121 0)
(250.657 0.240012 0)
(256.315 0.0308817 0)
(251.914 -0.0807435 0)
(229.291 -0.181757 0)
(177.168 -0.168184 0)
(67.0148 -0.060039 0)
(8.6275 -0.00669363 0)
(0.949776 -0.000642595 0)
(0.117803 -5.6875e-05 0)
(0.0145834 -4.60109e-06 0)
(0.00178978 -3.09799e-07 0)
(0.000217222 -1.26628e-08 0)
(2.60595e-05 -1.75378e-10 0)
(3.08957e-06 9.31043e-11 0)
(3.61984e-07 2.74249e-11 0)
(4.19167e-08 5.60178e-12 0)
(4.79874e-09 1.04439e-12 0)
(5.43118e-10 -1.28527e-13 0)
(6.11511e-11 1.40948e-13 0)
(6.3789e-12 -1.23443e-13 0)
(6.59472e-13 4.32774e-14 0)
(1.614e-13 -2.45091e-14 0)
(1.01645e-13 6.96546e-14 0)
(7.70881e-14 -2.80848e-14 0)
(-2.82301e-14 2.58663e-13 0)
(2.75648e-13 -1.34845e-13 0)
(-2.13802e-13 -4.10128e-14 0)
(5.4971e-16 4.3435e-14 0)
(1.11108e-13 -1.31485e-13 0)
(-2.09221e-13 1.07074e-13 0)
(7.54093e-14 8.38371e-14 0)
(1.70691e-13 1.59014e-13 0)
(-5.42942e-14 1.0877e-13 0)
(7.58178e-14 2.49554e-13 0)
(1.79846e-13 -9.65471e-14 0)
(-4.85383e-13 2.06112e-13 0)
(-6.9698e-14 -6.95756e-14 0)
(-1.83497e-13 -8.46219e-14 0)
(-1.69721e-13 -2.99735e-14 0)
(3.35022e-13 -1.97289e-13 0)
(-1.44196e-13 2.99183e-14 0)
(2.10936e-13 -1.72627e-13 0)
(7.80013e-14 2.47734e-13 0)
(1.67797e-13 6.59177e-14 0)
(1.64971e-13 1.61892e-13 0)
(2.32874e-13 -1.27738e-13 0)
(2.95749e-13 2.3571e-13 0)
(1.56624e-13 -3.76118e-14 0)
(3.75009e-13 1.81561e-14 0)
(-8.16541e-14 -1.00321e-14 0)
(1.78548e-13 5.38975e-14 0)
(2.47851e-13 1.70591e-13 0)
(2.11345e-14 1.87848e-14 0)
(3.30751e-13 2.56856e-13 0)
(-2.11117e-13 -3.04791e-13 0)
(-2.21784e-13 3.36067e-13 0)
(-3.73046e-14 1.83632e-13 0)
(-1.47498e-13 2.26948e-13 0)
(2.53333e-13 4.16892e-14 0)
(-1.16398e-14 3.17113e-13 0)
(-2.85187e-13 -6.76719e-14 0)
(1.83776e-13 -5.35005e-14 0)
(2.0747e-14 -3.09762e-15 0)
(-1.78603e-13 2.05579e-13 0)
(1.95453e-13 -3.03079e-13 0)
(-2.76755e-13 -1.38708e-13 0)
(2.75514e-14 -8.73048e-14 0)
(3.09098e-13 -3.86615e-13 0)
(-4.4353e-13 3.41633e-14 0)
(1.05246e-13 -5.32584e-13 0)
(3.53712e-13 -3.30071e-13 0)
(-3.98393e-14 -3.97058e-14 0)
(2.30624e-14 -1.70221e-13 0)
(1.1604e-12 3.72122e-15 0)
(6.5125e-12 -3.38208e-14 0)
(4.97496e-11 -5.04477e-14 0)
(3.53552e-10 -4.16484e-13 0)
(2.45519e-09 -2.63933e-13 0)
(1.6713e-08 -2.0985e-12 0)
(1.11515e-07 -1.26632e-11 0)
(7.27466e-07 -8.22205e-11 0)
(4.62867e-06 -5.21312e-10 0)
(2.86417e-05 -3.17942e-09 0)
(0.000171758 -1.85863e-08 0)
(0.000993905 -1.03659e-07 0)
(0.00551999 -5.47802e-07 0)
(0.0292213 -2.718e-06 0)
(0.146147 -1.24924e-05 0)
(0.682552 -5.21123e-05 0)
(2.91329 -0.000191054 0)
(10.7303 -0.000586865 0)
(30.7479 -0.00143744 0)
(63.3269 -0.00295292 0)
(100.283 -0.00398952 0)
(139.152 -0.00326281 0)
(177.275 -0.00429595 0)
(210.573 0.0204986 0)
(237.237 -0.00509047 0)
(251.908 0.0555679 0)
(243.712 0.0619504 0)
(250.666 0.0623318 0)
(256.295 0.0312772 0)
(251.891 0.0185059 0)
(229.29 -0.0029965 0)
(177.227 -0.014349 0)
(67.1086 -0.0103381 0)
(8.64468 -0.0019053 0)
(0.951276 -0.000260448 0)
(0.117954 -3.19154e-05 0)
(0.0145981 -3.65099e-06 0)
(0.00179113 -3.99309e-07 0)
(0.00021734 -4.18407e-08 0)
(2.60693e-05 -3.79322e-09 0)
(3.09025e-06 -2.85615e-10 0)
(3.62006e-07 -1.67677e-11 0)
(4.19135e-08 -4.15633e-13 0)
(4.79587e-09 7.97762e-14 0)
(5.43781e-10 5.62637e-14 0)
(6.05977e-11 4.81993e-16 0)
(6.71519e-12 -2.15239e-13 0)
(7.23061e-13 9.93952e-14 0)
(1.42205e-13 -1.20625e-13 0)
(5.26234e-14 -3.06292e-16 0)
(2.20804e-13 -2.60405e-13 0)
(-1.34595e-14 8.02992e-14 0)
(-4.74696e-13 -1.40686e-13 0)
(4.07486e-13 -2.10168e-13 0)
(1.73976e-13 -1.63414e-13 0)
(-1.50019e-13 -2.2975e-14 0)
(1.45718e-13 -2.07624e-13 0)
(-1.89444e-13 -9.90885e-14 0)
(2.24007e-13 -9.66605e-14 0)
(2.75036e-13 -5.77019e-14 0)
(-5.66361e-13 -6.99891e-14 0)
(-1.07888e-13 -4.11317e-15 0)
(2.40694e-13 -1.18474e-13 0)
(-2.42518e-13 7.30417e-14 0)
(5.19872e-14 -4.47043e-14 0)
(-1.01711e-14 2.65912e-13 0)
(-6.26895e-14 1.00034e-13 0)
(2.38228e-13 6.11291e-14 0)
(2.01998e-13 1.4757e-13 0)
(2.57157e-13 -6.28697e-14 0)
(-1.93455e-13 8.74369e-14 0)
(-2.60911e-13 -2.30973e-14 0)
(-1.45302e-13 -8.52406e-14 0)
(8.32992e-14 -2.66273e-14 0)
(2.91342e-13 1.61954e-13 0)
(1.91847e-13 5.85414e-14 0)
(4.86719e-13 8.01728e-14 0)
(4.60354e-13 3.25886e-14 0)
(-4.80425e-14 -2.03532e-14 0)
(-4.41533e-14 7.81495e-14 0)
(-1.49199e-13 1.99641e-15 0)
(-1.77321e-14 -7.09086e-14 0)
(1.505e-13 -5.1236e-15 0)
(1.22862e-13 -2.30667e-14 0)
(-1.85983e-13 9.58306e-14 0)
(-1.22724e-13 -1.08807e-13 0)
(1.82053e-13 -6.89087e-14 0)
(-3.11716e-13 1.68434e-14 7.76404e-32)
(4.96714e-14 6.48183e-14 0)
(6.48735e-13 -1.07797e-13 0)
(-4.76047e-13 -2.85736e-15 0)
(-1.34082e-13 5.35951e-14 0)
(2.7788e-13 3.355e-14 0)
(-1.42756e-13 2.80217e-13 0)
(-3.66314e-13 -1.90127e-13 0)
(8.18939e-14 -2.32891e-14 0)
(-3.36113e-13 8.44921e-14 0)
(5.1065e-13 8.0558e-14 0)
(-1.73759e-13 -2.42736e-13 0)
(-4.0921e-15 1.78459e-13 0)
(1.32422e-12 1.07384e-13 0)
(6.76855e-12 -1.11381e-13 0)
(4.9234e-11 3.54213e-14 0)
(3.5328e-10 1.56046e-15 0)
(2.45533e-09 9.05324e-14 0)
(1.67095e-08 -5.29718e-13 7.76404e-32)
(1.11491e-07 -3.86378e-12 0)
(7.27312e-07 -2.59375e-11 0)
(4.62773e-06 -1.54692e-10 0)
(2.86361e-05 -8.99614e-10 0)
(0.000171727 -4.98571e-09 -7.76403e-32)
(0.000993735 -2.6292e-08 0)
(0.00551912 -1.3094e-07 0)
(0.0292172 -6.09834e-07 7.76341e-32)
(0.146129 -2.6187e-06 0)
(0.682482 -1.01619e-05 0)
(2.91305 -3.45513e-05 0)
(10.7297 -9.86496e-05 -7.58066e-32)
(30.7467 -0.000228556 0)
(63.3254 -0.000446068 0)
(100.282 -0.000819386 0)
(139.153 -0.00110303 0)
(177.28 -0.000840639 0)
(210.583 0.000918938 0)
(237.255 -0.00116557 0)
(251.931 0.0110765 0)
(243.716 0.0133391 0)
(250.649 0.0143284 0)
(256.268 0.0104014 0)
(251.874 0.00886967 -3.41191e-32)
(229.273 0.00409325 3.67413e-32)
(177.221 0.000275333 0)
(67.1177 -0.000382883 0)
(8.64768 -0.000152042 -3.19775e-32)
(0.951659 -3.14105e-05 0)
(0.118005 -5.35088e-06 0)
(0.0146045 -8.13404e-07 0)
(0.00179189 -1.12856e-07 0)
(0.000217425 -1.41364e-08 0)
(2.60779e-05 -1.64643e-09 0)
(3.09104e-06 -1.85305e-10 0)
(3.62075e-07 -1.99652e-11 0)
(4.1919e-08 -2.03661e-12 0)
(4.79765e-09 -1.5861e-13 0)
(5.42906e-10 1.92692e-13 0)
(6.04458e-11 -2.22653e-14 3.10545e-32)
(6.94828e-12 3.09697e-13 0)
(7.77431e-13 4.57943e-14 0)
(-1.62598e-13 2.69004e-13 0)
(-5.27049e-14 9.42092e-14 0)
(1.47559e-13 1.54674e-13 0)
(2.5979e-13 -1.11767e-13 0)
(-3.2712e-13 1.91561e-13 0)
(-3.7494e-13 -1.61409e-14 0)
(4.17249e-13 8.26117e-15 0)
(-8.74088e-14 6.02966e-15 0)
(-2.52079e-13 -1.75912e-13 0)
(5.43592e-13 5.54092e-14 0)
(-4.15947e-14 -5.98052e-14 0)
(1.00745e-13 -8.92582e-14 0)
(9.80796e-14 4.40777e-14 0)
(1.50283e-13 1.01977e-13 0)
(-2.51023e-13 8.99862e-14 0)
(-9.56399e-14 4.6723e-14 0)
(2.79287e-13 1.25189e-13 0)
(-7.46061e-14 -3.29248e-14 -3.10545e-32)
(-7.72985e-14 1.76139e-15 0)
(1.57868e-13 1.24262e-13 -3.10545e-32)
(-1.72145e-13 -8.05803e-14 0)
(1.09647e-14 -1.74172e-13 0)
(1.82073e-13 -1.35122e-13 0)
(-4.04565e-14 -1.11815e-13 0)
(3.5282e-13 3.88884e-14 0)
(1.92719e-13 6.52501e-14 0)
(1.47881e-14 2.17417e-13 0)
(1.55656e-13 5.58097e-14 0)
(-2.06625e-13 7.12276e-14 0)
(1.21737e-13 -9.01351e-14 0)
(1.94912e-13 -1.72311e-14 0)
(1.66751e-13 -1.10827e-14 0)
(-1.57151e-13 -2.01764e-14 0)
(-1.06571e-13 7.6078e-15 0)
(-1.10249e-13 -6.05875e-14 0)
(1.09657e-13 -2.03102e-13 0)
(-2.42416e-13 -9.57948e-14 0)
(-5.96107e-14 -1.70716e-15 0)
(2.08754e-13 -2.13992e-13 0)
(2.90867e-13 1.25012e-13 -7.76404e-32)
(-4.059e-13 -1.98047e-13 0)
(-6.22851e-14 -1.11033e-13 0)
(7.2272e-15 -2.78268e-13 0)
(2.99886e-13 1.24882e-14 0)
(1.96206e-13 1.52038e-14 0)
(-3.67092e-13 -1.95413e-13 0)
(-3.94019e-13 3.05494e-14 0)
(3.6217e-13 -9.78227e-14 0)
(-5.57044e-14 -9.90886e-14 0)
(-8.95247e-14 1.47645e-13 0)
(4.74371e-14 -5.27042e-14 0)
(9.43298e-13 -6.73363e-14 0)
(3.99848e-13 -1.97894e-13 0)
(6.35987e-12 3.22859e-14 0)
(5.0193e-11 -5.6126e-15 0)
(3.53344e-10 2.42866e-13 0)
(2.45475e-09 -3.98504e-14 0)
(1.67082e-08 -2.26321e-14 -7.76404e-32)
(1.11484e-07 -9.68903e-13 0)
(7.2727e-07 -4.99206e-12 0)
(4.62749e-06 -3.06364e-11 0)
(2.86348e-05 -1.69009e-10 0)
(0.000171719 -8.9476e-10 7.76403e-32)
(0.000993696 -4.4726e-09 0)
(0.00551894 -2.1059e-08 0)
(0.0292164 -9.24378e-08 -7.76341e-32)
(0.146125 -3.73498e-07 0)
(0.682469 -1.36306e-06 0)
(2.91302 -4.37886e-06 0)
(10.7296 -1.17614e-05 7.58065e-32)
(30.7466 -2.5486e-05 0)
(63.3252 -4.60509e-05 0)
(100.282 -8.07085e-05 0)
(139.153 -0.000161713 0)
(177.28 -0.000196085 0)
(210.585 2.66178e-05 0)
(237.259 -0.000195212 0)
(251.936 0.00128384 0)
(243.72 0.00198123 0)
(250.649 0.00307166 0)
(256.264 0.00306589 0)
(251.869 0.00245251 3.41204e-32)
(229.266 0.00163265 -3.67421e-32)
(177.218 0.000789502 0)
(67.1176 5.33974e-05 0)
(8.64783 5.91892e-07 3.19775e-32)
(0.951694 -7.24617e-07 0)
(0.118012 -3.19019e-07 0)
(0.0146057 -8.12202e-08 0)
(0.00179206 -1.56689e-08 0)
(0.000217447 -2.685e-09 0)
(2.60807e-05 -4.0708e-10 0)
(3.09139e-06 -5.68194e-11 0)
(3.62116e-07 -7.22124e-12 0)
(4.19225e-08 -7.60945e-13 0)
(4.79821e-09 -2.05432e-13 0)
(5.43022e-10 -4.64183e-14 0)
(6.10166e-11 1.03621e-13 -3.10545e-32)
(6.82027e-12 8.16476e-14 0)
(6.76415e-13 1.29806e-13 0)
(3.10751e-13 1.98132e-13 0)
(-2.18695e-13 1.45644e-13 0)
(4.44873e-14 8.59515e-14 0)
(7.01206e-14 5.53499e-14 0)
(-3.30161e-13 -5.0535e-14 0)
(1.92026e-13 -2.87712e-14 0)
(1.45673e-13 2.96068e-15 0)
(-3.47523e-13 -2.5038e-13 0)
(3.1032e-13 1.68385e-14 0)
(5.2804e-14 4.5087e-14 0)
(2.19497e-14 -1.50385e-13 0)
(5.53981e-13 6.16898e-14 0)
(-2.34554e-14 -1.87163e-13 0)
(-7.02919e-14 -5.49797e-14 0)
(-8.10187e-14 -1.25448e-13 0)
(4.52036e-14 2.80034e-14 0)
(-1.48612e-13 -2.61671e-14 0)
(-1.52859e-13 -1.48689e-13 3.10545e-32)
(2.92698e-13 -1.99978e-14 0)
(-8.95812e-14 -1.20198e-13 3.10545e-32)
(-1.94571e-13 -5.16921e-14 0)
(1.64884e-13 1.76799e-13 0)
(-2.99429e-14 -3.49565e-14 0)
(-2.26936e-14 -1.58936e-14 0)
(-3.02073e-14 1.51938e-13 0)
(3.75413e-13 -1.19883e-13 0)
(-4.97302e-14 2.37876e-13 0)
(-6.69585e-14 2.0913e-14 0)
(1.96261e-13 -8.20993e-14 0)
(3.76651e-13 1.03209e-13 0)
(-6.58766e-14 -1.97057e-13 0)
(-9.32691e-14 -5.6839e-14 0)
(-2.39525e-14 -2.84534e-13 0)
(-1.09655e-13 3.24977e-14 0)
(-2.70848e-13 -2.32114e-13 0)
(1.74893e-13 1.61107e-13 0)
(2.22285e-13 -3.78291e-13 0)
(-4.95343e-13 2.06765e-13 0)
(4.01644e-13 -2.32608e-13 0)
(-3.09079e-13 7.78964e-14 0)
(-2.36121e-13 -2.8757e-13 0)
(4.02872e-13 1.17317e-13 0)
(-4.36716e-14 -1.75034e-13 0)
(4.24868e-13 -3.77394e-14 0)
(-4.34461e-13 -1.9481e-13 0)
(-1.2491e-13 -1.85233e-13 0)
(6.80268e-14 -4.24244e-14 0)
(-4.24144e-13 3.86096e-14 0)
(2.89135e-13 -1.2546e-13 0)
(5.04333e-13 -7.78316e-14 0)
(-4.58102e-13 -5.11482e-14 0)
(-2.13238e-13 -1.26664e-13 0)
(1.32598e-12 -1.58023e-13 0)
(7.26014e-12 -1.15973e-13 0)
(4.9268e-11 -5.11482e-14 0)
(3.54018e-10 -1.20848e-13 0)
(2.45416e-09 -1.00361e-13 0)
(1.67088e-08 1.10502e-14 0)
(1.11482e-07 -1.98537e-13 0)
(7.27263e-07 -1.34884e-12 0)
(4.62744e-06 -6.52209e-12 0)
(2.86345e-05 -3.43902e-11 0)
(0.000171718 -1.70896e-10 0)
(0.00099369 -8.20538e-10 0)
(0.00551891 -3.72386e-09 0)
(0.0292163 -1.58344e-08 0)
(0.146125 -6.21702e-08 0)
(0.682468 -2.20346e-07 0)
(2.91301 -6.93435e-07 0)
(10.7296 -1.81316e-06 0)
(30.7465 -3.77133e-06 0)
(63.3251 -6.27677e-06 0)
(100.282 -9.55898e-06 0)
(139.153 -1.45208e-05 0)
(177.28 -2.27603e-05 0)
(210.585 -2.78153e-06 0)
(237.26 -2.23613e-05 0)
(251.936 0.000149369 0)
(243.72 0.000225358 0)
(250.65 0.00034852 0)
(256.264 0.00038243 0)
(251.869 0.000350098 0)
(229.266 0.000317662 0)
(177.217 0.000226077 0)
(67.1172 9.85516e-05 0)
(8.64779 1.00629e-05 0)
(0.951693 6.30231e-07 0)
(0.118012 2.71134e-08 0)
(0.0146057 1.39835e-09 0)
(0.00179208 -3.56355e-10 0)
(0.000217451 -1.54788e-10 0)
(2.60814e-05 -4.88631e-11 0)
(3.09149e-06 -8.87354e-12 0)
(3.62129e-07 -1.44454e-12 0)
(4.19241e-08 -3.23184e-13 0)
(4.79821e-09 -1.51665e-14 0)
(5.43463e-10 4.02756e-14 0)
(6.07769e-11 -4.37651e-14 0)
(6.80529e-12 -1.87818e-13 0)
(9.71649e-13 -1.78027e-13 0)
(-6.3965e-14 -1.40816e-13 0)
(-3.59913e-13 -2.26688e-13 0)
(1.7767e-13 -7.35587e-14 0)
(-1.35445e-13 2.28312e-14 0)
(-6.21335e-13 -2.60614e-13 0)
(-5.30171e-14 9.34155e-14 0)
(8.88168e-15 -2.8429e-13 0)
(4.88768e-14 6.27085e-15 0)
(1.57647e-13 6.67952e-14 0)
(2.84201e-14 -2.10103e-13 0)
(1.76286e-13 8.12497e-14 0)
(-6.84659e-14 -2.51117e-13 0)
(3.20628e-14 -2.63457e-13 0)
(2.42468e-13 -4.09507e-14 0)
(-1.56054e-13 -4.19574e-14 0)
(1.9385e-13 -9.71981e-14 0)
(-2.03402e-13 -3.90192e-14 0)
(4.93173e-14 -1.88717e-13 0)
(-3.06939e-14 -4.13229e-14 0)
(-1.69371e-13 -2.19519e-13 0)
(5.786e-13 -7.80988e-14 0)
(-3.49643e-15 -9.40734e-14 0)
(-9.65487e-14 5.19773e-14 0)
(3.54932e-13 8.14385e-14 0)
(-4.75629e-14 1.5022e-13 0)
(-1.45037e-13 -9.2161e-14 0)
(-3.78218e-13 2.30254e-13 0)
(-4.4722e-13 2.73283e-15 0)
(1.74711e-13 3.25705e-13 0)
(-3.79609e-13 -5.24915e-14 0)
(2.89567e-14 -1.29951e-13 0)
(-4.40926e-14 5.19107e-14 0)
(1.09891e-13 -5.62886e-14 0)
(5.51002e-15 -4.38988e-14 0)
(8.15339e-14 9.39325e-15 0)
(-2.25151e-13 -3.13859e-14 0)
(-9.40042e-14 2.60593e-14 0)
(4.01892e-13 2.87032e-14 0)
(-1.71623e-13 1.82471e-13 0)
(-3.68627e-13 -2.31088e-13 0)
(1.24296e-13 4.51449e-13 0)
(1.5786e-13 -2.02491e-13 0)
(-4.3995e-13 6.82328e-14 0)
(3.95148e-13 -1.95239e-13 0)
(7.71582e-14 -6.40947e-14 0)
(-2.87287e-13 2.40994e-13 0)
(2.14326e-13 -1.70335e-13 0)
(-3.32786e-13 2.57273e-13 0)
(2.16013e-13 -2.681e-14 0)
(-4.9517e-14 -1.34533e-13 0)
(-3.15468e-14 -9.7447e-14 0)
(7.1623e-13 -1.14311e-13 0)
(5.52817e-13 3.08223e-13 0)
(6.51245e-12 -1.07225e-13 0)
(5.0539e-11 2.60928e-13 0)
(3.52914e-10 1.45133e-13 0)
(2.45488e-09 -1.16926e-13 0)
(1.67085e-08 -1.26409e-13 0)
(1.11482e-07 -1.90297e-13 0)
(7.2726e-07 -8.74482e-13 0)
(4.62742e-06 -4.0318e-12 0)
(2.86344e-05 -1.90252e-11 0)
(0.000171718 -9.25778e-11 0)
(0.000993688 -4.23429e-10 0)
(0.0055189 -1.86815e-09 0)
(0.0292162 -7.87671e-09 0)
(0.146125 -3.08243e-08 0)
(0.682467 -1.0879e-07 0)
(2.91301 -3.32355e-07 0)
(10.7296 -8.32863e-07 0)
(30.7465 -1.63606e-06 0)
(63.3251 -2.49769e-06 0)
(100.282 -2.87512e-06 0)
(139.153 -2.86493e-06 0)
(177.28 -4.57273e-06 0)
(210.585 1.92603e-06 0)
(237.26 -1.16431e-05 0)
(251.937 1.15516e-05 0)
(243.72 2.12937e-05 0)
(250.65 3.23911e-05 0)
(256.264 5.74662e-05 0)
(251.868 5.0996e-05 0)
(229.265 4.92638e-05 0)
(177.217 3.94959e-05 0)
(67.117 1.5853e-05 0)
(8.64777 2.54804e-06 0)
(0.951691 3.99661e-07 0)
(0.118012 5.89224e-08 0)
(0.0146057 5.36974e-09 0)
(0.00179208 2.10143e-10 0)
(0.000217451 -1.89698e-11 0)
(2.60814e-05 -8.77578e-12 0)
(3.0915e-06 -1.67813e-12 0)
(3.6213e-07 -5.07276e-13 0)
(4.19252e-08 -1.41525e-13 0)
(4.79852e-09 9.55158e-14 0)
(5.42868e-10 -5.79269e-14 0)
(6.04993e-11 -5.50143e-14 0)
(6.64041e-12 -2.12765e-13 0)
(9.85009e-13 -1.52123e-13 0)
(-4.48815e-14 -2.93473e-13 0)
(-7.84177e-14 -2.36237e-13 0)
(3.62419e-13 -2.49082e-14 0)
(-2.54254e-13 -1.33583e-13 0)
(-9.09481e-16 1.69253e-13 0)
(-4.98756e-14 1.2607e-13 0)
(-2.22377e-13 1.51951e-13 0)
(2.65461e-13 1.76701e-13 0)
(-1.1623e-14 1.08159e-13 0)
(2.19533e-14 1.17841e-13 0)
(-9.64762e-14 1.07083e-13 0)
(-2.71809e-13 -3.20503e-14 0)
(2.26829e-13 1.70444e-13 0)
(3.78911e-13 -2.54803e-14 0)
(2.94302e-14 9.35407e-14 0)
(-3.44349e-14 1.83048e-13 0)
(-3.12693e-13 -3.65546e-14 0)
(-2.34762e-13 1.9552e-13 0)
(8.05785e-14 -2.69747e-14 0)
(9.81181e-14 1.07169e-13 0)
(-8.79345e-14 -3.12349e-14 0)
(2.60528e-13 -1.68266e-13 0)
(3.0429e-13 1.87115e-14 0)
(1.72809e-13 -3.75305e-14 0)
(-1.42052e-13 -9.79416e-14 0)
(-3.0428e-13 -1.72151e-13 0)
(-3.87276e-13 -4.13994e-13 0)
(2.2363e-13 -3.6254e-14 0)
(-3.92678e-14 -2.8581e-13 0)
(-4.08129e-13 -6.19223e-14 0)
(2.9185e-13 1.81876e-14 0)
(-9.86226e-15 -5.46335e-14 0)
(-4.83121e-13 -1.20264e-13 0)
(1.17633e-13 -8.80734e-14 0)
(-9.07952e-14 2.81275e-14 0)
(2.51312e-14 -1.28598e-13 0)
(2.43395e-13 1.12709e-13 0)
(-6.50965e-14 -1.26783e-13 0)
(-8.15272e-14 -3.75515e-15 0)
(2.7201e-13 -1.66264e-13 0)
(-2.92986e-13 9.77697e-14 0)
(-3.22149e-13 -1.24628e-13 0)
(2.14952e-13 8.01089e-14 0)
(-1.25392e-14 5.21645e-14 0)
(5.3419e-13 1.00249e-14 0)
(-5.17205e-13 -1.81165e-13 0)
(1.0948e-13 3.32358e-14 0)
(-2.18522e-14 -1.76302e-13 0)
(-5.03357e-13 9.24729e-14 0)
(3.76538e-13 -1.55678e-14 0)
(-4.98547e-13 7.39293e-14 0)
(4.55448e-13 3.27396e-14 0)
(1.52024e-12 -1.6195e-13 0)
(6.74435e-12 1.94603e-13 0)
(5.03637e-11 -1.76039e-13 0)
(3.53209e-10 1.42882e-13 0)
(2.4531e-09 -9.31038e-14 0)
(1.67089e-08 5.51587e-14 0)
(1.11482e-07 -2.68634e-13 0)
(7.27257e-07 -9.39762e-13 0)
(4.62741e-06 -4.8606e-12 0)
(2.86344e-05 -2.30886e-11 0)
(0.000171717 -1.05051e-10 0)
(0.000993687 -4.7003e-10 0)
(0.0055189 -2.03921e-09 0)
(0.0292162 -8.51579e-09 0)
(0.146125 -3.34829e-08 0)
(0.682467 -1.18337e-07 0)
(2.91301 -3.55547e-07 0)
(10.7296 -8.3644e-07 0)
(30.7465 -1.37339e-06 0)
(63.3251 -1.45706e-06 0)
(100.282 -1.26834e-06 0)
(139.153 -7.07812e-07 0)
(177.28 3.37448e-07 0)
(210.585 -8.83339e-07 0)
(237.26 2.04117e-06 0)
(251.937 2.43819e-06 0)
(243.72 2.76437e-06 0)
(250.65 4.06557e-06 0)
(256.264 8.22928e-06 0)
(251.868 7.68602e-06 0)
(229.265 7.045e-06 0)
(177.217 5.24256e-06 0)
(67.117 1.8133e-06 0)
(8.64776 2.84672e-07 0)
(0.95169 4.14455e-08 0)
(0.118012 3.94729e-09 0)
(0.0146057 5.345e-11 0)
(0.00179208 -1.05049e-10 0)
(0.000217451 -2.98698e-11 0)
(2.60815e-05 -4.57593e-12 0)
(3.0915e-06 -8.66047e-13 0)
(3.62131e-07 -1.36243e-13 0)
(4.19256e-08 -5.62241e-14 0)
(4.79807e-09 -1.29869e-13 0)
(5.43234e-10 -5.32573e-14 0)
(6.02783e-11 -6.33655e-14 0)
(6.78639e-12 6.41931e-14 0)
(7.55458e-13 -1.0103e-13 0)
(-1.07173e-13 -1.31965e-13 0)
(2.15231e-13 -7.18917e-15 0)
(2.48025e-13 -1.17592e-13 0)
(1.53317e-13 -1.6383e-13 0)
(-1.08652e-13 1.07603e-13 0)
(-1.46344e-13 -2.36474e-13 0)
(1.813e-13 1.43375e-13 0)
(-1.36484e-13 -2.49076e-13 0)
(8.40538e-14 -2.33918e-13 0)
(4.67576e-14 2.97865e-14 0)
(-1.01141e-13 -2.60451e-13 0)
(6.28463e-14 9.90222e-14 0)
(1.38658e-13 8.89563e-14 0)
(1.21045e-14 -3.74724e-14 0)
(1.88899e-13 -7.3118e-14 0)
(-1.01361e-13 -2.87415e-14 0)
(-1.38616e-13 -6.25668e-14 0)
(1.77718e-13 1.15053e-13 0)
(-2.88356e-13 -8.70416e-15 0)
(-1.23866e-13 -2.28318e-14 0)
(9.11685e-14 6.04919e-14 0)
(1.67329e-13 4.97543e-14 0)
(1.38572e-13 -1.28541e-13 0)
(5.59253e-14 -5.38779e-14 0)
(-2.64763e-13 -3.14524e-13 0)
(-2.10713e-13 -4.72853e-14 0)
(1.89043e-13 -1.45597e-13 0)
(-3.49579e-13 5.51567e-14 0)
(2.89657e-13 -3.07679e-13 0)
(-3.96015e-14 1.33731e-13 0)
(-8.26468e-14 -1.03841e-13 0)
(-1.02431e-13 -5.42673e-14 0)
(1.29389e-14 -9.19071e-14 0)
(2.90698e-13 1.14452e-13 0)
(-5.1563e-14 -1.43051e-14 0)
(-4.86539e-14 1.41629e-13 0)
(-1.01709e-13 -1.28093e-13 0)
(1.6319e-13 6.1621e-14 0)
(-2.26333e-13 -4.04656e-14 0)
(-8.98076e-15 4.1667e-14 0)
(1.60433e-13 -1.57343e-13 0)
(-7.09014e-14 1.91996e-13 0)
(-1.02883e-13 -4.45553e-14 0)
(2.72386e-13 5.31626e-14 0)
(-3.86097e-13 5.60841e-14 0)
(-2.70002e-13 -3.25307e-13 0)
(2.0439e-13 6.54902e-14 0)
(-9.29408e-14 -2.3082e-13 0)
(4.33417e-13 8.84279e-14 0)
(-9.1627e-14 1.27538e-13 0)
(2.33899e-13 -3.12051e-14 0)
(3.62036e-13 4.15381e-13 0)
(5.31184e-13 -7.39472e-14 0)
(6.89722e-12 -3.51947e-14 0)
(4.97655e-11 -1.00343e-13 0)
(3.53676e-10 -1.5007e-13 0)
(2.45414e-09 7.81397e-14 0)
(1.6709e-08 1.45525e-13 0)
(1.1148e-07 1.20047e-14 0)
(7.27256e-07 -2.0903e-13 0)
(4.6274e-06 -8.04102e-13 0)
(2.86343e-05 -4.51463e-12 0)
(0.000171717 -1.79361e-11 0)
(0.000993686 -8.0103e-11 0)
(0.00551889 -3.3827e-10 0)
(0.0292162 -1.40197e-09 0)
(0.146125 -5.54718e-09 0)
(0.682467 -1.98383e-08 0)
(2.91301 -5.94686e-08 0)
(10.7296 -1.36283e-07 0)
(30.7465 -1.95253e-07 0)
(63.3251 -1.12324e-07 0)
(100.282 1.22233e-07 0)
(139.153 4.4201e-07 0)
(177.28 1.76305e-07 0)
(210.585 2.61808e-07 0)
(237.26 2.34262e-06 0)
(251.937 5.43156e-07 0)
(243.72 2.28244e-07 0)
(250.65 1.81903e-07 0)
(256.264 -7.10546e-07 0)
(251.868 -7.62449e-07 0)
(229.265 -2.25484e-07 0)
(177.217 7.78486e-08 0)
(67.117 4.34318e-08 0)
(8.64776 7.43814e-09 0)
(0.95169 6.12834e-10 0)
(0.118012 -1.81479e-11 0)
(0.0146057 -9.91717e-12 0)
(0.00179208 -6.55264e-12 0)
(0.000217451 -1.72134e-12 0)
(2.60815e-05 -4.31812e-13 0)
(3.0915e-06 -1.01925e-13 0)
(3.62131e-07 4.20582e-14 0)
(4.1925e-08 3.06808e-14 0)
(4.79866e-09 -5.41532e-14 0)
(5.42835e-10 4.8971e-14 0)
(6.09281e-11 -3.86988e-14 0)
(6.43963e-12 2.01003e-13 0)
(5.28698e-13 -1.10128e-13 0)
(1.53776e-13 7.01637e-14 0)
(8.68731e-15 5.29856e-15 0)
(5.29826e-14 -1.45817e-14 0)
(2.54107e-13 -7.93654e-14 0)
(-1.80821e-13 2.14999e-15 0)
(-5.44843e-14 -8.85691e-14 0)
(-4.77153e-14 -2.14473e-14 0)
(-5.12085e-13 -1.51386e-13 0)
(5.05378e-13 -1.30215e-13 0)
(4.03681e-14 -5.25392e-14 0)
(-7.49392e-14 -6.76518e-14 0)
(3.77752e-13 -6.52116e-15 0)
(-1.53348e-13 -5.70268e-14 0)
(1.40501e-13 -1.01151e-13 0)
(1.96082e-13 1.18813e-14 0)
(-1.68629e-13 -1.01633e-13 0)
(1.87337e-14 3.49495e-15 0)
(-1.0052e-13 -4.77809e-14 0)
(-2.04496e-13 -9.80553e-14 0)
(2.23782e-13 -6.18104e-15 0)
(-4.78311e-14 1.57087e-14 0)
(-2.71835e-14 -4.10866e-14 0)
(1.46151e-13 -4.85557e-14 0)
(-7.84299e-14 -4.5225e-14 0)
(-1.63526e-13 -6.57877e-14 0)
(8.11018e-14 2.11785e-14 0)
)
;

boundaryField
{
    sides1
    {
        type            zeroGradient;
    }
    sides2
    {
        type            slip;
    }
    empty
    {
        type            empty;
    }
}


// ************************************************************************* //
