/*--------------------------------*- C++ -*----------------------------------*\
| =========                 |                                                 |
| \\      /  F ield         | OpenFOAM: The Open Source CFD Toolbox           |
|  \\    /   O peration     | Version:  2012                                  |
|   \\  /    A nd           | Website:  www.openfoam.com                      |
|    \\/     M anipulation  |                                                 |
\*---------------------------------------------------------------------------*/
FoamFile
{
    version     2.0;
    format      ascii;
    class       volScalarField;
    location    "0.5";
    object      rho1;
}
// * * * * * * * * * * * * * * * * * * * * * * * * * * * * * * * * * * * * * //

dimensions      [1 -3 0 0 0 0 0];


internalField   nonuniform List<scalar> 
160
(
1033.085967
1033.085962
1033.08596
1033.08596
1033.08596
1033.085961
1033.085965
1033.08597
1033.085976
1033.085973
1033.085972
1033.085987
1033.085993
1033.086019
1033.08603
1033.08607
1033.086088
1033.086151
1033.086178
1033.086273
1033.086313
1033.086452
1033.086509
1033.086703
1033.086781
1033.087041
1033.087145
1033.087481
1033.087613
1033.088032
1033.088198
1033.088709
1033.088921
1033.089554
1033.089846
1033.090667
1033.091115
1033.092149
1033.092715
1033.09397
1033.094376
1033.094743
1033.095072
1033.095073
1033.095602
1033.095431
1033.09542
1033.093702
1033.091355
1033.087792
1033.08527
1033.081715
1033.078888
1033.075184
1033.072617
1033.069742
1033.067084
1033.063033
1033.060232
1033.056095
1033.053857
1033.05038
1033.048848
1033.046617
1033.045987
1033.044832
1033.044614
1033.044374
1033.044346
1033.044393
1033.044528
1033.044619
1033.044885
1033.044993
1033.045254
1033.045366
1033.045567
1033.045639
1033.045774
1033.045819
1033.045911
1033.045941
1033.046007
1033.046028
1033.046076
1033.04609
1033.046122
1033.046131
1033.046151
1033.046156
1033.046166
1033.046168
1033.046169
1033.046169
1033.046167
1033.046165
1033.046162
1033.046152
1033.046148
1033.046134
1033.046129
1033.046113
1033.046108
1033.046091
1033.046087
1033.04608
1033.046066
1033.046061
1033.046041
1033.046036
1033.046017
1033.046011
1033.045993
1033.045988
1033.045975
1033.04597
1033.045966
1033.04595
1033.045945
1033.045929
1033.045925
1033.045909
1033.045907
1033.045895
1033.045891
1033.04588
1033.045876
1033.045867
1033.045865
1033.045862
1033.045856
1033.045854
1033.045848
1033.045846
1033.04584
1033.045838
1033.045833
1033.045831
1033.045828
1033.045826
1033.045826
1033.045822
1033.045821
1033.045818
1033.045817
1033.045814
1033.045814
1033.045812
1033.045811
1033.045809
1033.045809
1033.045808
1033.045807
1033.045807
1033.045806
1033.045806
1033.045806
1033.045806
1033.045805
1033.045805
)
;

boundaryField
{
    sides
    {
        type            calculated;
        value           nonuniform List<scalar> 2(1033.045805 1033.085967);
    }
    empty1
    {
        type            empty;
    }
    empty2
    {
        type            empty;
    }
}


// ************************************************************************* //
