/*--------------------------------*- C++ -*----------------------------------*\
| =========                 |                                                 |
| \\      /  F ield         | OpenFOAM: The Open Source CFD Toolbox           |
|  \\    /   O peration     | Version:  2012                                  |
|   \\  /    A nd           | Website:  www.openfoam.com                      |
|    \\/     M anipulation  |                                                 |
\*---------------------------------------------------------------------------*/
FoamFile
{
    version     2.0;
    format      ascii;
    class       volVectorField;
    location    "0.5";
    object      U;
}
// * * * * * * * * * * * * * * * * * * * * * * * * * * * * * * * * * * * * * //

dimensions      [0 1 -1 0 0 0 0];


internalField   nonuniform List<vector> 
160
(
(-0.09198713522 0 0)
(-0.05696185548 0 0)
(-0.1712906506 0 0)
(-0.1660328554 0 0)
(-0.2910288033 0 0)
(-0.2739151442 0 0)
(-0.4019418639 0 0)
(-0.3933433608 0 0)
(-0.4771977606 0 0)
(-0.594789221 0 0)
(-0.5392269554 0 0)
(-0.6800818661 0 0)
(-0.6424019276 0 0)
(-0.7772374301 0 0)
(-0.7336521579 0 0)
(-0.8827240294 0 0)
(-0.8071105752 0 0)
(-0.9832563143 0 0)
(-0.8648517284 0 0)
(-1.076035574 0 0)
(-0.906751728 0 0)
(-1.158876653 0 0)
(-0.9329205381 0 0)
(-1.23059169 0 0)
(-0.9442446692 0 0)
(-1.292633141 0 0)
(-0.9414839543 0 0)
(-1.35121722 0 0)
(-0.9217794529 0 0)
(-1.416842226 0 0)
(-0.8732348697 0 0)
(-1.484595946 0 0)
(-0.7779371697 0 0)
(-1.474712097 0 0)
(-0.6457492817 0 0)
(-1.232079116 0 0)
(-0.6144344726 0 0)
(-0.88883196 0 0)
(-0.7379563625 0 0)
(-0.8005017193 0 0)
(-0.8693823452 0 0)
(-0.8300191722 0 0)
(-0.9090379329 0 0)
(-0.8608150361 0 0)
(-0.8868301652 0 0)
(-0.8700484123 0 0)
(-0.88055463 0 0)
(-0.8809666969 0 0)
(-0.8826348094 0 0)
(-0.8800298021 0 0)
(-0.8834796307 0 0)
(-0.8800200379 0 0)
(-0.8830525702 0 0)
(-0.8812480215 0 0)
(-0.8816797779 0 0)
(-0.8822067931 0 0)
(-0.8808676716 0 0)
(-0.8840451869 0 0)
(-0.8791708568 0 0)
(-0.8860588567 0 0)
(-0.8765678855 0 0)
(-0.888523077 0 0)
(-0.8740764138 0 0)
(-0.8883945874 0 0)
(-0.8734427776 0 0)
(-0.8831300062 0 0)
(-0.8746000363 0 0)
(-0.8743073753 0 0)
(-0.8919846973 0 0)
(-0.8659357446 0 0)
(-0.8852005155 0 0)
(-0.8425537273 0 0)
(-0.8408022167 0 0)
(-0.8601719612 0 0)
(-0.79621585 0 0)
(-0.9773667547 0 0)
(-0.7998571554 0 0)
(-1.139915001 0 0)
(-0.8924742919 0 0)
(-1.205734154 0 0)
(-0.9730379326 0 0)
(-1.203974274 0 0)
(-1.020960846 0 0)
(-1.186830626 0 0)
(-1.047775005 0 0)
(-1.167358291 0 0)
(-1.059993712 0 0)
(-1.146634921 0 0)
(-1.061681694 0 0)
(-1.124018489 0 0)
(-1.056957692 0 0)
(-1.102757002 0 0)
(-1.05225582 0 0)
(-1.061673028 0 0)
(-1.029810476 0 0)
(-1.029764838 0 0)
(-1.017029752 0 0)
(-1.014504099 0 0)
(-0.9908259441 0 0)
(-0.9907034281 0 0)
(-0.9587508656 0 0)
(-0.9714154719 0 0)
(-0.9158036328 0 0)
(-0.9588731877 0 0)
(-0.8363725009 0 0)
(-0.9282387507 0 0)
(-0.8330275772 0 0)
(-0.8854340187 0 0)
(-0.841928108 0 0)
(-0.8326532233 0 0)
(-0.8233702838 0 0)
(-0.7862059007 0 0)
(-0.8097812372 0 0)
(-0.7238388277 0 0)
(-0.7844200454 0 0)
(-0.6609684491 0 0)
(-0.7494317724 0 0)
(-0.6771553842 0 0)
(-0.6968821562 0 0)
(-0.6634818192 0 0)
(-0.6466746118 0 0)
(-0.6439523913 0 0)
(-0.605467338 0 0)
(-0.6085566058 0 0)
(-0.5710187758 0 0)
(-0.5781484273 0 0)
(-0.5304763474 0 0)
(-0.5501193556 0 0)
(-0.4746951132 0 0)
(-0.5144910766 0 0)
(-0.4552602739 0 0)
(-0.4778888854 0 0)
(-0.4338768424 0 0)
(-0.4400677024 0 0)
(-0.4031203748 0 0)
(-0.4055416721 0 0)
(-0.371620035 0 0)
(-0.3707006537 0 0)
(-0.3341295764 0 0)
(-0.3363661279 0 0)
(-0.2979297144 0 0)
(-0.315701168 0 0)
(-0.2647445512 0 0)
(-0.2803347811 0 0)
(-0.2363734799 0 0)
(-0.242785259 0 0)
(-0.2062980309 0 0)
(-0.2113737261 0 0)
(-0.1719009795 0 0)
(-0.1809117265 0 0)
(-0.1394062378 0 0)
(-0.1483285993 0 0)
(-0.1089949568 0 0)
(-0.1138046636 0 0)
(-0.07871777594 0 0)
(-0.08044755624 0 0)
(-0.04614531059 0 0)
(-0.04751672323 0 0)
(-0.01466159466 0 0)
(-0.02637971131 0 0)
)
;

boundaryField
{
    sides
    {
        type            fixedValue;
        value           uniform (0 0 0);
    }
    empty1
    {
        type            empty;
    }
    empty2
    {
        type            empty;
    }
}


// ************************************************************************* //
