/*--------------------------------*- C++ -*----------------------------------*\
| =========                 |                                                 |
| \\      /  F ield         | OpenFOAM: The Open Source CFD Toolbox           |
|  \\    /   O peration     | Version:  2012                                  |
|   \\  /    A nd           | Website:  www.openfoam.com                      |
|    \\/     M anipulation  |                                                 |
\*---------------------------------------------------------------------------*/
FoamFile
{
    version     2.0;
    format      ascii;
    class       volScalarField;
    location    "0.5";
    object      volumeFraction1;
}
// * * * * * * * * * * * * * * * * * * * * * * * * * * * * * * * * * * * * * //

dimensions      [0 0 0 0 0 0 0];


internalField   nonuniform List<scalar> 
160
(
5.961391428e-34
7.7451977e-32
5.791860801e-30
2.881370278e-28
1.045335827e-26
2.977031527e-25
6.905278567e-24
1.334141912e-22
2.168185508e-21
3.065481487e-20
3.807960803e-19
4.208527104e-18
4.190035146e-17
3.717612126e-16
3.01642041e-15
2.200022246e-14
1.486593797e-13
9.068361787e-13
5.189215948e-12
2.683218823e-11
1.318045148e-10
5.843395008e-10
2.493194299e-09
9.567874341e-09
3.578816322e-08
1.196636916e-07
3.942124506e-07
1.149442206e-06
3.322369134e-06
8.379657147e-06
2.095635272e-05
4.511563458e-05
9.712198116e-05
0.0001827066744
0.0003637569334
0.0006867740354
0.001490465913
0.003230081801
0.007306934901
0.01473732476
0.0278987621
0.04959560869
0.08250751273
0.1395529972
0.2169524673
0.3344282889
0.477155216
0.6122880392
0.7228267038
0.8095963863
0.8738912213
0.9179766204
0.9456660773
0.9606939013
0.9669159726
0.9681106585
0.9649792584
0.9512487002
0.9205546303
0.8669335768
0.7848648656
0.6679470803
0.5219613511
0.3888713402
0.2788844598
0.192342439
0.1277648171
0.08159484568
0.05009163548
0.02954075367
0.01701628903
0.009571353789
0.005292472087
0.002886596304
0.001528207326
0.0008121984635
0.0004198943561
0.0002265393549
0.0001254337661
7.581453252e-05
4.703829547e-05
3.031509076e-05
1.9108078e-05
1.196726208e-05
7.18627043e-06
4.216709243e-06
2.368629564e-06
1.294754062e-06
6.814671661e-07
3.500667631e-07
1.751685494e-07
8.644570445e-08
4.248961764e-08
2.115541931e-08
1.064566439e-08
5.415117822e-09
2.7561456e-09
1.431082097e-09
7.427362335e-10
3.845550568e-10
1.93280096e-10
9.476775334e-11
4.465615935e-11
2.030773704e-11
8.844944112e-12
3.726143702e-12
1.423548392e-12
5.399915999e-13
2.030204436e-13
7.505120233e-14
2.803415141e-14
1.03792827e-14
3.830270812e-15
1.406367853e-15
5.164055471e-16
1.874378481e-16
6.195614092e-17
2.088716165e-17
6.90821529e-18
2.234947016e-18
7.076243909e-19
2.189098104e-19
6.486221627e-20
1.867273934e-20
5.14045225e-21
1.348713653e-21
3.331146376e-22
7.733495673e-23
1.68819532e-23
3.495513675e-24
6.420784574e-25
1.185291931e-25
2.107209229e-26
3.559333288e-27
5.695992289e-28
8.635652359e-29
1.242275177e-29
1.705106583e-30
2.234391834e-31
2.754776258e-32
2.924624917e-33
3.0270147e-34
2.976331963e-35
2.733590621e-36
2.335860978e-37
1.851742253e-38
1.361163361e-39
9.201131569e-41
5.710858287e-42
3.211686977e-43
1.635344081e-44
7.375176249e-46
2.939091101e-47
1.016904624e-48
3.001785149e-50
7.347294198e-52
1.423840909e-53
2.054894061e-55
1.96317975e-57
1.324255269e-59
)
;

boundaryField
{
    sides
    {
        type            zeroGradient;
    }
    empty1
    {
        type            empty;
    }
    empty2
    {
        type            empty;
    }
}


// ************************************************************************* //
