/*--------------------------------*- C++ -*----------------------------------*\
| =========                 |                                                 |
| \\      /  F ield         | OpenFOAM: The Open Source CFD Toolbox           |
|  \\    /   O peration     | Version:  2012                                  |
|   \\  /    A nd           | Website:  www.openfoam.com                      |
|    \\/     M anipulation  |                                                 |
\*---------------------------------------------------------------------------*/
FoamFile
{
    version     2.0;
    format      ascii;
    class       volScalarField;
    location    "0.2";
    object      p;
}
// * * * * * * * * * * * * * * * * * * * * * * * * * * * * * * * * * * * * * //

dimensions      [1 -1 -2 0 0 0 0];


internalField   nonuniform List<scalar> 
160
(
75569.29496
75569.98496
75570.17656
75570.25383
75570.25581
75570.50982
75570.62747
75570.90734
75571.10824
75571.44482
75571.687
75572.0736
75572.35437
75572.82855
75573.13939
75573.51666
75574.00583
75574.34727
75574.97446
75575.07786
75575.36283
75575.70065
75575.98442
75576.79292
75577.22874
75577.60097
75578.2714
75578.60147
75579.32588
75579.40459
75579.74787
75579.80725
75580.26892
75580.60296
75580.94788
75581.3094
75581.48942
75582.18705
75582.25833
75582.86772
75583.13732
75583.42696
75583.78552
75584.03204
75584.40019
75584.5818
75584.97376
75585.15852
75585.6302
75585.80049
75586.15598
75586.25822
75586.87348
75587.4315
75588.04775
75588.88046
75589.62794
75590.54004
75591.74617
75592.30626
75594.23401
75594.96759
75598.0113
75598.16993
75603.99892
75601.77682
75611.70353
75606.11011
75622.03111
75610.82254
75637.42416
75618.0977
75646.70894
75556.35242
75635.68728
75397.47685
75914.08064
75712.10494
76119.80263
76195.03668
78970.30568
80084.87817
84710.40829
87348.79347
92903.83666
96009.07381
101768.6843
104932.6367
109698.2712
112038.0575
116850.4765
120026.4151
125867.4062
128945.7373
134497.8085
136864.6286
141287.5192
141955.5547
143556.8074
143344.1593
143952.8109
143566.1246
144115.9168
143822.5763
144083.5391
143883.1068
143748.2246
143908.1002
143797.0477
143882.973
143792.6932
143870.3447
143822.44
143868.2149
143807.4936
143867.8928
143829.7773
143851.2949
143830.2639
143814.8754
143844.1101
143829.9458
143846.9223
143837.5784
143849.6977
143844.9653
143850.5726
143848.1217
143852.9762
143852.934
143853.6688
143854.6013
143856.786
143857.9925
143858.721
143859.7603
143859.8276
143860.8592
143860.658
143861.984
143861.8841
143862.6859
143862.5311
143862.4995
143862.5231
143862.8706
143862.7723
143863.031
143862.8723
143863.0379
143863.3318
143863.4272
143863.2384
143863.353
143863.4285
143863.3802
143863.425
143863.3519
143864.087
143865.3721
)
;

boundaryField
{
    sides
    {
        type            zeroGradient;
    }
    empty1
    {
        type            empty;
    }
    empty2
    {
        type            empty;
    }
}


// ************************************************************************* //
