/*--------------------------------*- C++ -*----------------------------------*\
| =========                 |                                                 |
| \\      /  F ield         | OpenFOAM: The Open Source CFD Toolbox           |
|  \\    /   O peration     | Version:  2012                                  |
|   \\  /    A nd           | Website:  www.openfoam.com                      |
|    \\/     M anipulation  |                                                 |
\*---------------------------------------------------------------------------*/
FoamFile
{
    version     2.0;
    format      ascii;
    class       volScalarField;
    location    "0.2";
    object      rho1;
}
// * * * * * * * * * * * * * * * * * * * * * * * * * * * * * * * * * * * * * //

dimensions      [1 -3 0 0 0 0 0];


internalField   nonuniform List<scalar> 
160
(
1033.043408
1033.043408
1033.043408
1033.043408
1033.043408
1033.043408
1033.043408
1033.043409
1033.043409
1033.043409
1033.043409
1033.043409
1033.043409
1033.043409
1033.04341
1033.04341
1033.04341
1033.04341
1033.04341
1033.04341
1033.043411
1033.043411
1033.043411
1033.043411
1033.043412
1033.043412
1033.043412
1033.043412
1033.043412
1033.043412
1033.043413
1033.043413
1033.043413
1033.043413
1033.043413
1033.043414
1033.043414
1033.043414
1033.043414
1033.043414
1033.043415
1033.043415
1033.043415
1033.043415
1033.043415
1033.043415
1033.043416
1033.043416
1033.043416
1033.043416
1033.043417
1033.043417
1033.043417
1033.043418
1033.043418
1033.043419
1033.04342
1033.04342
1033.043421
1033.043421
1033.043422
1033.043423
1033.043424
1033.043424
1033.043422
1033.04342
1033.043411
1033.043407
1033.043388
1033.043381
1033.043346
1033.043333
1033.043268
1033.043214
1033.043027
1033.042887
1033.042597
1033.04248
1033.042152
1033.042191
1033.043229
1033.043837
1033.045899
1033.047326
1033.049871
1033.051535
1033.054155
1033.055836
1033.057884
1033.059116
1033.061138
1033.062797
1033.06528
1033.066873
1033.069104
1033.070316
1033.071854
1033.072189
1033.072193
1033.072082
1033.07152
1033.071322
1033.070754
1033.070603
1033.070312
1033.070202
1033.07013
1033.069874
1033.069814
1033.069602
1033.069552
1033.069373
1033.069345
1033.069182
1033.069149
1033.069025
1033.069004
1033.068936
1033.068896
1033.068887
1033.068829
1033.068821
1033.068783
1033.068778
1033.068755
1033.068752
1033.068739
1033.068738
1033.068733
1033.068733
1033.068733
1033.068733
1033.068734
1033.068735
1033.068736
1033.068736
1033.068738
1033.068738
1033.068739
1033.06874
1033.068741
1033.068741
1033.068742
1033.068742
1033.068742
1033.068743
1033.068743
1033.068743
1033.068743
1033.068743
1033.068744
1033.068744
1033.068744
1033.068744
1033.068744
1033.068744
1033.068744
1033.068744
1033.068745
1033.068745
)
;

boundaryField
{
    sides
    {
        type            calculated;
        value           nonuniform List<scalar> 2(1033.068745 1033.043408);
    }
    empty1
    {
        type            empty;
    }
    empty2
    {
        type            empty;
    }
}


// ************************************************************************* //
