/*--------------------------------*- C++ -*----------------------------------*\
| =========                 |                                                 |
| \\      /  F ield         | OpenFOAM: The Open Source CFD Toolbox           |
|  \\    /   O peration     | Version:  2012                                  |
|   \\  /    A nd           | Website:  www.openfoam.com                      |
|    \\/     M anipulation  |                                                 |
\*---------------------------------------------------------------------------*/
FoamFile
{
    version     2.0;
    format      ascii;
    class       volScalarField;
    location    "0.2";
    object      T;
}
// * * * * * * * * * * * * * * * * * * * * * * * * * * * * * * * * * * * * * //

dimensions      [0 0 0 1 0 0 0];


internalField   nonuniform List<scalar> 
160
(
251.0698246
251.0697918
251.0697775
251.0697617
251.0697686
251.0699215
251.0699278
251.0702549
251.0702674
251.0706508
251.0706609
251.0709939
251.0710052
251.0716622
251.0716895
251.0717414
251.0724132
251.0724322
251.0731975
251.0732144
251.0732405
251.0732592
251.0733369
251.0739819
251.074053
251.0740785
251.0752303
251.0752584
251.0763457
251.0763647
251.0761491
251.0761443
251.0759018
251.075882
251.0758656
251.0758182
251.0758171
251.0760126
251.0761042
251.0761445
251.0761652
251.0761783
251.0761893
251.0761406
251.0761436
251.0758665
251.0758681
251.0756009
251.0756078
251.0747007
251.0746672
251.0729688
251.0728581
251.0727808
251.0705742
251.0705103
251.0683889
251.0683067
251.0682313
251.0681655
251.0694767
251.0695778
251.0709109
251.070811
251.1031699
251.1046332
251.1925893
251.1954356
251.3583532
251.3636479
251.6561031
251.6657172
252.1396016
252.1544965
253.5155288
253.5400894
257.0149411
257.0368212
260.4327213
260.4514903
263.4514502
263.4680209
266.1647316
266.1797106
268.6582285
268.6721034
271.0127141
271.025968
273.3106163
273.3237309
275.6350449
275.6484939
278.0686017
278.0828449
280.6916366
280.707107
283.5774258
283.5944975
286.7756936
286.7946372
290.2758589
290.2972559
293.7503545
293.7781766
295.5311096
295.5791687
295.6077569
297.0196285
297.0447
298.1305669
298.1538903
299.0871289
299.1077595
299.9069705
299.9243356
300.5875155
300.6019134
300.9432012
301.0726571
301.081592
301.3971497
301.4028868
301.6037921
301.6074351
301.7307506
301.7329042
301.8016969
301.8028053
301.8356467
301.8361141
301.8366986
301.8371709
301.8383069
301.8383428
301.835466
301.8353302
301.8292681
301.8291235
301.8231577
301.823028
301.8189885
301.8189072
301.8153288
301.8152842
301.8136073
301.8135734
301.812294
301.8122812
301.8103697
301.8102954
301.8102326
301.8101694
301.8084916
301.8084429
301.808413
301.8075204
301.8075045
301.8071977
301.8071928
301.8071907
)
;

boundaryField
{
    sides
    {
        type            zeroGradient;
    }
    empty1
    {
        type            empty;
    }
    empty2
    {
        type            empty;
    }
}


// ************************************************************************* //
