/*--------------------------------*- C++ -*----------------------------------*\
| =========                 |                                                 |
| \\      /  F ield         | OpenFOAM: The Open Source CFD Toolbox           |
|  \\    /   O peration     | Version:  2012                                  |
|   \\  /    A nd           | Website:  www.openfoam.com                      |
|    \\/     M anipulation  |                                                 |
\*---------------------------------------------------------------------------*/
FoamFile
{
    version     2.0;
    format      ascii;
    class       volVectorField;
    location    "0.2";
    object      U;
}
// * * * * * * * * * * * * * * * * * * * * * * * * * * * * * * * * * * * * * //

dimensions      [0 1 -1 0 0 0 0];


internalField   nonuniform List<vector> 
160
(
(0.01461685615 0 0)
(0.005257003555 0 0)
(0.02347429813 0 0)
(0.02068438289 0 0)
(0.03747700685 0 0)
(0.03611630836 0 0)
(0.05151178533 0 0)
(0.05107449971 0 0)
(0.0662328974 0 0)
(0.06571631473 0 0)
(0.08110285575 0 0)
(0.08041015092 0 0)
(0.0958443239 0 0)
(0.09492870914 0 0)
(0.1110903701 0 0)
(0.1094123543 0 0)
(0.1257147436 0 0)
(0.124133264 0 0)
(0.1411626323 0 0)
(0.1382960603 0 0)
(0.1578966565 0 0)
(0.1525976723 0 0)
(0.1720703226 0 0)
(0.1686527927 0 0)
(0.1856250905 0 0)
(0.1844027712 0 0)
(0.2001620269 0 0)
(0.1993723348 0 0)
(0.2161390107 0 0)
(0.2133932507 0 0)
(0.2348479863 0 0)
(0.2254564572 0 0)
(0.2519157515 0 0)
(0.239365494 0 0)
(0.2675778952 0 0)
(0.2550858232 0 0)
(0.2817842423 0 0)
(0.2729120158 0 0)
(0.2944443706 0 0)
(0.2912364173 0 0)
(0.3076503914 0 0)
(0.3074680099 0 0)
(0.323199448 0 0)
(0.3226970151 0 0)
(0.3390437951 0 0)
(0.3379731102 0 0)
(0.3547329282 0 0)
(0.3529726178 0 0)
(0.3706623548 0 0)
(0.368256508 0 0)
(0.3870975779 0 0)
(0.3830114355 0 0)
(0.4025975335 0 0)
(0.3956258882 0 0)
(0.4208693423 0 0)
(0.4073143394 0 0)
(0.4399141235 0 0)
(0.4159518378 0 0)
(0.4606393564 0 0)
(0.4229288159 0 0)
(0.4846754992 0 0)
(0.4227903122 0 0)
(0.5164972082 0 0)
(0.4056040172 0 0)
(0.5423282638 0 0)
(0.3754290862 0 0)
(0.5638557122 0 0)
(0.3342603756 0 0)
(0.585174765 0 0)
(0.2646653337 0 0)
(0.6037981967 0 0)
(0.181866499 0 0)
(0.5977339201 0 0)
(-0.005297194689 0 0)
(0.01042609105 0 0)
(-0.1700854948 0 0)
(-0.1239215472 0 0)
(-0.1377388936 0 0)
(-0.1353809163 0 0)
(-0.1293326439 0 0)
(-0.1379430572 0 0)
(-0.1261641987 0 0)
(-0.1370361513 0 0)
(-0.1271302413 0 0)
(-0.1354722181 0 0)
(-0.1288129272 0 0)
(-0.1337465284 0 0)
(-0.130325125 0 0)
(-0.1323632583 0 0)
(-0.1323961623 0 0)
(-0.130322176 0 0)
(-0.1337846297 0 0)
(-0.1289063538 0 0)
(-0.1354484094 0 0)
(-0.1275030661 0 0)
(-0.136715695 0 0)
(-0.1275473288 0 0)
(-0.1364437884 0 0)
(-0.1339981228 0 0)
(-0.1280251547 0 0)
(-0.1552147223 0 0)
(-0.08627710877 0 0)
(-0.3080108332 0 0)
(0.3545836723 0 0)
(-0.5205078096 0 0)
(1.034893042 0 0)
(-0.4924378026 0 0)
(0.5553879809 0 0)
(-0.2109271688 0 0)
(0.3762788961 0 0)
(0.02081233273 0 0)
(0.2238768145 0 0)
(0.1829347399 0 0)
(0.1391771797 0 0)
(0.3165784836 0 0)
(0.03834372311 0 0)
(0.5030370855 0 0)
(0.03146169444 0 0)
(0.5618247639 0 0)
(0.08545391391 0 0)
(0.3862317945 0 0)
(0.1955743754 0 0)
(0.32694581 0 0)
(0.2569829569 0 0)
(0.2942651543 0 0)
(0.2804368485 0 0)
(0.2745046022 0 0)
(0.2853418166 0 0)
(0.2634258495 0 0)
(0.2794694375 0 0)
(0.2533938157 0 0)
(0.2608779574 0 0)
(0.2363838891 0 0)
(0.2439276882 0 0)
(0.2217320675 0 0)
(0.2267229768 0 0)
(0.2064071201 0 0)
(0.2078706021 0 0)
(0.1885370863 0 0)
(0.1919724298 0 0)
(0.1675647895 0 0)
(0.174440769 0 0)
(0.1502262764 0 0)
(0.1537979256 0 0)
(0.1341371493 0 0)
(0.1357750448 0 0)
(0.1153898441 0 0)
(0.1187212785 0 0)
(0.09751122388 0 0)
(0.1001757784 0 0)
(0.0800107152 0 0)
(0.08171641782 0 0)
(0.06301926237 0 0)
(0.06301917067 0 0)
(0.04483194097 0 0)
(0.04561079592 0 0)
(0.02640905288 0 0)
(0.02714372536 0 0)
(0.009132544385 0 0)
(0.01524838579 0 0)
)
;

boundaryField
{
    sides
    {
        type            fixedValue;
        value           uniform (0 0 0);
    }
    empty1
    {
        type            empty;
    }
    empty2
    {
        type            empty;
    }
}


// ************************************************************************* //
