/*--------------------------------*- C++ -*----------------------------------*\
| =========                 |                                                 |
| \\      /  F ield         | OpenFOAM: The Open Source CFD Toolbox           |
|  \\    /   O peration     | Version:  2012                                  |
|   \\  /    A nd           | Website:  www.openfoam.com                      |
|    \\/     M anipulation  |                                                 |
\*---------------------------------------------------------------------------*/
FoamFile
{
    version     2.0;
    format      ascii;
    class       volScalarField;
    location    "0.95";
    object      p_rgh;
}
// * * * * * * * * * * * * * * * * * * * * * * * * * * * * * * * * * * * * * //

dimensions      [1 -1 -2 0 0 0 0];


internalField   nonuniform List<scalar> 
2268
(
907.089
903.689
899.788
895.213
891.238
887.666
881.32
870.698
857.435
841.354
822.546
801.657
779.892
757.749
735.958
720.046
713.388
715.046
731.214
756.953
783.428
804.279
813.423
907.822
904.162
899.661
894.476
890.516
887.772
881.94
871.384
858.152
841.97
822.928
801.691
779.518
757.239
733.96
718.281
707.829
708.612
726.169
755.358
781.577
803.924
813.76
909.295
905.382
899.72
892.956
888.992
887.838
883.196
872.754
859.419
843
823.621
801.952
779.242
757.285
736.235
715.197
702.672
703.033
725.764
757.883
786.238
806.247
815.341
910.367
906.281
899.654
891.143
886.716
887.892
885.286
875.018
861.472
844.673
824.795
802.485
778.96
755.802
734.739
716.302
703.007
706.242
728.376
763.497
791.849
810.521
818.561
911.243
906.923
899.663
889.735
884.789
888.553
888.49
878.236
864.38
847.043
826.445
803.173
778.51
753.715
729.76
707.913
694.164
698.683
724.519
765.446
797.208
816.783
823.564
912.561
907.916
900.176
889.487
884.289
890.524
892.797
882.369
868.107
850.096
828.55
804.019
777.904
750.926
722.994
695.662
679.342
686.132
718.593
767.087
804.459
825.377
830.107
914.389
909.507
901.214
890.709
886.484
893.819
896.797
887.049
872.389
853.754
831.094
804.975
776.625
747.746
714.515
678.727
656.791
667.369
709.465
769.207
814.7
836.832
837.302
916.562
912.242
903.341
893.513
890.372
897.868
899.628
890.428
876.938
858.236
834.554
806.95
776.733
745.779
706.715
629.383
556.208
583.537
678.07
773.053
829.387
853.034
845.607
710.631
676.741
667.8
688.956
705.201
635.317
630.92
635.667
551.526
434.528
358.655
389.686
443.924
428.945
405.109
397.78
403.817
403.748
409.102
713.588
668.589
647.11
667.146
691.726
616.298
627.43
644.269
536.465
415.211
335.328
377.65
442.122
421.688
394.154
372.709
378.481
384.045
390.964
715.612
648.38
628.348
654.019
686.617
615.068
623.965
609.384
534.893
428.021
320.31
358.936
425.938
406.094
354.591
355.339
375.41
383.498
393.063
715.857
636.768
616.339
648.588
693.417
629.24
589.007
584.737
555.727
411.347
310.277
347.027
381.552
357.183
349.262
367.851
419.484
427.082
451.832
716.444
613.38
620.113
650.827
702.844
644.148
577.554
562.621
513.679
400.996
312.982
342.494
400.168
390.349
380.898
331.861
276.204
299.003
453.067
723.615
611.507
655.28
708.333
718.711
631.099
517.034
475.828
468.371
396.608
322.354
346.305
398.991
399.756
328.681
168.573
193.865
194.863
451.451
735.935
619.408
658.697
724.493
750.627
554.281
348.785
292.272
346.306
393.318
335.189
353.965
395.674
366.508
141.332
143.96
181.424
188.629
254.282
747.423
671.539
675.311
710.041
721.642
356.844
192.732
205.847
315.943
391.305
340.302
367.025
393.664
158.714
64.3332
120.16
175.164
185.588
136.453
890.681
910.442
905.522
900.955
902.165
906.237
904.031
893.495
884.205
866.699
841.088
810.722
777.92
736.955
548.549
329.317
253.123
278.779
405.816
651.943
857.929
884.913
855.711
562.371
652.593
862.636
889.248
910.289
924.632
910.113
884.32
819.31
773.205
832.672
815.578
527.85
211.668
187.12
167.648
140.467
158.94
190.784
361.968
761.321
872.976
831.658
526.533
475.306
647.488
908.376
896.446
911.942
738.255
571.533
587.498
538.721
307.911
179.863
150.107
161.11
178.581
186.29
127.986
137.224
172.968
592.031
930.146
930.426
847.326
625.135
774.359
685.856
433.496
489.845
392.435
165.379
104.368
106.746
103.125
89.3233
94.2226
106.334
206.292
202.673
196.094
97.2324
112.626
384.551
537.28
553.921
866.419
838.428
687.81
495.919
118.263
110.698
95.2028
74.4011
77.9194
82.0233
80.1084
82.0051
87.5094
92.1414
94.676
131.685
197.518
145.73
74.7436
71.5727
63.3126
48.6467
117.198
801.369
928.014
756.155
216.869
62.2448
109.268
127.384
76.5869
64.0656
138.522
141.216
141.467
144.315
150.641
138.601
62.0425
57.2317
56.648
72.3795
95.3374
56.5681
24.0067
97.9299
747.662
1085.59
708.113
73.1547
33.638
94.3801
106.301
53.03
41.4167
65.0933
90.5721
124.293
131.058
147.799
114.638
56.6281
52.7776
90.4569
102.372
94.3073
70.8434
8.47803
10.7449
326.699
1113.86
696.326
54.6021
14.1069
10.4125
8.02615
5.47914
4.15687
1.73224
0.507506
30.8059
88.9088
79.4561
27.8578
60.7561
92.0379
92.4139
90.5517
51.065
5.49816
1.87261
1.64833
3.77284
491.399
735.467
62.9355
6.2247
4.27153
2.88121
1.95901
1.39393
0.327291
1.68311
1.92997
-0.544048
-0.304886
-0.112295
20.7917
40.1556
24.4005
0.214122
-0.394
0.0364374
0.406543
0.43796
0.203446
-0.353933
786.315
73.1522
3.50351
2.66055
1.80721
1.08676
1.03771
-0.473184
-1.53745
-2.06583
-2.30101
-2.09495
-2.12468
-2.15979
-2.07881
-1.86187
-1.43136
-0.492399
0.532016
0.82575
0.0806725
-0.255741
-0.640641
837.931
60.2692
1.81353
1.34189
0.489606
0.297833
-0.190352
-1.18127
-2.21835
-2.39722
-2.26224
-2.21762
-2.30777
-2.30676
-2.24039
-2.03731
-0.819456
0.286863
0.553184
0.760073
0.865571
0.278994
-0.889717
891.209
15.4388
0.0136134
-0.255246
-0.500646
-0.838542
-1.43084
-2.71463
-2.88758
-2.52778
-2.33243
-2.19744
-2.23182
-2.45227
-2.34429
-2.19009
-1.86481
-0.627179
0.191472
0.488417
0.593165
0.655384
0.200909
770.446
-2.356
-1.46704
-1.78898
-1.48362
-1.80699
-2.82633
-3.24792
-3.18467
-3.09381
-2.97726
-2.84164
-2.71166
-2.58031
-2.43696
-2.27776
-2.11573
-1.95783
-1.80026
-1.27789
-0.374173
0.319538
-0.235438
629.956
-2.93031
-2.36851
-2.81293
-2.73439
-3.01445
-3.53742
-3.46318
-3.39143
-3.31026
-3.18821
-3.03958
-2.8776
-2.71064
-2.53979
-2.3662
-2.19484
-2.02768
-1.86991
-1.73279
-1.61764
-1.51241
-1.34561
756.139
-3.10203
-2.8865
-3.41394
-3.59401
-3.73192
-3.67939
-3.62305
-3.61202
-3.58645
-3.48771
-3.3263
-3.12286
-2.90298
-2.6852
-2.47615
-2.2789
-2.0947
-1.92615
-1.77766
-1.65002
-1.53771
-1.43711
858.664
-2.82897
-3.2651
-3.8065
-3.85859
-3.91602
-3.87346
-3.91757
-4.02738
-4.07456
-3.98633
-3.78755
-3.50567
-3.19062
-2.89001
-2.61759
-2.37426
-2.15924
-1.97107
-1.80914
-1.67109
-1.5528
-1.45332
901.931
-1.67558
-3.72587
-4.15484
-4.17371
-4.2495
-4.31216
-4.55071
-4.83619
-4.97509
-4.87696
-4.56711
-4.12194
-3.62453
-3.17144
-2.79434
-2.48135
-2.22112
-2.00436
-1.82421
-1.67496
-1.55086
-1.44911
840.446
1.07753
-4.54366
-4.66339
-4.66738
-4.84799
-5.14886
-5.72146
-5.93951
-5.70575
-6.08562
-5.63513
-5.01722
-4.23922
-3.53841
-2.9972
-2.58635
-2.26859
-2.01854
-1.81928
-1.65906
-1.52922
-1.42397
128.715
-3.52096
-5.19897
-5.32429
-5.33575
-5.70527
-6.37281
-7.00808
-7.09658
-7.40989
-6.97917
-6.31677
-6.105
-4.96242
-3.95228
-3.19499
-2.66285
-2.28295
-2.00127
-1.78649
-1.61959
-1.48725
-1.37996
-6.20371
-6.50723
-5.57602
-5.92242
-5.97098
-6.59368
-7.54435
-7.84527
-9.04295
-9.35475
-8.95594
-7.77172
-6.4976
-5.33555
-4.26581
-3.31497
-2.67049
-2.24191
-1.94114
-1.72024
-1.55404
-1.42536
-1.31912
241.8
-5.92298
-5.73144
-6.24001
-6.34905
-7.18673
-7.83088
-8.89439
-10.1254
-10.9217
-11.025
-9.75013
-6.61563
-4.55936
-3.93315
-3.22282
-2.57067
-2.12997
-1.8331
-1.62199
-1.46472
-1.34277
-1.24359
571.741
-3.28691
-5.54207
-6.14862
-6.39649
-7.25558
-7.84112
-8.8359
-10.0932
-11.0048
-11.0586
-9.66801
-7.41986
-4.28387
-2.75835
-2.80779
-2.34748
-1.94329
-1.67856
-1.4931
-1.35491
-1.24675
-1.15793
621.99
4.35179
-5.68357
-5.92571
-6.1449
-6.75154
-7.57469
-8.27512
-9.22664
-10.2536
-9.98778
-8.6894
-6.85273
-3.36173
-1.87291
-2.07181
-2.02175
-1.70134
-1.49299
-1.34548
-1.23324
-1.14299
-1.06682
656.348
11.6683
-5.8035
-5.85352
-5.77835
-5.96458
-6.42244
-7.2975
-8.15417
-8.54597
-8.2668
-7.21216
-4.98667
-1.96602
-0.898224
-1.52004
-1.66023
-1.44584
-1.30216
-1.19578
-1.11063
-1.03872
-0.975371
679.97
47.5554
-5.28159
-5.70982
-5.36756
-5.21469
-5.346
-5.84594
-6.46288
-6.84231
-6.70293
-5.68497
-2.24736
-0.686195
0.158361
-1.28474
-1.35067
-1.22563
-1.13368
-1.06027
-0.997121
-0.940454
-0.888099
498.22
222.732
10.0988
-4.54446
-3.77715
-4.13576
-4.2502
-4.57649
-5.04577
-5.38587
-3.86606
-2.13437
-0.867034
0.16245
0.143245
-1.15827
-1.14984
-1.06862
-1.00303
-0.947992
-0.898379
-0.852053
-0.807814
46.4548
205.865
109.233
38.5459
10.0519
-2.45555
-2.74804
-3.22143
-3.74667
-2.44182
-1.84964
-1.12201
-0.150645
0.698836
-0.741104
-1.15649
-1.04751
-0.967589
-0.907022
-0.857986
-0.814538
-0.774099
-0.735252
6.57956
31.7008
91.6476
66.1438
22.0313
-0.255024
-1.33547
-2.11813
-2.69179
-1.08301
-0.76343
-0.282116
0.462322
-0.822401
-1.30369
-1.10525
-0.979082
-0.893494
-0.83166
-0.783337
-0.742195
-0.704921
-0.669602
2.79351
6.57545
7.75657
16.6249
10.2339
0.73543
-0.759817
-1.35417
-1.90203
-1.23615
0.248074
-0.203786
-1.26689
-1.44791
-1.2087
-1.03175
-0.911165
-0.82707
-0.765167
-0.717134
-0.677281
-0.64209
-0.609373
1.93008
2.95502
3.66609
2.49649
1.15029
0.337092
-0.31556
-0.816837
-1.27068
-1.52062
-1.50992
-1.55606
-1.45246
-1.25534
-1.07895
-0.939784
-0.836209
-0.759231
-0.700657
-0.654588
-0.61655
-0.583425
-0.553073
1.67583
1.94298
2.14864
1.64406
0.98214
0.418252
-0.0507233
-0.475566
-0.847438
-1.11145
-1.2418
-1.24933
-1.17045
-1.0544
-0.937906
-0.83619
-0.753162
-0.687434
-0.6353
-0.593169
-0.558001
-0.527407
-0.499552
1.48414
1.55802
1.57373
1.29191
0.894599
0.488937
0.106411
-0.245375
-0.548397
-0.77462
-0.907294
-0.950526
-0.927727
-0.869166
-0.79803
-0.727894
-0.66545
-0.612693
-0.568765
-0.532017
-0.500695
-0.473181
-0.448082
1.2993
1.32172
1.28047
1.09161
0.812006
0.500949
0.193141
-0.0930287
-0.340551
-0.531686
-0.656406
-0.717262
-0.727677
-0.705438
-0.666325
-0.621409
-0.57725
-0.537144
-0.501928
-0.47128
-0.44441
-0.420391
-0.398288
1.11787
1.12098
1.06627
0.923328
0.714883
0.475953
0.233283
0.00425804
-0.19665
-0.356954
-0.469853
-0.536357
-0.564136
-0.564146
-0.54701
-0.521026
-0.491842
-0.462989
-0.436063
-0.411539
-0.389315
-0.369
-0.350052
0.945559
0.940122
0.886584
0.774077
0.61503
0.431575
0.242534
0.0616195
-0.0997706
-0.232441
-0.331278
-0.396288
-0.431824
-0.444618
-0.441715
-0.429154
-0.411452
-0.391935
-0.372295
-0.353469
-0.335769
-0.319161
-0.303421
0.785742
0.776925
0.729789
0.640767
0.518673
0.378246
0.232344
0.0910311
-0.0370728
-0.145112
-0.229129
-0.288565
-0.325758
-0.344814
-0.350388
-0.346796
-0.337572
-0.325147
-0.311515
-0.297681
-0.284146
-0.271096
-0.258516
0.638918
0.629553
0.590395
0.520843
0.42778
0.32129
0.210025
0.101145
0.00102364
-0.0852428
-0.154573
-0.206164
-0.241185
-0.262113
-0.271984
-0.273803
-0.270172
-0.263119
-0.254262
-0.244609
-0.234753
-0.224993
-0.21543
0.504496
0.496223
0.465183
0.412076
0.342412
0.26313
0.179957
0.0978677
0.0214591
-0.0455353
-0.100756
-0.143372
-0.173899
-0.193795
-0.205008
-0.209587
-0.209406
-0.206027
-0.200745
-0.194462
-0.187746
-0.180925
-0.174147
0.380935
0.374586
0.35124
0.312208
0.261858
0.204867
0.144901
0.0853029
0.0292706
-0.0205484
-0.0624146
-0.0955979
-0.120265
-0.137245
-0.147756
-0.153154
-0.154746
-0.153682
-0.150891
-0.147209
-0.143086
-0.138823
-0.134557
0.265863
0.261775
0.245612
0.218908
0.184965
0.146752
0.106458
0.066185
0.0280149
-0.00629195
-0.0355432
-0.0591789
-0.0772065
-0.0900708
-0.0984948
-0.103328
-0.105425
-0.105568
-0.104382
-0.102648
-0.100594
-0.0984997
-0.0964547
0.157207
0.155533
0.145975
0.130274
0.110712
0.0888595
0.065777
0.0425851
0.0204583
0.000408226
-0.0168685
-0.0310196
-0.042005
-0.050034
-0.0554826
-0.0588139
-0.0605159
-0.0610743
-0.0610048
-0.0602407
-0.0597099
-0.0594331
-0.0594033
0.0506656
0.0504606
0.0476484
0.0427494
0.0365459
0.0296359
0.0223676
0.0150433
0.00800742
0.00158148
-0.00400834
-0.00864113
-0.0122929
-0.0150186
-0.0169269
-0.0181535
-0.0188377
-0.0190965
-0.0189883
-0.019114
-0.0198115
-0.021116
-0.0228715
845.622
826.518
809.088
798.068
787.85
766.245
752.744
741.893
805.319
785.001
753.031
733.809
803.149
787.752
781.031
794.77
922.075
929.263
932.544
909.137
1103.34
718.385
162.825
85.8809
1110.14
492.159
46.5802
44.049
1110.46
1085.1
1056.06
505.668
223.821
884.762
1067.28
1022.08
-0.678505
-0.77926
9.80857
215.591
-1.0821
-1.16738
-1.25854
-1.37138
-1.14061
-1.17573
-1.22921
-1.29905
-1.27689
-1.2845
-1.30016
-1.32022
-1.31906
-1.33626
-1.3346
-1.33668
-1.38132
-1.35574
-1.34853
-1.33872
-1.39855
-1.36951
-1.34467
-1.32697
-1.38978
-1.35603
-1.3266
-1.30091
-1.36097
-1.32421
-1.29116
-1.26145
-1.31495
-1.27668
-1.2417
-1.20975
-1.25449
-1.21619
-1.18084
-1.14823
-1.18242
-1.14585
-1.11166
-1.07977
-1.10236
-1.06883
-1.03703
-1.00691
-1.01808
-0.988335
-0.95967
-0.93209
-0.933576
-0.907746
-0.88244
-0.857696
-0.852405
-0.830068
-0.80786
-0.785845
-0.776879
-0.757324
-0.737672
-0.718007
-0.707784
-0.690314
-0.672652
-0.654895
-0.64468
-0.6288
-0.612715
-0.596519
-0.586494
-0.571936
-0.557206
-0.542379
-0.532047
-0.518713
-0.505263
-0.491739
-0.480375
-0.468259
-0.456086
-0.443867
-0.430823
-0.419953
-0.409081
-0.398189
-0.383033
-0.373444
-0.363894
-0.35435
-0.336877
-0.328601
-0.32039
-0.312204
-0.292376
-0.285435
-0.278568
-0.271737
-0.249607
-0.244003
-0.238463
-0.232958
-0.208602
-0.204299
-0.200039
-0.195804
-0.169284
-0.166213
-0.163162
-0.160118
-0.131498
-0.129565
-0.127636
-0.125703
-0.0950312
-0.0941441
-0.093268
-0.0923908
-0.0595541
-0.0596903
-0.0598475
-0.0600104
-0.0244285
-0.025491
-0.0265928
-0.0277199
782.259
737.671
700.716
623.4
575.545
179.706
166.927
201.586
299.732
215.64
74.5905
86.4148
81.661
17.4667
30.9765
99.9482
144.514
168.154
129.462
777.077
761.957
673.45
592.063
274.652
148.35
148.867
167.375
96.6879
17.5098
15.1933
13.047
12.713
12.937
15.4646
56.7839
126.446
153.074
121.253
772.552
804.5
735.985
330.082
90.1166
147.968
140.024
104.772
18.0151
16.2684
14.7788
13.6619
12.9143
12.718
13.3257
62.2527
111.24
129.701
123.929
832.597
778.601
290.308
72.0227
95.1487
134.463
71.1971
23.6903
18.3888
16.2309
14.3551
13.1405
12.6697
12.4501
13.1601
79.0236
97.5915
61.7585
82.5083
531.607
125.4
41.6621
42.173
66.1796
63.1228
25.7321
22.029
19.1767
16.5293
14.9884
12.5953
12.0636
11.9809
36.099
84.1851
80.1074
8.09605
29.1238
61.8771
41.8477
43.9146
44.5335
39.9578
31.9098
26.545
23.1905
19.9557
16.5085
14.5223
12.6476
11.1113
11.3707
69.8067
86.9196
18.3577
5.30712
6.22997
42.2498
42.6506
43.5509
45.4184
44.7588
42.4508
35.9879
25.3703
19.741
14.6271
12.1504
10.7039
10.8147
11.4701
80.3112
93.5741
13.8765
5.43099
5.69656
137.653
62.7662
142.556
246.057
361.536
501.864
533.879
264.176
30.3874
12.1998
11.7136
11.5806
12.1375
13.0837
82.9126
42.4143
6.92895
5.58332
5.50997
992.635
925.62
914.966
903.293
964.736
1009.32
986.652
914.902
229.752
14.2827
13.6043
13.8915
14.5682
15.7013
64.2562
14.2082
5.11243
5.14798
5.10162
472.182
563.879
468.488
349.07
279.919
403.567
1041.21
1068.41
806.564
66.1158
14.3926
15.0416
15.7846
60.142
28.9638
5.20393
4.60107
4.6135
4.60086
-1.46477
-1.61447
-1.71455
-1.76631
-1.83868
-1.51294
186.081
1150.2
1142.62
219.408
15.0659
15.6157
16.602
155.36
41.4519
3.783
3.96691
4.0461
4.11173
-1.39339
-1.49791
-1.58831
-1.65572
-1.75015
-1.83559
-1.76302
1210.97
1245.46
376.326
15.4371
16.1624
177.011
180.067
22.5565
2.91443
3.29325
3.46922
3.90746
-1.35769
-1.41651
-1.47384
-1.51449
-1.56062
-1.63752
-1.66789
553.805
1332.91
437.39
17.9592
147.893
452.309
80.1731
2.079
2.46825
2.73729
2.96607
3.5623
-1.34556
-1.37174
-1.39761
-1.41776
-1.44283
-1.43909
-1.4193
79.3956
1418.61
1138.93
541.541
1000.35
492.904
2.90759
1.88964
2.10622
2.29869
2.49658
3.08154
-1.3269
-1.32565
-1.32847
-1.32992
-1.32659
-1.3336
-1.36615
18.8001
692.669
1317.83
1335.2
1157.07
189.543
1.23139
1.57958
1.73075
1.92261
2.06008
2.67853
-1.30066
-1.27823
-1.26181
-1.2484
-1.23743
-1.23337
-1.24274
-1.37359
-1.8368
365.365
360.322
0.42845
-0.484557
1.18527
1.13505
1.38103
1.59373
1.68544
2.34006
-1.26368
-1.22517
-1.1934
-1.16458
-1.13512
-1.10505
-1.08276
-1.0705
-0.954361
-0.870383
-0.629933
-0.266664
-0.0590402
0.444205
0.873831
1.1235
1.32654
1.41359
1.86632
-1.21675
-1.16656
-1.12296
-1.08144
-1.03791
-0.990298
-0.941326
-0.894328
-0.807834
-0.627633
-0.336312
-0.060279
0.149122
0.476996
0.756587
0.947206
1.12285
1.2338
1.19753
-1.16074
-1.10303
-1.05117
-1.00034
-0.946586
-0.887552
-0.82065
-0.736557
-0.621527
-0.462896
-0.25213
-0.0361293
0.179263
0.42469
0.634798
0.784256
0.999209
1.30362
1.03419
-1.09758
-1.0359
-0.978956
-0.922271
-0.862313
-0.796452
-0.721977
-0.632489
-0.517096
-0.364928
-0.182963
0.00201195
0.186082
0.366029
0.52267
0.6377
0.961988
1.46903
0.860643
-1.0296
-0.966869
-0.907598
-0.848093
-0.785334
-0.716887
-0.640057
-0.550407
-0.441285
-0.305492
-0.148776
0.00713553
0.157355
0.299792
0.420427
0.509757
0.812905
1.28672
0.685454
-0.958894
-0.897432
-0.838137
-0.778301
-0.715525
-0.64783
-0.57336
-0.488965
-0.389218
-0.269124
-0.139478
-0.0130429
0.109507
0.225572
0.325509
0.414272
0.637798
0.655833
0.535875
-0.887479
-0.828703
-0.771261
-0.712934
-0.652015
-0.587105
-0.517021
-0.439616
-0.350224
-0.250405
-0.150378
-0.0515938
0.052249
0.150814
0.243095
0.382385
0.465981
0.378482
0.432505
-0.817046
-0.761994
-0.70749
-0.651876
-0.593947
-0.532895
-0.468046
-0.397946
-0.319913
-0.240466
-0.165395
-0.091296
-0.0071549
0.0855628
0.190664
0.349701
0.358906
0.314706
0.35477
-0.749179
-0.698284
-0.647215
-0.594971
-0.540562
-0.483619
-0.423774
-0.360354
-0.292499
-0.225736
-0.17143
-0.117315
-0.0452292
0.0414521
0.163561
0.305228
0.27544
0.265775
0.290096
-0.684945
-0.6382
-0.590819
-0.542062
-0.491335
-0.438306
-0.382738
-0.324344
-0.262889
-0.195915
-0.152807
-0.117956
-0.0553618
0.026824
0.188466
0.262393
0.212898
0.219236
0.233983
-0.624909
-0.582078
-0.538358
-0.493166
-0.446032
-0.396618
-0.34463
-0.2898
-0.231233
-0.165964
-0.122255
-0.0912405
-0.0362892
0.0440178
0.147313
0.141879
0.155516
0.174698
0.186444
-0.569156
-0.529956
-0.489786
-0.448124
-0.404526
-0.35861
-0.309987
-0.258266
-0.2034
-0.140774
-0.086452
-0.0523466
0.000486471
0.0484637
0.064607
0.0875077
0.125679
0.137289
0.147925
-0.517356
-0.481554
-0.444815
-0.406635
-0.366587
-0.324287
-0.27935
-0.231409
-0.180369
-0.125738
-0.0600217
-0.011639
0.0136543
0.030711
0.041249
0.0731123
0.104696
0.107684
0.117189
-0.468942
-0.436394
-0.402993
-0.368263
-0.331818
-0.293336
-0.252556
-0.209295
-0.163523
-0.115217
-0.0517147
0.000623249
0.0169942
0.0315124
0.05304
0.0694103
0.0729725
0.0841762
0.0919728
-0.423283
-0.393927
-0.363814
-0.332525
-0.299735
-0.265218
-0.228867
-0.190647
-0.150688
-0.109126
-0.0667366
-0.00914732
0.0264489
0.0399023
0.0488955
0.0511781
0.0551261
0.067074
0.0710785
-0.379848
-0.353678
-0.326842
-0.299001
-0.2699
-0.239392
-0.207494
-0.174173
-0.139791
-0.104604
-0.0697361
-0.0385153
-0.0044298
0.0212792
0.0243081
0.0291816
0.0411189
0.0506416
0.052881
-0.338285
-0.315324
-0.291778
-0.26739
-0.241958
-0.215404
-0.18784
-0.158998
-0.129741
-0.10008
-0.0713672
-0.045585
-0.02286
-0.00825376
0.00525963
0.0188823
0.0294441
0.0358288
0.0365377
-0.298434
-0.278695
-0.25844
-0.237469
-0.215611
-0.192835
-0.169253
-0.144736
-0.120017
-0.0948731
-0.071283
-0.0500905
-0.0298398
-0.0172363
-0.00424604
0.0111612
0.0175651
0.0208581
0.0225301
-0.260249
-0.243704
-0.226688
-0.209033
-0.190584
-0.171355
-0.151456
-0.130876
-0.11049
-0.0885377
-0.0695013
-0.051958
-0.0349273
-0.0243417
-0.0116163
0.00134313
0.00509412
0.00880262
0.0111079
-0.223692
-0.210248
-0.196355
-0.181857
-0.166616
-0.150679
-0.134143
-0.117028
-0.0999815
-0.082181
-0.0664011
-0.0513973
-0.0376673
-0.0224083
-0.0111894
-0.0100942
-0.00393869
3.21086e-05
0.00187678
-0.188651
-0.178168
-0.16724
-0.155719
-0.143494
-0.130629
-0.11722
-0.10333
-0.0894985
-0.0751007
-0.062273
-0.0499001
-0.0385953
-0.0163193
-0.0135965
-0.016021
-0.0103504
-0.00714172
-0.00549531
-0.154949
-0.147265
-0.139137
-0.130426
-0.121058
-0.111106
-0.100661
-0.0898168
-0.0789836
-0.0676095
-0.0573958
-0.0474932
-0.0375322
-0.0165637
-0.0232967
-0.0198497
-0.0154986
-0.0129975
-0.0115183
-0.122395
-0.117364
-0.111901
-0.10588
-0.0992644
-0.0921155
-0.0845037
-0.0765265
-0.0684513
-0.0598707
-0.0521306
-0.0445076
-0.0368945
-0.0230652
-0.0264737
-0.0228786
-0.0196307
-0.0177302
-0.0165382
-0.0908737
-0.0884224
-0.0855597
-0.0821729
-0.078239
-0.0737903
-0.068873
-0.0635696
-0.0580369
-0.0520566
-0.0466676
-0.0411579
-0.0361314
-0.0317788
-0.0279611
-0.0253511
-0.0229288
-0.0215819
-0.0207059
-0.060252
-0.0603326
-0.0600242
-0.0592167
-0.0578803
-0.0560221
-0.0536767
-0.0509055
-0.0477816
-0.0441859
-0.0411984
-0.0375847
-0.0343688
-0.0313269
-0.0288361
-0.0273559
-0.0256996
-0.0249288
-0.0242886
-0.0296122
-0.0321106
-0.034284
-0.0359993
-0.037225
-0.0379499
-0.038193
-0.0379917
-0.0373795
-0.0363355
-0.0353477
-0.0337278
-0.0323473
-0.0305401
-0.029449
-0.0290133
-0.0283999
-0.0282816
-0.0277216
)
;

boundaryField
{
    leftWall
    {
        type            fixedFluxPressure;
        gradient        uniform 0;
        value           nonuniform List<scalar> 
50
(
907.089
907.822
909.295
910.367
911.243
912.561
914.389
916.562
890.681
562.371
526.533
625.135
687.81
756.155
708.113
696.326
735.467
786.315
837.931
891.209
770.446
629.956
756.139
858.664
901.931
840.446
128.715
-6.20371
241.8
571.741
621.99
656.348
679.97
498.22
46.4548
6.57956
2.79351
1.93008
1.67583
1.48414
1.2993
1.11787
0.945559
0.785742
0.638918
0.504496
0.380935
0.265863
0.157207
0.0506656
)
;
    }
    rightWall
    {
        type            fixedFluxPressure;
        gradient        uniform 0;
        value           nonuniform List<scalar> 
50
(
409.102
390.964
393.063
451.832
453.067
451.451
254.282
136.453
129.462
121.253
123.929
82.5083
29.1238
6.22997
5.69656
5.50997
5.10162
4.60086
4.11173
3.90746
3.5623
3.08154
2.67853
2.34006
1.86632
1.19753
1.03419
0.860643
0.685454
0.535875
0.432505
0.35477
0.290096
0.233983
0.186444
0.147925
0.117189
0.0919728
0.0710785
0.052881
0.0365377
0.0225301
0.0111079
0.00187678
-0.00549531
-0.0115183
-0.0165382
-0.0207059
-0.0242886
-0.0277216
)
;
    }
    lowerWall
    {
        type            fixedFluxPressure;
        gradient        uniform 0;
        value           nonuniform List<scalar> 
62
(
907.089
903.689
899.788
895.213
891.238
887.666
881.32
870.698
857.435
841.354
822.546
801.657
779.892
757.749
735.958
720.046
713.388
715.046
731.214
756.953
783.428
804.279
813.423
813.423
813.76
815.341
818.561
823.564
830.107
837.302
845.607
845.622
826.518
809.088
798.068
710.631
713.588
715.612
715.857
716.444
723.615
735.935
747.423
710.631
676.741
667.8
688.956
705.201
635.317
630.92
635.667
551.526
434.528
358.655
389.686
443.924
428.945
405.109
397.78
403.817
403.748
409.102
)
;
    }
    atmosphere
    {
        type            totalPressure;
        rho             rho;
        psi             none;
        gamma           1;
        p0              uniform 0;
        value           nonuniform List<scalar> 
46
(
0
0
0
0
0
0
0
0
0
0
0
0
0
0
0
0
0
0
0
-0.000222089
-0.00112166
-0.00265983
-0.00480046
-0.00675049
-0.00815988
-0.00967009
-0.0112462
-0.0138918
-0.0175121
-0.0208639
-0.0237988
-0.0263155
-0.0283774
-0.0299832
-0.0311544
-0.0319051
-0.0322069
-0.032346
-0.0316365
-0.0314324
-0.0298964
-0.0296438
-0.0299332
-0.029959
-0.0302602
-0.0295303
)
;
    }
    defaultFaces
    {
        type            empty;
    }
}


// ************************************************************************* //
