/*--------------------------------*- C++ -*----------------------------------*\
| =========                 |                                                 |
| \\      /  F ield         | OpenFOAM: The Open Source CFD Toolbox           |
|  \\    /   O peration     | Version:  2012                                  |
|   \\  /    A nd           | Website:  www.openfoam.com                      |
|    \\/     M anipulation  |                                                 |
\*---------------------------------------------------------------------------*/
FoamFile
{
    version     2.0;
    format      ascii;
    class       surfaceScalarField;
    location    "0.95";
    object      phi;
}
// * * * * * * * * * * * * * * * * * * * * * * * * * * * * * * * * * * * * * //

dimensions      [0 3 -1 0 0 0 0];
oriented        oriented;


internalField   nonuniform List<scalar> 
4432
(
2.34332e-06
-2.34332e-06
1.99491e-06
3.4841e-07
-1.36827e-06
3.36318e-06
-5.56886e-06
4.20059e-06
-6.80555e-06
1.23669e-06
-4.71087e-06
-2.09469e-06
-2.53581e-06
-2.17505e-06
-2.13931e-06
-3.96504e-07
-2.88635e-06
7.47038e-07
-4.24239e-06
1.35603e-06
-5.90045e-06
1.65805e-06
-7.29964e-06
1.39919e-06
-7.41395e-06
1.14316e-07
-6.04944e-06
-1.36452e-06
-5.87775e-06
-1.71682e-07
-1.00742e-05
4.19643e-06
-1.73964e-05
7.32226e-06
-2.23096e-05
4.9132e-06
-2.14482e-05
-8.61418e-07
-1.74327e-05
-4.01547e-06
-1.23964e-05
-5.03636e-06
-5.94738e-06
-6.449e-06
-5.9474e-06
-2.42685e-06
8.35226e-08
-5.44112e-06
3.36268e-06
-8.42261e-06
6.34466e-06
-9.85755e-06
5.63553e-06
-8.61976e-06
-1.09249e-09
-5.58618e-06
-5.12827e-06
-3.05325e-06
-4.70798e-06
-2.50496e-06
-9.44807e-07
-3.4029e-06
1.64498e-06
-4.8331e-06
2.78623e-06
-6.2775e-06
3.10246e-06
-7.55121e-06
2.6729e-06
-8.97338e-06
1.5365e-06
-1.09308e-05
5.92944e-07
-1.33983e-05
2.29581e-06
-1.5748e-05
6.54612e-06
-1.66067e-05
8.18091e-06
-1.47326e-05
3.03915e-06
-1.19845e-05
-3.60959e-06
-9.95171e-06
-6.04821e-06
-7.36057e-06
-7.62752e-06
-3.63882e-06
-1.01707e-05
-9.58624e-06
-4.17893e-06
4.26245e-06
-7.85015e-06
7.0339e-06
-1.00199e-05
8.51439e-06
-1.0572e-05
6.18766e-06
-9.36065e-06
-1.21246e-06
-6.38511e-06
-8.10382e-06
-3.67409e-06
-7.41901e-06
-2.9878e-06
-1.63109e-06
-3.57191e-06
2.22909e-06
-4.50711e-06
3.72142e-06
-5.20346e-06
3.7988e-06
-5.62119e-06
3.09063e-06
-6.14357e-06
2.05887e-06
-7.15653e-06
1.60591e-06
-7.9253e-06
3.06458e-06
-7.24149e-06
5.86232e-06
-5.00297e-06
5.94238e-06
-3.20503e-06
1.24121e-06
-3.05768e-06
-3.75695e-06
-3.34422e-06
-5.76165e-06
-2.89761e-06
-8.07415e-06
-1.59812e-06
-1.14702e-05
-1.11844e-05
-3.5884e-06
7.85085e-06
-6.61752e-06
1.0063e-05
-8.4215e-06
1.03184e-05
-9.16271e-06
6.92887e-06
-8.41649e-06
-1.95868e-06
-5.84115e-06
-1.06792e-05
-3.80467e-06
-9.45549e-06
-3.65477e-06
-1.78099e-06
-4.39301e-06
2.96733e-06
-5.33921e-06
4.66762e-06
-5.93941e-06
4.399e-06
-6.004e-06
3.15522e-06
-5.49293e-06
1.54781e-06
-4.2799e-06
3.9288e-07
-1.93308e-06
7.17756e-07
1.30072e-06
2.62852e-06
3.64821e-06
3.59489e-06
2.98773e-06
1.90169e-06
1.16571e-07
-8.85797e-07
-1.97864e-06
-3.66643e-06
-2.53925e-06
-7.51356e-06
-1.50344e-06
-1.2506e-05
-1.26878e-05
-1.9015e-06
9.75235e-06
-3.75537e-06
1.19169e-05
-5.04776e-06
1.16108e-05
-5.62494e-06
7.50604e-06
-5.08503e-06
-2.49859e-06
-3.54645e-06
-1.22177e-05
-3.04394e-06
-9.958e-06
-4.13379e-06
-6.91133e-07
-5.44405e-06
4.27758e-06
-6.61991e-06
5.84348e-06
-7.35153e-06
5.13062e-06
-7.46814e-06
3.27183e-06
-6.75711e-06
8.36777e-07
-4.77891e-06
-1.58531e-06
-1.19071e-06
-2.87044e-06
2.95166e-06
-1.51384e-06
5.10738e-06
1.43915e-06
3.56755e-06
3.44154e-06
-2.30809e-07
2.91255e-06
-3.49137e-06
-4.05858e-07
-4.09977e-06
-6.90517e-06
-2.27193e-06
-1.43338e-05
-1.49597e-05
2.14846e-07
9.5375e-06
-4.89056e-08
1.21806e-05
-5.7084e-07
1.21327e-05
-6.68535e-07
7.60373e-06
4.86803e-07
-3.65393e-06
5.94776e-07
-1.23257e-05
-1.48669e-06
-7.87653e-06
-4.22582e-06
2.048e-06
-6.4555e-06
6.50726e-06
-7.9009e-06
7.28888e-06
-8.63426e-06
5.86399e-06
-8.70174e-06
3.33931e-06
-7.78166e-06
-8.33046e-08
-5.12154e-06
-4.24544e-06
-3.70863e-07
-7.62112e-06
4.3712e-06
-6.2559e-06
6.38079e-06
-5.70436e-07
4.46732e-06
5.355e-06
1.34807e-07
7.24505e-06
-3.94163e-06
3.67058e-06
-4.90555e-06
-5.94126e-06
-2.66981e-06
-1.65696e-05
-1.76295e-05
2.70697e-06
6.83052e-06
3.96339e-06
1.09242e-05
4.64182e-06
1.14543e-05
5.47862e-06
6.76693e-06
6.69964e-06
-4.87495e-06
5.50042e-06
-1.11265e-05
9.22473e-07
-3.29858e-06
-3.44654e-06
6.41702e-06
-6.51059e-06
9.5713e-06
-8.12925e-06
8.90754e-06
-8.70817e-06
6.4429e-06
-8.51561e-06
3.14675e-06
-7.26182e-06
-1.33709e-06
-3.66709e-06
-7.84017e-06
1.3783e-06
-1.26665e-05
5.90281e-06
-1.07804e-05
7.65492e-06
-2.32255e-06
5.61651e-06
7.39342e-06
1.25818e-06
1.16034e-05
-3.31533e-06
8.24409e-06
-4.90088e-06
-4.35572e-06
-2.8778e-06
-1.85927e-05
-2.05074e-05
5.07812e-06
1.75241e-06
8.08796e-06
7.91438e-06
1.0319e-05
9.22323e-06
1.26884e-05
4.39747e-06
1.32759e-05
-5.4624e-06
1.01198e-05
-7.97035e-06
4.37697e-06
2.4442e-06
-1.23208e-06
1.20261e-05
-4.75133e-06
1.30906e-05
-6.62311e-06
1.07793e-05
-7.21502e-06
7.03481e-06
-7.01026e-06
2.94199e-06
-6.01037e-06
-2.33698e-06
-4.42463e-06
-9.42592e-06
-1.68361e-06
-1.54075e-05
2.54428e-06
-1.50083e-05
5.66288e-06
-5.44116e-06
3.89778e-06
9.15851e-06
1.85012e-07
1.53161e-05
-4.02864e-06
1.24577e-05
-5.32594e-06
-3.05844e-06
-3.52614e-06
-2.03925e-05
-2.40335e-05
-5.69774e-06
5.69774e-06
-2.06067e-05
1.4909e-05
-1.75883e-05
-3.01847e-06
6.02486e-07
-1.81907e-05
2.16016e-05
-2.09991e-05
2.2992e-05
-1.39042e-06
1.13447e-05
1.16472e-05
3.50823e-06
7.83651e-06
1.38998e-05
-1.03916e-05
2.89734e-05
-1.50736e-05
2.0986e-05
7.98734e-06
-2.4245e-06
2.34105e-05
-2.24279e-05
2.00035e-05
-3.57468e-05
1.33189e-05
-3.82081e-05
2.4613e-06
-2.90455e-05
-9.16262e-06
-1.582e-05
-1.32254e-05
-5.25029e-06
-1.05697e-05
-5.25029e-06
-1.22475e-05
1.79452e-05
-1.96909e-05
2.23524e-05
-1.38624e-05
-8.84695e-06
-1.58863e-06
-3.04645e-05
1.39461e-05
-3.65337e-05
1.45293e-05
-1.97365e-06
3.08459e-06
2.30919e-05
-4.15412e-06
1.50752e-05
5.37589e-06
-1.99216e-05
1.13365e-05
-2.10341e-05
8.33899e-06
1.09848e-05
-1.23188e-05
4.40683e-05
-3.60531e-05
4.37377e-05
-4.27491e-05
2.00149e-05
-3.70547e-05
-3.2331e-06
-2.92648e-05
-1.69526e-05
-1.93965e-05
-2.30937e-05
-9.41695e-06
-2.05493e-05
-1.46672e-05
-1.18041e-05
2.97493e-05
-1.66493e-05
2.71975e-05
-1.05144e-05
-1.49818e-05
-1.50748e-06
-3.94714e-05
1.82336e-06
-3.98646e-05
-6.51383e-06
6.36354e-06
-2.45535e-05
4.11316e-05
-3.22906e-05
2.28123e-05
-2.44141e-05
-2.77981e-05
-1.34078e-05
-3.20404e-05
-8.96681e-06
6.54385e-06
-2.01742e-05
5.52757e-05
-3.46137e-05
5.81772e-05
-3.70598e-05
2.2461e-05
-3.52252e-05
-5.06774e-06
-3.13469e-05
-2.08308e-05
-1.86238e-05
-3.58168e-05
-5.17162e-06
-3.40015e-05
-1.98389e-05
-8.60197e-06
3.83513e-05
-1.20886e-05
3.06842e-05
-6.19478e-06
-2.08756e-05
6.32925e-07
-4.62992e-05
-4.82807e-06
-3.44036e-05
-3.00812e-05
3.16167e-05
-5.48202e-05
6.58706e-05
-5.64976e-05
2.44897e-05
-4.60308e-05
-3.82649e-05
-3.33408e-05
-4.47304e-05
-2.61538e-05
-6.43116e-07
-2.67403e-05
5.58622e-05
-3.12714e-05
6.27083e-05
-3.32296e-05
2.44192e-05
-3.54741e-05
-2.82323e-06
-3.40642e-05
-2.22408e-05
-2.1747e-05
-4.8134e-05
-2.71554e-06
-5.30329e-05
-2.25544e-05
-4.06573e-06
4.2417e-05
-4.34472e-06
3.09632e-05
8.89509e-07
-2.61098e-05
1.59065e-06
-4.70003e-05
-1.67432e-05
-1.60697e-05
-5.65617e-05
7.14352e-05
-7.50702e-05
8.43791e-05
-6.63377e-05
1.57572e-05
-5.74475e-05
-4.71551e-05
-4.94828e-05
-5.26951e-05
-4.05896e-05
-9.53629e-06
-3.2545e-05
4.78176e-05
-3.05351e-05
6.06984e-05
-3.52408e-05
2.91249e-05
-4.40439e-05
5.9799e-06
-5.00707e-05
-1.6214e-05
-3.11653e-05
-6.70395e-05
-4.53161e-06
-7.96666e-05
-2.7086e-05
1.20294e-06
4.12141e-05
4.59516e-06
2.7571e-05
7.93351e-06
-2.94482e-05
2.96201e-06
-4.20288e-05
-2.48386e-05
1.17309e-05
-6.9345e-05
0.000115942
-7.61159e-05
9.115e-05
-6.51297e-05
4.77104e-06
-6.13722e-05
-5.09126e-05
-5.89808e-05
-5.50866e-05
-5.2343e-05
-1.6174e-05
-4.13186e-05
3.67932e-05
-3.70599e-05
5.64396e-05
-4.87396e-05
4.08047e-05
-7.57217e-05
3.29619e-05
-8.2906e-05
-9.02961e-06
-2.75493e-05
-0.000122396
-1.13161e-06
-0.000106084
-2.82176e-05
7.98051e-06
3.32336e-05
1.38838e-05
2.16677e-05
1.57489e-05
-3.13133e-05
7.47365e-06
-3.37535e-05
-2.06786e-05
3.98832e-05
-6.42772e-05
0.00015954
-6.92292e-05
9.6102e-05
-6.4375e-05
-8.31784e-08
-6.55331e-05
-4.97545e-05
-6.54504e-05
-5.51693e-05
-6.1694e-05
-1.99305e-05
-5.26556e-05
2.77548e-05
-5.00145e-05
5.37986e-05
-7.82291e-05
6.90192e-05
-0.000112832
6.75647e-05
-8.03599e-05
-4.15017e-05
-1.99498e-05
-0.000182806
2.17067e-06
-0.000128205
-2.6047e-05
1.26908e-05
2.05428e-05
2.13408e-05
1.30177e-05
2.31646e-05
-3.31371e-05
1.39053e-05
-2.44943e-05
-1.00552e-05
6.38437e-05
-4.99272e-05
0.000199412
-5.99333e-05
0.000106108
-6.67085e-05
6.69206e-06
-7.62441e-05
-4.02189e-05
-7.44597e-05
-5.69537e-05
-6.58583e-05
-2.85318e-05
-6.57579e-05
2.76543e-05
-8.39288e-05
7.19695e-05
-0.000117855
0.000102945
-0.0001163
6.60097e-05
-5.38198e-05
-0.000103982
-1.93666e-05
-0.00021726
1.96977e-05
-0.000167269
-6.34921e-06
2.21517e-05
-2.03993e-05
3.20141e-05
-1.94796e-06
3.86585e-05
2.57875e-06
4.25233e-05
5.32661e-07
3.48357e-05
2.22521e-06
2.09087e-05
5.95671e-06
1.13543e-05
1.19986e-05
-1.11555e-06
2.44959e-05
-1.44011e-05
2.63761e-05
-2.27794e-05
1.91576e-05
-2.53745e-05
9.62994e-06
-2.69644e-05
4.53184e-06
-3.36473e-05
4.34597e-06
-4.24115e-05
-6.6175e-07
-3.60979e-05
-2.17211e-05
-1.66654e-05
-3.44407e-05
-8.20134e-06
-1.39053e-05
-1.50706e-05
1.60278e-05
-2.45743e-05
2.48199e-05
-2.2963e-05
1.08464e-05
-1.67241e-05
-9.29733e-06
-1.07429e-05
-2.63737e-05
-3.28411e-05
-1.93527e-06
3.4459e-05
-5.48583e-05
5.17946e-05
-1.92836e-05
5.75392e-05
-3.16591e-06
5.18365e-05
6.23543e-06
3.01665e-05
2.38951e-05
4.87796e-06
3.12453e-05
-1.30583e-05
2.99348e-05
-3.3563e-05
4.50006e-05
-5.45404e-05
4.73536e-05
-7.2815e-05
3.74322e-05
-9.03135e-05
2.71284e-05
-0.000106008
2.02262e-05
-0.00011419
1.25277e-05
-0.000113169
-1.68215e-06
-9.99445e-05
-3.49459e-05
-9.71154e-05
-3.72697e-05
-0.000133868
2.28473e-05
-0.00016193
4.40901e-05
-0.00015512
1.80099e-05
-0.000114322
-2.99515e-05
-6.47678e-05
-5.88518e-05
-2.54237e-05
-6.57178e-05
-5.71667e-05
-1.09812e-06
3.14789e-05
-8.63372e-05
4.11584e-05
-2.89631e-05
3.56753e-05
2.31722e-06
1.72716e-05
2.46391e-05
1.67631e-06
3.94904e-05
-2.51782e-05
5.80998e-05
-8.32452e-05
8.80018e-05
-0.000140557
0.000102312
-0.000157673
6.44693e-05
-0.000155315
3.50742e-05
-0.000160782
3.25958e-05
-0.00017923
3.86743e-05
-0.000187003
2.0301e-05
-0.000165158
-2.35276e-05
-0.000160072
-4.00319e-05
-0.000193311
-4.03076e-06
-0.000235727
6.52636e-05
-0.000252682
6.10446e-05
-0.000215851
-1.88214e-05
-0.000171347
-7.44552e-05
-0.000122572
-0.000107627
-7.5764e-05
-0.000112526
-8.65545e-05
-4.63762e-05
-2.19849e-05
-6.43522e-05
-3.69837e-05
-1.39643e-05
-2.4795e-05
-9.87152e-06
-2.04631e-05
2.03072e-05
-3.9564e-05
5.85914e-05
-9.13958e-05
0.000109932
-0.000149945
0.000146551
-0.00017289
0.000125258
-0.000177063
6.86423e-05
-0.000180672
3.86831e-05
-0.000190655
4.25786e-05
-0.000194529
4.25492e-05
-0.000186298
1.207e-05
-0.000182654
-2.71722e-05
-0.000193099
-2.95866e-05
-0.000214837
1.77072e-05
-0.000226268
7.66944e-05
-0.000219028
5.38049e-05
-0.000191666
-4.61836e-05
-0.000165008
-0.000101113
-0.000141297
-0.000131338
-0.000117487
-0.000136337
-0.000100083
-0.000103958
-6.16346e-05
-2.71764e-06
-9.33719e-05
1.7773e-05
-0.000123321
2.0078e-05
-0.000148058
4.50433e-05
-0.000169851
8.03848e-05
-0.000180783
0.000120864
-0.000164777
0.000130544
-0.000124975
8.54554e-05
-9.84086e-05
4.20761e-05
-0.000102912
4.31866e-05
-0.000127394
6.70603e-05
-0.000154436
6.9591e-05
-0.000182698
4.03321e-05
-0.000218204
8.3341e-06
-0.000239004
-8.78714e-06
-0.000234703
1.34065e-05
-0.00019956
4.15512e-05
-0.000150386
4.63144e-06
-0.000136676
-5.98934e-05
-0.00015982
-7.79684e-05
-0.00016395
-0.000127208
-0.00016062
-0.000139666
-9.61534e-05
-0.00016455
-7.91085e-05
7.63908e-05
-0.000180906
0.00011957
-0.000241762
8.09347e-05
-0.000247256
5.05371e-05
-0.000234166
6.72949e-05
-0.000204006
9.07034e-05
-0.000164103
9.06422e-05
-0.000128782
5.01344e-05
-0.000108896
2.219e-05
-0.000108669
4.29595e-05
-0.000119941
7.8332e-05
-0.000145357
9.50072e-05
-0.000192681
8.76561e-05
-0.000240132
5.5785e-05
-0.000257725
8.80615e-06
-0.000233538
-1.07807e-05
-0.000176875
-1.5112e-05
-0.000131042
-4.12018e-05
-0.000126739
-6.41966e-05
-0.00016061
-4.40967e-05
-0.000183904
-0.000103914
-0.000188673
-0.000134897
-8.76429e-05
-0.000197184
-5.11801e-05
0.000127571
-0.000161394
0.000229784
-0.000272856
0.000192397
-0.000301089
7.87696e-05
-0.000292788
5.89943e-05
-0.000276677
7.45921e-05
-0.000248748
6.27129e-05
-0.000215856
1.72427e-05
-0.000184118
-9.54768e-06
-0.000174501
3.33418e-05
-0.000182234
8.6065e-05
-0.000215258
0.000128032
-0.000257358
0.000129756
-0.000256492
5.49189e-05
-0.000229455
-1.82308e-05
-0.000201196
-3.90392e-05
-0.000170166
-4.61418e-05
-0.000149444
-6.19239e-05
-0.000149632
-6.40087e-05
-0.000169957
-2.37715e-05
-0.000192543
-8.13275e-05
-0.000195074
-0.000132366
-9.42816e-05
-0.000188436
-3.29467e-05
0.000160518
-8.8872e-05
0.000285709
-0.000186821
0.000290346
-0.000251656
0.000143604
-0.00028428
9.16187e-05
-0.000281173
7.14856e-05
-0.000254712
3.62512e-05
-0.000234424
-3.04505e-06
-0.000234696
-9.27537e-06
-0.000251553
5.01985e-05
-0.000278462
0.000112974
-0.000313442
0.000163012
-0.000319508
0.000135822
-0.000279517
1.49277e-05
-0.00024898
-4.8768e-05
-0.000220332
-6.76863e-05
-0.000200412
-6.60619e-05
-0.000194989
-6.7347e-05
-0.000199571
-5.9427e-05
-0.00018422
-3.91227e-05
-0.000178948
-8.66001e-05
-0.000199663
-0.000111651
-0.000107809
-0.000186136
-2.22751e-05
0.000182793
-5.08691e-05
0.000314303
-0.0001338
0.000373277
-0.000213098
0.000222903
-0.000287467
0.000165987
-0.000339534
0.000123553
-0.000372687
6.94046e-05
-0.000392187
1.6455e-05
-0.000398814
-2.64837e-06
-0.000380511
3.18957e-05
-0.000373371
0.000105833
-0.000360545
0.000150186
-0.000319446
9.47226e-05
-0.000304069
-4.48564e-07
-0.000292253
-6.05843e-05
-0.000280988
-7.89513e-05
-0.000275833
-7.12174e-05
-0.000267271
-7.59083e-05
-0.000234818
-9.18804e-05
-0.000177731
-9.62094e-05
-0.00015698
-0.000107352
-0.000162649
-0.000105982
-7.97158e-05
-0.000190742
-1.48215e-05
0.000197614
-3.28745e-05
0.000332356
-0.000122669
0.000463072
-0.000217934
0.000318167
-0.000300861
0.000248914
-0.000358796
0.000181488
-0.000395832
0.00010644
-0.00041932
3.99433e-05
-0.000429354
7.3852e-06
-0.000419469
2.20111e-05
-0.000387082
7.3446e-05
-0.000341478
0.000104582
-0.000305433
5.86782e-05
-0.000297361
-8.5206e-06
-0.000294664
-6.32815e-05
-0.000290222
-8.33933e-05
-0.000266553
-9.48863e-05
-0.000231904
-0.000110558
-0.000202055
-0.000121729
-0.000168547
-0.000129718
-0.00013701
-0.000138889
-0.000109907
-0.000133084
-8.21902e-05
-0.000107433
-1.04406e-05
0.000208055
-3.62533e-05
0.000358169
-0.000121721
0.00054854
-0.000213286
0.000409732
-0.000281401
0.000317029
-0.000318299
0.000218385
-0.000338371
0.000126512
-0.000355584
5.71562e-05
-0.000371905
2.37059e-05
-0.000371556
2.16627e-05
-0.00033619
3.80799e-05
-0.000274524
4.29167e-05
-0.000228205
1.23596e-05
-0.000204615
-3.21102e-05
-0.000197756
-7.01399e-05
-0.000187321
-9.38285e-05
-0.000172059
-0.000110148
-0.00015826
-0.000124357
-0.000149827
-0.000130162
-0.000142497
-0.000137048
-0.000131859
-0.000149527
-0.00011207
-0.000152873
-0.000119499
-7.47611e-05
-9.20289e-06
0.000217258
-6.40067e-05
0.000412973
-0.000126576
0.00061111
-0.000194661
0.000477817
-0.000238033
0.0003604
-0.000255764
0.000236117
-0.000262745
0.000133494
-0.000268985
6.33962e-05
-0.000270657
2.53774e-05
-0.000262069
1.30758e-05
-0.00023719
1.32005e-05
-0.000199309
5.03581e-06
-0.000167717
-1.92321e-05
-0.000149116
-5.07118e-05
-0.000139464
-7.97919e-05
-0.000131159
-0.000102134
-0.000121921
-0.000119386
-0.00011366
-0.000132618
-0.000107018
-0.000136805
-0.000103723
-0.000140343
-0.000104434
-0.000148816
-0.00010108
-0.000156226
-0.000139798
-8.07812e-05
-1.08794e-05
0.000228137
-8.67668e-05
0.00048886
-0.000123057
0.0006474
-0.00015961
0.00051437
-0.000182804
0.000383593
-0.000192482
0.000245795
-0.000196102
0.000137113
-0.000199681
6.69748e-05
-0.000204722
3.04183e-05
-0.000206778
1.51331e-05
-0.000196217
2.63929e-06
-0.000173941
-1.72406e-05
-0.000150445
-4.27276e-05
-0.000131722
-6.94349e-05
-0.000118444
-9.30697e-05
-0.000108314
-0.000112263
-9.97962e-05
-0.000127903
-9.34612e-05
-0.000138953
-8.63754e-05
-0.000143891
-8.07386e-05
-0.00014598
-7.97652e-05
-0.00014979
-8.14911e-05
-0.000154501
-0.000144859
-7.64301e-05
-1.36719e-05
0.000241809
-8.98453e-05
0.000565034
-0.00010519
0.000662745
-0.000118786
0.000527966
-0.000130187
0.000394994
-0.000140024
0.000255632
-0.000150024
0.000147114
-0.000168151
8.51017e-05
-0.000190877
5.3145e-05
-0.000203302
2.75578e-05
-0.000198595
-2.06776e-06
-0.000181242
-3.45933e-05
-0.000159434
-6.45356e-05
-0.000137824
-9.10454e-05
-0.00011857
-0.000112323
-0.000102596
-0.000128238
-9.09231e-05
-0.000139576
-8.33179e-05
-0.000146558
-7.71889e-05
-0.00015002
-7.14705e-05
-0.000151698
-6.80964e-05
-0.000153164
-6.92567e-05
-0.00015334
-0.000146409
-6.77069e-05
-1.54186e-05
0.000257228
-7.41604e-05
0.000623775
-7.96317e-05
0.000668216
-8.30706e-05
0.000531405
-9.04654e-05
0.000402389
-0.000107714
0.00027288
-0.000139684
0.000179084
-0.00018659
0.000132009
-0.000227789
9.43447e-05
-0.00024521
4.49788e-05
-0.000239094
-8.18399e-06
-0.000217933
-5.57539e-05
-0.00018963
-9.28394e-05
-0.000159705
-0.00012097
-0.000131875
-0.000140154
-0.000107953
-0.00015216
-8.85642e-05
-0.000158965
-7.36999e-05
-0.000161422
-6.28669e-05
-0.000160853
-5.55739e-05
-0.000158991
-5.20223e-05
-0.000156715
-5.15713e-05
-0.000153791
-0.000149091
-4.88889e-05
-1.13089e-05
0.000268536
-2.88118e-05
0.000641278
-4.91449e-05
0.000688549
-5.61842e-05
0.000538445
-6.93556e-05
0.000415561
-0.000103428
0.000306952
-0.000166188
0.000241843
-0.000238778
0.000204599
-0.000289335
0.000144902
-0.000306015
6.16589e-05
-0.000294303
-1.98963e-05
-0.000264655
-8.54011e-05
-0.00022558
-0.000131915
-0.000184193
-0.000162357
-0.000146829
-0.000177517
-0.000115957
-0.000183032
-9.12224e-05
-0.000183699
-7.1417e-05
-0.000181227
-5.57921e-05
-0.000176477
-4.4276e-05
-0.000170507
-3.68083e-05
-0.000164183
-3.26512e-05
-0.000157948
-0.000152479
-2.92636e-05
-1.90304e-06
0.000270439
1.60728e-05
0.000623302
-2.04207e-05
0.000725043
-3.89175e-05
0.000556942
-6.60133e-05
0.000442656
-0.000125814
0.000366753
-0.000216686
0.000332716
-0.000299632
0.000287544
-0.000346525
0.000191795
-0.00035851
7.36446e-05
-0.000343946
-3.44604e-05
-0.000308049
-0.000121298
-0.000259178
-0.000180786
-0.000205096
-0.000216439
-0.000156212
-0.000226402
-0.000117618
-0.000221625
-8.90625e-05
-0.000212255
-6.79968e-05
-0.000202293
-5.20644e-05
-0.00019241
-3.9946e-05
-0.000182626
-3.08835e-05
-0.000173246
-2.43001e-05
-0.000164532
-0.000156944
-1.98352e-05
4.56458e-06
0.000265875
7.27265e-07
0.00062714
-1.54113e-05
0.000741182
-3.65145e-05
0.000578045
-7.68501e-05
0.000482992
-0.000157425
0.000447328
-0.000254384
0.000429675
-0.000323004
0.000356165
-0.00035398
0.000222771
-0.000359135
7.87998e-05
-0.00034766
-4.59349e-05
-0.000317397
-0.000151562
-0.000270857
-0.000227325
-0.000212909
-0.000274387
-0.000156261
-0.000283051
-0.000110957
-0.000266929
-7.88839e-05
-0.000244328
-5.72041e-05
-0.000223973
-4.26262e-05
-0.000206988
-3.27312e-05
-0.000192521
-2.58146e-05
-0.000180162
-2.08894e-05
-0.000169457
-0.000160245
-1.75877e-05
-3.60568e-06
0.000269481
-3.71315e-05
0.000660666
-3.10587e-05
0.000735109
-4.42437e-05
0.00059123
-8.77619e-05
0.00052651
-0.000166032
0.000525598
-0.000239099
0.000502742
-0.000276564
0.00039363
-0.00028903
0.000235236
-0.000291299
8.10686e-05
-0.000282305
-5.49279e-05
-0.000263721
-0.000170146
-0.000232266
-0.00025878
-0.000188016
-0.000318637
-0.000136427
-0.00033464
-9.15272e-05
-0.000311828
-5.98351e-05
-0.00027602
-3.9651e-05
-0.000244157
-2.72948e-05
-0.000219344
-1.99905e-05
-0.000199825
-1.60279e-05
-0.000184125
-1.41509e-05
-0.000171334
-0.000160811
-1.35852e-05
-4.01483e-05
0.000309629
-7.1639e-05
0.000692156
-4.46725e-05
0.000708142
-4.60783e-05
0.000592636
-8.04915e-05
0.000560923
-0.000134812
0.000579918
-0.000171085
0.000539016
-0.000182127
0.000404671
-0.000183369
0.000236478
-0.000181889
7.95888e-05
-0.000171849
-6.49685e-05
-0.000152993
-0.000189002
-0.000132653
-0.00027912
-0.000113002
-0.000338288
-8.4846e-05
-0.000362796
-5.32837e-05
-0.00034339
-2.93299e-05
-0.000299974
-1.4939e-05
-0.000258548
-7.37623e-06
-0.000226907
-3.89234e-06
-0.000203309
-3.01594e-06
-0.000185001
-3.72523e-06
-0.000170625
-0.000158982
-5.55474e-06
-5.7002e-05
0.000366631
-5.52117e-05
0.000690366
-3.09151e-05
0.000683846
-2.38102e-05
0.000585531
-4.42313e-05
0.000581344
-6.56482e-05
0.000601335
-7.06204e-05
0.000543988
-6.30366e-05
0.000397087
-5.7248e-05
0.000230689
-5.10447e-05
7.33856e-05
-3.17151e-05
-8.42979e-05
-3.77971e-06
-0.000216937
1.11893e-05
-0.000294089
6.55219e-06
-0.000333651
3.08843e-07
-0.000356553
5.33903e-06
-0.000348421
1.33216e-05
-0.000307957
1.7144e-05
-0.00026237
1.71471e-05
-0.00022691
1.50456e-05
-0.000201208
1.19296e-05
-0.000181885
8.20363e-06
-0.000166899
-0.000154961
4.18348e-06
-6.47587e-06
0.000373107
4.50566e-06
0.000679384
6.31536e-06
0.000682036
1.35188e-05
0.000578327
1.16107e-05
0.000583253
2.79414e-05
0.000585004
5.8438e-05
0.000513491
8.81872e-05
0.000367338
0.000115284
0.000203592
0.000139909
4.87614e-05
0.000158039
-0.000102428
0.000167351
-0.000226249
0.00016418
-0.000290919
0.000141246
-0.000310716
0.000106639
-0.000321946
7.94111e-05
-0.000321193
6.393e-05
-0.000292476
5.31142e-05
-0.000251555
4.35642e-05
-0.00021736
3.49472e-05
-0.00019259
2.72618e-05
-0.0001742
2.0337e-05
-0.000159974
-0.000148643
1.40189e-05
8.53358e-06
0.000364573
1.79693e-05
0.000669949
1.86515e-05
0.000681354
2.99339e-05
0.000567045
5.12507e-05
0.000561936
0.000107052
0.000529203
0.000178249
0.000442294
0.000243118
0.000302469
0.000300474
0.000146236
0.000343291
5.94479e-06
0.000362914
-0.000122051
0.000350276
-0.000213611
0.000313472
-0.000254115
0.000263624
-0.000260869
0.000206057
-0.000264379
0.000153305
-0.000268441
0.000114748
-0.000253918
8.83243e-05
-0.000225131
6.89513e-05
-0.000197987
5.38898e-05
-0.000177529
4.17944e-05
-0.000162104
3.17923e-05
-0.000149972
-0.000140128
2.32768e-05
1.47008e-05
0.000349872
1.5819e-05
0.000668831
3.41016e-06
0.000693763
2.67448e-06
0.00056778
4.92925e-05
0.000515318
0.000142179
0.000436316
0.000253615
0.000330858
0.000358676
0.000197408
0.000444451
6.04611e-05
0.00050452
-5.4124e-05
0.000520854
-0.000138386
0.000489162
-0.000181918
0.000425795
-0.000190748
0.000352033
-0.000187108
0.000277298
-0.000189644
0.000208899
-0.000200042
0.000154909
-0.000199928
0.000116671
-0.000186893
8.96552e-05
-0.00017097
6.96201e-05
-0.000157494
5.41035e-05
-0.000146588
4.1662e-05
-0.000137531
-0.000129836
3.13695e-05
1.70856e-05
0.000332787
3.20583e-05
0.000653858
2.92393e-05
0.000696582
2.55572e-06
0.000594464
7.11007e-05
0.000446773
0.000184021
0.000323395
0.000315126
0.000199753
0.000443234
6.93007e-05
0.000547397
-4.37023e-05
0.000605006
-0.000111733
0.000602102
-0.000135482
0.000550472
-0.000130288
0.000472044
-0.00011232
0.00038641
-0.000101474
0.000304869
-0.000108103
0.00023264
-0.000127814
0.000174945
-0.000142233
0.000132897
-0.000144845
0.000102786
-0.000140859
8.04282e-05
-0.000135136
6.31248e-05
-0.000129284
4.92812e-05
-0.000123687
-0.000118438
3.78838e-05
2.89313e-05
0.000303856
8.29273e-05
0.000599862
0.000108831
0.000670678
0.000129124
0.00057417
0.000198006
0.00037789
0.000291645
0.000229756
0.000404194
8.72031e-05
0.000511083
-3.75881e-05
0.000582925
-0.000115544
0.000600512
-0.00012932
0.000568466
-0.000103437
0.000503257
-6.50782e-05
0.000425058
-3.4122e-05
0.000349073
-2.5489e-05
0.000280827
-3.98559e-05
0.000221405
-6.83924e-05
0.000173039
-9.38659e-05
0.000135868
-0.000107674
0.000107665
-0.000112656
8.58414e-05
-0.000113312
6.84889e-05
-0.000111932
5.43602e-05
-0.000109558
-0.000106685
4.26066e-05
3.68854e-05
0.00026697
0.00010697
0.000529778
0.000173535
0.000604112
0.000238301
0.000509405
0.000296435
0.000319756
0.000365662
0.000160528
0.000435075
1.77906e-05
0.000487405
-8.99181e-05
0.000503523
-0.000131662
0.000478398
-0.000104194
0.000429247
-5.42853e-05
0.000369991
-5.8225e-06
0.000313318
2.25512e-05
0.000264636
2.31923e-05
0.00022477
1.04472e-08
0.000189381
-3.30038e-05
0.000157443
-6.19279e-05
0.000129485
-7.97155e-05
0.000106047
-8.92186e-05
8.66532e-05
-9.39186e-05
7.05362e-05
-9.58149e-05
5.70151e-05
-9.60373e-05
-9.52094e-05
4.55399e-05
2.95684e-05
0.000237401
0.000101383
0.000457964
0.000179919
0.000525576
0.000246657
0.000442667
0.000297051
0.000269363
0.000352493
0.000105087
0.000383521
-1.32383e-05
0.00037813
-8.45264e-05
0.000348195
-0.000101727
0.000306324
-6.23233e-05
0.000264911
-1.28729e-05
0.000230994
2.80952e-05
0.000205487
4.8058e-05
0.00018746
4.12194e-05
0.000173696
1.3774e-05
0.000158024
-1.73318e-05
0.000138809
-4.27137e-05
0.000118969
-5.9875e-05
0.000100563
-7.08123e-05
8.42392e-05
-7.75953e-05
6.99999e-05
-8.15757e-05
5.76328e-05
-8.36702e-05
-8.44527e-05
4.6876e-05
1.21772e-05
0.000225224
8.01897e-05
0.000389952
0.000161776
0.000443989
0.000235533
0.000368911
0.000285463
0.000219432
0.000305938
8.46111e-05
0.000291934
7.65936e-07
0.000250482
-4.3074e-05
0.000202702
-5.3947e-05
0.000167773
-2.73947e-05
0.000145731
9.16932e-06
0.000135129
3.86975e-05
0.000134698
4.84887e-05
0.000139022
3.6895e-05
0.000139598
1.31983e-05
0.000133235
-1.09696e-05
0.000121405
-3.08836e-05
0.000107388
-4.58581e-05
9.3233e-05
-5.66573e-05
7.98727e-05
-6.42352e-05
6.76664e-05
-6.93695e-05
5.6693e-05
-7.2697e-05
-7.46649e-05
4.6905e-05
7.47355e-06
0.00021775
5.86136e-05
0.000338812
0.000138368
0.000364234
0.000214127
0.000293152
0.000250313
0.000183246
0.000243502
9.14227e-05
0.000211231
3.30364e-05
0.000168874
-7.16641e-07
0.000126926
-1.19987e-05
9.99925e-05
-4.61245e-07
8.91327e-05
2.0029e-05
9.25271e-05
3.5303e-05
0.000103717
3.72989e-05
0.000113955
2.66569e-05
0.000117451
9.70187e-06
0.000114213
-7.73169e-06
0.000106363
-2.3034e-05
9.62363e-05
-3.57313e-05
8.53332e-05
-4.57543e-05
7.45011e-05
-5.34031e-05
6.42018e-05
-5.90703e-05
5.46537e-05
-6.31492e-05
-6.59491e-05
4.59377e-05
1.26111e-05
0.000205139
5.63836e-05
0.000295039
0.000124841
0.000295777
0.000181
0.000236993
0.000201174
0.000163072
0.000190888
0.000101708
0.000165486
5.84389e-05
0.000133949
3.08204e-05
0.000103848
1.8102e-05
8.46842e-05
1.87025e-05
7.91768e-05
2.55365e-05
8.41919e-05
3.0288e-05
9.32136e-05
2.82771e-05
0.000100047
1.98238e-05
0.000101941
7.80783e-06
9.93751e-05
-5.16625e-06
9.36705e-05
-1.73296e-05
8.60629e-05
-2.81237e-05
7.7527e-05
-3.72185e-05
6.87313e-05
-4.46075e-05
6.01008e-05
-5.04399e-05
5.18947e-05
-5.49433e-05
-5.83087e-05
4.4254e-05
1.71299e-05
0.000188009
5.64128e-05
0.000255757
0.000108125
0.000244065
0.000146023
0.000199095
0.000160211
0.000148884
0.000155567
0.000106352
0.000140047
7.39588e-05
0.000119757
5.11108e-05
0.000100377
3.74825e-05
8.72649e-05
3.18143e-05
8.2397e-05
3.04045e-05
8.37759e-05
2.89092e-05
8.73944e-05
2.46586e-05
8.99414e-05
1.72768e-05
8.9992e-05
7.75718e-06
8.74515e-05
-2.62585e-06
8.29388e-05
-1.2817e-05
7.69602e-05
-2.21453e-05
7.01276e-05
-3.03859e-05
6.29207e-05
-3.74007e-05
5.56971e-05
-4.32165e-05
4.86932e-05
-4.79398e-05
-5.1676e-05
4.20602e-05
1.7491e-05
0.000170518
5.09372e-05
0.00022231
8.846e-05
0.000206542
0.000115747
0.000171808
0.00012819
0.000136442
0.000128216
0.000106326
0.000120188
8.19874e-05
0.000108235
6.30633e-05
9.6183e-05
4.95348e-05
8.71537e-05
4.08438e-05
8.23756e-05
3.51827e-05
8.10074e-05
3.02775e-05
8.11794e-05
2.44866e-05
8.12046e-05
1.72517e-05
8.01049e-05
8.85675e-06
7.75545e-05
-7.55869e-08
7.36825e-05
-8.94508e-06
6.8792e-05
-1.72548e-05
6.32011e-05
-2.4795e-05
5.72419e-05
-3.14416e-05
5.1179e-05
-3.71538e-05
4.5208e-05
-4.1969e-05
-4.59258e-05
3.94575e-05
1.55833e-05
0.000154935
4.26698e-05
0.000195223
7.05749e-05
0.000178636
9.1262e-05
0.000151121
0.000102228
0.000125475
0.000104777
0.000103777
0.00010152
8.52446e-05
9.51068e-05
6.94767e-05
8.79364e-05
5.67054e-05
8.18824e-05
4.68979e-05
7.78194e-05
3.92457e-05
7.55694e-05
3.25276e-05
7.4321e-05
2.5735e-05
7.31704e-05
1.84023e-05
7.14737e-05
1.05533e-05
6.89291e-05
2.46893e-06
6.55127e-05
-5.52877e-06
6.1403e-05
-1.31451e-05
5.67366e-05
-2.01285e-05
5.17444e-05
-2.64495e-05
4.66098e-05
-3.20195e-05
4.14755e-05
-3.68349e-05
-4.08921e-05
3.64415e-05
1.32508e-05
0.000141684
3.48321e-05
0.000173642
5.61826e-05
0.000157286
7.22436e-05
0.00013506
8.15877e-05
0.000116131
8.51713e-05
0.000100194
8.46887e-05
8.57273e-05
8.17693e-05
7.23963e-05
7.78394e-05
6.06353e-05
7.40372e-05
5.07e-05
7.10051e-05
4.22778e-05
6.88184e-05
3.47143e-05
6.71496e-05
2.74038e-05
6.55406e-05
2.00112e-05
6.36155e-05
1.24783e-05
6.11628e-05
4.92162e-06
5.81278e-05
-2.49365e-06
5.45768e-05
-9.59381e-06
5.0618e-05
-1.61697e-05
4.63622e-05
-2.21938e-05
4.19413e-05
-2.75988e-05
3.74464e-05
-3.23402e-05
-3.64053e-05
3.29594e-05
1.11333e-05
0.00013055
2.8359e-05
0.000156416
4.50118e-05
0.000140633
5.76046e-05
0.000122467
6.54163e-05
0.00010832
6.92835e-05
9.63266e-05
7.03334e-05
8.46774e-05
6.95212e-05
7.32085e-05
6.76629e-05
6.24934e-05
6.54534e-05
5.29094e-05
6.33551e-05
4.43761e-05
6.15248e-05
3.65447e-05
5.98695e-05
2.90591e-05
5.81807e-05
2.16999e-05
5.62564e-05
1.44027e-05
5.39669e-05
7.21135e-06
5.12535e-05
2.20036e-07
4.8127e-05
-6.46712e-06
4.46872e-05
-1.27298e-05
4.09802e-05
-1.84868e-05
3.7079e-05
-2.36977e-05
3.30645e-05
-2.83259e-05
-3.23545e-05
2.90136e-05
9.31888e-06
0.000121232
2.31297e-05
0.000142605
3.62164e-05
0.000127546
4.61168e-05
0.000112567
5.25943e-05
0.000101842
5.63898e-05
9.25311e-05
5.82263e-05
8.28409e-05
5.86199e-05
7.28149e-05
5.80222e-05
6.3091e-05
5.68682e-05
5.40634e-05
5.54954e-05
4.5749e-05
5.40723e-05
3.79679e-05
5.26084e-05
3.05231e-05
5.10219e-05
2.32864e-05
4.92116e-05
1.62131e-05
4.71014e-05