/*--------------------------------*- C++ -*----------------------------------*\
| =========                 |                                                 |
| \\      /  F ield         | OpenFOAM: The Open Source CFD Toolbox           |
|  \\    /   O peration     | Version:  2012                                  |
|   \\  /    A nd           | Website:  www.openfoam.com                      |
|    \\/     M anipulation  |                                                 |
\*---------------------------------------------------------------------------*/
FoamFile
{
    version     2.0;
    format      ascii;
    class       volVectorField;
    location    "0.95";
    object      U;
}
// * * * * * * * * * * * * * * * * * * * * * * * * * * * * * * * * * * * * * //

dimensions      [0 1 -1 0 0 0 0];


internalField   nonuniform List<vector> 
2268
(
(0.0168944 -0.0142498 0)
(0.0330582 -0.00555844 0)
(0.0118137 0.00851601 0)
(-0.0458919 0.0160831 0)
(-0.083265 0.00812174 0)
(-0.0683756 -0.00405394 0)
(-0.0376597 -0.00532249 0)
(-0.0236712 -0.000714842 0)
(-0.0267167 0.00214118 0)
(-0.0391666 0.00399221 0)
(-0.0569833 0.00492937 0)
(-0.077032 0.00308223 0)
(-0.0881785 -0.00367372 0)
(-0.0788501 -0.0122554 0)
(-0.0623044 -0.0101379 0)
(-0.0747907 0.0103259 0)
(-0.158517 0.0278015 0)
(-0.247626 0.019263 0)
(-0.261417 -0.00327978 0)
(-0.219094 -0.0180348 0)
(-0.170373 -0.0214865 0)
(-0.103861 -0.0248055 0)
(-0.032862 -0.0202204 0)
(-0.014575 -0.0098272 0)
(-0.0449183 0.00954157 0)
(-0.0821964 0.0282266 0)
(-0.11561 0.0285966 0)
(-0.111569 0.00469662 0)
(-0.0793178 -0.018589 0)
(-0.0465322 -0.018056 0)
(-0.0272511 -0.0034073 0)
(-0.0314485 0.00652105 0)
(-0.0461649 0.0114424 0)
(-0.0634458 0.013523 0)
(-0.0793324 0.0116712 0)
(-0.0925442 0.0044583 0)
(-0.111373 -0.00236054 0)
(-0.138219 0.00914425 0)
(-0.167018 0.0362788 0)
(-0.197814 0.0485587 0)
(-0.194309 0.0269013 0)
(-0.139489 -0.00951938 0)
(-0.120873 -0.0287577 0)
(-0.0992192 -0.0375211 0)
(-0.0638574 -0.0500099 0)
(-0.0167022 -0.0469522 0)
(-0.0271476 0.0114708 0)
(-0.0723003 0.0283372 0)
(-0.109897 0.0402492 0)
(-0.126219 0.030796 0)
(-0.116695 -0.00467618 0)
(-0.0890564 -0.0365231 0)
(-0.0543499 -0.0335841 0)
(-0.0345562 -0.00730243 0)
(-0.0354234 0.0105465 0)
(-0.0460185 0.0178094 0)
(-0.0561126 0.0191983 0)
(-0.0619855 0.016864 0)
(-0.0661722 0.0122807 0)
(-0.0744585 0.00933844 0)
(-0.0861073 0.0172879 0)
(-0.0927689 0.0354382 0)
(-0.0812957 0.0385472 0)
(-0.0430478 0.00747644 0)
(-0.0245254 -0.0246433 0)
(-0.0387906 -0.0342956 0)
(-0.0324591 -0.04314 0)
(-0.0332212 -0.0590169 0)
(-0.00208734 -0.0580998 0)
(-0.0243238 0.0331855 0)
(-0.0609827 0.0463199 0)
(-0.0923422 0.0502943 0)
(-0.108658 0.0338442 0)
(-0.104244 -0.0100202 0)
(-0.0772278 -0.0530735 0)
(-0.0521415 -0.0477511 0)
(-0.0410706 -0.0103705 0)
(-0.0445634 0.0137054 0)
(-0.0555642 0.0225924 0)
(-0.0653797 0.0220847 0)
(-0.069353 0.0169706 0)
(-0.0672505 0.01064 0)
(-0.058044 0.00761989 0)
(-0.0373917 0.013749 0)
(-0.00504514 0.0259756 0)
(0.0304077 0.02719 0)
(0.0460695 0.00786067 0)
(0.0261357 -0.0123691 0)
(-0.0173822 -0.0260876 0)
(-0.0248953 -0.0423527 0)
(-0.0338015 -0.0637499 0)
(-0.000674393 -0.0636527 0)
(-0.0136941 0.0485328 0)
(-0.0323897 0.0599126 0)
(-0.0543394 0.0592048 0)
(-0.0696087 0.0382618 0)
(-0.0646229 -0.0129934 0)
(-0.0400976 -0.0643658 0)
(-0.0351397 -0.0545757 0)
(-0.0418656 -0.00856838 0)
(-0.0548303 0.0190006 0)
(-0.0690695 0.0282623 0)
(-0.0807288 0.0256916 0)
(-0.0861572 0.017271 0)
(-0.0837038 0.00637316 0)
(-0.0693467 -0.00320503 0)
(-0.0371468 -0.00531949 0)
(0.00971842 0.00383124 0)
(0.0509192 0.0138795 0)
(0.0577832 0.0140175 0)
(0.0270954 0.00481572 0)
(-0.0276885 -0.0122949 0)
(-0.0461309 -0.0391665 0)
(-0.0482959 -0.0721336 0)
(-0.00521714 -0.0743755 0)
(0.000575502 0.0556106 0)
(0.00351866 0.0668095 0)
(-0.00446602 0.0650389 0)
(-0.0122274 0.040537 0)
(-0.00642511 -0.0167462 0)
(0.0215254 -0.0678785 0)
(-0.00518211 -0.049558 0)
(-0.0353481 0.00161877 0)
(-0.0633683 0.0286402 0)
(-0.0830176 0.0356144 0)
(-0.0954995 0.0299605 0)
(-0.100582 0.0181026 0)
(-0.0970579 0.00334444 0)
(-0.0784365 -0.0148855 0)
(-0.0349714 -0.0269644 0)
(0.0236733 -0.020667 0)
(0.066848 0.00266154 0)
(0.0706738 0.0248681 0)
(0.036228 0.0283469 0)
(-0.0249881 0.00827512 0)
(-0.0579956 -0.0353156 0)
(-0.0549299 -0.0839519 0)
(-0.0102974 -0.0871716 0)
(0.0171382 0.0453156 0)
(0.0412572 0.0620698 0)
(0.0483139 0.063974 0)
(0.0493689 0.0424772 0)
(0.0696619 -0.019759 0)
(0.0968694 -0.063168 0)
(0.036818 -0.0315846 0)
(-0.018934 0.0230542 0)
(-0.0610947 0.0433383 0)
(-0.0857109 0.0431185 0)
(-0.0973763 0.0321215 0)
(-0.0999781 0.0159252 0)
(-0.0944693 -0.00473866 0)
(-0.0664497 -0.0338751 0)
(-0.0127756 -0.0606337 0)
(0.0407241 -0.0542336 0)
(0.0806909 -0.0142443 0)
(0.0848931 0.0305007 0)
(0.0509836 0.048399 0)
(-0.0110556 0.0294569 0)
(-0.0577537 -0.0303159 0)
(-0.0571534 -0.0968482 0)
(-0.0172655 -0.103088 0)
(0.0334274 0.0316045 0)
(0.0785184 0.0627436 0)
(0.103198 0.0625001 0)
(0.121829 0.0267838 0)
(0.16275 -0.0367572 0)
(0.157083 -0.0574286 0)
(0.0806651 -0.00540543 0)
(0.0106755 0.0477127 0)
(-0.0379314 0.0615821 0)
(-0.0675799 0.0546855 0)
(-0.0805475 0.038974 0)
(-0.0831067 0.0202124 0)
(-0.0762775 -0.00841217 0)
(-0.0549796 -0.051018 0)
(-0.0403881 -0.0773195 0)
(-0.00669985 -0.0626246 0)
(0.0543826 -0.0201003 0)
(0.0662747 0.0409138 0)
(0.0346147 0.0692451 0)
(-0.0179022 0.0596111 0)
(-0.0642138 -0.0199761 0)
(-0.0618685 -0.107429 0)
(-0.0335841 -0.12336 0)
(0.0498962 0.00431807 0)
(-0.207659 0.0429842 0)
(-0.271088 -0.0112501 0)
(-0.0961832 -0.0684303 0)
(0.120474 -0.075885 0)
(0.294962 -0.00729449 0)
(0.263039 0.0140479 0)
(0.044339 0.0202058 0)
(0.0261658 -0.013832 0)
(0.255575 -0.0588955 0)
(0.342209 0.0019998 0)
(0.153417 0.0532286 0)
(-0.187287 0.0526415 0)
(-0.365866 0.050274 0)
(-0.477827 0.0262166 0)
(-0.396678 -0.0251935 0)
(-0.244365 -0.0500584 0)
(-0.1149 -0.0382162 0)
(-0.00987925 -0.0071676 0)
(-0.055199 0.0581897 0)
(-0.26631 0.0915161 0)
(-0.189107 -0.0269613 0)
(-0.0926472 -0.126805 0)
(0.0716114 -0.155746 0)
(0.179072 -0.0167636 0)
(0.192089 0.0814886 0)
(-0.0982964 0.0716712 0)
(0.012367 -0.0687184 0)
(0.084763 -0.0751073 0)
(0.126853 0.0581232 0)
(0.112472 0.159917 0)
(-0.347797 0.152493 0)
(-0.520889 0.0753897 0)
(-0.483235 -0.0118117 0)
(-0.362991 -0.0751394 0)
(-0.280075 -0.0878146 0)
(-0.162032 -0.0683315 0)
(-0.060416 -0.047736 0)
(-0.0917093 0.115305 0)
(-0.223984 0.120742 0)
(-0.144697 -0.0589522 0)
(-0.062343 -0.176021 0)
(0.0416211 -0.195283 0)
(-0.0210273 0.000152087 0)
(-0.097039 0.158807 0)
(-0.374616 0.11555 0)
(-0.367672 -0.0995814 0)
(-0.260561 -0.130458 0)
(-0.115433 0.0388143 0)
(-0.0378255 0.243389 0)
(-0.369968 0.247772 0)
(-0.461687 0.104857 0)
(-0.412275 -0.0192053 0)
(-0.390743 -0.0850436 0)
(-0.294162 -0.129023 0)
(-0.139768 -0.117014 0)
(0.0268645 -0.0861835 0)
(-0.0814416 0.165443 0)
(-0.158514 0.137829 0)
(-0.0972252 -0.0927854 0)
(-0.0165984 -0.214688 0)
(0.035589 -0.192017 0)
(-0.183251 0.0729972 0)
(-0.480759 0.269811 0)
(-0.695857 0.119093 0)
(-0.613421 -0.174146 0)
(-0.49071 -0.194043 0)
(-0.339649 0.0214475 0)
(-0.211891 0.282853 0)
(-0.347431 0.304262 0)
(-0.390403 0.11223 0)
(-0.394519 -0.0292297 0)
(-0.412987 -0.101406 0)
(-0.343714 -0.207306 0)
(-0.166784 -0.213876 0)
(0.118231 -0.107824 0)
(-0.0475086 0.198993 0)
(-0.0791276 0.146816 0)
(-0.00354829 -0.119698 0)
(0.0375131 -0.229304 0)
(0.0114045 -0.125239 0)
(-0.450513 0.261458 0)
(-0.834636 0.379159 0)
(-0.834973 0.0881967 0)
(-0.684355 -0.22832 0)
(-0.646438 -0.247111 0)
(-0.539899 -0.0217942 0)
(-0.360701 0.265331 0)
(-0.335253 0.310262 0)
(-0.369605 0.135323 0)
(-0.450413 0.00861696 0)
(-0.572316 -0.118803 0)
(-0.544421 -0.278436 0)
(-0.197109 -0.330595 0)
(0.121249 -0.118727 0)
(-0.00192099 0.211542 0)
(0.0115274 0.145066 0)
(0.104895 -0.136142 0)
(0.109112 -0.211665 0)
(-0.00954897 -0.00450854 0)
(-0.630689 0.452011 0)
(-0.952457 0.405656 0)
(-0.776263 0.0153674 0)
(-0.682883 -0.251903 0)
(-0.722829 -0.263578 0)
(-0.673876 -0.0641469 0)
(-0.509733 0.20113 0)
(-0.390796 0.286227 0)
(-0.454799 0.160547 0)
(-0.684478 0.0482869 0)
(-1.08524 -0.0400203 0)
(-0.659711 -0.352734 0)
(-0.0820329 -0.417139 0)
(0.0665482 -0.137758 0)
(0.0400903 0.191521 0)
(0.105142 0.129969 0)
(0.207503 -0.147054 0)
(0.191473 -0.181348 0)
(0.036868 0.13972 0)
(-0.597238 0.646731 0)
(-0.888946 0.430618 0)
(-0.671939 0.0121256 0)
(-0.729882 -0.246662 0)
(-0.789111 -0.269345 0)
(-0.744211 -0.0842044 0)
(-0.655326 0.163763 0)
(-0.511905 0.256932 0)
(-0.638244 0.229677 0)
(-1.20919 0.257687 0)
(-1.36206 -0.0243643 0)
(-0.339535 -0.796893 0)
(-0.0667335 -0.557363 0)
(0.0493973 -0.154789 0)
(0.0727366 0.137348 0)
(0.178087 0.0875874 0)
(0.2973 -0.152534 0)
(0.264594 -0.155776 0)
(0.109313 0.2246 0)
(-0.42285 0.857526 0)
(-0.726516 0.487623 0)
(-0.585622 0.00385066 0)
(-0.850878 -0.226815 0)
(-0.935559 -0.281064 0)
(-0.794341 -0.129402 0)
(-0.70154 0.10228 0)
(-0.763511 0.278243 0)
(-1.19275 0.40049 0)
(-1.61224 0.332039 0)
(-0.90917 -0.426423 0)
(-0.264134 -1.02392 0)
(-0.109872 -0.771007 0)
(0.367766 -0.0662449 0)
(0.0728452 -0.0268453 0)
(0.150845 -0.00176369 0)
(0.189233 0.0218716 0)
(0.222342 0.0282825 0)
(0.233859 -0.000562792 0)
(0.151216 -0.0150366 0)
(0.0755599 0.0480764 0)
(0.0361895 0.0991695 0)
(-0.0435529 0.0942004 0)
(-0.105677 0.0742345 0)
(-0.133857 0.0426546 0)
(-0.139298 0.00551685 0)
(-0.15203 -0.0159306 0)
(-0.207522 -0.0307253 0)
(-0.23615 -0.0749837 0)
(-0.159611 -0.126859 0)
(-0.0583704 -0.0876219 0)
(-0.0348701 0.0338362 0)
(-0.112071 0.0781827 0)
(-0.123636 0.0735735 0)
(-0.089845 0.00341582 0)
(-0.0896866 -0.100784 0)
(-0.0509549 -0.137858 0)
(0.0867986 -0.174023 0)
(0.248812 -0.00841419 0)
(0.303794 0.0127938 0)
(0.303404 -0.0248571 0)
(0.259335 0.0317303 0)
(0.0913528 0.0944053 0)
(-0.0475333 0.0887137 0)
(-0.109295 0.157743 0)
(-0.22938 0.198102 0)
(-0.342261 0.151735 0)
(-0.439656 0.0797919 0)
(-0.536985 0.0524301 0)
(-0.611282 0.0576311 0)
(-0.612973 0.0237503 0)
(-0.550925 -0.160529 0)
(-0.560407 -0.265166 0)
(-0.600355 -0.0581119 0)
(-0.80141 0.213952 0)
(-0.926808 0.269238 0)
(-0.69101 0.0466062 0)
(-0.424841 -0.115188 0)
(-0.225283 -0.180168 0)
(-0.0809299 -0.199179 0)
(0.0146406 -0.506738 0)
(0.239549 -0.26815 0)
(0.262609 -0.0588669 0)
(0.114052 0.103965 0)
(0.0492046 0.195495 0)
(-0.0246411 0.216638 0)
(-0.252556 0.241289 0)
(-0.649644 0.353888 0)
(-0.846426 0.287506 0)
(-0.855032 0.206737 0)
(-0.825656 0.172426 0)
(-0.905539 0.154449 0)
(-1.02619 0.11026 0)
(-0.928047 -0.0527994 0)
(-0.828218 -0.231545 0)
(-0.919743 -0.0879025 0)
(-1.19297 0.331119 0)
(-1.3889 0.22355 0)
(-1.28307 -0.110749 0)
(-1.01611 -0.368959 0)
(-0.760836 -0.494753 0)
(-0.512609 -0.51812 0)
(-0.323568 -0.425675 0)
(-0.156945 -0.433076 0)
(-0.145742 -0.0158856 0)
(-0.214909 0.0684318 0)
(-0.0818304 0.101953 0)
(-0.12921 0.207 0)
(-0.28479 0.386029 0)
(-0.643431 0.614433 0)
(-0.936112 0.624458 0)
(-0.980615 0.3319 0)
(-0.95436 0.152844 0)
(-0.973232 0.168937 0)
(-1.04742 0.205127 0)
(-1.02811 0.0326511 0)
(-0.947299 -0.213276 0)
(-1.00542 -0.220349 0)
(-1.10157 0.00453279 0)
(-1.18655 0.322385 0)
(-1.26043 0.358956 0)
(-1.09901 -0.119575 0)
(-0.941572 -0.432212 0)
(-0.80001 -0.672001 0)
(-0.696904 -0.716313 0)
(-0.596033 -0.542113 0)
(-0.320325 -0.185818 0)
(-0.470922 -0.0922136 0)
(-0.538233 -0.097662 0)
(-0.773194 0.204506 0)
(-0.880685 0.500616 0)
(-0.918895 0.82708 0)
(-0.92661 0.97828 0)
(-0.811125 0.777901 0)
(-0.610512 0.453487 0)
(-0.489746 0.322309 0)
(-0.586162 0.360993 0)
(-0.750074 0.337582 0)
(-0.870097 0.143919 0)
(-1.09037 -0.0568146 0)
(-1.27998 -0.07098 0)
(-1.3232 0.181119 0)
(-1.16364 0.459638 0)
(-0.959708 0.189221 0)
(-0.719967 -0.343985 0)
(-0.759222 -0.604113 0)
(-0.887539 -0.748578 0)
(-0.897145 -0.760011 0)
(-0.870709 -0.533831 0)
(-0.300078 0.17558 0)
(-0.747424 0.318396 0)
(-1.1879 0.251673 0)
(-1.33473 0.20518 0)
(-1.31229 0.344397 0)
(-1.18124 0.516442 0)
(-0.974624 0.538487 0)
(-0.769247 0.262209 0)
(-0.639791 0.0689356 0)
(-0.574493 0.15383 0)
(-0.601599 0.324474 0)
(-0.676216 0.382833 0)
(-0.850363 0.297146 0)
(-1.21174 0.17852 0)
(-1.4295 0.0350042 0)
(-1.3266 0.00403132 0)
(-1.09151 0.0662732 0)
(-0.821979 -0.0841379 0)
(-0.635117 -0.298631 0)
(-0.728144 -0.281432 0)
(-0.95415 -0.641929 0)
(-1.02547 -0.724235 0)
(-1.03141 -0.472596 0)
(-0.216369 0.548083 0)
(-0.512191 0.932757 0)
(-1.21424 0.572827 0)
(-1.56236 0.300871 0)
(-1.60286 0.356009 0)
(-1.53067 0.408992 0)
(-1.4164 0.325713 0)
(-1.24114 0.16522 0)
(-1.06177 0.106718 0)
(-0.968245 0.221486 0)
(-0.930604 0.423386 0)
(-0.999757 0.586082 0)
(-1.26198 0.648752 0)
(-1.4903 0.443931 0)
(-1.31567 0.0214171 0)
(-1.14094 -0.156817 0)
(-0.989541 -0.216855 0)
(-0.838511 -0.327777 0)
(-0.799139 -0.387692 0)
(-0.818387 -0.236984 0)
(-0.982161 -0.483611 0)
(-1.07134 -0.685948 0)
(-1.04645 -0.452192 0)
(-0.149022 0.799461 0)
(-0.300303 1.45006 0)
(-0.725158 1.24494 0)
(-1.22138 0.458992 0)
(-1.46337 0.355224 0)
(-1.53207 0.413248 0)
(-1.42178 0.299555 0)
(-1.21043 -0.0121278 0)
(-1.30269 -0.128212 0)
(-1.35866 0.224567 0)
(-1.39192 0.597201 0)
(-1.55185 0.83207 0)
(-1.79267 0.642439 0)
(-1.60237 0.0260752 0)
(-1.42673 -0.25107 0)
(-1.26134 -0.327581 0)
(-1.11593 -0.352281 0)
(-1.04172 -0.403699 0)
(-1.06799 -0.332741 0)
(-1.02603 -0.082743 0)
(-0.951068 -0.459432 0)
(-1.0407 -0.671161 0)
(-1.0452 -0.497346 0)
(-0.101159 0.948091 0)
(-0.196214 1.67492 0)
(-0.422031 1.90562 0)
(-0.91754 1.0237 0)
(-1.38323 0.625534 0)
(-1.70242 0.455145 0)
(-1.90049 0.234474 0)
(-2.0576 0.0269018 0)
(-2.17584 0.0251737 0)
(-2.15226 0.318099 0)
(-2.01533 0.760317 0)
(-1.93688 0.937642 0)
(-1.84024 0.609429 0)
(-1.684 -0.0108481 0)
(-1.60871 -0.343489 0)
(-1.53355 -0.433556 0)
(-1.49436 -0.375792 0)
(-1.48194 -0.304444 0)
(-1.37075 -0.311498 0)
(-1.09134 -0.274705 0)
(-0.830779 -0.423799 0)
(-0.84395 -0.600928 0)
(-1.00165 -0.571998 0)
(-0.080592 1.03787 0)
(-0.118139 1.76427 0)
(-0.280373 2.33784 0)
(-0.930988 1.51145 0)
(-1.44047 1.12422 0)
(-1.80228 0.821577 0)
(-2.0428 0.474525 0)
(-2.20622 0.135632 0)
(-2.31469 -0.047707 0)
(-2.32432 0.0371559 0)
(-2.16636 0.406529 0)
(-1.93464 0.750216 0)
(-1.7241 0.585735 0)
(-1.59827 0.0537023 0)
(-1.58966 -0.298165 0)
(-1.60204 -0.408681 0)
(-1.50159 -0.399486 0)
(-1.3232 -0.519501 0)
(-1.15883 -0.637197 0)
(-0.994209 -0.680443 0)
(-0.823715 -0.677256 0)
(-0.676465 -0.580845 0)
(-0.538709 -0.381928 0)
(-0.0929443 1.09935 0)
(-0.0519521 1.84237 0)
(-0.300007 2.73184 0)
(-0.954148 1.97198 0)
(-1.38514 1.54875 0)
(-1.66014 1.09016 0)
(-1.77269 0.61747 0)
(-1.861 0.249196 0)
(-1.96309 0.100361 0)
(-2.03051 0.143052 0)
(-1.92532 0.276555 0)
(-1.63774 0.343699 0)
(-1.33185 0.175309 0)
(-1.14178 -0.116257 0)
(-1.08023 -0.321706 0)
(-1.04555 -0.468625 0)
(-0.956465 -0.580656 0)
(-0.870443 -0.660185 0)
(-0.818252 -0.69243 0)
(-0.78388 -0.740469 0)
(-0.747922 -0.819293 0)
(-0.665103 -0.813789 0)
(-0.506152 -0.547653 0)
(-0.128988 1.14989 0)
(-0.0202688 2.00703 0)
(-0.506064 3.13919 0)
(-0.911781 2.3969 0)
(-1.22129 1.82513 0)
(-1.37454 1.22114 0)
(-1.39022 0.709172 0)
(-1.42064 0.350162 0)
(-1.45609 0.153143 0)
(-1.4409 0.0801127 0)
(-1.34777 0.0918642 0)
(-1.16922 0.0686857 0)
(-0.975913 -0.062524 0)
(-0.841008 -0.239009 0)
(-0.770107 -0.409586 0)
(-0.72774 -0.52958 0)
(-0.681153 -0.613532 0)
(-0.62604 -0.687842 0)
(-0.583261 -0.716407 0)
(-0.558362 -0.74162 0)
(-0.55957 -0.802301 0)
(-0.557011 -0.848684 0)
(-0.505886 -0.74222 0)
(-0.176406 1.19611 0)
(-0.0352206 2.4158 0)
(-0.6787 3.43432 0)
(-0.760609 2.71066 0)
(-0.967982 2.02621 0)
(-1.03737 1.31241 0)
(-1.03297 0.744814 0)
(-1.04934 0.359672 0)
(-1.07822 0.137315 0)
(-1.11561 0.0592842 0)
(-1.09405 0.042691 0)
(-0.995368 -0.0187993 0)
(-0.865957 -0.150473 0)
(-0.752509 -0.305912 0)
(-0.667495 -0.447766 0)
(-0.605161 -0.563734 0)
(-0.558077 -0.658338 0)
(-0.519452 -0.727179 0)
(-0.477722 -0.751645 0)
(-0.443412 -0.766706 0)
(-0.427484 -0.799687 0)
(-0.430178 -0.841553 0)
(-0.426496 -0.777283 0)
(-0.233468 1.26077 0)
(-0.0277347 2.86623 0)
(-0.71281 3.57359 0)
(-0.548168 2.85443 0)
(-0.704906 2.13433 0)
(-0.728761 1.37326 0)
(-0.755566 0.774809 0)
(-0.831638 0.406858 0)
(-0.97071 0.224761 0)
(-1.08418 0.122152 0)
(-1.09602 0.00907331 0)
(-1.02345 -0.127234 0)
(-0.913174 -0.27455 0)
(-0.796005 -0.416404 0)
(-0.685091 -0.53771 0)
(-0.588847 -0.63427 0)
(-0.514187 -0.709291 0)
(-0.462629 -0.761475 0)
(-0.427747 -0.788143 0)
(-0.398225 -0.799422 0)
(-0.37338 -0.812267 0)
(-0.363343 -0.822237 0)
(-0.366119 -0.784055 0)
(-0.29869 1.34837 0)
(0.0246165 3.23433 0)
(-0.63607 3.60319 0)
(-0.340486 2.87817 0)
(-0.500006 2.17002 0)
(-0.499481 1.43332 0)
(-0.623264 0.871678 0)
(-0.865797 0.577953 0)
(-1.15158 0.406711 0)
(-1.30909 0.214166 0)
(-1.32055 -0.00678321 0)
(-1.23445 -0.215772 0)
(-1.09436 -0.399698 0)
(-0.934941 -0.552181 0)
(-0.777951 -0.666157 0)
(-0.638548 -0.744245 0)
(-0.521838 -0.793485 0)
(-0.429404 -0.819261 0)
(-0.360523 -0.829174 0)
(-0.311919 -0.832115 0)
(-0.285552 -0.832383 0)
(-0.276552 -0.824531 0)
(-0.2708 -0.794324 0)
(-0.365859 1.43409 0)
(0.202904 3.53 0)
(-0.451869 3.64209 0)
(-0.159407 2.88266 0)
(-0.374416 2.20238 0)
(-0.39282 1.54716 0)
(-0.68071 1.10553 0)
(-1.11119 0.893675 0)
(-1.48018 0.657199 0)
(-1.64187 0.31621 0)
(-1.63499 -0.0448282 0)
(-1.51128 -0.350954 0)
(-1.31605 -0.578744 0)
(-1.09434 -0.740855 0)
(-0.880449 -0.842223 0)
(-0.696687 -0.896999 0)
(-0.549438 -0.921704 0)
(-0.43103 -0.92309 0)
(-0.336202 -0.90785 0)
(-0.263111 -0.885169 0)
(-0.212581 -0.860663 0)
(-0.182539 -0.836851 0)
(-0.165017 -0.813183 0)
(-0.413725 1.48072 0)
(0.379594 3.44441 0)
(-0.193396 3.7943 0)
(-0.0423379 2.94367 0)
(-0.31229 2.29519 0)
(-0.414346 1.7809 0)
(-0.90531 1.52545 0)
(-1.44675 1.34251 0)
(-1.80492 0.947424 0)
(-1.93292 0.391465 0)
(-1.9055 -0.143956 0)
(-1.76194 -0.559975 0)
(-1.52656 -0.840165 0)
(-1.23751 -1.00813 0)
(-0.959639 -1.07527 0)
(-0.721692 -1.08337 0)
(-0.54467 -1.0661 0)
(-0.414708 -1.03679 0)
(-0.317525 -0.999473 0)
(-0.243267 -0.956554 0)
(-0.187126 -0.912684 0)
(-0.144825 -0.870637 0)
(-0.115481 -0.834469 0)
(-0.423151 1.4622 0)
(0.324564 3.1826 0)
(-0.16979 3.97134 0)
(-0.033269 3.05409 0)
(-0.309563 2.47022 0)
(-0.531584 2.16476 0)
(-1.13952 2.05097 0)
(-1.63401 1.74576 0)
(-1.88071 1.09443 0)
(-1.93395 0.362348 0)
(-1.9006 -0.25192 0)
(-1.79023 -0.769316 0)
(-1.59594 -1.13199 0)
(-1.29078 -1.34469 0)
(-0.982754 -1.37877 0)
(-0.703663 -1.31793 0)
(-0.49707 -1.23316 0)
(-0.356642 -1.15283 0)
(-0.262406 -1.08142 0)
(-0.198848 -1.01683 0)
(-0.15518 -0.958352 0)
(-0.123343 -0.905442 0)
(-0.10165 -0.858842 0)
(-0.401298 1.3939 0)
(0.253847 3.49096 0)
(-0.419345 4.01991 0)
(-0.0584597 3.15311 0)
(-0.343234 2.70866 0)
(-0.616674 2.62187 0)
(-1.15773 2.53002 0)
(-1.47465 2.01584 0)
(-1.56619 1.18421 0)
(-1.55763 0.366896 0)
(-1.51183 -0.348722 0)
(-1.44238 -0.926695 0)
(-1.35046 -1.35663 0)
(-1.13093 -1.65175 0)
(-0.869871 -1.70187 0)
(-0.604211 -1.5783 0)
(-0.395779 -1.41377 0)
(-0.258932 -1.27075 0)
(-0.174664 -1.1561 0)
(-0.123495 -1.06291 0)
(-0.0948749 -0.986485 0)
(-0.0797918 -0.922765 0)
(-0.073804 -0.869039 0)
(-0.405066 1.43304 0)
(-0.0480302 3.70134 0)
(-0.582149 3.91321 0)
(-0.0425381 3.19913 0)
(-0.344315 2.94142 0)
(-0.544605 3.00317 0)
(-0.907191 2.82839 0)
(-1.03178 2.14622 0)
(-1.00424 1.24724 0)
(-0.973383 0.391431 0)
(-0.928477 -0.377725 0)
(-0.825404 -1.01978 0)
(-0.736771 -1.49863 0)
(-0.652879 -1.82626 0)
(-0.548748 -1.93812 0)
(-0.375467 -1.80371 0)
(-0.218232 -1.57323 0)
(-0.113338 -1.36845 0)
(-0.0564345 -1.21254 0)
(-0.0279607 -1.0936 0)
(-0.0167892 -0.99977 0)
(-0.0169852 -0.925135 0)
(-0.0247061 -0.864485 0)
(-0.585802 1.93311 0)
(-0.0293391 3.78889 0)
(-0.515072 3.74765 0)
(0.0866906 3.19001 0)
(-0.237956 3.10121 0)
(-0.268738 3.22273 0)
(-0.449044 2.94588 0)
(-0.419334 2.16311 0)
(-0.323391 1.25483 0)
(-0.309395 0.389739 0)
(-0.219342 -0.41916 0)
(-0.0830344 -1.11473 0)
(0.081022 -1.5667 0)
(0.0952889 -1.84164 0)
(-0.00176887 -1.9879 0)
(-0.006407 -1.91121 0)
(0.0406407 -1.66742 0)
(0.0788106 -1.42098 0)
(0.090282 -1.23433 0)
(0.0847717 -1.09798 0)
(0.0711889 -0.994273 0)
(0.0531578 -0.91351 0)
(0.0326764 -0.848787 0)
(-0.625262 2.03687 0)
(0.417883 3.7018 0)
(-0.222625 3.66104 0)
(0.261743 3.161 0)
(-0.0296609 3.17576 0)
(0.132371 3.26565 0)
(0.166252 2.92953 0)
(0.336327 2.14003 0)
(0.522873 1.25782 0)
(0.685717 0.40943 0)
(0.862141 -0.454796 0)
(0.919791 -1.19837 0)
(0.946808 -1.60288 0)
(0.879982 -1.75759 0)
(0.669546 -1.854 0)
(0.461808 -1.84018 0)
(0.358108 -1.64817 0)
(0.302214 -1.40374 0)
(0.252902 -1.20879 0)
(0.206235 -1.06889 0)
(0.163837 -0.964895 0)
(0.125539 -0.884618 0)
(0.0909212 -0.82089 0)
(-0.587074 2.0019 0)
(0.42892 3.60958 0)
(-0.0217911 3.64295 0)
(0.256721 3.08733 0)
(0.105029 3.13368 0)
(0.435327 3.08982 0)
(0.730055 2.68638 0)
(1.08482 1.93128 0)
(1.43618 1.06389 0)
(1.75014 0.22415 0)
(1.96719 -0.537329 0)
(1.9919 -1.16151 0)
(1.82474 -1.48718 0)
(1.5844 -1.56343 0)
(1.27223 -1.59604 0)
(0.934676 -1.60765 0)
(0.682162 -1.493 0)
(0.524831 -1.29995 0)
(0.410835 -1.12884 0)
(0.322625 -1.00359 0)
(0.252084 -0.910607 0)
(0.194182 -0.838398 0)
(0.145942 -0.780523 0)
(-0.497503 1.9294 0)
(0.437298 3.59274 0)
(-0.0362499 3.64783 0)
(0.0392928 2.98093 0)
(0.0282014 2.91418 0)
(0.505359 2.6423 0)
(1.03742 2.13597 0)
(1.61674 1.40529 0)
(2.15576 0.614703 0)
(2.58511 -0.0935883 0)
(2.83411 -0.68143 0)
(2.8011 -1.08279 0)
(2.50511 -1.21783 0)
(2.10601 -1.21588 0)
(1.68757 -1.22448 0)
(1.27939 -1.26347 0)
(0.938808 -1.2292 0)
(0.704435 -1.11717 0)
(0.539384 -0.999327 0)
(0.418782 -0.906396 0)
(0.326417 -0.834576 0)
(0.253059 -0.776904 0)
(0.193795 -0.729211 0)
(-0.382817 1.84272 0)
(0.445797 3.62189 0)
(0.118337 3.8164 0)
(-0.000768784 3.13282 0)
(0.122265 2.60726 0)
(0.660036 2.03272 0)
(1.31787 1.41016 0)
(2.02406 0.711357 0)
(2.67806 0.0410758 0)
(3.15703 -0.481199 0)
(3.3303 -0.797541 0)
(3.17602 -0.857586 0)
(2.78834 -0.797201 0)
(2.3085 -0.758021 0)
(1.83982 -0.782048 0)
(1.41454 -0.869187 0)
(1.06245 -0.91431 0)
(0.803823 -0.891069 0)
(0.618324 -0.839989 0)
(0.483012 -0.789211 0)
(0.37959 -0.744378 0)
(0.297621 -0.704955 0)
(0.231654 -0.670023 0)
(-0.266646 1.72649 0)
(0.469204 3.45609 0)
(0.508769 3.78026 0)
(0.562671 3.31562 0)
(0.894844 2.27083 0)
(1.25628 1.49381 0)
(1.84822 0.740232 0)
(2.47415 0.0196549 0)
(2.9736 -0.529771 0)
(3.24036 -0.740311 0)
(3.21438 -0.665697 0)
(2.9343 -0.528304 0)
(2.5094 -0.393027 0)
(2.07002 -0.327151 0)
(1.67094 -0.37629 0)
(1.3211 -0.506998 0)
(1.03773 -0.619828 0)
(0.813816 -0.671465 0)
(0.642702 -0.679153 0)
(0.512145 -0.667936 0)
(0.409239 -0.649565 0)
(0.32601 -0.62862 0)
(0.258119 -0.60698 0)
(-0.132658 1.5023 0)
(0.446655 3.09685 0)
(0.702663 3.48011 0)
(1.10652 2.91461 0)
(1.49181 1.8395 0)
(1.74421 1.02377 0)
(2.14644 0.247914 0)
(2.50456 -0.402188 0)
(2.69028 -0.730971 0)
(2.67237 -0.684155 0)
(2.48364 -0.468244 0)
(2.17276 -0.199234 0)
(1.83825 -0.000769485 0)
(1.53814 0.0346108 0)
(1.28861 -0.0737789 0)
(1.09658 -0.251483 0)
(0.923971 -0.404681 0)
(0.762657 -0.496001 0)
(0.62544 -0.539108 0)
(0.512098 -0.55585 0)
(0.418025 -0.558518 0)
(0.339263 -0.553445 0)
(0.273429 -0.543876 0)
(-0.0558319 1.35313 0)
(0.38171 2.64518 0)
(0.708793 3.1092 0)
(1.138 2.65308 0)
(1.51509 1.65243 0)
(1.75198 0.718271 0)
(1.99617 -0.0449055 0)
(2.07743 -0.546582 0)
(1.95772 -0.661379 0)
(1.74858 -0.418047 0)
(1.55472 -0.128639 0)
(1.35045 0.123088 0)
(1.17246 0.236216 0)
(1.03327 0.196268 0)
(0.957081 0.0580491 0)
(0.890869 -0.122562 0)
(0.796898 -0.272831 0)
(0.689229 -0.369763 0)
(0.5857 -0.426947 0)
(0.492759 -0.459472 0)
(0.411224 -0.476381 0)
(0.340185 -0.483318 0)
(0.279044 -0.483632 0)
(-0.0788385 1.27128 0)
(0.258706 2.23025 0)
(0.619612 2.58742 0)
(1.0585 2.22129 0)
(1.43573 1.34339 0)
(1.64632 0.456784 0)
(1.63465 -0.091438 0)
(1.45496 -0.364165 0)
(1.20905 -0.417678 0)
(0.977422 -0.209446 0)
(0.849538 0.042646 0)
(0.763085 0.208568 0)
(0.714244 0.270914 0)
(0.730158 0.222683 0)
(0.753357 0.0818841 0)
(0.737554 -0.0715524 0)
(0.685578 -0.193789 0)
(0.613789 -0.280631 0)
(0.536912 -0.340124 0)
(0.462729 -0.379789 0)
(0.394167 -0.40512 0)
(0.33204 -0.42029 0)
(0.276959 -0.428087 0)
(-0.0420086 1.19467 0)
(0.15583 1.94333 0)
(0.51392 2.13056 0)
(0.946941 1.67304 0)
(1.30107 0.97799 0)
(1.37444 0.420088 0)
(1.23235 0.075941 0)
(1.0098 -0.118894 0)
(0.778191 -0.174242 0)
(0.596583 -0.0956659 0)
(0.5029 0.05426 0)
(0.484672 0.189798 0)
(0.528034 0.233084 0)
(0.592237 0.171552 0)
(0.629483 0.0605575 0)
(0.626943 -0.0495013 0)
(0.59434 -0.142768 0)
(0.544363 -0.217015 0)
(0.486862 -0.2735 0)
(0.428009 -0.315048 0)
(0.371125 -0.344642 0)
(0.31778 -0.365004 0)
(0.269196 -0.378157 0)
(0.00732164 1.14165 0)
(0.156488 1.70082 0)
(0.478241 1.75623 0)
(0.843712 1.39042 0)
(1.06542 0.908995 0)
(1.07686 0.517348 0)
(0.96208 0.249194 0)
(0.798084 0.085338 0)
(0.62677 0.0209212 0)
(0.493757 0.0481145 0)
(0.431876 0.118076 0)
(0.437317 0.171638 0)
(0.481228 0.169879 0)
(0.526158 0.119081 0)
(0.548424 0.0445675 0)
(0.544189 -0.034156 0)
(0.520079 -0.107218 0)
(0.483194 -0.170235 0)
(0.43913 -0.221835 0)
(0.392126 -0.262593 0)
(0.34509 -0.293862 0)
(0.299745 -0.317254 0)
(0.25751 -0.334097 0)
(0.0299046 1.06121 0)
(0.178255 1.47824 0)
(0.444536 1.43347 0)
(0.701883 1.15883 0)
(0.843624 0.836442 0)
(0.860963 0.564746 0)
(0.798049 0.363741 0)
(0.694935 0.227255 0)
(0.583893 0.153983 0)
(0.495773 0.136829 0)
(0.45066 0.147024 0)
(0.446128 0.152525 0)
(0.463002 0.135807 0)
(0.480561 0.0958593 0)
(0.486856 0.0404318 0)
(0.478942 -0.0207757 0)
(0.458867 -0.0802629 0)
(0.429959 -0.134241 0)
(0.395051 -0.180921 0)
(0.356962 -0.219835 0)
(0.317973 -0.251378 0)
(0.279609 -0.276409 0)
(0.243212 -0.295718 0)
(0.0330216 0.964719 0)
(0.174565 1.27994 0)
(0.379813 1.19965 0)
(0.560445 0.988567 0)
(0.666828 0.765454 0)
(0.696699 0.5756 0)
(0.670379 0.425516 0)
(0.612394 0.313051 0)
(0.545277 0.237931 0)
(0.488249 0.196069 0)
(0.452857 0.174123 0)
(0.438779 0.155725 0)
(0.437316 0.129238 0)
(0.438471 0.0910508 0)
(0.435392 0.0439049 0)
(0.425044 -0.00728945 0)
(0.407166 -0.0578987 0)
(0.3831 -0.105304 0)
(0.354563 -0.147804 0)
(0.323281 -0.184644 0)
(0.290801 -0.215793 0)
(0.258348 -0.241617 0)
(0.227022 -0.26249 0)
(0.0304045 0.875074 0)
(0.151788 1.11843 0)
(0.308793 1.02927 0)
(0.442124 0.863935 0)
(0.52679 0.703237 0)
(0.561126 0.566844 0)
(0.556364 0.45327 0)
(0.527889 0.360256 0)
(0.489972 0.288528 0)
(0.454238 0.237112 0)
(0.427837 0.199848 0)
(0.412024 0.167822 0)
(0.403543 0.133879 0)
(0.397529 0.09503 0)
(0.389863 0.0518141 0)
(0.378202 0.00645067 0)
(0.361815 -0.0385756 0)
(0.341221 -0.0812488 0)
(0.317391 -0.120395 0)
(0.291267 -0.15535 0)
(0.263914 -0.185828 0)
(0.236248 -0.211883 0)
(0.209039 -0.2336 0)
(0.0269594 0.797856 0)
(0.126142 0.989224 0)
(0.247988 0.899882 0)
(0.349943 0.767168 0)
(0.417764 0.649171 0)
(0.451134 0.549724 0)
(0.457734 0.462053 0)
(0.447233 0.384005 0)
(0.428112 0.317532 0)
(0.407224 0.263571 0)
(0.389208 0.219492 0)
(0.375738 0.180534 0)
(0.365863 0.142442 0)
(0.357311 0.102954 0)
(0.347824 0.0618015 0)
(0.335902 0.0199318 0)
(0.320941 -0.021316 0)
(0.303013 -0.0606327 0)
(0.28264 -0.0972933 0)
(0.260451 -0.130638 0)
(0.237061 -0.160284 0)
(0.213058 -0.186124 0)
(0.188971 -0.208095 0)
(0.0234613 0.732585 0)
(0.103903 0.886015 0)
(0.199804 0.799078 0)
(0.279172 0.691145 0)
(0.333471 0.603478 0)
(0.36381 0.529524 0)
(0.375973 0.459909 0)
(0.37593 0.393268 0)
(0.368426 0.332486 0)
(0.357433 0.279479 0)
(0.346004 0.233394 0)
(0.335707 0.191672 0)
(0.326584 0.151755 0)
(0.317734 0.112101 0)
(0.30803 0.0722994 0)
(0.296606 0.0327168 0)
(0.283033 -0.00593518 0)
(0.267207 -0.0428965 0)
(0.24943 -0.0775282 0)
(0.23014 -0.109351 0)
(0.20965 -0.138024 0)
(0.188346 -0.163331 0)
(0.166654 -0.185173 0)
(0.0201658 0.677802 0)
(0.0856163 0.803359 0)
(0.161591 0.71998 0)
(0.223723 0.631321 0)
(0.267156 0.565341 0)
(0.293969 0.508799 0)
(0.308509 0.451745 0)
(0.314207 0.393914 0)
(0.313521 0.33872 0)
(0.308767 0.28837 0)
(0.302024 0.242785 0)
(0.294624 0.2006 0)
(0.286986 0.160341 0)
(0.278859 0.121057 0)
(0.26973 0.0824165 0)
(0.259135 0.0445497 0)
(0.246802 0.0078408 0)
(0.232672 -0.0272219 0)
(0.216864 -0.0601281 0)
(0.199629 -0.0905508 0)
(0.181246 -0.118183 0)
(0.162071 -0.142829 0)
(0.142559 -0.164477 0)
(0.0171949 0.631959 0)
(0.0704567 0.736904 0)
(0.130561 0.657708 0)
(0.179043 0.584273 0)
(0.213595 0.533772 0)
(0.236818 0.488999 0)
(0.25182 0.440726 0)
(0.26028 0.389792 0)
(0.263323 0.339741 0)
(0.262346 0.292649 0)
(0.258805 0.248734 0)
(0.25376 0.207323 0)
(0.247688 0.167646 0)
(0.24061 0.129188 0)
(0.232331 0.0917491 0)
(0.222631 0.055393 0)
(0.21137 0.0203558 0)
(0.19852 -0.0130359 0)
(0.184163 -0.0444583 0)
(0.168569 -0.0736235 0)
(0.152041 -0.100317 0)
(0.134942 -0.124453 0)
(0.11787 -0.146173 0)
(0.0144927 0.594071 0)
(0.0576576 0.683865 0)
(0.10482 0.60919 0)
(0.142173 0.547731 0)
(0.169259 0.508069 0)
(0.188914 0.471086 0)
(0.203156 0.428984 0)
(0.212485 0.383487 0)
(0.217301 0.337946 0)
(0.218478 0.29411 0)
(0.217035 0.252302 0)
(0.213747 0.212281 0)
(0.209016 0.173729 0)
(0.20295 0.136429 0)
(0.19551 0.100301 0)
(0.186626 0.0653986 0)
(0.176269 0.0318774 0)
(0.164488 -5.29759e-05 0)
(0.151442 -0.0301737 0)
(0.137422 -0.0582872 0)
(0.122849 -0.0843787 0)
(0.108192 -0.108474 0)
(0.0940352 -0.130776 0)
(0.011913 0.562397 0)
(0.0464023 0.640967 0)
(0.0826644 0.571384 0)
(0.110647 0.519492 0)
(0.131235 0.48716 0)
(0.147304 0.455099 0)
(0.159909 0.417322 0)
(0.168829 0.376122 0)
(0.17412 0.334418 0)
(0.176331 0.293583 0)
(0.176135 0.253988 0)
(0.174044 0.21567 0)
(0.170335 0.178587 0)
(0.165128 0.142701 0)
(0.158468 0.108004 0)
(0.150392 0.0745415 0)
(0.140983 0.0424047 0)
(0.130402 0.0117105 0)
(0.118926 -0.0174113 0)
(0.106934 -0.0449336 0)
(0.094886 -0.0710681 0)
(0.0831885 -0.0957078 0)
(0.0720718 -0.11887 0)
(0.0093801 0.539864 0)
(0.0367757 0.610545 0)
(0.0642531 0.545448 0)
(0.0842795 0.500321 0)
(0.0992316 0.472512 0)
(0.112006 0.443371 0)
(0.122756 0.40847 0)
(0.13079 0.370387 0)
(0.136023 0.331567 0)
(0.138769 0.293082 0)