# vtk DataFile Version 2.0
gauge_2
ASCII
DATASET POLYDATA
POINTS 43 double
0.2 0.0359992 0.005
0.2 0.0419991 0.005
0.2 0.047999 0.005
0.2 0.0607609 0.005
0.2 0.0735228 0.005
0.2 0.0862847 0.005
0.2 0.0990467 0.005
0.2 0.111809 0.005
0.2 0.124571 0.005
0.2 0.137332 0.005
0.2 0.150094 0.005
0.2 0.162856 0.005
0.2 0.175618 0.005
0.2 0.18838 0.005
0.2 0.201142 0.005
0.2 0.213904 0.005
0.2 0.226666 0.005
0.2 0.239428 0.005
0.2 0.25219 0.005
0.2 0.264952 0.005
0.2 0.277714 0.005
0.2 0.290476 0.005
0.2 0.303238 0.005
0.2 0.315999 0.005
0.2 0.328761 0.005
0.2 0.341523 0.005
0.2 0.354285 0.005
0.2 0.367047 0.005
0.2 0.379809 0.005
0.2 0.392571 0.005
0.2 0.405333 0.005
0.2 0.418095 0.005
0.2 0.430857 0.005
0.2 0.443619 0.005
0.2 0.456381 0.005
0.2 0.469143 0.005
0.2 0.481905 0.005
0.2 0.494666 0.005
0.2 0.507428 0.005
0.2 0.52019 0.005
0.2 0.532952 0.005
0.2 0.545714 0.005
0.2 0.558476 0.005
POINT_DATA 43
 FIELD attributes 1
alpha.water 1 43 float
1 1 1 1 0.999996 0.819535 0.319766 0.000227357 2.71743e-05 0.000305896 0.000602276 0.000548987 0.000237117 1.1537e-05 1.27237e-12 5.76926e-11 5.91481e-11 4.06434e-12 2.31892e-12 2.31535e-13 1.10252e-14 9.32731e-16 1.23113e-16 1.51678e-17 1.19292e-18 1.05474e-19 9.69756e-21 9.86942e-22 1.53998e-22 3.11335e-23 6.73565e-24 1.50678e-24 3.19066e-25 6.08831e-26 1.01828e-26 1.4548e-27 1.72544e-28 1.6461e-29 1.16618e-30 5.27446e-32 1.35932e-33 1.3883e-35 4.05739e-39
