# vtk DataFile Version 2.0
gauge_2
ASCII
DATASET POLYDATA
POINTS 43 double
0.2 0.0359992 0.005
0.2 0.0419991 0.005
0.2 0.047999 0.005
0.2 0.0607609 0.005
0.2 0.0735228 0.005
0.2 0.0862847 0.005
0.2 0.0990467 0.005
0.2 0.111809 0.005
0.2 0.124571 0.005
0.2 0.137332 0.005
0.2 0.150094 0.005
0.2 0.162856 0.005
0.2 0.175618 0.005
0.2 0.18838 0.005
0.2 0.201142 0.005
0.2 0.213904 0.005
0.2 0.226666 0.005
0.2 0.239428 0.005
0.2 0.25219 0.005
0.2 0.264952 0.005
0.2 0.277714 0.005
0.2 0.290476 0.005
0.2 0.303238 0.005
0.2 0.315999 0.005
0.2 0.328761 0.005
0.2 0.341523 0.005
0.2 0.354285 0.005
0.2 0.367047 0.005
0.2 0.379809 0.005
0.2 0.392571 0.005
0.2 0.405333 0.005
0.2 0.418095 0.005
0.2 0.430857 0.005
0.2 0.443619 0.005
0.2 0.456381 0.005
0.2 0.469143 0.005
0.2 0.481905 0.005
0.2 0.494666 0.005
0.2 0.507428 0.005
0.2 0.52019 0.005
0.2 0.532952 0.005
0.2 0.545714 0.005
0.2 0.558476 0.005
POINT_DATA 43
 FIELD attributes 1
alpha.water 1 43 float
0.470579 0.263278 0.130565 0.0275137 0.00208545 0.000596803 0.000151499 3.69132e-05 8.76018e-06 1.63213e-06 2.27891e-07 4.1086e-08 1.71494e-08 9.8022e-08 1.68907e-07 7.18629e-08 -2.15139e-09 1.84589e-07 1.88826e-06 2.92579e-06 1.42986e-06 2.34732e-07 3.15008e-08 3.22336e-09 2.23194e-10 1.24032e-11 5.38903e-13 1.58259e-13 1.08142e-14 4.84309e-16 1.05116e-16 6.97929e-19 1.2174e-21 4.79519e-24 1.06943e-26 2.44207e-30 6.4402e-33 5.33977e-36 4.71741e-41 7.30709e-44 1.26407e-47 3.44355e-52 4.24353e-57
