/*--------------------------------*- C++ -*----------------------------------*\
| =========                 |                                                 |
| \\      /  F ield         | OpenFOAM: The Open Source CFD Toolbox           |
|  \\    /   O peration     | Version:  2012                                  |
|   \\  /    A nd           | Website:  www.openfoam.com                      |
|    \\/     M anipulation  |                                                 |
\*---------------------------------------------------------------------------*/
FoamFile
{
    version     2.0;
    format      ascii;
    class       volScalarField;
    location    "0.00016";
    object      pcorr;
}
// * * * * * * * * * * * * * * * * * * * * * * * * * * * * * * * * * * * * * //

dimensions      [1 -1 -2 0 0 0 0];


internalField   nonuniform List<scalar> 
5000
(
-0.002200035722
-0.00219994256
-0.002199849708
-0.002199626602
-0.002199406828
-0.002199243027
-0.00219911938
-0.002199067198
-0.002199074103
-0.0021991373
-0.002199221963
-0.00219969906
-0.002199013247
-0.002196967822
-0.002195112166
-0.002193398605
-0.002191769377
-0.002190079582
-0.002188031301
-0.002187137864
-0.002185917567
-0.002184664031
-0.002182894373
-0.002181580768
-0.002180305838
-0.002179250151
-0.002178156579
-0.002176775869
-0.0021751679
-0.002173644813
-0.002173146196
-0.002172148939
-0.002171261049
-0.002170446225
-0.002169679746
-0.002168878267
-0.002167948132
-0.002167315834
-0.002166315171
-0.002165338077
-0.002164398804
-0.002163592017
-0.00216278132
-0.002161766135
-0.002161135554
-0.002160961787
-0.002159239892
-0.00215752742
-0.00215581802
-0.002154493546
-0.002152746145
-0.002151443838
-0.002150319252
-0.002149007819
-0.002147691272
-0.002146242731
-0.002144866333
-0.002143685264
-0.002142562491
-0.002141489767
-0.0021403904
-0.002139334634
-0.002138218851
-0.002137038566
-0.002135865492
-0.002134696516
-0.002133679215
-0.002132663365
-0.002131590727
-0.002130430907
-0.002129402422
-0.002128131892
-0.002126248981
-0.002124843117
-0.002123290629
-0.002121393654
-0.002119610566
-0.002117656529
-0.002115557765
-0.002113325876
-0.002111167219
-0.002109026002
-0.002106889881
-0.002104826798
-0.002102486044
-0.002099943913
-0.002097237793
-0.002094672024
-0.002092441035
-0.002089007403
-0.002085461397
-0.002082508043
-0.002079962574
-0.002077560985
-0.002075319866
-0.0020729977
-0.002070644167
-0.0020683772
-0.002066219524
-0.002064276832
-0.002062355607
-0.002060434307
-0.00205839728
-0.002056202983
-0.002053770424
-0.00205120452
-0.002048655452
-0.002046180919
-0.002043747317
-0.002041610897
-0.002039549
-0.002037424367
-0.002035141939
-0.002032967096
-0.002030727795
-0.002028184039
-0.002025895204
-0.002023598846
-0.002021452801
-0.002019367209
-0.0020171299
-0.002014697034
-0.002012342389
-0.002010121782
-0.002007982906
-0.002006002339
-0.002004101859
-0.002002192272
-0.002000208153
-0.001998207358
-0.00199599832
-0.00199357482
-0.001990885598
-0.001988157096
-0.001985539726
-0.001982751776
-0.001979888014
-0.001977344452
-0.001974845123
-0.001972441617
-0.001969730225
-0.001966695763
-0.001963944742
-0.001961505535
-0.001959342011
-0.001957245942
-0.001955180875
-0.00195312373
-0.001951033945
-0.001948905889
-0.001946767787
-0.001944389741
-0.001941848305
-0.00193924165
-0.001936711997
-0.001934249951
-0.001931782131
-0.001929262154
-0.001926789942
-0.001924479972
-0.001922316046
-0.00192018889
-0.001917967746
-0.001915630492
-0.001913089602
-0.001910649387
-0.001908265311
-0.001906100914
-0.001903928911
-0.001901643174
-0.001899393049
-0.001897074709
-0.001894476161
-0.001891752707
-0.00188928543
-0.001886563425
-0.001883972272
-0.001881807031
-0.001879701736
-0.001877411226
-0.001874952547
-0.001872552182
-0.00187027617
-0.001868146113
-0.001866136628
-0.001864097
-0.001862103653
-0.001860032756
-0.001857962364
-0.001855886046
-0.001853715868
-0.001851530785
-0.001849350875
-0.001847242232
-0.001845026873
-0.001842826563
-0.001840661117
-0.001838461886
-0.001836189768
-0.001833967595
-0.0018316566
-0.001829157564
-0.001826740639
-0.00182435013
-0.001822004585
-0.001819523439
-0.001816902508
-0.001814223837
-0.001811488284
-0.001808990928
-0.001806779522
-0.001804661525
-0.001802677455
-0.00180055465
-0.001798251577
-0.001796070526
-0.001793918911
-0.001791929937
-0.001790036382
-0.001788083595
-0.001785869499
-0.001783427454
-0.001781159288
-0.001778981112
-0.001776850889
-0.001774779395
-0.00177283805
-0.001770764079
-0.001768562024
-0.001766400112
-0.001764307815
-0.00176224659
-0.001760106058
-0.001758083858
-0.001755898897
-0.001753653216
-0.001751358793
-0.001749282456
-0.001747312003
-0.00174525226
-0.001743087385
-0.001740631673
-0.001738119583
-0.001735724071
-0.001733661099
-0.001731588231
-0.001729461863
-0.001727259021
-0.001725085259
-0.001723059046
-0.001720960936
-0.001718784568
-0.001716395347
-0.001714169139
-0.001712089473
-0.001710028449
-0.001708091518
-0.001706144034
-0.001704332073
-0.001702421205
-0.00170033813
-0.00169811009
-0.001695793123
-0.001693583881
-0.00169140654
-0.001689262431
-0.001687270229
-0.001685272127
-0.001683008028
-0.001680547531
-0.001678029474
-0.001675557205
-0.00167323038
-0.001670920357
-0.00166874363
-0.001666488999
-0.001663990027
-0.001661467588
-0.001659066313
-0.001656778892
-0.001654596877
-0.00165240628
-0.0016502072
-0.001647797111
-0.001645258859
-0.001642928791
-0.001640667224
-0.001638150881
-0.001635287123
-0.001632775571
-0.001630580501
-0.00162850864
-0.001626543927
-0.001624587745
-0.001622651329
-0.001620485827
-0.001618065753
-0.001615753105
-0.001613265339
-0.001610719278
-0.001608318913
-0.001606058271
-0.001603930945
-0.001602010719
-0.001600139595
-0.001598171598
-0.001596079423
-0.001593765581
-0.001591431
-0.001589297095
-0.00158733177
-0.001585259307
-0.001583249907
-0.001581118207
-0.001578938731
-0.00157681099
-0.001574281579
-0.00157161523
-0.001569343825
-0.001567186063
-0.001565017762
-0.001562898739
-0.001560583021
-0.001558251673
-0.001555824686
-0.001553510235
-0.001551283571
-0.001548929498
-0.001546664051
-0.001544471653
-0.00154232726
-0.001540305636
-0.001538350579
-0.001536313352
-0.001534374168
-0.001532383132
-0.001530445266
-0.001528503071
-0.001526422417
-0.001524189287
-0.001521815052
-0.001519602233
-0.001517476451
-0.001515473519
-0.001513616317
-0.001511796753
-0.001509996081
-0.001508033766
-0.001505810392
-0.001503348831
-0.001500832334
-0.001498530037
-0.001496397996
-0.001494353834
-0.001492325375
-0.00149025772
-0.001488081806
-0.001485600407
-0.001483045741
-0.001480730074
-0.00147840818
-0.001476182336
-0.001474009201
-0.001471749713
-0.001469421283
-0.00146698131
-0.00146471724
-0.001462613595
-0.001460537459
-0.001458477429
-0.001456304805
-0.001453860064
-0.001451308246
-0.00144882664
-0.00144641372
-0.001444186566
-0.001441860966
-0.001439559415
-0.001437216112
-0.001435048252
-0.001433119937
-0.001431040533
-0.001428498817
-0.00142559722
-0.001422981049
-0.001420459722
-0.00141778417
-0.001415248357
-0.001413034211
-0.001410821896
-0.001408500692
-0.001406238462
-0.001404173606
-0.001401973485
-0.001399457803
-0.001396886764
-0.0013942767
-0.001391888653
-0.001389663277
-0.001387316154
-0.00138480856
-0.001382392652
-0.001380006079
-0.001377702304
-0.00137544634
-0.001373177241
-0.001370862084
-0.001368511061
-0.001366074988
-0.001363667737
-0.001361584191
-0.001359651544
-0.00135764141
-0.001355580159
-0.001353553002
-0.001351679837
-0.001349926755
-0.001348035873
-0.001346066515
-0.001343963735
-0.00134164592
-0.001339172876
-0.001336651307
-0.001334081712
-0.001331548573
-0.001329031776
-0.001326510899
-0.001324074573
-0.001321777017
-0.001319694707
-0.001317540058
-0.001315274187
-0.001312822589
-0.001310305193
-0.001307833297
-0.001305068739
-0.001302021097
-0.001299229141
-0.00129674162
-0.001294152357
-0.001291592297
-0.001289270011
-0.001287006178
-0.001284607682
-0.001282086318
-0.001279649744
-0.001277512514
-0.001275647409
-0.001273774537
-0.001271884997
-0.001269883346
-0.001267672513
-0.001265477746
-0.001263147067
-0.001260696338
-0.001258316658
-0.001256092112
-0.001253911899
-0.001251723543
-0.001249566424
-0.001247362099
-0.001245030777
-0.001242382075
-0.001239888357
-0.001237535245
-0.001235106873
-0.001232610133
-0.001230296756
-0.001228138537
-0.001226048393
-0.001223953293
-0.001221843759
-0.001219905631
-0.001217971861
-0.001215892045
-0.001213579741
-0.001211207285
-0.001208946509
-0.001206982232
-0.001205035035
-0.001202929647
-0.001200659567
-0.0011981994
-0.001195674443
-0.001193282242
-0.001191119883
-0.001189042992
-0.001187038069
-0.001185066004
-0.001183120335
-0.00118094335
-0.001178538254
-0.001176075729
-0.001173796059
-0.001171718086
-0.001169623751
-0.001167549126
-0.001165384835
-0.001163138047
-0.001160478773
-0.001157433008
-0.001154177125
-0.001151128216
-0.001148644518
-0.001146416833
-0.00114399714
-0.00114145501
-0.0011391742
-0.001137154211
-0.001135210764
-0.001133251352
-0.001131296518
-0.001129369883
-0.001127285305
-0.00112490259
-0.001122310027
-0.001119801659
-0.001117536617
-0.001115330594
-0.001113219813
-0.001111108904
-0.001108977535
-0.001106785006
-0.001104552278
-0.001102098137
-0.001099498935
-0.001096977792
-0.001094510375
-0.001092110282
-0.001089727556
-0.001087333287
-0.001084935802
-0.001082730737
-0.001080608241
-0.001078541307
-0.001076459226
-0.001074180304
-0.001071788993
-0.001069515362
-0.001067358207
-0.001065124974
-0.001062932808
-0.00106074533
-0.001058394165
-0.001056053337
-0.001053841137
-0.001051743548
-0.001049696828
-0.00104756946
-0.001045529039
-0.001043487637
-0.001041407249
-0.001039318637
-0.001036960414
-0.001034523653
-0.001032150706
-0.001029994012
-0.001027915285
-0.001025933889
-0.001023967111
-0.00102183552
-0.001019500192
-0.001017108968
-0.001014838285
-0.001012440798
-0.001010180213
-0.001008061358
-0.001006011758
-0.001004045183
-0.001001866133
-0.0009994972976
-0.0009970229329
-0.0009946908976
-0.0009924584464
-0.0009902964764
-0.0009882589965
-0.0009861828443
-0.0009840397682
-0.0009818316655
-0.0009796217008
-0.0009770521821
-0.0009745484566
-0.0009724471547
-0.000970444751
-0.0009684316368
-0.0009661166734
-0.0009635821656
-0.0009609706131
-0.000958482609
-0.0009562909261
-0.0009540247362
-0.0009518263418
-0.0009497486707
-0.0009475758328
-0.000945431501
-0.000943285607
-0.0009411230697
-0.0009391093695
-0.0009370626551
-0.0009347846973
-0.0009325346959
-0.0009302034479
-0.0009278394977
-0.0009256326001
-0.000923475636
-0.0009214025868
-0.000919277391
-0.0009171157437
-0.0009150317063
-0.0009130932965
-0.0009111143998
-0.0009089425242
-0.0009065000615
-0.0009040836161
-0.0009018511998
-0.0008995559479
-0.0008972373603
-0.0008946326484
-0.0008918706836
-0.0008893520733
-0.0008871418739
-0.0008852227411
-0.0008831891739
-0.0008810047934
-0.0008787424176
-0.000876349291
-0.0008739896699
-0.0008717876108
-0.0008696790636
-0.0008673671033
-0.0008650089288
-0.0008628293425
-0.0008607955814
-0.000858886546
-0.0008567466721
-0.000854564543
-0.0008521857258
-0.0008497480508
-0.0008474744363
-0.0008454120486
-0.0008435496084
-0.0008416090429
-0.0008397020336
-0.0008376304512
-0.0008353127302
-0.0008328502281
-0.0008301991211
-0.0008271364153
-0.0008240044544
-0.0008213560096
-0.000819031989
-0.0008169622533
-0.0008149953028
-0.0008129166639
-0.000810713774
-0.0008083810417
-0.0008060917275
-0.0008040039764
-0.0008020082351
-0.0007998891628
-0.0007976020494
-0.0007949686842
-0.0007920165385
-0.0007892695575
-0.0007865356916
-0.0007835212973
-0.0007807033795
-0.000778404368
-0.0007762621049
-0.0007741200959
-0.0007718879472
-0.0007694573683
-0.0007669036003
-0.0007642659594
-0.0007618344614
-0.0007595873883
-0.0007574361904
-0.0007553032635
-0.0007529912982
-0.0007506264022
-0.0007482828428
-0.0007457805071
-0.0007431903436
-0.0007406943032
-0.0007384435459
-0.0007363782926
-0.0007341474856
-0.0007318108896
-0.0007294049407
-0.0007269476649
-0.0007245929028
-0.0007224454463
-0.0007203363694
-0.0007181430561
-0.000715916155
-0.000713728621
-0.0007113298928
-0.0007086786311
-0.00070618125
-0.0007040231136
-0.0007020622049
-0.0006997850622
-0.0006974905021
-0.0006952952623
-0.0006929700104
-0.0006907654458
-0.0006884462096
-0.0006860920149
-0.000683711676
-0.0006814598065
-0.0006795962434
-0.0006778101282
-0.0006759558303
-0.0006739563612
-0.0006718316644
-0.0006694904508
-0.0006670864462
-0.0006645701479
-0.0006619530016
-0.0006595482041
-0.0006573642535
-0.0006553079208
-0.0006533224079
-0.0006514137807
-0.0006494144933
-0.0006471533739
-0.0006446632096
-0.0006421423675
-0.0006397679775
-0.0006374689554
-0.0006352740811
-0.0006331797973
-0.0006310064273
-0.0006286651935
-0.0006264710355
-0.0006243261119
-0.0006220172875
-0.0006196255592
-0.0006175153172
-0.0006154380759
-0.0006132902868
-0.0006113039719
-0.0006091479446
-0.0006068059729
-0.0006043556313
-0.0006016872483
-0.0005989986784
-0.000596516833
-0.0005942370994
-0.0005920859378
-0.0005898813124
-0.0005877757451
-0.0005855652009
-0.000583032508
-0.0005805825902
-0.000578262801
-0.0005759048684
-0.0005735883329
-0.0005713556058
-0.0005691705226
-0.0005669367584
-0.0005644347319
-0.0005619263655
-0.0005593932579
-0.0005569848298
-0.0005547185104
-0.0005524351846
-0.0005502586029
-0.0005481361408
-0.0005460899406
-0.0005440720668
-0.000541997894
-0.0005396228754
-0.0005370542832
-0.0005346249029
-0.0005321537934
-0.0005293851924
-0.0005265611732
-0.0005238451116
-0.0005212865988
-0.0005187621562
-0.0005162438343
-0.0005136728774
-0.0005111057044
-0.000508647944
-0.0005063546636
-0.0005043199327
-0.0005023925648
-0.0005005389059
-0.0004986016189
-0.0004967131701
-0.0004946597508
-0.0004924733871
-0.0004901607874
-0.0004874472922
-0.0004847833094
-0.0004823273956
-0.0004800134861
-0.0004776078139
-0.0004752572557
-0.0004730434255
-0.0004709095985
-0.0004685892547
-0.0004660289233
-0.000463267614
-0.0004601991225
-0.0004574680169
-0.0004551458583
-0.0004527465518
-0.0004502105835
-0.0004476234124
-0.0004450522869
-0.0004426825701
-0.0004405650473
-0.0004386212309
-0.0004364494799
-0.0004341808217
-0.0004319688101
-0.0004297999095
-0.0004275130618
-0.0004250720703
-0.0004225577449
-0.0004200807677
-0.0004177664675
-0.0004154805833
-0.000413228576
-0.0004107707975
-0.0004083136909
-0.0004059739999
-0.0004035591109
-0.000401407542
-0.000399422644
-0.000397158517
-0.0003945874828
-0.0003919468093
-0.0003895038754
-0.0003871650908
-0.0003849103408
-0.0003827357611
-0.0003805186354
-0.0003780832694
-0.0003756044108
-0.0003733844803
-0.0003710451565
-0.0003685686137
-0.0003660586234
-0.0003636194277
-0.0003614094404
-0.0003592953978
-0.0003571417077
-0.0003550547095
-0.0003529691312
-0.0003508631866
-0.0003485954166
-0.0003460736752
-0.000343525438
-0.0003410528343
-0.0003387874098
-0.0003364254483
-0.0003337932957
-0.0003307984383
-0.0003282159241
-0.0003259044926
-0.0003236633173
-0.0003213408483
-0.0003187758822
-0.0003161369041
-0.000313537296
-0.0003109199593
-0.0003084099495
-0.0003060535018
-0.0003038553088
-0.0003018438546
-0.0002998039707
-0.0002977889233
-0.0002956970207
-0.0002935795552
-0.0002913768175
-0.0002890784786
-0.0002865690449
-0.0002840927621
-0.0002818526045
-0.0002797307231
-0.0002775794596
-0.000275363242
-0.0002731933484
-0.0002707355816
-0.0002681441796
-0.00026563052
-0.000263419487
-0.0002611328248
-0.0002584041965
-0.0002551622512
-0.0002519012442
-0.0002490872072
-0.0002466487483
-0.0002444501196
-0.0002422211209
-0.0002398638999
-0.0002373022177
-0.0002347329841
-0.0002322370684
-0.0002297597268
-0.0002273200941
-0.0002250317554
-0.0002224589375
-0.0002198780275
-0.0002176656412
-0.0002155584917
-0.000213492293
-0.0002114483359
-0.0002093817408
-0.000207136578
-0.0002049428238
-0.0002026898027
-0.0002006358632
-0.0001985690193
-0.0001963813354
-0.0001940483446
-0.0001917905752
-0.000189432175
-0.0001872735053
-0.0001854839919
-0.0001837525833
-0.0001819061874
-0.0001799531593
-0.0001782423734
-0.0001765419599
-0.0001743167083
-0.0001715410127
-0.0001692712112
-0.0001673300169
-0.0001653405424
-0.0001632122776
-0.000161299262
-0.0001595305158
-0.0001578398971
-0.0001562879732
-0.0001547684987
-0.0001528559549
-0.0001508834451
-0.0001490082671
-0.0001471703103
-0.0001452117155
-0.0001431854258
-0.0001411299911
-0.000139105696
-0.0001371923642
-0.0001352236962
-0.000133136287
-0.0001310320252
-0.0001287618582
-0.0001267646504
-0.0001246327711
-0.0001225599637
-0.0001208404351
-0.0001193305342
-0.0001175172976
-0.0001157487931
-0.0001138137468
-0.0001116213445
-0.000109515853
-0.0001076428734
-0.0001060380283
-0.0001046081335
-0.0001031478012
-0.0001017518399
-0.0001003322386
-9.885206289e-05
-9.73828712e-05
-9.59919058e-05
-9.457492549e-05
-9.287957213e-05
-9.108795956e-05
-8.908355457e-05
-8.663332084e-05
-8.421070991e-05
-8.216908607e-05
-8.037733845e-05
-7.835741484e-05
-7.675211643e-05
-7.527923507e-05
-7.375730941e-05
-7.205423428e-05
-7.050474259e-05
-6.899612994e-05
-6.754438943e-05
-6.597651222e-05
-6.423211984e-05
-6.27145279e-05
-6.137113649e-05
-5.997647526e-05
-5.878308106e-05
-5.756123929e-05
-5.640156682e-05
-5.532269391e-05
-5.425270157e-05
-5.315520333e-05
-5.202461861e-05
-5.081743199e-05
-4.950135932e-05
-4.829397399e-05
-4.724649123e-05
-4.63501432e-05
-4.554148703e-05
-4.470537357e-05
-4.398668973e-05
-4.322367964e-05
-4.251361513e-05
-4.188803012e-05
-4.125277146e-05
-4.041888939e-05
-3.979621819e-05
-3.929012352e-05
-3.874881828e-05
-3.808249082e-05
-3.746027414e-05
-3.691420326e-05
-3.646246967e-05
-3.575075778e-05
-3.505691646e-05
-3.434727271e-05
-3.365268427e-05
-3.290404412e-05
-3.215412487e-05
-3.146168115e-05
-3.073774258e-05
-2.998404579e-05
-2.921636706e-05
-2.846605082e-05
-2.765062634e-05
-2.687084703e-05
-2.600156612e-05
-2.497619958e-05
-2.412316615e-05
-2.338422031e-05
-2.267757854e-05
-2.191710523e-05
-2.13347855e-05
-2.07109864e-05
-2.014106464e-05
-1.947197062e-05
-1.892915115e-05
-1.840705566e-05
-1.772678381e-05
-1.689772516e-05
-1.640530647e-05
-1.588049862e-05
-1.531825672e-05
-1.465306956e-05
-1.407777251e-05
-1.342544265e-05
-1.277584163e-05
-1.217094292e-05
-1.161876745e-05
-1.106788151e-05
-1.049634333e-05
-9.886556796e-06
-9.267395467e-06
-8.621367994e-06
-7.99289731e-06
-7.41563506e-06
-6.893133421e-06
-6.41789965e-06
-5.966318151e-06
-5.540289318e-06
-5.127544189e-06
-4.71151136e-06
-4.310872765e-06
-3.835500613e-06
-3.328009431e-06
-3.010179109e-06
-2.784048892e-06
-2.427426399e-06
-2.052510788e-06
-1.762142782e-06
-1.439376874e-06
-1.198637263e-06
-9.501141646e-07
-7.691425566e-07
-6.22596458e-07
-5.054058494e-07
-3.825043434e-07
-2.687170685e-07
-1.558382102e-07
-9.67978692e-08
-3.86448796e-08
6.971706728e-08
1.893161054e-07
9.391726054e-08
0
0
0
0
0
0
0
0
0
0
0
0
0
0
0
0
0
0
0
0
0
0
0
0
0
0
0
0
0
0
0
0
0
0
0
0
0
0
0
0
0
0
0
0
0
0
0
0
0
0
0
0
0
0
0
0
0
0
0
0
0
0
0
0
0
0
0
0
0
0
0
0
0
0
0
0
0
0
0
0
0
0
0
0
0
0
0
0
0
0
0
0
0
0
0
0
0
0
0
0
0
0
0
0
0
0
0
0
0
0
0
0
0
0
0
0
0
0
0
0
0
0
0
0
0
0
0
0
0
0
0
0
0
0
0
0
0
0
0
0
0
0
0
0
0
0
0
0
0
0
0
0
0
0
0
0
0
0
0
0
0
0
0
0
0
0
0
0
0
0
0
0
0
0
0
0
0
0
0
0
0
0
0
0
0
0
0
0
0
0
0
0
0
0
0
0
0
0
0
-2.655445571e-07
-5.495486589e-07
-7.837138233e-07
-1.011298061e-06
-1.211223044e-06
-1.628335532e-06
-2.042987418e-06
-2.468854868e-06
-3.076897704e-06
-3.708332134e-06
-4.471465959e-06
-5.111809229e-06
-5.830334329e-06
-6.384582799e-06
-6.970442755e-06
-7.729866143e-06
-8.578420122e-06
-9.262313486e-06
-9.930617997e-06
-1.076962943e-05
-1.18139875e-05
-1.293283923e-05
-1.391753913e-05
-1.480658486e-05
-1.578862694e-05
-1.691646764e-05
-1.796723041e-05
-1.891069562e-05
-1.978799878e-05
-2.052385871e-05
-2.123431122e-05
-2.206927951e-05
-2.283218565e-05
-2.349942996e-05
-2.402664315e-05
-2.48364011e-05
-2.540445692e-05
-2.573566049e-05
-2.602818575e-05
-2.659727346e-05
-2.721794859e-05
-2.76300086e-05
-2.785709212e-05
-2.822686527e-05
-2.857750192e-05
-2.908074775e-05
-2.94368809e-05
-3.000762631e-05
-3.055560113e-05
-3.145425613e-05
-3.217211828e-05
-3.303914212e-05
-3.383357885e-05
-3.474287665e-05
-3.578930297e-05
-3.709117229e-05
-3.80432153e-05
-3.897908125e-05
-3.968041595e-05
-4.046127294e-05
-4.122128424e-05
-4.209681518e-05
-4.282302779e-05
-4.334435838e-05
-4.36670456e-05
-4.38680155e-05
-4.396172262e-05
-4.396568848e-05
-4.366861689e-05
-4.342687104e-05
-4.301295041e-05
-4.241753011e-05
-4.158036955e-05
-4.084616748e-05
-4.006319787e-05
-3.932483823e-05
-3.864110035e-05
-3.797155794e-05
-3.713543129e-05
-3.639473584e-05
-3.557731346e-05
-3.469156039e-05
-3.379222501e-05
-3.298441916e-05
-3.229922351e-05
-3.168941014e-05
-3.116063155e-05
-3.063269356e-05
-3.027627092e-05
-3.007138093e-05
-2.978475381e-05
-2.957161717e-05
-2.934688876e-05
-2.950374584e-05
-2.972200479e-05
-2.993813043e-05
-3.013196295e-05
-3.049591062e-05
-3.081088932e-05
-3.122807492e-05
-3.186653302e-05
-3.250465352e-05
-3.312893949e-05
-3.383960639e-05
-3.447129918e-05
-3.518229221e-05
-3.594465442e-05
-3.689887895e-05
-3.788680324e-05
-3.882353185e-05
-3.957952749e-05
-4.057433017e-05
-4.174796624e-05
-4.289751923e-05
-4.406145924e-05
-4.551741008e-05
-4.677892308e-05
-4.81898015e-05
-4.944359564e-05
-5.098024963e-05
-5.261083981e-05
-5.453649774e-05
-5.680756006e-05
-5.95848231e-05
-6.207867559e-05
-6.487790844e-05
-6.77385394e-05
-7.026604725e-05
-7.263614011e-05
-7.517523115e-05
-7.78215143e-05
-8.029398845e-05
-8.269675806e-05
-8.457543374e-05
-8.653166193e-05
-8.856758025e-05
-9.059856821e-05
-9.264450201e-05
-9.489295286e-05
-9.753491987e-05
-0.0001002225089
-0.0001026999109
-0.0001052673288
-0.0001080087083
-0.0001105995066
-0.0001134832371
-0.0001166492794
-0.000119990212
-0.0001229113829
-0.0001259225885
-0.0001291044589
-0.0001323536298
-0.0001357030205
-0.000139015431
-0.000142570844
-0.0001464214339
-0.0001501475725
-0.0001538533668
-0.0001576977723
-0.0001620935558
-0.0001668804956
-0.0001713585105
-0.0001756146896
-0.0001798725775
-0.0001846040312
-0.0001895696124
-0.0001940410613
-0.0001982714059
-0.0002026670923
-0.0002071204481
-0.0002112672258
-0.0002154313999
-0.0002195747779
-0.0002240674465
-0.0002288930459
-0.0002335101833
-0.000237950269
-0.0002427806333
-0.0002481278207
-0.0002540690319
-0.0002598012384
-0.0002654281137
-0.0002707937951
-0.0002762593057
-0.0002822205075
-0.0002888357088
-0.0002954720068
-0.0003014778728
-0.0003068373268
-0.0003122452605
-0.0003175355074
-0.0003230261918
-0.0003284845782
-0.0003339467033
-0.000339568533
-0.0003451408543
-0.0003508359824
-0.0003573286981
-0.000364087385
-0.0003705626543
-0.0003765030993
-0.0003819939159
-0.0003874591623
-0.0003927740845
-0.000397944587
-0.0004032774724
-0.0004087224638
-0.0004142006366
-0.0004194031661
-0.0004249608363
-0.0004309283398
-0.0004375026158
110.9812842
219.4362438
232.8267061
244.8079439
305.792951
373.9787262
444.0929371
511.0528512
589.5948885
667.6728909
747.2770389
824.7416069
907.799216
999.941074
1102.678345
1203.214147
1291.082142
1369.749033
1450.209827
1537.340742
1615.386116
1690.446508
1767.100829
1849.550788
1941.706978
2035.756866
2125.235354
2207.027704
2287.044109
2370.785654
2462.124867
2558.243408
2663.156018
2770.888104
2864.870378
2950.623391
3046.311637
3142.748444
3223.276395
3298.630844
3385.271405
3483.537786
3596.545833
3711.942092
3820.107214
3920.558739
4008.878302
4093.385648
4171.433219
4251.885511
4336.34314
4423.155897
4524.945386
4647.580451
4772.08917
4878.253935
4975.27846
5068.684835
5158.685292
5250.396682
5335.421268
5415.890306
5495.231509
5578.404769
5665.142096
5757.285657
5842.305871
5923.888201
6004.359406
6084.374055
6183.640892
6292.496477
6404.560531
6513.732687
6621.25875
6722.34838
6816.708884
6906.629768
6986.016033
7062.61059
7139.322545
7221.125502
7303.592856
7384.106681
7469.760145
7558.945524
7655.846202
7756.573079
7843.921339
7928.91281
8008.529361
8084.342344
8161.076977
8239.302017
8318.371119
8400.468632
8491.958451
8592.60336
8711.212949
8834.40144
8947.723849
9050.133285
9149.193607
9245.561429
9337.867681
9425.447204
9506.977396
9590.828996
9674.298999
9762.314674
9853.752778
9937.656482
10023.79818
10113.86054
10207.90036
10304.6828
10416.78823
10537.9481
10642.99293
10738.9015
10827.21474
10914.78696
11015.53735
11127.91726
11231.94214
11335.71098
11455.245
11580.35678
11698.99601
11805.36915
11900.16714
11987.91038
12072.42281
12157.84002
12240.83548
12329.49458
12425.39999
12512.91082
12600.74195
12692.61006
12782.44595
12879.31541
12979.75983
13073.70287
13143.08516
13210.56538
13286.69246
13362.74845
13446.96566
13532.58935
13612.47616
13686.41136
13765.65446
13846.90458
13930.56883
14016.23471
14110.36273
14216.72428
14323.71726
14421.42926
14516.25389
14604.72334
14686.41269
14770.01995
14861.39312
14958.94659
15070.14839
15193.34331
15295.01365
15385.41119
15475.10625
15561.94839
15646.77738
15734.86539
15814.81721
15891.71484
15973.30287
16057.01873
16141.96758
16225.64244
16305.63913
16388.09513
16479.35386
16571.77302
16650.44713
16725.94685
16804.0118
16881.61544
16960.23547
17039.83762
17120.7319
17201.26627
17284.21331
17367.06904
17445.65554
17535.92895
17641.75226
17747.60129
17836.28988
17914.54103
18002.8558
18097.42193
18198.87085
18304.349
18409.86972
18517.46929
18634.37748
18744.4979
18846.49128
18940.32506
19024.54484
19106.69392
19193.11063
19282.68132
19361.96121
19436.91413
19507.51053
19576.93686
19648.64082
19737.02987
19829.4188
19909.89216
19995.20924
20078.92052
20161.93977
20242.67062
20320.41914
20400.82828
20487.62171
20581.54305
20680.36565
20778.04544
20868.11649
20951.20402
21033.98212
21118.2261
21200.2617
21285.21103
21374.92104
21469.56197
21566.69574
21659.60232
21745.20652
21829.11052
21911.64897
21997.36875
22085.7496
22188.62746
22294.47461
22383.12823
22460.3783
22534.82075
22612.55265
22691.74984
22768.99445
22849.27634
22926.68054
23000.4056
23084.7737
23169.06063
23257.42912
23352.8775
23447.66403
23535.30449
23619.31423
23706.92923
23814.57591
23934.46022
24044.59869
24139.28524
24230.65832
24323.6643
24404.82023
24485.4628
24572.02344
24664.55815
24764.06875
24858.11696
24942.75721
25033.29366
25125.43773
25216.18891
25322.72024
25431.23185
25532.60819
25632.29739
25722.84524
25806.70456
25890.74008
25973.47579
26058.99809
26146.46462
26227.24964
26307.50195
26392.40245
26474.85132
26569.68949
26679.41892
26791.00805
26894.66964
26990.50925
27086.86663
27175.21158
27257.48339
27339.63586
27422.72073
27514.70933
27611.13631
27702.44313
27793.79692
27891.49057
27995.42663
28095.78195
28184.697
28265.76706
28350.64039
28444.81207
28545.07252
28641.84794
28732.61993
28833.7449
28935.06503
29033.32381
29132.37135
29236.68225
29348.62218
29453.39455
29551.54655
29652.3021
29760.39654
29863.59916
29958.89423
30046.3894
30134.16467
30210.93905
30287.58397
30367.12901
30452.10444
30556.69324
30656.10231
30744.89431
30830.61526
30914.2971
31000.46641
31093.50027
31185.59422
31275.50717
31358.1281
31445.78335
31539.24069
31628.46515
31714.73804
31800.55981
31890.24297
31978.81349
32064.38831
32146.54991
32227.56841
32312.66128
32400.10006
32493.29255
32588.34429
32683.32438
32778.52
32872.27509
32975.56359
33080.31462
33182.38561
33291.39117
33407.70007
33520.50068
33621.99653
33719.85673
33819.17471
33906.44633
33988.52843
34069.65847
34147.4306
34229.34271
34313.8195
34396.83142
34482.80596
34576.8366
34678.31909
34777.91057
34874.20588
34970.93246
35064.43266
35152.26196
35244.14168
35344.51118
35448.89281
35543.42661
35626.45616
35702.28135
35778.4556
35853.67102
35933.25179
36024.92829
36107.08136
36183.51249
36260.08481
36338.88758
36427.26395
36519.57577
36615.37131
36704.72148
36786.56915
36865.32152
36944.0637
37028.27897
37116.58584
37207.54167
37298.97791
37391.30847
37477.40031
37563.82011
37653.32254
37736.49658
37817.2303
37899.51408
37986.78998
38079.26745
38173.10814
38254.89654
38328.02751
38403.79905
38484.4616
38574.31084
38667.87425
38757.96983
38847.97743
38953.99599
39072.0685
39190.30778
39294.96632
39388.82041
39480.34457
39575.54449
39669.54282
39747.0355
39824.6362
39915.59002
40007.58383
40097.77357
40189.69999
40281.35421
40377.3813
40480.94417
40587.27356
40689.73146
40791.54111
40887.76049
40982.26294
41077.9448
41174.74189
41276.85071
41392.75211
41500.08318
41588.65902
41678.058
41765.87575
41846.64543
41927.11274
42004.08686
42081.21455
42156.75045
42237.00403
42324.57959
42415.2462
42509.48445
42603.43707
42700.18383
42797.03192
42896.22308
42990.34321
43078.90617
43163.89508
43247.10921
43335.76822
43430.10322
43527.20148
43621.72061
43707.96142
43789.44771
43867.79734
43946.72984
44024.52089
44094.41995
44167.79154
44245.33962
44320.35643
44400.42028
44491.52831
44575.76738
44653.64988
44720.6797
44786.74425
44861.25556
44935.39763
45016.65394
45101.00037
45191.66515
45283.55495
45380.18237
45481.22517
45580.89055
45676.79923
45763.32058
45846.37623
45930.49765
46021.65524
46109.8067
46194.28465
46285.93161
46372.49576
46466.99003
46562.02169
46648.76244
46744.14678
46837.67047
46922.62041
46998.21474
47071.72085
47142.64645
47217.8633
47295.59203
47376.13434
47464.35063
47553.87652
47646.49799
47730.46506
47811.70865
47895.98627
47970.94358
48047.03974
48128.18318
48207.19559
48285.75532
48369.26121
48463.50113
48557.95283
48657.73984
48756.9535
48842.41988
48923.88904
48995.56638
49066.83369
49136.23466
49202.45656
49267.09348
49332.56582
49401.40083
49473.63677
49541.9867
49611.4043
49695.94533
49784.1824
49880.4128
49977.01044
50059.23672
50137.08824
50214.16089
50285.18569
50358.57804
50439.46188
50536.48218
50632.23567
50730.55172
50826.72633
50916.22841
51007.71405
51102.87648
51203.11003
51302.63308
51393.56924
51478.63205
51562.91261
51651.71112
51740.33636
51823.75794
51907.56501
51986.48378
52068.74625
52143.05591
52216.28923
52294.84156
52378.06915
52479.91875
52578.41454
52668.73906
52759.94596
52855.97114
52947.42581
53029.78234
53113.89164
53207.6476
53314.1389
53406.85409
53489.69454
53574.93278
53655.01884
53732.47486
53809.46473
53888.62072
53968.72263
54055.65359
54149.16493
54248.32899
54344.64932
54437.09137
54532.74941
54641.11324
54759.72113
54887.08378
55014.47296