/*--------------------------------*- C++ -*----------------------------------*\
| =========                 |                                                 |
| \\      /  F ield         | OpenFOAM: The Open Source CFD Toolbox           |
|  \\    /   O peration     | Version:  2012                                  |
|   \\  /    A nd           | Website:  www.openfoam.com                      |
|    \\/     M anipulation  |                                                 |
\*---------------------------------------------------------------------------*/
FoamFile
{
    version     2.0;
    format      ascii;
    class       volScalarField;
    location    "0.47";
    object      maxKappa;
}
// * * * * * * * * * * * * * * * * * * * * * * * * * * * * * * * * * * * * * //

dimensions      [0 0 0 0 0 0 0];


internalField   nonuniform List<scalar> 
2268
(
1.33354e-06
2.61578e-06
3.82284e-06
4.99293e-06
6.17822e-06
7.39223e-06
8.4184e-06
9.37124e-06
1.02595e-05
1.09614e-05
1.15667e-05
1.2065e-05
1.24531e-05
1.25812e-05
1.25812e-05
1.24505e-05
1.21386e-05
1.1597e-05
1.07977e-05
9.6587e-06
8.04057e-06
6.01535e-06
3.58983e-06
1.63451e-06
2.75815e-06
3.91935e-06
5.07424e-06
6.24813e-06
7.44067e-06
8.45421e-06
9.41321e-06
1.02999e-05
1.09825e-05
1.16158e-05
1.21182e-05
1.24551e-05
1.25985e-05
1.25985e-05
1.25082e-05
1.22164e-05
1.1679e-05
1.08469e-05
9.67137e-06
8.0248e-06
6.00675e-06
3.7674e-06
2.06367e-06
3.02282e-06
4.10295e-06
5.22602e-06
6.37941e-06
7.53321e-06
8.52752e-06
9.50289e-06
1.03831e-05
1.10775e-05
1.17268e-05
1.22266e-05
1.25326e-05
1.26894e-05
1.26894e-05
1.26713e-05
1.24274e-05
1.19373e-05
1.12018e-05
1.01755e-05
8.72887e-06
6.91581e-06
4.91565e-06
2.57296e-06
3.39253e-06
4.37084e-06
5.4488e-06
6.57486e-06
7.67553e-06
8.64186e-06
9.628e-06
1.04884e-05
1.11873e-05
1.18339e-05
1.23023e-05
1.26087e-05
1.2776e-05
1.27806e-05
1.27806e-05
1.25579e-05
1.20796e-05
1.13332e-05
1.03826e-05
9.13839e-06
7.88271e-06
6.56795e-06
3.11143e-06
3.82135e-06
4.69368e-06
5.71998e-06
6.8157e-06
7.86075e-06
8.80759e-06
9.80893e-06
1.06484e-05
1.1367e-05
1.20252e-05
1.24935e-05
1.28209e-05
1.30024e-05
1.30268e-05
1.30268e-05
1.2866e-05
1.24939e-05
1.19045e-05
1.11266e-05
1.00784e-05
8.98482e-06
7.74637e-06
3.69245e-06
4.30941e-06
5.08266e-06
6.05649e-06
7.11584e-06
8.10378e-06
9.03336e-06
1.00243e-05
1.08153e-05
1.15351e-05
1.21989e-05
1.26343e-05
1.29604e-05
1.31533e-05
1.31972e-05
1.31972e-05
1.30689e-05
1.27472e-05
1.22058e-05
1.15721e-05
1.07677e-05
1.0387e-05
1.02429e-05
4.2693e-06
4.81023e-06
5.50166e-06
6.4231e-06
7.44207e-06
8.38118e-06
9.30677e-06
1.02818e-05
1.10408e-05
1.18093e-05
1.24875e-05
1.29398e-05
1.32942e-05
1.34966e-05
1.35385e-05
1.35385e-05
1.34476e-05
1.32333e-05
1.28898e-05
1.25125e-05
1.19834e-05
1.18278e-05
1.15726e-05
4.88682e-06
5.3643e-06
5.98836e-06
6.8607e-06
7.83358e-06
8.72418e-06
9.63862e-06
1.05658e-05
1.12832e-05
1.20863e-05
1.27363e-05
1.31628e-05
1.35242e-05
1.37215e-05
1.37933e-05
1.37933e-05
1.3747e-05
1.36176e-05
1.33471e-05
1.31522e-05
1.35578e-05
1.52814e-05
1.52814e-05
0.000115236
0.000115236
8.64192e-05
8.70148e-05
9.02617e-05
0.000148474
0.000391735
0.000931639
0.0018743
0.00280311
0.00317524
0.00317524
0.00298474
0.00284931
0.00256208
0.00154187
0.0011195
0.000834622
0.000473091
0.000118231
0.000118231
9.31234e-05
9.83393e-05
0.000104777
0.000173412
0.000436979
0.000912476
0.00163982
0.0024022
0.00277748
0.00279182
0.0028525
0.0028525
0.00262663
0.00222771
0.00165251
0.000930579
0.000458723
0.000110176
0.000117672
0.000117672
0.000124433
0.000124433
0.000172984
0.00041906
0.000837204
0.00137566
0.00193364
0.00238492
0.00266251
0.00278556
0.00278556
0.00269198
0.00229494
0.0016181
0.00112038
0.000573138
0.00013191
0.000134624
0.000134624
0.000161047
0.000161047
0.000207908
0.000443241
0.000799034
0.0011204
0.00120846
0.00124996
0.0015029
0.00183356
0.0019774
0.0019774
0.0019165
0.00166482
0.0014531
0.000897433
0.000136219
0.00018125
0.00018125
0.000225267
0.000225267
0.000246814
0.000468958
0.000778258
0.00109627
0.00109627
0.00104408
0.000895588
0.00121213
0.00135407
0.00150138
0.00184062
0.00252963
0.00252963
0.00213374
0.000180926
0.000188057
0.000216352
0.000301049
0.000301049
0.000321251
0.000512975
0.000763966
0.00105299
0.00110002
0.00110002
0.000742001
0.000681784
0.000812744
0.000924203
0.00122597
0.00177635
0.00192558
0.00192558
0.00017856
0.00023873
0.000316834
0.000411384
0.000411384
0.00039509
0.000557341
0.000765085
0.00103143
0.00113838
0.00113838
0.000855867
0.000401975
0.000491998
0.000615099
0.000779945
0.0012973
0.0012973
0.0010196
0.000170553
0.000339837
0.000606682
0.000606682
0.000540304
0.000504584
0.000617334
0.000769524
0.000992745
0.00115397
0.00115397
0.00102083
0.00073802
0.000320343
0.000580978
0.000777052
0.00129289
0.00129289
0.000853066
1.29276e-05
1.35987e-05
1.40997e-05
1.52187e-05
1.65029e-05
1.7741e-05
1.84774e-05
1.97083e-05
1.97631e-05
2.00273e-05
1.96393e-05
1.83431e-05
1.73005e-05
1.57822e-05
1.54172e-05
1.4813e-05
1.51205e-05
1.47219e-05
1.52821e-05
1.62073e-05
1.84021e-05
2.29995e-05
2.51786e-05
0.000102012
0.000104035
0.000107218
0.000113667
0.000119874
0.000125537
0.000128654
0.000133552
0.000130071
0.000127864
0.000117346
0.000103709
7.11993e-05
4.81217e-05
3.69478e-05
2.74986e-05
1.89751e-05
1.57948e-05
1.60272e-05
1.60307e-05
1.75607e-05
2.04412e-05
2.51786e-05
0.000194042
0.000198444
0.000208621
0.000220891
0.000232963
0.000245053
0.000258431
0.000268127
0.000275636
0.000279282
0.000279282
0.000276288
0.000266628
0.000236567
0.000187297
0.000161302
7.1723e-05
3.8547e-05
3.1828e-05
1.91583e-05
1.87667e-05
2.11411e-05
2.32536e-05
0.000196735
0.000191594
0.000193428
0.000197702
0.000202503
0.000207117
0.000214953
0.000220217
0.000224012
0.000225345
0.000228588
0.000211578
0.000205288
0.00014144
0.000244912
0.000297886
0.000313043
0.000270798
0.000200636
6.41325e-05
4.14495e-05
3.58414e-05
2.31339e-05
0.000200762
0.000197872
0.00019614
0.000194648
0.000188839
0.000184968
0.000181767
0.000174806
0.000166528
0.000156089
0.000146278
0.000138748
0.000153199
0.000230236
0.000257351
0.000257351
0.000313043
0.00030235
0.000306938
0.000320416
0.000278699
0.000216784
6.90218e-05
0.000205038
0.000203513
0.00020041
0.000198536
0.000194385
0.000188419
0.000180936
0.000173251
0.000163999
0.000158567
0.000159609
0.000170998
0.000212935
0.00022662
0.00025273
0.000200427
0.000246207
0.000285724
0.000326786
0.000352728
0.000346652
0.000354087
0.000359575
0.000209779
0.000208657
0.000205305
0.000203549
0.000198027
0.000193838
0.000185631
0.00018238
0.00017355
0.000174094
0.00017059
0.000179636
0.00017288
0.000217518
0.000216665
0.000221989
0.000249227
0.000314794
0.000371061
0.000397463
0.000404257
0.000417878
0.00041948
0.000216
0.000214649
0.000212342
0.000210797
0.000206392
0.000203682
0.000197011
0.000195516
0.00018893
0.000189475
0.000190225
0.000194418
0.000194329
0.000199693
0.00019674
0.000203919
0.000206129
0.000240155
0.000305273
0.000354398
0.000433885
0.00047556
0.00047556
0.000222986
0.000221961
0.000220388
0.000219274
0.000215391
0.000213923
0.000208085
0.000207335
0.00020163
0.000201392
0.000198686
0.000202934
0.000198801
0.000204925
0.000203969
0.000206854
0.000205461
0.000217635
0.000241448
0.000273002
0.000340897
0.000419499
0.000461221
0.000231815
0.000231219
0.00022979
0.000229077
0.000225583
0.000225014
0.00022032
0.000220307
0.000216206
0.00021638
0.000214019
0.000218325
0.000215639
0.000221673
0.000219275
0.00022207
0.000222618
0.000225029
0.000234455
0.000241392
0.000265252
0.000317787
0.000367228
0.000241188
0.000240821
0.000239577
0.000239161
0.000236122
0.000236114
0.000232351
0.000232493
0.000229777
0.000230097
0.000228748
0.000232593
0.000232084
0.000237896
0.0002379
0.000242465
0.000242193
0.000245658
0.0002485
0.000251664
0.000253189
0.000261938
0.000272822
0.000251792
0.000251532
0.000250499
0.000250466
0.000247994
0.00024853
0.000245676
0.00024617
0.00024448
0.000245387
0.00024457
0.000248045
0.000247666
0.000252589
0.000252246
0.00025657
0.00025629
0.000259702
0.000261347
0.000266192
0.000263075
0.0002675
0.000259728
0.000263134
0.000262992
0.000262142
0.000262409
0.000260408
0.000261186
0.000259081
0.000259542
0.000258685
0.000259505
0.000259245
0.000261777
0.000261786
0.0002655
0.000265598
0.000269448
0.000268884
0.000272515
0.000272621
0.000276296
0.000271842
0.000277309
0.000265141
0.000275481
0.000275488
0.000274905
0.000275412
0.000273812
0.000274773
0.000273275
0.000273844
0.000273471
0.000274395
0.000274415
0.00027673
0.000276895
0.000279962
0.000280185
0.000283369
0.000283331
0.000286696
0.000286628
0.000290018
0.000285808
0.000291447
0.000279046
0.000288405
0.000288542
0.000288067
0.000288747
0.000287449
0.000288427
0.000287464
0.000288041
0.000288235
0.000289146
0.000289738
0.000291709
0.000292372
0.000295192
0.000295957
0.000299206
0.000299757
0.000303262
0.000303446
0.000306546
0.000303287
0.000308574
0.000296158
0.00030241
0.000302643
0.000302167
0.000302993
0.000301958
0.000303024
0.000302494
0.000303207
0.000303762
0.000304775
0.000305685
0.000307684
0.000308745
0.000311452
0.000312801
0.000315912
0.000317407
0.000320782
0.000322021
0.000325126
0.000324137
0.000329283
0.000319684
0.000316857
0.000317145
0.000316738
0.000317625
0.000316889
0.000317954
0.000317878
0.000318662
0.000319619
0.000320616
0.000322012
0.000324021
0.000325607
0.000328438
0.00033039
0.000333759
0.000336114
0.000339691
0.00034226
0.000345534
0.000347346
0.000351805
0.000346797
0.000332264
0.000332618
0.000332212
0.000333152
0.000332626
0.000333721
0.000333946
0.000334841
0.000336112
0.000337307
0.000339098
0.000341267
0.000343292
0.000346319
0.000348882
0.000352537
0.000355824
0.000359812
0.00036388
0.000367822
0.000372591
0.000377142
0.00037831
0.00034836
0.000348763
0.000348292
0.000349209
0.000348873
0.000349964
0.000350495
0.000351452
0.000353085
0.000354468
0.000356733
0.000359127
0.000361664
0.000365094
0.000368241
0.000372438
0.000376539
0.000381257
0.000386674
0.000391687
0.000398998
0.000404465
0.00041146
0.000365029
0.000365469
0.000364982
0.000365869
0.000365736
0.000366834
0.000367622
0.00036872
0.000370702
0.000372333
0.000375031
0.000377726
0.000380755
0.000384651
0.000388377
0.000393112
0.000398024
0.000403521
0.000410187
0.000416508
0.000426149
0.000433347
0.000445719
0.000382302
0.000382762
0.000382256
0.000383072
0.000383121
0.000384169
0.000385171
0.000386365
0.000388737
0.000390589
0.000393807
0.000396848
0.000400427
0.000404931
0.000409206
0.000414651
0.000420337
0.000426785
0.000434611
0.000442486
0.000454117
0.000463288
0.000480431
0.000399686
0.000400135
0.000399668
0.000400428
0.000400674
0.000401723
0.000402978
0.000404279
0.000407
0.000408996
0.000412734
0.000416055
0.000420222
0.000425315
0.000430178
0.00043639
0.000442945
0.000450497
0.00045962
0.000469252
0.000482633
0.000494307
0.000515328
0.0004171
0.000417423
0.000417117
0.000417775
0.000418183
0.000419231
0.000420721
0.000422071
0.000425082
0.000427143
0.000431424
0.000434938
0.000439816
0.000445551
0.000451163
0.000458386
0.00046598
0.000474892
0.000485389
0.000496755
0.000511781
0.000525928
0.000550077
0.000433872
0.000433988
0.000433997
0.000434549
0.000435162
0.000436265
0.000437969
0.000439357
0.000442538
0.000444632
0.000449377
0.00045301
0.000458608
0.000464837
0.000471189
0.000479321
0.000487848
0.000498045
0.000509696
0.000522716
0.000539251
0.00055604
0.000582857
0.000449745
0.000449655
0.000449989
0.00045041
0.000451229
0.000452384
0.000454301
0.000455816
0.000459152
0.000461206
0.000466255
0.000469903
0.000476131
0.000482591
0.000489566
0.000498427
0.000507688
0.000519037
0.000531509
0.000546164
0.000563972
0.000583489
0.000612683
0.000464362
0.000464167
0.000464708
0.000465065
0.000466084
0.000467326
0.000469454
0.000471207
0.000474817
0.000477044
0.000482397
0.00048604
0.000492835
0.000499326
0.000506986
0.00051629
0.000526154
0.000538207
0.000551154
0.00056722
0.000585711
0.000608596
0.000638753
0.000477457
0.000477266
0.000477891
0.000478294
0.000479508
0.000480859
0.000483175
0.000485163
0.000489048
0.000491638
0.000497383
0.000501138
0.000508345
0.000514462
0.000522476
0.000531567
0.000541648
0.000553525
0.00056661
0.000583276
0.000603927
0.000631002
0.000657803
0.000489027
0.000488884
0.000489542
0.000490062
0.000491476
0.000492998
0.000495594
0.000497935
0.00050219
0.000505271
0.000511473
0.000515579
0.000523259
0.000529058
0.000537442
0.000545918
0.000555856
0.000566743
0.000579817
0.000595622
0.000616903
0.000645551
0.000670692
0.000499011
0.000498916
0.000499606
0.000500258
0.000501883
0.000503609
0.000506555
0.000509302
0.000514004
0.000517651
0.00052428
0.000528817
0.000536917
0.000542602
0.000551356
0.000558904
0.000568287
0.000577809
0.000591598
0.000607495
0.000628359
0.000656625
0.000674207
0.000507527
0.000507463
0.00050819
0.000508954
0.000510817
0.000512756
0.000516123
0.000519298
0.000524529
0.000528794
0.000535959
0.00054111
0.000549699
0.000555494
0.000564575
0.000571287
0.000580254
0.000588058
0.000598695
0.000608457
0.000627371
0.000653889
0.000674207
0.000514633
0.000514576
0.000515345
0.000516194
0.000518319
0.000520452
0.000524286
0.000527852
0.000533667
0.000538533
0.000546296
0.00055211
0.000561231
0.000567297
0.000576775
0.000582829
0.000591555
0.000597643
0.000605559
0.000615253
0.000630534
0.000653045
0.000671084
0.000520571
0.0005205
0.000521314
0.000522218
0.000524609
0.000526903
0.000531207
0.000535102
0.000541526
0.000546915
0.000555323
0.000561739
0.000571403
0.000577828
0.000587725
0.000593341
0.000601885
0.000605953
0.000611455
0.00061276
0.000621472
0.000635438
0.000659629
0.000525383
0.00052529
0.000526155
0.000527089
0.000529726
0.000532137
0.00053687
0.00054101
0.000548011
0.000553863
0.000562794
0.000570123
0.000579802
0.000587046
0.000596606
0.000602004
0.000609858
0.000611933
0.00061544
0.000615252
0.000618754
0.000625429
0.000643071
0.000529343
0.000529239
0.000530167
0.000531122
0.000533958
0.000536458
0.000541539
0.000545847
0.000553317
0.000559291
0.000568838
0.000575855
0.000586476
0.000593143
0.000603399
0.000607922
0.000615531
0.000615619
0.000616954
0.000612267
0.00061164
0.000606671
0.000619008
0.000532385
0.00053228
0.000533255
0.00053421
0.000537178
0.000539719
0.000545027
0.000550495
0.000557444
0.000565465
0.000574013
0.000583097
0.000591987
0.000600618
0.000608063
0.000614027
0.000617736
0.000617428
0.00061732
0.000612561
0.000602753
0.000588694
0.000589957
0.000534779
0.000534685
0.00053569
0.000536642
0.000539686
0.000542228
0.000547654
0.00055249
0.000559929
0.000567171
0.000575966
0.000584168
0.000593684
0.000600272
0.000609392
0.00061203
0.000617736
0.000615475
0.000614352
0.000601264
0.000587981
0.000563915
0.000555121
0.00053629
0.000536193
0.000537188
0.000538098
0.000541141
0.000544676
0.000549657
0.000555897
0.000562966
0.000571112
0.00057967
0.00058864
0.000597122
0.000605009
0.000611157
0.000615128
0.000617716
0.000615108
0.000609872
0.000597101
0.000575141
0.000544089
0.000516624
0.000537341
0.000537207
0.000538169
0.00053903
0.000542034
0.000544487
0.000549762
0.000555067
0.000561709
0.000569344
0.000577242
0.000585389
0.000594134
0.000599411
0.000608581
0.000610006
0.00061431
0.000606933
0.00059965
0.000575386
0.000546627
0.000499517
0.000464812
0.000537514
0.000537321
0.000538216
0.000539591
0.000542305
0.000546195
0.000550952
0.000556932
0.000563674
0.000571406
0.000579412
0.00058766
0.000595163
0.000601782
0.000606637
0.000607955
0.000610131
0.000604667
0.000594598
0.000574374
0.000540277
0.000490017
0.000434046
0.000537524
0.000537321
0.000538216
0.000538969
0.000541856
0.000544051
0.000549253
0.000553308
0.00056064
0.000566208
0.000575258
0.000580885
0.000590528
0.000594364
0.000601982
0.00060102
0.000602553
0.000590699
0.000577085
0.000542547
0.000497868
0.000429378
0.000359812
0.000537524
0.000537271
0.000538063
0.000538811
0.00054139
0.000544676
0.000548979
0.000554397
0.000560467
0.000567359
0.00057438
0.000581476
0.000587593
0.000592722
0.000597115
0.000595328
0.000595391
0.00058843
0.000573431
0.000544665
0.000496102
0.000422703
0.000329946
0.000536692
0.000536381
0.000537064
0.0005375
0.000540029
0.000541767
0.000546439
0.000549639
0.000556382
0.000560725
0.000568923
0.000573309
0.000581449
0.000583575
0.000589585
0.000586424
0.000585906
0.000571398
0.000553615
0.000516968
0.000464187
0.000383207
0.000279518
2.45503e-05
2.07464e-05
2.0681e-05
5.96248e-05
2.47715e-05
2.48973e-05
2.56793e-05
2.73556e-05
2.47715e-05
2.48973e-05
2.56793e-05
2.57818e-05
2.36214e-05
2.4198e-05
2.4904e-05
2.508e-05
4.89137e-05
4.83724e-05
4.69747e-05
4.30648e-05
0.000349005
0.000330244
0.00030586
0.000262633
0.000422372
0.00041382
0.000407114
0.000393119
0.000482103
0.000487788
0.000489162
0.000477181
0.000482103
0.000487788
0.000489162
0.000477181
0.000404647
0.000428057
0.000454737
0.000476696
0.000287936
0.000298378
0.000318546
0.000337009
0.00025235
0.000247083
0.000249468
0.000249675
0.000262601
0.000256742
0.000252193
0.000242721
0.000279824
0.000273582
0.000270906
0.000261523
0.000299077
0.000292481
0.000291497
0.000282454
0.000326145
0.000320074
0.000322671
0.000315128
0.000355069
0.000350452
0.000356058
0.000350086
0.000387866
0.000386247
0.000393963
0.000390472
0.000421944
0.000423639
0.000432062
0.000431806
0.000458066
0.000462822
0.000472259
0.000475772
0.000494511
0.000501955
0.000512597
0.000519667
0.000531205
0.000540886
0.000552831
0.000562857
0.000567345
0.00057892
0.000591979
0.000604391
0.000601799
0.00061543
0.0006298
0.000644901
0.000633841
0.000649631
0.00066591
0.000684817
0.000662351
0.000680342
0.000699557
0.000722946
0.000683903
0.000704319
0.000727228
0.000755029
0.000698833
0.000721408
0.000747945
0.000779907
0.000703598
0.000727965
0.000758612
0.000795656
0.000703598
0.000727965
0.000764095
0.000808072
0.000701185
0.000727837
0.000764095
0.000811134
0.000688961
0.000718339
0.000760165
0.000811134
0.000669803
0.000702242
0.000748383
0.000805503
0.000641294
0.000676519
0.000725987
0.000788675
0.000607926
0.000645808
0.000699099
0.000763733
0.000568305
0.000606998
0.000662503
0.000723351
0.000525595
0.000564577
0.000621285
0.000679581
0.00046613
0.000501581
0.000555045
0.000610158
0.000419604
0.000456108
0.00050989
0.000564373
0.0003589
0.000398295
0.000457268
0.000513702
0.000291112
0.000376045
0.000467422
0.00056229
0.000291112
0.000376045
0.000467422
0.00056229
0.000472251
0.000554287
0.000554287
0.000534005
0.0005022
0.000544449
0.000690048
0.000795687
0.000954945
0.00110937
0.00110937
0.00107313
0.000947923
0.000727114
0.000723182
0.000786393
0.00117213
0.00126442
0.000783311
0.00016557
0.000189848
0.000184647
0.000390188
0.000424912
0.000530048
0.000768344
0.000817859
0.000888433
0.00100857
0.00103732
0.00103732
0.00101688
0.000906551
0.000788836
0.000699007
0.00108953
0.00126442
0.000754191
3.8329e-05
3.2319e-05
4.07795e-05
0.000224628
0.000433349
0.000469922
0.000705406
0.000846885
0.000869463
0.0009297
0.000932584
0.000932584
0.000923211
0.000832198
0.00074558
0.000642911
0.000952976
0.0011467
0.000706422
2.83941e-05
2.83941e-05
2.76233e-05
6.08483e-05
0.000333504
0.000354124
0.000550087
0.000779243
0.000783452
0.000839057
0.000839057
0.000832173
0.000830711
0.000766677
0.000677942
0.00051832
0.000877738
0.00103637
0.000646797
3.12359e-05
2.68441e-05
2.63941e-05
3.33562e-05
0.000166354
0.000335097
0.000404799
0.00072162
0.000891426
0.000895663
0.000895663
0.000824224
0.000774953
0.000681575
0.000607687
0.000445447
0.000765124
0.000927263
0.000451471
0.000143645
6.67346e-05
5.00866e-05
2.75223e-05
3.89156e-05
0.000212269
0.000337368
0.000403087
0.000662727
0.000883045
0.000914795
0.000914795
0.000875926
0.000810506
0.000728574
0.000605155
0.000810084
0.00084289
0.000292538
0.000433537
0.000433537
0.000314154
8.90872e-05
5.56285e-05
3.94836e-05
0.000188002
0.000482942
0.000561967
0.000647584
0.00079949
0.00087071
0.000878945
0.000878945
0.000864447
0.00080766
0.00075501
0.000657779
0.000128897
0.000444401
0.000368767
0.00048352
0.00048352
0.000384188
0.000102839
6.48764e-05
6.3254e-05
0.000276485
0.00050631
0.000704718
0.000803173
0.000864073
0.000884946
0.000884946
0.000844319
0.000609204
0.000211501
4.6427e-05
0.000526412
0.000526412
0.000475742
0.000412672
0.000533666
0.000533666
0.000454831
0.00029796
0.00010841
9.29977e-05
0.00010998
0.000131843
0.000151116
0.000163592
0.00016215
0.000149054
9.29569e-05
4.00767e-05
2.37579e-05
0.000586032
0.000586032
0.000583635
0.000507673
0.000535418
0.000644207
0.00066931
0.00066931
0.000643101
0.000580459
0.000529445
0.000498084
0.000455471
0.000388687
0.000283483
0.000104097
5.05642e-05
3.54393e-05
2.05266e-05
0.000393057
0.000453184
0.000422351
0.000380804
0.0003755
0.000386836
0.000561579
0.000784811
0.000881893
0.000934951
0.00096047
0.00096047
0.000951192
0.000889698
0.000798068
0.000590867
0.000252863
5.63814e-05
2.93762e-05
0.000278591
0.000299293
0.000298141
0.000288968
0.000270545
0.000340217
0.000437866
0.000619268
0.000911105
0.00113257
0.00123511
0.0013163
0.00111572
0.000856814
0.00062281
0.000608735
0.000495887
9.58346e-05
5.45119e-05
0.000226825
0.000210257
0.000190638
0.000162576
0.000141644
0.000368108
0.000716145
0.00106899
0.00158572
0.00215571
0.00243287
0.00243287
0.00228779
0.00169063
0.00111021
0.000670778
0.000320851
4.96428e-05
6.4626e-05
0.00026369
0.00026369
0.000230816
0.000194543
0.000169733
0.00026398
0.000554374
0.00113392
0.00169417
0.00179703
0.00186233
0.00173501
0.00129511
0.000831279
0.00046292
0.000259798
8.43211e-05
3.67629e-05
6.4626e-05
0.000278589
0.000261445
0.000236591
0.000217179
0.000219622
0.000320216
0.000563687
0.000939169
0.00125762
0.00147811
0.0010973
0.000917821
0.000685404
0.000286811
8.19669e-05
4.94998e-05
1.97364e-05
2.75638e-05
4.22528e-05
0.00032447
0.00032447
0.000311147
0.000315212
0.000369146
0.000492724
0.000734679
0.00109203
0.00121354
0.00121354
0.000891658
0.000933886
0.000825512
0.000474233
0.000250613
7.1542e-05
3.06676e-05
3.74734e-05
5.83602e-05
0.000361421
0.000358859
0.000367386
0.000384576
0.000442797
0.000554324
0.00075403
0.00106532
0.00132871
0.00136943
0.000951598
0.00100261
0.00100261
0.000887715
0.000661204
0.000372495
7.95463e-05
0.000118247
0.000242455
0.000421301
0.000432655
0.000458692
0.000500811
0.000575088
0.000691292
0.000872369
0.00113289
0.00145818
0.00146163
0.00144096
0.000781019
0.00101185
0.00101185
0.000939685
0.00063312
0.000308836
0.00020616
0.000344951
0.000467605
0.000487
0.000521694
0.0005736
0.000653671
0.000765351
0.000925885
0.00112829
0.00142311
0.00159791
0.00159791
0.00143965
0.000967216
0.000868672
0.000868672
0.000807411
0.000495262
0.000234914
0.000344951
0.000528934
0.000559292
0.000607849
0.000674504
0.000768811
0.000888069
0.00104376
0.00121574
0.00143501
0.00160578
0.00160578
0.00156629
0.00131732
0.000965123
0.00068672
0.00058361
0.000540627
0.000324465
0.000311202
0.000583347
0.000622711
0.00068066
0.000756935
0.00085648
0.000975338
0.00112427
0.001287
0.00146964
0.00163554
0.00166645
0.00166645
0.00151153
0.00117128
0.000594998
0.000519916
0.000491265
0.000302921
0.000263187
0.00064373
0.000693392
0.000761075
0.000845608
0.000945376
0.00105941
0.00119386
0.0013401
0.00149756
0.00163909
0.00169137
0.00169137
0.00162191
0.001433
0.00109486
0.000577179
0.000420528
0.000273541
0.000245414
0.000694854
0.000753274
0.000828538
0.000916307
0.00101162
0.00111652
0.0012283
0.00134985
0.0014764
0.00160222
0.00167521
0.00167521
0.00162302
0.00147788
0.0012052
0.000810519
0.000453523
0.000288699
0.000164325
0.000750633
0.000819407
0.000903352
0.000995424
0.00108712
0.00117907
0.00126732
0.00135933
0.00144486
0.00153765
0.00164216
0.00165625
0.00165625
0.00158376
0.00139708
0.00112582
0.000522995
0.000288699
0.000287722
0.000803479
0.000881934
0.000973845
0.00106691
0.00115252
0.00122742
0.00129107
0.00135511
0.00141474
0.00146979
0.0015662
0.00161366
0.00161366
0.00157913
0.00146173
0.00127387
0.000848262
0.000344179
0.000149849
0.000862388
0.000952597
0.00105253
0.00115037
0.00123148
0.00128642
0.00132307
0.00136187
0.00140995
0.00144235
0.00151144
0.00159482
0.00160874
0.00160874
0.00150972
0.00129953
0.000875654
0.000371642
0.000195182
0.000913957
0.0010168
0.00113251
0.00124074
0.00131257
0.00134783
0.00136432
0.00139266
0.00144209
0.0014663
0.0014961
0.00156514
0.00161672
0.00161672
0.00156741
0.00141534
0.000982743
0.000368097
0.00026981
0.000962953
0.00108628
0.00122091
0.00132789
0.00137934
0.00139799
0.00140377
0.00144289
0.00151996
0.00155895
0.00157615
0.00163561
0.00168484
0.00168484
0.0016206
0.00139916
0.000929869
0.000352283
0.000358783
0.00100556
0.00114916
0.00128954
0.00137222
0.0013941
0.001407
0.00142943
0.0014958
0.00161072
0.00168164
0.00170435
0.00177615
0.00183235
0.00183235
0.00181053
0.00163639
0.000931961
0.00026341
0.000429063
0.00104839
0.00121432
0.00133943
0.00137601
0.00137601
0.0013717
0.00141747
0.00153729
0.00171825
0.00183878
0.00188245
0.00197904
0.00206438
0.00206438
0.00202405
0.00164592
0.000860841
0.000427291
0.000434297
0.00108931
0.00125138
0.00132045
0.00132045
0.00128959
0.00121347
0.00131827
0.00152906
0.00181361
0.00201049
0.00209567
0.00223381
0.00239873
0.0025351
0.0025351
0.00216108
0.00115468
0.000834814
0.000488369
0.00109666
0.00122497
0.00122497
0.00122023
0.00111948
0.000964787
0.00104319
0.00152712
0.00193736
0.00220187
0.0023591
0.00261073
0.00283962
0.00283962
0.00265323
0.00160934
0.000886709
0.000886709
0.000809364
0.00108106
0.00114818
0.00114818
0.00107857
0.000944887
0.000716799
0.000737103
0.00160162
0.00207134
0.00234642
0.00253176
0.00276616
0.0028647
0.0028647
0.00257554
0.0014845
0.000608274
0.000838624
0.00043384
0.00101341
0.00101811
0.00101811
0.000943646
0.000928909
0.00103829
0.00130456
0.00187537
0.00225836
0.00251327
0.00267521
0.00280636
0.00280636
0.00276637
0.0023018
0.00118957
0.000560089
0.000420161
0.000248104
0.000942176
0.000942176
0.000914874
0.00104159
0.00127982
0.0015735
0.00189864
0.00223561
0.00252679
0.00269616
0.00277335
0.00277335
0.00272887
0.00253752
0.00191937
0.00107526
0.000656221
0.000377982
0.000173095
0.000844487
0.000844487
0.000972474
0.00127406
0.001644
0.0020455
0.00240581
0.00267339
0.00283127
0.00286737
0.00286737
0.00276713
0.00252236
0.00215659
0.00141541
0.00082508
0.000630873
0.00031889
0.000200586
0.000821683
0.000910062
0.00117041
0.00156601
0.00198827
0.00238782
0.0027076
0.00289407
0.00293971
0.00293971
0.00281231
0.00253426
0.00218032
0.0015684
0.000985365
0.000545647
0.000446884
0.000360163
0.000320049
0.000708623
0.000887622
0.0012598
0.00170027
0.00212067
0.00248962
0.00275187
0.00287983
0.00287983
0.00283156
0.00253709
0.00206687
0.00157788
0.000815707
0.000625742
0.000590072
0.000430591
0.000438055
0.000472504
0.00077459
0.00103184
0.00144996
0.0018665
0.00222899
0.00251766
0.00269534
0.00274952
0.00274952
0.0025501
0.0020118
0.00136457
0.000862502
0.000392402
0.000516982
0.000590072
0.000422536
0.000498669
0.000685544
0.000701558
0.00103697
0.00148281
0.00186015
0.00214384
0.00234103
0.00243996
0.00243996
0.0023692
0.00193378
0.00128118
0.000781503
0.00049422
0.000300205
0.000287053
0.000441585
0.000452115
0.000719014
0.000954518
0.000853384
0.00117351
0.00158248
0.0018936
0.00207161
0.00215556
0.00215556
0.00210073
0.00174154
0.00112685
0.000703084
0.000549961
0.000424849
0.000337743
0.000407577
0.00045389
0.000632717
0.000886275
0.00105447
0.000874337
0.00113765
0.00151959
0.00178964
0.00183581
0.00183581
0.00173045
0.00149713
0.000980001
0.000548714
0.000427201
0.000411491
0.000315486
0.000465509
0.000484094
0.000484094
0.000535894
0.0010651
0.0010651
)
;

boundaryField
{
    leftWall
    {
        type            calculated;
        value           uniform 0;
    }
    rightWall
    {
        type            calculated;
        value           uniform 0;
    }
    lowerWall
    {
        type            calculated;
        value           uniform 0;
    }
    atmosphere
    {
        type            calculated;
        value           uniform 0;
    }
    defaultFaces
    {
        type            empty;
    }
}


// ************************************************************************* //
