/*--------------------------------*- C++ -*----------------------------------*\
| =========                 |                                                 |
| \\      /  F ield         | OpenFOAM: The Open Source CFD Toolbox           |
|  \\    /   O peration     | Version:  2012                                  |
|   \\  /    A nd           | Website:  www.openfoam.com                      |
|    \\/     M anipulation  |                                                 |
\*---------------------------------------------------------------------------*/
FoamFile
{
    version     2.0;
    format      ascii;
    class       surfaceScalarField;
    location    "0.47";
    object      phi;
}
// * * * * * * * * * * * * * * * * * * * * * * * * * * * * * * * * * * * * * //

dimensions      [0 3 -1 0 0 0 0];
oriented        oriented;


internalField   nonuniform List<scalar> 
4432
(
2.69606e-06
-2.69606e-06
5.44904e-06
-2.75299e-06
7.9971e-06
-2.54806e-06
1.04583e-05
-2.46125e-06
1.29478e-05
-2.48947e-06
1.55007e-05
-2.55283e-06
1.76575e-05
-2.15681e-06
1.96614e-05
-2.0039e-06
2.1531e-05
-1.86968e-06
2.30083e-05
-1.47727e-06
2.42873e-05
-1.27904e-06
2.53401e-05
-1.05276e-06
2.61665e-05
-8.26424e-07
2.64476e-05
-2.8106e-07
2.61891e-05
2.58442e-07
2.5551e-05
6.38164e-07
2.44326e-05
1.11838e-06
2.27697e-05
1.6629e-06
2.03914e-05
2.37823e-06
1.69912e-05
3.40021e-06
1.27241e-05
4.26711e-06
7.35183e-06
5.37221e-06
7.35165e-06
2.68552e-06
-5.38158e-06
5.44631e-06
-5.51377e-06
8.01987e-06
-5.12162e-06
1.04964e-05
-4.93775e-06
1.29835e-05
-4.97663e-06
1.55194e-05
-5.08872e-06
1.76769e-05
-4.31431e-06
1.97059e-05
-4.03292e-06
2.15864e-05
-3.75018e-06
2.30345e-05
-2.92537e-06
2.43784e-05
-2.6229e-06
2.54455e-05
-2.11984e-06
2.61684e-05
-1.5494e-06
2.64829e-05
-5.95492e-07
2.63046e-05
4.3673e-07
2.56995e-05
1.24326e-06
2.4569e-05
2.24883e-06
2.27981e-05
3.43378e-06
2.02421e-05
4.93424e-06
1.65872e-05
7.05507e-06
1.18599e-05
8.99437e-06
5.79935e-06
1.14328e-05
1.31508e-05
2.67612e-06
-8.0577e-06
5.45506e-06
-8.29271e-06
8.06238e-06
-7.72894e-06
1.0562e-05
-7.43737e-06
1.30492e-05
-7.46382e-06
1.55561e-05
-7.59566e-06
1.77214e-05
-6.47955e-06
1.98085e-05
-6.12006e-06
2.17017e-05
-5.6434e-06
2.31946e-05
-4.41827e-06
2.4582e-05
-4.01032e-06
2.56543e-05
-3.19206e-06
2.63226e-05
-2.21774e-06
2.66714e-05
-9.44286e-07
2.66486e-05
4.59478e-07
2.61409e-05
1.75096e-06
2.51047e-05
3.285e-06
2.35178e-05
5.0207e-06
2.12514e-05
7.20067e-06
1.79564e-05
1.035e-05
1.35717e-05
1.3379e-05
7.26107e-06
1.77434e-05
2.04117e-05
2.67501e-06
-1.07327e-05
5.48276e-06
-1.11005e-05
8.12205e-06
-1.03682e-05
1.06527e-05
-9.96797e-06
1.31469e-05
-9.95807e-06
1.56173e-05
-1.00661e-05
1.77909e-05
-8.65316e-06
1.99369e-05
-8.26599e-06
2.18332e-05
-7.53978e-06
2.33672e-05
-5.95225e-06
2.47684e-05
-5.41145e-06
2.57959e-05
-4.21964e-06
2.64772e-05
-2.89902e-06
2.68508e-05
-1.31791e-06
2.68654e-05
4.4491e-07
2.63774e-05
2.23891e-06
2.53107e-05
4.35172e-06
2.36026e-05
6.72877e-06
2.1243e-05
9.56031e-06
1.78871e-05
1.37059e-05
1.35001e-05
1.7766e-05
7.07433e-06
2.41692e-05
2.7486e-05
2.68291e-06
-1.34156e-05
5.51628e-06
-1.39338e-05
8.18433e-06
-1.30363e-05
1.07543e-05
-1.2538e-05
1.32705e-05
-1.24742e-05
1.57147e-05
-1.25103e-05
1.79203e-05
-1.08588e-05
2.01452e-05
-1.04909e-05
2.20521e-05
-9.44668e-06
2.36644e-05
-7.56457e-06
2.5114e-05
-6.86103e-06
2.61633e-05
-5.26893e-06
2.69056e-05
-3.64135e-06
2.73204e-05
-1.7327e-06
2.73845e-05
3.8078e-07
2.70215e-05
2.60196e-06
2.6165e-05
5.2082e-06
2.47551e-05
8.13862e-06
2.27461e-05
1.15693e-05
1.97902e-05
1.66618e-05
1.57879e-05
2.17682e-05
9.18089e-06
3.07762e-05
3.66669e-05
2.71705e-06
-1.61327e-05
5.54394e-06
-1.67607e-05
8.25439e-06
-1.57467e-05
1.08781e-05
-1.51616e-05
1.34233e-05
-1.50195e-05
1.58539e-05
-1.49409e-05
1.81053e-05
-1.31102e-05
2.03693e-05
-1.27548e-05
2.22491e-05
-1.13265e-05
2.39124e-05
-9.22782e-06
2.54117e-05
-8.36033e-06
2.64285e-05
-6.28573e-06
2.71877e-05
-4.40054e-06
2.76337e-05
-2.17872e-06
2.77266e-05
2.87835e-07
2.74015e-05
2.92706e-06
2.65824e-05
6.0273e-06
2.51543e-05
9.56668e-06
2.31338e-05
1.35897e-05
2.009e-05
1.97056e-05
1.60889e-05
2.57694e-05
9.22726e-06
3.76377e-05
4.58941e-05
2.76819e-06
-1.89009e-05
5.56008e-06
-1.95526e-05
8.31977e-06
-1.85064e-05
1.10079e-05
-1.78498e-05
1.35934e-05
-1.7605e-05
1.60343e-05
-1.73817e-05
1.83608e-05
-1.54367e-05
2.06664e-05
-1.50605e-05
2.25551e-05
-1.32152e-05
2.43656e-05
-1.10383e-05
2.59369e-05
-9.93165e-06
2.70231e-05
-7.37193e-06
2.78621e-05
-5.23957e-06
2.83438e-05
-2.66039e-06
2.8446e-05
1.85613e-07
2.81965e-05
3.17653e-06
2.75894e-05
6.63438e-06
2.65506e-05
1.06055e-05
2.50954e-05
1.5045e-05
2.27583e-05
2.20427e-05
1.95988e-05
2.89289e-05
1.2724e-05
4.45125e-05
5.86181e-05
2.83955e-06
-2.17404e-05
5.60561e-06
-2.23187e-05
8.40539e-06
-2.13062e-05
1.11707e-05
-2.06151e-05
1.37999e-05
-2.02341e-05
1.62585e-05
-1.98404e-05
1.86538e-05
-1.78319e-05
2.09486e-05
-1.73554e-05
2.28382e-05
-1.51048e-05
2.47816e-05
-1.29816e-05
2.6358e-05
-1.15081e-05
2.74428e-05
-8.45676e-06
2.83263e-05
-6.12305e-06
2.88108e-05
-3.14486e-06
2.89628e-05
3.35245e-08
2.87799e-05
3.35948e-06
2.82961e-05
7.11822e-06
2.73273e-05
1.15743e-05
2.5989e-05
1.63832e-05
2.36372e-05
2.43945e-05
2.05598e-05
3.20063e-05
1.36745e-05
5.13977e-05
7.22926e-05
-3.70822e-06
2.16236e-06
-7.21246e-06
1.95829e-06
-5.11831e-06
-3.64083e-06
-2.25263e-06
-4.41254e-06
-2.70137e-06
-1.09867e-06
-1.44623e-05
1.02132e-05
-3.75847e-05
2.1574e-05
-8.93737e-05
5.02294e-05
-0.000180587
8.96355e-05
-0.000273462
9.13699e-05
-0.000310211
3.52724e-05
-0.000289668
-2.20847e-05
-0.000256331
-3.49725e-05
-0.000247966
-1.04169e-05
-0.000236395
-1.30124e-05
-0.000205653
-3.16187e-05
-0.000155637
-5.07802e-05
-8.55789e-05
-7.05934e-05
-8.62773e-05
-4.16483e-06
4.78138e-06
-8.22617e-06
4.47375e-06
-6.2817e-06
-7.13198e-06
-1.669e-06
-1.05721e-05
-1.33745e-06
-2.97763e-06
-1.30272e-05
2.03553e-05
-3.53595e-05
4.23582e-05
-7.873e-05
9.20438e-05
-0.000150083
0.000159415
-0.00023117
0.000170945
-0.000270855
7.34592e-05
-0.000264731
-2.98002e-05
-0.000235303
-6.61328e-05
-0.000210578
-3.71387e-05
-0.000183087
-4.25782e-05
-0.000153515
-6.31884e-05
-0.000117276
-8.85485e-05
-6.05447e-05
-0.000128159
-0.000147707
-5.90381e-06
9.13947e-06
-9.89853e-06
6.92268e-06
-6.8664e-06
-1.17107e-05
3.12218e-07
-1.92975e-05
2.69635e-06
-6.90918e-06
-6.18e-06
2.7684e-05
-2.16982e-05
5.63286e-05
-4.96554e-05
0.00011845
-9.7195e-05
0.000205389
-0.000170771
0.000243
-0.000229678
0.000130844
-0.000258849
-2.2099e-06
-0.000268146
-5.83796e-05
-0.000260191
-4.66383e-05
-0.000218012
-8.63538e-05
-0.000146599
-0.000136231
-8.64256e-05
-0.000150346
-3.71071e-05
-0.000179285
-0.000185579
-6.06753e-06
1.36615e-05
-1.10567e-05
1.03663e-05
-8.70557e-06
-1.56086e-05
2.11906e-06
-3.1669e-05
7.57647e-06
-1.3914e-05
5.86551e-07
3.31264e-05
-1.037e-05
6.57375e-05
-2.58378e-05
0.000132369
-3.71757e-05
0.000215171
-6.89809e-05
0.000273265
-0.000109778
0.000170105
-0.000146187
3.26513e-05
-0.000176701
-2.94163e-05
-0.000190852
-3.40264e-05
-0.00017671
-0.000101998
-0.000136171
-0.000178216
-8.13672e-05
-0.000206888
-2.99322e-05
-0.000232765
-0.000217855
-8.59915e-06
2.07153e-05
-1.55182e-05
1.574e-05
-1.08075e-05
-2.1866e-05
5.51219e-06
-4.95367e-05
1.39383e-05
-2.38876e-05
8.97081e-06
3.65465e-05
7.84389e-07
7.23763e-05
-7.31677e-06
0.000138922
-3.0419e-06
0.000209347
-7.63882e-06
0.000276311
-3.97889e-05
0.00020071
-8.52053e-05
7.65235e-05
-0.000114747
-1.4301e-06
-0.000125175
-2.51499e-05
-0.000128763
-9.99541e-05
-0.00014746
-0.000161051
-0.000171281
-0.000184886
-0.000112062
-0.000293821
-0.000332177
-7.6456e-06
2.68161e-05
-1.36938e-05
2.02429e-05
-8.35889e-06
-2.8751e-05
1.05224e-05
-6.99659e-05
2.21581e-05
-3.70716e-05
1.84212e-05
3.87361e-05
1.14723e-05
7.77778e-05
6.61772e-06
0.00014223
1.6498e-05
0.000197919
2.81232e-05
0.000263134
1.44301e-05
0.000212854
-2.73919e-05
0.000116798
-6.33336e-05
3.29616e-05
-7.41707e-05
-1.58643e-05
-7.57651e-05
-9.99073e-05
-9.55868e-05
-0.000142771
-9.56146e-05
-0.000186495
-4.27201e-05
-0.00034871
-0.000376559
-9.98083e-06
3.52519e-05
-3.80438e-07
9.09725e-06
1.67106e-05
-4.73978e-05
2.51098e-05
-7.99043e-05
3.10222e-05
-4.45311e-05
2.75655e-05
4.06455e-05
2.03819e-05
8.34141e-05
1.73907e-05
0.000143674
2.82152e-05
0.000185547
4.26636e-05
0.000247137
3.77894e-05
0.000216183
9.80756e-06
0.000143231
-2.17123e-05
6.29325e-05
-2.59828e-05
-1.31449e-05
-2.06776e-05
-0.000106761
-1.81146e-05
-0.000146883
-1.24788e-05
-0.000193679
-6.03835e-06
-0.000357129
-0.000383375
9.48195e-06
2.42064e-05
2.8194e-05
-1.11762e-05
3.91645e-05
-6.01019e-05
3.52298e-05
-7.76943e-05
3.77836e-05
-4.87321e-05
3.84282e-05
3.8451e-05
3.0117e-05
9.01787e-05
2.77672e-05
0.000144477
3.76528e-05
0.000174115
5.51397e-05
0.000228102
6.09157e-05
0.000208861
4.95609e-05
0.00015304
2.73531e-05
8.35922e-05
1.62322e-05
-3.57352e-06
1.05394e-05
-0.000102615
1.26111e-05
-0.000150502
1.03867e-05
-0.000193002
-4.2148e-07
-0.000348102
-0.000384391
6.2229e-06
-2.79634e-05
1.21169e-05
-2.82127e-05
1.81725e-05
-2.73618e-05
2.42479e-05
-2.66906e-05
2.99996e-05
-2.5986e-05
3.5359e-05
-2.51998e-05
4.07315e-05
-2.32045e-05
4.57381e-05
-2.2362e-05
5.01079e-05
-1.94747e-05
5.471e-05
-1.75837e-05
5.81783e-05
-1.49764e-05
6.10078e-05
-1.12863e-05
6.31263e-05
-8.2415e-06
6.4362e-05
-4.38058e-06
6.46895e-05
-2.93987e-07
6.45162e-05
3.53276e-06
6.37574e-05
7.87701e-06
6.385e-05
1.14816e-05
6.42245e-05
1.60087e-05
6.68916e-05
2.17273e-05
7.10516e-05
2.78462e-05
8.1766e-05
4.06833e-05
5.8039e-05
9.60187e-05
6.51331e-06
-3.4522e-05
1.24519e-05
-3.41965e-05
1.87032e-05
-3.36567e-05
2.50693e-05
-3.30987e-05
3.10457e-05
-3.20021e-05
3.66489e-05
-3.084e-05
4.23341e-05
-2.89225e-05
4.74695e-05
-2.75262e-05
5.21845e-05
-2.4213e-05
5.66541e-05
-2.20713e-05
5.99334e-05
-1.8268e-05
6.31792e-05
-1.45395e-05
6.54109e-05
-1.04767e-05
6.68857e-05
-5.85665e-06
6.77168e-05
-1.12563e-06
6.79318e-05
3.31778e-06
6.74251e-05
8.38364e-06
6.68211e-05
1.20856e-05
6.61552e-05
1.66746e-05
6.82573e-05
1.96253e-05
7.24031e-05
2.37003e-05
8.40651e-05
2.90212e-05
3.92287e-05
0.000102874
6.78656e-06
-4.13528e-05
1.2501e-05
-3.99546e-05
1.89165e-05
-4.01176e-05
2.54416e-05
-3.96697e-05
3.14458e-05
-3.80539e-05
3.71097e-05
-3.65533e-05
4.29182e-05
-3.47848e-05
4.82126e-05
-3.28762e-05
5.33335e-05
-2.9396e-05
5.80617e-05
-2.68651e-05
6.23345e-05
-2.26129e-05
6.67331e-05
-1.90138e-05
6.94783e-05
-1.33015e-05
7.19406e-05
-8.39682e-06
7.32996e-05
-2.54487e-06
7.38111e-05
2.77253e-06
7.31241e-05
9.0655e-06
7.18887e-05
1.44983e-05
7.19297e-05
1.66336e-05
7.50912e-05
1.64637e-05
8.03109e-05
1.84807e-05
8.95696e-05
1.97624e-05
2.51867e-05
0.000103612
3.53976e-06
-4.49094e-05
7.02811e-06
-4.34599e-05
1.04638e-05
-4.35703e-05
1.40102e-05
-4.32332e-05
1.73828e-05
-4.14437e-05
2.08511e-05
-4.00391e-05
2.38827e-05
-3.78341e-05
2.67589e-05
-3.57705e-05
2.88128e-05
-3.14681e-05
3.07784e-05
-2.88494e-05
2.99144e-05
-2.17677e-05
2.85594e-05
-1.76781e-05
1.9848e-05
-4.60968e-06
2.3112e-05
-1.16801e-05
4.70956e-05
-2.65515e-05
6.15712e-05
-1.17227e-05
6.66396e-05
3.96571e-06
6.76382e-05
1.34341e-05
7.15479e-05
1.26406e-05
7.66703e-05
1.1334e-05
8.12253e-05
1.49118e-05
8.74527e-05
1.35349e-05
1.54063e-05
9.7234e-05
1.14822e-06
-4.60745e-05
3.05909e-06
-4.53876e-05
4.36741e-06
-4.48956e-05
5.65433e-06
-4.45371e-05
7.17933e-06
-4.29858e-05
8.80029e-06
-4.16773e-05
1.01969e-05
-3.92481e-05
1.18559e-05
-3.74471e-05
1.37431e-05
-3.33731e-05
1.66011e-05
-3.17254e-05
2.04059e-05
-2.55907e-05
2.62872e-05
-2.3578e-05
3.27155e-05
-1.10567e-05
4.14966e-05
-2.04805e-05
4.58256e-05
-3.09001e-05
5.22788e-05
-1.81959e-05
5.77328e-05
-1.502e-06
5.53795e-05
1.57919e-05
6.12096e-05
6.82289e-06
6.87064e-05
3.80893e-06
7.6626e-05
6.89541e-06
8.59642e-05
4.07852e-06
6.29939e-06
9.50612e-05
9.43787e-07
-4.70349e-05
2.21721e-06
-4.66777e-05
3.18391e-06
-4.5879e-05
4.06643e-06
-4.54365e-05
4.93622e-06
-4.38725e-05
5.7545e-06
-4.25127e-05
6.55213e-06
-4.00629e-05
7.67884e-06
-3.85912e-05
9.4831e-06
-3.5195e-05
1.21638e-05
-3.4424e-05
1.81327e-05
-3.15778e-05
2.66346e-05
-3.20984e-05
4.24096e-05
-2.68505e-05
4.99279e-05
-2.80178e-05
4.32919e-05
-2.42838e-05
4.43898e-05
-1.93139e-05
5.45876e-05
-1.17207e-05
6.42605e-05
6.09906e-06
6.67718e-05
4.29378e-06
6.27542e-05
7.81054e-06
6.11456e-05
8.50062e-06
6.93079e-05
-4.10007e-06
-4.69968e-06
8.02063e-05
1.26735e-06
-4.83187e-05
2.61789e-06
-4.80447e-05
3.91028e-06
-4.7188e-05
5.17777e-06
-4.67206e-05
6.545e-06
-4.52565e-05
8.15526e-06
-4.41398e-05
9.86406e-06
-4.17888e-05
1.19672e-05
-4.07116e-05
1.44016e-05
-3.76469e-05
1.69414e-05
-3.69815e-05
1.99241e-05
-3.45785e-05
2.29411e-05
-3.51337e-05
2.72108e-05
-3.11388e-05
3.15029e-05
-3.2329e-05
3.9444e-05
-3.22444e-05
4.69515e-05
-2.68413e-05
5.7249e-05
-2.20386e-05
7.49037e-05
-1.15765e-05
8.74927e-05
-8.31684e-06
9.30849e-05
2.19616e-06
8.8527e-05
1.30367e-05
7.86352e-05
5.76658e-06
-8.32511e-07
7.47394e-05
1.40223e-06
-4.97373e-05
2.74307e-06
-4.94019e-05
4.28902e-06
-4.87503e-05
5.82927e-06
-4.82774e-05
7.5418e-06
-4.69857e-05
9.4938e-06
-4.61086e-05
1.16612e-05
-4.39731e-05
1.4066e-05
-4.31336e-05
1.69419e-05
-4.05402e-05
1.96306e-05
-3.96878e-05
2.3014e-05
-3.79799e-05
2.60897e-05
-3.82275e-05
3.04103e-05
-3.54779e-05
3.31582e-05
-3.50958e-05
3.35056e-05
-3.26112e-05
3.66683e-05
-3.00238e-05
4.20576e-05
-2.74483e-05
5.17202e-05
-2.126e-05
6.56105e-05
-2.22286e-05
8.42409e-05
-1.64564e-05
0.000103051
-5.79653e-06
0.000113248
-4.45362e-06
-3.58817e-06
0.000115979
1.7679e-06
-5.15214e-05
3.58182e-06
-5.12321e-05
5.5383e-06
-5.07231e-05
7.52286e-06
-5.02783e-05
9.56918e-06
-4.90485e-05
1.18028e-05
-4.83588e-05
1.41602e-05
-4.63473e-05
1.65403e-05
-4.55307e-05
1.91081e-05
-4.31252e-05
2.12919e-05
-4.1889e-05
2.32636e-05
-3.99693e-05
2.47606e-05
-3.97425e-05
2.69466e-05
-3.76823e-05
2.9029e-05
-3.71971e-05
3.2495e-05
-3.60963e-05
3.6018e-05
-3.35664e-05
3.99546e-05
-3.14051e-05
4.6174e-05
-2.75e-05
5.07956e-05
-2.68715e-05
5.87665e-05
-2.44493e-05
7.50721e-05
-2.21248e-05
9.43668e-05
-2.3772e-05
-1.92552e-05
0.000110009
2.01052e-06
-5.35479e-05
4.10152e-06
-5.33391e-05
6.19402e-06
-5.28317e-05
8.33918e-06
-5.24396e-05
1.05146e-05
-5.12402e-05
1.28323e-05
-5.06929e-05
1.53697e-05
-4.89014e-05
1.79753e-05
-4.8153e-05
2.09647e-05
-4.61316e-05
2.3866e-05
-4.48076e-05
2.6666e-05
-4.27868e-05
2.90015e-05
-4.20959e-05
3.14036e-05
-4.01025e-05
3.35489e-05
-3.93609e-05
3.50659e-05
-3.76323e-05
3.73641e-05
-3.5884e-05
4.00368e-05
-3.40977e-05
4.36847e-05
-3.11684e-05
4.74258e-05
-3.06336e-05
5.21512e-05
-2.91964e-05
5.6949e-05
-2.69449e-05
6.23096e-05
-2.91557e-05
-2.88756e-05
7.19061e-05
2.29313e-06
-5.58569e-05
4.62761e-06
-5.56895e-05
6.98039e-06
-5.52004e-05
9.36783e-06
-5.48431e-05
1.18119e-05
-5.37003e-05
1.43166e-05
-5.32139e-05
1.69859e-05
-5.1587e-05
1.96048e-05
-5.07884e-05
2.25193e-05
-4.90629e-05
2.54383e-05
-4.77436e-05
2.84656e-05
-4.58314e-05
3.11622e-05
-4.481e-05
3.39847e-05
-4.2943e-05
3.65559e-05
-4.19504e-05
3.92564e-05
-4.03515e-05
4.19931e-05
-3.864e-05
4.45947e-05
-3.67189e-05
4.7641e-05
-3.42349e-05
4.94451e-05
-3.24585e-05
5.12488e-05
-3.10214e-05
5.33368e-05
-2.9055e-05
5.41445e-05
-2.99862e-05
-2.82709e-05
5.35162e-05
2.4276e-06
-5.83001e-05
4.86648e-06
-5.8144e-05
7.32873e-06
-5.76784e-05
9.84039e-06
-5.73705e-05
1.24366e-05
-5.63124e-05
1.50955e-05
-5.58888e-05
1.79255e-05
-5.44332e-05
2.07698e-05
-5.36491e-05
2.38385e-05
-5.21481e-05
2.7051e-05
-5.0973e-05
3.04268e-05
-4.92242e-05
3.36818e-05
-4.80824e-05
3.68796e-05
-4.61585e-05
3.97707e-05
-4.48595e-05
4.23542e-05
-4.29535e-05
4.49103e-05
-4.12149e-05
4.73333e-05
-3.91612e-05
4.98995e-05
-3.6821e-05
5.23918e-05
-3.49712e-05
5.45471e-05
-3.31977e-05
5.58729e-05
-3.04023e-05
5.59182e-05
-3.00538e-05
-2.76645e-05
5.52889e-05
2.72599e-06
-6.10415e-05
5.46671e-06
-6.09001e-05
8.21978e-06
-6.04469e-05
1.10013e-05
-6.01675e-05
1.38346e-05
-5.91613e-05
1.66607e-05
-5.87306e-05
1.95962e-05
-5.73845e-05
2.2455e-05
-5.6524e-05
2.54504e-05
-5.51598e-05
2.84198e-05
-5.39589e-05
3.15582e-05
-5.23794e-05
3.45716e-05
-5.1113e-05
3.77127e-05
-4.93169e-05
4.06778e-05
-4.78424e-05
4.36271e-05
-4.59209e-05
4.64652e-05
-4.40716e-05
4.91081e-05
-4.1823e-05
5.17843e-05
-3.95167e-05
5.4041e-05
-3.72479e-05
5.57797e-05
-3.4957e-05
5.71375e-05
-3.17814e-05
5.7444e-05
-3.03822e-05
-2.6339e-05
5.60959e-05
2.83608e-06
-6.38927e-05
5.69654e-06
-6.37757e-05
8.60034e-06
-6.33658e-05
1.15317e-05
-6.31142e-05
1.4526e-05
-6.21709e-05
1.7521e-05
-6.17411e-05
2.06292e-05
-6.05083e-05
2.37143e-05
-5.96248e-05
2.68679e-05
-5.83294e-05
3.00062e-05
-5.71134e-05
3.31618e-05
-5.55515e-05
3.6256e-05
-5.42239e-05
3.9325e-05
-5.2403e-05
4.22715e-05
-5.08062e-05
4.51049e-05
-4.8772e-05
4.78016e-05
-4.67865e-05
5.04517e-05
-4.44917e-05
5.29895e-05
-4.20735e-05
5.53988e-05
-3.96767e-05
5.74207e-05
-3.69989e-05
5.93618e-05
-3.37431e-05
6.055e-05
-3.15915e-05
-2.6996e-05
6.11853e-05
3.07249e-06
-6.69799e-05
6.16147e-06
-6.68795e-05
9.25546e-06
-6.64747e-05
1.23595e-05
-6.62332e-05
1.55004e-05
-6.53268e-05
1.86046e-05
-6.48604e-05
2.17961e-05
-6.37151e-05
2.49537e-05
-6.27979e-05
2.82016e-05
-6.1593e-05
3.14246e-05
-6.03522e-05
3.47431e-05
-5.8886e-05
3.79498e-05
-5.7447e-05
4.12007e-05
-5.56705e-05
4.43477e-05
-5.39703e-05
4.74789e-05
-5.19205e-05
5.05128e-05
-4.98381e-05
5.34456e-05
-4.74426e-05
5.62313e-05
-4.48778e-05
5.87528e-05
-4.22173e-05
6.08065e-05
-3.90722e-05
6.26873e-05
-3.5644e-05
6.35713e-05
-3.24962e-05
-2.70853e-05
6.36393e-05
3.2202e-06
-7.02146e-05
6.45417e-06
-7.01279e-05
9.67337e-06
-6.97084e-05
1.29027e-05
-6.94771e-05
1.61693e-05
-6.86081e-05
1.94174e-05
-6.81233e-05
2.27329e-05
-6.70456e-05
2.60316e-05
-6.61117e-05
2.93661e-05
-6.49427e-05
3.26792e-05
-6.36808e-05
3.60183e-05
-6.22409e-05
3.93356e-05
-6.07803e-05
4.26517e-05
-5.90028e-05
4.59057e-05
-5.72409e-05
4.91346e-05
-5.51664e-05
5.22742e-05
-5.2995e-05
5.54065e-05
-5.05925e-05
5.83836e-05
-4.78729e-05
6.12759e-05
-4.51281e-05
6.38241e-05
-4.16393e-05
6.64262e-05
-3.82656e-05
6.82296e-05
-3.43196e-05
-2.87608e-05
6.98846e-05
3.40723e-06
-7.3636e-05
6.81954e-06
-7.35544e-05
1.02305e-05
-7.31336e-05
1.36332e-05
-7.2894e-05
1.70769e-05
-7.20661e-05
2.04881e-05
-7.15489e-05
2.39714e-05
-7.05435e-05
2.74422e-05
-6.95972e-05
3.09669e-05
-6.84823e-05
3.44531e-05
-6.71821e-05
3.79928e-05
-6.57959e-05
4.14868e-05
-6.42898e-05
4.5021e-05
-6.25529e-05
4.8516e-05
-6.0752e-05
5.20064e-05
-5.86733e-05
5.54522e-05
-5.64575e-05
5.88458e-05
-5.40034e-05
6.21339e-05
-5.11785e-05
6.52889e-05
-4.83011e-05
6.81629e-05
-4.45318e-05
7.096e-05
-4.10816e-05
7.29392e-05
-3.63182e-05
-3.08084e-05
7.49669e-05
3.54266e-06
-7.71923e-05
7.08965e-06
-7.71151e-05
1.06217e-05
-7.66794e-05
1.41379e-05
-7.64241e-05
1.76769e-05
-7.5619e-05
2.11826e-05
-7.50687e-05
2.47236e-05
-7.40986e-05
2.8249e-05
-7.3137e-05
3.18149e-05
-7.20627e-05
3.53894e-05
-7.07712e-05
3.90092e-05
-6.94306e-05
4.26249e-05
-6.79206e-05
4.62691e-05
-6.62125e-05
4.99101e-05
-6.44087e-05
5.35684e-05
-6.23476e-05
5.72238e-05
-6.01292e-05
6.08952e-05
-5.76914e-05
6.45454e-05
-5.48457e-05
6.81919e-05
-5.19651e-05
7.17616e-05
-4.81192e-05
7.53571e-05
-4.46952e-05
7.84527e-05
-3.94325e-05
-3.43009e-05
8.19261e-05
3.77323e-06
-8.09789e-05
7.55166e-06
-8.09069e-05
1.13035e-05
-8.04446e-05
1.50313e-05
-8.01653e-05
1.87809e-05
-7.93822e-05
2.24962e-05
-7.87977e-05
2.62487e-05
-7.78648e-05
2.99708e-05
-7.6873e-05
3.37287e-05
-7.58346e-05
3.74763e-05
-7.45332e-05
4.12791e-05
-7.32479e-05
4.50714e-05
-7.17275e-05
4.89149e-05
-7.00709e-05
5.27766e-05
-6.82856e-05
5.66646e-05
-6.6251e-05
6.05848e-05
-6.40652e-05
6.45111e-05
-6.16338e-05
6.84741e-05
-5.88252e-05
7.24179e-05
-5.59256e-05
7.63968e-05
-5.21153e-05
8.03502e-05
-4.86662e-05
8.40688e-05
-4.31691e-05
-3.84033e-05
8.81528e-05
3.83035e-06
-8.48222e-05
7.66542e-06
-8.47549e-05
1.14895e-05
-8.42816e-05
1.52909e-05
-8.39798e-05
1.91229e-05
-8.32273e-05
2.29258e-05
-8.26138e-05
2.6762e-05
-8.17143e-05
3.0592e-05
-8.07165e-05
3.4464e-05
-7.97202e-05
3.83409e-05
-7.84238e-05
4.22698e-05
-7.71908e-05
4.62033e-05
-7.56752e-05
5.01898e-05
-7.40718e-05
5.42182e-05
-7.23287e-05
5.82951e-05
-7.03429e-05
6.24418e-05
-6.82271e-05
6.66645e-05
-6.5872e-05
7.10062e-05
-6.31826e-05
7.54558e-05
-6.03914e-05
8.00957e-05
-5.67718e-05
8.48869e-05
-5.34743e-05
8.9762e-05
-4.80615e-05
-4.37832e-05
9.51242e-05
4.03369e-06
-8.88683e-05
8.07192e-06
-8.88057e-05
1.21071e-05
-8.83294e-05
1.61211e-05
-8.80063e-05
2.01727e-05
-8.72916e-05
2.41951e-05
-8.66489e-05
2.82447e-05
-8.57768e-05
3.22788e-05
-8.47636e-05
3.6361e-05
-8.38155e-05
4.04361e-05
-8.25122e-05
4.45769e-05
-8.13451e-05
4.87166e-05
-7.98285e-05
5.29117e-05
-7.82808e-05
5.71536e-05
-7.65847e-05
6.14197e-05
-7.46234e-05
6.57587e-05
-7.25808e-05
7.01561e-05
-7.02844e-05
7.46905e-05
-6.77323e-05
7.93504e-05
-6.50668e-05
8.43016e-05
-6.17388e-05
8.94785e-05
-5.86675e-05
9.5014e-05
-5.36136e-05
-4.99911e-05
0.000101205
3.99255e-06
-9.28729e-05
7.99009e-06
-9.28152e-05
1.20097e-05
-9.2361e-05
1.60306e-05
-9.20394e-05
2.01165e-05
-9.13896e-05
2.42153e-05
-9.076e-05
2.83796e-05
-8.99535e-05
3.25624e-05
-8.89589e-05
3.68074e-05
-8.80731e-05
4.10587e-05
-8.67764e-05
4.53867e-05
-8.5686e-05
4.97272e-05
-8.41821e-05
5.41387e-05
-8.27056e-05
5.86161e-05
-8.10757e-05
6.31397e-05
-7.91608e-05
6.77564e-05
-7.72115e-05
7.24759e-05
-7.50182e-05
7.73683e-05
-7.26392e-05
8.24708e-05
-7.01843e-05
8.79343e-05
-6.72175e-05
9.37395e-05
-6.44881e-05
0.00010015
-6.00396e-05
-5.72017e-05
0.000107344
4.05857e-06
-9.6943e-05
8.10232e-06
-9.68705e-05
1.22072e-05
-9.64775e-05
1.63205e-05
-9.61644e-05
2.0512e-05
-9.55929e-05
2.47443e-05
-9.50041e-05
2.9068e-05
-9.42891e-05
3.34341e-05
-9.33369e-05
3.78796e-05
-9.25308e-05
4.23504e-05
-9.12594e-05
4.69182e-05
-9.02662e-05
5.14976e-05
-8.87741e-05
5.6161e-05
-8.73819e-05
6.08837e-05
-8.58114e-05
6.56553e-05
-8.39456e-05
7.05178e-05
-8.20875e-05
7.54789e-05
-7.9993e-05
8.06165e-05
-7.77907e-05
8.59647e-05
-7.55467e-05
9.16712e-05
-7.29385e-05
9.77811e-05
-7.06128e-05
0.000104625
-6.68988e-05
-6.493e-05
0.000112338
3.85439e-06
-0.000100808
7.68159e-06
-0.000100709
1.16201e-05
-0.000100427
1.55901e-05
-0.000100146
1.96817e-05
-9.96957e-05
2.38708e-05
-9.92044e-05
2.82033e-05
-9.8633e-05
3.26403e-05
-9.77854e-05
3.71947e-05
-9.70968e-05
4.18376e-05
-9.5914e-05
4.66325e-05
-9.5073e-05
5.15032e-05
-9.36568e-05
5.65294e-05
-9.24203e-05
6.16448e-05
-9.09392e-05
6.68712e-05
-8.91846e-05
7.2195e-05
-8.74242e-05
7.7634e-05
-8.5445e-05
8.32329e-05
-8.34029e-05
8.90301e-05
-8.13574e-05
9.51514e-05
-7.90736e-05
0.00010169
-7.71659e-05
0.00010904
-7.42626e-05
-7.31717e-05
0.000117267
3.69807e-06
-0.000104517
7.36895e-06
-0.00010439
1.11587e-05
-0.000104227
1.4982e-05
-0.00010398
1.89417e-05
-0.000103666
2.30218e-05
-0.000103295
2.72831e-05
-0.000102905
3.17222e-05
-0.000102236
3.63424e-05
-0.000101728
4.10947e-05
-0.000100678
4.60308e-05
-0.00010002
5.10836e-05
-9.87211e-05
5.63498e-05
-9.76982e-05
6.1718e-05
-9.63192e-05
6.72543e-05
-9.47329e-05
7.2904e-05
-9.3086e-05
7.86849e-05
-9.12382e-05
8.46074e-05
-8.93381e-05
9.07126e-05
-8.74755e-05
9.71263e-05
-8.55003e-05
0.000103963
-8.40164e-05
0.000111631
-8.19438e-05
-8.1792e-05
0.000120238
3.36382e-06
-0.000107891
6.72353e-06
-0.00010776
1.01805e-05
-0.000107695
1.36901e-05
-0.000107499
1.73443e-05
-0.000107331
2.11381e-05
-0.000107099
2.5135e-05
-0.000106912
2.93675e-05
-0.000106479
3.38753e-05
-0.000106246
3.86459e-05
-0.000105459
4.36964e-05
-0.000105082
4.89495e-05
-0.000103985
5.44938e-05
-0.000103254
6.01869e-05
-0.000102023
6.61522e-05
-0.00010071
7.22637e-05
-9.92092e-05
7.85662e-05
-9.75525e-05
8.49634e-05
-9.57472e-05
9.1535e-05
-9.40593e-05
9.83607e-05
-9.23384e-05
0.000105582
-9.12499e-05
0.000113618
-8.99927e-05
-9.08172e-05
0.00012263
3.05289e-06
-0.000110953
6.12563e-06
-0.000110842
9.26381e-06
-0.000110842
1.24751e-05
-0.00011072
1.58251e-05
-0.00011069
1.93147e-05
-0.000110599
2.29996e-05
-0.000110607
2.6917e-05
-0.000110406
3.11246e-05
-0.000110464
3.56758e-05
-0.00011002
4.06139e-05
-0.00011003
4.58928e-05
-0.000109274
5.15714e-05
-0.000108943
5.74609e-05
-0.000107924
6.36993e-05
-0.000106959
7.01077e-05
-0.000105628
7.67705e-05
-0.000104226
8.35e-05
-0.000102488
9.04372e-05
-0.000101008
9.75188e-05
-9.94316e-05
0.000104923
-9.86658e-05
0.000113052
-9.81342e-05
-9.99239e-05
0.000122147
2.66483e-06
-0.000113627
5.35749e-06
-0.000113544
8.09732e-06
-0.000113591
1.09181e-05
-0.00011355
1.38672e-05
-0.000113648
1.69556e-05
-0.000113696
2.02433e-05
-0.000113904
2.37685e-05
-0.00011394
2.75814e-05
-0.000114286
3.17421e-05
-0.00011419
3.63069e-05
-0.000114604
4.12985e-05
-0.000114276
4.67979e-05
-0.000114452
5.26561e-05
-0.000113792
5.90236e-05
-0.000113336
6.56607e-05
-0.000112276
7.26372e-05
-0.000111213
7.96948e-05
-0.000109556
8.70241e-05
-0.000108348
9.43616e-05
-0.00010678
0.000101965
-0.00010628
0.000110195
-0.000106376
-0.000109091
0.000119351
2.3319e-06
-0.000115968
4.68925e-06
-0.00011591
7.08572e-06
-0.000115996
9.55867e-06
-0.000116031
1.21489e-05
-0.000116247
1.48713e-05
-0.000116427
1.77893e-05
-0.000116831
2.09362e-05
-0.000117096
2.43661e-05
-0.000117725
2.8133e-05
-0.000117966
3.22707e-05
-0.000118751
3.68259e-05
-0.00011884
4.18799e-05
-0.000119515
4.73799e-05
-0.000119301
5.35033e-05
-0.000119469
6.0023e-05
-0.000118805
6.70356e-05
-0.000118236
7.42706e-05
-0.000116801
8.18169e-05
-0.000115904
8.92e-05
-0.000114173
9.67147e-05
-0.000113805
0.000104554
-0.000114225
-0.000117648
0.0001131
1.96248e-06
-0.000117938
3.94316e-06
-0.000117898
5.95623e-06
-0.000118017
8.03064e-06
-0.000118114
1.02118e-05
-0.000118436
1.25074e-05
-0.000118731
1.49891e-05
-0.00011932
1.76758e-05
-0.000119791
2.06274e-05
-0.000120685
2.38889e-05
-0.000121236
2.74993e-05
-0.00012237
3.15108e-05
-0.00012286
3.59785e-05
-0.000123991
4.08769e-05
-0.000124208
4.63613e-05
-0.000124963
5.22668e-05
-0.00012472
5.87847e-05
-0.000124763
6.57725e-05
-0.000123798
7.31614e-05
-0.000123302
8.04789e-05
-0.0001215
8.79337e-05
-0.00012127
9.53191e-05
-0.00012162
-0.000125548
0.00010321
1.66648e-06
-0.000119612
3.34352e-06
-0.000119583
5.04814e-06
-0.000119729
6.79976e-06
-0.000119873
8.65061e-06
-0.000120294
1.05971e-05
-0.000120685
1.27182e-05
-0.000121449
1.50131e-05
-0.000122093
1.75532e-05
-0.000123232
2.03657e-05
-0.000124056
2.34946e-05
-0.000125506
2.6988e-05
-0.000126361
3.08877e-05
-0.000127899
3.51866e-05
-0.000128515
4.001e-05
-0.000129794
4.52117e-05
-0.00012993
5.09983e-05
-0.000130557
5.71812e-05
-0.00012999
6.36732e-05
-0.000129803
7.03311e-05
-0.000128167
7.72183e-05
-0.000128166
8.35521e-05
-0.000127963
-0.000132078
9.00727e-05
1.36631e-06
-0.000120985
2.73532e-06
-0.000120958
4.12638e-06
-0.000121127
5.5484e-06
-0.000121302
7.05709e-06
-0.00012181
8.63748e-06
-0.000122272
1.037e-05
-0.000123188
1.22376e-05
-0.000123968
1.43198e-05
-0.000125321
1.66193e-05
-0.000126363
1.91939e-05
-0.000128088
2.20646e-05
-0.000129239
2.52735e-05
-0.000131115
2.88236e-05
-0.000132073
3.28121e-05
-0.00013379
3.71297e-05
-0.000134255
4.19311e-05
-0.000135367
4.69599e-05
-0.000135026
5.22398e-05
-0.000135091
5.76825e-05
-0.000133618
6.30529e-05
-0.000133544
6.77326e-05
-0.000132651
-0.000136668
7.23143e-05
1.13906e-06
-0.00012213
2.27757e-06
-0.000122103
3.4367e-06
-0.000122292
4.61699e-06
-0.000122488
5.87222e-06
-0.000123071
7.18156e-06
-0.000123587
8.62134e-06
-0.000124634
1.01635e-05
-0.000125516
1.18916e-05
-0.000127056
1.37806e-05
-0.000128258
1.59018e-05
-0.000130216
1.82396e-05
-0.000131583
2.08511e-05
-0.000133733
2.37159e-05
-0.000134944
2.68913e-05
-0.000136972
3.02867e-05
-0.000137657
3.39904e-05
-0.000139077
3.77915e-05
-0.000138834
4.17395e-05
-0.000139046
4.54844e-05
-0.00013737
4.86059e-05
-0.000136673
5.07844e-05
-0.000134837
-0.000137912
5.20211e-05
9.03436e-07
-0.000123039
1.8076e-06
-0.000123013
2.73116e-06
-0.000123221
3.66825e-06
-0.000123431
4.66174e-06
-0.00012407
5.69196e-06
-0.000124623
6.82056e-06
-0.000125769
8.01753e-06
-0.000126719
9.35335e-06
-0.000128397
1.07905e-05
-0.000129701
1.24032e-05
-0.000131834
1.41481e-05
-0.000133334
1.60893e-05
-0.00013568
1.81782e-05
-0.000137039
2.04566e-05
-0.000139257
2.28408e-05
-0.000140048
2.5368e-05
-0.000141611
2.78313e-05
-0.000141304
3.02076e-05
-0.000141429
3.20914e-05
-0.00013926
3.30785e-05
-0.000137667
3.26217e-05
-0.000134387
-0.000135456
3.01586e-05
7.35576e-07
-0.000123779
1.47302e-06
-0.000123755
2.22502e-06
-0.000123978
2.98472e-06
-0.000124195
3.78377e-06
-0.000124874
4.60727e-06
-0.000125452
5.49839e-06
-0.000126665
6.42978e-06
-0.000127655
7.4542e-06
-0.000129427
8.53432e-06
-0.000130786
9.73259e-06
-0.000133038
1.09892e-05
-0.000134596
1.23674e-05
-0.000137064
1.37832e-05
-0.00013846
1.52679e-05
-0.000140747
1.67143e-05
-0.000141499
1.81092e-05
-0.000143011
1.92121e-05
-0.000142412
1.9971e-05
-0.000142193
1.98892e-05
-0.000139184
1.85697e-05
-0.000136353
1.52254e-05
-0.000131048
-0.000129329
9.09306e-06
5.30678e-07
-0.000124314
1.06582e-06
-0.000124294
1.61083e-06
-0.000124527
2.1596e-06
-0.000124748
2.73086e-06
-0.00012545
3.30995e-06
-0.000126035
3.92375e-06
-0.000127283
4.54824e-06
-0.000128284
5.21916e-06
-0.000130102
5.90407e-06
-0.000131476
6.6439e-06
-0.000133782
7.3855e-06
-0.000135342
8.16418e-06
-0.000137847
8.8982e-06
-0.000139199
9.606e-06
-0.000141459
1.0168e-05
-0.000142066
1.05575e-05
-0.000143405
1.04959e-05
-0.000142356
9.85754e-06
-0.00014156
8.08446e-06
-0.000137416
4.63202e-06
-0.000132905
-1.44174e-06
-0.000124979
-0.00011955
-1.12258e-05
3.92146e-07
-0.00012471
7.8389e-07
-0.00012469
1.17323e-06
-0.00012492
1.55673e-06
-0.000125135
1.94415e-06
-0.000125841
2.32371e-06
-0.000126418
2.71164e-06
-0.000127674
3.08685e-06
-0.000128663
3.46997e-06
-0.000130489
3.83309e-06
-0.000131843
4.19605e-06
-0.000134149
4.51127e-06
-0.000135661
4.78627e-06
-0.000138126
4.94811e-06
-0.000139365
4.98845e-06
-0.000141504
4.7881e-06
-0.00014187
4.2825e-06
-0.000142904
3.18487e-06
-0.000141262
1.25667e-06
-0.000139636
-2.08055e-06
-0.000134083
-7.65903e-06
-0.000127331
-1.67696e-05
-0.000115873
-0.00010548
-3.08442e-05