/*--------------------------------*- C++ -*----------------------------------*\
| =========                 |                                                 |
| \\      /  F ield         | OpenFOAM: The Open Source CFD Toolbox           |
|  \\    /   O peration     | Version:  2012                                  |
|   \\  /    A nd           | Website:  www.openfoam.com                      |
|    \\/     M anipulation  |                                                 |
\*---------------------------------------------------------------------------*/
FoamFile
{
    version     2.0;
    format      ascii;
    class       volScalarField;
    location    "0.47";
    object      rhogh;
}
// * * * * * * * * * * * * * * * * * * * * * * * * * * * * * * * * * * * * * //

dimensions      [1 -1 -2 0 0 0 0];


internalField   nonuniform List<scalar> 
2268
(
-29.4294
-29.4294
-29.4294
-29.4294
-29.4294
-29.4294
-29.4294
-29.4294
-29.4294
-29.4294
-29.4294
-29.4294
-29.4294
-29.4294
-29.4294
-29.4294
-29.4294
-29.4294
-29.4294
-29.4294
-29.4294
-29.4294
-29.4178
-88.2881
-88.2881
-88.2881
-88.2881
-88.2881
-88.2881
-88.2881
-88.2881
-88.2881
-88.2881
-88.2881
-88.2881
-88.2881
-88.2881
-88.2881
-88.2881
-88.2881
-88.2881
-88.2881
-88.2881
-88.2881
-88.2881
-88.2533
-147.147
-147.147
-147.147
-147.147
-147.147
-147.147
-147.147
-147.147
-147.147
-147.147
-147.147
-147.147
-147.147
-147.147
-147.147
-147.147
-147.147
-147.147
-147.147
-147.147
-147.147
-147.147
-147.094
-206.006
-206.006
-206.006
-206.006
-206.006
-206.006
-206.006
-206.006
-206.006
-206.006
-206.006
-206.006
-206.006
-206.006
-206.006
-206.006
-206.006
-206.006
-206.006
-206.006
-206.006
-206.006
-205.994
-264.864
-264.864
-264.864
-264.864
-264.864
-264.864
-264.864
-264.864
-264.864
-264.864
-264.864
-264.864
-264.864
-264.864
-264.864
-264.864
-264.864
-264.864
-264.864
-264.864
-264.864
-264.864
-264.864
-323.723
-323.723
-323.723
-323.723
-323.723
-323.723
-323.723
-323.723
-323.723
-323.723
-323.723
-323.723
-323.723
-323.723
-323.723
-323.723
-323.723
-323.723
-323.723
-323.723
-323.723
-323.723
-323.723
-382.582
-382.582
-382.582
-382.582
-382.582
-382.582
-382.582
-382.582
-382.582
-382.582
-382.582
-382.582
-382.582
-382.582
-382.582
-382.582
-382.582
-382.582
-382.582
-382.582
-382.582
-382.582
-382.582
-441.44
-441.44
-441.44
-441.44
-441.44
-441.44
-441.44
-441.44
-441.44
-441.44
-441.44
-441.44
-441.44
-441.44
-441.44
-441.44
-441.44
-441.44
-441.44
-441.44
-441.44
-441.44
-441.44
-2.55437e-19
-5.21953e-18
-5.03353e-17
-3.28326e-17
-5.2058e-16
-1.88731e-13
-1.35039e-11
-3.32871e-10
-2.08201e-09
-2.98744e-09
-2.84578e-09
-7.09171e-08
-0.00147094
-0.796718
-9.93318
-16.9201
-17.8887
-17.8889
-17.8887
-2.94903e-17
-1.07378e-15
-8.89749e-15
-4.54253e-15
-1.39721e-15
-4.22163e-13
-3.23208e-11
-8.0753e-10
-5.65952e-09
-8.65148e-09
-8.53715e-09
-5.74797e-06
-0.0380661
-0.563179
-1.84454
-5.86339
-23.3734
-45.8464
-53.6794
-2.09746e-15
-5.36942e-14
-3.56933e-13
-2.40644e-13
-2.39029e-14
-1.7893e-13
-2.12189e-11
-6.50976e-10
-5.43489e-09
-9.83059e-08
-7.75626e-05
-0.000257204
-4.67924e-05
-1.09641e-07
-1.11214e-07
-1.09641e-07
-1.11214e-07
-17.6536
-89.4665
-5.54517e-14
-1.07902e-12
-5.44714e-12
-4.41701e-12
-9.58179e-13
-8.66127e-14
-9.27042e-12
-4.04543e-10
-6.23151e-09
-4.22967e-07
-1.38488e-05
-1.61215e-05
-7.10202e-07
-1.15368e-06
-5.3151e-06
-8.36816e-05
-0.112691
-4.70599
-74.7197
-1.63056e-12
-1.19776e-11
-2.62227e-11
-2.71463e-11
-1.83322e-11
-1.24485e-12
-2.01428e-12
-1.9357e-10
-3.45171e-09
-9.23083e-08
-3.29285e-07
-4.95192e-07
-4.62229e-06
-1.29814e-05
-1.4102e-05
-0.00047742
-0.314686
-1.33462
-1.33577
-2.55274e-11
-1.43852e-11
-4.8728e-11
-7.6436e-11
-3.97074e-10
-5.40388e-11
-3.30221e-12
-6.69593e-11
-1.78624e-09
-2.30348e-08
-7.58708e-08
-2.41048e-07
-3.58804e-06
-5.00187e-06
-8.37673e-07
-0.00130986
-0.0688108
-2.31477
-39.2849
-2.01172e-09
-1.70015e-11
-8.28177e-06
-9.04081e-06
-2.41651e-05
-2.28049e-12
-2.28103e-12
-1.88466e-11
-7.8002e-10
-1.25394e-08
-5.7692e-08
-1.70659e-07
-1.64365e-06
-2.84852e-06
-9.3708e-07
-5.23462e-06
-1.09268e-07
-3.29473
-244.811
-5.01497e-10
-0.00250666
-0.373961
-0.268791
-0.119436
-0.00731984
-3.1862e-06
-3.0597e-10
-2.63046e-10
-6.27028e-09
-4.14821e-08
-1.33219e-07
-5.47095e-07
-1.00555e-06
-3.69607e-07
-1.26079e-07
-1.26553e-07
-0.469552
-316.435
-532.229
-532.183
-532.288
-532.36
-532.441
-532.543
-532.731
-532.863
-533.053
-533.205
-533.333
-533.417
-533.454
-533.465
-533.467
-533.467
-533.467
-533.467
-533.467
-533.467
-533.467
-533.467
-533.15
-485.963
-484.602
-489.375
-492.899
-497.839
-504.505
-516.628
-527.609
-545.193
-563.943
-586.634
-610.875
-633.471
-648.649
-655.567
-658.662
-658.662
-658.662
-658.662
-658.662
-658.662
-658.662
-658.255
-51.4528
-51.6166
-54.1494
-56.2404
-60.1309
-65.4847
-74.6768
-84.563
-101.498
-122.159
-152.937
-194.196
-257.29
-353.997
-484.403
-618.821
-758.65
-783.856
-783.856
-783.856
-783.856
-783.856
-783.797
8.99914e-35
-2.26018e-32
-6.06279e-32
3.13164e-30
-4.51783e-30
-6.8647e-29
-6.55942e-28
2.48923e-27
1.3983e-28
6.39914e-29
1.47128e-25
1.63023e-24
-2.64551e-25
3.02265e-25
-12.2593
-54.2621
-150.326
-335.926
-603.223
-885.617
-909.051
-909.051
-909.051
-1.9422e-15
-1.09236e-13
-3.4287e-12
-6.57303e-11
-8.5906e-10
-8.7032e-09
-1.7003e-08
-1.34447e-08
-5.7952e-09
-6.38109e-28
-1.06943e-05
-1.4987e-05
-8.71445e-05
-7.03997e-05
2.5108e-22
-3.37717e-21
-1.09002
-9.12118
-60.6071
-180.471
-405.177
-712.949
-1012.17
-4.87457e-15
-2.72662e-13
-8.48422e-12
-1.56753e-10
-2.05008e-09
-2.15574e-08
-3.80797e-08
-5.64327e-08
-3.81386e-08
3.10441e-27
-0.000146582
-0.00114938
-0.00219042
-0.00213275
-0.00103707
-2.52757e-05
-4.61183e-06
-0.0148211
-0.279126
-2.2794
-11.2136
-68.8494
-226.77
-6.19825e-15
-3.43166e-13
-1.05682e-11
-1.90367e-10
-2.44203e-09
-2.59809e-08
-4.28577e-08
-1.06786e-07
-1.73164e-07
-2.20308e-26
-0.000300829
-0.00314145
-0.00315494
-0.00315425
-0.0016396
-3.67171e-05
-5.10977e-06
-5.10981e-06
-1.39411e-05
-0.000369749
-0.0134321
-0.288553
-3.99901
-6.57973e-15
-3.57873e-13
-1.07717e-11
-1.85015e-10
-2.16949e-09
-2.41122e-08
-2.69161e-08
-1.71065e-07
-6.85128e-07
-5.90659e-25
-0.000296818
-0.000972303
-0.00143866
-0.000346987
-1.8428e-08
-4.12697e-05
-6.1381e-05
-2.086e-05
-4.26912e-06
-9.49499e-05
-0.000334969
-0.000982784
-0.00341863
-4.84225e-15
-2.4648e-13
-6.92527e-12
-1.10116e-10
-1.13552e-09
-1.29463e-08
-8.91208e-09
-2.39247e-07
-1.69857e-06
-9.05952e-06
-2.0061e-08
-2.00644e-08
-2.0061e-08
-2.00644e-08
-2.0061e-08
-4.06869e-05
-7.00076e-05
-6.19212e-05
-5.14691e-06
-9.97961e-05
-9.30577e-11
-0.00251598
-0.0113823
-2.36525e-15
-1.168e-13
-3.19105e-12
-4.94551e-11
-4.79595e-10
-5.34238e-09
-1.62268e-09
-2.7505e-07
-2.40067e-06
-1.1713e-05
-1.69319e-06
-1.75792e-07
-1.79764e-07
-7.9679e-07
-4.30669e-07
-4.14969e-07
-4.44046e-05
-5.47292e-05
-1.79591e-05
-1.00647e-10
-1.0373e-10
-3.54311e-05
-0.00111422
-9.50218e-16
-4.55654e-14
-1.21512e-12
-1.83898e-11
-1.72691e-10
-1.84751e-09
-7.4214e-10
-2.64643e-07
-1.43669e-06
-1.61896e-06
-7.91053e-07
-2.85559e-07
-3.20824e-07
-1.20953e-06
-1.62338e-06
-7.08247e-07
-2.64602e-07
-2.64428e-07
-2.8249e-06
-2.09997e-06
-4.90671e-07
-1.20106e-08
-1.19915e-08
-3.1356e-16
-1.47015e-14
-3.85577e-13
-5.74715e-12
-5.40662e-11
-5.24759e-10
-7.94179e-10
-9.18416e-08
-3.72148e-07
-2.44969e-07
-2.47585e-07
-1.99067e-07
-2.3082e-07
-4.95658e-07
-1.09365e-06
-9.94079e-07
-4.89305e-07
-3.07429e-07
-3.07111e-07
-3.34608e-07
-2.92877e-07
-1.66696e-07
-6.71582e-08
-8.44197e-17
-3.85587e-15
-9.94185e-14
-1.46458e-12
-1.40654e-11
-1.15945e-10
-6.57843e-10
-2.51028e-08
-4.38237e-08
-7.07335e-08
-7.38699e-08
-6.14108e-08
-6.49364e-08
-1.01753e-07
-1.81538e-07
-3.45681e-07
-5.15584e-07
-5.27404e-07
-5.07455e-07
-4.26572e-07
-2.85643e-07
-1.62444e-07
-9.61433e-08
-1.8384e-17
-8.2843e-16
-2.1222e-14
-3.13314e-13
-3.12013e-12
-2.46471e-11
-2.86312e-10
-3.57669e-09
-9.48367e-09
-1.44092e-08
-1.46499e-08
-1.23156e-08
-1.33234e-08
-1.83818e-08
-3.01993e-08
-5.6415e-08
-9.72573e-08
-1.12747e-07
-1.0124e-07
-8.9675e-08
-7.00641e-08
-4.32467e-08
-2.8838e-08
-3.19289e-18
-1.42861e-16
-3.66787e-15
-5.51153e-14
-5.78155e-13
-4.69626e-12
-8.60785e-11
-3.6993e-10
-1.04614e-09
-1.56365e-09
-1.60456e-09
-1.54575e-09
-1.95014e-09
-3.26753e-09
-5.78561e-09
-8.46804e-09
-1.01859e-08
-1.12786e-08
-1.1724e-08
-1.15132e-08
-1.0144e-08
-7.42026e-09
-5.02025e-09
-4.33252e-19
-1.95702e-17
-5.12903e-16
-8.0244e-15
-9.01812e-14
-7.68466e-13
-1.63426e-11
-4.2674e-11
-6.43175e-11
-6.84782e-11
-7.67749e-11
-1.22841e-10
-2.79762e-10
-6.05568e-10
-1.04387e-09
-1.29914e-09
-1.43456e-09
-1.49702e-09
-1.4966e-09
-1.42017e-09
-1.21885e-09
-9.07065e-10
-6.21319e-10
-4.45401e-20
-2.06637e-18
-5.63812e-17
-9.3706e-16
-1.1367e-14
-9.9441e-14
-1.82222e-12
-5.25171e-12
-6.34406e-12
-5.8373e-12
-6.81557e-12
-1.49237e-11
-4.2143e-11
-9.73998e-11
-1.60136e-10
-1.90049e-10
-2.02711e-10
-2.04534e-10
-1.94729e-10
-1.68209e-10
-1.26079e-10
-8.36333e-11
-5.54496e-11
-3.32786e-21
-1.6521e-19
-4.85598e-18
-8.78524e-17
-1.15147e-15
-1.0119e-14
-1.13604e-13
-3.80838e-13
-5.72024e-13
-6.10637e-13
-8.24844e-13
-1.91017e-12
-5.04944e-12
-1.08129e-11
-1.60236e-11
-1.82191e-11
-1.89839e-11
-1.87802e-11
-1.72045e-11
-1.39954e-11
-9.74882e-12
-5.54253e-12
-3.77284e-12
-1.68865e-22
-9.30488e-21
-3.02831e-19
-6.00355e-18
-8.3416e-17
-7.26181e-16
-4.7968e-15
-1.26059e-14
-1.79649e-14
-2.54847e-14
-5.45194e-14
-1.5563e-13
-3.9106e-13
-7.35947e-13
-9.53838e-13
-1.0416e-12
-1.07442e-12
-1.06397e-12
-9.90277e-13
-8.38766e-13
-5.75268e-13
-3.40128e-13
-4.21666e-13
-5.29225e-24
-3.47494e-22
-1.30028e-20
-2.83734e-19
-4.11801e-18
-3.48458e-17
-1.88379e-16
-4.08424e-16
-6.80988e-16
-1.33793e-15
-3.73954e-15
-1.0612e-14
-2.31821e-14
-3.12097e-14
-3.39062e-14
-3.52885e-14
-3.66151e-14
-3.73588e-14
-3.68477e-14
-3.36647e-14
-2.37882e-14
-2.62041e-14
-1.57298e-13
-9.21394e-26
-7.04727e-24
-2.96262e-22
-6.88655e-21
-1.01867e-19
-8.30907e-19
-3.46867e-18
-9.25479e-18
-2.36645e-17
-6.87908e-17
-2.08595e-16
-5.46156e-16
-8.71759e-16
-9.21416e-16
-8.84182e-16
-8.83778e-16
-9.32849e-16
-1.00496e-15
-1.01368e-15
-8.78171e-16
-9.30077e-16
-6.70145e-15
-1.66402e-13
-1.3584e-27
-6.9751e-26
-2.15766e-24
-4.37847e-23
-7.29895e-22
-8.21039e-21
-4.94454e-20
-2.22778e-19
-9.02293e-19
-3.13996e-18
-8.82544e-18
-2.00009e-17
-2.80074e-17
-2.91574e-17
-2.79253e-17
-2.52773e-17
-2.37462e-17
-2.25369e-17
-1.92935e-17
-1.95716e-17
-1.4505e-16
-6.19264e-15
-2.06457e-13
-5.21112e-29
-2.77535e-27
-8.65874e-26
-1.72454e-24
-2.7561e-23
-3.06975e-22
-1.89726e-21
-8.5992e-21
-3.32522e-20
-1.07162e-19
-2.64488e-19
-5.34677e-19
-7.41095e-19
-7.86552e-19
-7.56738e-19
-6.25519e-19
-4.11187e-19
-1.8721e-19
-1.67261e-19
-1.41326e-18
-1.11786e-16
-6.45267e-15
-2.12337e-13
-9.73437e-31
-5.32283e-29
-1.63189e-27
-3.00895e-26
-3.97352e-25
-3.70068e-24
-2.67961e-23
-1.46801e-22
-6.21054e-22
-1.99372e-21
-4.7339e-21
-9.7032e-21
-1.56452e-20
-1.74968e-20
-1.71158e-20
-1.44646e-20
-8.25736e-21
-4.28728e-21
-1.73832e-20
-7.08022e-19
-9.04788e-17
-5.57881e-15
-1.7401e-13
-3.50984e-36
-1.32395e-34
-2.73519e-33
-3.34083e-32
-2.70755e-31
-1.01187e-30
-2.88334e-30
-1.74429e-29
-1.0885e-28
-4.8853e-28
-1.55642e-27
-4.02072e-27
-7.20129e-27
-7.55575e-27
-8.46613e-27
-9.96143e-26
-4.80454e-24
-1.85667e-22
-5.94528e-21
-3.54538e-19
-5.01837e-17
-3.04307e-15
-8.79211e-14
-2.14561e-40
-1.1018e-38
-3.26184e-37
-6.35417e-36
-9.88888e-35
-1.41346e-33
-3.72858e-32
-5.92522e-31
-4.40305e-30
-2.06628e-29
-6.62018e-29
-1.7093e-28
-2.92678e-28
-3.03636e-28
-5.9073e-28
-2.55475e-26
-1.39308e-24
-5.86843e-23
-2.16671e-21
-1.5766e-19
-2.06901e-17
-1.21586e-15
-3.42838e-14
-9.86743e-44
-5.00205e-42
-1.3933e-40
-2.42826e-39
-3.02637e-38
-2.79431e-37
-2.00132e-36
-1.14389e-35
-5.20469e-35
-2.03544e-34
-6.91447e-34
-4.28385e-33
-1.72641e-32
-6.19724e-31
-6.743e-29
-6.0625e-27
-3.58577e-25
-1.67496e-23
-7.26569e-22
-6.06482e-20
-7.22151e-18
-4.17293e-16
-1.17306e-14
-2.47271e-49
-1.65826e-47
-6.13613e-46
-1.46132e-44
-2.53612e-43
-3.38456e-42
-3.59915e-41
-3.19174e-40
-2.3031e-39
-1.45356e-38
-8.60984e-38
-3.38481e-36
-5.8758e-34
-1.01941e-31
-1.28731e-29
-1.27836e-27
-8.16383e-26
-4.3141e-24
-2.22393e-22
-1.98831e-20
-2.10971e-18
-1.20768e-16
-3.51326e-15
-7.09045e-53
-5.25756e-51
-2.12975e-49
-5.62957e-48
-1.0939e-46
-1.68506e-45
-2.12179e-44
-2.31501e-43
-2.10277e-42
-2.07552e-41
-1.2937e-39
-3.33536e-37
-7.30739e-35
-1.45302e-32
-2.07025e-30
-2.28719e-28
-1.59473e-26
-9.77798e-25
-6.04424e-23
-5.42984e-21
-4.96578e-19
-2.81479e-17
-1.1414e-15
-2.60779e-59
-2.46513e-57
-1.39469e-55
-5.73307e-54
-1.84469e-52
-4.81876e-51
-1.01827e-49
-3.09253e-48
-6.34904e-46
-2.51916e-43
-8.63495e-41
-2.84336e-38
-7.31828e-36
-1.68644e-33
-2.76661e-31
-3.44739e-29
-2.6719e-27
-1.95172e-25
-1.47116e-23
-1.30017e-21
-1.05241e-19
-6.79084e-18
-8.22644e-16
-1.38111e-64
-2.20596e-62
-1.95183e-60
-1.16869e-58
-5.26318e-57
-2.78009e-55
-6.84457e-53
-3.83159e-50
-1.9928e-47
-9.93067e-45
-4.18919e-42
-1.67673e-39
-5.27773e-37
-1.44864e-34
-2.85306e-32
-4.20923e-30
-4.09177e-28
-4.29674e-26
-4.80741e-24
-5.23046e-22
-6.36634e-20
-7.21173e-18
-1.87527e-15
-8.10754e-69
-1.93497e-66
-2.45699e-64
-2.12517e-62
-1.91999e-60
-7.27302e-58
-6.03854e-55
-5.24059e-52
-4.04815e-49
-2.94906e-46
-1.84445e-43
-1.03746e-40
-4.80453e-38
-1.87829e-35
-5.98301e-33
-1.52139e-30
-3.3563e-28
-6.81598e-26
-1.30186e-23
-2.23841e-21
-4.42334e-19
-5.86335e-17
-9.88654e-15
-2.15991e-73
-7.94146e-71
-2.39152e-68
-2.68313e-65
-7.99379e-62
-2.01188e-58
-4.01388e-55
-6.12713e-52
-7.68468e-49
-7.46077e-46
-6.12534e-43
-3.95687e-40
-2.27225e-37
-1.06061e-34
-4.40705e-32
-1.42416e-29
-3.93276e-27
-8.34957e-25
-1.54092e-22
-2.7157e-20
-4.81073e-18
-5.66562e-16
-6.70471e-14
-2.00938e-75
-1.60677e-71
-1.23083e-67
-5.96737e-64
-2.03716e-60
-5.08392e-57
-9.87601e-54
-1.45999e-50
-1.74626e-47
-1.61266e-44
-1.24154e-41
-7.49053e-39
-3.95392e-36
-1.71116e-33
-6.60873e-31
-2.03273e-28
-5.33677e-26
-1.07804e-23
-1.85356e-21
-3.25229e-19
-5.13755e-17
-5.44148e-15
-5.09216e-13
-2.80683e-74
-4.39216e-70
-3.24674e-66
-1.51549e-62
-5.01054e-59
-1.21072e-55
-2.26629e-52
-3.23572e-49
-3.709e-46
-3.28162e-43
-2.3883e-40
-1.35887e-37
-6.64538e-35
-2.67119e-32
-9.57356e-30
-2.79722e-27
-6.9621e-25
-1.34374e-22
-2.16087e-20
-3.70127e-18
-5.33263e-16
-5.15421e-14
-4.09206e-12
-7.44683e-73
-1.10736e-68
-8.02327e-65
-3.65551e-61
-1.17039e-57
-2.73222e-54
-4.91585e-51
-6.77532e-48
-7.4593e-45
-6.34088e-42
-4.37582e-39
-2.35963e-36
-1.07395e-33
-4.00798e-31
-1.32482e-28
-3.66502e-26
-8.61888e-24
-1.59467e-21
-2.41453e-19
-3.9299e-17
-5.28633e-15
-4.73638e-13
-3.39229e-11
-1.80414e-71
-2.63622e-67
-1.87069e-63
-8.32045e-60
-2.57899e-56
-5.8057e-53
-1.00035e-49
-1.32667e-46
-1.40498e-43
-1.14965e-40
-7.53557e-38
-3.85996e-35
-1.63997e-32
-5.68285e-30
-1.7164e-27
-4.47199e-25
-9.91229e-23
-1.76153e-20
-2.53846e-18
-3.83671e-16
-4.92222e-14
-3.83625e-12
-1.74227e-10
-4.10381e-70
-5.87911e-66
-4.08309e-62
-1.7747e-58
-5.33307e-55
-1.15815e-51
-1.90555e-48
-2.41604e-45
-2.46144e-42
-1.94152e-39
-1.21004e-36
-5.89168e-34
-2.34149e-31
-7.55318e-29
-2.06858e-26
-5.0167e-24
-1.04511e-21
-1.78497e-19
-2.48834e-17
-2.73292e-15
-2.08724e-13
-1.10266e-11
-3.88293e-10
-8.72717e-69
-1.22185e-64
-8.29315e-61
-3.52596e-57
-1.03002e-53
-2.16533e-50
-3.40587e-47
-4.09952e-44
-4.00072e-41
-3.04511e-38
-1.80591e-35
-8.35596e-33
-3.1081e-30
-9.37051e-28
-2.33677e-25
-4.80774e-23
-8.07125e-21
-1.07903e-18
-1.12635e-16
-8.84948e-15
-5.38139e-13
-2.54849e-11
-8.91106e-10
-1.73559e-67
-2.36464e-63
-1.56437e-59
-6.50686e-56
-1.85256e-52
-3.78959e-49
-5.73833e-46
-6.57891e-43
-5.85427e-40
-3.99402e-37
-2.09322e-34
-8.4479e-32
-2.66088e-29
-6.56584e-27
-1.28376e-24
-2.00796e-22
-2.52171e-20
-2.52268e-18
-2.0113e-16
-1.27992e-14
-6.44236e-13
-2.53725e-11
-7.69374e-10
-2.45253e-66
-3.05615e-62
-1.82361e-58
-6.78668e-55
-1.73465e-51
-3.1987e-48
-4.37317e-45
-4.49707e-42
-3.51616e-39
-2.10797e-36
-9.782e-34
-3.51811e-31
-9.85768e-29
-2.15386e-26
-3.67558e-24
-4.91276e-22
-5.14505e-20
-4.24588e-18
-2.77174e-16
-1.42767e-14
-5.79348e-13
-1.78589e-11
-4.1732e-10
-8.93073e-66
-1.01095e-61
-5.43987e-58
-1.82729e-54
-4.24147e-51
-7.15156e-48
-9.01441e-45
-8.64209e-42
-6.37353e-39
-3.64264e-36
-1.624e-33
-5.67366e-31
-1.55961e-28
-3.38771e-26
-5.82191e-24
-7.96202e-22
-8.66305e-20
-7.53315e-18
-5.23504e-16
-2.91223e-14
-1.29052e-12
-4.46169e-11
-1.16032e-09
-533.149
-533.373
-533.375
-462.655
-658.255
-658.431
-658.547
-657.32
-783.72
-783.674
-783.589
-783.563
-909.051
-909.038
-909.009
-909.013
-1034.2
-1034.25
-1034.25
-1034.23
-374.883
-488.892
-616.98
-790.269
-9.81674
-16.7722
-31.5044
-57.381
-0.00178757
-0.00175647
-0.00175909
-0.00175647
-0.0113798
-0.00854159
-0.00191509
-0.00238372
-0.0012416
-0.000659594
-5.53942e-05
-0.00224469
-4.68e-05
-0.000262919
-5.95734e-05
-2.13732e-09
-2.28719e-09
-2.28719e-09
-2.28719e-09
-2.28719e-09
-4.53166e-08
-1.93651e-08
-9.86373e-09
-4.59159e-09
-2.30944e-08
-2.03798e-08
-1.73729e-08
-1.4218e-08
-3.67276e-09
-3.18624e-09
-2.75443e-09
-2.49426e-09
-4.64211e-10
-3.9115e-10
-3.49164e-10
-3.07124e-10
-4.10084e-11
-3.40512e-11
-3.20947e-11
-3.31258e-11
-3.65193e-12
-3.82505e-12
-4.43063e-12
-5.86183e-12
-6.13772e-13
-9.34266e-13
-1.57903e-12
-2.8464e-12
-3.76272e-13
-6.95563e-13
-1.32218e-12
-2.66188e-12
-4.40096e-13
-8.57391e-13
-1.75845e-12
-4.64447e-12
-5.53641e-13
-1.10308e-12
-2.40501e-12
-6.37155e-12
-5.7131e-13
-1.14937e-12
-2.58223e-12
-7.22902e-12
-4.71986e-13
-9.70053e-13
-2.28422e-12
-6.61535e-12
-2.40218e-13
-5.08795e-13
-1.31548e-12
-4.25157e-12
-9.40539e-14
-2.06677e-13
-6.50282e-13
-2.97384e-12
-3.32073e-14
-9.25072e-14
-5.21926e-13
-4.56984e-12
-1.27866e-14
-7.58919e-14
-1.1943e-12
-1.67632e-11
-9.72625e-15
-1.92955e-13
-4.51518e-12
-6.32506e-11
-2.27349e-14
-6.94456e-13
-1.54518e-11
-1.95048e-10
-8.48907e-14
-2.41597e-12
-4.74761e-11
-5.45206e-10
-3.8685e-13
-9.70126e-12
-1.6719e-10
-1.95418e-09
-2.31848e-12
-5.12982e-11
-8.13625e-10
-1.01376e-08
-1.62233e-11
-3.18783e-10
-4.80065e-09
-5.91337e-08
-1.20293e-10
-2.03975e-09
-2.80469e-08
-3.07765e-07
-9.13403e-10
-1.27237e-08
-1.30735e-07
-1.05849e-06
-3.52955e-09
-3.64168e-08
-2.80572e-07
-2.24869e-06
-6.72649e-09
-6.10422e-08
-4.18513e-07
-3.42982e-06
-1.51546e-08
-1.28771e-07
-8.43879e-07
-9.25266e-06
-1.27677e-08
-1.12908e-07
-1.07156e-06
-4.30156e-05
-5.57712e-09
-4.61997e-08
-9.47453e-07
-0.000166086
-1.51462e-08
-1.02454e-07
-5.89596e-07
-4.92612e-06
-23.106
-36.4003
-89.9839
-38.0277
-2.87246
-0.0106892
-4.05835e-07
-3.29196e-10
-1.56689e-10
-1.76633e-09
-1.65876e-08
-6.43213e-08
-1.96735e-07
-2.98512e-07
-1.78133e-07
-1.52935e-07
-7.84416e-07
2.64922e-25
-382.385
-572.312
-607.073
-603.947
-301.458
-15.9802
-0.0633739
-6.16729e-06
-3.50196e-09
-3.45743e-09
-1.28475e-09
-1.92945e-09
-1.06871e-08
-4.33984e-08
-8.12583e-08
-4.76311e-08
-3.56356e-07
-8.40091e-06
9.33709e-25
-461.897
-783.471
-783.856
-783.856
-660.687
-127.252
-1.29686
-9.88607e-05
-1.88227e-08
-4.00326e-08
-7.26749e-08
-1.41208e-07
-1.723e-07
-1.39078e-07
-7.09182e-08
-5.66833e-08
-7.63129e-06
-3.42515e-05
4.89092e-24
-539.829
-909.035
-909.047
-909.051
-900.37
-374.896
-9.87901
-0.0368534
-2.96201e-06
-7.06072e-08
-3.12197e-07
-1.3838e-06
-1.89127e-06
-1.47891e-06
-7.51723e-08
-1.28928e-05
-4.3847e-05
-4.38277e-05
-2.32055e-23
-631.631
-1034.23
-1034.24
-1034.25
-1034.25
-919.966
-196.139
-1.29886
-0.00708132
-1.05877e-07
-3.06035e-07
-1.79157e-06
-2.53865e-06
-2.35566e-06
-8.5543e-08
-6.7911e-06
-4.89203e-05
-1.14148e-05
-9.75734e-18
-821.651
-1082.62
-1149.14
-1158.56
-1159.41
-1159.44
-962.394
-279.013
-3.79565e-13
-3.74547e-13
-7.19036e-08
-6.01699e-07
-1.07649e-06
-9.40041e-07
-2.14356e-07
-7.07932e-07
-7.53724e-07
-3.70767e-13
-75.5384
-1037.62
-131.788
-340.544
-837
-1255.67
-1284.25
-1284.25
-1154.71
-652.321
-144.078
-4.10856e-13
-4.16668e-13
-4.10761e-13
-4.16668e-13
-4.10761e-13
-4.1667e-13
-4.10761e-13
-4.16598e-13
-635.371
-1253.75
-0.00178757
-0.00178773
-48.0374
-269.543
-777.48
-1375.51
-1408.79
-1408.79
-1208.5
-856.257
-513.317
-443.267
-423.005
-411.828
-430.19
-512.973
-818.925
-1298.63
-1399.13
-0.0197722
-0.00443291
-8.56415e-07
-8.5627e-07
-45.85
-308.771
-792.629
-1285.76
-1499.08
-1515.81
-1515.81
-1505.87
-1496.21
-1488.95
-1490.82
-1498.04
-1518.9
-1526.92
-1526.92
-0.0485552
-0.0596925
-0.0194067
-0.000170879
-1.04875e-06
-3.33049
-35.0275
-223.322
-545.42
-923.772
-1141.05
-1241.67
-1323.51
-1399.27
-1490.24
-1625.52
-1651.45
-1651.45
-1651.45
-0.0469537
-0.0641395
-0.0528313
-0.00395143
-1.12786e-06
-3.18514e-07
-0.083977
-2.11643
-11.4191
-39.0509
-102.021
-175.403
-262.896
-358.489
-509.164
-955.33
-1546.07
-1760.53
-1775.99
-0.00425772
-0.0191322
-0.0153966
-0.00214289
-2.80505e-06
-3.4085e-07
-3.40849e-07
-3.4085e-07
-0.00233301
-0.0280361
-0.235108
-1.51235
-3.62525
-3.62557
-4.48468
-89.8287
-962.191
-1844.32
-1856.82
-2.11128e-09
-2.11125e-09
-1.82851e-05
-0.000251547
-1.97523e-05
-3.63183e-07
-3.63184e-07
-3.76616e-07
-3.7663e-07
-5.18711e-05
-0.124239
-6.84601
-20.283
-52.1983
-111.163
-328.279
-1342.41
-2013.86
-1920.06
-7.06036e-09
-2.3918e-09
-2.35483e-09
-5.28716e-06
-9.3369e-06
-1.14235e-06
-4.88762e-07
-8.65696e-07
-6.69883e-07
-6.04305e-06
-0.0225106
-11.0622
-231.75
-884.849
-1331.66
-1597.41
-1976.64
-2140.4
-2038.23
-1.64371e-09
-1.58963e-09
-6.97476e-09
-3.10867e-07
-1.55502e-06
-9.07325e-07
-4.42163e-07
-1.02616e-06
-8.70656e-07
-2.1468e-06
-0.00464188
-11.8612
-633.95
-1965.19
-2202.15
-2202.15
-2254.5
-2264.41
-2255.55
-2.67096e-10
-4.31372e-10
-2.67352e-09
-6.24177e-08
-2.91597e-07
-3.72188e-07
-2.80604e-07
-8.87773e-07
-1.48181e-06
-1.86854e-06
-0.00407139
-15.5089
-530.342
-1452.32
-2030.96
-2282.25
-2274.53
-2171.21
-2380.11
-5.17071e-11
-1.3841e-10
-8.89457e-10
-9.45033e-09
-1.92256e-07
-6.19363e-07
-5.19398e-07
-5.75001e-07
-1.53938e-06
-1.13009e-06
-0.407835
-3.2675
-1.21483e-06
-1.21482e-06
-417.861
-1559.31
-2311.29
-1557.55
-1990.85
-3.1117e-11
-1.94964e-10
-2.25585e-09
-1.62641e-08
-1.25272e-07
-6.81639e-07
-1.22246e-06
-1.1798e-06
-1.33552e-06
-1.18594e-06
-0.0559918
-0.516398
-1.27478e-06
-0.00346677
-0.00346619
-211.596
-1513.43
-1619.99
-1280.46
-4.62845e-11
-4.98949e-10
-6.46742e-09
-2.01565e-08
-1.90607e-06
-2.21712e-06
-1.58875e-06
-1.23598e-06
-1.23589e-06
-1.24127e-06
-0.00188553
-0.000354973
-1.33474e-06
-0.0167483
-0.0825413
-10.7627
-824.13
-1558.88
-960.76
-1.79659e-10
-5.53882e-10
-6.40441e-08
-1.82191e-07
-5.63175e-07
-4.86605e-06
-1.07807e-05
-1.29173e-06
-1.29702e-06
-1.2975e-06
-2.41594e-06
-1.3947e-06
-1.3947e-06
-0.00216639
-0.00970702
-14.2922
-391.861
-1102.28
-462.551
-1.21531e-09
-9.48201e-10
-1.13633e-07
-7.93832e-07
-7.09608e-07
-7.857e-07
-5.27902e-07
-0.000232655
-3.88585e-05
-1.3532e-06
-3.60878e-06
-2.25137e-06
-2.31723e-06
-7.18072e-05
-3.74551e-06
-1.32916
-130.573
-955.956
-482.436
-1.05642e-09
-4.64452e-09
-4.64444e-09
-5.8646e-07
-3.88432e-06
-1.60987e-06
-5.504e-07
-0.000254493
-0.00112383
-0.000511394
-1.5246e-05
-2.20634e-06
-2.20404e-06
-3.89091e-06
-3.90003e-06
-3.89989e-06
-12.1389
-913.074
-502.322
-1.22757e-09
-5.62258e-09
-7.4209e-09
-5.49153e-09
-2.94311e-06
-1.20626e-05
-5.71305e-07
-0.000263294
-0.00122686
-0.000604371
-2.29368e-06
-2.29129e-06
-2.29368e-06
-3.87466e-06
-4.4945e-06
-4.06763e-06
-32.8622
-389.742
-531.888
-4.71296e-10
-3.18629e-09
-1.20629e-08
-7.98662e-09
-4.5199e-09
-3.52653e-05
-5.32481e-05
-5.32451e-05
-0.000155973
-0.00061099
-0.00352527
-0.00287525
-0.000621818
-5.92258e-06
-4.23171e-06
-4.23186e-06
-1.51188
-0.177971
-696.28
-2.35646e-10
-2.41459e-09
-1.23494e-08
-7.41774e-08
-4.67005e-09
-2.60247e-06
-0.000508914
-0.00036072
-0.000154051
-0.00424042
-0.0280508
-0.0180494
-0.000843239
-6.37471e-06
-5.95733e-06
-5.28684e-06
-2.03465e-06
-0.184386
-792.47
-2.82723e-10
-5.25246e-09
-1.63936e-08
-2.33746e-07
-6.59159e-07
-4.95565e-07
-1.57606e-05
-0.00152245
-0.000159483
-0.00574297
-0.0290408
-0.0149155
-0.00037844
-1.49057e-05
-5.43702e-06
-5.43705e-06
-2.1067e-06
-1.08107e-07
-820.271
-8.4849e-10
-1.84353e-08
-2.16015e-08
-1.16026e-07
-1.8153e-05
-7.54521e-06
-2.16607e-07
-0.00105036
-0.00405628
-0.0047007
-0.00857777
-0.015279
-1.09756e-05
-1.09782e-05
-1.09775e-05
-4.92406e-06
-1.63377e-06
-1.11801e-07
-737.122
-2.52765e-09
-3.20665e-08
-2.9516e-08
-2.95157e-08
-0.00011987
-0.000212776
-2.2415e-07
-0.000555856
-0.00439582
-0.00268947
-4.14007e-05
-0.0464691
-0.0344032
-0.00350025
-4.8462e-05
-1.15496e-07
-1.15496e-07
-1.15496e-07
-726.377
-5.28895e-09
-4.17726e-08
-3.64381e-08
-3.04558e-08
-3.41076e-05
-0.000937641
-0.000745618
-0.000272285
-0.00180752
-0.000843706
-4.27387e-05
-0.0722056
-0.101544
-0.0154717
-7.39839e-06
-0.00259123
-0.0168511
-1.1919e-07
-903.421
-8.49973e-09
-5.32876e-08
-8.53961e-08
-3.14806e-08
-0.000336004
-0.00127844
-4.40494e-05
-4.40634e-05
-4.40494e-05
-4.40634e-05
-4.40494e-05
-0.0834094
-0.104686
-0.0330139
-7.62629e-06
-0.00200221
-0.157611
-11.3582
-971.672
-1.54715e-08
-9.71696e-08
-6.8403e-07
-3.24313e-08
-0.00142852
-0.0667258
-0.148991
-0.241188
-0.00560398
-0.00361038
-4.53882e-05
-0.0915828
-0.107839
-0.0255059
-7.85704e-06
-7.85558e-06
-0.626403
-71.8182
-929.269
-4.62374e-08
-2.62059e-07
-3.82481e-06
-3.33736e-08
-0.0366064
-0.67667
-0.795939
-0.795939
-0.348049
-0.0292441
-0.000425379
-0.082251
-0.110981
-0.00955433
-0.00486424
-20.872
-122.983
-73.9118
-130.924
-2.0501e-07
-1.37292e-06
-1.21045e-05
-3.44129e-08
-0.341865
-0.818512
-0.818512
-0.818512
-0.818512
-0.00187145
-0.000433306
-0.0508704
-0.113465
-0.00249769
-0.0037417
-4.06518
-486.508
-493.972
-51.9137
-9.28119e-07
-7.94133e-06
-8.24098e-05
-0.00580623
-0.492188
-0.841085
-0.841085
-0.833213
-0.360432
-1.70169e-07
-0.000445569
-0.00907795
-0.0283655
-0.00252465
-0.00682641
-1.52728e-07
-348.903
-1669.79
-509.705
-3.98086e-06
-2.7815e-05
-0.000182864
-0.00998859
-0.235126
-0.456833
-0.278609
-0.0969864
-0.007965
-1.74736e-07
-0.000169587
-0.000787534
-0.00531073
-0.0124192
-0.0124952
-1.56827e-07
-125.026
-2133.45
-2235.78
-1.44131e-05
-0.000156246
-0.000553661
-0.000744561
-4.80422e-05
-0.0046657
-0.00292229
-0.000607669
-1.6421e-05
-1.11053e-06
-0.000101143
-0.00205109
-0.0057328
-0.00991318
-0.00794566
-1.60925e-07
-439.559
-2260.46
-2294.21
-5.4305e-05
-0.000392654
-0.000397858
-4.50586e-05
-4.9257e-05
-8.53431e-07
-8.37154e-07
-9.16112e-07
-2.70479e-06
-1.20071e-05
-0.00011514
-0.000581961
-0.00233263
-0.00270929
-0.000176722
-1.65024e-07
-19.0012
-2108.5
-2352.65
-8.88038e-05
-0.00053185
-0.000388011
-4.61778e-05
-0.000629659
-0.00489032
-0.00610871
-6.11418e-07
-6.11537e-07
-6.11418e-07
-6.11537e-07
-0.00704277
-0.0238549
-0.0619194
-0.0619196
-0.0212252
-0.000778242
-1228.18
-2411.08
-0.00021007
-0.000770842
-0.000234186
-5.70088e-05
-0.00286886
-0.0136122
-0.0134941
-0.00976061
-0.000448621
-0.01658
-0.0499382
-0.0625688
-0.0625255
-0.0228735
-0.0186275
-0.00512028
-0.000792951
-87.5171
-2233.22
-0.000511327
-0.000834659
-0.000168509
-4.87301e-05
-0.00154938
-0.0108656
-0.0122379
-0.00645043
-0.0292156
-0.0565102
-0.0565691
-0.048617
-0.0127867
-0.00175439
-0.00223149
-0.00245527
-0.000815965
-5.06904
-637.765
-0.00191659
-0.00297142
-4.95352e-05
-4.95352e-05
-0.000235875
-0.00151492
-0.00185498
-0.00080737
-0.0144432
-0.0529791
-0.048908
8.84235e-21
-0.00321091
-2.92802e-06
-5.3855e-11
-0.00469134
-0.000830478
-0.425936
-5.33852
-0.000126852
-0.00559284
-0.0113737
-0.00493351
-0.000743554
-0.000140048
-0.000140048
-0.000370731
-0.0104572
-0.0321908
-0.0149007
-8.9696e-24
-7.48718e-05
9.40049e-29
1.88047e-31
-0.00117644
-0.00977884
-0.00625736
-0.000359819
)
;

boundaryField
{
    leftWall
    {
        type            calculated;
        value           nonuniform List<scalar> 
50
(
-29.4294
-88.2881
-147.147
-206.006
-264.864
-323.723
-382.582
-441.44
-532.229
-485.963
-51.4528
8.99914e-35
-1.9422e-15
-4.87457e-15
-6.19825e-15
-6.57973e-15
-4.84225e-15
-2.36525e-15
-9.50218e-16
-3.1356e-16
-8.44197e-17
-1.8384e-17
-3.19289e-18
-4.33252e-19
-4.45401e-20
-3.32786e-21
-1.68865e-22
-5.29225e-24
-9.21394e-26
-1.3584e-27
-5.21112e-29
-9.73437e-31
-3.50984e-36
-2.14561e-40
-9.86743e-44
-2.47271e-49
-7.09045e-53
-2.60779e-59
-1.38111e-64
-8.10754e-69
-2.15991e-73
-2.00938e-75
-2.80683e-74
-7.44683e-73
-1.80414e-71
-4.10381e-70
-8.72717e-69
-1.73559e-67
-2.45253e-66
-8.93073e-66
)
;
    }
    rightWall
    {
        type            calculated;
        value           nonuniform List<scalar> 
50
(
-17.8887
-53.6794
-89.4665
-74.7197
-1.33577
-39.2849
-244.811
-316.435
-382.385
-461.897
-539.829
-631.631
-821.651
-1037.62
-1253.75
-1399.13
-1526.92
-1651.45
-1775.99
-1856.82
-1920.06
-2038.23
-2255.55
-2380.11
-1990.85
-1280.46
-960.76
-462.551
-482.436
-502.322
-531.888
-696.28
-792.47
-820.271
-737.122
-726.377
-903.421
-971.672
-929.269
-130.924
-51.9137
-509.705
-2235.78
-2294.21
-2352.65
-2411.08
-2233.22
-637.765
-5.33852
-0.000359819
)
;
    }
    lowerWall
    {
        type            calculated;
        value           nonuniform List<scalar> 
62
(
0
0
0
0
0
0
0
0
0
0
0
0
0
0
0
0
0
0
0
0
0
0
0
-29.4178
-88.2533
-147.094
-205.994
-264.864
-323.723
-382.582
-441.44
-470.589
-470.787
-470.788
-408.367
-2.55437e-19
-2.94903e-17
-2.09746e-15
-5.54517e-14
-1.63056e-12
-2.55274e-11
-2.01172e-09
-5.01497e-10
0
0
0
0
0
0
0
0
0
0
0
0
0
0
0
0
0
0
0
)
;
    }
    atmosphere
    {
        type            calculated;
        value           nonuniform List<scalar> 
46
(
-0
-0
-0
-0
-0
-0
-0
-0
-0
-0
-0
-0
-0
-0
-0
-0
-0
-0
-0
-0
-0
-0
-0
-1.53135e-08
-1.03586e-07
-5.9611e-07
-4.98054e-06
-0.000128253
-0.00565462
-0.0114993
-0.00498801
-0.000751768
-0.000141595
-0.000141595
-0.000374826
-0.0105728
-0
-0.0150653
-0
-0
-0
-0
-0
-0.00988687
-0.00632648
-0.000363794
)
;
    }
    defaultFaces
    {
        type            empty;
    }
}


// ************************************************************************* //
