/*--------------------------------*- C++ -*----------------------------------*\
| =========                 |                                                 |
| \\      /  F ield         | OpenFOAM: The Open Source CFD Toolbox           |
|  \\    /   O peration     | Version:  2012                                  |
|   \\  /    A nd           | Website:  www.openfoam.com                      |
|    \\/     M anipulation  |                                                 |
\*---------------------------------------------------------------------------*/
FoamFile
{
    version     2.0;
    format      ascii;
    class       volVectorField;
    location    "0.47";
    object      Uc;
}
// * * * * * * * * * * * * * * * * * * * * * * * * * * * * * * * * * * * * * //

dimensions      [0 1 -1 0 0 0 0];


internalField   nonuniform List<vector> 
2268
(
(0.0153888 -0.00727262 0)
(0.0464913 -0.00742619 0)
(0.0767491 -0.0068734 0)
(0.105342 -0.00663923 0)
(0.1336 -0.00671536 0)
(0.162381 -0.00688627 0)
(0.189263 -0.00581801 0)
(0.213012 -0.00540552 0)
(0.235122 -0.00504348 0)
(0.254226 -0.00398495 0)
(0.269958 -0.00345021 0)
(0.283268 -0.00283983 0)
(0.293994 -0.00222928 0)
(0.300315 -0.000758161 0)
(0.300444 0.000697147 0)
(0.295327 0.00172145 0)
(0.2853 0.00301683 0)
(0.269425 0.00448568 0)
(0.246359 0.00641528 0)
(0.213376 0.00917208 0)
(0.169611 0.0115105 0)
(0.114591 0.0144916 0)
(0.0419634 0.0198311 0)
(0.0153286 -0.0217895 0)
(0.0464155 -0.0222996 0)
(0.0768634 -0.020689 0)
(0.105689 -0.0199588 0)
(0.134021 -0.0201398 0)
(0.162692 -0.0206131 0)
(0.189481 -0.0174559 0)
(0.213377 -0.0162843 0)
(0.235692 -0.0151596 0)
(0.254691 -0.0118761 0)
(0.270628 -0.0105255 0)
(0.284389 -0.00855811 0)
(0.294606 -0.0064088 0)
(0.300528 -0.0023645 0)
(0.301305 0.00187523 0)
(0.296833 0.00507515 0)
(0.286927 0.00908307 0)
(0.270366 0.0137483 0)
(0.245669 0.0197254 0)
(0.210217 0.0282032 0)
(0.162373 0.0357729 0)
(0.100797 0.0453315 0)
(0.033102 0.0553055 0)
(0.015275 -0.0362525 0)
(0.0464119 -0.037243 0)
(0.077156 -0.0346645 0)
(0.106306 -0.033382 0)
(0.13477 -0.0335582 0)
(0.163276 -0.0342162 0)
(0.189944 -0.0291165 0)
(0.214216 -0.0273877 0)
(0.236936 -0.0253392 0)
(0.256263 -0.0198095 0)
(0.272704 -0.0178931 0)
(0.286743 -0.0143289 0)
(0.296678 -0.0101619 0)
(0.302484 -0.00415356 0)
(0.304345 0.00241753 0)
(0.301317 0.00807694 0)
(0.292504 0.0149275 0)
(0.277532 0.022806 0)
(0.255537 0.032734 0)
(0.223794 0.0469503 0)
(0.179959 0.0603523 0)
(0.118911 0.0787029 0)
(0.0414454 0.090535 0)
(0.0152687 -0.0506872 0)
(0.0465636 -0.0523131 0)
(0.0776547 -0.0488172 0)
(0.107164 -0.046951 0)
(0.135845 -0.0469956 0)
(0.164183 -0.0476427 0)
(0.190691 -0.0408205 0)
(0.215346 -0.0388065 0)
(0.238419 -0.0355617 0)
(0.257999 -0.0279745 0)
(0.274752 -0.0254152 0)
(0.288615 -0.0199931 0)
(0.298369 -0.0138025 0)
(0.30439 -0.00610227 0)
(0.306606 0.00243959 0)
(0.303904 0.0107627 0)
(0.29503 0.0206001 0)
(0.279192 0.0316942 0)
(0.255974 0.0452128 0)
(0.22335 0.0648909 0)
(0.179154 0.0840138 0)
(0.117436 0.113059 0)
(0.0403795 0.129204 0)
(0.0153138 -0.0651403 0)
(0.0468001 -0.0675301 0)
(0.0782016 -0.0631338 0)
(0.1081 -0.0607099 0)
(0.137131 -0.0605112 0)
(0.165444 -0.0608999 0)
(0.191985 -0.0526336 0)
(0.217274 -0.0505968 0)
(0.240857 -0.0458211 0)
(0.260945 -0.0364617 0)
(0.278422 -0.0331051 0)
(0.292685 -0.0255955 0)
(0.302911 -0.0176427 0)
(0.309516 -0.00822903 0)
(0.31225 0.0022273 0)
(0.310543 0.0130583 0)
(0.303582 0.0257879 0)
(0.290646 0.0401048 0)
(0.271132 0.0569971 0)
(0.242792 0.0819171 0)
(0.203076 0.106644 0)
(0.142519 0.148215 0)
(0.0524035 0.173053 0)
(0.0155086 -0.0797067 0)
(0.0471528 -0.0827987 0)
(0.0787593 -0.0776423 0)
(0.109206 -0.0747198 0)
(0.13871 -0.0741644 0)
(0.167111 -0.0740497 0)
(0.193835 -0.0646565 0)
(0.219609 -0.0627055 0)
(0.243261 -0.0560358 0)
(0.263485 -0.0452975 0)
(0.281536 -0.0410597 0)
(0.295898 -0.0311688 0)
(0.306035 -0.021693 0)
(0.312914 -0.0105511 0)
(0.31599 0.00180359 0)
(0.314665 0.0149146 0)
(0.308134 0.0303078 0)
(0.295307 0.0477601 0)
(0.275623 0.0678665 0)
(0.246717 0.0981015 0)
(0.206505 0.128233 0)
(0.144501 0.184547 0)
(0.0526681 0.222709 0)
(0.0158005 -0.0945031 0)
(0.0475368 -0.0979553 0)
(0.0792246 -0.092398 0)
(0.11032 -0.0890485 0)
(0.140422 -0.0880047 0)
(0.169112 -0.0871904 0)
(0.196323 -0.0770053 0)
(0.222763 -0.0750321 0)
(0.246704 -0.0662014 0)
(0.267818 -0.054668 0)
(0.287121 -0.0493427 0)
(0.30229 -0.0368416 0)
(0.313279 -0.0260043 0)
(0.320817 -0.0130535 0)
(0.32415 0.00127713 0)
(0.323309 0.0164645 0)
(0.31842 0.0341549 0)
(0.309025 0.0544146 0)
(0.294789 0.0772422 0)
(0.273143 0.112616 0)
(0.24177 0.147549 0)
(0.184495 0.221601 0)
(0.0726271 0.281922 0)
(0.0162079 -0.10963 0)
(0.048204 -0.112948 0)
(0.0799732 -0.107395 0)
(0.111738 -0.103759 0)
(0.142529 -0.102071 0)
(0.17157 -0.100407 0)
(0.199275 -0.0897422 0)
(0.226046 -0.087442 0)
(0.24993 -0.0763934 0)
(0.271808 -0.0647939 0)
(0.291899 -0.0578338 0)
(0.307089 -0.0426979 0)
(0.318324 -0.0306507 0)
(0.326132 -0.0156597 0)
(0.329765 0.000591125 0)
(0.329589 0.0176309 0)
(0.325783 0.0370977 0)
(0.317492 0.0598302 0)
(0.304323 0.0847775 0)
(0.283261 0.125264 0)
(0.252271 0.164373 0)
(0.195405 0.258718 0)
(0.0780527 0.353132 0)
(-0.0211661 0.00525004 0)
(-0.062334 0.00475457 0)
(-0.0703826 -0.00883966 0)
(-0.0420725 -0.0107133 0)
(-0.0282769 -0.00266749 0)
(-0.0979686 0.024797 0)
(-0.297079 0.0523801 0)
(-0.724664 0.121953 0)
(-1.5409 0.217628 0)
(-2.59166 0.221839 0)
(-3.33154 0.0856386 0)
(-3.42405 -0.05362 0)
(-3.1165 -0.0849106 0)
(-2.87847 -0.0252914 0)
(-2.76467 -0.0315931 0)
(-2.52316 -0.0767677 0)
(-2.0622 -0.12329 0)
(-1.37683 -0.171395 0)
(-0.488474 -0.209475 0)
(-0.0237724 0.0168589 0)
(-0.0707264 0.0156165 0)
(-0.0828093 -0.0261556 0)
(-0.0453817 -0.0363815 0)
(-0.0171604 -0.00989695 0)
(-0.0819918 0.0742181 0)
(-0.276186 0.155223 0)
(-0.65121 0.345429 0)
(-1.30604 0.604675 0)
(-2.17615 0.63688 0)
(-2.8655 0.263992 0)
(-3.05707 -0.125973 0)
(-2.85414 -0.245476 0)
(-2.54504 -0.115461 0)
(-2.24699 -0.13497 0)
(-1.92129 -0.230184 0)
(-1.54564 -0.338279 0)
(-1.01498 -0.482555 0)
(-0.345582 -0.568095 0)
(-0.0336983 0.0337988 0)
(-0.090198 0.0276697 0)
(-0.0956923 -0.0457487 0)
(-0.0374105 -0.0725211 0)
(0.0171726 -0.0240044 0)
(-0.0198843 0.116636 0)
(-0.159126 0.239604 0)
(-0.407279 0.511062 0)
(-0.838205 0.885717 0)
(-1.52952 1.00503 0)
(-2.28572 0.496034 0)
(-2.78845 -0.0777182 0)
(-3.00802 -0.302307 0)
(-3.01569 -0.203404 0)
(-2.72953 -0.313037 0)
(-2.08116 -0.484175 0)
(-1.33008 -0.580018 0)
(-0.705111 -0.746449 0)
(-0.211803 -0.809193 0)
(-0.0346328 0.0553591 0)
(-0.0977432 0.0419764 0)
(-0.112801 -0.0663292 0)
(-0.0375951 -0.123743 0)
(0.055341 -0.050557 0)
(0.0465936 0.147643 0)
(-0.0558428 0.296367 0)
(-0.20667 0.608968 0)
(-0.359674 1.02109 0)
(-0.60593 1.25345 0)
(-1.02033 0.730683 0)
(-1.46102 0.0739094 0)
(-1.84301 -0.213162 0)
(-2.09795 -0.195848 0)
(-2.098 -0.457303 0)
(-1.78588 -0.763453 0)
(-1.24168 -0.867337 0)
(-0.635284 -1.00043 0)
(-0.17085 -0.979508 0)
(-0.049083 0.0834643 0)
(-0.137659 0.0633841 0)
(-0.150264 -0.0909854 0)
(-0.0302252 -0.197161 0)
(0.111021 -0.0917792 0)
(0.130763 0.169161 0)
(0.0556816 0.33533 0)
(-0.0372861 0.658675 0)
(-0.0591261 1.0307 0)
(-0.0609643 1.33433 0)
(-0.270712 0.900311 0)
(-0.713453 0.265068 0)
(-1.14131 -0.0748928 0)
(-1.36945 -0.143676 0)
(-1.44945 -0.490324 0)
(-1.57665 -0.823715 0)
(-1.81934 -0.951196 0)
(-1.61729 -1.27851 0)
(-0.639637 -1.33544 0)
(-0.0436402 0.115403 0)
(-0.121803 0.0873636 0)
(-0.125874 -0.122894 0)
(0.0123493 -0.290143 0)
(0.186537 -0.148004 0)
(0.231622 0.18278 0)
(0.170629 0.364563 0)
(0.103256 0.682616 0)
(0.131942 0.988812 0)
(0.254693 1.30973 0)
(0.24289 1.0041 0)
(-0.0739844 0.46937 0)
(-0.517851 0.0765561 0)
(-0.784859 -0.0995793 0)
(-0.855816 -0.485248 0)
(-0.978057 -0.737657 0)
(-1.09136 -0.901684 0)
(-0.789599 -1.56002 0)
(-0.243842 -1.72076 0)
(-0.0569694 0.150696 0)
(-0.0591409 0.0712356 0)
(0.0932109 -0.184884 0)
(0.238706 -0.363873 0)
(0.320395 -0.198125 0)
(0.334411 0.192732 0)
(0.273678 0.391362 0)
(0.215602 0.694152 0)
(0.260313 0.931028 0)
(0.404568 1.2389 0)
(0.459216 1.04167 0)
(0.271678 0.63133 0)
(-0.0679512 0.232824 0)
(-0.272238 -0.0704321 0)
(-0.266332 -0.501775 0)
(-0.221421 -0.703258 0)
(-0.174624 -0.923033 0)
(-0.105694 -1.71372 0)
(-0.0344662 -1.84506 0)
(0.0541219 0.14436 0)
(0.21505 -0.00504758 0)
(0.384475 -0.261001 0)
(0.424635 -0.382638 0)
(0.416753 -0.226436 0)
(0.435008 0.19204 0)
(0.391248 0.42147 0)
(0.330397 0.699608 0)
(0.37341 0.873233 0)
(0.529649 1.15384 0)
(0.662431 1.03197 0)
(0.630588 0.719323 0)
(0.439016 0.355751 0)
(0.24878 -0.0405911 0)
(0.152809 -0.508348 0)
(0.13214 -0.722028 0)
(0.131269 -0.938831 0)
(0.0568805 -1.71225 0)
(-0.00240576 -1.86408 0)
(0.0166991 -0.134076 0)
(0.0492147 -0.136309 0)
(0.0812813 -0.131282 0)
(0.113835 -0.127607 0)
(0.145573 -0.124679 0)
(0.17539 -0.121496 0)
(0.204189 -0.110696 0)
(0.232041 -0.107138 0)
(0.257202 -0.0932785 0)
(0.281278 -0.0824501 0)
(0.302935 -0.071442 0)
(0.319835 -0.0532571 0)
(0.333113 -0.0387484 0)
(0.342114 -0.0202999 0)
(0.346309 -0.000702599 0)
(0.346723 0.0185918 0)
(0.344221 0.0404497 0)
(0.342434 0.0621935 0)
(0.343687 0.0873772 0)
(0.351849 0.124414 0)
(0.37017 0.161452 0)
(0.410085 0.248389 0)
(0.477084 0.35157 0)
(0.0174784 -0.168554 0)
(0.0508931 -0.168349 0)
(0.0836046 -0.164598 0)
(0.117463 -0.161282 0)
(0.150584 -0.156423 0)
(0.181658 -0.151168 0)
(0.21195 -0.140613 0)
(0.240988 -0.134574 0)
(0.267421 -0.117848 0)
(0.292068 -0.106969 0)
(0.312862 -0.0896767 0)
(0.330372 -0.0696653 0)
(0.345071 -0.0504924 0)
(0.355017 -0.027615 0)
(0.361205 -0.00382942 0)
(0.364012 0.0184794 0)
(0.36323 0.0438632 0)
(0.360249 0.0635727 0)
(0.356841 0.0881634 0)
(0.360695 0.111549 0)
(0.377461 0.139047 0)
(0.419882 0.188028 0)
(0.501651 0.26238 0)
(0.0182117 -0.204672 0)
(0.0517582 -0.200023 0)
(0.0843088 -0.199007 0)
(0.119035 -0.196293 0)
(0.152657 -0.188976 0)
(0.183968 -0.181794 0)
(0.214754 -0.171851 0)
(0.244549 -0.162936 0)
(0.272498 -0.14461 0)
(0.298929 -0.132006 0)
(0.323083 -0.110276 0)
(0.346352 -0.0905103 0)
(0.365523 -0.0641417 0)
(0.379497 -0.0384488 0)
(0.389751 -0.0099012 0)
(0.394771 0.0164286 0)
(0.3943 0.0470691 0)
(0.389141 0.0717103 0)
(0.385936 0.089849 0)
(0.39453 0.0973502 0)
(0.417021 0.113783 0)
(0.455873 0.131594 0)
(0.518401 0.173761 0)
(0.00949893 -0.232693 0)
(0.0283588 -0.225011 0)
(0.0469396 -0.225749 0)
(0.065676 -0.223631 0)
(0.0842429 -0.214445 0)
(0.102601 -0.206608 0)
(0.120043 -0.19589 0)
(0.135897 -0.185175 0)
(0.149127 -0.164181 0)
(0.159913 -0.15029 0)
(0.162869 -0.119717 0)
(0.156914 -0.0989768 0)
(0.129901 -0.0483155 0)
(0.115283 -0.0541575 0)
(0.188402 -0.0784875 0)
(0.291607 -0.0241432 0)
(0.344053 0.0351517 0)
(0.360334 0.0753477 0)
(0.373505 0.0789673 0)
(0.397743 0.0749844 0)
(0.423712 0.0900764 0)
(0.452647 0.0898197 0)
(0.495606 0.1095 0)
(0.00308124 -0.245429 0)
(0.0112903 -0.239666 0)
(0.019929 -0.238637 0)
(0.0268933 -0.236761 0)
(0.0344391 -0.227749 0)
(0.0428812 -0.22043 0)
(0.0509789 -0.207929 0)
(0.0591785 -0.197505 0)
(0.0686947 -0.17491 0)
(0.0814285 -0.163401 0)
(0.099308 -0.127749 0)
(0.125301 -0.111289 0)
(0.158333 -0.0422601 0)
(0.199148 -0.0867531 0)
(0.234329 -0.154976 0)
(0.263263 -0.0807057 0)
(0.295216 0.00664585 0)
(0.303536 0.0788372 0)
(0.312866 0.0525028 0)
(0.348629 0.0408481 0)
(0.389999 0.0588251 0)
(0.43631 0.0475124 0)
(0.485781 0.0585512 0)
(0.00253265 -0.251163 0)
(0.00848251 -0.248346 0)
(0.0144939 -0.244865 0)
(0.0194563 -0.242704 0)
(0.0241586 -0.234301 0)
(0.0286885 -0.227103 0)
(0.0330248 -0.213942 0)
(0.0381887 -0.205113 0)
(0.046054 -0.184963 0)
(0.0580893 -0.178438 0)
(0.0813005 -0.154212 0)
(0.120133 -0.150187 0)
(0.18528 -0.102255 0)
(0.247787 -0.130824 0)
(0.250155 -0.148859 0)
(0.235293 -0.101183 0)
(0.265605 -0.0356683 0)
(0.318929 0.059051 0)
(0.351625 0.0299873 0)
(0.347582 0.0313436 0)
(0.332485 0.0415309 0)
(0.350071 -5.81376e-05 0)
(0.40122 0.00431521 0)
(0.00340093 -0.257217 0)
(0.010426 -0.255514 0)
(0.0175183 -0.251048 0)
(0.0243877 -0.248594 0)
(0.031458 -0.240426 0)
(0.0394481 -0.233745 0)
(0.0483548 -0.220795 0)
(0.0585841 -0.21392 0)
(0.0707607 -0.196492 0)
(0.084109 -0.192617 0)
(0.0989286 -0.178457 0)
(0.115029 -0.181359 0)
(0.134582 -0.156426 0)
(0.157558 -0.162786 0)
(0.190386 -0.152485 0)
(0.231842 -0.124504 0)
(0.279621 -0.0910659 0)
(0.354631 -0.0147754 0)
(0.43579 -0.0108522 0)
(0.484579 0.0269931 0)
(0.487355 0.0580971 0)
(0.448579 0.00449543 0)
(0.41158 -0.0149231 0)
(0.00376288 -0.264507 0)
(0.0111239 -0.262863 0)
(0.0188706 -0.258794 0)
(0.0271524 -0.256257 0)
(0.0358812 -0.248824 0)
(0.0457149 -0.243446 0)
(0.0567693 -0.231343 0)
(0.0690389 -0.226173 0)
(0.0832097 -0.21091 0)
(0.0981421 -0.206816 0)
(0.114437 -0.195726 0)
(0.13177 -0.197892 0)
(0.151617 -0.179699 0)
(0.170586 -0.181879 0)
(0.178892 -0.174948 0)
(0.188311 -0.153394 0)
(0.21126 -0.133491 0)
(0.251652 -0.0885764 0)
(0.314856 -0.0823964 0)
(0.402125 -0.038467 0)
(0.502598 0.0195304 0)
(0.580438 0.00354172 0)
(0.615128 -0.0119248 0)
(0.00474416 -0.273146 0)
(0.0143559 -0.271461 0)
(0.0244738 -0.26833 0)
(0.0350495 -0.265854 0)
(0.0458664 -0.259053 0)
(0.0573515 -0.254826 0)
(0.0696715 -0.24364 0)
(0.0823847 -0.239172 0)
(0.0956624 -0.225688 0)
(0.108413 -0.220054 0)
(0.119565 -0.210268 0)
(0.128873 -0.210325 0)
(0.138756 -0.19735 0)
(0.15021 -0.19501 0)
(0.165099 -0.185339 0)
(0.183854 -0.171535 0)
(0.203872 -0.158757 0)
(0.231126 -0.13153 0)
(0.260217 -0.132448 0)
(0.294009 -0.110343 0)
(0.359155 -0.0753179 0)
(0.454688 -0.0761387 0)
(0.548443 -0.0616201 0)
(0.00539522 -0.283425 0)
(0.0164016 -0.282081 0)
(0.027628 -0.27934 0)
(0.0389998 -0.277082 0)
(0.0505939 -0.270529 0)
(0.0626511 -0.267192 0)
(0.0756799 -0.256934 0)
(0.0894811 -0.252712 0)
(0.104495 -0.24077 0)
(0.120303 -0.233865 0)
(0.135602 -0.223235 0)
(0.149383 -0.220759 0)
(0.162097 -0.209825 0)
(0.1743 -0.206515 0)
(0.184127 -0.198883 0)
(0.194366 -0.187343 0)
(0.207705 -0.176694 0)
(0.224666 -0.158258 0)
(0.244495 -0.15512 0)
(0.267215 -0.144709 0)
(0.29277 -0.132366 0)
(0.32003 -0.142773 0)
(0.360167 -0.129833 0)
(0.0061536 -0.29512 0)
(0.0185718 -0.294105 0)
(0.03115 -0.291417 0)
(0.0438704 -0.289396 0)
(0.0568357 -0.283077 0)
(0.0701158 -0.280289 0)
(0.0840001 -0.271068 0)
(0.0981907 -0.266895 0)
(0.11304 -0.256788 0)
(0.128694 -0.249657 0)
(0.144651 -0.239048 0)
(0.160011 -0.234429 0)
(0.174821 -0.224016 0)
(0.189295 -0.219338 0)
(0.203442 -0.210362 0)
(0.218033 -0.201029 0)
(0.232358 -0.191028 0)
(0.247514 -0.176426 0)
(0.26053 -0.170191 0)
(0.270212 -0.162438 0)
(0.280655 -0.15106 0)
(0.288426 -0.159536 0)
(0.288907 -0.154153 0)
(0.00651445 -0.307939 0)
(0.0195736 -0.307066 0)
(0.0327258 -0.304491 0)
(0.0460733 -0.302697 0)
(0.0597803 -0.29676 0)
(0.0738823 -0.294305 0)
(0.0886118 -0.28599 0)
(0.103839 -0.281721 0)
(0.119706 -0.273017 0)
(0.136562 -0.266288 0)
(0.154241 -0.256413 0)
(0.172035 -0.250578 0)
(0.189351 -0.240352 0)
(0.205691 -0.23417 0)
(0.220382 -0.224716 0)
(0.234174 -0.215409 0)
(0.247535 -0.204687 0)
(0.260924 -0.191674 0)
(0.274498 -0.181892 0)
(0.28697 -0.173231 0)
(0.296312 -0.160386 0)
(0.299991 -0.161958 0)
(0.298424 -0.150886 0)
(0.00731518 -0.321925 0)
(0.0219851 -0.321122 0)
(0.0367276 -0.318643 0)
(0.0515796 -0.317059 0)
(0.066647 -0.311491 0)
(0.081834 -0.309186 0)
(0.0972952 -0.301629 0)
(0.112844 -0.297192 0)
(0.128554 -0.289464 0)
(0.14456 -0.283054 0)
(0.160951 -0.274076 0)
(0.177459 -0.26758 0)
(0.193975 -0.257545 0)
(0.21036 -0.250064 0)
(0.226232 -0.239739 0)
(0.241762 -0.230061 0)
(0.25647 -0.218455 0)
(0.270744 -0.205921 0)
(0.283982 -0.194811 0)
(0.294703 -0.183847 0)
(0.303013 -0.167741 0)
(0.307479 -0.163026 0)
(0.304684 -0.145675 0)
(0.00761062 -0.33701 0)
(0.0228973 -0.336314 0)
(0.0383656 -0.333985 0)
(0.0540243 -0.332553 0)
(0.0699258 -0.327294 0)
(0.085998 -0.324973 0)
(0.102376 -0.318016 0)
(0.118995 -0.313312 0)
(0.135737 -0.306138 0)
(0.152621 -0.299618 0)
(0.169511 -0.291144 0)
(0.186282 -0.284147 0)
(0.202821 -0.27439 0)
(0.218964 -0.266105 0)
(0.234474 -0.255434 0)
(0.249314 -0.24509 0)
(0.263662 -0.232834 0)
(0.277584 -0.22009 0)
(0.290859 -0.207504 0)
(0.30275 -0.194101 0)
(0.313385 -0.176752 0)
(0.321783 -0.167174 0)
(0.326676 -0.143871 0)
(0.00824502 -0.353029 0)
(0.0247793 -0.352443 0)
(0.0413713 -0.350245 0)
(0.0580037 -0.348915 0)
(0.0747619 -0.343926 0)
(0.0915206 -0.341508 0)
(0.108415 -0.335093 0)
(0.125453 -0.330236 0)
(0.142642 -0.323491 0)
(0.160007 -0.316864 0)
(0.177561 -0.308696 0)
(0.195071 -0.301233 0)
(0.2124 -0.291529 0)
(0.229569 -0.282635 0)
(0.246416 -0.271619 0)
(0.26296 -0.260645 0)
(0.278972 -0.247993 0)
(0.294317 -0.234551 0)
(0.308559 -0.220909 0)
(0.320837 -0.205202 0)
(0.331395 -0.187172 0)
(0.338814 -0.172877 0)
(0.341369 -0.145885 0)
(0.0086414 -0.370083 0)
(0.0259611 -0.369578 0)
(0.0432782 -0.367354 0)
(0.0605829 -0.366079 0)
(0.0780147 -0.36129 0)
(0.0954968 -0.358724 0)
(0.11311 -0.352727 0)
(0.13086 -0.347734 0)
(0.14866 -0.341331 0)
(0.166498 -0.33458 0)
(0.184349 -0.32674 0)
(0.202212 -0.318918 0)
(0.220012 -0.309332 0)
(0.237643 -0.299992 0)
(0.25504 -0.288867 0)
(0.27213 -0.277393 0)
(0.288961 -0.26445 0)
(0.305355 -0.250195 0)
(0.321106 -0.235614 0)
(0.335705 -0.21772 0)
(0.349526 -0.199371 0)
(0.361348 -0.180236 0)
(0.370629 -0.150645 0)
(0.00914329 -0.388037 0)
(0.0274435 -0.387584 0)
(0.0457537 -0.385317 0)
(0.064038 -0.384047 0)
(0.0824102 -0.379469 0)
(0.100805 -0.376766 0)
(0.119307 -0.371147 0)
(0.137968 -0.366075 0)
(0.156741 -0.359915 0)
(0.175554 -0.353003 0)
(0.194408 -0.34538 0)
(0.213283 -0.337377 0)
(0.232143 -0.327897 0)
(0.251006 -0.318286 0)
(0.269752 -0.307083 0)
(0.288365 -0.295249 0)
(0.306718 -0.282148 0)
(0.324649 -0.267192 0)
(0.341939 -0.252026 0)
(0.358117 -0.232447 0)
(0.373336 -0.214039 0)
(0.386153 -0.190546 0)
(0.396905 -0.160688 0)
(0.00950671 -0.40686 0)
(0.0285317 -0.406432 0)
(0.0475282 -0.404121 0)
(0.0664422 -0.402786 0)
(0.085375 -0.398381 0)
(0.104279 -0.395502 0)
(0.123189 -0.390172 0)
(0.142152 -0.385026 0)
(0.161181 -0.379121 0)
(0.180342 -0.37213 0)
(0.199648 -0.364774 0)
(0.219065 -0.356638 0)
(0.238546 -0.347345 0)
(0.258096 -0.337622 0)
(0.277684 -0.326454 0)
(0.29731 -0.314493 0)
(0.316972 -0.301297 0)
(0.336619 -0.286001 0)
(0.3562 -0.270468 0)
(0.375565 -0.249926 0)
(0.394792 -0.231383 0)
(0.412748 -0.204338 0)
(0.430376 -0.175633 0)
(0.0101255 -0.426668 0)
(0.0303903 -0.426265 0)
(0.0505978 -0.423843 0)
(0.0706692 -0.422401 0)
(0.0907347 -0.418117 0)
(0.110767 -0.415055 0)
(0.130807 -0.409922 0)
(0.150865 -0.404653 0)
(0.170937 -0.398954 0)
(0.191078 -0.391959 0)
(0.21134 -0.384876 0)
(0.231721 -0.376701 0)
(0.252212 -0.367625 0)
(0.272889 -0.357944 0)
(0.293685 -0.346895 0)
(0.314638 -0.335015 0)
(0.335694 -0.32188 0)
(0.356865 -0.306628 0)
(0.378083 -0.291036 0)
(0.399343 -0.270383 0)
(0.42063 -0.251843 0)
(0.441218 -0.222818 0)
(0.462156 -0.19612 0)
(0.0102787 -0.447249 0)
(0.0308488 -0.446873 0)
(0.0514021 -0.44435 0)
(0.0718651 -0.442782 0)
(0.0923493 -0.43864 0)
(0.112837 -0.435408 0)
(0.133337 -0.430465 0)
(0.153909 -0.425098 0)
(0.174578 -0.41961 0)
(0.195372 -0.412602 0)
(0.216319 -0.405809 0)
(0.237417 -0.397619 0)
(0.25867 -0.388826 0)
(0.280178 -0.379308 0)
(0.301929 -0.368463 0)
(0.323997 -0.356859 0)
(0.346456 -0.343947 0)
(0.369439 -0.329117 0)
(0.39303 -0.313766 0)
(0.417422 -0.293723 0)
(0.44273 -0.275525 0)
(0.46867 -0.246095 0)
(0.496141 -0.221698 0)
(0.0108244 -0.468531 0)
(0.0324853 -0.46818 0)
(0.0541504 -0.465619 0)
(0.0757502 -0.463933 0)
(0.0973941 -0.459975 0)
(0.119061 -0.456587 0)
(0.140722 -0.451808 0)
(0.162414 -0.446383 0)
(0.184194 -0.441138 0)
(0.206084 -0.434126 0)
(0.228132 -0.427651 0)
(0.250353 -0.419472 0)
(0.272719 -0.410972 0)
(0.29536 -0.401695 0)
(0.318191 -0.391047 0)
(0.341283 -0.37983 0)
(0.364727 -0.367282 0)
(0.388695 -0.353144 0)
(0.413368 -0.338424 0)
(0.439159 -0.319683 0)
(0.466338 -0.302503 0)
(0.495085 -0.274269 0)
(0.526553 -0.252957 0)
(0.010714 -0.490248 0)
(0.0321554 -0.489923 0)
(0.0536692 -0.487413 0)
(0.075246 -0.485674 0)
(0.0970006 -0.481993 0)
(0.118964 -0.478561 0)
(0.141138 -0.474033 0)
(0.163538 -0.468617 0)
(0.186153 -0.46367 0)
(0.208953 -0.456657 0)
(0.231976 -0.450567 0)
(0.255238 -0.44242 0)
(0.278723 -0.434261 0)
(0.302577 -0.42529 0)
(0.326731 -0.414833 0)
(0.351259 -0.404065 0)
(0.376313 -0.391954 0)
(0.402106 -0.378653 0)
(0.428927 -0.36484 0)
(0.457281 -0.34786 0)
(0.487521 -0.332213 0)
(0.520301 -0.30658 0)
(0.556809 -0.289153 0)
(0.0108912 -0.512029 0)
(0.0326337 -0.511678 0)
(0.0545004 -0.509393 0)
(0.0765537 -0.50768 0)
(0.0988398 -0.504386 0)
(0.121445 -0.501099 0)
(0.144405 -0.496995 0)
(0.167724 -0.491744 0)
(0.19137 -0.48718 0)
(0.215297 -0.480252 0)
(0.239552 -0.474632 0)
(0.264098 -0.46655 0)
(0.288901 -0.458812 0)
(0.314089 -0.450179 0)
(0.339567 -0.43998 0)
(0.36542 -0.429709 0)
(0.391782 -0.418143 0)
(0.418881 -0.405785 0)
(0.44702 -0.39311 0)
(0.476685 -0.378071 0)
(0.508394 -0.364435 0)
(0.543156 -0.342417 0)
(0.58222 -0.329451 0)
(0.0103432 -0.533436 0)
(0.0309567 -0.532971 0)
(0.0517959 -0.531151 0)
(0.0730184 -0.529547 0)
(0.0946517 -0.526792 0)
(0.116873 -0.523878 0)
(0.13974 -0.520408 0)
(0.163274 -0.515553 0)
(0.187402 -0.511521 0)
(0.212083 -0.504901 0)
(0.237409 -0.499953 0)
(0.263346 -0.492108 0)
(0.289905 -0.485017 0)
(0.31712 -0.476785 0)
(0.344872 -0.467019 0)
(0.373183 -0.457258 0)
(0.402065 -0.44627 0)
(0.431685 -0.43482 0)
(0.462267 -0.423249 0)
(0.49425 -0.410053 0)
(0.528224 -0.398634 0)
(0.565494 -0.380783 0)
(0.607294 -0.37253 0)
(0.00992375 -0.553867 0)
(0.0296983 -0.553256 0)
(0.0497189 -0.552057 0)
(0.0701486 -0.550628 0)
(0.0910341 -0.54857 0)
(0.112609 -0.546244 0)
(0.134993 -0.54365 0)
(0.15834 -0.539558 0)
(0.182651 -0.536331 0)
(0.207802 -0.530307 0)
(0.233801 -0.526265 0)
(0.260606 -0.51894 0)
(0.288297 -0.512845 0)
(0.316834 -0.50513 0)
(0.346097 -0.496118 0)
(0.376114 -0.486927 0)
(0.406788 -0.476604 0)
(0.438194 -0.465969 0)
(0.470471 -0.455427 0)
(0.504065 -0.443939 0)
(0.539623 -0.43479 0)
(0.578547 -0.421367 0)
(0.622219 -0.418015 0)
(0.00902679 -0.572972 0)
(0.0270693 -0.572277 0)
(0.0453618 -0.571661 0)
(0.0640566 -0.570465 0)
(0.0832806 -0.569164 0)
(0.103267 -0.567541 0)
(0.124174 -0.565984 0)
(0.146257 -0.563007 0)
(0.169712 -0.561012 0)
(0.19461 -0.556054 0)
(0.220965 -0.553264 0)
(0.248615 -0.546801 0)
(0.27759 -0.542068 0)
(0.307745 -0.53503 0)
(0.33903 -0.527207 0)
(0.371438 -0.518717 0)
(0.404751 -0.509264 0)
(0.438831 -0.499268 0)
(0.473632 -0.489691 0)
(0.509584 -0.479721 0)
(0.547278 -0.472781 0)
(0.58822 -0.4638 0)
(0.633969 -0.465614 0)
(0.00819241 -0.590334 0)
(0.0246305 -0.589681 0)
(0.0412975 -0.589504 0)
(0.0583363 -0.588648 0)
(0.0759436 -0.588112 0)
(0.0942974 -0.587242 0)
(0.11355 -0.58676 0)
(0.133951 -0.585047 0)
(0.155754 -0.584577 0)
(0.179259 -0.581256 0)
(0.204723 -0.580265 0)
(0.23214 -0.575268 0)
(0.261545 -0.5724 0)
(0.292587 -0.566333 0)
(0.325133 -0.560186 0)
(0.359071 -0.55255 0)
(0.394147 -0.5443 0)
(0.430085 -0.53474 0)
(0.46676 -0.526195 0)
(0.504379 -0.5173 0)
(0.543251 -0.512298 0)
(0.584935 -0.507473 0)
(0.631156 -0.514525 0)
(0.00715107 -0.605808 0)
(0.0215279 -0.605283 0)
(0.0361059 -0.60541 0)
(0.0510279 -0.60497 0)
(0.0665113 -0.605154 0)
(0.0827128 -0.605037 0)
(0.0998231 -0.60562 0)
(0.118105 -0.605174 0)
(0.137797 -0.606264 0)
(0.159194 -0.604809 0)
(0.182609 -0.605953 0)
(0.208254 -0.603027 0)
(0.236406 -0.602608 0)
(0.266884 -0.598078 0)
(0.299692 -0.594247 0)
(0.33459 -0.587798 0)
(0.371122 -0.58115 0)
(0.408782 -0.57199 0)
(0.447389 -0.564738 0)
(0.486747 -0.556257 0)
(0.526841 -0.552842 0)
(0.569329 -0.551666 0)
(0.615985 -0.563819 0)
(0.00625763 -0.619333 0)
(0.0188412 -0.618953 0)
(0.0315981 -0.619312 0)
(0.0446651 -0.619297 0)
(0.0582523 -0.620144 0)
(0.0725086 -0.620759 0)
(0.0876445 -0.622408 0)
(0.10392 -0.623221 0)
(0.121569 -0.62585 0)
(0.140881 -0.626243 0)
(0.162093 -0.629478 0)
(0.18542 -0.62883 0)
(0.211207 -0.631127 0)
(0.239528 -0.628769 0)
(0.27072 -0.627994 0)
(0.304647 -0.623342 0)
(0.340961 -0.61894 0)
(0.379195 -0.6106 0)
(0.41886 -0.604921 0)
(0.458923 -0.596023 0)
(0.498901 -0.593681 0)
(0.540103 -0.595071 0)
(0.584072 -0.61163 0)
(0.0052663 -0.630961 0)
(0.0158477 -0.630698 0)
(0.026565 -0.631251 0)
(0.0375337 -0.631608 0)
(0.0489534 -0.633059 0)
(0.0609669 -0.63434 0)
(0.0737869 -0.637019 0)
(0.0876562 -0.639003 0)
(0.102786 -0.64311 0)
(0.119459 -0.645249 0)
(0.1379 -0.650425 0)
(0.158353 -0.651986 0)
(0.181107 -0.656859 0)
(0.206241 -0.656867 0)
(0.234103 -0.659356 0)
(0.264668 -0.656909 0)
(0.298006 -0.655489 0)
(0.334249 -0.649018 0)
(0.372828 -0.645261 0)
(0.412293 -0.635731 0)
(0.451934 -0.634115 0)
(0.491758 -0.636193 0)
(0.532751 -0.656024 0)
(0.00447198 -0.640791 0)
(0.0134443 -0.640606 0)
(0.022519 -0.641321 0)
(0.0317938 -0.64197 0)
(0.041461 -0.643977 0)
(0.0516511 -0.645824 0)
(0.0625664 -0.649477 0)
(0.0744166 -0.652483 0)
(0.0873915 -0.657967 0)
(0.101755 -0.661677 0)
(0.117699 -0.668648 0)
(0.13547 -0.672275 0)
(0.155309 -0.679475 0)
(0.17731 -0.681722 0)
(0.20179 -0.687207 0)
(0.228692 -0.686918 0)
(0.258179 -0.688727 0)
(0.290299 -0.684593 0)
(0.324312 -0.682753 0)
(0.3596 -0.673479 0)
(0.395948 -0.672853 0)
(0.431426 -0.673251 0)
(0.465921 -0.694949 0)
(0.00366648 -0.64901 0)
(0.0110067 -0.648861 0)
(0.0184134 -0.649709 0)
(0.0259622 -0.650569 0)
(0.0338268 -0.653078 0)
(0.0421163 -0.655377 0)
(0.0510065 -0.65991 0)
(0.0606674 -0.66375 0)
(0.0712665 -0.670475 0)
(0.0830249 -0.675506 0)
(0.0961047 -0.684073 0)
(0.110717 -0.689483 0)
(0.127032 -0.698692 0)
(0.145169 -0.702936 0)
(0.165399 -0.711019 0)
(0.187689 -0.712639 0)
(0.212159 -0.717331 0)
(0.238539 -0.714881 0)
(0.266202 -0.714553 0)
(0.294976 -0.706165 0)
(0.323993 -0.705963 0)
(0.350962 -0.703006 0)
(0.375815 -0.724944 0)
(0.00305665 -0.655802 0)
(0.00916851 -0.655659 0)
(0.0153342 -0.656623 0)
(0.021612 -0.657623 0)
(0.0281477 -0.660568 0)
(0.0350298 -0.663207 0)
(0.042407 -0.668503 0)
(0.050409 -0.672983 0)
(0.0591846 -0.680789 0)
(0.0688912 -0.686841 0)
(0.0796527 -0.696776 0)
(0.0916183 -0.70357 0)
(0.1049 -0.714429 0)
(0.119595 -0.720279 0)
(0.135804 -0.730382 0)
(0.153437 -0.733484 0)
(0.172487 -0.740313 0)
(0.192626 -0.738739 0)
(0.213421 -0.739486 0)
(0.234065 -0.73099 0)
(0.252491 -0.728912 0)
(0.266713 -0.721548 0)
(0.275878 -0.740682 0)
(0.00242437 -0.661343 0)
(0.00727506 -0.661201 0)
(0.0121797 -0.662272 0)
(0.0171728 -0.663366 0)
(0.0223535 -0.666666 0)
(0.0277841 -0.669549 0)
(0.0335773 -0.675463 0)
(0.0398179 -0.680404 0)
(0.0466147 -0.689086 0)
(0.0540561 -0.695847 0)
(0.0622402 -0.706881 0)
(0.0712502 -0.714616 0)
(0.0811418 -0.726744 0)
(0.0919566 -0.733676 0)
(0.103676 -0.745129 0)
(0.116188 -0.74911 0)
(0.129368 -0.757157 0)
(0.14276 -0.755674 0)
(0.155747 -0.756582 0)
(0.167179 -0.74621 0)
(0.174883 -0.740032 0)
(0.176306 -0.726231 0)
(0.168471 -0.737411 0)
(0.00197391 -0.665792 0)
(0.00592676 -0.665657 0)
(0.00992368 -0.66682 0)
(0.0139803 -0.667971 0)
(0.0181632 -0.671529 0)
(0.0225173 -0.674578 0)
(0.0271185 -0.68094 0)
(0.0320092 -0.686174 0)
(0.0372576 -0.695482 0)
(0.0429051 -0.702667 0)
(0.0490192 -0.714493 0)
(0.0556068 -0.722743 0)
(0.0626772 -0.735729 0)
(0.070175 -0.743161 0)
(0.0779587 -0.755311 0)
(0.0858242 -0.759474 0)
(0.0934488 -0.767769 0)
(0.100152 -0.765326 0)
(0.105148 -0.765072 0)
(0.106965 -0.751104 0)
(0.103204 -0.739169 0)
(0.090689 -0.716011 0)
(0.0652584 -0.714259 0)
(0.00142407 -0.669233 0)
(0.00428418 -0.669114 0)
(0.00718278 -0.670343 0)
(0.0101179 -0.671526 0)
(0.0131235 -0.67525 0)
(0.0162105 -0.678386 0)
(0.0194116 -0.685024 0)
(0.0227346 -0.690397 0)
(0.0262108 -0.70008 0)
(0.0298491 -0.707453 0)
(0.0336724 -0.719747 0)
(0.0376478 -0.728159 0)
(0.0417275 -0.741573 0)
(0.0457868 -0.748987 0)
(0.0496559 -0.761252 0)
(0.0530635 -0.764919 0)
(0.0556169 -0.77261 0)
(0.0564968 -0.768163 0)
(0.0546185 -0.765426 0)
(0.0481473 -0.746129 0)
(0.0341246 -0.726325 0)
(0.00856112 -0.690635 0)
(-0.0339934 -0.671354 0)
(0.00105232 -0.671743 0)
(0.00315589 -0.671635 0)
(0.00525193 -0.672884 0)
(0.00732586 -0.674061 0)
(0.0093946 -0.677857 0)
(0.0114528 -0.680993 0)
(0.0135123 -0.687748 0)
(0.0155602 -0.693115 0)
(0.0175952 -0.702945 0)
(0.0195977 -0.710302 0)
(0.0215462 -0.722744 0)
(0.023366 -0.731032 0)
(0.0249499 -0.744438 0)
(0.0261222 -0.751426 0)
(0.0266647 -0.763293 0)
(0.0262353 -0.765918 0)
(0.0243409 -0.77232 0)
(0.0200387 -0.76506 0)
(0.0119189 -0.758527 0)
(-0.00221087 -0.732368 0)
(-0.0261361 -0.701989 0)
(-0.0655541 -0.6497 0)
(-0.127771 -0.60702 0)
(0.000559689 -0.67338 0)
(0.00165836 -0.673251 0)
(0.0027209 -0.674478 0)
(0.00374356 -0.675615 0)
(0.00472122 -0.679401 0)
(0.00561528 -0.682452 0)
(0.00640489 -0.689188 0)
(0.00705679 -0.694424 0)
(0.00754495 -0.704208 0)
(0.00782829 -0.711373 0)
(0.00784639 -0.723686 0)
(0.00751037 -0.731618 0)
(0.00670269 -0.744669 0)
(0.00524919 -0.75095 0)
(0.00294302 -0.762035 0)
(-0.000523066 -0.763299 0)
(-0.00556727 -0.768003 0)
(-0.0129309 -0.757689 0)
(-0.0237908 -0.746858 0)
(-0.0401428 -0.713436 0)
(-0.0656691 -0.671252 0)
(-0.10664 -0.59967 0)
(-0.171206 -0.529648 0)
(0.00024229 -0.6742 0)
(0.000689857 -0.674013 0)
(0.00105985 -0.675184 0)
(0.00132431 -0.67623 0)
(0.00145355 -0.679925 0)
(0.00141206 -0.682813 0)
(0.00117857 -0.689415 0)
(0.000712993 -0.694412 0)
(-4.21994e-05 -0.703979 0)
(-0.00115192 -0.710799 0)
(-0.00271865 -0.722731 0)
(-0.00485082 -0.730121 0)
(-0.00769014 -0.74253 0)
(-0.0114445 -0.747884 0)
(-0.0163164 -0.757915 0)
(-0.0226654 -0.757582 0)
(-0.0309698 -0.760332 0)
(-0.0419959 -0.746905 0)
(-0.0571456 -0.731527 0)
(-0.078773 -0.690621 0)
(-0.110776 -0.63627 0)
(-0.160722 -0.543293 0)
(-0.243043 -0.438405 0)
(-0.000111487 -0.674341 0)
(-0.000371348 -0.67408 0)
(-0.000732315 -0.675146 0)
(-0.00125833 -0.676026 0)
(-0.0019885 -0.679546 0)
(-0.0029475 -0.682206 0)
(-0.00416624 -0.688581 0)
(-0.00569386 -0.693262 0)
(-0.00761159 -0.702462 0)
(-0.0100064 -0.708813 0)
(-0.0130024 -0.720151 0)
(-0.0167201 -0.726841 0)
(-0.0212968 -0.738375 0)
(-0.0269293 -0.742623 0)