/*--------------------------------*- C++ -*----------------------------------*\
| =========                 |                                                 |
| \\      /  F ield         | OpenFOAM: The Open Source CFD Toolbox           |
|  \\    /   O peration     | Version:  2012                                  |
|   \\  /    A nd           | Website:  www.openfoam.com                      |
|    \\/     M anipulation  |                                                 |
\*---------------------------------------------------------------------------*/
FoamFile
{
    version     2.0;
    format      ascii;
    class       volScalarField;
    location    "0.54";
    object      maxKappa;
}
// * * * * * * * * * * * * * * * * * * * * * * * * * * * * * * * * * * * * * //

dimensions      [0 0 0 0 0 0 0];


internalField   nonuniform List<scalar> 
2268
(
1.72482e-06
3.42912e-06
4.99597e-06
6.41346e-06
7.77704e-06
9.27428e-06
1.05187e-05
1.14836e-05
1.23835e-05
1.30142e-05
1.33981e-05
1.35892e-05
1.3674e-05
1.3674e-05
1.35794e-05
1.31963e-05
1.25984e-05
1.17859e-05
1.07989e-05
9.5923e-06
7.98221e-06
6.07165e-06
3.7655e-06
2.11273e-06
3.61054e-06
5.11534e-06
6.52002e-06
7.88358e-06
9.35533e-06
1.05671e-05
1.15348e-05
1.24654e-05
1.30519e-05
1.34336e-05
1.36795e-05
1.37186e-05
1.37186e-05
1.35835e-05
1.31966e-05
1.26203e-05
1.18486e-05
1.08544e-05
9.60077e-06
7.90135e-06
5.92714e-06
3.78243e-06
2.68962e-06
3.97092e-06
5.35589e-06
6.72326e-06
8.08054e-06
9.49396e-06
1.06349e-05
1.16207e-05
1.25374e-05
1.31258e-05
1.35512e-05
1.38398e-05
1.38714e-05
1.38714e-05
1.37034e-05
1.33431e-05
1.28284e-05
1.21386e-05
1.12718e-05
1.01586e-05
8.62167e-06
6.76947e-06
4.69073e-06
3.34635e-06
4.45574e-06
5.69435e-06
7.00765e-06
8.36279e-06
9.71711e-06
1.07923e-05
1.18122e-05
1.27144e-05
1.32902e-05
1.37285e-05
1.39595e-05
1.39595e-05
1.39261e-05
1.37076e-05
1.33445e-05
1.28634e-05
1.22147e-05
1.13383e-05
1.03237e-05
9.0194e-06
7.8634e-06
6.59044e-06
4.08166e-06
5.04545e-06
6.12376e-06
7.36861e-06
8.71023e-06
9.97843e-06
1.09723e-05
1.20169e-05
1.28864e-05
1.34564e-05
1.39382e-05
1.41995e-05
1.42028e-05
1.42028e-05
1.40361e-05
1.36836e-05
1.32198e-05
1.26591e-05
1.19493e-05
1.10795e-05
9.92248e-06
8.84393e-06
7.47149e-06
4.82599e-06
5.66422e-06
6.60928e-06
7.7892e-06
9.12023e-06
1.03237e-05
1.12921e-05
1.23822e-05
1.32053e-05
1.3725e-05
1.42084e-05
1.43945e-05
1.43945e-05
1.42954e-05
1.40548e-05
1.36752e-05
1.32367e-05
1.2746e-05
1.20946e-05
1.14317e-05
1.05637e-05
1.0319e-05
1.01494e-05
5.62968e-06
6.35785e-06
7.18749e-06
8.30143e-06
9.59662e-06
1.07031e-05
1.16293e-05
1.2704e-05
1.34391e-05
1.39882e-05
1.45198e-05
1.47659e-05
1.47659e-05
1.47585e-05
1.45918e-05
1.41849e-05
1.36924e-05
1.32633e-05
1.28112e-05
1.23678e-05
1.17552e-05
1.16661e-05
1.12749e-05
6.79646e-06
7.39011e-06
7.85385e-06
8.9088e-06
1.01502e-05
1.1186e-05
1.21403e-05
1.31925e-05
1.38532e-05
1.44517e-05
1.49347e-05
1.50598e-05
1.50598e-05
1.49534e-05
1.46538e-05
1.41993e-05
1.37235e-05
1.33935e-05
1.30426e-05
1.2833e-05
1.33499e-05
1.48988e-05
1.48988e-05
0.00453911
0.00453911
0.00370597
0.00348906
0.00337722
0.00327412
0.00302925
0.00236942
0.00188536
0.00182419
0.00182419
0.00161569
0.0013116
0.00123434
0.00117331
0.00110446
0.00105235
0.000963225
0.000671678
0.00416573
0.00416573
0.00259526
0.00147056
0.000726455
0.00079908
0.00158581
0.00304852
0.0033185
0.0033185
0.00271605
0.00225534
0.00210601
0.00205117
0.00198788
0.00171904
0.00135021
0.000980705
0.000675809
0.00203109
0.00203109
0.00115508
0.00166684
0.00270936
0.00303967
0.00303967
0.00294665
0.00382523
0.00397093
0.00397093
0.00385689
0.00341868
0.00386808
0.00426381
0.00426381
0.00357532
0.00216226
0.00102256
0.00223042
0.00223042
0.00116989
0.00146078
0.00206869
0.00364461
0.004208
0.004208
0.00329788
0.00315503
0.00404543
0.00465589
0.00499471
0.00535892
0.00535892
0.00479856
0.0037065
0.00248328
0.000914247
0.00171723
0.00171723
0.00108556
0.00166867
0.00167814
0.00226098
0.00555355
0.00559156
0.00559156
0.00235011
0.0029346
0.00325069
0.00325069
0.00309392
0.00282143
0.00277115
0.00277115
0.00276781
0.00110962
0.00144538
0.00144538
0.00129452
0.00129452
0.00110098
0.00123873
0.00380038
0.00640136
0.00640136
0.00440392
0.00163219
0.00163381
0.00163381
0.00136779
0.00102625
0.00166192
0.00263572
0.00263572
0.00126835
0.00106484
0.00106975
0.00119562
0.00119562
0.000275849
0.000840256
0.0020472
0.00486476
0.00553835
0.00553835
0.00279802
0.00149047
0.00119137
0.000976105
0.00078972
0.00102073
0.00214145
0.00214145
0.00156715
0.000928256
0.00106542
0.00106542
0.000810163
0.000129469
0.000674602
0.00140003
0.00390213
0.00579359
0.00579359
0.00378404
0.00174755
0.000685427
0.000590178
0.000669072
0.00104766
0.00212193
0.00212193
0.00203235
8.41795e-05
8.56342e-05
8.78521e-05
9.18798e-05
9.50596e-05
9.59084e-05
9.11978e-05
8.90742e-05
6.63719e-05
5.07124e-05
4.2912e-05
3.47822e-05
2.9052e-05
2.18843e-05
1.65532e-05
1.52485e-05
1.4652e-05
1.44875e-05
1.50002e-05
1.63976e-05
1.88321e-05
2.37185e-05
2.61141e-05
0.000208424
0.000200843
0.000211326
0.000224438
0.000234948
0.000240939
0.000247216
0.000247216
0.000245004
0.000229
0.000201902
0.000160547
0.000153506
0.000110149
4.50239e-05
3.30526e-05
2.41375e-05
1.55987e-05
1.53255e-05
1.52588e-05
1.71459e-05
2.09283e-05
2.61141e-05
0.000217944
0.000216586
0.000212026
0.000213669
0.000215565
0.000210769
0.000206694
0.000202746
0.000184264
0.000189884
0.000196171
0.000235035
0.000272899
0.000305376
0.000264096
0.000208903
0.000107499
3.04548e-05
2.93312e-05
2.31587e-05
1.89059e-05
2.11007e-05
2.40632e-05
0.000217944
0.000207013
0.000204063
0.000198799
0.000177496
0.000161708
0.000126024
0.000106367
7.84173e-05
0.000184758
0.000315405
0.000315405
0.000236118
0.000305376
0.000192066
0.000128543
0.000168035
0.000180326
0.000160839
9.27723e-05
4.01312e-05
3.71726e-05
4.06901e-05
0.000217721
0.000217721
0.000212837
0.000209727
0.000202361
0.000191238
0.000175266
0.000158138
0.000141659
0.000143536
0.000206541
0.000168659
0.000201251
0.000214114
0.000231702
0.000171791
0.000206456
0.000180326
0.000125484
0.000168578
0.000209295
0.000228694
0.000209903
0.000209627
0.000205711
0.000198114
0.000195768
0.000178182
0.000170266
0.000143791
0.000138693
0.000114877
0.000147593
0.000170388
0.000170388
0.000191393
0.000242735
0.000242735
0.000235095
0.000257603
0.000224345
0.000254212
0.000231455
0.000223216
0.000252735
0.000302325
0.000209582
0.000209582
0.000204727
0.000199471
0.000191026
0.000180533
0.000165603
0.000152046
0.000135324
0.000132791
0.000128366
0.000126853
8.00387e-05
0.000173777
0.000178117
0.000182407
0.000285141
0.000304388
0.000313262
0.000318166
0.000319575
0.000346958
0.000357169
0.000204291
0.000202243
0.00019603
0.000193491
0.000180516
0.000176747
0.00015927
0.000157062
0.000142228
0.000141894
0.000147534
0.000147534
0.000145645
0.000145645
0.000145055
0.000113339
0.000184128
0.000229982
0.000239878
0.000295881
0.000370715
0.000370715
0.00036904
0.000209684
0.000209684
0.000206141
0.000202205
0.000194781
0.000186998
0.00017645
0.000169868
0.000155575
0.00015437
0.000139153
0.000142079
0.000125386
0.000133837
0.000133369
0.000122043
0.000134021
0.000132585
0.000144293
0.000166199
0.000211272
0.000281179
0.000263614
0.000214063
0.000213258
0.000208256
0.000206639
0.000196921
0.000194762
0.00018325
0.00018059
0.000170158
0.000168698
0.000160445
0.000161783
0.000156464
0.000156945
0.000153412
0.000141748
0.000140831
0.000136183
0.000139169
0.000139169
0.000134719
0.00012643
0.000122267
0.000223113
0.000222448
0.000218185
0.000216916
0.000208624
0.000206825
0.00019721
0.000194416
0.000184902
0.000183594
0.000173048
0.00017579
0.000166158
0.00017057
0.000164438
0.000161186
0.00015653
0.000144408
0.000129669
0.000111975
9.35059e-05
7.34767e-05
4.88027e-05
0.000232163
0.000231672
0.000227961
0.00022716
0.000220315
0.000218781
0.000211356
0.000208336
0.000201358
0.000199716
0.000191731
0.000193041
0.000185658
0.000186558
0.000182159
0.000176638
0.000170723
0.000162155
0.000152153
0.000139564
0.000120344
8.97978e-05
5.65248e-05
0.000244742
0.000244484
0.000241283
0.000240772
0.000234882
0.000233401
0.000227207
0.000224191
0.000217912
0.000216184
0.000208351
0.000208727
0.000199784
0.00020081
0.000191198
0.000189191
0.000178004
0.000169613
0.000155557
0.000139883
0.000124789
0.000110825
0.000122298
0.000257668
0.000257639
0.00025489
0.000254624
0.000249796
0.000248253
0.000243615
0.000240465
0.00023592
0.000233918
0.000227778
0.000227953
0.000220005
0.000221242
0.000211293
0.000211069
0.000199324
0.000195519
0.000183399
0.000176011
0.000168286
0.000167248
0.000183732
0.000273321
0.000273479
0.000270868
0.000270792
0.000266685
0.000265229
0.000261576
0.000258631
0.000255014
0.000253056
0.000247902
0.000247858
0.000241073
0.000242355
0.000233563
0.0002352
0.000224786
0.000225393
0.000216113
0.000215966
0.000215029
0.000224118
0.000247503
0.000290137
0.000290429
0.0002881
0.000288108
0.000284939
0.000283529
0.000281181
0.000278348
0.000276221
0.000274297
0.000270793
0.00027106
0.000265977
0.000268123
0.000261048
0.000265241
0.000256493
0.000262831
0.00025599
0.000265608
0.000269163
0.000289376
0.000317161
0.000308864
0.000309302
0.000307158
0.000307244
0.000304753
0.000303523
0.000302086
0.000299573
0.000298576
0.000296983
0.000295017
0.000295666
0.000292526
0.000295304
0.000290806
0.000296882
0.000291146
0.000301797
0.000298198
0.000315475
0.000322719
0.000352874
0.000383141
0.000329407
0.000329962
0.000327929
0.000327977
0.000326184
0.000325157
0.000324768
0.00032263
0.000323155
0.000322129
0.000322135
0.000323643
0.000322748
0.000326714
0.000325196
0.000333295
0.000331031
0.000345754
0.000345612
0.000369717
0.000379737
0.000418007
0.000449258
0.000351008
0.00035164
0.000349752
0.000349786
0.000348566
0.000347848
0.00034821
0.000346653
0.000348492
0.000348115
0.000350087
0.000352527
0.000354167
0.000359479
0.000361539
0.000371312
0.000373534
0.000390947
0.000395442
0.000424293
0.000437894
0.000482395
0.00051584
0.000373964
0.000374502
0.000372943
0.000372867
0.000372203
0.000371698
0.000372749
0.000371783
0.00037495
0.000375336
0.000379506
0.000383218
0.000387658
0.000394923
0.000400753
0.000412777
0.000419716
0.000439762
0.000449198
0.000481507
0.000498627
0.000546673
0.000581774
0.000397021
0.000397208
0.000396094
0.000395854
0.000395488
0.000395193
0.000396705
0.000396378
0.000400547
0.000401722
0.000407965
0.0004128
0.00042016
0.000429325
0.000439178
0.000453507
0.000465848
0.000488481
0.000504268
0.000539638
0.000561759
0.000612947
0.000650371
0.000419979
0.00041963
0.000419277
0.000418811
0.000418843
0.000418767
0.000420701
0.000420915
0.000425733
0.000427423
0.000435096
0.000440714
0.000450583
0.000461626
0.000475364
0.000492536
0.000510575
0.000536947
0.000559826
0.000598868
0.000627087
0.000681794
0.000721917
0.000441633
0.000440779
0.000441061
0.000440267
0.000440558
0.000440563
0.000442579
0.000443082
0.000447969
0.000449813
0.000458324
0.000464429
0.000476573
0.000489354
0.000506985
0.000527015
0.000551021
0.00058107
0.000611339
0.000654173
0.000689814
0.000749225
0.000793781
0.000461699
0.000460649
0.000461407
0.000460523
0.000461286
0.000461519
0.000463832
0.000464781
0.00046989
0.000472204
0.000481306
0.000487745
0.000501352
0.000515012
0.000534984
0.000556705
0.000584911
0.0006176
0.000657112
0.000701252
0.000750861
0.000810914
0.000861784
0.000479764
0.000478742
0.000479612
0.000478756
0.000479833
0.000480198
0.000482684
0.000483978
0.000489243
0.000492034
0.00050134
0.000507792
0.000521974
0.000535457
0.000556519
0.000580072
0.000610981
0.000647008
0.000690338
0.000739258
0.000795272
0.000864534
0.000923462
0.000495679
0.00049481
0.000495735
0.0004952
0.000496757
0.000497602
0.000500754
0.000502916
0.000508966
0.00051289
0.000522976
0.00053035
0.000545383
0.000559044
0.000580688
0.000603192
0.000637655
0.000679301
0.00072894
0.000785129
0.000851796
0.000920421
0.000974496
0.000509634
0.000508907
0.000509836
0.000509653
0.000511628
0.000512981
0.000516833
0.000519866
0.000526759
0.000531859
0.000542719
0.000551057
0.000566664
0.00058196
0.000603299
0.000629873
0.000662411
0.000701972
0.000750007
0.000807107
0.000875763
0.000947755
0.00101022
0.000521505
0.000520903
0.000521909
0.000522133
0.000524661
0.000526701
0.00053155
0.000535812
0.00054408
0.000551022
0.000563525
0.00057399
0.0005913
0.000606666
0.0006298
0.000652422
0.000684762
0.000717936
0.000767455
0.000828848
0.000901813
0.000981437
0.00104079
0.000531734
0.000531213
0.000532295
0.000532888
0.000536019
0.000538795
0.000544747
0.000550281
0.000559991
0.00056899
0.000582809
0.000597664
0.000615501
0.000636033
0.000659651
0.000687156
0.000719193
0.000757773
0.000803478
0.000859424
0.000925025
0.00100108
0.00106553
0.000540178
0.000539742
0.000540984
0.000541932
0.00054572
0.00054921
0.000556299
0.000563086
0.000574335
0.000584951
0.000600928
0.000615897
0.000636891
0.000656612
0.000683397
0.000709334
0.000743912
0.000778917
0.000825364
0.00087257
0.000939668
0.00102326
0.00109991
0.000547296
0.00054691
0.000548333
0.000549573
0.000554019
0.00055814
0.00056637
0.000575886
0.000588316
0.000603314
0.000620764
0.000640935
0.000663703
0.000689506
0.000718466
0.000751254
0.000788079
0.000829595
0.000875646
0.000929412
0.000989526
0.00106618
0.00112521
0.000552902
0.000552596
0.000554227
0.000555715
0.000560736
0.000565357
0.000574556
0.000583289
0.000597403
0.000610945
0.000630391
0.000649225
0.000673999
0.00069822
0.000728693
0.00075921
0.000796913
0.000835683
0.0008832
0.00093365
0.000996812
0.00107095
0.00116609
0.000557274
0.000557027
0.000558827
0.000560504
0.000565985
0.000573006
0.000582808
0.000595228
0.000610219
0.000628079
0.000648809
0.000672434
0.000699069
0.000728826
0.000762215
0.000799637
0.000841695
0.000888808
0.00094175
0.00100082
0.00106573
0.00114762
0.00119053
0.000560261
0.000560081
0.000561998
0.000563811
0.000569563
0.000574749
0.000585173
0.000595542
0.000610538
0.000627105
0.000646884
0.000669327
0.000694336
0.000722028
0.000752806
0.000786913
0.000826032
0.000867115
0.000917914
0.000971408
0.00103665
0.00112049
0.00126017
0.00056192
0.000561752
0.000563714
0.000566865
0.000572741
0.000581022
0.00059154
0.000604863
0.000620797
0.000639794
0.000661576
0.000686335
0.000713902
0.000744691
0.000779172
0.000818099
0.000862225
0.000912364
0.000970441
0.00103801
0.00112544
0.00125633
0.00133819
0.000562492
0.000562317
0.000564225
0.000566081
0.000571825
0.000578035
0.000587479
0.000599558
0.000613958
0.00063111
0.000650549
0.000672473
0.00069645
0.000723074
0.000753222
0.000785791
0.000825667
0.000866551
0.000919324
0.000981715
0.00108019
0.0012357
0.00144179
0.000562492
0.000562317
0.000564225
0.000567772
0.000573446
0.0005815
0.000591671
0.000604546
0.000619795
0.000637794
0.000658081
0.000680708
0.000705201
0.000731992
0.000761231
0.000794148
0.000831692
0.000877088
0.000938013
0.00103111
0.00119476
0.00142045
0.00160878
0.000561844
0.000561613
0.000563338
0.000564971
0.000570442
0.000575146
0.000585159
0.000593767
0.000608787
0.000621589
0.000641424
0.000657848
0.00068132
0.000699998
0.000726786
0.000747882
0.000780478
0.000808129
0.00085718
0.000959237
0.00119017
0.00149544
0.00184046
0.000560761
0.000560321
0.000561768
0.000563622
0.000568472
0.000575507
0.000584351
0.000595473
0.000608426
0.000623321
0.000639445
0.000656345
0.000672937
0.000689252
0.000703537
0.000716197
0.000735927
0.000748966
0.000793593
0.000937164
0.00123973
0.00171487
0.00196718
0.000558601
0.000558034
0.000559215
0.000560137
0.000564683
0.000568254
0.000576772
0.00058348
0.000595955
0.000605562
0.000621002
0.000631829
0.000647529
0.000655572
0.00066872
0.000668656
0.000675771
0.000667201
0.000691139
0.000814997
0.00113622
0.00169515
0.00223015
0.000556102
0.000555435
0.00055636
0.000556862
0.000560794
0.000565242
0.000571893
0.000580198
0.000589567
0.000599797
0.000609805
0.000618721
0.000626409
0.000628003
0.000632772
0.000619397
0.000609333
0.000575231
0.000635495
0.00102228
0.00167052
0.00226926
0.0025341
0.000553117
0.000552294
0.000552913
0.000552994
0.000556275
0.000558307
0.00056472
0.000569009
0.000578182
0.000583986
0.000594272
0.00059888
0.000606466
0.000603572
0.000602799
0.000581493
0.000560186
0.000519264
0.000812069
0.00147385
0.00212805
0.00244596
0.0025341
2.53888e-05
2.29553e-05
2.28068e-05
1.97711e-05
2.61198e-05
2.7283e-05
2.90226e-05
2.97125e-05
2.61198e-05
2.7283e-05
2.90226e-05
2.97993e-05
3.92766e-05
3.94923e-05
4.05855e-05
4.13211e-05
0.000213423
0.000199744
0.000196848
0.000184149
0.00029466
0.000287325
0.000317977
0.00034075
0.00029466
0.000287325
0.000317977
0.00034075
0.00025432
0.000240175
0.000241543
0.000266784
0.000222829
0.000240175
0.000241543
0.000274723
0.000123704
0.000137677
0.000161495
0.000175071
6.21797e-05
7.78513e-05
0.00010164
0.000130276
8.2838e-05
0.000118517
0.000153427
0.000202458
0.000150675
0.000181631
0.000210331
0.00025794
0.00020937
0.000236426
0.000263189
0.000303748
0.000278929
0.000305988
0.000336305
0.000374615
0.000353444
0.000380362
0.000413026
0.000449119
0.000425651
0.000452181
0.000488722
0.000523208
0.000495454
0.000520928
0.000558328
0.000590242
0.000565012
0.000590641
0.000629263
0.000659946
0.000631545
0.000656835
0.00069529
0.000724756
0.000700213
0.000725197
0.000763236
0.000791786
0.000771864
0.000796595
0.000833897
0.000861411
0.00084569
0.000871315
0.000908892
0.000936101
0.000917905
0.000945745
0.000985415
0.00101375
0.000985444
0.00101677
0.00105995
0.00109089
0.00104408
0.00108043
0.0011281
0.00116352
0.00108868
0.00113097
0.00118367
0.00122607
0.00112596
0.00117114
0.0012287
0.00127857
0.00115305
0.00119953
0.00126359
0.00131862
0.00118229
0.00123092
0.00130003
0.00135674
0.00120505
0.00126317
0.00133761
0.00140469
0.00124878
0.00131983
0.00140348
0.00149606
0.00129148
0.00138827
0.0014931
0.00161444
0.00139714
0.0015104
0.00160358
0.00168536
0.00147836
0.00154373
0.00160358
0.00168536
0.00158269
0.00166512
0.0017609
0.00182916
0.00180544
0.00195962
0.00213137
0.0022607
0.00212136
0.00229212
0.00246446
0.00261406
0.00230936
0.00248079
0.00266274
0.00280869
0.00249011
0.00258586
0.0027311
0.00283296
0.0025637
0.00260451
0.0027311
0.00283296
0.0025637
0.00260451
0.0027079
0.00277634
0.000410165
0.000769902
0.000769902
0.000438476
0.000103607
0.000657164
0.00115294
0.00278764
0.00523366
0.00523366
0.00488093
0.00263338
0.000879469
0.000840402
0.000951794
0.00116742
0.00175212
0.00195085
0.00169999
7.09412e-05
0.000128549
0.000114792
7.41099e-05
9.48156e-05
0.000621607
0.0012469
0.00235226
0.00454676
0.00509812
0.00498481
0.00344098
0.00184164
0.00102186
0.000979912
0.00107379
0.00165775
0.00195085
0.00108408
3.67089e-05
3.97561e-05
4.37169e-05
4.56395e-05
8.37078e-05
0.00060873
0.00120485
0.00189014
0.00377167
0.00477117
0.00460629
0.00348765
0.00227404
0.00151658
0.00125495
0.00109751
0.00142457
0.00182776
0.000849934
4.16438e-05
4.05231e-05
3.76761e-05
3.73761e-05
5.43009e-05
0.000460119
0.00112242
0.00179321
0.00330215
0.00420726
0.00397592
0.00328529
0.00241114
0.00166145
0.00123478
0.000841038
0.00136044
0.00188186
0.0007577
0.000180238
0.000160143
9.2251e-05
4.67307e-05
2.79246e-05
0.000150931
0.000889054
0.00124637
0.00227639
0.00338123
0.00315312
0.00285325
0.00224461
0.00164353
0.00119169
0.00073551
0.00127599
0.00188186
0.000573732
0.000514995
0.000552165
0.000483153
0.000262988
6.07123e-05
1.67712e-05
0.000538702
0.00145213
0.00218601
0.0026111
0.00240887
0.00215862
0.00187717
0.0014545
0.00111142
0.000660728
0.00109075
0.00157171
0.000369088
0.000596053
0.000616739
0.000736117
0.000598347
0.000246407
3.40375e-05
0.000122606
0.00121456
0.00162368
0.00203002
0.0022871
0.0022871
0.00181783
0.00152302
0.00118746
0.000734059
0.000977582
0.00114554
0.000234937
0.000323078
0.000738668
0.00112317
0.00112317
0.000784413
0.000332137
6.53311e-05
0.000460621
0.00150694
0.00159122
0.00172558
0.00141728
0.00144242
0.00135409
0.00130443
0.00112815
0.00113496
0.00087307
0.000157643
0.000535751
0.000535751
0.000624969
0.000737288
0.000801159
0.000801159
0.000445706
0.000175974
0.000462666
0.00143281
0.00123935
0.00122994
0.00107316
0.00115874
0.00134625
0.00147036
0.00147036
0.000658566
9.38426e-05
0.000240485
0.000355084
0.000253271
0.000301
0.000527546
0.000588994
0.000671443
0.000613851
0.000330863
0.000457258
0.000842858
0.000922514
0.00120113
0.00136213
0.00136213
0.00105234
0.000276323
8.33553e-05
3.58597e-05
0.000161021
0.000227258
0.000223815
0.000395034
0.000738565
0.00114771
0.00185795
0.00170959
0.00126554
0.000671966
0.000327402
0.000331754
0.000389991
0.000483443
0.000470581
0.000360689
0.000280095
0.000117633
3.6395e-05
0.000299317
0.000437913
0.000553405
0.00101034
0.00188657
0.00258103
0.0029156
0.0029156
0.00244706
0.0015823
0.000788794
0.000517639
0.000773566
0.00100171
0.00101418
0.00101418
0.000870363
0.000459104
7.01405e-05
0.000494058
0.000729223
0.00112623
0.00189139
0.00258649
0.00282964
0.00292817
0.00292817
0.00171575
0.00100482
0.000752852
0.000763563
0.000763563
0.000703007
0.000716214
0.000714912
0.000522357
0.00024204
5.76691e-05
0.000466156
0.000702704
0.00111584
0.00164154
0.00192922
0.00210673
0.00228589
0.00217359
0.00206176
0.00144679
0.000696564
0.000364827
0.0002642
0.000431739
0.000446536
0.000398758
0.000166447
5.98844e-05
4.92194e-05
0.000569312
0.000820865
0.00120168
0.00161196
0.00173381
0.00173381
0.00140263
0.00154961
0.00169247
0.00183836
0.00176923
0.00146649
0.000795089
0.000297004
0.000100938
5.89141e-05
2.19561e-05
4.3155e-05
6.95246e-05
0.000623081
0.000834177
0.0011535
0.00152702
0.00166418
0.00166418
0.00150723
0.00194826
0.0022529
0.00234519
0.00234519
0.00217679
0.00172237
0.00127132
0.000753027
0.000303388
5.82904e-05
3.93285e-05
6.95246e-05
0.000715116
0.000912474
0.00119435
0.00154293
0.00185076
0.00185076
0.00175446
0.00136838
0.0018166
0.00232063
0.00249346
0.00249346
0.00224035
0.00173855
0.00129565
0.000910177
0.000342049
9.84623e-05
5.97203e-05
0.000780726
0.000958289
0.00119324
0.00149193
0.00182915
0.00204703
0.00204703
0.00187604
0.0013869
0.00118323
0.00143876
0.00181701
0.00167004
0.00163752
0.00147832
0.00142513
0.000781073
0.000187222
4.52169e-05
0.000838941
0.000998012
0.00119696
0.00142171
0.00166885
0.00188948
0.00193421
0.00193421
0.00178127
0.00151632
0.00125821
0.000957034
0.00116499
0.00135564
0.001514
0.001514
0.00117036
0.00040838
4.85573e-05
0.000919644
0.00106655
0.00124739
0.00144783
0.0016524
0.00185039
0.00194795
0.00194795
0.00190882
0.00172687
0.00142461
0.00100195
0.000594084
0.00092098
0.00153467
0.00162183
0.00162183
0.00109486
0.000389044
0.000963045
0.00109094
0.00124035
0.00139684
0.0015455
0.00168743
0.00177478
0.00178405
0.00178405
0.00169265
0.00151634
0.00124986
0.000932065
0.000631445
0.000876753
0.00124293
0.00124293
0.00112966
0.000758625
0.00105323
0.00117563
0.00131375
0.00145619
0.00157629
0.00167526
0.00171571
0.00171571
0.00170551
0.0016329
0.00147968
0.00125518
0.0010236
0.000738105
0.000617146
0.00101783
0.00130664
0.00130664
0.00102564
0.00110224
0.00121073
0.00132936
0.0014517
0.00155372
0.00163723
0.00166589
0.00166589
0.00164189
0.00158029
0.00147435
0.00131699
0.00114196
0.000925326
0.000705328
0.000552732
0.00112202
0.00120882
0.00105419
0.00120586
0.0013093
0.00141838
0.00152859
0.001616
0.00168094
0.0016915
0.0016915
0.00165305
0.00157582
0.00145877
0.00131394
0.00116239
0.000997579
0.000818623
0.000640232
0.00106434
0.00120882
0.00107828
0.00127287
0.00137166
0.00147192
0.00157226
0.00165378
0.00171611
0.00172593
0.00172593
0.00168782
0.00160993
0.00150014
0.00135311
0.00119957
0.00101065
0.000804249
0.000509222
0.000822394
0.000992502
0.000930939
0.00138728
0.00149013
0.00159011
0.00168511
0.00175784
0.00180581
0.00180581
0.00180132
0.00175372
0.00166197
0.00154654
0.00140867
0.00125884
0.00110815
0.000836756
0.000560353
0.000866452
0.00089363
0.00089363
0.00145873
0.00157367
0.00168425
0.0017856
0.00186309
0.00191606
0.00191606
0.00191312
0.00186477
0.00176633
0.00164938
0.00151953
0.00139032
0.00134732
0.00108644
0.000773258
0.000890246
0.000821077
0.000821077
0.00156277
0.00170182
0.00183149
0.00194378
0.00202416
0.00207664
0.00207664
0.0020731
0.00202896
0.0019295
0.00183155
0.00173327
0.00181601
0.00198958
0.00164561
0.00122524
0.00132608
0.00116986
0.000892528
0.00162053
0.00178986
0.00195251
0.00210053
0.0022091
0.00227854
0.00228562
0.00228562
0.00225064
0.00215702
0.00208966
0.00215882
0.00247728
0.00260553
0.00220335
0.00149947
0.00158765
0.00158765
0.000971915
0.00171449
0.00192968
0.00214688
0.00233807
0.00246874
0.00254643
0.00255296
0.00255296
0.0025297
0.00244707
0.00246474
0.00271839
0.00305847
0.00305847
0.00197888
0.0014613
0.0014613
0.00141932
0.00102397
0.00179498
0.00207841
0.00235812
0.00259208
0.0027559
0.0028604
0.00288372
0.00288372
0.00287988
0.0028585
0.00295565
0.00332525
0.00355081
0.00338478
0.00177859
0.00157659
0.00157659
0.00145559
0.00111839
0.00198263
0.00231843
0.00260483
0.00283216
0.00299039
0.00310701
0.00317218
0.00321664
0.00321664
0.00327117
0.0034215
0.00381782
0.00396474
0.00365033
0.00175615
0.00186316
0.00186316
0.00154601
0.0012477
0.0021181
0.00236522
0.00258926
0.00281408
0.00300157
0.00318163
0.00333555
0.00350836
0.00359375
0.00371139
0.00389127
0.00427875
0.00429655
0.0039054
0.00180127
0.00185006
0.00207179
0.00173019
0.00115207
0.00208022
0.00217966
0.00234374
0.00257093
0.00281862
0.00307666
0.00331221
0.00359224
0.0038102
0.00401044
0.004243
0.00462058
0.00462058
0.00418156
0.00206205
0.00209816
0.00236367
0.00198515
0.000932486
0.00179201
0.00179201
0.00180404
0.00192127
0.00235677
0.00286053
0.00328751
0.0036939
0.00402697
0.00429557
0.00456437
0.00495439
0.00495439
0.00448096
0.00223568
0.00243626
0.00250838
0.00199447
0.000782612
0.00191019
0.00194344
0.00182021
0.00136533
0.00150597
0.002416
0.00304211
0.00357875
0.00402218
0.00435604
0.00467623
0.00505901
0.00505901
0.00465087
0.00235839
0.00253409
0.00253409
0.00203835
0.000758397
0.00243843
0.00250467
0.00247535
0.00204016
0.00125711
0.00227126
0.00312526
0.00364519
0.00407645
0.00442507
0.00470272
0.00499785
0.00499785
0.00463877
0.00258151
0.00228178
0.00248244
0.00213341
0.000884596
0.00297946
0.00309017
0.00309017
0.00295085
0.00242454
0.00224243
0.00292249
0.00342216
0.00387752
0.00424546
0.00450556
0.00474029
0.00474029
0.00439164
0.00249798
0.00197129
0.00219942
0.00185128
0.000823962
0.00341086
0.00352886
0.00352886
0.00345673
0.00309404
0.0027756
0.00307442
0.00344454
0.00383629
0.00413323
0.00432596
0.00447319
0.00447319
0.00407271
0.00242279
0.00174794
0.00183488
0.00166984
0.000809251
0.00342331
0.00358142
0.00358809
0.00358809
0.00336689
0.00299593
0.00286108
0.00313142
0.00345407
0.00371415
0.00387344
0.00397209
0.00397209
0.00355276
0.00204665
0.00136819
0.00148406
0.00198747
0.000720393
0.00332492
0.00336642
0.00336642
0.00328371
0.00310402
0.00296737
0.00291399
0.00312203
0.00337672
0.00359585
0.00371931
0.00382105
0.00382105
0.00331272
0.00184089
0.00143704
0.00226021
0.00290293
0.0017308
0.00315825
0.00319597
0.00319597
0.00302618
0.00269677
0.00246054
0.00247014
0.00269861
0.00294425
0.00313218
0.00326237
0.00326237
0.00320093
0.00257879
0.0012539
0.00216897
0.00301465
0.00330461
0.00330461
)
;

boundaryField
{
    leftWall
    {
        type            calculated;
        value           uniform 0;
    }
    rightWall
    {
        type            calculated;
        value           uniform 0;
    }
    lowerWall
    {
        type            calculated;
        value           uniform 0;
    }
    atmosphere
    {
        type            calculated;
        value           uniform 0;
    }
    defaultFaces
    {
        type            empty;
    }
}


// ************************************************************************* //
