/*--------------------------------*- C++ -*----------------------------------*\
| =========                 |                                                 |
| \\      /  F ield         | OpenFOAM: The Open Source CFD Toolbox           |
|  \\    /   O peration     | Version:  2012                                  |
|   \\  /    A nd           | Website:  www.openfoam.com                      |
|    \\/     M anipulation  |                                                 |
\*---------------------------------------------------------------------------*/
FoamFile
{
    version     2.0;
    format      ascii;
    class       volScalarField;
    location    "0.54";
    object      minKappa;
}
// * * * * * * * * * * * * * * * * * * * * * * * * * * * * * * * * * * * * * //

dimensions      [0 0 0 0 0 0 0];


internalField   nonuniform List<scalar> 
2268
(
5.22893e-07
1.29072e-06
2.03626e-06
2.74246e-06
3.37012e-06
4.03145e-06
4.77348e-06
5.19238e-06
5.68704e-06
6.05762e-06
6.26247e-06
6.41949e-06
6.46905e-06
6.47808e-06
6.36049e-06
6.11406e-06
5.8054e-06
5.36519e-06
4.86892e-06
4.20227e-06
3.30461e-06
2.36613e-06
1.20477e-06
5.22893e-07
1.29072e-06
2.03626e-06
2.74246e-06
3.37012e-06
4.03145e-06
4.77348e-06
5.19238e-06
5.68704e-06
6.05762e-06
6.26247e-06
6.41949e-06
6.46905e-06
6.47808e-06
6.36049e-06
6.11406e-06
5.8054e-06
5.36519e-06
4.86892e-06
4.20227e-06
3.30461e-06
2.36613e-06
1.20477e-06
8.16036e-07
1.45352e-06
2.12948e-06
2.81931e-06
3.43966e-06
4.10531e-06
4.8034e-06
5.21734e-06
5.72683e-06
6.09056e-06
6.28225e-06
6.47207e-06
6.53491e-06
6.50554e-06
6.3916e-06
6.15234e-06
5.87581e-06
5.46151e-06
4.99613e-06
4.34273e-06
3.46638e-06
2.53415e-06
1.47561e-06
1.15236e-06
1.70017e-06
2.28224e-06
2.94016e-06
3.54923e-06
4.22218e-06
4.85746e-06
5.2697e-06
5.80557e-06
6.1295e-06
6.35592e-06
6.53778e-06
6.60157e-06
6.53695e-06
6.41884e-06
6.19495e-06
5.94806e-06
5.56223e-06
5.12402e-06
4.55641e-06
3.78101e-06
3.1345e-06
2.20424e-06
1.5058e-06
2.00457e-06
2.48563e-06
3.09964e-06
3.69472e-06
4.37426e-06
4.9343e-06
5.35232e-06
5.91019e-06
6.18983e-06
6.45183e-06
6.62482e-06
6.68456e-06
6.61058e-06
6.50247e-06
6.27225e-06
6.05578e-06
5.70054e-06
5.30595e-06
4.80975e-06
4.14248e-06
3.75344e-06
2.89373e-06
1.87479e-06
2.33481e-06
2.72646e-06
3.29116e-06
3.87252e-06
4.5544e-06
5.0408e-06
5.48198e-06
6.0499e-06
6.2821e-06
6.56504e-06
6.73843e-06
6.77656e-06
6.69315e-06
6.58399e-06
6.347e-06
6.15745e-06
5.84993e-06
5.51396e-06
5.12535e-06
4.55666e-06
4.49966e-06
3.8276e-06
2.26267e-06
2.67846e-06
3.003e-06
3.51729e-06
4.08721e-06
4.75859e-06
5.17908e-06
5.65416e-06
6.20243e-06
6.39078e-06
6.70774e-06
6.87064e-06
6.9121e-06
6.82031e-06
6.71949e-06
6.44844e-06
6.27941e-06
6.01355e-06
5.75774e-06
5.49046e-06
5.05777e-06
5.33236e-06
4.79237e-06
2.67338e-06
3.03502e-06
3.31444e-06
3.78112e-06
4.34154e-06
4.98156e-06
5.35797e-06
5.87278e-06
6.36543e-06
6.5336e-06
6.90829e-06
7.01337e-06
7.08384e-06
6.95965e-06
6.86331e-06
6.55234e-06
6.40557e-06
6.19341e-06
6.02592e-06
5.88453e-06
5.56833e-06
6.2541e-06
6.11482e-06
0.00209187
0.00157614
0.00117851
0.000897844
0.000726455
0.000744566
0.000769236
0.000850873
0.000902397
0.000892375
0.000835411
0.000678315
0.000590975
0.000566355
0.000531579
0.000486393
0.000450205
0.000358796
0.0002153
0.00157388
0.000926856
0.000652272
0.000432802
0.000161424
0.000161424
0.000547114
0.000850873
0.000902397
0.000892375
0.000835411
0.000678315
0.000590975
0.000566355
0.000531579
0.000486393
0.000450205
0.000358796
0.0002153
0.00118323
0.000624627
0.000341828
0.000465045
0.000428581
0.00079908
0.000733852
0.00103249
0.00133307
0.00146921
0.001343
0.00122084
0.00110489
0.00120423
0.00130009
0.00112001
0.00075542
0.000399458
0.000280845
0.00103791
0.000624627
0.000287109
0.000582714
0.000667974
0.00086213
0.00156441
0.00133078
0.00125763
0.000912376
0.00134475
0.00164348
0.00171847
0.00172096
0.00167143
0.00147847
0.00135021
0.00067328
0.000304589
0.000787642
0.000558038
0.000287109
0.000608885
0.00054833
0.000618868
0.000876886
0.00252504
0.00125763
0.000751136
0.000846133
0.0010434
0.00104389
0.000863233
0.000775259
0.000841528
0.00112665
0.000903444
0.000320225
0.000611653
0.000456572
0.000377145
0.000579938
0.000151384
0.00035837
0.000511165
0.00197394
0.00212036
0.000751136
0.000620842
0.000648408
0.000555785
0.000443155
0.00032539
0.000389513
0.000751115
0.00117
0.000357195
0.000440115
0.000408362
0.000501221
0.000275849
3.56852e-05
0.000172744
0.000511165
0.000922505
0.00288874
0.00125893
0.000620842
0.000522487
0.000276482
0.000313432
0.000273511
0.000288981
0.000589763
0.00132065
0.000409107
0.000390971
0.000408362
0.000501221
0.000129469
3.56852e-05
0.000109514
0.00054329
0.000874071
0.00288874
0.00193839
0.000853259
0.000522487
0.000233307
0.000313432
0.000273511
0.000288981
0.000589763
0.00134628
0.000597887
6.79646e-06
7.39011e-06
7.8096e-06
8.55226e-06
9.44887e-06
1.03419e-05
1.05667e-05
1.11486e-05
1.12705e-05
1.10847e-05
1.15095e-05
1.13921e-05
1.14583e-05
1.11565e-05
1.10267e-05
1.04555e-05
1.02663e-05
9.95742e-06
1.00017e-05
9.98872e-06
1.03048e-05
1.20152e-05
1.41704e-05
8.41795e-05
8.56342e-05
8.78521e-05
9.18798e-05
9.50596e-05
9.59084e-05
9.11978e-05
8.90742e-05
6.63719e-05
5.07124e-05
4.2912e-05
3.47822e-05
2.9052e-05
2.18843e-05
1.58782e-05
1.44792e-05
1.42598e-05
1.41656e-05
1.42573e-05
1.42573e-05
1.52588e-05
1.68941e-05
1.85731e-05
0.000208424
0.000200843
0.000204063
0.000198799
0.000177496
0.000158249
0.000126024
0.000104415
7.74493e-05
0.000109721
0.000119639
0.000124678
0.000153506
0.000110149
4.50239e-05
3.30526e-05
2.41375e-05
1.55987e-05
1.53255e-05
1.51679e-05
1.67105e-05
1.8082e-05
1.87178e-05
0.000202966
0.000194563
0.000188895
0.000169713
0.000144515
0.00010922
7.12706e-05
4.5707e-05
4.5707e-05
4.93746e-05
0.000184758
0.000168659
0.000199844
0.000192066
5.5791e-05
5.5791e-05
9.4088e-05
3.04548e-05
2.93312e-05
2.31587e-05
1.89059e-05
1.91334e-05
1.72032e-05
0.000209627
0.000205711
0.000198114
0.000195768
0.000175673
0.000161708
0.00012417
0.000106367
7.84173e-05
0.000113611
5.80501e-05
5.80501e-05
0.00013206
0.000183243
0.000146529
7.69607e-05
0.000124001
0.00010747
8.5595e-05
8.30016e-05
4.01312e-05
3.71726e-05
4.06901e-05
0.000195635
0.000189057
0.000182262
0.000169786
0.000155522
0.000137259
0.000122957
0.000113593
0.000112809
0.000114877
0.000128366
9.02503e-05
6.86355e-05
0.000173777
0.000178117
0.000154499
0.000194178
0.000145255
0.000125484
0.000125267
0.000133938
0.000181235
0.000209903
0.000204291
0.000202129
0.000193369
0.000190208
0.000172352
0.000165341
0.000139011
0.000135324
0.000112809
0.000105979
8.35212e-05
5.41848e-05
4.96822e-05
4.96822e-05
0.00010727
0.00010314
0.000182407
0.000224345
0.000239878
0.000231455
0.000223216
0.000252735
0.000212325
0.000194898
0.000190223
0.000185445
0.00017742
0.000168531
0.000157921
0.000148218
0.000142228
0.000129716
0.000132791
0.000115895
0.00011633
8.00387e-05
0.000116276
0.000113339
0.000101552
0.000103299
0.00012668
0.000144293
0.000166199
0.000211272
0.000281179
0.000208678
0.00020428
0.000202243
0.00019603
0.000193491
0.000180516
0.00017645
0.00015927
0.000154974
0.000141628
0.000131594
0.000119984
0.000109629
0.000102364
0.000102364
0.00011233
0.000101552
0.000119295
0.000112535
8.92508e-05
8.14857e-05
8.14857e-05
0.00011897
0.000122267
0.000205246
0.000202269
0.000198864
0.000193298
0.00018735
0.000180819
0.000172377
0.000168849
0.000155575
0.00015437
0.000139153
0.000142079
0.000125386
0.000133837
0.000133369
0.000122043
0.000134021
0.000129126
0.000120905
0.00010872
9.35059e-05
7.34767e-05
4.36721e-05
0.000214063
0.000213258
0.000208256
0.000206639
0.000196921
0.000194762
0.00018325
0.000180148
0.000170158
0.000164954
0.000158361
0.000154521
0.000150638
0.000150638
0.000147261
0.00014138
0.00013717
0.000120452
9.67963e-05
6.96862e-05
5.12363e-05
4.69688e-05
4.03888e-05
0.000223113
0.000221296
0.000218185
0.00021517
0.000208624
0.000206713
0.00019721
0.000194416
0.000184902
0.000183594
0.000173048
0.00017579
0.000166158
0.00017057
0.000164438
0.000161186
0.00015653
0.000144408
0.000129669
0.000107969
8.30835e-05
5.1607e-05
3.03417e-05
0.000232163
0.000231672
0.000227961
0.00022716
0.000220315
0.000218781
0.000211356
0.000208336
0.000201358
0.000199575
0.000191731
0.000189416
0.000183993
0.000179725
0.000173103
0.000166176
0.00015483
0.000141267
0.000122691
0.000102053
8.20718e-05
7.2201e-05
5.65248e-05
0.000244742
0.000244484
0.000241283
0.000240772
0.000234882
0.000233401
0.000227207
0.000224191
0.000217912
0.000216184
0.000208351
0.000208727
0.000199784
0.00020081
0.000191198
0.000189191
0.000178004
0.000169613
0.000155557
0.000139883
0.000124789
0.000110825
0.000122298
0.000257668
0.000257639
0.00025489
0.000254624
0.000249796
0.000248253
0.000243615
0.000240465
0.00023592
0.000233918
0.000227778
0.000227953
0.000220005
0.000220024
0.000211293
0.000209122
0.000199324
0.000194696
0.000183399
0.000176011
0.000168286
0.000167248
0.000165951
0.000273321
0.000273479
0.000270868
0.000270792
0.000266685
0.000265229
0.000261576
0.000258631
0.000255014
0.000253056
0.000247902
0.000247858
0.000241073
0.000242355
0.000233563
0.0002352
0.000224786
0.000225393
0.000216113
0.000215966
0.000215029
0.000224118
0.000227984
0.000290137
0.000290429
0.0002881
0.000288108
0.000284939
0.000283529
0.000281181
0.000278348
0.000276221
0.000274297
0.000270793
0.00027106
0.000265977
0.000268123
0.000261048
0.000265241
0.000256493
0.000262831
0.00025599
0.000265608
0.000269163
0.000289376
0.000272808
0.000308864
0.000309302
0.000307158
0.000307244
0.000304753
0.000303523
0.000302086
0.000299573
0.000298576
0.000296983
0.000295017
0.000295666
0.000292526
0.000295304
0.000290806
0.000296882
0.000291146
0.000301797
0.000298198
0.000315475
0.000322719
0.000352874
0.000330771
0.000329407
0.000329962
0.000327929
0.000327977
0.000326184
0.000325157
0.000324768
0.00032263
0.000323155
0.000322129
0.000322135
0.000323643
0.000322748
0.000326714
0.000325196
0.000333295
0.000331031
0.000345754
0.000345612
0.000369717
0.000379737
0.000418007
0.000373214
0.000351008
0.00035164
0.000349752
0.000349786
0.000348566
0.000347848
0.00034821
0.000346653
0.000348492
0.000348115
0.000350087
0.000352527
0.000354167
0.000359479
0.000361539
0.000371312
0.000373534
0.000390947
0.000395442
0.000424293
0.000437894
0.000482395
0.000431095
0.000373964
0.000374502
0.000372943
0.000372867
0.000372203
0.000371698
0.000372749
0.000371783
0.00037495
0.000375336
0.000379506
0.000383218
0.000387658
0.000394923
0.000400753
0.000412777
0.000419716
0.000439762
0.000449198
0.000481507
0.000498627
0.000545637
0.000470173
0.000397021
0.000397208
0.000396094
0.000395854
0.000395488
0.000395193
0.000396705
0.000396378
0.000400547
0.000401722
0.000407965
0.0004128
0.00042016
0.000429325
0.000439178
0.000453507
0.000465848
0.000488481
0.000504268
0.000539638
0.000561759
0.000612947
0.000531368
0.000419979
0.00041963
0.000419277
0.000418811
0.000418843
0.000418767
0.000420701
0.000420915
0.000425733
0.000427423
0.000435096
0.000440714
0.000450583
0.000461626
0.000475364
0.000492536
0.000510575
0.000536947
0.000559826
0.000598868
0.000627087
0.000678704
0.00057473
0.000441633
0.000440779
0.000441061
0.000440267
0.000440558
0.000440563
0.000442579
0.000443082
0.000447969
0.000449813
0.000458324
0.000464429
0.000476573
0.000489354
0.000506985
0.000527015
0.000551021
0.00058107
0.000611339
0.000654173
0.000689814
0.000749225
0.000638173
0.000461699
0.000460649
0.000461407
0.000460523
0.000461286
0.000461519
0.000463832
0.000464781
0.00046989
0.000472204
0.000481306
0.000487745
0.000501352
0.000515012
0.000534259
0.000554919
0.000580072
0.000610981
0.000647008
0.000690338
0.000737925
0.000795272
0.000678058
0.000479764
0.000478742
0.000479612
0.000478756
0.000479833
0.000480198
0.000482684
0.000483978
0.000489243
0.000492034
0.00050134
0.000507792
0.000520452
0.000534461
0.000552082
0.000574504
0.000602711
0.000637655
0.000679301
0.00072894
0.000785129
0.000851796
0.00073381
0.000495679
0.00049481
0.000495735
0.0004952
0.000496757
0.000497602
0.000500754
0.000502916
0.000508966
0.00051289
0.000522976
0.00053035
0.000545383
0.000559044
0.000580688
0.000603192
0.000629873
0.000662411
0.000701972
0.000750007
0.000807107
0.000875763
0.000759965
0.000509634
0.000508907
0.000509836
0.000509653
0.000511628
0.000512981
0.000516833
0.000519866
0.000526439
0.000531859
0.000540649
0.000550338
0.000562373
0.00057698
0.000594664
0.000616451
0.000643471
0.000676405
0.000717327
0.000767455
0.000828848
0.000901813
0.000795024
0.000521505
0.000520903
0.000521909
0.000522133
0.000524661
0.000526701
0.00053155
0.000535812
0.00054408
0.000551022
0.000563525
0.00057399
0.0005913
0.000606666
0.0006298
0.000652422
0.000684762
0.000717936
0.000757773
0.000803478
0.000859424
0.000925025
0.000811702
0.000531734
0.000531213
0.000532295
0.000532888
0.000535989
0.000538795
0.00054327
0.000549077
0.000556759
0.000566086
0.000577551
0.000590892
0.0006065
0.000624229
0.000644671
0.000668122
0.000695469
0.000727757
0.000767103
0.000813966
0.00087193
0.000939668
0.000833986
0.000540178
0.000539742
0.000540984
0.000541932
0.00054572
0.00054921
0.000556299
0.000563086
0.000574335
0.000584951
0.000600928
0.000615897
0.000636891
0.000656612
0.000683397
0.000709334
0.000743912
0.000778917
0.000825364
0.00087257
0.000929412
0.000989526
0.000857597
0.000547296
0.00054691
0.000547962
0.000549147
0.000551892
0.000556092
0.000562234
0.000570291
0.000580629
0.000593188
0.000608189
0.000625591
0.000645405
0.000667572
0.000692285
0.000719627
0.000750123
0.000784179
0.000822914
0.000867395
0.000921229
0.000984857
0.000869237
0.000552902
0.000552596
0.000554227
0.000555715
0.000559985
0.000565357
0.000573006
0.000582808
0.000595228
0.000610219
0.000628079
0.000648809
0.000672434
0.00069822
0.000728693
0.00075921
0.000796913
0.000835683
0.0008832
0.00093365
0.000996812
0.00106309
0.000921461
0.000556335
0.000556335
0.000556971
0.000558516
0.00056191
0.000566933
0.000574209
0.000583579
0.000595542
0.000609925
0.000627105
0.000646884
0.000669327
0.000694336
0.000722028
0.000752804
0.000786913
0.00082473
0.00086624
0.000912186
0.000963043
0.00102427
0.00092444
0.000559462
0.000559462
0.000560552
0.000562722
0.000566865
0.000572741
0.000581022
0.00059154
0.000604863
0.000620797
0.000639794
0.000661576
0.000686335
0.000713902
0.000744691
0.000779172
0.000818099
0.000862225
0.000912364
0.000970441
0.00103665
0.00112049
0.0010614
0.000559656
0.000559656
0.000560352
0.000562015
0.000565541
0.00057064
0.000578035
0.000587479
0.000599558
0.000613958
0.00063111
0.000650549
0.000672473
0.00069645
0.000723074
0.000752448
0.000785791
0.000823251
0.000866551
0.000917613
0.000981715
0.00108019
0.00104326
0.000560598
0.000560598
0.000561631
0.000563721
0.000567772
0.000573446
0.0005815
0.000591671
0.000604546
0.000619795
0.000637794
0.000657848
0.000680708
0.000699998
0.000726786
0.000747882
0.000780478
0.000808129
0.00085718
0.000925135
0.00103111
0.00119476
0.00121218
0.000558309
0.000558309
0.000558764
0.00056002
0.00056305
0.000567518
0.000574135
0.000582528
0.000593207
0.000605697
0.000620234
0.000636095
0.000653235
0.000670754
0.000689266
0.00070772
0.000728249
0.000748966
0.000781451
0.000836735
0.000959237
0.00119017
0.00133895
0.000558226
0.000558034
0.00055877
0.000560137
0.000563622
0.000568254
0.000575507
0.00058348
0.000595473
0.000605562
0.000621002
0.000631829
0.000647529
0.000655572
0.00066872
0.000668656
0.000675771
0.000667201
0.000691139
0.000766666
0.000937164
0.00123973
0.00163011
0.000553877
0.000553877
0.00055394
0.00055454
0.000556626
0.000559863
0.000564873
0.000571201
0.000579194
0.000588245
0.000598305
0.000608348
0.000617861
0.000624894
0.00062828
0.000619397
0.000609083
0.000575231
0.00058284
0.000656336
0.000814997
0.00113622
0.00158294
0.000553117
0.000552294
0.000552913
0.000552994
0.000556275
0.000558307
0.00056472
0.000569009
0.000578182
0.000583986
0.000594272
0.00059888
0.000606466
0.000603572
0.000602799
0.000581493
0.000560186
0.000517989
0.000544913
0.000635495
0.00102228
0.00167052
0.00192728
0.000547774
0.000547375
0.000547249
0.000547249
0.000548267
0.000550065
0.000553188
0.000557193
0.000562292
0.000567835
0.000573619
0.000578426
0.000580658
0.000575406
0.000560639
0.000535744
0.000503128
0.000503128
0.000519264
0.000812069
0.00147385
0.00212805
0.00179865
1.0293e-05
8.38265e-06
6.37951e-06
6.37951e-06
1.24017e-05
1.24017e-05
1.3113e-05
1.3635e-05
1.27013e-05
1.27013e-05
1.33609e-05
1.39709e-05
1.1835e-05
1.1835e-05
1.26499e-05
1.34353e-05
3.92766e-05
3.94923e-05
4.05855e-05
4.13211e-05
0.000184462
0.000184462
0.000195153
0.000184149
0.00010506
0.000104708
0.000104708
0.000126375
0.000125957
0.000118723
0.000108889
0.000108889
9.1672e-05
9.1672e-05
0.00010789
0.000130413
3.11956e-05
3.11956e-05
2.81039e-05
2.81039e-05
3.11335e-05
3.11335e-05
3.77227e-05
4.41777e-05
3.02671e-05
3.02671e-05
4.66502e-05
6.48297e-05
6.44014e-05
6.44014e-05
8.11985e-05
0.00010247
9.18709e-05
9.18709e-05
0.000103128
0.00011773
0.000117792
0.000117792
0.000131868
0.000148947
0.000157297
0.000157297
0.000170242
0.000185485
0.000187781
0.000187781
0.000202899
0.000220043
0.000224966
0.000224966
0.00023955
0.000255858
0.000252839
0.000252839
0.000267859
0.000284189
0.000290324
0.000290324
0.000305547
0.000321841
0.000315085
0.000315085
0.000329857
0.000345525
0.000354555
0.000354555
0.000369427
0.000385084
0.000382098
0.000382098
0.000396393
0.000411218
0.000424108
0.000424108
0.000439518
0.000455149
0.000450714
0.000450714
0.000467016
0.000483342
0.000488881
0.000488881
0.000507557
0.000526042
0.000507842
0.000507842
0.000528587
0.000549103
0.000533507
0.000533507
0.00055711
0.000581096
0.000544406
0.000544406
0.000568755
0.000594897
0.000559828
0.000559828
0.000587084
0.000616519
0.000573323
0.000573323
0.00060105
0.000630331
0.000586172
0.000586172
0.000620409
0.000657224
0.000621305
0.000621305
0.000659467
0.000705082
0.000639328
0.000639328
0.000695765
0.0007562
0.000729972
0.000729972
0.000770665
0.000792392
0.000694143
0.000694143
0.00070504
0.000719423
0.000834758
0.000834758
0.000907701
0.000970714
0.000934286
0.000934286
0.00101464
0.00109343
0.00113617
0.00113617
0.00121715
0.00129078
0.00110942
0.00110942
0.00119311
0.00127503
0.00126659
0.00126659
0.00129628
0.00133221
0.00115214
0.00115214
0.00119195
0.00123914
1.65113e-05
0.000128549
0.000114792
7.41099e-05
4.31011e-05
0.000103607
0.000657164
0.000874071
0.00278764
0.00354669
0.00193126
0.000760288
0.000233307
0.000406229
0.000484548
0.000524364
0.000918988
0.00169999
0.00102854
2.60395e-05
3.92572e-05
3.91675e-05
4.32349e-05
4.61141e-05
9.48156e-05
0.000621607
0.000994856
0.00235226
0.00454676
0.00344098
0.00169285
0.00076724
0.00073021
0.0008414
0.000893456
0.000954249
0.00108408
0.00070709
2.40367e-05
3.37136e-05
3.63423e-05
3.70309e-05
3.57618e-05
8.37078e-05
0.00060873
0.00113827
0.00189014
0.00377167
0.00348765
0.00227404
0.00133164
0.000969336
0.000979912
0.000735569
0.000751408
0.000849934
0.000546254
2.36317e-05
3.37136e-05
3.54789e-05
3.08297e-05
2.59427e-05
5.43009e-05
0.000460119
0.00110077
0.00164414
0.00330215
0.00304022
0.00241114
0.00164461
0.00123478
0.000841038
0.00051486
0.000632955
0.0007577
0.000397529
4.16438e-05
4.05231e-05
3.54789e-05
2.79246e-05
2.11951e-05
1.49907e-05
0.000150931
0.000889054
0.00124637
0.00227639
0.0024034
0.00212542
0.0016042
0.00119169
0.00073551
0.000379088
0.000594316
0.000573732
0.000250825
0.000180238
0.000160143
9.2251e-05
4.67307e-05
1.54635e-05
7.35269e-06
1.67712e-05
0.000538702
0.00141487
0.00178562
0.00215862
0.00179737
0.0014545
0.00111142
0.000660728
0.000331129
0.000502432
0.000369088
0.000140617
0.000274064
0.000490315
0.000351938
0.000138751
3.40375e-05
7.35269e-06
1.66747e-05
0.000122606
0.00121456
0.00154587
0.00172558
0.00141728
0.00144242
0.00114902
0.000734059
0.000331129
0.000636302
0.000234937
9.01587e-05
0.00016757
0.000302837
0.000624969
0.000598347
0.000246407
2.96682e-05
2.68834e-05
6.53311e-05
0.000340921
0.00143281
0.00112493
0.00106619
0.0010658
0.00112762
0.00109446
0.000572993
0.00087307
0.000157643
5.93316e-05
0.000240485
0.000355084
0.000253271
0.000301
0.000527546
0.000332137
6.306e-05
0.000132169
0.000175974
0.000457258
0.000842858
0.000850655
0.000897963
0.00107316
0.00109852
0.0010383
0.000250611
8.33553e-05
3.33541e-05
3.23842e-05
0.000122309
0.000158802
0.00017795
0.000177206
0.000388408
0.000293183
0.000173629
0.000225269
0.000287598
0.00031429
0.000331754
0.000389991
0.000483443
0.000470581
0.000276323
6.94349e-05
3.58597e-05
1.83583e-05
6.11002e-05
0.000129113
0.000132116
0.000168318
0.000177206
0.000191797
0.000599814
0.000613851
0.000330863
0.000327402
0.000252237
0.000194941
0.000263373
0.000308287
0.000299008
0.00023385
0.000117633
3.6395e-05
1.83583e-05
0.000141575
0.000227258
0.000223815
0.000395034
0.000738565
0.00114771
0.00185795
0.00170959
0.00122163
0.000671966
0.000259841
0.000194941
0.000276646
0.000406942
0.000396585
0.000351467
0.000280095
7.01405e-05
2.51599e-05
0.000213798
0.000437913
0.000553405
0.000933233
0.00169429
0.00210673
0.00228589
0.00171575
0.00100482
0.000708187
0.000471527
0.000311168
0.0002642
0.000413861
0.000446536
0.0003784
0.000166447
5.76691e-05
3.76778e-05
0.000227665
0.000466156
0.000702704
0.00111584
0.00164154
0.0015946
0.00136121
0.00154961
0.00118589
0.000696564
0.000311906
0.000247981
0.000247981
0.000192565
9.62549e-05
5.89141e-05
1.74576e-05
2.6604e-05
4.04588e-05
0.000284964
0.000560609
0.000816994
0.00120168
0.00157566
0.00140263
0.00105984
0.00128598
0.00153438
0.00120485
0.000623391
0.000364827
0.000260537
7.86503e-05
4.27594e-05
2.19561e-05
1.54108e-05
1.81031e-05
4.3155e-05
0.000341464
0.000623081
0.000834177
0.0011535
0.00152702
0.00140492
0.00105984
0.00136838
0.0016166
0.00183836
0.00176923
0.00146649
0.000785672
0.000283426
0.000100938
5.20673e-05
1.54108e-05
2.0359e-05
3.93285e-05
0.000402688
0.00068352
0.000894534
0.00119435
0.00152603
0.00162617
0.00123219
0.00128491
0.00116482
0.00118323
0.00143876
0.00181701
0.00151653
0.00120878
0.000650488
0.000303388
5.22652e-05
2.0747e-05
4.48356e-05
0.000460073
0.000748044
0.000942525
0.00118694
0.00144562
0.00171486
0.00163702
0.00128491
0.000770323
0.000560166
0.000560166
0.000957034
0.00116499
0.00127814
0.00117959
0.000781073
0.000187222
3.56317e-05
3.44857e-05
0.000507186
0.000795364
0.00097322
0.00118694
0.00139922
0.00160332
0.00177912
0.00160142
0.00126224
0.000806177
0.000842893
0.000613075
0.000588315
0.000810533
0.0013192
0.00117036
0.00040838
4.85573e-05
3.44857e-05
0.000569531
0.000851988
0.00101517
0.00119496
0.0013721
0.00152032
0.00168034
0.00168828
0.00160748
0.00133022
0.00100195
0.000594084
0.000483749
0.000445374
0.000855875
0.00123591
0.00107348
0.000281238
4.25349e-05
0.000607809
0.000902441
0.00104947
0.00120085
0.0013631
0.00146145
0.00158168
0.00157759
0.00158222
0.00142988
0.00122261
0.000818061
0.000564283
0.000445374
0.000482552
0.000868406
0.00112966
0.000758625
0.000319453
0.000673969
0.000958498
0.00109277
0.00121839
0.0013631
0.00145079
0.00154744
0.00151349
0.00151733
0.00139249
0.00125518
0.000985479
0.000738105
0.000454518
0.000482552
0.000388069
0.00101783
0.00102564
0.000648025
0.000715877
0.00101793
0.00114244
0.00125003
0.00138192
0.00145079
0.00154298
0.00149631
0.00148675
0.00137093
0.00128284
0.00104692
0.000913912
0.000592257
0.000369179
0.000223377
0.000552732
0.00105419
0.000777807
0.000790262
0.00108383
0.00119823
0.00128968
0.0014085
0.00146083
0.00154298
0.00149631
0.00148675
0.00137093
0.00128477
0.00109755
0.000988449
0.000752226
0.000562967
0.000223377
0.000640232
0.000992502
0.000813033
0.00083825
0.00115998
0.00126854
0.00134918
0.00145882
0.00150169
0.00157386
0.00152001
0.0015044
0.00137971
0.00129863
0.0011156
0.00101065
0.000795572
0.000509222
0.000278766
0.000475145
0.000822394
0.0007814
0.000913315
0.00124316
0.00134996
0.0014241
0.00152641
0.00156322
0.00162576
0.00156773
0.00154758
0.001414
0.00134296
0.00115605
0.00106736
0.000836756
0.000500825
0.000278766
0.000560353
0.000786252
0.0007814
0.000955838
0.00133141
0.00144564
0.00152171
0.00162292
0.001657
0.00171343
0.00164962
0.00162556
0.00147688
0.00141404
0.00123422
0.00116006
0.0010072
0.000695088
0.000457369
0.000654626
0.000727606
0.000761628
0.00101558
0.00141911
0.00155089
0.00163634
0.00174374
0.00177835
0.00183794
0.00177128
0.00175268
0.001591
0.00155636
0.00138364
0.00138802
0.00134732
0.00108644
0.000722531
0.000890246
0.000793718
0.000597072
0.00104224
0.00150539
0.00166187
0.00176991
0.00189696
0.0019398
0.00200558
0.00194111
0.0019317
0.00176436
0.00177936
0.00164571
0.00181601
0.00198958
0.00123207
0.000903143
0.00132608
0.000971915
0.000565286
0.00108408
0.0015925
0.00178302
0.00193663
0.00208972
0.00215174
0.00222044
0.00216111
0.00216433
0.00199839
0.00207749
0.0020046
0.00238918
0.00197888
0.000638034
0.00113775
0.00139199
0.00102397
0.000565286
0.00111086
0.00169554
0.00194339
0.00214703
0.00232808
0.00241148
0.00248931
0.00243407
0.00245985
0.00230446
0.00246281
0.00242372
0.00301455
0.00177859
0.000437996
0.00104707
0.00139199
0.00111839
0.0006637
0.00117914
0.00184983
0.00214232
0.00236661
0.00256037
0.00265468
0.00275503
0.00272852
0.00278508
0.00265757
0.00287194
0.00287223
0.00355081
0.00175615
0.000393834
0.00108376
0.00154601
0.00120724
0.000923766
0.00127843
0.00198058
0.00214039
0.0023397
0.00255258
0.00272838
0.00292135
0.00296911
0.003109
0.00302358
0.00327017
0.00331123
0.0039054
0.00180127
0.000393834
0.00101231
0.00173019
0.00115207
0.000667522
0.00136199
0.00175057
0.00180404
0.00189315
0.00218419
0.00250779
0.00286502
0.00307197
0.00334101
0.00333673
0.00361852
0.00369769
0.00418156
0.00206205
0.000503707
0.00119099
0.00198515
0.000932486
0.000527893
0.00132729
0.00162638
0.00153164
0.00125601
0.00140815
0.00207067
0.00267513
0.003036
0.00347544
0.00358544
0.00388871
0.00402997
0.00448096
0.00223568
0.000653952
0.00144264
0.00199447
0.000782612
0.000440248
0.0012415
0.00162638
0.00136533
0.00104788
0.000813321
0.00150597
0.002416
0.00297753
0.00350956
0.00372668
0.00405257
0.0042541
0.00465087
0.00235839
0.000668925
0.00148363
0.00203835
0.000758397
0.000366335
0.00168253
0.00194344
0.00182021
0.00121303
0.000813321
0.00125577
0.00227126
0.00297753
0.00341373
0.00373455
0.0040505
0.00421478
0.00452038
0.00258151
0.000809067
0.00147518
0.00213341
0.000884596
0.000288032
0.0019424
0.00250467
0.00247535
0.00204016
0.00125711
0.00166407
0.00224243
0.00292249
0.00331298
0.00362557
0.00390239
0.00402746
0.00424127
0.00249798
0.000979438
0.00142396
0.00183488
0.000823962
0.000219078
0.00226243
0.00297902
0.0030173
0.00276515
0.002226
0.00208427
0.00245447
0.00278403
0.00315172
0.00341519
0.00364337
0.00372477
0.00385734
0.00242279
0.00103246
0.001332
0.00148406
0.000809251
0.000197326
0.00224524
0.00312339
0.00317458
0.00305603
0.00273342
0.00244406
0.00252174
0.0026892
0.00296218
0.00319925
0.00338439
0.00344634
0.00355276
0.00204665
0.000891034
0.00117198
0.00127563
0.000720393
0.000197326
0.00228116
0.00296988
0.00296795
0.00274528
0.00251813
0.00240865
0.00236134
0.0025152
0.00273345
0.00295459
0.0030927
0.00317892
0.0031314
0.00184089
0.000624739
0.00120561
0.00127563
0.0017308
0.000259979
0.0021432
0.00296988
0.00296795
0.00269677
0.00246054
0.00238501
0.00236134
0.00247014
0.00269861
0.00294425
0.0030927
0.00317892
0.00257879
0.0012539
0.000624739
0.00100662
0.00188021
0.00290293
0.00169445
)
;

boundaryField
{
    leftWall
    {
        type            calculated;
        value           uniform 0;
    }
    rightWall
    {
        type            calculated;
        value           uniform 0;
    }
    lowerWall
    {
        type            calculated;
        value           uniform 0;
    }
    atmosphere
    {
        type            calculated;
        value           uniform 0;
    }
    defaultFaces
    {
        type            empty;
    }
}


// ************************************************************************* //
