/*--------------------------------*- C++ -*----------------------------------*\
| =========                 |                                                 |
| \\      /  F ield         | OpenFOAM: The Open Source CFD Toolbox           |
|  \\    /   O peration     | Version:  2012                                  |
|   \\  /    A nd           | Website:  www.openfoam.com                      |
|    \\/     M anipulation  |                                                 |
\*---------------------------------------------------------------------------*/
FoamFile
{
    version     2.0;
    format      ascii;
    class       volScalarField;
    location    "0.54";
    object      p_rgh;
}
// * * * * * * * * * * * * * * * * * * * * * * * * * * * * * * * * * * * * * //

dimensions      [1 -1 -2 0 0 0 0];


internalField   nonuniform List<scalar> 
2268
(
101950
101951
101953
101957
101962
101969
101977
101987
102000
102014
102031
102050
102071
102094
102119
102145
102171
102197
102223
102245
102267
102282
102291
101949
101951
101953
101957
101962
101969
101977
101987
101999
102014
102030
102049
102071
102094
102118
102144
102171
102197
102223
102245
102266
102281
102291
101948
101949
101952
101955
101960
101967
101975
101986
101998
102013
102030
102049
102070
102093
102118
102144
102171
102198
102224
102248
102270
102286
102297
101947
101948
101951
101954
101959
101966
101974
101984
101997
102011
102028
102047
102068
102092
102117
102144
102171
102197
102224
102247
102269
102286
102295
101945
101946
101948
101952
101957
101963
101972
101982
101994
102009
102026
102046
102067
102091
102116
102143
102171
102198
102226
102251
102275
102293
102306
101943
101944
101946
101950
101955
101961
101970
101979
101992
102006
102023
102042
102064
102089
102114
102142
102170
102198
102226
102252
102275
102295
102306
101939
101940
101943
101946
101951
101957
101965
101975
101988
102003
102020
102040
102062
102087
102113
102141
102171
102200
102229
102256
102283
102301
102319
101937
101938
101940
101943
101948
101954
101963
101972
101984
101999
102015
102036
102058
102083
102111
102140
102170
102200
102229
102258
102284
102307
102324
102007
101972
101985
101982
101984
101977
101981
101987
101955
101956
101961
101967
101967
101968
101981
102038
102148
102598
103279
101966
101956
101962
101961
101964
101961
101961
101957
101929
101933
101951
101954
101952
101946
101948
101983
102073
102507
103106
101969
101959
101966
101963
101965
101961
101961
101957
101918
101913
101908
101903
101902
101901
101903
101912
101967
102267
102928
101965
101959
101963
101961
101964
101959
101958
101948
101913
101907
101905
101902
101902
101901
101902
101903
101917
102107
102765
101967
101962
101966
101963
101969
101959
101956
101948
101910
101907
101904
101901
101902
101901
101902
101903
101909
101969
102583
101965
101961
101964
101969
102106
102020
101961
101941
101903
101907
101904
101901
101902
101901
101902
101902
101904
101925
102426
101967
101963
101966
102074
102312
102197
101966
101923
101901
101905
101903
101901
101902
101901
101902
101902
101903
101912
102294
101965
101962
101964
102222
102377
102287
101968
101904
101899
101904
101903
101900
101901
101901
101902
101902
101903
101904
102160
101862
101863
101870
101878
101889
101901
101920
101938
101961
101984
102006
102029
102053
102081
102108
102137
102171
102202
102235
102263
102296
102310
102336
101441
101444
101450
101458
101472
101488
101514
101544
101590
101653
101737
101826
101923
102019
102095
102133
102169
102203
102235
102271
102300
102332
102363
101329
101329
101329
101329
101329
101329
101329
101329
101329
101329
101330
101354
101399
101477
101604
101804
102071
102208
102243
102280
102309
102341
102375
101329
101329
101329
101329
101329
101329
101329
101329
101329
101329
101329
101329
101329
101329
101336
101362
101433
101602
101867
102172
102312
102347
102379
101329
101329
101329
101329
101329
101329
101329
101329
101329
101329
101329
101329
101329
101329
101329
101329
101329
101338
101378
101443
101573
101737
101999
101328
101328
101328
101328
101329
101329
101329
101329
101329
101329
101329
101329
101329
101329
101329
101329
101329
101329
101329
101329
101329
101336
101357
101328
101329
101329
101329
101329
101329
101329
101329
101329
101329
101329
101329
101329
101329
101329
101329
101329
101329
101329
101329
101329
101329
101330
101328
101328
101328
101328
101328
101328
101329
101329
101329
101329
101329
101329
101329
101329
101329
101329
101329
101329
101329
101329
101329
101329
101330
101328
101328
101328
101328
101328
101328
101328
101329
101329
101329
101329
101329
101329
101329
101329
101329
101329
101329
101329
101329
101329
101329
101330
101328
101328
101328
101328
101328
101328
101328
101328
101328
101329
101329
101329
101329
101329
101329
101329
101329
101329
101329
101329
101329
101329
101330
101328
101328
101328
101328
101328
101328
101328
101328
101328
101328
101329
101329
101329
101329
101329
101329
101329
101329
101329
101329
101329
101329
101329
101328
101328
101328
101328
101328
101328
101328
101328
101328
101328
101328
101328
101329
101329
101329
101329
101329
101329
101329
101329
101329
101329
101329
101328
101328
101328
101328
101328
101328
101328
101328
101328
101328
101328
101328
101328
101329
101329
101329
101329
101329
101329
101329
101329
101329
101329
101328
101328
101328
101328
101328
101328
101328
101328
101328
101328
101328
101328
101328
101328
101329
101329
101329
101329
101329
101329
101329
101329
101329
101328
101328
101328
101328
101328
101328
101328
101328
101328
101328
101328
101328
101328
101328
101328
101329
101329
101329
101329
101329
101329
101329
101329
101328
101328
101328
101328
101328
101328
101328
101328
101328
101328
101328
101328
101328
101328
101328
101328
101328
101329
101329
101329
101329
101329
101329
101328
101328
101328
101328
101328
101328
101328
101328
101328
101328
101328
101328
101328
101328
101328
101328
101328
101328
101329
101329
101329
101329
101329
101328
101328
101328
101328
101328
101328
101328
101328
101328
101328
101328
101328
101328
101328
101328
101328
101328
101328
101328
101329
101329
101329
101329
101328
101328
101328
101328
101328
101328
101328
101328
101328
101328
101328
101328
101328
101328
101328
101328
101328
101328
101328
101328
101328
101328
101328
101328
101328
101328
101328
101328
101328
101328
101328
101328
101328
101328
101328
101328
101328
101328
101328
101328
101328
101328
101328
101328
101328
101328
101328
101328
101328
101328
101328
101328
101328
101328
101328
101328
101328
101328
101328
101328
101328
101328
101328
101328
101328
101328
101328
101328
101328
101327
101327
101327
101328
101328
101328
101328
101328
101328
101328
101328
101328
101328
101328
101328
101328
101328
101328
101328
101328
101328
101328
101328
101327
101327
101327
101327
101327
101327
101327
101327
101327
101328
101328
101328
101328
101328
101328
101328
101328
101328
101328
101328
101328
101328
101328
101327
101327
101327
101327
101327
101327
101327
101327
101327
101327
101327
101327
101327
101328
101328
101328
101328
101328
101328
101328
101328
101328
101328
101327
101327
101327
101327
101327
101327
101327
101327
101327
101327
101327
101327
101327
101327
101327
101327
101327
101328
101328
101328
101328
101328
101328
101327
101327
101327
101327
101327
101327
101327
101327
101327
101327
101327
101327
101327
101327
101327
101327
101327
101327
101327
101327
101327
101327
101327
101327
101327
101327
101327
101327
101327
101327
101327
101327
101327
101327
101327
101327
101327
101327
101327
101327
101327
101327
101327
101327
101327
101327
101327
101327
101327
101327
101327
101327
101327
101327
101327
101327
101327
101327
101327
101327
101327
101327
101327
101327
101327
101327
101327
101327
101327
101327
101327
101327
101327
101327
101327
101327
101327
101327
101327
101327
101327
101327
101327
101327
101327
101327
101327
101327
101327
101327
101327
101327
101327
101327
101327
101327
101327
101327
101327
101327
101327
101327
101327
101327
101327
101327
101327
101327
101327
101327
101327
101327
101327
101327
101327
101326
101326
101326
101327
101327
101327
101327
101327
101327
101327
101327
101327
101327
101327
101327
101327
101327
101327
101327
101327
101327
101327
101326
101326
101326
101326
101326
101326
101326
101326
101326
101326
101326
101327
101327
101327
101327
101327
101327
101327
101327
101327
101327
101327
101327
101326
101326
101326
101326
101326
101326
101326
101326
101326
101326
101326
101326
101326
101326
101326
101326
101326
101326
101326
101326
101326
101326
101326
101326
101326
101326
101326
101326
101326
101326
101326
101326
101326
101326
101326
101326
101326
101326
101326
101326
101326
101326
101326
101326
101326
101326
101326
101326
101326
101326
101326
101326
101326
101326
101326
101326
101326
101326
101326
101326
101326
101326
101326
101326
101326
101326
101326
101326
101326
101326
101326
101326
101326
101326
101326
101326
101326
101326
101326
101326
101326
101326
101326
101326
101326
101326
101326
101326
101326
101326
101326
101326
101326
101326
101326
101326
101326
101326
101326
101326
101326
101326
101326
101326
101326
101326
101326
101326
101326
101326
101326
101326
101326
101326
101326
101326
101326
101326
101326
101326
101326
101326
101326
101326
101326
101326
101326
101326
101326
101326
101326
101326
101326
101326
101326
101326
101326
101326
101326
101325
101325
101325
101325
101325
101325
101325
101325
101325
101325
101325
101325
101325
101326
101326
101326
101326
101326
101326
101326
101326
101326
101326
101325
101325
101325
101325
101325
101325
101325
101325
101325
101325
101325
101325
101326
101326
101326
101326
101326
101326
101326
101326
101326
101326
101326
101325
101325
101325
101325
101325
101325
101325
101325
101325
101325
101325
101325
101325
101325
101325
101325
101325
101325
101325
101325
101326
101325
101325
101325
101325
101325
101325
101325
101325
101325
101325
101325
101325
101325
101325
101325
101325
101325
101325
101325
101325
101326
101326
101326
101326
101326
102301
102384
102390
102436
102387
102400
102418
102435
102388
102410
102424
102442
102400
102410
102427
102439
102199
102273
102304
102335
101370
101385
101412
101452
101330
101330
101330
101330
101330
101330
101330
101330
101330
101330
101330
101330
101330
101330
101330
101330
101330
101330
101330
101330
101330
101330
101330
101330
101329
101329
101330
101330
101329
101329
101330
101330
101329
101329
101329
101329
101329
101329
101329
101329
101329
101329
101329
101329
101329
101329
101329
101329
101329
101329
101329
101329
101328
101328
101328
101328
101328
101328
101328
101328
101328
101328
101328
101328
101328
101328
101328
101328
101328
101328
101328
101328
101328
101328
101328
101328
101327
101327
101327
101327
101327
101327
101327
101327
101327
101327
101327
101327
101327
101327
101327
101327
101327
101327
101327
101326
101326
101326
101326
101326
101326
101326
101326
101326
101326
101326
101326
101326
101326
101326
101326
101325
101326
101325
101325
101325
101326
101326
101325
101325
101326
101325
101325
101325
101326
101326
101326
101325
101326
101325
101325
101325
101326
101326
101326
101325
101325
101325
101325
101325
101325
101325
101325
101325
102164
102025
102111
102373
102457
102342
101970
101894
101898
101901
101901
101900
101901
101901
101902
101902
101903
101901
102183
102450
102514
102520
102532
102548
102429
101972
101894
101897
101898
101901
101899
101901
101901
101902
101902
101903
101902
102397
102476
102514
102548
102598
102631
102483
101950
101895
101898
101899
101901
101900
101902
101901
101902
101902
101903
101902
102532
102468
102509
102550
102607
102699
102618
101953
101896
101899
101898
101902
101900
101902
101901
101902
101902
101903
101903
102670
102370
102435
102523
102625
102702
102823
102077
101898
101899
101900
101902
101901
101903
101902
101903
101902
101903
101976
102840
101527
101673
101949
102334
102690
102844
102521
101898
101902
101900
101902
101901
101902
101902
101903
101902
101903
102197
103039
101330
101330
101330
101429
102085
102789
103042
102080
101899
101903
101902
101901
101903
101901
101903
101902
101903
102456
103245
101330
101330
101331
101331
101369
101995
102911
102959
102064
101901
101900
101902
101902
101902
101903
101902
101903
102769
103446
101330
101330
101330
101331
101331
101341
102058
102869
103042
102268
101904
101899
101903
101901
101902
101901
102113
103194
103649
101330
101330
101331
101331
101332
101331
101342
102024
102829
102991
102745
102535
102269
102175
102289
102789
103506
103671
103824
101330
101330
101330
101330
101331
101331
101335
101365
101933
102657
103096
103202
103226
103220
103298
103356
103484
103687
103862
101330
101330
101331
101331
101332
101332
101336
101364
101463
101856
102245
102333
102275
102248
102224
102144
102250
103160
103815
101330
101330
101330
101330
101330
101330
101332
101626
102608
102959
103078
102682
102372
101981
101898
101929
102388
103429
103828
101330
101330
101330
101330
101330
101329
101328
101340
101481
102378
103054
103371
103446
103224
102804
102795
103471
103782
103847
101329
101329
101330
101329
101329
101328
101328
101328
101328
101327
101341
101949
102895
103520
103796
103853
103874
103857
103800
101329
101329
101329
101329
101329
101328
101328
101328
101327
101327
101328
101328
101329
101805
102911
103610
103877
103891
103842
101329
101329
101329
101329
101329
101328
101328
101327
101327
101327
101328
101328
101329
101329
101330
102295
103467
103674
103913
101329
101329
101329
101329
101328
101328
101327
101327
101327
101326
101327
101328
101329
101329
101340
101592
103039
103782
104015
101329
101329
101329
101328
101328
101328
101328
101327
101327
101327
101328
101328
101329
101329
101331
101410
102232
103567
104106
101328
101328
101328
101328
101328
101328
101328
101327
101327
101327
101328
101328
101329
101329
101330
101341
101400
102096
102815
101328
101328
101328
101328
101328
101328
101328
101328
101328
101328
101328
101328
101329
101329
101329
101329
101330
101543
102006
101328
101328
101328
101328
101328
101328
101328
101328
101328
101328
101328
101328
101329
101329
101330
101329
101332
101375
101834
101328
101328
101328
101328
101328
101328
101328
101328
101328
101328
101328
101328
101329
101329
101330
101329
101330
101338
101993
101328
101328
101328
101328
101328
101328
101328
101328
101328
101328
101328
101328
101329
101329
101330
101329
101330
101331
102017
101328
101327
101327
101327
101327
101327
101327
101328
101328
101328
101328
101328
101329
101329
101330
101329
101330
101329
102042
101327
101327
101327
101327
101327
101327
101327
101327
101328
101328
101328
101328
101329
101329
101330
101330
101330
101329
101866
101327
101327
101327
101327
101327
101327
101327
101327
101327
101328
101328
101328
101329
101329
101330
101330
101331
101330
101609
101327
101327
101327
101327
101327
101327
101327
101327
101327
101327
101328
101328
101329
101329
101330
101330
101331
101330
101794
101327
101327
101326
101326
101326
101326
101326
101327
101327
101327
101327
101327
101328
101327
101330
101352
101432
101497
102220
101326
101326
101326
101326
101326
101326
101326
101326
101326
101326
101327
101327
101327
101326
101328
101419
101845
102196
102250
101326
101326
101326
101325
101325
101325
101325
101326
101326
101326
101326
101326
101326
101326
101326
101416
101864
102330
102090
101326
101325
101325
101324
101324
101324
101324
101325
101325
101325
101325
101325
101325
101324
101325
101335
101358
102362
102015
101325
101325
101324
101324
101323
101323
101324
101324
101324
101325
101325
101325
101324
101324
101323
101323
101322
102020
102463
101325
101324
101323
101322
101322
101322
101322
101323
101323
101324
101324
101324
101323
101323
101321
101323
101322
101575
103473
101325
101324
101323
101321
101321
101321
101321
101322
101323
101323
101323
101324
101323
101323
101321
101323
101322
101509
103529
101324
101323
101322
101321
101320
101320
101320
101321
101322
101323
101323
101323
101322
101323
101321
101323
101322
101399
103463
101324
101323
101322
101321
101320
101321
101321
101322
101322
101323
101323
101324
101323
101323
101322
101323
101323
101325
103248
101325
101323
101322
101321
101321
101321
101321
101322
101322
101323
101323
101323
101323
101324
101323
101323
101324
101324
103110
101325
101324
101323
101322
101322
101322
101322
101323
101323
101323
101324
101324
101324
101325
101324
101325
101324
101325
102764
101325
101324
101324
101323
101322
101322
101322
101323
101323
101323
101324
101324
101324
101325
101324
101324
101325
101325
102814
101325
101324
101324
101324
101324
101324
101324
101324
101324
101325
101325
101325
101325
101326
101325
101325
101325
101326
102508
101325
101325
101325
101325
101325
101324
101324
101324
101324
101324
101324
101324
101324
101325
101325
101325
101323
101325
101640
)
;

boundaryField
{
    leftWall
    {
        type            zeroGradient;
    }
    rightWall
    {
        type            zeroGradient;
    }
    lowerWall
    {
        type            zeroGradient;
    }
    atmosphere
    {
        type            fixedValue;
        value           uniform 101325;
    }
    defaultFaces
    {
        type            empty;
    }
}


// ************************************************************************* //
