/*--------------------------------*- C++ -*----------------------------------*\
| =========                 |                                                 |
| \\      /  F ield         | OpenFOAM: The Open Source CFD Toolbox           |
|  \\    /   O peration     | Version:  2012                                  |
|   \\  /    A nd           | Website:  www.openfoam.com                      |
|    \\/     M anipulation  |                                                 |
\*---------------------------------------------------------------------------*/
FoamFile
{
    version     2.0;
    format      ascii;
    class       volScalarField;
    location    "0.54";
    object      rho;
}
// * * * * * * * * * * * * * * * * * * * * * * * * * * * * * * * * * * * * * //

dimensions      [1 -3 0 0 0 0 0];


internalField   nonuniform List<scalar> 
2268
(
1000.05
1000.05
1000.05
1000.05
1000.05
1000.05
1000.05
1000.05
1000.05
1000.05
1000.05
1000.05
1000.05
1000.05
1000.05
1000.05
1000.05
1000.05
1000.05
1000.05
1000.05
1000.05
999.783
1000.05
1000.05
1000.05
1000.05
1000.05
1000.05
1000.05
1000.05
1000.05
1000.05
1000.05
1000.05
1000.05
1000.05
1000.05
1000.05
1000.05
1000.05
1000.05
1000.05
1000.05
1000.05
999.739
1000.05
1000.05
1000.05
1000.05
1000.05
1000.05
1000.05
1000.05
1000.05
1000.05
1000.05
1000.05
1000.05
1000.05
1000.05
1000.05
1000.05
1000.05
1000.05
1000.05
1000.05
1000.05
999.738
1000.05
1000.05
1000.05
1000.05
1000.05
1000.05
1000.05
1000.05
1000.05
1000.05
1000.05
1000.05
1000.05
1000.05
1000.05
1000.05
1000.05
1000.05
1000.05
1000.05
1000.05
1000.05
999.787
1000.05
1000.05
1000.05
1000.05
1000.05
1000.05
1000.05
1000.05
1000.05
1000.05
1000.05
1000.05
1000.05
1000.05
1000.05
1000.05
1000.05
1000.05
1000.05
1000.05
1000.05
1000.05
1000.02
1000.05
1000.05
1000.05
1000.05
1000.05
1000.05
1000.05
1000.05
1000.05
1000.05
1000.05
1000.05
1000.05
1000.05
1000.05
1000.05
1000.05
1000.05
1000.05
1000.05
1000.05
1000.05
1000.05
1000.05
1000.05
1000.05
1000.05
1000.05
1000.05
1000.05
1000.05
1000.05
1000.05
1000.05
1000.05
1000.05
1000.05
1000.05
1000.05
1000.05
1000.05
1000.05
1000.05
1000.05
1000.05
1000.05
999.656
999.649
999.716
999.788
999.857
999.911
999.98
1000.02
1000.04
1000.05
1000.05
1000.05
1000.05
1000.05
1000.05
1000.05
1000.05
1000.05
1000.05
1000.05
1000.05
1000.05
1000.05
7.34198
176.394
322.61
322.571
307.047
280.797
331.787
503.597
571.968
571.968
575.03
668.311
719.969
719.972
719.969
719.972
719.97
719.974
719.974
3.0608
3.29387
1.29981
1.29938
1.29878
1.29861
1.29882
4.78626
48.4473
197.117
376.259
443.426
426.863
385.704
393.391
517.726
632.134
698.127
719.976
1.3253
1.30655
1.29915
1.29936
1.29959
1.2992
1.29908
4.17783
27.9701
33.5225
24.2073
8.27607
1.30043
1.30021
2.23758
39.9843
158.348
411.167
604.323
1.29909
1.299
1.29905
1.30096
1.3105
1.30154
1.29954
1.81403
7.333
1.77894
1.29864
1.29863
1.29963
1.463
1.6452
1.48189
11.4237
282.042
743.953
1.29907
1.29902
1.29916
1.79829
17.9554
5.17938
1.30375
1.3099
1.77095
1.30996
1.29845
1.2984
1.29836
1.29852
1.29832
1.29889
4.48291
106.083
743.952
1.29905
1.29902
1.29929
25.2294
460.104
217.177
19.6284
1.97167
1.30552
1.30207
1.29847
1.29852
1.29857
1.29855
1.29856
1.29926
1.52216
44.8176
743.951
1.29906
1.29905
1.29964
293.089
947.415
672.178
88.1347
2.38745
1.30084
1.29896
1.29851
1.29861
1.29868
1.29862
1.29859
1.29854
1.29992
19.3424
665.149
1.29904
1.29906
1.30018
601.018
1000.05
813.606
124.178
2.21089
1.30018
1.29891
1.29856
1.29876
1.29877
1.29867
1.29861
1.29854
1.29847
6.3533
495.727
857.062
858.224
867.065
878.078
891.957
906.849
928.891
947.158
968.491
984.267
991.508
996.237
998.845
1000.05
1000.05
1000.05
1000.05
1000.05
1000.05
1000.05
1000.05
1000.05
1000.05
157.504
161.491
169.974
181.398
199.561
222.51
258.619
299.388
364.087
450.693
566.705
684.039
806.71
919.503
992.792
1000.05
1000.05
1000.05
1000.05
1000.05
1000.05
1000.05
1000.05
1.29332
1.29332
1.29332
1.29332
1.29332
1.29333
1.29333
1.29334
1.29337
1.29336
2.5081
31.9744
84.8166
176.157
325.748
557.522
864.17
1000.05
1000.05
1000.05
1000.05
1000.05
1000.05
1.29326
1.29326
1.29326
1.29326
1.29326
1.29327
1.29327
1.29328
1.29328
1.29329
1.2933
1.29331
1.29334
1.99983
8.49955
35.4546
108.528
281.339
551.78
858.081
989.615
999.346
1000.05
1.29324
1.29324
1.29324
1.29324
1.29324
1.29324
1.29324
1.29324
1.29324
1.29325
1.29327
1.29333
1.29327
1.29345
1.29325
1.29326
1.29331
9.62985
46.4049
105.024
223.042
371.762
608.577
1.29323
1.29323
1.29323
1.29323
1.29323
1.29323
1.29323
1.29323
1.29323
1.29323
1.29325
1.29436
1.29517
1.29543
1.29526
1.29353
1.29327
1.29327
1.29328
1.2933
1.29334
6.59046
23.8974
1.29323
1.29323
1.29323
1.29323
1.29323
1.29323
1.29323
1.29323
1.29323
1.29323
1.29323
1.29466
1.29543
1.29543
1.29434
1.29332
1.29325
1.29324
1.29325
1.29328
1.29659
1.29325
1.29326
1.29323
1.29323
1.29323
1.29323
1.29323
1.29323
1.29323
1.29323
1.29323
1.29323
1.29329
1.29323
1.29344
1.29323
1.29323
1.29324
1.29327
1.29327
1.29324
1.29325
1.29328
1.29331
1.2935
1.29323
1.29323
1.29323
1.29323
1.29323
1.29323
1.29323
1.29323
1.29323
1.29323
1.29323
1.29323
1.29323
1.29323
1.29323
1.29323
1.29326
1.29327
1.29326
1.29325
1.29324
1.29323
1.29323
1.29322
1.29322
1.29322
1.29322
1.29322
1.29322
1.29322
1.29322
1.29323
1.29323
1.29323
1.29323
1.29323
1.29323
1.29323
1.29323
1.29323
1.29324
1.29324
1.29324
1.29323
1.29323
1.29326
1.29322
1.29322
1.29322
1.29322
1.29322
1.29322
1.29322
1.29322
1.29322
1.29322
1.29322
1.29322
1.29322
1.29323
1.29323
1.29323
1.29323
1.29323
1.29323
1.29323
1.29323
1.29323
1.29323
1.29322
1.29322
1.29322
1.29322
1.29322
1.29322
1.29322
1.29322
1.29322
1.29322
1.29322
1.29322
1.29322
1.29322
1.29322
1.29322
1.29323
1.29323
1.29323
1.29323
1.29323
1.29323
1.29323
1.29322
1.29322
1.29322
1.29322
1.29322
1.29322
1.29322
1.29322
1.29322
1.29322
1.29322
1.29322
1.29322
1.29322
1.29322
1.29322
1.29322
1.29322
1.29322
1.29322
1.29323
1.29323
1.29323
1.29321
1.29321
1.29321
1.29321
1.29321
1.29321
1.29322
1.29322
1.29322
1.29322
1.29322
1.29322
1.29322
1.29322
1.29322
1.29322
1.29322
1.29322
1.29322
1.29322
1.29322
1.29322
1.29323
1.29321
1.29321
1.29321
1.29321
1.29321
1.29321
1.29321
1.29321
1.29321
1.29321
1.29321
1.29321
1.29321
1.29322
1.29322
1.29322
1.29322
1.29322
1.29322
1.29322
1.29322
1.29322
1.29322
1.29321
1.29321
1.29321
1.29321
1.29321
1.29321
1.29321
1.29321
1.29321
1.29321
1.29321
1.29321
1.29321
1.29321
1.29321
1.29321
1.29321
1.29322
1.29322
1.29322
1.29322
1.29322
1.29322
1.2932
1.2932
1.2932
1.29321
1.29321
1.29321
1.29321
1.29321
1.29321
1.29321
1.29321
1.29321
1.29321
1.29321
1.29321
1.29321
1.29321
1.29321
1.29321
1.29321
1.29321
1.29322
1.29322
1.2932
1.2932
1.2932
1.2932
1.2932
1.2932
1.2932
1.2932
1.2932
1.2932
1.2932
1.29321
1.29321
1.29321
1.29321
1.29321
1.29321
1.29321
1.29321
1.29321
1.29321
1.29321
1.29321
1.29319
1.29319
1.29319
1.2932
1.2932
1.2932
1.2932
1.2932
1.2932
1.2932
1.2932
1.2932
1.2932
1.2932
1.2932
1.2932
1.29321
1.29321
1.29321
1.29321
1.29321
1.29321
1.29321
1.29319
1.29319
1.29319
1.29319
1.29319
1.29319
1.29319
1.29319
1.29319
1.29319
1.29319
1.2932
1.2932
1.2932
1.2932
1.2932
1.2932
1.2932
1.2932
1.2932
1.29321
1.29321
1.29321
1.29317
1.29317
1.29318
1.29318
1.29318
1.29318
1.29318
1.29318
1.29318
1.29318
1.29319
1.29319
1.29319
1.29319
1.29319
1.29319
1.2932
1.2932
1.2932
1.2932
1.2932
1.2932
1.2932
1.29316
1.29316
1.29316
1.29316
1.29316
1.29316
1.29316
1.29317
1.29317
1.29317
1.29317
1.29317
1.29318
1.29318
1.29318
1.29318
1.29319
1.29319
1.29319
1.29319
1.2932
1.2932
1.2932
1.29314
1.29314
1.29314
1.29314
1.29314
1.29314
1.29314
1.29315
1.29315
1.29315
1.29315
1.29316
1.29316
1.29316
1.29317
1.29317
1.29317
1.29318
1.29318
1.29318
1.29319
1.29319
1.29319
1.29312
1.29312
1.29312
1.29313
1.29313
1.29313
1.29313
1.29313
1.29313
1.29313
1.29313
1.29314
1.29314
1.29314
1.29315
1.29315
1.29315
1.29316
1.29317
1.29317
1.29318
1.29318
1.29318
1.29311
1.29311
1.29311
1.29311
1.29311
1.29311
1.29311
1.29311
1.29312
1.29312
1.29312
1.29312
1.29312
1.29312
1.29313
1.29313
1.29313
1.29314
1.29314
1.29315
1.29316
1.29316
1.29317
1.2931
1.2931
1.2931
1.2931
1.2931
1.2931
1.2931
1.2931
1.29311
1.29311
1.29311
1.29311
1.29311
1.29311
1.29311
1.29312
1.29312
1.29312
1.29313
1.29313
1.29314
1.29314
1.29315
1.29309
1.29309
1.29309
1.29309
1.2931
1.2931
1.2931
1.2931
1.2931
1.2931
1.2931
1.2931
1.2931
1.2931
1.2931
1.29311
1.29311
1.29311
1.29311
1.29312
1.29312
1.29313
1.29313
1.29309
1.29309
1.29309
1.29309
1.29309
1.29309
1.29309
1.29309
1.29309
1.29309
1.29309
1.29309
1.29309
1.2931
1.2931
1.2931
1.2931
1.2931
1.29311
1.29311
1.29311
1.29312
1.29312
1.29309
1.29309
1.29309
1.29309
1.29309
1.29309
1.29309
1.29309
1.29309
1.29309
1.29309
1.29309
1.29309
1.29309
1.29309
1.29309
1.2931
1.2931
1.2931
1.2931
1.29311
1.29311
1.29311
1.29308
1.29308
1.29308
1.29308
1.29308
1.29308
1.29308
1.29308
1.29308
1.29309
1.29309
1.29309
1.29309
1.29309
1.29309
1.29309
1.29309
1.2931
1.2931
1.2931
1.2931
1.29311
1.29311
1.29308
1.29308
1.29308
1.29308
1.29308
1.29308
1.29308
1.29308
1.29308
1.29308
1.29308
1.29309
1.29309
1.29309
1.29309
1.29309
1.29309
1.29309
1.2931
1.2931
1.2931
1.29311
1.29311
1.29308
1.29308
1.29308
1.29308
1.29308
1.29308
1.29308
1.29308
1.29309
1.29309
1.29309
1.29309
1.29309
1.29309
1.29309
1.29309
1.2931
1.2931
1.2931
1.2931
1.29311
1.29311
1.29312
1.29309
1.29309
1.29309
1.29309
1.29309
1.29309
1.29309
1.29309
1.29309
1.29309
1.29309
1.29309
1.29309
1.29309
1.29309
1.2931
1.2931
1.2931
1.2931
1.29311
1.29311
1.29312
1.29313
1.29309
1.29309
1.29309
1.29309
1.29309
1.29309
1.29309
1.29309
1.29309
1.29309
1.29309
1.29309
1.29309
1.2931
1.2931
1.2931
1.2931
1.29311
1.29311
1.29312
1.29312
1.29313
1.29314
1.29309
1.29309
1.29309
1.29309
1.29309
1.29309
1.29309
1.29309
1.29309
1.29309
1.29309
1.29309
1.29309
1.2931
1.2931
1.2931
1.2931
1.29311
1.29311
1.29312
1.29313
1.29314
1.29315
1.29309
1.29309
1.29309
1.29309
1.29309
1.29309
1.29309
1.29309
1.29309
1.29309
1.29309
1.29309
1.2931
1.2931
1.2931
1.2931
1.2931
1.29311
1.29312
1.29313
1.29314
1.29315
1.29316
1.29309
1.29309
1.29309
1.29309
1.29309
1.29309
1.29309
1.29309
1.29309
1.29309
1.29309
1.29309
1.29309
1.2931
1.2931
1.2931
1.2931
1.29311
1.29312
1.29314
1.29315
1.29315
1.29319
1.29309
1.29309
1.29309
1.29309
1.29309
1.29309
1.29309
1.29309
1.29309
1.29309
1.29309
1.29309
1.2931
1.2931
1.2931
1.2931
1.29311
1.29312
1.29313
1.29315
1.29316
1.29315
1.29334
1.29309
1.29309
1.29309
1.29309
1.29309
1.29309
1.29309
1.29309
1.29309
1.29309
1.29309
1.29309
1.29309
1.2931
1.2931
1.2931
1.29311
1.29312
1.29313
1.29315
1.29316
1.29314
1.29329
1.2931
1.2931
1.2931
1.2931
1.2931
1.2931
1.2931
1.2931
1.2931
1.2931
1.2931
1.2931
1.2931
1.2931
1.2931
1.29311
1.29311
1.29313
1.29315
1.29317
1.29317
1.29315
1.29311
1.2931
1.2931
1.2931
1.2931
1.2931
1.2931
1.2931
1.2931
1.29309
1.29309
1.29309
1.2931
1.2931
1.2931
1.2931
1.29311
1.29311
1.29313
1.29315
1.29317
1.29317
1.29311
1.29306
1.2931
1.2931
1.2931
1.2931
1.2931
1.2931
1.2931
1.2931
1.2931
1.2931
1.2931
1.2931
1.2931
1.2931
1.29311
1.29311
1.29312
1.29314
1.29318
1.29321
1.2932
1.29339
1.29407
1000.02
999.706
999.914
999.914
999.995
999.706
999.872
999.914
1000.05
999.983
999.872
999.893
999.863
999.864
999.917
999.96
790.225
855.731
879.557
901.821
34.022
46.6905
68.1785
101.39
1.29328
1.29329
1.29331
1.29334
1.29353
1.29353
1.29342
1.29329
1.29324
1.29631
1.30049
1.30049
1.29327
1.29334
1.29356
1.29356
1.29323
1.29323
1.29323
1.29323
1.29323
1.29323
1.29323
1.29324
1.29323
1.29323
1.29323
1.29323
1.29323
1.29323
1.29323
1.29323
1.29322
1.29322
1.29322
1.29322
1.29322
1.29322
1.29322
1.29322
1.29322
1.29322
1.29322
1.29322
1.29321
1.29321
1.29321
1.29321
1.29321
1.29321
1.29321
1.29321
1.29321
1.29321
1.29321
1.29321
1.2932
1.2932
1.2932
1.2932
1.2932
1.2932
1.2932
1.2932
1.29319
1.29319
1.29319
1.29319
1.29319
1.29319
1.29319
1.29319
1.29317
1.29318
1.29318
1.29318
1.29316
1.29316
1.29316
1.29317
1.29314
1.29314
1.29314
1.29315
1.29312
1.29313
1.29313
1.29313
1.29312
1.29312
1.29312
1.29313
1.29311
1.29312
1.29312
1.29312
1.29311
1.29312
1.29312
1.29313
1.29312
1.29313
1.29313
1.29314
1.29314
1.29314
1.29315
1.29315
1.29315
1.29315
1.29315
1.29315
1.29315
1.29314
1.29315
1.29315
1.29315
1.29315
1.29314
1.29312
1.29338
1.29319
1.29311
1.2931
1.29353
1.29335
1.29311
1.29312
1.2935
1.29357
1.29479
1.29643
1.29309
1.29317
1.29762
1.30128
1.29303
1.29304
1.2941
1.29705
1.29341
1.29293
1.29293
1.29293
417.176
132.548
314.897
865.338
1000.05
820.592
132.023
1.95292
1.29931
1.29882
1.29861
1.29875
1.29881
1.2987
1.29861
1.29852
1.29847
1.2987
524.407
965.786
974.448
1000.05
1000.05
1000.05
810.693
114.999
1.66329
1.29871
1.29865
1.29861
1.29869
1.29874
1.29867
1.29857
1.29849
1.29847
1.29862
751.37
1000.05
1000.05
1000.05
1000.05
1000.05
755.997
67.498
1.3466
1.29848
1.29851
1.29858
1.29868
1.2987
1.29862
1.29853
1.29847
1.29849
1.29864
804.209
999.976
1000
1000.02
1000.04
1000.05
807.562
59.7333
1.29874
1.29848
1.29848
1.29858
1.29865
1.29865
1.29855
1.2985
1.29846
1.29849
1.90085
843.428
919.695
950.2
984.422
996.72
1000.05
956.07
173.922
1.29939
1.29851
1.29853
1.29861
1.29862
1.29859
1.2985
1.29848
1.29846
1.2985
73.2236
894.237
162.02
281.703
507.629
802.156
975.854
994.509
538.621
1.30038
1.29862
1.29855
1.29859
1.29855
1.29851
1.29846
1.29846
1.29857
1.29822
255.397
946.302
1.29335
1.29336
1.29338
75.7566
561.924
986.33
962.94
141.572
1.29828
1.29853
1.29854
1.29847
1.29844
1.29839
1.2984
1.29844
1.29711
432.961
977.896
1.29328
1.29332
1.29333
1.29332
26.2472
465.038
974.485
809.278
120.867
1.29783
1.29818
1.29814
1.29816
1.29811
1.29807
1.31128
1.29667
611.177
989.559
1.2995
1.29374
1.29485
1.29917
1.2969
7.33084
464.842
872.625
814.352
245.791
1.29881
1.29634
1.29659
1.29685
1.29662
1.29645
139.119
817.135
994.196
1.29359
1.29781
1.32772
1.32805
1.29688
1.29353
6.74271
411.113
796.626
758.909
530.735
397.88
230.832
172.131
242.459
555.975
955.8
994.931
994.931
1.29784
1.32756
1.32833
1.31193
1.29392
1.29351
1.72117
18.4708
286.908
599.056
784.862
801.766
801.766
790.415
825.221
839.227
889.571
964.379
992.99
1.29384
1.30027
1.29996
1.29325
1.29325
1.29333
2.3546
15.0723
60.2629
185.04
297.252
315.435
285.252
284.679
267.987
211.584
238.166
694.567
992.518
1.29323
1.29323
1.29323
1.29321
1.29315
1.29317
2.35605
144.001
603.048
691.375
691.375
477.423
339.108
149.516
91.5928
91.5926
308.349
818.757
992.518
1.29323
1.29323
1.29323
1.29321
1.29314
1.29329
1.66966
7.07917
70.3729
473.809
775.125
881.357
881.357
749.876
536.373
514.865
817.826
971.912
991.201
1.29322
1.29322
1.29323
1.29321
1.29315
1.29847
1.35603
1.29758
1.29324
1.29324
6.72092
265.121
668.134
909.996
989.36
989.36
989.972
990.159
956.402
1.29322
1.29322
1.29322
1.29322
1.29318
1.29397
1.33637
1.36597
1.29714
1.29322
1.2932
1.29318
1.29315
193.538
636.439
895.11
981.937
990.158
955.734
1.29322
1.29322
1.29322
1.29322
1.2932
1.29316
1.30284
1.35225
1.33817
1.305
1.31371
1.30059
1.29315
1.29302
1.29279
373.332
818.39
894.535
970.323
1.29321
1.29321
1.29321
1.29321
1.29321
1.29319
1.29372
1.29659
1.30608
1.29933
1.34768
1.33704
1.29319
1.29501
5.29522
98.2455
637.825
905.478
978.319
1.29321
1.29321
1.29321
1.29321
1.29321
1.2932
1.29319
1.29318
1.29317
1.29317
1.30042
1.31174
1.29789
1.29426
1.74265
29.9712
323.041
801.767
978.309
1.29321
1.29321
1.29321
1.29321
1.2932
1.2932
1.2932
1.29319
1.29318
1.29318
1.29329
1.29319
1.29321
1.29325
1.47445
5.40421
25.7296
262.027
492.149
1.2932
1.2932
1.2932
1.2932
1.2932
1.2932
1.2932
1.2932
1.2932
1.29319
1.2932
1.2932
1.29321
1.2932
1.29321
1.29319
1.29309
70.6548
217.851
1.2932
1.2932
1.2932
1.2932
1.2932
1.2932
1.2932
1.2932
1.2932
1.2932
1.2932
1.2932
1.29321
1.2932
1.29321
1.34594
1.96492
15.711
155.547
1.2932
1.2932
1.2932
1.2932
1.2932
1.29319
1.2932
1.29319
1.2932
1.2932
1.2932
1.2932
1.29321
1.2932
1.29321
1.43953
1.30161
3.89303
202.492
1.29319
1.29319
1.29319
1.29319
1.29319
1.29319
1.29319
1.29319
1.29319
1.29319
1.2932
1.2932
1.29326
1.29323
1.29321
1.35999
1.3016
1.81834
202.492
1.29318
1.29319
1.29319
1.29319
1.29319
1.29319
1.29319
1.29319
1.29319
1.29319
1.2932
1.29323
1.29334
1.29329
1.29322
1.29321
1.29322
1.29321
202.476
1.29317
1.29318
1.29318
1.29318
1.29318
1.29318
1.29318
1.29319
1.29319
1.29319
1.29319
1.29332
1.29333
1.29327
1.29321
1.2932
1.29321
1.2932
147.42
1.29316
1.29316
1.29317
1.29318
1.29318
1.29318
1.29318
1.29318
1.29318
1.29318
1.2932
1.29331
1.2933
1.2932
1.29321
1.2932
1.2932
1.29318
74.5533
1.29314
1.29315
1.29316
1.29317
1.29317
1.29317
1.29318
1.29318
1.29318
1.29318
1.2932
1.29322
1.2932
1.29321
1.29325
1.32041
1.36471
1.57057
120.909
1.29313
1.29314
1.29315
1.29316
1.29317
1.29317
1.29317
1.29317
1.29317
1.29318
1.29319
1.29318
1.29318
1.29339
1.4789
7.00229
26.9626
44.3627
221
1.29313
1.29314
1.29315
1.29316
1.29316
1.29316
1.29316
1.29316
1.29317
1.29317
1.29317
1.29317
1.29317
1.29354
1.60198
23.5689
125.779
213.591
220.98
1.29314
1.29315
1.29315
1.29315
1.29315
1.29315
1.29315
1.29316
1.29316
1.29317
1.29316
1.29316
1.29315
1.29385
1.72907
22.4406
126.687
236.1
178.177
1.29315
1.29315
1.29315
1.29315
1.29314
1.29314
1.29314
1.2932
1.29322
1.29318
1.29315
1.29315
1.29349
1.29399
1.88926
3.91146
9.30006
236.102
153.985
1.29315
1.29316
1.29316
1.29315
1.29314
1.29312
1.29313
1.2932
1.29321
1.29317
1.29314
1.29314
1.29522
1.30423
1.42568
1.29319
1.29316
154.451
251.531
1.29316
1.29314
1.29313
1.29311
1.2931
1.29309
1.2931
1.29312
1.29314
1.29313
1.29313
1.29463
1.29668
1.30937
1.30197
1.29335
1.29305
55.1523
461.285
1.29314
1.29311
1.29452
1.29569
1.29306
1.29307
1.29308
1.29309
1.2931
1.29315
1.29312
1.29701
1.29693
1.3099
1.29376
1.29357
1.29298
40.5025
461.28
1.2931
1.29311
1.32068
1.40059
1.3964
1.32615
1.31651
1.29307
1.29675
1.29346
1.29311
1.297
1.29653
1.3099
1.29648
1.29349
1.29658
16.4704
436.706
1.2931
1.29314
1.36655
1.47602
1.476
1.47477
1.47206
1.41202
1.30425
1.29328
1.29312
1.29639
1.29535
1.3099
1.29829
1.29347
1.30063
1.29314
383.16
1.29311
1.29353
1.30975
1.42482
1.47601
1.47601
1.47602
1.47604
1.2936
1.29315
1.29318
1.29345
1.29389
1.30702
1.29557
1.29371
1.29979
1.29287
347.058
1.29719
1.29615
1.2932
1.29319
1.35786
1.41823
1.41664
1.34165
1.29309
1.29311
1.29317
1.29312
1.29334
1.29449
1.29415
1.29377
1.2926
1.2927
273.43
1.30128
1.30129
1.29742
1.29365
1.29339
1.29529
1.29716
1.2942
1.29309
1.2931
1.29311
1.29311
1.29311
1.29311
1.29348
1.29269
1.29254
1.29259
275.639
1.29908
1.29929
1.29934
1.29784
1.29341
1.2935
1.29565
1.29612
1.29404
1.29312
1.29312
1.29313
1.2941
1.29558
1.29322
1.29258
1.29251
1.29254
215.363
1.29295
1.29299
1.29304
1.29369
1.29814
1.29986
1.29943
1.3124
1.31622
1.31149
1.30814
1.30469
1.29902
1.29581
1.29261
1.29253
1.29249
1.29252
58.0281
)
;

boundaryField
{
    leftWall
    {
        type            calculated;
        value           nonuniform List<scalar> 
50
(
1000.05
1000.05
1000.05
1000.05
1000.05
1000.05
1000.05
999.656
857.062
157.504
1.29332
1.29326
1.29324
1.29323
1.29323
1.29323
1.29323
1.29322
1.29322
1.29322
1.29322
1.29321
1.29321
1.29321
1.2932
1.2932
1.29319
1.29319
1.29317
1.29316
1.29314
1.29312
1.29311
1.2931
1.29309
1.29309
1.29309
1.29308
1.29308
1.29308
1.29309
1.29309
1.29309
1.29309
1.29309
1.29309
1.29309
1.2931
1.2931
1.2931
)
;
    }
    rightWall
    {
        type            calculated;
        value           nonuniform List<scalar> 
50
(
719.974
719.976
604.323
743.953
743.952
743.951
665.149
495.727
524.407
751.37
804.209
843.428
894.237
946.302
977.896
989.559
994.196
994.931
992.99
992.518
992.518
991.201
956.402
955.734
970.323
978.319
978.309
492.149
217.851
155.547
202.492
202.492
202.476
147.42
74.5533
120.909
221
220.98
178.177
153.985
251.531
461.285
461.28
436.706
383.16
347.058
273.43
275.639
215.363
58.0281
)
;
    }
    lowerWall
    {
        type            calculated;
        value           nonuniform List<scalar> 
62
(
1000.05
1000.05
1000.05
1000.05
1000.05
1000.05
1000.05
1000.05
1000.05
1000.05
1000.05
1000.05
1000.05
1000.05
1000.05
1000.05
1000.05
1000.05
1000.05
1000.05
1000.05
1000.05
999.783
999.783
999.739
999.738
999.787
1000.02
1000.05
1000.05
1000.05
1000.02
999.706
999.914
999.914
7.34198
3.0608
1.3253
1.29909
1.29907
1.29905
1.29906
1.29904
7.34199
176.394
322.611
322.571
307.047
280.797
331.787
503.597
571.968
571.968
575.03
668.311
719.969
719.972
719.969
719.972
719.97
719.974
719.974
)
;
    }
    atmosphere
    {
        type            calculated;
        value           nonuniform List<scalar> 
46
(
1.29319
1.29319
1.29319
1.29319
1.29319
1.29319
1.29319
1.29319
1.29319
1.29319
1.29319
1.29319
1.29319
1.29319
1.2932
1.2932
1.29321
1.29323
1.29327
1.2933
1.29328
1.29347
1.29415
1.2935
1.29302
1.29302
1.29302
1.29304
1.29309
1.29314
1.29318
1.29321
1.29996
1.29953
1.31251
1.31632
1.3116
1.30824
1.30479
1.29913
1.29591
1.2927
1.29262
1.2926
1.2926
58.0283
)
;
    }
    defaultFaces
    {
        type            empty;
    }
}


// ************************************************************************* //
