/*--------------------------------*- C++ -*----------------------------------*\
| =========                 |                                                 |
| \\      /  F ield         | OpenFOAM: The Open Source CFD Toolbox           |
|  \\    /   O peration     | Version:  2012                                  |
|   \\  /    A nd           | Website:  www.openfoam.com                      |
|    \\/     M anipulation  |                                                 |
\*---------------------------------------------------------------------------*/
FoamFile
{
    version     2.0;
    format      ascii;
    class       volScalarField;
    location    "0.54";
    object      rhogh;
}
// * * * * * * * * * * * * * * * * * * * * * * * * * * * * * * * * * * * * * //

dimensions      [1 -1 -2 0 0 0 0];


internalField   nonuniform List<scalar> 
2268
(
-29.4294
-29.4294
-29.4294
-29.4294
-29.4294
-29.4294
-29.4294
-29.4294
-29.4294
-29.4294
-29.4294
-29.4294
-29.4294
-29.4294
-29.4294
-29.4294
-29.4294
-29.4294
-29.4294
-29.4294
-29.4294
-29.4294
-29.4214
-88.2881
-88.2881
-88.2881
-88.2881
-88.2881
-88.2881
-88.2881
-88.2881
-88.2881
-88.2881
-88.2881
-88.2881
-88.2881
-88.2881
-88.2881
-88.2881
-88.2881
-88.2881
-88.2881
-88.2881
-88.2881
-88.2881
-88.2602
-147.147
-147.147
-147.147
-147.147
-147.147
-147.147
-147.147
-147.147
-147.147
-147.147
-147.147
-147.147
-147.147
-147.147
-147.147
-147.147
-147.147
-147.147
-147.147
-147.147
-147.147
-147.147
-147.1
-206.006
-206.006
-206.006
-206.006
-206.006
-206.006
-206.006
-206.006
-206.006
-206.006
-206.006
-206.006
-206.006
-206.006
-206.006
-206.006
-206.006
-206.006
-206.006
-206.006
-206.006
-206.006
-205.951
-264.864
-264.864
-264.864
-264.864
-264.864
-264.864
-264.864
-264.864
-264.864
-264.864
-264.864
-264.864
-264.864
-264.864
-264.864
-264.864
-264.864
-264.864
-264.864
-264.864
-264.864
-264.864
-264.855
-323.723
-323.723
-323.723
-323.723
-323.723
-323.723
-323.723
-323.723
-323.723
-323.723
-323.723
-323.723
-323.723
-323.723
-323.723
-323.723
-323.723
-323.723
-323.723
-323.723
-323.723
-323.723
-323.723
-382.582
-382.582
-382.582
-382.582
-382.582
-382.582
-382.582
-382.582
-382.582
-382.582
-382.582
-382.582
-382.582
-382.582
-382.582
-382.582
-382.582
-382.582
-382.582
-382.582
-382.582
-382.582
-382.582
-441.265
-441.262
-441.291
-441.323
-441.353
-441.377
-441.408
-441.424
-441.435
-441.439
-441.44
-441.44
-441.44
-441.44
-441.44
-441.44
-441.44
-441.44
-441.44
-441.44
-441.44
-441.44
-441.44
-0.17803
-5.15932
-9.46775
-9.46659
-9.00915
-8.23569
-9.73816
-14.8007
-16.8154
-16.8154
-16.9056
-19.6542
-21.1764
-21.1764
-21.1764
-21.1764
-21.1764
-21.1764
-21.1764
-0.155713
-0.176319
-6.58076e-08
-6.58076e-08
-6.58076e-08
-6.58076e-08
-6.58076e-08
-0.308285
-4.1678
-17.31
-33.1458
-39.0832
-37.6191
-33.9807
-34.6602
-45.6511
-55.7645
-61.5981
-63.5293
-0.00384259
-0.00109881
-6.51536e-06
-1.31075e-05
-3.85288e-06
-2.02492e-07
-1.09679e-07
-0.424135
-3.92942
-4.74744
-3.37505
-1.02791
-0.000120024
-0.000120005
-0.138225
-5.69945
-23.1379
-60.3855
-88.8429
-1.27532e-06
-2.18766e-07
-3.82335e-08
-0.000182084
-0.00196268
-0.000220712
-1.53551e-07
-0.106223
-1.2446
-0.0990509
-1.53551e-07
-1.53552e-07
-0.000217347
-0.0339219
-0.0714533
-0.0376184
-2.08816
-57.9062
-153.181
-3.68231e-09
-3.53316e-09
-1.20385e-11
-0.131835
-4.41647
-1.02847
-0.000936112
-0.00279679
-0.125163
-0.00300957
-1.97424e-07
-3.29758e-06
-2.88149e-05
-9.2108e-05
-9.9138e-07
-9.91345e-07
-0.844232
-27.7878
-196.947
-1.77396e-09
-4.57721e-09
-1.47137e-11
-7.75582
-148.71
-69.9711
-5.94057
-0.217939
-0.00210357
-0.00107677
-2.41294e-07
-2.59246e-06
-2.11873e-06
-5.02099e-08
-1.21173e-06
-0.000217004
-0.0723641
-14.1055
-240.713
-1.03276e-09
-1.7015e-09
-1.7389e-11
-111.772
-362.418
-256.986
-33.2626
-0.416827
-0.000652026
-3.19636e-05
-3.2975e-06
-9.42031e-07
-5.93389e-08
-5.9339e-08
-5.90917e-08
-5.86993e-08
-0.000525386
-6.91188
-254.293
-2.00642e-11
-2.00642e-11
-2.00642e-11
-265.07
-441.44
-359.032
-54.3111
-0.402945
-0.000446883
-9.71487e-07
-3.70636e-06
-2.78871e-07
-1.22048e-07
-1.10609e-07
-6.67505e-08
-6.77303e-08
-6.77299e-08
-2.23427
-218.532
-457.091
-457.711
-462.434
-468.316
-475.73
-483.683
-495.457
-505.214
-516.608
-525.035
-528.902
-531.429
-532.821
-533.467
-533.467
-533.467
-533.467
-533.467
-533.467
-533.467
-533.467
-533.467
-533.467
-103.017
-105.647
-111.241
-118.775
-130.753
-145.888
-169.701
-196.587
-239.255
-296.37
-372.877
-450.256
-531.155
-605.54
-653.873
-658.662
-658.662
-658.662
-658.662
-658.662
-658.662
-658.662
-658.662
4.92787e-35
3.6826e-33
-4.63629e-32
-1.30502e-30
6.27923e-30
1.58633e-28
3.19662e-29
-5.58771e-29
-1.12758e-28
-1.39666e-20
-0.953349
-24.0793
-65.5514
-137.238
-254.641
-436.544
-677.21
-783.856
-783.856
-783.856
-783.856
-783.856
-783.856
-1.42474e-15
-7.01289e-14
-2.07105e-12
-3.67854e-11
-4.15256e-10
-3.79311e-09
-6.08229e-09
-4.44296e-09
-2.05901e-09
-4.94678e-11
-4.7176e-24
-8.62025e-24
1.56882e-20
-0.643018
-6.55894
-31.0928
-97.6031
-254.892
-501.042
-779.83
-899.55
-908.407
-909.051
-4.51195e-15
-2.29372e-13
-6.91253e-12
-1.23764e-10
-1.54108e-09
-1.50677e-08
-2.65134e-08
-3.84479e-08
-2.82273e-08
-5.62804e-11
-2.09791e-05
-8.61083e-05
5.55405e-24
-0.000186754
2.64099e-22
-2.02321e-24
-4.9974e-19
-8.63269
-46.7143
-107.416
-229.627
-383.631
-628.859
-5.64907e-15
-2.99984e-13
-9.06805e-12
-1.62118e-10
-2.09351e-09
-2.08343e-08
-3.60883e-08
-8.65048e-08
-1.22431e-07
-3.51383e-09
-1.24592e-05
-0.00130235
-0.00224325
-0.00255161
-0.00235125
-0.000343592
-3.61309e-05
-1.08117e-05
-1.08117e-05
-1.08117e-05
-1.08117e-05
-6.14933
-26.2406
-5.6702e-15
-2.98759e-13
-8.77477e-12
-1.47499e-10
-1.71741e-09
-1.92472e-08
-2.66523e-08
-1.17844e-07
-4.31668e-07
-1.85243e-07
-1.85368e-07
-0.0018335
-0.00282683
-0.00282683
-0.00142972
-0.000117687
-1.4528e-05
-1.19791e-05
-1.19791e-05
-5.20373e-05
-0.00430793
-1.54033e-09
-1.53784e-09
-4.25126e-15
-2.08928e-13
-5.79637e-12
-9.04262e-11
-9.5551e-10
-1.14086e-08
-1.07174e-08
-1.39303e-07
-9.68191e-07
-2.25067e-06
-8.228e-05
-1.57515e-07
-0.000295026
-1.84248e-08
-1.8428e-08
-1.43168e-05
-4.73008e-05
-4.67717e-05
-1.59575e-05
-2.77982e-05
-6.9197e-05
-0.000106634
-0.000363109
-2.12386e-15
-9.93519e-14
-2.64236e-12
-3.97757e-11
-3.92378e-10
-4.67354e-09
-2.8247e-09
-1.25895e-07
-1.36896e-06
-6.17763e-06
-2.09748e-06
-1.71502e-07
-7.04864e-08
-1.19036e-07
-3.96421e-08
-8.61729e-07
-4.6598e-05
-5.62978e-05
-4.29576e-05
-3.13868e-05
-9.78413e-06
-3.95212e-08
-1.13754e-07
-8.79716e-16
-3.96425e-14
-1.02532e-12
-1.50454e-11
-1.42416e-10
-1.64245e-09
-6.88835e-10
-1.17893e-07
-9.4626e-07
-4.48766e-06
-2.4346e-06
-5.904e-07
-2.20577e-07
-4.96089e-07
-7.56318e-07
-7.22467e-07
-1.35972e-06
-2.47215e-05
-2.26879e-05
-6.73899e-06
-2.69711e-07
-4.26854e-08
-5.03909e-05
-3.00552e-16
-1.29971e-14
-3.26622e-13
-4.66117e-12
-4.31785e-11
-4.61258e-10
-5.04819e-10
-6.19729e-08
-3.51313e-07
-2.74226e-07
-3.6333e-07
-2.66936e-07
-2.41866e-07
-5.06919e-07
-8.91176e-07
-9.02735e-07
-3.29673e-07
-2.64428e-07
-2.64437e-07
-7.24734e-07
-9.07457e-07
-3.46931e-07
-2.13732e-09
-8.43022e-17
-3.53701e-15
-8.71189e-14
-1.22241e-12
-1.13774e-11
-9.87093e-11
-3.91088e-10
-1.56854e-08
-6.83307e-08
-6.85755e-08
-8.20606e-08
-8.46265e-08
-8.98682e-08
-1.23934e-07
-3.36816e-07
-5.31663e-07
-5.53149e-07
-4.20484e-07
-3.37833e-07
-3.31902e-07
-3.21929e-07
-2.63675e-07
-1.5127e-07
-1.92452e-17
-7.79235e-16
-1.87632e-14
-2.59402e-13
-2.45697e-12
-1.90412e-11
-1.50545e-10
-3.12494e-09
-8.35487e-09
-1.63154e-08
-2.13567e-08
-2.11033e-08
-2.18871e-08
-2.683e-08
-4.19611e-08
-8.07236e-08
-1.68368e-07
-2.86604e-07
-3.35619e-07
-3.39372e-07
-3.07196e-07
-2.14446e-07
-1.32211e-07
-3.54189e-18
-1.40725e-16
-3.35935e-15
-4.65449e-14
-4.55601e-13
-3.4703e-12
-4.45202e-11
-3.85328e-10
-1.26101e-09
-2.64588e-09
-3.41489e-09
-3.44943e-09
-3.67897e-09
-4.56842e-09
-7.01198e-09
-1.23416e-08
-2.29527e-08
-4.07078e-08
-5.82452e-08
-5.92051e-08
-5.929e-08
-5.26905e-08
-4.23286e-08
-5.17462e-19
-2.02524e-17
-4.83507e-16
-6.81842e-15
-7.00207e-14
-5.50455e-13
-9.46398e-12
-4.11469e-11
-1.17257e-10
-2.33439e-10
-3.00078e-10
-3.34272e-10
-4.12658e-10
-6.38304e-10
-1.16511e-09
-2.05092e-09
-3.18768e-09
-4.22481e-09
-5.38872e-09
-6.42574e-09
-7.79345e-09
-8.29743e-09
-8.20559e-09
-5.87302e-20
-2.30388e-18
-5.59897e-17
-8.18818e-16
-8.91319e-15
-7.26105e-14
-1.30981e-12
-4.55485e-12
-9.26698e-12
-1.14481e-11
-1.34868e-11
-1.85077e-11
-3.59217e-11
-8.21348e-11
-1.76353e-10
-3.13497e-10
-4.52319e-10
-5.6661e-10
-6.93867e-10
-8.13066e-10
-1.0001e-09
-1.15713e-09
-1.33819e-09
-5.02835e-21
-2.01833e-19
-5.09941e-18
-7.89231e-17
-9.17392e-16
-7.63342e-15
-1.13613e-13
-4.38778e-13
-8.40519e-13
-9.54893e-13
-1.09389e-12
-1.69444e-12
-4.00764e-12
-1.02341e-11
-2.27002e-11
-4.02231e-11
-5.67597e-11
-7.06537e-11
-8.58314e-11
-9.8937e-11
-1.20603e-10
-1.39937e-10
-1.76508e-10
-3.11139e-22
-1.32111e-20
-3.56653e-19
-5.94051e-18
-7.3402e-17
-6.12052e-16
-5.85506e-15
-2.28919e-14
-5.12786e-14
-6.91186e-14
-9.138e-14
-1.59461e-13
-3.80219e-13
-9.27529e-13
-1.95644e-12
-3.33328e-12
-4.5848e-12
-5.71043e-12
-6.9533e-12
-8.18546e-12
-1.04855e-11
-1.30157e-11
-1.82018e-11
-1.30531e-23
-6.10479e-22
-1.81211e-20
-3.2748e-19
-4.24221e-18
-3.50397e-17
-2.196e-16
-6.99218e-16
-1.3484e-15
-2.15061e-15
-3.83691e-15
-9.17268e-15
-2.40907e-14
-5.63857e-14
-1.09404e-13
-1.70866e-13
-2.23782e-13
-2.78075e-13
-3.43206e-13
-4.2722e-13
-6.08381e-13
-8.63693e-13
-1.45925e-12
-3.39846e-25
-1.85992e-23
-6.24851e-22
-1.22577e-20
-1.6407e-19
-1.32147e-18
-7.02916e-18
-1.95643e-17
-3.93213e-17
-7.63343e-17
-1.78088e-16
-4.82778e-16
-1.22668e-15
-2.5695e-15
-4.13729e-15
-5.34188e-15
-6.5724e-15
-8.02155e-15
-1.00112e-14
-1.36012e-14
-2.20313e-14
-3.89012e-14
-9.25681e-14
-5.06386e-27
-3.12609e-25
-1.15321e-23
-2.38074e-22
-3.233e-21
-2.54126e-20
-1.12558e-19
-3.43132e-19
-9.13101e-19
-2.54108e-18
-7.33608e-18
-2.03037e-17
-4.77212e-17
-8.64099e-17
-1.09929e-16
-1.2735e-16
-1.46539e-16
-1.73616e-16
-2.16167e-16
-2.97964e-16
-5.25168e-16
-1.34598e-15
-9.26415e-15
-6.96437e-29
-2.96014e-27
-8.11585e-26
-1.46083e-24
-2.1781e-23
-2.25625e-22
-1.34921e-21
-6.09466e-21
-2.38799e-20
-8.39392e-20
-2.50124e-19
-6.43884e-19
-1.38136e-18
-2.31209e-18
-2.92217e-18
-3.33251e-18
-3.63319e-18
-3.98367e-18
-4.38047e-18
-5.13269e-18
-1.12946e-17
-1.67323e-16
-4.48838e-15
-2.14843e-30
-9.48429e-29
-2.61243e-27
-4.61158e-26
-6.55084e-25
-6.64516e-24
-4.04151e-23
-1.84334e-22
-7.03359e-22
-2.33773e-21
-6.37556e-21
-1.49083e-20
-2.9743e-20
-4.90931e-20
-6.33841e-20
-7.25428e-20
-7.62669e-20
-7.44834e-20
-5.8975e-20
-6.9895e-20
-1.81575e-18
-9.94744e-17
-3.00595e-15
-3.2375e-32
-1.48388e-30
-4.0347e-29
-6.67787e-28
-7.98972e-27
-6.86896e-26
-4.6251e-25
-2.44607e-24
-1.01834e-23
-3.4361e-23
-9.12248e-23
-2.082e-22
-4.18128e-22
-7.34443e-22
-1.02014e-21
-1.20369e-21
-1.27471e-21
-1.17216e-21
-1.20361e-21
-7.53801e-21
-7.29171e-19
-4.17565e-17
-1.24861e-15
-1.01988e-37
-3.26828e-36
-6.03707e-35
-6.72193e-34
-5.04086e-33
-1.93693e-32
-5.72879e-32
-2.86048e-31
-1.62646e-30
-7.37513e-30
-2.48629e-29
-6.93291e-29
-1.65906e-28
-2.87534e-28
-3.91393e-28
-1.24646e-27
-3.77956e-26
-1.38454e-24
-4.48665e-23
-2.37006e-21
-2.36782e-19
-1.27658e-17
-3.58031e-16
-5.52291e-42
-2.44749e-40
-6.50295e-39
-1.15053e-37
-1.61825e-36
-2.08585e-35
-4.72697e-34
-6.87128e-33
-4.93834e-32
-2.34663e-31
-7.87654e-31
-2.16005e-30
-5.0413e-30
-8.09483e-30
-1.34631e-29
-2.61407e-28
-1.89095e-26
-1.41099e-24
-9.86477e-23
-4.39299e-21
-1.67845e-19
-4.6562e-18
-9.44741e-17
-2.26984e-45
-1.00727e-43
-2.54149e-42
-4.06032e-41
-4.62704e-40
-3.94742e-39
-2.61244e-38
-1.40142e-37
-6.01071e-37
-2.2422e-36
-7.2182e-36
-3.36558e-35
-2.94024e-34
-3.58242e-32
-8.34571e-30
-1.69287e-27
-3.00064e-25
-3.53077e-23
-3.00005e-21
-1.35932e-19
-4.05606e-18
-6.31291e-17
-7.03549e-16
-5.17083e-51
-3.08812e-49
-1.04533e-47
-2.29411e-46
-3.64247e-45
-4.46556e-44
-4.32665e-43
-3.51217e-42
-2.31928e-41
-2.03912e-40
-2.02304e-38
-7.25251e-36
-2.65188e-33
-7.79935e-31
-2.14641e-28
-4.65151e-26
-8.47786e-24
-1.01664e-21
-8.64239e-20
-4.03413e-18
-1.24625e-16
-2.0897e-15
-2.63821e-14
-1.3607e-54
-9.10378e-53
-3.40221e-51
-8.3351e-50
-1.48645e-48
-2.10428e-47
-2.4744e-46
-5.5341e-45
-1.66003e-42
-9.00941e-40
-4.44908e-37
-1.73948e-34
-6.39055e-32
-1.93665e-29
-5.44637e-27
-1.1971e-24
-2.15331e-22
-2.5492e-20
-2.10805e-18
-9.81766e-17
-3.02509e-15
-5.23978e-14
-6.96907e-13
-4.65728e-61
-4.03923e-59
-2.15603e-57
-1.25029e-55
-4.89452e-53
-5.99406e-50
-6.40105e-47
-5.39169e-44
-3.76758e-41
-2.05029e-38
-9.96857e-36
-3.99045e-33
-1.49688e-30
-4.64421e-28
-1.30924e-25
-2.84947e-23
-4.94092e-21
-5.63561e-19
-4.43094e-17
-2.00138e-15
-5.93865e-14
-1.01582e-12
-1.32792e-11
-1.99475e-65
-6.6517e-62
-2.48098e-58
-6.14575e-55
-1.11754e-51
-1.45908e-48
-1.52828e-45
-1.22844e-42
-8.37223e-40
-4.54947e-37
-2.22066e-34
-9.05804e-32
-3.43876e-29
-1.07693e-26
-2.98369e-24
-6.27944e-22
-1.02628e-19
-1.10302e-17
-8.07807e-16
-3.44967e-14
-9.55338e-13
-1.55059e-11
-1.89911e-10
-2.29835e-64
-1.72949e-60
-6.39341e-57
-1.5263e-53
-2.66814e-50
-3.41366e-47
-3.50046e-44
-2.77263e-41
-1.86443e-38
-1.0127e-35
-4.96332e-33
-2.05678e-30
-7.84502e-28
-2.44557e-25
-6.53162e-23
-1.30138e-20
-1.96524e-18
-1.95081e-16
-1.30411e-14
-5.13213e-13
-1.28627e-11
-1.90532e-10
-2.1125e-09
-6.10551e-63
-4.38752e-59
-1.59392e-55
-3.73982e-52
-6.40215e-49
-8.04408e-46
-8.08271e-43
-6.31975e-40
-4.20343e-37
-2.29164e-34
-1.13195e-31
-4.76318e-29
-1.80965e-26
-5.52334e-24
-1.3924e-21
-2.57079e-19
-3.51069e-17
-3.14377e-15
-1.86899e-13
-6.56939e-12
-1.44089e-10
-1.87838e-09
-1.86529e-08
-1.6114e-61
-1.14325e-57
-4.08914e-54
-9.43042e-51
-1.5803e-47
-1.95207e-44
-1.92534e-41
-1.49283e-38
-9.88796e-36
-5.46541e-33
-2.73955e-30
-1.16929e-27
-4.36528e-25
-1.27951e-22
-2.97937e-20
-4.9933e-18
-6.0281e-16
-4.74706e-14
-2.43799e-12
-7.40316e-11
-1.37095e-09
-1.526e-08
-1.37814e-07
-4.53299e-60
-3.17978e-56
-1.12041e-52
-2.53934e-49
-4.16498e-46
-5.06891e-43
-4.92681e-40
-3.82216e-37
-2.55069e-34
-1.44851e-31
-7.39033e-29
-3.16786e-26
-1.13696e-23
-3.12777e-21
-6.57196e-19
-9.7738e-17
-1.01523e-14
-6.81344e-13
-2.9095e-11
-7.30093e-10
-1.0871e-08
-1.02937e-07
-9.14683e-07
-1.42037e-58
-9.86245e-55
-3.42811e-51
-7.6532e-48
-1.2325e-44
-1.48779e-41
-1.43747e-38
-1.13182e-35
-7.7066e-33
-4.52618e-30
-2.3226e-27
-9.76535e-25
-3.27783e-22
-8.26713e-20
-1.53381e-17
-1.98288e-15
-1.72964e-13
-9.61182e-12
-3.28363e-10
-6.47382e-09
-7.333e-08
-6.75683e-07
-1.32649e-05
-5.12947e-57
-3.5271e-53
-1.20829e-49
-2.65782e-46
-4.19806e-43
-5.01294e-40
-4.7962e-37
-3.79435e-34
-2.58385e-31
-1.50453e-28
-7.34272e-26
-2.83632e-23
-8.411e-21
-1.836e-18
-2.87353e-16
-3.09438e-14
-2.20721e-12
-9.92354e-11
-2.67573e-09
-4.01206e-08
-3.13043e-07
-3.54528e-06
-0.00028748
-1.89131e-55
-1.27565e-51
-4.2241e-48
-8.95729e-45
-1.35776e-41
-1.56369e-38
-1.44252e-35
-1.10378e-32
-7.1691e-30
-3.89694e-27
-1.70325e-24
-5.71279e-22
-1.43179e-19
-2.60595e-17
-3.36046e-15
-2.97491e-13
-1.73873e-11
-6.38485e-10
-1.37919e-08
-1.56077e-07
-7.56067e-07
-8.86018e-06
-0.00109447
-3.96241e-54
-2.47056e-50
-7.5486e-47
-1.48132e-43
-2.07993e-40
-2.2072e-37
-1.85713e-34
-1.27943e-31
-7.49141e-29
-3.74827e-26
-1.48276e-23
-4.43104e-21
-9.81406e-19
-1.57464e-16
-1.79325e-14
-1.40267e-12
-7.19527e-11
-2.31207e-09
-4.3607e-08
-4.30347e-07
-1.76912e-06
-1.55914e-05
-0.000953732
-7.92699e-53
-4.67103e-49
-1.33707e-45
-2.44151e-42
-3.161e-39
-3.05899e-36
-2.29368e-33
-1.35837e-30
-6.42815e-28
-2.42598e-25
-7.32365e-23
-1.74776e-20
-3.23227e-18
-4.51962e-16
-4.64003e-14
-3.40269e-12
-1.70901e-10
-5.60635e-09
-1.11573e-07
-1.28835e-06
-8.983e-06
-2.19478e-05
-2.19479e-05
-4.57299e-52
-2.47713e-48
-6.42675e-45
-1.04451e-41
-1.18525e-38
-9.86974e-36
-6.247e-33
-3.05998e-30
-1.18571e-27
-3.67474e-25
-9.25002e-23
-1.89513e-20
-3.15866e-18
-4.21851e-16
-4.40842e-14
-3.50305e-12
-2.0291e-10
-8.18308e-09
-2.2498e-07
-4.63834e-06
-2.80949e-05
-2.24553e-05
-2.24553e-05
-3.16834e-51
-1.64666e-47
-4.0819e-44
-6.31449e-41
-6.77713e-38
-5.31888e-35
-3.15264e-32
-1.43689e-29
-5.09742e-27
-1.41441e-24
-3.07173e-22
-5.20447e-20
-6.82564e-18
-6.87199e-16
-5.22944e-14
-2.96421e-12
-1.22393e-10
-3.58142e-09
-6.75631e-08
-6.6481e-07
-1.10761e-05
-0.00169721
-0.00614311
-533.448
-533.281
-533.392
-533.392
-658.623
-658.433
-658.542
-658.569
-783.855
-783.801
-783.714
-783.73
-908.877
-908.878
-908.926
-908.965
-816.961
-884.795
-909.467
-932.523
-37.9939
-52.7005
-77.6455
-116.2
-1.53784e-09
-1.53784e-09
-1.53784e-09
-1.53784e-09
-0.00040348
-0.000403472
-0.00024408
-4.29919e-05
-1.13761e-07
-0.0047202
-0.0111446
-0.0111444
-5.50683e-05
-0.000169885
-0.000536179
-0.000540271
-2.13732e-09
-2.13732e-09
-2.13732e-09
-3.0786e-08
-5.56617e-08
-1.19617e-08
-5.63151e-09
-3.06422e-06
-7.97033e-08
-4.25534e-08
-2.3409e-08
-1.75448e-07
-3.4262e-08
-2.81066e-08
-2.12283e-08
-2.13829e-08
-7.57522e-09
-7.01999e-09
-7.97232e-09
-7.2863e-09
-1.41876e-09
-1.42643e-09
-1.56435e-09
-1.70537e-09
-2.10392e-10
-2.32781e-10
-2.63873e-10
-3.10649e-10
-2.40296e-11
-2.92851e-11
-3.60164e-11
-4.57683e-11
-2.18501e-12
-2.94449e-12
-4.00155e-12
-5.59017e-12
-1.67155e-13
-2.58208e-13
-4.03281e-13
-6.44464e-13
-2.2857e-14
-4.31895e-14
-8.21294e-14
-1.55663e-13
-1.22158e-14
-2.43106e-14
-4.86964e-14
-9.62239e-14
-8.24487e-15
-1.65605e-14
-3.36108e-14
-6.74502e-14
-3.47338e-15
-7.13594e-15
-1.49646e-14
-3.13166e-14
-9.94476e-16
-2.04794e-15
-4.32427e-15
-9.21555e-15
-2.46157e-16
-4.85394e-16
-1.00115e-15
-2.13764e-15
-1.57752e-15
-2.80278e-15
-6.08287e-15
-1.45245e-14
-6.84693e-14
-1.49673e-13
-4.07051e-13
-1.01586e-12
-2.02458e-12
-5.11845e-12
-1.61309e-11
-4.05837e-11
-4.25009e-11
-1.19593e-10
-4.13101e-10
-8.70798e-10
-6.66976e-10
-2.01441e-09
-7.30768e-09
-9.84156e-09
-8.0153e-09
-2.48585e-08
-7.52254e-08
-3.09153e-08
-7.26701e-08
-2.22927e-07
-3.04224e-07
-1.47436e-07
-4.69503e-07
-1.20108e-06
-1.87308e-06
-2.99455e-05
-2.14711e-06
-5.2072e-06
-6.11517e-05
-0.000138085
-4.94042e-05
-0.00011733
-0.000132557
-7.21547e-05
-0.00132234
-0.000419923
-2.12309e-06
-2.12194e-06
-0.00213146
-0.00123057
-5.83409e-06
-7.14768e-05
-0.00210854
-0.00248503
-0.00898769
-0.0176611
-2.19479e-05
-0.000518677
-0.0247185
-0.044626
-9.90243e-05
-0.000298521
-0.00626241
-0.0226078
-0.00272777
3.7791e-24
1.26437e-23
2.44364e-23
-222.133
-70.1033
-167.502
-461.511
-533.467
-437.611
-69.8235
-0.349506
-0.000175711
-6.84951e-07
-2.45161e-06
-5.69438e-07
-1.14834e-07
-8.24698e-08
-6.20034e-08
-2.73594e-07
-4.36159e-06
-7.32875e-25
-279.409
-636.063
-641.775
-658.662
-658.662
-658.662
-533.781
-74.9825
-0.240537
-5.16576e-05
-6.52014e-07
-9.87624e-07
-5.66642e-07
-1.62917e-07
-5.7675e-08
-2.80115e-08
-1.27095e-06
-6.93898e-06
-6.39658e-25
-494.659
-783.851
-783.855
-783.855
-783.856
-783.856
-592.312
-51.9538
-0.0375282
-2.3299e-05
-5.6015e-07
-5.07682e-07
-3.42329e-07
-1.09945e-07
-4.21928e-08
-3.33352e-08
-3.28533e-06
-7.64704e-06
6.41744e-19
-630.151
-908.98
-909.001
-909.024
-909.042
-909.051
-733.848
-53.1844
-2.50695e-13
-9.78442e-06
-1.02434e-06
-3.59367e-07
-1.5699e-07
-6.42321e-08
-4.55007e-08
-4.15341e-07
-5.4489e-06
-2.59239e-13
-0.547608
-766.493
-951.031
-982.62
-1018.06
-1030.79
-1034.25
-988.698
-178.756
-2.85176e-13
-1.17394e-06
-7.30796e-07
-2.12813e-07
-1.12171e-07
-9.45888e-08
-1.2849e-07
-2.07338e-07
-5.07252e-06
-2.94632e-13
-74.4801
-924.668
-186.584
-325.521
-587.794
-929.705
-1131.35
-1153
-623.768
-3.19756e-13
-1.06189e-07
-3.29813e-07
-2.27485e-07
-1.93013e-07
-2.41136e-07
-4.74562e-07
-6.94316e-07
-1.52518e-06
-3.30602e-13
-294.978
-1097.04
-1.53784e-09
-1.53784e-09
-1.53784e-09
-95.7767
-721.1
-1266.98
-1236.9
-180.424
-6.52907e-08
-2.19468e-07
-2.29317e-07
-2.68154e-07
-4.2905e-07
-7.28625e-07
-7.92814e-07
-3.81916e-07
-3.65942e-13
-555.219
-1256.13
-1.68771e-09
-1.68771e-09
-1.10159e-06
-1.10157e-06
-35.2244
-654.612
-1373.74
-1140.53
-168.782
-2.31105e-08
-3.24997e-08
-1.65994e-07
-3.82483e-07
-4.79659e-07
-4.50307e-07
-0.0193052
-4.01998e-13
-860.896
-1395.01
-0.00961413
-0.000738081
-0.00241877
-0.00906441
-0.00553394
-9.27922
-712.442
-1339.17
-1249.61
-375.77
-4.22057e-13
-4.2195e-13
-4.22057e-13
-4.2195e-13
-4.22057e-13
-4.2195e-13
-211.822
-1253.89
-1526.02
-0.000586493
-0.00757415
-0.057281
-0.0578273
-0.00598542
-0.000414183
-9.05844
-681.234
-1322.06
-1259.37
-880.075
-659.234
-381.553
-283.975
-400.879
-922.032
-1586.65
-1651.7
-1651.7
-0.00822607
-0.0613539
-0.0627211
-0.0333934
-0.0011919
-0.000445398
-0.764875
-30.707
-510.572
-1068.58
-1400.73
-1430.95
-1430.95
-1410.65
-1472.88
-1497.91
-1587.91
-1721.64
-1772.78
-0.00115509
-0.0134505
-0.0128417
-3.36771e-08
-9.28113e-07
-0.000155167
-2.03037
-26.3591
-112.808
-351.501
-566.156
-600.94
-543.2
-542.104
-510.173
-402.275
-453.125
-1326.21
-1896.19
-2.69359e-06
-1.95081e-06
-2.15698e-06
-6.63427e-08
-5.50774e-07
-0.000152364
-2.16671
-290.886
-1226.57
-1406.61
-1406.61
-970.504
-688.571
-302.119
-184.052
-184.05
-625.873
-1666.26
-2020.44
-2.12199e-08
-2.55251e-07
-1.80195e-06
-2.0162e-06
-1.6605e-06
-0.000420089
-0.814818
-12.5191
-149.466
-1022.37
-1674.32
-1904.17
-1904.17
-1619.69
-1157.74
-1111.2
-1766.71
-2100.11
-2141.84
-7.70371e-09
-1.23337e-07
-1.83333e-06
-3.44614e-06
-3.58172e-06
-0.0122766
-0.143983
-0.0100358
-8.78078e-07
-8.78078e-07
-12.4241
-603.909
-1526.42
-2080.05
-2261.71
-2261.71
-2263.11
-2263.54
-2186.27
-1.7541e-09
-1.74821e-08
-7.13407e-07
-3.53159e-06
-4.59806e-06
-0.00203328
-0.104391
-0.175683
-0.00948226
-3.01652e-05
-9.26162e-07
-9.26162e-07
-9.26162e-07
-464.151
-1533.48
-2158.01
-2367.64
-2387.49
-2304.38
-3.90506e-10
-1.71457e-09
-1.03306e-07
-1.79924e-06
-4.12442e-06
-1.00392e-05
-0.0246502
-0.150061
-0.114239
-0.0300023
-0.052121
-0.0188279
-9.74247e-07
-9.74247e-07
-9.74247e-07
-944.878
-2075.2
-2268.59
-2461.07
-7.26099e-11
-2.38289e-10
-1.28549e-08
-3.76342e-07
-2.01955e-06
-3.7131e-07
-0.00152412
-0.00915889
-0.0344542
-0.0164314
-0.145246
-0.116857
-1.02233e-06
-0.00510728
-10.6667
-258.387
-1696.41
-2409.72
-2603.85
-1.22388e-11
-5.70573e-11
-1.57574e-09
-6.46823e-08
-5.4539e-07
-3.88774e-07
-1.10522e-05
-2.47223e-05
-1.40488e-05
-4.79745e-07
-0.0202074
-0.0517674
-0.0130684
-0.00303557
-1.25457
-80.025
-897.814
-2233.67
-2726.29
-4.53483e-12
-3.6094e-11
-5.06573e-10
-1.03231e-08
-1.16235e-07
-2.75109e-07
-5.00598e-07
-5.00596e-07
-5.0058e-07
-5.01281e-07
-0.000284231
-6.90257e-07
-6.90257e-07
-0.000154789
-0.528562
-11.9871
-71.2526
-760.244
-1431.23
-1.62833e-11
-7.68396e-11
-9.19789e-10
-6.23178e-09
-4.31339e-08
-1.52206e-07
-3.70942e-07
-5.47943e-07
-7.23626e-07
-9.61319e-07
-1.83809e-06
-1.72801e-06
-9.40898e-07
-7.20287e-07
-7.19931e-07
-7.19931e-07
-7.19931e-07
-210.939
-658.584
-1.43971e-11
-1.16109e-10
-1.08224e-09
-7.65045e-09
-3.94862e-08
-1.34449e-07
-3.45745e-07
-7.43951e-07
-1.57599e-06
-2.57236e-06
-2.34137e-06
-1.63576e-06
-7.84055e-07
-7.49606e-07
-3.23447e-06
-0.166958
-2.12689
-45.6538
-488.441
-8.2488e-12
-1.04625e-10
-8.48945e-10
-6.88254e-09
-3.75526e-08
-1.36578e-07
-3.59937e-07
-8.58795e-07
-2.2832e-06
-2.96428e-06
-2.70046e-06
-1.07193e-06
-7.7928e-07
-7.7928e-07
-4.12791e-06
-0.481663
-0.0275991
-8.55817
-662.311
-2.45773e-12
-5.92026e-11
-4.04565e-10
-3.5295e-09
-2.5371e-08
-1.17825e-07
-3.81239e-07
-1.00016e-06
-2.26397e-06
-2.49817e-06
-1.57734e-06
-1.04348e-06
-0.00018001
-9.65448e-05
-4.28509e-06
-0.228212
-0.02865
-1.79446
-687.531
-7.44434e-13
-2.07331e-11
-1.54009e-10
-1.13881e-09
-8.09272e-09
-6.95019e-08
-3.23258e-07
-1.03465e-06
-1.75442e-06
-1.04549e-06
-8.71522e-07
-0.000120585
-0.000476173
-0.000345297
-2.12479e-05
-2.70624e-05
-4.0417e-25
4.60296e-27
-712.697
-7.47653e-13
-2.24334e-11
-1.49549e-10
-7.3042e-10
-4.48157e-09
-3.28686e-08
-1.67023e-07
-8.54824e-07
-1.19512e-06
-4.72694e-07
-4.39382e-06
-0.000468791
-0.000493022
-0.000269542
-1.56894e-05
-8.20238e-06
-1.58249e-06
4.6979e-26
-535.977
-2.398e-12
-5.44443e-11
-4.16934e-10
-1.34155e-09
-1.29843e-08
-7.97225e-08
-2.01843e-07
-5.58931e-07
-5.65544e-07
-4.88847e-07
-3.70769e-05
-0.000460035
-0.000402295
-4.99527e-05
-2.56587e-05
-8.86305e-07
-1.10267e-06
1.15075e-19
-277.893
-2.25052e-11
-1.65837e-10
-9.81706e-10
-3.21214e-09
-1.38563e-08
-7.67177e-08
-2.27903e-07
-3.26237e-07
-5.68008e-07
-1.8814e-06
-7.88348e-05
-0.000141916
-6.17104e-05
-7.15891e-05
-0.000177451
-0.106684
-0.280528
-1.08738
-468.726
-5.37276e-10
-2.32521e-09
-7.65655e-09
-2.57391e-08
-4.88123e-08
-8.56565e-08
-1.7559e-07
-2.58782e-07
-2.49815e-06
-1.79182e-05
-5.81431e-05
-2.0136e-05
-1.31376e-05
-0.000873067
-0.751039
-23.0876
-103.806
-174.171
-888.481
-1.14094e-08
-5.15869e-08
-1.13879e-07
-1.91882e-07
-3.42315e-07
-3.36735e-07
-1.39798e-07
-1.03766e-07
-1.0415e-07
-1.44517e-05
-2.41565e-05
-1.21651e-05
-1.21654e-05
-0.00164366
-1.28771
-92.874
-519.016
-885.128
-915.934
-1.85438e-07
-8.76439e-07
-2.4306e-06
-2.0568e-06
-1.22299e-06
-4.25055e-07
-5.81081e-07
-1.97939e-05
-1.79989e-05
-2.59268e-05
-1.44947e-05
-1.25311e-05
-1.25308e-05
-0.00306571
-1.87226
-90.8198
-538.52
-1008.41
-759.65
-2.40906e-06
-1.35018e-05
-3.7008e-05
-3.69155e-05
-2.05532e-05
-7.67408e-07
-1.42973e-05
-0.000279526
-0.000347203
-0.000134863
-1.31834e-05
-1.28966e-05
-0.00154607
-0.00384789
-2.63484
-11.5722
-35.3894
-1037.85
-674.895
-3.49757e-05
-9.87298e-05
-0.000137228
-0.000138139
-0.000103645
-1.77228e-05
-2.18417e-05
-0.000317558
-0.000359359
-0.000142993
-1.34239e-05
-1.32626e-05
-0.00949533
-0.0504857
-0.602383
-1.48629e-07
-1.48629e-07
-696.152
-1137.41
-0.000138765
-0.000153227
-0.000153229
-0.000135945
-9.97563e-05
-2.30264e-05
-1.44724e-05
-7.94268e-05
-0.000142655
-1.97616e-05
-1.36284e-05
-0.00700899
-0.0166569
-0.0759448
-0.0413606
-0.00108856
-1.52728e-07
-251.558
-2148.47
-0.000138082
-7.10789e-05
-0.00689762
-0.0126331
-1.4033e-05
-1.40126e-05
-1.4033e-05
-1.40126e-05
-1.4033e-05
-0.000166702
-1.39938e-05
-0.018629
-0.0183263
-0.0805817
-0.0032153
-0.00230038
-1.56827e-07
-188.049
-2206.11
-1.5594e-05
-0.000136875
-0.135904
-0.529274
-0.508749
-0.162953
-0.115444
-1.43998e-05
-0.018045
-0.00178743
-2.58609e-05
-0.0191383
-0.0168797
-0.0826921
-0.016784
-0.00207251
-0.0180694
-74.6927
-2142.83
-2.12198e-06
-0.000285117
-0.370885
-0.923435
-0.923435
-0.917203
-0.903458
-0.600333
-0.0563911
-0.000889979
-6.72799e-05
-0.0165063
-0.0113477
-0.0847939
-0.0262929
-0.00212943
-0.0393302
-3.54196e-21
-1927.18
-4.17674e-05
-0.00225784
-0.0862482
-0.681498
-0.946371
-0.946371
-0.946371
-0.946371
-0.00273667
-0.00027932
-0.000402299
-0.0017538
-0.00405572
-0.0719743
-0.0127867
-0.00375744
-0.0366249
4.01839e-21
-1788.32
-0.0217146
-0.0162164
-0.000607288
-0.000607122
-0.343271
-0.663077
-0.654651
-0.257334
-1.93003e-07
-4.32433e-05
-0.000323462
-7.54153e-06
-0.0011867
-0.00727206
-0.00555307
-0.00495137
-7.31349e-22
-1.5793e-28
-1441.63
-0.0446188
-0.044626
-0.023506
-0.00300277
-0.00161623
-0.0119874
-0.0221579
-0.00604596
-1.9757e-07
-2.75732e-06
-2.90556e-05
-2.35995e-07
-2.02673e-07
-2.02638e-07
-0.00260166
-0.000224751
-7.70127e-07
-2.92871e-09
-1487.72
-0.0338505
-0.0348649
-0.0348621
-0.0263391
-0.00164736
-0.00214671
-0.0140724
-0.0166848
-0.00511518
-2.02137e-07
-2.02137e-07
-2.02137e-07
-0.00541206
-0.0136522
-0.00210388
-1.47104e-05
-5.30754e-06
6.20224e-25
-1187.69
3.40612e-23
2.69505e-23
-6.31032e-22
-0.00343448
-0.0285426
-0.0382311
-0.0357825
-0.109401
-0.131038
-0.104234
-0.0852005
-0.0656132
-0.0335487
-0.0159014
-8.53962e-05
-8.88043e-09
2.02209e-27
1.01037e-21
-321.888
)
;

boundaryField
{
    leftWall
    {
        type            calculated;
        value           nonuniform List<scalar> 
50
(
-29.4294
-88.2881
-147.147
-206.006
-264.864
-323.723
-382.582
-441.265
-457.091
-103.017
4.92787e-35
-1.42474e-15
-4.51195e-15
-5.64907e-15
-5.6702e-15
-4.25126e-15
-2.12386e-15
-8.79716e-16
-3.00552e-16
-8.43022e-17
-1.92452e-17
-3.54189e-18
-5.17462e-19
-5.87302e-20
-5.02835e-21
-3.11139e-22
-1.30531e-23
-3.39846e-25
-5.06386e-27
-6.96437e-29
-2.14843e-30
-3.2375e-32
-1.01988e-37
-5.52291e-42
-2.26984e-45
-5.17083e-51
-1.3607e-54
-4.65728e-61
-1.99475e-65
-2.29835e-64
-6.10551e-63
-1.6114e-61
-4.53299e-60
-1.42037e-58
-5.12947e-57
-1.89131e-55
-3.96241e-54
-7.92699e-53
-4.57299e-52
-3.16834e-51
)
;
    }
    rightWall
    {
        type            calculated;
        value           nonuniform List<scalar> 
50
(
-21.1764
-63.5293
-88.8429
-153.181
-196.947
-240.713
-254.293
-218.532
-279.409
-494.659
-630.151
-766.493
-924.668
-1097.04
-1256.13
-1395.01
-1526.02
-1651.7
-1772.78
-1896.19
-2020.44
-2141.84
-2186.27
-2304.38
-2461.07
-2603.85
-2726.29
-1431.23
-658.584
-488.441
-662.311
-687.531
-712.697
-535.977
-277.893
-468.726
-888.481
-915.934
-759.65
-674.895
-1137.41
-2148.47
-2206.11
-2142.83
-1927.18
-1788.32
-1441.63
-1487.72
-1187.69
-321.888
)
;
    }
    lowerWall
    {
        type            calculated;
        value           nonuniform List<scalar> 
62
(
0
0
0
0
0
0
0
0
0
0
0
0
0
0
0
0
0
0
0
0
0
0
0
-29.4214
-88.2602
-147.1
-205.951
-264.855
-323.723
-382.582
-441.44
-470.853
-470.706
-470.804
-470.804
-0.17803
-0.155713
-0.00384259
-1.27532e-06
-3.68231e-09
-1.77396e-09
-1.03276e-09
-2.00642e-11
0
0
0
0
0
0
0
0
0
0
0
0
0
0
0
0
0
0
0
)
;
    }
    atmosphere
    {
        type            calculated;
        value           nonuniform List<scalar> 
46
(
-0
-0
-0
-0
-0
-0
-0
-0
-0
-0
-0
-0
-0
-0
-0
-0
-0
-0
-6.83094e-08
-6.72154e-07
-1.11984e-05
-0.00171596
-0.00621097
-0.0027579
-0
-0
-0
-0
-0
-0
-0
-0
-0.0386534
-0.0361777
-0.11061
-0.132485
-0.105386
-0.0861417
-0.066338
-0.0339194
-0.0160771
-0
-0
-0
-0
-325.444
)
;
    }
    defaultFaces
    {
        type            empty;
    }
}


// ************************************************************************* //
