/*--------------------------------*- C++ -*----------------------------------*\
| =========                 |                                                 |
| \\      /  F ield         | OpenFOAM: The Open Source CFD Toolbox           |
|  \\    /   O peration     | Version:  2012                                  |
|   \\  /    A nd           | Website:  www.openfoam.com                      |
|    \\/     M anipulation  |                                                 |
\*---------------------------------------------------------------------------*/
FoamFile
{
    version     2.0;
    format      ascii;
    class       volVectorField;
    location    "0.54";
    object      U;
}
// * * * * * * * * * * * * * * * * * * * * * * * * * * * * * * * * * * * * * //

dimensions      [0 1 -1 0 0 0 0];


internalField   nonuniform List<vector> 
2268
(
(0.00970705 -0.0052286 0)
(0.0340284 -0.00550213 0)
(0.0557633 -0.00494413 0)
(0.0756715 -0.00444647 0)
(0.0932766 -0.00428019 0)
(0.111675 -0.00470192 0)
(0.132819 -0.00383629 0)
(0.144573 -0.00290599 0)
(0.158315 -0.00236048 0)
(0.168333 -0.00176011 0)
(0.174973 -0.000563595 0)
(0.178469 6.44729e-05 0)
(0.180016 3.91854e-05 0)
(0.180707 0.000116108 0)
(0.17752 0.000614215 0)
(0.170598 4.62474e-05 0)
(0.161747 0.000429238 0)
(0.149158 -0.000830383 0)
(0.135708 -0.000268915 0)
(0.117319 -0.00149802 0)
(0.0932245 -0.00123296 0)
(0.0668341 -0.00353691 0)
(0.0297756 0.0125103 0)
(0.00956353 -0.0154364 0)
(0.0338675 -0.0162613 0)
(0.0557551 -0.0147318 0)
(0.0761147 -0.013279 0)
(0.0938643 -0.0127296 0)
(0.112369 -0.0139835 0)
(0.133036 -0.011708 0)
(0.144915 -0.00913852 0)
(0.158834 -0.00887035 0)
(0.169644 -0.00610967 0)
(0.174504 -0.00422955 0)
(0.179807 -0.00245047 0)
(0.181039 -0.00109942 0)
(0.180853 0.00105866 0)
(0.17743 0.0041616 0)
(0.170488 0.0074061 0)
(0.161982 0.00969547 0)
(0.149716 0.0131336 0)
(0.135181 0.0152952 0)
(0.115215 0.0215696 0)
(0.0877031 0.0250525 0)
(0.0558662 0.0334919 0)
(0.00977086 0.033097 0)
(0.00928798 -0.0257643 0)
(0.0339062 -0.027343 0)
(0.0558814 -0.0249202 0)
(0.076876 -0.0224685 0)
(0.0948679 -0.0214232 0)
(0.113547 -0.0232259 0)
(0.133164 -0.019227 0)
(0.145213 -0.0151028 0)
(0.159937 -0.014054 0)
(0.169934 -0.00916245 0)
(0.175996 -0.00536178 0)
(0.181379 -0.00301545 0)
(0.183691 -0.000441686 0)
(0.18223 0.00182999 0)
(0.179173 0.0055269 0)
(0.172578 0.00734817 0)
(0.16536 0.0102644 0)
(0.15408 0.0118597 0)
(0.141902 0.0160676 0)
(0.123394 0.0209981 0)
(0.0986632 0.0268914 0)
(0.0686013 0.033413 0)
(0.0180951 0.0436513 0)
(0.00894677 -0.035831 0)
(0.0342235 -0.0382647 0)
(0.0561734 -0.0350204 0)
(0.0778061 -0.0316854 0)
(0.0962621 -0.0300403 0)
(0.115387 -0.0320657 0)
(0.133943 -0.0266573 0)
(0.146517 -0.0217768 0)
(0.162181 -0.0205499 0)
(0.171382 -0.0136976 0)
(0.178408 -0.00964885 0)
(0.18339 -0.00610237 0)
(0.184757 -0.00151874 0)
(0.182582 0.00317247 0)
(0.178788 0.00870844 0)
(0.172467 0.0139297 0)
(0.165285 0.0184057 0)
(0.154026 0.0241963 0)
(0.140064 0.029731 0)
(0.122145 0.0419462 0)
(0.0961817 0.0508046 0)
(0.068046 0.0714239 0)
(0.0128558 0.0738506 0)
(0.00928109 -0.0461918 0)
(0.0346024 -0.0496867 0)
(0.0564602 -0.0455427 0)
(0.0787568 -0.0414412 0)
(0.097812 -0.0392091 0)
(0.117416 -0.0410591 0)
(0.134617 -0.0339615 0)
(0.147895 -0.0284646 0)
(0.164379 -0.0258163 0)
(0.172732 -0.0168272 0)
(0.181096 -0.011022 0)
(0.186166 -0.00599487 0)
(0.188324 -3.03002e-05 0)
(0.186291 0.00467644 0)
(0.183636 0.010333 0)
(0.176516 0.0137325 0)
(0.170634 0.0190169 0)
(0.160499 0.0238135 0)
(0.149747 0.0312027 0)
(0.132882 0.0418213 0)
(0.110555 0.0526179 0)
(0.0834591 0.0729587 0)
(0.0260698 0.0821609 0)
(0.0106247 -0.0565368 0)
(0.0346993 -0.0605292 0)
(0.0567682 -0.0558543 0)
(0.0796719 -0.0511929 0)
(0.0996919 -0.048276 0)
(0.120038 -0.0494266 0)
(0.136481 -0.0410314 0)
(0.151179 -0.0358158 0)
(0.168207 -0.0322783 0)
(0.175757 -0.0215991 0)
(0.184293 -0.0160179 0)
(0.189593 -0.00954909 0)
(0.189891 -0.00161259 0)
(0.187142 0.00534862 0)
(0.183068 0.0133032 0)
(0.176062 0.0200721 0)
(0.170017 0.025927 0)
(0.160688 0.034043 0)
(0.148794 0.0426921 0)
(0.133758 0.0604066 0)
(0.109203 0.0739675 0)
(0.0855183 0.111231 0)
(0.0232293 0.125282 0)
(0.0123197 -0.0676525 0)
(0.0352092 -0.0715337 0)
(0.0572026 -0.0668385 0)
(0.0806867 -0.0617698 0)
(0.101841 -0.0583279 0)
(0.122543 -0.0584872 0)
(0.138218 -0.048719 0)
(0.154205 -0.0434886 0)
(0.170852 -0.0374468 0)
(0.177947 -0.0244242 0)
(0.188583 -0.0175321 0)
(0.19345 -0.00860121 0)
(0.195885 0.00117686 0)
(0.193284 0.00794633 0)
(0.190853 0.015601 0)
(0.181624 0.0199015 0)
(0.176545 0.0263284 0)
(0.168007 0.0338747 0)
(0.16065 0.0440132 0)
(0.147743 0.0605969 0)
(0.130028 0.0756007 0)
(0.108772 0.113676 0)
(0.0413142 0.133853 0)
(0.0134047 -0.0789509 0)
(0.0359549 -0.0816904 0)
(0.0580073 -0.0772977 0)
(0.0817478 -0.0722361 0)
(0.104495 -0.0680063 0)
(0.12546 -0.0665628 0)
(0.141725 -0.0559476 0)
(0.159476 -0.0511963 0)
(0.175026 -0.0434811 0)
(0.182596 -0.0299864 0)
(0.19478 -0.0233775 0)
(0.197367 -0.0130573 0)
(0.199476 -0.00158423 0)
(0.194844 0.00766121 0)
(0.190654 0.0187874 0)
(0.181024 0.0268398 0)
(0.176087 0.0323049 0)
(0.169273 0.0415387 0)
(0.161552 0.0521718 0)
(0.151256 0.0748509 0)
(0.131258 0.0921881 0)
(0.115342 0.153198 0)
(0.0457929 0.195967 0)
(-2.44716 0.0330065 0)
(-2.52523 -0.157412 0)
(-2.52713 -0.16232 0)
(-2.45904 -0.164965 0)
(-2.34047 -0.159865 0)
(-2.17451 -0.144332 0)
(-2.05616 -0.120912 0)
(-1.99677 -0.105296 0)
(-1.97585 -0.0870585 0)
(-1.98615 -0.0472643 0)
(-2.00883 -0.0256296 0)
(-2.01668 -0.0170384 0)
(-1.99936 -0.0144972 0)
(-1.92629 -0.0175344 0)
(-1.80463 -0.0200507 0)
(-1.70656 -0.0139332 0)
(-1.63793 -0.0448653 0)
(-1.41521 -0.147907 0)
(-0.671704 -0.232171 0)
(-1.6175 1.95589 0)
(-1.70576 0.181814 0)
(-1.30482 0.092626 0)
(-0.49596 0.0638549 0)
(0.0214872 0.0222797 0)
(0.165781 0.021137 0)
(-0.502394 0.0425163 0)
(-1.30702 0.0700498 0)
(-1.81344 0.0845188 0)
(-1.92056 0.061214 0)
(-1.91688 0.038717 0)
(-1.85019 0.0130248 0)
(-1.74039 -0.0239016 0)
(-1.6069 -0.0653679 0)
(-1.519 -0.0737472 0)
(-1.50271 -0.0581593 0)
(-1.51954 -0.0791903 0)
(-1.18229 -0.261466 0)
(-0.605456 -0.658763 0)
(-0.189141 1.68405 0)
(0.740692 -0.218084 0)
(-0.0362795 -0.573472 0)
(0.550689 -0.637756 0)
(1.13729 -0.400052 0)
(2.13365 0.118876 0)
(1.52363 0.53133 0)
(-1.03488 0.46138 0)
(-1.85036 0.176976 0)
(-2.05279 -0.00347247 0)
(-2.00343 -0.0565472 0)
(-1.89111 -0.0926182 0)
(-1.94616 -0.116023 0)
(-2.26093 -0.112493 0)
(-2.30235 -0.0605718 0)
(-2.11853 -0.015157 0)
(-1.77939 -0.180255 0)
(-0.996594 -0.538311 0)
(-0.280617 -0.991869 0)
(0.773197 1.53234 0)
(1.01991 0.117858 0)
(0.411932 0.0108483 0)
(0.693656 -0.471997 0)
(0.603343 -0.732159 0)
(1.58081 -0.137945 0)
(2.57219 1.36788 0)
(1.57668 1.42876 0)
(-1.18119 0.538323 0)
(-1.5348 0.126378 0)
(-2.24007 -0.0216421 0)
(-2.75794 -0.000243215 0)
(-2.99615 0.132251 0)
(-3.04616 0.105214 0)
(-2.94284 -0.135451 0)
(-2.42548 -0.284076 0)
(-1.55111 -0.562524 0)
(-0.808736 -0.895343 0)
(-0.0865442 -1.20476 0)
(0.796574 1.01252 0)
(0.821198 0.0437135 0)
(0.237464 -0.34197 0)
(0.577279 -0.629564 0)
(0.468456 -0.735251 0)
(0.453933 -0.672598 0)
(1.79337 0.546709 0)
(4.50337 2.14858 0)
(0.880342 1.54101 0)
(-0.851347 0.447621 0)
(-1.57405 0.453366 0)
(-1.96624 0.234535 0)
(-2.0293 0.0159317 0)
(-1.78222 -0.124515 0)
(-1.65931 -0.322632 0)
(-1.61416 -0.577483 0)
(-1.28572 -0.840696 0)
(-0.71081 -1.17242 0)
(0.0184712 -1.37515 0)
(0.626898 0.76381 0)
(0.718313 0.323304 0)
(0.671706 0.00784731 0)
(0.588387 -0.589319 0)
(0.458246 -0.699395 0)
(0.425284 -0.692729 0)
(0.492464 -0.312407 0)
(2.9282 1.69574 0)
(3.12927 2.84237 0)
(0.247539 1.17222 0)
(-0.647281 0.47696 0)
(-1.00562 0.218184 0)
(-0.978208 0.05392 0)
(-0.700964 -0.0317923 0)
(-0.506566 -0.203396 0)
(-0.556471 -0.447238 0)
(-0.845044 -0.939611 0)
(-0.579609 -1.44326 0)
(0.0857652 -1.50437 0)
(0.590574 0.506962 0)
(0.516998 0.114818 0)
(0.756619 -0.207876 0)
(0.563327 -0.516813 0)
(0.460526 -0.666539 0)
(0.414384 -0.684321 0)
(0.423097 -0.527324 0)
(1.13972 0.933789 0)
(3.3533 2.85601 0)
(1.40635 2.00263 0)
(-0.0716832 0.986768 0)
(-0.744397 0.392034 0)
(-0.612718 -0.107082 0)
(-0.487145 -0.308088 0)
(-0.103612 -0.378881 0)
(-0.0329261 -0.408503 0)
(-0.157226 -0.826476 0)
(-0.43508 -1.55616 0)
(0.120231 -1.59219 0)
(0.436736 0.226183 0)
(0.602976 0.238174 0)
(0.654519 -0.0858706 0)
(0.547046 -0.460311 0)
(0.458387 -0.636358 0)
(0.40113 -0.676986 0)
(0.413381 -0.608615 0)
(0.645543 0.422139 0)
(2.87129 2.7546 0)
(1.80847 2.61574 0)
(0.432553 1.41396 0)
(-0.477762 0.464256 0)
(-0.166109 -0.054628 0)
(-0.228852 -0.234365 0)
(0.0670402 -0.390587 0)
(0.00320987 -0.423991 0)
(0.425592 -0.749556 0)
(-0.27443 -1.55026 0)
(0.132258 -1.64697 0)
(0.0147998 -0.0978609 0)
(0.0373182 -0.0988723 0)
(0.0600899 -0.094889 0)
(0.0847723 -0.0903292 0)
(0.109416 -0.0852851 0)
(0.130223 -0.0815587 0)
(0.146773 -0.0698885 0)
(0.166026 -0.0638279 0)
(0.179188 -0.0511713 0)
(0.189158 -0.0358723 0)
(0.204095 -0.0250745 0)
(0.205954 -0.00946116 0)
(0.212206 0.00471405 0)
(0.207401 0.0147321 0)
(0.206554 0.0240618 0)
(0.192459 0.0267468 0)
(0.18958 0.0317111 0)
(0.180589 0.0403349 0)
(0.189925 0.0528608 0)
(0.183861 0.074989 0)
(0.214717 0.0930522 0)
(0.212647 0.154403 0)
(0.290176 0.218022 0)
(0.0176013 -0.124531 0)
(0.0371127 -0.121021 0)
(0.0606923 -0.118667 0)
(0.0862158 -0.115301 0)
(0.112588 -0.107477 0)
(0.133182 -0.0987072 0)
(0.153114 -0.0869425 0)
(0.175379 -0.0792663 0)
(0.189528 -0.0640411 0)
(0.204432 -0.0530112 0)
(0.218243 -0.0397802 0)
(0.218485 -0.0226585 0)
(0.226054 -0.0054094 0)
(0.216038 0.010678 0)
(0.207009 0.0318918 0)
(0.187362 0.0439968 0)
(0.18423 0.0443623 0)
(0.181967 0.0416537 0)
(0.183189 0.0484821 0)
(0.179791 0.0499929 0)
(0.206638 0.0626342 0)
(0.216311 0.077441 0)
(0.298679 0.121325 0)
(0.00973626 -0.152349 0)
(0.00679634 -0.141682 0)
(0.0211198 -0.143742 0)
(0.0176998 -0.141929 0)
(0.0302136 -0.131988 0)
(0.0138718 -0.121615 0)
(0.021031 -0.111774 0)
(-0.0185369 -0.099447 0)
(-0.0219726 -0.0797839 0)
(-0.0818155 -0.06312 0)
(-0.037868 -0.0389637 0)
(0.0850742 -0.01736 0)
(0.160653 0.00720391 0)
(0.177327 0.0338543 0)
(0.194588 0.0527855 0)
(0.194892 0.0495421 0)
(0.214667 0.0371452 0)
(0.218755 0.041389 0)
(0.205367 0.0551874 0)
(0.205077 0.0513236 0)
(0.222372 0.0564569 0)
(0.23977 0.0617353 0)
(0.294628 0.0934143 0)
(0.00120833 -0.142283 0)
(-0.00222227 -0.133684 0)
(0.00741369 -0.130656 0)
(-0.00131534 -0.125988 0)
(0.00878112 -0.104414 0)
(0.00105898 -0.0917219 0)
(0.0158009 -0.05455 0)
(0.00223152 -0.0400599 0)
(0.0220086 0.00103469 0)
(-0.00047725 -0.0451067 0)
(0.031686 -0.20369 0)
(-0.0257342 -0.221271 0)
(0.0130094 -0.0974536 0)
(-0.192876 -0.0230958 0)
(-0.02133 0.0146315 0)
(0.0276343 0.0240577 0)
(0.0895059 0.020378 0)
(0.127325 0.0510067 0)
(0.152832 0.0622012 0)
(0.188425 0.0329009 0)
(0.237655 0.0277955 0)
(0.252367 0.00493307 0)
(0.289093 0.00895686 0)
(-0.000939757 -0.149606 0)
(-0.00843232 -0.146212 0)
(-0.00411615 -0.142908 0)
(-0.0150664 -0.141431 0)
(-0.00938203 -0.13262 0)
(-0.012538 -0.126483 0)
(-0.00117269 -0.111226 0)
(0.0145949 -0.102777 0)
(0.0367161 -0.0756272 0)
(0.084251 -0.0685367 0)
(0.0721021 -0.0138399 0)
(-0.00501142 -0.00234018 0)
(-0.0265746 0.172013 0)
(-0.0382866 0.069702 0)
(-0.00266108 -0.169642 0)
(0.0130295 -0.0626029 0)
(-0.0836464 -0.0629823 0)
(-0.0940122 -0.0224027 0)
(0.0229842 -0.00605988 0)
(0.069982 -0.0340383 0)
(0.142913 -0.00773449 0)
(0.179422 0.00998084 0)
(0.244416 0.0197563 0)
(0.00126725 -0.134083 0)
(-0.00637909 -0.131787 0)
(-0.00176671 -0.125132 0)
(-0.0114166 -0.122173 0)
(-0.00707427 -0.107947 0)
(-0.0177585 -0.101773 0)
(-0.0116789 -0.0825221 0)
(-0.0239989 -0.0803578 0)
(-0.0134106 -0.0693253 0)
(-0.0231977 -0.0824057 0)
(-0.00780696 -0.114836 0)
(0.00551552 -0.11641 0)
(0.0382184 -0.0634604 0)
(0.180131 -0.0459149 0)
(0.139237 -0.0359838 0)
(0.0994711 0.105639 0)
(0.118407 0.128414 0)
(0.0715498 -0.0537004 0)
(0.100579 -0.102861 0)
(-0.00209056 -0.087072 0)
(-0.0476554 -0.0822247 0)
(-0.0962381 -0.097228 0)
(0.0561511 -0.123023 0)
(0.00172041 -0.143133 0)
(-0.00335302 -0.14181 0)
(0.000724728 -0.13654 0)
(-0.00236875 -0.134681 0)
(0.0027891 -0.125026 0)
(0.00487588 -0.120336 0)
(0.0130329 -0.103947 0)
(0.0228532 -0.0994105 0)
(0.0310809 -0.0759101 0)
(0.0447872 -0.0728607 0)
(0.039638 -0.0431663 0)
(0.0233911 -0.0497235 0)
(0.0178987 -0.00519001 0)
(0.0371201 -0.031696 0)
(0.0384909 -0.0889204 0)
(0.0602939 -0.0432748 0)
(0.170512 -0.0343001 0)
(0.213888 -0.00822092 0)
(0.18861 0.0668996 0)
(0.196031 0.112657 0)
(0.18741 0.0867598 0)
(0.166556 -0.0925021 0)
(0.100436 -0.240005 0)
(0.00253498 -0.133304 0)
(-0.00157557 -0.131687 0)
(0.00368452 -0.126919 0)
(0.000818793 -0.125196 0)
(0.00617169 -0.115897 0)
(0.00362987 -0.113053 0)
(0.0109426 -0.101046 0)
(0.0104802 -0.0993658 0)
(0.0188556 -0.0915734 0)
(0.023684 -0.0911293 0)
(0.0303557 -0.0934039 0)
(0.0436484 -0.0926615 0)
(0.0458534 -0.0770059 0)
(0.0866704 -0.06522 0)
(0.0664333 -0.0589682 0)
(0.0603195 -0.0250659 0)
(0.0704095 -0.0263314 0)
(0.0702934 -0.0670151 0)
(0.0922806 -0.0834972 0)
(0.152991 -0.0834729 0)
(0.219693 -0.0513371 0)
(0.278661 -0.0112486 0)
(0.220345 0.036254 0)
(0.00217124 -0.143112 0)
(0.00376766 -0.141952 0)
(0.00903892 -0.13802 0)
(0.0116942 -0.13615 0)
(0.017288 -0.127053 0)
(0.0222012 -0.124102 0)
(0.0284466 -0.110275 0)
(0.0368837 -0.106404 0)
(0.0412821 -0.0890393 0)
(0.0505227 -0.0837875 0)
(0.0503203 -0.0636354 0)
(0.0495488 -0.065403 0)
(0.0455445 -0.0491993 0)
(0.0493553 -0.0526565 0)
(0.0506669 -0.06281 0)
(0.0532966 -0.0485174 0)
(0.0783865 -0.0445916 0)
(0.0755363 -0.0325868 0)
(0.068722 -0.0169832 0)
(0.0476363 -0.0170505 0)
(0.0446987 -0.0403602 0)
(0.0420145 -0.0924769 0)
(0.0770083 -0.108914 0)
(0.00288998 -0.13983 0)
(0.00445992 -0.139164 0)
(0.0107802 -0.13539 0)
(0.0122288 -0.13405 0)
(0.0188743 -0.126857 0)
(0.0210021 -0.124765 0)
(0.0280444 -0.116036 0)
(0.0327527 -0.112582 0)
(0.0392522 -0.105297 0)
(0.0481318 -0.10007 0)
(0.0545211 -0.0922562 0)
(0.0676233 -0.0870037 0)
(0.0683842 -0.0765008 0)
(0.0840461 -0.0692709 0)
(0.0776498 -0.0626131 0)
(0.0775948 -0.0513467 0)
(0.0772357 -0.0483837 0)
(0.0742925 -0.0549963 0)
(0.0749423 -0.0547102 0)
(0.0773411 -0.057709 0)
(0.0744058 -0.0445728 0)
(0.0544423 -0.043204 0)
(0.009647 -0.030575 0)
(0.00370561 -0.149795 0)
(0.00813792 -0.149154 0)
(0.0155804 -0.145187 0)
(0.0207149 -0.143555 0)
(0.0281059 -0.135349 0)
(0.0345529 -0.132619 0)
(0.0413709 -0.121767 0)
(0.0495925 -0.117056 0)
(0.0546266 -0.104455 0)
(0.0631847 -0.0987449 0)
(0.0671364 -0.0834694 0)
(0.0743769 -0.0792904 0)
(0.0769616 -0.0661011 0)
(0.0826262 -0.0622243 0)
(0.0849332 -0.0565989 0)
(0.085224 -0.0488528 0)
(0.0903148 -0.0415064 0)
(0.0813116 -0.0314392 0)
(0.0738913 -0.0203819 0)
(0.0521042 -0.0176127 0)
(0.0355467 -0.017838 0)
(0.0092151 -0.0284507 0)
(-0.0110653 -0.0321098 0)
(0.0040674 -0.152056 0)
(0.00859481 -0.15143 0)
(0.0167831 -0.14831 0)
(0.0215659 -0.146943 0)
(0.0298814 -0.140962 0)
(0.0356453 -0.13833 0)
(0.0436225 -0.131212 0)
(0.0511045 -0.125994 0)
(0.05817 -0.118865 0)
(0.0675785 -0.112465 0)
(0.073972 -0.103284 0)
(0.0859926 -0.0963604 0)
(0.0899029 -0.0844902 0)
(0.101812 -0.0765075 0)
(0.101435 -0.0649012 0)
(0.10612 -0.0556922 0)
(0.10337 -0.0440819 0)
(0.101605 -0.0371683 0)
(0.0956177 -0.0247548 0)
(0.0892787 -0.0179302 0)
(0.0726243 -0.000327308 0)
(0.0492634 0.00488769 0)
(0.00731042 0.0193426 0)
(0.00478449 -0.162025 0)
(0.0119824 -0.161423 0)
(0.0216593 -0.157778 0)
(0.0291619 -0.156215 0)
(0.0386033 -0.149151 0)
(0.0466462 -0.145961 0)
(0.0550794 -0.137103 0)
(0.0638005 -0.131289 0)
(0.0707598 -0.120974 0)
(0.0790533 -0.11439 0)
(0.0843275 -0.102072 0)
(0.0914549 -0.0952643 0)
(0.0949743 -0.0821644 0)
(0.100831 -0.0739946 0)
(0.1026 -0.0610629 0)
(0.104137 -0.051244 0)
(0.103533 -0.0370835 0)
(0.0976388 -0.0243427 0)
(0.0911572 -0.00816702 0)
(0.0752177 0.00456765 0)
(0.0595354 0.0219242 0)
(0.0322594 0.035778 0)
(0.00130184 0.0557788 0)
(0.00518137 -0.169062 0)
(0.0125608 -0.168552 0)
(0.0230543 -0.165698 0)
(0.0306566 -0.164106 0)
(0.0410531 -0.158589 0)
(0.0493889 -0.15496 0)
(0.0590777 -0.148405 0)
(0.0685415 -0.141722 0)
(0.0773258 -0.134039 0)
(0.0877897 -0.125916 0)
(0.0949637 -0.115514 0)
(0.10598 -0.106694 0)
(0.110388 -0.0936273 0)
(0.120457 -0.0836302 0)
(0.121619 -0.0679131 0)
(0.128253 -0.0559027 0)
(0.125451 -0.0371825 0)
(0.126607 -0.0238348 0)
(0.1189 -0.00163463 0)
(0.112899 0.0148876 0)
(0.0957522 0.0440127 0)
(0.0785637 0.0646915 0)
(0.0461696 0.0994971 0)
(0.00574349 -0.179507 0)
(0.0152768 -0.179031 0)
(0.0267836 -0.175653 0)
(0.0361091 -0.173962 0)
(0.0472266 -0.167737 0)
(0.0568044 -0.163771 0)
(0.0669902 -0.156208 0)
(0.0768578 -0.149391 0)
(0.085988 -0.140266 0)
(0.0957418 -0.131985 0)
(0.103428 -0.12036 0)
(0.112776 -0.11077 0)
(0.118471 -0.0967353 0)
(0.12658 -0.0854392 0)
(0.129388 -0.0688942 0)
(0.134704 -0.0554284 0)
(0.134223 -0.0354191 0)
(0.134432 -0.0182996 0)
(0.129063 0.00552918 0)
(0.121271 0.0269765 0)
(0.108707 0.056032 0)
(0.0917043 0.0842393 0)
(0.0679026 0.121214 0)
(0.00637281 -0.190232 0)
(0.0165093 -0.189752 0)
(0.0292794 -0.186648 0)
(0.0394022 -0.184682 0)
(0.0518151 -0.17935 0)
(0.0624589 -0.174802 0)
(0.0741568 -0.16845 0)
(0.0854386 -0.160724 0)
(0.0962164 -0.152831 0)
(0.107992 -0.143265 0)
(0.117161 -0.132383 0)
(0.129129 -0.121536 0)
(0.136115 -0.107203 0)
(0.147726 -0.0942237 0)
(0.151557 -0.0757475 0)
(0.161692 -0.0602658 0)
(0.161209 -0.0365155 0)
(0.168282 -0.0180079 0)
(0.162715 0.0121926 0)
(0.163992 0.0361975 0)
(0.151137 0.0748145 0)
(0.143287 0.106852 0)
(0.120132 0.154887 0)
(0.00690425 -0.202254 0)
(0.0183385 -0.201806 0)
(0.0321183 -0.198437 0)
(0.0434245 -0.196376 0)
(0.0566694 -0.190737 0)
(0.0681819 -0.186022 0)
(0.0806685 -0.179191 0)
(0.092328 -0.171415 0)
(0.103989 -0.162869 0)
(0.115715 -0.152973 0)
(0.126259 -0.141553 0)
(0.13798 -0.129867 0)
(0.146744 -0.115354 0)
(0.157991 -0.101135 0)
(0.164065 -0.0828156 0)
(0.174436 -0.0654506 0)
(0.176817 -0.0419083 0)
(0.185207 -0.0203205 0)
(0.182859 0.00989165 0)
(0.187627 0.0378111 0)
(0.179905 0.0766402 0)
(0.179619 0.114181 0)
(0.165091 0.164742 0)
(0.00754675 -0.215571 0)
(0.0202963 -0.215075 0)
(0.0354013 -0.211804 0)
(0.0480111 -0.20932 0)
(0.0625956 -0.204139 0)
(0.0755122 -0.198846 0)
(0.0895124 -0.192573 0)
(0.102717 -0.184039 0)
(0.11594 -0.176133 0)
(0.129499 -0.165478 0)
(0.14161 -0.1545 0)
(0.155665 -0.141907 0)
(0.16624 -0.127002 0)
(0.180399 -0.111375 0)
(0.188496 -0.091906 0)
(0.20271 -0.0727777 0)
(0.206935 -0.0468897 0)
(0.220694 -0.0236826 0)
(0.220023 0.0103865 0)
(0.232027 0.0397456 0)
(0.226073 0.0838204 0)
(0.234594 0.122557 0)
(0.223196 0.177757 0)
(0.00787795 -0.230063 0)
(0.021311 -0.229635 0)
(0.0370813 -0.226133 0)
(0.0505767 -0.223553 0)
(0.0659628 -0.218252 0)
(0.0798525 -0.212944 0)
(0.0949323 -0.206449 0)
(0.109 -0.197888 0)
(0.123757 -0.189723 0)
(0.138055 -0.178752 0)
(0.152005 -0.167779 0)
(0.166618 -0.154695 0)
(0.179333 -0.140095 0)
(0.194029 -0.123696 0)
(0.204978 -0.105048 0)
(0.219981 -0.0843227 0)
(0.227996 -0.059725 0)
(0.24343 -0.0339997 0)
(0.247256 -0.00124877 0)
(0.26296 0.0309568 0)
(0.262409 0.0741872 0)
(0.277723 0.116006 0)
(0.27361 0.171124 0)
(0.00845618 -0.24482 0)
(0.0225922 -0.244355 0)
(0.0393765 -0.241111 0)
(0.0539694 -0.238261 0)
(0.0704801 -0.23343 0)
(0.0857162 -0.227848 0)
(0.102175 -0.221701 0)
(0.117832 -0.212863 0)
(0.134305 -0.205126 0)
(0.150541 -0.193696 0)
(0.166585 -0.182953 0)
(0.18372 -0.169183 0)
(0.198955 -0.154243 0)
(0.216719 -0.13696 0)
(0.230653 -0.117604 0)
(0.249069 -0.0957428 0)
(0.260473 -0.069957 0)
(0.279851 -0.0428782 0)
(0.28755 -0.00856414 0)
(0.308239 0.0247384 0)
(0.312056 0.0699019 0)
(0.33362 0.11163 0)
(0.335582 0.168337 0)
(0.00857943 -0.26116 0)
(0.0226571 -0.260616 0)
(0.0394546 -0.25757 0)
(0.0544215 -0.254725 0)
(0.0712217 -0.250083 0)
(0.0870094 -0.244727 0)
(0.104309 -0.238675 0)
(0.120901 -0.230139 0)
(0.138926 -0.222554 0)
(0.156268 -0.2112 0)
(0.174517 -0.201066 0)
(0.192963 -0.187309 0)
(0.210955 -0.173154 0)
(0.230402 -0.155732 0)
(0.247901 -0.137371 0)
(0.268265 -0.114606 0)
(0.284178 -0.0903639 0)
(0.305693 -0.0617109 0)
(0.31865 -0.0293973 0)
(0.342106 0.00560657 0)
(0.351433 0.049065 0)
(0.376999 0.0914404 0)
(0.384801 0.147004 0)
(0.00869037 -0.276072 0)
(0.0223274 -0.275259 0)
(0.0391568 -0.27288 0)
(0.0542369 -0.270053 0)
(0.0712596 -0.266011 0)
(0.0876479 -0.260947 0)
(0.105715 -0.255573 0)
(0.123594 -0.247479 0)
(0.143195 -0.240455 0)
(0.162575 -0.229275 0)
(0.183224 -0.219584 0)
(0.204262 -0.20561 0)
(0.225334 -0.191578 0)
(0.248074 -0.173913 0)
(0.269383 -0.1553 0)
(0.293655 -0.132075 0)
(0.314423 -0.107098 0)
(0.340362 -0.0774764 0)
(0.359473 -0.0445026 0)
(0.387754 -0.00822618 0)
(0.403595 0.0356952 0)
(0.434481 0.0780787 0)
(0.448517 0.134438 0)
(0.00825309 -0.292303 0)
(0.0212064 -0.29122 0)
(0.0372398 -0.289613 0)
(0.0516533 -0.286979 0)
(0.0679835 -0.283649 0)
(0.0839129 -0.279357 0)
(0.101636 -0.274804 0)
(0.119364 -0.267826 0)
(0.139287 -0.261739 0)
(0.159062 -0.251477 0)
(0.181067 -0.242959 0)
(0.203281 -0.229724 0)
(0.227013 -0.217142 0)
(0.25205 -0.20016 0)
(0.277495 -0.183061 0)
(0.305117 -0.160129 0)
(0.331556 -0.137072 0)
(0.361888 -0.107399 0)
(0.387719 -0.0766537 0)
(0.420494 -0.0393539 0)
(0.443159 0.00259496 0)
(0.478862 0.0455149 0)
(0.498404 0.101726 0)
(0.00741863 -0.305467 0)
(0.0196345 -0.304194 0)
(0.0343964 -0.303257 0)
(0.0478382 -0.300745 0)
(0.0632146 -0.298197 0)
(0.0784507 -0.294549 0)
(0.0955176 -0.290952 0)
(0.113037 -0.285082 0)
(0.132875 -0.280088 0)
(0.153404 -0.271016 0)
(0.176724 -0.263743 0)
(0.20099 -0.251538 0)
(0.22764 -0.240293 0)
(0.256141 -0.224423 0)
(0.285986 -0.208297 0)
(0.318225 -0.186239 0)
(0.350618 -0.163734 0)
(0.386315 -0.133853 0)
(0.419578 -0.102833 0)
(0.458293 -0.0640289 0)
(0.489506 -0.0221991 0)
(0.532125 0.0223436 0)
(0.559665 0.0803086 0)
(0.00654794 -0.319557 0)
(0.0181547 -0.318413 0)
(0.0314797 -0.318026 0)
(0.04383 -0.316029 0)
(0.0579221 -0.314497 0)
(0.071895 -0.311923 0)
(0.0876053 -0.309661 0)
(0.103808 -0.305491 0)
(0.122332 -0.302415 0)
(0.141795 -0.295687 0)
(0.164504 -0.290889 0)
(0.188433 -0.281057 0)
(0.215863 -0.27265 0)
(0.24523 -0.258988 0)
(0.277398 -0.245484 0)
(0.312003 -0.225324 0)
(0.348729 -0.205431 0)
(0.388597 -0.177044 0)
(0.428818 -0.148761 0)
(0.473503 -0.110128 0)
(0.513905 -0.0711601 0)
(0.563799 -0.0256724 0)
(0.599708 0.0324431 0)
(0.00548924 -0.329997 0)
(0.0158482 -0.328969 0)
(0.0272013 -0.328754 0)
(0.0381065 -0.327028 0)
(0.0504866 -0.326079 0)
(0.0630163 -0.324068 0)
(0.0772123 -0.322679 0)
(0.0922851 -0.319646 0)
(0.109569 -0.317897 0)
(0.128296 -0.31304 0)
(0.150138 -0.310229 0)
(0.173896 -0.302787 0)
(0.201661 -0.296982 0)
(0.232159 -0.285909 0)
(0.266616 -0.275004 0)
(0.304549 -0.257614 0)
(0.346322 -0.240287 0)
(0.391883 -0.214132 0)
(0.439995 -0.187658 0)
(0.492087 -0.149533 0)
(0.543545 -0.112275 0)
(0.601884 -0.0641428 0)
(0.648673 -0.00481695 0)
(0.00485776 -0.341168 0)
(0.0143601 -0.340413 0)
(0.0244146 -0.340569 0)
(0.03431 -0.339623 0)
(0.0453477 -0.339723 0)
(0.0566552 -0.339001 0)
(0.0693983 -0.339296 0)
(0.0831346 -0.338265 0)
(0.0988281 -0.338858 0)
(0.116147 -0.336755 0)
(0.136365 -0.336994 0)
(0.158609 -0.333164 0)
(0.184828 -0.331488 0)
(0.213798 -0.324614 0)
(0.247322 -0.318499 0)
(0.284728 -0.305784 0)
(0.327248 -0.2934 0)
(0.374046 -0.27156 0)
(0.425785 -0.249521 0)
(0.482177 -0.214642 0)
(0.541937 -0.181288 0)
(0.60736 -0.131923 0)
(0.665661 -0.0739642 0)
(0.00395347 -0.348936 0)
(0.0118217 -0.348259 0)
(0.0200116 -0.348415 0)
(0.028267 -0.347686 0)
(0.0373817 -0.348122 0)
(0.0470041 -0.347826 0)
(0.0577753 -0.348836 0)
(0.0698261 -0.348762 0)
(0.0835152 -0.350566 0)
(0.0992232 -0.35025 0)
(0.117529 -0.35234 0)
(0.138451 -0.350934 0)
(0.163195 -0.351845 0)
(0.191231 -0.348127 0)
(0.224153 -0.345669 0)
(0.26163 -0.337367 0)
(0.304867 -0.329443 0)
(0.353425 -0.312664 0)
(0.408994 -0.295742 0)
(0.470315 -0.265957 0)
(0.538499 -0.237465 0)
(0.611536 -0.188523 0)
(0.684223 -0.134344 0)
(0.00353329 -0.357281 0)
(0.0107136 -0.356821 0)
(0.0179737 -0.357363 0)
(0.0254763 -0.357367 0)
(0.0335243 -0.358847 0)
(0.0423331 -0.359826 0)
(0.051959 -0.362575 0)
(0.063144 -0.36453 0)
(0.0755415 -0.368814 0)
(0.090213 -0.37142 0)
(0.106875 -0.376911 0)
(0.126394 -0.379626 0)
(0.149159 -0.385097 0)
(0.175367 -0.386519 0)
(0.206088 -0.389864 0)
(0.241508 -0.38758 0)
(0.28247 -0.386252 0)
(0.329187 -0.376871 0)
(0.383545 -0.367496 0)
(0.444353 -0.345394 0)
(0.514332 -0.323462 0)
(0.589775 -0.278939 0)
(0.672177 -0.233271 0)
(0.00270681 -0.362814 0)
(0.00836242 -0.362338 0)
(0.0139537 -0.3628 0)
(0.0199797 -0.362862 0)
(0.0262492 -0.364577 0)
(0.0334953 -0.365855 0)
(0.0411174 -0.369199 0)
(0.0505093 -0.371887 0)
(0.0605482 -0.377122 0)
(0.0731173 -0.381062 0)
(0.0870419 -0.387932 0)
(0.104104 -0.39263 0)
(0.123705 -0.400168 0)
(0.147179 -0.404422 0)
(0.174747 -0.411134 0)
(0.207588 -0.413136 0)
(0.2466 -0.416515 0)
(0.292713 -0.413258 0)
(0.34738 -0.410487 0)
(0.409992 -0.396569 0)
(0.483786 -0.382779 0)
(0.565059 -0.346693 0)
(0.659987 -0.314579 0)
(0.00244185 -0.368739 0)
(0.00764813 -0.368468 0)
(0.0126452 -0.36938 0)
(0.0182159 -0.37009 0)
(0.023772 -0.372807 0)
(0.030504 -0.375193 0)
(0.0372589 -0.380124 0)
(0.0460433 -0.38458 0)
(0.0549545 -0.392095 0)
(0.0667664 -0.398706 0)
(0.0791604 -0.408761 0)
(0.0952078 -0.417306 0)
(0.112775 -0.42927 0)
(0.134713 -0.438842 0)
(0.15958 -0.451642 0)
(0.189777 -0.460998 0)
(0.224851 -0.47299 0)
(0.266954 -0.479456 0)
(0.316364 -0.486559 0)
(0.374368 -0.483678 0)
(0.443595 -0.480286 0)
(0.522076 -0.456906 0)
(0.619765 -0.437406 0)
(0.00168571 -0.372467 0)
(0.00548689 -0.372107 0)
(0.0089993 -0.372919 0)
(0.0131625 -0.373536 0)
(0.0171155 -0.37638 0)
(0.0222256 -0.378838 0)
(0.0270732 -0.384181 0)
(0.0338148 -0.388993 0)
(0.0402345 -0.397176 0)
(0.049391 -0.404556 0)
(0.0583632 -0.415555 0)
(0.0709726 -0.425375 0)
(0.0838513 -0.438675 0)
(0.101369 -0.450175 0)
(0.120161 -0.465009 0)
(0.14493 -0.47718 0)
(0.172914 -0.492371 0)
(0.209038 -0.503468 0)
(0.251755 -0.516608 0)
(0.306279 -0.522718 0)
(0.373714 -0.529602 0)
(0.454983 -0.522389 0)
(0.560277 -0.522056 0)
(0.00150153 -0.376344 0)
(0.00491567 -0.376222 0)
(0.00802436 -0.3775 0)
(0.0117367 -0.378682 0)
(0.0152054 -0.382368 0)
(0.0197013 -0.385713 0)
(0.0238903 -0.392318 0)
(0.0297355 -0.39845 0)
(0.0351004 -0.408444 0)
(0.0429685 -0.417759 0)
(0.0501555 -0.431353 0)
(0.0609944 -0.44401 0)
(0.0709465 -0.460992 0)
(0.0859921 -0.476748 0)
(0.100245 -0.496928 0)
(0.121416 -0.515815 0)
(0.142967 -0.539284 0)
(0.1739 -0.560875 0)
(0.207653 -0.586448 0)
(0.253817 -0.608595 0)
(0.307483 -0.631872 0)
(0.376527 -0.646319 0)
(0.467068 -0.667351 0)
(0.000788314 -0.378391 0)
(0.00279115 -0.378139 0)
(0.00447464 -0.379233 0)
(0.00666972 -0.380196 0)
(0.00858171 -0.383784 0)
(0.0112132 -0.386928 0)
(0.0134949 -0.39355 0)
(0.016878 -0.399483 0)
(0.01972 -0.409582 0)
(0.0242415 -0.418708 0)
(0.0279275 -0.432531 0)
(0.0341189 -0.445014 0)
(0.0389776 -0.462328 0)
(0.0474894 -0.477997 0)
(0.0540919 -0.498727 0)
(0.0661447 -0.51803 0)
(0.0761906 -0.542755 0)
(0.094614 -0.565863 0)
(0.112198 -0.594099 0)
(0.143106 -0.620002 0)
(0.178064 -0.649957 0)
(0.236377 -0.679871 0)
(0.322284 -0.731479 0)
(0.000622148 -0.380395 0)
(0.00217482 -0.380386 0)
(0.00344639 -0.381866 0)
(0.00509779 -0.383312 0)
(0.00651966 -0.387465 0)
(0.00834045 -0.391251 0)
(0.00989852 -0.398662 0)
(0.0120159 -0.40547 0)
(0.0137358 -0.41668 0)
(0.0162995 -0.427013 0)
(0.0181832 -0.442372 0)
(0.0212575 -0.456458 0)
(0.0230994 -0.475863 0)
(0.0266038 -0.493732 0)
(0.0280348 -0.517543 0)
(0.0320751 -0.540398 0)
(0.0330962 -0.570288 0)
(0.0386027 -0.600127 0)
(0.0403958 -0.638169 0)
(0.0501397 -0.678519 0)
(0.0582002 -0.729043 0)
(0.0841963 -0.794898 0)
(0.138888 -0.898912 0)
(-2.27352e-05 -0.380636 0)
(0.000274417 -0.380411 0)
(0.000216782 -0.381582 0)
(0.000432097 -0.382672 0)
(0.000314018 -0.386377 0)
(0.000414672 -0.389606 0)
(6.1826e-05 -0.396434 0)
(-7.55984e-06 -0.402448 0)
(-0.000795327 -0.412859 0)
(-0.00119598 -0.422029 0)
(-0.00280888 -0.436178 0)
(-0.00401258 -0.448451 0)
(-0.00728476 -0.46595 0)
(-0.0103198 -0.480972 0)
(-0.0169664 -0.50194 0)
(-0.0236617 -0.52051 0)
(-0.0366439 -0.546374 0)
(-0.0501372 -0.569831 0)
(-0.0743211 -0.601981 0)
(-0.0999224 -0.633737 0)
(-0.139392 -0.679715 0)
(-0.171192 -0.75654 0)
(-0.17819 -0.88781 0)
(-0.000139524 -0.381169 0)
(-0.000114122 -0.381156 0)
(-0.000460532 -0.382574 0)
(-0.000659577 -0.383999 0)
(-0.00128049 -0.388081 0)
(-0.00180398 -0.391713 0)
(-0.00286916 -0.399027 0)
(-0.0039054 -0.405532 0)
(-0.0057919 -0.416509 0)
(-0.00783856 -0.42622 0)
(-0.0113029 -0.44089 0)
(-0.0154487 -0.453626 0)
(-0.0220213 -0.471307 0)
(-0.0303451 -0.486271 0)
(-0.0430479 -0.506461 0)
(-0.0593162 -0.523677 0)
(-0.0844427 -0.546637 0)
(-0.116768 -0.56627 0)
(-0.167432 -0.591784 0)
(-0.235117 -0.618073 0)
(-0.335739 -0.661724 0)
(-0.450467 -0.761226 0)
(-0.588164 -0.8698 0)
(-0.000570975 -0.379757 0)
(-0.00150792 -0.379455 0)
(-0.0029503 -0.380367 0)
(-0.00430324 -0.381144 0)
(-0.00624692 -0.384453 0)
(-0.00819073 -0.387162 0)
(-0.0108896 -0.393358 0)
(-0.0137629 -0.39843 0)
(-0.0177574 -0.407654 0)
(-0.0222576 -0.415066 0)
(-0.0285216 -0.426872 0)
(-0.03597 -0.435768 0)
(-0.0464389 -0.448764 0)
(-0.0595046 -0.457251 0)
(-0.0783481 -0.469896 0)
(-0.102088 -0.475431 0)
(-0.138977 -0.484871 0)
(-0.18687 -0.481872 0)
(-0.264362 -0.478329 0)
(-0.374482 -0.458986 0)
(-0.547965 -0.457435 0)
(-0.759597 -0.497044 0)
(-0.99789 -0.532575 0)
(-0.000620877 -0.379701 0)
(-0.00156097 -0.379401 0)
(-0.00296541 -0.380433 0)
(-0.00423565 -0.381412 0)
(-0.00613428 -0.384969 0)
(-0.00810287 -0.387951 0)
(-0.0108746 -0.394441 0)
(-0.0140501 -0.399823 0)
(-0.0183406 -0.409314 0)
(-0.0236257 -0.417028 0)
(-0.0305722 -0.42891 0)
(-0.0395971 -0.437858 0)
(-0.0513829 -0.450088 0)
(-0.0672542 -0.457329 0)
(-0.0887556 -0.466895 0)
(-0.118071 -0.467057 0)
(-0.160964 -0.46554 0)