/*--------------------------------*- C++ -*----------------------------------*\
| =========                 |                                                 |
| \\      /  F ield         | OpenFOAM: The Open Source CFD Toolbox           |
|  \\    /   O peration     | Version:  2012                                  |
|   \\  /    A nd           | Website:  www.openfoam.com                      |
|    \\/     M anipulation  |                                                 |
\*---------------------------------------------------------------------------*/
FoamFile
{
    version     2.0;
    format      ascii;
    class       volVectorField;
    location    "1620";
    object      U;
}
// * * * * * * * * * * * * * * * * * * * * * * * * * * * * * * * * * * * * * //

dimensions      [0 1 -1 0 0 0 0];


internalField   nonuniform List<vector> 
20400
(
(3.52882e-06 -3.45317e-06 0)
(5.17868e-06 -1.16992e-06 0)
(-4.67305e-06 3.70716e-06 0)
(-2.50042e-05 6.36438e-06 0)
(-5.82716e-05 7.81271e-06 0)
(-9.85118e-05 7.15809e-06 0)
(-0.000144679 6.39755e-06 0)
(-0.000193536 5.47976e-06 0)
(-0.000243178 4.71083e-06 0)
(-0.000293954 4.21481e-06 0)
(-0.000343472 4.26811e-06 0)
(-0.000393387 4.19529e-06 0)
(-0.000442528 4.01954e-06 0)
(-0.000491476 3.62749e-06 0)
(-0.000540121 3.06293e-06 0)
(-0.000588578 2.27844e-06 0)
(-0.000636886 1.24907e-06 0)
(-0.00068508 3.40806e-08 0)
(-0.000733175 -1.32846e-06 0)
(-0.000781082 -2.5131e-06 0)
(-0.000828704 -3.7378e-06 0)
(-0.00087604 -4.95824e-06 0)
(-0.000923122 -6.09187e-06 0)
(-0.000969934 -7.06652e-06 0)
(-0.00101646 -7.80823e-06 0)
(-0.00106269 -8.251e-06 0)
(-0.00110861 -8.33394e-06 0)
(-0.00115422 -8.00721e-06 0)
(-0.00119953 -7.23188e-06 0)
(-0.00124458 -5.97387e-06 0)
(-0.00128938 -4.21893e-06 0)
(-0.00133391 -1.93532e-06 0)
(-0.00137807 9.85478e-07 0)
(-0.00142146 5.69912e-06 0)
(-0.00146395 9.08219e-06 0)
(-0.00150634 1.15182e-05 0)
(-0.00154967 1.52947e-05 0)
(-0.00159177 1.90063e-05 0)
(-0.00163375 2.24895e-05 0)
(-0.00167518 2.56214e-05 0)
(-0.00171622 2.82852e-05 0)
(-0.00175692 3.04061e-05 0)
(-0.0017973 3.19707e-05 0)
(-0.00183743 3.2985e-05 0)
(-0.00187733 3.35012e-05 0)
(-0.00191704 3.35833e-05 0)
(-0.00195655 3.32984e-05 0)
(-0.00199586 3.26998e-05 0)
(-0.00203497 3.18212e-05 0)
(-0.00207386 3.0671e-05 0)
(-0.00211255 2.92342e-05 0)
(-0.00215103 2.74707e-05 0)
(-0.00218933 2.5316e-05 0)
(-0.00222746 2.27026e-05 0)
(-0.0022655 1.95242e-05 0)
(-0.00230339 1.57655e-05 0)
(-0.00234127 1.13865e-05 0)
(-0.00237878 7.13796e-06 0)
(-0.00241585 8.27959e-07 0)
(-0.00245404 -5.51825e-06 0)
(-0.00249154 -1.12151e-05 0)
(-0.00252931 -1.61242e-05 0)
(-0.0025668 -1.98248e-05 0)
(-0.00260466 -2.24835e-05 0)
(-0.00264222 -2.41073e-05 0)
(-0.00267976 -2.4976e-05 0)
(-0.00271709 -2.51729e-05 0)
(-0.00275428 -2.48979e-05 0)
(-0.00279134 -2.42581e-05 0)
(-0.0028283 -2.33566e-05 0)
(-0.00286517 -2.22454e-05 0)
(-0.002902 -2.09815e-05 0)
(-0.00293877 -1.95783e-05 0)
(-0.00297551 -1.80697e-05 0)
(-0.00301221 -1.64495e-05 0)
(-0.0030489 -1.47423e-05 0)
(-0.00308555 -1.2933e-05 0)
(-0.00312219 -1.10486e-05 0)
(-0.00315878 -9.0689e-06 0)
(-0.00319539 -7.0238e-06 0)
(-0.00323194 -4.89933e-06 0)
(-0.00326858 -2.70868e-06 0)
(-0.00330509 -4.37705e-07 0)
(-0.00334158 1.89305e-06 0)
(-0.00337764 4.76677e-06 0)
(-0.00341319 7.10837e-06 0)
(-0.00344891 8.25749e-06 0)
(-0.00348515 9.18054e-06 0)
(-0.00352064 9.71419e-06 0)
(-0.0035563 9.51937e-06 0)
(-0.00359163 8.68187e-06 0)
(-0.00362677 7.46853e-06 0)
(-0.00366121 5.87796e-06 0)
(-0.00369529 2.02822e-06 0)
(-0.00372974 -1.23723e-06 0)
(-0.00376382 -5.08965e-06 0)
(-0.00379757 -9.06115e-06 0)
(-0.00383102 -1.35093e-05 0)
(-0.00386357 -1.78348e-05 0)
(-0.00389587 -2.27692e-05 0)
(-0.00392699 -2.72912e-05 0)
(-0.00395782 -3.26381e-05 0)
(-0.00398715 -3.67938e-05 0)
(-0.00401626 -4.17028e-05 0)
(-0.0040434 -4.45991e-05 0)
(-0.00407079 -4.79697e-05 0)
(-0.00409559 -4.7153e-05 0)
(-0.00412253 -4.73552e-05 0)
(-0.00414406 -3.98808e-05 0)
(-0.00417075 -3.23432e-05 0)
(-0.00418772 -1.54173e-05 0)
(-0.00420807 1.68402e-06 0)
(-0.00421496 2.78796e-05 0)
(-0.00423022 4.87106e-05 0)
(-0.00423411 7.31351e-05 0)
(-0.0042427 8.71583e-05 0)
(-0.00424093 0.000108826 0)
(-0.00424271 0.000117896 0)
(-0.00423561 0.000137644 0)
(-0.0042301 0.000144585 0)
(-0.00421644 0.000162587 0)
(-0.00420342 0.000168946 0)
(-0.0041818 0.000184838 0)
(-0.00416048 0.000190461 0)
(-0.00412958 0.0002027 0)
(-0.0040986 0.000205648 0)
(-0.00405618 0.000210578 0)
(-0.00401331 0.000204971 0)
(-0.00395529 0.000195802 0)
(-0.00389778 0.000167072 0)
(-0.00382153 0.000134008 0)
(-0.00375039 5.90276e-05 0)
(-0.00367199 2.33394e-06 0)
(-0.00359913 -9.76395e-05 0)
(-0.0035243 -0.000154792 0)
(-0.0034578 -0.000221543 0)
(-0.00337147 -0.000258241 0)
(-0.00328887 -0.000296276 0)
(-0.00319197 -0.000318648 0)
(-0.00309474 -0.000339235 0)
(-0.00298863 -0.000350904 0)
(-0.00288187 -0.000356839 0)
(-0.002771 -0.000353606 0)
(-0.00265862 -0.00033733 0)
(-0.00254741 -0.000300923 0)
(-0.00242892 -0.000244239 0)
(-0.00230384 -0.000147611 0)
(-0.00218271 -4.81254e-05 0)
(-0.0020272 8.81954e-05 0)
(-0.00187844 0.000168714 0)
(-0.00170703 0.000238161 0)
(-0.00154624 0.000261452 0)
(-0.00138079 0.000277545 0)
(-0.00121145 0.00027055 0)
(-0.00103216 0.000229834 0)
(-0.000823081 0.000159657 0)
(-0.000681815 1.04187e-05 0)
(-0.000592789 -2.47669e-05 0)
(-0.000432197 -6.49737e-05 0)
(-0.000303536 -6.76926e-05 0)
(-0.000132827 -7.59405e-05 0)
(5.80899e-08 -7.00368e-05 0)
(0.000166058 -6.48309e-05 0)
(0.000301532 -5.5464e-05 0)
(0.000463809 -5.00999e-05 0)
(0.000597019 -4.15598e-05 0)
(0.000751941 -3.83912e-05 0)
(0.000882498 -3.19946e-05 0)
(0.00102848 -3.08174e-05 0)
(0.00115568 -2.51456e-05 0)
(0.00129194 -2.5707e-05 0)
(0.00141456 -2.08781e-05 0)
(0.0015413 -2.1418e-05 0)
(0.00165746 -1.86508e-05 0)
(0.0017756 -1.76577e-05 0)
(0.00188439 -1.67924e-05 0)
(0.00199387 -1.47888e-05 0)
(0.0020942 -1.49938e-05 0)
(0.0021955 -1.26837e-05 0)
(0.00228691 -1.3477e-05 0)
(0.00238017 -1.09535e-05 0)
(0.00246261 -1.20696e-05 0)
(0.00254767 -9.65005e-06 0)
(0.00262146 -1.06415e-05 0)
(0.00269817 -8.67789e-06 0)
(0.002764 -9.25348e-06 0)
(0.00283195 -7.81274e-06 0)
(0.00289074 -8.08135e-06 0)
(0.00294952 -7.02733e-06 0)
(0.00300196 -6.82505e-06 0)
(0.00305231 -6.1471e-06 0)
(0.00309807 -5.85231e-06 0)
(0.00314097 -5.39076e-06 0)
(0.00318032 -4.96892e-06 0)
(0.00321644 -4.56496e-06 0)
(0.00324941 -4.16829e-06 0)
(0.00327937 -3.77896e-06 0)
(0.00330648 -3.35877e-06 0)
(0.00333072 -3.05526e-06 0)
(0.00335256 -2.64964e-06 0)
(0.00337147 -2.39719e-06 0)
(0.00338849 -2.00971e-06 0)
(0.0034026 -1.81776e-06 0)
(0.00341521 -1.44403e-06 0)
(0.00342502 -1.28922e-06 0)
(0.00343364 -8.32399e-07 0)
(0.00343971 -6.92756e-07 0)
(0.00344479 -2.34757e-07 0)
(0.00344761 -1.25891e-07 0)
(0.00344959 2.82168e-07 0)
(0.0034498 3.63568e-07 0)
(0.00344869 6.13578e-07 0)
(0.00344634 8.85564e-07 0)
(0.00344282 9.81268e-07 0)
(0.00343806 1.03258e-06 0)
(0.00343272 8.52931e-07 0)
(0.00342583 1.11133e-06 0)
(0.00341907 7.01856e-07 0)
(0.00341036 1.09416e-06 0)
(0.00340223 5.42686e-07 0)
(0.00339244 1.05175e-06 0)
(0.003383 4.41949e-07 0)
(0.00337254 9.36819e-07 0)
(0.00336192 4.74107e-07 0)
(0.00335115 7.65783e-07 0)
(0.0033395 4.6237e-07 0)
(0.00332849 7.19998e-07 0)
(0.00331615 4.82766e-07 0)
(0.00330495 6.68083e-07 0)
(0.00329225 4.96929e-07 0)
(0.00328096 6.09512e-07 0)
(0.00326811 4.77535e-07 0)
(0.00325676 5.52059e-07 0)
(0.00324397 4.46031e-07 0)
(0.00323263 4.88998e-07 0)
(0.00322008 4.13972e-07 0)
(0.00320878 4.24249e-07 0)
(0.00319667 3.70528e-07 0)
(0.00318541 3.6993e-07 0)
(0.00317396 3.09068e-07 0)
(0.00316278 3.40457e-07 0)
(0.00315189 2.41884e-07 0)
(0.00314104 2.98771e-07 0)
(0.00313066 1.91009e-07 0)
(0.00312026 2.89929e-07 0)
(0.00311041 1.66255e-07 0)
(0.00310051 3.08691e-07 0)
(0.00309123 1.76332e-07 0)
(0.00308187 3.6534e-07 0)
(0.00307321 2.40409e-07 0)
(0.00306443 4.76003e-07 0)
(0.00305641 3.63013e-07 0)
(0.00304822 6.27765e-07 0)
(0.00304085 4.94023e-07 0)
(0.00303327 7.53641e-07 0)
(0.00302655 5.59305e-07 0)
(0.00301958 7.92466e-07 0)
(0.00301353 5.50952e-07 0)
(0.0030072 7.62599e-07 0)
(0.00300182 4.9974e-07 0)
(0.00299613 7.09359e-07 0)
(0.00299144 4.4515e-07 0)
(0.0029864 6.51163e-07 0)
(0.00298238 3.83263e-07 0)
(0.00297797 5.62991e-07 0)
(0.0029746 3.13557e-07 0)
(0.00297081 4.62473e-07 0)
(0.00296806 2.39415e-07 0)
(0.00296488 3.59399e-07 0)
(0.00296273 1.48708e-07 0)
(0.00296016 2.52494e-07 0)
(0.00295858 4.39625e-08 0)
(0.0029566 1.45591e-07 0)
(0.00295555 -5.38768e-08 0)
(0.00295417 4.76157e-08 0)
(0.00295361 -1.41472e-07 0)
(0.00295284 -3.24286e-08 0)
(0.0029527 -2.48243e-07 0)
(0.00295245 -1.01377e-07 0)
(0.00295284 -3.04563e-07 0)
(0.0029531 -1.49368e-07 0)
(0.0029539 -3.73445e-07 0)
(0.00295462 -1.74903e-07 0)
(0.00295588 -4.4373e-07 0)
(0.00295705 -2.97813e-07 0)
(0.0029587 -4.8847e-07 0)
(0.00296032 -3.68812e-07 0)
(0.00296227 -4.24975e-07 0)
(0.00296439 -3.86393e-07 0)
(0.00296671 -4.01884e-07 0)
(0.00296919 -3.77512e-07 0)
(0.00297184 -3.97431e-07 0)
(0.00297465 -3.91564e-07 0)
(0.00297763 -4.06686e-07 0)
(0.00298075 -4.14333e-07 0)
(0.00298405 -4.28412e-07 0)
(0.00298742 -4.34891e-07 0)
(0.00299106 -4.04704e-07 0)
(0.00299457 -4.73547e-07 0)
(0.00299864 -3.70062e-07 0)
(0.00300224 -4.64614e-07 0)
(0.00300665 -3.7068e-07 0)
(0.00301038 -4.66328e-07 0)
(0.00301508 -3.78867e-07 0)
(0.00301895 -4.73699e-07 0)
(0.0030239 -3.92743e-07 0)
(0.00302792 -4.91729e-07 0)
(0.00303308 -4.14798e-07 0)
(0.00303724 -5.18829e-07 0)
(0.00304257 -4.50269e-07 0)
(0.00304686 -5.56754e-07 0)
(0.00305235 -5.17014e-07 0)
(0.00305676 -6.26688e-07 0)
(0.00306235 -6.02533e-07 0)
(0.00306685 -6.94521e-07 0)
(0.00307252 -6.5809e-07 0)
(0.00307711 -7.29626e-07 0)
(0.00308287 -6.76214e-07 0)
(0.00308754 -7.40474e-07 0)
(0.00309337 -6.75527e-07 0)
(0.00309812 -7.37987e-07 0)
(0.00310401 -6.72358e-07 0)
(0.00310881 -7.34185e-07 0)
(0.00311474 -6.7554e-07 0)
(0.0031196 -7.33468e-07 0)
(0.00312557 -6.84815e-07 0)
(0.00313047 -7.38825e-07 0)
(0.00313645 -7.08412e-07 0)
(0.00314138 -7.54002e-07 0)
(0.00314737 -7.36078e-07 0)
(0.0031523 -7.73602e-07 0)
(0.00315827 -7.58048e-07 0)
(0.00316322 -7.84427e-07 0)
(0.00316916 -7.68498e-07 0)
(0.0031741 -7.84612e-07 0)
(0.00317999 -7.70043e-07 0)
(0.00318493 -7.76906e-07 0)
(0.00319076 -7.6655e-07 0)
(0.00319571 -7.71699e-07 0)
(0.00320145 -7.58402e-07 0)
(0.0032064 -7.61547e-07 0)
(0.00321205 -7.49956e-07 0)
(0.003217 -7.49901e-07 0)
(0.00322255 -7.41049e-07 0)
(0.00322749 -7.3839e-07 0)
(0.00323294 -7.31177e-07 0)
(0.00323787 -7.26123e-07 0)
(0.0032432 -7.20623e-07 0)
(0.00324812 -7.13366e-07 0)
(0.00325334 -7.10012e-07 0)
(0.00325823 -7.00513e-07 0)
(0.00326333 -6.99115e-07 0)
(0.0032682 -6.87018e-07 0)
(0.00327318 -6.86173e-07 0)
(0.00327802 -6.80514e-07 0)
(0.00328288 -6.73188e-07 0)
(0.00328768 -6.6758e-07 0)
(0.00329245 -6.61203e-07 0)
(0.00329718 -6.55439e-07 0)
(0.00330187 -6.49136e-07 0)
(0.00330651 -6.43128e-07 0)
(0.00331112 -6.36881e-07 0)
(0.00331569 -6.30807e-07 0)
(0.00332022 -6.24709e-07 0)
(0.00332471 -6.18734e-07 0)
(0.00332915 -6.12784e-07 0)
(0.00333356 -6.06922e-07 0)
(0.00333792 -6.01078e-07 0)
(0.00334225 -5.95293e-07 0)
(0.00334653 -5.89516e-07 0)
(0.00335077 -5.83781e-07 0)
(0.00335497 -5.78052e-07 0)
(0.00335913 -5.72356e-07 0)
(0.00336325 -5.66676e-07 0)
(0.00336733 -5.61027e-07 0)
(0.00337137 -5.55403e-07 0)
(0.00337537 -5.49807e-07 0)
(0.00337932 -5.44237e-07 0)
(0.00338324 -5.38693e-07 0)
(0.00338711 -5.33175e-07 0)
(0.00339094 -5.27682e-07 0)
(0.00339474 -5.22215e-07 0)
(0.00339849 -5.16776e-07 0)
(0.0034022 -5.11364e-07 0)
(0.00340587 -5.05981e-07 0)
(0.00340951 -5.00627e-07 0)
(0.0034131 -4.95302e-07 0)
(0.00341665 -4.90007e-07 0)
(0.00342016 -4.84744e-07 0)
(0.00342364 -4.79513e-07 0)
(0.00342707 -4.74316e-07 0)
(0.00343047 -4.69157e-07 0)
(0.00343383 -4.64035e-07 0)
(0.00343714 -4.58954e-07 0)
(0.00344043 -4.53915e-07 0)
(0.00344367 -4.48918e-07 0)
(0.00344687 -4.43967e-07 0)
(0.00345004 -4.39063e-07 0)
(0.00345317 -4.34207e-07 0)
(0.00345627 -4.294e-07 0)
(0.00345933 -4.24646e-07 0)
(0.00346235 -4.19944e-07 0)
(0.00346534 -4.15298e-07 0)
(0.0034683 -4.10708e-07 0)
(0.00347122 -4.06178e-07 0)
(0.0034741 -4.01711e-07 0)
(0.00347696 -3.97313e-07 0)
(0.00347978 -3.93002e-07 0)
(0.00348256 -3.88756e-07 0)
(0.00348532 -3.84554e-07 0)
(0.00348804 -3.80397e-07 0)
(0.00349074 -3.76291e-07 0)
(0.0034934 -3.7224e-07 0)
(0.00349603 -3.68246e-07 0)
(0.00349863 -3.64312e-07 0)
(0.0035012 -3.60435e-07 0)
(0.00350375 -3.56616e-07 0)
(0.00350626 -3.52853e-07 0)
(0.00350875 -3.49147e-07 0)
(0.00351121 -3.45495e-07 0)
(0.00351364 -3.41896e-07 0)
(0.00351605 -3.38349e-07 0)
(0.00351842 -3.34852e-07 0)
(0.00352078 -3.31404e-07 0)
(0.0035231 -3.28003e-07 0)
(0.0035254 -3.24647e-07 0)
(0.00352768 -3.21334e-07 0)
(0.00352993 -3.18063e-07 0)
(0.00353216 -3.14832e-07 0)
(0.00353436 -3.11638e-07 0)
(0.00353654 -3.08481e-07 0)
(0.00353869 -3.05357e-07 0)
(0.00354082 -3.02267e-07 0)
(0.00354293 -2.99207e-07 0)
(0.00354501 -2.96176e-07 0)
(0.00354707 -2.93173e-07 0)
(0.00354911 -2.90196e-07 0)
(0.00355113 -2.87244e-07 0)
(0.00355312 -2.84315e-07 0)
(0.00355509 -2.81409e-07 0)
(0.00355704 -2.78525e-07 0)
(0.00355897 -2.75662e-07 0)
(0.00356088 -2.72818e-07 0)
(0.00356276 -2.69994e-07 0)
(0.00356462 -2.6719e-07 0)
(0.00356647 -2.64404e-07 0)
(0.00356829 -2.61636e-07 0)
(0.00357009 -2.58886e-07 0)
(0.00357187 -2.56156e-07 0)
(0.00357363 -2.53443e-07 0)
(0.00357537 -2.5075e-07 0)
(0.00357709 -2.48076e-07 0)
(0.00357879 -2.45421e-07 0)
(0.00358047 -2.42785e-07 0)
(0.00358213 -2.40167e-07 0)
(0.00358377 -2.37568e-07 0)
(0.00358539 -2.34983e-07 0)
(0.00358699 -2.32406e-07 0)
(0.00358857 -2.2983e-07 0)
(0.00359014 -2.27224e-07 0)
(0.00359168 -2.24652e-07 0)
(0.00359321 -2.22134e-07 0)
(0.00359472 -2.19662e-07 0)
(0.00359621 -2.17228e-07 0)
(0.00359769 -2.14825e-07 0)
(0.00359914 -2.1245e-07 0)
(0.00360058 -2.10102e-07 0)
(0.00360201 -2.07778e-07 0)
(0.00360341 -2.0548e-07 0)
(0.0036048 -2.03206e-07 0)
(0.00360617 -2.00956e-07 0)
(0.00360753 -1.9873e-07 0)
(0.00360886 -1.96528e-07 0)
(0.00361019 -1.9434e-07 0)
(0.00361149 -1.92175e-07 0)
(0.00361278 -1.89927e-07 0)
(0.00361406 -1.87853e-07 0)
(0.00361532 -1.84686e-07 0)
(0.00361656 -1.86908e-07 0)
(0.0036178 -1.78454e-07 0)
(0.00361901 -1.83738e-07 0)
(0.00362021 -1.73112e-07 0)
(0.0036214 -1.81048e-07 0)
(0.00362255 -1.6775e-07 0)
(0.00362372 -1.78154e-07 0)
(0.00362484 -1.62476e-07 0)
(0.003626 -1.75115e-07 0)
(0.00362704 -1.56672e-07 0)
(0.00362822 -1.72379e-07 0)
(0.00362917 -1.49149e-07 0)
(0.00363039 -1.70184e-07 0)
(0.0036312 -1.37882e-07 0)
(0.00363252 -1.6983e-07 0)
(0.00363312 -1.19904e-07 0)
(0.00363463 -1.76633e-07 0)
(0.00363491 -8.78753e-08 0)
(0.0036368 -2.08475e-07 0)
(0.00363656 -8.02041e-08 0)
(0.00363951 -4.26982e-07 0)
(0.00363816 -9.06404e-07 0)
(1.08637e-06 -5.26666e-06 0)
(-1.3099e-05 1.24127e-05 0)
(-5.73192e-05 4.04877e-05 0)
(-0.000130442 6.40975e-05 0)
(-0.00022869 8.26197e-05 0)
(-0.000344084 9.2496e-05 0)
(-0.000472066 9.83395e-05 0)
(-0.000606834 9.99943e-05 0)
(-0.000745395 9.98767e-05 0)
(-0.000885913 9.84216e-05 0)
(-0.00102585 9.67276e-05 0)
(-0.00116644 9.51723e-05 0)
(-0.00130577 9.40011e-05 0)
(-0.00144421 9.33445e-05 0)
(-0.00158148 9.31024e-05 0)
(-0.00171777 9.32453e-05 0)
(-0.00185308 9.37479e-05 0)
(-0.00198743 9.45499e-05 0)
(-0.00212091 9.53848e-05 0)
(-0.00225321 9.58917e-05 0)
(-0.00238407 9.64394e-05 0)
(-0.00251358 9.70783e-05 0)
(-0.00264174 9.76421e-05 0)
(-0.00276858 9.8022e-05 0)
(-0.00289408 9.81292e-05 0)
(-0.00301822 9.79002e-05 0)
(-0.00314103 9.72899e-05 0)
(-0.00326256 9.62625e-05 0)
(-0.00338286 9.48008e-05 0)
(-0.003502 9.29005e-05 0)
(-0.00362005 9.05017e-05 0)
(-0.003737 8.7497e-05 0)
(-0.00385282 8.32662e-05 0)
(-0.0039672 7.62946e-05 0)
(-0.00408015 7.18603e-05 0)
(-0.0041939 7.00601e-05 0)
(-0.00430631 6.54323e-05 0)
(-0.00441826 6.03717e-05 0)
(-0.00452934 5.56869e-05 0)
(-0.00463956 5.15067e-05 0)
(-0.00474884 4.79654e-05 0)
(-0.00485718 4.50537e-05 0)
(-0.00496451 4.28823e-05 0)
(-0.00507086 4.13636e-05 0)
(-0.00517621 4.04347e-05 0)
(-0.0052806 3.99754e-05 0)
(-0.00538404 3.98935e-05 0)
(-0.00548661 4.012e-05 0)
(-0.00558837 4.06183e-05 0)
(-0.00568938 4.13796e-05 0)
(-0.00578973 4.24285e-05 0)
(-0.0058895 4.38267e-05 0)
(-0.00598878 4.56276e-05 0)
(-0.00608763 4.80284e-05 0)
(-0.00618614 5.08895e-05 0)
(-0.00628418 5.46727e-05 0)
(-0.00638187 5.84829e-05 0)
(-0.00647885 6.19405e-05 0)
(-0.00657489 6.88475e-05 0)
(-0.00666914 7.56445e-05 0)
(-0.00676151 8.09477e-05 0)
(-0.00685254 8.55231e-05 0)
(-0.00694245 8.94737e-05 0)
(-0.00703277 9.20602e-05 0)
(-0.00712266 9.34463e-05 0)
(-0.0072128 9.3896e-05 0)
(-0.0073026 9.37137e-05 0)
(-0.00739229 9.30708e-05 0)
(-0.00748168 9.2146e-05 0)
(-0.00757077 9.09751e-05 0)
(-0.00765951 8.96743e-05 0)
(-0.00774788 8.82104e-05 0)
(-0.00783585 8.66824e-05 0)
(-0.00792342 8.50197e-05 0)
(-0.00801054 8.33183e-05 0)
(-0.00809725 8.14796e-05 0)
(-0.00818348 7.96261e-05 0)
(-0.00826926 7.76068e-05 0)
(-0.00835453 7.56296e-05 0)
(-0.00843935 7.34751e-05 0)
(-0.00852361 7.14232e-05 0)
(-0.00860741 6.91811e-05 0)
(-0.00869055 6.69873e-05 0)
(-0.00877314 6.41813e-05 0)
(-0.00885494 6.0295e-05 0)
(-0.00893626 5.78861e-05 0)
(-0.00901738 5.75481e-05 0)
(-0.009098 5.59447e-05 0)
(-0.00917782 5.50533e-05 0)
(-0.0092568 5.48825e-05 0)
(-0.00933442 5.53937e-05 0)
(-0.00941074 5.52667e-05 0)
(-0.00948539 5.58165e-05 0)
(-0.0095586 5.93282e-05 0)
(-0.00962959 6.2257e-05 0)
(-0.00969935 6.48849e-05 0)
(-0.00976661 6.81486e-05 0)
(-0.00983221 7.0332e-05 0)
(-0.00989468 7.38379e-05 0)
(-0.00995539 7.58968e-05 0)
(-0.010012 7.95752e-05 0)
(-0.0100665 8.12338e-05 0)
(-0.0101152 8.4827e-05 0)
(-0.0101623 8.50663e-05 0)
(-0.0102018 8.82688e-05 0)
(-0.010239 8.63821e-05 0)
(-0.0102677 8.83596e-05 0)
(-0.0102914 8.17847e-05 0)
(-0.010309 7.96594e-05 0)
(-0.0103191 6.47563e-05 0)
(-0.010324 4.95808e-05 0)
(-0.0103195 2.05974e-05 0)
(-0.0103111 4.83788e-07 0)
(-0.0103127 -2.68103e-05 0)
(-0.010301 -4.80377e-05 0)
(-0.0102876 -6.91472e-05 0)
(-0.0102571 -8.6091e-05 0)
(-0.0102255 -0.000103418 0)
(-0.0101749 -0.000118211 0)
(-0.0101246 -0.000134334 0)
(-0.0100534 -0.00014814 0)
(-0.00998409 -0.000163807 0)
(-0.00989242 -0.000176809 0)
(-0.00980433 -0.000191561 0)
(-0.00969197 -0.000203149 0)
(-0.00958622 -0.000215392 0)
(-0.00945377 -0.000224021 0)
(-0.00933187 -0.000230584 0)
(-0.00918219 -0.000231884 0)
(-0.00904403 -0.000222974 0)
(-0.00887796 -0.000206971 0)
(-0.0087155 -0.000161937 0)
(-0.00851409 -0.00011742 0)
(-0.00830023 -5.00552e-05 0)
(-0.00804532 -7.71634e-06 0)
(-0.00778798 2.68076e-05 0)
(-0.00751434 3.39149e-05 0)
(-0.00723709 5.05961e-05 0)
(-0.00694963 4.40309e-05 0)
(-0.00665314 5.16913e-05 0)
(-0.00634667 4.24147e-05 0)
(-0.0060262 4.2222e-05 0)
(-0.00569312 3.09998e-05 0)
(-0.00533662 2.01754e-05 0)
(-0.00497605 -2.26642e-06 0)
(-0.00455122 -3.78046e-05 0)
(-0.00419086 -0.000102563 0)
(-0.00376932 -0.000156494 0)
(-0.0034241 -0.000248455 0)
(-0.00314996 -0.000286866 0)
(-0.00279955 -0.000323419 0)
(-0.00247954 -0.000329234 0)
(-0.00210081 -0.000344147 0)
(-0.00176698 -0.000347038 0)
(-0.00140157 -0.00036578 0)
(-0.00108809 -0.000383463 0)
(-0.000651377 -0.000426048 0)
(-0.000231983 -0.000413373 0)
(0.000209122 -0.000414478 0)
(0.000592834 -0.000390962 0)
(0.00101015 -0.000389025 0)
(0.00138264 -0.000367132 0)
(0.00178743 -0.00035444 0)
(0.0021455 -0.000331268 0)
(0.0025301 -0.000324161 0)
(0.00287883 -0.000308063 0)
(0.00325012 -0.000303693 0)
(0.00358956 -0.000288733 0)
(0.00394322 -0.000282215 0)
(0.00427243 -0.000272375 0)
(0.00460552 -0.000259231 0)
(0.00492314 -0.000255861 0)
(0.00523474 -0.000237738 0)
(0.00553822 -0.000237065 0)
(0.00582993 -0.000219678 0)
(0.00611456 -0.000218275 0)
(0.00638688 -0.000201095 0)
(0.00665145 -0.000199816 0)
(0.00690383 -0.000183126 0)
(0.00714814 -0.000181553 0)
(0.00738024 -0.000165839 0)
(0.00760401 -0.000163596 0)
(0.00781583 -0.000148991 0)
(0.00801897 -0.000146266 0)
(0.00821095 -0.000132837 0)
(0.00839359 -0.000129609 0)
(0.00856635 -0.000117576 0)
(0.00872907 -0.000113445 0)
(0.00888273 -0.000103528 0)
(0.00902653 -9.78536e-05 0)
(0.00916163 -8.99796e-05 0)
(0.00928742 -8.37251e-05 0)
(0.00940465 -7.72718e-05 0)
(0.00951348 -7.09745e-05 0)
(0.00961408 -6.49352e-05 0)
(0.00970671 -5.91313e-05 0)
(0.00979163 -5.36301e-05 0)
(0.00986911 -4.81579e-05 0)
(0.00993938 -4.33759e-05 0)
(0.0100029 -3.8021e-05 0)
(0.0100595 -3.39683e-05 0)
(0.0101101 -2.88598e-05 0)
(0.0101542 -2.53617e-05 0)
(0.0101931 -2.05921e-05 0)
(0.0102259 -1.75935e-05 0)
(0.010254 -1.3455e-05 0)
(0.0102766 -1.08727e-05 0)
(0.010295 -7.22797e-06 0)
(0.0103086 -4.97563e-06 0)
(0.0103182 -1.86874e-06 0)
(0.0103239 1.91079e-07 0)
(0.0103261 2.75497e-06 0)
(0.0103241 5.02255e-06 0)
(0.0103189 7.28534e-06 0)
(0.0103107 9.44676e-06 0)
(0.0102996 1.1106e-05 0)
(0.0102861 1.32764e-05 0)
(0.0102698 1.43304e-05 0)
(0.0102518 1.64863e-05 0)
(0.0102313 1.70428e-05 0)
(0.0102096 1.89667e-05 0)
(0.0101856 1.92258e-05 0)
(0.0101607 2.08524e-05 0)
(0.0101339 2.11056e-05 0)
(0.0101065 2.21467e-05 0)
(0.0100773 2.24138e-05 0)
(0.0100482 2.31678e-05 0)
(0.0100171 2.32158e-05 0)
(0.00998667 2.38558e-05 0)
(0.00995427 2.36485e-05 0)
(0.00992299 2.41985e-05 0)
(0.00988978 2.3898e-05 0)
(0.00985796 2.42531e-05 0)
(0.0098244 2.39025e-05 0)
(0.00979233 2.40419e-05 0)
(0.00975884 2.36852e-05 0)
(0.00972674 2.36164e-05 0)
(0.00969375 2.32719e-05 0)
(0.00966176 2.30013e-05 0)
(0.00962978 2.26698e-05 0)
(0.00959808 2.22821e-05 0)
(0.00956704 2.18837e-05 0)
(0.00953612 2.14348e-05 0)
(0.00950612 2.09637e-05 0)
(0.00947619 2.04738e-05 0)
(0.00944736 1.99115e-05 0)
(0.00941859 1.9391e-05 0)
(0.00939107 1.87238e-05 0)
(0.0093636 1.81802e-05 0)
(0.00933751 1.73977e-05 0)
(0.00931146 1.68446e-05 0)
(0.00928687 1.59646e-05 0)
(0.00926228 1.54327e-05 0)
(0.00923924 1.45097e-05 0)
(0.00921617 1.40336e-05 0)
(0.00919472 1.3113e-05 0)
(0.00917324 1.27014e-05 0)
(0.00915347 1.17745e-05 0)
(0.00913366 1.14118e-05 0)
(0.00911562 1.0468e-05 0)
(0.00909751 1.01235e-05 0)
(0.0090812 9.15361e-06 0)
(0.0090648 8.83684e-06 0)
(0.00905021 7.86831e-06 0)
(0.00903549 7.63932e-06 0)
(0.00902259 6.63797e-06 0)
(0.00900954 6.48853e-06 0)
(0.00899829 5.44697e-06 0)
(0.00898687 5.36509e-06 0)
(0.00897724 4.32001e-06 0)
(0.00896744 4.27742e-06 0)
(0.00895937 3.25862e-06 0)
(0.00895116 3.22179e-06 0)
(0.0089446 2.2295e-06 0)
(0.00893794 2.19352e-06 0)
(0.00893282 1.22207e-06 0)
(0.00892767 1.24247e-06 0)
(0.00892393 2.00121e-07 0)
(0.0089202 3.50257e-07 0)
(0.00891783 -6.98125e-07 0)
(0.00891548 -4.81032e-07 0)
(0.0089144 -1.58693e-06 0)
(0.00891333 -1.46667e-06 0)
(0.0089133 -2.36633e-06 0)
(0.00891374 -2.25234e-06 0)
(0.00891485 -3.08022e-06 0)
(0.00891637 -3.0624e-06 0)
(0.00891865 -3.79478e-06 0)
(0.00892132 -4.09572e-06 0)
(0.00892467 -4.47305e-06 0)
(0.00892839 -4.81565e-06 0)
(0.00893268 -5.15017e-06 0)
(0.00893741 -5.46421e-06 0)
(0.00894262 -5.76749e-06 0)
(0.0089483 -6.05237e-06 0)
(0.00895444 -6.35018e-06 0)
(0.00896095 -6.63775e-06 0)
(0.00896799 -6.8504e-06 0)
(0.00897513 -7.19849e-06 0)
(0.00898307 -7.32365e-06 0)
(0.00899081 -7.68126e-06 0)
(0.0089996 -7.75386e-06 0)
(0.00900791 -8.13798e-06 0)
(0.00901743 -8.14933e-06 0)
(0.0090263 -8.53494e-06 0)
(0.00903647 -8.50713e-06 0)
(0.00904588 -8.88014e-06 0)
(0.00905663 -8.82082e-06 0)
(0.00906654 -9.16771e-06 0)
(0.00907782 -9.08777e-06 0)
(0.00908818 -9.40794e-06 0)
(0.00909991 -9.27829e-06 0)
(0.00911067 -9.54476e-06 0)
(0.0091228 -9.36476e-06 0)
(0.00913393 -9.63654e-06 0)
(0.00914639 -9.48354e-06 0)
(0.00915784 -9.76218e-06 0)
(0.0091706 -9.64182e-06 0)
(0.00918233 -9.8926e-06 0)
(0.00919534 -9.79247e-06 0)
(0.00920731 -1.00112e-05 0)
(0.00922055 -9.91664e-06 0)
(0.00923272 -1.01091e-05 0)
(0.00924616 -1.00139e-05 0)
(0.00925852 -1.01839e-05 0)
(0.00927212 -1.00836e-05 0)
(0.00928463 -1.02296e-05 0)
(0.00929836 -1.01017e-05 0)
(0.00931098 -1.02295e-05 0)
(0.00932479 -1.0086e-05 0)
(0.00933751 -1.01897e-05 0)
(0.00935136 -1.00534e-05 0)
(0.00936413 -1.01381e-05 0)
(0.00937799 -1.0016e-05 0)
(0.00939078 -1.0079e-05 0)
(0.00940461 -9.97234e-06 0)
(0.00941741 -1.00067e-05 0)
(0.00943119 -9.91775e-06 0)
(0.00944397 -9.92449e-06 0)
(0.00945766 -9.84724e-06 0)
(0.00947043 -9.84108e-06 0)
(0.00948399 -9.76018e-06 0)
(0.00949674 -9.74594e-06 0)
(0.00951015 -9.6627e-06 0)
(0.00952286 -9.63744e-06 0)
(0.00953611 -9.5576e-06 0)
(0.00954877 -9.51967e-06 0)
(0.00956184 -9.4433e-06 0)
(0.00957444 -9.39489e-06 0)
(0.00958732 -9.32126e-06 0)
(0.00959984 -9.26257e-06 0)
(0.00961251 -9.19213e-06 0)
(0.00962494 -9.12341e-06 0)
(0.0096374 -9.05583e-06 0)
(0.00964972 -8.9896e-06 0)
(0.00966199 -8.91416e-06 0)
(0.00967417 -8.84481e-06 0)
(0.00968626 -8.76988e-06 0)
(0.00969827 -8.69697e-06 0)
(0.00971019 -8.62245e-06 0)
(0.00972202 -8.54889e-06 0)
(0.00973376 -8.4739e-06 0)
(0.0097454 -8.39947e-06 0)
(0.00975696 -8.32366e-06 0)
(0.00976842 -8.24835e-06 0)
(0.00977979 -8.17208e-06 0)
(0.00979106 -8.09619e-06 0)
(0.00980224 -8.01974e-06 0)
(0.00981332 -7.94348e-06 0)
(0.0098243 -7.86693e-06 0)
(0.00983519 -7.79046e-06 0)
(0.00984598 -7.71387e-06 0)
(0.00985667 -7.6374e-06 0)
(0.00986726 -7.56089e-06 0)
(0.00987775 -7.48452e-06 0)
(0.00988815 -7.40816e-06 0)
(0.00989844 -7.33197e-06 0)
(0.00990863 -7.25585e-06 0)
(0.00991873 -7.17992e-06 0)
(0.00992872 -7.10411e-06 0)
(0.00993861 -7.02852e-06 0)
(0.00994841 -6.95311e-06 0)
(0.0099581 -6.87792e-06 0)
(0.0099677 -6.80296e-06 0)
(0.00997719 -6.72827e-06 0)
(0.00998659 -6.65385e-06 0)
(0.00999588 -6.57975e-06 0)
(0.0100051 -6.506e-06 0)
(0.0100142 -6.43262e-06 0)
(0.0100232 -6.35965e-06 0)
(0.0100321 -6.28712e-06 0)
(0.0100409 -6.21506e-06 0)
(0.0100496 -6.1435e-06 0)
(0.0100582 -6.07247e-06 0)
(0.0100667 -6.002e-06 0)
(0.0100751 -5.93214e-06 0)
(0.0100835 -5.86291e-06 0)
(0.0100917 -5.79433e-06 0)
(0.0100998 -5.72644e-06 0)
(0.0101079 -5.65928e-06 0)
(0.0101159 -5.59285e-06 0)
(0.0101237 -5.52719e-06 0)
(0.0101315 -5.46231e-06 0)
(0.0101392 -5.39824e-06 0)
(0.0101468 -5.33499e-06 0)
(0.0101543 -5.27257e-06 0)
(0.0101618 -5.211e-06 0)
(0.0101691 -5.15028e-06 0)
(0.0101764 -5.09041e-06 0)
(0.0101836 -5.03139e-06 0)
(0.0101907 -4.97322e-06 0)
(0.0101977 -4.91589e-06 0)
(0.0102047 -4.85941e-06 0)
(0.0102115 -4.80376e-06 0)
(0.0102183 -4.74894e-06 0)
(0.0102251 -4.69492e-06 0)
(0.0102317 -4.6417e-06 0)
(0.0102383 -4.58926e-06 0)
(0.0102448 -4.53758e-06 0)
(0.0102512 -4.48663e-06 0)
(0.0102576 -4.43641e-06 0)
(0.0102639 -4.38688e-06 0)
(0.0102701 -4.33803e-06 0)
(0.0102763 -4.28982e-06 0)
(0.0102824 -4.24225e-06 0)
(0.0102884 -4.19527e-06 0)
(0.0102943 -4.14888e-06 0)
(0.0103002 -4.10304e-06 0)
(0.0103061 -4.05773e-06 0)
(0.0103118 -4.01293e-06 0)
(0.0103175 -3.96862e-06 0)
(0.0103232 -3.92477e-06 0)
(0.0103287 -3.88136e-06 0)
(0.0103343 -3.83838e-06 0)
(0.0103397 -3.7958e-06 0)
(0.0103451 -3.75361e-06 0)
(0.0103504 -3.7118e-06 0)
(0.0103557 -3.67034e-06 0)
(0.0103609 -3.62924e-06 0)
(0.0103661 -3.58847e-06 0)
(0.0103712 -3.54804e-06 0)
(0.0103762 -3.50793e-06 0)
(0.0103812 -3.46813e-06 0)
(0.0103862 -3.42865e-06 0)
(0.010391 -3.38948e-06 0)
(0.0103959 -3.35062e-06 0)
(0.0104006 -3.31206e-06 0)
(0.0104053 -3.27382e-06 0)
(0.01041 -3.23589e-06 0)
(0.0104146 -3.19827e-06 0)
(0.0104191 -3.16097e-06 0)
(0.0104236 -3.12398e-06 0)
(0.0104281 -3.08732e-06 0)
(0.0104325 -3.05098e-06 0)
(0.0104368 -3.01498e-06 0)
(0.0104411 -2.97931e-06 0)
(0.0104454 -2.94399e-06 0)
(0.0104495 -2.90902e-06 0)
(0.0104537 -2.87444e-06 0)
(0.0104578 -2.84035e-06 0)
(0.0104618 -2.8066e-06 0)
(0.0104658 -2.77314e-06 0)
(0.0104698 -2.73998e-06 0)
(0.0104737 -2.70713e-06 0)
(0.0104776 -2.67462e-06 0)
(0.0104814 -2.64246e-06 0)
(0.0104851 -2.61064e-06 0)
(0.0104889 -2.57917e-06 0)
(0.0104925 -2.54805e-06 0)
(0.0104962 -2.51727e-06 0)
(0.0104998 -2.48683e-06 0)
(0.0105033 -2.45671e-06 0)
(0.0105068 -2.42691e-06 0)
(0.0105103 -2.39739e-06 0)
(0.0105137 -2.36814e-06 0)
(0.0105171 -2.3389e-06 0)
(0.0105205 -2.31026e-06 0)
(0.0105238 -2.27886e-06 0)
(0.010527 -2.26295e-06 0)
(0.0105303 -2.21895e-06 0)
(0.0105334 -2.20797e-06 0)
(0.0105366 -2.16077e-06 0)
(0.0105397 -2.15584e-06 0)
(0.0105428 -2.1025e-06 0)
(0.0105458 -2.10182e-06 0)
(0.0105488 -2.04497e-06 0)
(0.0105518 -2.04424e-06 0)
(0.0105546 -1.98699e-06 0)
(0.0105576 -1.98432e-06 0)
(0.0105603 -1.92704e-06 0)
(0.0105632 -1.92294e-06 0)
(0.0105657 -1.86401e-06 0)
(0.0105688 -1.86209e-06 0)
(0.0105709 -1.80046e-06 0)
(0.0105742 -1.81231e-06 0)
(0.0105759 -1.75384e-06 0)
(0.0105795 -1.82565e-06 0)
(0.0105805 -1.85336e-06 0)
(0.0105849 -2.15085e-06 0)
(0.0105847 -2.78381e-06 0)
(-4.42747e-06 5.87093e-06 0)
(-4.63239e-05 5.89472e-05 0)
(-0.000133614 0.000123842 0)
(-0.000262741 0.000181805 0)
(-0.000426144 0.000227269 0)
(-0.000613965 0.000256536 0)
(-0.000818846 0.0002749 0)
(-0.0010337 0.000283381 0)
(-0.00125399 0.000286742 0)
(-0.00147662 0.000286497 0)
(-0.00169898 0.000284872 0)
(-0.00192058 0.000281996 0)
(-0.00213997 0.000278746 0)
(-0.00235731 0.000275641 0)
(-0.00257238 0.000272623 0)
(-0.00278511 0.000269532 0)
(-0.00299554 0.000266189 0)
(-0.00320349 0.000263082 0)
(-0.00340854 0.000259389 0)
(-0.00361115 0.000254965 0)
(-0.00381203 0.000250382 0)
(-0.00401082 0.000245827 0)
(-0.00420769 0.000241409 0)
(-0.00440243 0.000237156 0)
(-0.00459504 0.000233195 0)
(-0.00478546 0.00022964 0)
(-0.0049737 0.000226631 0)
(-0.00515977 0.000224264 0)
(-0.00534367 0.000222601 0)
(-0.00552544 0.000221725 0)
(-0.0057051 0.000221512 0)
(-0.00588261 0.000221992 0)
(-0.00605814 0.000222671 0)
(-0.00623212 0.000223397 0)
(-0.0064051 0.000227974 0)
(-0.00657428 0.000230668 0)
(-0.00674019 0.000233938 0)
(-0.00690418 0.000236918 0)
(-0.00706606 0.000239471 0)
(-0.00722586 0.000241469 0)
(-0.00738359 0.000242887 0)
(-0.00753944 0.000243493 0)
(-0.00769346 0.000243457 0)
(-0.00784599 0.000242688 0)
(-0.0079971 0.000241326 0)
(-0.00814691 0.000239476 0)
(-0.00829539 0.000237264 0)
(-0.00844251 0.000234788 0)
(-0.00858822 0.000232121 0)
(-0.0087325 0.000229294 0)
(-0.00887531 0.000226323 0)
(-0.00901662 0.000223184 0)
(-0.00915642 0.000219787 0)