/*--------------------------------*- C++ -*----------------------------------*\
| =========                 |                                                 |
| \\      /  F ield         | OpenFOAM: The Open Source CFD Toolbox           |
|  \\    /   O peration     | Version:  2012                                  |
|   \\  /    A nd           | Website:  www.openfoam.com                      |
|    \\/     M anipulation  |                                                 |
\*---------------------------------------------------------------------------*/
FoamFile
{
    version     2.0;
    format      ascii;
    class       volScalarField;
    location    "0.38";
    object      pcorr;
}
// * * * * * * * * * * * * * * * * * * * * * * * * * * * * * * * * * * * * * //

dimensions      [1 -1 -2 0 0 0 0];


internalField   nonuniform List<scalar> 
2268
(
101216
101213
101208
101199
101188
101172
101151
101124
101089
101046
100991
100923
100837
100732
100601
100443
100252
100029
99776.5
99504.6
99236.7
99011.4
98878.2
101217
101214
101209
101200
101188
101173
101152
101125
101091
101048
100994
100927
100842
100737
100608
100450
100260
100036
99780.8
99503.7
99227.2
98990.9
98848.6
101218
101215
101210
101202
101190
101175
101155
101129
101095
101053
101001
100934
100851
100748
100620
100464
100275
100050
99789.9
99502.7
99208.8
98949.3
98787.4
101219
101217
101212
101204
101193
101178
101159
101133
101101
101061
101010
100945
100865
100764
100639
100485
100297
100071
99805.2
99503.1
99182.6
98886
98690.1
101222
101219
101215
101207
101197
101182
101164
101140
101109
101071
101022
100960
100883
100786
100665
100514
100329
100102
99828.5
99507.7
99151.1
98800.1
98549.2
101225
101222
101218
101211
101201
101188
101170
101148
101119
101083
101037
100979
100905
100813
100697
100551
100369
100143
99862.4
99520.2
99118.3
98691.9
98352.9
101228
101226
101222
101215
101206
101194
101178
101157
101131
101097
101054
101000
100932
100845
100735
100596
100420
100196
99910.1
99546.1
99090.9
98564.1
98081.3
101232
101230
101226
101220
101212
101201
101186
101168
101144
101113
101075
101026
100963
100883
100781
100649
100481
100262
99975.3
99592.2
99079.4
98426.3
97701.5
91467.8
91467.7
91467.4
91467.1
91466.6
91466
91465.2
91464.4
91463.5
91462.5
91461.5
91460.5
91459.4
91458.4
91457.5
91456.7
91456
91455.6
91455.3
91467.8
91467.7
91467.4
91467.1
91466.6
91466
91465.2
91464.4
91463.5
91462.5
91461.5
91460.5
91459.4
91458.4
91457.5
91456.7
91456
91455.5
91455.3
91467.9
91467.7
91467.5
91467.1
91466.6
91466
91465.3
91464.4
91463.5
91462.5
91461.5
91460.5
91459.4
91458.4
91457.5
91456.6
91455.9
91455.5
91455.2
91468
91467.8
91467.5
91467.2
91466.7
91466.1
91465.3
91464.5
91463.5
91462.5
91461.5
91460.5
91459.4
91458.4
91457.4
91456.5
91455.8
91455.3
91455.1
91468.1
91467.9
91467.6
91467.3
91466.8
91466.2
91465.4
91464.5
91463.6
91462.6
91461.5
91460.5
91459.4
91458.3
91457.3
91456.4
91455.7
91455.2
91454.9
91468.2
91467.9
91467.7
91467.4
91466.9
91466.3
91465.5
91464.6
91463.6
91462.6
91461.6
91460.5
91459.4
91458.3
91457.2
91456.3
91455.5
91454.9
91454.7
91468.4
91468
91467.8
91467.5
91467.1
91466.4
91465.6
91464.7
91463.7
91462.7
91461.6
91460.5
91459.3
91458.2
91457.1
91456.1
91455.3
91454.7
91454.4
91468.7
91468
91468
91467.7
91467.3
91466.6
91465.7
91464.8
91463.8
91462.7
91461.6
91460.5
91459.3
91458.1
91457
91455.9
91455
91454.4
91454
101238
101237
101233
101229
101222
101213
101201
101186
101166
101142
101110
101069
101017
100949
100861
100746
100594
100390
100111
99709.4
99109.9
98235.4
96854.4
101248
101247
101245
101242
101238
101232
101225
101215
101203
101187
101167
101141
101107
101061
100999
100914
100799
100641
100418
100069
99428.2
98485.8
97098.2
101260
101259
101258
101257
101255
101253
101250
101246
101242
101236
101229
101219
101206
101186
101157
101113
101047
100958
100852
100723
100051
99183.4
98030.2
101268
101268
101268
101267
101267
101267
101266
101266
101265
101264
101263
101262
101261
101260
101259
101258
101250
101230
101287
101926
100869
100169
99450.5
101268
101268
101268
101268
101268
101267
101267
101266
101265
101265
101264
101263
101262
101261
101260
101259
101258
101256
101257
101271
101209
101122
101571
101269
101269
101268
101268
101268
101267
101267
101266
101266
101265
101264
101263
101262
101261
101260
101259
101258
101257
101256
101255
101250
101245
101243
101269
101269
101269
101269
101268
101268
101267
101267
101266
101265
101264
101264
101263
101261
101260
101259
101258
101256
101255
101253
101250
101247
101244
101269
101269
101269
101269
101269
101268
101268
101267
101266
101266
101265
101264
101263
101262
101261
101259
101258
101256
101255
101252
101250
101247
101243
101270
101270
101270
101270
101269
101269
101268
101268
101267
101266
101265
101264
101263
101262
101261
101260
101258
101257
101255
101252
101250
101247
101243
101271
101271
101270
101270
101270
101269
101269
101268
101268
101267
101266
101265
101264
101263
101262
101260
101259
101257
101255
101253
101250
101247
101244
101271
101271
101271
101271
101271
101270
101270
101269
101268
101268
101267
101266
101265
101264
101262
101261
101259
101258
101256
101253
101251
101248
101245
101272
101272
101272
101272
101271
101271
101270
101270
101269
101268
101268
101267
101266
101264
101263
101262
101260
101258
101256
101254
101252
101249
101246
101273
101273
101273
101273
101272
101272
101271
101271
101270
101269
101269
101268
101267
101265
101264
101263
101261
101259
101258
101255
101253
101251
101248
101274
101274
101274
101274
101273
101273
101272
101272
101271
101270
101270
101269
101268
101266
101265
101264
101262
101261
101259
101257
101255
101252
101250
101275
101275
101275
101275
101274
101274
101273
101273
101272
101271
101271
101270
101269
101268
101266
101265
101264
101262
101260
101258
101256
101254
101252
101276
101276
101276
101276
101275
101275
101275
101274
101273
101273
101272
101271
101270
101269
101268
101266
101265
101264
101262
101260
101258
101256
101254
101277
101277
101277
101277
101277
101276
101276
101275
101275
101274
101273
101272
101271
101270
101269
101268
101267
101265
101264
101262
101260
101258
101256
101279
101279
101278
101278
101278
101278
101277
101277
101276
101275
101275
101274
101273
101272
101271
101270
101268
101267
101265
101264
101262
101260
101259
101280
101280
101280
101280
101279
101279
101278
101278
101277
101277
101276
101275
101274
101273
101272
101271
101270
101269
101267
101266
101264
101263
101261
101281
101281
101281
101281
101281
101280
101280
101279
101279
101278
101278
101277
101276
101275
101274
101273
101272
101271
101269
101268
101267
101265
101263
101283
101283
101283
101282
101282
101282
101281
101281
101281
101280
101279
101279
101278
101277
101276
101275
101274
101273
101271
101270
101269
101267
101266
101284
101284
101284
101284
101284
101283
101283
101283
101282
101282
101281
101280
101280
101279
101278
101277
101276
101275
101274
101272
101271
101270
101268
101286
101286
101286
101286
101285
101285
101285
101284
101284
101283
101283
101282
101281
101281
101280
101279
101278
101277
101276
101275
101274
101272
101271
101288
101288
101287
101287
101287
101287
101286
101286
101286
101285
101285
101284
101283
101283
101282
101281
101280
101279
101278
101277
101276
101275
101274
101289
101289
101289
101289
101289
101289
101288
101288
101287
101287
101286
101286
101285
101285
101284
101283
101282
101281
101280
101280
101279
101277
101276
101291
101291
101291
101291
101291
101290
101290
101290
101289
101289
101288
101288
101287
101287
101286
101285
101284
101284
101283
101282
101281
101280
101279
101293
101293
101293
101293
101292
101292
101292
101292
101291
101291
101290
101290
101289
101289
101288
101287
101287
101286
101285
101284
101284
101283
101282
101295
101295
101295
101294
101294
101294
101294
101294
101293
101293
101292
101292
101291
101291
101290
101290
101289
101288
101288
101287
101286
101285
101285
101297
101297
101297
101296
101296
101296
101296
101296
101295
101295
101295
101294
101294
101293
101293
101292
101291
101291
101290
101289
101289
101288
101287
101299
101299
101298
101298
101298
101298
101298
101298
101297
101297
101297
101296
101296
101295
101295
101294
101294
101293
101293
101292
101291
101291
101290
101301
101301
101300
101300
101300
101300
101300
101300
101299
101299
101299
101298
101298
101298
101297
101297
101296
101296
101295
101295
101294
101293
101293
101303
101303
101302
101302
101302
101302
101302
101302
101302
101301
101301
101301
101300
101300
101300
101299
101299
101298
101298
101297
101297
101296
101296
101305
101305
101305
101304
101304
101304
101304
101304
101304
101303
101303
101303
101303
101302
101302
101301
101301
101301
101300
101300
101299
101299
101298
101307
101307
101307
101307
101306
101306
101306
101306
101306
101306
101305
101305
101305
101305
101304
101304
101304
101303
101303
101302
101302
101302
101301
101309
101309
101309
101309
101309
101308
101308
101308
101308
101308
101308
101307
101307
101307
101307
101306
101306
101306
101305
101305
101305
101304
101304
101311
101311
101311
101311
101311
101311
101311
101310
101310
101310
101310
101310
101310
101309
101309
101309
101309
101308
101308
101308
101307
101307
101307
101313
101313
101313
101313
101313
101313
101313
101313
101312
101312
101312
101312
101312
101312
101311
101311
101311
101311
101311
101310
101310
101310
101310
101315
101315
101315
101315
101315
101315
101315
101315
101315
101315
101315
101314
101314
101314
101314
101314
101314
101313
101313
101313
101313
101313
101312
101317
101317
101317
101317
101317
101317
101317
101317
101317
101317
101317
101317
101317
101317
101316
101316
101316
101316
101316
101316
101316
101315
101315
101320
101320
101320
101319
101319
101319
101319
101319
101319
101319
101319
101319
101319
101319
101319
101319
101319
101319
101318
101318
101318
101318
101318
101322
101322
101322
101322
101322
101322
101322
101322
101322
101322
101322
101321
101321
101321
101321
101321
101321
101321
101321
101321
101321
101321
101321
101324
101324
101324
101324
101324
101324
101324
101324
101324
101324
101324
101324
101324
101324
101324
101324
101324
101324
101324
101324
101324
101324
101324
94817.6
93344.5
91807.1
91500.1
95572.5
94485.2
93329.6
92191.1
96821.2
95968.6
95062.4
94122
98411.4
97696.4
96963.2
96232.9
100212
99497.4
98841.9
98198.3
101075
100873
100582
100199
101236
101230
101219
101196
101239
101237
101234
101231
101240
101238
101236
101234
101241
101239
101237
101235
101242
101241
101239
101237
101244
101243
101241
101239
101246
101244
101243
101242
101248
101247
101245
101244
101250
101249
101248
101246
101252
101251
101250
101249
101255
101254
101253
101252
101257
101256
101255
101254
101260
101259
101258
101257
101262
101261
101261
101260
101265
101264
101263
101263
101267
101267
101266
101265
101270
101270
101269
101268
101273
101272
101272
101271
101276
101275
101275
101274
101278
101278
101277
101277
101281
101281
101280
101280
101284
101284
101283
101283
101287
101286
101286
101286
101290
101289
101289
101289
101292
101292
101292
101292
101295
101295
101295
101294
101298
101298
101298
101297
101301
101301
101301
101300
101304
101304
101303
101303
101307
101306
101306
101306
101309
101309
101309
101309
101312
101312
101312
101312
101315
101315
101315
101315
101318
101318
101318
101318
101321
101321
101321
101321
101324
101324
101324
101324
91469.4
91467.9
91468.2
91468.1
91467.6
91466.9
91466
91464.9
91463.9
91462.8
91461.7
91460.5
91459.3
91458
91456.7
91455.5
91454.5
91453.8
91453.4
91470.2
91465.9
91469
91468.8
91468.3
91467.5
91466.4
91465.2
91464
91462.9
91461.8
91460.6
91459.3
91457.8
91456.3
91454.9
91453.7
91452.7
91452.2
92540.2
91474.5
91471.7
91469.7
91469.3
91468.3
91466.9
91465.4
91464.1
91463
91462.1
91460.9
91459.3
91457.6
91455.9
91454.1
91452.5
91451.3
91450.6
95063.5
92587.2
91479.1
91469.4
91470.9
91469.3
91467.4
91465.6
91464
91463
91462.7
91461.4
91459.5
91457.5
91455.4
91453.2
91451.1
91449.4
91448.5
97104.2
95252.4
93498.1
92047
91478.3
91472
91468.5
91465.6
91462.6
91461.7
91464.2
91462.4
91459.8
91457.4
91455.1
91452.3
91449.3
91446.8
91445.5
99407.6
98103.2
96926.2
95500.3
94508.2
93859.7
93384.5
92898.1
92344.8
91862.8
91473
91465.8
91459.9
91457
91455.1
91451.5
91447.1
91443
91437.6
101093
100574
99840.2
99002.1
98281.1
97750
97327.5
96871.5
96298.1
95619.6
94828.9
93914.2
92797.7
91573
91459.4
91451.5
91442.1
91434.6
91394.7
101224
101212
101182
101124
101006
100850
100694
100493
100169
99690.6
99071.9
98240.2
97053.6
95524
94021.3
92372.8
91590.2
91469
91704
101230
101225
101218
101210
101203
101197
101191
101185
101176
101159
101122
101041
100705
99748.8
98117
95950.3
94347.4
93465.5
93276
101232
101227
101222
101217
101212
101207
101202
101197
101193
101187
101181
101174
101163
101156
101088
99210.9
97119.7
95772.2
95148.3
101234
101230
101225
101221
101216
101212
101207
101203
101199
101195
101190
101185
101179
101172
101159
101093
99235
97632.2
96881.9
101237
101233
101228
101224
101220
101216
101212
101208
101204
101200
101196
101192
101187
101181
101175
101167
100365
98963.4
98332.3
101239
101235
101232
101228
101224
101220
101217
101213
101209
101206
101202
101198
101194
101190
101184
101178
100771
99768.4
99332.1
101242
101238
101235
101231
101228
101225
101221
101218
101215
101212
101208
101205
101202
101198
101193
101187
100879
100192
99917.7
101244
101241
101238
101235
101232
101229
101226
101223
101220
101217
101215
101212
101210
101208
101204
101200
100933
100449
100237
101247
101244
101241
101239
101236
101233
101230
101228
101225
101223
101221
101219
101218
101217
101217
101217
101010
100667
100505
101250
101247
101245
101242
101240
101237
101235
101232
101230
101228
101227
101226
101225
101225
101229
101236
101126
100908
100769
101253
101250
101248
101246
101243
101241
101239
101237
101235
101234
101232
101232
101232
101233
101236
101240
101212
101111
101076
101256
101253
101251
101249
101247
101245
101243
101241
101240
101238
101238
101237
101237
101238
101241
101242
101241
101177
101167
101258
101256
101255
101253
101251
101249
101247
101245
101244
101243
101242
101242
101242
101243
101244
101245
101245
101186
101208
101261
101260
101258
101256
101254
101253
101251
101250
101248
101247
101247
101247
101247
101247
101248
101249
101252
101226
101250
101264
101263
101261
101259
101258
101256
101255
101254
101253
101252
101251
101251
101251
101252
101252
101253
101255
101253
101243
101267
101266
101264
101263
101261
101260
101259
101258
101257
101256
101255
101255
101255
101255
101256
101257
101258
101261
101194
101270
101269
101268
101266
101265
101264
101263
101262
101261
101260
101259
101259
101259
101259
101260
101260
101261
101262
101259
101273
101272
101271
101270
101268
101267
101266
101265
101264
101263
101263
101262
101262
101263
101263
101263
101264
101264
101263
101276
101275
101274
101273
101272
101271
101270
101269
101268
101267
101266
101266
101266
101266
101266
101267
101267
101267
101265
101279
101278
101277
101276
101275
101274
101273
101272
101271
101271
101270
101269
101269
101269
101270
101270
101271
101271
101269
101282
101281
101280
101279
101278
101277
101276
101276
101275
101274
101273
101272
101272
101272
101273
101274
101276
101277
101284
101285
101284
101283
101282
101282
101281
101280
101279
101278
101277
101276
101275
101274
101274
101276
101278
101280
101283
101289
101288
101287
101286
101286
101285
101284
101283
101282
101281
101280
101278
101277
101276
101276
101278
101281
101284
101286
101289
101291
101290
101290
101289
101288
101287
101287
101286
101285
101283
101281
101279
101276
101276
101279
101283
101287
101290
101292
101294
101293
101293
101292
101292
101291
101290
101289
101288
101287
101285
101281
101273
101271
101281
101289
101293
101294
101295
101297
101296
101296
101295
101295
101294
101294
101293
101292
101291
101290
101284
101116
101181
101246
101302
101299
101299
101299
101300
101300
101299
101299
101298
101298
101297
101297
101297
101296
101296
101295
101212
101233
101317
101312
101305
101304
101303
101303
101303
101302
101302
101302
101301
101301
101301
101301
101301
101302
101306
101314
101323
101325
101313
101309
101308
101307
101306
101306
101305
101305
101305
101305
101305
101305
101305
101306
101307
101311
101314
101318
101318
101315
101312
101311
101311
101309
101309
101308
101308
101308
101308
101308
101308
101309
101309
101311
101313
101315
101317
101317
101316
101315
101314
101313
101312
101312
101311
101311
101311
101311
101311
101312
101312
101313
101314
101315
101317
101318
101318
101318
101317
101316
101316
101315
101315
101315
101314
101314
101314
101314
101315
101315
101316
101316
101317
101318
101319
101319
101319
101319
101318
101318
101318
101318
101318
101317
101317
101317
101318
101318
101318
101318
101319
101320
101320
101320
101321
101321
101320
101320
101320
101321
101321
101321
101320
101320
101320
101321
101321
101321
101321
101321
101322
101322
101322
101322
101322
101322
101322
101322
101324
101324
101324
101323
101323
101324
101324
101324
101324
101324
101324
101324
101324
101324
101324
101324
101324
101324
101324
)
;

boundaryField
{
    leftWall
    {
        type            zeroGradient;
    }
    rightWall
    {
        type            zeroGradient;
    }
    lowerWall
    {
        type            zeroGradient;
    }
    atmosphere
    {
        type            fixedValue;
        value           uniform 101325;
    }
    defaultFaces
    {
        type            empty;
    }
}


// ************************************************************************* //
