/*--------------------------------*- C++ -*----------------------------------*\
| =========                 |                                                 |
| \\      /  F ield         | OpenFOAM: The Open Source CFD Toolbox           |
|  \\    /   O peration     | Version:  2012                                  |
|   \\  /    A nd           | Website:  www.openfoam.com                      |
|    \\/     M anipulation  |                                                 |
\*---------------------------------------------------------------------------*/
FoamFile
{
    version     2.0;
    format      ascii;
    class       volScalarField;
    location    "0.38";
    object      rhogh;
}
// * * * * * * * * * * * * * * * * * * * * * * * * * * * * * * * * * * * * * //

dimensions      [1 -1 -2 0 0 0 0];


internalField   nonuniform List<scalar> 
2268
(
-29.4294
-29.4294
-29.4294
-29.4294
-29.4294
-29.4294
-29.4294
-29.4294
-29.4294
-29.4294
-29.4294
-29.4294
-29.4294
-29.4294
-29.4294
-29.4294
-29.4294
-29.4294
-29.4294
-29.4294
-29.4294
-29.4294
-29.4077
-88.2881
-88.2881
-88.2881
-88.2881
-88.2881
-88.2881
-88.2881
-88.2881
-88.2881
-88.2881
-88.2881
-88.2881
-88.2881
-88.2881
-88.2881
-88.2881
-88.2881
-88.2881
-88.2881
-88.2881
-88.2881
-88.2881
-88.2444
-147.147
-147.147
-147.147
-147.147
-147.147
-147.147
-147.147
-147.147
-147.147
-147.147
-147.147
-147.147
-147.147
-147.147
-147.147
-147.147
-147.147
-147.147
-147.147
-147.147
-147.147
-147.147
-147.141
-206.006
-206.006
-206.006
-206.006
-206.006
-206.006
-206.006
-206.006
-206.006
-206.006
-206.006
-206.006
-206.006
-206.006
-206.006
-206.006
-206.006
-206.006
-206.006
-206.006
-206.006
-206.006
-205.916
-264.864
-264.864
-264.864
-264.864
-264.864
-264.864
-264.864
-264.864
-264.864
-264.864
-264.864
-264.864
-264.864
-264.864
-264.864
-264.864
-264.864
-264.864
-264.864
-264.864
-264.864
-264.864
-264.441
-323.723
-323.723
-323.723
-323.723
-323.723
-323.723
-323.723
-323.723
-323.723
-323.723
-323.723
-323.723
-323.723
-323.723
-323.723
-323.723
-323.723
-323.723
-323.723
-323.723
-323.723
-323.723
-323.205
-382.582
-382.582
-382.582
-382.582
-382.582
-382.582
-382.582
-382.582
-382.582
-382.582
-382.582
-382.582
-382.582
-382.582
-382.582
-382.582
-382.582
-382.582
-382.582
-382.582
-382.582
-382.582
-381.979
-441.44
-441.44
-441.44
-441.44
-441.44
-441.44
-441.44
-441.44
-441.44
-441.44
-441.44
-441.44
-441.44
-441.44
-441.44
-441.44
-441.44
-441.44
-441.44
-441.44
-441.44
-441.44
-440.745
-4.93343e-21
-4.77357e-20
-3.93468e-19
-1.05476e-18
-1.2276e-18
-7.79156e-19
-2.57418e-19
-6.00802e-20
-9.73216e-21
-5.76214e-21
-8.86262e-21
-6.83625e-20
-1.06963e-18
-1.75714e-17
-2.62709e-16
-3.55392e-15
-4.42711e-14
-2.13205e-13
-2.13337e-13
-7.55449e-19
-1.29373e-17
-9.4471e-17
-2.18471e-16
-2.38809e-16
-1.47214e-16
-5.84907e-17
-1.54235e-17
-2.54492e-18
-1.48886e-18
-2.01348e-18
-1.06135e-17
-1.39583e-16
-2.10546e-15
-2.92072e-14
-3.59274e-13
-3.90567e-12
-1.60952e-11
-1.43542e-11
-5.77016e-17
-9.07352e-16
-6.46032e-15
-1.48839e-14
-1.54997e-14
-9.06613e-15
-3.8126e-15
-1.03624e-15
-1.89938e-16
-1.20093e-16
-1.50706e-16
-5.16633e-16
-5.22271e-15
-6.97616e-14
-8.70723e-13
-9.43763e-12
-8.5876e-11
-2.90804e-10
-2.5211e-10
-2.24576e-15
-3.71677e-14
-2.55809e-13
-5.31861e-13
-5.19116e-13
-2.8423e-13
-1.20603e-13
-3.27211e-14
-7.31127e-15
-5.32255e-15
-6.4101e-15
-1.43139e-14
-1.02119e-13
-1.19121e-12
-1.32757e-11
-1.23956e-10
-9.12301e-10
-2.42552e-09
-2.05118e-09
-6.49053e-14
-9.59925e-13
-6.02096e-12
-1.1423e-11
-1.00599e-11
-5.30067e-12
-2.42413e-12
-6.83066e-13
-1.82594e-13
-1.4659e-13
-1.80066e-13
-2.95506e-13
-1.39066e-12
-1.32304e-11
-1.27106e-10
-9.90286e-10
-5.62475e-09
-1.1222e-08
-9.43575e-09
-9.7332e-13
-1.54387e-11
-9.29037e-11
-1.58059e-10
-1.29164e-10
-6.87341e-11
-3.20638e-11
-9.00646e-12
-3.18919e-12
-3.01251e-12
-3.79153e-12
-4.55942e-12
-1.35141e-11
-1.02023e-10
-8.71779e-10
-5.77997e-09
-1.9348e-08
-2.6963e-08
-2.66986e-08
-2.85387e-11
-1.93359e-10
-8.25297e-10
-1.25058e-09
-9.41827e-10
-5.73134e-10
-3.03801e-10
-9.30163e-11
-4.21611e-11
-4.6477e-11
-5.71419e-11
-5.85193e-11
-1.11934e-10
-5.99253e-10
-4.23601e-09
-2.02909e-08
-3.8517e-08
-4.27953e-08
-4.61489e-08
-0.000157099
-2.7446e-06
-5.37126e-09
-2.32567e-08
-7.93536e-09
-3.61105e-09
-2.22981e-09
-6.9026e-10
-4.07692e-10
-6.04174e-10
-7.39549e-10
-6.77798e-10
-8.45706e-10
-2.44947e-09
-1.4712e-08
-4.41418e-08
-6.15613e-08
-5.53364e-08
-6.07453e-08
-533.467
-533.467
-533.467
-533.467
-533.467
-533.467
-533.467
-533.467
-533.467
-533.467
-533.467
-533.467
-533.467
-533.467
-533.467
-533.467
-533.467
-533.467
-533.467
-533.467
-533.467
-533.467
-532.628
-658.659
-658.659
-658.659
-658.658
-658.657
-658.656
-658.654
-658.651
-658.648
-658.643
-658.642
-658.641
-658.646
-658.652
-658.658
-658.661
-658.662
-658.662
-658.662
-658.662
-658.662
-658.662
-658.389
-773.236
-772.7
-772.22
-770.819
-768.812
-766.283
-763.167
-758.668
-755.533
-750.625
-749.686
-748.26
-752.124
-758.287
-767.044
-775.352
-783.558
-783.856
-783.856
-783.856
-783.856
-783.856
-783.851
-446.334
-438.812
-431.434
-415.881
-398.203
-379.806
-360.781
-337.992
-324.122
-304.855
-300.362
-293.764
-304.334
-325.061
-367.074
-438.509
-549.189
-679.513
-826.83
-909.051
-909.051
-909.051
-909.051
2.91069e-17
5.14221e-34
2.91856e-33
6.78271e-32
3.02723e-29
-1.49929e-28
8.14722e-28
-4.89695e-29
1.53871e-20
5.22844e-26
-3.43058e-25
-7.8303e-25
-2.50676e-24
-7.41151e-24
-2.10303e-24
3.60478e-27
-9.64678
-52.0222
-149.321
-328.831
-610.231
-938.326
-1034.25
-1.46462e-16
-8.65712e-15
-3.41542e-13
-9.35798e-12
-1.62257e-10
-2.1788e-09
-6.74108e-09
-5.1593e-09
1.20619e-27
-7.98837e-07
-2.60544e-06
-1.71411e-05
-5.49071e-05
-7.38398e-05
-2.29635e-05
-1.22359e-06
-1.03173e-06
-0.0665913
-1.29352
-7.28433
-41.8315
-183.087
-484.175
-2.69402e-15
-1.75464e-13
-6.30411e-12
-1.38928e-10
-2.05925e-09
-2.32373e-08
-4.52295e-08
-3.70297e-08
-4.88618e-28
-5.46882e-06
-0.000168384
-0.00173205
-0.00227256
-0.00136347
-8.97252e-05
-1.3557e-06
-6.16457e-06
-6.16439e-06
-0.000196907
-0.00390371
-0.145275
-2.84161
-20.0555
-6.36959e-15
-3.99684e-13
-1.36183e-11
-2.72893e-10
-3.92096e-09
-4.23802e-08
-6.53308e-08
-6.69158e-08
-9.76888e-10
-9.76971e-10
-0.00230159
-0.00350439
-0.00350388
-0.00189343
-3.47755e-05
-3.48698e-06
-3.48709e-06
-0.000210263
-0.00122356
-0.00122389
-0.00235166
-0.00375471
-0.0377233
-8.30442e-15
-5.13885e-13
-1.71535e-11
-3.32061e-10
-4.65799e-09
-4.88677e-08
-6.61865e-08
-1.21212e-07
-6.66136e-10
-8.4417e-05
-0.00331675
-0.003785
-0.00189732
-0.000164146
-7.04768e-05
-7.802e-05
-2.46323e-05
-1.64543e-06
-0.00777572
-0.0286807
-0.0250728
-0.00626878
-0.00626527
-8.98631e-15
-5.51023e-13
-1.80836e-11
-3.38856e-10
-4.26361e-09
-4.35343e-08
-3.73942e-08
-3.74814e-07
-7.22963e-10
-0.000174693
-0.000275476
-0.000165657
-2.4165e-08
-2.41242e-08
-7.25656e-05
-0.000130014
-8.78553e-05
-1.8518e-06
-1.55173e-08
-0.0175131
-0.0609889
-0.0672363
-0.0672495
-7.14059e-15
-4.14389e-13
-1.26545e-11
-2.16682e-10
-2.22777e-09
-2.27025e-08
-6.22636e-09
-9.58556e-07
-6.49184e-06
-2.33499e-08
-2.33333e-08
-2.33373e-08
-4.84889e-07
-1.92067e-06
-7.80301e-06
-9.19297e-05
-8.86432e-05
-1.53163e-05
-1.97855e-08
-5.36839e-13
-5.51185e-13
-0.0048579
-0.0405547
-3.48102e-15
-1.98112e-13
-5.91933e-12
-9.91801e-11
-9.68593e-10
-9.42544e-09
-1.76278e-09
-1.36021e-06
-6.87813e-06
-1.90824e-06
-2.5903e-07
-2.78724e-07
-1.30199e-06
-7.14929e-06
-1.32835e-06
-2.22752e-07
-2.22753e-07
-3.14793e-07
-2.57146e-07
-8.87803e-08
-1.19001e-08
-4.68216e-10
-4.68409e-10
-1.34342e-15
-7.48477e-14
-2.1946e-12
-3.61484e-11
-3.584e-10
-3.27929e-09
-1.87828e-09
-1.02487e-06
-1.50004e-06
-1.0394e-06
-3.5358e-07
-3.92098e-07
-1.14119e-06
-2.67751e-06
-2.72612e-06
-2.2752e-06
-1.54134e-06
-9.54573e-07
-4.71206e-07
-2.05184e-07
-8.02474e-08
-2.3485e-08
-8.33411e-10
-4.1564e-16
-2.28452e-14
-6.63431e-13
-1.08815e-11
-1.11346e-10
-9.68863e-10
-1.99378e-09
-3.21406e-07
-3.79188e-07
-3.96121e-07
-2.297e-07
-1.69334e-07
-4.69537e-07
-6.11242e-07
-9.42808e-07
-1.18565e-06
-1.16693e-06
-7.82474e-07
-3.33666e-07
-1.48592e-07
-7.03709e-08
-3.38214e-08
-1.57816e-08
-1.01945e-16
-5.55668e-15
-1.61019e-13
-2.66684e-12
-2.87038e-11
-2.44879e-10
-2.50162e-09
-4.02161e-08
-8.29905e-08
-7.84557e-08
-4.55814e-08
-3.47701e-08
-6.91335e-08
-1.57079e-07
-2.10271e-07
-2.12121e-07
-1.92407e-07
-1.40274e-07
-7.46865e-08
-3.60161e-08
-1.71708e-08
-8.18317e-09
-4.08096e-09
-1.94752e-17
-1.07377e-15
-3.16139e-14
-5.42165e-13
-6.28849e-12
-5.78357e-11
-1.46804e-09
-2.30353e-09
-3.43002e-09
-3.48792e-09
-3.4474e-09
-7.37914e-09
-1.58538e-08
-2.36653e-08
-2.65033e-08
-2.62073e-08
-2.46157e-08
-2.03262e-08
-1.2906e-08
-6.27847e-09
-2.95968e-09
-1.34062e-09
-6.57357e-10
-2.80972e-18
-1.58659e-16
-4.83072e-15
-8.80599e-14
-1.12307e-12
-1.10121e-11
-2.91729e-10
-3.1662e-10
-2.04952e-10
-1.42992e-10
-3.92747e-10
-1.80168e-09
-4.67545e-09
-5.82264e-09
-5.78346e-09
-5.27085e-09
-4.27684e-09
-2.91315e-09
-1.56031e-09
-7.63545e-10
-3.50455e-10
-1.35708e-10
-1.09309e-10
-2.92643e-19
-1.76229e-17
-5.76334e-16
-1.15591e-14
-1.63641e-13
-1.60913e-12
-2.75495e-11
-5.31836e-11
-5.0808e-11
-3.87199e-11
-9.2789e-11
-3.56327e-10
-7.8738e-10
-8.98467e-10
-8.66035e-10
-7.45424e-10
-5.4726e-10
-3.11348e-10
-1.53288e-10
-7.07758e-11
-2.6364e-11
-1.67678e-11
-5.09537e-11
-2.05064e-20
-1.38611e-18
-5.07932e-17
-1.14414e-15
-1.76783e-14
-1.74032e-13
-1.30361e-12
-1.93519e-12
-2.02998e-12
-3.25284e-12
-1.2762e-11
-4.32776e-11
-7.34932e-11
-7.58531e-11
-7.1584e-11
-6.1185e-11
-4.61045e-11
-2.76829e-11
-1.33824e-11
-5.41542e-12
-2.23556e-12
-5.71953e-12
-5.07438e-11
-8.66736e-22
-7.15468e-20
-3.08526e-18
-7.83985e-17
-1.28351e-15
-1.21349e-14
-6.42739e-14
-8.04271e-14
-1.1636e-13
-3.19776e-13
-1.30123e-12
-3.28848e-12
-3.59735e-12
-3.33396e-12
-3.23984e-12
-3.1201e-12
-2.74299e-12
-1.97289e-12
-9.54314e-13
-3.0515e-13
-3.91883e-13
-4.45e-12
-4.45382e-11
-1.90477e-23
-1.97819e-21
-1.00964e-19
-2.8152e-18
-4.72018e-17
-4.14245e-16
-1.52449e-15
-2.99583e-15
-8.05911e-15
-2.85198e-14
-9.94941e-14
-1.37919e-13
-1.10674e-13
-8.73114e-14
-1.04307e-13
-1.24292e-13
-1.15621e-13
-8.51492e-14
-3.57991e-14
-1.74105e-14
-1.61338e-13
-2.84105e-12
-2.86711e-11
-2.73682e-25
-1.81395e-23
-6.64251e-22
-1.61501e-20
-3.16293e-19
-4.06328e-18
-2.45052e-17
-1.155e-16
-5.24459e-16
-1.87315e-15
-4.55974e-15
-5.36289e-15
-4.46946e-15
-3.48564e-15
-3.70318e-15
-3.79846e-15
-3.33593e-15
-2.18307e-15
-7.4442e-16
-2.38987e-15
-7.92084e-14
-1.42341e-12
-2.32992e-11
-1.52928e-26
-1.07049e-24
-4.00591e-23
-9.6831e-22
-1.86146e-20
-2.43608e-19
-1.49767e-18
-6.74462e-18
-2.73409e-17
-8.51546e-17
-1.50924e-16
-1.7341e-16
-1.62169e-16
-1.16929e-16
-5.40823e-17
-2.8476e-17
-1.79331e-17
-8.36477e-18
-2.47556e-17
-9.28959e-16
-3.31658e-14
-8.78296e-13
-2.46544e-11
-4.18839e-28
-3.01164e-26
-1.10114e-24
-2.41662e-23
-3.69103e-22
-3.91122e-21
-3.14218e-20
-1.82054e-19
-7.85187e-19
-2.25176e-18
-4.08164e-18
-6.02334e-18
-5.78645e-18
-4.27881e-18
-1.75774e-18
-4.66639e-19
-1.04888e-19
-4.00795e-19
-1.10614e-17
-4.09734e-16
-1.66165e-14
-7.90184e-13
-3.37985e-11
-1.85838e-33
-9.13816e-32
-2.23243e-30
-3.18904e-29
-2.90349e-28
-1.00353e-27
-2.38429e-27
-1.98501e-26
-1.30607e-25
-5.44673e-25
-1.50191e-24
-2.31259e-24
-2.14844e-24
-1.24767e-24
-1.92599e-24
-8.93144e-23
-4.72799e-21
-1.91293e-19
-5.79648e-18
-2.13493e-16
-1.30562e-14
-9.04691e-13
-4.4625e-11
-1.38202e-37
-9.1352e-36
-3.20386e-34
-7.37308e-33
-1.3424e-31
-2.26263e-30
-7.46027e-29
-1.34198e-27
-1.01853e-26
-4.46656e-26
-1.22593e-25
-1.80355e-25
-1.62372e-25
-8.80293e-26
-4.76971e-25
-3.59028e-23
-2.05851e-21
-8.85201e-20
-2.84738e-18
-1.33651e-16
-1.32919e-14
-1.0681e-12
-5.06936e-11
-7.69871e-41
-4.93372e-39
-1.61374e-37
-3.2753e-36
-4.69858e-35
-4.91815e-34
-3.94981e-33
-2.44579e-32
-1.19103e-31
-4.82721e-31
-1.74694e-30
-1.87608e-29
-3.23318e-29
-1.17299e-27
-1.3484e-25
-1.24072e-23
-7.70135e-22
-3.54978e-20
-1.28059e-18
-8.58245e-17
-1.35498e-14
-1.11015e-12
-5.071e-11
-2.2813e-46
-1.88708e-44
-8.11378e-43
-2.23004e-41
-4.45854e-40
-6.79952e-39
-8.28134e-38
-8.25035e-37
-6.73515e-36
-4.65448e-35
-2.85468e-34
-8.43161e-33
-1.50356e-30
-2.67689e-28
-3.52103e-26
-3.60871e-24
-2.42737e-22
-1.21533e-20
-5.16277e-19
-4.81704e-17
-9.57561e-15
-7.53236e-13
-2.9585e-11
-7.63502e-50
-6.82447e-48
-3.17175e-46
-9.55486e-45
-2.12447e-43
-3.72261e-42
-5.38498e-41
-6.66118e-40
-6.96265e-39
-7.24402e-38
-3.84385e-36
-1.01116e-33
-2.41033e-31
-4.97771e-29
-7.45421e-27
-8.55249e-25
-6.25536e-23
-3.48778e-21
-1.8135e-19
-2.11253e-17
-3.64951e-15
-2.76451e-13
-1.08459e-11
-3.19978e-56
-3.54193e-54
-2.26008e-52
-1.0436e-50
-3.81036e-49
-1.12426e-47
-2.71043e-46
-8.58533e-45
-1.79786e-42
-7.73132e-40
-2.97471e-37
-1.04744e-34
-2.95306e-32
-7.12746e-30
-1.2353e-27
-1.59396e-25
-1.2783e-23
-8.24511e-22
-5.32275e-20
-6.54239e-18
-9.18141e-16
-6.76197e-14
-2.67461e-12
-1.89062e-61
-3.4489e-59
-3.387e-57
-2.24253e-55
-1.13021e-53
-6.57163e-52
-1.78229e-49
-1.10121e-46
-6.49545e-44
-3.54243e-41
-1.68463e-38
-7.22514e-36
-2.50803e-33
-7.22447e-31
-1.49958e-28
-2.20482e-26
-1.98339e-24
-1.55574e-22
-1.23487e-20
-1.2689e-18
-1.23887e-16
-8.33159e-15
-3.28099e-13
-1.21426e-65
-3.22228e-63
-4.45779e-61
-4.18483e-59
-4.13005e-57
-1.65357e-54
-1.46324e-51
-1.31173e-48
-1.05969e-45
-7.93239e-43
-5.18083e-40
-2.94036e-37
-1.34955e-34
-4.79962e-32
-1.2443e-29
-2.13543e-27
-2.23903e-25
-2.24133e-23
-2.1872e-21
-1.56713e-19
-7.65727e-18
-2.82091e-16
-9.1903e-15
-3.46532e-70
-1.35763e-67
-3.01811e-65
-6.72917e-63
-4.13196e-60
-5.31908e-57
-6.93465e-54
-8.60305e-51
-9.68455e-48
-1.00432e-44
-8.92954e-42
-6.72245e-39
-3.97373e-36
-1.807e-33
-5.96988e-31
-1.28754e-28
-1.68867e-26
-2.24998e-24
-2.88507e-22
-2.5801e-20
-1.54799e-18
-7.01777e-17
-3.97494e-15
-5.82113e-74
-2.89348e-71
-8.39761e-69
-2.69711e-66
-2.42819e-63
-4.17287e-60
-7.75382e-57
-1.40102e-53
-2.32633e-50
-3.66621e-47
-4.76653e-44
-5.58006e-41
-5.01955e-38
-3.54236e-35
-1.7117e-32
-5.07066e-30
-8.58729e-28
-1.46552e-25
-2.52438e-23
-3.00575e-21
-2.36777e-19
-1.39883e-17
-1.88045e-15
-3.16709e-78
-2.25417e-75
-9.49735e-73
-4.18821e-70
-4.8111e-67
-1.20342e-63
-3.32685e-60
-9.56289e-57
-2.42439e-53
-5.75724e-50
-1.13968e-46
-2.05949e-43
-2.63648e-40
-2.82515e-37
-1.87042e-34
-8.52593e-32
-2.05042e-29
-4.69562e-27
-1.22606e-24
-2.24375e-22
-2.60144e-20
-2.19124e-18
-6.98742e-16
-1.0824e-82
-1.0998e-79
-6.63976e-77
-3.79519e-74
-4.84717e-71
-1.6143e-67
-6.46363e-64
-2.71634e-60
-1.04369e-56
-3.82808e-53
-1.20849e-49
-3.3385e-46
-6.90698e-43
-1.23191e-39
-1.30839e-36
-9.87814e-34
-3.47351e-31
-1.07491e-28
-4.23626e-26
-1.14021e-23
-1.86297e-21
-2.23271e-19
-1.31133e-16
-9.57038e-88
-1.57114e-84
-1.49982e-81
-1.18122e-78
-1.38941e-75
-5.93383e-72
-3.70766e-68
-2.29477e-64
-1.39647e-60
-7.75927e-57
-3.79855e-53
-1.60363e-49
-5.7405e-46
-1.61935e-42
-2.84927e-39
-3.58266e-36
-2.08091e-33
-8.27829e-31
-4.39435e-28
-1.97275e-25
-5.49012e-23
-1.95357e-20
-2.28035e-17
-9.70673e-93
-9.19776e-89
-1.95349e-84
-3.71491e-80
-5.14381e-76
-5.09949e-72
-3.45539e-68
-1.66374e-64
-6.02319e-61
-2.18135e-57
-7.0903e-54
-1.36944e-50
-2.14797e-47
-2.91442e-44
-3.4537e-41
-3.80979e-38
-2.67284e-35
-1.42549e-32
-1.05821e-29
-6.27066e-27
-2.60862e-24
-2.46581e-20
-5.8093e-18
-2.93026e-92
-1.28574e-87
-3.1825e-83
-5.41157e-79
-6.81861e-75
-6.75769e-71
-4.72302e-67
-2.35226e-63
-8.74422e-60
-3.05482e-56
-1.03671e-52
-1.97931e-49
-2.94103e-46
-3.53185e-43
-3.32652e-40
-2.43009e-37
-1.38343e-34
-6.20009e-32
-2.18917e-29
-6.78988e-27
-2.55967e-24
-1.06988e-21
-2.75187e-19
-5.36848e-91
-2.38769e-86
-5.30958e-82
-7.86164e-78
-8.45363e-74
-7.78145e-70
-5.56749e-66
-2.87264e-62
-1.09892e-58
-3.21569e-55
-7.28753e-52
-1.33508e-48
-1.92928e-45
-2.20106e-42
-1.96363e-39
-1.38183e-36
-7.64587e-34
-3.35831e-31
-1.17299e-28
-3.26035e-26
-7.16463e-24
-1.21586e-21
-1.52109e-19
-1.05063e-89
-4.4667e-85
-9.3771e-81
-1.27911e-76
-1.21484e-72
-8.24184e-69
-3.9515e-65
-1.35491e-61
-3.34552e-58
-6.10614e-55
-8.41282e-52
-9.09268e-49
-7.64583e-46
-5.08089e-43
-2.69395e-40
-1.16167e-37
-4.13429e-35
-1.24448e-32
-3.22434e-30
-7.3064e-28
-1.44744e-25
-2.46157e-23
-3.44989e-21
-1.03374e-88
-4.02564e-84
-7.34127e-80
-8.21681e-76
-6.20612e-72
-3.34363e-68
-1.31688e-64
-3.87915e-61
-8.6249e-58
-1.46821e-54
-1.92413e-51
-1.96411e-48
-1.56751e-45
-9.87252e-43
-4.92189e-40
-1.95709e-37
-6.22838e-35
-1.59918e-32
-3.32536e-30
-5.63013e-28
-7.97756e-26
-9.62339e-24
-9.99944e-22
-533.071
-533.465
-431.579
-47.0328
-658.489
-658.659
-650.158
-643.589
-783.852
-783.853
-783.599
-783.851
-909.051
-909.047
-909.042
-909.045
-1034.25
-1034.25
-1034.25
-1034.25
-757.228
-945.191
-1069.46
-1158.94
-63.6178
-130.239
-223.432
-346.282
-0.243579
-0.965263
-2.91355
-6.86716
-0.00746981
-0.00766704
-0.00595402
-0.00571634
-0.0672642
-0.0570086
-0.0103009
-2.94898e-06
-0.0723501
-0.072338
-0.0258123
-1.83806e-06
-0.00114871
-0.00377951
-0.00580584
-0.00257019
-4.99102e-10
-4.98896e-10
-4.99102e-10
-4.20733e-05
-9.33261e-09
-5.96326e-09
-1.30682e-09
-5.29795e-10
-2.48566e-09
-1.7918e-09
-1.41563e-09
-9.28864e-10
-4.08135e-10
-3.23303e-10
-3.25105e-10
-3.6395e-10
-1.25733e-10
-1.61029e-10
-2.48134e-10
-5.38987e-10
-1.07227e-10
-1.87368e-10
-3.90315e-10
-9.42673e-10
-1.19392e-10
-2.11525e-10
-4.55774e-10
-1.16771e-09
-1.04947e-10
-1.96688e-10
-4.73937e-10
-1.74061e-09
-7.69764e-11
-1.83155e-10
-6.43099e-10
-3.47196e-09
-7.62379e-11
-2.8351e-10
-1.5803e-09
-8.67974e-09
-1.17334e-10
-6.62456e-10
-4.30141e-09
-2.30647e-08
-2.26503e-10
-1.50692e-09
-1.02034e-08
-5.72495e-08
-3.55057e-10
-2.59804e-09
-1.83606e-08
-8.77911e-08
-4.51686e-10
-3.46659e-09
-2.5323e-08
-1.02439e-07
-4.90203e-10
-3.85268e-09
-2.56366e-08
-1.01172e-07
-3.51194e-10
-2.86959e-09
-1.73719e-08
-4.76683e-08
-1.33455e-10
-1.0986e-09
-6.47138e-09
-1.56065e-08
-3.63925e-11
-3.14123e-10
-1.79661e-09
-3.63923e-09
-4.97993e-12
-4.69936e-11
-2.5848e-10
-5.517e-10
-1.77079e-13
-2.14417e-12
-2.23997e-11
-2.73442e-10
-1.1587e-13
-2.2342e-12
-4.22824e-11
-6.63387e-10
-9.04104e-14
-2.67394e-12
-5.9637e-11
-9.3556e-10
-4.95794e-14
-1.82821e-12
-4.418e-11
-6.99502e-10
-6.32697e-15
-1.25598e-13
-1.70032e-12
-1.61086e-11
-1.54348e-15
-4.05369e-14
-7.05209e-13
-8.79318e-12
-3.74536e-16
-1.0666e-14
-2.10664e-13
-2.99161e-12
-2.56058e-17
-1.08958e-15
-3.19191e-14
-6.40449e-13
-1.02504e-17
-3.4756e-16
-8.92392e-15
-1.71082e-13
-2.79018e-19
-1.22014e-17
-4.34581e-16
-1.23193e-14
-6.28596e-20
-2.1775e-18
-6.37675e-17
-1.56654e-15
-0.897747
-0.00652473
-9.1605e-06
-1.97258e-07
-1.66986e-07
-1.19971e-07
-6.38379e-08
-1.47258e-08
-6.31226e-09
-5.58508e-09
-8.93721e-10
-4.52592e-09
-9.10751e-09
-1.60729e-08
-6.22498e-08
-1.02787e-07
-1.01392e-07
-6.88777e-08
-7.4919e-08
-261.997
-2.42145
-0.0076899
-1.52449e-07
-1.93518e-07
-2.43229e-07
-2.42311e-07
-1.67931e-07
-2.51281e-07
-4.18634e-07
-3.25612e-07
-2.70979e-09
-2.70976e-09
-1.56149e-08
-1.15591e-07
-1.73635e-07
-1.61741e-07
-8.50421e-08
-8.50436e-08
-711.302
-200.725
-0.00154377
-1.47366e-08
-1.47366e-08
-4.94293e-08
-4.81897e-08
-1.09671e-07
-2.74517e-07
-1.26025e-06
-1.32338e-05
-2.89686e-05
-2.06468e-05
-5.87083e-09
-5.93839e-09
-2.54472e-08
-1.12401e-06
-1.33812e-06
-3.90285e-07
-909.051
-775.876
-381.99
-78.29
-3.22879e-13
-3.24185e-13
-3.22933e-13
-3.24185e-13
-3.2294e-13
-3.24197e-13
-2.39514e-07
-1.48999e-05
-0.000143092
-0.00031619
-0.000316062
-2.70155e-05
-0.000658468
-0.000650327
-9.93723e-05
-1034.25
-1031.52
-991.361
-841.652
-621.925
-440.703
-345.472
-249.314
-143.909
-68.428
-3.66608e-13
-3.66424e-13
-3.66547e-13
-3.66433e-13
-3.60806e-05
-3.96258e-08
-0.00143516
-0.0158278
-0.0794225
-1159.44
-1159.44
-1159.44
-1157.71
-1151.17
-1137.79
-1115.23
-1073.85
-1001
-904.231
-751.005
-497.38
-244.736
-13.4587
-4.44225e-08
-4.44234e-08
-0.016422
-0.0808267
-32.7964
-680.894
-1080.69
-1243.07
-1284.58
-1284.58
-1284.58
-1284.58
-1284.58
-1284.58
-1284.58
-1283.8
-1256.82
-1182.03
-1004.49
-640.246
-173.578
-36.8034
-15.308
-481.537
-30.3694
-178.756
-403.567
-640.09
-846.445
-954.98
-1003.11
-1055.21
-1128.23
-1223.77
-1329.18
-1409.71
-1409.71
-1409.71
-1388.89
-1243.21
-989.752
-765.5
-992.359
-0.0707707
-1.53314
-6.83956
-16.9554
-39.4751
-69.711
-96.1245
-129.223
-189.288
-295.524
-445.561
-659.108
-966.056
-1363.1
-1527.89
-1527.89
-1517.42
-1517.42
-1309.3
-4.17991e-06
-7.98513e-05
-0.000847679
-0.00466925
-0.0195836
-0.0601319
-0.128141
-0.294076
-0.898942
-2.96313
-8.20733
-19.2971
-69.3596
-271.797
-819.145
-1557.55
-1641.18
-1641.18
-1132.32
-2.51422e-07
-2.51423e-07
-2.51422e-07
-2.51707e-07
-2.0741e-07
-4.7298e-07
-7.96769e-06
-4.25224e-05
-8.99621e-05
-0.000275681
-0.00185982
-0.0185892
-0.600104
-0.256331
-4.51998
-874.284
-1717.87
-1764.85
-1142.66
-5.47679e-06
-2.69052e-07
-2.75348e-07
-2.6656e-07
-2.11228e-07
-1.02695e-07
-7.73134e-08
-6.28107e-06
-4.71965e-05
-4.17929e-05
-1.44308e-05
-1.15861e-05
-9.51902e-05
-0.00454601
-0.0045458
-348.11
-1625.93
-1888.6
-1096.68
-3.79162e-05
-4.98663e-06
-6.94709e-07
-2.82487e-07
-1.62055e-07
-9.40339e-08
-8.23941e-08
-1.79897e-06
-1.52131e-05
-1.97994e-05
-9.20682e-06
-4.40618e-06
-1.09123e-05
-0.000615749
-0.693944
-285.565
-1623.4
-2004.22
-991.019
-5.29576e-10
-5.86454e-08
-5.31865e-08
-3.88394e-08
-3.66076e-08
-3.8932e-08
-8.7459e-08
-6.30655e-07
-3.05519e-06
-8.94939e-06
-7.71665e-06
-4.67716e-06
-3.47927e-06
-0.00051814
-4.98643
-445.007
-1797.92
-2000.24
-694.262
-5.85232e-10
-2.91316e-09
-1.00477e-08
-7.34778e-08
-2.68376e-07
-1.38977e-07
-8.18896e-08
-1.50548e-07
-6.49126e-07
-3.56993e-06
-5.81498e-06
-4.31198e-06
-3.0255e-06
-0.00235611
-13.0563
-703.379
-1902.08
-1849.53
-704.434
-5.26014e-10
-4.18075e-08
-1.12928e-07
-1.12207e-07
-2.18626e-06
-6.95134e-06
-6.33173e-06
-2.2001e-07
-1.90796e-07
-6.21865e-07
-2.73808e-06
-3.13574e-06
-3.09403e-06
-0.0164917
-34.4137
-1025.47
-2006.25
-1995.24
-752.056
-5.38975e-10
-1.43625e-07
-2.70796e-06
-1.04652e-05
-5.5151e-06
-5.28796e-06
-3.98384e-05
-4.97471e-05
-3.41149e-05
-6.54148e-07
-6.54119e-07
-1.40541e-06
-1.40538e-06
-0.0100691
-24.0138
-707.413
-1876.64
-2098.86
-1158.03
-7.40577e-10
-6.99122e-10
-6.36617e-05
-0.000245286
-0.00023511
-7.97566e-05
-3.89787e-05
-0.000108949
-0.000197264
-0.000197008
-5.22428e-05
-3.5024e-06
-1.53177e-06
-1.53193e-06
-2.53496
-150.12
-1536.47
-1552.02
-789.732
-9.47603e-10
-7.32031e-10
-0.000226736
-0.000364462
-0.000483959
-0.000483994
-0.000144111
-3.96203e-05
-8.48846e-05
-0.000206542
-0.000167279
-3.15977e-05
-2.42405e-06
-1.60365e-06
-0.250246
-8.22447e-08
-1140.47
-997.917
-439.198
-3.56295e-09
-7.64887e-10
-0.000140401
-0.000291046
-0.00029104
-0.00138531
-0.00533558
-2.31123e-06
-1.34374e-06
-2.15852e-06
-0.00014387
-9.22737e-05
-1.03852e-05
-2.39009e-06
-7.63572e-06
-8.59397e-08
-493.361
-1656.81
-458.927
-2.13906e-08
-9.912e-09
-7.9777e-10
-0.007474
-0.00771759
-0.00180175
-0.00254155
-0.284407
-0.196678
-0.02561
-0.000394546
-4.97478e-05
-8.57474e-06
-3.86983e-06
-1.77675e-06
-8.96338e-08
-66.8373
-1728.52
-495.687
-5.63974e-08
-9.00514e-08
-8.30683e-10
-0.0577523
-0.067852
-0.00187617
-0.165303
-0.53579
-0.535489
-0.102277
-0.000568036
-1.735e-05
-6.86175e-06
-6.70507e-06
-4.49354e-06
-1.30713e-06
-9.33283e-08
-1496.22
-735.392
-7.68835e-08
-9.7043e-07
-8.63535e-10
-0.0817254
-0.0819437
-0.0674552
-0.0514565
-0.0581918
-0.557
-0.504641
-0.0578661
-0.00011416
-9.1119e-06
-9.1426e-06
-7.65423e-06
-2.30888e-06
-9.70229e-08
-486.12
-1257.5
-7.77526e-08
-8.69405e-06
-5.25453e-07
-0.0267793
-0.0330375
-0.177465
-0.120201
-0.031733
-0.464452
-0.581744
-0.11546
-0.00355604
-2.94592e-05
-9.18534e-06
-7.61706e-06
-1.73095e-06
-1.00717e-07
-1.00717e-07
-1305.37
-8.05728e-08
-1.75259e-05
-0.00181296
-0.00181755
-0.0245853
-0.181646
-0.181645
-0.0328974
-0.334263
-0.603191
-0.528622
-0.0374797
-2.69173e-05
-7.28959e-06
-5.66214e-06
-3.71078e-07
-0.149967
-1.04412e-07
-1252.32
-8.34313e-08
-4.18458e-06
-0.000434991
-0.00328455
-0.0126008
-0.0114113
-0.0188033
-0.0173487
-0.217369
-0.624424
-0.611139
-0.0214001
-2.39241e-05
-6.52235e-06
-2.09655e-06
-3.84247e-07
-0.930869
-1.08107e-07
-1332.82
-1.66582e-07
-7.79309e-08
-0.000895487
-0.0113959
-0.00236409
-0.00159986
-0.00184074
-0.0179416
-0.128868
-0.475357
-0.175167
-0.000123898
-7.72103e-06
-7.50847e-06
-4.09063e-07
-0.159735
-1.20322
-1.11801e-07
-1378.84
-8.05077e-08
-8.05074e-08
-0.000890663
-0.0108408
-0.0127178
-0.00165268
-0.0078297
-0.0183638
-0.010679
-0.0222169
-0.00365616
-0.000345839
-2.14397e-05
-4.41994e-06
-4.2256e-07
-0.835172
-1.22918
-3.54349
-907.123
-2.61126e-08
-2.28595e-07
-1.18445e-07
-0.000895706
-0.0203137
-0.00235681
-0.00213865
-0.0099107
-0.00800941
-0.000533695
-3.97824e-06
-0.000180811
-0.000119307
-4.15327e-05
-4.36099e-07
-0.47194
-0.22524
-0.834594
-37.6642
-7.31277e-09
-4.38408e-08
-1.22094e-07
-1.44001e-05
-0.00284836
-0.000226643
-0.000226705
-0.00404235
-0.00825749
-0.00188831
-1.36332e-07
-1.69212e-05
-5.46909e-05
-5.7827e-05
-0.000497024
-0.00218823
-0.00219032
-0.0512538
-0.00942409
-3.13646e-09
-4.53227e-08
-5.21335e-07
-2.69875e-06
-2.69886e-06
-0.0238537
-0.000296615
-0.0002602
-0.00234821
-0.00188021
-1.40431e-07
-1.40431e-07
-1.40431e-07
-1.40431e-07
-1.40431e-07
-1.40431e-07
-0.305295
-0.06938
-8.1956e-05
-5.34821e-09
-7.508e-08
-4.48053e-07
-2.46745e-06
-0.00120819
-0.0353998
-0.000485147
-3.94078e-06
-3.93987e-06
-0.000178233
-1.4453e-07
-4.91057
-666.163
-1329.75
-516.241
-31.4136
-0.561704
-0.0276444
-8.43364e-05
-1.22543e-08
-1.62268e-07
-1.02104e-06
-1.98836e-06
-1.47941e-05
-0.00565913
-0.0705613
-0.0348015
-4.05254e-06
-9.34075e-05
-1.48629e-07
-296.536
-2063.55
-2141.43
-1802.91
-250.879
-0.681424
-0.0111743
-7.96644e-05
-1.61233e-08
-2.00098e-07
-1.20374e-06
-2.393e-06
-1.43913e-05
-0.0096631
-0.0876166
-0.0876231
-0.0409284
-0.000807998
-1.52728e-07
-212.957
-1751.22
-2200.61
-1666.49
-183.173
-0.402042
-0.00707222
-7.13381e-05
-1.18424e-08
-1.44298e-07
-7.88668e-07
-1.27713e-06
-3.49182e-06
-0.000356302
-0.0361697
-0.089968
-0.0551516
-0.000597101
-1.56827e-07
-34.3473
-402.223
-739.104
-418.054
-55.7448
-0.338547
-0.00463282
-5.75364e-05
-1.61655e-10
-1.08637e-09
-5.35985e-09
-5.37966e-08
-5.08143e-07
-8.85321e-05
-0.00623191
-0.0598978
-0.0279833
-0.000613135
-0.904568
-1.7393
-3.15783
-4.42255
-2.70477
-4.8025
-0.831305
-0.00226209
-4.55587e-05
-1.36327e-10
-1.84846e-09
-1.67397e-08
-1.07775e-07
-5.04399e-07
-9.51013e-06
-0.000762428
-0.0124164
-0.0412543
-0.155528
-0.564434
-0.0801725
-0.00361488
-0.000230292
-8.52295e-06
-0.00721947
-0.44283
-0.0117138
-3.08005e-05
-5.17797e-11
-8.07368e-10
-9.59673e-09
-8.8311e-08
-5.35255e-07
-3.15838e-06
-0.000154584
-0.00594953
-0.0819039
-0.175436
-0.00425767
-0.000241432
-3.67581e-06
-9.94555e-08
-4.15099e-08
-4.15099e-08
-0.0488173
-0.00885309
-3.15723e-05
-1.43705e-11
-2.356e-10
-2.57156e-09
-2.43063e-08
-2.11669e-07
-1.65412e-06
-7.93782e-05
-0.00343545
-0.014081
-0.0194321
-2.69642e-07
-2.69661e-07
-2.65349e-07
-4.25159e-08
-4.25159e-08
-4.25159e-08
-6.46874e-05
-0.00755132
-0.000118632
-3.89102e-12
-6.70831e-11
-6.77925e-10
-4.30206e-09
-1.88512e-08
-1.15265e-07
-1.94411e-06
-1.81768e-05
-3.76785e-06
-1.92226e-06
-7.316e-07
-3.65549e-07
-6.50194e-06
-0.000723467
-0.0109439
-0.0165936
-0.000666444
-0.0020907
-0.000136831
-4.39007e-13
-1.19849e-11
-1.73228e-10
-1.42603e-09
-7.18468e-09
-2.03234e-08
-3.33998e-08
-4.67556e-08
-4.2641e-08
-8.7753e-08
-2.00504e-07
-2.17041e-07
-3.66423e-05
-0.0151828
-0.0579672
-0.0580407
-0.000119056
-0.00011896
-0.000111819
-5.16024e-14
-1.51664e-12
-2.43502e-11
-2.31791e-10
-1.36775e-09
-5.07472e-09
-1.18162e-08
-2.0647e-08
-4.36052e-08
-1.62206e-07
-8.54789e-07
-1.10489e-05
-0.000265475
-0.000514504
-0.000843637
-0.0666604
-0.0629597
-0.00684145
-7.08971e-05
)
;

boundaryField
{
    leftWall
    {
        type            calculated;
        value           nonuniform List<scalar> 
50
(
-29.4294
-88.2881
-147.147
-206.006
-264.864
-323.723
-382.582
-441.44
-533.467
-658.659
-773.236
-446.334
2.91069e-17
-1.46462e-16
-2.69402e-15
-6.36959e-15
-8.30442e-15
-8.98631e-15
-7.14059e-15
-3.48102e-15
-1.34342e-15
-4.1564e-16
-1.01945e-16
-1.94752e-17
-2.80972e-18
-2.92643e-19
-2.05064e-20
-8.66736e-22
-1.90477e-23
-2.73682e-25
-1.52928e-26
-4.18839e-28
-1.85838e-33
-1.38202e-37
-7.69871e-41
-2.2813e-46
-7.63502e-50
-3.19978e-56
-1.89062e-61
-1.21426e-65
-3.46532e-70
-5.82113e-74
-3.16709e-78
-1.0824e-82
-9.57038e-88
-9.70673e-93
-2.93026e-92
-5.36848e-91
-1.05063e-89
-1.03374e-88
)
;
    }
    rightWall
    {
        type            calculated;
        value           nonuniform List<scalar> 
50
(
-2.13337e-13
-1.43542e-11
-2.5211e-10
-2.05118e-09
-9.43575e-09
-2.66986e-08
-4.61489e-08
-6.07453e-08
-7.4919e-08
-8.50436e-08
-3.90285e-07
-9.93723e-05
-0.0794225
-32.7964
-481.537
-992.359
-1309.3
-1132.32
-1142.66
-1096.68
-991.019
-694.262
-704.434
-752.056
-1158.03
-789.732
-439.198
-458.927
-495.687
-735.392
-1257.5
-1305.37
-1252.32
-1332.82
-1378.84
-907.123
-37.6642
-0.00942409
-8.1956e-05
-8.43364e-05
-7.96644e-05
-7.13381e-05
-5.75364e-05
-4.55587e-05
-3.08005e-05
-3.15723e-05
-0.000118632
-0.000136831
-0.000111819
-7.08971e-05
)
;
    }
    lowerWall
    {
        type            calculated;
        value           nonuniform List<scalar> 
62
(
0
0
0
0
0
0
0
0
0
0
0
0
0
0
0
0
0
0
0
0
0
0
0
-29.4077
-88.2444
-147.141
-205.916
-264.441
-323.205
-381.979
-440.745
-470.52
-470.868
-380.938
-41.5139
-4.93343e-21
-7.55449e-19
-5.77016e-17
-2.24576e-15
-6.49053e-14
-9.7332e-13
-2.85387e-11
-0.000157099
0
0
0
0
0
0
0
0
0
0
0
0
0
0
0
0
0
0
0
)
;
    }
    atmosphere
    {
        type            calculated;
        value           nonuniform List<scalar> 
46
(
-0
-0
-0
-0
-0
-0
-0
-0
-0
-0
-0
-0
-0
-0
-0
-0
-0
-0
-0
-0
-0
-0
-0
-0
-0
-0
-0
-0
-1.53339e-12
-2.46192e-11
-2.34352e-10
-1.38286e-09
-5.13078e-09
-1.19467e-08
-2.08751e-08
-4.40869e-08
-1.63998e-07
-8.64232e-07
-1.11709e-05
-0
-0
-0
-0.0673968
-0.0636552
-0.00691703
-7.16803e-05
)
;
    }
    defaultFaces
    {
        type            empty;
    }
}

