/*--------------------------------*- C++ -*----------------------------------*\
| =========                 |                                                 |
| \\      /  F ield         | OpenFOAM: The Open Source CFD Toolbox           |
|  \\    /   O peration     | Version:  2012                                  |
|   \\  /    A nd           | Website:  www.openfoam.com                      |
|    \\/     M anipulation  |                                                 |
\*---------------------------------------------------------------------------*/
FoamFile
{
    version     2.0;
    format      ascii;
    class       volVectorField;
    location    "0.38";
    object      Uc;
}
// * * * * * * * * * * * * * * * * * * * * * * * * * * * * * * * * * * * * * //

dimensions      [0 1 -1 0 0 0 0];


internalField   nonuniform List<vector> 
2268
(
(0.0204287 -0.00965444 0)
(0.0612621 -0.00964314 0)
(0.101198 -0.0092302 0)
(0.14052 -0.00935295 0)
(0.180154 -0.00937796 0)
(0.219035 -0.008997 0)
(0.255429 -0.00820227 0)
(0.290326 -0.00829015 0)
(0.323501 -0.00738804 0)
(0.353184 -0.00664007 0)
(0.380987 -0.00649906 0)
(0.405509 -0.00509024 0)
(0.423905 -0.00360352 0)
(0.436681 -0.00243417 0)
(0.443917 -0.000985557 0)
(0.443606 0.00113243 0)
(0.434137 0.00334228 0)
(0.413697 0.00631756 0)
(0.379873 0.009667 0)
(0.329686 0.014051 0)
(0.261906 0.017981 0)
(0.175386 0.0229076 0)
(0.0634568 0.0299875 0)
(0.0203959 -0.0289478 0)
(0.0612545 -0.0289568 0)
(0.101341 -0.0277343 0)
(0.140762 -0.0280622 0)
(0.180397 -0.028131 0)
(0.219299 -0.0270037 0)
(0.255822 -0.0246552 0)
(0.290888 -0.0249015 0)
(0.324143 -0.0221712 0)
(0.354002 -0.0199961 0)
(0.382057 -0.0195408 0)
(0.406384 -0.0151345 0)
(0.425062 -0.0110804 0)
(0.438959 -0.00756251 0)
(0.446486 -0.00283409 0)
(0.445642 0.00352619 0)
(0.43549 0.0102212 0)
(0.414249 0.0191368 0)
(0.379322 0.0293384 0)
(0.326784 0.0429264 0)
(0.25371 0.0556714 0)
(0.158804 0.0709575 0)
(0.0528014 0.0849272 0)
(0.0203707 -0.0482138 0)
(0.0613044 -0.0483452 0)
(0.10161 -0.0463382 0)
(0.141147 -0.0467736 0)
(0.180752 -0.046868 0)
(0.219662 -0.0450397 0)
(0.25642 -0.0412511 0)
(0.291796 -0.0415963 0)
(0.325205 -0.0369813 0)
(0.355442 -0.0335868 0)
(0.383772 -0.0325974 0)
(0.408003 -0.0250261 0)
(0.427405 -0.0191854 0)
(0.442548 -0.0131814 0)
(0.450777 -0.00466103 0)
(0.450864 0.00570985 0)
(0.442699 0.0166946 0)
(0.424933 0.0310973 0)
(0.395185 0.0479428 0)
(0.348795 0.0710742 0)
(0.281472 0.0938732 0)
(0.186538 0.122473 0)
(0.0653668 0.140771 0)
(0.0203912 -0.0674776 0)
(0.0614869 -0.0678478 0)
(0.102078 -0.0650666 0)
(0.141792 -0.0654989 0)
(0.181408 -0.0655816 0)
(0.220348 -0.0631173 0)
(0.257458 -0.058083 0)
(0.293303 -0.0584232 0)
(0.326986 -0.0518614 0)
(0.357771 -0.0475455 0)
(0.386525 -0.045616 0)
(0.410958 -0.0350059 0)
(0.431101 -0.0278944 0)
(0.446859 -0.0190761 0)
(0.455515 -0.00674567 0)
(0.456043 0.00750307 0)
(0.447598 0.0227513 0)
(0.428385 0.0425159 0)
(0.39652 0.0656422 0)
(0.3483 0.0980863 0)
(0.280144 0.130887 0)
(0.185221 0.175183 0)
(0.0647451 0.20226 0)
(0.0204169 -0.0867632 0)
(0.0616842 -0.0874864 0)
(0.102558 -0.0839279 0)
(0.142471 -0.0842688 0)
(0.182145 -0.0842835 0)
(0.221138 -0.0812461 0)
(0.258638 -0.0752147 0)
(0.294957 -0.0753953 0)
(0.328941 -0.066868 0)
(0.360446 -0.0619769 0)
(0.389778 -0.058636 0)
(0.414616 -0.045271 0)
(0.435649 -0.0370888 0)
(0.452399 -0.025245 0)
(0.462631 -0.00950277 0)
(0.465859 0.00848474 0)
(0.461165 0.0279785 0)
(0.447037 0.0530454 0)
(0.421719 0.0821367 0)
(0.38087 0.123685 0)
(0.319208 0.16664 0)
(0.224286 0.229149 0)
(0.0829132 0.272037 0)
(0.0204984 -0.106099 0)
(0.0620186 -0.107275 0)
(0.103232 -0.102933 0)
(0.143452 -0.103133 0)
(0.183339 -0.103019 0)
(0.222525 -0.0994575 0)
(0.260517 -0.0926807 0)
(0.297322 -0.092487 0)
(0.331696 -0.0820818 0)
(0.364101 -0.0769661 0)
(0.394193 -0.0717306 0)
(0.419548 -0.0558969 0)
(0.441701 -0.0468726 0)
(0.459383 -0.0317337 0)
(0.470215 -0.0129684 0)
(0.474355 0.00846785 0)
(0.470531 0.0320205 0)
(0.456507 0.0623079 0)
(0.430287 0.0972298 0)
(0.387799 0.147976 0)
(0.324956 0.201189 0)
(0.227602 0.285468 0)
(0.0834451 0.350648 0)
(0.0206011 -0.125523 0)
(0.0622994 -0.12718 0)
(0.103784 -0.122111 0)
(0.14437 -0.122144 0)
(0.18452 -0.121833 0)
(0.223946 -0.117795 0)
(0.262446 -0.110492 0)
(0.299708 -0.109679 0)
(0.334615 -0.0976317 0)
(0.368109 -0.0925591 0)
(0.398912 -0.0849166 0)
(0.425144 -0.0670904 0)
(0.448526 -0.0571987 0)
(0.467185 -0.0385824 0)
(0.480132 -0.0173572 0)
(0.487766 0.00729188 0)
(0.488179 0.0348081 0)
(0.48002 0.070004 0)
(0.462313 0.110293 0)
(0.430964 0.169807 0)
(0.381273 0.232539 0)
(0.289897 0.343309 0)
(0.114108 0.444001 0)
(0.0207859 -0.145082 0)
(0.0626588 -0.147116 0)
(0.104467 -0.141538 0)
(0.145662 -0.141365 0)
(0.186235 -0.140761 0)
(0.226029 -0.136306 0)
(0.265124 -0.128652 0)
(0.302943 -0.127002 0)
(0.338647 -0.113679 0)
(0.373199 -0.10867 0)
(0.404598 -0.0982026 0)
(0.432126 -0.0792109 0)
(0.45729 -0.0680207 0)
(0.476992 -0.0458896 0)
(0.491275 -0.0229189 0)
(0.500211 0.00502284 0)
(0.50179 0.0361353 0)
(0.495004 0.0757395 0)
(0.478974 0.120501 0)
(0.448894 0.18863 0)
(0.399461 0.260562 0)
(0.307141 0.402099 0)
(0.122211 0.555675 0)
(-0.0029389 -0.0048543 0)
(-0.0127333 -0.00318821 0)
(-0.0388807 0.00210103 0)
(-0.0783193 0.00246427 0)
(-0.129759 0.00720461 0)
(-0.192966 0.00746825 0)
(-0.254154 0.00634405 0)
(-0.313848 0.0068313 0)
(-0.37764 0.00808588 0)
(-0.44755 0.00943239 0)
(-0.520266 0.00927898 0)
(-0.603334 0.0138347 0)
(-0.696782 0.0136934 0)
(-0.804088 0.0197295 0)
(-0.913526 0.0146009 0)
(-0.986625 0.00427205 0)
(-0.960274 -0.0277004 0)
(-0.697934 -0.0961098 0)
(-0.243177 -0.109552 0)
(-0.00303061 -0.0145237 0)
(-0.0180115 -0.0073974 0)
(-0.0496051 0.00645268 0)
(-0.0838937 0.00505277 0)
(-0.129118 0.0213104 0)
(-0.192764 0.0228947 0)
(-0.255105 0.019033 0)
(-0.315055 0.0206022 0)
(-0.378401 0.0239598 0)
(-0.446202 0.0276983 0)
(-0.516426 0.0273757 0)
(-0.59849 0.0415387 0)
(-0.693148 0.0415609 0)
(-0.80376 0.0601142 0)
(-0.92 0.0457699 0)
(-1.00588 0.0162846 0)
(-0.991687 -0.0813964 0)
(-0.730399 -0.289586 0)
(-0.257931 -0.334929 0)
(-0.0123029 -0.0202098 0)
(-0.0258669 -0.0139857 0)
(-0.0420487 0.00894545 0)
(-0.0747544 0.00663703 0)
(-0.125097 0.0359544 0)
(-0.190683 0.0387953 0)
(-0.252914 0.0316921 0)
(-0.312479 0.0343482 0)
(-0.375832 0.0396722 0)
(-0.444446 0.0455754 0)
(-0.5166 0.0456219 0)
(-0.600893 0.069615 0)
(-0.696909 0.0701488 0)
(-0.81054 0.102469 0)
(-0.934595 0.081186 0)
(-1.04235 0.0387937 0)
(-1.05924 -0.127197 0)
(-0.813747 -0.483781 0)
(-0.300229 -0.58456 0)
(-0.00137804 -0.0265982 0)
(-0.00883732 -0.0230699 0)
(-0.0347931 0.0115372 0)
(-0.0709949 0.0089373 0)
(-0.121627 0.0521835 0)
(-0.190372 0.0552811 0)
(-0.254163 0.0443837 0)
(-0.314963 0.0484239 0)
(-0.377479 0.0547032 0)
(-0.439751 0.0617825 0)
(-0.503746 0.0628892 0)
(-0.584107 0.0979463 0)
(-0.68274 0.100173 0)
(-0.805117 0.148393 0)
(-0.944776 0.122996 0)
(-1.08609 0.0784928 0)
(-1.16622 -0.150061 0)
(-0.996806 -0.661802 0)
(-0.410118 -0.89893 0)
(-0.0112311 -0.0334416 0)
(-0.0182538 -0.0344793 0)
(-0.0285799 0.0139654 0)
(-0.0600727 0.0108869 0)
(-0.113056 0.0698881 0)
(-0.185593 0.0732491 0)
(-0.25102 0.0569535 0)
(-0.310426 0.0625549 0)
(-0.373067 0.0693769 0)
(-0.438309 0.0769135 0)
(-0.505542 0.0791405 0)
(-0.58735 0.126237 0)
(-0.686305 0.131489 0)
(-0.811025 0.197744 0)
(-0.960277 0.172099 0)
(-1.14908 0.14538 0)
(-1.32796 -0.131169 0)
(-1.29261 -0.792219 0)
(-0.595683 -1.3391 0)
(0.00607366 -0.0434537 0)
(0.00705867 -0.0463097 0)
(-0.0180134 0.0164411 0)
(-0.0529007 0.0122322 0)
(-0.107706 0.0899742 0)
(-0.18658 0.0931458 0)
(-0.255037 0.069581 0)
(-0.316306 0.0768294 0)
(-0.377357 0.0832852 0)
(-0.432333 0.0897078 0)
(-0.484325 0.0926239 0)
(-0.55593 0.153573 0)
(-0.655666 0.164231 0)
(-0.792474 0.251808 0)
(-0.9716 0.233279 0)
(-1.22888 0.249534 0)
(-1.4979 -0.0691837 0)
(-1.51157 -0.888003 0)
(-0.708386 -1.90625 0)
(-0.0107535 -0.0536679 0)
(-0.00582081 -0.0630201 0)
(-0.00359707 0.0184618 0)
(-0.035237 0.0140977 0)
(-0.0978104 0.113622 0)
(-0.182831 0.114793 0)
(-0.249148 0.0808381 0)
(-0.307215 0.0919065 0)
(-0.372233 0.0974034 0)
(-0.432721 0.100271 0)
(-0.488338 0.103399 0)
(-0.560999 0.179727 0)
(-0.655211 0.196138 0)
(-0.783949 0.308417 0)
(-0.975305 0.309831 0)
(-1.27371 0.384967 0)
(-1.55305 0.00420244 0)
(-1.45867 -1.02045 0)
(-0.635713 -2.49 0)
(0.0241892 -0.0716087 0)
(0.0333241 -0.0754897 0)
(0.000898522 0.019373 0)
(-0.0258491 0.0136138 0)
(-0.0867095 0.142197 0)
(-0.187368 0.140781 0)
(-0.260939 0.089932 0)
(-0.317983 0.107352 0)
(-0.382693 0.112712 0)
(-0.433677 0.107949 0)
(-0.469034 0.109986 0)
(-0.523615 0.20283 0)
(-0.607426 0.224325 0)
(-0.73748 0.365877 0)
(-0.948527 0.399122 0)
(-1.25526 0.528704 0)
(-1.45413 0.0393875 0)
(-1.21487 -1.22227 0)
(-0.478406 -2.97566 0)
(0.0210464 -0.176062 0)
(0.0632315 -0.17833 0)
(0.105493 -0.172565 0)
(0.147459 -0.171991 0)
(0.188681 -0.170748 0)
(0.229134 -0.16579 0)
(0.269152 -0.157871 0)
(0.308059 -0.154767 0)
(0.345382 -0.140305 0)
(0.381421 -0.134599 0)
(0.413766 -0.119626 0)
(0.443954 -0.101143 0)
(0.471759 -0.0859313 0)
(0.493504 -0.0591486 0)
(0.510983 -0.033981 0)
(0.524867 -0.00209386 0)
(0.534151 0.033173 0)
(0.540742 0.0752824 0)
(0.545882 0.123367 0)
(0.555811 0.189998 0)
(0.574484 0.263785 0)
(0.619109 0.397646 0)
(0.696702 0.569509 0)
(0.0215957 -0.218926 0)
(0.064594 -0.221094 0)
(0.107781 -0.215696 0)
(0.151126 -0.214615 0)
(0.193674 -0.212333 0)
(0.235456 -0.206869 0)
(0.277001 -0.198781 0)
(0.317636 -0.193814 0)
(0.357181 -0.178528 0)
(0.395168 -0.170789 0)
(0.430421 -0.151387 0)
(0.464524 -0.134008 0)
(0.494941 -0.111592 0)
(0.521062 -0.0816032 0)
(0.543708 -0.0518615 0)
(0.559974 -0.0145211 0)
(0.569515 0.0266771 0)
(0.573961 0.0706834 0)
(0.575664 0.121086 0)
(0.581701 0.176229 0)
(0.598749 0.241646 0)
(0.645804 0.327625 0)
(0.747135 0.459657 0)
(0.0220141 -0.262767 0)
(0.0656391 -0.264335 0)
(0.109532 -0.259997 0)
(0.15392 -0.258512 0)
(0.197565 -0.255089 0)
(0.240543 -0.249327 0)
(0.283489 -0.241271 0)
(0.325903 -0.234828 0)
(0.3676 -0.219207 0)
(0.408212 -0.209153 0)
(0.447321 -0.187811 0)
(0.484268 -0.169043 0)
(0.517269 -0.140346 0)
(0.548486 -0.110519 0)
(0.57495 -0.0723387 0)
(0.595723 -0.0312946 0)
(0.613734 0.015748 0)
(0.62862 0.0622389 0)
(0.641427 0.115004 0)
(0.65828 0.159302 0)
(0.682597 0.21699 0)
(0.721686 0.265687 0)
(0.787123 0.353952 0)
(0.0224431 -0.30798 0)
(0.0667079 -0.308522 0)
(0.11136 -0.305874 0)
(0.156962 -0.304147 0)
(0.201954 -0.299589 0)
(0.246444 -0.293762 0)
(0.291176 -0.285948 0)
(0.335584 -0.27836 0)
(0.379371 -0.262494 0)
(0.422212 -0.250591 0)
(0.46343 -0.227909 0)
(0.502584 -0.20618 0)
(0.541149 -0.175848 0)
(0.577045 -0.14315 0)
(0.607406 -0.0974538 0)
(0.63651 -0.0568824 0)
(0.658392 0.000712813 0)
(0.669347 0.0508907 0)
(0.676029 0.106514 0)
(0.691628 0.150608 0)
(0.712255 0.19604 0)
(0.735671 0.223806 0)
(0.783284 0.282191 0)
(0.0238875 -0.355127 0)
(0.0709396 -0.354321 0)
(0.11838 -0.353806 0)
(0.166949 -0.352033 0)
(0.214415 -0.345777 0)
(0.260282 -0.339507 0)
(0.304262 -0.330444 0)
(0.344475 -0.319945 0)
(0.37985 -0.301452 0)
(0.411553 -0.287476 0)
(0.440163 -0.262074 0)
(0.468309 -0.240468 0)
(0.494534 -0.207455 0)
(0.517523 -0.171481 0)
(0.530872 -0.113768 0)
(0.535131 -0.0747615 0)
(0.565717 -0.0346561 0)
(0.619872 0.020523 0)
(0.658677 0.0909749 0)
(0.686442 0.137734 0)
(0.720356 0.168861 0)
(0.756236 0.190699 0)
(0.800805 0.240545 0)
(0.0112167 -0.39051 0)
(0.033961 -0.389289 0)
(0.0561419 -0.389012 0)
(0.0778144 -0.387626 0)
(0.0992999 -0.379685 0)
(0.119132 -0.371831 0)
(0.136838 -0.36032 0)
(0.153161 -0.347094 0)
(0.170855 -0.327844 0)
(0.19485 -0.31727 0)
(0.230659 -0.297236 0)
(0.279607 -0.283008 0)
(0.338675 -0.250861 0)
(0.406343 -0.219418 0)
(0.481213 -0.154725 0)
(0.557784 -0.115272 0)
(0.62971 -0.0972952 0)
(0.680928 -0.0226955 0)
(0.689068 0.087087 0)
(0.671964 0.130774 0)
(0.672644 0.140681 0)
(0.70029 0.154669 0)
(0.74603 0.203146 0)
(0.00741862 -0.409324 0)
(0.0228585 -0.409021 0)
(0.0373229 -0.406279 0)
(0.0505293 -0.405584 0)
(0.064205 -0.397238 0)
(0.0780019 -0.388252 0)
(0.0923381 -0.37628 0)
(0.109574 -0.365041 0)
(0.132203 -0.350608 0)
(0.162792 -0.349559 0)
(0.205334 -0.343895 0)
(0.260177 -0.340874 0)
(0.32598 -0.318713 0)
(0.400923 -0.295124 0)
(0.492974 -0.247019 0)
(0.60024 -0.207987 0)
(0.693299 -0.170648 0)
(0.769501 -0.0776544 0)
(0.837478 0.0653724 0)
(0.859183 0.147874 0)
(0.807511 0.175146 0)
(0.734854 0.165794 0)
(0.709437 0.171278 0)
(0.0089599 -0.425869 0)
(0.0265955 -0.425887 0)
(0.0437162 -0.421327 0)
(0.060247 -0.420593 0)
(0.0769484 -0.412931 0)
(0.0951 -0.404842 0)
(0.115206 -0.394482 0)
(0.138296 -0.387549 0)
(0.164831 -0.377698 0)
(0.193725 -0.382443 0)
(0.224848 -0.385244 0)
(0.25617 -0.386329 0)
(0.286467 -0.370053 0)
(0.320095 -0.35312 0)
(0.361168 -0.323046 0)
(0.41321 -0.292308 0)
(0.485973 -0.253232 0)
(0.591381 -0.177852 0)
(0.738892 -0.0512767 0)
(0.899289 0.0812308 0)
(0.993605 0.198705 0)
(0.986973 0.221822 0)
(0.922171 0.206063 0)
(0.00857267 -0.443574 0)
(0.0252275 -0.442813 0)
(0.0419168 -0.438549 0)
(0.0586433 -0.436964 0)
(0.0755726 -0.43053 0)
(0.0940055 -0.424185 0)
(0.11386 -0.415477 0)
(0.135508 -0.411695 0)
(0.15901 -0.404023 0)
(0.18298 -0.409436 0)
(0.207402 -0.414266 0)
(0.231114 -0.412813 0)
(0.255223 -0.398449 0)
(0.282643 -0.386285 0)
(0.315231 -0.364127 0)
(0.354248 -0.34297 0)
(0.397159 -0.319065 0)
(0.450378 -0.271697 0)
(0.539776 -0.19581 0)
(0.688661 -0.0853755 0)
(0.882254 0.0756464 0)
(1.04343 0.189264 0)
(1.10296 0.243667 0)
(0.00898154 -0.461299 0)
(0.0268064 -0.459906 0)
(0.0453347 -0.457017 0)
(0.0647731 -0.455011 0)
(0.0849663 -0.449961 0)
(0.106779 -0.445372 0)
(0.130043 -0.437799 0)
(0.154279 -0.435664 0)
(0.178418 -0.428114 0)
(0.199648 -0.430955 0)
(0.216825 -0.434741 0)
(0.23198 -0.431589 0)
(0.248291 -0.420491 0)
(0.267268 -0.411076 0)
(0.288844 -0.393982 0)
(0.312962 -0.376785 0)
(0.340147 -0.355923 0)
(0.374158 -0.322742 0)
(0.420913 -0.281858 0)
(0.48968 -0.218354 0)
(0.610122 -0.107299 0)
(0.790645 0.0284609 0)
(0.979948 0.154072 0)
(0.00954729 -0.480002 0)
(0.0287866 -0.478617 0)
(0.0484228 -0.476827 0)
(0.0684728 -0.475053 0)
(0.0889206 -0.470932 0)
(0.1102 -0.46788 0)
(0.132273 -0.461028 0)
(0.15468 -0.459486 0)
(0.17719 -0.451354 0)
(0.197918 -0.450065 0)
(0.215909 -0.45116 0)
(0.232928 -0.447693 0)
(0.251594 -0.439732 0)
(0.27269 -0.432308 0)
(0.295826 -0.417891 0)
(0.320387 -0.40201 0)
(0.344257 -0.382229 0)
(0.368454 -0.355164 0)
(0.395649 -0.323997 0)
(0.430988 -0.281098 0)
(0.487259 -0.222434 0)
(0.582169 -0.133529 0)
(0.728347 -0.021436 0)
(0.0100757 -0.499804 0)
(0.0303961 -0.498734 0)
(0.0511458 -0.497461 0)
(0.0722835 -0.495978 0)
(0.0938198 -0.492367 0)
(0.116198 -0.490488 0)
(0.139608 -0.484302 0)
(0.163547 -0.482964 0)
(0.188 -0.475249 0)
(0.212167 -0.47147 0)
(0.234639 -0.470602 0)
(0.256196 -0.467205 0)
(0.278199 -0.461283 0)
(0.300942 -0.45501 0)
(0.32487 -0.44269 0)
(0.350595 -0.427956 0)
(0.378271 -0.408303 0)
(0.407837 -0.383345 0)
(0.440366 -0.356072 0)
(0.475646 -0.320237 0)
(0.514177 -0.278828 0)
(0.565475 -0.224352 0)
(0.643975 -0.156719 0)
(0.0102791 -0.520341 0)
(0.0309439 -0.519548 0)
(0.0518012 -0.518623 0)
(0.0729234 -0.517449 0)
(0.0943972 -0.514285 0)
(0.116406 -0.513344 0)
(0.139175 -0.508024 0)
(0.162735 -0.507149 0)
(0.187894 -0.501097 0)
(0.214656 -0.496984 0)
(0.241593 -0.494924 0)
(0.26811 -0.491381 0)
(0.294863 -0.486295 0)
(0.322502 -0.480824 0)
(0.351513 -0.470279 0)
(0.382427 -0.457495 0)
(0.415351 -0.43988 0)
(0.451432 -0.417963 0)
(0.491279 -0.394421 0)
(0.535113 -0.361636 0)
(0.586747 -0.328296 0)
(0.648644 -0.28891 0)
(0.720264 -0.243312 0)
(0.0107674 -0.541572 0)
(0.032383 -0.540967 0)
(0.054041 -0.54009 0)
(0.0759308 -0.539368 0)
(0.0982814 -0.53657 0)
(0.121168 -0.536342 0)
(0.14474 -0.531764 0)
(0.168804 -0.53144 0)
(0.193696 -0.527277 0)
(0.219617 -0.523925 0)
(0.245992 -0.521739 0)
(0.272732 -0.518271 0)
(0.299937 -0.513818 0)
(0.327683 -0.509154 0)
(0.356593 -0.500357 0)
(0.387582 -0.489833 0)
(0.421747 -0.475176 0)
(0.460287 -0.457878 0)
(0.504188 -0.4389 0)
(0.554882 -0.412393 0)
(0.613933 -0.389024 0)
(0.681025 -0.358075 0)
(0.757254 -0.323006 0)
(0.0108825 -0.563407 0)
(0.0327244 -0.562961 0)
(0.0547645 -0.562168 0)
(0.0771208 -0.561914 0)
(0.0998866 -0.559524 0)
(0.123159 -0.559938 0)
(0.147161 -0.55614 0)
(0.171769 -0.556144 0)
(0.197169 -0.553282 0)
(0.223656 -0.550761 0)
(0.250984 -0.549049 0)
(0.279103 -0.546274 0)
(0.308221 -0.542601 0)
(0.338491 -0.538864 0)
(0.370348 -0.53191 0)
(0.404684 -0.52413 0)
(0.442364 -0.513289 0)
(0.484446 -0.501003 0)
(0.531609 -0.487516 0)
(0.584829 -0.468441 0)
(0.645533 -0.45357 0)
(0.714 -0.43002 0)
(0.791752 -0.406076 0)
(0.0109882 -0.585463 0)
(0.0330874 -0.585218 0)
(0.0554278 -0.584666 0)
(0.0780715 -0.584794 0)
(0.101024 -0.582745 0)
(0.124257 -0.58361 0)
(0.147931 -0.58054 0)
(0.171982 -0.580808 0)
(0.196532 -0.578981 0)
(0.221875 -0.577318 0)
(0.247927 -0.576308 0)
(0.274846 -0.574502 0)
(0.302946 -0.572053 0)
(0.332583 -0.569801 0)
(0.364489 -0.565242 0)
(0.399577 -0.560763 0)
(0.438849 -0.554194 0)
(0.483175 -0.547148 0)
(0.533324 -0.539386 0)
(0.590587 -0.527833 0)
(0.655341 -0.520498 0)
(0.727584 -0.504753 0)
(0.810117 -0.492686 0)
(0.0113133 -0.60795 0)
(0.0340515 -0.607941 0)
(0.0568904 -0.607497 0)
(0.0799064 -0.608 0)
(0.103242 -0.60621 0)
(0.126879 -0.607402 0)
(0.151045 -0.604982 0)
(0.175761 -0.605533 0)
(0.201095 -0.604548 0)
(0.227315 -0.603733 0)
(0.254423 -0.603483 0)
(0.282575 -0.602842 0)
(0.312119 -0.601818 0)
(0.343447 -0.601485 0)
(0.377161 -0.599689 0)
(0.413882 -0.598674 0)
(0.454276 -0.596543 0)
(0.499091 -0.594588 0)
(0.549168 -0.592883 0)
(0.605765 -0.588985 0)
(0.669791 -0.588999 0)
(0.742521 -0.582191 0)
(0.826982 -0.583328 0)
(0.0112842 -0.630732 0)
(0.033907 -0.63089 0)
(0.0565679 -0.630419 0)
(0.0793236 -0.631224 0)
(0.102288 -0.629665 0)
(0.125455 -0.631132 0)
(0.149006 -0.629357 0)
(0.173031 -0.630293 0)
(0.197572 -0.630067 0)
(0.222915 -0.630192 0)
(0.249197 -0.630842 0)
(0.276659 -0.631537 0)
(0.305693 -0.632162 0)
(0.336676 -0.633936 0)
(0.370144 -0.634932 0)
(0.406612 -0.637168 0)
(0.446791 -0.639216 0)
(0.491475 -0.642058 0)
(0.541646 -0.646366 0)
(0.598682 -0.649915 0)
(0.663627 -0.657905 0)
(0.738085 -0.66144 0)
(0.825066 -0.676621 0)
(0.0113356 -0.653535 0)
(0.034062 -0.653803 0)
(0.0568722 -0.653345 0)
(0.0798353 -0.654387 0)
(0.10306 -0.653065 0)
(0.126548 -0.654764 0)
(0.150443 -0.653554 0)
(0.174849 -0.654916 0)
(0.199793 -0.655326 0)
(0.225509 -0.656399 0)
(0.252155 -0.657984 0)
(0.279907 -0.660044 0)
(0.309067 -0.662304 0)
(0.339844 -0.66603 0)
(0.372689 -0.669654 0)
(0.408158 -0.67492 0)
(0.447032 -0.681095 0)
(0.490217 -0.688675 0)
(0.538783 -0.699176 0)
(0.593936 -0.71006 0)
(0.65712 -0.726744 0)
(0.730288 -0.741188 0)
(0.81588 -0.770544 0)
(0.011378 -0.67643 0)
(0.0341606 -0.676781 0)
(0.056956 -0.676337 0)
(0.0797815 -0.677549 0)
(0.102721 -0.676436 0)
(0.125775 -0.678307 0)
(0.149068 -0.677576 0)
(0.172739 -0.679354 0)
(0.196832 -0.680314 0)
(0.22157 -0.682267 0)
(0.247145 -0.684749 0)
(0.273709 -0.68802 0)
(0.301553 -0.691774 0)
(0.330963 -0.697209 0)
(0.362513 -0.703359 0)
(0.396713 -0.711404 0)
(0.43425 -0.72158 0)
(0.475725 -0.733456 0)
(0.52206 -0.74996 0)
(0.574212 -0.767313 0)
(0.633808 -0.793091 0)
(0.703115 -0.818243 0)
(0.784063 -0.861087 0)
(0.0114473 -0.699435 0)
(0.0343395 -0.69981 0)
(0.057198 -0.699322 0)
(0.0800071 -0.70056 0)
(0.102849 -0.699569 0)
(0.125737 -0.701479 0)
(0.148792 -0.701118 0)
(0.172123 -0.703187 0)
(0.195795 -0.704624 0)
(0.219956 -0.707242 0)
(0.244794 -0.710583 0)
(0.27044 -0.714805 0)
(0.297285 -0.720102 0)
(0.325488 -0.726937 0)
(0.355564 -0.735724 0)
(0.387747 -0.745917 0)
(0.422656 -0.760044 0)
(0.460741 -0.775124 0)
(0.502882 -0.797391 0)
(0.550018 -0.819853 0)
(0.60367 -0.85456 0)
(0.665898 -0.88917 0)
(0.737978 -0.944166 0)
(0.0114964 -0.722557 0)
(0.0344604 -0.722901 0)
(0.0573488 -0.722334 0)
(0.0801055 -0.723469 0)
(0.10281 -0.722562 0)
(0.125446 -0.724367 0)
(0.148118 -0.724317 0)
(0.170898 -0.726462 0)
(0.193901 -0.728392 0)
(0.2172 -0.731308 0)
(0.241014 -0.735553 0)
(0.265406 -0.740265 0)
(0.290811 -0.747298 0)
(0.317228 -0.754782 0)
(0.345103 -0.766272 0)
(0.374545 -0.777458 0)
(0.406201 -0.795562 0)
(0.440391 -0.812409 0)
(0.477784 -0.840208 0)
(0.519101 -0.866107 0)
(0.565166 -0.908705 0)
(0.617201 -0.950051 0)
(0.676149 -1.01517 0)
(0.0114392 -0.745668 0)
(0.0342856 -0.745951 0)
(0.0570511 -0.745288 0)
(0.0796463 -0.746216 0)
(0.102141 -0.745363 0)
(0.124464 -0.746875 0)
(0.146683 -0.747051 0)
(0.168815 -0.748991 0)
(0.190994 -0.751399 0)
(0.213246 -0.754209 0)
(0.235757 -0.759341 0)
(0.258513 -0.763994 0)
(0.281851 -0.772693 0)
(0.305845 -0.78019 0)
(0.330872 -0.794175 0)
(0.357186 -0.805738 0)
(0.385123 -0.827324 0)
(0.414986 -0.845177 0)
(0.447045 -0.8774 0)
(0.481764 -0.905498 0)
(0.519285 -0.95349 0)
(0.560286 -0.998945 0)
(0.605735 -1.07138 0)
(0.0115117 -0.768792 0)
(0.0344986 -0.769006 0)
(0.0573833 -0.768228 0)
(0.0800479 -0.768879 0)
(0.102564 -0.768054 0)
(0.124825 -0.76911 0)
(0.146858 -0.769409 0)
(0.168623 -0.770871 0)
(0.190199 -0.773615 0)
(0.211535 -0.775922 0)
(0.232768 -0.781719 0)
(0.253853 -0.785804 0)
(0.275026 -0.795748 0)
(0.296454 -0.802919 0)
(0.318274 -0.818664 0)
(0.34083 -0.830503 0)
(0.364029 -0.854094 0)
(0.388487 -0.873147 0)
(0.414077 -0.907518 0)
(0.441493 -0.937981 0)
(0.470251 -0.987777 0)
(0.500555 -1.03648 0)
(0.532283 -1.11157 0)
(0.0113327 -0.791806 0)
(0.0339661 -0.791952 0)
(0.05652 -0.79106 0)
(0.0788783 -0.791408 0)
(0.101116 -0.790616 0)
(0.123105 -0.791132 0)
(0.144833 -0.791481 0)
(0.166223 -0.792284 0)
(0.187285 -0.795171 0)
(0.207915 -0.79666 0)
(0.228148 -0.802775 0)
(0.247908 -0.805918 0)
(0.267224 -0.81645 0)
(0.286231 -0.822982 0)
(0.30474 -0.83926 0)
(0.32324 -0.851299 0)
(0.341618 -0.875218 0)
(0.360591 -0.89581 0)
(0.379958 -0.930178 0)
(0.40015 -0.963311 0)
(0.420282 -1.01173 0)
(0.440112 -1.06307 0)
(0.457677 -1.13468 0)
(0.0111517 -0.814456 0)
(0.0334219 -0.814537 0)
(0.0556534 -0.813591 0)
(0.0777437 -0.813654 0)
(0.099737 -0.812929 0)
(0.121496 -0.812895 0)
(0.142953 -0.813229 0)
(0.163984 -0.813279 0)
(0.184528 -0.816101 0)
(0.204463 -0.816611 0)
(0.223732 -0.822639 0)
(0.242251 -0.824639 0)
(0.259824 -0.83492 0)
(0.276506 -0.840499 0)
(0.291957 -0.855993 0)
(0.306715 -0.868113 0)
(0.320568 -0.890922 0)
(0.333799 -0.9126 0)
(0.346267 -0.945514 0)
(0.358014 -0.980208 0)
(0.368739 -1.02598 0)
(0.377765 -1.07796 0)
(0.382848 -1.1427 0)
(0.0107575 -0.836525 0)
(0.0322263 -0.836526 0)
(0.0537117 -0.835638 0)
(0.0751599 -0.835465 0)
(0.0965805 -0.834851 0)
(0.117903 -0.834372 0)
(0.139042 -0.834662 0)
(0.159806 -0.833954 0)
(0.180009 -0.836481 0)
(0.199504 -0.835964 0)
(0.218142 -0.84149 0)
(0.235801 -0.842255 0)
(0.252159 -0.851514 0)
(0.267204 -0.855903 0)
(0.280459 -0.869552 0)
(0.292031 -0.88113 0)
(0.301547 -0.901508 0)
(0.308921 -0.922839 0)
(0.314387 -0.953419 0)
(0.317884 -0.987746 0)
(0.319406 -1.03088 0)
(0.31823 -1.08108 0)
(0.312686 -1.13924 0)
(0.0100868 -0.857521 0)
(0.0301918 -0.857407 0)
(0.0503615 -0.856716 0)
(0.0705876 -0.856365 0)
(0.0908676 -0.855956 0)
(0.111212 -0.85524 0)
(0.131556 -0.855582 0)
(0.151714 -0.85426 0)
(0.171366 -0.856329 0)
(0.190351 -0.854889 0)
(0.208466 -0.859601 0)
(0.225558 -0.859171 0)
(0.241245 -0.866907 0)
(0.255313 -0.869874 0)
(0.267104 -0.880857 0)
(0.276301 -0.890805 0)
(0.282484 -0.907719 0)
(0.285222 -0.926899 0)
(0.284618 -0.954357 0)
(0.280475 -0.98627 0)
(0.273033 -1.02651 0)
(0.261891 -1.07317 0)
(0.246533 -1.12625 0)
(0.00934257 -0.877092 0)
(0.0279652 -0.876846 0)
(0.0466766 -0.876441 0)
(0.0654998 -0.875974 0)
(0.08445 -0.875864 0)
(0.103576 -0.875091 0)
(0.122846 -0.875633 0)
(0.14222 -0.874032 0)
(0.16142 -0.875697 0)
(0.180184 -0.873554 0)
(0.198112 -0.877255 0)
(0.214982 -0.875746 0)
(0.230341 -0.881631 0)
(0.243684 -0.882795 0)
(0.254384 -0.890639 0)
(0.2619 -0.89792 0)
(0.265629 -0.910665 0)
(0.264796 -0.925966 0)
(0.259147 -0.949107 0)
(0.248426 -0.976683 0)
(0.233057 -1.01328 0)
(0.212844 -1.055 0)
(0.188213 -1.10434 0)
(0.00821206 -0.894776 0)
(0.0246021 -0.894433 0)
(0.0410824 -0.894305 0)
(0.0576993 -0.893811 0)
(0.0745083 -0.894049 0)
(0.0915804 -0.893371 0)
(0.108916 -0.894227 0)
(0.126553 -0.892722 0)
(0.144387 -0.894312 0)
(0.162297 -0.891885 0)
(0.179851 -0.894673 0)
(0.196661 -0.892267 0)
(0.212164 -0.896217 0)
(0.225768 -0.895382 0)
(0.236915 -0.9001 0)
(0.244684 -0.903912 0)
(0.248049 -0.911894 0)
(0.245958 -0.921889 0)
(0.237629 -0.939228 0)
(0.222601 -0.960776 0)
(0.20135 -0.992471 0)
(0.174203 -1.0283 0)
(0.141049 -1.07306 0)
(0.00718564 -0.910288 0)
(0.021553 -0.909908 0)
(0.0360072 -0.909996 0)
(0.0506117 -0.909574 0)
(0.0654417 -0.91016 0)
(0.0805654 -0.909695 0)
(0.0960093 -0.910925 0)
(0.111856 -0.909755 0)
(0.128088 -0.911596 0)
(0.144717 -0.909396 0)
(0.161463 -0.911716 0)
(0.177904 -0.908726 0)
(0.193438 -0.911036 0)
(0.207412 -0.908365 0)
(0.219114 -0.910165 0)
(0.227193 -0.909861 0)
(0.230499 -0.912735 0)
(0.228212 -0.916731 0)
(0.219092 -0.926933 0)
(0.201967 -0.940839 0)
(0.177122 -0.966163 0)
(0.145651 -0.995774 0)
(0.108586 -1.03509 0)
(0.00595145 -0.923526 0)
(0.0178584 -0.923146 0)
(0.0298242 -0.923381 0)
(0.0419063 -0.92308 0)
(0.0541756 -0.92396 0)
(0.0666978 -0.923751 0)
(0.0795298 -0.925358 0)
(0.092818 -0.924675 0)
(0.106603 -0.926918 0)
(0.120921 -0.925251 0)
(0.135662 -0.92758 0)
(0.150583 -0.924458 0)
(0.165258 -0.925742 0)
(0.178996 -0.921589 0)
(0.191076 -0.920921 0)
(0.200469 -0.916745 0)
(0.205932 -0.914745 0)
(0.205869 -0.912437 0)
(0.198178 -0.914409 0)
(0.180828 -0.918789 0)
(0.153053 -0.935401 0)
(0.116217 -0.957956 0)
(0.073448 -0.992741 0)
(0.00484601 -0.934409 0)
(0.0145492 -0.934044 0)
(0.0243059 -0.934377 0)
(0.0341741 -0.934208 0)
(0.0442279 -0.935331 0)
(0.0545483 -0.935401 0)
(0.0652183 -0.937393 0)
(0.0763842 -0.937283 0)
(0.0880879 -0.939994 0)
(0.100418 -0.939026 0)
(0.113322 -0.941657 0)
(0.126673 -0.938866 0)
(0.140139 -0.939689 0)
(0.153071 -0.934518 0)
(0.164835 -0.932028 0)
(0.174452 -0.924816 0)
(0.180912 -0.918729 0)
(0.182604 -0.910162 0)
(0.177376 -0.903771 0)
(0.162878 -0.897485 0)
(0.13643 -0.902275 0)
(0.0966438 -0.914138 0)
(0.0464237 -0.943164 0)
(0.00373191 -0.943059 0)
(0.0112029 -0.942712 0)
(0.0186966 -0.943103 0)
(0.0262524 -0.943051 0)
(0.0339421 -0.944378 0)
(0.0418431 -0.944724 0)
(0.050031 -0.94708 0)
(0.0586206 -0.94751 0)
(0.0676378 -0.950652 0)
(0.0771796 -0.950411 0)
(0.0872497 -0.953424 0)
(0.0978754 -0.95126 0)
(0.108934 -0.952007 0)
(0.120057 -0.94644 0)
(0.130768 -0.94276 0)
(0.140032 -0.933127 0)
(0.146914 -0.923892 0)
(0.150061 -0.909927 0)
(0.147669 -0.896414 0)
(0.137142 -0.879753 0)
(0.114482 -0.870712 0)
(0.0757919 -0.866885 0)
(0.0211171 -0.885045 0)
(0.00277744 -0.949626 0)
(0.00833108 -0.949285 0)
(0.0138831 -0.949691 0)
(0.0194707 -0.949722 0)
(0.0251654 -0.951209 0)
(0.0310242 -0.951774 0)
(0.0371013 -0.954419 0)
(0.0434936 -0.95528 0)
(0.0502532 -0.95879 0)
(0.0575065 -0.959206 0)
(0.0652763 -0.962613 0)
(0.0736219 -0.961193 0)
(0.0825058 -0.962174 0)
(0.0917491 -0.9568 0)
(0.101069 -0.952589 0)
(0.109738 -0.941382 0)
(0.116854 -0.929765 0)
(0.120778 -0.91122 0)
(0.11989 -0.891884 0)
(0.112333 -0.866164 0)
(0.0949325 -0.844093 0)
(0.0631069 -0.822682 0)
(0.0120354 -0.823012 0)
(0.00187782 -0.954326 0)
(0.00562861 -0.953979 0)
(0.0093652 -0.954376 0)
(0.0130971 -0.954448 0)
(0.0168552 -0.956028 0)
(0.0206727 -0.956725 0)
(0.0245932 -0.959561 0)
(0.0287079 -0.960744 0)
(0.0330729 -0.964554 0)
(0.0377763 -0.965506 0)
(0.0428263 -0.969245 0)
(0.0482654 -0.968464 0)
(0.0540889 -0.969733 0)
(0.0602493 -0.964772 0)
(0.0666968 -0.960515 0)
(0.0730378 -0.948595 0)
(0.0787916 -0.935539 0)
(0.0829072 -0.913578 0)
(0.0838198 -0.889603 0)
(0.0794982 -0.856557 0)
(0.0670478 -0.823747 0)
(0.0421898 -0.786104 0)
(-0.00186692 -0.764021 0)
(0.00123833 -0.957477 0)
(0.0036684 -0.957078 0)
(0.00601049 -0.957424 0)
(0.00828136 -0.957471 0)
(0.0105103 -0.95906 0)
(0.0127365 -0.959805 0)
(0.0150069 -0.962742 0)
(0.0173848 -0.964128 0)
(0.0199041 -0.968129 0)
(0.0226225 -0.969431 0)
(0.0255709 -0.9734 0)
(0.0287977 -0.97306 0)
(0.0323551 -0.974608 0)
(0.0362438 -0.97004 0)
(0.0404677 -0.966016 0)
(0.0448649 -0.953931 0)
(0.0490963 -0.940284 0)
(0.0524649 -0.9164 0)
(0.05369 -0.888974 0)
(0.0508783 -0.850061 0)
(0.0413344 -0.808179 0)
(0.021833 -0.757127 0)
(-0.0138988 -0.71284 0)
(0.000659151 -0.9594 0)
(0.00194483 -0.958922 0)
(0.00315504 -0.959183 0)
(0.00427338 -0.95915 0)
(0.00529786 -0.960683 0)
(0.00624572 -0.961405 0)
(0.00714088 -0.964356 0)
(0.00800662 -0.965806 0)
(0.00885821 -0.969871 0)
(0.00972232 -0.971323 0)
(0.0106181 -0.975406 0)
(0.0115598 -0.975279 0)
(0.0125719 -0.977018 0)
(0.0136264 -0.972635 0)
(0.0147226 -0.968805 0)
(0.0157772 -0.956658 0)
(0.0166749 -0.942749 0)
(0.0171437 -0.91783 0)
(0.0165328 -0.8882 0)
(0.013584 -0.845083 0)
(0.00573713 -0.795714 0)
(-0.0103008 -0.733906 0)
(-0.0391057 -0.671228 0)
(0.000359086 -0.960436 0)
(0.00105126 -0.959899 0)
(0.0016592 -0.960059 0)
(0.00213079 -0.959898 0)
(0.00245805 -0.961319 0)
(0.00264797 -0.961938 0)
(0.0027034 -0.964805 0)
(0.00262731 -0.966178 0)
(0.00242416 -0.970178 0)
(0.00209451 -0.97158 0)
(0.00165958 -0.975639 0)
(0.00112637 -0.975484 0)
(0.000533968 -0.977263 0)
(-0.000131402 -0.97281 0)
(-0.000834945 -0.969054 0)
(-0.00156225 -0.956768 0)
(-0.00228969 -0.942841 0)
(-0.00304911 -0.917477 0)
(-0.00409809 -0.886916 0)
(-0.00593595 -0.841587 0)
(-0.0100338 -0.787236 0)
(-0.0189613 -0.717322 0)
(-0.037264 -0.640491 0)
(0.000138563 -0.960947 0)
(0.000377181 -0.960345 0)
(0.00051517 -0.960383 0)
(0.000515537 -0.960069 0)
(0.000363934 -0.961346 0)
(3.34984e-05 -0.961791 0)
(-0.000505614 -0.964487 0)
(-0.00127739 -0.965665 0)
(-0.00229333 -0.969487 0)
(-0.0035732 -0.970675 0)
(-0.00512442 -0.97457 0)
(-0.00698221 -0.974172 0)
(-0.0091601 -0.975812 0)
(-0.0117104 -0.97105 0)
(-0.0146699 -0.967154 0)
(-0.0181052 -0.954506 0)
(-0.0220837 -0.940395 0)