/*--------------------------------*- C++ -*----------------------------------*\
| =========                 |                                                 |
| \\      /  F ield         | OpenFOAM: The Open Source CFD Toolbox           |
|  \\    /   O peration     | Version:  2012                                  |
|   \\  /    A nd           | Website:  www.openfoam.com                      |
|    \\/     M anipulation  |                                                 |
\*---------------------------------------------------------------------------*/
FoamFile
{
    version     2.0;
    format      ascii;
    class       volScalarField;
    location    "0.38";
    object      volumeFraction1;
}
// * * * * * * * * * * * * * * * * * * * * * * * * * * * * * * * * * * * * * //

dimensions      [0 0 0 0 0 0 0];


internalField   nonuniform List<scalar> 
2268
(
1
1
1
1
1
1
1
1
1
1
1
1
1
1
1
1
1
1
1
1
1
1
0.999263
1
1
1
1
1
1
1
1
1
1
1
1
1
1
1
1
1
1
1
1
1
1
0.999505
1
1
1
1
1
1
1
1
1
1
1
1
1
1
1
1
1
1
1
1
1
1
0.999958
1
1
1
1
1
1
1
1
1
1
1
1
1
1
1
1
1
1
1
1
1
1
0.999567
1
1
1
1
1
1
1
1
1
1
1
1
1
1
1
1
1
1
1
1
1
1
0.998401
1
1
1
1
1
1
1
1
1
1
1
1
1
1
1
1
1
1
1
1
1
1
0.9984
1
1
1
1
1
1
1
1
1
1
1
1
1
1
1
1
1
1
1
1
1
1
0.998425
1
1
1
1
1
1
1
1
1
1
1
1
1
1
1
1
1
1
1
1
1
1
0.998425
1.67636e-22
1.62204e-21
1.33699e-20
3.58404e-20
4.17136e-20
2.64755e-20
8.74697e-21
2.0415e-21
3.30695e-22
1.95796e-22
3.01149e-22
2.32293e-21
3.63458e-20
5.9707e-19
8.92677e-18
1.20761e-16
1.50432e-15
7.24462e-15
7.24911e-15
8.55664e-21
1.46535e-19
1.07003e-18
2.47452e-18
2.70489e-18
1.66742e-18
6.62498e-19
1.74695e-19
2.88251e-20
1.68637e-20
2.28058e-20
1.20214e-19
1.58099e-18
2.38476e-17
3.30818e-16
4.06934e-15
4.42378e-14
1.82303e-13
1.62584e-13
3.92136e-19
6.1663e-18
4.39039e-17
1.0115e-16
1.05335e-16
6.16128e-17
2.59102e-17
7.0422e-18
1.2908e-18
8.16147e-19
1.02419e-18
3.51101e-18
3.54932e-17
4.74095e-16
5.91737e-15
6.41375e-14
5.83607e-13
1.97628e-12
1.71332e-12
1.09014e-17
1.80421e-16
1.24176e-15
2.58178e-15
2.51992e-15
1.37972e-15
5.85434e-16
1.58836e-16
3.54906e-17
2.58369e-17
3.11161e-17
6.94829e-17
4.9571e-16
5.7824e-15
6.44433e-14
6.01711e-13
4.42853e-12
1.1774e-11
9.9569e-12
2.45051e-16
3.62421e-15
2.27322e-14
4.31278e-14
3.79814e-14
2.00128e-14
9.15234e-15
2.57893e-15
6.89386e-16
5.53453e-16
6.79842e-16
1.11569e-15
5.25044e-15
4.99518e-14
4.79893e-13
3.73884e-12
2.12363e-11
4.23689e-11
3.56249e-11
3.00665e-15
4.76912e-14
2.86985e-13
4.88253e-13
3.98996e-13
2.12324e-13
9.9047e-14
2.78215e-14
9.85161e-15
9.30583e-15
1.17123e-14
1.40843e-14
4.17459e-14
3.15156e-13
2.69298e-12
1.78547e-11
5.9767e-11
8.32903e-11
8.24735e-11
7.45952e-14
5.05405e-13
2.15718e-12
3.26878e-12
2.46177e-12
1.49807e-12
7.94082e-13
2.43128e-13
1.10201e-13
1.21483e-13
1.49359e-13
1.52959e-13
2.92577e-13
1.56634e-12
1.10722e-11
5.30368e-11
1.00676e-10
1.11859e-10
1.20625e-10
3.55879e-07
6.21738e-09
1.21676e-11
5.26836e-11
1.79761e-11
8.18015e-12
5.05121e-12
1.56365e-12
9.23548e-13
1.36864e-12
1.67531e-12
1.53542e-12
1.91579e-12
5.54881e-12
3.33272e-11
9.99948e-11
1.39456e-10
1.25354e-10
1.37607e-10
1
1
1
1
1
1
1
1
1
1
1
1
1
1
1
1
1
1
1
1
1
1
0.998427
0.999996
0.999996
0.999996
0.999995
0.999993
0.999991
0.999989
0.999983
0.999979
0.999972
0.999971
0.999969
0.999976
0.999986
0.999994
0.999999
1
1
1
1
1
1
0.999587
0.986452
0.985768
0.985156
0.983368
0.980807
0.977582
0.973606
0.967867
0.963868
0.957606
0.956407
0.954589
0.959519
0.967381
0.978551
0.989151
0.99962
1
1
1
1
1
0.999993
0.490989
0.482714
0.474599
0.45749
0.438043
0.417805
0.396877
0.371808
0.35655
0.335355
0.330413
0.323155
0.334782
0.357583
0.4038
0.482381
0.604135
0.747497
0.909554
1
1
1
1
-2.81432e-20
-4.97195e-37
-2.82192e-36
-6.55813e-35
-2.92699e-32
1.44965e-31
-7.87745e-31
4.7348e-32
-1.48776e-23
-5.05532e-29
3.31699e-28
7.57103e-28
2.42376e-27
7.16611e-27
2.0334e-27
-3.48543e-30
0.00932737
0.0502997
0.144377
0.317943
0.590025
0.907257
1
1.26322e-19
7.46664e-18
2.94575e-16
8.07112e-15
1.39944e-13
1.87918e-12
5.81408e-12
4.44982e-12
-1.04032e-30
6.88985e-10
2.24716e-09
1.4784e-08
4.73566e-08
6.36858e-08
1.98057e-08
1.05533e-09
8.89853e-10
5.74341e-05
0.00111564
0.00628263
0.0360791
0.15791
0.417594
2.09711e-18
1.36587e-16
4.90732e-15
1.08146e-13
1.60298e-12
1.80887e-11
3.52081e-11
2.88251e-11
3.80356e-31
4.2571e-09
1.31076e-07
1.34828e-06
1.76903e-06
1.06137e-06
6.98449e-08
1.05532e-09
4.79869e-09
4.79856e-09
1.53279e-07
3.03877e-06
0.000113087
0.002212
0.0156118
4.51799e-18
2.83498e-16
9.65954e-15
1.93564e-13
2.78116e-12
3.00605e-11
4.63395e-11
4.74638e-11
6.92913e-13
6.92972e-13
1.63253e-06
2.48568e-06
2.48532e-06
1.34302e-06
2.46665e-08
2.47334e-09
2.47342e-09
1.49141e-07
8.67882e-07
8.68115e-07
1.66804e-06
2.66324e-06
2.67573e-05
5.40997e-18
3.34773e-16
1.11747e-14
2.16323e-13
3.03447e-12
3.18352e-11
4.31176e-11
7.89641e-11
4.33958e-13
5.49939e-08
2.16072e-06
2.46576e-06
1.23602e-06
1.06934e-07
4.59125e-08
5.08266e-08
1.60468e-08
1.07193e-09
5.06554e-06
1.86842e-05
1.63338e-05
4.08384e-06
4.08155e-06
5.41273e-18
3.31898e-16
1.08923e-14
2.04103e-13
2.5681e-12
2.6222e-11
2.25237e-11
2.25762e-10
4.35463e-13
1.05223e-07
1.65928e-07
9.978e-08
1.45553e-11
1.45307e-11
4.37085e-08
7.83114e-08
5.29179e-08
1.11539e-09
9.34656e-12
1.05487e-05
3.67355e-05
4.04985e-05
4.05064e-05
3.99941e-18
2.32097e-16
7.08774e-15
1.21362e-13
1.24776e-12
1.27156e-11
3.48735e-12
5.36882e-10
3.63605e-09
1.30781e-11
1.30688e-11
1.30711e-11
2.71584e-10
1.07576e-09
4.37042e-09
5.14894e-08
4.96486e-08
8.57855e-09
1.10817e-11
3.00681e-16
3.08716e-16
2.72089e-06
2.27145e-05
1.82194e-18
1.03691e-16
3.09814e-15
5.19103e-14
5.06956e-13
4.93322e-12
9.22627e-13
7.11926e-10
3.59997e-09
9.9876e-10
1.35574e-10
1.45882e-10
6.81454e-10
3.74189e-09
6.9525e-10
1.16587e-10
1.16587e-10
1.64761e-10
1.34589e-10
4.64671e-11
6.22843e-12
2.45061e-13
2.45162e-13
6.59897e-19
3.67657e-17
1.07801e-15
1.77564e-14
1.76049e-13
1.61081e-12
9.22623e-13
5.03421e-10
7.36829e-10
5.10558e-10
1.73681e-10
1.92601e-10
5.60561e-10
1.31521e-09
1.33909e-09
1.11759e-09
7.57115e-10
4.68893e-10
2.3146e-10
1.00788e-10
3.94181e-11
1.1536e-11
4.09377e-13
1.92337e-19
1.05716e-17
3.07002e-16
5.03539e-15
5.15253e-14
4.48341e-13
9.22623e-13
1.4873e-10
1.75469e-10
1.83305e-10
1.06293e-10
7.83593e-11
2.17278e-10
2.82852e-10
4.36284e-10
5.48659e-10
5.39997e-10
3.6209e-10
1.54404e-10
6.87611e-11
3.25641e-11
1.56508e-11
7.30293e-12
4.45918e-20
2.43054e-18
7.04313e-17
1.1665e-15
1.25553e-14
1.07112e-13
1.09423e-12
1.75909e-11
3.63008e-11
3.43172e-11
1.99377e-11
1.52088e-11
3.02396e-11
6.87078e-11
9.19743e-11
9.27835e-11
8.41605e-11
6.13569e-11
3.26685e-11
1.57537e-11
7.51065e-12
3.57939e-12
1.78505e-12
8.07636e-21
4.45291e-19
1.31103e-17
2.24836e-16
2.60783e-15
2.39844e-14
6.08794e-13
9.55275e-13
1.42243e-12
1.44644e-12
1.42964e-12
3.06013e-12
6.57456e-12
9.81397e-12
1.09909e-11
1.08681e-11
1.02081e-11
8.42927e-12
5.3521e-12
2.60368e-12
1.22738e-12
5.55956e-13
2.72606e-13
1.10768e-21
6.25485e-20
1.90442e-18
3.4716e-17
4.42751e-16
4.34132e-15
1.15009e-13
1.24822e-13
8.07986e-14
5.63721e-14
1.54833e-13
7.1028e-13
1.84321e-12
2.29547e-12
2.28002e-12
2.07794e-12
1.68607e-12
1.14845e-12
6.15122e-13
3.01014e-13
1.3816e-13
5.35005e-14
4.30932e-14
1.09943e-22
6.62072e-21
2.16522e-19
4.34264e-18
6.14783e-17
6.04532e-16
1.035e-14
1.99805e-14
1.9088e-14
1.45466e-14
3.48598e-14
1.33868e-13
2.9581e-13
3.37544e-13
3.2536e-13
2.80048e-13
2.056e-13
1.1697e-13
5.75886e-14
2.65897e-14
9.90465e-15
6.29947e-15
1.91428e-14
7.35795e-24
4.97355e-22
1.82252e-20
4.10534e-19
6.34321e-18
6.24448e-17
4.67751e-16
6.94371e-16
7.28384e-16
1.16716e-15
4.57918e-15
1.55285e-14
2.63703e-14
2.72171e-14
2.56853e-14
2.1954e-14
1.65429e-14
9.93297e-15
4.80178e-15
1.94312e-15
8.02149e-16
2.05224e-15
1.82075e-14
2.97626e-25
2.45683e-23
1.05944e-21
2.6921e-20
4.40741e-19
4.16696e-18
2.20708e-17
2.76177e-17
3.99566e-17
1.09807e-16
4.46826e-16
1.12922e-15
1.23528e-15
1.14484e-15
1.11252e-15
1.0714e-15
9.41909e-16
6.77464e-16
3.27699e-16
1.04785e-16
1.34568e-16
1.52807e-15
1.52939e-14
6.27114e-27
6.51285e-25
3.32408e-23
9.26858e-22
1.55404e-20
1.36383e-19
5.01913e-19
9.86328e-19
2.65333e-18
9.38969e-18
3.27568e-17
4.54076e-17
3.64377e-17
2.87459e-17
3.43414e-17
4.0921e-17
3.80663e-17
2.8034e-17
1.17863e-17
5.73211e-18
5.31178e-17
9.35368e-16
9.43949e-15
8.65382e-29
5.73573e-27
2.10036e-25
5.10665e-24
1.00012e-22
1.28481e-21
7.74855e-21
3.65213e-20
1.65834e-19
5.92292e-19
1.44179e-18
1.69575e-18
1.41324e-18
1.10216e-18
1.17095e-18
1.20107e-18
1.05482e-18
6.90287e-19
2.35386e-19
7.55678e-19
2.50457e-17
4.50082e-16
7.36722e-15
4.65145e-30
3.25601e-28
1.21844e-26
2.94521e-25
5.66182e-24
7.40957e-23
4.5553e-22
2.05144e-21
8.31599e-21
2.59006e-20
4.59051e-20
5.27443e-20
4.93252e-20
3.5565e-20
1.64496e-20
8.66125e-21
5.45452e-21
2.54423e-21
7.52965e-21
2.82552e-19
1.00877e-17
2.67142e-16
7.49888e-15
1.22721e-31
8.82417e-30
3.22637e-28
7.08077e-27
1.08148e-25
1.146e-24
9.20667e-24
5.33424e-23
2.30062e-22
6.5977e-22
1.19593e-21
1.76485e-21
1.69544e-21
1.2537e-21
5.15023e-22
1.36726e-22
3.07325e-23
1.17434e-22
3.24103e-21
1.20053e-19
4.86868e-18
2.31526e-16
9.90303e-15
5.25243e-37
2.58276e-35
6.30961e-34
9.01334e-33
8.20626e-32
2.83633e-31
6.73883e-31
5.61032e-30
3.69142e-29
1.53943e-28
4.24492e-28
6.53617e-28
6.07222e-28
3.52635e-28
5.44352e-28
2.52434e-26
1.33629e-24
5.4066e-23
1.63829e-21
6.03404e-20
3.69013e-18
2.55697e-16
1.26126e-14
3.77258e-41
2.49369e-39
8.74576e-38
2.01267e-36
3.66444e-35
6.17644e-34
2.03647e-32
3.66328e-31
2.78033e-30
1.21926e-29
3.34649e-29
4.92325e-29
4.43235e-29
2.40298e-29
1.30201e-28
9.80058e-27
5.61922e-25
2.41638e-23
7.77265e-22
3.64834e-20
3.62836e-18
2.91566e-16
1.38381e-14
2.03211e-44
1.30228e-42
4.25955e-41
8.64531e-40
1.24021e-38
1.29817e-37
1.04257e-36
6.45579e-36
3.14378e-35
1.27417e-34
4.61113e-34
4.952e-33
8.53414e-33
3.09617e-31
3.55917e-29
3.27495e-27
2.03281e-25
9.36981e-24
3.38018e-22
2.26538e-20
3.57653e-18
2.93029e-16
1.33851e-14
5.82897e-50
4.82171e-48
2.07316e-46
5.698e-45
1.13921e-43
1.73735e-42
2.11598e-41
2.10806e-40
1.72091e-39
1.18927e-38
7.29403e-38
2.15437e-36
3.84176e-34
6.83975e-32
8.99664e-30
9.22066e-28
6.20222e-26
3.10531e-24
1.31915e-22
1.23081e-20
2.44668e-18
1.9246e-16
7.5593e-15
1.89037e-53
1.68968e-51
7.85299e-50
2.3657e-48
5.26e-47
9.21687e-46
1.33327e-44
1.64925e-43
1.72389e-42
1.79356e-41
9.51705e-40
2.50354e-37
5.96777e-35
1.23244e-32
1.8456e-30
2.11752e-28
1.54877e-26
8.63544e-25
4.49006e-23
5.23043e-21
9.03586e-19
6.84468e-17
2.68534e-15
7.68419e-60
8.50587e-58
5.42751e-56
2.50618e-54
9.15049e-53
2.69988e-51
6.50904e-50
2.06175e-48
4.31751e-46
1.85666e-43
7.14369e-41
2.51541e-38
7.0917e-36
1.71164e-33
2.96654e-31
3.82785e-29
3.0698e-27
1.98004e-25
1.27824e-23
1.57114e-21
2.20489e-19
1.62387e-17
6.423e-16
4.40777e-65
8.04069e-63
7.89638e-61
5.2282e-59
2.63494e-57
1.5321e-55
4.1552e-53
2.56733e-50
1.51434e-47
8.25876e-45
3.92752e-42
1.68445e-39
5.84718e-37
1.6843e-34
3.4961e-32
5.14028e-30
4.62404e-28
3.62701e-26
2.87896e-24
2.9583e-22
2.88829e-20
1.94241e-18
7.64923e-17
2.75061e-69
7.29931e-67
1.00981e-64
9.47973e-63
9.35564e-61
3.74577e-58
3.31462e-55
2.97142e-52
2.40047e-49
1.7969e-46
1.17359e-43
6.6607e-41
3.05709e-38
1.08724e-35
2.81868e-33
4.83731e-31
5.072e-29
5.0772e-27
4.95459e-25
3.54995e-23
1.73457e-21
6.39009e-20
2.08184e-18
7.63338e-74
2.99058e-71
6.64827e-69
1.4823e-66
9.10186e-64
1.17168e-60
1.52756e-57
1.89507e-54
2.13331e-51
2.21231e-48
1.96699e-45
1.48082e-42
8.75331e-40
3.98045e-37
1.31504e-34
2.83618e-32
3.71978e-30
4.95623e-28
6.3552e-26
5.68342e-24
3.4099e-22
1.54587e-20
8.75598e-19
1.24786e-77
6.20267e-75
1.80018e-72
5.78172e-70
5.20525e-67
8.94529e-64
1.66217e-60
3.00332e-57
4.98689e-54
7.85916e-51
1.02179e-47
1.19618e-44
1.07603e-41
7.59366e-39
3.66933e-36
1.08698e-33
1.84083e-31
3.14159e-29
5.41144e-27
6.44336e-25
5.07573e-23
2.99863e-21
4.03107e-19
6.61178e-82
4.70592e-79
1.98271e-76
8.7435e-74
1.00439e-70
2.51231e-67
6.94528e-64
1.99639e-60
5.06128e-57
1.20191e-53
2.37925e-50
4.29949e-47
5.50403e-44
5.89792e-41
3.90478e-38
1.77991e-35
4.28055e-33
9.8028e-31
2.55957e-28
4.68416e-26
5.43089e-24
4.57454e-22
1.45873e-19
2.20211e-86
2.23751e-83
1.35084e-80
7.72121e-78
9.86145e-75
3.28424e-71
1.31501e-67
5.52631e-64
2.12336e-60
7.78813e-57
2.45865e-53
6.7921e-50
1.40521e-46
2.50629e-43
2.66188e-40
2.00968e-37
7.06676e-35
2.18687e-32
8.61857e-30
2.31973e-27
3.79017e-25
4.54239e-23
2.66787e-20
1.89871e-91
3.11704e-88
2.97557e-85
2.34347e-82
2.75651e-79
1.17724e-75
7.35579e-72
4.55268e-68
2.77051e-64
1.53939e-60
7.5361e-57
3.1815e-53
1.13888e-49
3.2127e-46
5.65278e-43
7.10779e-40
4.1284e-37
1.64236e-34
8.71814e-32
3.91383e-29
1.08921e-26
3.87577e-24
4.52409e-21
1.87909e-96
1.78056e-92
3.78168e-88
7.19155e-84
9.9577e-80
9.87189e-76
6.68914e-72
3.22077e-68
1.16601e-64
4.22278e-61
1.37258e-57
2.65103e-54
4.15818e-51
5.64191e-48
6.68588e-45
7.37522e-42
5.17424e-39
2.75955e-36
2.04854e-33
1.21391e-30
5.04993e-28
4.77347e-24
1.1246e-21
5.53834e-96
2.43011e-91
6.01509e-87
1.02281e-82
1.28875e-78
1.27724e-74
8.92676e-71
4.44589e-67
1.6527e-63
5.77377e-60
1.95944e-56
3.74099e-53
5.55871e-50
6.67538e-47
6.28729e-44
4.59299e-41
2.61475e-38
1.17185e-35
4.13765e-33
1.28332e-30
4.83792e-28
2.02214e-25
5.20118e-23
9.91216e-95
4.40853e-90
9.8034e-86
1.45154e-81
1.56085e-77
1.43674e-73
1.02796e-69
5.30393e-66
2.029e-62
5.93733e-59
1.34554e-55
2.46505e-52
3.56216e-49
4.06396e-46
3.62557e-43
2.55135e-40
1.4117e-37
6.20066e-35
2.16577e-32
6.0198e-30
1.32285e-27
2.24492e-25
2.80848e-23
1.89602e-93
8.06083e-89
1.69224e-84
2.30834e-80
2.19236e-76
1.48736e-72
7.13107e-69
2.44513e-65
6.03749e-62
1.10194e-58
1.51822e-55
1.64091e-52
1.3798e-49
9.16922e-47
4.86163e-44
2.09641e-41
7.46093e-39
2.24584e-36
5.81881e-34
1.31855e-31
2.61212e-29
4.44227e-27
6.22584e-25
1.82431e-92
7.10436e-88
1.29557e-83
1.45008e-79
1.09524e-75
5.90077e-72
2.32399e-68
6.84582e-65
1.5221e-61
2.59105e-58
3.39566e-55
3.46621e-52
2.76631e-49
1.74228e-46
8.68603e-44
3.45383e-41
1.09917e-38
2.82219e-36
5.86851e-34
9.93591e-32
1.40786e-29
1.69831e-27
1.76468e-25
0.999258
0.999996
0.809008
0.0881643
0.999738
0.999996
0.98709
0.977117
0.999995
0.999996
0.999672
0.999994
1
0.999996
0.99999
0.999994
1
1
1
1
0.653098
0.815214
0.922392
0.999573
0.0495221
0.101382
0.173926
0.269557
0.000172772
0.000684667
0.0020666
0.00487092
4.86625e-06
4.99474e-06
3.87878e-06
3.72394e-06
4.05153e-05
3.43381e-05
6.20453e-06
1.77626e-09
4.05229e-05
4.05161e-05
1.44573e-05
1.02949e-09
6.0123e-07
1.97817e-06
3.03874e-06
1.34522e-06
2.45162e-13
2.45061e-13
2.45162e-13
2.06667e-08
4.31866e-12
2.7595e-12
6.04729e-13
2.45162e-13
1.08725e-12
7.83749e-13
6.19211e-13
4.06293e-13
1.69253e-13
1.34073e-13
1.34821e-13
1.5093e-13
4.95681e-14
6.34828e-14
9.78224e-14
2.12486e-13
4.02841e-14
7.03923e-14
1.46637e-13
3.54152e-13
4.28392e-14
7.58978e-14
1.63537e-13
4.1899e-13
3.60374e-14
6.75401e-14
1.62744e-13
5.97705e-13
2.53432e-14
6.03007e-14
2.1173e-13
1.14309e-12
2.41065e-14
8.9646e-14
4.99691e-13
2.74454e-12
3.56882e-14
2.01493e-13
1.30832e-12
7.01536e-12
6.63659e-14
4.4153e-13
2.98961e-12
1.67743e-11
1.00351e-13
7.34295e-13
5.18935e-12
2.48128e-11
1.23299e-13
9.46294e-13
6.91257e-12
2.79634e-11
1.29391e-13
1.01693e-12
6.76691e-12
2.67049e-11
8.97342e-14
7.33212e-13
4.43871e-12
1.21798e-11
3.30424e-14
2.72005e-13
1.60226e-12
3.86404e-12
8.73957e-15
7.54357e-14
4.3145e-13
8.73951e-13
1.16101e-15
1.0956e-14
6.02616e-14
1.28622e-13
4.01132e-17
4.85711e-16
5.07413e-15
6.19417e-14
2.55238e-17
4.92148e-16
9.31395e-15
1.4613e-13
1.9381e-17
5.73205e-16
1.27842e-14
2.00554e-13
1.03504e-17
3.81666e-16
9.22322e-15
1.46031e-13
1.28721e-18
2.55526e-17
3.45926e-16
3.27726e-15
3.06217e-19
8.04229e-18
1.39909e-16
1.74452e-15
7.25049e-20
2.06479e-18
4.07815e-17
5.79133e-16
4.83962e-21
2.05937e-19
6.03287e-18
1.21048e-16
1.8926e-21
6.41722e-20
1.64768e-18
3.15879e-17
5.0353e-23
2.20193e-21
7.84265e-20
2.22319e-18
1.10933e-23
3.8428e-22
1.12535e-20
2.76458e-19
0.00168285
1.22308e-05
1.71716e-08
3.69766e-10
3.1302e-10
2.24889e-10
1.19666e-10
2.7604e-11
1.18325e-11
1.04694e-11
1.67531e-12
8.48397e-12
1.70723e-11
3.01292e-11
1.16689e-10
1.92677e-10
1.90062e-10
1.29113e-10
1.40438e-10
0.397771
0.00367632
1.1675e-05
2.31453e-10
2.93805e-10
3.69278e-10
3.67883e-10
2.54958e-10
3.81502e-10
6.35582e-10
4.94353e-10
4.11408e-12
4.11405e-12
2.37071e-11
1.75493e-10
2.63617e-10
2.4556e-10
1.29113e-10
1.29116e-10
0.90744
0.256074
1.96946e-06
1.88002e-11
1.88001e-11
6.30592e-11
6.14778e-11
1.39912e-10
3.50213e-10
1.60775e-09
1.6883e-08
3.69565e-08
2.63401e-08
7.48968e-12
7.57587e-12
3.24641e-11
1.43395e-09
1.7071e-09
4.97903e-10
1
0.853501
0.420208
0.0861228
3.55182e-16
3.56619e-16
3.55242e-16
3.56619e-16
3.55249e-16
3.56632e-16
2.63477e-10
1.63906e-08
1.57408e-07
3.47825e-07
3.47684e-07
2.97184e-08
7.24347e-07
7.15392e-07
1.09314e-07
1
0.997364
0.958536
0.813784
0.601332
0.426111
0.334033
0.241058
0.139144
0.0661622
3.5447e-16
3.54291e-16
3.54411e-16
3.543e-16
3.48859e-08
3.83137e-11
1.38764e-06
1.53037e-05
7.67927e-05
1
1
1
0.998506
0.992871
0.981329
0.961866
0.926184
0.863348
0.779887
0.647731
0.428983
0.211081
0.011608
3.83137e-11
3.83146e-11
1.41637e-05
6.97119e-05
0.0282864
0.530029
0.841244
0.967647
0.99996
0.99996
0.99996
0.99996
0.99996
0.99996
0.99996
0.999349
0.978349
0.920129
0.781929
0.498388
0.135119
0.0286489
0.0119162
0.374844
0.0215412
0.126793
0.286253
0.45402
0.600389
0.677373
0.711511
0.748466
0.80026
0.868025
0.942792
0.999912
0.999912
0.999912
0.985146
0.881816
0.702037
0.542974
0.703886
4.6104e-05
0.00099877
0.00445567
0.0110457
0.0257163
0.0454137
0.0626209
0.0841834
0.123312
0.192521
0.290263
0.42938
0.629343
0.887999
0.995353
0.995352
0.988533
0.988533
0.852949
2.51769e-09
4.80969e-08
5.10583e-07
2.81243e-06
1.17958e-05
3.62193e-05
7.71829e-05
0.000177131
0.00054146
0.00178479
0.00494353
0.0116232
0.0417774
0.163712
0.493396
0.938163
0.988533
0.988535
0.682031
1.4082e-10
1.40821e-10
1.4082e-10
1.4098e-10
1.16169e-10
2.64914e-10
4.46266e-09
2.38166e-08
5.03873e-08
1.54407e-07
1.04167e-06
1.04117e-05
0.000336115
0.00014357
0.00253162
0.489682
0.962169
0.988482
0.639996
2.86652e-09
1.4082e-10
1.44116e-10
1.39516e-10
1.10555e-10
5.37498e-11
4.04654e-11
3.28747e-09
2.47023e-08
2.18742e-08
7.55299e-09
6.06407e-09
4.98219e-08
2.37936e-06
2.37924e-06
0.182199
0.851
0.988481
0.573996
1.86247e-08
2.44947e-09
3.41246e-10
1.3876e-10
7.96026e-11
4.61901e-11
4.04726e-11
8.83667e-10
7.47279e-09
9.7256e-09
4.52246e-09
2.16435e-09
5.36022e-09
3.0246e-07
0.00034087
0.140272
0.797424
0.984486
0.486796
2.45061e-13
2.71381e-11
2.4612e-11
1.79729e-11
1.69401e-11
1.80158e-11
4.04716e-11
2.91835e-10
1.41379e-09
4.14132e-09
3.57088e-09
2.16435e-09
1.61003e-09
2.39769e-07
0.00230747
0.205927
0.831989
0.92561
0.321269
2.55986e-13
1.27424e-12
4.39495e-12
3.21398e-11
1.1739e-10
6.07899e-11
3.58192e-11
6.58509e-11
2.83933e-10
1.56152e-09
2.54352e-09
1.8861e-09
1.32338e-09
1.03058e-06
0.00571093
0.307664
0.831988
0.809003
0.308126
2.18138e-13
1.73375e-11
4.68313e-11
4.6532e-11
9.06642e-10
2.88272e-09
2.62577e-09
9.1238e-11
7.91232e-11
2.57887e-10
1.13548e-09
1.30039e-09
1.28309e-09
6.8391e-06
0.0142714
0.425263
0.831993
0.827425
0.311877
2.12481e-13
5.66215e-11
1.06757e-09
4.12571e-09
2.17423e-09
2.08468e-09
1.57056e-08
1.96119e-08
1.34492e-08
2.57886e-10
2.57875e-10
5.54056e-10
5.54043e-10
3.96956e-06
0.00946701
0.278885
0.739832
0.827439
0.456533
2.78227e-13
2.62652e-13
2.3917e-08
9.21514e-08
8.83285e-08
2.99637e-08
1.46439e-08
4.0931e-08
7.41101e-08
7.40137e-08
1.9627e-08
1.31581e-09
5.7547e-10
5.7553e-10
0.000952358
0.0563987
0.577236
0.583077
0.296694
3.40012e-13
2.62662e-13
8.13558e-08
1.30774e-07
1.73651e-07
1.73663e-07
5.17089e-08
1.42163e-08
3.04577e-08
7.41101e-08
6.00219e-08
1.13377e-08
8.69782e-10
5.75412e-10
8.97914e-05
2.95104e-11
0.409216
0.358065
0.15759
1.22347e-12
2.62652e-13
4.82118e-08
9.99416e-08
9.99394e-08
4.75697e-07
1.83217e-06
7.93648e-10
4.61422e-10
7.41209e-10
4.94031e-08
3.16856e-08
3.56614e-09
8.20727e-10
2.62201e-09
2.95106e-11
0.169414
0.568929
0.15759
7.04251e-12
3.26336e-12
2.62652e-13
2.46069e-06
2.54089e-06
5.93198e-07
8.36764e-07
9.36362e-05
6.47529e-05
8.43168e-06
1.29898e-07
1.63787e-08
2.82309e-09
1.27408e-09
5.84966e-10
2.95104e-11
0.0220051
0.569088
0.163197
1.78329e-11
2.84743e-11
2.62662e-13
1.82613e-05
2.14548e-05
5.93244e-07
5.22688e-05
0.000169417
0.000169322
3.23399e-05
1.79613e-07
5.48607e-09
2.16969e-09
2.12015e-09
1.42086e-09
4.13314e-10
2.95104e-11
0.473104
0.232531
2.33849e-11
2.95166e-10
2.62652e-13
2.48576e-05
2.4924e-05
2.05171e-05
1.5651e-05
1.76996e-05
0.000169417
0.000153491
1.76005e-05
3.4723e-08
2.77147e-09
2.78081e-09
2.32811e-09
7.02267e-10
2.95104e-11
0.147858
0.382482
2.27817e-11
2.54738e-09
1.53959e-10
7.8464e-06
9.68005e-06
5.19978e-05
3.52192e-05
9.29783e-06
0.000136086
0.000170452
3.383e-05
1.04193e-06
8.63162e-09
2.69133e-09
2.23182e-09
5.07174e-10
2.95104e-11
2.95104e-11
0.382476
2.27727e-11
4.95343e-09
5.12404e-07
5.13701e-07
6.94867e-06
5.13395e-05
5.13393e-05
9.29796e-06
9.44743e-05
0.000170483
0.000149407
1.05931e-05
7.60776e-09
2.06029e-09
1.60032e-09
1.04879e-10
4.23859e-05
2.95104e-11
0.353949
2.27747e-11
1.14229e-09
1.18742e-07
8.96603e-07
3.4397e-06
3.11502e-06
5.13285e-06
4.73578e-06
5.93365e-05
0.000170452
0.000166826
5.84171e-06
6.5307e-09
1.78044e-09
5.72306e-10
1.0489e-10
0.000254105
2.95104e-11
0.363828
4.39701e-11
2.05702e-11
2.36368e-07
3.00802e-06
6.24014e-07
4.22291e-07
4.85872e-07
4.73577e-06
3.40154e-05
0.000125473
4.62361e-05
3.27035e-08
2.038e-09
1.9819e-09
1.07974e-10
4.21628e-05
0.000317596
2.95104e-11
0.363952
2.05706e-11
2.05706e-11
2.27575e-07
2.76996e-06
3.24955e-06
4.22278e-07
2.00058e-06
4.69217e-06
2.72862e-06
5.67668e-06
9.3419e-07
8.83658e-08
5.47809e-09
1.12934e-09
1.07969e-10
0.000213396
0.000314069
0.000905402
0.23178
6.46526e-12
5.65983e-11
2.9326e-11
2.21769e-07
5.02949e-06
5.83525e-07
5.29512e-07
2.4538e-06
1.98306e-06
1.32138e-07
9.84978e-10
4.47673e-08
2.95393e-08
1.02831e-08
1.07974e-10
0.000116848
5.57675e-05
0.000206638
0.00932532
1.75614e-12
1.05283e-11
2.93206e-11
3.45815e-09
6.84027e-07
5.44277e-08
5.44427e-08
9.7076e-07
1.98302e-06
4.53472e-07
3.27399e-11
4.06358e-09
1.31339e-08
1.3887e-08
1.19359e-07
5.25498e-07
5.25999e-07
1.23085e-05
2.26317e-06
7.31228e-13
1.05664e-11
1.21543e-10
6.29182e-10
6.29208e-10
5.5612e-06
6.91522e-08
6.06625e-08
5.47457e-07
4.38349e-07
3.27399e-11
3.27399e-11
3.27399e-11
3.27399e-11
3.27399e-11
3.27399e-11
7.11758e-05
1.61751e-05
1.91071e-08
1.21151e-12
1.70076e-11
1.01496e-10
5.58942e-10
2.73687e-07
8.01898e-06
1.09899e-07
8.92691e-10
8.92483e-10
4.03745e-08
3.27399e-11
0.00111237
0.150903
0.301223
0.116942
0.007116
0.000127241
6.26218e-06
1.91044e-08
2.69937e-12
3.57443e-11
2.24914e-10
4.37994e-10
3.25884e-09
1.24659e-06
1.55432e-05
7.66606e-06
8.92691e-10
2.05757e-08
3.27399e-11
0.0653207
0.454556
0.471713
0.397144
0.0552634
0.000150104
2.46146e-06
1.75484e-08
3.45632e-12
4.28946e-11
2.58042e-10
5.12981e-10
3.08503e-09
2.07145e-06
1.87822e-05
1.87835e-05
8.77373e-06
1.73209e-07
3.27399e-11
0.0456511
0.375406
0.471739
0.357241
0.0392662
8.61847e-05
1.51605e-06
1.52926e-08
2.47228e-12
3.01243e-11
1.64646e-10
2.6662e-10
7.2897e-10
7.43832e-08
7.55095e-06
1.87822e-05
1.15137e-05
1.24654e-07
3.27399e-11
0.0071705
0.0839701
0.154299
0.0872749
0.0116375
7.06767e-05
9.67169e-07
1.20116e-08
3.28882e-14
2.21018e-13
1.09045e-12
1.09448e-11
1.0338e-10
1.80116e-08
1.26787e-06
1.2186e-05
5.69314e-06
1.24741e-07
0.000184032
0.000353856
0.000642453
0.000899756
0.000550279
0.000977055
0.000169127
4.60216e-07
9.26881e-09
2.70464e-14
3.66725e-13
3.32106e-12
2.1382e-11
1.0007e-10
1.88676e-09
1.51261e-07
2.46335e-06
8.18461e-06
3.08559e-05
0.00011198
1.59058e-05
7.1717e-07
4.56886e-08
1.6909e-09
1.4323e-06
8.7855e-05
2.32394e-06
6.11065e-09
1.00238e-14
1.56295e-13
1.85779e-12
1.70958e-11
1.03618e-10
6.11419e-10
2.99254e-08
1.15175e-06
1.58554e-05
3.39619e-05
8.24225e-07
4.67379e-08
7.11585e-10
1.92532e-11
8.03572e-12
8.03572e-12
9.45034e-06
1.71383e-06
6.11196e-09
2.7161e-15
4.45296e-14
4.86038e-13
4.59402e-12
4.00065e-11
3.12638e-10
1.50029e-08
6.49318e-07
2.66138e-06
3.67276e-06
5.09638e-11
5.09673e-11
5.01523e-11
8.03572e-12
8.03572e-12
8.03572e-12
1.22263e-08
1.42724e-06
2.24221e-08
7.18424e-16
1.2386e-14
1.2517e-13
7.94316e-13
3.48062e-12
2.12821e-11
3.58952e-10
3.35609e-09
6.95682e-10
3.54919e-10
1.3508e-10
6.74937e-11
1.20049e-09
1.33578e-07
2.02064e-06
3.06379e-06
1.2305e-07
3.86019e-07
2.5264e-08
7.92253e-17
2.16286e-15
3.12616e-14
2.57348e-13
1.29658e-12
3.66766e-12
6.02748e-12
8.43773e-12
7.69519e-12
1.58363e-11
3.61839e-11
3.91683e-11
6.61265e-09
2.73997e-06
1.0461e-05
1.04743e-05
2.14854e-08
2.14681e-08
2.01793e-08
9.10667e-18
2.67653e-16
4.29726e-15
4.0906e-14
2.41378e-13
8.95575e-13
2.08529e-12
3.64374e-12
7.69534e-12
2.86257e-11
1.50851e-10
1.94988e-09
4.68504e-08
9.07984e-08
1.48883e-07
1.17641e-05
1.1111e-05
1.20736e-06
1.25117e-08
)
;

boundaryField
{
    leftWall
    {
        type            zeroGradient;
    }
    rightWall
    {
        type            zeroGradient;
    }
    lowerWall
    {
        type            zeroGradient;
    }
    atmosphere
    {
        type            inletOutlet;
        inletValue      uniform 0;
        value           nonuniform List<scalar> 
46
(
0
0
0
0
0
0
0
0
0
0
0
0
0
0
0
0
0
0
0
0
0
0
0
0
0
0
0
0
2.67653e-16
4.29726e-15
4.0906e-14
2.41378e-13
8.95575e-13
2.08529e-12
3.64374e-12
7.69534e-12
2.86257e-11
1.50851e-10
1.94988e-09
0
0
0
1.17641e-05
1.1111e-05
1.20736e-06
1.25117e-08
)
;
    }
    defaultFaces
    {
        type            empty;
    }
}


// ************************************************************************* //
