/*--------------------------------*- C++ -*----------------------------------*\
| =========                 |                                                 |
| \\      /  F ield         | OpenFOAM: The Open Source CFD Toolbox           |
|  \\    /   O peration     | Version:  2012                                  |
|   \\  /    A nd           | Website:  www.openfoam.com                      |
|    \\/     M anipulation  |                                                 |
\*---------------------------------------------------------------------------*/
FoamFile
{
    version     2.0;
    format      ascii;
    class       volScalarField;
    location    "2420";
    object      minKappa;
}
// * * * * * * * * * * * * * * * * * * * * * * * * * * * * * * * * * * * * * //

dimensions      [0 0 0 0 0 0 0];


internalField   nonuniform List<scalar> 
20400
(
3.39561e-12
3.39561e-12
3.73642e-12
1.05279e-11
2.80354e-11
5.2218e-11
8.07277e-11
1.12158e-10
1.44769e-10
1.78032e-10
2.11263e-10
2.44212e-10
2.77035e-10
3.09538e-10
3.41875e-10
3.74049e-10
4.06111e-10
4.38087e-10
4.69992e-10
5.01802e-10
5.33455e-10
5.64919e-10
5.96203e-10
6.27311e-10
6.58235e-10
6.88963e-10
7.19486e-10
7.49801e-10
7.79911e-10
8.09829e-10
8.39571e-10
8.6914e-10
8.98497e-10
9.2749e-10
9.55961e-10
9.84071e-10
1.01242e-09
1.04071e-09
1.06856e-09
1.09618e-09
1.12349e-09
1.15054e-09
1.17736e-09
1.20399e-09
1.23044e-09
1.25675e-09
1.28291e-09
1.30894e-09
1.33483e-09
1.36057e-09
1.38617e-09
1.41163e-09
1.43695e-09
1.46213e-09
1.4872e-09
1.51217e-09
1.53705e-09
1.56181e-09
1.58632e-09
1.61093e-09
1.63573e-09
1.66067e-09
1.68558e-09
1.71035e-09
1.73508e-09
1.75967e-09
1.78414e-09
1.80849e-09
1.83274e-09
1.85689e-09
1.88097e-09
1.90498e-09
1.92893e-09
1.95284e-09
1.9767e-09
2.00051e-09
2.02428e-09
2.04801e-09
2.07169e-09
2.09533e-09
2.11892e-09
2.14248e-09
2.16601e-09
2.18948e-09
2.21286e-09
2.23596e-09
2.2587e-09
2.28154e-09
2.30452e-09
2.32733e-09
2.34998e-09
2.37237e-09
2.39442e-09
2.4161e-09
2.43782e-09
2.45947e-09
2.48085e-09
2.50197e-09
2.52272e-09
2.54308e-09
2.56301e-09
2.58243e-09
2.60133e-09
2.61959e-09
2.6373e-09
2.6543e-09
2.67081e-09
2.6864e-09
2.70173e-09
2.71576e-09
2.72949e-09
2.74163e-09
2.75222e-09
2.76009e-09
2.76578e-09
2.77041e-09
2.77284e-09
2.77225e-09
2.76918e-09
2.76386e-09
2.75642e-09
2.74667e-09
2.73439e-09
2.71956e-09
2.7018e-09
2.68106e-09
2.65673e-09
2.62865e-09
2.596e-09
2.55807e-09
2.51566e-09
2.46758e-09
2.4173e-09
2.36642e-09
2.31854e-09
2.2744e-09
2.22773e-09
2.1768e-09
2.12121e-09
2.06199e-09
1.99881e-09
1.93289e-09
1.8643e-09
1.7936e-09
1.72095e-09
1.64642e-09
1.56825e-09
1.48606e-09
1.40002e-09
1.31453e-09
1.21728e-09
1.11678e-09
1.01858e-09
9.18642e-10
8.13418e-10
7.03455e-10
5.78561e-10
4.62902e-10
3.88038e-10
3.09793e-10
2.21029e-10
1.34326e-10
7.00732e-11
7.00732e-11
7.98665e-11
1.60784e-10
2.50642e-10
3.40679e-10
4.2984e-10
5.17228e-10
6.03222e-10
6.86795e-10
7.68766e-10
8.47967e-10
9.25434e-10
9.99942e-10
1.07259e-09
1.14223e-09
1.20984e-09
1.27448e-09
1.33693e-09
1.39644e-09
1.45369e-09
1.50797e-09
1.55996e-09
1.60921e-09
1.65603e-09
1.70025e-09
1.74205e-09
1.78142e-09
1.81847e-09
1.85316e-09
1.88566e-09
1.91589e-09
1.94407e-09
1.97012e-09
1.99424e-09
2.01638e-09
2.0367e-09
2.05519e-09
2.07204e-09
2.08724e-09
2.10086e-09
2.11299e-09
2.12368e-09
2.13303e-09
2.14109e-09
2.14794e-09
2.15364e-09
2.15824e-09
2.16184e-09
2.16446e-09
2.16623e-09
2.16721e-09
2.16683e-09
2.16551e-09
2.16355e-09
2.16103e-09
2.15794e-09
2.1544e-09
2.15038e-09
2.14599e-09
2.14126e-09
2.13623e-09
2.13094e-09
2.1254e-09
2.11966e-09
2.11374e-09
2.1077e-09
2.10151e-09
2.09526e-09
2.08891e-09
2.08254e-09
2.07611e-09
2.06971e-09
2.06329e-09
2.05695e-09
2.05061e-09
2.0444e-09
2.03822e-09
2.03215e-09
2.02616e-09
2.02031e-09
2.01455e-09
2.00894e-09
2.00346e-09
1.99813e-09
1.99296e-09
1.98796e-09
1.98314e-09
1.9785e-09
1.97404e-09
1.96975e-09
1.96565e-09
1.96174e-09
1.95801e-09
1.95447e-09
1.95112e-09
1.94797e-09
1.94501e-09
1.94224e-09
1.93966e-09
1.93727e-09
1.93507e-09
1.93306e-09
1.93124e-09
1.9296e-09
1.92816e-09
1.92688e-09
1.9258e-09
1.92488e-09
1.92415e-09
1.92358e-09
1.9232e-09
1.92296e-09
1.92288e-09
1.92288e-09
1.92297e-09
1.92323e-09
1.92362e-09
1.92416e-09
1.92486e-09
1.92571e-09
1.92667e-09
1.92779e-09
1.92902e-09
1.93041e-09
1.93192e-09
1.93355e-09
1.93529e-09
1.93715e-09
1.93911e-09
1.94119e-09
1.94336e-09
1.94564e-09
1.94798e-09
1.95046e-09
1.95298e-09
1.95562e-09
1.9583e-09
1.96109e-09
1.96392e-09
1.96684e-09
1.9698e-09
1.97285e-09
1.97594e-09
1.9791e-09
1.98231e-09
1.98557e-09
1.98888e-09
1.99224e-09
1.99565e-09
1.99909e-09
2.00258e-09
2.0061e-09
2.00964e-09
2.01322e-09
2.01683e-09
2.02046e-09
2.02411e-09
2.02778e-09
2.03146e-09
2.03516e-09
2.03887e-09
2.0426e-09
2.04633e-09
2.05006e-09
2.0538e-09
2.05754e-09
2.06128e-09
2.06502e-09
2.06876e-09
2.07249e-09
2.07622e-09
2.07993e-09
2.08365e-09
2.08734e-09
2.09103e-09
2.0947e-09
2.09837e-09
2.10201e-09
2.10564e-09
2.10925e-09
2.11285e-09
2.11642e-09
2.11998e-09
2.12351e-09
2.12703e-09
2.13052e-09
2.134e-09
2.13743e-09
2.14087e-09
2.14425e-09
2.14763e-09
2.15098e-09
2.1543e-09
2.1576e-09
2.16087e-09
2.16411e-09
2.16733e-09
2.17052e-09
2.17368e-09
2.17681e-09
2.17992e-09
2.183e-09
2.18605e-09
2.18908e-09
2.19208e-09
2.19505e-09
2.19799e-09
2.2009e-09
2.20379e-09
2.20665e-09
2.20948e-09
2.21228e-09
2.21506e-09
2.21781e-09
2.22053e-09
2.22322e-09
2.22589e-09
2.22853e-09
2.23114e-09
2.23373e-09
2.23629e-09
2.23882e-09
2.24133e-09
2.24381e-09
2.24627e-09
2.24869e-09
2.2511e-09
2.25347e-09
2.25583e-09
2.25815e-09
2.26045e-09
2.26273e-09
2.26498e-09
2.2672e-09
2.2694e-09
2.27158e-09
2.27373e-09
2.27586e-09
2.27797e-09
2.28005e-09
2.2821e-09
2.28414e-09
2.28615e-09
2.28813e-09
2.2901e-09
2.29204e-09
2.29396e-09
2.29586e-09
2.29774e-09
2.29959e-09
2.30143e-09
2.30324e-09
2.30503e-09
2.3068e-09
2.30856e-09
2.31029e-09
2.312e-09
2.31369e-09
2.31537e-09
2.31702e-09
2.31866e-09
2.32028e-09
2.32188e-09
2.32346e-09
2.32503e-09
2.32657e-09
2.32811e-09
2.32962e-09
2.33112e-09
2.3326e-09
2.33407e-09
2.33552e-09
2.33695e-09
2.33837e-09
2.33977e-09
2.34116e-09
2.34254e-09
2.3439e-09
2.34524e-09
2.34657e-09
2.34789e-09
2.34919e-09
2.35048e-09
2.35176e-09
2.35302e-09
2.35427e-09
2.3555e-09
2.35672e-09
2.35793e-09
2.35913e-09
2.36031e-09
2.36148e-09
2.36264e-09
2.36379e-09
2.36492e-09
2.36604e-09
2.36715e-09
2.36825e-09
2.36933e-09
2.37041e-09
2.37147e-09
2.37252e-09
2.37356e-09
2.37458e-09
2.3756e-09
2.3766e-09
2.3776e-09
2.37858e-09
2.37955e-09
2.38051e-09
2.38145e-09
2.38239e-09
2.38332e-09
2.38423e-09
2.38514e-09
2.38603e-09
2.38692e-09
2.38779e-09
2.38865e-09
2.38951e-09
2.39035e-09
2.39118e-09
2.392e-09
2.39281e-09
2.39361e-09
2.3944e-09
2.39517e-09
2.39595e-09
2.39669e-09
2.39745e-09
2.39815e-09
2.39891e-09
2.39958e-09
2.40035e-09
2.40098e-09
2.40194e-09
2.40255e-09
3.41827e-12
7.74012e-12
2.5234e-11
5.67172e-11
1.00067e-10
1.50812e-10
2.07796e-10
2.67982e-10
3.29837e-10
3.92824e-10
4.55308e-10
5.18213e-10
5.80505e-10
6.42479e-10
7.03993e-10
7.65141e-10
8.25933e-10
8.86376e-10
9.46507e-10
1.00618e-09
1.06529e-09
1.12385e-09
1.18189e-09
1.23939e-09
1.29635e-09
1.35276e-09
1.40863e-09
1.46395e-09
1.51877e-09
1.5731e-09
1.62699e-09
1.68041e-09
1.73333e-09
1.7855e-09
1.83689e-09
1.8886e-09
1.94008e-09
1.99103e-09
2.04165e-09
2.0918e-09
2.14151e-09
2.19079e-09
2.23961e-09
2.28803e-09
2.33602e-09
2.38362e-09
2.43083e-09
2.47768e-09
2.52418e-09
2.57036e-09
2.61624e-09
2.66184e-09
2.7072e-09
2.75234e-09
2.7973e-09
2.84201e-09
2.88657e-09
2.93075e-09
2.97454e-09
3.01802e-09
3.06066e-09
3.10335e-09
3.14528e-09
3.18728e-09
3.22907e-09
3.27077e-09
3.31234e-09
3.35376e-09
3.39503e-09
3.43613e-09
3.47707e-09
3.51783e-09
3.55841e-09
3.5988e-09
3.63901e-09
3.67902e-09
3.71883e-09
3.75844e-09
3.79784e-09
3.83702e-09
3.876e-09
3.91474e-09
3.95327e-09
3.9915e-09
4.02944e-09
4.06691e-09
4.10404e-09
4.14128e-09
4.17819e-09
4.21464e-09
4.25069e-09
4.28599e-09
4.32074e-09
4.35459e-09
4.38814e-09
4.42069e-09
4.45282e-09
4.48368e-09
4.51398e-09
4.54278e-09
4.57096e-09
4.59718e-09
4.62269e-09
4.64569e-09
4.66822e-09
4.68755e-09
4.70629e-09
4.72118e-09
4.73522e-09
4.74521e-09
4.75428e-09
4.75789e-09
4.76073e-09
4.75795e-09
4.76061e-09
4.75596e-09
4.75186e-09
4.73947e-09
4.72745e-09
4.70689e-09
4.68664e-09
4.65745e-09
4.62888e-09
4.5907e-09
4.55376e-09
4.5061e-09
4.46077e-09
4.40314e-09
4.34917e-09
4.28117e-09
4.21688e-09
4.1386e-09
4.06124e-09
3.9731e-09
3.88125e-09
3.78009e-09
3.67542e-09
3.56417e-09
3.44856e-09
3.32825e-09
3.20408e-09
3.07409e-09
2.94087e-09
2.80065e-09
2.65691e-09
2.50218e-09
2.34886e-09
2.17359e-09
2.0173e-09
1.84044e-09
1.70497e-09
1.55682e-09
1.40381e-09
1.2451e-09
1.04399e-09
8.51418e-10
7.53016e-10
5.66487e-10
3.65157e-10
2.88095e-10
2.85952e-10
3.37242e-10
4.00201e-10
5.00538e-10
6.41961e-10
8.10592e-10
9.59263e-10
1.12528e-09
1.27047e-09
1.43076e-09
1.57104e-09
1.72388e-09
1.85849e-09
2.00277e-09
2.13117e-09
2.2662e-09
2.38796e-09
2.5133e-09
2.62793e-09
2.7436e-09
2.85046e-09
2.95663e-09
3.05537e-09
3.15202e-09
3.24256e-09
3.32995e-09
3.41219e-09
3.49045e-09
3.56479e-09
3.63436e-09
3.70071e-09
3.76218e-09
3.82061e-09
3.87449e-09
3.92534e-09
3.97209e-09
4.01576e-09
4.05582e-09
4.09279e-09
4.12655e-09
4.15738e-09
4.18531e-09
4.21046e-09
4.23299e-09
4.25291e-09
4.27053e-09
4.2857e-09
4.29886e-09
4.30977e-09
4.31887e-09
4.326e-09
4.33147e-09
4.33529e-09
4.33761e-09
4.33861e-09
4.33799e-09
4.336e-09
4.33294e-09
4.32879e-09
4.32359e-09
4.3176e-09
4.31062e-09
4.30309e-09
4.29469e-09
4.28588e-09
4.27632e-09
4.26648e-09
4.25604e-09
4.24539e-09
4.23429e-09
4.22304e-09
4.21151e-09
4.19981e-09
4.18801e-09
4.17607e-09
4.16415e-09
4.15213e-09
4.14023e-09
4.12828e-09
4.11658e-09
4.10475e-09
4.09333e-09
4.08174e-09
4.07068e-09
4.05942e-09
4.04877e-09
4.03793e-09
4.02776e-09
4.01745e-09
4.00784e-09
3.99813e-09
3.9891e-09
3.98e-09
3.97161e-09
3.96313e-09
3.95539e-09
3.94756e-09
3.9405e-09
3.93333e-09
3.92696e-09
3.92046e-09
3.91479e-09
3.90897e-09
3.904e-09
3.89887e-09
3.89458e-09
3.89015e-09
3.88653e-09
3.88278e-09
3.87981e-09
3.87674e-09
3.87441e-09
3.87201e-09
3.87029e-09
3.86857e-09
3.86743e-09
3.86632e-09
3.86579e-09
3.86528e-09
3.86529e-09
3.86535e-09
3.8659e-09
3.86657e-09
3.8676e-09
3.8688e-09
3.87032e-09
3.87205e-09
3.87404e-09
3.87623e-09
3.87865e-09
3.88128e-09
3.88414e-09
3.8872e-09
3.89045e-09
3.89393e-09
3.89748e-09
3.9014e-09
3.9052e-09
3.90952e-09
3.91356e-09
3.91823e-09
3.9225e-09
3.92749e-09
3.93199e-09
3.93727e-09
3.94199e-09
3.94752e-09
3.95245e-09
3.95821e-09
3.96334e-09
3.96931e-09
3.97462e-09
3.98077e-09
3.98624e-09
3.99255e-09
3.99815e-09
4.00458e-09
4.01031e-09
4.01685e-09
4.02267e-09
4.02931e-09
4.03522e-09
4.04192e-09
4.0479e-09
4.05466e-09
4.0607e-09
4.06749e-09
4.07357e-09
4.08038e-09
4.08648e-09
4.0933e-09
4.09943e-09
4.10624e-09
4.11237e-09
4.11916e-09
4.12529e-09
4.13204e-09
4.13817e-09
4.14486e-09
4.15099e-09
4.15761e-09
4.16373e-09
4.17027e-09
4.17637e-09
4.18282e-09
4.18891e-09
4.19526e-09
4.20132e-09
4.20756e-09
4.21359e-09
4.21973e-09
4.22572e-09
4.23174e-09
4.23769e-09
4.24361e-09
4.24948e-09
4.25532e-09
4.26111e-09
4.26686e-09
4.27256e-09
4.27822e-09
4.28384e-09
4.28941e-09
4.29493e-09
4.30041e-09
4.30584e-09
4.31123e-09
4.31657e-09
4.32186e-09
4.32711e-09
4.33231e-09
4.33746e-09
4.34257e-09
4.34762e-09
4.35263e-09
4.3576e-09
4.36251e-09
4.36738e-09
4.37221e-09
4.37698e-09
4.38171e-09
4.38639e-09
4.39103e-09
4.39562e-09
4.40016e-09
4.40466e-09
4.40911e-09
4.41352e-09
4.41788e-09
4.42219e-09
4.42646e-09
4.43068e-09
4.43486e-09
4.439e-09
4.44309e-09
4.44713e-09
4.45113e-09
4.45509e-09
4.45901e-09
4.46288e-09
4.46671e-09
4.4705e-09
4.47424e-09
4.47794e-09
4.48161e-09
4.48523e-09
4.48881e-09
4.49235e-09
4.49585e-09
4.49931e-09
4.50273e-09
4.50612e-09
4.50946e-09
4.51277e-09
4.51604e-09
4.51928e-09
4.52247e-09
4.52564e-09
4.52876e-09
4.53186e-09
4.53491e-09
4.53794e-09
4.54093e-09
4.54389e-09
4.54681e-09
4.54971e-09
4.55257e-09
4.5554e-09
4.5582e-09
4.56097e-09
4.56371e-09
4.56642e-09
4.5691e-09
4.57175e-09
4.57438e-09
4.57697e-09
4.57954e-09
4.58209e-09
4.5846e-09
4.58709e-09
4.58955e-09
4.59199e-09
4.5944e-09
4.59678e-09
4.59914e-09
4.60148e-09
4.60379e-09
4.60607e-09
4.60833e-09
4.61057e-09
4.61278e-09
4.61497e-09
4.61714e-09
4.61928e-09
4.6214e-09
4.6235e-09
4.62558e-09
4.62763e-09
4.62966e-09
4.63167e-09
4.63366e-09
4.63562e-09
4.63757e-09
4.63949e-09
4.64139e-09
4.64327e-09
4.64513e-09
4.64697e-09
4.64879e-09
4.65058e-09
4.65236e-09
4.65412e-09
4.65586e-09
4.65757e-09
4.65927e-09
4.66095e-09
4.66261e-09
4.66425e-09
4.66586e-09
4.66747e-09
4.66905e-09
4.67061e-09
4.67216e-09
4.67368e-09
4.67519e-09
4.67667e-09
4.67816e-09
4.67957e-09
4.68105e-09
4.68239e-09
4.68388e-09
4.68511e-09
4.68665e-09
4.68773e-09
4.68937e-09
4.69022e-09
4.6921e-09
4.69259e-09
4.69501e-09
4.69479e-09
4.2191e-12
2.72828e-11
8.36319e-11
1.54052e-10
2.40636e-10
3.38594e-10
4.46051e-10
5.59025e-10
6.75525e-10
7.93869e-10
9.12365e-10
1.03113e-09
1.14901e-09
1.26611e-09
1.38223e-09
1.49735e-09
1.61146e-09
1.7245e-09
1.83633e-09
1.94696e-09
2.05658e-09
2.16509e-09
2.27254e-09
2.37887e-09
2.48405e-09
2.58809e-09
2.69097e-09
2.79271e-09
2.89335e-09
2.99289e-09
3.09139e-09
3.1888e-09
3.28517e-09
3.38051e-09
3.47505e-09
3.56876e-09
3.6608e-09
3.75207e-09
3.84233e-09
3.93161e-09
4.01987e-09
4.10719e-09
4.19353e-09
4.27905e-09
4.36375e-09
4.44767e-09
4.53083e-09
4.61324e-09
4.69489e-09
4.77581e-09
4.85601e-09
4.93551e-09
5.01431e-09
5.09242e-09
5.16993e-09
5.24661e-09
5.32289e-09
5.39836e-09
5.474e-09
5.54839e-09
5.62212e-09
5.69569e-09
5.76845e-09
5.84073e-09
5.91236e-09
5.98339e-09
6.05381e-09
6.12364e-09
6.19289e-09
6.26157e-09
6.32968e-09
6.39719e-09
6.46415e-09
6.53049e-09
6.59624e-09
6.66135e-09
6.72585e-09
6.78966e-09
6.85283e-09
6.91524e-09
6.97699e-09
7.0379e-09
7.09808e-09
7.15729e-09
7.21572e-09
7.27321e-09
7.3301e-09
7.38555e-09
7.43985e-09
7.49244e-09
7.54425e-09
7.59462e-09
7.64402e-09
7.69158e-09
7.73741e-09
7.78083e-09
7.82329e-09
7.86301e-09
7.90129e-09
7.93629e-09
7.96967e-09
7.99943e-09
8.02703e-09
8.05045e-09
8.07199e-09
8.08808e-09
8.10275e-09
8.11071e-09
8.11772e-09
8.11711e-09
8.11706e-09
8.10568e-09
8.09521e-09
8.0715e-09
8.048e-09
8.01386e-09
7.97766e-09
7.93125e-09
7.88218e-09
7.82183e-09
7.75878e-09
7.68336e-09
7.60552e-09
7.51426e-09
7.42107e-09
7.31313e-09
7.20389e-09
7.07842e-09
6.95146e-09
6.80761e-09
6.65606e-09
6.49612e-09
6.32019e-09
6.1413e-09
5.95301e-09
5.77073e-09
5.58793e-09
5.37959e-09
5.1722e-09
4.94536e-09
4.7207e-09
4.40789e-09
4.08386e-09
3.74545e-09
3.41396e-09
3.06901e-09
2.74114e-09
2.39827e-09
2.08546e-09
1.771e-09
1.49548e-09
1.30235e-09
1.21685e-09
9.20905e-10
7.05717e-10
6.28349e-10
6.28349e-10
7.42066e-10
7.82514e-10
8.42401e-10
1.01627e-09
1.2804e-09
1.54559e-09
1.83785e-09
2.10683e-09
2.39665e-09
2.66138e-09
2.94415e-09
3.2016e-09
3.47426e-09
3.72292e-09
3.98353e-09
4.22224e-09
4.46928e-09
4.69714e-09
4.92951e-09
5.14575e-09
5.36271e-09
5.56637e-09
5.76797e-09
5.95802e-09
6.14436e-09
6.32025e-09
6.49129e-09
6.65287e-09
6.8087e-09
6.95599e-09
7.09681e-09
7.23024e-09
7.35648e-09
7.47615e-09
7.58851e-09
7.6947e-09
7.79385e-09
7.8871e-09
7.97367e-09
8.05467e-09
8.12943e-09
8.19879e-09
8.26246e-09
8.32087e-09
8.37417e-09
8.42254e-09
8.46615e-09
8.50521e-09
8.53988e-09
8.57042e-09
8.5969e-09
8.61967e-09
8.63875e-09
8.65444e-09
8.66688e-09
8.67624e-09
8.68273e-09
8.68658e-09
8.68788e-09
8.68631e-09
8.68253e-09
8.67672e-09
8.66905e-09
8.65958e-09
8.64853e-09
8.63593e-09
8.62197e-09
8.60675e-09
8.59037e-09
8.57299e-09
8.55468e-09
8.53558e-09
8.51577e-09
8.49533e-09
8.47441e-09
8.45297e-09
8.43128e-09
8.40919e-09
8.38699e-09
8.36456e-09
8.34214e-09
8.31962e-09
8.29729e-09
8.27481e-09
8.25282e-09
8.23062e-09
8.20912e-09
8.18738e-09
8.16649e-09
8.14539e-09
8.12525e-09
8.105e-09
8.08573e-09
8.06642e-09
8.0481e-09
8.02979e-09
8.01252e-09
7.99528e-09
7.97913e-09
7.96301e-09
7.94801e-09
7.93306e-09
7.91926e-09
7.90551e-09
7.89293e-09
7.88039e-09
7.86905e-09
7.85775e-09
7.84765e-09
7.83758e-09
7.8287e-09
7.81988e-09
7.8122e-09
7.80461e-09
7.79812e-09
7.79173e-09
7.7864e-09
7.7812e-09
7.77701e-09
7.77295e-09
7.76988e-09
7.76694e-09
7.76491e-09
7.76305e-09
7.76202e-09
7.76127e-09
7.7612e-09
7.76141e-09
7.76226e-09
7.76351e-09
7.76526e-09
7.76737e-09
7.76995e-09
7.77294e-09
7.77635e-09
7.78016e-09
7.78434e-09
7.78891e-09
7.79377e-09
7.7991e-09
7.80455e-09
7.81059e-09
7.81659e-09
7.82328e-09
7.82981e-09
7.8371e-09
7.84412e-09
7.85196e-09
7.85945e-09
7.86779e-09
7.87572e-09
7.88453e-09
7.89288e-09
7.90211e-09
7.91084e-09
7.92044e-09
7.92951e-09
7.93944e-09
7.9488e-09
7.95902e-09
7.96865e-09
7.9791e-09
7.98897e-09
7.99963e-09
8.00969e-09
8.02054e-09
8.03077e-09
8.04177e-09
8.05213e-09
8.06325e-09
8.07372e-09
8.08492e-09
8.09548e-09
8.10674e-09
8.11737e-09
8.12866e-09
8.13933e-09
8.15064e-09
8.16133e-09
8.17263e-09
8.18332e-09
8.19458e-09
8.20527e-09
8.21647e-09
8.22715e-09
8.23826e-09
8.24892e-09
8.25992e-09
8.27055e-09
8.28144e-09
8.29202e-09
8.30277e-09
8.3133e-09
8.32391e-09
8.33437e-09
8.34483e-09
8.35521e-09
8.36553e-09
8.37579e-09
8.38599e-09
8.39612e-09
8.40618e-09
8.41618e-09
8.4261e-09
8.43596e-09
8.44574e-09
8.45545e-09
8.46509e-09
8.47465e-09
8.48414e-09
8.49355e-09
8.50289e-09
8.51215e-09
8.52133e-09
8.53044e-09
8.53947e-09
8.54842e-09
8.55729e-09
8.56608e-09
8.57479e-09
8.58342e-09
8.59198e-09
8.60045e-09
8.60885e-09
8.61717e-09
8.62541e-09
8.63356e-09
8.64164e-09
8.64964e-09
8.65757e-09
8.66541e-09
8.67317e-09
8.68086e-09
8.68847e-09
8.69599e-09
8.70345e-09
8.71082e-09
8.71812e-09
8.72534e-09
8.73248e-09
8.73955e-09
8.74654e-09
8.75346e-09
8.7603e-09
8.76707e-09
8.77377e-09
8.78039e-09
8.78694e-09
8.79342e-09
8.79983e-09
8.80616e-09
8.81243e-09
8.81863e-09
8.82476e-09
8.83082e-09
8.83682e-09
8.84275e-09
8.84861e-09
8.85441e-09
8.86014e-09
8.86582e-09
8.87143e-09
8.87698e-09
8.88247e-09
8.88789e-09
8.89326e-09
8.89858e-09
8.90383e-09
8.90903e-09
8.91417e-09
8.91926e-09
8.92429e-09
8.92927e-09
8.93419e-09
8.93907e-09
8.94389e-09
8.94866e-09
8.95338e-09
8.95805e-09
8.96267e-09
8.96724e-09
8.97177e-09
8.97624e-09
8.98067e-09
8.98506e-09
8.98939e-09
8.99368e-09
8.99793e-09
9.00213e-09
9.00629e-09
9.0104e-09
9.01447e-09
9.0185e-09
9.02248e-09
9.02643e-09
9.03033e-09
9.03418e-09
9.038e-09
9.04178e-09
9.04551e-09
9.04921e-09
9.05287e-09
9.05648e-09
9.06006e-09
9.0636e-09
9.0671e-09
9.07056e-09
9.07398e-09
9.07737e-09
9.08071e-09
9.08402e-09
9.0873e-09
9.09053e-09
9.09373e-09
9.0969e-09
9.10002e-09
9.10312e-09
9.10617e-09
9.1092e-09
9.11218e-09
9.11514e-09
9.11805e-09
9.12094e-09
9.12379e-09
9.1266e-09
9.12939e-09
9.13213e-09
9.13486e-09
9.13752e-09
9.14019e-09
9.14277e-09
9.1454e-09
9.14787e-09
9.15049e-09
9.15282e-09
9.15545e-09
9.1576e-09
9.1603e-09
9.16219e-09
9.16508e-09
9.16656e-09
9.16977e-09
9.17055e-09
1.31461e-11
6.56573e-11
1.67763e-10
2.86897e-10
4.17185e-10
5.59826e-10
7.12765e-10
8.72301e-10
1.03616e-09
1.20242e-09
1.36963e-09
1.53687e-09
1.70293e-09
1.86756e-09
2.03057e-09
2.19185e-09
2.35133e-09
2.5088e-09
2.66402e-09
2.81709e-09
2.96829e-09
3.11756e-09
3.2649e-09
3.41028e-09
3.55366e-09
3.69505e-09
3.83449e-09
3.97198e-09
4.10764e-09
4.24145e-09
4.37354e-09
4.50386e-09
4.63266e-09
4.76007e-09
4.88632e-09
5.01005e-09
5.13268e-09
5.25383e-09
5.37358e-09
5.49188e-09
5.6087e-09
5.72411e-09
5.83801e-09
5.95052e-09
6.06161e-09
6.17133e-09
6.27972e-09
6.3868e-09
6.49262e-09
6.59721e-09
6.70061e-09
6.80286e-09
6.90402e-09
7.00409e-09
7.10322e-09
7.20126e-09
7.29859e-09
7.39476e-09
7.49037e-09
7.5837e-09
7.67463e-09
7.76494e-09
7.85354e-09
7.94163e-09
8.02869e-09
8.11498e-09
8.20031e-09
8.28465e-09
8.36796e-09
8.45018e-09
8.53133e-09
8.61133e-09
8.69021e-09
8.76787e-09
8.84435e-09
8.91954e-09
8.9935e-09
9.0661e-09
9.13739e-09
9.20719e-09
9.27566e-09
9.34251e-09
9.40797e-09
9.47168e-09
9.53388e-09
9.59414e-09
9.65256e-09
9.70898e-09
9.76383e-09
9.81597e-09
9.86623e-09
9.91331e-09
9.95869e-09
1.00005e-08
1.00401e-08
1.00755e-08
1.01085e-08
1.01366e-08
1.01627e-08
1.01832e-08
1.02014e-08
1.02134e-08
1.02225e-08
1.02241e-08
1.0224e-08
1.02146e-08
1.02035e-08
1.0182e-08
1.01581e-08
1.01235e-08
1.00806e-08
1.00342e-08
9.972e-09
9.91007e-09
9.8533e-09
9.77456e-09
9.69511e-09
9.59736e-09
9.49826e-09
9.38239e-09
9.264e-09
9.1291e-09
8.93032e-09
8.70865e-09
8.4827e-09
8.23825e-09
7.99175e-09
7.72449e-09
7.45846e-09
7.17019e-09
6.88716e-09
6.58083e-09
6.27607e-09
5.95819e-09
5.62496e-09
5.26718e-09
4.90391e-09
4.53979e-09
4.17497e-09
3.80392e-09
3.43618e-09
3.06637e-09
2.71111e-09
2.37406e-09
2.08531e-09
1.86574e-09
1.73574e-09
1.59711e-09
1.27065e-09
1.0089e-09
9.01323e-10
9.01323e-10
9.82569e-10
1.19794e-09
1.23788e-09
1.34004e-09
1.54008e-09
1.84891e-09
2.17602e-09
2.54711e-09
2.90363e-09
3.28671e-09
3.6458e-09
4.02594e-09
4.38012e-09
4.75349e-09
5.09999e-09
5.46241e-09
5.79866e-09
6.14766e-09
6.47219e-09
6.80596e-09
7.11757e-09
7.43445e-09
7.73215e-09
8.03106e-09
8.3136e-09
8.59407e-09
8.86007e-09
9.12204e-09
9.37054e-09
9.61384e-09
9.84435e-09
1.00688e-08
1.02811e-08
1.04869e-08
1.0681e-08
1.08684e-08
1.10442e-08
1.12136e-08
1.13719e-08
1.15236e-08
1.1665e-08
1.17995e-08
1.19247e-08
1.20428e-08
1.21525e-08
1.2255e-08
1.235e-08
1.24379e-08
1.25188e-08
1.2593e-08
1.26607e-08
1.27221e-08
1.27775e-08
1.2827e-08
1.2871e-08
1.29096e-08
1.29431e-08
1.29716e-08
1.29955e-08
1.30149e-08
1.30301e-08
1.30414e-08
1.30488e-08
1.30528e-08
1.30532e-08
1.305e-08
1.30441e-08
1.30354e-08
1.30242e-08
1.30107e-08
1.2995e-08
1.29772e-08
1.29576e-08
1.29362e-08
1.29133e-08
1.28889e-08
1.28634e-08
1.28366e-08
1.28089e-08
1.27802e-08
1.27508e-08
1.27208e-08
1.26902e-08
1.26591e-08
1.26277e-08
1.25961e-08
1.25642e-08
1.25324e-08
1.25004e-08
1.24688e-08
1.24369e-08
1.24057e-08
1.23742e-08
1.23436e-08
1.23129e-08
1.22831e-08
1.22533e-08
1.22245e-08
1.21958e-08
1.21682e-08
1.21406e-08
1.21143e-08
1.20881e-08
1.20631e-08
1.20383e-08
1.20149e-08
1.19916e-08
1.19697e-08
1.1948e-08
1.19277e-08
1.19076e-08
1.18889e-08
1.18704e-08
1.18534e-08
1.18366e-08
1.18212e-08
1.18061e-08
1.17923e-08
1.17788e-08
1.17667e-08
1.17549e-08
1.17444e-08
1.17342e-08
1.17252e-08
1.17166e-08
1.17092e-08
1.17021e-08
1.16962e-08
1.16906e-08
1.16861e-08
1.1682e-08
1.1679e-08
1.16762e-08
1.16744e-08
1.16731e-08
1.16726e-08
1.16726e-08
1.16732e-08
1.16745e-08
1.16763e-08
1.16787e-08
1.16817e-08
1.16851e-08
1.16891e-08
1.16937e-08
1.16986e-08
1.17042e-08
1.17099e-08
1.17164e-08
1.1723e-08
1.17304e-08
1.17378e-08
1.17459e-08
1.1754e-08
1.17629e-08
1.17717e-08
1.17813e-08
1.17907e-08
1.18009e-08
1.1811e-08
1.18218e-08
1.18323e-08
1.18436e-08
1.18546e-08
1.18664e-08
1.18778e-08
1.189e-08
1.19018e-08
1.19144e-08
1.19265e-08
1.19394e-08
1.19518e-08
1.1965e-08
1.19777e-08
1.1991e-08
1.20039e-08
1.20175e-08
1.20305e-08
1.20442e-08
1.20575e-08
1.20713e-08
1.20846e-08
1.20985e-08
1.21119e-08
1.21258e-08
1.21393e-08
1.21533e-08
1.21668e-08
1.21807e-08
1.21942e-08
1.22081e-08
1.22216e-08
1.22355e-08
1.22489e-08
1.22627e-08
1.22761e-08
1.22898e-08
1.23032e-08
1.23167e-08
1.233e-08
1.23434e-08
1.23566e-08
1.23699e-08
1.2383e-08
1.23961e-08
1.24091e-08
1.2422e-08
1.24349e-08
1.24477e-08
1.24604e-08
1.2473e-08
1.24855e-08
1.2498e-08
1.25103e-08
1.25226e-08
1.25348e-08
1.25469e-08
1.25589e-08
1.25709e-08
1.25827e-08
1.25944e-08
1.26061e-08
1.26176e-08
1.26291e-08
1.26404e-08
1.26517e-08
1.26629e-08
1.26739e-08
1.26849e-08
1.26958e-08
1.27066e-08
1.27173e-08
1.27278e-08
1.27383e-08
1.27487e-08
1.2759e-08
1.27692e-08
1.27793e-08
1.27892e-08
1.27991e-08
1.28089e-08
1.28186e-08
1.28282e-08
1.28377e-08
1.28471e-08
1.28564e-08
1.28656e-08
1.28747e-08
1.28837e-08
1.28927e-08
1.29015e-08
1.29102e-08
1.29189e-08
1.29274e-08
1.29359e-08
1.29442e-08
1.29525e-08
1.29607e-08
1.29688e-08
1.29768e-08
1.29847e-08
1.29926e-08
1.30003e-08
1.3008e-08
1.30156e-08
1.30231e-08
1.30305e-08
1.30379e-08
1.30451e-08
1.30523e-08
1.30594e-08
1.30665e-08
1.30734e-08
1.30803e-08
1.30871e-08
1.30939e-08
1.31005e-08
1.31071e-08
1.31137e-08
1.31201e-08
1.31265e-08
1.31329e-08
1.31391e-08
1.31453e-08
1.31515e-08
1.31575e-08
1.31635e-08
1.31695e-08
1.31754e-08
1.31812e-08
1.31869e-08
1.31926e-08
1.31983e-08
1.32039e-08
1.32094e-08
1.32148e-08
1.32203e-08
1.32256e-08
1.32309e-08
1.32361e-08
1.32413e-08
1.32464e-08
1.32515e-08
1.32565e-08
1.32615e-08
1.32664e-08
1.32713e-08
1.32761e-08
1.32808e-08
1.32855e-08
1.32902e-08
1.32948e-08
1.32993e-08
1.33038e-08
1.33083e-08
1.33127e-08
1.3317e-08
1.33213e-08
1.33256e-08
1.33298e-08
1.33339e-08
1.33381e-08
1.33421e-08
1.33461e-08
1.33501e-08
1.3354e-08
1.33579e-08
1.33617e-08
1.33655e-08
1.33693e-08
1.3373e-08
1.33766e-08
1.33803e-08
1.33838e-08
1.33874e-08
1.33908e-08
1.33943e-08
1.33976e-08
1.3401e-08
1.34042e-08
1.34076e-08
1.34106e-08
1.3414e-08
1.34168e-08
1.34203e-08
1.34227e-08
1.34263e-08
1.34281e-08
3.6639e-11
1.24392e-10
2.80385e-10
4.54731e-10
6.28214e-10
8.12443e-10
1.00563e-09
1.20536e-09
1.40913e-09
1.61568e-09
1.82298e-09
2.0298e-09
2.23507e-09
2.4382e-09
2.63878e-09
2.83657e-09
3.03132e-09
3.22271e-09
3.41084e-09
3.59603e-09
3.77877e-09
3.9585e-09
4.13572e-09
4.31014e-09
4.4818e-09
4.65075e-09
4.81701e-09
4.98065e-09
5.14173e-09
5.30034e-09
5.4566e-09
5.61049e-09
5.76218e-09
5.91167e-09
6.05894e-09
6.20392e-09
6.34583e-09
6.48565e-09
6.62327e-09
6.75868e-09
6.89181e-09
7.02287e-09
7.15182e-09
7.27896e-09
7.4042e-09
7.52776e-09
7.64953e-09
7.76952e-09
7.88775e-09
8.00421e-09
8.11892e-09
8.23192e-09
8.34318e-09
8.45269e-09
8.56038e-09
8.66656e-09
8.77071e-09
8.8734e-09
8.97427e-09
9.0736e-09
9.172e-09
9.2686e-09
9.36433e-09
9.45746e-09
9.54894e-09
9.63857e-09
9.72646e-09
9.81257e-09
9.89695e-09
9.9795e-09
1.00603e-08
1.01392e-08
1.02162e-08
1.02913e-08
1.03644e-08
1.04355e-08
1.05045e-08
1.05712e-08
1.06359e-08
1.06981e-08
1.07582e-08
1.08155e-08
1.08709e-08
1.09231e-08
1.09733e-08
1.10201e-08
1.10645e-08
1.11049e-08
1.11424e-08
1.11749e-08
1.12054e-08
1.12317e-08
1.12551e-08
1.12735e-08
1.12895e-08
1.12984e-08
1.13049e-08
1.13031e-08
1.12999e-08
1.12876e-08
1.12432e-08
1.11692e-08
1.10939e-08
1.10043e-08
1.09134e-08
1.08072e-08
1.07001e-08
1.0576e-08
1.04528e-08
1.03099e-08
1.01713e-08
1.00098e-08
9.85233e-09
9.67605e-09
9.47982e-09
9.27857e-09
9.06781e-09
8.84542e-09
8.61527e-09
8.3708e-09
8.11965e-09
7.8528e-09
7.58016e-09
7.29097e-09
6.99706e-09
6.68586e-09
6.3721e-09
6.03946e-09
5.70701e-09
5.35598e-09
5.00669e-09
4.64365e-09
4.28289e-09
3.91832e-09
3.56046e-09
3.21845e-09
2.89998e-09
2.62385e-09
2.40975e-09
2.2667e-09
2.18822e-09
1.9234e-09
1.60462e-09
1.35576e-09
1.23001e-09
1.23001e-09
1.26061e-09
1.4453e-09
1.66722e-09
1.71071e-09
1.81741e-09
2.05063e-09
2.35383e-09
2.73442e-09
3.12974e-09
3.56251e-09
3.98132e-09
4.42804e-09
4.85212e-09
5.30472e-09
5.72858e-09
6.1742e-09
6.59187e-09
7.0289e-09
7.43794e-09
7.86319e-09
8.26194e-09
8.67411e-09
9.06053e-09
9.45687e-09
9.82928e-09
1.0208e-08
1.05653e-08
1.09248e-08
1.12661e-08
1.16057e-08
1.19291e-08
1.22486e-08
1.2553e-08
1.28521e-08
1.31367e-08
1.34151e-08
1.36795e-08
1.39371e-08
1.41811e-08
1.44179e-08
1.46416e-08
1.48578e-08
1.50613e-08
1.52572e-08
1.54411e-08
1.56172e-08
1.57821e-08
1.5939e-08
1.60856e-08
1.62242e-08
1.63531e-08
1.64741e-08
1.65863e-08
1.66906e-08
1.67868e-08
1.68753e-08
1.69564e-08
1.70302e-08
1.7097e-08
1.7157e-08
1.72104e-08
1.72576e-08
1.72988e-08
1.73342e-08
1.7364e-08
1.73886e-08
1.74081e-08
1.74228e-08
1.7433e-08
1.7439e-08
1.74408e-08
1.74383e-08
1.74321e-08
1.74226e-08
1.74101e-08
1.73945e-08
1.73763e-08
1.73554e-08
1.73322e-08
1.73068e-08
1.72793e-08
1.725e-08
1.7219e-08
1.71864e-08
1.71525e-08
1.71173e-08
1.70811e-08
1.70439e-08
1.70058e-08
1.69671e-08
1.69278e-08
1.6888e-08
1.68478e-08
1.68075e-08
1.67669e-08
1.67265e-08
1.66857e-08
1.66455e-08
1.6605e-08
1.65654e-08
1.65255e-08
1.64866e-08
1.64475e-08
1.64096e-08
1.63717e-08
1.63349e-08
1.62983e-08
1.62629e-08
1.62278e-08
1.61939e-08
1.61603e-08
1.61281e-08
1.60962e-08
1.60658e-08
1.60357e-08
1.60072e-08
1.59789e-08
1.59522e-08
1.59259e-08
1.59011e-08
1.58768e-08
1.5854e-08
1.58315e-08
1.58107e-08
1.57903e-08
1.57714e-08
1.57529e-08
1.5736e-08
1.57195e-08
1.57045e-08
1.56899e-08
1.56768e-08
1.56641e-08
1.56528e-08
1.56419e-08
1.56324e-08
1.56233e-08
1.56156e-08
1.56082e-08
1.56022e-08
1.55965e-08
1.5592e-08
1.5588e-08
1.5585e-08
1.55826e-08
1.55811e-08
1.55802e-08
1.558e-08
1.55805e-08
1.55816e-08
1.55835e-08
1.55859e-08
1.55891e-08
1.55926e-08
1.55969e-08
1.56016e-08
1.5607e-08
1.56127e-08
1.56191e-08
1.56258e-08
1.56333e-08
1.56409e-08
1.56493e-08
1.56577e-08
1.56669e-08
1.56762e-08
1.56862e-08
1.56961e-08
1.57068e-08
1.57174e-08
1.57288e-08
1.574e-08
1.57519e-08
1.57637e-08
1.57761e-08
1.57884e-08
1.58013e-08
1.5814e-08
1.58273e-08
1.58403e-08
1.5854e-08
1.58674e-08
1.58814e-08
1.58951e-08
1.59094e-08
1.59233e-08
1.59378e-08
1.59519e-08
1.59666e-08
1.59809e-08
1.59957e-08
1.60101e-08
1.6025e-08
1.60396e-08
1.60546e-08
1.60691e-08
1.60842e-08
1.60988e-08
1.61138e-08
1.61285e-08
1.61435e-08
1.61581e-08
1.61731e-08
1.61877e-08
1.62026e-08
1.62172e-08
1.62319e-08
1.62465e-08
1.62611e-08
1.62756e-08
1.62901e-08
1.63045e-08
1.63189e-08
1.63332e-08
1.63474e-08
1.63616e-08
1.63756e-08
1.63896e-08
1.64036e-08
1.64174e-08
1.64312e-08
1.64448e-08
1.64584e-08
1.64719e-08
1.64853e-08
1.64986e-08
1.65119e-08
1.6525e-08
1.6538e-08
1.6551e-08
1.65638e-08
1.65765e-08
1.65892e-08
1.66017e-08
1.66141e-08
1.66265e-08
1.66387e-08
1.66508e-08
1.66628e-08
1.66747e-08
1.66866e-08
1.66983e-08
1.67098e-08
1.67213e-08
1.67327e-08
1.6744e-08
1.67552e-08
1.67662e-08
1.67772e-08
1.6788e-08
1.67988e-08
1.68094e-08
1.68199e-08
1.68304e-08
1.68407e-08
1.68509e-08
1.6861e-08
1.6871e-08
1.68809e-08
1.68907e-08
1.69004e-08
1.691e-08
1.69195e-08
1.69289e-08
1.69382e-08
1.69474e-08
1.69565e-08
1.69655e-08
1.69744e-08
1.69832e-08
1.6992e-08
1.70006e-08
1.70091e-08
1.70176e-08
1.7026e-08
1.70342e-08
1.70424e-08
1.70505e-08
1.70585e-08
1.70665e-08
1.70743e-08
1.70821e-08
1.70898e-08
1.70974e-08
1.71049e-08
1.71124e-08
1.71198e-08
1.71271e-08
1.71343e-08
1.71415e-08
1.71485e-08
1.71555e-08
1.71625e-08
1.71693e-08
1.71761e-08
1.71828e-08
1.71895e-08
1.71961e-08
1.72026e-08
1.7209e-08
1.72154e-08
1.72217e-08
1.7228e-08
1.72342e-08
1.72403e-08