/*--------------------------------*- C++ -*----------------------------------*\
| =========                 |                                                 |
| \\      /  F ield         | OpenFOAM: The Open Source CFD Toolbox           |
|  \\    /   O peration     | Version:  2012                                  |
|   \\  /    A nd           | Website:  www.openfoam.com                      |
|    \\/     M anipulation  |                                                 |
\*---------------------------------------------------------------------------*/
FoamFile
{
    version     2.0;
    format      ascii;
    class       volScalarField;
    location    "2420";
    object      p;
}
// * * * * * * * * * * * * * * * * * * * * * * * * * * * * * * * * * * * * * //

dimensions      [1 -1 -2 0 0 0 0];


internalField   nonuniform List<scalar> 
20400
(
998.201
998.201
998.2
998.199
998.199
998.198
998.198
998.198
998.197
998.197
998.197
998.197
998.198
998.198
998.198
998.199
998.199
998.2
998.2
998.201
998.202
998.203
998.205
998.206
998.207
998.209
998.211
998.213
998.215
998.217
998.219
998.222
998.225
998.227
998.23
998.234
998.237
998.24
998.244
998.248
998.252
998.256
998.26
998.264
998.269
998.273
998.278
998.283
998.288
998.293
998.299
998.304
998.31
998.316
998.322
998.328
998.335
998.341
998.348
998.355
998.362
998.369
998.376
998.384
998.392
998.4
998.409
998.417
998.426
998.435
998.444
998.453
998.463
998.473
998.483
998.493
998.504
998.515
998.526
998.537
998.548
998.56
998.572
998.584
998.597
998.609
998.622
998.636
998.649
998.663
998.677
998.691
998.706
998.721
998.736
998.752
998.768
998.784
998.8
998.817
998.834
998.852
998.87
998.888
998.907
998.926
998.945
998.965
998.986
999.006
999.028
999.049
999.072
999.094
999.118
999.14
999.165
999.188
999.213
999.237
999.263
999.287
999.314
999.338
999.366
999.39
999.418
999.443
999.471
999.497
999.524
999.549
999.576
999.6
999.626
999.65
999.676
999.7
999.728
999.752
999.779
999.803
999.83
999.854
999.88
999.905
999.93
999.956
999.981
1000.01
1000.03
1000.06
1000.08
1000.1
1000.12
1000.14
1000.15
1000.17
1000.18
1000.2
1000.21
1000.23
1000.24
1000.26
1000.27
1000.28
1000.29
1000.3
1000.31
1000.32
1000.33
1000.34
1000.35
1000.35
1000.36
1000.37
1000.37
1000.38
1000.38
1000.39
1000.39
1000.39
1000.39
1000.4
1000.4
1000.4
1000.4
1000.41
1000.41
1000.41
1000.41
1000.41
1000.41
1000.41
1000.41
1000.41
1000.41
1000.41
1000.41
1000.41
1000.41
1000.41
1000.41
1000.41
1000.41
1000.41
1000.41
1000.41
1000.41
1000.41
1000.41
1000.41
1000.41
1000.41
1000.41
1000.41
1000.41
1000.41
1000.41
1000.41
1000.41
1000.41
1000.41
1000.41
1000.41
1000.41
1000.41
1000.42
1000.42
1000.42
1000.42
1000.42
1000.42
1000.42
1000.42
1000.42
1000.42
1000.42
1000.42
1000.43
1000.43
1000.43
1000.43
1000.43
1000.43
1000.43
1000.43
1000.43
1000.44
1000.44
1000.44
1000.44
1000.44
1000.44
1000.44
1000.44
1000.44
1000.45
1000.45
1000.45
1000.45
1000.45
1000.45
1000.45
1000.45
1000.45
1000.45
1000.46
1000.46
1000.46
1000.46
1000.46
1000.46
1000.46
1000.46
1000.46
1000.46
1000.46
1000.46
1000.46
1000.46
1000.46
1000.46
1000.47
1000.47
1000.47
1000.47
1000.47
1000.47
1000.47
1000.47
1000.47
1000.47
1000.47
1000.47
1000.47
1000.47
1000.47
1000.47
1000.47
1000.47
1000.47
1000.47
1000.47
1000.47
1000.47
1000.47
1000.46
1000.46
1000.46
1000.46
1000.46
1000.46
1000.46
1000.46
1000.46
1000.46
1000.46
1000.46
1000.46
1000.46
1000.45
1000.45
1000.45
1000.45
1000.45
1000.45
1000.45
1000.45
1000.45
1000.45
1000.44
1000.44
1000.44
1000.44
1000.44
1000.44
1000.44
1000.43
1000.43
1000.43
1000.43
1000.43
1000.43
1000.43
1000.42
1000.42
1000.42
1000.42
1000.42
1000.41
1000.41
1000.41
1000.41
1000.41
1000.41
1000.4
1000.4
1000.4
1000.4
1000.4
1000.39
1000.39
1000.39
1000.39
1000.39
1000.38
1000.38
1000.38
1000.38
1000.38
1000.37
1000.37
1000.37
1000.37
1000.36
1000.36
1000.36
1000.36
1000.35
1000.35
1000.35
1000.35
1000.35
1000.34
1000.34
1000.34
1000.34
1000.33
1000.33
1000.33
1000.33
1000.32
1000.32
1000.32
1000.32
1000.31
1000.31
1000.31
1000.31
1000.3
1000.3
1000.3
1000.29
1000.29
1000.29
1000.29
1000.28
1000.28
1000.28
1000.28
1000.27
1000.27
1000.27
1000.26
1000.26
1000.26
1000.26
1000.25
1000.25
1000.25
1000.24
1000.24
1000.24
1000.24
1000.23
1000.23
1000.23
1000.22
1000.22
1000.22
1000.22
1000.21
1000.21
1000.21
1000.2
1000.2
1000.2
1000.2
1000.19
1000.19
1000.19
1000.18
1000.18
1000.18
1000.17
1000.17
1000.17
1000.16
1000.16
1000.16
1000.16
1000.15
1000.15
1000.15
1000.14
1000.14
1000.14
1000.13
1000.13
1000.13
1000.12
1000.12
1000.12
1000.12
1000.11
1000.11
1000.11
1000.1
1000.1
1000.1
1000.09
1000.09
1000.09
1000.08
1000.08
1000.08
1000.07
1000.07
1000.07
1000.06
1000.06
1000.06
1000.05
1000.05
1000.05
1000.04
1000.04
1000.04
1000.03
1000.03
1000.03
1000.02
1000.02
1000.02
1000.01
1000.01
1000.01
1000.01
1000
998.202
998.201
998.201
998.2
998.2
998.199
998.199
998.199
998.199
998.198
998.198
998.199
998.199
998.199
998.199
998.2
998.2
998.201
998.202
998.203
998.204
998.205
998.206
998.208
998.209
998.211
998.213
998.215
998.217
998.219
998.221
998.223
998.226
998.228
998.231
998.234
998.237
998.24
998.243
998.246
998.25
998.254
998.258
998.262
998.266
998.271
998.276
998.281
998.286
998.291
998.297
998.303
998.309
998.315
998.321
998.328
998.334
998.341
998.349
998.356
998.364
998.371
998.379
998.387
998.395
998.403
998.412
998.42
998.429
998.438
998.447
998.456
998.466
998.475
998.485
998.495
998.506
998.516
998.527
998.538
998.55
998.561
998.573
998.585
998.597
998.61
998.623
998.636
998.649
998.663
998.677
998.692
998.706
998.721
998.737
998.753
998.769
998.786
998.802
998.82
998.837
998.855
998.874
998.892
998.911
998.931
998.95
998.97
998.991
999.011
999.032
999.052
999.073
999.092
999.114
999.134
999.158
999.178
999.203
999.225
999.25
999.272
999.299
999.322
999.349
999.372
999.4
999.424
999.453
999.478
999.508
999.535
999.567
999.596
999.63
999.66
999.691
999.72
999.749
999.777
999.804
999.831
999.857
999.883
999.907
999.931
999.952
999.973
999.989
1000.01
1000.02
1000.04
1000.05
1000.08
1000.09
1000.11
1000.13
1000.15
1000.18
1000.2
1000.21
1000.23
1000.24
1000.26
1000.27
1000.28
1000.29
1000.3
1000.31
1000.32
1000.33
1000.34
1000.34
1000.35
1000.36
1000.37
1000.37
1000.38
1000.38
1000.38
1000.39
1000.39
1000.39
1000.4
1000.4
1000.4
1000.4
1000.4
1000.41
1000.41
1000.41
1000.41
1000.41
1000.41
1000.41
1000.41
1000.41
1000.41
1000.41
1000.41
1000.41
1000.41
1000.41
1000.41
1000.41
1000.41
1000.41
1000.41
1000.41
1000.41
1000.41
1000.41
1000.41
1000.41
1000.41
1000.41
1000.41
1000.41
1000.41
1000.41
1000.41
1000.41
1000.41
1000.41
1000.41
1000.41
1000.41
1000.42
1000.42
1000.42
1000.42
1000.42
1000.42
1000.42
1000.42
1000.42
1000.42
1000.42
1000.42
1000.43
1000.43
1000.43
1000.43
1000.43
1000.43
1000.43
1000.43
1000.43
1000.44
1000.44
1000.44
1000.44
1000.44
1000.44
1000.44
1000.44
1000.44
1000.45
1000.45
1000.45
1000.45
1000.45
1000.45
1000.45
1000.45
1000.45
1000.45
1000.46
1000.46
1000.46
1000.46
1000.46
1000.46
1000.46
1000.46
1000.46
1000.46
1000.46
1000.46
1000.46
1000.46
1000.46
1000.46
1000.47
1000.47
1000.47
1000.47
1000.47
1000.47
1000.47
1000.47
1000.47
1000.47
1000.47
1000.47
1000.47
1000.47
1000.47
1000.47
1000.47
1000.47
1000.47
1000.47
1000.47
1000.47
1000.47
1000.47
1000.46
1000.46
1000.46
1000.46
1000.46
1000.46
1000.46
1000.46
1000.46
1000.46
1000.46
1000.46
1000.46
1000.46
1000.45
1000.45
1000.45
1000.45
1000.45
1000.45
1000.45
1000.45
1000.45
1000.45
1000.44
1000.44
1000.44
1000.44
1000.44
1000.44
1000.44
1000.43
1000.43
1000.43
1000.43
1000.43
1000.43
1000.43
1000.42
1000.42
1000.42
1000.42
1000.42
1000.41
1000.41
1000.41
1000.41
1000.41
1000.41
1000.4
1000.4
1000.4
1000.4
1000.4
1000.39
1000.39
1000.39
1000.39
1000.39
1000.38
1000.38
1000.38
1000.38
1000.38
1000.37
1000.37
1000.37
1000.37
1000.36
1000.36
1000.36
1000.36
1000.35
1000.35
1000.35
1000.35
1000.35
1000.34
1000.34
1000.34
1000.34
1000.33
1000.33
1000.33
1000.33
1000.32
1000.32
1000.32
1000.32
1000.31
1000.31
1000.31
1000.31
1000.3
1000.3
1000.3
1000.29
1000.29
1000.29
1000.29
1000.28
1000.28
1000.28
1000.28
1000.27
1000.27
1000.27
1000.26
1000.26
1000.26
1000.26
1000.25
1000.25
1000.25
1000.24
1000.24
1000.24
1000.24
1000.23
1000.23
1000.23
1000.22
1000.22
1000.22
1000.22
1000.21
1000.21
1000.21
1000.2
1000.2
1000.2
1000.2
1000.19
1000.19
1000.19
1000.18
1000.18
1000.18
1000.17
1000.17
1000.17
1000.16
1000.16
1000.16
1000.16
1000.15
1000.15
1000.15
1000.14
1000.14
1000.14
1000.13
1000.13
1000.13
1000.12
1000.12
1000.12
1000.12
1000.11
1000.11
1000.11
1000.1
1000.1
1000.1
1000.09
1000.09
1000.09
1000.08
1000.08
1000.08
1000.07
1000.07
1000.07
1000.06
1000.06
1000.06
1000.05
1000.05
1000.05
1000.04
1000.04
1000.04
1000.03
1000.03
1000.03
1000.02
1000.02
1000.02
1000.01
1000.01
1000.01
1000.01
1000
998.202
998.201
998.201
998.2
998.2
998.2
998.199
998.199
998.199
998.199
998.199
998.199
998.199
998.199
998.2
998.2
998.201
998.201
998.202
998.202
998.203
998.204
998.205
998.207
998.208
998.21
998.211
998.213
998.215
998.218
998.22
998.223
998.226
998.229
998.232
998.235
998.239
998.243
998.247
998.251
998.255
998.259
998.264
998.268
998.272
998.277
998.282
998.287
998.292
998.297
998.302
998.308
998.313
998.319
998.325
998.331
998.337
998.343
998.349
998.355
998.362
998.368
998.376
998.383
998.391
998.399
998.407
998.416
998.425
998.434
998.443
998.452
998.462
998.472
998.482
998.493
998.503
998.514
998.525
998.537
998.548
998.56
998.572
998.585
998.597
998.61
998.623
998.637
998.65
998.664
998.678
998.692
998.707
998.721
998.736
998.752
998.767
998.783
998.799
998.816
998.833
998.85
998.867
998.885
998.903
998.922
998.941
998.961
998.981
999.002
999.024
999.047
999.07
999.094
999.12
999.144
999.17
999.194
999.22
999.244
999.271
999.296
999.323
999.348
999.376
999.401
999.429
999.454
999.482
999.507
999.534
999.556
999.581
999.6
999.621
999.638
999.663
999.682
999.709
999.731
999.758
999.781
999.807
999.831
999.857
999.882
999.909
999.936
999.966
999.995
1000.03
1000.05
1000.08
1000.1
1000.12
1000.14
1000.15
1000.17
1000.18
1000.2
1000.21
1000.23
1000.24
1000.25
1000.26
1000.28
1000.29
1000.3
1000.31
1000.32
1000.33
1000.34
1000.34
1000.35
1000.36
1000.36
1000.37
1000.37
1000.38
1000.38
1000.39
1000.39
1000.39
1000.4
1000.4
1000.4
1000.4
1000.4
1000.4
1000.41
1000.41
1000.41
1000.41
1000.41
1000.41
1000.41
1000.41
1000.41
1000.41
1000.41
1000.41
1000.41
1000.41
1000.41
1000.41
1000.41
1000.41
1000.41
1000.41
1000.41
1000.41
1000.41
1000.41
1000.41
1000.41
1000.41
1000.41
1000.41
1000.41
1000.41
1000.41
1000.41
1000.41
1000.41
1000.41
1000.41
1000.41
1000.42
1000.42
1000.42
1000.42
1000.42
1000.42
1000.42
1000.42
1000.42
1000.42
1000.42
1000.42
1000.43
1000.43
1000.43
1000.43
1000.43
1000.43
1000.43
1000.43
1000.43
1000.44
1000.44
1000.44
1000.44
1000.44
1000.44
1000.44
1000.44
1000.44
1000.45
1000.45
1000.45
1000.45
1000.45
1000.45
1000.45
1000.45
1000.45
1000.45
1000.46
1000.46
1000.46
1000.46
1000.46
1000.46
1000.46
1000.46
1000.46
1000.46
1000.46
1000.46
1000.46
1000.46
1000.46
1000.47
1000.47
1000.47
1000.47
1000.47
1000.47
1000.47
1000.47
1000.47
1000.47
1000.47
1000.47
1000.47
1000.47
1000.47
1000.47
1000.47
1000.47
1000.47
1000.47
1000.47
1000.47
1000.47
1000.47
1000.47
1000.46
1000.46
1000.46
1000.46
1000.46
1000.46
1000.46
1000.46
1000.46
1000.46
1000.46
1000.46
1000.46
1000.46
1000.45
1000.45
1000.45
1000.45
1000.45
1000.45
1000.45
1000.45
1000.45
1000.44
1000.44
1000.44
1000.44
1000.44
1000.44
1000.44
1000.44
1000.43
1000.43
1000.43
1000.43
1000.43
1000.43
1000.43
1000.42
1000.42
1000.42
1000.42
1000.42
1000.41
1000.41
1000.41
1000.41
1000.41
1000.41
1000.4
1000.4
1000.4
1000.4
1000.4
1000.39
1000.39
1000.39
1000.39
1000.39
1000.38
1000.38
1000.38
1000.38
1000.38
1000.37
1000.37
1000.37
1000.37
1000.36
1000.36
1000.36
1000.36
1000.35
1000.35
1000.35
1000.35
1000.35
1000.34
1000.34
1000.34
1000.34
1000.33
1000.33
1000.33
1000.33
1000.32
1000.32
1000.32
1000.32
1000.31
1000.31
1000.31
1000.31
1000.3
1000.3
1000.3
1000.29
1000.29
1000.29
1000.29
1000.28
1000.28
1000.28
1000.28
1000.27
1000.27
1000.27
1000.26
1000.26
1000.26
1000.26
1000.25
1000.25
1000.25
1000.24
1000.24
1000.24
1000.24
1000.23
1000.23
1000.23
1000.22
1000.22
1000.22
1000.22
1000.21
1000.21
1000.21
1000.2
1000.2
1000.2
1000.2
1000.19
1000.19
1000.19
1000.18
1000.18
1000.18
1000.17
1000.17
1000.17
1000.16
1000.16
1000.16
1000.16
1000.15
1000.15
1000.15
1000.14
1000.14
1000.14
1000.13
1000.13
1000.13
1000.12
1000.12
1000.12
1000.12
1000.11
1000.11
1000.11
1000.1
1000.1
1000.1
1000.09
1000.09
1000.09
1000.08
1000.08
1000.08
1000.07
1000.07
1000.07
1000.06
1000.06
1000.06
1000.05
1000.05
1000.05
1000.04
1000.04
1000.04
1000.03
1000.03
1000.03
1000.02
1000.02
1000.02
1000.01
1000.01
1000.01
1000.01
1000
998.203
998.202
998.202
998.201
998.201
998.2
998.2
998.2
998.2
998.2
998.2
998.2
998.2
998.2
998.2
998.201
998.201
998.202
998.203
998.204
998.205
998.207
998.208
998.21
998.211
998.213
998.215
998.217
998.219
998.221
998.223
998.225
998.227
998.229
998.231
998.234
998.236
998.239
998.242
998.245
998.248
998.252
998.255
998.26
998.264
998.269
998.273
998.278
998.284
998.289
998.295
998.301
998.307
998.313
998.32
998.326
998.333
998.341
998.349
998.357
998.365
998.373
998.382
998.39
998.398
998.406
998.415
998.423
998.432
998.44
998.449
998.458
998.468
998.477
998.487
998.497
998.507
998.518
998.528
998.539
998.55
998.562
998.573
998.585
998.597
998.61
998.622
998.635
998.648
998.662
998.676
998.691
998.706
998.721
998.737
998.753
998.769
998.786
998.803
998.82
998.839
998.856
998.876
998.894
998.914
998.933
998.953
998.973
998.994
999.013
999.035
999.052
999.072
999.088
999.11
999.128
999.152
999.17
999.195
999.215
999.241
999.262
999.289
999.31
999.337
999.36
999.387
999.411
999.439
999.464
999.493
999.522
999.553
999.585
999.621
999.654
999.687
999.717
999.746
999.774
999.802
999.828
999.855
999.88
999.905
999.928
999.95
999.971
999.989
1000.01
1000.02
1000.04
1000.06
1000.08
1000.1
1000.12
1000.13
1000.15
1000.17
1000.19
1000.21
1000.22
1000.24
1000.25
1000.26
1000.28
1000.29
1000.3
1000.31
1000.32
1000.32
1000.34
1000.34
1000.35
1000.35
1000.36
1000.37
1000.37
1000.38
1000.38
1000.38
1000.39
1000.39
1000.39
1000.4
1000.4
1000.4
1000.4
1000.4
1000.4
1000.41
1000.41
1000.41
1000.41
1000.41
1000.41
1000.41
1000.41
1000.41
1000.41
1000.41
1000.41
1000.41
1000.41
1000.41
1000.41
1000.41
1000.41
1000.41
1000.41
1000.41
1000.41
1000.41
1000.41
1000.41
1000.41
1000.41
1000.41
1000.41
1000.41
1000.41
1000.41
1000.41
1000.41
1000.41
1000.41
1000.41
1000.42
1000.42
1000.42
1000.42
1000.42
1000.42
1000.42
1000.42
1000.42
1000.42
1000.42
1000.43
1000.43
1000.43
1000.43
1000.43
1000.43
1000.43
1000.43
1000.43
1000.43
1000.44
1000.44
1000.44
1000.44
1000.44
1000.44
1000.44
1000.44
1000.44
1000.45
1000.45
1000.45
1000.45
1000.45
1000.45
1000.45
1000.45
1000.45
1000.45
1000.46
1000.46
1000.46
1000.46
1000.46
1000.46
1000.46
1000.46
1000.46
1000.46
1000.46
1000.46
1000.46
1000.46
1000.46
1000.47
1000.47
1000.47
1000.47
1000.47
1000.47
1000.47
1000.47
1000.47
1000.47
1000.47
1000.47
1000.47
1000.47
1000.47
1000.47
1000.47
1000.47
1000.47
1000.47
1000.47
1000.47
1000.47
1000.47
1000.47
1000.46
1000.46
1000.46
1000.46
1000.46
1000.46
1000.46
1000.46
1000.46
1000.46
1000.46
1000.46
1000.46
1000.46
1000.45
1000.45
1000.45
1000.45
1000.45
1000.45
1000.45
1000.45
1000.45
1000.44
1000.44
1000.44
1000.44
1000.44
1000.44
1000.44
1000.44
1000.43
1000.43
1000.43
1000.43
1000.43
1000.43
1000.42
1000.42
1000.42
1000.42
1000.42
1000.42
1000.41
1000.41
1000.41
1000.41
1000.41
1000.41
1000.4
1000.4
1000.4
1000.4
1000.4
1000.39
1000.39
1000.39
1000.39
1000.39
1000.38
1000.38
1000.38
1000.38
1000.38
1000.37
1000.37
1000.37
1000.37
1000.36
1000.36
1000.36
1000.36
1000.35
1000.35
1000.35
1000.35
1000.35
1000.34
1000.34
1000.34
1000.34
1000.33
1000.33
1000.33
1000.33
1000.32
1000.32
1000.32
1000.32
1000.31
1000.31
1000.31
1000.31
1000.3
1000.3
1000.3
1000.29
1000.29
1000.29
1000.29
1000.28
1000.28
1000.28
1000.28
1000.27
1000.27
1000.27
1000.26
1000.26
1000.26
1000.26
1000.25
1000.25
1000.25
1000.24
1000.24
1000.24
1000.24
1000.23
1000.23
1000.23
1000.22
1000.22
1000.22
1000.22
1000.21
1000.21
1000.21
1000.2
1000.2
1000.2
1000.2
1000.19
1000.19
1000.19
1000.18
1000.18
1000.18
1000.17
1000.17
1000.17
1000.16
1000.16
1000.16
1000.16
1000.15
1000.15
1000.15
1000.14
1000.14
1000.14
1000.13
1000.13
1000.13
1000.12
1000.12
1000.12
1000.12
1000.11
1000.11
1000.11
1000.1
1000.1
1000.1
1000.09
1000.09
1000.09
1000.08
1000.08
1000.08
1000.07
1000.07
1000.07
1000.06
1000.06
1000.06
1000.05
1000.05
1000.05
1000.04
1000.04
1000.04
1000.03
1000.03
1000.03
1000.02
1000.02
1000.02
1000.01
1000.01
1000.01
1000.01
1000
998.203
998.202
998.202
998.201
998.201
998.2
998.2
998.2
998.2
998.2
998.2
998.2
998.2
998.2
998.201
998.201
998.201
998.202
998.202
998.203
998.203
998.204
998.205
998.206
998.207
998.209
998.21
998.212
998.214
998.216
998.219
998.222
998.225
998.229
998.232
998.236
998.241
998.245
998.249
998.254
998.258
998.263
998.267
998.272
998.276
998.281
998.286
998.29
998.295
998.3
998.305
998.311
998.316
998.322
998.327
998.333
998.338
998.344
998.349
998.355
998.36
998.366
998.373
998.38
998.388
998.396
998.404
998.413
998.422
998.431
998.44
998.45
998.46
998.47
998.48
998.491
998.501
998.512
998.524
998.535
998.547
998.559
998.571
998.584
998.597
998.609
998.623
998.636
998.65
998.664
998.678
998.692
998.706
998.721
998.736
998.75
998.766
998.781
998.797
998.813
998.83
998.846
998.864
998.881
998.9
998.917
998.937
998.955
998.976
998.996
999.017
999.04
999.065
999.092
999.115
999.141
999.166
999.191
999.216
999.241
999.267
999.292
999.319
999.344
999.372
999.397
999.425
999.45
999.479
999.503
999.53
999.554
999.578
999.6
999.623
999.644
999.668
999.689
999.716
999.738
999.765
999.789
999.815
999.839
999.865
999.89
999.916
999.941
999.968
999.993
1000.02
1000.04
1000.07
1000.09
1000.11
1000.13
1000.14
1000.16
1000.18
1000.19
1000.21
1000.22
1000.23
1000.25
1000.26
1000.28
1000.28
1000.3
1000.3
1000.32
1000.32
1000.33
1000.34
1000.35
1000.35
1000.36
1000.36
1000.37
1000.37
1000.38
1000.38
1000.39
1000.39
1000.39
1000.39
1000.4
1000.4
1000.4
1000.4
1000.4
1000.4
1000.41
1000.41
1000.41
1000.41
1000.41
1000.41
1000.41
1000.41
1000.41
1000.41
1000.41
1000.41
1000.41
1000.41
1000.41
1000.41
1000.41
1000.41
1000.41
1000.41
1000.41
1000.41
1000.41
1000.41
1000.41
1000.41
1000.41
1000.41
1000.41
1000.41
1000.41
1000.41
1000.41
1000.41
1000.41
1000.41
1000.42
1000.42
1000.42
1000.42
1000.42
1000.42
1000.42
1000.42
1000.42
1000.42
1000.42
1000.43
1000.43
1000.43
1000.43
1000.43
1000.43
1000.43
1000.43
1000.43
1000.44
1000.44
1000.44
1000.44
1000.44
1000.44
1000.44
1000.44
1000.44
1000.44
1000.45
1000.45
1000.45
1000.45
1000.45
1000.45
1000.45
1000.45
1000.45
1000.45
1000.46
1000.46
1000.46
1000.46
1000.46
1000.46
1000.46
1000.46
1000.46
1000.46
1000.46
1000.46
1000.46
1000.46
1000.46
1000.47
1000.47
1000.47
1000.47
1000.47
1000.47
1000.47
1000.47
1000.47
1000.47
1000.47
1000.47
1000.47
1000.47
1000.47
1000.47
1000.47
1000.47
1000.47
1000.47
1000.47
1000.47
1000.47
1000.47
1000.47
1000.46
1000.46
1000.46
1000.46
1000.46
1000.46
1000.46
1000.46
1000.46
1000.46
1000.46
1000.46
1000.46
1000.46
1000.45
1000.45
1000.45
1000.45
1000.45
1000.45
1000.45
1000.45
1000.45
1000.44
1000.44
1000.44
1000.44
1000.44
1000.44
1000.44
1000.44
1000.43
1000.43
1000.43
1000.43
1000.43
1000.43
1000.42
1000.42
1000.42
1000.42
1000.42
1000.42
1000.41
1000.41
1000.41
1000.41
1000.41
1000.41
1000.4
1000.4
1000.4
1000.4
1000.4
1000.39
1000.39
1000.39
1000.39
1000.39
1000.38
1000.38
1000.38
1000.38
1000.38
1000.37
1000.37
1000.37
1000.37
1000.36
1000.36
1000.36
1000.36
1000.35
1000.35
1000.35
1000.35
1000.35
1000.34
1000.34
1000.34
1000.34
1000.33
1000.33
1000.33
1000.33
1000.32
1000.32
1000.32
1000.32
1000.31
1000.31
1000.31
1000.31
1000.3
1000.3
1000.3
1000.29
1000.29
1000.29
1000.29
1000.28
1000.28
1000.28
1000.28
1000.27
1000.27
1000.27
1000.26
1000.26
1000.26
1000.26
1000.25
1000.25
1000.25
1000.24
1000.24
1000.24
1000.24
1000.23
1000.23
1000.23
1000.22
1000.22
1000.22
1000.22
1000.21
1000.21
1000.21
1000.2
1000.2
1000.2
1000.2
1000.19
1000.19
1000.19
1000.18
1000.18
1000.18
1000.17
1000.17
1000.17
1000.16
1000.16
1000.16
1000.16
1000.15
1000.15
1000.15
1000.14
1000.14
1000.14
1000.13
1000.13
1000.13
1000.12
1000.12
1000.12
1000.12
1000.11
1000.11
1000.11
1000.1
1000.1
1000.1
1000.09
1000.09
1000.09
1000.08
1000.08
1000.08
1000.07
1000.07
1000.07
1000.06
1000.06
1000.06
1000.05
1000.05
1000.05
1000.04
1000.04
1000.04
1000.03
1000.03
1000.03
1000.02
1000.02
1000.02
1000.01
1000.01
1000.01
1000.01
1000
998.204
998.203
998.202
998.201
998.201
998.201
998.2
998.2
998.2
998.2
998.2
998.2
998.2
998.2
998.201
998.201
998.201
998.202
998.203
998.204
998.206
998.207
998.209
998.211
998.213
998.215
998.217
998.219
998.221
998.222
998.224
998.226
998.228
998.23
998.232
998.233
998.235
998.237
998.239
998.241
998.244
998.247
998.251
998.255
998.259
998.264
998.269
998.274
998.279
998.285
998.291
998.297
998.303
998.309
998.316
998.323
998.33
998.338
998.346
998.357
998.365
998.375
998.384
998.392
998.4
998.409
998.417
998.425
998.434
998.442
998.451
998.46
998.469
998.479
998.488
998.498
998.508
998.518
998.529
998.54
998.55
998.562
998.573
998.585
998.596
998.609
998.621
998.634
998.647
998.66
998.675
998.688
998.704
998.719
998.735
998.75
998.767
998.783
998.801
998.817
998.836
998.853
998.873
998.89
998.911
998.929
998.95
998.969
998.991
999.009
999.031
999.049
999.071
999.089
999.11
999.129
999.153
999.172
999.197
999.218
999.244
999.265
999.292
999.314
999.341
999.364
999.392
999.416
999.444
999.469
999.499
999.525
999.556
999.584
999.616
999.644
999.676
999.704
999.733
999.76
999.787
999.814
999.84
999.865
999.89
999.914
999.937
999.959
999.98
1000
1000.02
1000.04
1000.06
1000.08
1000.1
1000.12
1000.13
1000.15
1000.17
1000.19
1000.2
1000.22
1000.23
1000.25
1000.26
1000.27
1000.28
1000.29
1000.3
1000.31
1000.32
1000.33
1000.34
1000.35
1000.35
1000.36
1000.36
1000.37
1000.37
1000.38
1000.38
1000.38
1000.39
1000.39
1000.39
1000.4
1000.4
1000.4
1000.4
1000.4
1000.4
1000.4
1000.4
1000.4
1000.41
1000.41
1000.41
1000.41
1000.41
1000.41
1000.41
1000.41
1000.41
1000.41
1000.41
1000.41
1000.41
1000.41
1000.41
1000.41
1000.41
1000.41
1000.41
1000.41
1000.41
1000.41
1000.41
1000.41
1000.41
1000.41
1000.41
1000.41
1000.41
1000.41
1000.41
1000.41
1000.41
1000.42
1000.42
1000.42
1000.42
1000.42
1000.42
1000.42
1000.42
1000.42
1000.42
1000.42
1000.43
1000.43
1000.43
1000.43
1000.43
1000.43
1000.43
1000.43
1000.43
1000.44
1000.44
1000.44
1000.44
1000.44
1000.44
1000.44
1000.44
1000.44
1000.44
1000.45
1000.45
1000.45
1000.45
1000.45
1000.45
1000.45
1000.45
1000.45
1000.45
1000.46
1000.46
1000.46
1000.46
1000.46
1000.46
1000.46
1000.46
1000.46
1000.46
1000.46
1000.46
1000.46
1000.46
1000.47
1000.47
1000.47
1000.47
1000.47
1000.47
1000.47
1000.47
1000.47
1000.47
1000.47
1000.47
1000.47
1000.47
1000.47
1000.47
1000.47
1000.47
1000.47
1000.47
1000.47
1000.47
1000.47
1000.47
1000.47
1000.47
1000.46
1000.46
1000.46
1000.46
1000.46
1000.46
1000.46
1000.46
1000.46
1000.46
1000.46
1000.46
1000.46
1000.46
1000.45
1000.45
1000.45
1000.45
1000.45
1000.45
1000.45
1000.45
1000.45
1000.45
1000.44
1000.44
1000.44
1000.44
1000.44
1000.44
1000.44
1000.43
1000.43
1000.43
1000.43
1000.43
1000.43
1000.42
1000.42
1000.42
1000.42
1000.42
1000.42
1000.41
1000.41
1000.41
1000.41
1000.41
1000.41
1000.4
1000.4
1000.4
1000.4
1000.4
1000.39
1000.39
1000.39
1000.39
1000.39
1000.38
1000.38
1000.38
1000.38
1000.38
1000.37
1000.37
1000.37
1000.37
1000.36
1000.36
1000.36
1000.36
1000.35
1000.35
1000.35
1000.35
1000.35
1000.34
1000.34
1000.34
1000.34
1000.33
1000.33
1000.33
1000.33
1000.32
1000.32
1000.32
1000.32
1000.31
1000.31
1000.31
1000.31
1000.3
1000.3
1000.3
1000.29
1000.29
1000.29
1000.29
1000.28
1000.28
1000.28
1000.28
1000.27
1000.27
1000.27
1000.26
1000.26
1000.26
1000.26
1000.25
1000.25
1000.25
1000.24
1000.24
1000.24
1000.24
1000.23
1000.23
1000.23
1000.22
1000.22
1000.22
1000.22
1000.21
1000.21
1000.21
1000.2
1000.2
1000.2
1000.2
1000.19
1000.19
1000.19
1000.18
1000.18
1000.18
1000.17
1000.17
1000.17
1000.16
1000.16
1000.16
1000.16
1000.15
1000.15
1000.15
1000.14
1000.14
1000.14
1000.13
1000.13
1000.13
1000.12
1000.12
1000.12
1000.12
1000.11
1000.11
1000.11
1000.1
1000.1
1000.1
1000.09
1000.09
1000.09
1000.08
1000.08
1000.08
1000.07
1000.07
1000.07
1000.06
1000.06
1000.06
1000.05
1000.05
1000.05
1000.04
1000.04
1000.04
1000.03
1000.03
1000.03
1000.02
1000.02
1000.02
1000.01
1000.01
1000.01
1000.01
1000
998.204
998.202
998.202
998.201
998.2
998.2
998.2
998.2
998.2
998.199
998.199
998.199
998.2
998.2
998.2
998.201
998.201
998.202
998.202
998.202
998.203
998.203
998.204
998.204
998.205
998.206
998.207
998.209
998.211
998.213
998.216
998.219
998.222
998.226
998.23
998.235
998.24
998.245
998.251
998.256
998.261
998.266
998.271
998.276
998.28
998.285
998.289
998.294
998.299
998.304
998.309
998.314
998.319
998.324
998.33
998.335
998.341
998.346
998.351
998.355
998.361
998.366
998.372
998.379
998.387
998.395
998.403
998.412
998.42
998.429
998.439
998.448
998.458
998.468
998.479
998.489
998.5
998.511
998.522
998.533
998.545
998.557
998.57
998.582
998.595
998.607
998.621
998.634
998.648
998.661
998.676
998.689
998.704
998.718
998.734
998.748
998.764
998.779
998.796
998.811
998.829
998.845
998.864
998.88
998.899
998.916
998.937
998.955
998.976
998.995
999.018
999.038
999.063
999.085
999.11
999.133
999.159
999.181
999.208
999.231
999.257
999.281
999.308
999.332
999.36
999.384
999.412
999.437
999.465
999.489
999.517
999.541
999.568
999.592
999.617
999.641
999.667
999.691
999.717
999.741
999.768
999.792
999.818
999.843
999.868
999.893
999.917
999.942
999.966
999.991
1000.01
1000.04
1000.06
1000.08
1000.1
1000.12
1000.14
1000.16
1000.17
1000.19
1000.2
1000.22
1000.23
1000.24
1000.25
1000.27
1000.28
1000.29
1000.3
1000.31
1000.32
1000.33
1000.33
1000.34
1000.35
1000.36
1000.36
1000.37
1000.37
1000.37
1000.38
1000.38
1000.38
1000.39
1000.39
1000.39
1000.39
1000.4
1000.4
1000.4
1000.4
1000.4
1000.4
1000.4
1000.4
1000.4
1000.4
1000.4
1000.4
1000.4
1000.4
1000.4
1000.41
1000.41
1000.41
1000.41
1000.41
1000.41
1000.41
1000.41
1000.41
1000.41
1000.41
1000.41
1000.41
1000.41
1000.41
1000.41
1000.41
1000.41
1000.41
1000.41
1000.41
1000.41
1000.41
1000.41
1000.41
1000.41
1000.42
1000.42
1000.42
1000.42
1000.42
1000.42
1000.42
1000.42
1000.42
1000.42
1000.43
1000.43
1000.43
1000.43
1000.43
1000.43
1000.43
1000.43
1000.43
1000.44
1000.44
1000.44
1000.44
1000.44
1000.44
1000.44
1000.44
1000.44
1000.45
1000.45
1000.45
1000.45
1000.45
1000.45
1000.45
1000.45
1000.45
1000.45
1000.46
1000.46
1000.46
1000.46
1000.46
1000.46
1000.46
1000.46
1000.46
1000.46
1000.46
1000.46
1000.46
1000.46
1000.46
1000.47
1000.47
1000.47
1000.47
1000.47
1000.47
1000.47
1000.47
1000.47
1000.47
1000.47
1000.47
1000.47
1000.47
1000.47
1000.47
1000.47
1000.47
1000.47
1000.47
1000.47
1000.47
1000.47
1000.47
1000.47
1000.47
1000.46
1000.46
1000.46
1000.46
1000.46
1000.46
1000.46
1000.46
1000.46
1000.46
1000.46
1000.46
1000.46
1000.46
1000.45
1000.45
1000.45
1000.45
1000.45
1000.45
1000.45
1000.45
1000.45
1000.45
1000.44
1000.44
1000.44
1000.44
1000.44
1000.44
1000.44
1000.43
1000.43
1000.43
1000.43
1000.43
1000.43
1000.42
1000.42
1000.42
1000.42
1000.42
1000.42
1000.41
1000.41
1000.41
1000.41
1000.41
1000.41
1000.4
1000.4
1000.4
1000.4
1000.4
1000.39
1000.39
1000.39
1000.39
1000.39
1000.38
1000.38
1000.38
1000.38
1000.37
1000.37
1000.37
1000.37
1000.37
1000.36
1000.36
1000.36
1000.36
1000.35
1000.35
1000.35
1000.35
1000.35
1000.34
1000.34
1000.34
1000.34
1000.33
1000.33
1000.33
1000.33
1000.32
1000.32
1000.32
1000.32
1000.31
1000.31
1000.31
1000.31
1000.3
1000.3
1000.3
1000.29
1000.29
1000.29
1000.29
1000.28
1000.28
1000.28
1000.28
1000.27
1000.27
1000.27
1000.26
1000.26
1000.26
1000.26
1000.25
1000.25
1000.25
1000.24
1000.24
1000.24
1000.24
1000.23
1000.23
1000.23
1000.22
1000.22
1000.22
1000.22
1000.21
1000.21
1000.21
1000.2
1000.2
1000.2
1000.2
1000.19
1000.19
1000.19
1000.18
1000.18
1000.18
1000.17
1000.17
1000.17
1000.16
1000.16
1000.16
1000.16
1000.15
1000.15
1000.15
1000.14
1000.14
1000.14
1000.13
1000.13
1000.13
1000.12
1000.12
1000.12
1000.12
1000.11
1000.11
1000.11
1000.1
1000.1
1000.1
1000.09
1000.09
1000.09
1000.08
1000.08
1000.08
1000.07
1000.07
1000.07
1000.06
1000.06
1000.06
1000.05
1000.05
1000.05
1000.04
1000.04
1000.04
1000.03
1000.03
1000.03
1000.02
1000.02
1000.02
1000.01
1000.01
1000.01
1000.01
1000
998.204
998.202
998.201
998.2
998.2
998.199
998.199
998.199
998.199
998.199
998.199
998.199
998.199
998.199
998.199
998.199
998.2
998.2
998.201
998.202
998.204
998.206
998.208
998.211
998.213
998.216
998.218
998.22
998.223
998.225
998.227
998.229
998.23
998.232
998.233
998.235
998.236
998.237
998.239
998.241
998.244
998.246
998.25
998.254
998.258
998.263
998.267
998.273
998.278
998.283
998.289
998.295
998.301
998.308
998.314
998.321
998.329
998.337
998.345
998.354
998.362
998.371
998.38
998.388
998.396
998.404
998.413
998.421
998.43
998.438
998.447
998.456
998.466
998.475
998.485
998.495
998.505
998.515
998.526
998.536
998.548
998.559
998.571
998.582
998.595
998.606
998.619
998.631
998.645
998.658
998.673
998.686
998.702
998.716
998.732
998.747
998.764
998.779
998.797
998.813
998.832
998.848
998.868
998.884
998.905
998.922
998.944
998.961
998.983
999.001
999.024
999.042
999.065
999.084
999.107
999.126
999.151
999.171
999.196
999.217
999.243
999.265
999.292
999.315
999.342
999.365
999.393
999.417
999.446
999.471
999.5
999.525
999.555
999.581
999.611
999.638
999.667
999.694
999.722
999.749
999.776
999.802
999.828
999.854
999.878
999.903
999.925
999.949
999.97
999.993
1000.01
1000.03
1000.05
1000.07
1000.09
1000.11
1000.13
1000.15
1000.16
1000.18
1000.19
1000.21
1000.22
1000.24
1000.25
1000.27
1000.27
1000.29
1000.29
1000.31
1000.31
1000.32
1000.33
1000.34
1000.34
1000.35
1000.35
1000.36
1000.36
1000.37
1000.37
1000.38
1000.38
1000.38
1000.38
1000.39
1000.39
1000.39
1000.39
1000.39
1000.4
1000.4
1000.4
1000.4
1000.4