/*--------------------------------*- C++ -*----------------------------------*\
| =========                 |                                                 |
| \\      /  F ield         | OpenFOAM: The Open Source CFD Toolbox           |
|  \\    /   O peration     | Version:  3.0.1                                 |
|   \\  /    A nd           | Web:      www.OpenFOAM.org                      |
|    \\/     M anipulation  |                                                 |
\*---------------------------------------------------------------------------*/
FoamFile
{
    version     2.0;
    format      ascii;
    class       volScalarField;
    location    "0.0001";
    object      T;
}
// * * * * * * * * * * * * * * * * * * * * * * * * * * * * * * * * * * * * * //

dimensions      [0 0 0 1 0 0 0];

internalField   nonuniform List<scalar> 
1000
(
289
289
289
289
289
289
289
289
289
289
289
289
289
289
289
289
289
289
289
289
289
289
289
289
289
289
289
289
289
289
289
289
289
289
289
288.999
288.97
288.648
287.466
285.754
284.29
283.354
282.848
282.582
282.453
282.422
282.477
282.729
283.584
285.584
288.7
291.948
294.214
295.27
295.607
295.672
295.652
295.54
295.265
294.705
293.602
291.815
289.945
289.115
289.005
289
289
289
289
289
289
289
289
289
289
289
289
289
289
289
289
289
289
289
289
289
289
289
289
289
289
289
289
289
289
289
289
289
289
289
289
289
289
289
289
289
289
289
289
289
289
289
289
289
289
289
289
289
289
289
289
289
289
289
289
289
289
289
289
289
289
289
289
289
289
288.999
288.971
288.65
287.467
285.75
284.285
283.351
282.847
282.585
282.458
282.428
282.482
282.732
283.585
285.583
288.698
291.946
294.211
295.266
295.602
295.666
295.647
295.538
295.267
294.713
293.611
291.817
289.942
289.114
289.005
289
289
289
289
289
289
289
289
289
289
289
289
289
289
289
289
289
289
289
289
289
289
289
289
289
289
289
289
289
289
289
289
289
289
289
289
289
289
289
289
289
289
289
289
289
289
289
289
289
289
289
289
289
289
289
289
289
289
289
289
289
289
289
289
289
289
289
289
289
289
288.999
288.969
288.641
287.451
285.742
284.288
283.361
282.858
282.594
282.464
282.432
282.485
282.732
283.582
285.579
288.694
291.944
294.209
295.263
295.598
295.661
295.639
295.527
295.254
294.7
293.608
291.831
289.959
289.118
289.005
289
289
289
289
289
289
289
289
289
289
289
289
289
289
289
289
289
289
289
289
289
289
289
289
289
289
289
289
289
289
289
289
289
289
289
289
289
289
289
289
289
289
289
289
289
289
289
289
289
289
289
289
289
289
289
289
289
289
289
289
289
289
289
289
289
289
289
289
289
289
288.999
288.968
288.633
287.437
285.735
284.291
283.37
282.869
282.602
282.468
282.434
282.486
282.732
283.579
285.575
288.691
291.942
294.21
295.262
295.595
295.657
295.633
295.517
295.241
294.69
293.608
291.844
289.973
289.121
289.006
289
289
289
289
289
289
289
289
289
289
289
289
289
289
289
289
289
289
289
289
289
289
289
289
289
289
289
289
289
289
289
289
289
289
289
289
289
289
289
289
289
289
289
289
289
289
289
289
289
289
289
289
289
289
289
289
289
289
289
289
289
289
289
289
289
289
289
289
289
289
288.999
288.969
288.642
287.453
285.744
284.291
283.364
282.861
282.596
282.466
282.433
282.486
282.732
283.58
285.576
288.692
291.944
294.211
295.264
295.598
295.66
295.638
295.526
295.252
294.698
293.606
291.827
289.956
289.117
289.005
289
289
289
289
289
289
289
289
289
289
289
289
289
289
289
289
289
289
289
289
289
289
289
289
289
289
289
289
289
289
289
289
289
289
289
289
289
289
289
289
289
289
289
289
289
289
289
289
289
289
289
289
289
289
289
289
289
289
289
289
289
289
289
289
289
289
289
289
289
289
288.999
288.971
288.652
287.473
285.756
284.291
283.357
282.854
282.59
282.462
282.431
282.485
282.732
283.582
285.579
288.695
291.946
294.213
295.267
295.602
295.665
295.645
295.535
295.264
294.709
293.605
291.807
289.934
289.112
289.005
289
289
289
289
289
289
289
289
289
289
289
289
289
289
289
289
289
289
289
289
289
289
289
289
289
289
289
289
289
289
289
289
289
289
289
289
289
289
289
289
289
289
289
289
289
289
289
289
289
289
289
289
289
289
289
289
289
289
289
289
289
289
289
289
289
289
289
289
289
289
288.999
288.971
288.652
287.476
285.766
284.303
283.365
282.857
282.589
282.458
282.427
282.48
282.73
283.581
285.58
288.697
291.949
294.216
295.271
295.607
295.671
295.649
295.535
295.258
294.696
293.588
291.796
289.932
289.112
289.005
289
289
289
289
289
289
289
289
289
289
289
289
289
289
289
289
289
289
289
289
289
289
289
289
289
289
289
289
289
289
289
289
289
289
289
289
289
289
289
289
289
289
289
289
289
289
289
289
289
289
289
289
289
289
289
289
289
289
289
289
289
289
289
289
289
289
289
289
289
289
288.999
288.971
288.656
287.486
285.776
284.309
283.367
282.855
282.586
282.456
282.425
282.48
282.73
283.583
285.583
288.699
291.95
294.216
295.271
295.608
295.672
295.652
295.539
295.26
294.693
293.579
291.783
289.924
289.11
289.005
289
289
289
289
289
289
289
289
289
289
289
289
289
289
289
289
289
289
289
289
289
289
289
289
289
289
289
289
289
289
289
289
289
289
289
289
289
289
289
289
289
289
289
289
289
289
289
289
289
289
289
289
289
289
289
289
289
289
289
289
289
289
289
289
289
289
289
289
289
289
288.999
288.972
288.662
287.496
285.78
284.307
283.364
282.854
282.587
282.458
282.427
282.481
282.731
283.585
285.585
288.701
291.95
294.215
295.27
295.607
295.671
295.651
295.54
295.264
294.7
293.583
291.775
289.911
289.107
289.005
289
289
289
289
289
289
289
289
289
289
289
289
289
289
289
289
289
289
289
289
289
289
289
289
289
289
289
289
289
289
289
289
289
289
289
289
289
289
289
289
289
289
289
289
289
289
289
289
289
289
289
289
289
289
289
289
289
289
289
289
289
289
289
289
289
289
289
289
289
289
288.999
288.972
288.658
287.491
285.782
284.313
283.37
282.858
282.587
282.456
282.425
282.479
282.73
283.584
285.585
288.702
291.951
294.216
295.271
295.609
295.673
295.652
295.538
295.258
294.689
293.573
291.776
289.918
289.109
289.005
289
289
289
289
289
289
289
289
289
289
289
289
289
289
289
289
289
289
289
289
289
289
289
289
289
289
289
289
289
289
289
289
289
289
289
)
;

boundaryField
{
    sides1
    {
        type            zeroGradient;
    }
    sides2
    {
        type            slip;
    }
    empty
    {
        type            empty;
    }
}


// ************************************************************************* //
