/*--------------------------------*- C++ -*----------------------------------*\
| =========                 |                                                 |
| \\      /  F ield         | OpenFOAM: The Open Source CFD Toolbox           |
|  \\    /   O peration     | Version:  3.0.1                                 |
|   \\  /    A nd           | Web:      www.OpenFOAM.org                      |
|    \\/     M anipulation  |                                                 |
\*---------------------------------------------------------------------------*/
FoamFile
{
    version     2.0;
    format      ascii;
    class       volVectorField;
    location    "0.0001";
    object      U;
}
// * * * * * * * * * * * * * * * * * * * * * * * * * * * * * * * * * * * * * //

dimensions      [0 1 -1 0 0 0 0];

internalField   nonuniform List<vector> 
1000
(
(3.14292e-14 -2.43653e-13 0)
(2.39168e-14 -2.45275e-13 0)
(-1.00803e-13 -2.07041e-13 0)
(-6.35477e-14 -1.53316e-13 0)
(5.17088e-14 -1.09229e-13 0)
(1.00101e-13 -9.23565e-14 0)
(1.17326e-13 -9.92674e-14 0)
(1.45716e-13 -8.05166e-14 0)
(4.00252e-14 6.65053e-14 0)
(-9.06612e-14 1.97317e-13 0)
(6.6799e-14 2.34563e-13 0)
(8.64132e-14 2.18735e-13 0)
(-4.51387e-14 1.71515e-13 0)
(-9.15416e-14 1.29537e-13 0)
(8.72669e-15 1.21746e-13 0)
(2.90336e-13 1.51798e-13 0)
(3.47895e-13 1.41569e-13 0)
(5.84099e-14 1.63797e-13 0)
(-1.74817e-13 9.82447e-14 0)
(-3.04513e-13 1.31978e-13 0)
(-1.22416e-13 3.16201e-13 0)
(1.76583e-13 2.98806e-13 0)
(1.45844e-13 2.30785e-13 0)
(5.09588e-14 1.14815e-13 0)
(-1.64256e-13 1.50008e-14 0)
(4.90864e-14 6.72689e-14 0)
(1.90784e-14 7.72186e-14 0)
(-1.61389e-15 7.72396e-14 0)
(3.34571e-13 1.55602e-14 0)
(7.64886e-12 -1.32334e-14 0)
(2.27345e-10 -7.88678e-13 0)
(6.12618e-09 -2.34777e-11 0)
(1.64191e-07 -6.13595e-10 0)
(4.39251e-06 -1.54544e-08 0)
(0.000119141 -3.69035e-07 0)
(0.00339484 -8.00821e-06 0)
(0.0885569 -0.000141319 0)
(1.15232 -0.00135973 0)
(5.0556 -0.00405474 0)
(10.1073 -0.00381848 0)
(14.0988 0.000391546 0)
(16.5914 0.00660094 0)
(17.8647 0.0118555 0)
(18.3889 0.0145068 0)
(18.4925 0.0147291 0)
(18.5725 0.0123127 0)
(18.5811 0.00925219 0)
(18.571 0.00760899 0)
(18.5569 0.00459274 0)
(18.5509 0.00177019 0)
(18.5617 -0.000472687 0)
(18.5656 -0.00350873 0)
(18.5713 -0.00568 0)
(18.5619 -0.00808008 0)
(18.5528 -0.00987902 0)
(18.5482 -0.0125116 0)
(18.5545 -0.0158524 0)
(18.395 -0.0152707 0)
(17.888 -0.0115268 0)
(16.5612 -0.00475218 0)
(13.7203 0.00278898 0)
(8.85153 0.0061456 0)
(3.08738 0.00354588 0)
(0.350275 0.00054169 0)
(0.0145316 3.26318e-05 0)
(0.000460924 1.46352e-06 0)
(1.56568e-05 5.85517e-08 0)
(5.48418e-07 2.1197e-09 0)
(1.90908e-08 3.57375e-11 0)
(4.9288e-10 -1.98674e-11 0)
(-7.3985e-11 -1.36689e-11 0)
(-8.89553e-11 -7.54617e-12 0)
(-6.78757e-11 -2.97568e-12 0)
(-2.1131e-11 -4.53943e-13 0)
(-8.51082e-13 1.23503e-13 0)
(2.36621e-13 1.32763e-13 0)
(2.27358e-13 1.41229e-13 0)
(6.90296e-14 1.43698e-13 0)
(1.49029e-13 1.71564e-13 0)
(2.76313e-13 7.83821e-14 0)
(1.39801e-13 -2.51818e-14 0)
(8.11489e-14 -5.36113e-14 0)
(-1.79411e-13 -3.21891e-14 0)
(-1.6238e-13 3.36793e-14 0)
(-1.82279e-14 8.55014e-14 0)
(-2.4897e-13 6.95173e-14 0)
(-4.1136e-13 1.16019e-13 0)
(-3.34287e-13 1.56043e-13 0)
(-2.14766e-13 1.06585e-13 0)
(-2.21753e-14 9.57731e-14 0)
(6.76126e-14 4.46107e-14 0)
(7.19074e-14 -3.36005e-14 0)
(6.71827e-14 -3.77975e-15 0)
(-6.9413e-14 5.60488e-14 0)
(-1.60793e-13 1.85319e-15 0)
(-8.12945e-14 -3.70957e-14 0)
(-2.52552e-13 -8.91013e-14 0)
(-4.18851e-13 -3.93319e-15 0)
(-2.68247e-13 -4.98407e-14 0)
(-1.27027e-13 -5.15492e-14 0)
(3.76274e-14 -1.49226e-13 0)
(2.74438e-15 -1.65073e-13 0)
(1.12259e-14 -1.32229e-13 0)
(3.56555e-14 -1.19504e-13 0)
(6.08431e-14 -1.45323e-13 0)
(1.26458e-13 -1.06521e-13 0)
(9.80176e-14 -6.96372e-14 0)
(1.64707e-13 -4.22659e-14 0)
(2.41905e-13 -5.21718e-14 0)
(1.99291e-13 4.84212e-14 0)
(6.834e-14 1.35119e-13 0)
(4.00703e-14 1.56988e-13 0)
(5.73061e-14 1.4143e-13 0)
(-1.65644e-13 1.1049e-13 0)
(1.50707e-13 1.9042e-13 0)
(3.22365e-13 2.41642e-13 0)
(3.58962e-13 2.94002e-13 0)
(7.69253e-15 2.84557e-13 0)
(-1.69554e-13 2.60076e-13 0)
(-4.11717e-15 3.22906e-13 0)
(1.16253e-14 4.27252e-13 0)
(2.40194e-14 4.87699e-13 0)
(-3.26295e-14 4.67732e-13 0)
(-2.66799e-13 2.09066e-13 0)
(-5.24775e-14 1.61643e-13 0)
(6.92614e-14 1.53004e-13 0)
(3.67206e-14 1.15558e-13 0)
(-5.22432e-14 1.11314e-13 0)
(1.76284e-13 1.02399e-13 0)
(7.53504e-12 2.27118e-13 0)
(2.18429e-10 6.47575e-13 0)
(5.88858e-09 1.25713e-11 0)
(1.57946e-07 3.19187e-10 0)
(4.23123e-06 8.31552e-09 0)
(0.000115038 2.20243e-07 0)
(0.00328862 5.74908e-06 0)
(0.0861355 0.000127177 0)
(1.12854 0.00154534 0)
(4.99348 0.00669953 0)
(10.0331 0.0133389 0)
(14.0277 0.0187831 0)
(16.5327 0.0196931 0)
(17.8219 0.0176973 0)
(18.3604 0.0147189 0)
(18.4747 0.00854294 0)
(18.5654 0.00367199 0)
(18.5814 -0.000643205 0)
(18.5754 -0.00335326 0)
(18.5657 -0.00450731 0)
(18.5638 -0.00303513 0)
(18.5762 -0.00146803 0)
(18.579 0.0017185 0)
(18.5824 0.00497014 0)
(18.5667 0.00665466 0)
(18.551 0.00124959 0)
(18.5421 -0.00147388 0)
(18.5349 -0.0118488 0)
(18.3617 -0.0148813 0)
(17.8378 -0.0189532 0)
(16.493 -0.0205065 0)
(13.6374 -0.0178425 0)
(8.76523 -0.0108505 0)
(3.03165 -0.0036818 0)
(0.340679 -0.000422314 0)
(0.014057 -2.03447e-05 0)
(0.000444302 -7.42365e-07 0)
(1.50494e-05 -2.62254e-08 0)
(5.26307e-07 -1.07753e-09 0)
(1.83612e-08 -1.24418e-10 0)
(5.20824e-10 -7.06209e-11 0)
(-5.80521e-11 -4.61613e-11 0)
(-6.78873e-11 -2.48097e-11 0)
(-4.92875e-11 -1.19523e-11 0)
(-1.38014e-11 -2.0933e-12 0)
(-6.37762e-13 1.8603e-13 0)
(1.84947e-13 7.23041e-14 0)
(1.59984e-13 -3.63541e-15 0)
(6.7223e-14 -6.13691e-15 0)
(1.43386e-13 1.11277e-14 0)
(1.40731e-13 2.10408e-14 0)
(6.18647e-14 1.53322e-17 0)
(6.02842e-14 -5.31502e-14 0)
(-9.44084e-14 -5.22801e-14 0)
(-2.15962e-14 2.43241e-14 0)
(1.10378e-14 1.2085e-13 0)
(-2.02674e-13 1.1861e-13 0)
(-1.6403e-13 1.57024e-13 0)
(-3.25907e-13 2.24347e-13 0)
(-2.87948e-13 2.40871e-13 0)
(1.54696e-14 1.94383e-13 0)
(-1.01208e-13 1.03044e-13 0)
(3.83786e-14 2.49246e-14 0)
(1.98341e-13 -1.10658e-15 0)
(1.77287e-14 -1.08276e-14 0)
(-2.79324e-13 -1.4941e-14 0)
(-2.01557e-13 -2.79409e-14 0)
(-1.14788e-13 -1.01871e-13 0)
(-2.3245e-13 8.01889e-14 0)
(-3.07072e-13 1.28934e-13 0)
(-1.29367e-13 1.64192e-13 0)
(1.0481e-14 5.81546e-14 0)
(2.07063e-14 9.07559e-15 0)
(-2.21475e-14 -2.19859e-14 0)
(-9.21065e-14 -3.54713e-14 0)
(5.4057e-14 -6.92707e-15 0)
(3.04334e-13 2.17873e-14 0)
(2.54416e-13 1.17655e-13 0)
(1.19929e-13 1.3128e-13 0)
(9.98506e-14 5.4241e-14 0)
(1.90057e-13 -5.26374e-14 0)
(1.70461e-13 -1.38967e-14 0)
(1.1458e-13 -6.61764e-14 0)
(2.19461e-14 -6.49238e-14 0)
(-1.25262e-14 -7.43284e-14 0)
(2.11171e-13 1.05034e-14 0)
(4.231e-13 4.11868e-14 0)
(4.50883e-13 1.85009e-15 0)
(1.37209e-13 -2.02642e-14 0)
(-1.17706e-13 5.80996e-14 0)
(-6.94365e-14 1.18763e-13 0)
(3.51109e-14 1.77892e-13 0)
(2.76498e-13 2.46785e-13 0)
(-2.51206e-13 2.18892e-13 0)
(-4.26376e-13 2.44461e-13 0)
(-1.7785e-13 2.29143e-13 0)
(-9.84179e-15 1.69103e-13 0)
(-6.86068e-14 9.27754e-14 0)
(-5.70083e-14 9.7043e-14 0)
(4.18249e-13 1.72743e-13 0)
(8.05482e-12 2.47569e-13 0)
(2.37141e-10 5.48518e-12 0)
(6.3885e-09 1.46061e-10 0)
(1.70958e-07 3.7698e-09 0)
(4.56733e-06 9.58706e-08 0)
(0.000123776 2.38346e-06 0)
(0.00352561 5.63448e-05 0)
(0.0915599 0.00111788 0)
(1.1774 0.0119714 0)
(5.10559 0.0428205 0)
(10.1474 0.0658203 0)
(14.1231 0.0642628 0)
(16.6076 0.0466748 0)
(17.8824 0.0228376 0)
(18.4135 0.00524489 0)
(18.5232 -0.0134488 0)
(18.6109 -0.0136514 0)
(18.6269 -0.0171408 0)
(18.6189 -0.0149938 0)
(18.6061 -0.0114227 0)
(18.6046 -0.00682693 0)
(18.6157 -0.00178043 0)
(18.62 0.00528083 0)
(18.6258 0.0128407 0)
(18.6094 0.0178087 0)
(18.5975 0.0200726 0)
(18.5878 0.0243513 0)
(18.5897 0.00645176 0)
(18.4214 -0.00420673 0)
(17.9072 -0.0284757 0)
(16.5804 -0.055521 0)
(13.7523 -0.0735022 0)
(8.90465 -0.0657015 0)
(3.13535 -0.0290009 0)
(0.360445 -0.00395921 0)
(0.0150662 -0.000214867 0)
(0.000478198 -8.79241e-06 0)
(1.62522e-05 -3.3586e-07 0)
(5.70204e-07 -1.26575e-08 0)
(1.99567e-08 -5.64913e-10 0)
(6.35593e-10 -8.88786e-11 0)
(-2.71568e-11 -4.0502e-11 0)
(-3.10926e-11 -2.26367e-11 0)
(-2.16462e-11 -9.19971e-12 0)
(-4.68936e-12 -1.52798e-12 0)
(-4.95083e-13 4.10095e-14 0)
(-1.44365e-13 -5.1931e-14 0)
(4.96779e-14 -9.34324e-14 0)
(1.1593e-13 -5.79238e-14 0)
(1.7189e-13 -7.32919e-14 0)
(1.85353e-13 -1.4748e-13 0)
(7.64985e-14 -9.71203e-14 0)
(-3.68781e-14 -1.04012e-13 0)
(-9.34414e-15 -2.39708e-14 0)
(6.73574e-14 1.27249e-15 0)
(5.73604e-14 -1.14787e-14 0)
(-1.4135e-13 -1.18786e-14 0)
(-2.03667e-13 2.52765e-14 0)
(-1.88909e-13 1.91197e-14 0)
(-2.42358e-13 8.49006e-14 0)
(-1.75643e-13 1.05828e-13 0)
(-1.42959e-13 6.4828e-14 0)
(-1.03341e-13 3.80465e-14 0)
(4.36894e-14 -8.89289e-15 0)
(1.60929e-14 -9.36321e-14 0)
(-1.43995e-13 -1.89103e-14 0)
(-1.86883e-13 3.88677e-14 0)
(-1.14407e-13 -1.24954e-14 0)
(6.17281e-14 -1.45699e-14 0)
(-1.00947e-13 7.94158e-14 0)
(-7.19371e-14 1.45016e-13 0)
(-9.21144e-14 3.46365e-14 0)
(-1.1709e-13 1.26815e-14 0)
(-2.18458e-14 -2.96025e-14 0)
(8.96968e-14 -2.56642e-14 0)
(2.01363e-13 6.95777e-14 0)
(3.46173e-13 5.92149e-14 0)
(3.21307e-13 9.64769e-14 0)
(1.58742e-13 7.74856e-14 0)
(-1.10041e-13 1.96434e-13 0)
(5.79312e-14 1.48089e-13 0)
(9.1564e-14 1.02461e-13 0)
(-4.45316e-14 6.24078e-14 0)
(-6.32275e-15 -7.1914e-15 0)
(4.14703e-14 -4.82218e-14 0)
(2.40407e-13 -4.82388e-14 0)
(2.82326e-13 -1.21225e-13 0)
(1.25356e-13 -3.05412e-13 0)
(7.58058e-14 -3.74714e-13 0)
(1.25024e-13 -2.90087e-13 0)
(1.17647e-13 -1.93044e-13 0)
(2.55186e-13 -1.27657e-13 0)
(3.07104e-13 -6.81223e-14 0)
(1.45488e-14 4.84471e-14 0)
(-1.90193e-13 2.0961e-13 0)
(-2.17732e-13 2.45074e-13 0)
(-2.15896e-13 1.59594e-13 0)
(-1.49395e-13 1.25908e-13 0)
(8.17673e-14 1.04983e-13 0)
(5.0577e-13 1.31195e-13 0)
(7.96809e-12 7.181e-14 0)
(2.49777e-10 -6.41199e-14 0)
(6.72548e-09 -2.25166e-12 0)
(1.79683e-07 -5.7936e-11 0)
(4.79174e-06 -1.43991e-09 0)
(0.000129611 -3.54443e-08 0)
(0.00368546 -8.45111e-07 0)
(0.0952369 -1.72408e-05 0)
(1.21004 -0.000200907 0)
(5.17964 -0.000871314 0)
(10.2226 -0.00182451 0)
(14.1861 -0.00277811 0)
(16.6597 -0.00430163 0)
(17.9277 -0.00472918 0)
(18.4555 -0.00507701 0)
(18.5654 -0.00512016 0)
(18.6496 -0.00472372 0)
(18.6631 -0.00395731 0)
(18.653 -0.00349075 0)
(18.6368 -0.00317977 0)
(18.6344 -0.00324684 0)
(18.6435 -0.00342554 0)
(18.6498 -0.00196355 0)
(18.6569 0.000463574 0)
(18.642 0.00308937 0)
(18.6353 0.0052102 0)
(18.6267 0.00634715 0)
(18.6349 0.00713637 0)
(18.4697 0.00701764 0)
(17.9595 0.0067643 0)
(16.641 0.00639801 0)
(13.8277 0.0048516 0)
(8.99545 0.00313415 0)
(3.20303 0.00112211 0)
(0.373532 0.000136206 0)
(0.0157363 6.9692e-06 0)
(0.000500389 2.72696e-07 0)
(1.70369e-05 9.94221e-09 0)
(5.98968e-07 2.97735e-10 0)
(2.1051e-08 -3.13536e-11 0)
(7.15585e-10 -2.66925e-11 0)
(1.26976e-11 -1.80305e-11 0)
(-4.8178e-12 -7.57863e-12 0)
(-3.47478e-12 -2.6533e-12 0)
(-6.02176e-13 -3.65975e-13 0)
(-2.28422e-13 -1.57629e-13 0)
(-2.09231e-13 -8.8739e-14 0)
(8.17368e-14 -6.57952e-14 0)
(1.14362e-13 -7.64713e-14 0)
(1.60649e-14 -1.29984e-13 0)
(7.11417e-14 -1.46947e-13 0)
(1.0521e-13 -1.30652e-13 0)
(1.30585e-13 -1.02708e-13 0)
(1.24203e-13 -4.42673e-14 0)
(-6.7354e-14 -7.48362e-14 0)
(-6.94869e-14 -1.74908e-13 0)
(-1.13821e-13 -2.33783e-13 0)
(-7.813e-14 -2.04944e-13 0)
(-8.98248e-14 -1.62378e-13 0)
(-7.6968e-14 -1.1025e-13 0)
(-1.31093e-13 -9.07337e-14 0)
(-1.401e-13 -6.65143e-14 0)
(-5.22393e-14 1.24464e-13 0)
(-3.81357e-14 4.25927e-14 0)
(3.3602e-14 -1.85577e-14 0)
(-1.0627e-13 -6.55435e-14 0)
(-2.28573e-13 -8.82785e-14 0)
(-2.1623e-13 -7.77128e-14 0)
(-4.0743e-14 -1.24636e-13 0)
(-6.72553e-14 -1.26228e-13 0)
(-8.82945e-14 -6.89226e-14 0)
(-8.78582e-14 -1.62291e-13 0)
(-5.81115e-14 -1.3008e-13 0)
(-3.53678e-14 -7.44083e-14 0)
(6.59482e-14 -1.34437e-15 0)
(2.00318e-13 3.06223e-14 0)
(3.02368e-13 5.87963e-14 0)
(2.87873e-13 2.63112e-15 0)
(2.69534e-13 5.94275e-14 0)
(1.96584e-13 6.75283e-15 0)
(5.037e-14 9.6233e-14 0)
(4.35921e-14 7.53982e-15 0)
(-1.10178e-13 2.11032e-14 0)
(-1.27724e-13 5.80729e-14 0)
(-1.29668e-14 2.02447e-14 1.86097e-32)
(1.79226e-13 -7.01969e-14 0)
(1.35067e-13 -1.21308e-13 0)
(-2.76663e-14 -1.58564e-13 0)
(7.24977e-14 -1.69594e-13 0)
(1.4699e-13 -1.85574e-13 0)
(2.08388e-13 -1.94859e-13 0)
(4.1442e-13 -1.2199e-13 0)
(4.75352e-13 -1.13147e-13 0)
(2.72699e-13 -4.38439e-14 0)
(-1.22258e-14 6.97732e-14 0)
(-1.82708e-13 1.98301e-13 0)
(-2.64235e-13 2.16926e-13 0)
(-2.12465e-13 2.61549e-13 0)
(-4.87399e-14 2.2182e-13 0)
(2.89405e-13 4.60101e-14 0)
(8.01688e-12 -7.86958e-14 0)
(2.35516e-10 -6.02563e-12 0)
(6.35196e-09 -1.64243e-10 2.073e-32)
(1.69993e-07 -4.25197e-09 0)
(4.54316e-06 -1.07931e-07 0)
(0.000123156 -2.68138e-06 0)
(0.00350876 -6.34217e-05 0)
(0.091186 -0.00125927 -2.06812e-32)
(1.17427 -0.0135069 0)
(5.0988 -0.0486476 0)
(10.1399 -0.0754307 2.01141e-32)
(14.1146 -0.0759972 0)
(16.5991 -0.060883 0)
(17.8749 -0.0397425 0)
(18.4074 -0.0230328 -2.0451e-32)
(18.5194 -0.00357024 0)
(18.6095 -0.00147022 0)
(18.6282 0.00557573 0)
(18.6211 0.00577396 0)
(18.6083 0.00437814 0)
(18.6065 0.000279296 0)
(18.6171 -0.00447664 0)
(18.6207 -0.00866292 0)
(18.6257 -0.0107849 0)
(18.6079 -0.0105179 0)
(18.5955 -0.00694381 0)
(18.5849 -0.00916467 -1.08226e-32)
(18.5868 0.0131708 1.08696e-32)
(18.4176 0.0242207 0)
(17.9024 0.0491596 0)
(16.5744 0.075588 -1.04652e-32)
(13.7437 0.0921812 0)
(8.89237 0.0809237 0)
(3.12401 0.0353356 0)
(0.357975 0.00479374 0)
(0.014934 0.000258846 0)
(0.000473895 1.05229e-05 0)
(1.61046e-05 3.99512e-07 0)
(5.6499e-07 1.47768e-08 0)
(1.98492e-08 5.16577e-10 0)
(6.84103e-10 9.83077e-12 0)
(2.38626e-11 -1.16203e-12 0)
(1.08545e-12 -7.28376e-13 1.05637e-32)
(4.49081e-13 -2.77665e-13 0)
(3.14008e-14 -1.9172e-13 0)
(-1.32092e-13 -1.70621e-13 0)
(2.40178e-14 -1.00662e-13 0)
(5.32115e-14 -7.18189e-14 0)
(5.21958e-14 -1.2833e-13 0)
(1.57928e-13 -1.62187e-13 0)
(1.71253e-13 2.50641e-14 0)
(1.02241e-13 4.09114e-14 0)
(1.52465e-13 -1.37104e-14 0)
(1.01296e-14 -5.0635e-14 0)
(-1.38496e-13 -1.17922e-13 0)
(-1.26121e-13 -1.46558e-13 0)
(-6.85445e-14 -1.44603e-13 0)
(1.61157e-14 -1.23277e-13 0)
(3.28098e-14 -5.42411e-14 0)
(-6.25176e-14 4.15976e-14 0)
(-8.75252e-14 7.66724e-14 0)
(1.68412e-13 6.29158e-14 0)
(-1.30357e-14 8.27137e-14 -9.34907e-33)
(-1.18556e-13 7.58598e-14 0)
(-1.42714e-13 2.17445e-14 -9.55626e-33)
(-2.62217e-13 -2.77083e-14 0)
(-2.58821e-13 -5.35674e-14 0)
(-2.32298e-13 -1.3467e-14 0)
(-3.89446e-14 -2.49948e-14 0)
(1.94185e-14 -3.68585e-14 0)
(-6.0261e-14 -1.96227e-14 0)
(1.67345e-14 -2.14574e-13 0)
(8.78007e-14 -1.44959e-13 0)
(1.30747e-13 -9.47604e-14 0)
(1.99381e-13 7.58086e-15 0)
(2.49696e-13 -7.45035e-14 0)
(2.71594e-13 -8.27993e-14 0)
(3.38902e-13 -8.09566e-14 0)
(1.63438e-13 -7.25507e-14 0)
(-4.01551e-14 -1.25714e-13 0)
(-8.65165e-15 -1.04306e-13 0)
(1.03711e-14 -9.84286e-14 0)
(8.77483e-14 -6.91159e-14 0)
(5.92564e-15 2.20076e-15 0)
(-2.85518e-14 7.89251e-14 -1.82436e-32)
(-1.17284e-14 5.77364e-14 0)
(5.78103e-14 1.12611e-13 0)
(-8.78074e-14 7.74459e-14 0)
(-2.35603e-14 4.978e-14 0)
(1.19396e-13 -4.72507e-14 0)
(3.18407e-13 6.30353e-14 0)
(4.01393e-13 -7.15415e-14 0)
(4.02073e-13 -1.77676e-13 0)
(3.12585e-13 -2.60909e-13 0)
(3.20967e-13 -1.2487e-13 0)
(-2.78918e-14 -2.30575e-14 0)
(-4.21592e-14 -1.59262e-14 0)
(-2.13109e-13 9.01054e-14 0)
(-2.43557e-13 1.02291e-13 0)
(-2.5812e-14 7.51282e-14 0)
(7.51368e-12 -5.87299e-14 0)
(2.14835e-10 -1.15661e-12 0)
(5.79275e-09 -3.08368e-11 -2.0401e-32)
(1.55426e-07 -7.91985e-10 0)
(4.16779e-06 -2.034e-08 0)
(0.000113407 -5.19682e-07 0)
(0.00324443 -1.27979e-05 0)
(0.0851502 -0.000264039 2.03546e-32)
(1.12016 -0.0030084 0)
(4.97491 -0.0123227 0)
(10.013 -0.0243312 -1.97836e-32)
(14.0071 -0.0337288 0)
(16.512 -0.0350657 0)
(17.8038 -0.034169 0)
(18.3464 -0.0316031 2.01452e-32)
(18.464 -0.0244162 0)
(18.5599 -0.0198252 0)
(18.5819 -0.0103155 0)
(18.5773 -0.00717903 0)
(18.5676 -0.00390706 0)
(18.5659 -0.00330271 0)
(18.5781 -0.00371281 0)
(18.5796 -0.00364633 0)
(18.5819 -0.00200467 0)
(18.5633 0.00116099 0)
(18.5459 0.0123669 0)
(18.5348 0.0168461 1.06748e-32)
(18.5266 0.0316228 -1.05446e-32)
(18.3508 0.0352932 0)
(17.8241 0.0395724 0)
(16.476 0.040412 1.02947e-32)
(13.6155 0.0370017 0)
(8.73471 0.0231863 0)
(3.00512 0.00832079 0)
(0.335123 0.00102306 0)
(0.0137637 5.29487e-05 0)
(0.000434753 2.06343e-06 0)
(1.47209e-05 7.55645e-08 0)
(5.14671e-07 2.73402e-09 0)
(1.8044e-08 9.49742e-11 0)
(6.25751e-10 2.65386e-12 0)
(2.24243e-11 -2.00241e-13 0)
(1.4644e-12 -1.28906e-13 -1.03912e-32)
(3.76622e-13 1.79049e-14 0)
(-5.70636e-14 -1.13952e-13 0)
(3.54476e-14 -5.53947e-15 0)
(4.81014e-14 -3.07787e-15 0)
(8.56503e-14 1.78323e-14 0)
(7.69844e-14 5.16556e-14 0)
(2.47663e-13 1.39772e-13 0)
(3.94438e-13 1.21472e-13 0)
(1.81198e-13 1.76523e-13 0)
(8.23327e-14 1.14381e-13 0)
(-1.03895e-13 1.43432e-14 0)
(-1.77463e-13 2.99341e-14 0)
(-4.01259e-14 2.99765e-14 0)
(-3.44371e-14 6.70583e-14 0)
(1.13346e-13 3.85874e-14 0)
(1.81408e-13 6.34934e-14 0)
(1.02894e-13 1.92995e-13 0)
(-3.46643e-14 2.8553e-13 0)
(-1.2689e-13 2.35938e-13 0)
(-2.72522e-14 6.49486e-14 9.79891e-33)
(-8.4561e-14 4.12873e-14 0)
(-1.81626e-13 -2.73031e-14 1.00892e-32)
(-2.27956e-13 3.80054e-16 0)
(-2.08572e-13 4.09188e-14 0)
(-1.89784e-13 2.63736e-14 0)
(-1.134e-13 1.37192e-14 0)
(-8.5964e-14 2.98195e-14 0)
(-3.87124e-14 3.54383e-14 0)
(1.35652e-13 -7.71794e-14 0)
(1.57783e-13 -7.95275e-14 0)
(1.91624e-13 -7.73983e-14 0)
(1.07133e-13 -1.09145e-13 0)
(9.27121e-14 -1.6329e-13 0)
(2.45726e-13 -1.66702e-13 0)
(2.98275e-13 -1.6563e-13 0)
(1.39155e-13 -1.831e-13 0)
(9.2088e-14 -9.35037e-14 0)
(1.61658e-13 -7.24786e-14 0)
(1.21221e-13 1.76502e-14 0)
(-5.5919e-14 -2.58672e-14 0)
(-2.30326e-14 -3.81328e-14 0)
(-5.37112e-15 6.18895e-15 0)
(1.21638e-13 2.72242e-14 0)
(1.4634e-13 -4.13766e-14 0)
(-5.7812e-14 -6.16622e-14 0)
(1.2598e-14 3.22827e-14 0)
(5.22734e-14 8.90427e-14 0)
(1.16395e-13 3.46903e-14 0)
(4.62362e-14 -9.52347e-14 0)
(2.35182e-13 -1.24626e-13 0)
(4.80726e-13 -1.80416e-13 0)
(3.39632e-13 -2.82163e-13 0)
(-6.85775e-14 -3.01158e-13 0)
(-9.30127e-14 -3.20103e-13 0)
(1.19603e-13 -2.95409e-13 0)
(-3.01259e-14 -1.69885e-13 0)
(1.10569e-13 -6.75723e-14 0)
(7.40103e-12 -7.17141e-14 0)
(2.18743e-10 1.43649e-13 0)
(5.91326e-09 6.4474e-12 0)
(1.58684e-07 1.81393e-10 0)
(4.2517e-06 4.3855e-09 0)
(0.000115481 8.97898e-08 0)
(0.0032954 1.25851e-06 0)
(0.0863233 3.7494e-06 0)
(1.13288 -0.000213882 0)
(5.01101 -0.0025121 0)
(10.0592 -0.00993442 0)
(14.0563 -0.0227818 0)
(16.5569 -0.0344967 0)
(17.8376 -0.0377263 0)
(18.3685 -0.0374313 0)
(18.4775 -0.032042 0)
(18.5634 -0.025727 0)
(18.577 -0.020876 0)
(18.5674 -0.0180694 0)
(18.5533 -0.012723 0)
(18.5483 -0.00656438 0)
(18.5592 -0.000861101 0)
(18.5617 0.00635516 0)
(18.567 0.0105317 0)
(18.5544 0.0142688 0)
(18.5449 0.0180257 0)
(18.5385 0.0226131 0)
(18.5432 0.0399103 0)
(18.3784 0.0414086 0)
(17.865 0.0421467 0)
(16.5282 0.0371798 0)
(13.6699 0.0214245 0)
(8.78337 0.00750403 0)
(3.03331 0.00119662 0)
(0.339423 3.53617e-05 0)
(0.0139653 -2.64453e-06 0)
(0.000442268 -2.73978e-07 0)
(1.50113e-05 -1.44429e-08 0)
(5.25534e-07 -6.0686e-10 0)
(1.84487e-08 -2.47847e-11 0)
(6.44594e-10 -1.37752e-12 0)
(2.281e-11 2.23149e-14 0)
(1.57303e-12 -4.53833e-14 0)
(3.55922e-13 -1.60656e-13 0)
(1.99464e-13 -1.28029e-14 0)
(1.08457e-13 5.27104e-14 0)
(6.08959e-14 2.01636e-13 0)
(1.0079e-13 3.11582e-13 0)
(2.29515e-13 2.82157e-13 0)
(3.01071e-13 3.33133e-13 0)
(3.01997e-13 2.4404e-13 0)
(2.72811e-14 1.99249e-13 0)
(-1.08404e-13 1.64347e-13 0)
(-1.55071e-13 1.16815e-13 0)
(-9.36939e-14 1.36648e-13 0)
(-4.89793e-14 1.3337e-13 0)
(-7.59418e-14 1.7339e-13 0)
(9.4182e-15 1.62869e-13 0)
(2.6058e-13 1.42668e-13 0)
(2.99052e-13 1.43671e-13 0)
(-1.79448e-14 8.75063e-14 0)
(-2.52696e-13 6.09552e-14 0)
(-2.75169e-13 3.72969e-14 0)
(-2.73452e-13 3.78937e-14 0)
(-2.31201e-13 -3.26275e-15 0)
(-1.59198e-13 1.57745e-14 0)
(-2.13374e-13 3.13725e-14 0)
(-1.9196e-13 1.81145e-14 0)
(-2.96681e-14 5.70441e-14 0)
(8.10659e-14 1.16986e-13 0)
(-5.50786e-14 1.31214e-13 0)
(6.16281e-14 -5.64958e-14 0)
(6.76458e-14 -7.01703e-14 0)
(5.43437e-14 -7.44342e-14 0)
(9.91645e-14 -1.07795e-13 0)
(2.05785e-13 -5.48068e-14 0)
(2.77067e-13 -6.13866e-14 0)
(2.90448e-13 -1.31095e-13 0)
(1.30978e-13 -1.8283e-13 0)
(7.90987e-14 -2.0319e-13 0)
(2.46405e-13 -2.19428e-13 0)
(1.41461e-13 -2.67501e-13 0)
(-1.09872e-13 -2.50749e-13 0)
(1.61955e-13 -1.35783e-13 0)
(3.57211e-14 -1.49117e-13 0)
(-5.45257e-14 -2.38221e-13 0)
(-4.3399e-14 -2.71077e-13 0)
(9.2716e-14 -2.74546e-13 0)
(1.74256e-13 -2.432e-13 0)
(1.15524e-13 -2.28451e-13 0)
(-5.84823e-14 -2.23209e-13 0)
(8.22357e-14 -2.55917e-13 0)
(2.52022e-13 -1.99629e-13 0)
(2.04258e-13 -2.4493e-13 0)
(1.15939e-13 -3.65286e-13 0)
(-5.9051e-14 -3.9223e-13 0)
(-1.28593e-14 -3.5943e-13 0)
(6.57206e-14 -3.92633e-13 0)
(1.64991e-13 -3.63179e-13 0)
(3.88283e-13 -2.26545e-13 0)
(7.39375e-12 -9.53032e-14 0)
(2.15784e-10 -2.88397e-12 0)
(5.84211e-09 -7.3978e-11 0)
(1.56864e-07 -1.91635e-09 0)
(4.20466e-06 -4.9096e-08 0)
(0.000114224 -1.22997e-06 0)
(0.00325859 -2.93886e-05 0)
(0.0854341 -0.000596288 0)
(1.12499 -0.00670922 0)
(4.99341 -0.0256894 0)
(10.0434 -0.0418818 0)
(14.0472 -0.0423898 0)
(16.5539 -0.0335489 0)
(17.8372 -0.0235898 0)
(18.3666 -0.0149369 0)
(18.4714 -0.00601574 0)
(18.5535 -0.0067755 0)
(18.5634 -0.00512886 0)
(18.5532 -0.00448296 0)
(18.5399 -0.002848 0)
(18.5347 -0.00187401 0)
(18.5455 -0.00082566 0)
(18.5481 -9.33004e-05 0)
(18.5526 -0.000299562 0)
(18.5418 -4.00115e-05 0)
(18.5324 0.00143329 0)
(18.5296 -0.000365544 0)
(18.5378 0.00749805 0)
(18.3783 0.0137466 0)
(17.8668 0.0270076 0)
(16.5254 0.039697 0)
(13.6575 0.049997 0)
(8.76161 0.0428633 0)
(3.01581 0.0175574 0)
(0.336039 0.00223167 0)
(0.0137985 0.000116458 0)
(0.000437183 4.67944e-06 0)
(1.48399e-05 1.76583e-07 0)
(5.19361e-07 6.50487e-09 0)
(1.82267e-08 2.34606e-10 0)
(6.37344e-10 8.26207e-12 0)
(2.20993e-11 4.10095e-13 0)
(9.31417e-13 -9.99672e-14 0)
(5.09391e-13 -2.14107e-13 0)
(4.80498e-13 -1.29966e-13 0)
(4.09891e-13 -9.71732e-14 0)
(3.68828e-13 -3.3833e-14 0)
(2.56735e-13 5.27718e-14 0)
(1.97419e-13 8.18797e-14 0)
(1.43387e-13 -3.23548e-14 0)
(7.1496e-14 -1.13492e-13 0)
(-1.2152e-14 -1.54539e-13 0)
(-6.8936e-14 -9.57838e-14 0)
(-1.47311e-13 -4.26393e-14 0)
(-1.2632e-13 -3.66498e-14 0)
(4.14052e-14 -6.24211e-14 0)
(5.22128e-15 9.86906e-17 0)
(2.08871e-14 1.14702e-14 0)
(1.33984e-13 1.50274e-14 0)
(1.53863e-14 -7.86012e-14 0)
(-2.37741e-13 -1.40886e-13 0)
(-1.88042e-13 -1.65677e-13 0)
(-1.18987e-13 -1.40641e-13 0)
(-1.68404e-13 -1.04977e-13 0)
(-1.69388e-13 1.71137e-15 0)
(-1.28047e-13 5.06822e-14 0)
(-2.76884e-13 6.871e-14 0)
(-1.42068e-13 7.39524e-14 0)
(3.29129e-14 7.63144e-14 0)
(4.97399e-14 5.25824e-14 0)
(1.27794e-14 3.59157e-14 0)
(5.99706e-14 4.77739e-14 0)
(9.97591e-14 6.59057e-14 0)
(1.28016e-13 5.11776e-14 0)
(1.71183e-13 2.96025e-14 0)
(1.67884e-13 7.9782e-14 0)
(8.07705e-14 2.76994e-15 0)
(5.06144e-14 -1.31474e-13 0)
(4.83949e-14 -1.8086e-13 0)
(1.94064e-14 -2.41386e-13 0)
(-4.47467e-14 -3.51632e-13 0)
(2.15781e-14 -4.3235e-13 0)
(2.49962e-13 -3.45201e-13 0)
(2.55647e-13 -2.6626e-13 0)
(-2.75232e-14 -3.42542e-13 0)
(-1.05206e-13 -4.02233e-13 0)
(-2.70998e-14 -3.82949e-13 0)
(-4.75718e-14 -3.09393e-13 0)
(1.37877e-13 -3.45453e-13 0)
(1.28769e-13 -3.23726e-13 0)
(8.60014e-14 -3.88069e-13 0)
(1.84128e-13 -3.30457e-13 0)
(1.8186e-13 -3.62097e-13 0)
(4.58081e-14 -3.46339e-13 0)
(2.38359e-14 -3.79858e-13 0)
(-2.89045e-14 -4.30787e-13 0)
(-5.78814e-14 -4.59676e-13 0)
(8.8796e-14 -4.37266e-13 0)
(2.19198e-13 -4.22965e-13 0)
(4.42831e-13 -4.7357e-13 0)
(7.80596e-12 -1.16181e-13 0)
(2.00167e-10 3.99041e-14 0)
(5.4215e-09 -9.844e-13 0)
(1.45806e-07 -2.57158e-11 0)
(3.91752e-06 -7.78028e-10 0)
(0.000106798 -2.28893e-08 0)
(0.00306098 -6.01099e-07 0)
(0.0808791 -1.28322e-05 0)
(1.0813 -0.000191569 0)
(4.88434 -0.00123592 0)
(9.92216 -0.00377677 0)
(13.9388 -0.00831102 0)
(16.468 -0.0118498 0)
(17.776 -0.0137241 0)
(18.3253 -0.0147415 0)
(18.4439 -0.0143187 0)
(18.5352 -0.0129887 0)
(18.55 -0.0112217 0)
(18.5417 -0.00950357 0)
(18.5305 -0.00624203 0)
(18.5264 -0.00292738 0)
(18.5378 0.000268911 0)
(18.5399 0.00313681 0)
(18.544 0.00587194 0)
(18.5322 0.00776051 0)
(18.5195 0.0104793 0)
(18.5133 0.0120514 0)
(18.5087 0.0157289 0)
(18.3317 0.0161043 0)
(17.7959 0.0150453 0)
(16.4248 0.0125588 0)
(13.5283 0.00728238 0)
(8.61706 0.00260219 0)
(2.91785 0.000490847 0)
(0.318859 3.31384e-05 0)
(0.0129511 1.47068e-06 0)
(0.000408258 5.23772e-08 0)
(1.38029e-05 1.41413e-09 0)
(4.81694e-07 3.07379e-11 0)
(1.68737e-08 -4.38584e-14 0)
(5.8965e-10 -3.99373e-13 0)
(2.05577e-11 -2.58554e-13 0)
(1.0748e-12 -2.96619e-13 0)
(4.43563e-13 -8.94672e-14 0)
(4.17095e-13 -6.81371e-14 0)
(3.30877e-13 -9.78319e-14 0)
(3.57726e-13 -1.15144e-13 0)
(3.30252e-13 -1.0875e-13 0)
(2.02985e-14 -2.09469e-13 0)
(3.6695e-14 -2.18592e-13 0)
(7.0138e-14 -2.31253e-13 0)
(-1.97881e-15 -2.04062e-13 0)
(-1.63861e-14 -2.13277e-13 0)
(-6.57288e-14 -2.07152e-13 0)
(-2.10965e-13 -7.90141e-14 0)
(-9.42948e-14 -1.78362e-13 0)
(1.11516e-13 -2.64567e-13 0)
(1.13416e-13 -2.91413e-13 0)
(1.12451e-13 -2.49971e-13 0)
(-3.72045e-14 -2.74866e-13 0)
(-2.1906e-13 -2.18393e-13 0)
(-2.25913e-13 -1.63009e-13 0)
(-1.21488e-13 -1.53539e-13 0)
(-7.9818e-14 -6.89519e-14 0)
(-1.93403e-14 -2.35526e-14 0)
(-4.9934e-14 -1.34864e-14 0)
(-1.67692e-13 3.64991e-14 0)
(-1.57362e-13 1.25108e-13 0)
(-5.59622e-14 1.1988e-13 0)
(5.25509e-15 1.23393e-13 0)
(1.41228e-14 1.12717e-13 0)
(8.91106e-14 9.00913e-14 0)
(1.00036e-13 9.65893e-14 0)
(5.64014e-14 6.53254e-14 0)
(1.65535e-13 2.70356e-14 0)
(1.96309e-13 5.80673e-14 0)
(2.07028e-14 3.8649e-14 0)
(-3.03516e-15 8.95142e-15 0)
(-9.05832e-14 -1.78573e-14 0)
(-1.24162e-13 -6.45408e-14 0)
(-6.58629e-14 -1.0142e-13 0)
(7.14752e-14 -1.88512e-13 0)
(2.82246e-13 -2.57399e-13 0)
(8.89212e-14 -3.29872e-13 0)
(-2.19704e-13 -3.79072e-13 0)
(-1.46349e-13 -4.11084e-13 0)
(2.09713e-13 -3.83115e-13 0)
(1.46133e-13 -2.97716e-13 0)
(2.24269e-13 -2.39247e-13 0)
(9.57537e-14 -2.37617e-13 0)
(-1.06388e-13 -3.02639e-13 0)
(8.76544e-15 -3.84671e-13 0)
(1.41571e-13 -4.11067e-13 0)
(1.37907e-13 -3.57572e-13 0)
(-8.24714e-14 -2.97976e-13 0)
(-2.74324e-13 -3.18304e-13 0)
(-2.70024e-14 -3.19573e-13 0)
(1.50559e-13 -2.68549e-13 0)
(1.39138e-13 -2.80541e-13 0)
(4.43446e-13 -3.02399e-13 0)
(8.87815e-12 -1.10524e-13 0)
(2.13721e-10 1.44322e-12 0)
(5.77721e-09 3.77076e-11 0)
(1.55207e-07 9.85483e-10 0)
(4.16074e-06 2.49523e-08 0)
(0.000113024 6.04445e-07 0)
(0.00322375 1.35054e-05 0)
(0.084612 0.000249812 0)
(1.11794 0.00259534 0)
(4.97902 0.00896841 0)
(10.0315 0.0123083 0)
(14.039 0.00918718 0)
(16.548 0.00153354 0)
(17.8331 -0.00651942 0)
(18.3642 -0.0117903 0)
(18.4709 -0.0159692 0)
(18.5518 -0.0143238 0)
(18.56 -0.0134706 0)
(18.5483 -0.0114121 0)
(18.534 -0.00753502 0)
(18.5281 -0.00343522 0)
(18.5384 0.000423316 0)
(18.5422 0.00527913 0)
(18.5483 0.00838831 0)
(18.5393 0.0109101 0)
(18.5319 0.0137234 0)
(18.5292 0.0161946 0)
(18.539 0.0160985 0)
(18.3772 0.0136716 0)
(17.8628 0.00641507 0)
(16.5178 -0.00358328 0)
(13.6456 -0.012475 0)
(8.74433 -0.013874 0)
(3.00121 -0.00657673 0)
(0.333104 -0.000914599 0)
(0.0136507 -5.25067e-05 0)
(0.000432599 -2.29122e-06 0)
(1.46887e-05 -9.0619e-08 0)
(5.14094e-07 -3.41007e-09 0)
(1.80419e-08 -1.2499e-10 0)
(6.32235e-10 -4.84415e-12 0)
(2.14023e-11 -3.54187e-13 0)
(1.79548e-12 -2.64289e-13 0)
(7.62647e-13 -9.02515e-14 0)
(3.65699e-13 -6.5055e-14 0)
(3.24564e-13 -6.80737e-14 0)
(4.45643e-13 -4.39512e-14 0)
(1.93203e-13 -5.63507e-14 0)
(-1.52276e-13 -1.33958e-13 0)
(-3.62326e-14 -1.15436e-13 0)
(7.62522e-14 -1.34257e-13 0)
(3.29377e-15 -9.36312e-14 0)
(-1.0524e-13 -1.03209e-13 0)
(6.14381e-14 -7.36762e-14 0)
(-1.29829e-13 -3.38001e-14 0)
(-2.17998e-13 -3.175e-14 0)
(-1.74593e-13 -8.34074e-14 0)
(-6.17406e-14 -1.99123e-13 0)
(9.46017e-15 -2.06267e-13 0)
(1.02813e-13 -1.99997e-13 0)
(2.12999e-14 -1.63929e-13 0)
(-1.37336e-13 -8.33047e-14 0)
(2.79536e-14 -3.44188e-14 0)
(8.31313e-14 5.24728e-14 0)
(-8.77261e-14 2.33606e-14 0)
(-6.64852e-14 2.11581e-15 0)
(-1.68725e-14 2.84176e-14 0)
(-2.61489e-14 5.48314e-14 0)
(1.03252e-14 1.37101e-13 0)
(2.96007e-14 1.59172e-13 0)
(1.07478e-13 1.96696e-13 0)
)
;

boundaryField
{
    sides1
    {
        type            zeroGradient;
    }
    sides2
    {
        type            slip;
    }
    empty
    {
        type            empty;
    }
}


// ************************************************************************* //
