/*--------------------------------*- C++ -*----------------------------------*\
| =========                 |                                                 |
| \\      /  F ield         | OpenFOAM: The Open Source CFD Toolbox           |
|  \\    /   O peration     | Version:  2012                                  |
|   \\  /    A nd           | Website:  www.openfoam.com                      |
|    \\/     M anipulation  |                                                 |
\*---------------------------------------------------------------------------*/
FoamFile
{
    version     2.0;
    format      ascii;
    class       volScalarField;
    location    "0.1";
    object      minKappa;
}
// * * * * * * * * * * * * * * * * * * * * * * * * * * * * * * * * * * * * * //

dimensions      [0 0 0 0 0 0 0];


internalField   nonuniform List<scalar> 
2268
(
7.73736e-07
1.73709e-06
2.80564e-06
3.9313e-06
5.08256e-06
6.31063e-06
7.5728e-06
8.94105e-06
1.03827e-05
1.19404e-05
1.36601e-05
1.54769e-05
1.74574e-05
1.97656e-05
2.25093e-05
2.55415e-05
2.77517e-05
2.90184e-05
4.84243e-05
0.000122452
0.000691688
0.000633521
0.000340661
7.73736e-07
1.73709e-06
2.80564e-06
3.9313e-06
5.08256e-06
6.31063e-06
7.5728e-06
8.94105e-06
1.03827e-05
1.19404e-05
1.36601e-05
1.54769e-05
1.74574e-05
1.97656e-05
2.25093e-05
2.52557e-05
2.71642e-05
2.90184e-05
4.84243e-05
0.000309615
0.000691688
0.000588146
0.000340661
1.17119e-06
1.94873e-06
2.94302e-06
4.03027e-06
5.15947e-06
6.37249e-06
7.62365e-06
8.98339e-06
1.04193e-05
1.19695e-05
1.36835e-05
1.55072e-05
1.75073e-05
1.98358e-05
2.25827e-05
2.49984e-05
2.71642e-05
4.01306e-05
0.000246974
0.000598311
0.000699584
0.000504417
0.000430324
1.63768e-06
2.25819e-06
3.15807e-06
4.18932e-06
5.2847e-06
6.47384e-06
7.70755e-06
9.05314e-06
1.04797e-05
1.20191e-05
1.37221e-05
1.55507e-05
1.75727e-05
1.99253e-05
2.26662e-05
2.47372e-05
2.92451e-05
0.000146291
0.000496851
0.000718069
0.000571108
0.000476835
0.000538107
2.12338e-06
2.62952e-06
3.43479e-06
4.40051e-06
5.4537e-06
6.61151e-06
7.82217e-06
9.14812e-06
1.0561e-05
1.2087e-05
1.37729e-05
1.56007e-05
1.76424e-05
2.00185e-05
2.2639e-05
2.47372e-05
5.81845e-05
0.000352006
0.000671677
0.000636742
0.000457377
0.000476835
0.000612018
2.61427e-06
3.03763e-06
3.7578e-06
4.65513e-06
5.66129e-06
6.78202e-06
7.96505e-06
9.26694e-06
1.06613e-05
1.21719e-05
1.3836e-05
1.56554e-05
1.77127e-05
2.01058e-05
2.25013e-05
2.68433e-05
0.000164075
0.000565152
0.000689372
0.000529188
0.000425015
0.000524318
0.000662574
3.10465e-06
3.46656e-06
4.1137e-06
4.9441e-06
5.9012e-06
6.98076e-06
8.13215e-06
9.4064e-06
1.0777e-05
1.22687e-05
1.39089e-05
1.57107e-05
1.77751e-05
2.01779e-05
2.22908e-05
5.17701e-05
0.000375276
0.000667575
0.000581071
0.000458469
0.000425015
0.000580711
0.000691393
3.59146e-06
3.90634e-06
4.49195e-06
5.25929e-06
6.16744e-06
7.20347e-06
8.3202e-06
9.56466e-06
1.09073e-05
1.23774e-05
1.39957e-05
1.57749e-05
1.78409e-05
2.02239e-05
2.22908e-05
9.71887e-05
0.00052622
0.000679498
0.000581071
0.000458469
0.00045024
0.000634608
0.000720209
1.11428e-05
1.63886e-05
2.86463e-05
3.90346e-05
4.88142e-05
4.91e-05
5.23641e-05
4.8349e-05
4.78683e-05
4.24271e-05
3.98409e-05
3.42134e-05
3.06674e-05
2.52139e-05
2.12727e-05
1.60538e-05
1.19905e-05
7.03219e-06
3.29157e-06
1.11428e-05
1.63886e-05
2.86463e-05
3.90346e-05
4.88142e-05
4.91e-05
5.23641e-05
4.8349e-05
4.78683e-05
4.24271e-05
3.98409e-05
3.42134e-05
3.06674e-05
2.52139e-05
2.12727e-05
1.60538e-05
1.19905e-05
7.03219e-06
3.29157e-06
1.35421e-05
2.16009e-05
3.10916e-05
4.0822e-05
4.99572e-05
4.97855e-05
5.29423e-05
4.87042e-05
4.81411e-05
4.26514e-05
4.00345e-05
3.44144e-05
3.08692e-05
2.54524e-05
2.15439e-05
1.64109e-05
1.24582e-05
7.79924e-06
4.69319e-06
1.74332e-05
2.85988e-05
3.45412e-05
4.36904e-05
5.20818e-05
5.1072e-05
5.39898e-05
4.93995e-05
4.86599e-05
4.30718e-05
4.03861e-05
3.4767e-05
3.12154e-05
2.58529e-05
2.19934e-05
1.69923e-05
1.3203e-05
8.93846e-06
6.40924e-06
2.34062e-05
3.87013e-05
4.02472e-05
4.76662e-05
5.49543e-05
5.26611e-05
5.52978e-05
5.02357e-05
4.92995e-05
4.36052e-05
4.08411e-05
3.52342e-05
3.16801e-05
2.63946e-05
2.26022e-05
1.7771e-05
1.41783e-05
1.03266e-05
8.23588e-06
3.17881e-05
5.07775e-05
4.7638e-05
5.2968e-05
5.89484e-05
5.50025e-05
5.71093e-05
5.14391e-05
5.01903e-05
4.43438e-05
4.14574e-05
3.58536e-05
3.22864e-05
2.7088e-05
2.33698e-05
1.87297e-05
1.53445e-05
1.18783e-05
1.01116e-05
3.25344e-05
6.70062e-05
5.94915e-05
5.93881e-05
6.36858e-05
5.75299e-05
5.90409e-05
5.27288e-05
5.11581e-05
4.51637e-05
4.21527e-05
3.65655e-05
3.2991e-05
2.78973e-05
2.42646e-05
1.9831e-05
1.66535e-05
1.35307e-05
1.20067e-05
4.17295e-05
8.74511e-05
7.79593e-05
6.79575e-05
6.96865e-05
6.10022e-05
6.14491e-05
5.44055e-05
5.23733e-05
4.6195e-05
4.30134e-05
3.74306e-05
3.38335e-05
2.88448e-05
2.52945e-05
2.10663e-05
1.80826e-05
1.52552e-05
1.39158e-05
6.36811e-06
6.80449e-06
7.64192e-06
8.75353e-06
1.01012e-05
1.16541e-05
1.3344e-05
1.52437e-05
1.72972e-05
1.95581e-05
2.206e-05
2.47966e-05
2.80233e-05
3.16103e-05
3.96777e-05
0.000255551
0.00092027
0.000941258
0.000762868
0.000658754
0.00076139
0.00104483
0.000977431
1.07923e-05
1.12681e-05
1.22328e-05
1.35286e-05
1.50495e-05
1.67339e-05
1.86598e-05
2.08528e-05
2.33119e-05
2.60108e-05
2.90464e-05
3.23767e-05
3.62019e-05
4.01951e-05
8.51087e-05
0.000631369
0.00095671
0.000657516
0.000695875
0.000767719
0.000971273
0.00112104
0.000919853
1.28311e-05
1.3224e-05
1.40571e-05
1.51785e-05
1.66123e-05
1.8138e-05
1.98946e-05
2.19291e-05
2.4229e-05
2.67666e-05
2.96282e-05
3.27861e-05
3.63496e-05
4.44434e-05
0.000156505
0.000888116
0.000682258
0.000493745
0.000606421
0.000802753
0.000921466
0.000938931
0.00084032
1.47628e-05
1.50972e-05
1.58293e-05
1.68157e-05
1.81309e-05
1.95441e-05
2.11478e-05
2.30325e-05
2.51714e-05
2.75526e-05
3.02169e-05
3.32019e-05
3.64416e-05
6.38084e-05
0.000425041
0.000804849
0.000498096
0.000493745
0.000628267
0.000784578
0.000826177
0.000795948
0.000678665
1.65737e-05
1.68647e-05
1.75159e-05
1.8395e-05
1.95795e-05
2.08887e-05
2.2358e-05
2.40997e-05
2.60822e-05
2.8304e-05
3.0769e-05
3.35678e-05
3.64641e-05
8.066e-05
0.000608958
0.000590148
0.000320416
0.000500704
0.000693333
0.00073073
0.00074401
0.000701739
0.000559524
1.82524e-05
1.85104e-05
1.90944e-05
1.98864e-05
2.09597e-05
2.21673e-05
2.35199e-05
2.51241e-05
2.69615e-05
2.90191e-05
3.13024e-05
3.38813e-05
3.64792e-05
9.46682e-05
0.000745946
0.000468852
0.000320416
0.000493087
0.000671041
0.000674047
0.00067547
0.000633119
0.000466643
1.97913e-05
2.00236e-05
2.05498e-05
2.12701e-05
2.22476e-05
2.33379e-05
2.45893e-05
2.60649e-05
2.77705e-05
2.96656e-05
3.17858e-05
3.41357e-05
4.64523e-05
0.000233937
0.000663616
0.000385268
0.00037932
0.000566
0.000645173
0.000622038
0.000621495
0.000581963
0.000422959
2.11839e-05
2.13965e-05
2.1871e-05
2.25334e-05
2.34249e-05
2.4411e-05
2.55711e-05
2.69273e-05
2.85103e-05
3.02516e-05
3.22271e-05
3.43665e-05
5.59974e-05
0.000353717
0.000567802
0.000249007
0.000451366
0.000592064
0.000612195
0.000575325
0.000572689
0.000537923
0.000377244
2.24277e-05
2.26254e-05
2.30519e-05
2.36693e-05
2.44683e-05
2.5357e-05
2.64352e-05
2.76875e-05
2.91599e-05
3.07664e-05
3.26118e-05
3.45633e-05
6.49017e-05
0.000449456
0.00048504
0.000249007
0.000446106
0.000544442
0.000586002
0.000536484
0.000540985
0.000501987
0.000355894
2.35182e-05
2.37055e-05
2.40867e-05
2.46712e-05
2.53652e-05
2.6189e-05
2.71899e-05
2.83488e-05
2.97168e-05
3.12077e-05
3.29346e-05
3.47353e-05
7.36735e-05
0.000542538
0.000485869
0.000264877
0.000511668
0.000517596
0.00055213
0.000508026
0.000503181
0.00047251
0.00032806
2.44599e-05
2.46404e-05
2.49786e-05
2.55412e-05
2.61266e-05
2.68958e-05
2.78271e-05
2.89139e-05
3.01917e-05
3.15898e-05
3.32035e-05
3.48675e-05
8.27664e-05
0.000618573
0.000325366
0.00040955
0.000555496
0.000515336
0.000525189
0.000491912
0.000480618
0.000451374
0.000314564
2.52459e-05
2.54231e-05
2.57221e-05
2.62028e-05
2.67479e-05
2.74689e-05
2.83347e-05
2.93569e-05
3.05392e-05
3.18547e-05
3.33445e-05
3.4906e-05
9.07618e-05
0.000516146
0.000149488
0.000392577
0.000516024
0.000513903
0.00049705
0.000476331
0.000454076
0.000428106
0.000296064
2.58906e-05
2.60662e-05
2.63321e-05
2.67474e-05
2.7257e-05
2.79396e-05
2.87507e-05
2.97251e-05
3.08293e-05
3.20839e-05
3.34434e-05
3.48944e-05
9.63672e-05
0.000428619
9.29735e-05
0.000325006
0.000459724
0.000502656
0.000466711
0.000462766
0.000437268
0.000414941
0.000286707
2.63802e-05
2.6538e-05
2.67355e-05
2.71052e-05
2.75841e-05
2.82322e-05
2.89938e-05
2.99249e-05
3.09598e-05
3.21708e-05
3.34392e-05
3.50863e-05
0.000100977
0.0004358
9.29735e-05
0.000357722
0.000430373
0.000480374
0.00044951
0.000447931
0.000420011
0.000398867
0.000274103
2.69899e-05
2.71845e-05
2.74355e-05
2.80431e-05
2.85718e-05
2.9677e-05
3.05687e-05
3.24187e-05
3.38392e-05
3.76337e-05
4.19203e-05
5.60276e-05
0.000303931
0.000459368
0.0001679
0.000396908
0.000430373
0.000476734
0.000445064
0.000438673
0.000409421
0.000388278
0.00026673
4.73251e-05
4.82552e-05
4.94666e-05
5.24961e-05
5.52155e-05
6.12932e-05
6.63021e-05
7.82796e-05
8.78226e-05
0.00012265
0.000176188
0.000328966
0.000733437
0.000424771
0.00021674
0.000414376
0.00043547
0.000484207
0.000445064
0.000429776
0.000398778
0.000376119
0.000257187
0.000299766
0.000307006
0.000316215
0.000338507
0.000357446
0.000397148
0.000426328
0.000487655
0.000526612
0.000564257
0.000625702
0.000750353
0.00076044
0.000449004
0.000235577
0.000475896
0.000490786
0.000499673
0.000454325
0.000423894
0.00039218
0.000366126
0.000250438
0.000525815
0.000528847
0.000532955
0.000540274
0.000548752
0.000560758
0.000576135
0.00059688
0.000632033
0.000676636
0.000698912
0.000737839
0.000587173
0.000427017
0.000311073
0.000540654
0.000586266
0.000514914
0.000461675
0.00041942
0.000383761
0.000354876
0.000241851
0.000507821
0.000511613
0.000516698
0.00052638
0.000537756
0.000555095
0.000574838
0.000601121
0.000643501
0.000702935
0.0007662
0.000819213
0.000595839
0.000427017
0.00054099
0.000757112
0.00061487
0.000518191
0.000460404
0.000407898
0.000373033
0.000341745
0.000233456
0.000484822
0.000488995
0.000494171
0.000503319
0.000514701
0.000530968
0.000555217
0.000583982
0.000641968
0.000708448
0.000830812
0.000907164
0.000883575
0.000597871
0.000901643
0.00075116
0.000601833
0.000507376
0.000446243
0.00039456
0.000358966
0.000327984
0.000223767
0.000463776
0.000466571
0.000471167
0.000479046
0.000489915
0.000503794
0.000525014
0.00054694
0.000580436
0.000625938
0.000704671
0.000773446
0.00086246
0.000870535
0.000767587
0.000625662
0.000519592
0.000454634
0.000405294
0.000364034
0.000333168
0.000307435
0.000210616
0.000439263
0.000441304
0.000445196
0.000451721
0.00046088
0.00047258
0.000490701
0.000508713
0.000540592
0.000563529
0.000611807
0.000637728
0.000683898
0.000684513
0.00062663
0.000542086
0.000473919
0.000419746
0.000381089
0.000343562
0.000317299
0.000292304
0.000201131
0.000414739
0.000416357
0.000419283
0.00042393
0.000430612
0.000438332
0.000451162
0.000462306
0.000484788
0.000498209
0.000529595
0.000539855
0.00056015
0.000555623
0.000511295
0.000461652
0.000414571
0.000373851
0.000343664
0.000313045
0.000291036
0.000270509
0.000186453
0.000390194
0.000391333
0.000393587
0.000396964
0.000401982
0.000407163
0.00041616
0.000422171
0.0004364
0.00044135
0.000459355
0.000461344
0.000466335
0.000458273
0.00042899
0.000398816
0.000363432
0.000334792
0.000314176
0.000284946
0.000271068
0.000249985
0.000175629
0.000365782
0.000366484
0.000367918
0.000369931
0.000373237
0.000376112
0.000382039
0.000384672
0.000393446
0.00039397
0.000402859
0.00040032
0.000398616
0.000390322
0.000367578
0.000346221
0.000319174
0.000299308
0.000281316
0.000258249
0.000247297
0.000229179
0.000161964
0.000342712
0.000343027
0.000343782
0.00034459
0.000346355
0.000347145
0.000350332
0.000350106
0.00035452
0.00035205
0.000355174
0.000350442
0.00034464
0.000335887
0.00031862
0.000302948
0.000282586
0.000267973
0.000251567
0.000234386
0.000225502
0.00020981
0.000150591
0.000320456
0.000320479
0.000320694
0.000320609
0.000321183
0.000320499
0.000321589
0.000319451
0.000320625
0.000316457
0.000315432
0.000309529
0.000302439
0.000293891
0.000279594
0.00026663
0.000250584
0.000238853
0.000224679
0.000212077
0.00020401
0.000191426
0.000138168
0.00029987
0.000299611
0.000299311
0.000298407
0.000297917
0.000295993
0.000295351
0.00029183
0.000290602
0.0002853
0.000281867
0.00027513
0.000266957
0.000258282
0.000246345
0.000235502
0.000222738
0.000212889
0.000201067
0.000191552
0.0001841
0.000174396
0.000127284
0.000280725
0.000280261
0.000279571
0.000278062
0.000276737
0.000273901
0.000271917
0.000267427
0.000264382
0.000258339
0.000253123
0.000245933
0.000237685
0.000229284
0.000218572
0.000208973
0.000198079
0.000189415
0.000179548
0.000172064
0.00016547
0.000158202
0.000116066
0.000263254
0.000262615
0.000261582
0.000259579
0.000257548
0.00025401
0.000250957
0.000245726
0.000241402
0.000234761
0.000228531
0.000220847
0.000212263
0.000203794
0.000194107
0.000185383
0.000175988
0.000168389
0.000160186
0.00015404
0.000148409
0.000142995
0.00010602
0.000247458
0.000246678
0.000245362
0.000242964
0.000240357
0.00023627
0.000232368
0.000226594
0.000221256
0.00021414
0.000207097
0.000199168
0.000190623
0.000182269
0.000173068
0.000164835
0.000156323
0.000149358
0.000142321
0.0001371
0.000132395
0.000128425
9.59761e-05
0.000233287
0.000232399
0.000230852
0.000228151
0.000225078
0.00022056
0.000216
0.000209763
0.000203708
0.000196183
0.000188615
0.000180283
0.000171509
0.000162998
0.00015416
0.000146241
0.000138393
0.000131955
0.000125862
0.000121374
0.000117557
0.000114699
8.67771e-05
0.000220777
0.000219795
0.00021804
0.000215081
0.000211605
0.000206734
0.000201614
0.000195004
0.000188332
0.000180425
0.000172381
0.000163812
0.000154959
0.000146371
0.000137613
0.000129776
0.000122232
0.000116087
0.000110567
0.00010661
0.000103524
0.00010157
7.78376e-05
0.000209816
0.000208763
0.000206846
0.000203686
0.000199893
0.000194725
0.000189173
0.000182226
0.000175095
0.000166841
0.000158418
0.000149446
0.000140305
0.000131408
0.000122613
0.000114712
0.000107337
0.000101342
9.62482e-05
9.27338e-05
9.03159e-05
8.9149e-05
6.94253e-05
0.000200413
0.000199293
0.00019722
0.00019388
0.000189794
0.000184368
0.000178423
0.000171177
0.000163474
0.000154917
0.000146156
0.000136938
0.000127569
0.000118405
0.000109404
0.000101269
9.37971e-05
8.775e-05
8.28356e-05
7.96166e-05
7.77372e-05
7.72844e-05
6.14871e-05
0.000192467
0.000191296
0.000189106
0.000185621
0.000181312
0.000175667
0.000169138
0.00016171
0.000153583
0.0001448
0.000135558
0.000125934
0.000116316
0.000106843
9.75062e-05
8.89801e-05
8.12667e-05
7.50059e-05
7.01264e-05
6.71129e-05
6.57392e-05
6.59992e-05
5.3869e-05
0.000185965
0.000184738
0.000182424
0.000178798
0.000173822
0.000167696
0.00016061
0.000152668
0.000144025
0.000134799
0.000125262
0.000115525
0.000105852
9.63571e-05
8.718e-05
7.81272e-05
6.99357e-05
6.32256e-05
5.81314e-05
5.51705e-05
5.42359e-05
5.52458e-05
4.68793e-05
0.00018087
0.000179594
0.000176643
0.000172516
0.000167286
0.000161069
0.000153901
0.000145888
0.000137123
0.000127693
0.000117757
0.00010744
9.70587e-05
8.68232e-05
7.70975e-05
6.8169e-05
5.96434e-05
5.22382e-05
4.66855e-05
4.36219e-05
4.31473e-05
4.50445e-05
4.01988e-05
0.000177142
0.0001755
0.000172383
0.000168097
0.000162647
0.000156127
0.000148596
0.000140171
0.000130984
0.00012117
0.000110921
0.000100357
8.97046e-05
7.91106e-05
6.88797e-05
5.93045e-05
5.07888e-05
4.23923e-05
3.59591e-05
3.24844e-05
3.2486e-05
3.55394e-05
3.43536e-05
0.000173995
0.000172031
0.000168796
0.000164395
0.000158833
0.000152214
0.000144583
0.000136054
0.000126718
0.000116692
0.000106128
9.51593e-05
8.39988e-05
7.28031e-05
6.18489e-05
5.1385e-05
4.1857e-05
3.37137e-05
2.58889e-05
2.15241e-05
2.22566e-05
2.70548e-05
2.91392e-05
0.000172633
0.000170745
0.000167543
0.000163092
0.000157406
0.000150588
0.000142702
0.000133869
0.000124203
0.000113835
0.000102922
9.15906e-05
8.0024e-05
6.83476e-05
5.67764e-05
4.54913e-05
3.48337e-05
2.53888e-05
1.80707e-05
1.11624e-05
1.32098e-05
2.02222e-05
2.531e-05
0.000171442
0.000169469
0.000166198
0.000161716
0.000156037
0.000149257
0.000141428
0.000132658
0.000123041
0.000112695
0.000101757
9.03486e-05
7.86357e-05
6.67318e-05
5.48103e-05
4.29791e-05
3.14064e-05
2.02792e-05
1.04693e-05
7.51334e-06
7.51334e-06
1.34412e-05
2.24182e-05
0.000397328
0.000148712
7.54991e-05
7.54991e-05
0.000508987
0.000429632
0.000348909
0.000348909
0.000500179
0.000436729
0.000377195
0.000377195
0.000422011
0.000389738
0.000349096
0.000349096
0.000351447
0.000334497
0.000310491
0.000310491
0.000290373
0.000276931
0.000261312
0.000261312
0.000263232
0.000252008
0.000239538
0.000239538
0.000233941
0.000224215
0.000214219
0.000214219
0.000220812
0.000212316
0.00020367
0.00020367
0.000203399
0.000195933
0.000188452
0.000188452
0.000195405
0.000188827
0.000182103
0.000182103
0.000184023
0.000178044
0.00017197
0.00017197
0.000178486
0.00017286
0.000167251
0.000167251
0.000170684
0.000165176
0.00015996
0.00015996
0.000166105
0.000160793
0.00015585
0.00015585
0.000159996
0.000154742
0.000149932
0.000149932
0.000155618
0.000150546
0.00014582
0.00014582
0.000149972
0.000144947
0.000140257
0.000140257
0.00014464
0.000139887
0.000135358
0.000135358
0.000138451
0.000133913
0.00012951
0.00012951
0.000130753
0.000126787
0.000122951
0.000122951
0.000124908
0.000121136
0.000117493
0.000117493
0.000116129
0.000112939
0.000109874
0.000109874
0.000109629
0.000106851
0.000104149
0.000104149
0.000101351
9.90469e-05
9.67884e-05
9.67884e-05
9.4481e-05
9.25844e-05
9.06986e-05
9.06986e-05
8.69181e-05
8.53967e-05
8.38726e-05
8.38726e-05
8.0294e-05
7.90957e-05
7.78947e-05
7.78947e-05
7.34191e-05
7.25056e-05
7.1611e-05
7.1611e-05
6.72593e-05
6.66019e-05
6.59755e-05
6.59755e-05
6.1056e-05
6.06252e-05
6.02452e-05
6.02452e-05
5.53893e-05
5.51847e-05
5.50308e-05
5.50308e-05
4.98456e-05
4.98326e-05
4.98326e-05
4.9881e-05
4.46608e-05
4.46608e-05
4.48588e-05
4.51156e-05
3.97458e-05
3.97458e-05
4.01246e-05
4.05688e-05
3.50699e-05
3.50699e-05
3.56599e-05
3.63121e-05
3.07798e-05
3.07798e-05
3.15646e-05
3.2412e-05
2.6733e-05
2.6733e-05
2.77498e-05
2.88184e-05
2.32234e-05
2.32234e-05
2.44667e-05
2.5748e-05
2.016e-05
2.016e-05
2.16524e-05
2.31534e-05
1.79594e-05
1.79594e-05
1.96625e-05
2.13416e-05
1.66507e-05
1.66507e-05
1.84895e-05
2.02749e-05
0.000130824
0.000161213
0.000155908
0.000120063
0.000118898
0.000100927
9.98169e-05
8.77168e-05
8.38153e-05
7.39037e-05
6.86782e-05
5.99871e-05
5.43442e-05
4.67318e-05
4.13203e-05
3.50304e-05
3.06451e-05
2.66154e-05
2.47418e-05
0.000448641
0.000354652
0.000304015
0.000215991
0.000192522
0.000158248
0.000148864
0.000129366
0.000121168
0.000106794
9.86418e-05
8.68148e-05
7.89511e-05
6.90705e-05
6.20339e-05
5.42988e-05
4.89949e-05
4.43909e-05
4.22932e-05
0.000558224
0.00039243
0.000304304
0.000242646
0.000211522
0.000174851
0.000160044
0.000138794
0.000128204
0.00011327
0.00010422
9.25084e-05
8.45021e-05
7.51232e-05
6.83869e-05
6.13822e-05
5.66025e-05
5.26561e-05
5.08638e-05
0.000521616
0.000410293
0.000331576
0.000255954
0.000224395
0.000187778
0.000169673
0.000147735
0.000135262
0.000120058
0.000110214
9.8672e-05
9.05247e-05
8.161e-05
7.5117e-05
6.87194e-05
6.43352e-05
6.08733e-05
5.92896e-05
0.000473493
0.000402572
0.000334429
0.00027573
0.00023774
0.000201194
0.000179479
0.000157006
0.000142693
0.000127283
0.000116651
0.000105268
9.69456e-05
8.84309e-05
8.21058e-05
7.61944e-05
7.20937e-05
6.89887e-05
6.75471e-05
0.000407045
0.000388157
0.000326861
0.000277896
0.000240869
0.000207445
0.000185104
0.000163611
0.000148583
0.000133604
0.000122606
0.000111615
0.000103257
9.51824e-05
8.90357e-05
8.35574e-05
7.969e-05
7.68712e-05
7.55376e-05
0.00037696
0.00037126
0.000317675
0.000280553
0.000244692
0.00021474
0.000191286
0.000170739
0.00015487
0.00014025
0.000128827
0.000118146
0.0001097
0.000101977
9.59417e-05
9.0801e-05
8.70981e-05
8.44955e-05
8.32382e-05
0.00034047
0.000356316
0.000309041
0.00027844
0.000244639
0.000218135
0.000194809
0.000175689
0.000159665
0.00014579
0.000134292
0.000124114
0.000115727
0.000108412
0.000102528
9.7711e-05
9.41619e-05
9.17473e-05
9.05549e-05
0.000325827
0.00034247
0.000301186
0.000274327
0.000243362
0.0002211
0.000197986
0.00018037
0.000164273
0.000151136
0.000139596
0.000129882
0.000121556
0.000114594
0.000108838
0.000104289
0.000100864
9.86006e-05
9.74595e-05
0.000302995
0.000329662
0.000293862
0.000269751
0.000241615
0.000222068
0.000199995
0.000183643
0.000167928
0.00015556
0.000144217
0.000135016
0.000126861
0.000120273
0.000114683
0.000110395
0.000107098
0.000104973
0.000103881
0.000293877
0.000318432
0.000287299
0.000264716
0.000239492
0.000221357
0.000201389
0.000186214
0.000171052
0.000159419
0.000148381
0.000139665
0.000131728
0.000125483
0.00012007
0.000116015
0.000112841
0.000110838
0.000109791
0.000278189
0.000307623
0.000280677
0.000259417
0.000236861
0.000219854
0.000202075
0.000187834
0.000173462
0.00016249
0.000151902
0.000143662
0.00013602
0.000130113
0.000124908
0.000121078
0.000118037
0.000116149
0.000115148
0.000270958
0.000298215
0.000274498
0.000254159
0.000233894
0.000217814
0.000201542
0.000188737
0.000175232
0.000164898
0.000154829
0.000147047
0.000139746
0.000134162
0.000129186
0.000125569
0.000122666
0.000120885
0.00011993
0.000259262
0.000288994
0.000267866
0.000248608
0.000230335
0.000215226
0.000200325
0.000188513
0.000176353
0.000166621
0.000157125
0.000149791
0.000142867
0.000137603
0.000132876
0.000129467
0.000126709
0.000125031
0.000124125
0.000252697
0.000280573
0.000261364
0.000243135
0.000226452
0.000212275
0.000198572
0.000187525
0.000176689
0.00016769
0.00015879
0.000151902
0.000145378
0.00014043
0.000135967
0.000132762
0.000130156
0.00012858
0.000127723
0.000243071
0.000272192
0.000254221
0.00023731
0.000221928
0.000208793
0.000196182
0.000185939
0.000175927
0.000168002
0.00015985
0.000153407
0.000147293
0.000142662
0.000138469
0.000135468
0.000133018
0.000131541
0.000130735
0.000236487
0.00026414
0.000246893
0.000231384
0.000217051
0.000204969
0.000193322
0.000183883
0.000174641
0.000167323
0.000160194
0.000154303
0.000148609
0.000144296
0.000140383
0.000137586
0.000135297
0.00013392
0.000133167
0.000227381
0.000255563
0.000238943
0.00022497
0.00021158
0.00020062
0.000189872
0.00018127
0.000172775
0.00016608
0.000159528
0.000154443
0.000149373
0.000145378
0.000141745
0.000139151
0.000137025
0.000135746
0.000135047
0.000219613
0.000246782
0.000230879
0.000218305
0.000205836
0.000195924
0.000186041
0.00017824
0.000170465
0.000164382
0.000158392
0.000153759
0.000149315
0.000145913
0.000142566
0.000140177
0.000138216
0.000137039
0.000136392
0.000210247
0.000236868
0.000222157
0.000210942
0.000199542
0.000190679
0.000181705
0.000174709
0.000167667
0.000162196
0.000156771
0.000152594
0.000148568
0.000145536
0.000142757
0.000140712
0.000138915
0.000137836
0.000137246
0.000200107
0.000226963
0.000213551
0.000203465
0.000193129
0.000185199
0.000177107
0.000170858
0.000164529
0.000159641
0.00015477
0.000151035
0.00014742
0.000144704
0.000142207
0.000140434
0.000138967
0.000138092
0.000137594
0.000191307
0.000216146
0.000204247
0.000195334
0.000186182
0.000179214
0.000172061
0.000166575
0.000160984
0.000156687
0.000152381
0.000149089
0.000145888
0.00014349
0.000141277
0.000139709
0.000138408
0.000137627
0.000137185
0.000179483
0.000205381
0.000195004
0.000187223
0.000179201
0.000173127
0.000166867
0.000162094
0.000157207
0.000153471
0.00014971
0.000146846
0.00014405
0.000141961
0.000140025
0.000138654
0.000137512
0.000136829
0.000136453
0.000170433
0.000194434
0.000185427
0.000178768
0.000171865
0.000166705
0.000161347
0.000157303
0.00015313
0.000149962
0.000146751
0.000144317
0.000141925
0.000140145
0.000138487
0.000137315
0.000136335
0.000135754
0.000135436
0.00015882
0.000183309
0.000175743
0.000170245
0.000164466
0.000160213
0.000155732
0.000152392
0.000148906
0.000146286
0.000143604
0.000141586
0.000139587
0.000138106
0.000136717
0.00013574
0.000134921
0.000134437
0.000134172
0.000149202
0.000172452
0.000166172
0.000161758
0.00015701
0.000153619
0.00014998
0.000147333
0.000144522
0.000142446
0.000140287
0.000138683
0.00013707
0.000135887
0.000134764
0.000133981
0.000133318
0.00013293
0.000132714
0.000138335
0.000161593
0.000156578
0.000153241
0.000149527
0.000146998
0.000144191
0.000142226
0.000140071
0.000138524
0.000136868
0.000135665
0.000134427
0.000133533
0.000132668
0.000132074
0.000131563
0.000131266
0.000131099
0.000128806
0.000151095
0.000147258
0.000144929
0.000142182
0.000140467
0.000138444
0.00013713
0.000135601
0.000134567
0.000133399
0.000132587
0.000131711
0.000131101
0.000130486
0.000130075
0.00012971
0.000129503
0.000129383
0.000118721
0.000140785
0.00013809
0.000136722
0.000134922
0.000133996
0.000132743
0.000132063
0.000131145
0.00013061
0.000129914
0.000129481
0.000128954
0.000128617
0.000128242
0.000128008
0.000127783
0.000127662
0.000127588
0.000109671
0.000130881
0.000129283
0.000128811
0.000127914
0.000127732
0.000127209
0.000127132
0.000126794
0.000126733
0.000126484
0.000126415
0.000126221
0.000126146
0.000126001
0.000125936
0.000125847
0.000125807
0.000125778
0.000100431
0.000121294
0.000120763
0.000121134
0.000121112
0.000121642
0.000121824
0.000122326
0.000122545
0.000122942
0.000123123
0.000123401
0.000123525
0.0001237
0.000123772
0.00012387
0.000123906
0.000123947
0.000123959
9.20473e-05
0.00011219
0.000112678
0.000113844
0.000114656
0.000115857
0.000116708
0.000117755
0.000118498
0.000119324
0.000119908
0.000120514
0.000120936
0.000121347
0.000121624
0.000121874
0.000122029
0.000122147
0.000122196
8.3744e-05
0.000103506
0.000104973
0.000106904
0.000108515
0.000110355
0.000111841
0.000113404
0.000114644
0.000115877
0.000116841
0.000117754
0.000118454
0.000119087
0.000119554
0.000119948
0.000120213
0.000120402
0.000120487
7.61013e-05
9.54013e-05
9.77917e-05
0.000100454
0.000102816
0.000105256
0.000107335
0.000109377
0.000111077
0.000112684
0.000113997
0.000115194
0.00011615
0.000116986
0.000117628
0.000118154
0.00011852
0.000118774
0.000118892
6.8795e-05
8.78251e-05
9.10965e-05
9.44698e-05
9.75367e-05
0.000100545
0.000103174
0.000105663
0.000107786
0.000109737
0.000111369
0.000112826
0.000114015
0.000115037
0.000115838
0.000116484
0.000116943
0.000117256
0.000117405
6.20041e-05
8.09328e-05
8.50366e-05
8.90876e-05
9.28033e-05
9.63349e-05
9.94605e-05
0.000102352
0.000104853
0.000107113
0.000109029
0.000110716
0.000112112
0.000113299
0.000114241
0.000114992
0.000115533
0.000115897
0.000116072
5.57896e-05
7.47405e-05
7.96242e-05
8.43111e-05
8.86136e-05
9.26196e-05
9.61862e-05
9.9436e-05
0.000102269
0.0001048
0.000106964
0.000108854
0.00011043
0.000111762
0.000112827
0.000113672
0.000114285
0.000114695
0.000114894
5.01194e-05
6.94035e-05
7.50004e-05
8.02618e-05
8.5076e-05
8.94943e-05
9.34363e-05
9.69911e-05
0.000100104
0.000102863
0.000105235
0.000107294
0.000109021
0.000110473
0.000111639
0.000112561
0.000113232
0.000113679
0.000113897
4.53045e-05
6.5008e-05
7.12193e-05
7.69691e-05
8.22049e-05
8.69625e-05
9.12079e-05
9.50098e-05
9.83467e-05
0.00010129
0.000103828
0.000106023
0.000107871
0.00010942
0.00011067
0.000111655
0.000112376
0.000112855
0.00011309
4.12823e-05
6.17116e-05
6.84065e-05
7.45326e-05
8.00849e-05
8.50952e-05
8.95634e-05
9.35465e-05
9.70466e-05
0.000100124
0.000102784
0.000105079
0.000107016
0.000108637
0.000109949
0.000110984
0.000111743
0.000112248
0.000112496
3.85009e-05
5.9589e-05
6.65908e-05
7.29548e-05
7.87047e-05
8.38742e-05
8.84827e-05
9.25813e-05
9.61857e-05
9.93497e-05
0.000102087
0.000104447
0.00010644
0.000108107
0.000109457
0.00011052
0.000111301
0.000111819
0.000112075
3.68599e-05
5.9589e-05
6.65908e-05
7.29548e-05
7.87047e-05
8.38742e-05
8.84827e-05
9.25813e-05
9.61857e-05
9.93497e-05
0.000102087
0.000104447
0.00010644
0.000108107
0.000109457
0.00011052
0.000111301
0.000111819
0.000112075
)
;

boundaryField
{
    leftWall
    {
        type            calculated;
        value           uniform 0;
    }
    rightWall
    {
        type            calculated;
        value           uniform 0;
    }
    lowerWall
    {
        type            calculated;
        value           uniform 0;
    }
    atmosphere
    {
        type            calculated;
        value           uniform 0;
    }
    defaultFaces
    {
        type            empty;
    }
}


// ************************************************************************* //
