/*--------------------------------*- C++ -*----------------------------------*\
| =========                 |                                                 |
| \\      /  F ield         | OpenFOAM: The Open Source CFD Toolbox           |
|  \\    /   O peration     | Version:  2012                                  |
|   \\  /    A nd           | Website:  www.openfoam.com                      |
|    \\/     M anipulation  |                                                 |
\*---------------------------------------------------------------------------*/
FoamFile
{
    version     2.0;
    format      ascii;
    class       volScalarField;
    location    "0.1";
    object      rhogh;
}
// * * * * * * * * * * * * * * * * * * * * * * * * * * * * * * * * * * * * * //

dimensions      [1 -1 -2 0 0 0 0];


internalField   nonuniform List<scalar> 
2268
(
-29.4294
-29.4294
-29.4294
-29.4294
-29.4294
-29.4294
-29.4294
-29.4294
-29.4294
-29.4294
-29.4294
-29.4294
-29.4294
-29.4294
-29.4294
-29.4294
-29.4294
-29.4293
-29.4293
-19.8083
-2.17062
-0.00557183
-1.20904e-08
-88.2881
-88.2881
-88.2881
-88.2881
-88.2881
-88.2881
-88.2881
-88.2881
-88.2881
-88.2881
-88.2881
-88.2881
-88.2881
-88.2881
-88.2881
-88.2881
-88.2881
-88.1587
-72.0325
-27.426
-2.41357
-0.0145966
-3.56508e-08
-147.147
-147.147
-147.147
-147.147
-147.147
-147.147
-147.147
-147.147
-147.147
-147.147
-147.147
-147.147
-147.147
-147.147
-147.147
-147.147
-147.147
-134.443
-69.8407
-10.5764
-0.775301
-0.0136715
-3.05054e-07
-206.006
-206.006
-206.006
-206.006
-206.006
-206.006
-206.006
-206.006
-206.006
-206.006
-206.006
-206.006
-206.006
-206.006
-206.006
-206.006
-202.253
-135.831
-29.2617
-2.39801
-0.142323
-0.0052905
-2.07281e-06
-264.864
-264.864
-264.864
-264.864
-264.864
-264.864
-264.864
-264.864
-264.864
-264.864
-264.864
-264.864
-264.864
-264.864
-264.864
-264.864
-223.439
-78.1651
-7.26124
-0.338479
-0.0169041
-0.00135158
-3.36825e-06
-323.723
-323.723
-323.723
-323.723
-323.723
-323.723
-323.723
-323.723
-323.723
-323.723
-323.723
-323.723
-323.723
-323.723
-323.723
-317.714
-180.239
-22.2641
-1.0165
-0.0317517
-0.00140733
-0.000226023
-2.34187e-06
-382.582
-382.582
-382.582
-382.582
-382.582
-382.582
-382.582
-382.582
-382.582
-382.582
-382.582
-382.582
-382.582
-382.582
-382.582
-330.318
-97.8766
-5.45951
-0.0834903
-0.00148465
-6.53856e-05
-1.12666e-05
-9.35541e-07
-441.44
-441.44
-441.44
-441.44
-441.44
-441.44
-441.44
-441.44
-441.44
-441.44
-441.44
-441.44
-441.44
-441.44
-441.44
-296.942
-36.9191
-0.648391
-0.00352402
-7.18792e-05
-2.55036e-06
-4.53787e-07
-2.60163e-07
-6.56534e-34
-6.35463e-31
-1.296e-32
-1.69102e-34
-1.70236e-36
-1.58167e-38
-1.36194e-40
-1.16205e-42
-9.54473e-45
-7.33864e-47
-5.15139e-49
-3.22964e-51
-1.7627e-53
-8.16078e-56
-3.09791e-58
-9.23592e-61
-2.02212e-63
-2.8877e-66
-4.03499e-69
-3.43069e-31
-5.68564e-28
-1.18291e-29
-1.55547e-31
-1.58927e-33
-1.48971e-35
-1.29038e-37
-1.09841e-39
-8.93693e-42
-6.78301e-44
-4.69667e-46
-2.90954e-48
-1.57461e-50
-7.26067e-53
-2.75832e-55
-8.26792e-58
-1.82761e-60
-2.64643e-63
-1.88032e-66
-1.37438e-28
-1.35808e-25
-2.89524e-27
-3.86882e-29
-4.04193e-31
-3.85086e-33
-3.38473e-35
-2.901e-37
-2.35831e-39
-1.77891e-41
-1.22079e-43
-7.49482e-46
-4.02893e-48
-1.8526e-50
-7.05279e-53
-2.1292e-55
-4.76284e-58
-7.00758e-61
-5.07543e-64
-3.94121e-26
-1.71766e-23
-3.79126e-25
-5.2235e-27
-5.65348e-29
-5.53053e-31
-4.98975e-33
-4.33656e-35
-3.53186e-37
-2.64572e-39
-1.79203e-41
-1.08277e-43
-5.73088e-46
-2.60311e-48
-9.84142e-51
-2.96902e-53
-6.67818e-56
-9.93362e-59
-7.30499e-62
-6.33365e-24
-1.40017e-21
-3.24559e-23
-4.64908e-25
-5.21406e-27
-5.22365e-29
-4.83594e-31
-4.28288e-33
-3.52712e-35
-2.65718e-37
-1.80191e-39
-1.08715e-41
-5.74366e-44
-2.60921e-46
-9.90289e-49
-3.01309e-51
-6.86664e-54
-1.0388e-56
-7.79062e-60
-6.37206e-22
-7.9995e-20
-2.01082e-21
-3.04459e-23
-3.6119e-25
-3.76643e-27
-3.61905e-29
-3.2717e-31
-2.71691e-33
-2.0481e-35
-1.38222e-37
-8.26826e-40
-4.32168e-42
-1.94115e-44
-7.29188e-47
-2.20097e-49
-4.99145e-52
-7.54042e-55
-5.66609e-58
-1.07608e-19
-3.36487e-18
-9.18042e-20
-1.48723e-21
-1.85611e-23
-1.99789e-25
-1.98427e-27
-1.841e-29
-1.56162e-31
-1.20078e-33
-8.25254e-36
-5.01379e-38
-2.65099e-40
-1.19879e-42
-4.51427e-45
-1.36206e-47
-3.08552e-50
-4.66169e-53
-3.51243e-56
-2.3577e-16
-1.1044e-16
-3.05531e-18
-5.8483e-20
-7.99413e-22
-9.29542e-24
-9.92865e-26
-9.68195e-28
-8.47205e-30
-6.60953e-32
-4.54374e-34
-2.72667e-36
-1.40861e-38
-6.16661e-41
-2.23248e-43
-6.44976e-46
-1.3983e-48
-2.02792e-51
-1.47542e-54
-533.467
-533.467
-533.467
-533.467
-533.467
-533.467
-533.467
-533.467
-533.467
-533.467
-533.467
-533.467
-533.467
-533.467
-506.41
-196.49
-8.83546
-0.0284926
-3.90574e-05
-2.011e-06
-2.19315e-07
-1.41035e-07
-9.14478e-08
-658.662
-658.662
-658.662
-658.662
-658.662
-658.662
-658.662
-658.662
-658.662
-658.662
-658.662
-658.662
-658.662
-658.662
-460.779
-54.8403
-0.598471
-0.000969495
-2.23709e-06
-1.01181e-07
-6.71905e-08
-5.7991e-08
-3.01441e-08
-783.856
-783.856
-783.856
-783.856
-783.856
-783.856
-783.856
-783.856
-783.856
-783.856
-783.856
-783.856
-783.856
-767.174
-291.551
-9.04014
-0.0131455
-1.25884e-05
-2.75504e-07
-3.93595e-08
-2.02829e-08
-1.44691e-08
-6.32211e-09
-909.051
-909.051
-909.051
-909.051
-909.051
-909.051
-909.051
-909.051
-909.051
-909.051
-909.051
-909.051
-909.051
-761.993
-145.732
-1.63035
-0.000332358
-6.77371e-07
-4.24569e-08
-1.01058e-08
-4.46925e-09
-2.37508e-09
-8.73533e-10
-1034.25
-1034.25
-1034.25
-1034.25
-1034.25
-1034.25
-1034.25
-1034.25
-1034.25
-1034.25
-1034.25
-1034.25
-1034.25
-671.85
-52.3413
-0.146195
-4.73831e-06
-5.79341e-08
-7.01571e-09
-1.87321e-09
-7.30083e-10
-2.8395e-10
-8.74134e-11
-1159.44
-1159.44
-1159.44
-1159.44
-1159.44
-1159.44
-1159.44
-1159.44
-1159.44
-1159.44
-1159.44
-1159.44
-1159.44
-511.32
-15.5452
-0.0114314
-1.71911e-07
-5.89872e-09
-9.69171e-10
-2.6852e-10
-9.19874e-11
-2.70297e-11
-6.88931e-12
-1284.63
-1284.63
-1284.63
-1284.63
-1284.63
-1284.63
-1284.63
-1284.63
-1284.63
-1284.63
-1284.63
-1284.63
-1210.5
-365.674
-5.99764
-0.00117733
-1.36483e-08
-6.26628e-10
-1.18297e-10
-3.12054e-11
-9.3878e-12
-2.16864e-12
-4.58876e-13
-1409.83
-1409.83
-1409.83
-1409.83
-1409.83
-1409.83
-1409.83
-1409.83
-1409.83
-1409.83
-1409.83
-1409.83
-1219.07
-246.746
-1.98146
-9.83644e-05
-1.58661e-09
-6.56564e-11
-1.31419e-11
-3.02843e-12
-8.04054e-13
-1.50698e-13
-2.67694e-14
-1535.02
-1535.02
-1535.02
-1535.02
-1535.02
-1535.02
-1535.02
-1535.02
-1535.02
-1535.02
-1535.02
-1535.02
-1185.55
-148.278
-0.528386
-6.02184e-06
-1.63236e-10
-6.7109e-12
-1.37213e-12
-2.55935e-13
-6.0065e-14
-9.28741e-15
-1.40478e-15
-1660.22
-1660.22
-1660.22
-1660.22
-1660.22
-1660.22
-1660.22
-1660.22
-1660.22
-1660.22
-1660.22
-1660.22
-1099.86
-73.9962
-0.105208
-3.32041e-07
-3.90666e-14
-7.68089e-13
-1.46618e-13
-2.04967e-14
-4.08541e-15
-5.2245e-16
-6.77335e-17
-1785.41
-1785.41
-1785.41
-1785.41
-1785.41
-1785.41
-1785.41
-1785.41
-1785.41
-1785.41
-1785.41
-1785.41
-942.748
-27.6798
-0.0151215
-1.46822e-16
-4.20136e-14
-1.47767e-13
-1.93957e-14
-1.9065e-15
-2.79146e-16
-2.89535e-17
-3.14409e-18
-1910.61
-1910.61
-1910.61
-1910.61
-1910.61
-1910.61
-1910.61
-1910.61
-1910.61
-1910.61
-1910.61
-1910.61
-749.068
-12.7597
-0.00297437
-1.57117e-16
-1.15292e-13
-4.54191e-14
-3.33844e-15
-2.36033e-16
-2.17638e-17
-1.77858e-18
-1.52481e-19
-2035.8
-2035.8
-2035.8
-2035.8
-2035.8
-2035.8
-2035.8
-2035.8
-2035.8
-2035.8
-2035.8
-2035.8
-579.906
-5.57868
-0.000481075
-1.67412e-16
-1.31787e-13
-1.37709e-14
-6.11674e-16
-3.49814e-17
-2.0621e-18
-1.30324e-19
-8.40207e-21
-2161
-2161
-2161
-2161
-2161
-2160.99
-2160.99
-2160.99
-2160.99
-2160.96
-2160.81
-2158.89
-467.047
-3.33192
-6.2589e-05
-1.77708e-16
-7.10396e-14
-3.42253e-15
-1.00877e-16
-5.0916e-18
-2.11759e-19
-1.08907e-20
-5.18913e-22
-2282.59
-2282.24
-2281.75
-2280.44
-2279.08
-2275.71
-2272.52
-2264.15
-2256.81
-2227.19
-2176.49
-1971.66
-405.365
-4.70912
-1.88003e-16
-1.88003e-16
-1.44149e-14
-7.04633e-16
-1.44774e-17
-6.6875e-19
-2.09462e-20
-9.20805e-22
-3.38443e-23
-1918.57
-1900.54
-1876.96
-1820.44
-1771.21
-1667.97
-1591.12
-1427.1
-1321.29
-1027.95
-829.167
-521.437
-295.602
-21.9677
-0.00109684
-1.55957e-10
-5.80641e-18
-1.21901e-16
-1.8243e-18
-7.71447e-20
-1.89207e-21
-7.29025e-23
-2.15409e-24
-316.047
-301.54
-283.477
-243.208
-211.599
-152.988
-115.921
-49.7984
-15.9665
-1.9753e-19
-8.89515e-25
2.68347e-23
-29.6229
-44.9287
-0.465466
-1.90954e-06
-6.10802e-18
-1.41467e-17
-2.08782e-19
-7.81087e-21
-1.53983e-22
-5.23163e-24
-1.27847e-25
2.36016e-36
-9.00013e-35
-1.03132e-34
-8.37854e-33
1.50845e-32
4.18345e-30
-2.6299e-28
1.34047e-27
-9.99073e-27
-8.31819e-09
-1.12364e-06
-0.000549917
-0.000549937
-40.591
-2.35816
-2.10672e-15
-2.64339e-13
-1.36859e-18
-2.20182e-20
-6.91303e-22
-1.12646e-23
-3.34705e-25
-6.92789e-27
-3.98763e-17
-4.40798e-17
-4.22765e-16
-1.94645e-14
-6.61873e-13
-1.5971e-11
-2.71561e-10
-3.22555e-09
-2.42597e-08
-1.62415e-07
-3.36345e-05
-0.00255117
-0.639133
-12.5933
-0.0729973
-2.20585e-15
-1.38387e-13
-2.31185e-19
-2.10903e-21
-5.30574e-23
-7.33979e-25
-1.89028e-26
-3.38324e-28
-9.38887e-17
-1.03707e-16
-1.08944e-15
-4.84687e-14
-1.57505e-12
-3.6212e-11
-5.93271e-10
-6.71528e-09
-4.65644e-08
-3.10135e-07
-0.000108864
-0.00376591
-0.00690594
-0.00690512
-0.0787775
-5.34626e-15
-1.71104e-14
-5.79276e-20
-1.79778e-22
-3.42838e-24
-4.19817e-26
-9.26516e-28
-1.47336e-29
-6.69786e-17
-7.17481e-17
-6.56593e-16
-2.92501e-14
-9.72117e-13
-2.3604e-11
-4.26459e-10
-5.63188e-09
-4.68484e-08
-9.1492e-08
-2.62199e-16
-2.6206e-16
-0.0248135
-0.0862814
-0.0786437
-5.09031e-21
-1.16985e-15
-1.21436e-20
-1.34836e-23
-1.85054e-25
-2.06589e-27
-3.91361e-29
-5.65418e-31
-7.75407e-25
-1.15101e-22
-7.88798e-21
-3.18501e-19
-7.99147e-18
-1.20611e-16
-4.98194e-16
-2.73073e-16
-2.73081e-16
-2.73073e-16
-1.22051e-11
-8.0837e-11
-8.08221e-11
-0.000501824
-0.00392251
-5.31266e-21
-9.41883e-17
-1.89392e-21
-8.82773e-25
-8.32287e-27
-8.60971e-29
-1.41954e-30
-1.89268e-32
-1.66443e-25
-3.11248e-23
-2.76027e-21
-1.5493e-19
-6.17995e-18
-1.7335e-16
-3.43569e-15
-5.35972e-14
-6.8215e-13
-6.98976e-12
-5.50339e-11
-3.23134e-10
-7.91713e-10
-3.01119e-11
-7.04816e-08
-5.50994e-21
-2.94091e-17
-1.94554e-22
-5.02948e-26
-3.1197e-28
-3.02895e-30
-4.39027e-32
-5.49437e-34
-4.95677e-30
-1.6329e-27
-2.51366e-25
-2.38975e-23
-1.56093e-21
-7.38326e-20
-2.59818e-18
-6.88935e-17
-1.37824e-15
-2.07633e-14
-2.32774e-13
-1.93557e-12
-1.16468e-11
-3.12586e-11
-4.00047e-11
-3.56357e-15
-3.88179e-18
-1.29079e-23
-2.41363e-27
-9.73174e-30
-8.9523e-32
-1.14979e-33
-1.37484e-35
-1.9664e-33
-6.32418e-31
-9.4969e-29
-8.80086e-27
-5.59113e-25
-2.571e-23
-8.78504e-22
-2.26347e-20
-4.40924e-19
-6.47379e-18
-7.05016e-17
-5.53593e-16
-2.89338e-15
-5.39998e-15
-4.9561e-15
-4.6868e-16
-2.64447e-19
-5.68968e-25
-9.36508e-29
-2.54262e-31
-2.22868e-33
-2.54718e-35
-2.9653e-37
-6.31367e-39
-2.0851e-36
-3.27638e-34
-3.2432e-32
-2.25472e-30
-1.16498e-28
-4.6143e-27
-1.42818e-25
-3.48793e-24
-6.75956e-23
-1.03986e-21
-1.26923e-20
-1.21613e-19
-8.94858e-19
-4.74993e-18
-9.97554e-18
-9.29509e-21
-1.67522e-26
-2.80452e-30
-5.56003e-33
-4.67048e-35
-4.76311e-37
-5.50071e-39
-5.15693e-42
-1.73125e-39
-2.76985e-37
-2.80169e-35
-1.99955e-33
-1.06744e-31
-4.40072e-30
-1.43006e-28
-3.70187e-27
-7.67809e-26
-1.2776e-24
-1.69152e-23
-1.75339e-22
-1.38587e-21
-6.9902e-21
-1.11321e-20
-1.65617e-22
-3.27757e-28
-6.25818e-32
-1.01185e-34
-8.23476e-37
-7.5396e-39
-8.7851e-41
-2.3471e-47
-7.498e-45
-1.12688e-42
-1.05566e-40
-6.88145e-39
-3.30708e-37
-1.21136e-35
-3.45628e-34
-7.80066e-33
-1.4138e-31
-2.096e-30
-2.62811e-29
-2.93734e-28
-3.11544e-27
-3.21132e-26
-3.07015e-25
-1.36907e-24
-4.07765e-30
-1.00894e-33
-1.50297e-36
-1.21389e-38
-1.01323e-40
-1.2076e-42
-7.15048e-53
-3.06859e-50
-6.32679e-48
-8.33253e-46
-7.84968e-44
-5.62412e-42
-3.17896e-40
-1.45314e-38
-5.46892e-37
-1.71462e-35
-4.52832e-34
-1.01212e-32
-1.9228e-31
-3.09873e-30
-4.19157e-29
-4.58125e-28
-1.98819e-27
-3.07166e-32
-1.15424e-35
-1.78569e-38
-1.48548e-40
-1.16116e-42
-1.43043e-44
-4.97381e-58
-2.16951e-55
-4.51293e-53
-5.9462e-51
-5.55702e-49
-3.91011e-47
-2.14667e-45
-9.40021e-44
-3.32964e-42
-9.61243e-41
-2.26715e-39
-4.351e-38
-6.71051e-37
-8.11487e-36
-7.40833e-35
-3.87542e-34
-5.93153e-34
-1.19511e-34
-9.05883e-38
-1.65269e-40
-1.49244e-42
-1.13598e-44
-1.46032e-46
-5.3926e-68
-3.2548e-65
-9.51703e-63
-1.79537e-60
-2.45379e-58
-2.58878e-56
-2.19473e-54
-1.53659e-52
-9.08139e-51
-4.60121e-49
-2.02885e-47
-7.87048e-46
-2.71901e-44
-8.45515e-43
-2.39349e-41
-6.22773e-40
-1.49964e-38
-1.71134e-37
-4.71183e-40
-1.17098e-42
-1.22232e-44
-9.50054e-47
-1.28731e-48
-1.54283e-72
-1.01345e-69
-3.20336e-67
-6.48106e-65
-9.42028e-63
-1.04634e-60
-9.2303e-59
-6.63235e-57
-3.95424e-55
-1.98137e-53
-8.43128e-52
-3.06961e-50
-9.61901e-49
-2.61554e-47
-6.30927e-46
-1.434e-44
-3.23988e-43
-3.00998e-42
-1.49337e-42
-6.17622e-45
-8.06808e-47
-6.77287e-49
-9.80876e-51
-8.96501e-81
-7.51548e-78
-3.07351e-75
-8.17562e-73
-1.5919e-70
-2.42091e-68
-3.00001e-66
-3.11842e-64
-2.78409e-62
-2.17255e-60
-1.50619e-58
-9.39941e-57
-5.35223e-55
-2.81604e-53
-1.38626e-51
-6.45927e-50
-2.87916e-48
-1.23452e-46
-2.56991e-45
-2.38088e-47
-4.27158e-49
-4.11624e-51
-6.48404e-53
-3.28663e-85
-3.17202e-82
-1.49351e-79
-4.57564e-77
-1.02727e-74
-1.80392e-72
-2.58542e-70
-3.11494e-68
-3.2295e-66
-2.93405e-64
-2.37387e-62
-1.73429e-60
-1.15802e-58
-7.14857e-57
-4.12448e-55
-2.25364e-53
-1.18126e-51
-5.95082e-50
-1.39411e-48
-6.45902e-50
-1.79715e-51
-2.12566e-53
-3.72778e-55
-1.321e-90
-1.3801e-87
-6.9519e-85
-2.24806e-82
-5.24686e-80
-9.41763e-78
-1.355e-75
-1.60853e-73
-1.61481e-71
-1.40081e-69
-1.07534e-67
-7.5005e-66
-4.9087e-64
-3.13214e-62
-2.03475e-60
-1.38312e-58
-9.47033e-57
-5.69425e-55
-2.276e-53
-1.20635e-52
-6.00186e-54
-9.35033e-56
-1.87535e-57
-1.9014e-98
-2.88796e-95
-2.15111e-92
-1.05e-89
-3.79002e-87
-1.08166e-84
-2.55068e-82
-5.12443e-80
-8.98419e-78
-1.40013e-75
-1.97076e-73
-2.53961e-71
-3.03165e-69
-3.39069e-67
-3.58882e-65
-3.63361e-63
-3.55251e-61
-3.38116e-59
-3.13828e-57
-1.41576e-55
-1.58301e-56
-3.50647e-58
-8.30008e-60
-1.78753e-103
-3.46793e-100
-3.30308e-97
-2.06073e-94
-9.49128e-92
-3.44648e-89
-1.03041e-86
-2.61346e-84
-5.75877e-82
-1.12249e-79
-1.96689e-77
-3.1399e-75
-4.62555e-73
-6.36544e-71
-8.28387e-69
-1.03273e-66
-1.24873e-64
-1.47862e-62
-1.70962e-60
-9.418e-59
-3.31588e-59
-1.13042e-60
-3.26318e-62
-4.69058e-109
-1.14529e-105
-1.37406e-102
-1.08117e-99
-6.28944e-97
-2.88948e-94
-1.09452e-91
-3.52207e-89
-9.85315e-87
-2.4393e-84
-5.42399e-82
-1.09653e-79
-2.03559e-77
-3.50379e-75
-5.64974e-73
-8.66065e-71
-1.28268e-68
-1.84878e-66
-2.49023e-64
-2.66169e-62
-5.57033e-62
-3.15931e-63
-1.15077e-64
-5.04112e-116
-1.60816e-112
-2.52278e-109
-2.60156e-106
-1.99271e-103
-1.21311e-100
-6.13593e-98
-2.6567e-95
-1.00715e-92
-3.39718e-90
-1.03338e-87
-2.86663e-85
-7.34422e-83
-1.76478e-80
-4.05836e-78
-9.14373e-76
-2.05303e-73
-4.56757e-71
-9.56881e-69
-1.64922e-66
-7.60669e-65
-7.78488e-66
-3.69232e-67
-6.97565e-124
-3.48632e-120
-8.72456e-117
-1.46343e-113
-1.85612e-110
-1.90023e-107
-1.63641e-104
-1.21819e-101
-7.99643e-99
-4.69739e-96
-2.49978e-93
-1.21832e-90
-5.49447e-88
-2.31866e-85
-9.25449e-83
-3.53287e-80
-1.29994e-77
-4.63218e-75
-1.5974e-72
-5.3288e-70
-8.65575e-68
-1.72223e-68
-1.094e-69
-1.11721e-132
-1.22617e-128
-6.69952e-125
-2.42955e-121
-6.57499e-118
-1.41346e-114
-2.51349e-111
-3.79752e-108
-4.9786e-105
-5.75151e-102
-5.93892e-99
-5.54578e-96
-4.73885e-93
-3.74547e-90
-2.76799e-87
-1.93255e-84
-1.2862e-81
-8.22248e-79
-5.07126e-76
-3.01786e-73
-8.60056e-71
-3.50903e-71
-3.04863e-72
-1.77312e-144
-5.35296e-140
-8.13745e-136
-7.82376e-132
-5.40118e-128
-2.88864e-124
-1.26105e-120
-4.6725e-117
-1.51424e-113
-4.40007e-110
-1.16854e-106
-2.88362e-103
-6.69267e-100
-1.4781e-96
-3.13197e-93
-6.42466e-90
-1.28201e-86
-2.50029e-83
-4.76419e-80
-8.84643e-77
-7.88262e-74
-6.76074e-74
-8.12643e-75
-1.60027e-08
-1.21446e-09
-2.63959e-11
-5.89916e-13
-7.7149e-09
-1.55045e-09
-2.78241e-10
-4.11649e-11
-1.59361e-09
-4.5895e-10
-8.96678e-11
-1.35038e-11
-2.18635e-10
-5.76329e-11
-1.09111e-11
-1.57988e-12
-2.07366e-11
-5.12026e-12
-9.28692e-13
-1.28504e-13
-1.50259e-12
-3.47954e-13
-6.03876e-14
-8.02177e-15
-9.07966e-14
-1.96461e-14
-3.24198e-15
-4.13385e-16
-4.76674e-15
-9.62645e-16
-1.5073e-16
-1.84728e-17
-2.23798e-16
-4.20865e-17
-6.23277e-18
-7.3296e-19
-9.62135e-18
-1.68085e-18
-2.35058e-19
-2.64896e-20
-3.93098e-19
-6.31651e-20
-8.29497e-21
-8.91494e-22
-1.62768e-20
-2.34336e-21
-2.84929e-22
-2.89168e-23
-7.401e-22
-9.14158e-23
-1.00216e-23
-9.41436e-25
-3.72155e-23
-3.84508e-24
-3.71693e-25
-3.16199e-26
-2.01198e-24
-1.72672e-25
-1.44884e-26
-1.08993e-27
-1.08512e-25
-7.92441e-27
-5.83415e-28
-3.88994e-29
-5.52645e-27
-3.52259e-28
-2.31255e-29
-1.38222e-30
-2.57894e-28
-1.46474e-29
-8.6916e-31
-4.72095e-32
-1.08604e-29
-5.58273e-31
-3.02349e-32
-1.51035e-33
-4.0725e-31
-1.9227e-32
-9.56762e-34
-4.4457e-35
-1.35219e-32
-5.9311e-34
-2.7272e-35
-1.18955e-36
-3.95037e-34
-1.62477e-35
-6.9495e-37
-2.86912e-38
-1.01176e-35
-3.93341e-37
-1.57418e-38
-6.19578e-40
-2.25839e-37
-8.36327e-39
-3.15208e-40
-1.1914e-41
-4.39248e-39
-1.56092e-40
-5.57272e-42
-2.03624e-43
-7.4227e-41
-2.54928e-42
-8.67117e-44
-3.08344e-45
-1.09118e-42
-3.64577e-44
-1.18802e-45
-4.13674e-47
-1.39586e-44
-4.56366e-46
-1.43278e-47
-4.91356e-49
-1.55824e-46
-5.00806e-48
-1.52417e-49
-5.17405e-51
-1.5216e-48
-4.82484e-50
-1.4329e-51
-4.83638e-53
-1.30436e-50
-4.09349e-52
-1.19456e-53
-4.02418e-55
-9.84272e-53
-3.0677e-54
-8.86028e-56
-2.98972e-57
-6.56705e-55
-2.04069e-56
-5.87499e-58
-1.99264e-59
-3.88804e-57
-1.21053e-58
-3.49863e-60
-1.19726e-61
-2.05522e-59
-6.44724e-61
-1.88353e-62
-6.52866e-64
-9.7562e-62
-3.10344e-63
-9.2273e-65
-3.25284e-66
-4.19557e-64
-1.36238e-65
-4.1491e-67
-1.49358e-68
-1.64928e-66
-5.5044e-68
-1.72756e-69
-6.375e-71
-5.99782e-69
-2.07053e-70
-6.73302e-72
-2.55587e-73
-2.04336e-71
-7.338e-73
-2.48372e-74
-9.72686e-76
-6.61915e-74
-2.48396e-75
-8.78189e-77
-3.55569e-78
-2.06513e-76
-8.12224e-78
-3.00574e-79
-1.25948e-80
-9.34295e-14
-5.21211e-15
-1.55962e-16
-3.09323e-18
-4.41457e-20
-5.41961e-22
-5.94716e-24
-5.90819e-26
-5.24036e-28
-4.13656e-30
-2.86961e-32
-1.73205e-34
-8.95421e-37
-3.89609e-39
-1.39003e-41
-3.91988e-44
-8.21512e-47
-1.14187e-49
-7.91207e-53
-3.10546e-12
-1.32047e-13
-4.21441e-15
-9.88757e-17
-1.78225e-18
-2.57241e-20
-3.07435e-22
-3.09967e-24
-2.65944e-26
-1.95232e-28
-1.22418e-30
-6.53063e-33
-2.93376e-35
-1.09432e-37
-3.31087e-40
-7.84829e-43
-1.37328e-45
-1.5867e-48
-9.12533e-52
-9.96875e-13
-3.76863e-14
-9.80031e-16
-1.92723e-17
-3.05153e-19
-4.11033e-21
-4.70578e-23
-4.66392e-25
-3.97877e-27
-2.93612e-29
-1.85927e-31
-1.00653e-33
-4.60013e-36
-1.75134e-38
-5.42382e-41
-1.32102e-43
-2.38461e-46
-2.85484e-49
-1.70814e-52
-1.06689e-13
-3.91676e-15
-1.06801e-16
-2.29631e-18
-3.92635e-20
-5.5027e-22
-6.38866e-24
-6.24834e-26
-5.17896e-28
-3.66593e-30
-2.21473e-32
-1.14136e-34
-4.97754e-37
-1.81754e-39
-5.44133e-42
-1.29341e-44
-2.3022e-47
-2.7446e-50
-1.64868e-53
-8.04316e-15
-2.78009e-16
-7.21472e-18
-1.49425e-19
-2.47079e-21
-3.3944e-23
-3.87523e-25
-3.76019e-27
-3.09758e-29
-2.18946e-31
-1.32337e-33
-6.85163e-36
-3.01357e-38
-1.11601e-40
-3.40764e-43
-8.30751e-46
-1.52255e-48
-1.87184e-51
-1.15795e-54
-4.76146e-16
-1.59709e-17
-4.06401e-19
-8.39116e-21
-1.39034e-22
-1.92025e-24
-2.20359e-26
-2.1441e-28
-1.76861e-30
-1.25049e-32
-7.57176e-35
-3.93981e-37
-1.75043e-39
-6.58508e-42
-2.05255e-44
-5.12159e-47
-9.60336e-50
-1.20384e-52
-7.55198e-56
-2.34171e-17
-7.5586e-19
-1.85788e-20
-3.73935e-22
-6.05858e-24
-8.23305e-26
-9.32062e-28
-9.01142e-30
-7.42258e-32
-5.28631e-34
-3.24822e-36
-1.73056e-38
-7.92478e-41
-3.08685e-43
-9.96444e-46
-2.56595e-48
-4.93175e-51
-6.28399e-54
-3.97251e-57
-1.00672e-18
-3.14022e-20
-7.49075e-22
-1.47547e-23
-2.35096e-25
-3.16501e-27
-3.57021e-29
-3.46471e-31
-2.88679e-33
-2.09657e-35
-1.32345e-37
-7.28007e-40
-3.44659e-42
-1.38374e-44
-4.57336e-47
-1.19527e-49
-2.31028e-52
-2.93586e-55
-1.83859e-58
-3.84055e-20
-1.15164e-21
-2.65169e-23
-5.07993e-25
-7.9273e-27
-1.05508e-28
-1.18728e-30
-1.16218e-32
-9.86259e-35
-7.35984e-37
-4.79426e-39
-2.72197e-41
-1.32359e-43
-5.41612e-46
-1.80751e-48
-4.72773e-51
-9.07432e-54
-1.13811e-56
-7.00278e-60
-1.33627e-21
-3.85658e-23
-8.61557e-25
-1.6135e-26
-2.48734e-28
-3.30665e-30
-3.75904e-32
-3.75452e-34
-3.27307e-36
-2.5141e-38
-1.68053e-40
-9.72037e-43
-4.77074e-45
-1.95176e-47
-6.4576e-50
-1.66338e-52
-3.12877e-55
-3.83285e-58
-2.2991e-61
-4.32365e-23
-1.19856e-24
-2.60368e-26
-4.78581e-28
-7.33754e-30
-9.8099e-32
-1.13237e-33
-1.15432e-35
-1.027e-37
-8.01501e-40
-5.40108e-42
-3.12272e-44
-1.51927e-46
-6.1202e-49
-1.98352e-51
-4.98716e-54
-9.1355e-57
-1.08847e-59
-6.34727e-63
-1.34568e-24
-3.58989e-26
-7.64641e-28
-1.39078e-29
-2.138e-31
-2.88435e-33
-3.37181e-35
-3.47293e-37
-3.10416e-39
-2.41515e-41
-1.60958e-43
-9.142e-46
-4.34569e-48
-1.70419e-50
-5.36342e-53
-1.30785e-55
-2.32231e-58
-2.68256e-61
-1.51763e-64
-4.16891e-26
-1.06608e-27
-2.22727e-29
-4.00321e-31
-6.13798e-33
-8.26653e-35
-9.62842e-37
-9.82955e-39
-8.65168e-41
-6.59113e-43
-4.27903e-45
-2.36004e-47
-1.08671e-49
-4.1242e-52
-1.25546e-54
-2.96203e-57
-5.09187e-60
-5.69949e-63
-3.12837e-66
-1.31399e-27
-3.19551e-29
-6.50925e-31
-1.14537e-32
-1.728e-34
-2.28432e-36
-2.60243e-38
-2.58734e-40
-2.20816e-42
-1.62688e-44
-1.01906e-46
-5.41981e-49
-2.40542e-51
-8.80469e-54
-2.58677e-56
-5.89725e-59
-9.80809e-62
-1.06374e-64
-5.66663e-68
-4.15889e-29
-9.49125e-31
-1.85884e-32
-3.15054e-34
-4.59304e-36
-5.86021e-38
-6.42894e-40
-6.14914e-42
-5.03939e-44
-3.56673e-46
-2.14543e-48
-1.09718e-50
-4.68546e-53
-1.65305e-55
-4.68669e-58
-1.03292e-60
-1.66334e-63
-1.7497e-66
-9.05678e-70
-1.35845e-30
-2.77971e-32
-5.01313e-34
-8.08543e-36
-1.12466e-37
-1.37111e-39
-1.43567e-41
-1.31302e-43
-1.02844e-45
-6.97267e-48
-4.01986e-50
-1.97508e-52
-8.1129e-55
-2.7594e-57
-7.55365e-60
-1.61073e-62
-2.51388e-65
-2.56786e-68
-1.29315e-71
-4.42325e-32
-8.08334e-34
-1.33083e-35
-1.95435e-37
-2.48432e-39
-2.8779e-41
-2.86365e-43
-2.49995e-45
-1.86853e-47
-1.21351e-49
-6.70616e-52
-3.16856e-54
-1.25313e-56
-4.11475e-59
-1.08904e-61
-2.25034e-64
-3.40914e-67
-3.38689e-70
-1.66209e-73
-1.38956e-33
-2.27424e-35
-3.40486e-37
-4.55314e-39
-5.29454e-41
-5.63718e-43
-5.1469e-45
-4.25052e-47
-3.03189e-49
-1.88935e-51
-1.00194e-53
-4.56051e-56
-1.73916e-58
-5.52279e-61
-1.41553e-63
-2.8393e-66
-4.18209e-69
-4.04769e-72
-1.93864e-75
-4.10943e-35
-6.06751e-37
-8.25695e-39
-1.00929e-40
-1.07596e-42
-1.05612e-44
-8.88181e-47
-6.82873e-49
-4.52236e-51
-2.64679e-53
-1.34916e-55
-5.9309e-58
-2.185e-60
-6.72532e-63
-1.67241e-65
-3.26272e-68
-4.68066e-71
-4.42103e-74
-2.07038e-77
-1.12546e-36
-1.5137e-38
-1.87671e-40
-2.1091e-42
-2.06898e-44
-1.88099e-46
-1.46377e-48
-1.05172e-50
-6.49591e-53
-3.58155e-55
-1.71717e-57
-7.1528e-60
-2.50193e-62
-7.46917e-65
-1.80555e-67
-3.43321e-70
-4.80587e-73
-4.43792e-76
-2.03489e-79
-2.82114e-38
-3.49177e-40
-3.96396e-42
-4.12409e-44
-3.74225e-46
-3.16898e-48
-2.29416e-50
-1.54736e-52
-8.9564e-55
-4.66874e-57
-2.11426e-59
-8.37327e-62
-2.79097e-64
-7.99137e-67
-1.8553e-69
-3.40666e-72
-4.61915e-75
-4.15211e-78
-1.86001e-81
-6.43238e-40
-7.398e-42
-7.74165e-44
-7.50984e-46
-6.34237e-48
-5.03223e-50
-3.4088e-52
-2.16864e-54
-1.18223e-56
-5.84944e-59
-2.51264e-61
-9.49376e-64
-3.02619e-66
-8.32797e-69
-1.86163e-71
-3.30727e-74
-4.35116e-77
-3.81188e-80
-1.66968e-83
-1.32378e-41
-1.42946e-43
-1.39034e-45
-1.26724e-47
-1.00316e-49
-7.50499e-52
-4.78716e-54
-2.88725e-56
-1.49016e-58
-7.02821e-61
-2.87607e-63
-1.04041e-65
-3.18247e-68
-8.43763e-71
-1.82072e-73
-3.13553e-76
-4.00942e-79
-3.4271e-82
-1.46912e-85
-2.4494e-43
-2.50992e-45
-2.29023e-47
-1.97706e-49
-1.47793e-51
-1.04924e-53
-6.34322e-56
-3.64538e-58
-1.79064e-60
-8.08529e-63
-3.16567e-65
-1.10024e-67
-3.24066e-70
-8.29883e-73
-1.73298e-75
-2.89844e-78
-3.60808e-81
-3.01242e-84
-1.26499e-87
-4.05977e-45
-3.99041e-47
-3.44798e-49
-2.84287e-51
-2.02255e-53
-1.37175e-55
-7.91304e-58
-4.35613e-60
-2.04746e-62
-8.8905e-65
-3.34506e-67
-1.12094e-69
-3.19005e-72
-7.91156e-75
-1.6028e-77
-2.60837e-80
-3.16605e-83
-2.5849e-86
-1.06419e-89
-6.0124e-47
-5.73259e-49
-4.73805e-51
-3.76333e-53
-2.5687e-55
-1.67566e-57
-9.286e-60
-4.92276e-62
-2.22584e-64
-9.33586e-67
-3.39004e-69
-1.09916e-71
-3.03253e-74
-7.3029e-77
-1.43881e-79
-2.28255e-82
-2.70576e-85
-2.16265e-88
-8.73574e-92
-7.94957e-49
-7.43572e-51
-5.93755e-53
-4.58271e-55
-3.02462e-57
-1.91063e-59
-1.02401e-61
-5.25581e-64
-2.29835e-66
-9.35329e-69
-3.29188e-71
-1.03633e-73
-2.78112e-76
-6.5205e-79
-1.25234e-81
-1.94027e-84
-2.24965e-87
-1.76223e-90
-6.98901e-94
-9.37784e-51
-8.70362e-53
-6.78381e-55
-5.13272e-57
-3.30202e-59
-2.03362e-61
-1.06114e-63
-5.30143e-66
-2.25403e-68
-8.93887e-71
-3.06193e-73
-9.39152e-76
-2.45948e-78
-5.62851e-81
-1.05627e-83
-1.60106e-86
-1.81841e-89
-1.3975e-92
-5.44539e-96
-9.88131e-53
-9.20242e-55
-7.07227e-57
-5.29124e-59
-3.344e-61
-2.0213e-63
-1.03352e-65
-5.05257e-68
-2.09948e-70
-8.14815e-73
-2.72752e-75
-8.17812e-78
-2.09662e-80
-4.69519e-83
-8.62875e-86
-1.28184e-88
-1.42814e-91
-1.07795e-94
-4.12914e-98
-9.31418e-55
-8.79944e-57
-6.73627e-59
-5.02622e-61
-3.14487e-63
-1.87794e-65
-9.46931e-68
-4.55335e-70
-1.85848e-72
-7.08792e-75
-2.32772e-77
-6.84498e-80
-1.72309e-82
-3.78511e-85
-6.82683e-88
-9.95578e-91
-1.08961e-93
-8.08528e-97
-3.04637e-100
-7.87784e-57
-7.62797e-59
-5.87578e-61
-4.40822e-63
-2.75144e-65
-1.63338e-67
-8.17189e-70
-3.88441e-72
-1.56495e-74
-5.88813e-77
-1.90422e-79
-5.50908e-82
-1.36563e-84
-2.94954e-87
-5.23155e-90
-7.50154e-93
-8.07583e-96
-5.89666e-99
-2.1865e-102
-5.99926e-59
-6.0116e-61
-4.70676e-63
-3.57829e-65
-2.24451e-67
-1.33262e-69
-6.65432e-72
-3.14179e-74
-1.25528e-76
-4.67691e-79
-1.4948e-81
-4.26742e-84
-1.0445e-86
-2.223e-89
-3.88495e-92
-5.48563e-95
-5.81629e-98
-4.18254e-101
-1.52703e-104
-4.13289e-61
-4.32433e-63
-3.47538e-65
-2.69698e-67
-1.7122e-69
-1.0225e-71
-5.12439e-74
-2.41407e-76
-9.60791e-79
-3.5572e-81
-1.12739e-83
-3.18501e-86
-7.71674e-89
-1.62175e-91
-2.79759e-94
-3.89549e-97
-4.07263e-100
-2.88665e-103
-1.03815e-106
-2.58801e-63
-2.85177e-65
-2.37524e-67
-1.8944e-69
-1.22553e-71
-7.40052e-74
-3.74193e-76
-1.76635e-78
-7.03208e-81
-2.59563e-83
-8.18306e-86
-2.29379e-88
-5.51398e-91
-1.1465e-93
-1.95547e-96
-2.68869e-99
-2.77475e-102
-1.93991e-105
-6.87517e-109
-1.48231e-65
-1.73394e-67
-1.51015e-69
-1.24566e-71
-8.26338e-74
-5.07051e-76
-2.59914e-78
-1.23417e-80
-4.93377e-83
-1.82102e-85
-5.72719e-88
-1.59678e-90
-3.81647e-93
-7.86505e-96
-1.32836e-98
-1.80571e-101
-1.84134e-104
-1.27061e-107
-4.43927e-111
-7.81416e-68
-9.77822e-70
-8.97928e-72
-7.70468e-74
-5.27139e-76
-3.3016e-78
-1.72322e-80
-8.26019e-83
-3.32742e-85
-1.23139e-87
-3.87348e-90
-1.07656e-92
-2.56321e-95
-5.24394e-98
-8.78235e-101
-1.18158e-103
-1.19166e-106
-8.12078e-110
-2.79801e-113
-3.82111e-70
-5.15128e-72
-5.02448e-74
-4.50806e-76
-3.19734e-78
-2.05226e-80
-1.09483e-82
-5.31454e-85
-2.16387e-87
-8.04832e-90
-2.53797e-92
-7.04569e-95
-1.67384e-97
-3.40443e-100
-5.66058e-103
-7.54507e-106
-7.5319e-109
-5.0714e-112
-1.7237e-115
-1.74688e-72
-2.55373e-74
-2.66281e-76
-2.50968e-78
-1.85339e-80
-1.22346e-82
-6.69303e-85
-3.29912e-87
-1.36134e-89
-5.09948e-92
-1.61525e-94
-4.48679e-97
-1.0651e-99
-2.15637e-102
-3.56341e-105
-4.70977e-108
-4.65699e-111
-3.09956e-114
-1.03953e-117
-7.53678e-75
-1.20147e-76
-1.34638e-78
-1.33811e-80
-1.03268e-82
-7.03158e-85
-3.95512e-87
-1.9842e-89
-8.3158e-92
-3.14267e-94
-1.00151e-96
-2.78771e-99
-6.62023e-102
-1.33555e-104
-2.19538e-107
-2.87934e-110
-2.82172e-113
-1.85709e-116
-6.14721e-120
-3.09757e-77
-5.4098e-79
-6.54235e-81
-6.87773e-83
-5.56254e-85
-3.91623e-87
-2.26956e-89
-1.16095e-91
-4.95029e-94
-1.89e-96
-6.06767e-99
-1.69449e-101
-4.02934e-104
-8.10688e-107
-1.32655e-109
-1.72755e-112
-1.67874e-115
-1.09286e-118
-3.57115e-122
-1.22563e-79
-2.35301e-81
-3.07985e-83
-3.43229e-85
-2.91486e-87
-2.1256e-89
-1.27095e-91
-6.63778e-94
-2.88315e-96
-1.11318e-98
-3.60362e-101
-1.01059e-103
-2.40783e-106
-4.83461e-109
-7.87941e-112
-1.0194e-114
-9.82659e-118
-6.32933e-121
-2.04213e-124
-4.70081e-82
-9.93734e-84
-1.40957e-85
-1.66701e-87
-1.48786e-89
-1.12488e-91
-6.94375e-94
-3.70538e-96
-1.64054e-98
-6.40925e-101
-2.09327e-103
-5.89844e-106
-1.40867e-108
-2.82393e-111
-4.58574e-114
-5.8961e-117
-5.63966e-120
-3.59483e-123
-1.14544e-126
)
;

boundaryField
{
    leftWall
    {
        type            calculated;
        value           nonuniform List<scalar> 
50
(
-29.4294
-88.2881
-147.147
-206.006
-264.864
-323.723
-382.582
-441.44
-533.467
-658.662
-783.856
-909.051
-1034.25
-1159.44
-1284.63
-1409.83
-1535.02
-1660.22
-1785.41
-1910.61
-2035.8
-2161
-2282.59
-1918.57
-316.047
2.36016e-36
-3.98763e-17
-9.38887e-17
-6.69786e-17
-7.75407e-25
-1.66443e-25
-4.95677e-30
-1.9664e-33
-6.31367e-39
-5.15693e-42
-2.3471e-47
-7.15048e-53
-4.97381e-58
-5.3926e-68
-1.54283e-72
-8.96501e-81
-3.28663e-85
-1.321e-90
-1.9014e-98
-1.78753e-103
-4.69058e-109
-5.04112e-116
-6.97565e-124
-1.11721e-132
-1.77312e-144
)
;
    }
    rightWall
    {
        type            calculated;
        value           nonuniform List<scalar> 
50
(
-4.03499e-69
-1.88032e-66
-5.07543e-64
-7.30499e-62
-7.79062e-60
-5.66609e-58
-3.51243e-56
-1.47542e-54
-7.91207e-53
-9.12533e-52
-1.70814e-52
-1.64868e-53
-1.15795e-54
-7.55198e-56
-3.97251e-57
-1.83859e-58
-7.00278e-60
-2.2991e-61
-6.34727e-63
-1.51763e-64
-3.12837e-66
-5.66663e-68
-9.05678e-70
-1.29315e-71
-1.66209e-73
-1.93864e-75
-2.07038e-77
-2.03489e-79
-1.86001e-81
-1.66968e-83
-1.46912e-85
-1.26499e-87
-1.06419e-89
-8.73574e-92
-6.98901e-94
-5.44539e-96
-4.12914e-98
-3.04637e-100
-2.1865e-102
-1.52703e-104
-1.03815e-106
-6.87517e-109
-4.43927e-111
-2.79801e-113
-1.7237e-115
-1.03953e-117
-6.14721e-120
-3.57115e-122
-2.04213e-124
-1.14544e-126
)
;
    }
    lowerWall
    {