/*--------------------------------*- C++ -*----------------------------------*\
| =========                 |                                                 |
| \\      /  F ield         | OpenFOAM: The Open Source CFD Toolbox           |
|  \\    /   O peration     | Version:  2012                                  |
|   \\  /    A nd           | Website:  www.openfoam.com                      |
|    \\/     M anipulation  |                                                 |
\*---------------------------------------------------------------------------*/
FoamFile
{
    version     2.0;
    format      ascii;
    class       volVectorField;
    location    "0.1";
    object      U;
}
// * * * * * * * * * * * * * * * * * * * * * * * * * * * * * * * * * * * * * //

dimensions      [0 1 -1 0 0 0 0];


internalField   nonuniform List<vector> 
2268
(
(0.0300794 -0.0142694 0)
(0.0907072 -0.0143887 0)
(0.151823 -0.0146789 0)
(0.215014 -0.0150605 0)
(0.279194 -0.0156296 0)
(0.347443 -0.0163581 0)
(0.41748 -0.0172024 0)
(0.493308 -0.0184162 0)
(0.573149 -0.0195846 0)
(0.659425 -0.0214648 0)
(0.754616 -0.0230025 0)
(0.854876 -0.0245873 0)
(0.963858 -0.0276958 0)
(1.09089 -0.0333457 0)
(1.24308 -0.040296 0)
(1.42046 -0.0377353 0)
(1.5512 -0.0205558 0)
(1.599 -0.00571582 0)
(1.61546 -0.00306855 0)
(1.6368 -0.00776201 0)
(1.67039 -0.00625618 0)
(1.66553 0.0645255 0)
(0.825215 0.327255 0)
(0.0300208 -0.0428072 0)
(0.0905203 -0.0431648 0)
(0.15151 -0.0440365 0)
(0.214566 -0.0451794 0)
(0.278595 -0.0468926 0)
(0.346689 -0.0490795 0)
(0.416554 -0.0516215 0)
(0.492161 -0.0552876 0)
(0.571867 -0.0587703 0)
(0.657727 -0.0644366 0)
(0.752713 -0.0692714 0)
(0.853343 -0.0743612 0)
(0.962973 -0.083764 0)
(1.09032 -0.0986771 0)
(1.24056 -0.115588 0)
(1.39993 -0.107992 0)
(1.51676 -0.0637308 0)
(1.58359 -0.0247166 0)
(1.63013 -0.014808 0)
(1.67637 -0.0199048 0)
(1.70058 -0.000348063 0)
(1.62645 0.289945 0)
(0.619785 0.857638 0)
(0.0299089 -0.0712295 0)
(0.0901397 -0.0718218 0)
(0.150883 -0.0732699 0)
(0.213661 -0.0751648 0)
(0.27739 -0.0780065 0)
(0.345162 -0.0816401 0)
(0.414687 -0.0858397 0)
(0.489804 -0.0919502 0)
(0.569242 -0.0976773 0)
(0.654335 -0.107068 0)
(0.748766 -0.115351 0)
(0.849642 -0.124013 0)
(0.959752 -0.139595 0)
(1.08687 -0.164598 0)
(1.23799 -0.186625 0)
(1.37926 -0.168108 0)
(1.48259 -0.107217 0)
(1.56822 -0.0593947 0)
(1.6465 -0.0473092 0)
(1.70989 -0.0411067 0)
(1.70888 0.0166409 0)
(1.35134 0.611283 0)
(0.334211 1.3641 0)
(0.0297433 -0.0995353 0)
(0.089575 -0.100356 0)
(0.149956 -0.10238 0)
(0.212322 -0.105013 0)
(0.275615 -0.108976 0)
(0.342902 -0.114051 0)
(0.411956 -0.119868 0)
(0.486314 -0.128466 0)
(0.565368 -0.136381 0)
(0.649433 -0.149419 0)
(0.742867 -0.161481 0)
(0.843656 -0.174151 0)
(0.954039 -0.195781 0)
(1.0805 -0.230361 0)
(1.22936 -0.253864 0)
(1.35744 -0.223705 0)
(1.45821 -0.153278 0)
(1.56215 -0.1025 0)
(1.66476 -0.0822019 0)
(1.72517 -0.0484414 0)
(1.61531 0.166193 0)
(0.880708 0.969175 0)
(0.145385 1.67227 0)
(0.0295248 -0.12761 0)
(0.0888153 -0.128651 0)
(0.148717 -0.131245 0)
(0.210517 -0.134596 0)
(0.273237 -0.139651 0)
(0.339832 -0.146158 0)
(0.408273 -0.153501 0)
(0.481543 -0.164581 0)
(0.559995 -0.174616 0)
(0.642784 -0.191075 0)
(0.734646 -0.207035 0)
(0.834745 -0.223855 0)
(0.944756 -0.25141 0)
(1.06981 -0.294762 0)
(1.21358 -0.317461 0)
(1.33238 -0.276068 0)
(1.44154 -0.203921 0)
(1.56387 -0.158212 0)
(1.68602 -0.124562 0)
(1.70521 -0.0196224 0)
(1.31492 0.415217 0)
(0.535409 1.28946 0)
(0.0818395 1.82774 0)
(0.0292558 -0.155457 0)
(0.0878759 -0.156708 0)
(0.147195 -0.159863 0)
(0.208284 -0.16391 0)
(0.270327 -0.170026 0)
(0.336035 -0.177958 0)
(0.403777 -0.186732 0)
(0.475713 -0.200304 0)
(0.553333 -0.212451 0)
(0.634726 -0.232094 0)
(0.724644 -0.252123 0)
(0.823299 -0.273535 0)
(0.932588 -0.306827 0)
(1.05558 -0.357667 0)
(1.19154 -0.378068 0)
(1.30383 -0.331908 0)
(1.42649 -0.263897 0)
(1.57619 -0.219372 0)
(1.71064 -0.144764 0)
(1.56431 0.130692 0)
(0.949503 0.728491 0)
(0.322613 1.56974 0)
(0.0524148 1.96993 0)
(0.0289363 -0.182955 0)
(0.0867251 -0.184407 0)
(0.145353 -0.188109 0)
(0.205547 -0.192835 0)
(0.266792 -0.199954 0)
(0.331359 -0.209309 0)
(0.398244 -0.219397 0)
(0.468543 -0.23538 0)
(0.54496 -0.249624 0)
(0.624614 -0.272143 0)
(0.712301 -0.29603 0)
(0.808601 -0.322149 0)
(0.916025 -0.361055 0)
(1.037 -0.417149 0)
(1.16056 -0.434653 0)
(1.27145 -0.387246 0)
(1.409 -0.334299 0)
(1.5764 -0.291639 0)
(1.67781 -0.118417 0)
(1.35365 0.338347 0)
(0.738546 0.984197 0)
(0.249855 1.70619 0)
(0.0737166 1.99376 0)
(0.0285632 -0.210109 0)
(0.0853936 -0.211749 0)
(0.143231 -0.215979 0)
(0.202376 -0.221352 0)
(0.262758 -0.229414 0)
(0.325981 -0.240167 0)
(0.391963 -0.251455 0)
(0.460497 -0.269764 0)
(0.535541 -0.286083 0)
(0.613421 -0.311302 0)
(0.699039 -0.33899 0)
(0.792659 -0.369895 0)
(0.897945 -0.414802 0)
(1.01465 -0.4735 0)
(1.12514 -0.489187 0)
(1.23721 -0.450748 0)
(1.38759 -0.412578 0)
(1.55996 -0.339533 0)
(1.53086 -0.0298639 0)
(1.07642 0.57418 0)
(0.473804 1.26 0)
(0.250622 1.89822 0)
(0.087016 2.13586 0)
(-0.0295664 -0.00307974 0)
(0.0407806 -0.0141668 0)
(0.0793385 -0.00908092 0)
(0.109507 -0.00848775 0)
(0.137847 -0.00435117 0)
(0.139121 -0.00230215 0)
(0.148526 -0.000303809 0)
(0.137386 0.000722025 0)
(0.136106 0.00162287 0)
(0.120661 0.00215572 0)
(0.113332 0.0024569 0)
(0.0972864 0.00266517 0)
(0.0871792 0.00274501 0)
(0.0715911 0.00280817 0)
(0.0603155 0.00281349 0)
(0.0453325 0.00282117 0)
(0.0336088 0.00280867 0)
(0.019062 0.0028043 0)
(0.00719656 0.00279813 0)
(-0.0338013 -0.000618953 0)
(0.0382895 -0.032586 0)
(0.0812977 -0.0189771 0)
(0.111433 -0.0170984 0)
(0.140225 -0.00726538 0)
(0.140787 -0.00287364 0)
(0.15003 0.00175432 0)
(0.138227 0.00408106 0)
(0.136689 0.00596012 0)
(0.121015 0.00721058 0)
(0.113541 0.00777601 0)
(0.0974058 0.00825604 0)
(0.0872373 0.00836181 0)
(0.071617 0.00849336 0)
(0.0603213 0.00846018 0)
(0.0453313 0.00846844 0)
(0.0336033 0.00841837 0)
(0.0190586 0.00840334 0)
(0.0071943 0.00838257 0)
(-0.0428576 -0.00688745 0)
(0.0335338 -0.0647332 0)
(0.084654 -0.0404243 0)
(0.114861 -0.0348794 0)
(0.143491 -0.0165392 0)
(0.142857 -0.00747136 0)
(0.151818 0.0011832 0)
(0.139296 0.00573387 0)
(0.137361 0.00927051 0)
(0.12141 0.0115948 0)
(0.113755 0.0127262 0)
(0.0975275 0.0136106 0)
(0.0872818 0.0138638 0)
(0.0716313 0.0141139 0)
(0.060306 0.0140867 0)
(0.0453123 0.0141077 0)
(0.0335802 0.0140314 0)
(0.0190454 0.0140069 0)
(0.00718741 0.0139735 0)
(-0.0554572 0.00772993 0)
(0.026536 -0.086204 0)
(0.0897484 -0.0508648 0)
(0.121991 -0.0422462 0)
(0.151525 -0.017476 0)
(0.148 -0.00671022 0)
(0.155955 0.00431101 0)
(0.141908 0.00992895 0)
(0.13906 0.0141797 0)
(0.122454 0.0170207 0)
(0.114363 0.0182871 0)
(0.0978729 0.0193567 0)
(0.0874484 0.0195814 0)
(0.0717046 0.019862 0)
(0.0603193 0.0197714 0)
(0.0453048 0.0197749 0)
(0.0335607 0.0196492 0)
(0.0190331 0.0196068 0)
(0.00718004 0.0195555 0)
(-0.0774646 -0.000131869 0)
(0.0169376 -0.129441 0)
(0.0955622 -0.0826883 0)
(0.127988 -0.0631672 0)
(0.158379 -0.0279561 0)
(0.151737 -0.0107151 0)
(0.159235 0.00386081 0)
(0.143677 0.0120765 0)
(0.140208 0.0177232 0)
(0.123126 0.0216074 0)
(0.114713 0.0233392 0)
(0.0980587 0.0247749 0)
(0.0874966 0.0251124 0)
(0.0717038 0.0254914 0)
(0.0602717 0.0253943 0)
(0.0452575 0.025403 0)
(0.0335099 0.0252472 0)
(0.0190049 0.025193 0)
(0.00716564 0.0251281 0)
(-0.0946337 0.0426606 0)
(0.0154238 -0.158351 0)
(0.111157 -0.0936062 0)
(0.143821 -0.0685936 0)
(0.173498 -0.0251229 0)
(0.161348 -0.00708327 0)
(0.166097 0.00912442 0)
(0.148044 0.0178931 0)
(0.142918 0.0236781 0)
(0.124804 0.0277303 0)
(0.115664 0.0293677 0)
(0.0985987 0.0308216 0)
(0.0877506 0.0310265 0)
(0.0718118 0.0313602 0)
(0.0602834 0.0311507 0)
(0.0452374 0.0311077 0)
(0.033472 0.0308806 0)
(0.0189811 0.0307953 0)
(0.0071524 0.0307063 0)
(-0.0786484 0.0221957 0)
(0.0285825 -0.221342 0)
(0.133882 -0.140415 0)
(0.15375 -0.0923688 0)
(0.184296 -0.0363488 0)
(0.166266 -0.00925514 0)
(0.170042 0.0092938 0)
(0.150088 0.0209258 0)
(0.144223 0.0276255 0)
(0.125516 0.0326222 0)
(0.115991 0.0345631 0)
(0.0987352 0.0363196 0)
(0.087727 0.0365853 0)
(0.0717434 0.0369902 0)
(0.0601683 0.0367574 0)
(0.0451381 0.0367095 0)
(0.0333788 0.0364472 0)
(0.0189296 0.0363468 0)
(0.00712785 0.0362431 0)
(0.133262 0.0815967 0)
(0.120458 -0.248107 0)
(0.207702 -0.140353 0)
(0.188064 -0.089369 0)
(0.207748 -0.0272511 0)
(0.181301 -0.000807296 0)
(0.179212 0.0177237 0)
(0.156034 0.0289119 0)
(0.147703 0.0350376 0)
(0.127703 0.0397067 0)
(0.1172 0.0412509 0)
(0.0994241 0.0427892 0)
(0.0880387 0.0427793 0)
(0.0718694 0.0430302 0)
(0.0601682 0.0426161 0)
(0.0450993 0.0424678 0)
(0.0333192 0.042103 0)
(0.0188925 0.0419528 0)
(0.00710828 0.041816 0)
(0.0279513 -0.251858 0)
(0.0831385 -0.253783 0)
(0.139706 -0.258797 0)
(0.197012 -0.265185 0)
(0.256034 -0.274595 0)
(0.316942 -0.287545 0)
(0.381372 -0.300587 0)
(0.447038 -0.322293 0)
(0.519619 -0.341917 0)
(0.594087 -0.371077 0)
(0.676449 -0.40411 0)
(0.763886 -0.442309 0)
(0.86499 -0.494632 0)
(0.96867 -0.553557 0)
(1.06512 -0.568327 0)
(1.17725 -0.550827 0)
(1.31577 -0.527797 0)
(1.44105 -0.358328 0)
(1.14942 0.186898 0)
(0.658573 0.967732 0)
(0.470235 1.42078 0)
(0.483064 1.85709 0)
(0.881043 2.11103 0)
(0.0269301 -0.306699 0)
(0.0792097 -0.308983 0)
(0.13367 -0.314908 0)
(0.187716 -0.322599 0)
(0.244431 -0.33352 0)
(0.301415 -0.349245 0)
(0.362915 -0.3643 0)
(0.423912 -0.390009 0)
(0.492194 -0.413515 0)
(0.560341 -0.447655 0)
(0.637597 -0.485912 0)
(0.714121 -0.533556 0)
(0.808376 -0.591713 0)
(0.890409 -0.646558 0)
(0.979187 -0.672539 0)
(1.08591 -0.673288 0)
(1.20028 -0.625495 0)
(1.104 -0.140458 0)
(0.588696 0.659004 0)
(0.345189 1.13669 0)
(0.400346 1.37513 0)
(0.496958 1.5513 0)
(0.949578 1.63945 0)
(0.0257553 -0.358537 0)
(0.0746855 -0.361156 0)
(0.126732 -0.367777 0)
(0.177045 -0.37666 0)
(0.231056 -0.388756 0)
(0.283735 -0.40681 0)
(0.341521 -0.423577 0)
(0.397738 -0.452417 0)
(0.46051 -0.478917 0)
(0.522251 -0.517371 0)
(0.592188 -0.558623 0)
(0.65856 -0.613925 0)
(0.741311 -0.671969 0)
(0.803397 -0.7268 0)
(0.88952 -0.768126 0)
(0.968696 -0.773489 0)
(1.05719 -0.540037 0)
(0.599353 0.250185 0)
(0.295751 0.941426 0)
(0.256302 1.14988 0)
(0.366193 1.26115 0)
(0.513069 1.29074 0)
(0.886621 1.33268 0)
(0.0244369 -0.407637 0)
(0.0696671 -0.410556 0)
(0.118986 -0.417692 0)
(0.165277 -0.427591 0)
(0.216157 -0.440628 0)
(0.26441 -0.460399 0)
(0.317822 -0.478783 0)
(0.36946 -0.509677 0)
(0.425673 -0.538643 0)
(0.48198 -0.579907 0)
(0.542032 -0.623155 0)
(0.601742 -0.682916 0)
(0.667736 -0.738204 0)
(0.720027 -0.797829 0)
(0.794512 -0.839606 0)
(0.840122 -0.832426 0)
(0.836241 -0.254737 0)
(0.240878 0.631812 0)
(0.196616 0.998697 0)
(0.211742 1.07694 0)
(0.33628 1.11625 0)
(0.455812 1.04142 0)
(0.699574 1.04716 0)
(0.0229715 -0.453094 0)
(0.0642004 -0.456265 0)
(0.110494 -0.463767 0)
(0.152505 -0.474463 0)
(0.199925 -0.488273 0)
(0.24356 -0.509117 0)
(0.292306 -0.529091 0)
(0.339188 -0.560884 0)
(0.388536 -0.592055 0)
(0.439663 -0.634182 0)
(0.488998 -0.679415 0)
(0.544008 -0.739552 0)
(0.590583 -0.792804 0)
(0.641387 -0.85597 0)
(0.690728 -0.884742 0)
(0.718292 -0.821326 0)
(0.454861 0.0776835 0)
(0.0994456 0.883293 0)
(0.154614 0.967895 0)
(0.184499 1.00808 0)
(0.308911 1.00975 0)
(0.389267 0.924542 0)
(0.533202 0.893432 0)
(0.0214109 -0.495251 0)
(0.0585159 -0.49863 0)
(0.1016 -0.50635 0)
(0.139197 -0.517636 0)
(0.183028 -0.532014 0)
(0.221825 -0.553401 0)
(0.266087 -0.574759 0)
(0.307657 -0.606536 0)
(0.350959 -0.639492 0)
(0.396004 -0.680939 0)
(0.436507 -0.728067 0)
(0.485324 -0.784644 0)
(0.516545 -0.838438 0)
(0.565568 -0.898716 0)
(0.585704 -0.909565 0)
(0.610129 -0.611795 0)
(0.127079 0.37737 0)
(0.0754091 0.927821 0)
(0.106612 0.914029 0)
(0.160521 0.925906 0)
(0.254796 0.909213 0)
(0.319624 0.823007 0)
(0.405604 0.778725 0)
(0.0197266 -0.533385 0)
(0.0525463 -0.536933 0)
(0.0922158 -0.544729 0)
(0.125243 -0.556453 0)
(0.165447 -0.57116 0)
(0.199164 -0.592799 0)
(0.23936 -0.615159 0)
(0.274976 -0.646488 0)
(0.313522 -0.680542 0)
(0.351274 -0.720596 0)
(0.385876 -0.768766 0)
(0.426106 -0.820514 0)
(0.449567 -0.875357 0)
(0.490531 -0.924261 0)
(0.493662 -0.926816 0)
(0.515225 -0.358344 0)
(-0.032007 0.619434 0)
(0.0826738 0.901473 0)
(0.0711021 0.880569 0)
(0.14363 0.860089 0)
(0.209825 0.845573 0)
(0.266899 0.773586 0)
(0.321974 0.728557 0)
(0.0179844 -0.567894 0)
(0.0465914 -0.571595 0)
(0.0827436 -0.579319 0)
(0.111223 -0.591403 0)
(0.147792 -0.606133 0)
(0.176319 -0.6279 0)
(0.212774 -0.650659 0)
(0.242007 -0.681419 0)
(0.276889 -0.715653 0)
(0.30654 -0.754272 0)
(0.337871 -0.802434 0)
(0.367906 -0.849851 0)
(0.389139 -0.904329 0)
(0.41816 -0.939955 0)
(0.420518 -0.938412 0)
(0.398698 -0.0745571 0)
(-0.112328 0.803575 0)
(0.0759341 0.828369 0)
(0.0361777 0.849757 0)
(0.118263 0.790806 0)
(0.15733 0.783216 0)
(0.210254 0.714917 0)
(0.250724 0.670315 0)
(0.0161171 -0.598255 0)
(0.0404893 -0.602088 0)
(0.0729271 -0.609588 0)
(0.0968962 -0.621986 0)
(0.129783 -0.636448 0)
(0.153236 -0.658368 0)
(0.186126 -0.680958 0)
(0.209052 -0.711372 0)
(0.24088 -0.744963 0)
(0.262424 -0.782642 0)
(0.291988 -0.829559 0)
(0.311329 -0.873703 0)
(0.333654 -0.926196 0)
(0.349845 -0.950194 0)
(0.35976 -0.916858 0)
(0.177141 0.193021 0)
(-0.117202 0.933179 0)
(0.0340051 0.758309 0)
(0.0181025 0.833039 0)
(0.0844945 0.741379 0)
(0.119235 0.749161 0)
(0.161967 0.680797 0)
(0.19798 0.646633 0)
(0.0142155 -0.62477 0)
(0.0346107 -0.628747 0)
(0.0632563 -0.635911 0)
(0.0829606 -0.648626 0)
(0.112088 -0.662578 0)
(0.1307 -0.68463 0)
(0.159946 -0.706457 0)
(0.17688 -0.736658 0)
(0.205903 -0.768781 0)
(0.219757 -0.806138 0)
(0.248298 -0.850684 0)
(0.257216 -0.893422 0)
(0.282002 -0.942751 0)
(0.286939 -0.958647 0)
(0.300672 -0.788752 0)
(-0.124027 0.431341 0)
(-0.0743166 0.927355 0)
(-0.0466979 0.70205 0)
(0.0098677 0.792815 0)
(0.0362651 0.694099 0)
(0.0838842 0.702778 0)
(0.110078 0.639104 0)
(0.148618 0.607391 0)
(0.0121807 -0.647363 0)
(0.0287152 -0.651473 0)
(0.0533434 -0.658196 0)
(0.0690947 -0.671223 0)
(0.0942704 -0.684458 0)
(0.108593 -0.706697 0)
(0.133977 -0.727391 0)
(0.145885 -0.757903 0)
(0.171704 -0.787954 0)
(0.178842 -0.825772 0)
(0.205728 -0.866749 0)
(0.20447 -0.909207 0)
(0.2316 -0.955208 0)
(0.227607 -0.965449 0)
(0.231245 -0.511543 0)
(-0.290708 0.582315 0)
(-0.0123756 0.846592 0)
(-0.0975815 0.679787 0)
(0.010027 0.745574 0)
(0.00279881 0.66956 0)
(0.0571538 0.672412 0)
(0.0717803 0.616325 0)
(0.107357 0.588601 0)
(0.0101038 -0.66576 0)
(0.0231379 -0.67003 0)
(0.0435858 -0.67634 0)
(0.0558165 -0.689639 0)
(0.0766371 -0.702082 0)
(0.0872406 -0.724365 0)
(0.108198 -0.743696 0)
(0.116045 -0.774397 0)
(0.137659 -0.801616 0)
(0.13989 -0.840257 0)
(0.163573 -0.876104 0)
(0.15432 -0.920613 0)
(0.181219 -0.964601 0)
(0.171616 -0.9608 0)
(0.166876 -0.260105 0)
(-0.327917 0.674132 0)
(0.0141777 0.730779 0)
(-0.136757 0.683962 0)
(0.00165207 0.687823 0)
(-0.0404344 0.650426 0)
(0.0304219 0.631256 0)
(0.0277082 0.591019 0)
(0.069001 0.557847 0)
(0.00797274 -0.680986 0)
(0.0177805 -0.685347 0)
(0.0338473 -0.691276 0)
(0.0428942 -0.704684 0)
(0.0589549 -0.716333 0)
(0.0665398 -0.738691 0)
(0.0824739 -0.756682 0)
(0.0874261 -0.787791 0)
(0.103809 -0.812284 0)
(0.103364 -0.851973 0)
(0.1217 -0.881604 0)
(0.108525 -0.927746 0)
(0.131877 -0.970305 0)
(0.112687 -0.957341 0)
(0.091593 8.1125e-06 0)
(-0.29469 0.727513 0)
(-0.0092129 0.655159 0)
(-0.142392 0.692468 0)
(-0.023207 0.64766 0)
(-0.0606202 0.6412 0)
(-9.37959e-05 0.60313 0)
(-0.00171016 0.577256 0)
(0.0330671 0.539899 0)
(0.0057741 -0.691293 0)
(0.0126933 -0.695685 0)
(0.0242187 -0.701234 0)
(0.0303947 -0.714483 0)
(0.0416272 -0.725496 0)
(0.0466034 -0.74756 0)
(0.0575059 -0.764332 0)
(0.0604055 -0.795374 0)
(0.0719137 -0.817357 0)
(0.0711867 -0.857798 0)
(0.0859335 -0.881383 0)
(0.0757585 -0.931399 0)
(0.0960248 -0.96602 0)
(0.0542398 -0.925575 0)
(-0.00639224 0.157562 0)
(-0.228658 0.773808 0)
(-0.0495545 0.577293 0)
(-0.141218 0.701468 0)
(-0.0562862 0.602738 0)
(-0.0873205 0.630194 0)
(-0.0333894 0.570112 0)
(-0.0368228 0.559576 0)
(-0.00122285 0.514106 0)
(0.00399765 -0.700098 0)
(0.00874395 -0.704404 0)
(0.0164314 -0.709626 0)
(0.0205016 -0.722689 0)
(0.0276275 -0.733207 0)
(0.0308276 -0.755152 0)
(0.0374508 -0.771161 0)
(0.0393306 -0.802697 0)
(0.0466173 -0.823716 0)
(0.0471674 -0.866135 0)
(0.0592986 -0.886688 0)
(0.0588858 -0.937378 0)
(0.0910829 -0.946826 0)
(0.0132723 -0.858824 0)
(-0.0643076 0.285619 0)
(-0.115143 0.768528 0)
(-0.106695 0.566267 0)
(-0.120251 0.698558 0)
(-0.101516 0.593143 0)
(-0.0965663 0.617842 0)
(-0.0724432 0.552312 0)
(-0.0592713 0.544389 0)
(-0.0366073 0.497473 0)
(0.00260241 -0.703171 0)
(0.00568737 -0.707248 0)
(0.010846 -0.712137 0)
(0.0136446 -0.724738 0)
(0.0182585 -0.7349 0)
(0.0204665 -0.756312 0)
(0.0247342 -0.771777 0)
(0.0263581 -0.803281 0)
(0.0319685 -0.823995 0)
(0.034903 -0.869011 0)
(0.0510878 -0.892031 0)
(0.0811979 -0.961818 0)
(0.176065 -0.918339 0)
(0.0918027 -0.767262 0)
(0.016122 0.28823 0)
(0.020717 0.827649 0)
(-0.134516 0.577646 0)
(-0.119073 0.702138 0)
(-0.144586 0.575486 0)
(-0.122242 0.604008 0)
(-0.11092 0.530774 0)
(-0.0891503 0.525109 0)
(-0.0704138 0.475945 0)
(0.00198011 -0.708797 0)
(0.00485487 -0.713053 0)
(0.00943096 -0.718005 0)
(0.0125263 -0.730539 0)
(0.0169125 -0.740554 0)
(0.0202256 -0.762193 0)
(0.0251542 -0.777831 0)
(0.0326568 -0.810713 0)
(0.0418735 -0.833755 0)
(0.0906855 -0.890469 0)
(0.117301 -0.93734 0)
(0.142143 -1.06852 0)
(0.190419 -0.956508 0)
(0.185615 -0.690553 0)
(-0.0431036 0.325708 0)
(0.107499 0.933411 0)
(-0.200663 0.696702 0)
(-0.118768 0.710719 0)
(-0.197453 0.594715 0)
(-0.143759 0.584199 0)
(-0.15342 0.518912 0)
(-0.113643 0.503445 0)
(-0.104157 0.459107 0)
(-0.000604377 -0.711955 0)
(-0.00577914 -0.716525 0)
(-0.00921928 -0.721652 0)
(-0.0143494 -0.733929 0)
(-0.0214929 -0.744274 0)
(-0.0244226 -0.766056 0)
(-0.0356551 -0.785246 0)
(-0.0291142 -0.821854 0)
(-0.0343574 -0.880099 0)
(0.0103101 -0.942469 0)
(0.0464579 -0.939706 0)
(0.167551 -1.03471 0)
(0.117293 -0.957236 0)
(0.193112 -0.524773 0)
(-0.205797 0.349249 0)
(-0.137609 1.00773 0)
(-0.309208 0.791817 0)
(-0.21472 0.707426 0)
(-0.258678 0.595503 0)
(-0.195488 0.56272 0)
(-0.194633 0.498464 0)
(-0.148802 0.476847 0)
(-0.13539 0.436621 0)
(-0.0121267 -0.700428 0)
(-0.0363706 -0.703159 0)
(-0.0604081 -0.707416 0)
(-0.0832579 -0.717407 0)
(-0.112523 -0.728229 0)
(-0.131404 -0.747963 0)
(-0.170556 -0.771648 0)
(-0.172422 -0.812226 0)
(-0.227561 -0.875661 0)
(-0.18257 -0.973653 0)
(-0.246687 -1.09185 0)
(-0.0123789 -1.15421 0)
(-0.235169 -0.992984 0)
(-0.0494604 -0.374758 0)
(-0.749922 0.680174 0)
(-0.431932 1.02414 0)
(-0.50383 0.783658 0)
(-0.309602 0.658378 0)
(-0.340845 0.577042 0)
(-0.237496 0.519995 0)
(-0.23636 0.472405 0)
(-0.175865 0.444063 0)
(-0.162273 0.41297 0)
(-0.0153094 -0.663399 0)
(-0.0461597 -0.668601 0)
(-0.0764675 -0.673629 0)
(-0.107874 -0.683306 0)
(-0.141998 -0.693332 0)
(-0.176103 -0.711729 0)
(-0.219379 -0.737072 0)
(-0.26283 -0.77312 0)
(-0.327917 -0.854014 0)
(-0.413634 -0.937122 0)
(-0.544319 -1.08937 0)
(-0.730024 -1.06055 0)
(-0.962868 -0.873048 0)
(-1.18336 0.00495155 0)
(-1.17774 0.68771 0)
(-0.803218 0.783342 0)
(-0.63071 0.651089 0)
(-0.459808 0.551284 0)
(-0.395621 0.517072 0)
(-0.306315 0.460054 0)
(-0.270067 0.434268 0)
(-0.214345 0.403161 0)
(-0.187677 0.38434 0)
(-0.0135754 -0.638446 0)
(-0.0426572 -0.64178 0)
(-0.0745033 -0.645065 0)
(-0.104835 -0.651768 0)
(-0.144109 -0.659232 0)
(-0.175339 -0.670554 0)
(-0.230784 -0.684649 0)
(-0.268454 -0.702869 0)
(-0.363931 -0.727167 0)
(-0.452712 -0.754444 0)
(-0.663198 -0.777785 0)
(-0.884071 -0.735719 0)
(-1.17823 -0.563257 0)
(-1.30714 -0.145679 0)
(-1.08546 0.319609 0)
(-0.804887 0.469974 0)
(-0.611024 0.447633 0)
(-0.488604 0.420995 0)
(-0.396023 0.42611 0)
(-0.326871 0.393511 0)
(-0.275335 0.381214 0)
(-0.229684 0.361366 0)
(-0.196639 0.349199 0)
(-0.0161051 -0.606743 0)
(-0.0495663 -0.607849 0)
(-0.0844985 -0.610243 0)
(-0.120807 -0.614701 0)
(-0.161575 -0.620323 0)
(-0.204841 -0.627457 0)
(-0.256634 -0.63896 0)
(-0.31456 -0.644625 0)
(-0.387207 -0.661118 0)
(-0.476494 -0.644579 0)
(-0.595565 -0.647675 0)
(-0.743942 -0.553619 0)
(-0.907591 -0.433462 0)
(-1.00066 -0.0994525 0)
(-0.910899 0.17149 0)
(-0.728187 0.30009 0)
(-0.59591 0.329759 0)
(-0.496115 0.333968 0)
(-0.41442 0.352689 0)
(-0.34584 0.338416 0)
(-0.295457 0.335661 0)
(-0.249041 0.323827 0)
(-0.214161 0.317085 0)
(-0.0166987 -0.572388 0)
(-0.0489488 -0.573116 0)
(-0.0840948 -0.573327 0)
(-0.118344 -0.574541 0)
(-0.160524 -0.574656 0)
(-0.199878 -0.575343 0)
(-0.256602 -0.574549 0)
(-0.307176 -0.571613 0)
(-0.388486 -0.565024 0)
(-0.459018 -0.543924 0)
(-0.568808 -0.508543 0)
(-0.662205 -0.420942 0)
(-0.76985 -0.308911 0)
(-0.818689 -0.135968 0)
(-0.751433 0.0475354 0)
(-0.648038 0.155824 0)
(-0.551435 0.216211 0)
(-0.470579 0.239705 0)
(-0.403957 0.275798 0)
(-0.341089 0.274686 0)
(-0.294176 0.284313 0)
(-0.250447 0.280116 0)
(-0.216084 0.279982 0)
(-0.0163101 -0.540737 0)
(-0.049215 -0.540523 0)
(-0.0834203 -0.539948 0)
(-0.118504 -0.538815 0)
(-0.157037 -0.53709 0)
(-0.197008 -0.532614 0)
(-0.24356 -0.528752 0)
(-0.292592 -0.515061 0)
(-0.352607 -0.505009 0)
(-0.41561 -0.467876 0)
(-0.490199 -0.439941 0)
(-0.560687 -0.355996 0)
(-0.616347 -0.271095 0)
(-0.648697 -0.122011 0)
(-0.617733 0.00138154 0)
(-0.563272 0.0963907 0)
(-0.497144 0.151113 0)
(-0.437238 0.184746 0)
(-0.386543 0.221792 0)
(-0.331031 0.227795 0)
(-0.292048 0.244013 0)
(-0.250398 0.245177 0)
(-0.22003 0.249496 0)
(-0.016705 -0.506349 0)
(-0.0487658 -0.50556 0)
(-0.0835835 -0.503468 0)
(-0.117255 -0.500528 0)
(-0.15651 -0.495532 0)
(-0.193277 -0.488386 0)
(-0.239954 -0.478291 0)
(-0.281546 -0.461931 0)
(-0.337549 -0.441251 0)
(-0.384747 -0.40529 0)
(-0.445258 -0.362508 0)
(-0.492829 -0.293745 0)
(-0.533469 -0.221565 0)
(-0.553111 -0.132854 0)
(-0.530893 -0.0384562 0)
(-0.49654 0.0355611 0)
(-0.445983 0.0899402 0)
(-0.402976 0.12925 0)
(-0.360046 0.169106 0)
(-0.314429 0.180305 0)
(-0.280955 0.203253 0)
(-0.24321 0.208152 0)
(-0.215549 0.217595 0)
(-0.0154633 -0.475088 0)
(-0.0459692 -0.473716 0)
(-0.077869 -0.470935 0)
(-0.109841 -0.46624 0)
(-0.144659 -0.460071 0)
(-0.179509 -0.449901 0)
(-0.218872 -0.438849 0)
(-0.257571 -0.418662 0)
(-0.301425 -0.399491 0)
(-0.343028 -0.361663 0)
(-0.385301 -0.32932 0)
(-0.421811 -0.268976 0)
(-0.445258 -0.208287 0)
(-0.460868 -0.126291 0)
(-0.449899 -0.0544869 0)
(-0.430213 0.00983907 0)
(-0.396692 0.0572475 0)
(-0.366552 0.097893 0)
(-0.331151 0.132434 0)
(-0.294966 0.148286 0)
(-0.267125 0.172024 0)
(-0.233567 0.179494 0)
(-0.209913 0.191752 0)
(-0.0152773 -0.444344 0)
(-0.0444322 -0.442622 0)
(-0.0757065 -0.438995 0)
(-0.105585 -0.433275 0)
(-0.13901 -0.425254 0)
(-0.170133 -0.413763 0)
(-0.206637 -0.399622 0)
(-0.239008 -0.379004 0)
(-0.277778 -0.355246 0)
(-0.309845 -0.32109 0)
(-0.344514 -0.283392 0)
(-0.372595 -0.233718 0)
(-0.392313 -0.182809 0)
(-0.40306 -0.127885 0)
(-0.395021 -0.0693562 0)
(-0.381355 -0.0176735 0)
(-0.355836 0.0260575 0)
(-0.333066 0.0636824 0)
(-0.302755 0.0970459 0)
(-0.274758 0.116409 0)
(-0.249848 0.141307 0)
(-0.221524 0.151053 0)
(-0.200451 0.16607 0)
(-0.0138704 -0.415286 0)
(-0.0409096 -0.413317 0)
(-0.0691255 -0.40948 0)
(-0.0968308 -0.403085 0)
(-0.126307 -0.394922 0)
(-0.155037 -0.382561 0)
(-0.185844 -0.369007 0)
(-0.215327 -0.347945 0)
(-0.245837 -0.327365 0)
(-0.273966 -0.295377 0)
(-0.299689 -0.265151 0)
(-0.321631 -0.221385 0)
(-0.334582 -0.17662 0)
(-0.343499 -0.124126 0)
(-0.340244 -0.0757693 0)
(-0.331659 -0.0300245 0)
(-0.314832 0.00893314 0)
(-0.297996 0.044296 0)
(-0.274783 0.0737105 0)
(-0.252962 0.0951653 0)
(-0.231613 0.118222 0)
(-0.207931 0.130005 0)
(-0.189716 0.145575 0)
(-0.0131554 -0.389064 0)
(-0.0381429 -0.386891 0)
(-0.064741 -0.382576 0)
(-0.0899107 -0.375685 0)
(-0.117261 -0.366584 0)
(-0.142559 -0.353901 0)
(-0.170503 -0.338924 0)
(-0.195338 -0.318793 0)
(-0.222131 -0.296303 0)
(-0.245091 -0.267157 0)
(-0.266808 -0.235678 0)
(-0.284916 -0.19898 0)
(-0.296697 -0.16113 0)
(-0.30368 -0.122256 0)
(-0.301129 -0.0813616 0)
(-0.295197 -0.0431756 0)
(-0.282003 -0.0078071 0)
(-0.268423 0.0235425 0)
(-0.249282 0.0516727 0)
(-0.232032 0.0732852 0)
(-0.213063 0.0958128 0)
(-0.193732 0.109274 0)
(-0.177264 0.125583 0)
(-0.0118156 -0.363886 0)
(-0.0346985 -0.361686 0)
(-0.058426 -0.357492 0)
(-0.0814039 -0.350565 0)
(-0.105276 -0.341887 0)
(-0.128228 -0.329356 0)
(-0.151721 -0.315652 0)
(-0.173959 -0.296365 0)
(-0.195582 -0.27688 0)
(-0.215351 -0.250695 0)
(-0.232214 -0.224508 0)
(-0.246567 -0.191361 0)
(-0.255287 -0.157218 0)
(-0.261329 -0.119787 0)
(-0.260934 -0.0840004 0)
(-0.257211 -0.0493964 0)
(-0.248239 -0.0178364 0)
(-0.238047 0.0113279 0)
(-0.223718 0.0371053 0)
(-0.209911 0.0588085 0)
(-0.194411 0.0795532 0)
(-0.178458 0.0941644 0)
(-0.164234 0.109949 0)
(-0.0108447 -0.342176 0)
(-0.0314082 -0.339912 0)
(-0.0531283 -0.335511 0)
(-0.0735746 -0.328507 0)
(-0.0952556 -0.319441 0)
(-0.115281 -0.307195 0)
(-0.136327 -0.292939 0)
(-0.155271 -0.274774 0)
(-0.174192 -0.254771 0)
(-0.190851 -0.230509 0)
(-0.205593 -0.204523 0)
(-0.218004 -0.176055 0)
(-0.226107 -0.146527 0)
(-0.23123 -0.11669 0)
(-0.23097 -0.0856267 0)
(-0.228349 -0.0559429 0)
(-0.221243 -0.0271465 0)
(-0.213068 -0.0010511 0)
(-0.201313 0.0232905 0)
(-0.189962 0.0439791 0)
(-0.176599 0.0640356 0)
(-0.163474 0.0791626 0)
(-0.150759 0.0948998 0)
(-0.00960953 -0.321506 0)
(-0.0281479 -0.319301 0)
(-0.0472718 -0.315142 0)
(-0.0656273 -0.308358 0)
(-0.084372 -0.299918 0)
(-0.102217 -0.288209 0)
(-0.119962 -0.275308 0)
(-0.136594 -0.2584 0)
(-0.152187 -0.240861 0)
(-0.166395 -0.219132 0)
(-0.178117 -0.196861 0)
(-0.188086 -0.170628 0)
(-0.19449 -0.143622 0)
(-0.198979 -0.114864 0)
(-0.199691 -0.0867282 0)
(-0.198179 -0.0591876 0)
(-0.193356 -0.0331206 0)
(-0.187099 -0.00871162 0)
(-0.178331 0.0138746 0)
(-0.16918 0.0340048 0)
(-0.158534 0.052833 0)
(-0.147678 0.068277 0)
(-0.136981 0.0833797 0)
(-0.00856866 -0.304166 0)
(-0.024835 -0.30199 0)
(-0.0418761 -0.297792 0)
(-0.0579039 -0.291164 0)
(-0.0745542 -0.282644 0)
(-0.0899762 -0.271404 0)
(-0.105611 -0.258416 0)
(-0.119836 -0.24243 0)
(-0.133439 -0.224923 0)
(-0.145558 -0.204573 0)
(-0.155993 -0.182927 0)
(-0.164821 -0.15978 0)
(-0.170767 -0.135773 0)
(-0.17476 -0.111549 0)
(-0.175447 -0.0865525 0)
(-0.174457 -0.0623201 0)
(-0.170579 -0.0383657 0)
(-0.165645 -0.0161156 0)
(-0.158438 0.0051959 0)
(-0.150893 0.0241725 0)
(-0.141883 0.0423231 0)
(-0.132859 0.0576323 0)
(-0.123519 0.0724854 0)
(-0.00744973 -0.287957 0)
(-0.0217898 -0.285861 0)
(-0.0365299 -0.281906 0)
(-0.050602 -0.275562 0)
(-0.0648132 -0.267648 0)
(-0.0782569 -0.257031 0)
(-0.0913986 -0.245208 0)
(-0.103654 -0.230426 0)
(-0.114904 -0.214852 0)
(-0.125134 -0.196384 0)
(-0.133497 -0.177281 0)
(-0.140631 -0.155643 0)
(-0.145436 -0.133449 0)
(-0.148886 -0.110084 0)
(-0.149967 -0.086935 0)
(-0.149548 -0.0640509 0)
(-0.146985 -0.0419406 0)
(-0.143254 -0.0208981 0)
(-0.137858 -0.000964001 0)
(-0.131835 0.0173919 0)
(-0.124753 0.0346484 0)
(-0.117334 0.0498624 0)
(-0.10967 0.0642097 0)
(-0.0064189 -0.274778 0)
(-0.0186341 -0.27275 0)
(-0.0313477 -0.268842 0)
(-0.0433243 -0.262723 0)
(-0.0555957 -0.254875 0)
(-0.067003 -0.244683 0)
(-0.0783364 -0.23295 0)
(-0.0886978 -0.218844 0)
(-0.0984133 -0.203451 0)
(-0.107122 -0.18598 0)
(-0.114553 -0.167528 0)
(-0.120884 -0.147902 0)
(-0.125302 -0.127637 0)
(-0.128437 -0.107054 0)
(-0.129457 -0.0859936 0)
(-0.129303 -0.0653222 0)
(-0.12727 -0.0447631 0)
(-0.124364 -0.0252566 0)
(-0.119975 -0.00634174 0)
(-0.115084 0.0110601 0)
(-0.10919 0.0276903 0)
(-0.103077 0.042552 0)
(-0.096558 0.0566199 0)
(-0.00541489 -0.262748 0)
(-0.0158294 -0.260782 0)
(-0.0265124 -0.257055 0)
(-0.0366816 -0.251176 0)
(-0.0468966 -0.243802 0)
(-0.0565197 -0.234154 0)
(-0.0658524 -0.22333 0)
(-0.0745185 -0.210196 0)
(-0.0824215 -0.196219 0)
(-0.0895871 -0.180064 0)
(-0.0954792 -0.163299 0)
(-0.100542 -0.144718 0)
(-0.104083 -0.125736 0)
(-0.106714 -0.105831 0)
(-0.107831 -0.0860018 0)
(-0.107962 -0.0662105 0)
(-0.106706 -0.0468877 0)
(-0.1046 -0.0282114 0)
(-0.101389 -0.0103054 0)
(-0.0975896 0.00656869 0)
(-0.0930594 0.0225418 0)
(-0.0881558 0.0371849 0)
(-0.0829613 0.0508771 0)
(-0.00441525 -0.253478 0)
(-0.0128461 -0.251587 0)
(-0.0215944 -0.247939 0)
(-0.0298697 -0.242266 0)
(-0.0382962 -0.234998 0)
(-0.0461599 -0.225662 0)
(-0.0539085 -0.214943 0)
(-0.0610197 -0.202242 0)
(-0.0676623 -0.188425 0)
(-0.0736358 -0.172937 0)
(-0.0787464 -0.156668 0)
(-0.0831473 -0.139342 0)
(-0.0863365 -0.121564 0)
(-0.0887275 -0.10333 0)
(-0.0897766 -0.0848274 0)
(-0.0900522 -0.0664552 0)
(-0.0891223 -0.0481978 0)
(-0.0875545 -0.0305753 0)
(-0.0850217 -0.0134276 0)
(-0.0820485 0.00272942 0)
(-0.0784001 0.0181759 0)
(-0.0744957 0.0324517 0)
(-0.0702485 0.0458818 0)
(-0.00348583 -0.245322 0)
(-0.0101998 -0.243443 0)
(-0.0171033 -0.23987 0)
(-0.0236889 -0.234327 0)
(-0.030305 -0.227357 0)
(-0.0365434 -0.218401 0)
(-0.0425906 -0.208311 0)
(-0.0482084 -0.196295 0)
(-0.0533511 -0.183433 0)
(-0.0580128 -0.168823 0)
(-0.0619014 -0.153621 0)
(-0.0652642 -0.136985 0)
(-0.0677219 -0.120037 0)
(-0.0696462 -0.102304 0)
(-0.0706486 -0.0846247 0)
(-0.0710588 -0.0668328 0)
(-0.0706187 -0.0493886 0)
(-0.0696231 -0.0323179 0)
(-0.0679327 -0.0158528 0)
(-0.0657963 -7.87015e-05 0)
(-0.0631727 0.0149253 0)
(-0.0602308 0.0289972 0)
(-0.0570404 0.0421624 0)
(-0.00250624 -0.239822 0)
(-0.00731382 -0.237989 0)
(-0.0123347 -0.234477 0)
(-0.0171173 -0.22907 0)
(-0.0219995 -0.222171 0)
(-0.026596 -0.213379 0)
(-0.0311559 -0.20332 0)
(-0.0354078 -0.191498 0)
(-0.0394435 -0.178691 0)
(-0.0431472 -0.164425 0)
(-0.0464215 -0.149507 0)
(-0.04931 -0.133564 0)
(-0.0515098 -0.117266 0)
(-0.0532488 -0.100426 0)
(-0.0542046 -0.0834769 0)
(-0.0547014 -0.0664888 0)
(-0.0544754 -0.0496803 0)
(-0.0538428 -0.0332555 0)
(-0.0526239 -0.0172964 0)
(-0.0510969 -0.0020253 0)
(-0.0491733 0.0125658 0)
(-0.0470469 0.026319 0)
(-0.0446684 0.039258 0)
(-0.0016652 -0.23533 0)
(-0.00483266 -0.233448 0)
(-0.00804739 -0.229905 0)
(-0.0110929 -0.224513 0)