/*--------------------------------*- C++ -*----------------------------------*\
| =========                 |                                                 |
| \\      /  F ield         | OpenFOAM: The Open Source CFD Toolbox           |
|  \\    /   O peration     | Version:  2012                                  |
|   \\  /    A nd           | Website:  www.openfoam.com                      |
|    \\/     M anipulation  |                                                 |
\*---------------------------------------------------------------------------*/
FoamFile
{
    version     2.0;
    format      ascii;
    class       volScalarField;
    location    "0.1";
    object      volumeFraction1;
}
// * * * * * * * * * * * * * * * * * * * * * * * * * * * * * * * * * * * * * //

dimensions      [0 0 0 0 0 0 0];


internalField   nonuniform List<scalar> 
2268
(
1
1
1
1
1
1
1
1
1
1
1
1
1
1
1
1
1
0.999999
0.999999
0.673081
0.073757
0.000189329
4.10827e-10
1
1
1
1
1
1
1
1
1
1
1
1
1
1
1
1
1
0.998534
0.81588
0.310642
0.0273374
0.00016533
4.03801e-10
1
1
1
1
1
1
1
1
1
1
1
1
1
1
1
1
1
0.913664
0.474633
0.0718765
0.00526889
9.29105e-05
2.07313e-09
1
1
1
1
1
1
1
1
1
1
1
1
1
1
1
1
0.981786
0.659356
0.142043
0.0116405
0.000690869
2.56813e-05
1.00619e-08
1
1
1
1
1
1
1
1
1
1
1
1
1
1
1
1
0.843599
0.295114
0.027415
0.00127793
6.38217e-05
5.10292e-06
1.27169e-08
1
1
1
1
1
1
1
1
1
1
1
1
1
1
1
0.981437
0.556769
0.0687751
0.00314002
9.80828e-05
4.34731e-06
6.982e-07
7.23418e-09
1
1
1
1
1
1
1
1
1
1
1
1
1
1
1
0.863392
0.255832
0.0142702
0.000218229
3.88061e-06
1.70906e-07
2.94489e-08
2.44534e-09
1
1
1
1
1
1
1
1
1
1
1
1
1
1
1
0.672666
0.0836333
0.00146881
7.983e-06
1.62829e-07
5.77737e-09
1.02797e-09
5.8935e-10
2.23088e-35
2.15928e-32
4.40377e-34
5.74604e-36
5.78456e-38
5.37445e-40
4.62782e-42
3.94859e-44
3.24327e-46
2.49364e-48
1.75043e-50
1.09742e-52
5.9896e-55
2.77301e-57
1.05266e-59
3.13834e-62
6.87108e-65
9.81231e-68
1.37108e-70
3.88579e-33
6.43988e-30
1.33983e-31
1.76181e-33
1.80009e-35
1.68733e-37
1.46156e-39
1.24412e-41
1.01225e-43
7.68281e-46
5.3197e-48
3.29551e-50
1.78349e-52
8.22384e-55
3.12423e-57
9.3647e-60
2.07006e-62
2.99749e-65
2.12976e-68
9.34016e-31
9.22941e-28
1.96759e-29
2.62922e-31
2.74687e-33
2.61702e-35
2.30024e-37
1.9715e-39
1.60269e-41
1.20893e-43
8.2964e-46
5.09343e-48
2.73803e-50
1.25902e-52
4.79303e-55
1.44699e-57
3.2368e-60
4.76231e-63
3.44923e-66
1.91316e-28
8.33793e-26
1.84037e-27
2.53561e-29
2.74434e-31
2.68465e-33
2.42214e-35
2.10507e-37
1.71445e-39
1.2843e-41
8.69895e-44
5.25604e-46
2.78191e-48
1.26361e-50
4.77726e-53
1.44123e-55
3.24175e-58
4.82202e-61
3.54602e-64
2.39128e-26
5.28637e-24
1.22538e-25
1.75527e-27
1.96858e-29
1.9722e-31
1.82582e-33
1.61701e-35
1.33167e-37
1.00322e-39
6.80316e-42
4.10456e-44
2.16853e-46
9.85112e-49
3.73885e-51
1.1376e-53
2.59251e-56
3.922e-59
2.94136e-62
1.96837e-24
2.47109e-22
6.21154e-24
9.40491e-26
1.11574e-27
1.16347e-29
1.11795e-31
1.01065e-33
8.39271e-36
6.32671e-38
4.26977e-40
2.55412e-42
1.33499e-44
5.99634e-47
2.25251e-49
6.79892e-52
1.54189e-54
2.32928e-57
1.75029e-60
2.81267e-22
8.79518e-21
2.3996e-22
3.88736e-24
4.85153e-26
5.22214e-28
5.18653e-30
4.81204e-32
4.08181e-34
3.13862e-36
2.15707e-38
1.31051e-40
6.9292e-43
3.13343e-45
1.17995e-47
3.56017e-50
8.06499e-53
1.21848e-55
9.18087e-59
5.34092e-19
2.5018e-19
6.92122e-21
1.32482e-22
1.81092e-24
2.1057e-26
2.24915e-28
2.19326e-30
1.91918e-32
1.49726e-34
1.0293e-36
6.17675e-39
3.19094e-41
1.39693e-43
5.05726e-46
1.46107e-48
3.16758e-51
4.59386e-54
3.34228e-57
1
1
1
1
1
1
1
1
1
1
1
1
1
1
0.949281
0.368326
0.0165623
5.34103e-05
7.32142e-08
3.76968e-09
4.11113e-10
2.64374e-10
1.71422e-10
1
1
1
1
1
1
1
1
1
1
1
1
1
1
0.699569
0.0832602
0.000908617
1.47192e-06
3.39642e-09
1.53616e-10
1.02011e-10
8.80437e-11
4.57657e-11
1
1
1
1
1
1
1
1
1
1
1
1
1
0.978718
0.371944
0.0115329
1.67703e-05
1.60596e-08
3.51473e-10
5.02127e-11
2.58758e-11
1.84589e-11
8.0654e-12
1
1
1
1
1
1
1
1
1
1
1
1
1
0.83823
0.160312
0.00179346
3.6561e-07
7.45141e-10
4.67047e-11
1.11168e-11
4.9164e-12
2.61271e-12
9.60929e-13
1
1
1
1
1
1
1
1
1
1
1
1
1
0.649604
0.0506082
0.000141354
4.58142e-09
5.60158e-11
6.78341e-12
1.81119e-12
7.05909e-13
2.74548e-13
8.4519e-14
1
1
1
1
1
1
1
1
1
1
1
1
1
0.441006
0.0134075
9.85945e-06
1.48271e-10
5.08756e-12
8.35896e-13
2.31595e-13
7.93378e-14
2.33127e-14
5.94193e-15
1
1
1
1
1
1
1
1
1
1
1
1
0.942293
0.284652
0.00466875
9.16468e-07
1.06242e-11
4.87787e-13
9.20864e-14
2.42912e-14
7.30776e-15
1.68814e-15
3.57204e-16
1
1
1
1
1
1
1
1
1
1
1
1
0.864694
0.175018
0.00140546
6.97705e-08
1.12539e-12
4.65705e-14
9.32164e-15
2.14808e-15
5.7032e-16
1.06891e-16
1.89877e-17
1
1
1
1
1
1
1
1
1
1
1
1
0.772336
0.0965964
0.00034422
3.92297e-09
1.06341e-13
4.37186e-15
8.93879e-16
1.66731e-16
3.91297e-17
6.05034e-18
9.15153e-19
1
1
1
1
1
1
1
1
1
1
1
1
0.662477
0.0445702
6.33697e-05
1.99999e-10
2.3531e-17
4.62644e-16
8.83124e-17
1.23458e-17
2.46077e-18
3.14687e-19
4.07979e-20
1
1
1
1
1
1
1
1
1
1
1
1
0.528028
0.0155033
8.46946e-06
8.22341e-20
2.35316e-17
8.27636e-17
1.08634e-17
1.06782e-18
1.56348e-19
1.62167e-20
1.76099e-21
1
1
1
1
1
1
1
1
1
1
1
1
0.392057
0.00667833
1.55677e-06
8.22341e-20
6.03433e-17
2.37721e-17
1.74732e-18
1.23538e-19
1.1391e-20
9.30896e-22
7.98077e-23
1
1
1
1
1
1
1
1
1
1
1
1
0.284854
0.00274029
2.36307e-07
8.22341e-20
6.47347e-17
6.76436e-18
3.00459e-19
1.71831e-20
1.01292e-21
6.40163e-23
4.12716e-24
1
1
1
1
1
1
0.999999
0.999998
0.999995
0.999981
0.999912
0.999026
0.216126
0.00154185
2.8963e-08
8.22341e-20
3.28736e-17
1.58377e-18
4.66808e-20
2.35613e-21
9.79915e-23
5.03968e-24
2.40127e-25
0.998426
0.998274
0.998057
0.997483
0.996888
0.995416
0.99402
0.990361
0.987149
0.974191
0.952017
0.86242
0.17731
0.00205981
8.22341e-20
8.22341e-20
6.30522e-18
3.08213e-19
6.33254e-21
2.92517e-22
9.16207e-24
4.02768e-25
1.48038e-26
0.795632
0.788153
0.778376
0.754936
0.734518
0.691707
0.659835
0.591818
0.54794
0.426289
0.343855
0.21624
0.122586
0.00910997
4.54859e-07
6.46751e-14
2.40792e-21
5.05523e-20
7.56535e-22
3.19919e-23
7.8464e-25
3.02326e-26
8.933e-28
0.124596
0.118877
0.111755
0.0958804
0.0834188
0.0603126
0.0456996
0.0196321
0.00629451
7.78726e-23
3.50675e-28
-1.05791e-26
0.0116783
0.0177123
0.000183501
7.528e-10
2.40798e-21
5.57709e-21
8.23086e-23
3.07929e-24
6.07051e-26
2.06247e-27
5.04014e-29
-8.86686e-40
3.38125e-38
3.87456e-38
3.14773e-36
-5.6671e-36
-1.57168e-33
9.88024e-32
-5.03602e-31
3.75341e-30
3.12505e-12
4.2214e-10
2.06598e-07
2.06605e-07
0.0152496
0.000885936
7.91471e-19
9.93092e-17
5.14163e-22
8.27201e-24
2.59715e-25
4.232e-27
1.25745e-28
2.60273e-30
1.43081e-20
1.58164e-20
1.51693e-19
6.98412e-18
2.37488e-16
5.73061e-15
9.74395e-14
1.15737e-12
8.7047e-12
5.82766e-11
1.20685e-08
9.15393e-07
0.000229329
0.00451865
2.61924e-05
7.91486e-19
4.96551e-17
8.29521e-23
7.56746e-25
1.90377e-26
2.63361e-28
6.78256e-30
1.21395e-31
3.22402e-20
3.56115e-20
3.74101e-19
1.66436e-17
5.40854e-16
1.24348e-14
2.03722e-13
2.30594e-12
1.59896e-11
1.06496e-10
3.73824e-08
1.29317e-06
2.37141e-06
2.37113e-06
2.70512e-05
1.83584e-18
5.87551e-18
1.98916e-23
6.17334e-26
1.17726e-27
1.4416e-29
3.18154e-31
5.05932e-33
2.20516e-20
2.36219e-20
2.16173e-19
9.63011e-18
3.20054e-16
7.77124e-15
1.40405e-13
1.8542e-12
1.54241e-11
3.01222e-11
8.63247e-20
8.62791e-20
8.16943e-06
2.84067e-05
2.58921e-05
1.6759e-24
3.85153e-19
3.99808e-24
4.43925e-27
6.09259e-29
6.8016e-31
1.28849e-32
1.86155e-34
2.45184e-28
3.6395e-26
2.49418e-24
1.0071e-22
2.52691e-21
3.81373e-20
1.57529e-19
8.63457e-20
8.63483e-20
8.63457e-20
3.85925e-15
2.55607e-14
2.5556e-14
1.58677e-07
1.2403e-06
1.67986e-24
2.97824e-20
5.98857e-25
2.79133e-28
2.63169e-30
2.72239e-32
4.4886e-34
5.98466e-36
5.06253e-29
9.46691e-27
8.39561e-25
4.71233e-23
1.87969e-21
5.27261e-20
1.045e-18
1.63021e-17
2.07483e-16
2.126e-15
1.67391e-14
9.82843e-14
2.40807e-13
9.15882e-15
2.14377e-11
1.6759e-24
8.94506e-21
5.91754e-26
1.52977e-29
9.48886e-32
9.21284e-34
1.33534e-35
1.67117e-37
1.45235e-33
4.78444e-31
7.36507e-29
7.00204e-27
4.57355e-25
2.16331e-23
7.61273e-22
2.0186e-20
4.03828e-19
6.08369e-18
6.82033e-17
5.67127e-16
3.41254e-15
9.15886e-15
1.17215e-14
1.04414e-18
1.13738e-21
3.78205e-27
7.07199e-31
2.85142e-33
2.62305e-35
3.3689e-37
4.02831e-39
5.55774e-37
1.78743e-34
2.68415e-32
2.48743e-30
1.58025e-28
7.26655e-27
2.48296e-25
6.39735e-24
1.2462e-22
1.82972e-21
1.99262e-20
1.56465e-19
8.1777e-19
1.52622e-18
1.40076e-18
1.32465e-19
7.4742e-23
1.6081e-28
2.6469e-32
7.18634e-35
6.29901e-37
7.19921e-39
8.38097e-41
1.72348e-42
5.69182e-40
8.94373e-38
8.85314e-36
6.15484e-34
3.18011e-32
1.25959e-30
3.89859e-29
9.5212e-28
1.8452e-26
2.83856e-25
3.46469e-24
3.31974e-23
2.44274e-22
1.29662e-21
2.72308e-21
2.53733e-24
4.57295e-30
7.65565e-34
1.51775e-36
1.27493e-38
1.30021e-40
1.50156e-42
1.3612e-45
4.56972e-43
7.31116e-41
7.39521e-39
5.27792e-37
2.81757e-35
1.16159e-33
3.77472e-32
9.77127e-31
2.02667e-29
3.37228e-28
4.46486e-27
4.62817e-26
3.65807e-25
1.8451e-24
2.93838e-24
4.37155e-26
8.6513e-32
1.65188e-35
2.67083e-38
2.17361e-40
1.99011e-42
2.31887e-44
5.99711e-51
1.91583e-48
2.87931e-46
2.69734e-44
1.75829e-42
8.44996e-41
3.09516e-39
8.83118e-38
1.99316e-36
3.61241e-35
5.35552e-34
6.71512e-33
7.50524e-32
7.96032e-31
8.20528e-30
7.84458e-29
3.49814e-28
1.04189e-33
2.57797e-37
3.84025e-40
3.10164e-42
2.58892e-44
3.08554e-46
1.7704e-56
7.59756e-54
1.56646e-51
2.06306e-49
1.94351e-47
1.39248e-45
7.87083e-44
3.59786e-42
1.35406e-40
4.24524e-39
1.12117e-37
2.50592e-36
4.76068e-35
7.67219e-34
1.0378e-32
1.13428e-31
4.92258e-31
7.60516e-36
2.8578e-39
4.42122e-42
3.67792e-44
2.87493e-46
3.54162e-48
1.19445e-61
5.21003e-59
1.08377e-56
1.42796e-54
1.33451e-52
9.39003e-51
5.15516e-49
2.25744e-47
7.99604e-46
2.3084e-44
5.44451e-43
1.04488e-41
1.61151e-40
1.94877e-39
1.77909e-38
9.30671e-38
1.42444e-37
2.87002e-38
2.17545e-41
3.9689e-44
3.58406e-46
2.72803e-48
3.50692e-50
1.25722e-71
7.58818e-69
2.21878e-66
4.18568e-64
5.72072e-62
6.03544e-60
5.11676e-58
3.58238e-56
2.11722e-54
1.07272e-52
4.73001e-51
1.83491e-49
6.33906e-48
1.97122e-46
5.58013e-45
1.45192e-43
3.49622e-42
3.9898e-41
1.09851e-43
2.73001e-46
2.8497e-48
2.21494e-50
3.00121e-52
3.49492e-76
2.29573e-73
7.25646e-71
1.46813e-68
2.13394e-66
2.37023e-64
2.09091e-62
1.5024e-60
8.95739e-59
4.48832e-57
1.90991e-55
6.95348e-54
2.17896e-52
5.92489e-51
1.42922e-49
3.24839e-48
7.33918e-47
6.81841e-46
3.38287e-46
1.39908e-48
1.82763e-50
1.53423e-52
2.22194e-54
1.97481e-84
1.6555e-81
6.77032e-79
1.80092e-76
3.50663e-74
5.33276e-72
6.60839e-70
6.86923e-68
6.13278e-66
4.78568e-64
3.31782e-62
2.0705e-60
1.17899e-58
6.20314e-57
3.05365e-55
1.42284e-53
6.34219e-52
2.71939e-50
5.66099e-49
5.24458e-51
9.4094e-53
9.06722e-55
1.4283e-56
7.04546e-89
6.79978e-86
3.20161e-83
9.80868e-81
2.20212e-78
3.86701e-76
5.5423e-74
6.67742e-72
6.923e-70
6.28964e-68
5.08881e-66
3.71776e-64
2.48241e-62
1.53242e-60
8.84154e-59
4.83107e-57
2.53224e-55
1.27566e-53
2.98853e-52
1.3846e-53
3.8525e-55
4.55672e-57
7.99116e-59
2.75779e-94
2.88116e-91
1.45131e-88
4.69315e-86
1.09536e-83
1.96607e-81
2.82876e-79
3.35804e-77
3.37115e-75
2.9244e-73
2.24492e-71
1.56584e-69
1.02476e-67
6.5388e-66
4.24783e-64
2.88747e-62
1.97707e-60
1.18876e-58
4.75148e-57
2.51843e-56
1.25298e-57
1.95202e-59
3.91507e-61
3.86834e-102
5.87548e-99
4.37638e-96
2.1362e-93
7.7107e-91
2.2006e-88
5.18929e-86
1.04255e-83
1.82781e-81
2.84852e-79
4.00945e-77
5.16678e-75
6.16782e-73
6.89827e-71
7.30135e-69
7.39248e-67
7.22748e-65
6.87889e-63
6.38475e-61
2.88034e-59
3.2206e-60
7.13382e-62
1.68863e-63
3.54635e-107
6.88017e-104
6.55311e-101
4.08838e-98
1.88302e-95
6.83762e-93
2.04428e-90
5.18495e-88
1.14251e-85
2.22696e-83
3.9022e-81
6.22938e-79
9.17682e-77
1.26287e-74
1.64347e-72
2.04888e-70
2.4774e-68
2.9335e-66
3.39179e-64
1.86848e-62
6.57851e-63
2.24268e-64
6.47396e-66
9.08031e-113
2.21713e-109
2.65999e-106
2.09298e-103
1.21755e-100
5.59363e-98
2.11884e-95
6.81823e-93
1.90743e-90
4.72215e-88
1.05001e-85
2.12273e-83
3.94062e-81
6.78285e-79
1.09371e-76
1.67658e-74
2.48309e-72
3.57898e-70
4.82074e-68
5.15266e-66
1.07834e-65
6.11597e-67
2.22773e-68
9.52797e-120
3.03951e-116
4.76819e-113
4.91709e-110
3.76632e-107
2.29285e-104
1.15972e-101
5.0213e-99
1.90357e-96
6.42084e-94
1.95314e-91
5.41808e-89
1.3881e-86
3.33553e-84
7.67052e-82
1.72821e-79
3.88033e-77
8.63295e-75
1.80856e-72
3.11711e-70
1.4377e-68
1.47138e-69
6.97868e-71
1.28796e-127
6.43702e-124
1.61087e-120
2.70202e-117
3.42707e-114
3.50852e-111
3.02141e-108
2.24921e-105
1.47643e-102
8.67309e-100
4.6155e-97
2.24946e-94
1.01448e-91
4.28109e-89
1.70871e-86
6.52296e-84
2.40016e-81
8.55269e-79
2.94937e-76
9.8389e-74
1.59817e-71
3.17987e-72
2.01991e-73
2.01617e-136
2.2128e-132
1.20903e-128
4.38448e-125
1.18655e-121
2.5508e-118
4.53597e-115
6.85319e-112
8.98462e-109
1.03794e-105
1.07177e-102
1.00082e-99
8.55196e-97
6.75925e-94
4.99525e-91
3.48757e-88
2.32114e-85
1.48387e-82
9.15183e-80
5.44617e-77
1.5521e-74
6.33256e-75
5.5017e-76
3.12917e-148
9.44677e-144
1.43608e-139
1.38072e-135
9.53188e-132
5.0978e-128
2.22546e-124
8.24592e-121
2.67229e-117
7.76514e-114
2.0622e-110
5.08894e-107
1.18111e-103
2.60852e-100
5.52723e-97
1.13381e-93
2.26246e-90
4.41245e-87
8.40772e-84
1.5612e-80
1.39111e-77
1.19312e-77
1.43413e-78
2.99975e-11
2.27654e-12
4.94799e-14
1.10581e-15
1.1713e-11
2.35394e-12
4.22434e-13
6.24977e-14
2.03304e-12
5.85503e-13
1.14393e-13
1.72274e-14
2.40509e-13
6.3399e-14
1.20028e-14
1.73794e-15
2.005e-14
4.95072e-15
8.97942e-16
1.24249e-16
1.29596e-15
3.00105e-16
5.20835e-17
6.91866e-18
7.0679e-17
1.52931e-17
2.52366e-18
3.21792e-19
3.38107e-18
6.8281e-19
1.06914e-19
1.31029e-20
1.45795e-19
2.74175e-20
4.06037e-21
4.77491e-22
5.79523e-21
1.01243e-21
1.41583e-22
1.59555e-23
2.20172e-22
3.53784e-23
4.64597e-24
4.99321e-25
8.51916e-24
1.2265e-24
1.4913e-25
1.51349e-26
3.63542e-25
4.49041e-26
4.92269e-27
4.6244e-28
1.72214e-26
1.77931e-27
1.72001e-28
1.46321e-29
8.80059e-28
7.55282e-29
6.33734e-30
4.76745e-31
4.49998e-29
3.28625e-30
2.41942e-31
1.61316e-32
2.1787e-30
1.38872e-31
9.1168e-33
5.44915e-34
9.68882e-32
5.50285e-33
3.26534e-34
1.77361e-35
3.89686e-33
2.00315e-34
1.08487e-35
5.41934e-37
1.39845e-34
6.60231e-36
3.2854e-37
1.5266e-38
4.45186e-36
1.95272e-37
8.97886e-39
3.91639e-40
1.24911e-37
5.13754e-39
2.19743e-40
9.07217e-42
3.07738e-39
1.19638e-40
4.78802e-42
1.88451e-43
6.61714e-41
2.45046e-42
9.23567e-44
3.49083e-45
1.24147e-42
4.4117e-44
1.57505e-45
5.75513e-47
2.02622e-44
6.95893e-46
2.36702e-47
8.41705e-49
2.88023e-46
9.6232e-48
3.13583e-49
1.09191e-50
3.56658e-48
1.16607e-49
3.66091e-51
1.25547e-52
3.85807e-50
1.23995e-51
3.77372e-53
1.28105e-54
3.65407e-52
1.15867e-53
3.44108e-55
1.16144e-56
3.04095e-54
9.54348e-56
2.78498e-57
9.38189e-59
2.22964e-56
6.94914e-58
2.00709e-59
6.7725e-61
1.44659e-58
4.49522e-60
1.29414e-61
4.38937e-63
8.3347e-61
2.59497e-62
7.49992e-64
2.56653e-65
4.29058e-63
1.34596e-64
3.93214e-66
1.36295e-67
1.98487e-65
6.31386e-67
1.87727e-68
6.61781e-70
8.32376e-68
2.70289e-69
8.23157e-71
2.96317e-72
3.19276e-70
1.06557e-71
3.34431e-73
1.23411e-74
1.13362e-72
3.91342e-74
1.27258e-75
4.83073e-77
3.77278e-75
1.35486e-76
4.58585e-78
1.79593e-79
1.19452e-77
4.48268e-79
1.58482e-80
6.41677e-82
3.64449e-80
1.43339e-81
5.30445e-83
2.2227e-84
1.75136e-16
9.77026e-18
2.92355e-19
5.79835e-21
8.27525e-23
1.01592e-24
1.11481e-26
1.10751e-28
9.82321e-31
7.7541e-33
5.37918e-35
3.24679e-37
1.67849e-39
7.30334e-42
2.60565e-44
7.34793e-47
1.53995e-49
2.14046e-52
1.48314e-55
4.7148e-15
2.00477e-16
6.39845e-18
1.50116e-19
2.70586e-21
3.90551e-23
4.66757e-25
4.70601e-27
4.03764e-29
2.96407e-31
1.85859e-33
9.915e-36
4.45413e-38
1.66143e-40
5.02666e-43
1.19155e-45
2.08496e-48
2.40897e-51
1.38544e-54
1.27176e-15
4.80781e-17
1.25027e-18
2.45866e-20
3.89297e-22
5.24372e-24
6.00337e-26
5.94997e-28
5.0759e-30
3.74574e-32
2.37196e-34
1.28407e-36
5.8686e-39
2.23427e-41
6.9194e-44
1.68528e-46
3.04215e-49
3.64205e-52
2.17915e-55
1.17363e-16
4.30862e-18
1.17486e-19
2.52606e-21
4.31918e-23
6.05323e-25
7.02783e-27
6.87348e-29
5.69711e-31
4.0327e-33
2.43631e-35
1.25555e-37
5.47553e-40
1.99939e-42
5.98573e-45
1.42281e-47
2.53253e-50
3.01919e-53
1.81362e-56
7.77684e-18
2.68803e-19
6.97583e-21
1.44478e-22
2.38898e-24
3.28201e-26
3.74692e-28
3.63568e-30
2.99502e-32
2.11697e-34
1.27955e-36
6.62477e-39
2.91379e-41
1.07906e-43
3.29481e-46
8.03244e-49
1.47214e-51
1.80986e-54
1.11961e-57
4.10669e-19
1.37747e-20
3.50515e-22
7.23726e-24
1.19915e-25
1.65619e-27
1.90056e-29
1.84926e-31
1.5254e-33
1.07853e-35
6.53053e-38
3.39803e-40
1.50972e-42
5.67953e-45
1.7703e-47
4.4173e-50
8.28276e-53
1.0383e-55
6.51348e-59
1.82286e-20
5.88386e-22
1.44623e-23
2.91083e-25
4.71619e-27
6.40887e-29
7.25547e-31
7.01477e-33
5.77797e-35
4.11503e-37
2.52852e-39
1.34712e-41
6.1689e-44
2.4029e-46
7.75663e-49
1.99742e-51
3.83903e-54
4.89165e-57
3.09232e-60
7.1407e-22
2.22738e-23
5.31323e-25
1.04656e-26
1.66755e-28
2.24496e-30
2.53237e-32
2.45754e-34
2.04762e-36
1.48711e-38
9.38731e-41
5.1638e-43
2.44468e-45
9.81494e-48
3.24391e-50
8.47812e-53
1.63869e-55
2.08242e-58
1.30412e-61
2.50195e-23
7.50245e-25
1.72746e-26
3.30935e-28
5.16428e-30
6.8734e-32
7.73464e-34
7.57109e-36
6.42504e-38
4.79461e-40
3.12325e-42
1.77325e-44
8.62259e-47
3.52836e-49
1.17751e-51
3.07991e-54
5.91152e-57
7.41425e-60
4.562e-63
8.04877e-25
2.32294e-26
5.18942e-28
9.71858e-30
1.4982e-31
1.9917e-33
2.26418e-35
2.26147e-37
1.97147e-39
1.51432e-41
1.01223e-43
5.85488e-46
2.87356e-48
1.1756e-50
3.88961e-53
1.00191e-55
1.88455e-58
2.30864e-61
1.38482e-64
2.42165e-26
6.71306e-28
1.4583e-29
2.68051e-31
4.10972e-33
5.49447e-35
6.34236e-37
6.46527e-39
5.75217e-41
4.48917e-43
3.02511e-45
1.74902e-47
8.50933e-50
3.42789e-52
1.11096e-54
2.79328e-57
5.11675e-60
6.09647e-63
3.55507e-66
7.04319e-28
1.87892e-29
4.00208e-31
7.27928e-33
1.11901e-34
1.50965e-36
1.76479e-38
1.81771e-40
1.6247e-42
1.26408e-44
8.42444e-47
4.78487e-49
2.27451e-51
8.91961e-54
2.80718e-56
6.84519e-59
1.21548e-61
1.40404e-64
7.94317e-68
2.0478e-29
5.23664e-31
1.09405e-32
1.96641e-34
3.01502e-36
4.06058e-38
4.72955e-40
4.82834e-42
4.24976e-44
3.23761e-46
2.10189e-48
1.15927e-50
5.338e-53
2.02583e-55
6.16693e-58
1.45497e-60
2.50116e-63
2.79963e-66
1.53668e-69
6.08046e-31
1.47872e-32
3.01215e-34
5.30017e-36
7.99631e-38
1.05707e-39
1.20427e-41
1.19729e-43
1.02182e-45
7.52836e-48
4.7157e-50
2.50801e-52
1.11311e-54
4.07437e-57
1.19703e-59
2.72895e-62
4.53869e-65
4.92243e-68
2.62223e-71
1.81913e-32
4.15156e-34
8.13074e-36
1.37807e-37
2.00903e-39
2.56331e-41
2.81207e-43
2.68969e-45
2.20427e-47
1.56012e-49
9.38429e-52
4.79918e-54
2.04946e-56
7.23057e-59
2.05e-61
4.51808e-64
7.27558e-67
7.65334e-70
3.96152e-73
5.63349e-34
1.15274e-35
2.07894e-37
3.35302e-39
4.66397e-41
5.68597e-43
5.9537e-45
5.44507e-47
4.26492e-49
2.89156e-51
1.66703e-53
8.19064e-56
3.36441e-58
1.14432e-60
3.1325e-63
6.67968e-66
1.0425e-68
1.06489e-71
5.3627e-75
1.74379e-35
3.18671e-37
5.24656e-39
7.70466e-41
9.79398e-43
1.13456e-44
1.12894e-46
9.85561e-49
7.36635e-51
4.78406e-53
2.64378e-55
1.24915e-57
4.94025e-60
1.62216e-62
4.29333e-65
8.87156e-68
1.34399e-70
1.33522e-73
6.55247e-77
5.22041e-37
8.54406e-39
1.27917e-40
1.71057e-42
1.9891e-44
2.11783e-46
1.93363e-48
1.59688e-50
1.13905e-52
7.09807e-55
3.76419e-57
1.71334e-59
6.53383e-62
2.07485e-64
5.31799e-67
1.06669e-69
1.57117e-72
1.52067e-75
7.28326e-79
1.47452e-38
2.1771e-40
2.9627e-42
3.62147e-44
3.86067e-46
3.78949e-48
3.18691e-50
2.45024e-52
1.62268e-54
9.49704e-57
4.84097e-59
2.12808e-61
7.84007e-64
2.41313e-66
6.00083e-69
1.1707e-71
1.67948e-74
1.58632e-77
7.42879e-81
3.86467e-40
5.19784e-42
6.44438e-44
7.2424e-46
7.1046e-48
6.45907e-50
5.02641e-52
3.61148e-54
2.23061e-56
1.22986e-58
5.89656e-61
2.45618e-63
8.59131e-66
2.56482e-68
6.20003e-71
1.17892e-73
1.65027e-76
1.52393e-79
6.98756e-83
9.28814e-42
1.14961e-43
1.30507e-45
1.35779e-47
1.23208e-49
1.04333e-51
7.55314e-54
5.09443e-56
2.94875e-58
1.53711e-60
6.96085e-63
2.75676e-65
9.18881e-68
2.63103e-70
6.10826e-73
1.12159e-75
1.52078e-78
1.36702e-81
6.12379e-85
2.03392e-43
2.33925e-45
2.44791e-47
2.37461e-49
2.00546e-51
1.59119e-53
1.07786e-55
6.85726e-58
3.7382e-60
1.8496e-62
7.94498e-65
3.00193e-67
9.56882e-70
2.63331e-72
5.88649e-75
1.04576e-77
1.37584e-80
1.20532e-83
5.27952e-87
4.02641e-45
4.34784e-47
4.22886e-49
3.85445e-51
3.0512e-53
2.28272e-55
1.45606e-57
8.78186e-60
4.53248e-62
2.1377e-64
8.74786e-67
3.1645e-69
9.6798e-72
2.56639e-74
5.53789e-77
9.53701e-80
1.2195e-82
1.04238e-85
4.46846e-89
7.1768e-47
7.35413e-49
6.71042e-51
5.79284e-53
4.33036e-55
3.07429e-57
1.85858e-59
1.06811e-61
5.24661e-64
2.36901e-66
9.27547e-69
3.22372e-71
9.4952e-74
2.43158e-76
5.07768e-79
8.4925e-82
1.05718e-84
8.82645e-88
3.70644e-91
1.14743e-48
1.12783e-50
9.74519e-53
8.03494e-55
5.71644e-57
3.87704e-59
2.2365e-61
1.23119e-63
5.78683e-66
2.51276e-68
9.45429e-71
3.16817e-73
9.01619e-76
2.23608e-78
4.53006e-81
7.37216e-84
8.94837e-87
7.30583e-90
3.00778e-93
1.64124e-50
1.56486e-52
1.29337e-54
1.0273e-56
7.01193e-59
4.57414e-61
2.53485e-63
1.34379e-65
6.07599e-68
2.54846e-70
9.25399e-73
3.00045e-75
8.27807e-78
1.99351e-80
3.92761e-83
6.23081e-86
7.38606e-89
5.90351e-92
2.38464e-95
2.09833e-52
1.9627e-54
1.56725e-56
1.20963e-58
7.98363e-61
5.04321e-63
2.70291e-65
1.3873e-67
6.06662e-70
2.46885e-72
8.68908e-75
2.73545e-77
7.3409e-80
1.72112e-82
3.30562e-85
5.12143e-88
5.93806e-91
4.65148e-94
1.84478e-97
2.39615e-54
2.22387e-56
1.73334e-58
1.31147e-60
8.43705e-63
5.19612e-65
2.71132e-67
1.35457e-69
5.75931e-72
2.28398e-74
7.82358e-77
2.39964e-79
6.28426e-82
1.43815e-84
2.69888e-87
4.0909e-90
4.64624e-93
3.57078e-96
1.39136e-99
2.44653e-56
2.27844e-58
1.75103e-60
1.31007e-62
8.27944e-65
5.00457e-67
2.55891e-69
1.25097e-71
5.19812e-74
2.01741e-76
6.75311e-79
2.02483e-81
5.19105e-84
1.16249e-86
2.1364e-89
3.17372e-92
3.53596e-95
2.66892e-98
1.02234e-101
2.23678e-58
2.11316e-60
1.6177e-62
1.20703e-64
7.55232e-67
4.50983e-69
2.27403e-71
1.09347e-73
4.4631e-76
1.70215e-78
5.58995e-81
1.6438e-83
4.13796e-86
9.08984e-89
1.63944e-91
2.39086e-94
2.61668e-97
1.94166e-100
7.31577e-104
1.83662e-60
1.77837e-62
1.36987e-64
1.02772e-66
6.41465e-69
3.80802e-71
1.90518e-73
9.05603e-76
3.6485e-78
1.37275e-80
4.43945e-83
1.28438e-85
3.1838e-88
6.8765e-91
1.21967e-93
1.7489e-96
1.88278e-99
1.37474e-102
5.09755e-106
1.35899e-62
1.36178e-64
1.0662e-66
8.10578e-69
5.0844e-71
3.01874e-73
1.50738e-75
7.11698e-78
2.84354e-80
1.05944e-82
3.38611e-85
9.66682e-88
2.36606e-90
5.03568e-93
8.80045e-96
1.24264e-98
1.31754e-101
9.47456e-105
3.45913e-108
9.10391e-65
9.5256e-67
7.65554e-69
5.94089e-71
3.77163e-73
2.25236e-75
1.1288e-77
5.3177e-80
2.11642e-82
7.83577e-85
2.48341e-87
7.01592e-90
1.69984e-92
3.57238e-95
6.16251e-98
8.58095e-101
8.97116e-104
6.35869e-107
2.28682e-110
5.54785e-67
6.11326e-69
5.09174e-71
4.06097e-73
2.62714e-75
1.58643e-77
8.02148e-80
3.78648e-82
1.50745e-84
5.56418e-87
1.75418e-89
4.91714e-92
1.18202e-94
2.45772e-97
4.19189e-100
5.76369e-103
5.94816e-106
4.15854e-109
1.47381e-112
3.09455e-69
3.61986e-71
3.15266e-73
2.6005e-75
1.7251e-77
1.05854e-79
5.42608e-82
2.57651e-84
1.03e-86
3.80165e-89
1.19563e-91
3.33351e-94
7.96744e-97
1.64195e-99
2.77316e-102
3.76968e-105
3.84408e-108
2.65258e-111
9.26763e-115
1.58977e-71
1.98935e-73
1.82681e-75
1.5675e-77
1.07245e-79
6.71701e-82
3.50585e-84
1.68051e-86
6.76955e-89
2.50522e-91
7.88049e-94
2.19024e-96
5.21478e-99
1.06687e-101
1.78675e-104
2.4039e-107
2.42441e-110
1.65215e-113
5.69248e-117
7.58085e-74
1.02198e-75
9.96828e-78
8.94372e-80
6.34333e-82
4.07157e-84
2.17208e-86
1.05437e-88
4.293e-91
1.59674e-93
5.03518e-96
1.39782e-98
3.32081e-101
6.75419e-104
1.12303e-106
1.4969e-109
1.49429e-112
1.00614e-115
3.41972e-119
3.38172e-76
4.94365e-78
5.15483e-80
4.85838e-82
3.5879e-84
2.36844e-86
1.29568e-88
6.38664e-91
2.63536e-93
9.87187e-96
3.12689e-98
8.68579e-101
2.06189e-103
4.17442e-106
6.89826e-109
9.11745e-112
9.01527e-115
6.0003e-118
2.01239e-121
1.42449e-78
2.27084e-80
2.54473e-82
2.5291e-84
1.95182e-86
1.32901e-88
7.47539e-91
3.75025e-93
1.57173e-95
5.93982e-98
1.8929e-100
5.26893e-103
1.25126e-105
2.52426e-108
4.14939e-111
5.4421e-114
5.33319e-117
3.50999e-120
1.16186e-123
5.71925e-81
9.98846e-83
1.20796e-84
1.26988e-86
1.02705e-88
7.23078e-91
4.19043e-93
2.14354e-95
9.14003e-98
3.48962e-100
1.12031e-102
3.12865e-105
7.43963e-108
1.49682e-110
2.4493e-113
3.18968e-116
3.09957e-119
2.01781e-122
6.59365e-126
2.21183e-83
4.24635e-85
5.55804e-87
6.19408e-89
5.26029e-91
3.83597e-93
2.29361e-95
1.19789e-97
5.20308e-100
2.00891e-102
6.50326e-105
1.82376e-107
4.34528e-110
8.72476e-113
1.42195e-115
1.83965e-118
1.77335e-121
1.14222e-124
3.68532e-128
8.29587e-86
1.75372e-87
2.48758e-89
2.9419e-91
2.62573e-93
1.98516e-95
1.22542e-97
6.53916e-100
2.89519e-102
1.13109e-104
3.69415e-107
1.04094e-109
2.48598e-112
4.98361e-115
8.0928e-118
1.04053e-120
9.95274e-124
6.34407e-127
2.02144e-130
)
;

boundaryField
{
    leftWall
    {
        type            zeroGradient;
    }
    rightWall
    {
        type            zeroGradient;
    }
    lowerWall
    {
        type            zeroGradient;
    }
    atmosphere
    {
        type            inletOutlet;
        inletValue      uniform 0;
        value           nonuniform List<scalar> 
46
(
0
0
0
0
0
0
0
0
0
0
0
0
0
0
0
0
0
0
0
0
1.39111e-77
1.19312e-77
1.43413e-78
3.64449e-80
1.43339e-81
5.30445e-83
2.2227e-84
8.29587e-86
1.75372e-87
2.48758e-89
2.9419e-91
2.62573e-93
1.98516e-95
1.22542e-97
6.53916e-100
2.89519e-102
1.13109e-104
3.69415e-107
1.04094e-109
2.48598e-112
4.98361e-115
8.0928e-118
1.04053e-120
9.95274e-124
6.34407e-127
2.02144e-130
)
;
    }
    defaultFaces
    {
        type            empty;
    }
}


// ************************************************************************* //
