# vtk DataFile Version 2.0
gauge_2
ASCII
DATASET POLYDATA
POINTS 43 double
0.2 0.0359992 0.005
0.2 0.0419991 0.005
0.2 0.047999 0.005
0.2 0.0607609 0.005
0.2 0.0735228 0.005
0.2 0.0862847 0.005
0.2 0.0990467 0.005
0.2 0.111809 0.005
0.2 0.124571 0.005
0.2 0.137332 0.005
0.2 0.150094 0.005
0.2 0.162856 0.005
0.2 0.175618 0.005
0.2 0.18838 0.005
0.2 0.201142 0.005
0.2 0.213904 0.005
0.2 0.226666 0.005
0.2 0.239428 0.005
0.2 0.25219 0.005
0.2 0.264952 0.005
0.2 0.277714 0.005
0.2 0.290476 0.005
0.2 0.303238 0.005
0.2 0.315999 0.005
0.2 0.328761 0.005
0.2 0.341523 0.005
0.2 0.354285 0.005
0.2 0.367047 0.005
0.2 0.379809 0.005
0.2 0.392571 0.005
0.2 0.405333 0.005
0.2 0.418095 0.005
0.2 0.430857 0.005
0.2 0.443619 0.005
0.2 0.456381 0.005
0.2 0.469143 0.005
0.2 0.481905 0.005
0.2 0.494666 0.005
0.2 0.507428 0.005
0.2 0.52019 0.005
0.2 0.532952 0.005
0.2 0.545714 0.005
0.2 0.558476 0.005
POINT_DATA 43
 FIELD attributes 1
alpha.water 1 43 float
1 1 1 0.997455 0.755718 0.3341 0.114457 0.0387747 0.000186526 3.53291e-05 5.87949e-06 2.52853e-06 1.15481e-06 3.13865e-07 5.32133e-08 1.02364e-08 1.09526e-09 2.04769e-10 9.01346e-11 6.28699e-11 3.99215e-11 2.06896e-11 8.2111e-12 2.22648e-12 3.80292e-13 4.82063e-14 5.9802e-15 4.20984e-16 1.80355e-17 9.96368e-19 6.59614e-20 4.30383e-21 2.68911e-22 1.61491e-23 9.25951e-25 5.08523e-26 2.69398e-27 1.38852e-28 7.0459e-30 3.57019e-31 1.82035e-32 9.25949e-34 4.56027e-35
