/*--------------------------------*- C++ -*----------------------------------*\
| =========                 |                                                 |
| \\      /  F ield         | OpenFOAM: The Open Source CFD Toolbox           |
|  \\    /   O peration     | Version:  2012                                  |
|   \\  /    A nd           | Website:  www.openfoam.com                      |
|    \\/     M anipulation  |                                                 |
\*---------------------------------------------------------------------------*/
FoamFile
{
    version     2.0;
    format      ascii;
    class       volScalarField;
    location    "0.57";
    object      rho2;
}
// * * * * * * * * * * * * * * * * * * * * * * * * * * * * * * * * * * * * * //

dimensions      [1 -3 0 0 0 0 0];


internalField   nonuniform List<scalar> 
2268
(
1.30036
1.30038
1.30041
1.30047
1.30054
1.30064
1.30076
1.3009
1.30107
1.30127
1.30149
1.30174
1.30199
1.30228
1.30253
1.30283
1.30306
1.30334
1.30352
1.30374
1.30384
1.30398
1.30401
1.2996
1.29962
1.29965
1.29971
1.29978
1.29988
1.3
1.30015
1.30032
1.30052
1.30073
1.30098
1.30123
1.30152
1.30178
1.30208
1.30231
1.30258
1.30276
1.30298
1.30308
1.30321
1.30323
1.29884
1.29885
1.29889
1.29894
1.29902
1.29912
1.29924
1.29938
1.29955
1.29976
1.29997
1.30023
1.30048
1.30077
1.30103
1.30134
1.30158
1.30186
1.30204
1.30228
1.30238
1.30253
1.30255
1.29807
1.29809
1.29812
1.29818
1.29825
1.29835
1.29847
1.29862
1.29878
1.29899
1.2992
1.29946
1.29972
1.30001
1.30028
1.30058
1.30083
1.3011
1.30128
1.3015
1.3016
1.30173
1.30174
1.29729
1.29731
1.29735
1.2974
1.29747
1.29757
1.29769
1.29783
1.298
1.29821
1.29843
1.2987
1.29896
1.29926
1.29954
1.29985
1.30011
1.3004
1.30059
1.30084
1.30094
1.3011
1.30111
1.29652
1.29654
1.29658
1.29663
1.2967
1.2968
1.29692
1.29706
1.29723
1.29744
1.29766
1.29792
1.29819
1.2985
1.29878
1.2991
1.29936
1.29965
1.29984
1.30007
1.30017
1.30031
1.30029
1.29574
1.29576
1.29579
1.29585
1.29592
1.29601
1.29613
1.29627
1.29644
1.29665
1.29688
1.29716
1.29743
1.29775
1.29804
1.29837
1.29865
1.29896
1.29916
1.29943
1.29952
1.29969
1.29965
1.29499
1.29501
1.29504
1.29509
1.29516
1.29525
1.29537
1.29551
1.29568
1.29588
1.2961
1.29638
1.29666
1.29698
1.2973
1.29763
1.29791
1.29822
1.29843
1.29868
1.29878
1.29894
1.29888
1.2992
1.29497
1.29528
1.29486
1.29671
1.30051
1.30227
1.2966
1.29239
1.29168
1.29145
1.29146
1.29156
1.29169
1.29168
1.29207
1.29323
1.29849
1.30631
1.29574
1.29514
1.29434
1.29481
1.29493
1.29796
1.30136
1.29435
1.29091
1.29074
1.29072
1.29077
1.29084
1.29094
1.29095
1.29104
1.29159
1.29636
1.30323
1.29458
1.29523
1.29549
1.29421
1.29601
1.30008
1.30136
1.29531
1.29044
1.29237
1.2917
1.29061
1.2905
1.29041
1.29024
1.29031
1.29095
1.29432
1.30221
1.29452
1.29506
1.29554
1.29546
1.29517
1.2986
1.30053
1.29233
1.29023
1.29058
1.29131
1.29191
1.29153
1.29155
1.29196
1.29215
1.29134
1.29241
1.29895
1.29466
1.29484
1.29553
1.29593
1.29574
1.29769
1.29896
1.29498
1.29085
1.29065
1.29122
1.29188
1.29177
1.29183
1.29202
1.29208
1.29128
1.29115
1.29693
1.2951
1.29493
1.29552
1.29622
1.29619
1.29645
1.29679
1.29231
1.29086
1.29132
1.29136
1.29185
1.29187
1.29193
1.29192
1.29193
1.29156
1.28999
1.29425
1.29651
1.2954
1.2957
1.29407
1.29584
1.29575
1.29505
1.29218
1.29063
1.29182
1.29157
1.29178
1.29193
1.292
1.29194
1.2919
1.29175
1.28993
1.29232
1.29627
1.29559
1.29609
1.29499
1.29565
1.29489
1.29374
1.29129
1.29106
1.29191
1.29183
1.29172
1.29199
1.29204
1.29196
1.2919
1.29183
1.29081
1.291
1.29397
1.29399
1.29401
1.29404
1.29409
1.29415
1.29424
1.29435
1.2945
1.29468
1.29491
1.2952
1.29549
1.29583
1.29614
1.2965
1.29682
1.29717
1.2974
1.29769
1.29777
1.29794
1.29766
1.29335
1.29336
1.29336
1.29336
1.29338
1.2934
1.29342
1.29346
1.29351
1.29357
1.29367
1.29383
1.29403
1.2943
1.29462
1.29498
1.29532
1.29567
1.29594
1.29625
1.29639
1.29658
1.29655
1.29327
1.29327
1.29327
1.29327
1.29327
1.29328
1.29329
1.29331
1.29333
1.29333
1.29333
1.29332
1.29337
1.29345
1.29357
1.29379
1.29406
1.29436
1.29464
1.29495
1.29509
1.29534
1.29529
1.29322
1.29322
1.29322
1.29322
1.29322
1.29323
1.29323
1.29324
1.29325
1.29326
1.29325
1.29325
1.2933
1.2933
1.29328
1.29332
1.29339
1.29352
1.29373
1.29395
1.29409
1.29421
1.29425
1.2932
1.2932
1.2932
1.2932
1.2932
1.29321
1.29321
1.29321
1.29321
1.29321
1.29321
1.29321
1.29324
1.29324
1.29321
1.29324
1.29328
1.29328
1.29331
1.29334
1.29341
1.29349
1.29361
1.2932
1.2932
1.2932
1.2932
1.2932
1.2932
1.2932
1.2932
1.2932
1.2932
1.2932
1.2932
1.2932
1.2932
1.2932
1.2932
1.29321
1.29321
1.29322
1.29324
1.29327
1.29326
1.29327
1.2932
1.2932
1.2932
1.2932
1.2932
1.2932
1.2932
1.2932
1.2932
1.2932
1.2932
1.2932
1.2932
1.29319
1.29319
1.29319
1.29319
1.29319
1.29319
1.29319
1.2932
1.2932
1.2932
1.29319
1.29319
1.29319
1.29319
1.29319
1.29319
1.29319
1.29319
1.29319
1.29319
1.29319
1.29319
1.29319
1.29319
1.29319
1.29319
1.29319
1.29319
1.29319
1.29319
1.29319
1.29319
1.29319
1.29319
1.29319
1.29319
1.29319
1.29319
1.29319
1.29319
1.29319
1.29319
1.29319
1.29319
1.29319
1.29319
1.29319
1.29319
1.29319
1.29319
1.29319
1.29319
1.29319
1.29319
1.29319
1.29319
1.29319
1.29319
1.29319
1.29319
1.29319
1.29319
1.29319
1.29319
1.29319
1.29319
1.29319
1.29319
1.29319
1.29319
1.29319
1.29319
1.29319
1.29319
1.29319
1.29319
1.29319
1.29319
1.29319
1.29319
1.29319
1.29319
1.29319
1.29319
1.29319
1.29319
1.29319
1.29319
1.29319
1.29319
1.29319
1.29319
1.29319
1.29319
1.29319
1.29319
1.29319
1.29319
1.29319
1.29319
1.29319
1.29318
1.29319
1.29319
1.29319
1.29319
1.29319
1.29319
1.29319
1.29319
1.29319
1.29319
1.29319
1.29319
1.29319
1.29319
1.29319
1.29319
1.29319
1.29319
1.29319
1.29319
1.29318
1.29318
1.29318
1.29319
1.29319
1.29319
1.29319
1.29319
1.29319
1.29319
1.29319
1.29319
1.29319
1.29319
1.29319
1.29319
1.29319
1.29319
1.29319
1.29318
1.29318
1.29318
1.29318
1.29318
1.29318
1.29318
1.29318
1.29318
1.29318
1.29318
1.29318
1.29318
1.29318
1.29318
1.29318
1.29318
1.29318
1.29318
1.29318
1.29318
1.29318
1.29318
1.29318
1.29318
1.29318
1.29318
1.29318
1.29318
1.29318
1.29318
1.29318
1.29318
1.29318
1.29318
1.29318
1.29318
1.29318
1.29318
1.29318
1.29318
1.29318
1.29318
1.29318
1.29318
1.29318
1.29318
1.29318
1.29318
1.29318
1.29318
1.29318
1.29318
1.29318
1.29318
1.29318
1.29318
1.29318
1.29318
1.29318
1.29318
1.29318
1.29318
1.29318
1.29318
1.29318
1.29318
1.29318
1.29318
1.29318
1.29318
1.29318
1.29318
1.29318
1.29318
1.29318
1.29318
1.29318
1.29318
1.29318
1.29318
1.29318
1.29318
1.29318
1.29318
1.29318
1.29318
1.29318
1.29318
1.29318
1.29318
1.29318
1.29318
1.29318
1.29318
1.29318
1.29318
1.29318
1.29318
1.29317
1.29317
1.29317
1.29317
1.29317
1.29317
1.29317
1.29317
1.29317
1.29317
1.29318
1.29318
1.29318
1.29318
1.29318
1.29318
1.29318
1.29318
1.29318
1.29318
1.29318
1.29318
1.29317
1.29317
1.29317
1.29317
1.29317
1.29317
1.29317
1.29317
1.29317
1.29317
1.29317
1.29317
1.29317
1.29317
1.29317
1.29317
1.29317
1.29317
1.29317
1.29317
1.29317
1.29317
1.29317
1.29317
1.29316
1.29316
1.29316
1.29316
1.29316
1.29316
1.29316
1.29316
1.29316
1.29316
1.29316
1.29317
1.29317
1.29317
1.29317
1.29317
1.29317
1.29317
1.29317
1.29317
1.29317
1.29317
1.29317
1.29314
1.29314
1.29314
1.29315
1.29315
1.29315
1.29315
1.29315
1.29315
1.29315
1.29315
1.29316
1.29316
1.29316
1.29316
1.29316
1.29317
1.29317
1.29317
1.29317
1.29317
1.29317
1.29317
1.29313
1.29313
1.29313
1.29313
1.29313
1.29313
1.29313
1.29313
1.29313
1.29314
1.29314
1.29314
1.29315
1.29315
1.29315
1.29315
1.29316
1.29316
1.29316
1.29316
1.29316
1.29317
1.29317
1.29311
1.29311
1.29311
1.29311
1.29311
1.29311
1.29311
1.29311
1.29312
1.29312
1.29312
1.29312
1.29313
1.29313
1.29313
1.29314
1.29314
1.29315
1.29315
1.29315
1.29316
1.29316
1.29316
1.2931
1.2931
1.2931
1.2931
1.2931
1.2931
1.2931
1.2931
1.2931
1.2931
1.2931
1.29311
1.29311
1.29311
1.29311
1.29312
1.29312
1.29313
1.29313
1.29314
1.29314
1.29315
1.29315
1.29309
1.29309
1.29309
1.29309
1.29309
1.29309
1.29309
1.29309
1.29309
1.29309
1.29309
1.29309
1.29309
1.2931
1.2931
1.2931
1.2931
1.29311
1.29311
1.29311
1.29312
1.29313
1.29313
1.29308
1.29308
1.29308
1.29308
1.29308
1.29308
1.29308
1.29308
1.29308
1.29308
1.29308
1.29308
1.29309
1.29309
1.29309
1.29309
1.29309
1.29309
1.2931
1.2931
1.2931
1.29311
1.29311
1.29308
1.29308
1.29308
1.29308
1.29308
1.29308
1.29308
1.29308
1.29308
1.29308
1.29308
1.29308
1.29308
1.29308
1.29308
1.29308
1.29308
1.29309
1.29309
1.29309
1.29309
1.2931
1.2931
1.29307
1.29307
1.29307
1.29307
1.29307
1.29307
1.29307
1.29307
1.29307
1.29307
1.29308
1.29308
1.29308
1.29308
1.29308
1.29308
1.29308
1.29308
1.29308
1.29309
1.29309
1.29309
1.29309
1.29307
1.29307
1.29307
1.29307
1.29307
1.29307
1.29307
1.29307
1.29307
1.29307
1.29307
1.29307
1.29307
1.29308
1.29308
1.29308
1.29308
1.29308
1.29308
1.29308
1.29309
1.29309
1.29309
1.29307
1.29307
1.29307
1.29307
1.29307
1.29307
1.29307
1.29307
1.29307
1.29307
1.29307
1.29307
1.29308
1.29308
1.29308
1.29308
1.29308
1.29308
1.29309
1.29309
1.29309
1.29309
1.29309
1.29307
1.29307
1.29307
1.29307
1.29307
1.29307
1.29307
1.29307
1.29307
1.29307
1.29308
1.29308
1.29308
1.29308
1.29308
1.29308
1.29309
1.29309
1.29309
1.29309
1.2931
1.2931
1.2931
1.29308
1.29308
1.29308
1.29308
1.29308
1.29308
1.29308
1.29308
1.29308
1.29308
1.29308
1.29308
1.29308
1.29309
1.29309
1.29309
1.29309
1.2931
1.2931
1.2931
1.29311
1.29312
1.29312
1.29308
1.29308
1.29308
1.29308
1.29308
1.29308
1.29308
1.29308
1.29308
1.29308
1.29308
1.29309
1.29309
1.29309
1.29309
1.29309
1.2931
1.2931
1.2931
1.29311
1.29312
1.29313
1.29314
1.29308
1.29308
1.29308
1.29308
1.29309
1.29309
1.29309
1.29309
1.29309
1.29309
1.29309
1.29309
1.29309
1.29309
1.29309
1.2931
1.2931
1.29311
1.29311
1.29313
1.29314
1.29314
1.29314
1.29309
1.29309
1.29309
1.29309
1.29309
1.29309
1.29309
1.29309
1.29309
1.29309
1.29309
1.29309
1.29309
1.29309
1.29309
1.2931
1.2931
1.29311
1.29312
1.29314
1.29314
1.29314
1.29312
1.29309
1.29309
1.29309
1.29309
1.29309
1.29309
1.29309
1.29309
1.29309
1.29309
1.29309
1.29309
1.29309
1.29309
1.2931
1.2931
1.29311
1.29312
1.29314
1.29315
1.29314
1.29312
1.2931
1.29309
1.29309
1.29309
1.29309
1.29309
1.29309
1.29309
1.29309
1.29309
1.29309
1.29309
1.29309
1.29309
1.29309
1.2931
1.2931
1.29311
1.29313
1.29314
1.29314
1.29312
1.2931
1.29308
1.29309
1.29309
1.29309
1.29309
1.29309
1.29309
1.29309
1.29309
1.29309
1.29309
1.29309
1.29309
1.2931
1.2931
1.2931
1.29311
1.29312
1.29314
1.29315
1.29314
1.2931
1.29306
1.29303
1.2931
1.2931
1.2931
1.2931
1.29309
1.29309
1.29309
1.29309
1.29309
1.29309
1.2931
1.2931
1.2931
1.2931
1.2931
1.29311
1.29312
1.29314
1.29315
1.29313
1.29306
1.29299
1.29296
1.2931
1.2931
1.2931
1.2931
1.2931
1.2931
1.2931
1.2931
1.2931
1.2931
1.2931
1.2931
1.29311
1.29311
1.29311
1.29312
1.29314
1.29315
1.29315
1.29311
1.29301
1.29293
1.29292
1.29311
1.29311
1.29311
1.29311
1.29311
1.29311
1.29311
1.29311
1.29311
1.29311
1.29311
1.29311
1.29311
1.29312
1.29312
1.29314
1.29315
1.29316
1.29313
1.29303
1.29292
1.29287
1.29289
1.29311
1.29311
1.29311
1.29311
1.29311
1.29311
1.29311
1.29311
1.29311
1.29311
1.29312
1.29312
1.29312
1.29313
1.29314
1.29316
1.29319
1.29319
1.29312
1.29295
1.29286
1.29284
1.29288
1.29745
1.29736
1.29729
1.29683
1.29661
1.29641
1.29633
1.29607
1.29535
1.29529
1.29533
1.29518
1.29434
1.29428
1.29431
1.29425
1.2937
1.29376
1.29379
1.29382
1.29328
1.2933
1.29332
1.29333
1.29322
1.29324
1.29326
1.29328
1.29319
1.29319
1.29319
1.2932
1.29319
1.29319
1.29319
1.29319
1.29318
1.29318
1.29318
1.29318
1.29318
1.29318
1.29318
1.29318
1.29318
1.29318
1.29318
1.29318
1.29318
1.29318
1.29318
1.29318
1.29318
1.29318
1.29318
1.29318
1.29318
1.29318
1.29318
1.29318
1.29318
1.29318
1.29318
1.29317
1.29317
1.29317
1.29317
1.29317
1.29317
1.29317
1.29317
1.29317
1.29317
1.29317
1.29317
1.29317
1.29317
1.29317
1.29317
1.29317
1.29317
1.29317
1.29317
1.29317
1.29317
1.29317
1.29317
1.29317
1.29316
1.29316
1.29316
1.29316
1.29316
1.29316
1.29316
1.29316
1.29314
1.29314
1.29315
1.29315
1.29312
1.29312
1.29313
1.29313
1.2931
1.29311
1.29311
1.29311
1.2931
1.2931
1.2931
1.2931
1.29309
1.29309
1.2931
1.2931
1.2931
1.2931
1.2931
1.2931
1.29311
1.29311
1.29311
1.29311
1.29313
1.29313
1.29313
1.29313
1.29314
1.29314
1.29314
1.29313
1.29313
1.29313
1.29312
1.29312
1.29311
1.29311
1.29311
1.2931
1.2931
1.29309
1.29309
1.2931
1.29307
1.29307
1.29308
1.29308
1.29302
1.29303
1.29305
1.29306
1.29298
1.293
1.29302
1.29304
1.29296
1.29299
1.29301
1.29303
1.29295
1.29298
1.293
1.29303
1.29294
1.29297
1.293
1.29302
1.29561
1.29476
1.29597
1.29564
1.2954
1.29396
1.29235
1.29124
1.29216
1.29182
1.29186
1.29174
1.2921
1.29205
1.29196
1.29187
1.29184
1.29174
1.2906
1.29576
1.29532
1.29581
1.29518
1.29492
1.29296
1.29167
1.29125
1.29216
1.2916
1.2917
1.2918
1.29212
1.29207
1.29197
1.29186
1.29184
1.29163
1.29059
1.29529
1.29495
1.29525
1.29461
1.29443
1.29241
1.29162
1.29204
1.29203
1.29158
1.2916
1.29187
1.2921
1.29205
1.29197
1.29186
1.29184
1.29043
1.29062
1.29428
1.29414
1.29432
1.29401
1.294
1.29203
1.29157
1.29233
1.29189
1.29165
1.29161
1.29196
1.29206
1.29202
1.29195
1.29185
1.2918
1.2898
1.29063
1.29386
1.29385
1.2939
1.29375
1.29361
1.29215
1.29154
1.29224
1.29196
1.29188
1.29174
1.29201
1.29203
1.29199
1.29192
1.29186
1.29167
1.28943
1.29065
1.2933
1.29334
1.2934
1.29356
1.29341
1.2924
1.29151
1.29233
1.29198
1.29201
1.29194
1.29202
1.29201
1.29196
1.29187
1.29188
1.29122
1.28917
1.29079
1.29329
1.29329
1.29329
1.29326
1.29333
1.29245
1.29122
1.29245
1.29171
1.29202
1.29199
1.29201
1.29198
1.29192
1.29183
1.29182
1.29081
1.28905
1.29105
1.29322
1.29324
1.29323
1.29324
1.29322
1.29315
1.29171
1.28957
1.29103
1.2919
1.29198
1.29194
1.2919
1.29181
1.29174
1.29153
1.29057
1.28911
1.29177
1.29319
1.2932
1.29321
1.29321
1.29321
1.29317
1.29284
1.29076
1.28988
1.29184
1.29181
1.29152
1.2913
1.29133
1.29124
1.29073
1.28886
1.28961
1.29287
1.29319
1.29319
1.29319
1.2932
1.2932
1.29316
1.29314
1.29258
1.29054
1.28974
1.29028
1.28932
1.2886
1.2907
1.29119
1.28908
1.28901
1.29159
1.29415
1.29319
1.29319
1.29319
1.2932
1.29315
1.29308
1.29276
1.29308
1.29237
1.29104
1.29005
1.28923
1.28884
1.28856
1.28875
1.28898
1.29113
1.29247
1.29426
1.29318
1.29318
1.29317
1.29312
1.29302
1.29283
1.29292
1.29216
1.29305
1.29319
1.29304
1.29257
1.29221
1.29174
1.2921
1.29241
1.29276
1.29308
1.29372
1.29318
1.29317
1.29314
1.29304
1.29299
1.29323
1.29346
1.29279
1.29339
1.29342
1.29301
1.29259
1.29189
1.2915
1.29176
1.2918
1.29197
1.2921
1.29278
1.29318
1.29317
1.29313
1.29305
1.29305
1.29312
1.29316
1.29319
1.29351
1.29369
1.29369
1.29293
1.29221
1.29193
1.29237
1.29249
1.29279
1.29282
1.29307
1.29318
1.29317
1.29315
1.29308
1.29305
1.2931
1.29316
1.29317
1.29315
1.29313
1.29311
1.29335
1.29352
1.29325
1.29287
1.29279
1.29283
1.29263
1.29275
1.29317
1.29317
1.29316
1.29311
1.29307
1.29311
1.29315
1.29314
1.29312
1.2931
1.29309
1.29302
1.29291
1.29284
1.29302
1.29262
1.29272
1.29285
1.29302
1.29317
1.29317
1.29316
1.29314
1.29309
1.29309
1.29313
1.29314
1.29312
1.29312
1.29312
1.29309
1.29299
1.29278
1.29258
1.29257
1.29212
1.29265
1.29288
1.29317
1.29317
1.29317
1.29316
1.29313
1.2931
1.2931
1.29311
1.29311
1.29312
1.29313
1.29314
1.29312
1.29302
1.29285
1.29254
1.29218
1.29248
1.29312
1.29317
1.29317
1.29317
1.29316
1.29315
1.29312
1.29311
1.29311
1.29311
1.29312
1.29313
1.29314
1.29315
1.29312
1.29307
1.29283
1.29236
1.29246
1.29306
1.29317
1.29317
1.29316
1.29316
1.29316
1.29315
1.29314
1.29312
1.29313
1.29313
1.29314
1.29315
1.29316
1.29315
1.29314
1.29302
1.29263
1.29248
1.29298
1.29317
1.29317
1.29316
1.29316
1.29316
1.29316
1.29315
1.29315
1.29315
1.29315
1.29315
1.29315
1.29316
1.29316
1.29316
1.29312
1.29303
1.29281
1.2929
1.29317
1.29316
1.29316
1.29316
1.29316
1.29316
1.29316
1.29315
1.29316
1.29315
1.29316
1.29316
1.29317
1.29316
1.29317
1.29317
1.29318
1.29312
1.29308
1.29316
1.29316
1.29316
1.29316
1.29316
1.29316
1.29316
1.29316
1.29316
1.29316
1.29316
1.29316
1.29317
1.29316
1.29317
1.29317
1.29318
1.29316
1.29303
1.29316
1.29316
1.29316
1.29316
1.29316
1.29316
1.29316
1.29316
1.29316
1.29316
1.29316
1.29316
1.29317
1.29316
1.29317
1.29317
1.29317
1.29317
1.29304
1.29315
1.29316
1.29316
1.29316
1.29316
1.29316
1.29316
1.29316
1.29316
1.29316
1.29316
1.29316
1.29317
1.29316
1.29317
1.29317
1.29315
1.29313
1.29308
1.29314
1.29315
1.29315
1.29315
1.29316
1.29316
1.29316
1.29316
1.29316
1.29316
1.29316
1.29316
1.29316
1.29316
1.29317
1.29313
1.29307
1.29302
1.29309
1.29312
1.29313
1.29314
1.29315
1.29315
1.29315
1.29315
1.29315
1.29316
1.29315
1.29316
1.29315
1.29316
1.29315
1.29314
1.29304
1.293
1.29286
1.29289
1.29311
1.29311
1.29312
1.29313
1.29314
1.29315
1.29315
1.29315
1.29315
1.29315
1.29315
1.29315
1.29315
1.29314
1.29311
1.2931
1.29308
1.29268
1.29291
1.2931
1.29311
1.29311
1.29312
1.29313
1.29314
1.29315
1.29315
1.29315
1.29315
1.29315
1.29315
1.29314
1.29313
1.29311
1.29325
1.29332
1.29311
1.29296
1.2931
1.29311
1.29311
1.29312
1.29313
1.29313
1.29314
1.29314
1.29315
1.29315
1.29314
1.29314
1.29313
1.29312
1.29314
1.29328
1.29327
1.29326
1.29302
1.29312
1.29312
1.29312
1.29312
1.29313
1.29313
1.29314
1.29314
1.29314
1.29314
1.29314
1.29314
1.29313
1.29312
1.29318
1.29321
1.2931
1.29341
1.29305
1.29313
1.29313
1.29313
1.29313
1.29313
1.29313
1.29313
1.29313
1.29314
1.29314
1.29314
1.29313
1.29312
1.29311
1.29316
1.29308
1.29294
1.29339
1.29308
1.29313
1.29312
1.29312
1.29311
1.29311
1.29312
1.29312
1.29313
1.29313
1.29313
1.29313
1.29313
1.29312
1.29312
1.29313
1.29304
1.29286
1.29327
1.2931
1.29311
1.2931
1.29309
1.29308
1.29308
1.29309
1.29311
1.29311
1.29312
1.29313
1.29312
1.29313
1.29311
1.29311
1.29311
1.29301
1.29279
1.29321
1.29308
1.2931
1.29309
1.29308
1.29306
1.29306
1.29307
1.29309
1.2931
1.29311
1.29312
1.29312
1.29312
1.29311
1.29311
1.2931
1.293
1.29273
1.29294
1.29303
1.29309
1.29309
1.29308
1.29305
1.29303
1.29304
1.29306
1.29308
1.2931
1.29311
1.29311
1.29312
1.29311
1.29311
1.29308
1.29303
1.29269
1.29271
1.29298
1.29309
1.29309
1.29308
1.29305
1.29303
1.29303
1.29305
1.29308
1.29309
1.29311
1.29311
1.29312
1.29311
1.29311
1.29308
1.29304
1.29268
1.29259
1.29293
1.29307
1.29308
1.29307
1.29305
1.29303
1.29303
1.29305
1.29307
1.29308
1.2931
1.29311
1.29311
1.29311
1.29311
1.29309
1.29301
1.29265
1.29254
1.29287
1.29306
1.29308
1.29308
1.29307
1.29305
1.29305
1.29306
1.29307
1.29309
1.2931
1.29311
1.29312
1.29311
1.29311
1.2931
1.29299
1.29263
1.29252
1.29279
1.29306
1.29308
1.29309
1.29308
1.29307
1.29306
1.29306
1.29307
1.29308
1.2931
1.2931
1.29311
1.29311
1.29311
1.2931
1.29294
1.29262
1.29251
1.29281
1.29305
1.29308
1.29309
1.29309
1.29309
1.29308
1.29308
1.29309
1.2931
1.29311
1.29311
1.29312
1.29312
1.29312
1.2931
1.29293
1.29263
1.29253
1.29252
1.29305
1.29308
1.2931
1.2931
1.2931
1.2931
1.29309
1.29309
1.2931
1.29311
1.29311
1.29312
1.29312
1.29313
1.29301
1.29273
1.29258
1.29253
1.29248
)
;

boundaryField
{
    leftWall
    {
        type            calculated;
        value           nonuniform List<scalar> 
50
(
1.30036
1.2996
1.29884
1.29807
1.29729
1.29652
1.29574
1.29499
1.29397
1.29335
1.29327
1.29322
1.2932
1.2932
1.2932
1.29319
1.29319
1.29319
1.29319
1.29319
1.29319
1.29318
1.29318
1.29318
1.29318
1.29317
1.29317
1.29316
1.29314
1.29313
1.29311
1.2931
1.29309
1.29308
1.29308
1.29307
1.29307
1.29307
1.29307
1.29308
1.29308
1.29308
1.29309
1.29309
1.29309
1.29309
1.2931
1.2931
1.29311
1.29311
)
;
    }
    rightWall
    {
        type            calculated;
        value           nonuniform List<scalar> 
50
(
1.30631
1.30323
1.30221
1.29895
1.29693
1.29425
1.29232
1.291
1.2906
1.29059
1.29062
1.29063
1.29065
1.29079
1.29105
1.29177
1.29287
1.29415
1.29426
1.29372
1.29278
1.29307
1.29275
1.29302
1.29288
1.29312
1.29306
1.29298
1.2929
1.29308
1.29303
1.29304
1.29308
1.29309
1.29289
1.29291
1.29296
1.29302
1.29305
1.29308
1.2931
1.29308
1.29303
1.29298
1.29293
1.29287
1.29279
1.29281
1.29252
1.29248
)
;
    }
    lowerWall
    {
        type            calculated;
        value           nonuniform List<scalar> 
62
(
1.30073
1.30075
1.30079
1.30084
1.30092
1.30102
1.30114
1.30128
1.30145
1.30165
1.30186
1.30212
1.30236
1.30265
1.30291
1.3032
1.30344
1.30371
1.30389
1.30411
1.30422
1.30435
1.30438
1.30401
1.30323
1.30255
1.30174
1.30111
1.30029
1.29965
1.29888
1.29824
1.29816
1.29809
1.29762
1.2992
1.29574
1.29458
1.29452
1.29466
1.2951
1.29651
1.29627
1.2993
1.29506
1.2954
1.29504
1.29692
1.30072
1.3025
1.29687
1.29266
1.29195
1.29172
1.29173
1.29182
1.29196
1.29196
1.29235
1.29351
1.29877
1.30659
)
;
    }
    atmosphere
    {
        type            calculated;
        value           nonuniform List<scalar> 
46
(
1.2932
1.2932
1.2932
1.2932
1.2932
1.2932
1.2932
1.29321
1.29321
1.29321
1.29321
1.29321
1.29322
1.29322
1.29323
1.29325
1.29328
1.29328
1.2932
1.29304
1.29295
1.29294
1.29297
1.29303
1.29306
1.29309
1.29312
1.29315
1.29318
1.2932
1.2932
1.2932
1.2932
1.2932
1.2932
1.2932
1.29321
1.29321
1.29322
1.29322
1.29322
1.29311
1.29283
1.29269
1.29261
1.29263
)
;
    }
    defaultFaces
    {
        type            empty;
    }
}


// ************************************************************************* //
