/*--------------------------------*- C++ -*----------------------------------*\
| =========                 |                                                 |
| \\      /  F ield         | OpenFOAM: The Open Source CFD Toolbox           |
|  \\    /   O peration     | Version:  2012                                  |
|   \\  /    A nd           | Website:  www.openfoam.com                      |
|    \\/     M anipulation  |                                                 |
\*---------------------------------------------------------------------------*/
FoamFile
{
    version     2.0;
    format      ascii;
    class       volScalarField;
    location    "0.57";
    object      volumeFraction1;
}
// * * * * * * * * * * * * * * * * * * * * * * * * * * * * * * * * * * * * * //

dimensions      [0 0 0 0 0 0 0];


internalField   nonuniform List<scalar> 
2268
(
1
1
1
1
1
1
1
1
1
1
1
1
1
1
1
1
1
1
1
1
1
1
0.999758
1
1
1
1
1
1
1
1
1
1
1
1
1
1
1
1
1
1
1
1
1
1
0.999704
1
1
1
1
1
1
1
1
1
1
1
1
1
1
1
1
1
1
1
1
1
1
0.999704
1
1
1
1
1
1
1
1
1
1
1
1
1
1
1
1
1
1
1
1
1
1
0.999704
1
1
1
1
1
1
1
1
1
1
1
1
1
1
1
1
1
1
1
1
1
1
0.999925
1
1
1
1
1
1
1
1
1
1
1
1
1
1
1
1
1
1
1
1
1
1
1
1
1
1
1
1
1
1
1
1
1
1
1
1
1
1
1
1
1
1
1
1
1
1
0.997867
0.997843
0.998151
0.998521
0.998891
0.999172
0.999543
0.99976
0.999908
0.999979
0.999996
1
1
1
1
1
1
1
1
1
1
1
1
0.265453
0.239962
0.308402
0.487363
0.539169
0.544698
0.610449
0.714546
0.719371
0.719348
0.717272
0.716579
0.711778
0.718176
0.742379
0.742358
0.742431
0.742358
0.742431
0.205314
2.94707e-20
0.00452677
0.0031906
0.0118922
0.0119353
0.259402
0.508428
0.427979
0.283495
0.262425
0.341745
0.526135
0.638196
0.659252
0.640222
0.638901
0.742482
0.742358
0.255019
3.95671e-21
4.62145e-06
0.0030636
0.0828842
0.279141
0.0980607
0.104796
0.0840938
0.000897989
0.0008811
0.0206617
0.0702801
0.0975367
0.0978566
0.0831776
0.100385
0.411583
0.6906
0.259167
1.09188e-10
1.04219e-08
1.51829e-27
0.366608
0.919028
0.498011
0.0782847
0.00925444
0.00478479
0.000806332
2.86502e-05
1.20747e-05
1.27076e-10
1.27079e-10
1.27076e-10
0.0050993
0.141247
0.439603
0.225002
0.000129637
3.22601e-10
9.80038e-27
0.475501
0.992793
0.907497
0.380311
0.0380908
0.00491071
0.000601934
8.47958e-07
1.27076e-10
1.27079e-10
5.98444e-10
6.8219e-06
0.00159495
0.114558
0.770439
0.029748
5.7505e-11
5.75038e-11
1.44298e-20
0.545774
0.992795
0.985615
0.525642
0.0290155
0.00154586
0.000725046
1.01042e-05
1.27079e-10
1.59788e-10
4.56366e-09
3.37201e-07
0.000448272
0.0899844
0.774447
3.25961e-05
4.92867e-07
4.54357e-14
0.0123748
0.761503
0.996633
0.902
0.350444
0.0208074
0.000288175
0.000471862
4.24421e-05
3.64192e-09
1.01244e-10
1.02656e-09
3.42712e-10
3.65101e-05
0.0227838
0.774456
4.54355e-14
4.54357e-14
4.54355e-14
0.248656
0.913987
0.996871
0.757941
0.126094
0.00462674
0.000102687
0.0001216
0.000112212
2.04593e-06
6.40401e-11
1.12644e-10
4.76876e-10
4.76867e-10
0.00564127
0.73408
0.725111
0.72797
0.741796
0.760495
0.785018
0.811519
0.850108
0.884765
0.924757
0.961938
0.983991
0.993608
0.999578
1
1
1
1
1
1
1
1
1
1
0.054711
0.0592257
0.065864
0.0754002
0.0917844
0.113318
0.146249
0.184938
0.244375
0.327131
0.45133
0.606527
0.765822
0.907728
1
1
1
1
1
1
1
1
1
-1.39617e-37
2.41807e-35
5.91493e-35
1.66493e-33
-7.24306e-32
-1.94492e-31
-1.85031e-32
-4.50278e-32
-6.41298e-33
-5.96028e-31
1.94919e-21
0.0178007
0.0667399
0.162015
0.32339
0.548473
0.818848
0.994678
1
1
1
1
1
2.73747e-18
1.28347e-16
3.76574e-15
6.5381e-14
7.42983e-13
6.01134e-12
9.1119e-12
6.439e-12
2.98253e-12
4.36651e-11
1.81946e-09
3.7517e-22
9.35377e-23
0.00157276
0.0099886
0.0428641
0.112258
0.266739
0.513716
0.778374
0.94665
0.982389
0.997847
6.30298e-18
3.1759e-16
9.27072e-15
1.6197e-13
1.98366e-12
1.59444e-11
2.7407e-11
4.32197e-11
3.27147e-11
1.73186e-12
1.28226e-08
1.21724e-07
0
-3.48287e-27
-5.59822e-25
1.29915e-05
9.51335e-05
0.00891657
0.0403108
0.065624
0.144918
0.250339
0.413974
5.82704e-18
3.0798e-16
9.16888e-15
1.62818e-13
2.11149e-12
1.81381e-11
3.18825e-11
8.02688e-11
1.16955e-10
1.23889e-11
1.33852e-08
1.16051e-06
1.67068e-06
2.10551e-06
2.08087e-06
4.88897e-07
2.97112e-08
1.1971e-12
1.1971e-12
1.1971e-12
1.1971e-12
1.1971e-12
1.1971e-12
4.57785e-18
2.38599e-16
6.71362e-15
1.08273e-13
1.26643e-12
1.34581e-11
1.78708e-11
8.83549e-11
3.69049e-10
2.53537e-10
2.5354e-10
1.10059e-06
2.1185e-06
2.10551e-06
1.00226e-06
1.3156e-07
1.52808e-08
8.7736e-09
4.28483e-09
3.34383e-08
2.19293e-06
5.28793e-07
5.45277e-09
2.62839e-18
1.28048e-16
3.492e-15
5.3921e-14
6.01713e-13
6.64788e-12
6.54819e-12
9.45156e-11
6.68709e-10
2.32475e-09
4.82487e-08
2.0705e-10
1.61227e-07
1.30711e-11
1.30688e-11
6.43367e-09
3.15697e-08
3.47283e-08
1.35259e-08
1.95953e-08
1.42258e-07
3.1746e-08
1.54225e-07
1.11318e-18
5.1127e-17
1.34649e-15
2.00316e-14
1.9721e-13
2.37695e-12
1.45668e-12
6.7044e-11
7.98253e-10
3.48374e-09
1.83647e-09
2.07052e-10
7.3306e-11
9.3475e-11
6.58697e-11
6.58685e-11
2.35307e-08
3.47289e-08
3.15113e-08
1.83481e-08
2.13765e-09
1.10397e-10
1.11934e-09
4.08131e-19
1.80289e-17
4.62785e-16
6.72647e-15
6.40256e-14
7.4292e-13
3.76816e-13
5.70672e-11
4.32611e-10
2.18009e-09
1.34174e-09
4.04943e-10
1.40667e-10
2.61795e-10
4.43098e-10
4.3164e-10
3.43989e-10
1.15992e-08
1.22763e-08
4.58046e-09
2.88627e-10
6.39306e-10
2.15771e-08
1.24465e-19
5.23836e-18
1.30058e-16
1.82909e-15
1.69698e-14
1.79625e-13
2.49581e-13
2.31463e-11
1.40721e-10
1.03685e-10
1.55781e-10
1.34532e-10
1.2664e-10
2.26424e-10
4.44188e-10
4.80082e-10
2.36849e-10
1.9046e-10
1.90445e-10
3.30563e-10
4.57379e-10
2.15311e-10
6.47104e-10
3.13485e-20
1.27743e-18
3.10661e-17
4.29688e-16
4.01184e-15
3.41033e-14
1.51762e-13
5.30268e-12
2.44907e-11
2.74896e-11
3.3988e-11
3.64626e-11
3.98098e-11
5.20043e-11
1.28921e-10
2.47686e-10
2.70278e-10
2.28114e-10
1.77959e-10
1.75088e-10
1.85348e-10
1.42208e-10
7.40811e-11
6.43528e-21
2.51136e-19
5.94005e-18
8.05932e-17
7.62367e-16
5.83173e-15
4.82806e-14
9.009e-13
2.66798e-12
5.53383e-12
8.00565e-12
8.25862e-12
8.80982e-12
1.05674e-11
1.64362e-11
3.16085e-11
7.16392e-11
1.26454e-10
1.59346e-10
1.64864e-10
1.54543e-10
1.12145e-10
6.40903e-11
1.06671e-21
4.08117e-20
9.57301e-19
1.303e-17
1.27366e-16
9.63345e-16
1.24651e-14
1.02695e-13
3.53345e-13
7.94574e-13
1.14485e-12
1.21423e-12
1.3381e-12
1.64934e-12
2.55471e-12
4.57769e-12
9.21178e-12
1.77278e-11
3.29449e-11
3.96338e-11
4.45244e-11
3.96326e-11
3.1995e-11
1.40337e-22
5.25168e-21
1.22721e-19
1.69486e-18
1.73078e-17
1.34909e-16
2.262e-15
1.01426e-14
2.97074e-14
6.28374e-14
8.94605e-14
1.04517e-13
1.31969e-13
2.00615e-13
3.77131e-13
7.0539e-13
1.2527e-12
1.96551e-12
3.21102e-12
4.50564e-12
6.4101e-12
7.52655e-12
8.04114e-12
1.43438e-23
5.37158e-22
1.27703e-20
1.82763e-19
1.97261e-18
1.5906e-17
2.74703e-16
1.02741e-15
2.29987e-15
3.07203e-15
3.77099e-15
5.09498e-15
9.4595e-15
2.15519e-14
5.00862e-14
9.87994e-14
1.69341e-13
2.47221e-13
3.73053e-13
5.43597e-13
8.62523e-13
1.22688e-12
1.64416e-12
1.10521e-24
4.21276e-23
1.03784e-21
1.56694e-20
1.79703e-19
1.47761e-18
2.08811e-17
8.5753e-17
1.89088e-16
2.35888e-16
2.81496e-16
4.11439e-16
9.08308e-16
2.34324e-15
5.7196e-15
1.15433e-14
1.98899e-14
2.91815e-14
4.40732e-14
6.54348e-14
1.09529e-13
1.75112e-13
2.78768e-13
6.15034e-26
2.47114e-24
6.48842e-23
1.05119e-21
1.2756e-20
1.05052e-19
9.67431e-19
3.95736e-18
9.71831e-18
1.46241e-17
2.01328e-17
3.341e-17
7.59747e-17
1.89528e-16
4.42061e-16
8.83555e-16
1.54709e-15
2.36776e-15
3.83787e-15
6.19237e-15
1.15131e-14
2.0802e-14
3.86375e-14
2.32178e-27
1.02403e-25
2.94696e-24
5.16231e-23
6.53963e-22
5.33146e-21
3.30348e-20
1.10756e-19
2.3264e-19
3.96174e-19
7.00951e-19
1.58939e-18
4.16852e-18
1.03128e-17
2.21692e-17
4.23423e-17
7.42968e-17
1.19677e-16
2.1805e-16
4.07101e-16
9.09191e-16
1.94385e-15
4.28708e-15
5.45222e-29
2.80097e-27
9.08002e-26
1.72031e-24
2.24369e-23
1.78407e-22
9.46992e-22
2.8098e-21
6.00481e-21
1.19655e-20
2.7037e-20
7.16775e-20
1.87609e-19
4.26723e-19
7.93004e-19
1.26105e-18
2.12781e-18
3.66121e-18
7.72605e-18
1.7624e-17
5.08892e-17
1.36452e-16
3.72298e-16
7.40019e-31
4.26305e-29
1.5086e-27
3.00031e-26
3.96327e-25
3.08118e-24
1.38485e-23
4.37858e-23
1.1859e-22
3.2939e-22
9.41198e-22
2.64358e-21
6.54757e-21
1.35352e-20
2.09023e-20
2.6965e-20
4.09187e-20
7.33386e-20
1.74959e-19
4.96627e-19
1.95855e-18
6.9738e-18
2.5221e-17
9.4784e-33
3.79469e-31
1.00046e-29
1.73581e-28
2.49777e-27
2.52215e-26
1.50066e-25
6.79238e-25
2.63933e-24
9.31409e-24
2.81781e-23
7.51214e-23
1.7086e-22
3.26391e-22
4.91294e-22
6.30931e-22
7.70795e-22
1.22997e-21
2.78023e-21
9.11738e-21
5.06025e-20
2.61318e-19
1.5743e-18
2.63866e-34
1.10127e-32
2.91602e-31
4.97039e-30
6.8105e-29
6.71931e-28
4.05122e-27
1.84828e-26
7.01236e-26
2.34722e-25
6.53503e-25
1.58722e-24
3.33232e-24
6.08855e-24
9.20876e-24
1.20421e-23
1.42469e-23
1.68841e-23
2.99913e-23
1.02033e-22
9.35402e-22
1.25141e-20
2.43208e-19
3.60521e-36
1.57187e-34
4.11913e-33
6.61572e-32
7.67901e-31
6.44639e-30
4.23742e-29
2.21223e-28
9.11629e-28
3.0997e-27
8.39352e-27
1.97307e-26
4.08622e-26
7.62064e-26
1.21628e-25
1.66987e-25
2.02966e-25
2.18535e-25
2.6779e-25
1.12248e-24
4.67833e-23
2.2994e-21
7.19831e-20
1.05379e-41
3.22801e-40
5.76647e-39
6.26186e-38
4.58521e-37
1.77013e-36
5.25576e-36
2.48843e-35
1.36155e-34
6.13199e-34
2.07469e-33
5.86435e-33
1.41852e-32
2.83577e-32
1.17623e-31
7.25176e-30
5.97588e-28
2.71446e-26
8.84768e-25
1.14979e-23
8.47716e-23
7.67479e-22
1.71172e-20
5.33445e-46
2.2772e-44
5.87328e-43
1.01384e-41
1.38461e-40
1.73296e-39
3.74737e-38
5.28718e-37
3.72798e-36
1.76016e-35
5.89483e-35
1.63421e-34
5.36623e-34
2.13578e-32
3.36899e-30
3.57022e-28
2.97369e-26
1.44909e-24
5.10642e-23
8.42948e-22
9.39794e-21
4.0012e-20
6.26833e-20
2.05858e-49
8.8295e-48
2.16798e-46
3.38603e-45
3.75734e-44
3.13179e-43
2.01744e-42
1.05758e-41
4.48046e-41
3.06445e-40
5.26184e-38
1.68733e-35
4.67627e-33
9.00474e-31
1.39367e-28
1.44308e-26
1.16001e-24
5.73605e-23
2.05228e-21
3.87244e-20
5.54359e-19
3.37471e-18
9.11073e-18
4.4365e-55
2.58193e-53
8.54917e-52
1.84022e-50
2.85012e-49
3.47928e-48
6.10529e-47
1.82176e-44
1.1554e-41
5.75665e-39
2.4136e-36
7.42869e-34
1.8988e-31
3.44147e-29
4.98491e-27
4.91244e-25
3.70991e-23
1.78465e-21
6.20745e-20
1.25689e-18
2.17287e-17
1.51413e-16
5.0681e-16
1.1088e-58
7.24632e-57
2.6675e-55
7.93724e-54
1.63822e-51
1.64828e-48
1.50047e-45
1.04442e-42
6.15468e-40
2.78016e-37
1.0606e-34
3.01251e-32
7.02785e-30
1.17685e-27
1.55803e-25
1.42424e-23
9.87699e-22
4.4787e-20
1.47398e-18
3.11565e-17
6.54472e-16
4.47542e-15
1.48658e-14
5.26067e-63
1.62233e-59
4.83383e-56
9.14411e-53
1.25407e-49
1.26669e-46
1.02628e-43
6.41882e-41
3.35621e-38
1.36034e-35
4.62181e-33
1.18215e-30
2.45771e-28
3.71036e-26
4.38274e-24
3.6233e-22
2.25556e-20
9.39208e-19
2.87184e-17
6.33225e-16
1.6197e-14
9.39863e-14
2.71424e-13
2.97717e-61
1.76726e-57
5.00352e-54
8.88151e-51
1.12523e-47
1.04798e-44
7.63901e-42
4.27744e-39
1.95258e-36
6.93775e-34
2.04856e-31
4.60301e-29
8.31096e-27
1.1016e-24
1.13095e-22
8.21709e-21
4.46932e-19
1.66779e-17
4.70053e-16
1.10763e-14
3.29678e-13
1.43155e-12
3.27705e-12
3.4599e-59
1.96157e-55
5.28772e-52
8.90754e-49
1.0524e-45
9.10875e-43
6.02415e-40
3.04289e-37
1.2142e-34
3.74414e-32
9.41192e-30
1.8245e-27
2.79526e-25
3.174e-23
2.76785e-21
1.72424e-19
8.00245e-18
2.62413e-16
6.81953e-15
1.74872e-13
5.42329e-12
1.58125e-11
2.59648e-11
3.02423e-57
1.66199e-53
4.32967e-50
7.02731e-47
7.97121e-44
6.60049e-41
4.13903e-38
1.97064e-35
7.27417e-33
2.05188e-30
4.50239e-28
7.47218e-26
9.5462e-24
9.05698e-22
6.55683e-20
3.421e-18
1.3244e-16
3.75965e-15
9.06564e-14
2.48825e-12
7.02314e-11
1.25574e-10
1.22491e-10
2.41768e-55
1.28387e-51
3.22812e-48
5.03941e-45
5.45761e-42
4.29683e-39
2.53491e-36
1.12848e-33
3.83491e-31
9.88583e-29
1.94451e-26
2.86957e-24
3.1795e-22
2.58352e-20
1.54339e-18
6.65347e-17
2.12298e-15
5.21432e-14
1.17321e-12
3.31596e-11
8.2295e-10
1.0778e-09
5.16247e-10
1.05945e-53
5.43908e-50
1.31982e-46
1.98448e-43
2.06432e-40
1.55604e-37
8.75779e-35
3.70064e-32
1.18347e-29
2.84089e-27
5.13349e-25
6.88314e-23
6.82506e-21
4.90865e-19
2.55774e-17
9.57387e-16
2.65315e-14
5.83402e-13
1.19672e-11
2.72549e-10
6.38437e-09
2.50556e-08
4.42525e-08
4.64966e-52
2.29911e-48
5.32753e-45
7.58791e-42
7.39227e-39
5.17841e-36
2.68302e-33
1.03938e-30
3.02383e-28
6.57066e-26
1.06239e-23
1.26429e-21
1.09869e-19
6.86473e-18
3.06563e-16
9.69854e-15
2.19467e-13
3.58645e-12
4.25557e-11
4.11056e-10
1.0273e-08
1.74084e-07
1.47237e-06
6.141e-51
2.97993e-47
6.76733e-44
9.41278e-41
8.92738e-38
6.08261e-35
3.07634e-32
1.16514e-29
3.30322e-27
6.95092e-25
1.07534e-22
1.20257e-20
9.61038e-19
5.38812e-17
2.09344e-15
5.52385e-14
9.67954e-13
1.08157e-11
7.14373e-11
2.72985e-10
9.8379e-09
9.03898e-07
7.15298e-06
1.55152e-49
6.92245e-46
1.43596e-42
1.82088e-39
1.56739e-36
9.62561e-34
4.329e-31
1.44246e-28
3.57391e-26
6.5594e-24
8.8432e-22
8.63187e-20
6.01053e-18
2.92615e-16
9.74643e-15
2.1677e-13
3.11939e-12
2.73481e-11
1.2752e-10
2.789e-10
1.91398e-08
4.10304e-06
8.47847e-06
2.93749e-49
1.24696e-45
2.51641e-42
3.17781e-39
2.78904e-36
1.77957e-33
8.45882e-31
3.01026e-28
8.02782e-26
1.58752e-23
2.30195e-21
2.39767e-19
1.75053e-17
8.66559e-16
2.79444e-14
5.7857e-13
7.59826e-12
5.9181e-11
1.97286e-10
2.64981e-10
1.69151e-08
4.36357e-06
8.47826e-06
3.38495e-48
1.27244e-44
2.28342e-41
2.55436e-38
1.97189e-35
1.10189e-32
4.57233e-30
1.42642e-27
3.36012e-25
5.96667e-23
7.92149e-21
7.76419e-19
5.49703e-17
2.73367e-15
9.19748e-14
1.99497e-12
2.65511e-11
2.08999e-10
5.4744e-10
8.52216e-10
9.35493e-08
6.98278e-07
7.11001e-07
3.38416e-48
8.85071e-45
1.30542e-41
1.20107e-38
7.71423e-36
3.65322e-33
1.33418e-30
3.86035e-28
9.11619e-26
1.77149e-23
2.82175e-21
3.58699e-19
3.50739e-17
2.52277e-15
1.25366e-13
4.03564e-12
7.88371e-11
5.30391e-10
5.72886e-10
6.4934e-11
3.70203e-10
-1.56929e-29
2.20279e-30
4.71297e-47
1.37786e-43
1.88462e-40
1.58521e-37
9.09354e-35
3.74244e-32
1.13625e-29
2.5878e-27
4.46639e-25
5.89199e-23
5.97954e-21
4.70981e-19
2.89725e-17
1.39944e-15
5.23358e-14
1.42748e-12
2.58904e-11
4.34388e-10
2.80496e-08
2.14021e-07
2.27825e-07
-4.49088e-30
-3.3079e-29
1
0.999883
0.999848
0.992797
1
0.999962
0.999902
0.999838
1
1
0.999993
0.9999
0.998508
0.998273
0.998206
0.998227
0.536872
0.613727
0.649919
0.696873
1.1971e-12
1.1971e-12
1.1971e-12
1.1971e-12
6.07837e-09
1.1971e-12
1.1971e-12
2.10103e-12
2.85821e-07
2.84338e-07
1.57649e-07
4.8921e-08
8.19613e-09
2.32665e-07
5.87885e-06
6.17292e-06
3.10976e-08
1.27585e-07
3.32566e-07
6.55519e-07
1.30277e-09
2.55457e-09
1.14842e-10
8.17009e-09
3.18576e-11
3.18601e-11
7.58875e-11
1.14474e-07
3.5491e-11
6.1668e-11
8.75188e-10
3.35655e-08
2.37218e-11
2.91337e-11
2.27177e-10
1.06392e-09
7.79167e-12
7.57016e-12
2.05596e-11
5.64486e-11
1.87462e-12
1.99048e-12
2.85427e-12
6.18785e-12
3.68985e-13
4.34927e-13
5.50274e-13
8.71549e-13
5.79163e-14
7.5489e-14
9.98381e-14
1.42655e-13
7.19174e-15
1.03182e-14
1.48128e-14
2.17025e-14
7.00071e-16
1.10589e-15
1.744e-15
2.7478e-15
5.38598e-17
9.44235e-17
1.65326e-16
2.86695e-16
3.92905e-18
7.71938e-18
1.51804e-17
2.94142e-17
6.72404e-19
1.38597e-18
2.89311e-18
5.96872e-18
2.0207e-19
4.20738e-19
8.97018e-19
1.908e-18
4.75943e-20
1.00091e-19
2.21708e-19
4.94003e-19
8.41102e-20
8.98975e-20
9.73998e-20
1.24759e-19
1.10202e-17
9.83743e-18
9.5881e-18
8.61377e-18
8.16407e-16
9.98944e-16
1.23513e-15
1.10482e-15
2.60723e-14
3.72417e-14
5.80447e-14
8.24623e-14
4.86264e-13
7.57783e-13
1.38968e-12
2.29083e-12
5.82947e-12
9.67329e-12
1.95832e-11
3.38904e-11
4.45151e-11
7.56727e-11
1.60368e-10
2.79871e-10
1.86076e-10
3.07378e-10
7.29754e-10
1.18624e-09
6.84743e-10
1.00084e-09
2.49874e-09
1.85623e-09
1.94928e-07
1.19504e-07
5.37225e-08
9.61505e-09
6.11431e-06
4.10394e-06
9.56035e-07
2.98428e-07
8.47631e-06
8.47492e-06
5.51985e-06
1.15547e-06
8.47823e-06
7.95707e-06
4.1774e-06
1.15714e-06
3.34664e-06
2.87703e-30
2.90371e-24
8.53749e-08
1.79574e-13
1.14099e-12
4.03218e-12
4.02971e-12
9.53678e-13
8.00635e-12
1.36527e-11
9.83039e-12
-2.39421e-29
3.49319e-35
1.40242e-17
3.29235e-16
0.487888
0.141953
0.219389
0.69754
0.990248
0.996868
0.575456
0.033026
0.000121304
2.17453e-05
1.71603e-06
4.57413e-05
1.10123e-06
6.40375e-11
6.40397e-11
1.37987e-09
4.61478e-09
1.45066e-20
0.697909
0.98622
0.965853
0.995083
1
1
0.996867
0.306313
0.00578908
3.32293e-06
1.07992e-06
3.18951e-08
4.74642e-09
9.53605e-08
8.1932e-11
6.40375e-11
1.81535e-09
3.63661e-09
4.69515e-20
0.740153
0.999985
0.999997
1
1
1
0.952047
0.159606
0.000539418
1.6332e-07
1.42498e-08
2.08213e-09
8.39947e-10
1.05661e-09
3.55429e-10
1.15859e-10
1.86127e-09
2.81001e-16
0.00564469
0.842969
0.998853
0.998693
0.998934
0.999668
1
0.939044
0.104455
2.74447e-16
3.07579e-08
1.48942e-09
8.40054e-10
8.39931e-10
7.0941e-10
3.31703e-10
2.04888e-10
1.72555e-09
2.80201e-16
0.0824553
0.882488
0.75515
0.788099
0.842678
0.946453
0.997552
0.945237
0.167501
2.7467e-16
1.85908e-11
1.73751e-09
9.19718e-10
9.84956e-10
7.89771e-10
2.76096e-10
1.59947e-10
1.17704e-09
2.81001e-16
0.164548
0.906245
0.0266238
0.0623348
0.146378
0.432536
0.890584
0.959171
0.401507
2.74442e-16
9.71418e-10
1.78663e-09
1.14496e-09
1.04202e-09
5.64012e-10
2.62512e-10
2.81584e-10
6.31658e-10
2.80201e-16
0.202828
0.921029
1.1971e-12
1.1971e-12
0.000291294
0.0192945
0.397439
0.959171
0.626179
2.74669e-16
3.82552e-10
1.33712e-09
1.12643e-09
8.26872e-10
3.38127e-10
2.77623e-10
4.14029e-10
4.93186e-10
2.80995e-16
0.223174
0.931897
1.1971e-12
1.1971e-12
1.1971e-12
1.1971e-12
0.0274562
0.57467
0.822328
0.286821
3.74337e-10
3.743e-10
6.46197e-10
3.22054e-10
1.89792e-10
1.23915e-10
4.94481e-10
2.58062e-06
2.802e-16
0.341534
0.958653
5.89634e-06
1.12431e-06
3.33756e-06
1.22586e-05
0.00145303
0.110793
0.747822
0.704648
0.190214
2.74178e-16
2.74095e-16
2.74178e-16
2.74095e-16
9.89207e-12
9.33946e-11
9.3401e-11
0.00652885
0.688074
0.987485
1.4659e-06
5.5235e-06
3.01918e-05
2.79823e-05
5.98905e-05
0.00344551
0.176447
0.711884
0.678168
0.202101
0.0171615
0.0365296
0.0639648
2.73705e-16
2.74062e-16
0.00662544
0.439489
0.978715
0.992526
1.08003e-05
2.92443e-05
2.71459e-05
3.86891e-05
0.00119312
0.00653619
0.0238944
0.37765
0.681944
0.632196
0.552471
0.638477
0.639052
0.609154
0.587983
0.716093
0.906035
0.923713
0.981559
5.91492e-06
1.25898e-05
3.0651e-06
4.81272e-06
0.00931513
0.150741
0.239651
0.239641
0.355051
0.586075
0.620106
0.46814
0.342935
0.36202
0.395158
0.344457
0.221023
0.429145
0.949749
1.29418e-07
1.08264e-08
2.00624e-08
1.10859e-06
0.00503331
0.231551
0.611631
0.703875
0.70395
0.703961
0.688688
0.370332
0.244984
0.0981931
0.0904068
0.0904074
0.216127
0.622492
0.982696
1.368e-10
1.5671e-10
6.29416e-09
3.49149e-05
0.00012786
5.93207e-08
5.93238e-08
0.0698622
0.446637
0.668234
0.770705
0.839556
0.839489
0.5914
0.532213
0.609053
0.823558
0.932638
0.990044
2.52711e-11
1.73824e-10
1.20559e-10
1.36874e-05
4.92029e-05
1.18758e-05
5.93906e-08
3.84079e-10
3.84079e-10
3.84079e-10
0.0271519
0.371421
0.678524
0.913952
0.98993
0.98993
0.98993
0.98993
0.975862
6.7307e-12
1.21607e-10
1.2056e-10
1.04776e-06
2.31929e-06
2.85322e-05
3.02261e-05
3.84079e-10
4.59925e-07
2.97652e-07
3.84079e-10
3.84079e-10
3.84079e-10
0.132006
0.486114
0.827049
0.989208
0.989927
0.962903
1.37271e-12
3.23797e-11
1.92073e-10
8.98625e-09
3.37473e-10
1.98658e-05
4.61812e-05
4.55053e-05
1.59092e-05
9.42742e-06
1.22335e-05
3.00562e-06
3.84079e-10
3.84079e-10
3.84079e-10
0.290994
0.875082
0.946421
0.966698
2.54224e-13
5.44854e-12
1.2887e-10
3.37478e-10
3.3747e-10
8.72736e-07
2.74391e-05
4.6071e-05
2.95713e-05
1.53471e-05
1.67471e-05
1.3371e-05
3.84079e-10
1.32088e-05
0.00340058
0.0457972
0.559823
0.978238
0.978231
4.28593e-14
7.37051e-13
2.97136e-11
1.77601e-10
5.06209e-10
3.99227e-09
9.67735e-07
1.13123e-05
6.22241e-06
3.34362e-08
1.21471e-06
2.37026e-10
8.79662e-07
3.1153e-05
0.000153528
0.0010756
0.146151
0.819368
0.978238
6.23566e-15
8.41857e-14
4.18253e-12
5.15452e-11
2.90908e-10
2.38925e-10
5.27543e-09
4.75993e-09
7.84312e-09
1.52022e-09
2.37026e-10
2.37026e-10
1.05439e-07
5.59439e-06
2.9255e-08
1.84548e-06
0.00486891
0.285407
0.582467
1.38818e-15
1.26017e-14
5.17126e-13
1.00462e-11
5.99255e-11
1.3975e-10
1.12896e-10
7.23539e-11
7.59452e-11
1.55428e-10
2.72431e-10
4.49782e-10
2.37026e-10
2.37026e-10
1.04031e-07
3.20651e-05
0.00523876
0.037357
0.196445
7.8965e-16
7.32743e-15
1.02444e-13
1.7396e-12
1.23439e-11
4.39077e-11
5.49173e-11
7.16741e-11
1.03636e-10
2.01499e-10
4.47546e-10
5.85079e-10
3.8663e-10
2.37324e-10
1.9565e-06
7.48781e-05
2.40646e-05
0.00508515
0.123901
5.01415e-16
6.27495e-15
5.86233e-14
5.47362e-13
3.72798e-12
1.42495e-11
3.35466e-11
6.96265e-11
1.46487e-10
3.76692e-10
6.52157e-10
6.50214e-10
3.08538e-10
2.37026e-10
3.89026e-08
8.23478e-05
4.0227e-06
0.00413079
0.201408
1.79413e-16
4.15226e-15
3.71897e-14
3.0246e-13
1.96039e-12
8.4607e-12
2.67045e-11
7.00097e-11
1.92908e-10
5.06838e-10
6.58789e-10
5.24438e-10
2.37026e-10
2.37026e-10
2.08892e-07
3.64512e-05
3.99234e-06
2.91077e-21
0.201404
4.0899e-17
1.45959e-15
1.45173e-14
1.30964e-13
1.00115e-12
5.52927e-12
2.14654e-11
6.70011e-11
2.01453e-10
5.01118e-10
5.11435e-10
1.35084e-10
1.3242e-08
4.68507e-08
1.22754e-08
1.22747e-08
7.72754e-08
-6.38177e-22
0.110213
1.40557e-17
5.82363e-16
5.60564e-15
4.5174e-14
3.60907e-13
2.5161e-12
1.40782e-11
5.73275e-11
1.97875e-10
4.21823e-10
2.44088e-10
1.35333e-10
8.46573e-08
7.67656e-08
2.35124e-08
1.98662e-05
3.80481e-05
0.000375123
0.00137147
2.90857e-17
7.02653e-16
5.91524e-15
3.34671e-14
2.16217e-13
1.54447e-12
8.84532e-12
4.40352e-11
1.84615e-10
2.54344e-10
9.43141e-11
1.06442e-08
1.3071e-07
5.65055e-07
0.000324824
0.00687545
0.0183588
0.0485335
0.126763
1.29227e-15
2.96553e-15
1.21774e-14
4.76636e-14
2.25578e-13
1.38099e-12
7.09335e-12
3.36575e-11
1.43522e-10
1.40331e-10
9.43132e-11
8.07699e-08
1.32383e-07
4.31576e-07
0.000494751
0.0297687
0.155204
0.230902
0.234754
1.59134e-13
1.47284e-13
1.64117e-13
2.72998e-13
5.92907e-13
1.80645e-12
6.94283e-12
2.43357e-11
9.77161e-11
9.48718e-11
9.43141e-11
8.26446e-08
1.01665e-07
3.24136e-07
0.000544134
0.0346705
0.192209
0.234932
0.23474
6.11804e-12
8.24071e-12
7.13578e-12
4.89983e-12
5.63162e-12
8.64809e-12
1.41969e-11
2.63779e-11
5.07353e-11
6.7929e-11
9.16507e-10
2.69893e-08
2.99091e-08
8.56885e-08
0.00077008
0.00867502
0.0181459
0.234937
0.182567
1.26097e-10
1.56252e-10
1.99012e-10
9.27092e-11
5.63149e-12
5.63107e-12
1.10277e-11
2.70525e-11
3.37789e-11
9.25336e-11
2.80406e-09
4.0781e-09
1.69386e-09
2.32652e-05
0.00077152
3.27398e-11
3.27398e-11
0.0934629
0.182551
1.34242e-09
1.12436e-09
1.38923e-09
1.72405e-09
2.49491e-09
1.01986e-09
1.10958e-10
4.63319e-11
3.45355e-11
4.56385e-11
2.64597e-09
2.32124e-09
1.6845e-09
1.7249e-05
0.000408758
3.27398e-11
5.04478e-10
8.65675e-30
0.359828
2.70982e-09
6.53575e-09
6.84322e-09
8.99506e-09
1.07679e-08
9.95746e-09
3.9084e-09
7.17046e-10
4.59445e-11
3.58703e-11
7.51926e-10
1.68474e-09
1.6847e-09
2.36087e-05
0.000116533
3.27398e-11
3.36178e-07
-8.06467e-27
0.448167
1.85618e-09
4.83157e-07
6.73806e-07
2.65313e-07
3.48945e-09
3.48824e-09
3.48593e-09
2.69717e-09
1.49204e-09
3.88406e-09
1.53256e-09
1.84329e-09
1.6845e-09
3.26091e-05
1.31781e-05
3.48246e-07
2.16168e-06
8.24196e-26
0.448148
1.48562e-08
1.45132e-06
5.5719e-05
9.07504e-05
2.61809e-05
1.88637e-06
1.69158e-07
2.93172e-09
4.34534e-09
2.83118e-08
2.8557e-08
6.18546e-09
1.69386e-09
3.26086e-05
3.34945e-06
8.96916e-07
2.37663e-06
2.22017e-26
0.408593
2.476e-07
5.70439e-06
0.000125273
0.000183618
0.00017769
3.28452e-05
1.18128e-07
2.11897e-09
2.77727e-09
1.82466e-08
3.1158e-08
1.17167e-08
1.69405e-09
1.16017e-05
9.91847e-07
1.16982e-06
1.59649e-06
-7.49075e-27
0.302656
2.41579e-07
3.45939e-06
3.19561e-05
0.000183618
0.000183618
3.0872e-05
3.11693e-07
8.57939e-10
8.57945e-10
8.57674e-10
2.2637e-08
9.72887e-09
2.40856e-09
2.58132e-09
2.58114e-09
3.28e-06
-7.08188e-25
-1.79962e-27
0.258479
1.86649e-07
1.86641e-07
5.70825e-06
0.000137598
0.000183618
0.000113057
7.66365e-10
7.66393e-10
2.40668e-07
3.97666e-08
1.36853e-08
3.11676e-09
2.40867e-09
2.40836e-09
1.3023e-05
5.25376e-06
2.52491e-09
1.05125e-28
0.220249
2.50205e-07
1.86646e-07
1.13457e-06
3.33315e-05
0.000183618
0.000183618
4.6312e-05
5.14644e-06
3.69717e-07
3.89689e-07
3.20352e-08
2.41787e-09
2.40836e-09
5.24586e-06
1.68254e-05
5.23504e-06
5.8454e-09
1.18699e-27
0.175313
1.49294e-08
1.57928e-07
2.10335e-07
2.10376e-07
4.05013e-05
0.000160081
0.000154787
1.7284e-05
3.64786e-11
4.32498e-07
2.37778e-08
7.09933e-08
3.53895e-07
1.66543e-05
1.68253e-05
2.07477e-06
2.90615e-09
2.39061e-10
0.181725
7.96672e-33
-8.10313e-31
-3.31754e-25
7.32982e-07
2.86953e-06
2.68248e-05
5.35589e-05
1.60735e-05
3.64786e-11
3.56568e-07
7.86472e-09
1.25164e-06
2.58373e-06
1.6679e-05
1.02149e-05
3.83478e-07
9.55045e-10
1.13406e-27
0.118754
2.22824e-14
1.03673e-12
2.03954e-10
1.9517e-07
5.06311e-06
8.54472e-06
4.53621e-06
2.11733e-06
1.33985e-07
1.21489e-07
7.5853e-08
1.10451e-06
2.15724e-06
9.93269e-06
1.16228e-06
3.61928e-08
2.52368e-10
2.37634e-28
0.0189471
)
;

boundaryField
{
    leftWall
    {
        type            zeroGradient;
    }
    rightWall
    {
        type            zeroGradient;
    }
    lowerWall
    {
        type            zeroGradient;
    }
    atmosphere
    {
        type            inletOutlet;
        inletValue      uniform 0;
        value           nonuniform List<scalar> 
46
(
0
0
0
0
0
0
0
0
0
0
0
0
0
0
5.23358e-14
1.42748e-12
2.58904e-11
4.34388e-10
2.80496e-08
2.14021e-07
2.27825e-07
0
0
0
0
0
0
0
0
0
0
0
0
4.53621e-06
2.11733e-06
1.33985e-07
1.21489e-07
7.5853e-08
1.10451e-06
2.15724e-06
9.93269e-06
1.16228e-06
0
0
0
0.0189471
)
;
    }
    defaultFaces
    {
        type            empty;
    }
}


// ************************************************************************* //
