/*--------------------------------*- C++ -*----------------------------------*\
| =========                 |                                                 |
| \\      /  F ield         | OpenFOAM: The Open Source CFD Toolbox           |
|  \\    /   O peration     | Version:  2012                                  |
|   \\  /    A nd           | Website:  www.openfoam.com                      |
|    \\/     M anipulation  |                                                 |
\*---------------------------------------------------------------------------*/
FoamFile
{
    version     2.0;
    format      ascii;
    class       volScalarField;
    location    "0.07";
    object      maxKappa;
}
// * * * * * * * * * * * * * * * * * * * * * * * * * * * * * * * * * * * * * //

dimensions      [0 0 0 0 0 0 0];


internalField   nonuniform List<scalar> 
2268
(
9.65735e-07
1.88734e-06
2.85206e-06
3.8447e-06
4.89788e-06
6.00657e-06
7.21005e-06
8.5192e-06
9.97607e-06
1.16162e-05
1.34818e-05
1.5814e-05
1.87966e-05
2.18113e-05
3.4826e-05
0.000202105
0.000556467
0.000582203
0.000582203
0.000492845
0.000349718
0.000212898
0.000103892
1.1748e-06
1.99334e-06
2.92074e-06
3.89504e-06
4.93688e-06
6.03716e-06
7.23431e-06
8.5375e-06
9.98663e-06
1.16285e-05
1.34947e-05
1.57881e-05
1.85588e-05
2.4221e-05
7.67263e-05
0.000387035
0.000634497
0.000634497
0.000572451
0.000463944
0.000336541
0.000222165
0.000129455
1.48153e-06
2.18578e-06
3.05195e-06
3.99281e-06
5.01296e-06
6.09692e-06
7.28096e-06
8.5725e-06
1.00068e-05
1.16412e-05
1.35017e-05
1.57525e-05
1.83555e-05
3.14272e-05
0.000191647
0.00052418
0.000643313
0.000643313
0.000538874
0.000422779
0.000318089
0.000227503
0.000154053
1.83444e-06
2.44074e-06
3.23667e-06
4.13408e-06
5.12426e-06
6.18536e-06
7.35036e-06
8.62491e-06
1.00394e-05
1.16555e-05
1.34991e-05
1.56983e-05
1.81384e-05
3.97625e-05
0.000300709
0.000584844
0.000584844
0.000566513
0.000471949
0.000379074
0.000309583
0.000242382
0.000188044
2.20991e-06
2.73692e-06
3.46309e-06
4.31178e-06
5.26557e-06
6.29796e-06
7.43807e-06
8.68935e-06
1.00794e-05
1.16636e-05
1.34775e-05
1.56142e-05
1.94907e-05
6.27774e-05
0.000396713
0.000575088
0.000575088
0.000502995
0.000411908
0.000356498
0.000314866
0.000260835
0.000217331
2.59716e-06
3.06072e-06
3.72231e-06
4.52114e-06
5.4348e-06
6.4346e-06
7.54632e-06
8.76935e-06
1.01324e-05
1.16747e-05
1.34497e-05
1.55103e-05
2.3989e-05
0.000140998
0.000448975
0.000507495
0.000507495
0.000435672
0.000361645
0.000343675
0.000316429
0.000279144
0.000255375
2.98772e-06
3.40013e-06
4.00354e-06
4.75322e-06
5.62387e-06
6.58697e-06
7.66555e-06
8.85263e-06
1.0182e-05
1.16699e-05
1.33937e-05
1.53589e-05
2.82233e-05
0.000194527
0.000468912
0.000468912
0.000462291
0.000382568
0.000342566
0.000342566
0.000322404
0.000296433
0.00027782
3.37882e-06
3.74943e-06
4.30133e-06
5.00422e-06
5.83124e-06
6.75604e-06
7.8e-06
8.94842e-06
1.02439e-05
1.16802e-05
1.33512e-05
1.52155e-05
3.19444e-05
0.000239851
0.000457342
0.000457342
0.000400716
0.000332059
0.000337803
0.000337803
0.000325815
0.000331753
0.000331753
1.2796e-05
3.00807e-05
3.9972e-05
4.64891e-05
4.89768e-05
4.89768e-05
4.88204e-05
4.72191e-05
4.42398e-05
4.08641e-05
3.6887e-05
3.28965e-05
2.86832e-05
2.45533e-05
2.03623e-05
1.62598e-05
1.21562e-05
8.1207e-06
4.1426e-06
1.86643e-05
3.2029e-05
4.09419e-05
4.7e-05
4.93361e-05
4.93361e-05
4.90414e-05
4.73825e-05
4.43569e-05
4.09712e-05
3.69871e-05
3.29986e-05
2.87927e-05
2.46771e-05
2.0509e-05
1.6443e-05
1.24015e-05
8.49537e-06
4.90869e-06
2.03405e-05
3.58174e-05
4.35034e-05
4.89331e-05
5.06296e-05
5.06296e-05
4.9928e-05
4.79718e-05
4.47735e-05
4.12861e-05
3.72485e-05
3.32377e-05
2.90323e-05
2.4936e-05
2.08066e-05
1.68068e-05
1.28787e-05
9.19072e-06
6.06075e-06
2.99371e-05
4.08214e-05
4.62818e-05
5.04681e-05
5.16855e-05
5.16855e-05
5.05327e-05
4.84579e-05
4.51272e-05
4.16048e-05
3.75447e-05
3.35391e-05
2.93551e-05
2.52991e-05
2.1233e-05
1.73303e-05
1.35558e-05
1.01283e-05
7.40545e-06
3.22876e-05
4.87678e-05
5.15617e-05
5.43382e-05
5.43382e-05
5.41792e-05
5.22251e-05
4.96058e-05
4.59378e-05
4.22201e-05
3.80573e-05
3.40081e-05
2.98235e-05
2.58012e-05
2.18035e-05
1.80117e-05
1.44101e-05
1.1247e-05
8.86294e-06
4.57836e-05
5.62578e-05
5.62578e-05
5.68131e-05
5.68131e-05
5.59641e-05
5.3238e-05
5.04006e-05
4.65248e-05
4.27376e-05
3.85381e-05
3.44948e-05
3.03431e-05
2.63806e-05
2.2474e-05
1.8813e-05
1.53976e-05
1.24879e-05
1.0383e-05
4.99394e-05
7.17906e-05
7.17906e-05
6.52513e-05
6.25239e-05
5.95134e-05
5.55984e-05
5.19845e-05
4.7666e-05
4.36145e-05
3.92789e-05
3.51749e-05
3.10208e-05
2.70993e-05
2.32764e-05
1.97434e-05
1.65081e-05
1.38259e-05
1.19476e-05
8.89943e-05
8.89943e-05
8.57526e-05
7.46256e-05
6.60564e-05
6.19986e-05
5.70226e-05
5.30491e-05
4.8465e-05
4.43062e-05
3.9924e-05
3.58247e-05
3.17118e-05
2.78617e-05
2.41439e-05
2.07508e-05
1.76955e-05
1.52202e-05
1.35304e-05
4.31802e-06
4.49807e-06
4.90986e-06
5.42947e-06
6.19282e-06
7.05972e-06
8.05035e-06
9.14013e-06
1.03799e-05
1.17403e-05
1.33171e-05
1.50064e-05
3.65062e-05
0.000289237
0.00043065
0.000401172
0.000314654
0.000326172
0.000331663
0.000331663
0.000343389
0.000391106
0.000391106
5.11393e-06
5.26253e-06
5.61464e-06
6.03552e-06
6.70399e-06
7.48899e-06
8.39624e-06
9.39862e-06
1.05398e-05
1.17852e-05
1.32064e-05
1.6815e-05
6.40665e-05
0.000330616
0.00043065
0.00033684
0.000265205
0.000317977
0.000322759
0.000319206
0.000319284
0.000329503
0.000390767
5.85998e-06
5.98694e-06
6.29087e-06
6.6589e-06
7.2207e-06
7.92798e-06
8.74966e-06
9.66703e-06
1.06985e-05
1.18298e-05
1.30888e-05
2.02646e-05
0.000121885
0.000340774
0.000403049
0.000284781
0.00027117
0.000306206
0.000302411
0.000296152
0.000297254
0.000289032
0.000329343
6.55179e-06
6.66311e-06
6.9263e-06
7.25395e-06
7.74828e-06
8.36892e-06
9.10953e-06
9.94618e-06
1.08707e-05
1.18968e-05
1.30059e-05
2.30696e-05
0.000153423
0.000337872
0.000372907
0.000246713
0.000281325
0.000285471
0.000285229
0.000273161
0.000274668
0.000257844
0.000275673
7.18719e-06
7.28685e-06
7.51493e-06
7.81122e-06
8.24356e-06
8.78623e-06
9.45157e-06
1.02097e-05
1.10341e-05
1.19584e-05
1.29304e-05
2.54499e-05
0.000179701
0.000332268
0.000334325
0.000216395
0.000281325
0.0002685
0.000269802
0.000251419
0.000252427
0.000233064
0.00023406
7.76458e-06
7.8551e-06
8.05248e-06
8.32349e-06
8.69954e-06
9.1856e-06
9.78252e-06
1.04658e-05
1.12009e-05
1.20296e-05
1.2885e-05
2.751e-05
0.000201878
0.000333384
0.000283153
0.000214405
0.00028054
0.000254164
0.000254359
0.000233716
0.000233438
0.000213867
0.000209086
8.28482e-06
8.36799e-06
8.5389e-06
8.789e-06
9.11521e-06
9.54471e-06
1.00806e-05
1.06947e-05
1.13517e-05
1.20928e-05
1.28497e-05
2.92861e-05
0.000220358
0.000333384
0.000243978
0.000217967
0.000264313
0.000237622
0.000238416
0.000220273
0.000216375
0.000200562
0.000190416
8.74818e-06
8.82507e-06
8.97284e-06
9.20485e-06
9.48718e-06
9.88153e-06
1.03629e-05
1.09131e-05
1.15016e-05
1.21624e-05
1.28357e-05
3.08413e-05
0.000235779
0.000331165
0.000211787
0.000216536
0.00024232
0.000222014
0.000222825
0.000206324
0.000202252
0.000186484
0.000177693
9.15613e-06
9.22775e-06
9.35607e-06
9.57253e-06
9.81765e-06
1.0177e-05
1.06025e-05
1.10967e-05
1.16282e-05
1.22193e-05
1.28261e-05
3.21837e-05
0.000248426
0.000326953
0.000186679
0.000216527
0.000222357
0.000211623
0.000208517
0.000196472
0.000189837
0.000178201
0.000167371
9.51145e-06
9.57837e-06
9.68969e-06
9.89222e-06
1.01053e-05
1.04415e-05
1.08295e-05
1.12735e-05
1.17541e-05
1.22819e-05
1.283e-05
3.33161e-05
0.000258691
0.000321977
0.00017557
0.000219862
0.000207991
0.000206591
0.000196389
0.00018868
0.000179508
0.000168906
0.000158775
9.81332e-06
9.87627e-06
9.97357e-06
1.01643e-05
1.03508e-05
1.06665e-05
1.10072e-05
1.14083e-05
1.18492e-05
1.23263e-05
1.28316e-05
3.43056e-05
0.000266618
0.000316278
0.000181286
0.000221998
0.000203169
0.000202272
0.000190041
0.000182711
0.000173175
0.000163135
0.000153937
1.00695e-05
1.01288e-05
1.02143e-05
1.03942e-05
1.05688e-05
1.08557e-05
1.11759e-05
1.15408e-05
1.19472e-05
1.23798e-05
1.28446e-05
3.52106e-05
0.000272055
0.000308533
0.000191313
0.000221998
0.00020077
0.000198962
0.000184829
0.000177836
0.000166991
0.000157368
0.000148106
1.02734e-05
1.033e-05
1.0406e-05
1.05775e-05
1.07407e-05
1.10076e-05
1.12989e-05
1.16328e-05
1.20129e-05
1.24094e-05
1.28454e-05
3.60489e-05
0.000272096
0.000294909
0.000198251
0.000221551
0.000195975
0.000195707
0.000181053
0.000173525
0.000163483
0.000153209
0.000144738
1.04397e-05
1.04944e-05
1.05641e-05
1.07283e-05
1.0885e-05
1.11318e-05
1.14109e-05
1.17199e-05
1.2076e-05
1.24361e-05
1.28361e-05
3.69142e-05
0.000282102
0.000271386
0.000199912
0.0002186
0.000195082
0.000191343
0.000176892
0.000169225
0.000158644
0.000148763
0.000140285
1.05582e-05
1.06106e-05
1.06742e-05
1.08323e-05
1.10005e-05
1.12177e-05
1.14867e-05
1.17702e-05
1.21038e-05
1.24258e-05
1.27875e-05
3.75784e-05
0.000289253
0.000252159
0.00019154
0.000211446
0.000190363
0.000187536
0.000176442
0.000165922
0.000157368
0.000146929
0.000137916
1.19488e-05
1.20482e-05
1.21809e-05
1.24971e-05
1.27763e-05
1.33599e-05
1.37895e-05
1.47262e-05
1.52972e-05
1.68283e-05
1.81667e-05
4.41431e-05
0.000289253
0.000225058
0.00018367
0.000198378
0.000186824
0.000183905
0.00017266
0.00016228
0.000153106
0.000143216
0.000134109
3.77801e-05
3.85361e-05
3.96507e-05
4.21899e-05
4.4738e-05
5.00702e-05
5.46097e-05
6.49961e-05
7.25739e-05
8.97484e-05
0.000103185
0.000151643
0.000279104
0.000230542
0.0001807
0.000227173
0.000199313
0.000189171
0.000179869
0.000166204
0.000154053
0.000142556
0.000132185
0.000177635
0.000179086
0.000181037
0.00018546
0.000189097
0.00019659
0.000201554
0.000212688
0.000218943
0.000237515
0.000263404
0.000307077
0.000296012
0.000237019
0.000215334
0.000280914
0.000235272
0.000195573
0.000180553
0.000164904
0.000151442
0.000139497
0.000128625
0.000209738
0.000210704
0.000212622
0.00021498
0.000218335
0.000222081
0.00022725
0.000235671
0.000242876
0.000264772
0.000300533
0.000355507
0.000357748
0.00026531
0.000305338
0.000331861
0.000290016
0.000233013
0.000193138
0.00017102
0.000151051
0.000137687
0.000125584
0.000207086
0.000208048
0.000209387
0.00021256
0.000216547
0.000222832
0.00023212
0.000243629
0.000262917
0.000283963
0.000334941
0.000402368
0.000411858
0.000347627
0.000389336
0.000385186
0.000310478
0.000240554
0.000196197
0.000169495
0.000148133
0.00013404
0.000121582
0.000196667
0.000197849
0.000199425
0.000202722
0.00020629
0.00021254
0.000218641
0.00023036
0.000243855
0.000270099
0.000301877
0.000356269
0.000411858
0.000410587
0.000389336
0.000313841
0.000251964
0.00020532
0.000176737
0.000154443
0.000138272
0.000125328
0.000115111
0.000186319
0.000187339
0.000188799
0.000191496
0.000194723
0.000199787
0.00020538
0.000214532
0.000224468
0.000242803
0.000265267
0.000296087
0.000351914
0.000367834
0.000319922
0.000261239
0.000222958
0.000191626
0.000166975
0.000148576
0.000132931
0.000121128
0.000110788
0.00017587
0.000176561
0.00017785
0.000179976
0.000182832
0.000186841
0.000191816
0.000198834
0.000207037
0.000218577
0.000233152
0.000249855
0.000279199
0.000280925
0.000256293
0.00021959
0.000193241
0.000164244
0.000150561
0.000132031
0.00012234
0.000110179
0.000103486
0.000164995
0.000165504
0.000166545
0.000168037
0.000170328
0.000173022
0.000177023
0.000181433
0.000188286
0.000194466
0.000205845
0.000210195
0.000224426
0.000226306
0.000204523
0.000185828
0.000165712
0.000145956
0.000135284
0.000122076
0.000112652
0.000103889
9.67272e-05
0.000154795
0.000155114
0.000155925
0.000156874
0.000158641
0.000160222
0.000163208
0.000165299
0.000170011
0.000172002
0.000179091
0.000180193
0.000184918
0.000183166
0.000170595
0.000159646
0.000144005
0.00013109
0.000121792
0.00011015
0.000103721
9.52722e-05
9.02073e-05
0.000144406
0.000144565
0.000145127
0.000145572
0.000146833
0.0001475
0.00014974
0.000150397
0.000153891
0.000153705
0.0001578
0.000156473
0.000157579
0.000155301
0.000145217
0.000137269
0.000125329
0.000116818
0.000108529
0.000100007
9.43989e-05
8.76784e-05
8.33405e-05
0.000135017
0.000135041
0.000135373
0.00013539
0.000136132
0.000135976
0.000137272
0.000136635
0.000138583
0.00013709
0.000138812
0.000136798
0.000135182
0.000132254
0.000125262
0.000119367
0.00011057
0.000104371
9.71727e-05
9.09309e-05
8.59334e-05
8.06704e-05
7.69154e-05
0.000125735
0.000125655
0.000125791
0.000125498
0.00012585
0.000125196
0.000125872
0.000124569
0.000125447
0.000123297
0.000123449
0.000120829
0.000118574
0.000115429
0.000109582
0.000104485
9.76164e-05
9.26937e-05
8.66771e-05
8.20688e-05
7.76894e-05
7.36921e-05
7.04811e-05
0.000117489
0.000117313
0.000117251
0.000116673
0.000116597
0.000115476
0.00011544
0.000113596
0.00011347
0.000110917
0.000109988
0.000107056
0.000104201
0.000100813
9.61269e-05
9.1831e-05
8.65571e-05
8.25017e-05
7.76111e-05
7.40212e-05
7.02657e-05
6.72136e-05
6.44949e-05
0.000109579
0.000109342
0.00010913
0.000108379
0.000107995
0.000106624
0.00010609
0.000103977
0.000103144
0.000100365
9.87472e-05
9.56468e-05
9.27148e-05
8.9336e-05
8.51441e-05
8.12721e-05
7.6828e-05
7.32781e-05
6.92386e-05
6.63382e-05
6.32039e-05
6.08965e-05
5.86693e-05
0.000102641
0.000102345
0.000101981
0.000101063
0.000100366
9.87585e-05
9.77487e-05
9.54069e-05
9.39954e-05
9.10518e-05
8.8931e-05
8.56483e-05
8.2548e-05
7.90956e-05
7.53715e-05
7.18484e-05
6.81255e-05
6.50354e-05
6.17313e-05
5.93291e-05
5.6774e-05
5.50108e-05
5.32491e-05
9.61532e-05
9.58205e-05
9.53447e-05
9.43266e-05
9.33992e-05
9.16584e-05
9.02994e-05
8.78283e-05
8.59906e-05
8.29423e-05
8.0487e-05
7.71601e-05
7.4046e-05
7.06372e-05
6.71247e-05
6.38005e-05
6.04526e-05
5.76356e-05
5.4813e-05
5.2759e-05
5.06846e-05
4.93532e-05
4.80338e-05
9.0544e-05
9.01762e-05
8.95938e-05
8.84805e-05
8.73405e-05
8.5473e-05
8.38103e-05
8.12217e-05
7.90408e-05
7.58949e-05
7.31596e-05
6.97092e-05
6.6482e-05
6.30157e-05
5.96612e-05
5.64672e-05
5.34323e-05
5.08456e-05
4.8434e-05
4.66717e-05
4.50278e-05
4.40523e-05
4.31487e-05
8.54216e-05
8.50295e-05
8.43644e-05
8.31857e-05
8.18812e-05
7.99261e-05
7.80271e-05
7.53528e-05
7.29046e-05
6.96796e-05
6.67383e-05
6.32495e-05
5.99694e-05
5.6503e-05
5.31959e-05
5.00587e-05
4.71614e-05
4.4704e-05
4.25372e-05
4.09841e-05
3.96747e-05
3.89987e-05
3.84741e-05
8.10759e-05
8.06622e-05
7.99255e-05
7.86883e-05
7.72433e-05
7.52084e-05
7.31126e-05
7.03558e-05
6.76875e-05
6.4379e-05
6.12384e-05
5.76355e-05
5.42203e-05
5.06577e-05
4.73312e-05
4.41806e-05
4.13643e-05
3.89823e-05
3.7006e-05
3.56315e-05
3.46202e-05
3.42236e-05
3.40634e-05
7.72214e-05
7.67888e-05
7.59914e-05
7.47026e-05
7.31409e-05
7.10351e-05
6.87771e-05
6.59435e-05
6.3089e-05
5.97011e-05
5.63979e-05
5.27256e-05
4.9204e-05
4.55716e-05
4.21724e-05
3.89594e-05
3.61189e-05
3.37351e-05
3.18433e-05
3.05892e-05
2.9814e-05
2.96748e-05
2.98598e-05
7.40481e-05
7.36015e-05
7.27576e-05
7.1429e-05
6.97753e-05
6.7611e-05
6.52218e-05
6.23185e-05
5.93077e-05
5.58326e-05
5.23614e-05
4.85642e-05
4.48767e-05
4.10955e-05
3.75548e-05
3.42052e-05
3.12703e-05
2.88164e-05
2.69485e-05
2.57813e-05
2.52227e-05
2.53509e-05
2.58924e-05
7.13502e-05
7.08879e-05
6.99999e-05
6.86287e-05
6.68927e-05
6.46687e-05
6.2166e-05
5.91916e-05
5.6045e-05
5.26073e-05
4.89819e-05
4.51681e-05
4.12303e-05
3.72637e-05
3.35181e-05
2.99901e-05
2.68778e-05
2.42683e-05
2.23293e-05
2.11908e-05
2.08199e-05
2.12311e-05
2.21505e-05
6.92701e-05
6.87978e-05
6.78791e-05
6.64784e-05
6.46819e-05
6.24123e-05
5.98213e-05
5.69734e-05
5.37863e-05
5.02954e-05
4.65573e-05
4.26285e-05
3.85704e-05
3.44629e-05
3.03801e-05
2.64368e-05
2.29118e-05
2.00443e-05
1.79312e-05
1.67617e-05
1.65797e-05
1.73313e-05
1.86875e-05
6.76438e-05
6.71553e-05
6.62023e-05
6.47669e-05
6.29145e-05
6.06431e-05
5.81399e-05
5.52506e-05
5.20162e-05
4.84689e-05
4.46592e-05
4.06358e-05
3.64578e-05
3.21928e-05
2.79109e-05
2.37079e-05
1.96904e-05
1.62371e-05
1.37893e-05
1.24727e-05
1.2492e-05
1.36905e-05
1.55731e-05
6.66111e-05
6.6117e-05
6.51481e-05
6.38346e-05
6.21633e-05
6.00337e-05
5.74765e-05
5.4516e-05
5.1195e-05
4.75501e-05
4.36327e-05
3.94916e-05
3.51831e-05
3.07668e-05
2.63026e-05
2.18643e-05
1.75309e-05
1.34309e-05
9.94836e-06
8.28277e-06
8.58828e-06
1.04554e-05
1.29782e-05
6.59241e-05
6.54327e-05
6.44616e-05
6.30303e-05
6.13479e-05
5.92162e-05
5.66633e-05
5.37125e-05
5.04027e-05
4.67677e-05
4.28553e-05
3.87099e-05
3.4384e-05
2.993e-05
2.54003e-05
2.08509e-05
1.6332e-05
1.19027e-05
7.63947e-06
4.2518e-06
5.22925e-06
8.68707e-06
1.11801e-05
0.00032944
0.000233906
0.00020808
0.00018533
0.00032944
0.000279086
0.000251482
0.000223812
0.000305738
0.000279086
0.000251482
0.000223812
0.000263512
0.000245103
0.000219987
0.000199236
0.000223237
0.000212369
0.000195619
0.00018258
0.000197663
0.000189399
0.000176507
0.000166881
0.000179094
0.000172458
0.000162862
0.000155658
0.000166978
0.000161028
0.000153072
0.000146797
0.000157145
0.000151803
0.000145266
0.000139804
0.000150113
0.000144997
0.000139369
0.000134276
0.000144148
0.000139211
0.00013432
0.00012957
0.000139448
0.000134625
0.000130241
0.000125722
0.000135293
0.000130597
0.000126556
0.000122261
0.000131738
0.00012719
0.000123345
0.00011925
0.000128452
0.00012411
0.000120328
0.000116421
0.000125388
0.000121302
0.000117475
0.000113754
0.000122367
0.000118506
0.000114599
0.000111036
0.000119359
0.000115679
0.000111676
0.000108241
0.000115934
0.000112426
0.000108398
0.000105092
0.000112323
0.000108971
0.000104958
0.000101778
0.000107592
0.000104476
0.000100722
9.77566e-05
0.000102944
9.99623e-05
9.65183e-05
9.37149e-05
9.74299e-05
9.4698e-05
9.16258e-05
8.90796e-05
9.15697e-05
8.91773e-05
8.65333e-05
8.42982e-05
8.57916e-05
8.36975e-05
8.14164e-05
7.94673e-05
7.97153e-05
7.79457e-05
7.6054e-05
7.4421e-05
7.39743e-05
7.2473e-05
7.09192e-05
6.95576e-05
6.81872e-05
6.69435e-05
6.57186e-05
6.46228e-05
6.27368e-05
6.17203e-05
6.0779e-05
5.99159e-05
5.73804e-05
5.65849e-05
5.59038e-05
5.5263e-05
5.23351e-05
5.17461e-05
5.12857e-05
5.08465e-05
4.74468e-05
4.70578e-05
4.67983e-05
4.65528e-05
4.28407e-05
4.2641e-05
4.25597e-05
4.24949e-05
3.84219e-05
3.84024e-05
3.8489e-05
3.85979e-05
3.42552e-05
3.44112e-05
3.46597e-05
3.49369e-05
3.02936e-05
3.06217e-05
3.10311e-05
3.14741e-05
2.65815e-05
2.70865e-05
2.76622e-05
2.8273e-05
2.31151e-05
2.38043e-05
2.45531e-05
2.53344e-05
1.99637e-05
2.08512e-05
2.17837e-05
2.27395e-05
1.71984e-05
1.82938e-05
1.94128e-05
2.05388e-05
1.49752e-05
1.62748e-05
1.75694e-05
1.88484e-05
1.34869e-05
1.49425e-05
1.63648e-05
1.77501e-05
0.000191498
0.000163422
0.00012183
9.50206e-05
7.73815e-05
6.8716e-05
6.13697e-05
5.59815e-05
5.06519e-05
4.60318e-05
4.14188e-05
3.7211e-05
3.3094e-05
2.93103e-05
2.57273e-05
2.25261e-05
1.97161e-05
1.75076e-05
1.60453e-05
0.000192528
0.000192528
0.000137256
0.000105415
8.6002e-05
7.45679e-05
6.55153e-05
5.90024e-05
5.30367e-05
4.80691e-05
4.33138e-05
3.90855e-05
3.50506e-05
3.14146e-05
2.80477e-05
2.51094e-05
2.2602e-05
2.06889e-05
1.94581e-05
0.000189253
0.000162051
0.000126763
0.000105969
8.9758e-05
7.85951e-05
6.93587e-05
6.22322e-05
5.5915e-05
5.06036e-05
4.56983e-05
4.13872e-05
3.73857e-05
3.38426e-05
3.06404e-05
2.79035e-05
2.56248e-05
2.39236e-05
2.28514e-05
0.000167098
0.000163225
0.000133734
0.000112022
9.53608e-05
8.29862e-05
7.29935e-05
6.52244e-05
5.85229e-05
5.29704e-05
4.79766e-05
4.36595e-05
3.97393e-05
3.63201e-05
3.32901e-05
3.07414e-05
2.86599e-05
2.71286e-05
2.61777e-05
0.000156754
0.000152332
0.000129548
0.000110643
9.60961e-05
8.4626e-05
7.52032e-05
6.75271e-05
6.09179e-05
5.53254e-05
5.03635e-05
4.60662e-05
4.22304e-05
3.89117e-05
3.60218e-05
3.36184e-05
3.16872e-05
3.02812e-05
2.94184e-05
0.00014755
0.00014755
0.000128707
0.000111803
9.8297e-05
8.69986e-05
7.7673e-05
6.98999e-05
6.32532e-05
5.76154e-05
5.26773e-05
4.8424e-05
4.46821e-05
4.14704e-05
3.87136e-05
3.6442e-05
3.46401e-05
3.33378e-05
3.25459e-05
0.000142228
0.000142228
0.000125734
0.000110694
9.84687e-05
8.78993e-05
7.91368e-05
7.16201e-05
6.52087e-05
5.96787e-05
5.4871e-05
5.07082e-05
4.70841e-05
4.39801e-05
4.13455e-05
3.91857e-05
3.74899e-05
3.62701e-05
3.55337e-05
0.000137359
0.000137359
0.000123128
0.000109944
9.8786e-05
8.88963e-05
8.05488e-05
7.32759e-05
6.7044e-05
6.16343e-05
5.69486e-05
5.28892e-05
4.93815e-05
4.63861e-05
4.38658e-05
4.18087e-05
4.0206e-05
3.90573e-05
3.83675e-05
0.000133988
0.000133988
0.000120907
0.000108916
9.85791e-05
8.93409e-05
8.1466e-05
7.45243e-05
6.85612e-05
6.33385e-05
5.8825e-05
5.48998e-05
5.15256e-05
4.86449e-05
4.6236e-05
4.42745e-05
4.2755e-05
4.16684e-05
4.10185e-05
0.000129859
0.000129859
0.000118234
0.000107539
9.80714e-05
8.95406e-05
8.21369e-05
7.55634e-05
6.98687e-05
6.4859e-05
6.05222e-05
5.67452e-05
5.35055e-05
5.0742e-05
4.84402e-05
4.65696e-05
4.51262e-05
4.40959e-05
4.34813e-05
0.000127296
0.000127296
0.000116416
0.000106485
9.75981e-05
8.95964e-05
8.25934e-05
7.63558e-05
7.09314e-05
6.61432e-05
6.1996e-05
5.83781e-05
5.52801e-05
5.26378e-05
5.0443e-05
4.86615e-05
4.72907e-05
4.63133e-05
4.57315e-05
0.000123878
0.000123878
0.000113943
0.00010488
9.66768e-05
8.92717e-05
8.27187e-05
7.6862e-05
7.17325e-05
6.71924e-05
6.32475e-05
5.98016e-05
5.68497e-05
5.43322e-05
5.22434e-05
5.05494e-05
4.92479e-05
4.83208e-05
4.77694e-05
0.00012163
0.00012163
0.000112226
0.000103682
9.59289e-05
8.89446e-05
8.27427e-05
7.71997e-05
7.23332e-05
6.80231e-05
6.42742e-05
6.09986e-05
5.8193e-05
5.58011e-05
5.38183e-05
5.22116e-05
5.09783e-05
5.01005e-05
4.95788e-05
0.000118625
0.000118625
0.000109873
0.00010193
9.47161e-05
8.82129e-05
8.2415e-05
7.72261e-05
7.26521e-05
6.85955e-05
6.50576e-05
6.19637e-05
5.93105e-05
5.70483e-05
5.51725e-05
5.36531e-05
5.24871e-05
5.16577e-05
5.11647e-05
0.00011642
0.00011642
0.000108037
0.000100463
9.36248e-05
8.74772e-05
8.20006e-05
7.71052e-05
7.27877e-05
6.89609e-05
6.56215e-05
6.27025e-05
6.01988e-05
5.8065e-05
5.6296e-05
5.48639e-05
5.37651e-05
5.2984e-05
5.25197e-05
0.000113482
0.000113482
0.000105602
9.84871e-05
9.21015e-05
8.63616e-05
8.12516e-05
7.66822e-05
7.2647e-05
6.90689e-05
6.59416e-05
6.32071e-05
6.08588e-05
5.88574e-05
5.7197e-05
5.58531e-05
5.48216e-05
5.40885e-05
5.36526e-05
0.000111046
0.000111046
0.000103472
9.66636e-05
9.06136e-05
8.51941e-05
8.03896e-05
7.61041e-05
7.23238e-05
6.89759e-05
6.60499e-05
6.34934e-05
6.12976e-05
5.94272e-05
5.78752e-05
5.66196e-05
5.56558e-05
5.49711e-05
5.4564e-05
0.000107872
0.000107872
0.000100748
9.43542e-05
8.87245e-05
8.36845e-05
7.92283e-05
7.52543e-05
7.17497e-05
6.86461e-05
6.59318e-05
6.35603e-05
6.15216e-05
5.97851e-05
5.83433e-05
5.71769e-05
5.62812e-05
5.56449e-05
5.52661e-05
0.000104839
0.000104839
9.80708e-05
9.20348e-05
8.67608e-05
8.20583e-05
7.79174e-05
7.42334e-05
7.09891e-05
6.81204e-05
6.56123e-05
6.34228e-05
6.15403e-05
5.99375e-05
5.86064e-05
5.75297e-05
5.67027e-05
5.61155e-05
5.57662e-05
0.000101362
0.000101362
9.50185e-05
8.93872e-05
8.45096e-05
8.01733e-05
7.63697e-05
7.29915e-05
7.00203e-05
6.73947e-05
6.50988e-05
6.30945e-05
6.13703e-05
5.99025e-05
5.86827e-05
5.76964e-05
5.69382e-05
5.63998e-05
5.60785e-05
9.7328e-05
9.7328e-05
9.156e-05
8.64519e-05
8.20164e-05
7.80786e-05
7.4623e-05
7.15569e-05
6.88602e-05
6.64792e-05
6.43969e-05
6.25803e-05
6.10169e-05
5.96859e-05
5.85793e-05
5.76841e-05
5.69956e-05
5.65069e-05
5.62173e-05
9.37501e-05
9.37501e-05
8.83131e-05
8.35705e-05
7.94903e-05
7.58975e-05
7.27614e-05
6.9991e-05
6.75602e-05
6.54183e-05
6.35461e-05
6.1914e-05
6.05093e-05
5.93138e-05
5.83194e-05
5.75155e-05
5.68973e-05
5.64583e-05
5.61937e-05
8.87542e-05
8.87542e-05
8.41213e-05
8.00525e-05
7.65126e-05
7.33835e-05
7.06372e-05
6.82061e-05
6.60672e-05
6.41808e-05
6.25296e-05
6.10894e-05
5.98485e-05
5.8792e-05
5.79125e-05
5.72011e-05
5.66532e-05
5.62638e-05
5.60304e-05
8.49541e-05
8.49541e-05
8.06844e-05
7.69764e-05
7.37769e-05
7.09766e-05
6.85363e-05
6.63907e-05
6.45105e-05
6.28579e-05
6.14138e-05
6.0156e-05
5.90727e-05
5.81507e-05
5.73828e-05
5.67614e-05
5.62825e-05
5.5942e-05
5.57394e-05
7.96912e-05
7.96912e-05
7.61916e-05
7.31496e-05
7.05085e-05
6.81886e-05
6.61539e-05
6.43579e-05
6.27775e-05
6.1385e-05
6.01647e-05
5.91e-05
5.81811e-05
5.73979e-05
5.67445e-05
5.62152e-05
5.5807e-05
5.55171e-05
5.53448e-05
7.55609e-05
7.55609e-05
7.25111e-05
6.9875e-05
6.75955e-05
6.56101e-05
6.38808e-05
6.23659e-05
6.10397e-05
5.98764e-05
5.88595e-05
5.79738e-05
5.72095e-05
5.65584e-05
5.60151e-05
5.5575e-05
5.52356e-05
5.49946e-05
5.48512e-05
7.04913e-05
7.04913e-05
6.80951e-05
6.6041e-05
6.42681e-05
6.2729e-05
6.13867e-05
6.02101e-05
5.91765e-05
5.82674e-05
5.74699e-05
5.67733e-05
5.61704e-05
5.56552e-05
5.5224e-05
5.4874e-05
5.46035e-05
5.44113e-05
5.42968e-05
6.62164e-05
6.62164e-05
6.42896e-05
6.26569e-05
6.12587e-05
6.00598e-05
5.90235e-05
5.81239e-05
5.73392e-05
5.66533e-05
5.60533e-05
5.553e-05
5.5077e-05
5.46899e-05
5.43656e-05
5.4102e-05
5.3898e-05
5.37528e-05
5.36661e-05
6.14856e-05
6.14856e-05
6.01101e-05
5.89785e-05
5.80281e-05
5.72302e-05
5.65486e-05
5.59631e-05
5.54536e-05
5.50082e-05
5.46169e-05
5.4274e-05
5.39748e-05
5.37173e-05
5.34998e-05
5.33221e-05
5.31838e-05
5.30851e-05
5.30259e-05
5.72792e-05
5.72792e-05
5.63513e-05
5.56255e-05
5.50406e-05
5.45738e-05
5.41897e-05
5.38719e-05
5.36014e-05
5.33691e-05
5.31657e-05
5.29873e-05
5.28306e-05
5.26942e-05
5.25777e-05
5.24813e-05
5.24055e-05
5.23508e-05
5.23179e-05
5.29429e-05
5.29429e-05
5.24879e-05
5.21984e-05
5.20113e-05
5.19042e-05
5.18419e-05
5.18104e-05
5.17928e-05
5.17824e-05
5.17722e-05
5.17609e-05
5.17468e-05
5.17308e-05
5.17137e-05
5.16971e-05
5.16824e-05
5.16708e-05
5.16634e-05
4.89522e-05
4.89522e-05
4.90041e-05
4.91618e-05
4.93659e-05
4.95835e-05
4.98024e-05
5.00076e-05
5.01946e-05
5.03584e-05
5.04987e-05
5.06153e-05
5.07102e-05
5.07851e-05
5.08426e-05
5.08848e-05
5.09135e-05
5.09302e-05
5.09302e-05
4.50526e-05
4.54322e-05
4.59098e-05
4.64244e-05
4.69512e-05
4.74581e-05
4.79342e-05
4.83669e-05
4.87536e-05
4.90913e-05
4.93819e-05
4.96269e-05
4.983e-05
4.99944e-05
5.01235e-05
5.02205e-05
5.02879e-05
5.03276e-05
5.03276e-05
4.13797e-05
4.21498e-05
4.29809e-05
4.38151e-05
4.46271e-05
4.53889e-05
4.60916e-05
4.67245e-05
4.72873e-05
4.77789e-05
4.8203e-05
4.85628e-05
4.8863e-05
4.91078e-05
4.93017e-05
4.94484e-05
4.9551e-05
4.96116e-05
4.96116e-05
3.7966e-05
3.91204e-05
4.03042e-05
4.14595e-05
4.25591e-05
4.3577e-05
4.45053e-05
4.53367e-05
4.60728e-05
4.6715e-05
4.72689e-05
4.77393e-05
4.81326e-05
4.8454e-05
4.87092e-05
4.89026e-05
4.90381e-05
4.91182e-05
4.91182e-05
3.47138e-05
3.62368e-05
3.77472e-05
3.91912e-05
4.05432e-05
4.17825e-05
4.29043e-05
4.39048e-05
4.47882e-05
4.55585e-05
4.62228e-05
4.67879e-05
4.72611e-05
4.76489e-05
4.79575e-05
4.8192e-05
4.83567e-05
4.84544e-05
4.84544e-05
3.18743e-05
3.37604e-05
3.55918e-05
3.73185e-05
3.89175e-05
4.03728e-05
4.16827e-05
4.2847e-05
4.38723e-05
4.47652e-05
4.55346e-05
4.61887e-05
4.67364e-05
4.71851e-05
4.75421e-05
4.78132e-05
4.80033e-05
4.81157e-05
4.81157e-05
2.9192e-05
3.14164e-05
3.35326e-05
3.55005e-05
3.73036e-05
3.89334e-05
4.03925e-05
4.16854e-05
4.28215e-05
4.381e-05
4.46617e-05
4.53864e-05
4.59939e-05
4.64928e-05
4.68907e-05
4.71936e-05
4.74069e-05
4.75337e-05
4.75337e-05
2.70956e-05
2.96424e-05
3.2027e-05
3.4221e-05
3.62158e-05
3.80096e-05
3.96095e-05
4.10236e-05
4.2264e-05
4.33419e-05
4.42695e-05
4.50578e-05
4.57178e-05
4.62586e-05
4.66888e-05
4.70151e-05
4.72442e-05
4.73806e-05
4.73806e-05
2.52145e-05
2.80225e-05
3.06113e-05
3.29686e-05
3.50959e-05
3.69993e-05
3.86908e-05
4.01825e-05
4.1489e-05
4.26238e-05
4.36008e-05
4.44321e-05
4.51294e-05
4.57029e-05
4.61614e-05
4.65117e-05
4.67586e-05
4.69049e-05
4.69049e-05
2.41164e-05
2.71373e-05
2.98933e-05
3.23865e-05
3.46264e-05
3.6625e-05
3.83976e-05
3.99589e-05
4.13251e-05
4.25109e-05
4.35311e-05
4.43987e-05
4.51257e-05
4.57225e-05
4.61984e-05
4.65611e-05
4.68166e-05
4.69683e-05
4.69683e-05
2.32907e-05
2.64003e-05
2.92187e-05
3.17583e-05
3.40338e-05
3.60609e-05
3.78568e-05
3.94377e-05
4.08207e-05
4.20208e-05
4.30532e-05
4.39312e-05
4.46673e-05
4.52718e-05
4.57538e-05
4.61206e-05
4.6378e-05
4.65305e-05
4.65305e-05
)
;

boundaryField
{
    leftWall
    {
        type            calculated;
        value           uniform 0;
    }
    rightWall
    {
        type            calculated;
        value           uniform 0;
    }
    lowerWall
    {
        type            calculated;
        value           uniform 0;
    }
    atmosphere
    {
        type            calculated;
        value           uniform 0;
    }
    defaultFaces
    {
        type            empty;
    }
}


// ************************************************************************* //
