/*--------------------------------*- C++ -*----------------------------------*\
| =========                 |                                                 |
| \\      /  F ield         | OpenFOAM: The Open Source CFD Toolbox           |
|  \\    /   O peration     | Version:  2012                                  |
|   \\  /    A nd           | Website:  www.openfoam.com                      |
|    \\/     M anipulation  |                                                 |
\*---------------------------------------------------------------------------*/
FoamFile
{
    version     2.0;
    format      ascii;
    class       volScalarField;
    location    "0.07";
    object      minKappa;
}
// * * * * * * * * * * * * * * * * * * * * * * * * * * * * * * * * * * * * * //

dimensions      [0 0 0 0 0 0 0];


internalField   nonuniform List<scalar> 
2268
(
3.19216e-07
6.924e-07
1.14167e-06
1.58674e-06
2.07144e-06
2.57711e-06
3.11575e-06
3.71213e-06
4.35097e-06
5.08632e-06
5.90313e-06
6.85136e-06
8.09116e-06
9.57357e-06
1.21968e-05
3.4826e-05
0.000202105
0.000320683
0.000257795
0.000196273
0.000128768
7.70786e-05
3.32375e-05
3.19216e-07
6.924e-07
1.14167e-06
1.58674e-06
2.07144e-06
2.57711e-06
3.11575e-06
3.71213e-06
4.35097e-06
5.08632e-06
5.90313e-06
6.85136e-06
8.06017e-06
9.39486e-06
1.21968e-05
5.53602e-05
0.000233815
0.000313031
0.000239276
0.000181141
0.000128649
7.70786e-05
3.32375e-05
4.77093e-07
7.7827e-07
1.19682e-06
1.62602e-06
2.10209e-06
2.60077e-06
3.13469e-06
3.72656e-06
4.36154e-06
5.09003e-06
5.91086e-06
6.84864e-06
8.02092e-06
9.23424e-06
2.41947e-05
0.000153125
0.000293696
0.000271595
0.000211764
0.000167868
0.000128649
8.39891e-05
4.99904e-05
6.63632e-07
9.03451e-07
1.28305e-06
1.68906e-06
2.15196e-06
2.63937e-06
3.16602e-06
3.74993e-06
4.37928e-06
5.09697e-06
5.91625e-06
6.83679e-06
7.96667e-06
9.23424e-06
3.97625e-05
0.00022273
0.000291598
0.000233499
0.000185463
0.000162415
0.000128934
9.31493e-05
6.84468e-05
8.58145e-07
1.05313e-06
1.3938e-06
1.77256e-06
2.21914e-06
2.69149e-06
3.2088e-06
3.78125e-06
4.40298e-06
5.10729e-06
5.91025e-06
6.81891e-06
7.89493e-06
9.82412e-06
6.27774e-05
0.00025877
0.000252214
0.000196189
0.000169944
0.000160941
0.000132723
0.000105044
8.63963e-05
1.05459e-06
1.21709e-06
1.52279e-06
1.87303e-06
2.30153e-06
2.75577e-06
3.26219e-06
3.82031e-06
4.43197e-06
5.12197e-06
5.89633e-06
6.79265e-06
7.79976e-06
1.61608e-05
0.000140998
0.000258012
0.000222895
0.000165163
0.000164301
0.000159854
0.000137314
0.000117722
0.000105422
1.2504e-06
1.38881e-06
1.66445e-06
1.98673e-06
2.39639e-06
2.83016e-06
3.32427e-06
3.86558e-06
4.46366e-06
5.13848e-06
5.87992e-06
6.76197e-06
7.69038e-06
2.82233e-05
0.000181225
0.000238882
0.000189626
0.000148829
0.000162215
0.000159066
0.000141894
0.000129915
0.00012176
1.44428e-06
1.56427e-06
1.8144e-06
2.11035e-06
2.50099e-06
2.91281e-06
3.3934e-06
3.91617e-06
4.49748e-06
5.15708e-06
5.87992e-06
6.76197e-06
7.69038e-06
3.19444e-05
0.000200565
0.000238882
0.000189626
0.000148829
0.000162215
0.000159066
0.000147034
0.000144363
0.000143247
2.73365e-06
1.06491e-05
1.57749e-05
1.86516e-05
2.11286e-05
2.07048e-05
2.09367e-05
1.93174e-05
1.83801e-05
1.64398e-05
1.49915e-05
1.30443e-05
1.14086e-05
9.53565e-06
7.85181e-06
6.06022e-06
4.38647e-06
2.68171e-06
1.16844e-06
2.73365e-06
1.06491e-05
1.57749e-05
1.86516e-05
2.11286e-05
2.07048e-05
2.09367e-05
1.93174e-05
1.83801e-05
1.64398e-05
1.49915e-05
1.30443e-05
1.14086e-05
9.53565e-06
7.85181e-06
6.06022e-06
4.38647e-06
2.68171e-06
1.16844e-06
4.38854e-06
1.22032e-05
1.66612e-05
1.92678e-05
2.15524e-05
2.09844e-05
2.11282e-05
1.94458e-05
1.84783e-05
1.65207e-05
1.5064e-05
1.31166e-05
1.14845e-05
9.62226e-06
7.95399e-06
6.19056e-06
4.56337e-06
2.95989e-06
1.70613e-06
6.87979e-06
1.45054e-05
1.80982e-05
2.01019e-05
2.21937e-05
2.13431e-05
2.14043e-05
1.96272e-05
1.86244e-05
1.66439e-05
1.51777e-05
1.32324e-05
1.16076e-05
9.76353e-06
8.12053e-06
6.40129e-06
4.84355e-06
3.37423e-06
2.35375e-06
8.5306e-06
1.79358e-05
2.01765e-05
2.14522e-05
2.31435e-05
2.19041e-05
2.18208e-05
1.99058e-05
1.88409e-05
1.68243e-05
1.5341e-05
1.33965e-05
1.17798e-05
9.95916e-06
8.34875e-06
6.68545e-06
5.21066e-06
3.88168e-06
3.03815e-06
1.14089e-05
2.17947e-05
2.28833e-05
2.29896e-05
2.43066e-05
2.25623e-05
2.23139e-05
2.02392e-05
1.91019e-05
1.7045e-05
1.55426e-05
1.36012e-05
1.19952e-05
1.02036e-05
8.63197e-06
7.03277e-06
5.64664e-06
4.44926e-06
3.73698e-06
1.28966e-05
2.78138e-05
2.66569e-05
2.50412e-05
2.57391e-05
2.34004e-05
2.29112e-05
2.06537e-05
1.94223e-05
1.73174e-05
1.57895e-05
1.38503e-05
1.2255e-05
1.04957e-05
8.96621e-06
7.43496e-06
6.13674e-06
5.05599e-06
4.44217e-06
2.42362e-05
3.48619e-05
3.21586e-05
2.73577e-05
2.73574e-05
2.43511e-05
2.3571e-05
2.11206e-05
1.97805e-05
1.76262e-05
1.607e-05
1.41352e-05
1.2552e-05
1.08284e-05
9.34358e-06
7.88166e-06
6.66726e-06
5.68751e-06
5.14924e-06
2.55694e-06
2.72274e-06
3.08095e-06
3.5071e-06
4.0891e-06
4.69941e-06
5.42871e-06
6.21733e-06
7.09859e-06
8.10605e-06
9.18584e-06
1.05317e-05
1.18589e-05
3.65062e-05
0.000289237
0.000314654
0.000236142
0.000229139
0.00024951
0.00024634
0.000237038
0.000247251
0.000269287
4.31802e-06
4.49807e-06
4.90986e-06
5.40089e-06
6.02461e-06
6.70399e-06
7.48899e-06
8.39624e-06
9.39862e-06
1.05398e-05
1.17852e-05
1.32064e-05
1.6815e-05
6.40665e-05
0.000330616
0.000253818
0.000232399
0.000265205
0.000302411
0.000296152
0.000297254
0.000288701
0.000242091
5.11393e-06
5.26253e-06
5.61464e-06
6.03552e-06
6.61574e-06
7.22021e-06
7.92798e-06
8.74966e-06
9.66703e-06
1.06985e-05
1.18298e-05
1.30888e-05
2.02646e-05
0.000121885
0.000284781
0.000193995
0.000232399
0.00027117
0.000285229
0.000273161
0.000274668
0.000257844
0.000216675
5.85998e-06
5.98694e-06
6.29087e-06
6.6589e-06
7.1934e-06
7.73217e-06
8.36892e-06
9.10953e-06
9.94618e-06
1.08707e-05
1.18968e-05
1.30059e-05
2.30696e-05
0.000153423
0.000246713
0.000152986
0.000220646
0.000263358
0.000267631
0.000251415
0.000249374
0.000232261
0.000174995
6.55179e-06
6.66311e-06
6.9263e-06
7.25395e-06
7.73317e-06
8.21427e-06
8.78623e-06
9.45157e-06
1.02097e-05
1.10341e-05
1.19584e-05
1.29304e-05
2.54499e-05
0.000179701
0.000216395
0.000147333
0.000211795
0.000244071
0.000251419
0.000232787
0.000233064
0.000213867
0.000157118
7.18719e-06
7.28685e-06
7.51493e-06
7.81122e-06
8.24113e-06
8.6721e-06
9.1856e-06
9.78252e-06
1.04658e-05
1.12009e-05
1.20296e-05
1.2885e-05
2.751e-05
0.000201878
0.000199358
0.000147333
0.000214405
0.000229311
0.000233716
0.000217447
0.000212201
0.000198251
0.000137871
7.76458e-06
7.8551e-06
8.05248e-06
8.32349e-06
8.69705e-06
9.08385e-06
9.54471e-06
1.00806e-05
1.06947e-05
1.13517e-05
1.20928e-05
1.28497e-05
2.92861e-05
0.000220358
0.000155483
0.000169728
0.000217967
0.000219089
0.000220273
0.000205531
0.000200562
0.000186484
0.0001299
8.28482e-06
8.36799e-06
8.5389e-06
8.789e-06
9.11521e-06
9.46722e-06
9.88153e-06
1.03629e-05
1.09131e-05
1.15016e-05
1.21624e-05
1.28357e-05
3.08413e-05
0.000211787
0.000104192
0.000164448
0.000216536
0.000211623
0.000206324
0.000195937
0.000186455
0.000174365
0.000119863
8.74818e-06
8.82507e-06
8.97284e-06
9.20485e-06
9.48141e-06
9.79616e-06
1.01686e-05
1.06025e-05
1.10967e-05
1.16282e-05
1.22193e-05
1.28261e-05
3.21837e-05
0.000186679
7.27188e-05
0.000146967
0.000205893
0.000204579
0.000195986
0.000187795
0.000178201
0.000167371
0.000115046
9.15613e-06
9.22775e-06
9.35607e-06
9.57253e-06
9.81351e-06
1.01002e-05
1.04368e-05
1.08295e-05
1.12735e-05
1.17541e-05
1.22819e-05
1.283e-05
3.33161e-05
0.00017557
7.19909e-05
0.000141071
0.000192885
0.000196389
0.000185694
0.00017885
0.000168714
0.000158775
0.000109038
9.51145e-06
9.57837e-06
9.68969e-06
9.89075e-06
1.00862e-05
1.0346e-05
1.06494e-05
1.10072e-05
1.14083e-05
1.18492e-05
1.23263e-05
1.28316e-05
3.43056e-05
0.000181286
7.19909e-05
0.000149627
0.000183468
0.000190041
0.000177378
0.000173175
0.000163135
0.000153937
0.000105786
9.81332e-06
9.87627e-06
9.97357e-06
1.0149e-05
1.03289e-05
1.05688e-05
1.08463e-05
1.11759e-05
1.15408e-05
1.19472e-05
1.23798e-05
1.28446e-05
3.52106e-05
0.000191313
9.35262e-05
0.000164679
0.000176665
0.000184829
0.000171585
0.000166991
0.000156612
0.000148106
0.000101732
1.00695e-05
1.01288e-05
1.02143e-05
1.03593e-05
1.05213e-05
1.07407e-05
1.09935e-05
1.12989e-05
1.16328e-05
1.20129e-05
1.24094e-05
1.28454e-05
3.60489e-05
0.000198251
0.000120588
0.000176164
0.000173899
0.000181053
0.000167966
0.000163483
0.000153209
0.000144738
9.94459e-05
1.02734e-05
1.033e-05
1.0402e-05
1.05225e-05
1.06763e-05
1.0885e-05
1.11225e-05
1.14109e-05
1.17199e-05
1.2076e-05
1.24361e-05
1.28361e-05
3.69142e-05
0.000199912
0.000147243
0.000188308
0.000173899
0.000176892
0.000165628
0.000158644
0.000148503
0.000140285
9.64118e-05
1.04397e-05
1.04944e-05
1.05547e-05
1.06669e-05
1.08076e-05
1.10005e-05
1.12177e-05
1.14867e-05
1.17702e-05
1.21038e-05
1.24258e-05
1.27875e-05
3.75784e-05
0.000189157
0.000167888
0.000189594
0.000175447
0.000176442
0.000165922
0.000157368
0.000146929
0.000137916
9.46915e-05
1.05582e-05
1.05732e-05
1.06293e-05
1.0738e-05
1.08757e-05
1.10665e-05
1.12824e-05
1.15514e-05
1.18354e-05
1.21707e-05
1.25153e-05
1.35078e-05
4.41431e-05
0.000168344
0.000167376
0.00018367
0.000179377
0.00017266
0.00016228
0.000153106
0.000143216
0.000134109
9.21012e-05
1.19488e-05
1.20482e-05
1.21809e-05
1.24971e-05
1.27763e-05
1.33599e-05
1.37895e-05
1.47262e-05
1.52972e-05
1.68283e-05
1.81667e-05
2.66214e-05
0.000126637
0.000165811
0.000165811
0.0001807
0.000186824
0.000179869
0.000166204
0.000154053
0.000142556
0.000132185
9.04819e-05
3.77801e-05
3.85361e-05
3.96507e-05
4.21899e-05
4.4738e-05
5.00702e-05
5.46097e-05
6.49961e-05
7.25739e-05
8.97484e-05
0.000103185
0.000151643
0.000237019
0.000180153
0.000170349
0.000215334
0.000195573
0.000180553
0.000164904
0.000151442
0.000139497
0.000128625
8.79337e-05
0.000177635
0.000179086
0.000181037
0.00018546
0.000189097
0.00019659
0.000201554
0.000212688
0.000218943
0.000237515
0.000256795
0.000300533
0.00026531
0.000195295
0.000176614
0.000240241
0.000233013
0.000193138
0.00017102
0.000151051
0.000137687
0.000125584
8.56307e-05
0.000196667
0.000197849
0.000199425
0.000202722
0.00020629
0.00021254
0.000218641
0.00023036
0.000241701
0.000262917
0.000282177
0.000334941
0.000344169
0.000230128
0.000305338
0.000310478
0.000240554
0.000196197
0.000169495
0.000148133
0.00013404
0.000121582
8.27724e-05
0.000186319
0.000187339
0.000188799
0.000191496
0.000194723
0.000199787
0.00020538
0.000214532
0.000224468
0.000242803
0.000265267
0.000296087
0.000351914
0.000347627
0.000313841
0.000251964
0.00020532
0.000175117
0.000154443
0.000137531
0.000125328
0.000114742
7.84552e-05
0.00017587
0.000176561
0.00017785
0.000179976
0.000182832
0.000186841
0.000191816
0.000198834
0.000207037
0.000218577
0.000233152
0.000249855
0.000279199
0.000280925
0.000256293
0.00021959
0.000191626
0.000164244
0.000148576
0.000131515
0.000121128
0.000110134
7.56068e-05
0.000164995
0.000165504
0.000166545
0.000168037
0.000170328
0.000173022
0.000177023
0.000181433
0.000188286
0.000194466
0.000205845
0.000210195
0.000224426
0.000226306
0.000204523
0.000185828
0.000163863
0.000145902
0.000132031
0.00011963
0.000110179
0.000101773
7.00108e-05
0.000154795
0.000155114
0.000155925
0.000156874
0.000158641
0.000160222
0.000163208
0.000165299
0.000170011
0.000172002
0.000179091
0.000180193
0.000184918
0.000183166
0.000170595
0.000159646
0.000144005
0.00013109
0.000121792
0.00011015
0.000103721
9.52722e-05
6.65849e-05
0.000144406
0.000144565
0.000145127
0.000145572
0.000146833
0.0001475
0.00014974
0.000150397
0.000153891
0.000153705
0.0001578
0.000156473
0.000157579
0.000155301
0.000145217
0.000137269
0.000125329
0.000116818
0.000108529
0.000100007
9.40666e-05
8.76784e-05
6.11871e-05
0.000135017
0.000135041
0.000135373
0.00013539
0.000136132
0.000135976
0.000137272
0.000136635
0.000138583
0.00013709
0.000138812
0.000136798
0.000135182
0.000132254
0.000125262
0.000119367
0.00011057
0.000104371
9.71727e-05
9.09309e-05
8.59334e-05
8.06704e-05
5.73031e-05
0.000125735
0.000125655
0.000125791
0.000125498
0.00012585
0.000125196
0.000125872
0.000124569
0.000125447
0.000123297
0.000123449
0.000120829
0.000118574
0.000115429
0.000109582
0.000104485
9.76164e-05
9.26937e-05
8.66771e-05
8.20688e-05
7.76894e-05
7.36921e-05
5.24498e-05
0.000117489
0.000117313
0.000117251
0.000116673
0.000116597
0.000115476
0.00011544
0.000113596
0.00011347
0.000110917
0.000109988
0.000107056
0.000104201
0.000100813
9.61269e-05
9.1831e-05
8.65571e-05
8.25017e-05
7.76111e-05
7.40212e-05
7.02657e-05
6.72136e-05
4.85168e-05
0.000109579
0.000109342
0.00010913
0.000108379
0.000107995
0.000106624
0.00010609
0.000103977
0.000103144
0.000100365
9.87472e-05
9.56468e-05
9.27148e-05
8.9336e-05
8.51441e-05
8.12721e-05
7.6828e-05
7.32781e-05
6.92386e-05
6.63382e-05
6.32039e-05
6.08965e-05
4.42113e-05
0.000102641
0.000102345
0.000101981
0.000101063
0.000100366
9.87585e-05
9.77487e-05
9.54069e-05
9.39954e-05
9.10518e-05
8.8931e-05
8.56483e-05
8.2548e-05
7.90956e-05
7.53715e-05
7.18484e-05
6.81255e-05
6.50354e-05
6.17313e-05
5.93291e-05
5.6774e-05
5.50108e-05
4.04482e-05
9.61532e-05
9.58205e-05
9.53447e-05
9.43266e-05
9.33992e-05
9.16584e-05
9.02994e-05
8.78283e-05
8.59906e-05
8.29423e-05
8.0487e-05
7.71601e-05
7.4046e-05
7.06372e-05
6.71247e-05
6.38005e-05
6.04526e-05
5.76356e-05
5.4813e-05
5.2759e-05
5.06846e-05
4.93532e-05
3.66437e-05
9.0544e-05
9.01762e-05
8.95938e-05
8.84805e-05
8.73405e-05
8.5473e-05
8.38103e-05
8.12217e-05
7.90408e-05
7.58949e-05
7.31596e-05
6.97092e-05
6.6482e-05
6.30157e-05
5.96612e-05
5.64672e-05
5.34323e-05
5.08456e-05
4.8434e-05
4.66717e-05
4.50278e-05
4.40523e-05
3.31336e-05
8.54216e-05
8.50295e-05
8.43644e-05
8.31857e-05
8.18812e-05
7.99261e-05
7.80271e-05
7.53528e-05
7.29046e-05
6.96796e-05
6.67383e-05
6.32495e-05
5.99694e-05
5.6503e-05
5.31959e-05
5.00587e-05
4.71614e-05
4.4704e-05
4.25372e-05
4.09841e-05
3.96747e-05
3.89987e-05
2.97655e-05
8.10759e-05
8.06622e-05
7.99255e-05
7.86883e-05
7.72433e-05
7.52084e-05
7.31126e-05
7.03558e-05
6.76875e-05
6.4379e-05
6.12384e-05
5.76355e-05
5.42203e-05
5.06577e-05
4.73312e-05
4.41806e-05
4.13643e-05
3.89823e-05
3.7006e-05
3.56315e-05
3.46202e-05
3.42236e-05
2.65408e-05
7.72214e-05
7.67888e-05
7.59914e-05
7.47026e-05
7.31409e-05
7.10351e-05
6.87771e-05
6.59435e-05
6.29983e-05
5.97011e-05
5.63641e-05
5.27256e-05
4.9204e-05
4.55716e-05
4.21724e-05
3.89594e-05
3.61189e-05
3.37351e-05
3.18433e-05
3.05892e-05
2.9814e-05
2.96748e-05
2.35477e-05
7.40481e-05
7.36015e-05
7.27576e-05
7.1429e-05
6.97753e-05
6.7611e-05
6.52213e-05
6.23185e-05
5.91798e-05
5.57773e-05
5.22033e-05
4.85085e-05
4.48215e-05
4.10955e-05
3.75548e-05
3.42052e-05
3.12703e-05
2.88164e-05
2.69485e-05
2.57813e-05
2.52227e-05
2.53509e-05
2.06245e-05
7.13502e-05
7.08879e-05
6.99999e-05
6.86287e-05
6.67271e-05
6.43991e-05
6.16987e-05
5.86844e-05
5.53892e-05
5.18743e-05
4.82113e-05
4.44545e-05
4.07068e-05
3.70295e-05
3.35181e-05
2.99901e-05
2.68778e-05
2.42683e-05
2.23293e-05
2.11908e-05
2.08199e-05
2.12311e-05
1.79905e-05
6.92701e-05
6.87978e-05
6.77738e-05
6.62025e-05
6.42067e-05
6.18256e-05
5.90701e-05
5.59881e-05
5.26073e-05
4.89819e-05
4.51681e-05
4.12303e-05
3.72637e-05
3.33506e-05
2.96229e-05
2.61935e-05
2.29118e-05
2.00443e-05
1.79312e-05
1.67617e-05
1.65797e-05
1.73313e-05
1.54176e-05
6.76438e-05
6.712e-05
6.59516e-05
6.43369e-05
6.22818e-05
5.98212e-05
5.69734e-05
5.37863e-05
5.02954e-05
4.65573e-05
4.26285e-05
3.85704e-05
3.44629e-05
3.03801e-05
2.64368e-05
2.27495e-05
1.94786e-05
1.62371e-05
1.37893e-05
1.24727e-05
1.2492e-05
1.36905e-05
1.32281e-05
6.63492e-05
6.56128e-05
6.44014e-05
6.27406e-05
6.06431e-05
5.81399e-05
5.52506e-05
5.20162e-05
4.84689e-05
4.46592e-05
4.06358e-05
3.64578e-05
3.21928e-05
2.79109e-05
2.37079e-05
1.96904e-05
1.60304e-05
1.29445e-05
9.94836e-06
8.28277e-06
8.58828e-06
1.04554e-05
1.1203e-05
6.57587e-05
6.50373e-05
6.38346e-05
6.21633e-05
6.00337e-05
5.74765e-05
5.4516e-05
5.1195e-05
4.75501e-05
4.36327e-05
3.94916e-05
3.51831e-05
3.07668e-05
2.63026e-05
2.18643e-05
1.75309e-05
1.34309e-05
9.79476e-06
6.89081e-06
4.2518e-06
5.13703e-06
7.85151e-06
9.79693e-06
6.49842e-05
6.42487e-05
6.30303e-05
6.13479e-05
5.92162e-05
5.66633e-05
5.37125e-05
5.04027e-05
4.67677e-05
4.28553e-05
3.87099e-05
3.4384e-05
2.993e-05
2.54003e-05
2.08509e-05
1.6332e-05
1.19027e-05
7.63947e-06
3.89169e-06
2.8557e-06
2.8557e-06
5.22925e-06
8.68707e-06
0.000120988
7.59938e-05
6.51244e-05
6.51244e-05
0.000143646
0.000131538
0.000119541
0.000119541
0.000131073
0.000117616
0.000103622
0.000103622
0.000107937
0.000100883
9.33042e-05
9.33042e-05
9.68218e-05
9.08656e-05
8.44281e-05
8.44281e-05
8.51621e-05
8.11517e-05
7.69898e-05
7.69898e-05
8.01542e-05
7.65186e-05
7.27711e-05
7.27711e-05
7.41122e-05
7.1197e-05
6.82436e-05
6.82436e-05
7.12075e-05
6.8527e-05
6.583e-05
6.583e-05
6.7617e-05
6.52366e-05
6.28844e-05
6.28844e-05
6.5691e-05
6.34418e-05
6.1253e-05
6.1253e-05
6.32583e-05
6.11703e-05
5.91651e-05
5.91651e-05
6.18494e-05
5.98211e-05
5.78993e-05
5.78993e-05
5.999e-05
5.80639e-05
5.6245e-05
5.6245e-05
5.88596e-05
5.69584e-05
5.51548e-05
5.51548e-05
5.72287e-05
5.54029e-05
5.36519e-05
5.36519e-05
5.61163e-05
5.42842e-05
5.25189e-05
5.25189e-05
5.44726e-05
5.26875e-05
5.09527e-05
5.09527e-05
5.29635e-05
5.12012e-05
4.94858e-05
4.94858e-05
5.1138e-05
4.94351e-05
4.77669e-05
4.77669e-05
4.86125e-05
4.70841e-05
4.55923e-05
4.55923e-05
4.68197e-05
4.53266e-05
4.38812e-05
4.38812e-05
4.35345e-05
4.22993e-05
4.11038e-05
4.11038e-05
4.14603e-05
4.03289e-05
3.92316e-05
3.92316e-05
3.82353e-05
3.73113e-05
3.64211e-05
3.64211e-05
3.58939e-05
3.50984e-05
3.4333e-05
3.4333e-05
3.29598e-05
3.23208e-05
3.17171e-05
3.17171e-05
3.05708e-05
3.00509e-05
2.95651e-05
2.95651e-05
2.79403e-05
2.75413e-05
2.71802e-05
2.71802e-05
2.56372e-05
2.53434e-05
2.50843e-05
2.50843e-05
2.32929e-05
2.30946e-05
2.2932e-05
2.2932e-05
2.11348e-05
2.10294e-05
2.09557e-05
2.09557e-05
1.90512e-05
1.90255e-05
1.90255e-05
1.90314e-05
1.7065e-05
1.7065e-05
1.71231e-05
1.72098e-05
1.52163e-05
1.52163e-05
1.53491e-05
1.55101e-05
1.34214e-05
1.34214e-05
1.36359e-05
1.38761e-05
1.18095e-05
1.18095e-05
1.21035e-05
1.24216e-05
1.0249e-05
1.0249e-05
1.06315e-05
1.10332e-05
8.93994e-06
8.93994e-06
9.41347e-06
9.89985e-06
7.74688e-06
7.74688e-06
8.31474e-06
8.88413e-06
6.94577e-06
6.94577e-06
7.59782e-06
8.23872e-06
6.42106e-06
6.42106e-06
7.12234e-06
7.80172e-06
8.15166e-05
6.85626e-05
6.08766e-05
4.71011e-05
4.56209e-05
3.97404e-05
3.79838e-05
3.38478e-05
3.15632e-05
2.81163e-05
2.56325e-05
2.26151e-05
2.01579e-05
1.75206e-05
1.52687e-05
1.3088e-05
1.13083e-05
9.90854e-06
9.157e-06
0.000181745
0.000130881
0.000103673
7.77791e-05
7.0124e-05
5.95704e-05
5.52692e-05
4.87933e-05
4.50408e-05
4.01135e-05
3.65599e-05
3.24776e-05
2.91815e-05
2.57625e-05
2.28918e-05
2.02065e-05
1.80797e-05
1.64766e-05
1.56424e-05
0.000154164
0.000126763
0.000105969
8.42467e-05
7.48522e-05
6.37786e-05
5.82867e-05
5.14285e-05
4.71649e-05
4.21234e-05
3.84198e-05
3.43943e-05
3.1146e-05
2.7897e-05
2.52009e-05
2.27611e-05
2.08697e-05
1.94902e-05
1.87851e-05
0.00014434
0.000127439
0.000108395
8.89376e-05
7.86164e-05
6.76229e-05
6.12028e-05
5.41372e-05
4.94162e-05
4.43034e-05
4.04557e-05
3.64942e-05
3.3286e-05
3.01934e-05
2.76459e-05
2.541e-05
2.37e-05
2.24844e-05
2.18687e-05
0.000131025
0.000125774
0.000107942
9.21114e-05
8.11601e-05
7.05242e-05
6.35816e-05
5.6543e-05
5.15322e-05
4.64555e-05
4.25212e-05
3.86593e-05
3.55018e-05
3.25616e-05
3.01444e-05
2.80801e-05
2.65128e-05
2.54216e-05
2.4871e-05
0.00012183
0.000123281
0.000106943
9.33618e-05
8.2548e-05
7.27531e-05
6.5577e-05
5.87703e-05
5.35789e-05
4.86067e-05
4.46191e-05
4.08687e-05
3.77615e-05
3.4959e-05
3.26515e-05
3.07283e-05
2.9273e-05
2.8277e-05
2.77749e-05
0.000115524
0.000119879
0.000105266
9.43485e-05
8.36584e-05
7.45892e-05
6.72892e-05
6.07529e-05
5.5472e-05
5.0647e-05
4.66527e-05
4.30312e-05
3.99871e-05
3.73161e-05
3.51084e-05
3.3306e-05
3.19429e-05
3.10232e-05
3.05591e-05
0.000109321
0.000116854
0.000103896
9.40873e-05
8.41121e-05
7.58386e-05
6.86309e-05
6.2457e-05
5.71909e-05
5.25586e-05
4.86009e-05
4.51189e-05
4.21478e-05
3.95998e-05
3.74832e-05
3.57839e-05
3.44981e-05
3.36401e-05
3.32066e-05
0.000105726
0.000113927
0.000102373
9.34158e-05
8.44555e-05
7.67856e-05
6.97804e-05
6.39264e-05
5.87476e-05
5.43072e-05
5.04247e-05
4.70832e-05
4.41981e-05
4.17666e-05
3.9738e-05
3.81302e-05
3.69126e-05
3.6107e-05
3.56995e-05
0.000101405
0.00011127
0.000100948
9.26257e-05
8.4354e-05
7.73462e-05
7.06464e-05
6.51215e-05
6.01011e-05
5.58653e-05
5.20947e-05
4.88975e-05
4.61111e-05
4.37911e-05
4.1849e-05
4.03237e-05
3.91678e-05
3.84077e-05
3.80228e-05
9.89334e-05
0.000108848
9.94718e-05
9.16824e-05
8.40236e-05
7.76771e-05
7.13259e-05
6.6091e-05
6.12692e-05
5.7229e-05
5.35951e-05
5.05397e-05
4.78618e-05
4.56494e-05
4.37937e-05
4.23451e-05
4.12471e-05
4.0528e-05
4.01638e-05
9.57523e-05
0.000106553
9.79644e-05
9.06424e-05
8.35432e-05
7.76355e-05
7.17667e-05
6.68175e-05
6.22225e-05
5.83812e-05
5.49036e-05
5.19921e-05
4.94312e-05
4.73247e-05
4.55561e-05
4.41805e-05
4.3138e-05
4.24569e-05
4.21119e-05
9.37816e-05
0.000104408
9.64163e-05
8.95116e-05
8.28914e-05
7.73215e-05
7.20122e-05
6.73286e-05
6.29737e-05
5.93256e-05
5.60158e-05
5.32467e-05
5.08084e-05
4.88062e-05
4.71254e-05
4.58202e-05
4.4832e-05
4.41869e-05
4.38604e-05
9.12016e-05
0.000102266
9.47603e-05
8.82477e-05
8.20638e-05
7.68151e-05
7.18736e-05
6.76196e-05
6.35093e-05
6.00546e-05
5.69201e-05
5.42946e-05
5.19834e-05
5.00853e-05
4.84934e-05
4.72575e-05
4.63228e-05
4.57127e-05
4.54042e-05
8.94481e-05
0.000100139
9.3017e-05
8.68705e-05
8.107e-05
7.61289e-05
7.15026e-05
6.75743e-05
6.38356e-05
6.05725e-05
5.76173e-05
5.51356e-05
5.2954e-05
5.11601e-05
4.96576e-05
4.84904e-05
4.76089e-05
4.70332e-05
4.67424e-05
8.70683e-05
9.79049e-05
9.11188e-05
8.53276e-05
7.98845e-05
7.52448e-05
7.09254e-05
6.72422e-05
6.38615e-05
6.08803e-05
5.81059e-05
5.57688e-05
5.37186e-05
5.20296e-05
5.06173e-05
4.95188e-05
4.86905e-05
4.81489e-05
4.78757e-05
8.52033e-05
9.55617e-05
8.90779e-05
8.36322e-05
7.85242e-05
7.41804e-05
7.01566e-05
6.67166e-05
6.35728e-05
6.08854e-05
5.83893e-05
5.61983e-05
5.42809e-05
5.26975e-05
5.13761e-05
5.03466e-05
4.95715e-05
4.90641e-05
4.88086e-05
8.26836e-05
9.2956e-05
8.68123e-05
8.17205e-05
7.69562e-05
7.29141e-05
6.91866e-05
6.59929e-05
6.30872e-05
6.05952e-05
5.8367e-05
5.64305e-05
5.46463e-05
5.31695e-05
5.19394e-05
5.09794e-05
5.02577e-05
4.97846e-05
4.95466e-05
8.02986e-05
9.01975e-05
8.44016e-05
7.96492e-05
7.52237e-05
7.14777e-05
6.80415e-05
6.50932e-05
6.24231e-05
6.01269e-05
5.80807e-05
5.63361e-05
5.48206e-05
5.34535e-05
5.23154e-05
5.14255e-05
5.07576e-05
5.0319e-05
5.00989e-05
7.754e-05
8.70316e-05
8.16913e-05
7.73201e-05
7.327e-05
6.98387e-05
6.67063e-05
6.40121e-05
6.15817e-05
5.94856e-05
5.76234e-05
5.60315e-05
5.46514e-05
5.35014e-05
5.25145e-05
5.16953e-05
5.10813e-05
5.06775e-05
5.04747e-05
7.41386e-05
8.37803e-05
7.88885e-05
7.48709e-05
7.11869e-05
6.80607e-05
6.52259e-05
6.27829e-05
6.05894e-05
5.86932e-05
5.70138e-05
5.5575e-05
5.43301e-05
5.32907e-05
5.24305e-05
5.17546e-05
5.12405e-05
5.08719e-05
5.0688e-05
7.13565e-05
8.0156e-05
7.5795e-05
7.21848e-05
6.89021e-05
6.61048e-05
6.35817e-05
6.14005e-05
5.9449e-05
5.77575e-05
5.62629e-05
5.49793e-05
5.38705e-05
5.2943e-05
5.21761e-05
5.15728e-05
5.11218e-05
5.08237e-05
5.06714e-05
6.70653e-05
7.64443e-05
7.26151e-05
6.94077e-05
6.65177e-05
6.40436e-05
6.18259e-05
5.99036e-05
5.81907e-05
5.67027e-05
5.53912e-05
5.42628e-05
5.32893e-05
5.24735e-05
5.17994e-05
5.12682e-05
5.08708e-05
5.0608e-05
5.04764e-05
6.40695e-05
7.26048e-05
6.92894e-05
6.64961e-05
6.4004e-05
6.18632e-05
5.99552e-05
5.82972e-05
5.68246e-05
5.55425e-05
5.44145e-05
5.34418e-05
5.26035e-05
5.18995e-05
5.1318e-05
5.08587e-05
5.05155e-05
5.02885e-05
5.01762e-05
5.96716e-05
6.86421e-05
6.58652e-05
6.35023e-05
6.14114e-05
5.96059e-05
5.80051e-05
5.661e-05
5.53751e-05
5.42976e-05
5.33511e-05
5.25331e-05
5.18284e-05
5.12356e-05
5.07459e-05
5.03586e-05
5.00694e-05
4.98782e-05
4.97836e-05
5.63556e-05
6.47388e-05
6.24496e-05
6.04921e-05
5.87808e-05
5.73016e-05
5.60005e-05
5.48655e-05
5.38648e-05
5.29901e-05
5.22229e-05
5.15583e-05
5.09858e-05
5.0503e-05
5.01041e-05
4.97881e-05
4.95522e-05
4.93959e-05
4.93185e-05
5.22156e-05
6.07758e-05
5.89796e-05
5.74366e-05
5.61078e-05
5.49572e-05
5.3954e-05
5.30774e-05
5.23079e-05
5.16336e-05
5.10428e-05
5.05295e-05
5.00871e-05
4.97128e-05
4.94033e-05
4.91574e-05
4.89737e-05
4.88518e-05
4.87913e-05
4.87878e-05
5.69414e-05
5.55935e-05
5.44368e-05
5.34656e-05
5.26278e-05
5.19093e-05
5.12827e-05
5.0737e-05
5.02581e-05
4.98392e-05
4.94737e-05
4.91581e-05
4.88899e-05
4.86676e-05
4.84902e-05
4.83575e-05
4.8269e-05
4.82251e-05
4.49841e-05
5.31334e-05
5.22225e-05
5.14493e-05
5.08303e-05
5.03025e-05
4.9864e-05
4.94835e-05
4.91567e-05
4.8869e-05
4.86177e-05
4.83965e-05
4.82044e-05
4.80394e-05
4.79017e-05
4.77908e-05
4.77076e-05
4.76515e-05
4.76238e-05
4.16331e-05
4.94855e-05
4.89765e-05
4.85634e-05
4.8275e-05
4.80416e-05
4.78688e-05
4.77236e-05
4.76065e-05
4.75025e-05
4.74122e-05
4.73298e-05
4.72567e-05
4.71912e-05
4.71351e-05
4.70883e-05
4.70527e-05
4.70278e-05
4.70157e-05
3.81836e-05
4.59288e-05
4.58062e-05
4.57449e-05
4.57767e-05
4.583e-05
4.59148e-05
4.59977e-05
4.60827e-05
4.61559e-05
4.62204e-05
4.62714e-05
4.63121e-05
4.63419e-05
4.63637e-05
4.63781e-05
4.63879e-05
4.63931e-05
4.63958e-05
3.50174e-05
4.2557e-05
4.27956e-05
4.30673e-05
4.3401e-05
4.3726e-05
4.40541e-05
4.43529e-05
4.46293e-05
4.48704e-05
4.50816e-05
4.52591e-05
4.54077e-05
4.55277e-05
4.56233e-05
4.56958e-05
4.57485e-05
4.57822e-05
4.57989e-05
3.19275e-05
3.93233e-05
3.991e-05
4.05044e-05
4.11276e-05
4.17132e-05
4.22731e-05
4.27777e-05
4.32353e-05
4.36351e-05
4.39842e-05
4.42805e-05
4.45302e-05
4.47348e-05
4.48995e-05
4.50264e-05
4.51191e-05
4.51796e-05
4.52094e-05
2.90097e-05
3.63021e-05
3.7221e-05
3.81224e-05
3.90184e-05
3.98495e-05
4.06264e-05
4.13231e-05
4.19493e-05
4.24966e-05
4.29737e-05
4.33802e-05
4.37235e-05
4.40065e-05
4.4235e-05
4.44121e-05
4.45418e-05
4.46269e-05
4.46687e-05
2.62875e-05
3.34668e-05
3.47068e-05
3.59019e-05
3.70561e-05
3.81176e-05
3.90961e-05
3.99705e-05
4.07516e-05
4.1434e-05
4.2028e-05
4.25349e-05
4.29635e-05
4.33178e-05
4.36043e-05
4.38272e-05
4.39907e-05
4.40982e-05
4.41511e-05
2.36802e-05
3.08876e-05
3.24365e-05
3.39087e-05
3.53029e-05
3.65764e-05
3.77388e-05
3.87745e-05
3.96955e-05
4.04998e-05
4.11987e-05
4.17957e-05
4.23005e-05
4.27182e-05
4.30564e-05
4.33197e-05
4.35131e-05
4.36401e-05
4.37027e-05
2.13711e-05
2.85608e-05
3.04019e-05
3.21302e-05
3.37425e-05
3.52061e-05
3.65316e-05
3.77094e-05
3.87529e-05
3.96634e-05
4.04535e-05
4.11287e-05
4.16998e-05
4.21729e-05
4.25562e-05
4.28551e-05
4.30748e-05
4.32195e-05
4.32908e-05
1.91776e-05
2.65626e-05
2.86741e-05
3.06326e-05
3.24375e-05
3.40667e-05
3.5533e-05
3.68324e-05
3.79804e-05
3.8981e-05
3.98483e-05
4.05895e-05
4.12161e-05
4.17353e-05
4.21558e-05
4.24837e-05
4.27245e-05
4.28834e-05
4.29622e-05
1.74101e-05
2.49101e-05
2.72557e-05
2.94078e-05
3.13715e-05
3.31351e-05
3.47145e-05
3.61111e-05
3.73419e-05
3.84138e-05
3.93423e-05
4.01357e-05
4.08065e-05
4.13628e-05
4.18138e-05
4.21661e-05
4.24254e-05
4.25962e-05
4.26808e-05
1.58304e-05
2.36835e-05
2.62153e-05
2.85172e-05
3.06018e-05
3.24665e-05
3.41302e-05
3.55987e-05
3.68907e-05
3.80154e-05
3.89889e-05
3.98211e-05
4.05248e-05
4.11088e-05
4.15827e-05
4.19536e-05
4.22273e-05
4.24076e-05
4.24967e-05
1.48514e-05
2.28913e-05
2.55391e-05
2.79328e-05
3.00905e-05
3.20163e-05
3.37309e-05
3.5243e-05
3.65722e-05
3.77288e-05
3.87295e-05
3.95847e-05
4.03077e-05
4.09075e-05
4.13938e-05
4.17736e-05
4.20532e-05
4.22373e-05
4.23283e-05
1.41708e-05
2.28913e-05
2.55391e-05
2.79328e-05
3.00905e-05
3.20163e-05
3.37309e-05
3.5243e-05
3.65722e-05
3.77288e-05
3.87295e-05
3.95847e-05
4.03077e-05
4.09075e-05
4.13938e-05
4.17736e-05
4.20532e-05
4.22373e-05
4.23283e-05
)
;

boundaryField
{
    leftWall
    {
        type            calculated;
        value           uniform 0;
    }
    rightWall
    {
        type            calculated;
        value           uniform 0;
    }
    lowerWall
    {
        type            calculated;
        value           uniform 0;
    }
    atmosphere
    {
        type            calculated;
        value           uniform 0;
    }
    defaultFaces
    {
        type            empty;
    }
}


// ************************************************************************* //
