/*--------------------------------*- C++ -*----------------------------------*\
| =========                 |                                                 |
| \\      /  F ield         | OpenFOAM: The Open Source CFD Toolbox           |
|  \\    /   O peration     | Version:  2012                                  |
|   \\  /    A nd           | Website:  www.openfoam.com                      |
|    \\/     M anipulation  |                                                 |
\*---------------------------------------------------------------------------*/
FoamFile
{
    version     2.0;
    format      ascii;
    class       surfaceScalarField;
    location    "0.07";
    object      phi;
}
// * * * * * * * * * * * * * * * * * * * * * * * * * * * * * * * * * * * * * //

dimensions      [0 3 -1 0 0 0 0];
oriented        oriented;


internalField   nonuniform List<scalar> 
4432
(
4.20782e-06
-4.20782e-06
8.45502e-06
-4.24722e-06
1.28222e-05
-4.36717e-06
1.73205e-05
-4.49836e-06
2.2068e-05
-4.74749e-06
2.70866e-05
-5.01857e-06
3.25057e-05
-5.41909e-06
3.84336e-05
-5.92798e-06
4.49866e-05
-6.553e-06
5.24213e-05
-7.43473e-06
6.08073e-05
-8.38594e-06
7.13436e-05
-1.05363e-05
8.48248e-05
-1.34812e-05
9.8513e-05
-1.36881e-05
0.000108652
-1.00161e-05
0.000116426
-7.77162e-06
0.000124865
-8.41455e-06
0.000128601
-3.71858e-06
0.000114429
1.41719e-05
8.12438e-05
3.31847e-05
4.92094e-05
3.2034e-05
2.3456e-05
2.57529e-05
2.34555e-05
4.19675e-06
-8.40458e-06
8.43251e-06
-8.48298e-06
1.2787e-05
-8.72169e-06
1.72709e-05
-8.98228e-06
2.20019e-05
-9.4785e-06
2.69998e-05
-1.00164e-05
3.23935e-05
-1.08128e-05
3.82898e-05
-1.18242e-05
4.47905e-05
-1.30537e-05
5.22087e-05
-1.4853e-05
6.05375e-05
-1.67148e-05
7.07863e-05
-2.07851e-05
8.32682e-05
-2.59632e-05
9.622e-05
-2.66399e-05
0.000107712
-2.15067e-05
0.000118038
-1.80837e-05
0.000126861
-1.71891e-05
0.000126305
-3.15242e-06
0.000106524
3.39525e-05
7.54099e-05
6.42987e-05
4.76891e-05
5.97545e-05
2.32189e-05
5.02226e-05
4.6674e-05
4.1746e-06
-1.25792e-05
8.38739e-06
-1.26958e-05
1.27165e-05
-1.30508e-05
1.71716e-05
-1.34374e-05
2.18692e-05
-1.41761e-05
2.68259e-05
-1.49731e-05
3.21662e-05
-1.61532e-05
3.80005e-05
-1.76585e-05
4.43992e-05
-1.94524e-05
5.17337e-05
-2.21875e-05
5.99314e-05
-2.49124e-05
6.98004e-05
-3.06542e-05
8.14563e-05
-3.76191e-05
9.36887e-05
-3.88723e-05
0.000105946
-3.3755e-05
0.000118489
-3.05694e-05
0.000127301
-2.596e-05
0.000119704
4.44847e-06
9.30138e-05
6.06425e-05
6.47418e-05
9.25707e-05
4.25317e-05
8.19643e-05
2.12878e-05
7.14661e-05
6.79614e-05
4.14187e-06
-1.67211e-05
8.32089e-06
-1.68748e-05
1.26124e-05
-1.73423e-05
1.70256e-05
-1.78506e-05
2.16737e-05
-1.88242e-05
2.65714e-05
-1.98708e-05
3.1832e-05
-2.14138e-05
3.75763e-05
-2.34029e-05
4.38313e-05
-2.57073e-05
5.10076e-05
-2.93638e-05
5.89911e-05
-3.28959e-05
6.83906e-05
-4.00537e-05
7.92072e-05
-4.84357e-05
9.08651e-05
-5.01326e-05
0.000103612
-4.64786e-05
0.000117244
-4.41114e-05
0.000122379
-3.10749e-05
0.000105866
2.0963e-05
7.64859e-05
9.00223e-05
5.54163e-05
0.00011364
3.85535e-05
9.8827e-05
1.97945e-05
9.02249e-05
8.77557e-05
4.09832e-06
-2.08194e-05
8.23253e-06
-2.1009e-05
1.24738e-05
-2.15836e-05
1.68318e-05
-2.22086e-05
2.14129e-05
-2.34052e-05
2.62326e-05
-2.46906e-05
3.13862e-05
-2.65674e-05
3.70085e-05
-2.90253e-05
4.30846e-05
-3.17835e-05
5.0017e-05
-3.62962e-05
5.7707e-05
-4.05859e-05
6.65648e-05
-4.89115e-05
7.6544e-05
-5.8415e-05
8.75975e-05
-6.11861e-05
0.000101032
-5.98405e-05
0.000114611
-5.76041e-05
0.000112276
-2.87336e-05
8.78074e-05
4.54322e-05
6.31973e-05
0.000114633
5.01799e-05
0.000126658
3.70687e-05
0.000111938
2.01378e-05
0.000107156
0.000107893
4.04519e-06
-2.48646e-05
8.12503e-06
-2.50889e-05
1.2305e-05
-2.57635e-05
1.65973e-05
-2.6501e-05
2.10967e-05
-2.79046e-05
2.5824e-05
-2.94179e-05
3.08515e-05
-3.15949e-05
3.63243e-05
-3.4498e-05
4.2199e-05
-3.76582e-05
4.8818e-05
-4.29152e-05
5.61551e-05
-4.7923e-05
6.43985e-05
-5.71549e-05
7.34422e-05
-6.74586e-05
8.38341e-05
-7.15766e-05
9.64837e-05
-7.2373e-05
0.000108139
-6.92009e-05
9.80239e-05
-1.86161e-05
6.93314e-05
7.41249e-05
5.22383e-05
0.000131726
4.41619e-05
0.000134734
3.33217e-05
0.000122778
1.80542e-05
0.000122423
0.000125948
3.98133e-06
-2.88459e-05
7.99595e-06
-2.91035e-05
1.21018e-05
-2.98694e-05
1.63157e-05
-3.07148e-05
2.0715e-05
-3.23039e-05
2.53298e-05
-3.40327e-05
3.02068e-05
-3.64719e-05
3.54898e-05
-3.9781e-05
4.11306e-05
-4.3299e-05
4.73651e-05
-4.91497e-05
5.42848e-05
-5.48428e-05
6.18457e-05
-6.47158e-05
6.99154e-05
-7.55284e-05
7.96938e-05
-8.13468e-05
9.10135e-05
-8.35467e-05
9.92101e-05
-7.7362e-05
8.24401e-05
-1.8448e-06
5.54759e-05
0.000101089
4.65779e-05
0.000140624
4.22599e-05
0.000139052
3.46316e-05
0.000130407
2.07674e-05
0.000136288
0.000146715
3.90806e-06
-3.2754e-05
7.84815e-06
-3.30436e-05
1.18695e-05
-3.38908e-05
1.59953e-05
-3.48406e-05
2.02819e-05
-3.65905e-05
2.47725e-05
-3.85233e-05
2.94895e-05
-4.11889e-05
3.4564e-05
-4.48556e-05
3.99713e-05
-4.87063e-05
4.58204e-05
-5.49989e-05
5.23044e-05
-6.13268e-05
5.91677e-05
-7.15791e-05
6.63646e-05
-8.27252e-05
7.52438e-05
-9.02045e-05
8.42471e-05
-9.24186e-05
8.61173e-05
-7.92134e-05
6.4712e-05
1.95613e-05
4.4137e-05
0.000121665
4.1121e-05
0.00014364
3.88686e-05
0.000141305
3.37036e-05
0.000135572
2.1255e-05
0.000148737
0.000167971
2.65482e-06
-2.65478e-06
6.34944e-06
-3.69459e-06
8.37701e-06
-2.02755e-06
9.81292e-06
-1.43588e-06
1.02735e-05
-4.60542e-07
1.02934e-05
-1.99377e-08
9.90966e-06
3.83812e-07
9.31793e-06
5.91713e-07
8.57921e-06
7.38744e-07
7.76312e-06
8.16067e-07
6.90743e-06
8.55714e-07
6.03271e-06
8.74702e-07
5.15486e-06
8.77863e-07
4.27942e-06
8.75414e-07
3.41116e-06
8.68256e-07
2.55003e-06
8.61133e-07
1.69589e-06
8.54137e-07
8.46593e-07
8.49279e-07
8.46581e-07
2.48743e-06
-5.14218e-06
6.37222e-06
-7.57935e-06
8.47146e-06
-4.12675e-06
9.8893e-06
-2.8537e-06
1.03446e-05
-9.15838e-07
1.03395e-05
-1.48569e-08
9.94043e-06
7.82964e-07
9.3348e-06
1.19731e-06
8.58961e-06
1.48397e-06
7.76827e-06
1.63738e-06
6.90954e-06
1.71448e-06
6.03283e-06
1.75138e-06
5.15395e-06
1.75674e-06
4.27806e-06
1.75128e-06
3.40976e-06
1.73658e-06
2.5488e-06
1.72209e-06
1.695e-06
1.70792e-06
8.46128e-07
1.69814e-06
1.69273e-06
2.74445e-06
-7.8866e-06
6.84008e-06
-1.16749e-05
8.96385e-06
-6.25048e-06
1.02745e-05
-4.16435e-06
1.06182e-05
-1.25948e-06
1.05211e-05
8.22847e-08
1.00525e-05
1.25154e-06
9.40215e-06
1.84768e-06
8.62843e-06
2.25773e-06
7.78923e-06
2.47657e-06
6.91975e-06
2.58399e-06
6.03661e-06
2.6345e-06
5.1542e-06
2.63916e-06
4.27643e-06
2.62905e-06
3.40746e-06
2.60557e-06
2.54655e-06
2.58299e-06
1.69328e-06
2.56116e-06
8.45211e-07
2.54625e-06
2.53795e-06
2.13201e-06
-1.00186e-05
6.85293e-06
-1.63958e-05
9.26168e-06
-8.65918e-06
1.05265e-05
-5.42917e-06
1.08307e-05
-1.56362e-06
1.06457e-05
2.67269e-07
1.01414e-05
1.75593e-06
9.45078e-06
2.53828e-06
8.65741e-06
3.05116e-06
7.80286e-06
3.33111e-06
6.92474e-06
3.46213e-06
6.0361e-06
3.52313e-06
5.15092e-06
3.52436e-06
4.27196e-06
3.50802e-06
3.40294e-06
3.47461e-06
2.54265e-06
3.44327e-06
1.69048e-06
3.41334e-06
8.43746e-07
3.393e-06
3.38167e-06
2.84885e-06
-1.28674e-05
7.9862e-06
-2.15331e-05
1.02978e-05
-1.09708e-05
1.13162e-05
-6.44753e-06
1.13582e-05
-1.60557e-06
1.09891e-05
6.36385e-07
1.03544e-05
2.39059e-06
9.57675e-06
3.31597e-06
8.72918e-06
3.89877e-06
7.84088e-06
4.2194e-06
6.94262e-06
4.3604e-06
6.04196e-06
4.42378e-06
5.15029e-06
4.41605e-06
4.26805e-06
4.39027e-06
3.398e-06
4.34467e-06
2.53799e-06
4.30328e-06
1.68699e-06
4.26436e-06
8.41881e-07
4.2381e-06
4.22353e-06
1.57608e-06
-1.44434e-05
8.02256e-06
-2.79795e-05
1.0955e-05
-1.39032e-05
1.17837e-05
-7.27619e-06
1.17259e-05
-1.54774e-06
1.11917e-05
1.17053e-06
1.04896e-05
3.0928e-06
9.64883e-06
4.15671e-06
8.76907e-06
4.77855e-06
7.85764e-06
5.13081e-06
6.94668e-06
5.27137e-06
6.03827e-06
5.33219e-06
5.14291e-06
5.31145e-06
4.25929e-06
5.2739e-06
3.38957e-06
5.21439e-06
2.5309e-06
5.16195e-06
1.68195e-06
5.11333e-06
8.3926e-07
5.08078e-06
5.06281e-06
5.21781e-06
-1.96611e-05
1.0666e-05
-3.34277e-05
1.27302e-05
-1.59673e-05
1.29791e-05
-7.5251e-06
1.24722e-05
-1.04091e-06
1.16584e-05
1.98437e-06
1.07687e-05
3.98254e-06
9.81244e-06
5.11297e-06
8.86059e-06
5.73042e-06
7.90484e-06
6.08654e-06
6.96736e-06
6.20887e-06
6.04328e-06
6.25628e-06
5.13954e-06
6.2152e-06
4.25193e-06
6.16151e-06
3.38123e-06
6.08509e-06
2.52337e-06
6.01983e-06
1.6764e-06
5.96031e-06
8.36331e-07
5.92085e-06
5.89917e-06
1.26855e-05
-3.23467e-05
1.3672e-05
-3.44141e-05
1.47004e-05
-1.69958e-05
1.37573e-05
-6.58195e-06
1.29832e-05
-2.66839e-07
1.19205e-05
3.04717e-06
1.09252e-05
4.97785e-06
9.89094e-06
6.1472e-06
8.89847e-06
6.7229e-06
7.91617e-06
7.06885e-06
6.9645e-06
7.16055e-06
6.0324e-06
7.18839e-06
5.12534e-06
7.12226e-06
4.2371e-06
7.04974e-06
3.36773e-06
6.95445e-06
2.51237e-06
6.8752e-06
1.66869e-06
6.80397e-06
8.32376e-07
6.75719e-06
6.73153e-06
8.05002e-06
-4.0804e-05
1.61648e-05
-4.11584e-05
2.44174e-05
-4.21434e-05
3.2881e-05
-4.33042e-05
4.16074e-05
-4.5317e-05
5.07267e-05
-4.76426e-05
6.0222e-05
-5.06842e-05
7.0304e-05
-5.49375e-05
8.10093e-05
-5.94116e-05
9.22237e-05
-6.62134e-05
0.000104479
-7.3582e-05
0.000116666
-8.37656e-05
0.000129886
-9.46458e-05
0.000144695
-0.000104872
0.000158154
-0.000105651
0.000142261
-6.33069e-05
9.6989e-05
6.48346e-05
7.89797e-05
0.000139674
8.21421e-05
0.000140479
8.78808e-05
0.000135567
9.41592e-05
0.000129294
0.000110438
0.000132459
0.00014269
0.00013572
7.61215e-06
-4.84162e-05
1.52824e-05
-4.88286e-05
2.30394e-05
-4.99005e-05
3.09824e-05
-5.12471e-05
3.90803e-05
-5.34149e-05
4.74964e-05
-5.60587e-05
5.61388e-05
-5.93266e-05
6.51447e-05
-6.39435e-05
7.45837e-05
-6.88506e-05
8.41197e-05
-7.57494e-05
9.42484e-05
-8.37107e-05
0.000103853
-9.33703e-05
0.000113692
-0.000104484
0.000122999
-0.000113852
0.000131105
-0.000113601
9.95127e-05
-3.17104e-05
6.39775e-05
0.000100371
6.5623e-05
0.00013803
7.15721e-05
0.000134531
8.00134e-05
0.000127126
8.78452e-05
0.000121463
0.000107206
0.000113098
0.000114519
0.000135378
7.12575e-06
-5.5542e-05
1.43016e-05
-5.60045e-05
2.15173e-05
-5.71162e-05
2.88885e-05
-5.86184e-05
3.63187e-05
-6.08451e-05
4.39899e-05
-6.37299e-05
5.17458e-05
-6.70826e-05
5.96995e-05
-7.18972e-05
6.78422e-05
-7.69933e-05
7.5859e-05
-8.37662e-05
8.39928e-05
-9.18446e-05
9.14025e-05
-0.00010078
9.85352e-05
-0.000111607
0.000103558
-0.000118498
0.000107702
-0.00011764
7.33338e-05
2.66001e-06
5.04e-05
0.000123306
5.8809e-05
0.000129621
6.4769e-05
0.000128571
7.35436e-05
0.000118352
8.1759e-05
0.000113248
9.47012e-05
0.000100157
9.70461e-05
0.000112174
6.60435e-06
-6.21463e-05
1.32492e-05
-6.26494e-05
1.98957e-05
-6.37627e-05
2.66632e-05
-6.53859e-05
3.34143e-05
-6.75962e-05
4.03323e-05
-7.06479e-05
4.72225e-05
-7.39728e-05
5.41935e-05
-7.88682e-05
6.11221e-05
-8.39219e-05
6.78404e-05
-9.04845e-05
7.42863e-05
-9.82905e-05
8.0005e-05
-0.000106499
8.50508e-05
-0.000116619
8.80252e-05
-0.000121098
8.69972e-05
-0.000116544
5.44211e-05
3.52373e-05
4.28169e-05
0.000134911
5.10335e-05
0.000121405
5.63218e-05
0.000123283
6.37225e-05
0.000110952
7.04997e-05
0.000106471
7.77077e-05
9.2949e-05
8.63668e-05
8.83872e-05
6.0571e-06
-6.82034e-05
1.21448e-05
-6.87371e-05
1.8206e-05
-6.98239e-05
2.43532e-05
-7.15331e-05
3.043e-05
-7.3673e-05
3.66064e-05
-7.68243e-05
4.26728e-05
-8.00393e-05
4.8725e-05
-8.49204e-05
5.45635e-05
-8.97605e-05
6.0155e-05
-9.6076e-05
6.52025e-05
-0.000103338
6.96184e-05
-0.000110915
7.3099e-05
-0.000120032
7.49496e-05
-0.000122613
6.41682e-05
-0.000105724
3.66452e-05
6.27616e-05
3.6688e-05
0.000134868
4.3268e-05
0.000114826
4.92278e-05
0.000117324
5.54555e-05
0.000104725
6.12048e-05
0.000100722
6.56495e-05
8.85047e-05
8.11506e-05
7.0866e-05
5.51075e-06
-7.37142e-05
1.10412e-05
-7.42675e-05
1.65249e-05
-7.53076e-05
2.20588e-05
-7.7067e-05
2.74853e-05
-7.90996e-05
3.29504e-05
-8.22894e-05
3.82495e-05
-8.53384e-05
4.34604e-05
-9.01312e-05
4.83538e-05
-9.46539e-05
5.2985e-05
-0.000100707
5.69332e-05
-0.000107286
6.0373e-05
-0.000114354
6.27583e-05
-0.000122307
6.39888e-05
-0.000123558
4.23913e-05
-8.41081e-05
2.2338e-05
8.28159e-05
3.03742e-05
0.000126833
3.52118e-05
0.000109989
4.15863e-05
0.00011095
4.62839e-05
0.000100028
5.12884e-05
9.57184e-05
5.46119e-05
8.51815e-05
7.76616e-05
5.81013e-05
4.95199e-06
-7.86662e-05
9.91491e-06
-7.92305e-05
1.48221e-05
-8.02148e-05
1.97504e-05
-8.19954e-05
2.45559e-05
-8.39051e-05
2.93517e-05
-8.70852e-05
3.39552e-05
-8.99419e-05
3.84156e-05
-9.45917e-05
4.2511e-05
-9.87493e-05
4.63365e-05
-0.000104533
4.94324e-05
-0.000110382
5.21137e-05
-0.000117036
5.37099e-05
-0.00012375
5.43768e-05
-0.000123998
2.69897e-05
-5.67122e-05
1.44205e-05
9.53861e-05
2.52379e-05
0.000116016
2.88927e-05
0.000106335
3.53581e-05
0.000104485
3.91362e-05
9.62501e-05
4.35232e-05
9.13318e-05
4.60176e-05
8.26874e-05
7.55808e-05
4.80987e-05
4.42424e-06
-8.30904e-05
8.84973e-06
-8.3656e-05
1.32114e-05
-8.45765e-05
1.75656e-05
-8.63495e-05
2.17869e-05
-8.81264e-05
2.59561e-05
-9.12544e-05
2.99188e-05
-9.39047e-05
3.37026e-05
-9.83754e-05
3.71097e-05
-0.000102157
4.02552e-05
-0.000107678
4.26823e-05
-0.000112809
4.47933e-05
-0.000119147
4.58714e-05
-0.000124638
4.61413e-05
-0.000124089
1.81061e-05
-2.86724e-05
1.09574e-05
0.000102536
2.04387e-05
0.000106535
2.32601e-05
0.000103514
2.90567e-05
9.8689e-05
3.2025e-05
9.32823e-05
3.58276e-05
8.75295e-05
3.79632e-05
8.05522e-05
7.37249e-05
3.98193e-05
3.87841e-06
-8.69689e-05
7.7538e-06
-8.75314e-05
1.15696e-05
-8.83924e-05
1.53635e-05
-9.01434e-05
1.90347e-05
-9.17976e-05
2.2629e-05
-9.48488e-05
2.60231e-05
-9.72987e-05
2.9229e-05
-0.000101581
3.20707e-05
-0.000104998
3.46653e-05
-0.000110273
3.65845e-05
-0.000114728
3.82514e-05
-0.000120814
3.89879e-05
-0.000125169
3.9e-05
-0.000123953
1.27468e-05
-2.41647e-06
8.95448e-06
0.000106329
1.65091e-05
9.89806e-05
1.86486e-05
0.000101375
2.37069e-05
9.36311e-05
2.6184e-05
9.08057e-05
2.94815e-05
8.42323e-05
3.12141e-05
7.88199e-05
7.22884e-05
3.2651e-05
3.39228e-06
-9.03612e-05
6.7741e-06
-9.09132e-05
1.00917e-05
-9.171e-05
1.33685e-05
-9.34202e-05
1.65234e-05
-9.49525e-05
1.95742e-05
-9.78996e-05
2.24294e-05
-0.000100154
2.50997e-05
-0.000104252
2.74253e-05
-0.000107324
2.95388e-05
-0.000112386
3.10436e-05
-0.000116233
3.23671e-05
-0.000122137
3.29254e-05
-0.000125516
3.25731e-05
-0.00012348
8.96592e-06
2.11926e-05
7.2305e-06
0.000108065
1.27896e-05
9.34221e-05
1.46547e-05
9.95108e-05
1.86314e-05
8.96549e-05
2.06713e-05
8.87662e-05
2.34154e-05
8.14886e-05
2.49654e-05
7.72703e-05
7.08938e-05
2.63604e-05
2.873e-06
-9.32342e-05
5.73557e-06
-9.37758e-05
8.54373e-06
-9.45181e-05
1.1311e-05
-9.61874e-05
1.39728e-05
-9.76143e-05
1.65274e-05
-0.000100454
1.89075e-05
-0.000102534
2.11226e-05
-0.000106467
2.30257e-05
-0.000109227
2.47579e-05
-0.000114118
2.59562e-05
-0.000117431
2.70132e-05
-0.000123194
2.74912e-05
-0.000125786
2.6596e-05
-0.000122489
6.24198e-06
4.15479e-05
5.11046e-06
0.000109197
8.98011e-06
8.9553e-05
1.0547e-05
9.79444e-05
1.37586e-05
8.64438e-05
1.56594e-05
8.68658e-05
1.79749e-05
7.91735e-05
1.94455e-05
7.58001e-05
6.96421e-05
2.06975e-05
2.4344e-06
-9.56686e-05
4.85315e-06
-9.61945e-05
7.2166e-06
-9.68816e-05
9.52571e-06
-9.84966e-05
1.17288e-05
-9.98174e-05
1.38203e-05
-0.000102546
1.57474e-05
-0.000104461
1.75312e-05
-0.000108251
1.9028e-05
-0.000110724
2.0401e-05
-0.000115491
2.12985e-05
-0.000118329
2.21126e-05
-0.000124008
2.25872e-05
-0.000126067
1.99506e-05
-0.000119779
2.86969e-06
5.86297e-05
2.99956e-06
0.000109068
5.65689e-06
8.68962e-05
7.1598e-06
9.6442e-05
9.37139e-06
8.42327e-05
1.10544e-05
8.51833e-05
1.28864e-05
7.7342e-05
1.42725e-05
7.44143e-05
6.84482e-05
1.54666e-05
1.9599e-06
-9.76285e-05
3.9082e-06
-9.81428e-05
5.81315e-06
-9.87866e-05
7.67399e-06
-0.000100357
9.45135e-06
-0.000101595
1.11394e-05
-0.000104234
1.26869e-05
-0.000106009
1.41151e-05
-0.000109679
1.52764e-05
-0.000111885
1.63325e-05
-0.000116548
1.69242e-05
-0.000118921
1.74359e-05
-0.00012452
1.81777e-05
-0.000126647
1.20149e-05
-0.000113563
-1.75507e-06
7.24005e-05
-4.27675e-07
0.000107741
7.93733e-07
8.56754e-05
2.94894e-06
9.42873e-05
4.44197e-06
8.27402e-05
6.37255e-06
8.32531e-05
7.91667e-06
7.57983e-05
9.43995e-06
7.28914e-05
6.72646e-05
1.06239e-05
1.55163e-06
-9.91801e-05
3.0967e-06
-9.96879e-05
4.61565e-06
-0.000100306
6.09128e-06
-0.000101833
7.49424e-06
-0.000102998
8.80919e-06
-0.000105549
9.98986e-06
-0.000107189
1.10629e-05
-0.000110752
1.18867e-05
-0.000112709
1.26056e-05
-0.000117266
1.2836e-05
-0.000119151
1.29438e-05
-0.000124628
1.39193e-05
-0.000127492
3.8352e-06
-0.000103444
-4.63361e-06
8.08699e-05
-1.2128e-06
0.000104321
-1.73485e-06
8.6198e-05
6.62516e-08
9.24866e-05
5.49525e-07
8.22575e-05
2.14326e-06
8.16597e-05
3.30205e-06
7.46399e-05
4.79527e-06
7.13985e-05
6.60617e-05
5.99853e-06
1.16174e-06
-0.000100342
2.30394e-06
-0.00010083
3.40663e-06
-0.000101408
4.46232e-06
-0.000102889
5.45524e-06
-0.000103991
6.37826e-06
-0.000106472
7.20251e-06
-0.000108014
7.94841e-06
-0.000111498
8.50663e-06
-0.000113267
8.95001e-06
-0.00011771
8.96551e-06
-0.000119166
8.98853e-06
-0.000124087
9.14972e-06
-0.000127516
-8.36739e-06
-8.59055e-05
-1.3003e-05
8.55059e-05
-5.74931e-06
9.70674e-05
-7.21559e-06
8.76648e-05
-4.80766e-06
9.00791e-05
-4.59925e-06
8.20496e-05
-2.61362e-06
7.96745e-05
-1.48667e-06
7.35134e-05
2.54062e-07
6.9658e-05
6.47314e-05
1.58467e-06
7.29159e-07
-0.000101071
1.45354e-06
-0.000101555
2.16014e-06
-0.000102115
2.8488e-06
-0.000103577
3.51481e-06
-0.000104657
4.13637e-06
-0.000107093
4.69643e-06
-0.000108574
5.20592e-06
-0.000112007
5.62543e-06
-0.000113687
6.02208e-06
-0.000118107
6.25351e-06
-0.000119398
6.24945e-06
-0.000124086
1.68437e-06
-0.000122774
-6.4942e-06
-7.77159e-05
-3.22477e-06
8.22369e-05
-4.00552e-06
9.78486e-05
-7.74189e-06
9.14017e-05
-8.10283e-06
9.04405e-05
-8.65751e-06
8.26047e-05
-7.28793e-06
7.83053e-05
-6.14586e-06
7.23717e-05
-4.34348e-06
6.7856e-05
6.31821e-05
-2.79392e-06
4.65759e-07
-0.000101556
9.17387e-07
-0.000102027
1.3475e-06
-0.000102568
1.72974e-06
-0.000103987
2.07093e-06
-0.000105029
2.36551e-06
-0.000107429
2.61375e-06
-0.000108872
2.8772e-06
-0.000112341
3.153e-06
-0.000114047
3.83489e-06
-0.000118919
5.02438e-06
-0.000120779
1.00125e-05
-0.000129519
5.45689e-06
-0.000118043
5.11052e-06
-7.73424e-05
6.15633e-06
8.11911e-05
-7.43424e-06
0.00011144
-1.18947e-05
9.58627e-05
-1.34327e-05
9.1979e-05
-1.38194e-05
8.2992e-05
-1.24156e-05
7.69018e-05
-1.09814e-05
7.0938e-05
-8.80283e-06
6.56777e-05
6.12951e-05
-6.91544e-06
2.40801e-07
-0.000102759
4.81954e-07
-0.000103231
7.12648e-07
-0.000103762
9.05095e-07
-0.000105146
1.05776e-06
-0.000106149
1.16575e-06
-0.000108503
1.24923e-06
-0.000109917
1.37931e-06
-0.000113419
1.80741e-06
-0.000115414
3.37643e-06
-0.000121386
9.86029e-06
-0.0001281
2.73272e-05
-0.00014762
2.91142e-05
-0.000120075
2.26475e-05
-7.07699e-05
2.40606e-05
7.97826e-05
-2.61934e-06
0.000138121
-1.82355e-05
0.000111479
-2.02647e-05
9.40089e-05
-2.10243e-05
8.37521e-05
-1.87217e-05
7.45996e-05
-1.65156e-05
6.87323e-05
-1.37361e-05
6.28985e-05
5.88655e-05
-1.13062e-05
-3.4635e-07
-0.000102422
-8.56373e-07
-0.000102731
-1.5086e-06
-0.00010312
-2.38077e-06
-0.000104283
-3.45983e-06
-0.000105079
-4.79027e-06
-0.000107182
-6.36067e-06
-0.000108355
-7.57651e-06
-0.000112212
-8.43309e-06
-0.000114565
-5.86516e-06
-0.000123962
-2.71124e-06
-0.00013126
1.52355e-05
-0.000165573
4.5912e-05
-0.000150831
9.67542e-06
-3.45662e-05
-1.72272e-05
0.000106698
-2.54616e-05
0.000146357
-3.30157e-05
0.000119035
-3.02607e-05
9.12546e-05
-2.88298e-05
8.23217e-05
-2.46514e-05
7.04215e-05
-2.14434e-05
6.55247e-05
-1.78258e-05
5.92812e-05
5.59137e-05
-1.48737e-05
-5.08575e-06
-9.73378e-05
-1.01258e-05
-9.76923e-05
-1.53256e-05
-9.79214e-05
-2.08561e-05
-9.87543e-05
-2.66608e-05
-9.92761e-05
-3.30384e-05
-0.000100805
-3.97654e-05
-0.00010163
-4.72688e-05
-0.00010471
-5.50432e-05
-0.000106792
-6.40333e-05
-0.000114973
-7.64809e-05
-0.000118814
-0.000101186
-0.000140869
-0.000121858
-0.000130161
-0.000143164
-1.32589e-05
-0.00013031
9.38473e-05
-9.02431e-05
0.000106292
-6.57729e-05
9.45651e-05
-5.12089e-05
7.66911e-05
-4.12383e-05
7.23515e-05
-3.37482e-05
6.29317e-05
-2.8e-05
5.97767e-05
-2.31762e-05
5.44577e-05
5.19472e-05
-1.92094e-05
-5.16977e-06
-9.21682e-05
-1.04912e-05
-9.2371e-05
-1.5964e-05
-9.24487e-05
-2.18784e-05
-9.284e-05
-2.8157e-05
-9.29977e-05
-3.52652e-05
-9.36972e-05
-4.29909e-05
-9.39041e-05
-5.24622e-05
-9.52391e-05
-6.36294e-05
-9.5625e-05
-8.01967e-05
-9.84059e-05
-0.000100182
-9.88287e-05
-0.000143085
-9.7966e-05
-0.000194151
-7.90944e-05
-0.000189351
-1.8058e-05
-0.000140103
4.46005e-05
-9.8013e-05
6.42019e-05
-7.16588e-05
6.82113e-05
-5.59267e-05
6.09594e-05
-4.43932e-05
6.08184e-05
-3.6625e-05
5.51638e-05
-3.02771e-05
5.34292e-05
-2.54254e-05
4.96063e-05
4.7749e-05
-2.1227e-05
-5.23497e-06
-8.69332e-05
-1.06283e-05
-8.69777e-05
-1.61427e-05
-8.69344e-05
-2.19647e-05
-8.7018e-05
-2.80851e-05
-8.68774e-05
-3.48198e-05
-8.69626e-05
-4.21815e-05
-8.65426e-05
-5.08708e-05
-8.65498e-05
-6.12082e-05
-8.52877e-05
-7.53292e-05
-8.4285e-05
-9.44006e-05
-7.97573e-05
-0.000120648
-7.17181e-05
-0.00014202
-5.77222e-05
-0.000144712
-1.53664e-05
-0.000122189
2.2078e-05
-9.62853e-05
3.82987e-05
-7.63617e-05
4.8288e-05
-6.19827e-05
4.65807e-05
-5.05403e-05
4.93763e-05
-4.19049e-05
4.65286e-05
-3.48904e-05
4.6415e-05
-2.93091e-05
4.40251e-05
4.30239e-05
-2.45837e-05
-5.31647e-06
-8.1617e-05
-1.0756e-05
-8.15384e-05
-1.63707e-05
-8.13199e-05
-2.23866e-05
-8.10023e-05
-2.87886e-05
-8.04755e-05
-3.5976e-05
-7.97752e-05
-4.3822e-05
-7.86967e-05
-5.31056e-05
-7.72662e-05
-6.3291e-05
-7.51023e-05
-7.60181e-05
-7.15578e-05
-8.93591e-05
-6.64163e-05
-0.000105458
-5.56191e-05
-0.000120778
-4.24023e-05
-0.000118467
-1.76774e-05
-0.000103425
7.03692e-06
-8.7297e-05
2.21705e-05
-7.17208e-05
3.2712e-05
-5.99238e-05
3.47839e-05
-4.9832e-05
3.92848e-05
-4.18929e-05
3.85897e-05
-3.52145e-05
3.97368e-05
-2.98582e-05
3.86691e-05
3.8435e-05
-2.52691e-05
-5.14351e-06
-7.64735e-05
-1.03709e-05
-7.63111e-05
-1.57043e-05
-7.59865e-05
-2.12757e-05
-7.5431e-05
-2.70801e-05
-7.46712e-05
-3.33552e-05
-7.35002e-05
-4.0045e-05
-7.20069e-05
-4.76524e-05
-6.96589e-05
-5.59492e-05
-6.68056e-05
-6.5674e-05
-6.18329e-05
-7.57801e-05
-5.63102e-05
-8.53155e-05
-4.60837e-05
-9.2481e-05
-3.52368e-05
-9.34248e-05
-1.67335e-05
-8.67153e-05
3.27555e-07
-7.72997e-05
1.27551e-05
-6.6383e-05
2.17955e-05
-5.75655e-05
2.59666e-05
-4.91505e-05
3.08699e-05
-4.22469e-05
3.16864e-05
-3.61753e-05
3.36654e-05
-3.10751e-05
3.35691e-05
3.39958e-05
-2.66358e-05
-5.07192e-06
-7.14017e-05
-1.02273e-05
-7.11558e-05
-1.55062e-05
-7.07078e-05
-2.10417e-05
-6.98956e-05
-2.68132e-05
-6.88998e-05
-3.30208e-05
-6.72926e-05
-3.95061e-05
-6.55217e-05
-4.65635e-05
-6.26015e-05
-5.3789e-05
-5.95801e-05
-6.14928e-05
-5.41292e-05
-6.90491e-05
-4.8754e-05
-7.57519e-05
-3.93808e-05
-8.09646e-05
-3.00241e-05
-8.02999e-05
-1.73981e-05
-7.5442e-05
-4.53024e-06
-6.84751e-05
5.78828e-06
-6.05122e-05
1.38327e-05
-5.35437e-05
1.89982e-05
-4.64987e-05
2.3825e-05
-4.0595e-05
2.57828e-05
-3.51564e-05
2.8227e-05
-3.05241e-05
2.8937e-05
2.98705e-05
-2.63987e-05
-4.70967e-06
-6.66922e-05
-9.46567e-06
-6.63999e-05
-1.42898e-05
-6.58837e-05
-1.92522e-05
-6.49333e-05
-2.43494e-05
-6.38027e-05
-2.96876e-05
-6.19545e-05
-3.52179e-05
-5.99915e-05
-4.10554e-05
-5.6764e-05
-4.70507e-05
-5.35849e-05
-5.30284e-05
-4.81515e-05
-5.86981e-05
-4.30843e-05
-6.30678e-05
-3.50111e-05
-6.59461e-05
-2.71457e-05
-6.64889e-05
-1.68554e-05
-6.40032e-05
-7.01588e-06
-5.98207e-05
1.60579e-06
-5.44648e-05
8.47693e-06
-4.92643e-05
1.37978e-05
-4.36708e-05
1.82317e-05
-3.87967e-05
2.09088e-05
-3.40984e-05
2.35288e-05
-2.99927e-05
2.48313e-05
2.61204e-05
-2.62424e-05
-4.54039e-06
-6.21519e-05
-9.1204e-06
-6.182e-05
-1.3761e-05
-6.12432e-05
-1.85113e-05
-6.01831e-05
-2.33573e-05
-5.89568e-05
-2.83434e-05
-5.69684e-05
-3.33982e-05
-5.49368e-05
-3.85265e-05
-5.16358e-05
-4.3627e-05
-4.84845e-05
-4.84034e-05
-4.33752e-05
-5.28559e-05
-3.86318e-05
-5.62353e-05
-3.16318e-05
-5.85273e-05
-2.48537e-05
-5.8538e-05
-1.68447e-05
-5.66405e-05
-8.91335e-06
-5.33456e-05
-1.68903e-06
-4.92571e-05
4.38847e-06
-4.49899e-05
9.53078e-06
-4.04672e-05
1.37091e-05
-3.63476e-05
1.67893e-05
-3.22951e-05
1.94764e-05
-2.86833e-05
2.12196e-05
2.27532e-05
-2.53161e-05
-4.12261e-06
-5.80293e-05
-8.26318e-06
-5.76795e-05
-1.24359e-05
-5.70706e-05
-1.66545e-05
-5.59645e-05
-2.09258e-05
-5.46856e-05
-2.52391e-05
-5.26552e-05
-2.95956e-05
-5.05803e-05
-3.38868e-05
-4.73447e-05
-3.81004e-05
-4.4271e-05
-4.18957e-05
-3.95799e-05
-4.53013e-05
-3.52262e-05
-4.77852e-05
-2.9148e-05
-4.93082e-05
-2.33307e-05
-4.96786e-05
-1.64743e-05
-4.8609e-05
-9.98289e-06
-4.65505e-05
-3.74752e-06
-4.37451e-05
1.5831e-06
-4.05817e-05
6.36753e-06
-3.70958e-05
1.02232e-05
-3.37425e-05
1.34361e-05
-3.03546e-05
1.60887e-05
-2.72449e-05
1.811e-05
1.97929e-05
-2.42845e-05
-3.86699e-06
-5.41624e-05
-7.74223e-06
-5.38043e-05
-1.16346e-05
-5.31783e-05
-1.5539e-05
-5.20602e-05
-1.9459e-05
-5.07657e-05
-2.33517e-05
-4.87626e-05
-2.72218e-05
-4.67103e-05
-3.09333e-05
-4.36333e-05
-3.45242e-05
-4.06801e-05
-3.76967e-05
-3.64075e-05
-4.05358e-05
-3.23871e-05
-4.25867e-05
-2.70972e-05
-4.38912e-05
-2.20262e-05
-4.40746e-05
-1.62909e-05
-4.3275e-05
-1.07825e-05
-4.16278e-05
-5.39474e-06
-3.93995e-05
-6.45111e-07
-3.67825e-05
3.75059e-06
-3.39388e-05
7.37959e-06
-3.10924e-05
1.05897e-05
-2.82196e-05
1.3216e-05
-2.55149e-05
1.54053e-05
1.71942e-05
-2.29161e-05
-3.46685e-06
-5.06957e-05
-6.93163e-06
-5.03396e-05
-1.04006e-05
-4.97094e-05
-1.38525e-05
-4.86083e-05
-1.73009e-05
-4.73175e-05
-2.06809e-05
-4.53826e-05
-2.40179e-05
-4.33734e-05
-2.71616e-05
-4.04897e-05
-3.01555e-05
-3.76863e-05
-3.27338e-05
-3.38292e-05
-3.49587e-05
-3.01623e-05
-3.65607e-05
-2.54951e-05
-3.75559e-05
-2.1031e-05
-3.78618e-05
-1.59849e-05
-3.74049e-05
-1.12394e-05
-3.6328e-05
-6.47159e-06
-3.47395e-05
-2.23357e-06
-3.27896e-05
1.80078e-06
-3.05946e-05
5.18466e-06
-2.83041e-05
8.29931e-06
-2.5947e-05
1.0859e-05
-2.36576e-05
1.31159e-05
1.49608e-05
-2.1424e-05
-3.1653e-06
-4.75304e-05
-6.32203e-06
-4.7183e-05
-9.47193e-06
-4.65596e-05
-1.25858e-05
-4.54945e-05
-1.56746e-05
-4.42288e-05
-1.86684e-05
-4.23889e-05
-2.15938e-05
-4.0448e-05
-2.43149e-05
-3.77686e-05
-2.68861e-05
-3.51151e-05
-2.90996e-05
-3.16158e-05
-3.1026e-05
-2.82359e-05
-3.24125e-05
-2.41087e-05
-3.3306e-05
-2.01375e-05
-3.35469e-05
-1.5744e-05
-3.32224e-05
-1.15639e-05
-3.23566e-05
-7.33734e-06
-3.10889e-05
-3.50123e-06
-2.94811e-05
1.92939e-07
-2.76722e-05
3.37583e-06
-2.5735e-05
6.36221e-06
-2.37414e-05
8.86545e-06
-2.17644e-05
1.11391e-05
1.30241e-05
-1.98277e-05
-2.80483e-06
-4.47256e-05
-5.59723e-06
-4.43906e-05
-8.37686e-06
-4.378e-05
-1.11109e-05
-4.27605e-05
-1.381e-05
-4.15297e-05
-1.64052e-05
-3.97937e-05
-1.89219e-05
-3.79314e-05
-2.12369e-05
-3.54537e-05
-2.33943e-05
-3.29578e-05
-2.5221e-05
-2.97891e-05
-2.67671e-05
-2.66898e-05
-2.78869e-05
-2.29889e-05
-2.86128e-05
-1.94116e-05
-2.88887e-05
-1.54681e-05
-2.8718e-05
-1.17345e-05
-2.81375e-05
-7.91778e-06
-2.72092e-05
-4.42952e-06
-2.59942e-05
-1.02207e-06
-2.45856e-05
1.96725e-06
-2.30338e-05
4.81056e-06
-2.14083e-05
7.24007e-06
-1.97574e-05
9.48821e-06
1.13855e-05
-1.81188e-05
-2.49408e-06
-4.22316e-05
-4.97363e-06
-4.19111e-05
-7.4356e-06
-4.13181e-05
-9.84738e-06
-4.03488e-05
-1.22164e-05
-3.91608e-05
-1.44816e-05
-3.75285e-05
-1.66642e-05
-3.57488e-05
-1.86639e-05
-3.3454e-05
-2.05207e-05
-3.11011e-05
-2.21046e-05
-2.82053e-05
-2.34622e-05
-2.53323e-05
-2.44526e-05
-2.19985e-05
-2.51163e-05
-1.87479e-05
-2.53675e-05
-1.5217e-05
-2.52665e-05
-1.18355e-05
-2.48062e-05
-8.3781e-06
-2.40684e-05
-5.1673e-06
-2.30744e-05
-2.01603e-06
-2.19144e-05
8.07306e-07
-2.06141e-05
3.51024e-06
-1.92464e-05
5.87237e-06
-1.78371e-05
8.07903e-06
9.98029e-06
-1.64319e-05
-2.17538e-06
-4.00563e-05
-4.33539e-06
-3.97511e-05
-6.47531e-06
-3.91782e-05
-8.56437e-06
-3.82597e-05
-1.06077e-05
-3.71175e-05
-1.25511e-05
-3.55851e-05
-1.44114e-05
-3.38886e-05
-1.61045e-05
-3.1761e-05
-1.76592e-05
-2.95465e-05
-1.89704e-05
-2.68941e-05
-2.00736e-05
-2.42291e-05
-2.08843e-05
-2.11879e-05
-2.14337e-05
-1.81985e-05
-2.16797e-05
-1.49711e-05
-2.16466e-05
-1.18685e-05
-2.13353e-05
-8.68939e-06
-2.07902e-05
-5.71246e-06
-2.00326e-05
-2.77356e-06
-1.9125e-05
-1.00212e-07
-1.80882e-05
2.47342e-06
-1.69794e-05
4.7636e-06
-1.58178e-05
6.91747e-06
8.80794e-06
-1.46454e-05
-1.87257e-06
-3.81837e-05
-3.73135e-06
-3.78923e-05
-5.57118e-06
-3.73383e-05
-7.36562e-06
-3.64653e-05
-9.11674e-06
-3.53664e-05
-1.07804e-05
-3.39214e-05
-1.23676e-05
-3.23014e-05
-1.38139e-05
-3.03148e-05
-1.51424e-05
-2.8218e-05
-1.62743e-05
-2.57621e-05
-1.72379e-05
-2.32655e-05
-1.79546e-05
-2.04713e-05
-1.84536e-05
-1.76994e-05
-1.8685e-05
-1.47397e-05
-1.86887e-05
-1.18648e-05
-1.84522e-05
-8.92591e-06
-1.80253e-05
-6.1393e-06
-1.74148e-05
-3.38405e-06
-1.66766e-05
-8.38403e-07
-1.58216e-05
1.61846e-06
-1.49015e-05
3.84348e-06
-1.39282e-05
5.94413e-06
7.82e-06
-1.29402e-05
-1.59247e-06
-3.65912e-05
-3.17109e-06
-3.63137e-05
-4.72944e-06
-3.578e-05
-6.24439e-06
-3.49504e-05
-7.71636e-06
-3.38944e-05
-9.10899e-06
-3.25288e-05
-1.04302e-05
-3.09802e-05
-1.16279e-05
-2.9117e-05
-1.27184e-05
-2.71275e-05
-1.3641e-05
-2.48396e-05
-1.44182e-05
-2.24882e-05
-1.49998e-05
-1.98897e-05
-1.5409e-05
-1.72902e-05
-1.56164e-05
-1.45323e-05
-1.56454e-05
-1.18358e-05
-1.5488e-05
-9.08325e-06
-1.51755e-05
-6.45183e-06
-1.47136e-05
-3.84594e-06
-1.41419e-05
-1.41007e-06
-1.34699e-05
9.46518e-07
-1.27362e-05
3.10971e-06
-1.19507e-05
5.15865e-06
7.01424e-06
-1.11449e-05
-1.30499e-06
-3.52862e-05
-2.60001e-06
-3.50187e-05
-3.8802e-06
-3.44998e-05
-5.12738e-06
-3.37032e-05
-6.34032e-06
-3.26815e-05
-7.49065e-06
-3.13785e-05
-8.58239e-06
-2.98884e-05
-9.57721e-06
-2.81222e-05
-1.0486e-05
-2.62187e-05
-1.12634e-05
-2.40622e-05
-1.19253e-05
-2.18264e-05
-1.24278e-05
-1.93872e-05
-1.27897e-05
-1.69283e-05
-1.2982e-05
-1.434e-05
-1.30289e-05
-1.17889e-05
-1.29201e-05
-9.19201e-06
-1.26853e-05
-6.68662e-06
-1.23259e-05
-4.20532e-06