/*--------------------------------*- C++ -*----------------------------------*\
| =========                 |                                                 |
| \\      /  F ield         | OpenFOAM: The Open Source CFD Toolbox           |
|  \\    /   O peration     | Version:  2012                                  |
|   \\  /    A nd           | Website:  www.openfoam.com                      |
|    \\/     M anipulation  |                                                 |
\*---------------------------------------------------------------------------*/
FoamFile
{
    version     2.0;
    format      ascii;
    class       volScalarField;
    location    "0.07";
    object      rhogh;
}
// * * * * * * * * * * * * * * * * * * * * * * * * * * * * * * * * * * * * * //

dimensions      [1 -1 -2 0 0 0 0];


internalField   nonuniform List<scalar> 
2268
(
-29.4294
-29.4294
-29.4294
-29.4294
-29.4294
-29.4294
-29.4294
-29.4294
-29.4294
-29.4294
-29.4294
-29.4294
-29.4294
-29.4294
-29.4294
-26.2741
-8.70489
-0.191517
-3.67214e-05
-1.58642e-11
-1.42344e-13
-1.29326e-14
-5.63231e-16
-88.2881
-88.2881
-88.2881
-88.2881
-88.2881
-88.2881
-88.2881
-88.2881
-88.2881
-88.2881
-88.2881
-88.2881
-88.2881
-88.2881
-86.1374
-54.1101
-8.8779
-0.284436
-0.000141587
-1.04565e-10
-5.69546e-13
-4.79162e-14
-1.69032e-15
-147.147
-147.147
-147.147
-147.147
-147.147
-147.147
-147.147
-147.147
-147.147
-147.147
-147.147
-147.147
-147.147
-147.147
-129.557
-46.0499
-3.35923
-0.068818
-0.000169614
-9.51476e-10
-5.07203e-12
-3.17624e-13
-8.11493e-15
-206.006
-206.006
-206.006
-206.006
-206.006
-206.006
-206.006
-206.006
-206.006
-206.006
-206.006
-206.006
-206.006
-206.006
-146.971
-24.0103
-0.65756
-0.00575281
-3.15852e-05
-6.23306e-09
-9.71247e-11
-4.37762e-12
-8.40075e-14
-264.864
-264.864
-264.864
-264.864
-264.864
-264.864
-264.864
-264.864
-264.864
-264.864
-264.864
-264.864
-264.864
-260.678
-130.77
-8.85627
-0.0773978
-0.000215893
-2.47901e-06
-1.2624e-08
-4.29819e-10
-1.29579e-11
-2.0095e-13
-323.723
-323.723
-323.723
-323.723
-323.723
-323.723
-323.723
-323.723
-323.723
-323.723
-323.723
-323.723
-323.723
-297.985
-98.6626
-3.55893
-0.00831997
-9.85799e-06
-1.52638e-07
-6.15029e-09
-2.79992e-10
-8.94797e-12
-1.45981e-13
-382.582
-382.582
-382.582
-382.582
-382.582
-382.582
-382.582
-382.582
-382.582
-382.582
-382.582
-382.582
-382.582
-319.025
-66.5405
-1.12418
-0.000735546
-8.06772e-07
-1.59092e-08
-1.41668e-09
-8.04277e-11
-3.12093e-12
-6.39838e-14
-441.44
-441.44
-441.44
-441.44
-441.44
-441.44
-441.44
-441.44
-441.44
-441.44
-441.44
-441.44
-441.44
-324.565
-40.9492
-0.270964
-3.39219e-05
-8.33004e-08
-3.93377e-09
-3.32304e-10
-1.95457e-11
-8.45337e-13
-2.00925e-14
-5.48436e-38
-2.24883e-38
-2.29671e-40
-2.17526e-42
-1.60526e-44
-1.04654e-46
-6.56482e-49
-3.83379e-51
-2.03836e-53
-9.67303e-56
-4.03134e-58
-1.45249e-60
-4.44575e-63
-1.1321e-65
-2.33241e-68
-3.73629e-71
-4.36792e-74
-3.31658e-77
-2.45823e-80
-6.43844e-35
-2.4173e-35
-2.63075e-37
-2.62399e-39
-2.03386e-41
-1.38249e-43
-9.02213e-46
-5.4587e-48
-2.99591e-50
-1.46391e-52
-6.26915e-55
-2.31726e-57
-7.26634e-60
-1.89349e-62
-3.98806e-65
-6.52517e-68
-7.78529e-71
-6.03096e-74
-2.27873e-77
-2.06381e-32
-6.68877e-33
-7.93651e-35
-8.43969e-37
-6.97649e-39
-5.06403e-41
-3.49023e-43
-2.20941e-45
-1.2604e-47
-6.37154e-50
-2.81297e-52
-1.06905e-54
-3.43947e-57
-9.18028e-60
-1.97767e-62
-3.3057e-65
-4.02514e-68
-3.17938e-71
-1.22395e-74
-3.45896e-30
-9.5333e-31
-1.22779e-32
-1.39868e-34
-1.2333e-36
-9.52968e-39
-6.90969e-41
-4.57413e-43
-2.71226e-45
-1.41968e-47
-6.46839e-50
-2.53063e-52
-8.36392e-55
-2.28944e-57
-5.05082e-60
-8.63539e-63
-1.07436e-65
-8.66298e-69
-3.40168e-72
-4.01319e-28
-8.40337e-29
-1.21901e-30
-1.51455e-32
-1.46455e-34
-1.2441e-36
-9.71887e-39
-6.83103e-41
-4.25488e-43
-2.32166e-45
-1.09647e-47
-4.42775e-50
-1.50555e-52
-4.22906e-55
-9.55446e-58
-1.67007e-60
-2.12134e-63
-1.74437e-66
-6.9783e-70
-3.36762e-26
-5.00711e-27
-7.92318e-29
-1.07212e-30
-1.12185e-32
-1.03248e-34
-8.58355e-37
-6.36321e-39
-4.14531e-41
-2.35271e-43
-1.15049e-45
-4.79413e-48
-1.67747e-50
-4.83807e-53
-1.12022e-55
-2.00376e-58
-2.6012e-61
-2.18365e-64
-8.90983e-68
-2.44465e-24
-2.11555e-25
-3.79297e-27
-5.66736e-29
-6.70547e-31
-6.95858e-33
-6.35595e-35
-5.07717e-37
-3.51535e-39
-2.09893e-41
-1.07151e-43
-4.63405e-46
-1.67518e-48
-4.97377e-51
-1.1822e-53
-2.16579e-56
-2.87428e-59
-2.46305e-62
-1.02462e-65
-1.35525e-22
-6.31169e-24
-1.13954e-25
-1.84042e-27
-2.41408e-29
-2.78054e-31
-2.75304e-33
-2.35197e-35
-1.72211e-37
-1.07873e-39
-5.73996e-42
-2.57446e-44
-9.61168e-47
-2.93758e-49
-7.16745e-52
-1.34489e-54
-1.82467e-57
-1.59606e-60
-6.7688e-64
-533.467
-533.467
-533.467
-533.467
-533.467
-533.467
-533.467
-533.467
-533.467
-533.467
-533.467
-533.467
-533.467
-310.181
-17.5892
-0.0346093
-8.98628e-07
-6.55697e-09
-6.0935e-10
-4.91116e-11
-3.13372e-12
-1.73523e-13
-8.44297e-15
-658.662
-658.662
-658.662
-658.662
-658.662
-658.662
-658.662
-658.662
-658.662
-658.662
-658.662
-658.662
-640.625
-246.947
-6.31166
-0.00300451
-2.98523e-08
-4.54488e-10
-5.39047e-11
-4.52213e-12
-3.10217e-13
-1.9548e-14
-1.26901e-15
-783.856
-783.856
-783.856
-783.856
-783.856
-783.856
-783.856
-783.856
-783.856
-783.856
-783.856
-783.856
-709.831
-189.227
-2.37049
-0.000262111
-1.66171e-09
-3.93169e-11
-4.60741e-12
-3.88804e-13
-2.84875e-14
-1.93103e-15
-1.42777e-16
-909.051
-909.051
-909.051
-909.051
-909.051
-909.051
-909.051
-909.051
-909.051
-909.051
-909.051
-909.051
-756.122
-137.351
-0.830608
-2.17809e-05
-1.46926e-10
-6.01152e-12
-5.26753e-13
-4.24875e-14
-3.3322e-15
-2.44625e-16
-1.8997e-17
-1034.25
-1034.25
-1034.25
-1034.25
-1034.25
-1034.25
-1034.25
-1034.25
-1034.25
-1034.25
-1034.25
-1034.25
-779.006
-92.5342
-0.259504
-1.63188e-06
-1.92776e-11
-1.18128e-12
-1.0385e-13
-8.95229e-15
-7.39545e-16
-5.5352e-17
-3.97428e-18
-1159.44
-1159.44
-1159.44
-1159.44
-1159.44
-1159.44
-1159.44
-1159.44
-1159.44
-1159.44
-1159.44
-1159.44
-780.671
-57.2977
-0.0720186
-1.05668e-07
-4.22347e-12
-4.08806e-13
-3.91869e-14
-3.28484e-15
-2.43552e-16
-1.60573e-17
-9.75043e-19
-1284.63
-1284.63
-1284.63
-1284.63
-1284.63
-1284.63
-1284.63
-1284.63
-1284.63
-1284.63
-1284.63
-1284.63
-762.684
-32.5726
-0.0187846
-7.62482e-09
-2.12017e-12
-2.3798e-13
-1.97532e-14
-1.39748e-15
-8.55261e-17
-4.68912e-18
-2.33948e-19
-1409.83
-1409.83
-1409.83
-1409.83
-1409.83
-1409.83
-1409.83
-1409.83
-1409.83
-1409.83
-1409.83
-1409.83
-727.375
-18.3688
-0.00580532
-1.12955e-09
-1.6342e-12
-1.49817e-13
-9.61732e-15
-5.40483e-16
-2.64224e-17
-1.18028e-18
-4.82412e-20
-1535.02
-1535.02
-1535.02
-1535.02
-1535.02
-1535.02
-1535.02
-1535.02
-1535.02
-1535.02
-1535.02
-1535.02
-678.161
-12.3011
-0.00212037
-3.74178e-10
-1.29329e-12
-8.55004e-14
-4.06448e-15
-1.77545e-16
-6.86976e-18
-2.48931e-19
-8.32286e-21
-1660.22
-1660.22
-1660.22
-1660.22
-1660.22
-1660.22
-1660.22
-1660.22
-1660.22
-1660.22
-1660.22
-1660.22
-621.549
-8.01378
-0.000735317
-1.56195e-10
-8.91001e-13
-3.9747e-14
-1.3689e-15
-4.57728e-17
-1.39475e-18
-4.10541e-20
-1.1331e-21
-1785.41
-1785.41
-1785.41
-1785.41
-1785.41
-1785.41
-1785.41
-1785.41
-1785.41
-1785.41
-1785.41
-1785.41
-557.817
-4.99286
-0.000234246
-6.17924e-11
-4.49063e-13
-1.28166e-14
-3.16948e-16
-8.30591e-18
-2.05444e-19
-5.05653e-21
-1.18224e-22
-1910.61
-1910.61
-1910.61
-1910.61
-1910.61
-1910.61
-1910.61
-1910.61
-1910.61
-1910.61
-1910.61
-1910.61
-487.184
-2.93793
-6.20161e-05
-1.54817e-11
-1.31653e-13
-2.6081e-15
-4.94371e-17
-1.05926e-18
-2.19731e-20
-4.65311e-22
-9.44743e-24
-2035.8
-2035.8
-2035.8
-2035.8
-2035.8
-2035.8
-2035.8
-2035.8
-2035.8
-2035.8
-2035.8
-2035.8
-410.592
-1.62736
-1.16388e-05
-1.67412e-16
-1.51149e-14
-3.07994e-16
-4.94915e-18
-9.37481e-20
-1.73137e-21
-3.28028e-23
-5.96167e-25
-2161
-2161
-2161
-2161
-2161
-2161
-2161
-2161
-2161
-2161
-2161
-2161
-333.629
-0.844438
-1.32127e-06
-1.77708e-16
-1.51319e-15
-2.86167e-17
-3.94277e-19
-6.59507e-21
-1.09311e-22
-1.86489e-24
-3.06108e-26
-2286.19
-2286.19
-2286.19
-2286.19
-2286.19
-2286.19
-2286.19
-2286.19
-2286.19
-2286.19
-2286.19
-2286.19
-272.891
-0.411035
-2.54014e-16
-6.54288e-15
-2.59949e-16
-3.17859e-18
-3.29923e-20
-4.44513e-22
-6.12793e-24
-8.96057e-26
-1.29152e-27
-2411.35
-2411.35
-2411.34
-2411.34
-2411.33
-2411.3
-2411.28
-2411.22
-2411.16
-2410.95
-2410.44
-2389.49
-253.486
-0.258323
-2.67934e-16
-3.58465e-14
-1.41532e-16
-6.18589e-19
-3.69391e-21
-3.182e-23
-3.46389e-25
-4.20108e-27
-5.23213e-29
-2476.38
-2474.23
-2470.89
-2463.66
-2456.06
-2441.22
-2428.37
-2401.67
-2382.63
-2330.84
-2264.62
-2006.65
-291.794
-1.66298
-2.79881e-16
-2.79738e-16
-2.79739e-16
-3.14653e-19
-5.45037e-22
-2.55306e-24
-2.0104e-26
-1.93934e-28
-2.05324e-30
-1156.09
-1143.58
-1124.78
-1088.19
-1053.98
-995.454
-951.805
-873.467
-825.794
-716.138
-603.952
-389.395
-268.583
-19.0479
-0.0078094
-1.92616e-07
-1.06498e-20
-2.05495e-19
-8.16727e-23
-2.18117e-25
-1.18496e-27
-8.73785e-30
-7.72078e-32
-1.66291e-35
-1.66293e-35
-1.96e-41
-1.34536e-35
5.24665e-38
-2.58796e-32
3.8144e-30
3.36861e-29
9.0913e-29
-3.97914e-29
4.16582e-26
2.57557e-24
-34.4657
-61.2772
-1.37586
-4.71151e-21
-1.11545e-20
-7.70262e-20
-1.08908e-23
-1.79777e-26
-6.84699e-29
-3.77235e-31
-2.73873e-33
-2.76469e-17
-2.6962e-17
-2.60321e-17
-6.36436e-17
-2.26271e-15
-1.04996e-13
-3.49454e-12
-8.69105e-11
-1.56795e-09
-2.13774e-08
-2.16511e-07
-8.87982e-07
-8.87494e-07
-0.0189954
-0.178539
-4.92194e-21
-6.16731e-21
-1.55296e-20
-1.19384e-24
-1.29653e-27
-3.67242e-30
-1.51253e-32
-8.98144e-35
-2.63115e-16
-2.55472e-16
-2.43953e-16
-4.4762e-16
-1.32395e-14
-5.45345e-13
-1.63543e-11
-3.55391e-10
-5.49388e-09
-6.0255e-08
-4.6805e-07
-2.61411e-06
-8.49643e-06
-1.24178e-05
-0.000227695
-5.13412e-21
-3.43735e-16
-1.98823e-21
-1.02785e-25
-7.72434e-29
-1.72704e-31
-5.45788e-34
-2.66173e-36
-5.10119e-27
-1.16877e-24
-1.28062e-22
-8.28522e-21
-3.49339e-19
-1.00727e-17
-1.97877e-16
-1.19859e-15
-1.19867e-15
-1.19861e-15
-1.20744e-15
-1.20753e-15
-1.20744e-15
-1.21625e-15
-1.48e-07
-5.34513e-21
-1.9216e-16
-1.52668e-22
-6.67917e-27
-3.67399e-30
-6.83018e-33
-1.73143e-35
-7.00343e-38
-1.25981e-28
-4.03486e-26
-5.99816e-24
-5.47371e-22
-3.3957e-20
-1.51303e-18
-4.95549e-17
-1.21882e-15
-2.07565e-14
-2.34369e-13
-1.76569e-12
-9.47901e-12
-5.54134e-11
-4.97111e-10
-2.03074e-09
-1.09404e-13
-2.18018e-17
-8.04845e-24
-3.26499e-28
-1.36344e-31
-2.21295e-34
-4.69846e-37
-1.60734e-39
-5.86e-37
-1.75753e-34
-2.86466e-32
-4.13846e-30
-6.31968e-28
-9.02888e-26
-1.06175e-23
-9.88566e-22
-7.17721e-20
-4.05463e-18
-1.75177e-16
-5.75535e-15
-1.41855e-13
-2.57656e-12
-1.76443e-11
-1.17039e-14
-1.30179e-18
-2.90436e-25
-1.18127e-29
-3.894e-33
-5.76618e-36
-1.07249e-38
-3.17988e-41
-3.62351e-41
-1.90373e-38
-5.47783e-36
-1.16299e-33
-2.00376e-31
-2.86367e-29
-3.35298e-27
-3.1873e-25
-2.42769e-23
-1.47919e-21
-7.12671e-20
-2.69691e-18
-7.87558e-17
-1.70341e-15
-1.31478e-14
-2.14401e-16
-4.21533e-20
-7.25527e-27
-3.14649e-31
-8.54541e-35
-1.20016e-37
-2.03532e-40
-5.37587e-43
-7.85393e-45
-4.52456e-42
-1.25573e-39
-2.22944e-37
-2.82987e-35
-2.7283e-33
-2.06546e-31
-1.25729e-29
-6.22643e-28
-2.5371e-26
-8.55949e-25
-2.41179e-23
-5.73886e-22
-1.16364e-20
-2.01478e-19
-1.57706e-18
-7.39996e-22
-1.23486e-28
-6.07828e-33
-1.43429e-36
-1.97828e-39
-3.18442e-42
-7.70769e-45
-3.88758e-48
-2.45002e-45
-7.41635e-43
-1.43216e-40
-1.97347e-38
-2.06267e-36
-1.6939e-34
-1.12123e-32
-6.07533e-31
-2.72988e-29
-1.02778e-27
-3.26449e-26
-8.82141e-25
-2.03401e-23
-4.01809e-22
-3.4955e-21
-7.0401e-24
-1.42662e-30
-8.4742e-35
-1.84392e-38
-2.57692e-41
-4.09259e-44
-9.33422e-47
-8.35935e-53
-5.44222e-50
-1.69374e-47
-3.34239e-45
-4.67639e-43
-4.91584e-41
-4.01359e-39
-2.59504e-37
-1.34355e-35
-5.59118e-34
-1.8692e-32
-4.96337e-31
-1.02158e-29
-1.54281e-28
-1.501e-27
-7.3367e-27
-3.32691e-26
-1.07126e-32
-8.41068e-37
-1.80465e-40
-2.64267e-43
-4.30511e-46
-9.51265e-49
-1.10228e-59
-8.76999e-57
-3.37254e-54
-8.33534e-52
-1.48636e-49
-2.03475e-47
-2.22444e-45
-1.99327e-43
-1.49504e-41
-9.51805e-40
-5.22142e-38
-2.49151e-36
-1.04812e-34
-3.92526e-33
-1.32435e-31
-4.03813e-30
-5.65455e-29
-5.09542e-35
-5.91362e-39
-1.34461e-42
-2.13643e-45
-3.70659e-48
-8.15317e-51
-2.05435e-64
-1.75853e-61
-7.26555e-59
-1.92545e-56
-3.67464e-54
-5.36526e-52
-6.22967e-50
-5.88803e-48
-4.61624e-46
-3.03382e-44
-1.69072e-42
-8.03573e-41
-3.28209e-39
-1.16005e-37
-3.57574e-36
-9.60118e-35
-1.01051e-33
-1.37779e-37
-2.86652e-41
-7.53976e-45
-1.35837e-47
-2.60696e-50
-5.87295e-53
-1.68823e-75
-1.15595e-72
-4.42539e-70
-1.25654e-67
-2.86748e-65
-5.37307e-63
-8.38812e-61
-1.10514e-58
-1.25047e-56
-1.23116e-54
-1.0722e-52
-8.35313e-51
-5.91055e-49
-3.84395e-47
-2.32982e-45
-1.32898e-43
-7.15921e-42
-1.83048e-40
-9.37401e-44
-3.17381e-47
-6.81317e-50
-1.50127e-52
-3.56397e-55
-1.67354e-80
-1.95792e-77
-1.14715e-74
-4.42975e-72
-1.26181e-69
-2.81524e-67
-5.12737e-65
-7.82688e-63
-1.0253e-60
-1.17038e-58
-1.18405e-56
-1.0738e-54
-8.84294e-53
-6.67942e-51
-4.67105e-49
-3.0372e-47
-1.80051e-45
-4.50802e-44
-1.93732e-46
-9.85155e-50
-2.68667e-52
-7.07333e-55
-1.82468e-57
-1.52198e-87
-9.3695e-85
-2.74841e-82
-5.26955e-80
-8.02063e-78
-1.17045e-75
-1.84268e-73
-3.00422e-71
-4.65309e-69
-6.53932e-67
-8.29601e-65
-9.55466e-63
-1.01253e-60
-9.98736e-59
-9.29571e-57
-8.25518e-55
-7.06483e-53
-5.83919e-51
-2.33674e-49
-2.23271e-52
-8.35205e-55
-2.73882e-57
-7.92053e-60
-2.31769e-93
-1.98235e-90
-9.73238e-88
-3.84518e-85
-1.32984e-82
-3.97791e-80
-1.0179e-77
-2.23359e-75
-4.26699e-73
-7.19445e-71
-1.08896e-68
-1.49831e-66
-1.90058e-64
-2.24782e-62
-2.50902e-60
-2.6714e-58
-2.73346e-56
-2.67349e-54
-1.22623e-52
-3.58637e-55
-2.0387e-57
-8.7281e-60
-2.92586e-62
-2.98475e-99
-4.85668e-96
-4.33135e-93
-2.6799e-90
-1.25494e-87
-4.66693e-85
-1.42985e-82
-3.70169e-80
-8.28493e-78
-1.62796e-75
-2.85368e-73
-4.51278e-71
-6.52763e-69
-8.74618e-67
-1.10455e-64
-1.33623e-62
-1.54924e-60
-1.60928e-58
-5.74996e-57
-3.97073e-58
-3.91715e-60
-2.30535e-62
-9.26689e-65
-4.58845e-106
-4.26088e-103
-1.84828e-100
-4.99514e-98
-9.63713e-96
-1.52577e-93
-2.56062e-91
-5.82307e-89
-1.62194e-86
-4.5176e-84
-1.17489e-81
-2.84815e-79
-6.58397e-77
-1.49605e-74
-3.44516e-72
-8.06932e-70
-1.83948e-67
-3.73847e-65
-5.83144e-63
-2.86699e-61
-5.90975e-63
-5.07375e-65
-2.53403e-67
-2.12379e-114
-7.14246e-111
-1.19056e-107
-1.30734e-104
-1.06579e-101
-6.88451e-99
-3.68348e-96
-1.68136e-93
-6.71389e-91
-2.38746e-88
-7.69587e-86
-2.27873e-83
-6.28921e-81
-1.63717e-78
-4.07313e-76
-9.7905e-74
-2.29547e-71
-5.25783e-69
-1.16529e-66
-1.22935e-64
-7.0377e-66
-9.4093e-68
-6.04775e-70
-4.40678e-120
-1.8819e-116
-3.96837e-113
-5.51403e-110
-5.69662e-107
-4.67192e-104
-3.17954e-101
-1.84954e-98
-9.42819e-96
-4.28793e-93
-1.77093e-90
-6.73138e-88
-2.38921e-85
-8.0146e-83
-2.57528e-80
-8.01453e-78
-2.43398e-75
-7.17282e-73
-1.99948e-70
-2.53179e-68
-6.64558e-69
-1.48752e-70
-1.27406e-72
-1.0447e-126
-6.12047e-123
-1.76366e-119
-3.33142e-116
-4.65052e-113
-5.11963e-110
-4.64255e-107
-3.56965e-104
-2.38382e-101
-1.40681e-98
-7.46445e-96
-3.61195e-93
-1.62209e-90
-6.88858e-88
-2.83358e-85
-1.15106e-82
-4.6104e-80
-1.73121e-77
-5.39736e-75
-1.09487e-72
-5.06942e-72
-2.04115e-73
-2.40545e-75
-1.44045e-135
-1.37438e-131
-6.46947e-128
-2.00552e-124
-4.62136e-121
-8.45684e-118
-1.28538e-114
-1.67244e-111
-1.90948e-108
-1.9461e-105
-1.79851e-102
-1.5243e-99
-1.20058e-96
-8.90727e-94
-6.33659e-91
-4.38123e-88
-2.93399e-85
-1.82493e-82
-9.64438e-80
-3.5866e-77
-3.18691e-75
-2.48111e-76
-4.13707e-78
-1.87307e-144
-2.76663e-140
-2.25977e-136
-1.22534e-132
-4.97265e-129
-1.61075e-125
-4.34697e-122
-1.00549e-118
-2.04081e-115
-3.69645e-112
-6.07383e-109
-9.16902e-106
-1.28967e-102
-1.7109e-99
-2.17051e-96
-2.65898e-93
-3.15572e-90
-3.58688e-87
-3.8243e-84
-3.743e-81
-1.72014e-78
-2.74325e-79
-6.60985e-81
-1.8081e-156
-4.1802e-152
-4.68589e-148
-3.48286e-144
-4.06907e-140
-3.94129e-136
-3.14069e-132
-2.12924e-128
-1.26261e-124
-6.68743e-121
-3.2253e-117
-1.43811e-113
-6.01858e-110
-2.39412e-106
-9.17036e-103
-3.41725e-99
-1.24793e-95
-4.4665e-92
-1.55602e-88
-5.21777e-85
-8.41916e-82
-2.83842e-82
-9.99953e-84
-5.37676e-16
-3.73765e-17
-2.07004e-18
-1.16343e-19
-1.22634e-16
-1.44828e-17
-1.6029e-18
-1.6683e-19
-1.42745e-17
-1.89988e-18
-2.31679e-19
-2.53993e-20
-1.97633e-18
-2.74676e-19
-3.36298e-20
-3.53774e-21
-3.66524e-19
-4.50601e-20
-4.87233e-21
-4.51751e-22
-7.47885e-20
-7.75389e-21
-7.19531e-22
-5.81682e-23
-1.45977e-20
-1.24639e-21
-9.65788e-23
-6.6432e-24
-2.48433e-21
-1.77475e-22
-1.16389e-23
-6.87639e-25
-3.54041e-22
-2.12101e-23
-1.18072e-24
-6.00845e-26
-4.05012e-23
-2.07009e-24
-9.94611e-26
-4.42238e-27
-3.63116e-24
-1.61475e-25
-6.8122e-27
-2.68478e-28
-2.55525e-25
-1.00955e-26
-3.80883e-28
-1.35103e-29
-1.45256e-26
-5.18285e-28
-1.77113e-29
-5.71302e-31
-6.79909e-28
-2.20989e-29
-6.89e-31
-2.03436e-32
-2.64485e-29
-7.87868e-31
-2.25362e-32
-6.12778e-34
-9.31772e-31
-2.48355e-32
-6.38568e-34
-1.57222e-35
-3.13376e-32
-7.45506e-34
-1.7198e-35
-3.83916e-37
-9.96218e-34
-2.11256e-35
-4.36953e-37
-8.86426e-39
-2.96102e-35
-5.59641e-37
-1.03877e-38
-1.92028e-40
-8.09044e-37
-1.36655e-38
-2.28302e-40
-3.86335e-42
-2.00427e-38
-3.03688e-40
-4.58715e-42
-7.14073e-44
-4.44268e-40
-6.06895e-42
-8.34378e-44
-1.20192e-45
-8.69831e-42
-1.07799e-43
-1.3585e-45
-1.82217e-47
-1.49029e-43
-1.68813e-45
-1.96614e-47
-2.47296e-49
-2.2197e-45
-2.31646e-47
-2.51318e-49
-2.98466e-51
-2.85719e-47
-2.77081e-49
-2.82397e-51
-3.18985e-53
-3.16957e-49
-2.88119e-51
-2.78172e-53
-3.00962e-55
-3.02183e-51
-2.59825e-53
-2.39697e-55
-2.50172e-57
-2.47508e-53
-2.03163e-55
-1.8063e-57
-1.8312e-59
-1.74076e-55
-1.37743e-57
-1.19055e-59
-1.18053e-61
-1.05323e-57
-8.11441e-60
-6.87631e-62
-6.71494e-64
-5.49019e-60
-4.16185e-62
-3.48752e-64
-3.37736e-66
-2.47617e-62
-1.86654e-64
-1.55961e-66
-1.50805e-68
-9.70018e-65
-7.3503e-67
-6.17543e-69
-6.00328e-71
-3.32317e-67
-2.55845e-69
-2.17895e-71
-2.14375e-73
-1.00249e-69
-7.92491e-72
-6.89678e-74
-6.91181e-76
-2.68925e-72
-2.20488e-74
-1.97565e-76
-2.02911e-78
-6.48233e-75
-5.56444e-77
-5.17022e-79
-5.47244e-81
-1.42274e-77
-1.28945e-79
-1.25029e-81
-1.37053e-83
-2.8836e-80
-2.77928e-82
-2.82759e-84
-3.22299e-86
-5.48625e-83
-5.65516e-85
-6.06263e-87
-7.20786e-89
-9.949e-86
-1.10091e-87
-1.24718e-89
-1.54944e-91
-4.54513e-21
-1.25942e-22
-2.68533e-24
-4.66267e-26
-6.66242e-28
-8.11846e-30
-8.42781e-32
-7.51015e-34
-5.72336e-36
-3.72438e-38
-2.05538e-40
-9.54534e-43
-3.68342e-45
-1.16142e-47
-2.91778e-50
-5.62608e-53
-7.82958e-56
-7.01367e-59
-3.04181e-62
-1.00945e-20
-3.36765e-22
-8.02741e-24
-1.42885e-25
-2.0014e-27
-2.30338e-29
-2.21246e-31
-1.80208e-33
-1.24766e-35
-7.36319e-38
-3.68707e-40
-1.55728e-42
-5.48266e-45
-1.58346e-47
-3.65977e-50
-6.52342e-53
-8.42972e-56
-7.04086e-59
-2.85817e-62
-1.37137e-21
-4.14177e-23
-9.59014e-25
-1.79313e-26
-2.69581e-28
-3.3388e-30
-3.41859e-32
-2.93094e-34
-2.10878e-36
-1.27801e-38
-6.50379e-41
-2.76674e-43
-9.7341e-46
-2.78961e-48
-6.35326e-51
-1.108e-53
-1.39306e-56
-1.12739e-59
-4.42092e-63
-1.90681e-22
-5.76892e-24
-1.33691e-25
-2.45307e-27
-3.59056e-29
-4.28843e-31
-4.22018e-33
-3.46906e-35
-2.39143e-37
-1.38889e-39
-6.77849e-42
-2.76906e-44
-9.37026e-47
-2.58826e-49
-5.69746e-52
-9.63914e-55
-1.17934e-57
-9.31218e-61
-3.57109e-64
-2.16265e-23
-5.95931e-25
-1.29393e-26
-2.26744e-28
-3.21615e-30
-3.76196e-32
-3.64261e-34
-2.95036e-36
-2.00234e-38
-1.14245e-40
-5.4646e-43
-2.1825e-45
-7.20638e-48
-1.93928e-50
-4.15492e-53
-6.83815e-56
-8.13804e-59
-6.25171e-62
-2.33367e-65
-2.47397e-24
-6.20517e-26
-1.2559e-27
-2.07514e-29
-2.80007e-31
-3.12662e-33
-2.89848e-35
-2.25081e-37
-1.46628e-39
-8.03789e-42
-3.69702e-44
-1.42108e-46
-4.51979e-49
-1.17265e-51
-2.42451e-54
-3.85436e-57
-4.43527e-60
-3.2978e-63
-1.19277e-66
-2.44728e-25
-5.45103e-27
-1.00347e-28
-1.53505e-30
-1.94505e-32
-2.0603e-34
-1.82522e-36
-1.36086e-38
-8.53804e-41
-4.51485e-43
-2.00505e-45
-7.44399e-48
-2.28734e-50
-5.73386e-53
-1.14569e-55
-1.76063e-58
-1.95935e-61
-1.40975e-64
-4.9378e-68
-2.20572e-26
-4.36101e-28
-7.26611e-30
-1.02028e-31
-1.20071e-33
-1.19091e-35
-9.94553e-38
-7.02433e-40
-4.19149e-42
-2.11458e-44
-8.98273e-47
-3.19684e-49
-9.43382e-52
-2.27477e-54
-4.37854e-57
-6.49038e-60
-6.97587e-63
-4.85302e-66
-1.64549e-69
-1.67935e-27
-2.94185e-29
-4.41646e-31
-5.66908e-33
-6.173e-35
-5.72011e-37
-4.49709e-39
-3.00788e-41
-1.70748e-43
-8.22301e-46
-3.34362e-48
-1.14138e-50
-3.23636e-53
-7.50899e-56
-1.39257e-58
-1.99114e-61
-2.06671e-64
-1.38999e-67
-4.56151e-71
-1.08888e-28
-1.70197e-30
-2.31002e-32
-2.71104e-34
-2.72603e-36
-2.35181e-38
-1.73336e-40
-1.09309e-42
-5.87832e-45
-2.69253e-47
-1.04477e-49
-3.41288e-52
-9.28258e-55
-2.07011e-57
-3.69655e-60
-5.09705e-63
-5.10904e-66
-3.32242e-69
-1.05547e-72
-5.88644e-30
-8.2683e-32
-1.01882e-33
-1.09646e-35
-1.01989e-37
-8.20368e-40
-5.67399e-42
-3.37661e-44
-1.7214e-46
-7.50344e-49
-2.77949e-51
-8.69075e-54
-2.26764e-56
-4.86061e-59
-8.35633e-62
-1.11095e-64
-1.07511e-67
-6.75837e-71
-2.0779e-74
-2.66807e-31
-3.39732e-33
-3.82401e-35
-3.78808e-37
-3.2664e-39
-2.45173e-41
-1.59139e-43
-8.93331e-46
-4.31453e-48
-1.78847e-50
-6.32038e-53
-1.89059e-55
-4.73044e-58
-9.74291e-61
-1.61234e-63
-2.06656e-66
-1.93078e-69
-1.17326e-72
-3.49126e-76
-1.02337e-32
-1.18848e-34
-1.22721e-36
-1.12281e-38
-8.99546e-41
-6.31122e-43
-3.84874e-45
-2.03952e-47
-9.33581e-50
-3.68095e-52
-1.24105e-54
-3.55114e-57
-8.51883e-60
-1.68556e-62
-2.68447e-65
-3.31651e-68
-2.99113e-71
-1.7569e-74
-5.06006e-78
-3.31652e-34
-3.52747e-36
-3.35438e-38
-2.84394e-40
-2.12249e-42
-1.39473e-44
-8.00251e-47
-4.00749e-49
-1.73997e-51
-6.52949e-54
-2.10135e-56
-5.75436e-59
-1.32406e-61
-2.51797e-64
-3.86114e-67
-4.6004e-70
-4.00735e-73
-2.2766e-76
-6.35046e-80
-9.10568e-36
-8.92059e-38
-7.84603e-40
-6.18961e-42
-4.316e-44
-2.663e-46
-1.44023e-48
-6.82587e-51
-2.8142e-53
-1.00605e-55
-3.09275e-58
-8.11059e-61
-1.79113e-63
-3.27573e-66
-4.83948e-69
-5.5646e-72
-4.6852e-75
-2.57654e-78
-6.96735e-82
-2.08964e-37
-1.90076e-39
-1.55477e-41
-1.14715e-43
-7.50389e-46
-4.36353e-48
-2.23139e-50
-1.0037e-52
-3.93896e-55
-1.34438e-57
-3.95555e-60
-9.95191e-63
-2.11287e-65
-3.72205e-68
-5.30589e-71
-5.8964e-74
-4.80555e-77
-2.56182e-80
-6.72534e-84
-4.58605e-39
-3.68777e-41
-2.67758e-43
-1.82968e-45
-1.12704e-47
-6.20109e-50
-3.00756e-52
-1.28748e-54
-4.82045e-57
-1.57397e-59
-4.44051e-62
-1.07365e-64
-2.1949e-67
-3.73012e-70
-5.13852e-73
-5.5272e-76
-4.3668e-79
-2.26001e-82
-5.7682e-86
-9.55704e-41
-6.81738e-43
-4.41151e-45
-2.7232e-47
-1.51558e-49
-7.61786e-52
-3.5186e-54
-1.43933e-56
-5.15955e-59
-1.61702e-61
-4.38716e-64
-1.02218e-66
-2.01718e-69
-3.31481e-72
-4.4223e-75
-4.61355e-78
-3.54021e-81
-1.78203e-84
-4.42992e-88
-1.87705e-42
-1.1924e-44
-6.90824e-47
-3.8661e-49
-1.95314e-51
-8.99994e-54
-3.8165e-56
-1.44211e-58
-4.89227e-61
-1.47531e-63
-3.85855e-66
-8.68306e-69
-1.65758e-71
-2.63919e-74
-3.41638e-77
-3.46312e-80
-2.58554e-83
-1.2679e-86
-3.07441e-90
-3.44613e-44
-1.95955e-46
-1.02208e-48
-5.20729e-51
-2.40004e-53
-1.01792e-55
-3.98126e-58
-1.39518e-60
-4.41784e-63
-1.24723e-65
-3.06634e-68
-6.61504e-71
-1.22483e-73
-1.89434e-76
-2.38491e-79
-2.3541e-82
-1.71346e-85
-8.2016e-89
-1.94376e-92
-5.85243e-46
-2.99845e-48
-1.41782e-50
-6.61057e-53
-2.79568e-55
-1.09639e-57
-3.9748e-60
-1.29741e-62
-3.84962e-65
-1.02119e-67
-2.36848e-70
-4.8501e-73
-8.54286e-76
-1.26228e-78
-1.52473e-81
-1.46242e-84
-1.03947e-87
-4.86341e-91
-1.1276e-94
-9.13327e-48
-4.2467e-50
-1.83464e-52
-7.87334e-55
-3.07409e-57
-1.12044e-59
-3.78468e-62
-1.15587e-64
-3.22632e-67
-8.07234e-70
-1.77254e-72
-3.45547e-75
-5.8064e-78
-8.21635e-81
-9.54477e-84
-8.84222e-87
-6.0867e-90
-2.76832e-93
-6.26207e-97
-1.29517e-49
-5.51668e-52
-2.19747e-54
-8.74112e-57
-3.17297e-59
-1.08122e-61
-3.4223e-64
-9.82838e-67
-2.59204e-69
-6.14193e-72
-1.28164e-74
-2.38536e-77
-3.83513e-80
-5.21032e-83
-5.83385e-86
-5.22883e-89
-3.49092e-92
-1.54507e-95
-3.41224e-99
-1.66093e-51
-6.54614e-54
-2.42748e-56
-9.01659e-59
-3.06488e-61
-9.82475e-64
-2.9309e-66
-7.95558e-69
-1.99157e-71
-4.48785e-74
-8.93353e-77
-1.59223e-79
-2.45668e-82
-3.21254e-85
-3.47417e-88
-3.01736e-91
-1.9566e-94
-8.4362e-98
-1.8204e-101
-1.91167e-53
-7.04946e-56
-2.45852e-58
-8.59841e-61
-2.75843e-63
-8.37456e-66
-2.3693e-68
-6.11205e-71
-1.45955e-73
-3.1416e-76
-5.98958e-79
-1.02567e-81
-1.52333e-84
-1.9224e-87
-2.01226e-90
-1.69626e-93
-1.06988e-96
-4.49867e-100
-9.49189e-104
-1.96801e-55
-6.87059e-58
-2.27753e-60
-7.56512e-63
-2.30885e-65
-6.68435e-68
-1.80474e-70
-4.44928e-73
-1.01856e-75
-2.10345e-78
-3.85641e-81
-6.36649e-84
-9.12982e-87
-1.11482e-89
-1.13197e-92
-9.27704e-96
-5.69972e-99
-2.33975e-102
-4.83051e-106
-1.80546e-57
-6.04036e-60
-1.92375e-62
-6.12403e-65
-1.79274e-67
-4.98467e-70
-1.29272e-72
-3.06329e-75
-6.75711e-78
-1.34491e-80
-2.38082e-83
-3.80255e-86
-5.28152e-89
-6.2567e-92
-6.17684e-95
-4.93019e-98
-2.95489e-101
-1.18547e-104
-2.39643e-108
-1.47358e-59
-4.78398e-62
-1.48002e-64
-4.55739e-67
-1.29033e-69
-3.47044e-72
-8.70101e-75
-1.99323e-77
-4.25784e-80
-8.2049e-83
-1.40813e-85
-2.1834e-88
-2.94627e-91
-3.39507e-94
-3.26625e-97
-2.54354e-100
-1.48927e-103
-5.84538e-107
-1.15781e-110
-1.06913e-61
-3.41061e-64
-1.03623e-66
-3.11547e-69
-8.60248e-72
-2.25426e-74
-5.49949e-77
-1.22497e-79
-2.54681e-82
-4.77303e-85
-7.97359e-88
-1.20444e-90
-1.5838e-93
-1.77992e-96
-1.67249e-99
-1.27294e-102
-7.29156e-106
-2.80287e-109
-5.44338e-113
-6.89734e-64
-2.18964e-66
-6.6055e-69
-1.95734e-71
-5.31461e-74
-1.36665e-76
-3.26504e-79
-7.11172e-82
-1.44617e-84
-2.6476e-87
-4.32225e-90
-6.38175e-93
-8.20204e-96
-9.01262e-99
-8.2895e-102
-6.17698e-105
-3.46628e-108
-1.30626e-111
-2.48899e-115
-3.96263e-66
-1.26764e-68
-3.83798e-71
-1.13129e-73
-3.04511e-76
-7.73854e-79
-1.8219e-81
-3.9023e-84
-7.79874e-87
-1.40079e-89
-2.24335e-92
-3.24822e-95
-4.09211e-98
-4.40737e-101
-3.97635e-104
-2.90578e-107
-1.59959e-110
-5.9154e-114
-1.10658e-117
-2.03181e-68
-6.63201e-71
-2.03668e-73
-6.02639e-76
-1.62086e-78
-4.09884e-81
-9.56747e-84
-2.02605e-86
-3.99785e-89
-7.07463e-92
-1.11556e-94
-1.58899e-97
-1.96764e-100
-2.08214e-103
-1.84633e-106
-1.32532e-109
-7.16605e-113
-2.60301e-116
-4.78349e-120
-9.33194e-71
-3.14599e-73
-9.8996e-76
-2.96645e-78
-8.033e-81
-2.03484e-83
-4.7366e-86
-9.96843e-89
-1.95075e-91
-3.4146e-94
-5.32012e-97
-7.47704e-100
-9.12475e-103
-9.50821e-106
-8.30259e-109
-5.86305e-112
-3.11765e-115
-1.11336e-118
-2.01107e-122
-3.85506e-73
-1.35839e-75
-4.42313e-78
-1.35368e-80
-3.71752e-83
-9.49266e-86
-2.21577e-88
-4.65717e-91
-9.07653e-94
-1.57745e-96
-2.43649e-99
-3.38825e-102
-4.08517e-105
-4.20072e-108
-3.61844e-111
-2.51746e-114
-1.31798e-117
-4.6313e-121
-8.22723e-125
-1.44068e-75
-5.36643e-78
-1.82489e-80
-5.74977e-83
-1.61221e-85
-4.17459e-88
-9.82178e-91
-2.07118e-93
-4.03587e-96
-6.98863e-99
-1.0734e-101
-1.48086e-104
-1.76805e-107
-1.79763e-110
-1.52999e-113
-1.05014e-116
-5.41874e-120
-1.8751e-123
-3.27763e-127
-4.90069e-78
-1.95063e-80
-6.98754e-83
-2.28348e-85
-6.57851e-88
-1.73687e-90
-4.13852e-93
-8.79287e-96
-1.71925e-98
-2.97585e-101
-4.5579e-104
-6.25324e-107
-7.40883e-110
-7.46164e-113
-6.28439e-116
-4.26072e-119
-2.16905e-122
-7.39687e-126
-1.27285e-129
-1.52935e-80
-6.56898e-83
-2.49832e-85
-8.52523e-88
-2.53777e-90
-6.86575e-93
-1.66388e-95
-3.57532e-98
-7.03749e-101
-1.22113e-103
-1.8698e-106
-2.55661e-109
-3.01159e-112
-3.0093e-115
-2.5114e-118
-1.68378e-121
-8.46432e-125
-2.8465e-128
-4.82425e-132
-4.41445e-83
-2.06441e-85
-8.39433e-88
-3.00907e-90
-9.30178e-93
-2.59002e-95
-6.40808e-98
-1.39727e-100
-2.77664e-103
-4.84226e-106
-7.42883e-109
-1.01428e-111
-1.18989e-114
-1.18139e-117
-9.78101e-121
-6.49145e-124
-3.22496e-127
-1.07017e-130
-1.78707e-134
-1.19025e-85
-6.10624e-88
-2.67046e-90
-1.01071e-92
-3.25829e-95
-9.37221e-98
-2.3749e-100
-5.26976e-103
-1.05979e-105
-1.86155e-108
-2.86686e-111
-3.91487e-114
-4.58044e-117
-4.52418e-120
-3.71971e-123
-2.44583e-126
-1.20165e-129
-3.93685e-133
-6.4799e-137
-3.02777e-88
-1.71461e-90
-8.10404e-93
-3.25186e-95
-1.09705e-97
-3.26975e-100
-8.50801e-103
-1.92564e-105
-3.92701e-108
-6.96008e-111
-1.07766e-113
-1.47388e-116
-1.72192e-119
-1.69375e-122
-1.38413e-125
-9.02366e-129
-4.3871e-132
-1.4197e-135
-2.30407e-139
-7.35002e-91
-4.61551e-93
-2.36606e-95
-1.00967e-97
-3.57373e-100
-1.10618e-102
-2.96137e-105
-6.84859e-108
-1.41839e-110
-2.53999e-113
-3.95865e-116
-5.42815e-119
-6.3382e-122
-6.21382e-125
-5.05059e-128
-3.26666e-131
-1.57242e-134
-5.02826e-138
-8.03255e-142
-1.71794e-93
-1.19942e-95
-6.68249e-98
-3.03812e-100
-1.12999e-102
-3.63749e-105
-1.00314e-107
-2.37319e-110
-4.99649e-113
-9.04881e-116
-1.42072e-118
-1.95461e-121
-2.2826e-124
-2.23173e-127
-1.80509e-130
-1.15883e-133
-5.52483e-137
-1.74641e-140
-4.57971e-144
)
;

boundaryField
{
    leftWall
    {
        type            calculated;
        value           nonuniform List<scalar> 
50
(
-29.4294
-88.2881
-147.147
-206.006
-264.864
-323.723
-382.582
-441.44
-533.467
-658.662
-783.856
-909.051
-1034.25
-1159.44
-1284.63
-1409.83
-1535.02
-1660.22
-1785.41
-1910.61
-2035.8
-2161
-2286.19
-2411.35
-2476.38
-1156.09
-1.66291e-35
-2.76469e-17
-2.63115e-16
-5.10119e-27
-1.25981e-28
-5.86e-37
-3.62351e-41
-7.85393e-45
-3.88758e-48
-8.35935e-53
-1.10228e-59
-2.05435e-64
-1.68823e-75
-1.67354e-80
-1.52198e-87
-2.31769e-93
-2.98475e-99
-4.58845e-106
-2.12379e-114
-4.40678e-120
-1.0447e-126
-1.44045e-135
-1.87307e-144
-1.8081e-156
)
;
    }
    rightWall
    {
        type            calculated;
        value           nonuniform List<scalar> 
50
(
-2.45823e-80
-2.27873e-77
-1.22395e-74
-3.40168e-72
-6.9783e-70
-8.90983e-68
-1.02462e-65
-6.7688e-64
-3.04181e-62
-2.85817e-62
-4.42092e-63
-3.57109e-64
-2.33367e-65
-1.19277e-66
-4.9378e-68
-1.64549e-69
-4.56151e-71
-1.05547e-72
-2.0779e-74
-3.49126e-76
-5.06006e-78
-6.35046e-80
-6.96735e-82
-6.72534e-84
-5.7682e-86
-4.42992e-88
-3.07441e-90
-1.94376e-92
-1.1276e-94
-6.26207e-97
-3.41224e-99
-1.8204e-101
-9.49189e-104
-4.83051e-106
-2.39643e-108
-1.15781e-110
-5.44338e-113
-2.48899e-115