/*--------------------------------*- C++ -*----------------------------------*\
| =========                 |                                                 |
| \\      /  F ield         | OpenFOAM: The Open Source CFD Toolbox           |
|  \\    /   O peration     | Version:  2012                                  |
|   \\  /    A nd           | Website:  www.openfoam.com                      |
|    \\/     M anipulation  |                                                 |
\*---------------------------------------------------------------------------*/
FoamFile
{
    version     2.0;
    format      ascii;
    class       volVectorField;
    location    "0.07";
    object      U;
}
// * * * * * * * * * * * * * * * * * * * * * * * * * * * * * * * * * * * * * //

dimensions      [0 1 -1 0 0 0 0];


internalField   nonuniform List<vector> 
2268
(
(0.0249489 -0.0113541 0)
(0.0711813 -0.0114605 0)
(0.121811 -0.0117841 0)
(0.171085 -0.0121388 0)
(0.224317 -0.0128102 0)
(0.279737 -0.0135431 0)
(0.338646 -0.0146221 0)
(0.403808 -0.0159961 0)
(0.473596 -0.0176998 0)
(0.553973 -0.0199958 0)
(0.642651 -0.0226264 0)
(0.74617 -0.0287434 0)
(0.882785 -0.03797 0)
(1.05376 -0.0378625 0)
(1.19442 -0.0256463 0)
(1.28405 -0.019911 0)
(1.3709 -0.0240385 0)
(1.45972 -0.0182535 0)
(1.48613 0.0377398 0)
(1.1375 0.104693 0)
(0.713936 0.0988612 0)
(0.406794 0.0655508 0)
(0.127978 0.0573977 0)
(0.0248992 -0.034055 0)
(0.0709786 -0.0343738 0)
(0.121499 -0.0353449 0)
(0.170595 -0.0364061 0)
(0.223672 -0.0384235 0)
(0.278875 -0.0406161 0)
(0.337523 -0.0438589 0)
(0.402375 -0.0479749 0)
(0.471741 -0.0530145 0)
(0.551356 -0.060221 0)
(0.640427 -0.067853 0)
(0.742249 -0.084928 0)
(0.873962 -0.107517 0)
(1.02708 -0.109811 0)
(1.16808 -0.0833958 0)
(1.28796 -0.064534 0)
(1.4009 -0.0670365 0)
(1.48636 -0.0232391 0)
(1.40397 0.113495 0)
(1.03414 0.25433 0)
(0.683723 0.248058 0)
(0.402013 0.212478 0)
(0.127413 0.195652 0)
(0.0248006 -0.0566426 0)
(0.0705716 -0.0571699 0)
(0.120875 -0.0587752 0)
(0.16961 -0.0605265 0)
(0.222384 -0.0638642 0)
(0.277136 -0.0674765 0)
(0.335286 -0.0728266 0)
(0.39943 -0.0796209 0)
(0.468082 -0.0878413 0)
(0.546086 -0.100035 0)
(0.634891 -0.112468 0)
(0.733942 -0.139293 0)
(0.859788 -0.172521 0)
(0.999984 -0.177238 0)
(1.13636 -0.149348 0)
(1.27687 -0.131505 0)
(1.41665 -0.11921 0)
(1.48748 -0.0138498 0)
(1.25452 0.251211 0)
(0.870453 0.435339 0)
(0.603603 0.392776 0)
(0.364933 0.327111 0)
(0.12018 0.306078 0)
(0.0246549 -0.079107 0)
(0.0699706 -0.079838 0)
(0.119956 -0.0820646 0)
(0.168156 -0.0844858 0)
(0.220501 -0.0891213 0)
(0.274564 -0.0941106 0)
(0.332039 -0.101495 0)
(0.395056 -0.110942 0)
(0.462773 -0.122072 0)
(0.538431 -0.139375 0)
(0.626024 -0.156317 0)
(0.721322 -0.191432 0)
(0.840269 -0.233348 0)
(0.968415 -0.24123 0)
(1.10159 -0.215458 0)
(1.25242 -0.199967 0)
(1.40548 -0.161386 0)
(1.399 0.0622874 0)
(1.02505 0.405282 0)
(0.72078 0.566143 0)
(0.53985 0.492938 0)
(0.338056 0.444167 0)
(0.112771 0.426742 0)
(0.0244619 -0.101337 0)
(0.0691695 -0.102265 0)
(0.118737 -0.105084 0)
(0.166212 -0.108149 0)
(0.218013 -0.11402 0)
(0.271104 -0.120326 0)
(0.327755 -0.129591 0)
(0.389173 -0.141603 0)
(0.455699 -0.155325 0)
(0.528455 -0.177451 0)
(0.613458 -0.198561 0)
(0.704545 -0.240645 0)
(0.815342 -0.289361 0)
(0.931382 -0.301701 0)
(1.06264 -0.287878 0)
(1.22415 -0.277171 0)
(1.38068 -0.174225 0)
(1.19755 0.168035 0)
(0.808308 0.563534 0)
(0.633571 0.656562 0)
(0.507728 0.569702 0)
(0.336296 0.525894 0)
(0.122205 0.516819 0)
(0.0242256 -0.123339 0)
(0.0681929 -0.124457 0)
(0.117258 -0.127839 0)
(0.163841 -0.131521 0)
(0.215022 -0.138566 0)
(0.266883 -0.146132 0)
(0.322635 -0.157122 0)
(0.382095 -0.171632 0)
(0.447163 -0.187663 0)
(0.516766 -0.214215 0)
(0.597853 -0.239323 0)
(0.68472 -0.287018 0)
(0.785708 -0.340936 0)
(0.889084 -0.359686 0)
(1.01694 -0.358521 0)
(1.16251 -0.345042 0)
(1.30626 -0.140135 0)
(0.943654 0.322041 0)
(0.637345 0.675169 0)
(0.552384 0.710984 0)
(0.452374 0.639308 0)
(0.305627 0.631301 0)
(0.105007 0.647618 0)
(0.0239426 -0.144983 0)
(0.0670174 -0.146286 0)
(0.115485 -0.150185 0)
(0.160976 -0.154463 0)
(0.211451 -0.162567 0)
(0.261747 -0.171334 0)
(0.316475 -0.183836 0)
(0.373542 -0.20065 0)
(0.436665 -0.218707 0)
(0.502882 -0.248842 0)
(0.578618 -0.277665 0)
(0.661353 -0.329359 0)
(0.750884 -0.386393 0)
(0.842089 -0.41316 0)
(0.966403 -0.42322 0)
(1.09132 -0.402061 0)
(1.17485 -0.0618442 0)
(0.718424 0.475562 0)
(0.545162 0.743872 0)
(0.51389 0.739232 0)
(0.448179 0.680534 0)
(0.338761 0.682251 0)
(0.13369 0.702671 0)
(0.0236125 -0.166306 0)
(0.0656739 -0.167783 0)
(0.113453 -0.172151 0)
(0.157703 -0.176997 0)
(0.207403 -0.186045 0)
(0.25591 -0.195935 0)
(0.309576 -0.209759 0)
(0.364071 -0.228658 0)
(0.424994 -0.248554 0)
(0.488111 -0.281543 0)
(0.558146 -0.314041 0)
(0.636815 -0.368591 0)
(0.714647 -0.427371 0)
(0.795274 -0.465189 0)
(0.908598 -0.478223 0)
(1.0064 -0.431961 0)
(0.95305 0.0444191 0)
(0.533318 0.615164 0)
(0.470827 0.773158 0)
(0.463252 0.761877 0)
(0.421588 0.728166 0)
(0.343802 0.793476 0)
(0.139434 0.888174 0)
(0.00428698 0.000524841 0)
(0.05653 -0.00617199 0)
(0.0869687 -0.00157601 0)
(0.104157 -0.0020733 0)
(0.118164 0.000144483 0)
(0.116075 0.000583082 0)
(0.117407 0.00134226 0)
(0.108405 0.00165036 0)
(0.103141 0.00192 0)
(0.0922471 0.00204591 0)
(0.0841061 0.00211081 0)
(0.0731511 0.00213862 0)
(0.0639435 0.00213689 0)
(0.0533878 0.00212632 0)
(0.043885 0.00210573 0)
(0.0337469 0.00208638 0)
(0.0242237 0.00206804 0)
(0.0143688 0.00205552 0)
(0.00487835 0.00204858 0)
(0.00163949 -0.0263581 0)
(0.0554296 -0.0295942 0)
(0.0884969 -0.0181139 0)
(0.104801 -0.0118349 0)
(0.119228 -0.00464453 0)
(0.116638 -0.000794372 0)
(0.117885 0.00234433 0)
(0.108631 0.00406124 0)
(0.103298 0.00521565 0)
(0.0923263 0.00584228 0)
(0.0841444 0.00616291 0)
(0.0731606 0.00632064 0)
(0.063937 0.00635417 0)
(0.0533737 0.00634202 0)
(0.0438685 0.0062939 0)
(0.0337315 0.00624456 0)
(0.0242113 0.00619536 0)
(0.014361 0.00616123 0)
(0.00487558 0.00614209 0)
(0.00277266 -0.0227528 0)
(0.0601054 -0.0437477 0)
(0.0944917 -0.0216784 0)
(0.109973 -0.015826 0)
(0.122857 -0.00417366 0)
(0.119218 0.000638694 0)
(0.119455 0.00525101 0)
(0.109605 0.00752551 0)
(0.103864 0.00914949 0)
(0.0926431 0.0100028 0)
(0.0843072 0.0104275 0)
(0.0732302 0.0106256 0)
(0.0639545 0.0106433 0)
(0.0533619 0.0106023 0)
(0.0438435 0.0105078 0)
(0.0337041 0.0104168 0)
(0.0241877 0.010329 0)
(0.0143457 0.0102688 0)
(0.00487004 0.0102352 0)
(-0.00633578 -0.0540487 0)
(0.0554859 -0.0692363 0)
(0.0991015 -0.0389838 0)
(0.11221 -0.0244797 0)
(0.126267 -0.00812394 0)
(0.120671 0.000107459 0)
(0.120821 0.00679025 0)
(0.110266 0.0103137 0)
(0.104309 0.0126607 0)
(0.0928575 0.0139371 0)
(0.0844041 0.0145569 0)
(0.0732466 0.0148531 0)
(0.0639273 0.0148838 0)
(0.0533143 0.0148295 0)
(0.0437898 0.0146983 0)
(0.033655 0.014572 0)
(0.0241484 0.0144494 0)
(0.0143211 0.0143656 0)
(0.00486131 0.0143188 0)
(-0.00338197 -0.0413408 0)
(0.068723 -0.0895961 0)
(0.111723 -0.0446479 0)
(0.123091 -0.0282379 0)
(0.133422 -0.00697478 0)
(0.125502 0.00244263 0)
(0.123833 0.010221 0)
(0.112095 0.0142452 0)
(0.10536 0.0168708 0)
(0.0934378 0.0182969 0)
(0.0846943 0.0189443 0)
(0.0733634 0.0192364 0)
(0.0639462 0.0192164 0)
(0.0532814 0.0191118 0)
(0.0437347 0.0189192 0)
(0.0335978 0.0187424 0)
(0.0241 0.0185753 0)
(0.01429 0.0184622 0)
(0.00485015 0.0183994 0)
(-0.0215096 -0.0840798 0)
(0.0583739 -0.118536 0)
(0.122247 -0.0616874 0)
(0.12767 -0.034052 0)
(0.139331 -0.00868417 0)
(0.128018 0.00366753 0)
(0.125905 0.0128213 0)
(0.113107 0.0177875 0)
(0.105987 0.0208015 0)
(0.0937183 0.022495 0)
(0.0847972 0.0232184 0)
(0.0733525 0.0235479 0)
(0.0638746 0.0234976 0)
(0.0531847 0.0233567 0)
(0.0436329 0.0231105 0)
(0.0335078 0.0228889 0)
(0.0240292 0.0226805 0)
(0.0142461 0.0225403 0)
(0.00483462 0.0224626 0)
(0.0240479 -0.0530046 0)
(0.0955152 -0.153302 0)
(0.14547 -0.0729751 0)
(0.144742 -0.0368261 0)
(0.149571 -0.00635232 0)
(0.134737 0.00755641 0)
(0.12985 0.0171014 0)
(0.115504 0.0224174 0)
(0.107333 0.0254399 0)
(0.0944527 0.0271504 0)
(0.0851443 0.0277884 0)
(0.0734757 0.0280453 0)
(0.0638684 0.0278936 0)
(0.0531146 0.0276704 0)
(0.0435371 0.0273402 0)
(0.0334143 0.0270544 0)
(0.023952 0.026792 0)
(0.0141972 0.0266174 0)
(0.00481711 0.0265212 0)
(0.164279 -0.137586 0)
(0.126917 -0.16907 0)
(0.181341 -0.0814439 0)
(0.154102 -0.0356582 0)
(0.157744 -0.00375618 0)
(0.138269 0.011652 0)
(0.132261 0.021359 0)
(0.116663 0.0270089 0)
(0.107962 0.0299509 0)
(0.0946866 0.0317034 0)
(0.0851712 0.0322534 0)
(0.0733835 0.0324647 0)
(0.0637151 0.0322236 0)
(0.0529447 0.0319323 0)
(0.0433709 0.0315262 0)
(0.0332733 0.0311831 0)
(0.0238434 0.030871 0)
(0.0141307 0.030665 0)
(0.0047937 0.0305517 0)
(0.023059 -0.198924 0)
(0.0634069 -0.200669 0)
(0.110047 -0.205677 0)
(0.152202 -0.211401 0)
(0.200646 -0.221692 0)
(0.246216 -0.233274 0)
(0.298158 -0.248863 0)
(0.348633 -0.270545 0)
(0.405882 -0.293216 0)
(0.464251 -0.329184 0)
(0.525677 -0.366756 0)
(0.597086 -0.422943 0)
(0.657173 -0.482314 0)
(0.72695 -0.533222 0)
(0.810029 -0.541217 0)
(0.885525 -0.422642 0)
(0.63214 0.233786 0)
(0.413138 0.742045 0)
(0.430073 0.774058 0)
(0.44666 0.756538 0)
(0.495654 0.72764 0)
(0.508561 0.798111 0)
(0.684738 0.905696 0)
(0.0221174 -0.241402 0)
(0.0596404 -0.243482 0)
(0.104351 -0.249105 0)
(0.143085 -0.25591 0)
(0.189392 -0.267343 0)
(0.23032 -0.280863 0)
(0.279363 -0.29811 0)
(0.323605 -0.32233 0)
(0.375401 -0.347994 0)
(0.425866 -0.385442 0)
(0.476554 -0.427616 0)
(0.536306 -0.481789 0)
(0.577089 -0.542225 0)
(0.636198 -0.598316 0)
(0.674544 -0.599407 0)
(0.726387 -0.267863 0)
(0.342266 0.462474 0)
(0.339992 0.762441 0)
(0.361415 0.740451 0)
(0.400657 0.706288 0)
(0.456805 0.669461 0)
(0.479543 0.639087 0)
(0.672762 0.649521 0)
(0.0210272 -0.281079 0)
(0.0554976 -0.283452 0)
(0.097982 -0.289398 0)
(0.133079 -0.29713 0)
(0.176951 -0.309098 0)
(0.213065 -0.324119 0)
(0.258995 -0.342153 0)
(0.29677 -0.367776 0)
(0.343713 -0.395115 0)
(0.385189 -0.432175 0)
(0.428217 -0.476066 0)
(0.474596 -0.526345 0)
(0.503919 -0.586148 0)
(0.548548 -0.630017 0)
(0.561317 -0.628673 0)
(0.57915 -0.0773503 0)
(0.218838 0.617178 0)
(0.310659 0.722997 0)
(0.321207 0.708103 0)
(0.366345 0.661476 0)
(0.421989 0.63615 0)
(0.449466 0.57441 0)
(0.566433 0.576779 0)
(0.0198058 -0.318299 0)
(0.0511066 -0.320918 0)
(0.0911005 -0.326969 0)
(0.122508 -0.335453 0)
(0.163679 -0.347516 0)
(0.195082 -0.363634 0)
(0.23777 -0.381788 0)
(0.26934 -0.408139 0)
(0.312069 -0.435813 0)
(0.344578 -0.471889 0)
(0.382713 -0.51521 0)
(0.415846 -0.561411 0)
(0.439876 -0.618321 0)
(0.469139 -0.648454 0)
(0.480516 -0.641662 0)
(0.428263 0.1038 0)
(0.174187 0.711341 0)
(0.269768 0.672701 0)
(0.280874 0.676848 0)
(0.315703 0.613643 0)
(0.367401 0.584915 0)
(0.383921 0.506309 0)
(0.448468 0.471414 0)
(0.0184601 -0.352324 0)
(0.0465608 -0.355134 0)
(0.0838184 -0.361099 0)
(0.1116 -0.370138 0)
(0.149847 -0.381931 0)
(0.17679 -0.398755 0)
(0.216149 -0.416489 0)
(0.241988 -0.442985 0)
(0.280831 -0.469856 0)
(0.305221 -0.50463 0)
(0.339738 -0.545532 0)
(0.361103 -0.587905 0)
(0.383055 -0.640051 0)
(0.398607 -0.658139 0)
(0.413331 -0.617557 0)
(0.248378 0.271767 0)
(0.162723 0.73986 0)
(0.216997 0.633477 0)
(0.249318 0.649526 0)
(0.272662 0.579933 0)
(0.32093 0.560012 0)
(0.331681 0.492484 0)
(0.370736 0.456268 0)
(0.0170531 -0.383696 0)
(0.042086 -0.386644 0)
(0.0764752 -0.392407 0)
(0.100846 -0.401814 0)
(0.13603 -0.413112 0)
(0.158906 -0.430296 0)
(0.194882 -0.447254 0)
(0.215631 -0.473435 0)
(0.250825 -0.498788 0)
(0.26835 -0.532168 0)
(0.299904 -0.569604 0)
(0.311867 -0.608954 0)
(0.33321 -0.655078 0)
(0.338121 -0.664933 0)
(0.351727 -0.529805 0)
(0.0875435 0.4018 0)
(0.159748 0.710465 0)
(0.158006 0.602135 0)
(0.218728 0.613076 0)
(0.223647 0.547441 0)
(0.270323 0.524555 0)
(0.277258 0.461045 0)
(0.306186 0.418338 0)
(0.01555 -0.411728 0)
(0.0375757 -0.414752 0)
(0.0689224 -0.420216 0)
(0.0900733 -0.4298 0)
(0.122078 -0.440438 0)
(0.141329 -0.457684 0)
(0.173925 -0.473629 0)
(0.190354 -0.499178 0)
(0.222115 -0.522621 0)
(0.234116 -0.554571 0)
(0.263072 -0.588093 0)
(0.267811 -0.625012 0)
(0.288937 -0.664611 0)
(0.285998 -0.668453 0)
(0.292333 -0.384789 0)
(-0.0031935 0.48691 0)
(0.154985 0.653288 0)
(0.113362 0.580405 0)
(0.19253 0.580068 0)
(0.185222 0.527995 0)
(0.231172 0.504604 0)
(0.23401 0.454331 0)
(0.256991 0.416079 0)
(0.0140736 -0.437205 0)
(0.0333747 -0.440268 0)
(0.0617106 -0.445423 0)
(0.0799598 -0.455049 0)
(0.108783 -0.465013 0)
(0.124836 -0.482077 0)
(0.154046 -0.496951 0)
(0.166799 -0.521567 0)
(0.195214 -0.542978 0)
(0.20286 -0.573417 0)
(0.229311 -0.602988 0)
(0.228786 -0.637843 0)
(0.249761 -0.670647 0)
(0.242217 -0.670033 0)
(0.241427 -0.231098 0)
(-0.0375782 0.537921 0)
(0.14476 0.594086 0)
(0.0770679 0.563091 0)
(0.165697 0.54358 0)
(0.146622 0.507468 0)
(0.192517 0.47798 0)
(0.191133 0.435601 0)
(0.213267 0.397473 0)
(0.0124946 -0.459374 0)
(0.0290854 -0.462416 0)
(0.0542514 -0.467199 0)
(0.0697692 -0.476712 0)
(0.0953684 -0.485927 0)
(0.108662 -0.502622 0)
(0.134563 -0.516349 0)
(0.144392 -0.539977 0)
(0.169703 -0.559362 0)
(0.174152 -0.588499 0)
(0.198222 -0.614277 0)
(0.194148 -0.647794 0)
(0.214577 -0.67418 0)
(0.204585 -0.669754 0)
(0.199042 -0.0828194 0)
(-0.0475191 0.563194 0)
(0.129236 0.550577 0)
(0.053552 0.549192 0)
(0.138433 0.517131 0)
(0.117603 0.494934 0)
(0.158753 0.4628 0)
(0.157212 0.429903 0)
(0.174986 0.394693 0)
(0.0110441 -0.479146 0)
(0.0253127 -0.482169 0)
(0.047516 -0.486671 0)
(0.0606275 -0.496043 0)
(0.0831115 -0.504669 0)
(0.0939411 -0.520884 0)
(0.116521 -0.533584 0)
(0.123827 -0.556151 0)
(0.146003 -0.573629 0)
(0.147918 -0.601385 0)
(0.169563 -0.623676 0)
(0.163149 -0.655803 0)
(0.182759 -0.676406 0)
(0.172393 -0.668711 0)
(0.160414 0.051426 0)
(-0.0469473 0.579079 0)
(0.108508 0.512833 0)
(0.0361037 0.540462 0)
(0.112384 0.489122 0)
(0.0901434 0.481412 0)
(0.126925 0.442751 0)
(0.124492 0.417776 0)
(0.140804 0.382713 0)
(0.00945888 -0.495899 0)
(0.0213214 -0.498837 0)
(0.0403616 -0.50294 0)
(0.0511609 -0.512032 0)
(0.070497 -0.51995 0)
(0.0791731 -0.535542 0)
(0.0985934 -0.54717 0)
(0.103944 -0.568818 0)
(0.123228 -0.584478 0)
(0.123433 -0.611335 0)
(0.142824 -0.63053 0)
(0.135159 -0.662091 0)
(0.153597 -0.677917 0)
(0.144183 -0.665337 0)
(0.124403 0.17169 0)
(-0.0404683 0.581444 0)
(0.0798639 0.490137 0)
(0.0239706 0.528359 0)
(0.0811193 0.473911 0)
(0.069038 0.472073 0)
(0.0949363 0.432733 0)
(0.0980545 0.412267 0)
(0.108546 0.378931 0)
(0.00807878 -0.510172 0)
(0.0179954 -0.513074 0)
(0.034211 -0.516973 0)
(0.0430738 -0.525883 0)
(0.0594088 -0.533352 0)
(0.0661915 -0.548391 0)
(0.082501 -0.559198 0)
(0.0861392 -0.579973 0)
(0.102483 -0.594092 0)
(0.101279 -0.620002 0)
(0.118257 -0.636552 0)
(0.109677 -0.667172 0)
(0.126716 -0.679313 0)
(0.119216 -0.658683 0)
(0.079013 0.27122 0)
(-0.0333047 0.591388 0)
(0.0521527 0.471411 0)
(0.0151566 0.523906 0)
(0.0546916 0.454532 0)
(0.0482796 0.46143 0)
(0.0668512 0.417928 0)
(0.0716923 0.402487 0)
(0.0797828 0.369551 0)
(0.00656088 -0.522228 0)
(0.0144249 -0.525002 0)
(0.0276261 -0.528524 0)
(0.0346097 -0.537047 0)
(0.0479704 -0.54384 0)
(0.0532136 -0.558243 0)
(0.0666689 -0.568101 0)
(0.0691614 -0.588201 0)
(0.0827724 -0.600741 0)
(0.0807683 -0.626236 0)
(0.0951202 -0.640245 0)
(0.0858635 -0.670881 0)
(0.100513 -0.680935 0)
(0.0982986 -0.636147 0)
(0.0161825 0.354953 0)
(-0.0224326 0.580052 0)
(0.00673256 0.460512 0)
(0.00721273 0.511602 0)
(0.0190914 0.449711 0)
(0.0302721 0.45325 0)
(0.0357675 0.412668 0)
(0.0491558 0.39667 0)
(0.0511863 0.365665 0)
(0.00522255 -0.53112 0)
(0.0113843 -0.533902 0)
(0.021943 -0.537326 0)
(0.0274574 -0.545757 0)
(0.0381026 -0.552313 0)
(0.0421121 -0.566391 0)
(0.0527083 -0.575693 0)
(0.0542301 -0.59521 0)
(0.0648937 -0.60649 0)
(0.0623592 -0.6313 0)
(0.0735268 -0.642866 0)
(0.0637003 -0.67258 0)
(0.0742629 -0.685576 0)
(0.0756586 -0.594109 0)
(-0.0422493 0.421544 0)
(-0.00167686 0.576656 0)
(-0.0178872 0.459283 0)
(0.00228246 0.500981 0)
(-0.00486323 0.438613 0)
(0.0118061 0.441011 0)
(0.00986815 0.401419 0)
(0.025468 0.38648 0)
(0.0255765 0.356985 0)
(0.00391926 -0.539315 0)
(0.00851709 -0.541996 0)
(0.016276 -0.545225 0)
(0.0201792 -0.55326 0)
(0.0278427 -0.559271 0)
(0.0305351 -0.572702 0)
(0.0381177 -0.58109 0)
(0.0389706 -0.599977 0)
(0.0466388 -0.609777 0)
(0.0444509 -0.634062 0)
(0.0522672 -0.642613 0)
(0.0441095 -0.671438 0)
(0.0483905 -0.690106 0)
(0.0445024 -0.527958 0)
(-0.137682 0.443821 0)
(-0.00077928 0.542602 0)
(-0.0641101 0.464356 0)
(-0.0120468 0.491334 0)
(-0.0407268 0.443989 0)
(-0.00835967 0.435516 0)
(-0.0198003 0.399862 0)
(0.00352981 0.380119 0)
(-0.000515499 0.35245 0)
(0.00246093 -0.543204 0)
(0.00533446 -0.54582 0)
(0.0103065 -0.548861 0)
(0.0127937 -0.556843 0)
(0.0178671 -0.562755 0)
(0.0197213 -0.576155 0)
(0.0247964 -0.584463 0)
(0.0254336 -0.603271 0)
(0.0306233 -0.612664 0)
(0.0295892 -0.636453 0)
(0.0353183 -0.643887 0)
(0.0317463 -0.668304 0)
(0.035728 -0.686184 0)
(-0.0187855 -0.404891 0)
(-0.0537445 0.473429 0)
(0.0169528 0.498908 0)
(-0.0587885 0.476837 0)
(-0.0249577 0.475714 0)
(-0.0610401 0.436684 0)
(-0.0320589 0.420001 0)
(-0.0451746 0.389533 0)
(-0.0211253 0.368074 0)
(-0.0246438 0.342842 0)
(0.0015603 -0.547546 0)
(0.00342228 -0.550114 0)
(0.00643644 -0.553076 0)
(0.00797702 -0.560807 0)
(0.0106074 -0.566481 0)
(0.0115394 -0.579266 0)
(0.0138679 -0.586849 0)
(0.0140685 -0.604953 0)
(0.0168434 -0.613603 0)
(0.0167973 -0.637437 0)
(0.0245622 -0.643858 0)
(0.0291341 -0.670411 0)
(0.080739 -0.638596 0)
(-0.0148526 -0.436591 0)
(0.0621144 0.404459 0)
(0.00251967 0.550726 0)
(-0.0786938 0.502093 0)
(-0.0499488 0.494329 0)
(-0.0913113 0.44966 0)
(-0.0576508 0.420305 0)
(-0.0735052 0.387316 0)
(-0.0447164 0.360392 0)
(-0.0483263 0.33562 0)
(0.000755084 -0.545968 0)
(0.00182624 -0.548462 0)
(0.00335952 -0.551309 0)
(0.00428086 -0.558827 0)
(0.00546259 -0.564371 0)
(0.00587097 -0.577369 0)
(0.00669856 -0.585276 0)
(0.00667071 -0.604397 0)
(0.00824836 -0.614013 0)
(0.0111287 -0.642234 0)
(0.0252777 -0.655519 0)
(0.0808435 -0.721419 0)
(0.211467 -0.635138 0)
(0.107528 -0.404361 0)
(0.143041 0.470402 0)
(0.101341 0.644063 0)
(-0.117996 0.526874 0)
(-0.0806595 0.492722 0)
(-0.132065 0.440798 0)
(-0.0940184 0.405362 0)
(-0.104164 0.374326 0)
(-0.0731887 0.344969 0)
(-0.0724403 0.322695 0)
(-0.000411324 -0.555861 0)
(-0.00265386 -0.558149 0)
(-0.00516834 -0.560977 0)
(-0.00942774 -0.568275 0)
(-0.0129691 -0.57339 0)
(-0.0216708 -0.585804 0)
(-0.0239557 -0.592966 0)
(-0.0414696 -0.612332 0)
(-0.0298117 -0.623873 0)
(-0.0581276 -0.662709 0)
(0.0107268 -0.720968 0)
(-0.033439 -0.874769 0)
(0.203686 -0.658361 0)
(0.291139 -0.364007 0)
(-0.164604 0.376573 0)
(-0.0370205 0.83492 0)
(-0.222812 0.66962 0)
(-0.135463 0.515262 0)
(-0.182753 0.458611 0)
(-0.127472 0.395173 0)
(-0.133466 0.363724 0)
(-0.0966489 0.330355 0)
(-0.0924849 0.309536 0)
(-0.0145468 -0.540033 0)
(-0.0395728 -0.541594 0)
(-0.0676875 -0.543082 0)
(-0.0951628 -0.548557 0)
(-0.125682 -0.552252 0)
(-0.157798 -0.562646 0)
(-0.191646 -0.568456 0)
(-0.23152 -0.590065 0)
(-0.26775 -0.604564 0)
(-0.318267 -0.664322 0)
(-0.356205 -0.686311 0)
(-0.459198 -0.897558 0)
(-0.60754 -0.956323 0)
(-0.697012 -0.00614976 0)
(-0.82145 0.74161 0)
(-0.558581 0.733823 0)
(-0.409142 0.603783 0)
(-0.294166 0.464447 0)
(-0.251752 0.424154 0)
(-0.189587 0.360943 0)
(-0.1695 0.339617 0)
(-0.130231 0.306222 0)
(-0.116324 0.290894 0)
(-0.013974 -0.500461 0)
(-0.0409255 -0.502441 0)
(-0.0703836 -0.503301 0)
(-0.0992077 -0.506567 0)
(-0.132832 -0.508379 0)
(-0.166526 -0.514277 0)
(-0.207244 -0.517363 0)
(-0.250346 -0.529226 0)
(-0.305466 -0.53744 0)
(-0.372372 -0.567106 0)
(-0.478791 -0.58777 0)
(-0.586205 -0.612709 0)
(-0.943394 -0.458811 0)
(-1.13008 -0.141457 0)
(-0.88589 0.292589 0)
(-0.610605 0.414172 0)
(-0.435222 0.416862 0)
(-0.331182 0.360066 0)
(-0.264213 0.354088 0)
(-0.210643 0.31526 0)
(-0.17905 0.302828 0)
(-0.144734 0.278925 0)
(-0.125862 0.267343 0)
(-0.0142873 -0.485136 0)
(-0.0413514 -0.485539 0)
(-0.0714682 -0.485701 0)
(-0.10012 -0.487032 0)
(-0.13297 -0.487227 0)
(-0.165752 -0.489431 0)
(-0.203545 -0.4889 0)
(-0.245551 -0.492046 0)
(-0.2938 -0.488186 0)
(-0.358655 -0.489238 0)
(-0.440531 -0.472475 0)
(-0.567219 -0.441986 0)
(-0.715956 -0.385394 0)
(-0.803729 -0.0551584 0)
(-0.736675 0.181641 0)
(-0.569483 0.273291 0)
(-0.456647 0.314491 0)
(-0.360136 0.293614 0)
(-0.299914 0.298515 0)
(-0.240692 0.276645 0)
(-0.205546 0.27068 0)
(-0.16748 0.253576 0)
(-0.144738 0.245351 0)
(-0.014618 -0.445078 0)
(-0.0418798 -0.445055 0)
(-0.0724385 -0.444339 0)
(-0.101577 -0.443696 0)
(-0.136348 -0.441899 0)
(-0.169847 -0.44036 0)
(-0.2125 -0.436479 0)
(-0.253999 -0.4333 0)
(-0.310588 -0.424239 0)
(-0.363633 -0.412569 0)
(-0.445676 -0.38296 0)
(-0.506485 -0.326702 0)
(-0.618784 -0.2398 0)
(-0.670104 -0.110838 0)
(-0.593513 0.0548758 0)
(-0.510718 0.139416 0)
(-0.42008 0.205124 0)
(-0.346496 0.207586 0)
(-0.291767 0.232527 0)
(-0.240935 0.223725 0)
(-0.205246 0.228415 0)
(-0.171018 0.219799 0)
(-0.147107 0.217239 0)
(-0.0142083 -0.427453 0)
(-0.0404724 -0.426759 0)
(-0.0697828 -0.425312 0)
(-0.0971939 -0.422896 0)
(-0.128975 -0.419367 0)
(-0.159096 -0.413949 0)
(-0.195438 -0.406614 0)
(-0.230882 -0.395152 0)
(-0.275639 -0.381158 0)
(-0.320602 -0.355681 0)
(-0.377877 -0.329425 0)
(-0.430692 -0.271253 0)
(-0.477359 -0.213903 0)
(-0.51076 -0.0799859 0)
(-0.484339 0.0213322 0)
(-0.442092 0.0983037 0)
(-0.381534 0.146312 0)
(-0.328019 0.165672 0)
(-0.285041 0.189397 0)
(-0.240373 0.190527 0)
(-0.209619 0.198325 0)
(-0.176899 0.195407 0)
(-0.154261 0.195561 0)
(-0.0140024 -0.391056 0)
(-0.0399288 -0.389966 0)
(-0.0689006 -0.387893 0)
(-0.0960059 -0.384243 0)
(-0.127918 -0.379588 0)
(-0.157351 -0.372305 0)
(-0.194115 -0.363732 0)
(-0.226431 -0.349924 0)
(-0.269373 -0.333826 0)
(-0.303555 -0.305886 0)
(-0.351665 -0.274139 0)
(-0.384293 -0.22215 0)
(-0.42353 -0.165179 0)
(-0.440203 -0.0987994 0)
(-0.416276 -0.0176121 0)
(-0.388856 0.0397709 0)
(-0.341318 0.088439 0)
(-0.304877 0.114071 0)
(-0.265745 0.142775 0)
(-0.230935 0.150471 0)
(-0.201654 0.163827 0)
(-0.173767 0.165728 0)
(-0.151609 0.170098 0)
(-0.0130369 -0.372405 0)
(-0.0370468 -0.37093 0)
(-0.0636876 -0.368316 0)
(-0.0882912 -0.363467 0)
(-0.116603 -0.357659 0)
(-0.142458 -0.348038 0)
(-0.173514 -0.337843 0)
(-0.2014 -0.320738 0)
(-0.235633 -0.304496 0)
(-0.265667 -0.274453 0)
(-0.298986 -0.248247 0)
(-0.326998 -0.200303 0)
(-0.344777 -0.15612 0)
(-0.359091 -0.0879763 0)
(-0.349445 -0.0303704 0)
(-0.333779 0.0224999 0)
(-0.303853 0.0605024 0)
(-0.27772 0.0900515 0)
(-0.24728 0.113385 0)
(-0.219132 0.126534 0)
(-0.194313 0.139553 0)
(-0.169785 0.145188 0)
(-0.149941 0.150919 0)
(-0.0125187 -0.341368 0)
(-0.0357796 -0.339697 0)
(-0.061347 -0.336779 0)
(-0.0850482 -0.331406 0)
(-0.112109 -0.325121 0)
(-0.136444 -0.314887 0)
(-0.165491 -0.304172 0)
(-0.190061 -0.28665 0)
(-0.220464 -0.269136 0)
(-0.244233 -0.240819 0)
(-0.27171 -0.213257 0)
(-0.291666 -0.174339 0)
(-0.307954 -0.134781 0)
(-0.316251 -0.0918894 0)
(-0.308061 -0.0442119 0)
(-0.296204 -0.00418537 0)
(-0.272736 0.0313336 0)
(-0.252886 0.0590448 0)
(-0.226841 0.0831318 0)
(-0.205069 0.0987784 0)
(-0.182461 0.113777 0)
(-0.162206 0.122145 0)
(-0.143649 0.130188 0)
(-0.0113695 -0.323271 0)
(-0.0324868 -0.321424 0)
(-0.0555136 -0.318227 0)
(-0.0767908 -0.312349 0)
(-0.100591 -0.305606 0)
(-0.122099 -0.294692 0)
(-0.146744 -0.283739 0)
(-0.168353 -0.266063 0)
(-0.192658 -0.249837 0)
(-0.213245 -0.223606 0)
(-0.233154 -0.200218 0)
(-0.249792 -0.164349 0)
(-0.259455 -0.131019 0)
(-0.266502 -0.0883927 0)
(-0.263063 -0.0507557 0)
(-0.255542 -0.013486 0)
(-0.240772 0.0163701 0)
(-0.226012 0.0436957 0)
(-0.206673 0.0645689 0)
(-0.189206 0.0818836 0)
(-0.170559 0.0958057 0)
(-0.153365 0.10609 0)
(-0.137161 0.114552 0)
(-0.0106121 -0.297753 0)
(-0.030536 -0.29585 0)
(-0.0519535 -0.292536 0)
(-0.0718567 -0.286555 0)
(-0.0937228 -0.279637 0)
(-0.113394 -0.268787 0)
(-0.135473 -0.257611 0)
(-0.154369 -0.240602 0)
(-0.175358 -0.224069 0)
(-0.192402 -0.199952 0)
(-0.209493 -0.176912 0)
(-0.222539 -0.147453 0)
(-0.231566 -0.11858 0)
(-0.236438 -0.0873994 0)
(-0.233613 -0.0555104 0)
(-0.227935 -0.0257178 0)
(-0.216062 0.00150095 0)
(-0.204203 0.025601 0)
(-0.188111 0.0460004 0)
(-0.173936 0.0631999 0)
(-0.157676 0.0776708 0)
(-0.143365 0.0890878 0)
(-0.128768 0.0986395 0)
(-0.00950264 -0.281431 0)
(-0.0273906 -0.279517 0)
(-0.0464628 -0.276158 0)
(-0.0642248 -0.270211 0)
(-0.0833797 -0.263317 0)
(-0.100785 -0.252778 0)
(-0.119602 -0.242014 0)
(-0.136153 -0.226125 0)
(-0.153328 -0.211034 0)
(-0.167932 -0.189451 0)
(-0.180969 -0.169378 0)
(-0.191647 -0.142261 0)
(-0.198093 -0.116739 0)
(-0.202365 -0.0865981 0)
(-0.201309 -0.0593542 0)
(-0.197623 -0.0314692 0)
(-0.189755 -0.00767137 0)
(-0.18079 0.01531 0)
(-0.168891 0.0338958 0)
(-0.157462 0.051085 0)
(-0.144399 0.064828 0)
(-0.132378 0.0768696 0)
(-0.119943 0.0865298 0)
(-0.00863255 -0.261076 0)
(-0.0250589 -0.259178 0)
(-0.0423165 -0.2558 0)
(-0.0585076 -0.249954 0)
(-0.0756345 -0.243055 0)
(-0.0912422 -0.232868 0)
(-0.107753 -0.222172 0)
(-0.122204 -0.207163 0)
(-0.137016 -0.192314 0)
(-0.149404 -0.172527 0)
(-0.160865 -0.153405 0)
(-0.169794 -0.130398 0)
(-0.175838 -0.108106 0)
(-0.179239 -0.0839983 0)
(-0.178536 -0.0603832 0)
(-0.175726 -0.0370359 0)
(-0.169388 -0.0154271 0)
(-0.162158 0.00492338 0)
(-0.152303 0.0225874 0)
(-0.14282 0.03884 0)
(-0.131686 0.0525185 0)
(-0.121521 0.0646985 0)
(-0.110632 0.0748033 0)
(-0.00763737 -0.247133 0)
(-0.0222202 -0.245317 0)
(-0.0374307 -0.242034 0)
(-0.0517465 -0.23649 0)
(-0.0666726 -0.229856 0)
(-0.0803698 -0.220358 0)
(-0.0944919 -0.210284 0)
(-0.107033 -0.19661 0)
(-0.119349 -0.183036 0)
(-0.129893 -0.165357 0)
(-0.138979 -0.148257 0)
(-0.1463 -0.127094 0)
(-0.151019 -0.10683 0)
(-0.154023 -0.0839316 0)
(-0.154011 -0.0627224 0)
(-0.15221 -0.0408144 0)
(-0.14785 -0.0212662 0)
(-0.142312 -0.00203992 0)
(-0.134919 0.0144494 0)
(-0.127277 0.0301983 0)
(-0.118397 0.0433788 0)
(-0.10992 0.0555674 0)
(-0.100815 0.065684 0)
(-0.00676067 -0.231435 0)
(-0.0197932 -0.229665 0)
(-0.0332174 -0.22642 0)
(-0.0459511 -0.221049 0)
(-0.0590131 -0.214523 0)
(-0.0710759 -0.20543 0)
(-0.0833007 -0.195593 0)
(-0.0941901 -0.182724 0)
(-0.104794 -0.169609 0)
(-0.113833 -0.153317 0)
(-0.121859 -0.137246 0)
(-0.128184 -0.118687 0)
(-0.13257 -0.100611 0)
(-0.135173 -0.0811503 0)
(-0.135365 -0.0623306 0)
(-0.134028 -0.0432502 0)
(-0.130546 -0.0254046 0)
(-0.1261 -0.00805012 0)
(-0.120019 0.00750191 0)
(-0.113671 0.0222701 0)
(-0.106212 0.0351317 0)
(-0.0990348 0.0470653 0)
(-0.0912271 0.0572875 0)
(-0.00588897 -0.220063 0)
(-0.0172739 -0.218402 0)
(-0.0289342 -0.215301 0)
(-0.0400168 -0.210292 0)
(-0.0512706 -0.204102 0)
(-0.0616981 -0.195714 0)
(-0.072095 -0.186493 0)
(-0.0814134 -0.174779 0)
(-0.0902713 -0.162687 0)
(-0.0978803 -0.147959 0)
(-0.104372 -0.133247 0)
(-0.109563 -0.11611 0)
(-0.113112 -0.0993627 0)
(-0.115371 -0.0810277 0)
(-0.115804 -0.0636097 0)
(-0.114987 -0.0456634 0)
(-0.112538 -0.0290871 0)
(-0.109144 -0.0126784 0)
(-0.104507 0.00204287 0)
(-0.0994327 0.0162412 0)
(-0.0934913 0.0287067 0)
(-0.0875753 0.0404248 0)
(-0.081137 0.0505865 0)
(-0.00505053 -0.208476 0)
(-0.0148899 -0.206871 0)
(-0.0248798 -0.203842 0)
(-0.0344487 -0.199018 0)
(-0.0440617 -0.192987 0)
(-0.0530359 -0.184966 0)
(-0.0618841 -0.176034 0)
(-0.0698602 -0.164958 0)
(-0.0774124 -0.153347 0)
(-0.0839258 -0.139645 0)
(-0.0895966 -0.125814 0)
(-0.0941131 -0.110324 0)
(-0.0973429 -0.0950243 0)
(-0.0993648 -0.0787146 0)
(-0.0998983 -0.0628609 0)
(-0.0993482 -0.0466839 0)
(-0.097447 -0.031338 0)
(-0.0947479 -0.0162081 0)
(-0.0909952 -0.00226529 0)
(-0.0868315 0.0111503 0)
(-0.081925 0.0232406 0)
(-0.0769816 0.0346284 0)
(-0.071579 0.0447366 0)
(-0.0042917 -0.199698 0)
(-0.0126677 -0.198182 0)
(-0.0211313 -0.195279 0)
(-0.0292376 -0.190749 0)
(-0.0373215 -0.185011 0)
(-0.0448673 -0.177549 0)
(-0.0522328 -0.169127 0)
(-0.0588789 -0.158915 0)
(-0.0650824 -0.148061 0)
(-0.0704325 -0.135449 0)
(-0.0750001 -0.122532 0)
(-0.0786586 -0.108093 0)
(-0.0812735 -0.0937016 0)
(-0.082976 -0.0783156 0)
(-0.0835439 -0.0633689 0)
(-0.0832501 -0.0480653 0)
(-0.0819147 -0.0335483 0)
(-0.0798871 -0.0191559 0)
(-0.0770302 -0.00581333 0)
(-0.0737626 0.00710177 0)
(-0.0698991 0.0188615 0)
(-0.0659126 0.0299889 0)
(-0.061548 0.0399877 0)
(-0.00350686 -0.191712 0)
(-0.0103906 -0.190256 0)
(-0.0173185 -0.187444 0)
(-0.0240056 -0.183089 0)
(-0.0306428 -0.177521 0)
(-0.0368895 -0.170356 0)
(-0.0429552 -0.162195 0)
(-0.0484725 -0.152446 0)
(-0.0536251 -0.141991 0)
(-0.0581025 -0.13008 0)
(-0.0619833 -0.117801 0)
(-0.0651059 -0.10437 0)
(-0.0674078 -0.0908902 0)
(-0.0689197 -0.0766861 0)
(-0.0695166 -0.062714 0)
(-0.0693826 -0.0484848 0)
(-0.0684047 -0.0347821 0)
(-0.0668471 -0.0212185 0)
(-0.0646118 -0.00844068 0)
(-0.0620141 0.00392212 0)
(-0.0589264 0.015358 0)
(-0.0557039 0.0262059 0)
(-0.0521662 0.0361033 0)
(-0.00282544 -0.185445 0)
(-0.00837481 -0.184035 0)
(-0.0139351 -0.18129 0)
(-0.0192924 -0.17711 0)
(-0.0245779 -0.171735 0)
(-0.0295431 -0.164938 0)
(-0.0343315 -0.157136 0)
(-0.0386814 -0.147959 0)
(-0.0427093 -0.138019 0)
(-0.0462035 -0.126823 0)
(-0.0492054 -0.115149 0)
(-0.0516257 -0.102449 0)
(-0.0534216 -0.089588 0)
(-0.0546334 -0.0760663 0)
(-0.0551699 -0.0627071 0)
(-0.0551543 -0.0491143 0)
(-0.0545068 -0.0359707 0)
(-0.0533981 -0.0229447 0)
(-0.0517693 -0.0105946 0)
(-0.0498279 0.0013842 0)
(-0.0475008 0.0125605 0)
(-0.0450276 0.0231775 0)
(-0.0423031 0.0329501 0)
(-0.00207974 -0.180721 0)
(-0.00619166 -0.179369 0)
(-0.0103302 -0.176715 0)
(-0.0143623 -0.172678 0)
(-0.0183513 -0.167442 0)
(-0.0221381 -0.160847 0)
(-0.0257975 -0.153224 0)
(-0.0291591 -0.144325 0)
(-0.0322903 -0.134637 0)
(-0.0350408 -0.12384 0)
(-0.0374411 -0.112538 0)
(-0.0394005 -0.10038 0)
(-0.0408951 -0.0880123 0)
(-0.0419246 -0.0751116 0)
(-0.0424371 -0.0622809 0)
(-0.0425122 -0.0492704 0)
(-0.0421023 -0.0365907 0)
(-0.0413296 -0.024041 0)
(-0.0401558 -0.0120406 0)
(-0.0387329 -0.000408265 0)
(-0.0370185 0.0105377 0)