/*--------------------------------*- C++ -*----------------------------------*\
| =========                 |                                                 |
| \\      /  F ield         | OpenFOAM: The Open Source CFD Toolbox           |
|  \\    /   O peration     | Version:  2012                                  |
|   \\  /    A nd           | Website:  www.openfoam.com                      |
|    \\/     M anipulation  |                                                 |
\*---------------------------------------------------------------------------*/
FoamFile
{
    version     2.0;
    format      ascii;
    class       volVectorField;
    location    "0.07";
    object      Uc;
}
// * * * * * * * * * * * * * * * * * * * * * * * * * * * * * * * * * * * * * //

dimensions      [0 1 -1 0 0 0 0];


internalField   nonuniform List<vector> 
2268
(
(0.0240177 -0.0113506 0)
(0.072278 -0.0114569 0)
(0.121448 -0.0117805 0)
(0.172051 -0.0121343 0)
(0.224825 -0.0128064 0)
(0.280569 -0.0135376 0)
(0.340146 -0.014618 0)
(0.404913 -0.0159907 0)
(0.476153 -0.0176767 0)
(0.555994 -0.0200552 0)
(0.646296 -0.0226211 0)
(0.754302 -0.0284218 0)
(0.891392 -0.0363657 0)
(1.04647 -0.0369238 0)
(1.18247 -0.0270184 0)
(1.28472 -0.020964 0)
(1.37727 -0.0226983 0)
(1.44676 -0.0100309 0)
(1.38719 0.0382289 0)
(1.11688 0.0895158 0)
(0.744612 0.0864119 0)
(0.414766 0.0694685 0)
(0.133884 0.0632713 0)
(0.0239546 -0.034022 0)
(0.0720864 -0.0343397 0)
(0.121119 -0.0353073 0)
(0.171567 -0.0363641 0)
(0.224165 -0.0383747 0)
(0.279696 -0.0405569 0)
(0.33901 -0.0437857 0)
(0.403452 -0.0478866 0)
(0.474212 -0.0528892 0)
(0.55366 -0.0601212 0)
(0.643543 -0.0677092 0)
(0.749582 -0.0844898 0)
(0.879326 -0.106401 0)
(1.0245 -0.108785 0)
(1.16402 -0.0850329 0)
(1.28855 -0.0697449 0)
(1.39785 -0.0690659 0)
(1.44504 -0.0185345 0)
(1.32896 0.129816 0)
(1.03846 0.262962 0)
(0.702635 0.2476 0)
(0.404735 0.204944 0)
(0.132531 0.189175 0)
(0.0238281 -0.0566038 0)
(0.0717024 -0.0571298 0)
(0.120458 -0.0587313 0)
(0.170597 -0.0604771 0)
(0.22284 -0.0638084 0)
(0.277946 -0.0674095 0)
(0.33672 -0.0727409 0)
(0.400504 -0.0795299 0)
(0.470328 -0.0876853 0)
(0.548716 -0.099917 0)
(0.637372 -0.11229 0)
(0.740495 -0.138758 0)
(0.863356 -0.171513 0)
(0.999708 -0.176719 0)
(1.13949 -0.149069 0)
(1.28105 -0.131242 0)
(1.40294 -0.116395 0)
(1.40988 0.00349611 0)
(1.21417 0.25517 0)
(0.900451 0.423156 0)
(0.612305 0.382287 0)
(0.364275 0.328256 0)
(0.121508 0.30923 0)
(0.0236413 -0.0790376 0)
(0.071136 -0.0797667 0)
(0.119485 -0.0819855 0)
(0.16917 -0.0843995 0)
(0.220891 -0.0890184 0)
(0.275377 -0.0939918 0)
(0.33336 -0.101337 0)
(0.396175 -0.110763 0)
(0.464665 -0.121819 0)
(0.54133 -0.13906 0)
(0.62786 -0.155938 0)
(0.72708 -0.190735 0)
(0.842472 -0.232133 0)
(0.970754 -0.240091 0)
(1.11006 -0.21643 0)
(1.26062 -0.201452 0)
(1.36774 -0.153852 0)
(1.3028 0.0685475 0)
(1.04084 0.406419 0)
(0.752883 0.556255 0)
(0.536369 0.487685 0)
(0.333044 0.436162 0)
(0.112985 0.420048 0)
(0.0233928 -0.101266 0)
(0.0703831 -0.102192 0)
(0.118189 -0.105003 0)
(0.167273 -0.10806 0)
(0.218296 -0.113914 0)
(0.271955 -0.120205 0)
(0.328882 -0.129429 0)
(0.39039 -0.141425 0)
(0.457163 -0.155082 0)
(0.531413 -0.177118 0)
(0.614876 -0.198218 0)
(0.709329 -0.239984 0)
(0.816849 -0.28823 0)
(0.936901 -0.300283 0)
(1.07668 -0.286796 0)
(1.23086 -0.274378 0)
(1.29504 -0.161333 0)
(1.14205 0.179101 0)
(0.861918 0.552057 0)
(0.647144 0.648205 0)
(0.498005 0.56854 0)
(0.326528 0.532435 0)
(0.114944 0.527764 0)
(0.0230895 -0.123233 0)
(0.0694662 -0.124349 0)
(0.116612 -0.127719 0)
(0.164971 -0.131394 0)
(0.215153 -0.138409 0)
(0.267818 -0.145958 0)
(0.323497 -0.156893 0)
(0.383432 -0.171354 0)
(0.448202 -0.187319 0)
(0.519515 -0.213673 0)
(0.599175 -0.238753 0)
(0.688106 -0.286115 0)
(0.786779 -0.339545 0)
(0.897715 -0.358128 0)
(1.02923 -0.356646 0)
(1.16796 -0.342057 0)
(1.17675 -0.127726 0)
(0.955245 0.322506 0)
(0.693906 0.664553 0)
(0.550241 0.705106 0)
(0.442268 0.633149 0)
(0.293248 0.61929 0)
(0.103052 0.630787 0)
(0.022725 -0.144884 0)
(0.0683649 -0.146184 0)
(0.114716 -0.15007 0)
(0.162204 -0.15434 0)
(0.211367 -0.162413 0)
(0.262818 -0.171158 0)
(0.316996 -0.18361 0)
(0.374988 -0.200368 0)
(0.43734 -0.218382 0)
(0.505123 -0.248346 0)
(0.580206 -0.277211 0)
(0.66286 -0.328747 0)
(0.752078 -0.385708 0)
(0.853953 -0.412512 0)
(0.974378 -0.420594 0)
(1.08578 -0.395354 0)
(1.03684 -0.0551934 0)
(0.787209 0.472641 0)
(0.582512 0.734665 0)
(0.507076 0.738541 0)
(0.438888 0.682969 0)
(0.316211 0.697873 0)
(0.118538 0.735509 0)
(0.0223067 -0.166166 0)
(0.0671031 -0.167642 0)
(0.112546 -0.171993 0)
(0.159049 -0.176836 0)
(0.207066 -0.185843 0)
(0.257165 -0.19572 0)
(0.309721 -0.20949 0)
(0.36561 -0.228308 0)
(0.425439 -0.248185 0)
(0.48969 -0.280941 0)
(0.560086 -0.313368 0)
(0.63627 -0.367656 0)
(0.716524 -0.42689 0)
(0.808285 -0.46276 0)
(0.910356 -0.474667 0)
(0.97242 -0.422363 0)
(0.860916 0.0477903 0)
(0.621298 0.60088 0)
(0.486643 0.766805 0)
(0.456572 0.756266 0)
(0.414234 0.71748 0)
(0.313698 0.768854 0)
(0.121321 0.848867 0)
(0.0151534 -0.0064456 0)
(0.0513953 -0.00897018 0)
(0.0840569 -0.00492274 0)
(0.103826 -0.00348622 0)
(0.114651 -0.00111816 0)
(0.117394 -4.84073e-05 0)
(0.115317 0.000931866 0)
(0.109749 0.00143664 0)
(0.102155 0.00179362 0)
(0.0932802 0.00198135 0)
(0.0837378 0.00207761 0)
(0.0738608 0.00212371 0)
(0.0638574 0.00213138 0)
(0.0538498 0.00212544 0)
(0.0438969 0.00210806 0)
(0.0340258 0.00209077 0)
(0.0242352 0.00207378 0)
(0.0145122 0.00206198 0)
(0.00483226 0.00205543 0)
(0.0141979 -0.0189304 0)
(0.0505699 -0.0273723 0)
(0.084726 -0.0149422 0)
(0.104801 -0.0104148 0)
(0.115493 -0.00334174 0)
(0.118063 -8.44786e-05 0)
(0.115756 0.00283284 0)
(0.110021 0.00434361 0)
(0.102311 0.00539658 0)
(0.0933689 0.00595679 0)
(0.0837793 0.00624024 0)
(0.0738736 0.00637593 0)
(0.0638529 0.00639662 0)
(0.0538369 0.00637742 0)
(0.0438812 0.00632434 0)
(0.0340108 0.00627187 0)
(0.0242232 0.00622047 0)
(0.0145045 0.00618495 0)
(0.0048296 0.00616525 0)
(0.015665 -0.0316329 0)
(0.0547074 -0.0467479 0)
(0.090207 -0.0251951 0)
(0.10981 -0.0170393 0)
(0.119253 -0.00528149 0)
(0.120661 0.00016371 0)
(0.117432 0.00493961 0)
(0.111045 0.00739301 0)
(0.102916 0.00908457 0)
(0.0937101 0.00998837 0)
(0.0839572 0.0104364 0)
(0.0739534 0.0106486 0)
(0.0638759 0.0106729 0)
(0.053829 0.0106351 0)
(0.0438588 0.0105424 0)
(0.0339848 0.0104524 0)
(0.0242005 0.010365 0)
(0.0144894 0.0103051 0)
(0.00482437 0.0102718 0)
(0.0121693 -0.0434724 0)
(0.051285 -0.0681536 0)
(0.0919803 -0.0361995 0)
(0.112949 -0.0232924 0)
(0.121905 -0.00685425 0)
(0.122585 0.00084869 0)
(0.11865 0.00730189 0)
(0.11183 0.0106488 0)
(0.103359 0.0128896 0)
(0.0939533 0.0141006 0)
(0.0840635 0.0146795 0)
(0.073979 0.0149502 0)
(0.0638542 0.0149646 0)
(0.0537847 0.0149003 0)
(0.0438075 0.0147622 0)
(0.0339367 0.0146313 0)
(0.0241622 0.0145056 0)
(0.0144651 0.01442 0)
(0.00481601 0.0143724 0)
(0.0162609 -0.0555654 0)
(0.0618452 -0.0920884 0)
(0.104363 -0.04766 0)
(0.12337 -0.0288357 0)
(0.129423 -0.00769455 0)
(0.127556 0.002194 0)
(0.121826 0.0100674 0)
(0.113765 0.0142137 0)
(0.104488 0.0168739 0)
(0.09458 0.0183321 0)
(0.0843826 0.0189925 0)
(0.0741145 0.0192945 0)
(0.0638841 0.0192787 0)
(0.0537588 0.0191765 0)
(0.0437569 0.0189846 0)
(0.0338819 0.018808 0)
(0.0241157 0.0186409 0)
(0.0144345 0.0185277 0)
(0.00480536 0.0184649 0)
(0.00899607 -0.0663085 0)
(0.054788 -0.120213 0)
(0.108322 -0.0603921 0)
(0.12979 -0.0333202 0)
(0.13419 -0.007656 0)
(0.130811 0.00438705 0)
(0.123754 0.0133133 0)
(0.114948 0.0181431 0)
(0.105127 0.0210679 0)
(0.0949034 0.0227016 0)
(0.0845014 0.0233852 0)
(0.0741166 0.0236868 0)
(0.0638209 0.0236176 0)
(0.0536667 0.0234639 0)
(0.0436588 0.0232087 0)
(0.0337934 0.0229809 0)
(0.0240465 0.0227683 0)
(0.0143908 0.0226255 0)
(0.0047904 0.0225465 0)
(0.0297827 -0.0828032 0)
(0.0906629 -0.149092 0)
(0.133543 -0.0725234 0)
(0.146745 -0.0359364 0)
(0.145273 -0.00628504 0)
(0.137735 0.00765985 0)
(0.128011 0.0171784 0)
(0.117475 0.0225061 0)
(0.106583 0.025515 0)
(0.0956951 0.0272349 0)
(0.0848888 0.0278732 0)
(0.0742632 0.0281359 0)
(0.0638303 0.0279858 0)
(0.0536055 0.0277643 0)
(0.0435692 0.0274343 0)
(0.0337028 0.0271485 0)
(0.0239718 0.0268859 0)
(0.0143424 0.0267111 0)
(0.00477368 0.0266149 0)
(0.0724076 -0.126271 0)
(0.150446 -0.164715 0)
(0.161946 -0.080032 0)
(0.162434 -0.0342508 0)
(0.152632 -0.00317511 0)
(0.142148 0.0122162 0)
(0.1304 0.0217551 0)
(0.118816 0.0273388 0)
(0.107248 0.0302357 0)
(0.095976 0.0319403 0)
(0.0849372 0.0324599 0)
(0.0741849 0.0326426 0)
(0.0636871 0.0323823 0)
(0.0534398 0.0320759 0)
(0.0434075 0.031659 0)
(0.033563 0.0313081 0)
(0.023865 0.0309907 0)
(0.0142758 0.0307813 0)
(0.00475111 0.0306664 0)
(0.0216022 -0.198423 0)
(0.0649803 -0.20016 0)
(0.108902 -0.205103 0)
(0.15376 -0.210796 0)
(0.199889 -0.220946 0)
(0.247778 -0.232433 0)
(0.29773 -0.247828 0)
(0.350266 -0.269192 0)
(0.406048 -0.291649 0)
(0.46487 -0.32697 0)
(0.527851 -0.363917 0)
(0.59344 -0.419043 0)
(0.66162 -0.478459 0)
(0.736838 -0.52622 0)
(0.812695 -0.534294 0)
(0.806163 -0.384449 0)
(0.642027 0.227658 0)
(0.472211 0.704963 0)
(0.43237 0.766413 0)
(0.456256 0.746864 0)
(0.488503 0.714479 0)
(0.549034 0.758526 0)
(0.660563 0.838009 0)
(0.0204272 -0.240672 0)
(0.0614374 -0.24274 0)
(0.102836 -0.248289 0)
(0.144967 -0.255053 0)
(0.188013 -0.26633 0)
(0.232328 -0.279735 0)
(0.278104 -0.296755 0)
(0.325464 -0.320682 0)
(0.37496 -0.345988 0)
(0.42588 -0.382945 0)
(0.47865 -0.424298 0)
(0.531604 -0.477825 0)
(0.58378 -0.537154 0)
(0.635159 -0.59001 0)
(0.681888 -0.591434 0)
(0.618862 -0.25631 0)
(0.438725 0.445642 0)
(0.347782 0.749108 0)
(0.368162 0.741839 0)
(0.406779 0.708616 0)
(0.450448 0.676419 0)
(0.523419 0.662392 0)
(0.650972 0.693822 0)
(0.0191219 -0.280428 0)
(0.0575002 -0.282788 0)
(0.0961197 -0.288678 0)
(0.135264 -0.296363 0)
(0.174983 -0.308217 0)
(0.215508 -0.32313 0)
(0.256906 -0.340989 0)
(0.299063 -0.366431 0)
(0.342257 -0.393414 0)
(0.385621 -0.430294 0)
(0.428962 -0.473561 0)
(0.470672 -0.523721 0)
(0.509697 -0.582905 0)
(0.542316 -0.626765 0)
(0.566916 -0.623772 0)
(0.485809 -0.0783635 0)
(0.332039 0.603368 0)
(0.293062 0.721989 0)
(0.331621 0.709718 0)
(0.371161 0.662179 0)
(0.416754 0.633134 0)
(0.47353 0.575256 0)
(0.55515 0.570697 0)
(0.0177227 -0.317465 0)
(0.053277 -0.320069 0)
(0.0889443 -0.326071 0)
(0.124941 -0.334502 0)
(0.161218 -0.346471 0)
(0.197899 -0.362485 0)
(0.234953 -0.380498 0)
(0.272149 -0.40669 0)
(0.309449 -0.43407 0)
(0.34607 -0.470042 0)
(0.381396 -0.51289 0)
(0.41404 -0.559135 0)
(0.442926 -0.615639 0)
(0.464448 -0.64631 0)
(0.469672 -0.63171 0)
(0.379495 0.102228 0)
(0.260938 0.69654 0)
(0.251847 0.677145 0)
(0.288088 0.679379 0)
(0.322138 0.618549 0)
(0.360185 0.592694 0)
(0.397714 0.520903 0)
(0.445715 0.494757 0)
(0.0162542 -0.351619 0)
(0.0488446 -0.354416 0)
(0.0814461 -0.36035 0)
(0.114207 -0.36934 0)
(0.14701 -0.381074 0)
(0.179892 -0.397807 0)
(0.212745 -0.415448 0)
(0.245266 -0.44182 0)
(0.277174 -0.468509 0)
(0.307847 -0.503248 0)
(0.336396 -0.543894 0)
(0.361791 -0.586473 0)
(0.382981 -0.638366 0)
(0.397288 -0.657411 0)
(0.373322 -0.599568 0)
(0.270532 0.264353 0)
(0.196789 0.72773 0)
(0.214562 0.637235 0)
(0.248212 0.64904 0)
(0.280917 0.581789 0)
(0.313058 0.558906 0)
(0.340413 0.489472 0)
(0.366339 0.451879 0)
(0.0147881 -0.382823 0)
(0.044417 -0.385756 0)
(0.0739734 -0.391493 0)
(0.103539 -0.40085 0)
(0.132951 -0.412105 0)
(0.162179 -0.42921 0)
(0.191065 -0.446107 0)
(0.219268 -0.472203 0)
(0.246383 -0.497459 0)
(0.271942 -0.530824 0)
(0.294965 -0.56816 0)
(0.314791 -0.607664 0)
(0.330422 -0.65371 0)
(0.340125 -0.664046 0)
(0.285471 -0.512073 0)
(0.173701 0.392696 0)
(0.141453 0.70594 0)
(0.176 0.60644 0)
(0.206088 0.615771 0)
(0.235799 0.552321 0)
(0.261835 0.5299 0)
(0.284183 0.468519 0)
(0.302465 0.428396 0)
(0.0132886 -0.411047 0)
(0.0398953 -0.414061 0)
(0.0663816 -0.419522 0)
(0.0927751 -0.429071 0)
(0.118896 -0.439706 0)
(0.144661 -0.456889 0)
(0.169884 -0.472819 0)
(0.194207 -0.498291 0)
(0.217166 -0.521706 0)
(0.238422 -0.553636 0)
(0.256995 -0.587161 0)
(0.272498 -0.624176 0)
(0.283977 -0.663741 0)
(0.29005 -0.667781 0)
(0.218347 -0.379863 0)
(0.111124 0.480701 0)
(0.106423 0.655084 0)
(0.145259 0.583536 0)
(0.172417 0.581137 0)
(0.199905 0.52946 0)
(0.221816 0.504569 0)
(0.240282 0.452827 0)
(0.252561 0.413372 0)
(0.0118724 -0.436339 0)
(0.0356206 -0.439387 0)
(0.059201 -0.444525 0)
(0.0825899 -0.454111 0)
(0.105602 -0.464056 0)
(0.128118 -0.481072 0)
(0.14994 -0.495927 0)
(0.170728 -0.520529 0)
(0.190024 -0.541944 0)
(0.207608 -0.57244 0)
(0.222562 -0.602059 0)
(0.23474 -0.637103 0)
(0.243298 -0.670027 0)
(0.246916 -0.669215 0)
(0.172407 -0.230326 0)
(0.0779917 0.533895 0)
(0.0842513 0.600331 0)
(0.117266 0.56607 0)
(0.140392 0.548063 0)
(0.163912 0.511265 0)
(0.182082 0.482479 0)
(0.198017 0.440339 0)
(0.208729 0.402753 0)
(0.0104077 -0.458736 0)
(0.031215 -0.461778 0)
(0.0518544 -0.466584 0)
(0.072275 -0.47609 0)
(0.0923074 -0.485346 0)
(0.111804 -0.502014 0)
(0.130558 -0.515772 0)
(0.148269 -0.539384 0)
(0.164497 -0.558801 0)
(0.179086 -0.587924 0)
(0.191198 -0.613783 0)
(0.200822 -0.647294 0)
(0.207271 -0.673855 0)
(0.20928 -0.669095 0)
(0.138862 -0.0838625 0)
(0.0582354 0.563412 0)
(0.0683313 0.554379 0)
(0.0943454 0.552691 0)
(0.113661 0.518784 0)
(0.133882 0.496578 0)
(0.149378 0.463328 0)
(0.162876 0.429907 0)
(0.171382 0.393872 0)
(0.00910317 -0.478349 0)
(0.0272814 -0.481355 0)
(0.0452594 -0.485827 0)
(0.0629553 -0.495163 0)
(0.0802147 -0.503759 0)
(0.0968677 -0.519939 0)
(0.112716 -0.532629 0)
(0.127544 -0.555235 0)
(0.140951 -0.57274 0)
(0.152863 -0.600624 0)
(0.162572 -0.623019 0)
(0.170162 -0.655361 0)
(0.175212 -0.676224 0)
(0.175765 -0.667451 0)
(0.11147 0.0506486 0)
(0.043463 0.578327 0)
(0.0537237 0.519007 0)
(0.0736466 0.541891 0)
(0.0893231 0.494415 0)
(0.105469 0.484396 0)
(0.118307 0.447033 0)
(0.12983 0.421054 0)
(0.137732 0.386235 0)
(0.00770967 -0.495249 0)
(0.023101 -0.498199 0)
(0.0383184 -0.502351 0)
(0.0532801 -0.511467 0)
(0.067849 -0.51945 0)
(0.0818472 -0.53506 0)
(0.0950895 -0.546752 0)
(0.107421 -0.568414 0)
(0.118472 -0.584147 0)
(0.128227 -0.610997 0)
(0.136091 -0.630311 0)
(0.142143 -0.661782 0)
(0.146262 -0.677889 0)
(0.145143 -0.663502 0)
(0.0881206 0.169243 0)
(0.0304642 0.586065 0)
(0.037812 0.493576 0)
(0.0524008 0.532636 0)
(0.0652238 0.475027 0)
(0.078943 0.473768 0)
(0.0902574 0.433387 0)
(0.100417 0.412908 0)
(0.107724 0.379096 0)
(0.00653271 -0.509566 0)
(0.0195561 -0.512446 0)
(0.0323891 -0.516302 0)
(0.0449279 -0.525161 0)
(0.0570363 -0.532573 0)
(0.0685609 -0.547593 0)
(0.0793448 -0.558371 0)
(0.089303 -0.579201 0)
(0.0981064 -0.593318 0)
(0.105808 -0.619374 0)
(0.111901 -0.635964 0)
(0.116494 -0.66683 0)
(0.119952 -0.679377 0)
(0.11415 -0.653519 0)
(0.0612381 0.27023 0)
(0.0157501 0.58877 0)
(0.0232295 0.475972 0)
(0.0343935 0.524358 0)
(0.0443614 0.460401 0)
(0.0548124 0.464103 0)
(0.0642448 0.422201 0)
(0.0728806 0.405204 0)
(0.0798047 0.372499 0)
(0.00525939 -0.52142 0)
(0.015747 -0.524226 0)
(0.0260872 -0.527816 0)
(0.0361927 -0.536409 0)
(0.0459558 -0.54331 0)
(0.0552552 -0.557789 0)
(0.0639377 -0.567743 0)
(0.0719229 -0.587865 0)
(0.0788718 -0.600488 0)
(0.0848223 -0.625926 0)
(0.0892443 -0.639981 0)
(0.0922051 -0.670406 0)
(0.0955689 -0.681698 0)
(0.0810217 -0.629442 0)
(0.0275322 0.353455 0)
(-0.00585739 0.584842 0)
(0.000982316 0.465512 0)
(0.0100434 0.514493 0)
(0.0198335 0.45041 0)
(0.0290207 0.454358 0)
(0.038345 0.413096 0)
(0.0465764 0.397358 0)
(0.0538412 0.366086 0)
(0.00416379 -0.530892 0)
(0.0124738 -0.533649 0)
(0.020696 -0.537052 0)
(0.028732 -0.54541 0)
(0.0364567 -0.551889 0)
(0.0437502 -0.565889 0)
(0.0504471 -0.575102 0)
(0.0564951 -0.594612 0)
(0.0615853 -0.605843 0)
(0.065725 -0.630715 0)
(0.0682724 -0.642199 0)
(0.0691801 -0.672077 0)
(0.0720872 -0.685539 0)
(0.0476442 -0.585378 0)
(-0.00214254 0.413448 0)
(-0.0156888 0.572036 0)
(-0.00791002 0.463629 0)
(-0.00447768 0.503823 0)
(0.00165243 0.445082 0)
(0.00722608 0.444853 0)
(0.0146125 0.405808 0)
(0.0217291 0.389222 0)
(0.0289651 0.359648 0)
(0.00311753 -0.538211 0)
(0.00930014 -0.540898 0)
(0.0153243 -0.544124 0)
(0.0211163 -0.552238 0)
(0.0266137 -0.558352 0)
(0.0317551 -0.571926 0)
(0.0364439 -0.580511 0)
(0.0406574 -0.599519 0)
(0.044157 -0.609571 0)
(0.0468448 -0.63385 0)
(0.0480762 -0.642862 0)
(0.0481796 -0.67091 0)
(0.0486739 -0.687884 0)
(0.00209939 -0.510771 0)
(-0.0573472 0.4488 0)
(-0.0503216 0.543245 0)
(-0.0347912 0.468996 0)
(-0.0322643 0.492472 0)
(-0.0252434 0.443219 0)
(-0.0193557 0.4352 0)
(-0.0110031 0.399644 0)
(-0.00330771 0.380501 0)
(0.00493423 0.352815 0)
(0.00195669 -0.543312 0)
(0.00585726 -0.545933 0)
(0.00969729 -0.549004 0)
(0.0134415 -0.556943 0)
(0.0170767 -0.562827 0)
(0.0205319 -0.576093 0)
(0.0237028 -0.584245 0)
(0.0265729 -0.602906 0)
(0.0290659 -0.612209 0)
(0.031256 -0.636116 0)
(0.0329415 -0.643529 0)
(0.0335516 -0.669448 0)
(0.0212904 -0.675159 0)
(-0.0129072 -0.441369 0)
(-0.0260808 0.452487 0)
(-0.0194024 0.525787 0)
(-0.0315241 0.483033 0)
(-0.0425192 0.486953 0)
(-0.0449763 0.444156 0)
(-0.0427895 0.426151 0)
(-0.0360495 0.393526 0)
(-0.0281481 0.370945 0)
(-0.0191532 0.345047 0)
(0.00124986 -0.546588 0)
(0.00371167 -0.549162 0)
(0.00607781 -0.552132 0)
(0.00825775 -0.559905 0)
(0.0101991 -0.565629 0)
(0.0119052 -0.578675 0)
(0.0133618 -0.586559 0)
(0.0147349 -0.605179 0)
(0.016182 -0.614313 0)
(0.018752 -0.639377 0)
(0.0237738 -0.647878 0)
(0.0403513 -0.684101 0)
(0.0415119 -0.649605 0)
(0.0283576 -0.418271 0)
(0.0302345 0.440848 0)
(-0.00342928 0.564556 0)
(-0.0518691 0.505146 0)
(-0.0679659 0.492077 0)
(-0.0731309 0.446698 0)
(-0.0704016 0.418672 0)
(-0.0627858 0.386579 0)
(-0.053091 0.360208 0)
(-0.0421799 0.335778 0)
(0.000646189 -0.55114 0)
(0.00193951 -0.553684 0)
(0.00320571 -0.556576 0)
(0.00434121 -0.564136 0)
(0.0052673 -0.569655 0)
(0.00596676 -0.582477 0)
(0.00648057 -0.590183 0)
(0.00705366 -0.608988 0)
(0.00855155 -0.618971 0)
(0.0139108 -0.648223 0)
(0.0355207 -0.671351 0)
(0.0997924 -0.747586 0)
(0.15146 -0.642324 0)
(0.138902 -0.399534 0)
(0.125341 0.434227 0)
(0.0575374 0.673191 0)
(-0.0559637 0.559306 0)
(-0.103315 0.501703 0)
(-0.110799 0.449793 0)
(-0.106658 0.408676 0)
(-0.0945591 0.376761 0)
(-0.0811804 0.346835 0)
(-0.067201 0.324134 0)
(-0.000929429 -0.553476 0)
(-0.0032275 -0.555583 0)
(-0.00634639 -0.558065 0)
(-0.0104371 -0.564936 0)
(-0.0156732 -0.56979 0)
(-0.0221391 -0.581809 0)
(-0.0299235 -0.58879 0)
(-0.0374004 -0.608643 0)
(-0.0429617 -0.620369 0)
(-0.0383693 -0.661827 0)
(-0.0230147 -0.699626 0)
(0.0336089 -0.844841 0)
(0.164089 -0.73077 0)
(0.149168 -0.284145 0)
(-0.0202651 0.503031 0)
(-0.114555 0.767381 0)
(-0.156924 0.621813 0)
(-0.169802 0.499749 0)
(-0.158569 0.447985 0)
(-0.143516 0.391195 0)
(-0.123695 0.362159 0)
(-0.105379 0.32958 0)
(-0.087749 0.309617 0)
(-0.0136476 -0.538853 0)
(-0.04082 -0.540642 0)
(-0.0682986 -0.542309 0)
(-0.0970934 -0.547695 0)
(-0.127511 -0.55125 0)
(-0.160203 -0.561046 0)
(-0.195369 -0.566436 0)
(-0.233556 -0.58515 0)
(-0.274554 -0.597113 0)
(-0.319541 -0.644529 0)
(-0.377069 -0.674576 0)
(-0.476769 -0.826629 0)
(-0.598537 -0.757976 0)
(-0.711183 -0.129008 0)
(-0.733865 0.540971 0)
(-0.591853 0.681521 0)
(-0.418668 0.576186 0)
(-0.31392 0.453034 0)
(-0.248082 0.417232 0)
(-0.201226 0.359721 0)
(-0.165701 0.338001 0)
(-0.137331 0.306811 0)
(-0.113742 0.290955 0)
(-0.0138731 -0.511193 0)
(-0.0420261 -0.512697 0)
(-0.0709924 -0.513524 0)
(-0.10155 -0.516826 0)
(-0.13427 -0.518659 0)
(-0.170193 -0.524672 0)
(-0.21 -0.527454 0)
(-0.256148 -0.539364 0)
(-0.311531 -0.546022 0)
(-0.385957 -0.575592 0)
(-0.484045 -0.587092 0)
(-0.652805 -0.644259 0)
(-0.90497 -0.564466 0)
(-1.02913 -0.0844774 0)
(-0.884089 0.373464 0)
(-0.638984 0.459907 0)
(-0.455313 0.43909 0)
(-0.342375 0.371313 0)
(-0.269208 0.359226 0)
(-0.217412 0.318563 0)
(-0.179531 0.305373 0)
(-0.149477 0.280713 0)
(-0.125192 0.268931 0)
(-0.014048 -0.483127 0)
(-0.0425691 -0.483794 0)
(-0.0718399 -0.483887 0)
(-0.102261 -0.485168 0)
(-0.134309 -0.485214 0)
(-0.168805 -0.487331 0)
(-0.206633 -0.486756 0)
(-0.249705 -0.490376 0)
(-0.300764 -0.488013 0)
(-0.366398 -0.492809 0)
(-0.455469 -0.481736 0)
(-0.577083 -0.457724 0)
(-0.70487 -0.369063 0)
(-0.769444 -0.0901624 0)
(-0.716227 0.179866 0)
(-0.586275 0.276496 0)
(-0.463297 0.314257 0)
(-0.371246 0.29009 0)
(-0.301955 0.297251 0)
(-0.248076 0.274316 0)
(-0.20608 0.26933 0)
(-0.172279 0.252571 0)
(-0.144621 0.24486 0)
(-0.0142667 -0.454665 0)
(-0.0431303 -0.454573 0)
(-0.0727943 -0.453867 0)
(-0.104005 -0.453235 0)
(-0.137328 -0.451435 0)
(-0.173796 -0.449776 0)
(-0.214138 -0.445734 0)
(-0.260105 -0.441894 0)
(-0.31235 -0.432653 0)
(-0.373835 -0.420386 0)
(-0.443789 -0.394304 0)
(-0.522791 -0.343493 0)
(-0.607103 -0.270086 0)
(-0.642012 -0.0891356 0)
(-0.595446 0.0785377 0)
(-0.511802 0.163116 0)
(-0.426723 0.218498 0)
(-0.353268 0.219481 0)
(-0.294529 0.239163 0)
(-0.246143 0.229607 0)
(-0.206917 0.232395 0)
(-0.174622 0.223068 0)
(-0.147934 0.219736 0)
(-0.0138026 -0.42645 0)
(-0.0416328 -0.4258 0)
(-0.0699726 -0.424335 0)
(-0.0992355 -0.421979 0)
(-0.129762 -0.418509 0)
(-0.162178 -0.413461 0)
(-0.196969 -0.406524 0)
(-0.235336 -0.396331 0)
(-0.278014 -0.382797 0)
(-0.326375 -0.359822 0)
(-0.379592 -0.331055 0)
(-0.432299 -0.274344 0)
(-0.477116 -0.209432 0)
(-0.498877 -0.0928233 0)
(-0.483405 0.0198657 0)
(-0.440133 0.094212 0)
(-0.385572 0.147034 0)
(-0.332615 0.163875 0)
(-0.286372 0.189242 0)
(-0.245264 0.18957 0)
(-0.210445 0.198003 0)
(-0.180466 0.194863 0)
(-0.154867 0.195382 0)
(-0.0136105 -0.398894 0)
(-0.0410555 -0.397793 0)
(-0.0690558 -0.395708 0)
(-0.0980761 -0.392019 0)
(-0.128418 -0.387283 0)
(-0.160564 -0.379789 0)
(-0.194626 -0.370984 0)
(-0.230967 -0.356773 0)
(-0.269296 -0.340926 0)
(-0.309358 -0.312808 0)
(-0.350308 -0.283411 0)
(-0.388573 -0.230541 0)
(-0.420548 -0.176041 0)
(-0.432753 -0.0920701 0)
(-0.417933 -0.0113368 0)
(-0.386201 0.0500207 0)
(-0.346137 0.0961072 0)
(-0.306069 0.121293 0)
(-0.268463 0.14754 0)
(-0.233716 0.155023 0)
(-0.203279 0.166955 0)
(-0.176253 0.16861 0)
(-0.152752 0.17228 0)
(-0.0126384 -0.372509 0)
(-0.0380394 -0.371057 0)
(-0.0637478 -0.368456 0)
(-0.09001 -0.363702 0)
(-0.117005 -0.357966 0)
(-0.145008 -0.348645 0)
(-0.174174 -0.338573 0)
(-0.204679 -0.321989 0)
(-0.236432 -0.305263 0)
(-0.268562 -0.275903 0)
(-0.299818 -0.247734 0)
(-0.326758 -0.200673 0)
(-0.346208 -0.154216 0)
(-0.355389 -0.0923989 0)
(-0.350175 -0.0311457 0)
(-0.332281 0.0199455 0)
(-0.306684 0.0601804 0)
(-0.278356 0.0884674 0)
(-0.249391 0.113448 0)
(-0.221301 0.125951 0)
(-0.195614 0.139612 0)
(-0.171988 0.14504 0)
(-0.150907 0.151036 0)
(-0.0121841 -0.347557 0)
(-0.0366587 -0.345874 0)
(-0.061402 -0.342925 0)
(-0.0866023 -0.337502 0)
(-0.112354 -0.331144 0)
(-0.138739 -0.320795 0)
(-0.165683 -0.31002 0)
(-0.19301 -0.292409 0)
(-0.220458 -0.275333 0)
(-0.246963 -0.246894 0)
(-0.271729 -0.22043 0)
(-0.292746 -0.17977 0)
(-0.307965 -0.140269 0)
(-0.314144 -0.090906 0)
(-0.309081 -0.0429691 0)
(-0.295147 -0.00022453 0)
(-0.275334 0.0347045 0)
(-0.252911 0.062929 0)
(-0.229324 0.0861603 0)
(-0.206132 0.101691 0)
(-0.184202 0.116007 0)
(-0.163635 0.124223 0)
(-0.144907 0.131837 0)
(-0.011063 -0.324189 0)
(-0.0332372 -0.32235 0)
(-0.0555459 -0.319152 0)
(-0.078064 -0.313309 0)
(-0.100847 -0.306551 0)
(-0.123883 -0.29571 0)
(-0.147149 -0.284633 0)
(-0.170355 -0.267 0)
(-0.193177 -0.250208 0)
(-0.214669 -0.223772 0)
(-0.233993 -0.199232 0)
(-0.249797 -0.163954 0)
(-0.26055 -0.129978 0)
(-0.265631 -0.0898781 0)
(-0.263754 -0.0509727 0)
(-0.25536 -0.0146651 0)
(-0.242308 0.0161083 0)
(-0.226291 0.0428858 0)
(-0.208447 0.0645574 0)
(-0.190094 0.0815332 0)
(-0.172004 0.0959371 0)
(-0.154568 0.106092 0)
(-0.138279 0.114768 0)
(-0.0103771 -0.302638 0)
(-0.0311533 -0.300728 0)
(-0.0519977 -0.297397 0)
(-0.0729205 -0.291397 0)
(-0.0939171 -0.284455 0)
(-0.114882 -0.273575 0)
(-0.135714 -0.262442 0)
(-0.156059 -0.245413 0)
(-0.175655 -0.229156 0)
(-0.193804 -0.204976 0)
(-0.209937 -0.182387 0)
(-0.223059 -0.151721 0)
(-0.232063 -0.12235 0)
(-0.236056 -0.0883842 0)
(-0.234402 -0.0560146 0)
(-0.227836 -0.0246613 0)
(-0.217436 0.00253023 0)
(-0.204434 0.0272937 0)
(-0.18978 0.0474836 0)
(-0.174511 0.0648097 0)
(-0.159163 0.0790496 0)
(-0.144196 0.0904076 0)
(-0.129964 0.0997729 0)
(-0.00930328 -0.282855 0)
(-0.0279043 -0.280929 0)
(-0.0465109 -0.27754 0)
(-0.0650831 -0.271554 0)
(-0.0836 -0.26458 0)
(-0.101924 -0.253957 0)
(-0.119949 -0.243001 0)
(-0.13734 -0.226922 0)
(-0.15381 -0.211394 0)
(-0.168763 -0.189464 0)
(-0.181652 -0.168727 0)
(-0.191922 -0.141868 0)
(-0.198892 -0.116147 0)
(-0.202383 -0.0870641 0)
(-0.201978 -0.0594041 0)
(-0.197862 -0.0320095 0)
(-0.190709 -0.00776525 0)
(-0.181214 0.0149748 0)
(-0.170091 0.0338921 0)
(-0.158054 0.0509532 0)
(-0.145583 0.0649424 0)
(-0.133114 0.0769362 0)
(-0.120976 0.0867381 0)
(-0.00849408 -0.264965 0)
(-0.0254592 -0.263068 0)
(-0.042383 -0.259686 0)
(-0.0591919 -0.253843 0)
(-0.0758366 -0.246946 0)
(-0.0921591 -0.236764 0)
(-0.108043 -0.226109 0)
(-0.123196 -0.211102 0)
(-0.137398 -0.196382 0)
(-0.150237 -0.176538 0)
(-0.161347 -0.15753 0)
(-0.170237 -0.133806 0)
(-0.176355 -0.111052 0)
(-0.179399 -0.085589 0)
(-0.179175 -0.0615119 0)
(-0.175981 -0.0372497 0)
(-0.170256 -0.0154696 0)
(-0.162539 0.00537806 0)
(-0.15337 0.023092 0)
(-0.143318 0.0395495 0)
(-0.13277 0.0532068 0)
(-0.122115 0.065428 0)
(-0.111612 0.0754893 0)
(-0.00752675 -0.248861 0)
(-0.0225469 -0.24702 0)
(-0.0374994 -0.243691 0)
(-0.0522953 -0.238068 0)
(-0.0668751 -0.231334 0)
(-0.0810824 -0.221688 0)
(-0.0948003 -0.211429 0)
(-0.107766 -0.197517 0)
(-0.119767 -0.183627 0)
(-0.130459 -0.16564 0)
(-0.13951 -0.148162 0)
(-0.146664 -0.127046 0)
(-0.151617 -0.106684 0)
(-0.154305 -0.084195 0)
(-0.154587 -0.0628475 0)
(-0.152572 -0.0411508 0)
(-0.148523 -0.0213932 0)
(-0.142771 -0.00223659 0)
(-0.13573 0.014413 0)
(-0.127786 0.0301386 0)
(-0.11926 0.0434447 0)
(-0.110468 0.0556422 0)
(-0.10164 0.0658451 0)
(-0.00669286 -0.234568 0)
(-0.0200396 -0.232799 0)
(-0.0333001 -0.229552 0)
(-0.0463788 -0.224187 0)
(-0.059208 -0.217663 0)
(-0.0716439 -0.208577 0)
(-0.0835796 -0.198753 0)
(-0.094803 -0.185879 0)
(-0.105152 -0.172799 0)
(-0.114385 -0.15644 0)
(-0.122278 -0.14033 0)
(-0.128579 -0.121354 0)
(-0.133018 -0.102935 0)
(-0.135473 -0.0827733 0)
(-0.135876 -0.0635801 0)
(-0.13437 -0.0439582 0)
(-0.131155 -0.0258875 0)
(-0.126507 -0.00819528 0)
(-0.120727 0.00748439 0)
(-0.114125 0.0224454 0)
(-0.106965 0.0353709 0)
(-0.0995135 0.0473877 0)
(-0.0919607 0.0576344 0)
(-0.00583763 -0.221972 0)
(-0.0174716 -0.220284 0)
(-0.0290105 -0.217139 0)
(-0.0403589 -0.212047 0)
(-0.051448 -0.205761 0)
(-0.0621465 -0.197224 0)
(-0.0723539 -0.187847 0)
(-0.0818892 -0.175918 0)
(-0.0906046 -0.163597 0)
(-0.0982952 -0.148631 0)
(-0.104774 -0.133692 0)
(-0.10991 -0.116496 0)
(-0.11356 -0.0996628 0)
(-0.115695 -0.0814326 0)
(-0.116266 -0.0639414 0)
(-0.115342 -0.0460396 0)
(-0.113044 -0.0293482 0)
(-0.109548 -0.0129199 0)
(-0.105079 0.00190739 0)
(-0.0998614 0.0161409 0)
(-0.0941036 0.0286906 0)
(-0.0880111 0.0404531 0)
(-0.0817478 0.0506813 0)
(-0.00502503 -0.211053 0)
(-0.0150381 -0.209443 0)
(-0.0249633 -0.206404 0)
(-0.0347159 -0.201571 0)
(-0.0442303 -0.195526 0)
(-0.0533939 -0.187494 0)
(-0.0621177 -0.178548 0)
(-0.0702579 -0.16745 0)
(-0.077704 -0.15582 0)
(-0.0843066 -0.14204 0)
(-0.08993 -0.128117 0)
(-0.0944389 -0.112376 0)
(-0.0977012 -0.0968347 0)
(-0.0996613 -0.080145 0)
(-0.100292 -0.0640206 0)
(-0.0996674 -0.0475173 0)
(-0.0978872 -0.0319702 0)
(-0.0951035 -0.0166102 0)
(-0.0914843 -0.00253192 0)
(-0.087209 0.0110378 0)
(-0.0824455 0.0232176 0)
(-0.0773644 0.0346942 0)
(-0.0721012 0.0448539 0)
(-0.00427339 -0.201706 0)
(-0.012783 -0.200171 0)
(-0.021201 -0.197237 0)
(-0.0294482 -0.192644 0)
(-0.0374636 -0.186831 0)
(-0.0451507 -0.17925 0)
(-0.0524332 -0.170702 0)
(-0.0591927 -0.160318 0)
(-0.0653333 -0.149295 0)
(-0.0707353 -0.136498 0)
(-0.0752967 -0.123421 0)
(-0.0789431 -0.108874 0)
(-0.0816019 -0.0943847 0)
(-0.0832566 -0.0789614 0)
(-0.0838909 -0.0639324 0)
(-0.0835464 -0.0485798 0)
(-0.0822854 -0.0339646 0)
(-0.0802072 -0.0195029 0)
(-0.0774335 -0.00606527 0)
(-0.0740962 0.00691903 0)
(-0.0703239 0.0187562 0)
(-0.066247 0.0299498 0)
(-0.0619768 0.0400154 0)
(-0.00350194 -0.19389 0)
(-0.010479 -0.192419 0)
(-0.0173896 -0.18958 0)
(-0.0241718 -0.185193 0)
(-0.0307735 -0.179589 0)
(-0.0371153 -0.17239 0)
(-0.0431319 -0.164193 0)
(-0.0487312 -0.154403 0)
(-0.0538395 -0.143902 0)
(-0.0583642 -0.131913 0)
(-0.0622266 -0.119539 0)
(-0.0653513 -0.10595 0)
(-0.067671 -0.0923044 0)
(-0.0691583 -0.0778833 0)
(-0.0698003 -0.0637276 0)
(-0.0696342 -0.0492976 0)
(-0.0687121 -0.035441 0)
(-0.0671176 -0.0217183 0)
(-0.064944 -0.00882289 0)
(-0.0622962 0.00366043 0)
(-0.0592753 0.0151865 0)
(-0.0559865 0.0261155 0)
(-0.0525185 0.0360714 0)
(-0.00282209 -0.187533 0)
(-0.00843962 -0.186116 0)
(-0.0139895 -0.183358 0)
(-0.0194178 -0.179141 0)
(-0.0246808 -0.173714 0)
(-0.0297164 -0.166828 0)
(-0.0344735 -0.158925 0)
(-0.0388816 -0.149611 0)
(-0.042883 -0.139536 0)
(-0.0464099 -0.128185 0)
(-0.049407 -0.116372 0)
(-0.0518309 -0.103539 0)
(-0.0536453 -0.0905592 0)
(-0.0548399 -0.0769324 0)
(-0.055407 -0.0634629 0)
(-0.0553689 -0.0497674 0)
(-0.0547566 -0.0365133 0)
(-0.0536236 -0.0233875 0)
(-0.0520336 -0.010937 0)
(-0.0500598 0.0011288 0)
(-0.0477755 0.0123855 0)
(-0.0452591 0.0230813 0)
(-0.0425807 0.0329275 0)
(-0.00208461 -0.1826 0)
(-0.00624583 -0.181218 0)
(-0.0103839 -0.178517 0)
(-0.0144611 -0.174427 0)
(-0.0184406 -0.169137 0)
(-0.0222725 -0.162491 0)
(-0.0259154 -0.154818 0)
(-0.029316 -0.145868 0)
(-0.0324301 -0.136126 0)
(-0.0352052 -0.12526 0)
(-0.0375967 -0.11388 0)
(-0.039561 -0.10162 0)
(-0.0410623 -0.0891454 0)
(-0.0420833 -0.0761187 0)
(-0.0426157 -0.0631709 0)
(-0.0426772 -0.0500357 0)
(-0.0422924 -0.0372472 0)
(-0.0415033 -0.0245854 0)
(-0.0403577 -0.0124888 0)
(-0.0389137 -0.000755021 0)
(-0.037228 0.0102788 0)
(-0.0353569 0.020778 0)
(-0.0333493 0.0305207 0)