/*--------------------------------*- C++ -*----------------------------------*\
| =========                 |                                                 |
| \\      /  F ield         | OpenFOAM: The Open Source CFD Toolbox           |
|  \\    /   O peration     | Version:  2012                                  |
|   \\  /    A nd           | Website:  www.openfoam.com                      |
|    \\/     M anipulation  |                                                 |
\*---------------------------------------------------------------------------*/
FoamFile
{
    version     2.0;
    format      ascii;
    class       volScalarField;
    location    "0.07";
    object      volumeFraction1;
}
// * * * * * * * * * * * * * * * * * * * * * * * * * * * * * * * * * * * * * //

dimensions      [0 0 0 0 0 0 0];


internalField   nonuniform List<scalar> 
2268
(
1
1
1
1
1
1
1
1
1
1
1
1
1
1
1
0.892786
0.295789
0.00650769
1.24778e-06
5.39062e-13
4.83679e-15
4.39446e-16
1.91384e-17
1
1
1
1
1
1
1
1
1
1
1
1
1
1
0.97564
0.612882
0.100556
0.00322168
1.60369e-06
1.18436e-12
6.45099e-15
5.42726e-16
1.91455e-17
1
1
1
1
1
1
1
1
1
1
1
1
1
1
0.880461
0.312952
0.0228291
0.000467683
1.15269e-06
6.46617e-12
3.44691e-14
2.15855e-15
5.51485e-17
1
1
1
1
1
1
1
1
1
1
1
1
1
1
0.713432
0.116552
0.00319195
2.79255e-05
1.53322e-07
3.02568e-11
4.71466e-13
2.125e-14
4.07792e-16
1
1
1
1
1
1
1
1
1
1
1
1
1
0.984193
0.493723
0.033437
0.000292217
8.15108e-07
9.35953e-09
4.76621e-11
1.62279e-12
4.89228e-14
7.58692e-16
1
1
1
1
1
1
1
1
1
1
1
1
1
0.920494
0.304775
0.0109938
2.57009e-05
3.04519e-08
4.71507e-10
1.89986e-11
8.64911e-13
2.76408e-14
4.50944e-16
1
1
1
1
1
1
1
1
1
1
1
1
1
0.833874
0.173925
0.00293841
1.92258e-06
2.10876e-09
4.15837e-11
3.70296e-12
2.10224e-13
8.15756e-15
1.67242e-16
1
1
1
1
1
1
1
1
1
1
1
1
1
0.73524
0.0927626
0.000613818
7.68438e-08
1.88701e-10
8.91121e-12
7.52773e-13
4.42772e-14
1.91495e-15
4.55159e-17
1.86357e-39
7.64144e-40
7.80415e-42
7.39146e-44
5.45462e-46
3.55611e-48
2.2307e-50
1.30271e-52
6.92629e-55
3.28687e-57
1.36983e-59
4.93552e-62
1.51065e-64
3.84682e-67
7.92546e-70
1.26958e-72
1.4842e-75
1.12696e-78
8.353e-82
7.29253e-37
2.73797e-37
2.97974e-39
2.97208e-41
2.30366e-43
1.56588e-45
1.0219e-47
6.18283e-50
3.39334e-52
1.65811e-54
7.10079e-57
2.62466e-59
8.23026e-62
2.14467e-64
4.5171e-67
7.39077e-70
8.81805e-73
6.831e-76
2.58102e-79
1.40255e-34
4.54564e-35
5.3936e-37
5.73556e-39
4.74118e-41
3.44148e-43
2.37194e-45
1.5015e-47
8.56558e-50
4.33005e-52
1.91167e-54
7.26522e-57
2.33744e-59
6.23886e-62
1.34401e-64
2.24653e-67
2.73546e-70
2.16069e-73
8.31791e-77
1.67906e-32
4.62769e-33
5.95997e-35
6.78953e-37
5.98675e-39
4.62593e-41
3.35413e-43
2.22039e-45
1.3166e-47
6.89148e-50
3.13991e-52
1.22843e-54
4.06005e-57
1.11135e-59
2.45179e-62
4.19182e-65
5.2152e-68
4.20522e-71
1.65126e-74
1.51519e-30
3.17271e-31
4.6024e-33
5.71821e-35
5.52944e-37
4.69713e-39
3.66938e-41
2.57907e-43
1.60644e-45
8.76548e-48
4.13973e-50
1.6717e-52
5.68425e-55
1.59669e-57
3.60731e-60
6.30539e-63
8.00915e-66
6.58588e-69
2.63467e-72
1.04028e-28
1.54673e-29
2.44752e-31
3.31185e-33
3.46546e-35
3.1894e-37
2.65151e-39
1.96563e-41
1.28051e-43
7.26766e-46
3.55393e-48
1.48094e-50
5.18181e-53
1.49451e-55
3.46044e-58
6.18974e-61
8.03526e-64
6.74542e-67
2.7523e-70
6.38988e-27
5.52967e-28
9.91415e-30
1.48135e-31
1.75269e-33
1.81885e-35
1.66133e-37
1.32708e-39
9.1885e-42
5.48623e-44
2.80072e-46
1.21126e-48
4.37861e-51
1.30005e-53
3.09005e-56
5.66099e-59
7.51285e-62
6.43798e-65
2.67818e-68
3.07006e-25
1.42979e-26
2.58141e-28
4.16913e-30
5.46864e-32
6.2988e-34
6.23648e-36
5.32794e-38
3.90111e-40
2.44366e-42
1.30028e-44
5.83195e-47
2.17734e-49
6.65454e-52
1.62365e-54
3.0466e-57
4.13345e-60
3.61558e-63
1.53334e-66
1
1
1
1
1
1
1
1
1
1
1
1
1
0.581444
0.0329715
6.48762e-05
1.68451e-09
1.22912e-11
1.14224e-12
9.20611e-14
5.87426e-15
3.25275e-16
1.58266e-17
1
1
1
1
1
1
1
1
1
1
1
1
0.972616
0.374922
0.00958255
4.56154e-06
4.53226e-11
6.90017e-13
8.18397e-14
6.86563e-15
4.70981e-16
2.96784e-17
1.92666e-18
1
1
1
1
1
1
1
1
1
1
1
1
0.905563
0.241405
0.00302414
3.34386e-07
2.11992e-12
5.01583e-14
5.87788e-15
4.96015e-16
3.63428e-17
2.4635e-18
1.82147e-19
1
1
1
1
1
1
1
1
1
1
1
1
0.831771
0.151092
0.000913709
2.39601e-08
1.61625e-13
6.61297e-15
5.79454e-16
4.67383e-17
3.66558e-18
2.691e-19
2.08976e-20
1
1
1
1
1
1
1
1
1
1
1
1
0.753212
0.0894703
0.000250912
1.57784e-09
1.86393e-14
1.14217e-15
1.00411e-16
8.65587e-18
7.15057e-19
5.35192e-20
3.84269e-21
1
1
1
1
1
1
1
1
1
1
1
1
0.673317
0.0494184
6.2115e-05
9.11367e-11
3.64268e-15
3.52589e-16
3.37982e-17
2.83312e-18
2.1006e-19
1.38492e-20
8.40961e-22
1
1
1
1
1
1
1
1
1
1
1
1
0.593698
0.0253555
1.46225e-05
5.9354e-12
1.6504e-15
1.85251e-16
1.53766e-17
1.08784e-18
6.65762e-20
3.65016e-21
1.82112e-22
1
1
1
1
1
1
1
1
1
1
1
1
0.515932
0.0130291
4.11775e-06
8.01193e-13
1.15915e-15
1.06266e-16
6.82163e-18
3.83368e-19
1.87416e-20
8.37177e-22
3.42177e-23
1
1
1
1
1
1
1
1
1
1
1
1
0.441792
0.00801364
1.38132e-06
2.4376e-13
8.42523e-16
5.56997e-17
2.64783e-18
1.15663e-19
4.47534e-21
1.62168e-22
5.42198e-24
1
1
1
1
1
1
1
1
1
1
1
1
0.374378
0.00482694
4.42904e-07
9.40809e-14
5.36677e-16
2.39408e-17
8.24531e-19
2.75704e-20
8.401e-22
2.47282e-23
6.82503e-25
1
1
1
1
1
1
1
1
1
1
1
1
0.312431
0.00279647
1.312e-07
3.46096e-14
2.51518e-16
7.17851e-18
1.77521e-19
4.6521e-21
1.15068e-22
2.83214e-24
6.62169e-26
1
1
1
1
1
1
1
1
1
1
1
1
0.254989
0.0015377
3.24588e-08
8.10302e-15
6.89063e-17
1.36507e-18
2.58751e-20
5.5441e-22
1.15006e-23
2.43541e-25
4.94473e-27
1
1
1
1
1
1
1
1
1
1
1
1
0.201686
0.000799371
5.71704e-09
8.22341e-20
7.42454e-18
1.51289e-19
2.43106e-21
4.60497e-23
8.50459e-25
1.61129e-26
2.92841e-28
1
1
1
1
1
1
1
1
1
1
1
1
0.154387
0.000390763
6.11415e-10
8.22341e-20
7.0023e-19
1.32424e-20
1.82452e-22
3.05187e-24
5.05834e-26
8.62977e-28
1.41651e-29
1
1
1
1
1
1
1
1
1
1
1
1
0.119365
0.00017979
1.11108e-19
2.86191e-18
1.13704e-19
1.39034e-21
1.44311e-23
1.94434e-25
2.68041e-27
3.91943e-29
5.64922e-31
0.999985
0.999985
0.999983
0.99998
0.999976
0.999966
0.999957
0.999932
0.999908
0.999821
0.999607
0.990922
0.105121
0.000107126
1.11112e-19
1.48655e-17
5.86932e-20
2.56528e-22
1.53186e-24
1.31958e-26
1.43647e-28
1.74218e-30
2.16976e-32
0.976267
0.97542
0.974102
0.971253
0.968256
0.962406
0.957342
0.946814
0.93931
0.918892
0.892785
0.791086
0.115035
0.000655599
1.10338e-19
1.10282e-19
1.10282e-19
1.24046e-22
2.14871e-25
1.0065e-27
7.92562e-30
7.64549e-32
8.09453e-34
0.434331
0.429631
0.422568
0.408822
0.395968
0.373981
0.357583
0.328152
0.310242
0.269045
0.226898
0.146291
0.100904
0.00715609
2.93391e-06
7.23637e-11
4.00103e-24
7.72022e-23
3.06835e-26
8.19442e-29
4.45178e-31
3.28272e-33
2.90061e-35
5.96674e-39
5.96681e-39
7.03272e-45
4.82731e-39
-1.88257e-41
9.28593e-36
-1.36866e-33
-1.2087e-32
-3.26207e-32
1.42777e-32
-1.49475e-29
-9.24149e-28
0.0123667
0.0219871
0.000493675
1.69055e-24
4.00238e-24
2.7638e-23
3.90775e-27
6.45062e-30
2.45679e-32
1.35357e-34
9.82693e-37
9.4936e-21
9.25841e-21
8.93909e-21
2.18544e-20
7.76986e-19
3.60543e-17
1.19998e-15
2.9844e-14
5.38415e-13
7.34073e-12
7.4347e-11
3.04922e-10
3.04754e-10
6.52278e-06
6.13082e-05
1.69013e-24
2.11777e-24
5.33268e-24
4.09948e-28
4.4521e-31
1.26106e-33
5.19384e-36
3.08411e-38
8.66264e-20
8.41101e-20
8.03176e-20
1.47372e-19
4.35888e-18
1.79546e-16
5.38437e-15
1.17007e-13
1.80877e-12
1.9838e-11
1.54098e-10
8.60652e-10
2.79731e-09
4.08836e-09
7.49649e-08
1.69033e-24
1.13169e-19
6.54592e-25
3.38404e-29
2.54311e-32
5.686e-35
1.79692e-37
8.76331e-40
1.613e-30
3.69566e-28
4.04932e-26
2.61979e-24
1.10461e-22
3.18498e-21
6.25687e-20
3.78994e-19
3.79019e-19
3.79002e-19
3.81794e-19
3.81821e-19
3.81794e-19
3.8458e-19
4.67976e-11
1.69013e-24
6.07609e-20
4.82737e-26
2.11196e-30
1.16172e-33
2.15971e-36
5.47477e-39
2.21449e-41
3.83184e-32
1.22724e-29
1.8244e-27
1.66488e-25
1.03284e-23
4.60204e-22
1.50726e-20
3.70715e-19
6.31329e-18
7.12857e-17
5.37051e-16
2.88313e-15
1.68545e-14
1.51201e-13
6.17669e-13
3.32763e-17
6.63124e-21
2.44801e-27
9.9308e-32
4.14703e-35
6.73091e-38
1.42908e-40
4.88888e-43
1.71699e-40
5.14961e-38
8.39354e-36
1.21258e-33
1.85168e-31
2.64548e-29
3.11094e-27
2.89652e-25
2.10294e-23
1.18802e-21
5.13273e-20
1.68633e-18
4.15637e-17
7.54938e-16
5.16983e-15
3.42928e-18
3.81428e-22
8.50984e-29
3.46115e-33
1.14095e-36
1.6895e-39
3.14242e-42
9.31714e-45
1.02413e-44
5.38061e-42
1.54822e-39
3.28703e-37
5.66331e-35
8.09372e-33
9.47668e-31
9.00841e-29
6.86149e-27
4.18072e-25
2.01426e-23
7.62241e-22
2.22591e-20
4.81444e-19
3.71601e-18
6.05971e-20
1.1914e-23
2.05059e-30
8.89306e-35
2.41523e-38
3.39208e-41
5.75252e-44
1.51941e-46
2.14393e-48
1.23509e-45
3.42784e-43
6.08582e-41
7.72487e-39
7.4476e-37
5.6382e-35
3.4321e-33
1.69966e-31
6.92567e-30
2.33653e-28
6.5836e-27
1.56657e-25
3.17646e-24
5.49985e-23
4.305e-22
2.02001e-25
3.37087e-32
1.65922e-36
3.91525e-40
5.40021e-43
8.69268e-46
2.10401e-48
1.02615e-51
6.46696e-49
1.95758e-46
3.78025e-44
5.20908e-42
5.44453e-40
4.47112e-38
2.95955e-36
1.60361e-34
7.20567e-33
2.71287e-31
8.61679e-30
2.32845e-28
5.36888e-27
1.0606e-25
9.22654e-25
1.85827e-27
3.76562e-34
2.23681e-38
4.86711e-42
6.80191e-45
1.08026e-47
2.46381e-50
2.13591e-56
1.39055e-53
4.3277e-51
8.54019e-49
1.19487e-46
1.25605e-44
1.02552e-42
6.63061e-41
3.43292e-39
1.42861e-37
4.77601e-36
1.2682e-34
2.61024e-33
3.94205e-32
3.83521e-31
1.87461e-30
8.50065e-30
2.7372e-36
2.14902e-40
4.61108e-44
6.75233e-47
1.1e-49
2.43059e-52
2.72916e-63
2.17137e-60
8.35011e-58
2.06376e-55
3.68009e-53
5.03786e-51
5.50752e-49
4.93517e-47
3.70158e-45
2.35659e-43
1.29278e-41
6.16877e-40
2.59505e-38
9.7186e-37
3.27897e-35
9.99806e-34
1.40002e-32
1.26158e-38
1.46416e-42
3.32914e-46
5.28961e-49
9.1772e-52
2.01866e-54
4.93348e-68
4.22307e-65
1.7448e-62
4.62391e-60
8.82456e-58
1.28845e-55
1.49604e-53
1.414e-51
1.10858e-49
7.28565e-48
4.06021e-46
1.92976e-44
7.88186e-43
2.78584e-41
8.58704e-40
2.3057e-38
2.42672e-37
3.30873e-41
6.88388e-45
1.81065e-48
3.26209e-51
6.26056e-54
1.41037e-56
3.9359e-79
2.69496e-76
1.03173e-73
2.92948e-71
6.68519e-69
1.25267e-66
1.95559e-64
2.5765e-62
2.91532e-60
2.87031e-58
2.49971e-56
1.94743e-54
1.37797e-52
8.96172e-51
5.4317e-49
3.09836e-47
1.66908e-45
4.26754e-44
2.18544e-47
7.39936e-51
1.58841e-53
3.50003e-56
8.30898e-59
3.79101e-84
4.43522e-81
2.5986e-78
1.00345e-75
2.85833e-73
6.37726e-71
1.16148e-68
1.77299e-66
2.32258e-64
2.65121e-62
2.68219e-60
2.43245e-58
2.00316e-56
1.51306e-54
1.05812e-52
6.88007e-51
4.07862e-49
1.02119e-47
4.38854e-50
2.23164e-53
6.08602e-56
1.6023e-58
4.13338e-61
3.35261e-91
2.06391e-88
6.05417e-86
1.16077e-83
1.76678e-81
2.57826e-79
4.05904e-77
6.61767e-75
1.02498e-72
1.44048e-70
1.82744e-68
2.10469e-66
2.23038e-64
2.20001e-62
2.04765e-60
1.81844e-58
1.55624e-56
1.28625e-54
5.14735e-53
4.91819e-56
1.83978e-58
6.03306e-61
1.74473e-63
4.96837e-97
4.24951e-94
2.08631e-91
8.24281e-89
2.85074e-86
8.52735e-84
2.18205e-81
4.7881e-79
9.14703e-77
1.54226e-74
2.33437e-72
3.2119e-70
4.07423e-68
4.81859e-66
5.37853e-64
5.72662e-62
5.85965e-60
5.7311e-58
2.62863e-56
7.688e-59
4.37031e-61
1.87102e-63
6.27209e-66
6.2311e-103
1.0139e-99
9.04234e-97
5.5947e-94
2.61987e-91
9.74291e-89
2.98502e-86
7.72782e-84
1.7296e-81
3.39862e-79
5.95748e-77
9.4211e-75
1.36274e-72
1.82589e-70
2.3059e-68
2.78957e-66
3.23427e-64
3.35961e-62
1.20039e-60
8.28948e-62
8.17763e-64
4.81277e-66
1.9346e-68
9.33508e-110
8.66864e-107
3.76028e-104
1.01625e-101
1.96065e-99
3.10413e-97
5.20952e-95
1.18469e-92
3.2998e-90
9.19093e-88
2.39028e-85
5.79449e-83
1.33949e-80
3.04367e-78
7.00909e-76
1.64168e-73
3.74238e-71
7.60582e-69
1.18639e-66
5.83282e-65
1.20232e-66
1.03224e-68
5.15543e-71
4.21348e-118
1.41702e-114
2.36201e-111
2.59368e-108
2.11447e-105
1.36585e-102
7.30781e-100
3.33573e-97
1.332e-94
4.73658e-92
1.52682e-89
4.52087e-87
1.24774e-84
3.24805e-82
8.08085e-80
1.94238e-77
4.55408e-75
1.04312e-72
2.31187e-70
2.43895e-68
1.39624e-69
1.86675e-71
1.19984e-73
8.53091e-124
3.64309e-120
7.68221e-117
1.06744e-113
1.10278e-110
9.04419e-108
6.15515e-105
3.58044e-102
1.82517e-99
8.30084e-97
3.42827e-94
1.3031e-91
4.62518e-89
1.55151e-86
4.98538e-84
1.5515e-81
4.71184e-79
1.38856e-76
3.87071e-74
4.90119e-72
1.28649e-72
2.87963e-74
2.4664e-76
1.97454e-130
1.1568e-126
3.33341e-123
6.29655e-120
8.78973e-117
9.67638e-114
8.77466e-111
6.74682e-108
4.50554e-105
2.65894e-102
1.41082e-99
6.82677e-97
3.06583e-94
1.30198e-91
5.35562e-89
2.17556e-86
8.71389e-84
3.27208e-81
1.02013e-78
2.06937e-76
9.58146e-76
3.85788e-77
4.54643e-79
2.6596e-139
2.5376e-135
1.1945e-131
3.70292e-128
8.5327e-125
1.56144e-121
2.37328e-118
3.08793e-115
3.5256e-112
3.59321e-109
3.32071e-106
2.81442e-103
2.21671e-100
1.64461e-97
1.16996e-94
8.08934e-92
5.41722e-89
3.36949e-86
1.7807e-83
6.62216e-81
5.8842e-79
4.58103e-80
7.63853e-82
3.38023e-148
4.9928e-144
4.07809e-140
2.2113e-136
8.97388e-133
2.90683e-129
7.84475e-126
1.81455e-122
3.68295e-119
6.67079e-116
1.09611e-112
1.65468e-109
2.3274e-106
3.08758e-103
3.91701e-100
4.79852e-97
5.69496e-94
6.47305e-91
6.90151e-88
6.7548e-85
3.10425e-82
4.95061e-83
1.19285e-84
3.19088e-160
7.37712e-156
8.26954e-152
6.14647e-148
7.18099e-144
6.95549e-140
5.54261e-136
3.75764e-132
2.22822e-128
1.18018e-124
5.69193e-121
2.53793e-117
1.06215e-113
4.22508e-110
1.61836e-106
6.03068e-103
2.20232e-99
7.88238e-96
2.74603e-92
9.20819e-89
1.48579e-85
5.00917e-86
1.76469e-87
1.00789e-18
7.00633e-20
3.88035e-21
2.18089e-22
1.86186e-19
2.19882e-20
2.43357e-21
2.53286e-22
1.82106e-20
2.42376e-21
2.95563e-22
3.24029e-23
2.17406e-21
3.02157e-22
3.69945e-23
3.89169e-24
3.54388e-22
4.35681e-23
4.711e-24
4.36793e-25
6.4504e-23
6.68761e-24
6.20585e-25
5.01692e-26
1.13633e-23
9.70233e-25
7.518e-26
5.17128e-27
1.76215e-24
1.25884e-25
8.25553e-27
4.87746e-28
2.30642e-25
1.38175e-26
7.69184e-28
3.91424e-29
2.43951e-26
1.24688e-27
5.99084e-29
2.66374e-30
2.03379e-27
9.04415e-29
3.81548e-30
1.50373e-31
1.3374e-28
5.28395e-30
1.99352e-31
7.07119e-33
7.13507e-30
2.54585e-31
8.69991e-33
2.80628e-34
3.14628e-31
1.02263e-32
3.18835e-34
9.41399e-36
1.15688e-32
3.4462e-34
9.85755e-36
2.68034e-37
3.86405e-34
1.02993e-35
2.64814e-37
6.51999e-39
1.23543e-35
2.93902e-37
6.77999e-39
1.51352e-40
3.74268e-37
7.93665e-39
1.64158e-40
3.33021e-42
1.06245e-38
2.00806e-40
3.72726e-42
6.89021e-44
2.77816e-40
4.69255e-42
7.8396e-44
1.32662e-45
6.59872e-42
9.99843e-44
1.51024e-45
2.35097e-47
1.40478e-43
1.919e-45
2.63831e-47
3.80047e-49
2.64567e-45
3.2788e-47
4.132e-49
5.54231e-51
4.36658e-47
4.94625e-49
5.76083e-51
7.24584e-53
6.27363e-49
6.54713e-51
7.10312e-53
8.43568e-55
7.79943e-51
7.56362e-53
7.70876e-55
8.70752e-57
8.36624e-53
7.60503e-55
7.34249e-57
7.94405e-59
7.72111e-55
6.63882e-57
6.12454e-59
6.39218e-61
6.12808e-57
5.03015e-59
4.47225e-61
4.53388e-63
4.1804e-59
3.30786e-61
2.85907e-63
2.83502e-65
2.45548e-61
1.89178e-63
1.60313e-65
1.56551e-67
1.24367e-63
9.42768e-66
7.90016e-68
7.65062e-70
5.45448e-66
4.11159e-68
3.4355e-70
3.32193e-72
2.0794e-68
1.57567e-70
1.32381e-72
1.28691e-74
6.9376e-71
5.34114e-73
4.54887e-75
4.4754e-77
2.03955e-73
1.6123e-75
1.40313e-77
1.40619e-79
5.33532e-76
4.37436e-78
3.91957e-80
4.02564e-82
1.25489e-78
1.0772e-80
1.00088e-82
1.05939e-84
2.68905e-81
2.43713e-83
2.36312e-85
2.59037e-87
5.32418e-84
5.13155e-86
5.22076e-88
5.9508e-90
9.90075e-87
1.02056e-88
1.09409e-90
1.30077e-92
1.75578e-89
1.94287e-91
2.20099e-93
2.73442e-95
8.51998e-24
2.36083e-25
5.03374e-27
8.74031e-29
1.24889e-30
1.52183e-32
1.57982e-34
1.4078e-36
1.07286e-38
6.98147e-41
3.85287e-43
1.7893e-45
6.90468e-48
2.17712e-50
5.46947e-53
1.05463e-55
1.46768e-58
1.31473e-61
5.70197e-65
1.53258e-23
5.11287e-25
1.21875e-26
2.16933e-28
3.03858e-30
3.49706e-32
3.35902e-34
2.73597e-36
1.89424e-38
1.1179e-40
5.59782e-43
2.36431e-45
8.32394e-48
2.40406e-50
5.55638e-53
9.90405e-56
1.27983e-58
1.06896e-61
4.33936e-65
1.74951e-24
5.28384e-26
1.22346e-27
2.28758e-29
3.43917e-31
4.25946e-33
4.36125e-35
3.73913e-37
2.69027e-39
1.63042e-41
8.29718e-44
3.52965e-46
1.24182e-48
3.55883e-51
8.10514e-54
1.41353e-56
1.77718e-59
1.43827e-62
5.63997e-66
2.09759e-25
6.34609e-27
1.47067e-28
2.69849e-30
3.94979e-32
4.71748e-34
4.6424e-36
3.81613e-38
2.63068e-40
1.52785e-42
7.45667e-45
3.0461e-47
1.03077e-49
2.84721e-52
6.26749e-55
1.06035e-57
1.29733e-60
1.02438e-63
3.92837e-67
2.09104e-26
5.76199e-28
1.25108e-29
2.19236e-31
3.10966e-33
3.63739e-35
3.522e-37
2.85267e-39
1.93604e-41
1.10462e-43
5.28366e-46
2.11023e-48
6.96776e-51
1.87507e-53
4.01734e-56
6.61173e-59
7.86858e-62
6.0447e-65
2.2564e-68
2.13376e-27
5.35187e-29
1.08319e-30
1.78978e-32
2.41502e-34
2.69666e-36
2.4999e-38
1.94129e-40
1.26465e-42
6.93256e-45
3.18862e-47
1.22566e-49
3.89825e-52
1.0114e-54
2.09111e-57
3.32433e-60
3.82535e-63
2.84431e-66
1.02874e-69
1.90504e-28
4.24326e-30
7.81133e-32
1.19493e-33
1.51408e-35
1.6038e-37
1.42081e-39
1.05934e-41
6.64628e-44
3.5145e-46
1.56079e-48
5.79464e-51
1.78054e-53
4.46342e-56
8.91838e-59
1.37053e-61
1.52522e-64
1.09739e-67
3.84374e-71
1.56453e-29
3.09329e-31
5.1539e-33
7.23692e-35
8.51668e-37
8.44722e-39
7.05442e-41
4.9824e-43
2.97305e-45
1.49988e-47
6.3715e-50
2.26754e-52
6.69146e-55
1.61351e-57
3.10572e-60
4.60366e-63
4.94803e-66
3.44228e-69
1.16716e-72
1.09402e-30
1.91649e-32
2.87713e-34
3.69316e-36
4.02144e-38
3.7264e-40
2.92966e-42
1.9595e-44
1.11235e-46
5.35693e-49
2.17822e-51
7.43557e-54
2.10835e-56
4.89178e-59
9.07198e-62
1.29714e-64
1.34637e-67
9.05517e-71
2.97162e-74
6.55867e-32
1.02515e-33
1.39139e-35
1.63294e-37
1.64197e-39
1.41657e-41
1.04406e-43
6.58402e-46
3.54069e-48
1.6218e-50
6.29299e-53
2.05568e-55
5.59118e-58
1.24689e-60
2.22655e-63
3.07011e-66
3.07733e-69
2.0012e-72
6.35744e-76
3.29697e-33
4.63103e-35
5.70635e-37
6.14122e-39
5.71236e-41
4.59484e-43
3.17797e-45
1.89122e-47
9.64148e-50
4.20264e-52
1.55678e-54
4.86764e-57
1.27009e-59
2.7224e-62
4.68034e-65
6.22235e-68
6.02165e-71
3.78532e-74
1.16382e-77
1.39645e-34
1.77813e-36
2.00146e-38
1.98266e-40
1.70962e-42
1.28322e-44
8.32925e-47
4.67564e-49
2.2582e-51
9.36072e-54
3.30805e-56
9.89526e-59
2.47588e-61
5.09938e-64
8.43888e-67
1.08162e-69
1.01056e-72
6.14077e-76
1.8273e-79
5.02687e-36
5.83788e-38
6.02815e-40
5.5153e-42
4.41863e-44
3.10012e-46
1.89053e-48
1.00182e-50
4.58581e-53
1.80811e-55
6.09615e-58
1.74435e-60
4.18451e-63
8.27961e-66
1.31863e-68
1.62909e-71
1.46927e-74
8.63001e-78
2.48554e-81
1.53472e-37
1.63233e-39
1.55224e-41
1.31603e-43
9.82181e-46
6.45409e-48
3.70316e-50
1.85447e-52
8.05171e-55
3.02152e-57
9.72397e-60
2.66283e-62
6.12709e-65
1.16519e-67
1.78674e-70
2.12883e-73
1.8544e-76
1.0535e-79
2.93867e-83
3.9829e-39
3.90195e-41
3.43192e-43
2.70739e-45
1.88786e-47
1.16482e-49
6.29968e-52
2.9857e-54
1.23095e-56
4.40054e-59
1.3528e-61
3.54764e-64
7.83455e-67
1.43283e-69
2.11683e-72
2.43401e-75
2.04935e-78
1.127e-81
3.04758e-85
8.66572e-41
7.88243e-43
6.44761e-45
4.75722e-47
3.11186e-49
1.80955e-51
9.25356e-54
4.16234e-56
1.63348e-58
5.57513e-61
1.64036e-63
4.12705e-66
8.76204e-69
1.54353e-71
2.20035e-74
2.44523e-77
1.99286e-80
1.06239e-83
2.789e-87
1.80797e-42
1.45384e-44
1.05559e-46
7.21318e-49
4.44314e-51
2.44467e-53
1.18567e-55
5.07565e-58
1.90037e-60
6.20508e-63
1.75059e-65
4.23268e-68
8.65298e-71
1.47053e-73
2.02577e-76
2.179e-79
1.72153e-82
8.90967e-86
2.27401e-89
3.59048e-44
2.56122e-46
1.65736e-48
1.02308e-50
5.69386e-53
2.86195e-55
1.3219e-57
5.40741e-60
1.93839e-62
6.07499e-65
1.64821e-67
3.84023e-70
7.57832e-73
1.24534e-75
1.66141e-78
1.73326e-81
1.33002e-84
6.6949e-88
1.66427e-91
6.7351e-46
4.27848e-48
2.47876e-50
1.3872e-52
7.00813e-55
3.22929e-57
1.36941e-59
5.17446e-62
1.75541e-64
5.29361e-67
1.3845e-69
3.11559e-72
5.94763e-75
9.46976e-78
1.22584e-80
1.24261e-83
9.27725e-87
4.5494e-90
1.10314e-93
1.18336e-47
6.72885e-50
3.50969e-52
1.78812e-54
8.24145e-57
3.49541e-59
1.36711e-61
4.79088e-64
1.51703e-66
4.28282e-69
1.05294e-71
2.27152e-74
4.2059e-77
6.50492e-80
8.18949e-83
8.08367e-86
5.88382e-89
2.81632e-92
6.67461e-96
1.92682e-49
9.87189e-52
4.66794e-54
2.17642e-56
9.20432e-59
3.60967e-61
1.30864e-63
4.27152e-66
1.26742e-68
3.3621e-71
7.79781e-74
1.59681e-76
2.8126e-79
4.15584e-82
5.01991e-85
4.81479e-88
3.42228e-91
1.6012e-94
3.71244e-98
2.88794e-51
1.34281e-53
5.80113e-56
2.48955e-58
9.72027e-61
3.54282e-63
1.19672e-65
3.65487e-68
1.02016e-70
2.55248e-73
5.60478e-76
1.09262e-78
1.83599e-81
2.59801e-84
3.01806e-87
2.79591e-90
1.92462e-93
8.75345e-97
1.98007e-100
3.93939e-53
1.67795e-55
6.68381e-58
2.6587e-60
9.6509e-63
3.28865e-65
1.04092e-67
2.9894e-70
7.88394e-73
1.86813e-75
3.89823e-78
7.2553e-81
1.16649e-83
1.58477e-86
1.77442e-89
1.5904e-92
1.0618e-95
4.69949e-99
1.03787e-102
4.86657e-55
1.91804e-57
7.11257e-60
2.64188e-62
8.98018e-65
2.87868e-67
8.58761e-70
2.33101e-72
5.83535e-75
1.31495e-77
2.61754e-80
4.66527e-83
7.19814e-86
9.41282e-89
1.01794e-91
8.84094e-95
5.73288e-98
2.47183e-101
5.33381e-105
5.40305e-57
1.99242e-59
6.94864e-62
2.43021e-64
7.79628e-67
2.36694e-69
6.69646e-72
1.72748e-74
4.1252e-77
8.87926e-80
1.69286e-82
2.89889e-85
4.30547e-88
5.43338e-91
5.68734e-94
4.79421e-97
3.02386e-100
1.27148e-103
2.68274e-107
5.37218e-59
1.8755e-61
6.2171e-64
2.06509e-66
6.30259e-69
1.82467e-71
4.9265e-74
1.21455e-76
2.78043e-79
5.74191e-82
1.05271e-84
1.7379e-87
2.49222e-90
3.04318e-93
3.09001e-96
2.53241e-99
1.55589e-102
6.38696e-106
1.31861e-109
4.76561e-61
1.59438e-63
5.07784e-66
1.61647e-68
4.73202e-71
1.31573e-73
3.41219e-76
8.0857e-79
1.78357e-81
3.54997e-84
6.28429e-87
1.0037e-89
1.39408e-92
1.65149e-95
1.63041e-98
1.30135e-101
7.79957e-105
3.1291e-108
6.32549e-112
3.76518e-63
1.22236e-65
3.78163e-68
1.16447e-70
3.29695e-73
8.86738e-76
2.22321e-78
5.09294e-81
1.08793e-83
2.09644e-86
3.59794e-89
5.57883e-92
7.52805e-95
8.67479e-98
8.34565e-101
6.49904e-104
3.80526e-107
1.49356e-110
2.95834e-114
2.64707e-65
8.44438e-68
2.56561e-70
7.71362e-73
2.1299e-75
5.58134e-78
1.36163e-80
3.03291e-83
6.30567e-86
1.18176e-88
1.97419e-91
2.98208e-94
3.92134e-97
4.40692e-100
4.14095e-103
3.1517e-106
1.80533e-109
6.93965e-113
1.34773e-116
1.65638e-67
5.25837e-70
1.58629e-72
4.70049e-75
1.27629e-77
3.28197e-80
7.8409e-83
1.70786e-85
3.47293e-88
6.35814e-91
1.03798e-93
1.53256e-96
1.9697e-99
2.16436e-102
1.9907e-105
1.48339e-108
8.32418e-112
3.13695e-115
5.97725e-119
9.23839e-70
2.95535e-72
8.9478e-75
2.63746e-77
7.09932e-80
1.80415e-82
4.24754e-85
9.09774e-88
1.81818e-90
3.26579e-93
5.23009e-96
7.57285e-99
9.54027e-102
1.02753e-104
9.27038e-108
6.77449e-111
3.72925e-114
1.3791e-117
2.57986e-121
4.60258e-72
1.50232e-74
4.61362e-77
1.36514e-79
3.67168e-82
9.28494e-85
2.16728e-87
4.58954e-90
9.05618e-93
1.60259e-95
2.52703e-98
3.59948e-101
4.45722e-104
4.7166e-107
4.18242e-110
3.00219e-113
1.6233e-116
5.89651e-120
1.08359e-123
2.05563e-74
6.92997e-77
2.18068e-79
6.53448e-82
1.7695e-84
4.48232e-87
1.04338e-89
2.19584e-92
4.2971e-95
7.52166e-98
1.17191e-100
1.64704e-103
2.00999e-106
2.09446e-109
1.82889e-112
1.29151e-115
6.86753e-119
2.45251e-122
4.42997e-126
8.26399e-77
2.91195e-79
9.48176e-82
2.90185e-84
7.96915e-87
2.03492e-89
4.74989e-92
9.98347e-95
1.94571e-97
3.38153e-100
5.22304e-103
7.2633e-106
8.75729e-109
9.00499e-112
7.75676e-115
5.39661e-118
2.82531e-121
9.928e-125
1.76365e-128
3.00764e-79
1.12032e-81
3.80973e-84
1.20035e-86
3.36572e-89
8.71508e-92
2.05044e-94
4.32389e-97
8.42548e-100
1.45898e-102
2.24089e-105
3.09152e-108
3.69107e-111
3.75282e-114
3.19408e-117
2.19232e-120
1.13124e-123
3.91455e-127
6.84253e-131
9.97032e-82
3.96851e-84
1.4216e-86
4.64569e-89
1.33838e-91
3.53362e-94
8.4197e-97
1.78889e-99
3.49777e-102
6.05429e-105
9.27293e-108
1.27221e-110
1.50731e-113
1.51805e-116
1.27854e-119
8.66833e-123
4.41288e-126
1.50487e-129
2.58959e-133
3.03413e-84
1.30325e-86
4.95651e-89
1.69136e-91
5.03478e-94
1.36212e-96
3.30104e-99
7.09322e-102
1.3962e-104
2.42266e-107
3.70957e-110
5.07217e-113
5.97482e-116
5.97028e-119
4.98247e-122
3.34051e-125
1.67927e-128
5.6473e-132
9.57102e-136
8.54575e-87
3.99641e-89
1.62503e-91
5.82513e-94
1.80069e-96
5.01391e-99
1.24051e-101
2.70492e-104
5.37518e-107
9.37393e-110
1.43812e-112
1.9635e-115
2.30346e-118
2.287e-121
1.89347e-124
1.25665e-127
6.24307e-131
2.0717e-134
3.45951e-138
2.24963e-89
1.15411e-91
5.0473e-94
1.91029e-96
6.15834e-99
1.7714e-101
4.48869e-104
9.96013e-107
2.00306e-109
3.51842e-112
5.41851e-115
7.39931e-118
8.65727e-121
8.55094e-124
7.03045e-127
4.62274e-130
2.27118e-133
7.44085e-137
1.22474e-140
5.59037e-92
3.1658e-94
1.4963e-96
6.00411e-99
2.02556e-101
6.03714e-104
1.57089e-106
3.55543e-109
7.25068e-112
1.28508e-114
1.98975e-117
2.72132e-120
3.17929e-123
3.12727e-126
2.5556e-129
1.6661e-132
8.10018e-136
2.62128e-139
4.25415e-143
1.32642e-94
8.32938e-97
4.2699e-99
1.82209e-101
6.44932e-104
1.99626e-106
5.34422e-109
1.23593e-111
2.55969e-114
4.58379e-117
7.14397e-120
9.7959e-123
1.14382e-125
1.12138e-128
9.11453e-132
5.89518e-135
2.83767e-138
9.07423e-142
1.44959e-145
3.03178e-97
2.11672e-99
1.17931e-101
5.36159e-104
1.99417e-106
6.41936e-109
1.77032e-111
4.18814e-114
8.81769e-117
1.59691e-119
2.50726e-122
3.44945e-125
4.02828e-128
3.9385e-131
3.18559e-134
2.04507e-137
9.75009e-141
3.08202e-144
8.08217e-148
)
;

boundaryField
{
    leftWall
    {
        type            zeroGradient;
    }
    rightWall
    {
        type            zeroGradient;
    }
    lowerWall
    {
        type            zeroGradient;
    }
    atmosphere
    {
        type            inletOutlet;
        inletValue      uniform 0;
        value           nonuniform List<scalar> 
46
(
0
0
0
0
0
0
0
0
0
0
0
0
0
0
0
0
0
0
0
0
1.48579e-85
5.00917e-86
1.76469e-87
1.75578e-89
1.94287e-91
2.20099e-93
2.73442e-95
3.03178e-97
2.11672e-99
1.17931e-101
5.36159e-104
1.99417e-106
6.41936e-109
1.77032e-111
4.18814e-114
8.81769e-117
1.59691e-119
2.50726e-122
3.44945e-125
4.02828e-128
3.9385e-131
3.18559e-134
2.04507e-137
9.75009e-141
3.08202e-144
8.08217e-148
)
;
    }
    defaultFaces
    {
        type            empty;
    }
}


// ************************************************************************* //
