/*--------------------------------*- C++ -*----------------------------------*\
| =========                 |                                                 |
| \\      /  F ield         | OpenFOAM: The Open Source CFD Toolbox           |
|  \\    /   O peration     | Version:  2012                                  |
|   \\  /    A nd           | Website:  www.openfoam.com                      |
|    \\/     M anipulation  |                                                 |
\*---------------------------------------------------------------------------*/
FoamFile
{
    version     2.0;
    format      ascii;
    class       volScalarField;
    location    "1";
    object      maxKappa;
}
// * * * * * * * * * * * * * * * * * * * * * * * * * * * * * * * * * * * * * //

dimensions      [0 0 0 0 0 0 0];


internalField   nonuniform List<scalar> 
160
(
0.002203710386
0.004289808668
0.006444426739
0.008571801976
0.01068660244
0.01280620055
0.01492254816
0.01703445689
0.01914498813
0.0212544409
0.02336353361
0.02547362323
0.0275859455
0.02970151615
0.03182148311
0.03394711113
0.03608071433
0.03822737953
0.0403893574
0.04256715435
0.04476260407
0.04697714355
0.04921157805
0.05146605106
0.05374018845
0.05603309349
0.05834338997
0.06066930649
0.06300873978
0.06535957477
0.06772012007
0.07008993238
0.07246591383
0.07484071044
0.07720469725
0.0795472409
0.08185644368
0.08412255888
0.08633840675
0.0884972687
0.09059352389
0.09262397227
0.09458791341
0.09648548687
0.09831844169
0.1000870883
0.1017931766
0.1034400552
0.105030858
0.1065687802
0.1080577827
0.109502576
0.1109087772
0.1122828501
0.1136319259
0.1149634505
0.1162849208
0.1176031051
0.1189234336
0.1202502499
0.1215925548
0.1229531678
0.1243456238
0.1257581562
0.1272091824
0.1286832151
0.1301996358
0.1317397395
0.1333153709
0.1349143301
0.1365222716
0.1381459377
0.1397441246
0.1413244836
0.1428488909
0.1442915512
0.1456804301
0.1469203101
0.148177867
0.1491431419
0.1501914886
0.1507622473
0.1509367229
0.1512171983
0.1512171983
0.1506145264
0.149985969
0.1495875707
0.1485565
0.1481441838
0.1471170497
0.146960576
0.1458540982
0.1456799415
0.1443799518
0.1436247832
0.1419972488
0.1406654578
0.1388863008
0.1375984845
0.1357835135
0.134185785
0.1320971697
0.1300331068
0.1275347236
0.1248474055
0.1217794053
0.1182947508
0.1144362807
0.1101231153
0.1052993657
0.09992003953
0.09422589039
0.08810759772
0.0814596356
0.07461996194
0.06824481494
0.06296306212
0.05882910214
0.05577376372
0.05369485494
0.05244120391
0.05179354752
0.05153915228
0.05161630865
0.05206407214
0.05296664631
0.05440515098
0.05641352999
0.05910133741
0.06241762211
0.06641382584
0.070944819
0.07594602137
0.08131812967
0.08647528605
0.09106015321
0.0941791323
0.09647874659
0.09710180294
0.09710180294
0.0969272724
0.09509101231
0.09340018854
0.08985278928
0.08607884828
0.08223428963
0.07561950847
0.07069287964
0.06347467566
0.05657802234
0.04828614833
0.04052239296
0.03416217591
0.02773966245
0.02308764
0.01820934306
0.01370349182
0.008893837917
0.004833340424
)
;

boundaryField
{
    sides
    {
        type            calculated;
        value           uniform 0;
    }
    empty1
    {
        type            empty;
    }
    empty2
    {
        type            empty;
    }
}


// ************************************************************************* //
