/*--------------------------------*- C++ -*----------------------------------*\
| =========                 |                                                 |
| \\      /  F ield         | OpenFOAM: The Open Source CFD Toolbox           |
|  \\    /   O peration     | Version:  2012                                  |
|   \\  /    A nd           | Website:  www.openfoam.com                      |
|    \\/     M anipulation  |                                                 |
\*---------------------------------------------------------------------------*/
FoamFile
{
    version     2.0;
    format      ascii;
    class       volScalarField;
    location    "1";
    object      p;
}
// * * * * * * * * * * * * * * * * * * * * * * * * * * * * * * * * * * * * * //

dimensions      [1 -1 -2 0 0 0 0];


internalField   nonuniform List<scalar> 
160
(
178177.5523
178193.5391
178209.1646
178234.7626
178271.0913
178315.7593
178368.2625
178428.7209
178496.3554
178570.3987
178650.2316
178735.1429
178824.3878
178917.2086
179012.9223
179110.8024
179210.1612
179310.0746
179409.4331
179507.6517
179604.3654
179699.0654
179791.4519
179881.3646
179968.7622
180053.7216
180136.4375
180217.2078
180296.4172
180374.5138
180451.9764
180529.2411
180606.7485
180685.3501
180766.6931
180852.228
180942.7118
181039.4186
181143.5772
181256.3273
181378.6732
181511.5338
181655.5195
181811.0705
181978.574
182157.8775
182348.9141
182551.4097
182764.9284
182988.9727
183222.946
183466.182
183717.9141
183977.2879
184243.3652
184515.1205
184791.4865
185071.3979
185353.9228
185638.2221
185923.508
186208.357
186492.2675
186774.115
187054.382
187331.2391
187605.9158
187875.8787
188144.0896
188406.9965
188669.0099
188926.8373
189187.5739
189446.5042
189715.0961
189984.7746
190271.7163
190558.4867
190870.1551
191179.4928
191529.0855
191835.0016
192540.398
192482.6364
193184.4123
193086.0765
194218.5833
194028.0943
195357.5299
195125.5167
196714.0383
196596.4315
198537.6032
198704.1496
201060.0236
201749.4318
204472.0528
206592.2317
212897.1565
216126.1008
224764.0882
230809.7681
243701.3239
254407.9251
273724.6746
291582.7368
319705.0616
346989.3488
388588.3387
429267.3236
477174.6971
534171.2504
602623.6077
673461.2887
764269.5496
859214.931
963222.6352
1075937.379
1196841.799
1317465.583
1447356.323
1580419.549
1702974.02
1835865.757
1963830.577
2087983.982
2216091.908
2342631.266
2459627.431
2555143.655
2671072.721
2755565.167
2876468.249
2955665.436
3068574.283
3117749.124
3212781.613
3239625.376
3326707.248
3326575.138
3379350.025
3374248.349
3429722.293
3414950.752
3471894.405
3458833.176
3508979.746
3471281.205
3508908.984
3481767.252
3513882.932
3496100.725
3511515.951
3514073.902
3518270.444
3520339.043
3521915.744
3522911.132
3524531.928
3526032.709
)
;

boundaryField
{
    sides
    {
        type            zeroGradient;
    }
    empty1
    {
        type            empty;
    }
    empty2
    {
        type            empty;
    }
}


// ************************************************************************* //
