/*--------------------------------*- C++ -*----------------------------------*\
| =========                 |                                                 |
| \\      /  F ield         | OpenFOAM: The Open Source CFD Toolbox           |
|  \\    /   O peration     | Version:  2012                                  |
|   \\  /    A nd           | Website:  www.openfoam.com                      |
|    \\/     M anipulation  |                                                 |
\*---------------------------------------------------------------------------*/
FoamFile
{
    version     2.0;
    format      ascii;
    class       volScalarField;
    location    "1";
    object      rho1;
}
// * * * * * * * * * * * * * * * * * * * * * * * * * * * * * * * * * * * * * //

dimensions      [1 -3 0 0 0 0 0];


internalField   nonuniform List<scalar> 
160
(
1033.101438
1033.101446
1033.101453
1033.101465
1033.101482
1033.101503
1033.101527
1033.101556
1033.101587
1033.101623
1033.101661
1033.101702
1033.101747
1033.101794
1033.101844
1033.101897
1033.101952
1033.102008
1033.102066
1033.102124
1033.102183
1033.102244
1033.102307
1033.102372
1033.102438
1033.102506
1033.102575
1033.102648
1033.102723
1033.102801
1033.102884
1033.102972
1033.103065
1033.103165
1033.103275
1033.10339
1033.103504
1033.103611
1033.103713
1033.103809
1033.103901
1033.103988
1033.104074
1033.104162
1033.104253
1033.104346
1033.104442
1033.104539
1033.104636
1033.104733
1033.104828
1033.104921
1033.105009
1033.105094
1033.105173
1033.105247
1033.105315
1033.105374
1033.105424
1033.105462
1033.105487
1033.105497
1033.105491
1033.105467
1033.105422
1033.105354
1033.105262
1033.105141
1033.104991
1033.104807
1033.104587
1033.104326
1033.104023
1033.103671
1033.10327
1033.102806
1033.102284
1033.101677
1033.100994
1033.100197
1033.099283
1033.09819
1033.096989
1033.095502
1033.093935
1033.092533
1033.09112
1033.089868
1033.088607
1033.087554
1033.086537
1033.085762
1033.08504
1033.084528
1033.084087
1033.083878
1033.083704
1033.084169
1033.085581
1033.086537
1033.088954
1033.091048
1033.095186
1033.099101
1033.10575
1033.112405
1033.122425
1033.132646
1033.147776
1033.163034
1033.18052
1033.201895
1033.227145
1033.253684
1033.287387
1033.322967
1033.36173
1033.40399
1033.449311
1033.494571
1033.54333
1033.593288
1033.639303
1033.689197
1033.737223
1033.783795
1033.831484
1033.878731
1033.921122
1033.956242
1033.996269
1034.026495
1034.065315
1034.092386
1034.123823
1034.138241
1034.157397
1034.161762
1034.17114
1034.163821
1034.15401
1034.142882
1034.127084
1034.110526
1034.08887
1034.070584
1034.042282
1034.013812
1033.980566
1033.950405
1033.91537
1033.881273
1033.847822
1033.823013
1033.806135
1033.794571
1033.787337
1033.783101
1033.781343
1033.780959
)
;

boundaryField
{
    sides
    {
        type            calculated;
        value           nonuniform List<scalar> 2(1033.780959 1033.101438);
    }
    empty1
    {
        type            empty;
    }
    empty2
    {
        type            empty;
    }
}


// ************************************************************************* //
