/*--------------------------------*- C++ -*----------------------------------*\
| =========                 |                                                 |
| \\      /  F ield         | OpenFOAM: The Open Source CFD Toolbox           |
|  \\    /   O peration     | Version:  2012                                  |
|   \\  /    A nd           | Website:  www.openfoam.com                      |
|    \\/     M anipulation  |                                                 |
\*---------------------------------------------------------------------------*/
FoamFile
{
    version     2.0;
    format      ascii;
    class       volScalarField;
    location    "1";
    object      rho2;
}
// * * * * * * * * * * * * * * * * * * * * * * * * * * * * * * * * * * * * * //

dimensions      [1 -3 0 0 0 0 0];


internalField   nonuniform List<scalar> 
160
(
2.450758936
2.450963929
2.45114245
2.451432473
2.451841297
2.452340241
2.452928097
2.453609609
2.454379016
2.455228544
2.456154193
2.457154936
2.458227579
2.45936811
2.460575667
2.461848682
2.463180653
2.46454946
2.465934758
2.467339879
2.468776577
2.470252079
2.471769287
2.473326832
2.474923491
2.476561659
2.478248303
2.479993595
2.481809576
2.483709822
2.485709744
2.487826835
2.490082051
2.492504823
2.495142569
2.497933535
2.500678137
2.503271129
2.505725026
2.508054621
2.510266495
2.512377491
2.514448932
2.516571571
2.518776436
2.521037322
2.523343597
2.525683878
2.528038394
2.530380567
2.532681293
2.53491411
2.537058259
2.53909842
2.541020838
2.542807585
2.544433162
2.545863752
2.547061201
2.547985502
2.54859744
2.548847688
2.548700914
2.548103181
2.547022872
2.545387339
2.543158928
2.540246962
2.536621111
2.532164989
2.526848274
2.520541061
2.513226303
2.504710205
2.495025304
2.483822207
2.471205957
2.456547966
2.440052337
2.420791453
2.398702197
2.372307046
2.343273864
2.307354957
2.269486056
2.23561804
2.201489269
2.171228079
2.140775096
2.115328739
2.090748755
2.072025128
2.054600033
2.042209774
2.031556691
2.026526321
2.022309193
2.033540907
2.067667939
2.090758313
2.149150503
2.199750998
2.29971643
2.394303482
2.554952803
2.715732388
2.957828838
3.204755473
3.570320259
3.938935586
4.361413483
4.877841594
5.487876189
6.129075
6.943338244
7.802966701
8.739489047
9.760511541
10.85547549
11.94897764
13.12699827
14.3340032
15.44574486
16.65118859
17.81151633
18.93670672
20.08889184
21.23037441
22.25455234
23.1030806
24.07013964
24.80040971
25.73830983
26.3923618
27.15186743
27.50022344
27.96302824
28.06849945
28.29506212
28.11823843
27.8812134
27.61234608
27.23066329
26.8306264
26.3074134
25.86560953
25.18182988
24.49399175
23.6907426
22.96204056
22.1155875
21.29180706
20.48360857
19.88421522
19.4764507
19.19705243
19.0222814
18.91992747
18.87747524
18.86819633
)
;

boundaryField
{
    sides
    {
        type            calculated;
        value           nonuniform List<scalar> 2(18.86819633 2.450758936);
    }
    empty1
    {
        type            empty;
    }
    empty2
    {
        type            empty;
    }
}


// ************************************************************************* //
