/*--------------------------------*- C++ -*----------------------------------*\
| =========                 |                                                 |
| \\      /  F ield         | OpenFOAM: The Open Source CFD Toolbox           |
|  \\    /   O peration     | Version:  2012                                  |
|   \\  /    A nd           | Website:  www.openfoam.com                      |
|    \\/     M anipulation  |                                                 |
\*---------------------------------------------------------------------------*/
FoamFile
{
    version     2.0;
    format      ascii;
    class       volScalarField;
    location    "1";
    object      T;
}
// * * * * * * * * * * * * * * * * * * * * * * * * * * * * * * * * * * * * * //

dimensions      [0 0 0 1 0 0 0];


internalField   nonuniform List<scalar> 
160
(
253.3205936
253.3221334
253.3258954
253.3323085
253.3416943
253.3536153
253.3674773
253.3829579
253.3995428
253.4169427
253.4346893
253.4518779
253.4677813
253.4817402
253.4928772
253.5003289
253.5037972
253.5042568
253.5022364
253.4965718
253.4855476
253.4677142
253.4423643
253.4094276
253.368987
253.3209223
253.2648128
253.200058
253.1259928
253.0418895
252.9468826
252.8398429
252.7193056
252.5835352
252.4301066
252.2673751
252.1165764
251.9900305
251.8880897
251.8107629
251.7587041
251.7314261
251.7235697
251.726618
251.7379778
251.7600322
251.7937196
251.8397631
251.8994959
251.9748403
252.0678298
252.1801378
252.3127337
252.4659309
252.6397798
252.8346349
253.0515578
253.2924536
253.5598608
253.8566537
254.1857301
254.5501677
254.9529597
255.3981697
255.8899003
256.4333048
257.0343293
257.6992695
258.4360417
259.2526056
260.1593916
261.1668079
262.2884187
263.5404079
264.9384791
266.5117712
268.2769726
270.2845056
272.5567789
275.1706002
278.2124145
281.7572206
286.2970809
290.666681
296.5942079
300.9341371
307.3918242
311.3703641
317.9634603
321.4062365
327.8322018
330.5968535
336.6926123
339.0195082
344.8378165
346.8791328
352.2933977
353.9803686
358.7626065
360.1815721
364.3998558
365.5937515
369.234016
370.2282398
373.2924185
374.1045062
376.6123665
377.2587742
379.2282592
379.7231327
381.2134789
381.5670995
382.6131918
382.8563059
383.527348
383.6720522
384.0243304
384.089575
384.1545668
384.1728182
384.174149
384.1696033
384.1645348
384.1614528
384.1680364
384.1853613
384.3703602
384.4717065
385.0956104
385.3572482
386.6564022
387.1416832
389.4015387
390.2070576
393.7812558
395.0236038
400.327208
402.1552102
409.6585617
412.2183603
422.3180173
425.7864527
438.8527655
443.4776486
459.8396985
465.9346429
485.5250919
493.7968701
516.0734687
528.3325399
553.6138045
572.1231454
597.318933
615.7728529
629.4156067
638.9517213
645.1110238
648.7842883
650.5424533
651.1395175
)
;

boundaryField
{
    sides
    {
        type            zeroGradient;
    }
    empty1
    {
        type            empty;
    }
    empty2
    {
        type            empty;
    }
}


// ************************************************************************* //
