/*--------------------------------*- C++ -*----------------------------------*\
| =========                 |                                                 |
| \\      /  F ield         | OpenFOAM: The Open Source CFD Toolbox           |
|  \\    /   O peration     | Version:  2012                                  |
|   \\  /    A nd           | Website:  www.openfoam.com                      |
|    \\/     M anipulation  |                                                 |
\*---------------------------------------------------------------------------*/
FoamFile
{
    version     2.0;
    format      ascii;
    class       volVectorField;
    location    "1";
    object      U;
}
// * * * * * * * * * * * * * * * * * * * * * * * * * * * * * * * * * * * * * //

dimensions      [0 1 -1 0 0 0 0];


internalField   nonuniform List<vector> 
160
(
(0.1986847001 0 0)
(0.5316179345 0 0)
(0.8917148829 0 0)
(1.24893915 0 0)
(1.601485557 0 0)
(1.956353474 0 0)
(2.312025675 0 0)
(2.667479935 0 0)
(3.023438623 0 0)
(3.38004258 0 0)
(3.737332546 0 0)
(4.095504795 0 0)
(4.454751021 0 0)
(4.815304148 0 0)
(5.177252743 0 0)
(5.540814694 0 0)
(5.906138177 0 0)
(6.273999084 0 0)
(6.645272116 0 0)
(7.019885515 0 0)
(7.39804495 0 0)
(7.78002608 0 0)
(8.165964066 0 0)
(8.555938338 0 0)
(8.949901532 0 0)
(9.347718382 0 0)
(9.749144301 0 0)
(10.15383614 0 0)
(10.561376 0 0)
(10.97129698 0 0)
(11.38311352 0 0)
(11.79652774 0 0)
(12.21124855 0 0)
(12.62654571 0 0)
(13.03970284 0 0)
(13.44959967 0 0)
(13.8555972 0 0)
(14.25592406 0 0)
(14.64934433 0 0)
(15.03455807 0 0)
(15.41044313 0 0)
(15.77611327 0 0)
(16.13077188 0 0)
(16.47389316 0 0)
(16.80531325 0 0)
(17.12514395 0 0)
(17.43361225 0 0)
(17.73095888 0 0)
(18.01788694 0 0)
(18.29485771 0 0)
(18.56255341 0 0)
(18.82173903 0 0)
(19.07327875 0 0)
(19.31814459 0 0)
(19.55742165 0 0)
(19.79230183 0 0)
(20.02408284 0 0)
(20.2540591 0 0)
(20.48343851 0 0)
(20.7130599 0 0)
(20.94420097 0 0)
(21.17763677 0 0)
(21.41663447 0 0)
(21.65783389 0 0)
(21.9086631 0 0)
(22.15829146 0 0)
(22.4243639 0 0)
(22.6836837 0 0)
(22.96689386 0 0)
(23.23613586 0 0)
(23.53462112 0 0)
(23.8132752 0 0)
(24.12150674 0 0)
(24.40485189 0 0)
(24.71700445 0 0)
(24.99219854 0 0)
(25.31032515 0 0)
(25.56199333 0 0)
(25.91431106 0 0)
(26.13252347 0 0)
(26.57239344 0 0)
(26.7062185 0 0)
(27.14757499 0 0)
(27.29577704 0 0)
(27.6434349 0 0)
(27.82615308 0 0)
(27.9605311 0 0)
(28.13581096 0 0)
(28.1737055 0 0)
(28.38687596 0 0)
(28.38758742 0 0)
(28.59761042 0 0)
(28.60764519 0 0)
(28.74051977 0 0)
(28.76494223 0 0)
(28.8652837 0 0)
(28.75287103 0 0)
(28.75987821 0 0)
(28.69448169 0 0)
(28.76725302 0 0)
(28.69526873 0 0)
(28.75646023 0 0)
(28.67570623 0 0)
(28.72325193 0 0)
(28.63933993 0 0)
(28.67472904 0 0)
(28.59155564 0 0)
(28.61148493 0 0)
(28.53359789 0 0)
(28.53848997 0 0)
(28.43397749 0 0)
(28.48511132 0 0)
(28.42721281 0 0)
(28.45520234 0 0)
(28.41310481 0 0)
(28.40303459 0 0)
(28.33515955 0 0)
(28.36670424 0 0)
(28.33189165 0 0)
(28.33995108 0 0)
(28.31063501 0 0)
(28.29096133 0 0)
(28.21230392 0 0)
(28.24012536 0 0)
(28.18424614 0 0)
(28.18680614 0 0)
(28.13676901 0 0)
(28.12235362 0 0)
(28.0832409 0 0)
(28.0478216 0 0)
(28.01090319 0 0)
(27.87758789 0 0)
(27.92952821 0 0)
(27.74378618 0 0)
(27.79799788 0 0)
(27.50995527 0 0)
(27.56579879 0 0)
(27.17483844 0 0)
(27.24604003 0 0)
(26.73696641 0 0)
(26.71731461 0 0)
(25.83464543 0 0)
(25.82297547 0 0)
(24.59827496 0 0)
(24.46741314 0 0)
(23.40005847 0 0)
(22.39116167 0 0)
(21.67374762 0 0)
(20.19481669 0 0)
(19.81354944 0 0)
(17.48771543 0 0)
(16.89444587 0 0)
(13.98351764 0 0)
(13.19290449 0 0)
(10.3984749 0 0)
(9.085206888 0 0)
(6.640881919 0 0)
(5.080509916 0 0)
(2.802496859 0 0)
(1.239593098 0 0)
)
;

boundaryField
{
    sides
    {
        type            fixedValue;
        value           uniform (0 0 0);
    }
    empty1
    {
        type            empty;
    }
    empty2
    {
        type            empty;
    }
}


// ************************************************************************* //
