/*--------------------------------*- C++ -*----------------------------------*\
| =========                 |                                                 |
| \\      /  F ield         | OpenFOAM: The Open Source CFD Toolbox           |
|  \\    /   O peration     | Version:  2012                                  |
|   \\  /    A nd           | Website:  www.openfoam.com                      |
|    \\/     M anipulation  |                                                 |
\*---------------------------------------------------------------------------*/
FoamFile
{
    version     2.0;
    format      ascii;
    class       volScalarField;
    location    "1";
    object      volumeFraction1;
}
// * * * * * * * * * * * * * * * * * * * * * * * * * * * * * * * * * * * * * //

dimensions      [0 0 0 0 0 0 0];


internalField   nonuniform List<scalar> 
160
(
1.166389312e-08
1.238413279e-08
1.379219275e-08
1.592993104e-08
1.881577333e-08
2.24816269e-08
2.698124746e-08
3.238840711e-08
3.880019917e-08
4.634403986e-08
5.518325653e-08
6.55217748e-08
7.761088725e-08
9.175672251e-08
1.083277165e-07
1.277628709e-07
1.505813105e-07
1.773921433e-07
2.089049816e-07
2.459420241e-07
2.894507475e-07
3.405168023e-07
4.003787238e-07
4.704434727e-07
5.523032055e-07
6.477537516e-07
7.588135968e-07
8.877443173e-07
1.037071966e-06
1.20960995e-06
1.40848359e-06
1.637157003e-06
1.899464343e-06
2.199642293e-06
2.542362928e-06
2.932794244e-06
3.376593928e-06
3.879947547e-06
4.449650609e-06
5.093147356e-06
5.818572037e-06
6.634810742e-06
7.551567786e-06
8.579446188e-06
9.7299593e-06
1.101569132e-05
1.245034211e-05
1.404881636e-05
1.582733304e-05
1.780356991e-05
1.999678458e-05
2.2427977e-05
2.512005375e-05
2.809804092e-05
3.138936324e-05
3.502410558e-05
3.903525765e-05
4.345916499e-05
4.833610775e-05
5.371077042e-05
5.963283496e-05
6.615672617e-05
7.334382273e-05
8.12643819e-05
8.999695639e-05
9.962892473e-05
0.0001102628061
0.0001220135336
0.0001350171501
0.0001494270679
0.0001654282462
0.0001832303241
0.0002030915524
0.0002253088797
0.0002502484921
0.0002783460926
0.000310133814
0.0003462528114
0.0003874367774
0.000434857474
0.0004893970471
0.0005528075796
0.0006278426485
0.0007150850217
0.0008203774461
0.0009474295175
0.001109311341
0.001310580412
0.00157221364
0.001905954254
0.002340185341
0.002909956713
0.003653505898
0.004642349765
0.005965007462
0.007713729834
0.01002475061
0.01299883409
0.0168405952
0.02176417005
0.02805426581
0.03598433939
0.04589904847
0.05812237162
0.07304678606
0.09102015921
0.1124359442
0.1375984688
0.1666921983
0.200046959
0.2378617845
0.2799487193
0.3265272587
0.377298229
0.4318291925
0.4853135738
0.5309064382
0.5678580366
0.5963676816
0.6168704208
0.6300241627
0.6372675102
0.6402812417
0.6407117032
0.6399592946
0.6372253531
0.6314138169
0.6214952649
0.6067526211
0.5865313734
0.5602669366
0.5277038668
0.4891296226
0.4444904862
0.3946805408
0.3405101783
0.2859886782
0.2387320415
0.1990037038
0.1645579855
0.1350355198
0.1093542739
0.08749092552
0.06921904468
0.0539972404
0.04062839525
0.03003815886
0.02054367773
0.01317781113
0.007591267983
0.003911939188
0.001750606108
0.0006835576984
0.0002288304858
6.566298562e-05
1.592035784e-05
3.143606267e-06
4.733547572e-07
4.83704738e-08
2.609602068e-09
)
;

boundaryField
{
    sides
    {
        type            zeroGradient;
    }
    empty1
    {
        type            empty;
    }
    empty2
    {
        type            empty;
    }
}


// ************************************************************************* //
