/*--------------------------------*- C++ -*----------------------------------*\
| =========                 |                                                 |
| \\      /  F ield         | OpenFOAM: The Open Source CFD Toolbox           |
|  \\    /   O peration     | Version:  3.0.1                                 |
|   \\  /    A nd           | Web:      www.OpenFOAM.org                      |
|    \\/     M anipulation  |                                                 |
\*---------------------------------------------------------------------------*/
FoamFile
{
    version     2.0;
    format      ascii;
    class       volScalarField;
    location    "0.18";
    object      T;
}
// * * * * * * * * * * * * * * * * * * * * * * * * * * * * * * * * * * * * * //

dimensions      [0 0 0 1 0 0 0];

internalField   nonuniform List<scalar> 
50
(
496.007
495.682
495.41
495.139
494.819
494.469
494.084
493.655
493.177
492.64
492.036
491.351
490.569
489.672
488.632
487.418
485.983
484.267
482.18
479.595
476.305
471.964
465.899
456.537
438.974
398.743
363.806
342.828
327.416
315.312
304.477
295.301
286.838
279.515
272.306
266.841
258.025
258.384
407.307
469.152
476.695
480.028
481.579
482.631
484.017
485.032
485.508
486.019
486.577
487.801
)
;

boundaryField
{
    inlet
    {
        type            totalTemperature;
        gamma           1.4;
        T0              uniform 500;
        value           uniform 496.003;
    }
    outlet
    {
        type            zeroGradient;
    }
    upperWall
    {
        type            zeroGradient;
    }
    lowerWall
    {
        type            zeroGradient;
    }
    frontAndBack
    {
        type            empty;
    }
}


// ************************************************************************* //
