/*--------------------------------*- C++ -*----------------------------------*\
| =========                 |                                                 |
| \\      /  F ield         | OpenFOAM: The Open Source CFD Toolbox           |
|  \\    /   O peration     | Version:  3.0.1                                 |
|   \\  /    A nd           | Web:      www.OpenFOAM.org                      |
|    \\/     M anipulation  |                                                 |
\*---------------------------------------------------------------------------*/
FoamFile
{
    version     2.0;
    format      ascii;
    class       volVectorField;
    location    "0.18";
    object      U;
}
// * * * * * * * * * * * * * * * * * * * * * * * * * * * * * * * * * * * * * //

dimensions      [0 1 -1 0 0 0 0];

internalField   nonuniform List<vector> 
50
(
(89.6238 -0.00155491 0)
(93.2142 -0.00155478 0)
(96.1059 -0.00155507 0)
(98.9141 -0.00155758 -9.91962e-15)
(102.123 -0.00155485 -1.01739e-14)
(105.512 -0.00154357 -1.05104e-14)
(109.121 -0.00156582 0)
(113.008 -0.00157681 0)
(117.193 -0.00150437 -1.15591e-14)
(121.712 -0.00156057 -1.19574e-14)
(126.612 -0.00164973 0)
(131.946 -0.001422 -1.28398e-14)
(137.778 -0.001578 0)
(144.185 -0.00174932 0)
(151.265 -0.00121216 -1.4425e-14)
(159.141 -0.0017814 0)
(167.969 -0.00165469 -1.57024e-14)
(177.957 -0.00111268 0)
(189.388 -0.0021348 0)
(202.663 -0.00252446 0)
(218.386 0.000143805 0)
(237.551 0.0295109 0)
(261.992 -0.0862977 0)
(295.789 -0.311446 0)
(350.489 1.6129 0)
(451.062 -0.000316457 0)
(522.963 -8.31515 0)
(562.112 2.17403 0)
(588.687 4.78096 0)
(609.03 3.26308 0)
(626.745 3.28431 0)
(641.448 -1.78699 0)
(654.35 -3.26122 0)
(665.438 -2.93678 9.32113e-15)
(676.338 -3.25499 0)
(684.462 0.349805 7.87509e-15)
(697.46 1.82744 0)
(696.595 1.98238 0)
(433.398 -5.36008 9.90193e-15)
(235.693 19.0969 0)
(218.32 -5.41129 1.21136e-14)
(207.161 -10.6915 1.13893e-14)
(197.686 -6.92798 0)
(190.372 1.44431 0)
(181.631 6.23434 1.02132e-14)
(173.751 4.68204 0)
(168.052 -0.218071 9.60262e-15)
(162.362 -3.06549 0)
(158.304 -1.00622 0)
(150.573 -0.179978 0)
)
;

boundaryField
{
    inlet
    {
        type            zeroGradient;
    }
    outlet
    {
        type            zeroGradient;
    }
    upperWall
    {
        type            slip;
    }
    lowerWall
    {
        type            slip;
    }
    frontAndBack
    {
        type            empty;
    }
}


// ************************************************************************* //
