/*--------------------------------*- C++ -*----------------------------------*\
| =========                 |                                                 |
| \\      /  F ield         | OpenFOAM: The Open Source CFD Toolbox           |
|  \\    /   O peration     | Version:  2012                                  |
|   \\  /    A nd           | Website:  www.openfoam.com                      |
|    \\/     M anipulation  |                                                 |
\*---------------------------------------------------------------------------*/
FoamFile
{
    version     2.0;
    format      ascii;
    class       volScalarField;
    location    "0.9";
    object      p;
}
// * * * * * * * * * * * * * * * * * * * * * * * * * * * * * * * * * * * * * //

dimensions      [1 -1 -2 0 0 0 0];


internalField   nonuniform List<scalar> 
160
(
384037.8046
384037.021
384035.2995
384032.6831
384029.3137
384024.9785
384019.7099
384013.5804
384006.1056
383997.9722
383987.8573
383977.469
383964.766
383951.6462
383936.4063
383920.2993
383904.6386
383887.8461
383869.2019
383850.1928
383830.491
383810.4369
383786.1799
383766.3882
383739.738
383722.7378
383695.0041
383682.12
383656.1105
383652.7353
383642.2649
383664.0412
383672.2124
383749.1001
383683.387
383846.3144
383759.6263
383980.0388
383704.642
384137.119
383830.3537
384180.0896
383820.0911
384211.0122
383814.0092
384150.3034
383556.5348
383215.6614
382847.0757
382179.7552
381315.6588
380471.3271
378288.6186
376516.783
375640.5607
372235.4176
370495.6727
364855.9193
361890.7035
353944.029
347746.089
338449.9349
326656.1762
319097.1384
306820.85
299742.6897
287762.3561
280266.0391
268564.2826
260897.5308
250160.6895
242504.7541
231520.7191
224459.0679
213796.3321
207636.1787
198841.3798
194475.5877
188387.0066
186056.2336
182376.3284
181069.5659
178355.3128
177386.9733
176500.9719
174985.1691
174852.3502
174188.4037
174059.0309
173601.9799
173531.3197
173285.3049
173170.9188
173090.5864
173053.8305
173040.0683
173086.7777
173113.4957
173206.4031
173189.2534
173216.0704
173219.232
173214.9443
173213.1734
173201.8452
173194.7471
173182.7073
173173.5229
173163.228
173152.529
173140.1683
173129.3838
173117.4666
173106.7082
173095.4252
173084.8827
173074.0348
173063.6947
173053.3457
173043.2685
173033.2618
173023.399
173013.6159
173003.9301
172994.3175
172984.8037
172975.3759
172965.9794
172956.6734
172947.5182
172938.3832
172929.2348
172920.2706
172911.3557
172902.7042
172894.1419
172885.9576
172877.9511
172870.4414
172863.1761
172856.525
172850.2084
172844.5956
172839.4432
172835.042
172831.1988
172828.0818
172825.5465
172823.6421
172822.2467
172821.3119
172820.775
172820.5828
172820.6373
172820.8396
172821.143
172821.4612
172821.7282
172821.9484
172822.1352
)
;

boundaryField
{
    sides
    {
        type            zeroGradient;
    }
    empty1
    {
        type            empty;
    }
    empty2
    {
        type            empty;
    }
}


// ************************************************************************* //
