/*--------------------------------*- C++ -*----------------------------------*\
| =========                 |                                                 |
| \\      /  F ield         | OpenFOAM: The Open Source CFD Toolbox           |
|  \\    /   O peration     | Version:  2012                                  |
|   \\  /    A nd           | Website:  www.openfoam.com                      |
|    \\/     M anipulation  |                                                 |
\*---------------------------------------------------------------------------*/
FoamFile
{
    version     2.0;
    format      ascii;
    class       volScalarField;
    location    "0.9";
    object      rho1;
}
// * * * * * * * * * * * * * * * * * * * * * * * * * * * * * * * * * * * * * //

dimensions      [1 -3 0 0 0 0 0];


internalField   nonuniform List<scalar> 
160
(
1033.15219
1033.152194
1033.152205
1033.152228
1033.152267
1033.152324
1033.152405
1033.152511
1033.152647
1033.152816
1033.153021
1033.153265
1033.153551
1033.153884
1033.154266
1033.154703
1033.155201
1033.155769
1033.156416
1033.157116
1033.157781
1033.158351
1033.158813
1033.15917
1033.159418
1033.159575
1033.159649
1033.159674
1033.159664
1033.159641
1033.159568
1033.159441
1033.159225
1033.158912
1033.158495
1033.158015
1033.157591
1033.157087
1033.156619
1033.156186
1033.155742
1033.155263
1033.15484
1033.154404
1033.15403
1033.15367
1033.153289
1033.152987
1033.152801
1033.152535
1033.152238
1033.151981
1033.151544
1033.15104
1033.151019
1033.150364
1033.149926
1033.148673
1033.147779
1033.145758
1033.143655
1033.140408
1033.136669
1033.133884
1033.130046
1033.127417
1033.123633
1033.120779
1033.117007
1033.114022
1033.110539
1033.107491
1033.103746
1033.100893
1033.097124
1033.094608
1033.091522
1033.089768
1033.087785
1033.08693
1033.085951
1033.085544
1033.084926
1033.084717
1033.084586
1033.084329
1033.084406
1033.084468
1033.084507
1033.084542
1033.084579
1033.084525
1033.084486
1033.084448
1033.084411
1033.084366
1033.084284
1033.084215
1033.084107
1033.083996
1033.08389
1033.083824
1033.083777
1033.083755
1033.083742
1033.083739
1033.08374
1033.083755
1033.083778
1033.083799
1033.083808
1033.08381
1033.083807
1033.083801
1033.083792
1033.08378
1033.08376
1033.083732
1033.083694
1033.083644
1033.083583
1033.083508
1033.08342
1033.08332
1033.083208
1033.083085
1033.082954
1033.082816
1033.082674
1033.082533
1033.082395
1033.082261
1033.082129
1033.082
1033.081874
1033.081751
1033.081632
1033.081516
1033.081403
1033.081294
1033.081188
1033.081086
1033.080987
1033.080892
1033.080801
1033.080716
1033.080637
1033.080564
1033.080498
1033.08044
1033.080389
1033.080347
1033.080312
1033.080284
1033.080262
1033.080247
1033.080236
1033.08023
1033.080227
1033.080226
)
;

boundaryField
{
    sides
    {
        type            calculated;
        value           nonuniform List<scalar> 2(1033.080226 1033.15219);
    }
    empty1
    {
        type            empty;
    }
    empty2
    {
        type            empty;
    }
}


// ************************************************************************* //
