/*--------------------------------*- C++ -*----------------------------------*\
| =========                 |                                                 |
| \\      /  F ield         | OpenFOAM: The Open Source CFD Toolbox           |
|  \\    /   O peration     | Version:  2012                                  |
|   \\  /    A nd           | Website:  www.openfoam.com                      |
|    \\/     M anipulation  |                                                 |
\*---------------------------------------------------------------------------*/
FoamFile
{
    version     2.0;
    format      ascii;
    class       volScalarField;
    location    "0.9";
    object      T;
}
// * * * * * * * * * * * * * * * * * * * * * * * * * * * * * * * * * * * * * //

dimensions      [0 0 0 1 0 0 0];


internalField   nonuniform List<scalar> 
160
(
363.9181156
363.9083537
363.8793708
363.8219264
363.7268155
363.585215
363.3886317
363.1287051
362.7982019
362.3889957
361.8953463
361.3086129
360.6241249
359.8319083
358.9272064
357.8977362
356.7335905
355.4178715
353.9305926
352.3371973
350.8330589
349.5518277
348.5122939
347.7137379
347.1495668
346.7922289
346.6063422
346.5407633
346.5375815
346.5859216
346.7337201
347.029594
347.5089598
348.2623444
349.119586
350.328256
351.1907177
352.5210631
353.3207373
354.6985014
355.4262087
356.8484046
357.4870613
358.8625313
359.3619141
360.5195911
360.8570285
361.2470448
361.3392713
361.3394198
361.2257044
361.033936
359.9989439
359.5084063
358.7221642
357.0186764
356.3883407
353.9205393
353.1670914
350.2010952
349.1072387
347.6314262
344.6974867
343.7250293
340.2555833
339.2631533
335.6736924
334.6530646
331.0179143
329.9886769
326.3781503
325.3589702
321.8349737
320.8424102
317.4619342
316.5121885
313.3263777
312.4335808
309.4898112
308.6679192
306.0072306
305.2619733
302.8735208
301.9718998
300.9300166
299.2547611
298.753106
297.4009874
297.0431153
296.140857
295.8901341
295.6605443
295.6002362
295.5986289
295.6639676
295.7967559
296.1663405
296.4554637
296.992465
297.3580235
297.777359
298.0201453
298.1802911
298.2533684
298.2825049
298.280718
298.2558176
298.186457
298.0869048
297.9936954
297.9400567
297.9136858
297.9056527
297.9069087
297.9179761
297.9457974
297.9977436
298.0793864
298.1971079
298.3552153
298.5581257
298.8077383
299.1052296
299.4490339
299.8364954
300.2624978
300.7211549
301.2049592
301.7057732
302.2063278
302.6946894
303.1740453
303.6448366
304.1071472
304.5596292
305.0019606
305.4331192
305.8534848
306.2627896
306.6617195
307.049968
307.4275369
307.7931854
308.1456256
308.4824873
308.8014316
309.0995551
309.3743381
309.6233293
309.8447782
310.0375215
310.2012809
310.3365891
310.4447546
310.5277866
310.588307
310.6293607
310.6543684
310.6670603
310.6713526
)
;

boundaryField
{
    sides
    {
        type            zeroGradient;
    }
    empty1
    {
        type            empty;
    }
    empty2
    {
        type            empty;
    }
}


// ************************************************************************* //
