/*--------------------------------*- C++ -*----------------------------------*\
| =========                 |                                                 |
| \\      /  F ield         | OpenFOAM: The Open Source CFD Toolbox           |
|  \\    /   O peration     | Version:  2012                                  |
|   \\  /    A nd           | Website:  www.openfoam.com                      |
|    \\/     M anipulation  |                                                 |
\*---------------------------------------------------------------------------*/
FoamFile
{
    version     2.0;
    format      ascii;
    class       volVectorField;
    location    "0.9";
    object      U;
}
// * * * * * * * * * * * * * * * * * * * * * * * * * * * * * * * * * * * * * //

dimensions      [0 1 -1 0 0 0 0];


internalField   nonuniform List<vector> 
160
(
(0.3483955658 0 0)
(1.044751899 0 0)
(1.742014384 0 0)
(2.437919236 0 0)
(3.135100176 0 0)
(3.830026426 0 0)
(4.527471784 0 0)
(5.221013112 0 0)
(5.918716279 0 0)
(6.610919134 0 0)
(7.308554911 0 0)
(7.999904347 0 0)
(8.696731929 0 0)
(9.388246453 0 0)
(10.08398228 0 0)
(10.77744795 0 0)
(11.4708574 0 0)
(12.16591873 0 0)
(12.85571222 0 0)
(13.55058353 0 0)
(14.23618588 0 0)
(14.93841051 0 0)
(15.62069431 0 0)
(16.32727675 0 0)
(17.00219779 0 0)
(17.71605295 0 0)
(18.37789939 0 0)
(19.10572627 0 0)
(19.74241832 0 0)
(20.49367245 0 0)
(21.08719885 0 0)
(21.88626521 0 0)
(22.39310906 0 0)
(23.26460476 0 0)
(23.62972438 0 0)
(24.564742 0 0)
(24.92345491 0 0)
(25.63788328 0 0)
(26.04740817 0 0)
(26.7775954 0 0)
(27.04472997 0 0)
(27.76341602 0 0)
(27.95667108 0 0)
(28.60106022 0 0)
(28.69308345 0 0)
(29.2019786 0 0)
(29.26640778 0 0)
(29.54010814 0 0)
(29.57805444 0 0)
(29.70387741 0 0)
(29.71668854 0 0)
(29.79586973 0 0)
(29.7969655 0 0)
(29.83106345 0 0)
(29.85074094 0 0)
(29.85609997 0 0)
(29.87372234 0 0)
(29.87567937 0 0)
(29.87966154 0 0)
(29.88490839 0 0)
(29.88147254 0 0)
(29.88865146 0 0)
(29.88505693 0 0)
(29.88806833 0 0)
(29.88678455 0 0)
(29.88734293 0 0)
(29.88811146 0 0)
(29.88761742 0 0)
(29.88804721 0 0)
(29.88945886 0 0)
(29.89025589 0 0)
(29.88975581 0 0)
(29.89009178 0 0)
(29.88997085 0 0)
(29.88920873 0 0)
(29.8900151 0 0)
(29.88887656 0 0)
(29.8906859 0 0)
(29.88937948 0 0)
(29.88881978 0 0)
(29.88735395 0 0)
(29.87926915 0 0)
(29.88314877 0 0)
(29.85818914 0 0)
(29.86924366 0 0)
(29.82995875 0 0)
(29.82990171 0 0)
(29.77517823 0 0)
(29.77298043 0 0)
(29.66931404 0 0)
(29.67158648 0 0)
(29.4957562 0 0)
(29.48129043 0 0)
(29.18618879 0 0)
(29.12743724 0 0)
(28.71354135 0 0)
(28.56166419 0 0)
(28.11852464 0 0)
(27.90315951 0 0)
(27.33678934 0 0)
(27.05832842 0 0)
(26.5373778 0 0)
(26.18617577 0 0)
(25.69707736 0 0)
(25.30447342 0 0)
(24.83283116 0 0)
(24.41634251 0 0)
(23.95625792 0 0)
(23.52460718 0 0)
(23.07285104 0 0)
(22.63220305 0 0)
(22.18348586 0 0)
(21.74012573 0 0)
(21.29173758 0 0)
(20.84605673 0 0)
(20.39766952 0 0)
(19.95040771 0 0)
(19.50136831 0 0)
(19.05268464 0 0)
(18.60263381 0 0)
(18.15255721 0 0)
(17.70124043 0 0)
(17.24968828 0 0)
(16.79698433 0 0)
(16.34392638 0 0)
(15.88985245 0 0)
(15.43537786 0 0)
(14.97974159 0 0)
(14.52337517 0 0)
(14.06610799 0 0)
(13.60907922 0 0)
(13.15088145 0 0)
(12.69288588 0 0)
(12.23351324 0 0)
(11.77467183 0 0)
(11.31430215 0 0)
(10.85468046 0 0)
(10.3934587 0 0)
(9.933124046 0 0)
(9.471200732 0 0)
(9.010196925 0 0)
(8.547741199 0 0)
(8.086134057 0 0)
(7.623382035 0 0)
(7.161345191 0 0)
(6.698523678 0 0)
(6.236245366 0 0)
(5.773513769 0 0)
(5.311172025 0 0)
(4.848655718 0 0)
(4.386360088 0 0)
(3.924108885 0 0)
(3.462094075 0 0)
(3.000213055 0 0)
(2.538279419 0 0)
(2.07648768 0 0)
(1.614909003 0 0)
(1.153400125 0 0)
(0.691986088 0 0)
(0.2308930316 0 0)
)
;

boundaryField
{
    sides
    {
        type            fixedValue;
        value           uniform (0 0 0);
    }
    empty1
    {
        type            empty;
    }
    empty2
    {
        type            empty;
    }
}


// ************************************************************************* //
