/*--------------------------------*- C++ -*----------------------------------*\
| =========                 |                                                 |
| \\      /  F ield         | OpenFOAM: The Open Source CFD Toolbox           |
|  \\    /   O peration     | Version:  3.0.1                                 |
|   \\  /    A nd           | Web:      www.OpenFOAM.org                      |
|    \\/     M anipulation  |                                                 |
\*---------------------------------------------------------------------------*/
FoamFile
{
    version     2.0;
    format      ascii;
    class       volScalarField;
    location    "0.0001";
    object      p;
}
// * * * * * * * * * * * * * * * * * * * * * * * * * * * * * * * * * * * * * //

dimensions      [1 -1 -2 0 0 0 0];

internalField   nonuniform List<scalar> 
1000
(
68970
68970
68970
68970
68970
68969.9
68969.9
68969.9
68969.8
68969.7
68969.6
68969.5
68969.3
68968.9
68968.5
68967.9
68967.1
68965.9
68964.3
68962.1
68959.1
68954.9
68949.2
68941.4
68930.9
68916.8
68897.8
68872.4
68838.8
68794.6
68736.8
68661.9
68565.6
68443.1
68289
68097.5
67863
67580.4
67246.3
66860
66425
65951.1
65455.3
64964.1
64512.2
64140.2
63886.6
63773.9
63774.7
63805.8
63771.9
63816.7
63868
63841.4
63689.4
63410.7
63029.3
62581.6
62105.6
61633.7
61189.8
60788.8
60438.4
60140
59891.6
59688.4
59524.9
59395.1
59293.3
59214.2
59153.3
59106.8
59071.6
59045.1
59025.3
59010.5
58999.6
58991.5
58985.6
58981.3
58978.1
58975.8
58974.2
58973
58972.1
58971.5
58971.1
58970.8
58970.5
58970.4
58970.3
58970.2
58970.1
58970.1
58970.1
58970
58970
58970
58970
58970
68970
68970
68970
68970
68970
68969.9
68969.9
68969.9
68969.8
68969.7
68969.6
68969.5
68969.3
68968.9
68968.5
68967.9
68967.1
68965.9
68964.3
68962.1
68959.1
68954.9
68949.2
68941.4
68930.9
68916.8
68897.8
68872.4
68838.8
68794.6
68736.8
68661.9
68565.6
68443.1
68289
68097.5
67863
67580.5
67246.4
66860.1
66425.2
65951.2
65455.5
64964.2
64512.2
64140
63886.1
63772.1
63769
63796.3
63774.6
63820
63869.3
63842.6
63690
63410.9
63029.4
62581.7
62105.6
61633.7
61189.7
60788.8
60438.3
60140
59891.5
59688.4
59524.9
59395.1
59293.3
59214.2
59153.3
59106.8
59071.6
59045.1
59025.3
59010.5
58999.6
58991.5
58985.6
58981.3
58978.1
58975.8
58974.2
58973
58972.1
58971.5
58971.1
58970.8
58970.5
58970.4
58970.3
58970.2
58970.1
58970.1
58970.1
58970
58970
58970
58970
58970
68970
68970
68970
68970
68970
68969.9
68969.9
68969.9
68969.8
68969.7
68969.6
68969.5
68969.3
68968.9
68968.5
68967.9
68967.1
68965.9
68964.3
68962.1
68959.1
68954.9
68949.2
68941.4
68930.9
68916.8
68897.8
68872.4
68838.8
68794.6
68736.8
68661.9
68565.6
68443.1
68289
68097.6
67863.1
67580.6
67246.5
66860.2
66425.3
65951.4
65455.6
64964.3
64512
64139.4
63884.8
63770.8
63770.7
63803.5
63770.7
63817.2
63869.6
63843
63690.4
63411.2
63029.5
62581.7
62105.6
61633.6
61189.7
60788.8
60438.3
60140
59891.5
59688.4
59524.9
59395.1
59293.3
59214.2
59153.3
59106.8
59071.6
59045.1
59025.3
59010.5
58999.6
58991.5
58985.6
58981.3
58978.1
58975.8
58974.2
58973
58972.1
58971.5
58971.1
58970.8
58970.5
58970.4
58970.3
58970.2
58970.1
58970.1
58970.1
58970
58970
58970
58970
58970
68970
68970
68970
68970
68970
68969.9
68969.9
68969.9
68969.8
68969.7
68969.6
68969.5
68969.3
68968.9
68968.5
68967.9
68967.1
68965.9
68964.3
68962.1
68959.1
68954.9
68949.2
68941.4
68930.9
68916.8
68897.8
68872.4
68838.8
68794.6
68736.8
68661.9
68565.6
68443.2
68289.1
68097.6
67863.2
67580.7
67246.6
66860.4
66425.5
65951.6
65455.9
64964.5
64512.1
64139.3
63884
63768.4
63764.5
63793.3
63773.2
63820.7
63870.8
63843.9
63690.9
63411.5
63029.7
62581.7
62105.6
61633.6
61189.7
60788.7
60438.3
60140
59891.5
59688.4
59524.9
59395.1
59293.3
59214.2
59153.3
59106.8
59071.6
59045.1
59025.3
59010.5
58999.6
58991.5
58985.6
58981.3
58978.1
58975.8
58974.2
58973
58972.1
58971.5
58971.1
58970.8
58970.5
58970.4
58970.3
58970.2
58970.1
58970.1
58970.1
58970
58970
58970
58970
58970
68970
68970
68970
68970
68970
68969.9
68969.9
68969.9
68969.8
68969.7
68969.6
68969.5
68969.3
68968.9
68968.5
68967.9
68967.1
68965.9
68964.3
68962.1
68959.1
68954.9
68949.2
68941.4
68930.9
68916.8
68897.8
68872.4
68838.8
68794.6
68736.8
68661.9
68565.7
68443.2
68289.1
68097.7
67863.2
67580.7
67246.7
66860.5
66425.6
65951.7
65456
64964.6
64512.1
64139
63883.2
63766.6
63761.7
63791.3
63772.3
63821.3
63871.6
63844.8
63691.5
63411.8
63029.8
62581.8
62105.6
61633.6
61189.6
60788.7
60438.3
60139.9
59891.5
59688.4
59524.9
59395.1
59293.3
59214.2
59153.3
59106.8
59071.6
59045.1
59025.3
59010.5
58999.6
58991.5
58985.6
58981.3
58978.1
58975.8
58974.2
58973
58972.1
58971.5
58971.1
58970.8
58970.5
58970.4
58970.3
58970.2
58970.1
58970.1
58970.1
58970
58970
58970
58970
58970
68970
68970
68970
68970
68970
68969.9
68969.9
68969.9
68969.8
68969.7
68969.6
68969.5
68969.3
68968.9
68968.5
68967.9
68967.1
68965.9
68964.3
68962.1
68959.1
68954.9
68949.2
68941.4
68930.9
68916.8
68897.8
68872.4
68838.8
68794.6
68736.8
68661.9
68565.7
68443.2
68289.1
68097.7
67863.2
67580.7
67246.7
66860.5
66425.7
65951.7
65456
64964.6
64512.1
64138.9
63883.1
63766.6
63761.7
63791.4
63772.5
63821.5
63871.7
63844.7
63691.4
63411.9
63029.9
62581.8
62105.6
61633.6
61189.6
60788.7
60438.3
60139.9
59891.5
59688.4
59524.9
59395.1
59293.3
59214.2
59153.3
59106.8
59071.6
59045.1
59025.3
59010.5
58999.6
58991.5
58985.6
58981.3
58978.1
58975.8
58974.2
58973
58972.1
58971.5
58971.1
58970.8
58970.5
58970.4
58970.3
58970.2
58970.1
58970.1
58970.1
58970
58970
58970
58970
58970
68970
68970
68970
68970
68970
68969.9
68969.9
68969.9
68969.8
68969.7
68969.6
68969.5
68969.3
68968.9
68968.5
68967.9
68967.1
68965.9
68964.3
68962.1
68959.1
68954.9
68949.2
68941.4
68930.9
68916.8
68897.8
68872.4
68838.8
68794.6
68736.8
68661.9
68565.6
68443.2
68289.1
68097.7
67863.2
67580.7
67246.7
66860.4
66425.6
65951.6
65455.9
64964.5
64512
64139
63883.7
63768.4
63764.8
63793.5
63773.1
63820.5
63870.9
63844.2
63691.1
63411.7
63029.8
62581.8
62105.6
61633.6
61189.6
60788.7
60438.3
60139.9
59891.5
59688.4
59524.9
59395.1
59293.3
59214.2
59153.3
59106.8
59071.6
59045.1
59025.3
59010.5
58999.6
58991.5
58985.6
58981.3
58978.1
58975.8
58974.2
58973
58972.1
58971.5
58971.1
58970.8
58970.5
58970.4
58970.3
58970.2
58970.1
58970.1
58970.1
58970
58970
58970
58970
58970
68970
68970
68970
68970
68970
68969.9
68969.9
68969.9
68969.8
68969.7
68969.6
68969.5
68969.3
68968.9
68968.5
68967.9
68967.1
68965.9
68964.3
68962.1
68959.1
68954.9
68949.2
68941.4
68930.9
68916.8
68897.8
68872.4
68838.8
68794.6
68736.8
68661.9
68565.6
68443.2
68289.1
68097.6
67863.1
67580.6
67246.5
66860.3
66425.4
65951.4
65455.7
64964.3
64512
64139.3
63884.7
63770.8
63770.8
63803.5
63770.6
63817.1
63869.6
63843.2
63690.5
63411.3
63029.6
62581.7
62105.6
61633.6
61189.6
60788.7
60438.3
60139.9
59891.5
59688.4
59524.9
59395.1
59293.3
59214.2
59153.3
59106.8
59071.6
59045.1
59025.3
59010.5
58999.6
58991.5
58985.6
58981.3
58978.1
58975.8
58974.2
58973
58972.1
58971.5
58971.1
58970.8
58970.5
58970.4
58970.3
58970.2
58970.1
58970.1
58970.1
58970
58970
58970
58970
58970
68970
68970
68970
68970
68970
68969.9
68969.9
68969.9
68969.8
68969.7
68969.6
68969.5
68969.3
68968.9
68968.5
68967.9
68967.1
68965.9
68964.3
68962.1
68959.1
68954.9
68949.2
68941.4
68930.9
68916.8
68897.8
68872.4
68838.8
68794.6
68736.8
68661.9
68565.6
68443.1
68289
68097.6
67863.1
67580.5
67246.4
66860.1
66425.2
65951.3
65455.5
64964.2
64512.2
64140.1
63886.1
63772.1
63768.9
63796.1
63774.3
63819.8
63869.3
63842.8
63690.1
63411
63029.4
62581.6
62105.5
61633.6
61189.6
60788.7
60438.3
60139.9
59891.5
59688.4
59524.9
59395.1
59293.3
59214.2
59153.3
59106.8
59071.6
59045.1
59025.3
59010.5
58999.6
58991.5
58985.6
58981.3
58978.1
58975.8
58974.2
58973
58972.1
58971.5
58971.1
58970.8
58970.5
58970.4
58970.3
58970.2
58970.1
58970.1
58970.1
58970
58970
58970
58970
58970
68970
68970
68970
68970
68970
68969.9
68969.9
68969.9
68969.8
68969.7
68969.6
68969.5
68969.3
68968.9
68968.5
68967.9
68967.1
68965.9
68964.3
68962.1
68959.1
68954.9
68949.2
68941.4
68930.9
68916.8
68897.8
68872.4
68838.8
68794.6
68736.8
68661.9
68565.6
68443.1
68289
68097.5
67863
67580.5
67246.4
66860.1
66425.1
65951.1
65455.4
64964.2
64512.3
64140.3
63886.7
63773.9
63774.6
63805.5
63771.2
63816.1
63868.2
63842
63689.8
63410.9
63029.4
62581.6
62105.6
61633.6
61189.7
60788.7
60438.3
60139.9
59891.5
59688.4
59524.9
59395.1
59293.3
59214.2
59153.3
59106.8
59071.6
59045.1
59025.3
59010.5
58999.6
58991.5
58985.6
58981.3
58978.1
58975.8
58974.2
58973
58972.1
58971.5
58971.1
58970.8
58970.5
58970.4
58970.3
58970.2
58970.1
58970.1
58970.1
58970
58970
58970
58970
58970
)
;

boundaryField
{
    sides1
    {
        type            zeroGradient;
    }
    sides2
    {
        type            slip;
    }
    empty
    {
        type            empty;
    }
}


// ************************************************************************* //
