/*--------------------------------*- C++ -*----------------------------------*\
| =========                 |                                                 |
| \\      /  F ield         | OpenFOAM: The Open Source CFD Toolbox           |
|  \\    /   O peration     | Version:  3.0.1                                 |
|   \\  /    A nd           | Web:      www.OpenFOAM.org                      |
|    \\/     M anipulation  |                                                 |
\*---------------------------------------------------------------------------*/
FoamFile
{
    version     2.0;
    format      ascii;
    class       surfaceScalarField;
    location    "0.0001";
    object      phi;
}
// * * * * * * * * * * * * * * * * * * * * * * * * * * * * * * * * * * * * * //

dimensions      [1 0 -1 0 0 0 0];

internalField   nonuniform List<scalar> 
1890
(
2.82568e-09
-2.62002e-13
5.83636e-09
-2.56756e-13
9.59868e-09
-2.51285e-13
1.45904e-08
-2.47368e-13
2.1439e-08
-2.43416e-13
3.0997e-08
-2.385e-13
4.44409e-08
-2.32675e-13
6.34084e-08
-2.27443e-13
9.01838e-08
-2.26447e-13
1.27955e-07
-2.36564e-13
1.81163e-07
-2.69597e-13
2.55984e-07
-3.447e-13
3.60986e-07
-4.91995e-13
5.08016e-07
-7.58067e-13
7.13409e-07
-1.21437e-12
9.99602e-07
-1.97034e-12
1.39731e-06
-3.19368e-12
1.94838e-06
-5.1414e-12
2.70964e-06
-8.20836e-12
3.7578e-06
-1.3002e-11
5.19594e-06
-2.04561e-11
7.16176e-06
-3.20308e-11
9.83803e-06
-4.99273e-11
1.34657e-05
-7.75585e-11
1.83599e-05
-1.20116e-10
2.49292e-05
-1.85479e-10
3.36983e-05
-2.85551e-10
4.53331e-05
-4.38189e-10
6.06684e-05
-6.70019e-10
8.07344e-05
-1.02041e-09
0.000106781
-1.5471e-09
0.00014029
-2.33399e-09
0.000182973
-3.5018e-09
0.000236742
-5.2214e-09
0.00030363
-7.7314e-09
0.000385656
-1.1358e-08
0.000484613
-1.65393e-08
0.000601744
-2.38484e-08
0.000737324
-3.39805e-08
0.000890117
-4.79332e-08
0.00105678
-6.67075e-08
0.00123125
-9.11274e-08
0.00140439
-1.23154e-07
0.00156403
-1.64668e-07
0.00169595
-2.23847e-07
0.00178672
-3.02539e-07
0.00182821
-4.0801e-07
0.00182228
-3.75672e-07
0.0017986
6.80598e-07
0.00181034
1.64334e-06
0.00172515
-9.46687e-07
0.00175194
-4.41977e-07
0.00177509
-9.61841e-08
0.00176662
-1.03661e-07
0.0017093
2.71203e-08
0.00160318
4.0536e-08
0.00145921
3.83795e-08
0.0012922
3.44351e-08
0.00111667
2.83723e-08
0.000944472
2.13498e-08
0.000783955
1.56146e-08
0.000640113
1.13914e-08
0.000515187
8.16434e-09
0.000409415
5.82464e-09
0.000321727
4.11834e-09
0.000250307
2.89204e-09
0.000193009
2.01753e-09
0.000147636
1.39837e-09
0.000112111
9.63755e-10
8.45738e-05
6.60789e-10
6.34171e-05
4.51047e-10
4.72909e-05
3.06711e-10
3.50866e-05
2.07921e-10
2.591e-05
1.40612e-10
1.90505e-05
9.48908e-11
1.39506e-05
6.38884e-11
1.01776e-05
4.29179e-11
7.39902e-06
2.87465e-11
5.36137e-06
1.9184e-11
3.87292e-06
1.27271e-11
2.78962e-06
8.40461e-12
2.00385e-06
5.51849e-12
1.43572e-06
3.60616e-12
1.02617e-06
2.35395e-12
7.31757e-07
1.54697e-12
5.20673e-07
1.03652e-12
3.69706e-07
7.20254e-13
2.61985e-07
5.27939e-13
1.85288e-07
4.12547e-13
1.30788e-07
3.4313e-13
9.21268e-08
2.99842e-13
6.4739e-08
2.70395e-13
4.53501e-08
2.47474e-13
3.16159e-08
2.27006e-13
2.18575e-08
2.06831e-13
1.48692e-08
1.85785e-13
9.77869e-09
1.62932e-13
5.944e-09
1.36936e-13
2.87689e-09
1.05384e-13
6.2025e-14
2.82571e-09
-2.70929e-13
5.83638e-09
-2.74062e-13
9.59869e-09
-2.74482e-13
1.45904e-08
-2.74294e-13
2.14391e-08
-2.7375e-13
3.0997e-08
-2.73333e-13
4.44409e-08
-2.74572e-13
6.34084e-08
-2.81008e-13
9.01838e-08
-2.99389e-13
1.27955e-07
-3.41529e-13
1.81162e-07
-4.27061e-13
2.55983e-07
-5.8728e-13
3.60985e-07
-8.71206e-13
5.08015e-07
-1.35456e-12
7.13406e-07
-2.15374e-12
9.99598e-07
-3.44735e-12
1.3973e-06
-5.50944e-12
1.94837e-06
-8.76106e-12
2.70962e-06
-1.38506e-11
3.75777e-06
-2.17797e-11
5.1959e-06
-3.40848e-11
7.16169e-06
-5.3146e-11
9.83793e-06
-8.26044e-11
1.34655e-05
-1.28039e-10
1.83596e-05
-1.97953e-10
2.49288e-05
-3.05244e-10
3.36977e-05
-4.69359e-10
4.53322e-05
-7.1949e-10
6.0667e-05
-1.09908e-09
8.07324e-05
-1.6723e-09
0.000106778
-2.53319e-09
0.000140285
-3.81805e-09
0.000182967
-5.72209e-09
0.000236733
-8.52139e-09
0.000303616
-1.25973e-08
0.000385636
-1.84669e-08
0.000484584
-2.68082e-08
0.000601704
-3.8472e-08
0.000737269
-5.44704e-08
0.000890043
-7.57306e-08
0.00105668
-1.0285e-07
0.00123112
-1.35346e-07
0.00140421
-1.70088e-07
0.00156377
-1.98466e-07
0.00169556
-1.87878e-07
0.00178597
-1.10984e-07
0.00182702
-7.97923e-08
0.00182217
-1.55523e-07
0.00180078
-8.22134e-07
0.00180159
-1.84315e-06
0.00173231
7.59922e-07
0.00175407
6.76072e-07
0.00177494
-2.35392e-08
0.00176674
2.13587e-08
0.0017092
-1.1772e-08
0.00160309
-6.79563e-09
0.00145914
1.42715e-08
0.00129216
2.41606e-08
0.00111663
2.66996e-08
0.000944446
2.51065e-08
0.000783937
2.11394e-08
0.000640101
1.68476e-08
0.000515178
1.28183e-08
0.000409409
9.47475e-09
0.000321722
6.86341e-09
0.000250304
4.89682e-09
0.000193007
3.45139e-09
0.000147634
2.40961e-09
0.00011211
1.66922e-09
8.4573e-05
1.14906e-09
6.34165e-05
7.86838e-10
4.72905e-05
5.36406e-10
3.50864e-05
3.64281e-10
2.59098e-05
2.4653e-10
1.90504e-05
1.66288e-10
1.39505e-05
1.11795e-10
1.01776e-05
7.49086e-11
7.39898e-06
5.00224e-11
5.36134e-06
3.32861e-11
3.87291e-06
2.2087e-11
2.78961e-06
1.46302e-11
2.00385e-06
9.69285e-12
1.43572e-06
6.44275e-12
1.02617e-06
4.31538e-12
7.31755e-07
2.92876e-12
5.20672e-07
2.02608e-12
3.69705e-07
1.4362e-12
2.61985e-07
1.04636e-12
1.85288e-07
7.83328e-13
1.30788e-07
6.00365e-13
9.21267e-08
4.68113e-13
6.47389e-08
3.68636e-13
4.535e-08
2.90939e-13
3.16158e-08
2.28321e-13
2.18574e-08
1.76621e-13
1.48691e-08
1.33719e-13
9.77858e-09
9.7311e-14
5.94386e-09
6.64694e-14
2.87669e-09
4.11546e-14
2.34951e-14
2.82569e-09
-2.46098e-13
5.83637e-09
-2.48451e-13
9.59869e-09
-2.4751e-13
1.45904e-08
-2.44835e-13
2.14391e-08
-2.40905e-13
3.0997e-08
-2.36498e-13
4.44409e-08
-2.33629e-13
6.34083e-08
-2.36422e-13
9.01836e-08
-2.52486e-13
1.27954e-07
-2.9492e-13
1.81162e-07
-3.84973e-13
2.55982e-07
-5.56319e-13
3.60983e-07
-8.61144e-13
5.08012e-07
-1.37958e-12
7.13401e-07
-2.23404e-12
9.9959e-07
-3.61136e-12
1.39729e-06
-5.79695e-12
1.94835e-06
-9.22814e-12
2.70959e-06
-1.45772e-11
3.75772e-06
-2.28798e-11
5.19582e-06
-3.57341e-11
7.16158e-06
-5.55904e-11
9.83775e-06
-8.62094e-11
1.34653e-05
-1.33342e-10
1.83592e-05
-2.05746e-10
2.49282e-05
-3.16695e-10
3.36967e-05
-4.86207e-10
4.53307e-05
-7.44239e-10
6.06648e-05
-1.1354e-09
8.0729e-05
-1.72562e-09
0.000106773
-2.61153e-09
0.000140278
-3.93349e-09
0.000182956
-5.893e-09
0.000236717
-8.77572e-09
0.000303593
-1.29819e-08
0.000385604
-1.90598e-08
0.000484539
-2.77467e-08
0.000601642
-4.00045e-08
0.000737186
-5.70166e-08
0.000889938
-8.02039e-08
0.00105655
-1.11202e-07
0.00123099
-1.5118e-07
0.0014041
-2.01244e-07
0.00156379
-2.63897e-07
0.00169592
-3.45584e-07
0.00178698
-4.66352e-07
0.00182884
-5.72196e-07
0.00182375
-5.23821e-07
0.00179981
5.00057e-07
0.00180877
1.65596e-06
0.00172464
-1.00748e-06
0.00175183
-4.15508e-07
0.00177594
-1.78936e-08
0.00176732
-2.87173e-08
0.00170954
4.75511e-08
0.00160329
6.60119e-08
0.00145925
6.16371e-08
0.00129219
5.2656e-08
0.00111664
4.17843e-08
0.000944433
3.3945e-08
0.000783921
2.66123e-08
0.000640085
2.02178e-08
0.000515165
1.50777e-08
0.000409399
1.10402e-08
0.000321715
7.96895e-09
0.000250298
5.68172e-09
0.000193003
4.01084e-09
0.000147631
2.8081e-09
0.000112108
1.9524e-09
8.45716e-05
1.34956e-09
6.34156e-05
9.28287e-10
4.72899e-05
6.35809e-10
3.50859e-05
4.33825e-10
2.59095e-05
2.94973e-10
1.90502e-05
1.99894e-10
1.39504e-05
1.35033e-10
1.01775e-05
9.09577e-11
7.39892e-06
6.10995e-11
5.3613e-06
4.09547e-11
3.87288e-06
2.7422e-11
2.78959e-06
1.83708e-11
2.00383e-06
1.23417e-11
1.43571e-06
8.33832e-12
1.02616e-06
5.68386e-12
7.31751e-07
3.92114e-12
5.20669e-07
2.74386e-12
3.69704e-07
1.94877e-12
2.61984e-07
1.40275e-12
1.85287e-07
1.01948e-12
1.30787e-07
7.44004e-13
9.21263e-08
5.40075e-13
6.47386e-08
3.86722e-13
4.53498e-08
2.69413e-13
3.16156e-08
1.78768e-13
2.18572e-08
1.06162e-13
1.4869e-08
5.46958e-14
9.77846e-09
1.3432e-14
5.94377e-09
-1.72709e-14
2.87663e-09
-3.84727e-14
-5.06643e-14
2.82569e-09
-1.76432e-13
5.83638e-09
-1.74964e-13
9.5987e-09
-1.69722e-13
1.45904e-08
-1.6161e-13
2.14391e-08
-1.51018e-13
3.0997e-08
-1.38729e-13
4.44409e-08
-1.26611e-13
6.34083e-08
-1.18329e-13
9.01834e-08
-1.2049e-13
1.27954e-07
-1.44031e-13
1.81161e-07
-2.06311e-13
2.55981e-07
-3.33868e-13
3.60981e-07
-5.66835e-13
5.08008e-07
-9.65627e-13
7.13396e-07
-1.62029e-12
9.99581e-07
-2.66636e-12
1.39727e-06
-4.30626e-12
1.94833e-06
-6.84454e-12
2.70956e-06
-1.07413e-11
3.75767e-06
-1.6695e-11
5.19575e-06
-2.58374e-11
7.16146e-06
-3.98036e-11
9.83757e-06
-6.11419e-11
1.3465e-05
-9.37275e-11
1.83588e-05
-1.43452e-10
2.49275e-05
-2.19207e-10
3.36957e-05
-3.34387e-10
4.53292e-05
-5.08937e-10
6.06625e-05
-7.72512e-10
8.07256e-05
-1.16885e-09
0.000106767
-1.76201e-09
0.00014027
-2.64494e-09
0.000182945
-3.95135e-09
0.0002367
-5.87134e-09
0.000303569
-8.67133e-09
0.00038557
-1.27175e-08
0.000484491
-1.85002e-08
0.000601576
-2.66588e-08
0.000737096
-3.80311e-08
0.000889817
-5.36505e-08
0.00105639
-7.4615e-08
0.00123079
-1.02308e-07
0.00140385
-1.36703e-07
0.00156346
-1.78965e-07
0.00169546
-2.27283e-07
0.00178639
-2.54452e-07
0.00182788
-2.39434e-07
0.00182351
-9.81032e-08
0.00180118
1.21927e-07
0.00179978
-3.37873e-07
0.00173176
4.99098e-09
0.00175424
2.52314e-07
0.00177559
-4.77181e-08
0.00176711
-1.09112e-07
0.00170946
-2.06641e-08
0.00160325
1.43706e-08
0.0014592
3.49945e-08
0.00129215
3.60178e-08
0.0011166
3.39485e-08
0.000944404
2.82157e-08
0.000783896
2.24457e-08
0.000640065
1.7206e-08
0.00051515
1.29054e-08
0.000409387
9.50684e-09
0.000321706
6.91199e-09
0.000250292
4.96959e-09
0.000192998
3.54091e-09
0.000147628
2.50361e-09
0.000112105
1.75899e-09
8.457e-05
1.22908e-09
6.34144e-05
8.54677e-10
4.72891e-05
5.91758e-10
3.50854e-05
4.08098e-10
2.59092e-05
2.80391e-10
1.90499e-05
1.91969e-10
1.39502e-05
1.30984e-10
1.01773e-05
8.90997e-11
7.39884e-06
6.04568e-11
5.36125e-06
4.09511e-11
3.87284e-06
2.77257e-11
2.78956e-06
1.87946e-11
2.00382e-06
1.27829e-11
1.4357e-06
8.74281e-12
1.02615e-06
6.02507e-12
7.31747e-07
4.18865e-12
5.20666e-07
2.93741e-12
3.69702e-07
2.07201e-12
2.61982e-07
1.46411e-12
1.85286e-07
1.02835e-12
1.30786e-07
7.10054e-13
9.21257e-08
4.73831e-13
6.47381e-08
2.96993e-13
4.53494e-08
1.6399e-13
3.16153e-08
6.43929e-14
2.1857e-08
-9.40741e-15
1.48688e-08
-6.25836e-14
9.77834e-09
-9.99825e-14
5.94368e-09
-1.24862e-13
2.87658e-09
-1.39616e-13
-1.45869e-13
2.82569e-09
-7.3639e-14
5.8364e-09
-6.61519e-14
9.59873e-09
-5.44009e-14
1.45904e-08
-3.83547e-14
2.14391e-08
-1.80654e-14
3.0997e-08
6.02296e-15
4.44409e-08
3.29042e-14
6.34082e-08
6.04378e-14
9.01833e-08
8.48766e-14
1.27954e-07
1.00413e-13
1.81161e-07
9.82721e-14
2.5598e-07
6.60548e-14
3.6098e-07
-1.31457e-14
5.08006e-07
-1.62127e-13
7.13392e-07
-4.12004e-13
9.99575e-07
-8.02976e-13
1.39726e-06
-1.39162e-12
1.94832e-06
-2.27473e-12
2.70954e-06
-3.48784e-12
3.75764e-06
-5.25277e-12
5.19569e-06
-7.77536e-12
7.16137e-06
-1.13862e-11
9.83744e-06
-1.65915e-11
1.34648e-05
-2.39837e-11
1.83585e-05
-3.4645e-11
2.49271e-05
-5.00433e-11
3.3695e-05
-7.22045e-11
4.53282e-05
-1.04041e-10
6.06609e-05
-1.49621e-10
8.07233e-05
-2.14599e-10
0.000106764
-3.06784e-10
0.000140265
-4.36836e-10
0.000182937
-6.19238e-10
0.00023669
-8.7343e-10
0.000303554
-1.22342e-09
0.000385547
-1.70318e-09
0.000484459
-2.36224e-09
0.000601532
-3.24948e-09
0.000737035
-4.40765e-09
0.000889735
-5.89191e-09
0.00105629
-7.82537e-09
0.00123065
-9.79079e-09
0.00140368
-1.16821e-08
0.00156327
-1.21164e-08
0.00169532
-8.96611e-09
0.00178635
-3.21491e-09
0.00182824
-1.17796e-08
0.00182455
-1.60669e-08
0.00180204
2.66329e-09
0.00179766
-9.40526e-10
0.00173115
-3.27516e-08
0.00175463
-4.30958e-08
0.00177612
-1.77775e-09
0.00176758
5.81598e-08
0.00170963
3.85719e-08
0.00160332
1.32427e-08
0.0014592
1.1666e-08
0.00129213
1.0769e-08
0.00111658
1.04288e-08
0.00094438
1.05512e-08
0.000783875
9.75388e-09
0.000640048
8.37401e-09
0.000515136
6.79557e-09
0.000409377
5.31639e-09
0.000321698
4.05035e-09
0.000250286
3.03351e-09
0.000192994
2.24107e-09
0.000147625
1.63861e-09
0.000112103
1.18754e-09
8.45685e-05
8.54146e-10
6.34134e-05
6.10217e-10
4.72884e-05
4.3326e-10
3.50849e-05
3.0587e-10
2.59088e-05
2.14816e-10
1.90497e-05
1.50152e-10
1.395e-05
1.04486e-10
1.01772e-05
7.24266e-11
7.39876e-06
5.00515e-11
5.3612e-06
3.45218e-11
3.87281e-06
2.37985e-11
2.78954e-06
1.64254e-11
2.0038e-06
1.13698e-11
1.43569e-06
7.90484e-12
1.02615e-06
5.52353e-12
7.31742e-07
3.87615e-12
5.20663e-07
2.72442e-12
3.69699e-07
1.90785e-12
2.61981e-07
1.31966e-12
1.85285e-07
8.89207e-13
1.30785e-07
5.70448e-13
9.21251e-08
3.32753e-13
6.47376e-08
1.55549e-13
4.5349e-08
2.44926e-14
3.16151e-08
-7.0853e-14
2.18568e-08
-1.38408e-13
1.48686e-08
-1.84385e-13
9.77824e-09
-2.13836e-13
5.94363e-09
-2.30751e-13
2.87656e-09
-2.38235e-13
-2.38486e-13
2.82572e-09
3.61482e-14
5.83644e-09
4.88394e-14
9.5988e-09
6.57668e-14
1.45905e-08
8.7607e-14
2.14392e-08
1.14041e-13
3.09971e-08
1.44926e-13
4.4441e-08
1.79953e-13
6.34083e-08
2.18461e-13
9.01834e-08
2.59338e-13
1.27954e-07
3.02119e-13
1.8116e-07
3.47243e-13
2.5598e-07
3.9739e-13
3.60979e-07
4.60181e-13
5.08005e-07
5.52176e-13
7.1339e-07
7.05207e-13
9.99572e-07
9.76649e-13
1.39726e-06
1.4646e-12
1.94831e-06
2.33224e-12
2.70953e-06
3.84985e-12
3.75763e-06
6.43725e-12
5.19568e-06
1.0767e-11
7.16135e-06
1.78988e-11
9.83741e-06
2.94941e-11
1.34648e-05
4.81674e-11
1.83584e-05
7.79132e-11
2.4927e-05
1.2498e-10
3.36949e-05
1.98971e-10
4.5328e-05
3.14579e-10
6.06607e-05
4.94132e-10
8.07229e-05
7.71286e-10
0.000106764
1.19632e-09
0.000140264
1.8436e-09
0.000182936
2.82187e-09
0.000236688
4.28824e-09
0.000303552
6.46487e-09
0.000385545
9.66597e-09
0.000484456
1.43216e-08
0.000601527
2.10036e-08
0.00073703
3.04307e-08
0.000889728
4.35594e-08
0.00105628
6.14331e-08
0.00123064
8.49839e-08
0.00140368
1.13764e-07
0.00156328
1.49743e-07
0.00169535
1.92252e-07
0.00178641
2.35999e-07
0.00182821
2.8247e-07
0.00182452
6.05811e-08
0.00180209
-1.46944e-07
0.00179776
2.82653e-07
0.00173121
3.36051e-08
0.00175465
-1.50393e-07
0.00177602
-4.78166e-09
0.00176742
3.91715e-08
0.00170963
1.1579e-08
0.00160339
1.35021e-08
0.00145924
3.16394e-09
0.00129215
2.50258e-10
0.00111659
-5.06488e-10
0.000944379
-8.32816e-10
0.00078387
-4.26943e-10
0.000640042
4.2104e-11
0.000515131
4.61078e-10
0.000409372
6.74275e-10
0.000321694
7.46175e-10
0.000250283
7.40384e-10
0.000192992
6.7615e-10
0.000147623
5.81765e-10
0.000112102
4.80286e-10
8.45676e-05
3.84347e-10
6.34127e-05
2.99582e-10
4.72879e-05
2.28646e-10
3.50845e-05
1.71612e-10
2.59086e-05
1.27114e-10
1.90495e-05
9.30706e-11
1.39499e-05
6.7482e-11
1.01771e-05
4.85271e-11
7.3987e-06
3.46701e-11
5.36116e-06
2.46549e-11
3.87278e-06
1.74847e-11
2.78952e-06
1.23886e-11
2.00379e-06
8.78274e-12
1.43568e-06
6.23417e-12
1.02614e-06
4.42721e-12
7.31738e-07
3.13732e-12
5.2066e-07
2.20656e-12
3.69697e-07
1.52654e-12
2.61979e-07
1.0244e-12
1.85284e-07
6.47035e-13
1.30784e-07
3.64419e-13
9.21244e-08
1.52588e-13
6.47371e-08
-4.60049e-15
4.53487e-08
-1.18995e-13
3.16148e-08
-1.99707e-13
2.18566e-08
-2.54066e-13
1.48685e-08
-2.88157e-13
9.77818e-09
-3.06991e-13
5.9436e-09
-3.14766e-13
2.87656e-09
-3.14759e-13
-3.09286e-13
2.82577e-09
1.34361e-13
5.83651e-09
1.52631e-13
9.59888e-09
1.74e-13
1.45906e-08
1.99292e-13
2.14393e-08
2.28505e-13
3.09973e-08
2.61725e-13
4.44412e-08
2.99139e-13
6.34085e-08
3.41404e-13
9.01836e-08
3.90139e-13
1.27954e-07
4.4904e-13
1.81161e-07
5.25722e-13
2.5598e-07
6.34645e-13
3.60979e-07
8.01938e-13
5.08005e-07
1.07268e-12
7.13391e-07
1.52281e-12
9.99574e-07
2.27683e-12
1.39726e-06
3.53607e-12
1.94832e-06
5.62182e-12
2.70954e-06
9.04264e-12
3.75765e-06
1.45972e-11
5.19571e-06
2.35365e-11
7.1614e-06
3.78126e-11
9.83749e-06
6.04604e-11
1.34649e-05
9.61889e-11
1.83586e-05
1.52282e-10
2.49273e-05
2.39917e-10
3.36954e-05
3.76207e-10
4.53287e-05
5.87162e-10
6.06618e-05
9.12052e-10
8.07246e-05
1.40967e-09
0.000106766
2.16733e-09
0.000140268
3.31331e-09
0.000182942
5.03381e-09
0.000236697
7.59619e-09
0.000303564
1.13782e-08
0.000385563
1.69017e-08
0.000484482
2.48783e-08
0.000601564
3.62411e-08
0.00073708
5.21658e-08
0.000889797
7.40381e-08
0.00105637
1.03714e-07
0.00123076
1.42395e-07
0.00140382
1.92727e-07
0.00156344
2.55743e-07
0.00169547
3.33403e-07
0.00178633
4.30713e-07
0.00182765
5.07515e-07
0.00182343
4.95572e-07
0.00180159
-4.5226e-07
0.00179995
-1.64953e-06
0.00173173
9.59908e-07
0.00175394
3.18411e-07
0.0017759
7.16163e-08
0.00176731
8.31778e-08
0.00170951
5.66807e-10
0.00160324
-3.0657e-08
0.00145918
-3.47595e-08
0.00129212
-2.99263e-08
0.00111657
-2.26732e-08
0.000944376
-1.68304e-08
0.000783871
-1.18909e-08
0.000640043
-7.90657e-09
0.000515131
-5.06302e-09
0.000409372
-3.15289e-09
0.000321694
-1.88394e-09
0.000250283
-1.07054e-09
0.000192991
-5.67317e-10
0.000147623
-2.66697e-10
0.000112102
-9.54088e-11
8.45673e-05
-1.91248e-12
6.34125e-05
3.82432e-11
4.72876e-05
5.17918e-11
3.50843e-05
5.24446e-11
2.59084e-05
4.7764e-11
1.90494e-05
4.04023e-11
1.39498e-05
3.25764e-11
1.01771e-05
2.54434e-11
7.39866e-06
1.9441e-11
5.36113e-06
1.46261e-11
3.87276e-06
1.08853e-11
2.78951e-06
8.04127e-12
2.00378e-06
5.90801e-12
1.43567e-06
4.32162e-12
1.02613e-06
3.13562e-12
7.31734e-07
2.2517e-12
5.20657e-07
1.58652e-12
3.69695e-07
1.08025e-12
2.61978e-07
6.911e-13
1.85283e-07
3.93465e-13
1.30784e-07
1.66075e-13
9.21238e-08
-5.71591e-15
6.47367e-08
-1.32857e-13
4.53484e-08
-2.23967e-13
3.16146e-08
-2.86188e-13
2.18565e-08
-3.25635e-13
1.48685e-08
-3.47592e-13
9.77815e-09
-3.56607e-13
5.9436e-09
-3.56491e-13
2.87658e-09
-3.50399e-13
-3.40526e-13
2.82584e-09
1.85452e-13
5.83659e-09
2.0783e-13
9.59898e-09
2.29705e-13
1.45907e-08
2.51205e-13
2.14395e-08
2.72754e-13
3.09974e-08
2.94535e-13
4.44414e-08
3.16823e-13
6.34087e-08
3.40488e-13
9.01838e-08
3.67713e-13
1.27954e-07
4.03563e-13
1.81161e-07
4.57859e-13
2.55981e-07
5.48613e-13
3.6098e-07
7.07025e-13
5.08007e-07
9.85295e-13
7.13394e-07
1.46845e-12
9.99579e-07
2.29291e-12
1.39727e-06
3.67492e-12
1.94833e-06
5.9547e-12
2.70956e-06
9.66587e-12
3.75768e-06
1.56423e-11
5.19576e-06
2.5185e-11
7.16149e-06
4.03269e-11
9.83762e-06
6.41888e-11
1.34651e-05
1.01663e-10
1.8359e-05
1.6026e-10
2.49278e-05
2.5151e-10
3.36962e-05
3.93032e-10
4.533e-05
6.11552e-10
6.06637e-05
9.47317e-10
8.07275e-05
1.46039e-09
0.000106771
2.23969e-09
0.000140275
3.4153e-09
0.000182952
5.17524e-09
0.000236711
7.78715e-09
0.000303586
1.16255e-08
0.000385594
1.72025e-08
0.000484526
2.51949e-08
0.000601626
3.64622e-08
0.000737166
5.20191e-08
0.000889913
7.28214e-08
0.00105652
9.94773e-08
0.00123096
1.31485e-07
0.00140408
1.64912e-07
0.00156378
1.89886e-07
0.00169593
1.78781e-07
0.00178699
9.45013e-08
0.0018288
6.57177e-08
0.00182369
1.52166e-07
0.00179988
7.94023e-07
0.00180892
1.80469e-06
0.00172476
-7.64162e-07
0.00175181
-6.73721e-07
0.00177597
2.34732e-08
0.00176736
2.23192e-09
0.00170959
2.13856e-08
0.00160332
2.3381e-08
0.00145925
3.23926e-09
0.00129218
-7.47145e-09
0.00111661
-1.12208e-08
0.000944402
-1.17037e-08
0.000783889
-1.00957e-08
0.000640055
-7.866e-09
0.000515139
-5.67144e-09
0.000409377
-3.88377e-09
0.000321698
-2.56374e-09
0.000250285
-1.63941e-09
0.000192993
-1.0149e-09
0.000147623
-6.07401e-10
0.000112102
-3.49311e-10
8.45674e-05
-1.90522e-10
6.34125e-05
-9.65471e-11
4.72877e-05
-4.30006e-11
3.50843e-05
-1.37631e-11
2.59084e-05
1.54035e-12
1.90494e-05
7.71309e-12
1.39498e-05
9.49075e-12
1.01771e-05
9.31624e-12
7.39865e-06
8.28597e-12
5.36111e-06
6.94048e-12
3.87275e-06
5.59834e-12
2.7895e-06
4.40431e-12
2.00377e-06
3.40291e-12
1.43567e-06
2.58217e-12
1.02613e-06
1.92731e-12
7.31731e-07
1.41123e-12
5.20655e-07
9.92472e-13
3.69694e-07
6.58466e-13
2.61976e-07
3.94009e-13
1.85282e-07
1.84899e-13
1.30783e-07
2.15626e-14
9.21233e-08
-1.03358e-13
6.47363e-08
-1.95979e-13
4.53481e-08
-2.61631e-13
3.16144e-08
-3.05115e-13
2.18564e-08
-3.30869e-13
1.48684e-08
-3.4292e-13
9.77815e-09
-3.44846e-13
5.94362e-09
-3.39744e-13
2.87661e-09
-3.30142e-13
-3.17871e-13
2.82592e-09
1.68858e-13
5.83668e-09
2.09249e-13
9.59906e-09
2.26989e-13
1.45908e-08
2.38219e-13
2.14396e-08
2.46136e-13
3.09975e-08
2.51375e-13
4.44414e-08
2.54245e-13
6.34088e-08
2.55424e-13
9.01839e-08
2.56916e-13
1.27954e-07
2.6304e-13
1.81161e-07
2.81997e-13
2.55981e-07
3.27981e-13
3.60981e-07
4.24369e-13
5.08009e-07
6.08614e-13
7.13397e-07
9.39242e-13
9.99585e-07
1.50677e-12
1.39728e-06
2.45033e-12
1.94835e-06
3.98459e-12
2.70958e-06
6.44235e-12
3.75772e-06
1.03413e-11
5.19582e-06
1.64932e-11
7.16158e-06
2.61454e-11
9.83777e-06
4.12599e-11
1.34653e-05
6.48776e-11
1.83593e-05
1.01699e-10
2.49284e-05
1.58919e-10
3.3697e-05
2.47584e-10
4.53313e-05
3.84426e-10
6.06657e-05
5.9461e-10
8.07305e-05
9.15667e-10
0.000106775
1.40308e-09
0.000140282
2.13809e-09
0.000182962
3.23833e-09
0.000236726
4.87169e-09
0.000303607
7.2736e-09
0.000385625
1.07692e-08
0.00048457
1.57956e-08
0.000601686
2.29341e-08
0.000737247
3.29328e-08
0.000890017
4.67697e-08
0.00105665
6.54424e-08
0.00123109
9.07415e-08
0.00140419
1.24241e-07
0.00156375
1.63708e-07
0.00169553
2.1302e-07
0.00178595
2.95986e-07
0.00182703
3.99388e-07
0.00182222
3.65251e-07
0.00180086
-6.92069e-07
0.00180166
-1.63684e-06
0.00173241
9.4226e-07
0.00175408
5.2362e-07
0.00177501
3.37312e-08
0.00176684
7.24618e-08
0.00170927
-1.98501e-08
0.00160312
-3.80446e-08
0.00145915
-3.10341e-08
0.00129214
-2.37543e-08
0.0011166
-1.80381e-08
0.000944406
-1.2548e-08
0.000783897
-8.90777e-09
0.000640064
-6.13451e-09
0.000515146
-4.10247e-09
0.000409382
-2.7487e-09
0.000321701
-1.7925e-09
0.000250287
-1.15405e-09
0.000192994
-7.31074e-10
0.000147624
-4.53187e-10
0.000112103
-2.74098e-10
8.45678e-05
-1.61135e-10
6.34127e-05
-9.14155e-11
4.72878e-05
-4.94067e-11
3.50844e-05
-2.47875e-11
2.59084e-05
-1.08323e-11
1.90494e-05
-3.34194e-12
1.39498e-05
4.59129e-13
1.01771e-05
1.99695e-12
7.39864e-06
2.42488e-12
5.36111e-06
2.43544e-12
3.87275e-06
2.19829e-12
2.78949e-06
1.88614e-12
2.00377e-06
1.53774e-12
1.43566e-06
1.22204e-12
1.02613e-06
9.43889e-13
7.3173e-07
7.07314e-13
5.20654e-07
4.99191e-13
3.69693e-07
3.24881e-13
2.61976e-07
1.79219e-13
1.85281e-07
5.92148e-14
1.30782e-07
-3.75828e-14
9.21229e-08
-1.13432e-13
6.4736e-08
-1.70542e-13
4.5348e-08
-2.11277e-13
3.16143e-08
-2.38034e-13
2.18564e-08
-2.53277e-13
1.48684e-08
-2.59364e-13
9.77817e-09
-2.58502e-13
5.94366e-09
-2.52647e-13
2.87666e-09
-2.43411e-13
-2.31879e-13
2.8261e-09
5.83676e-09
9.59911e-09
1.45909e-08
2.14396e-08
3.09975e-08
4.44415e-08
6.34088e-08
9.0184e-08
1.27954e-07
1.81162e-07
2.55982e-07
3.60982e-07
5.0801e-07
7.13399e-07
9.99588e-07
1.39729e-06
1.94835e-06
2.7096e-06
3.75774e-06
5.19586e-06
7.16164e-06
9.83786e-06
1.34655e-05
1.83595e-05
2.49287e-05
3.36976e-05
4.53321e-05
6.06669e-05
8.07324e-05
0.000106778
0.000140286
0.000182968
0.000236736
0.000303621
0.000385645
0.000484598
0.000601725
0.000737301
0.00089009
0.00105675
0.00123122
0.00140436
0.00156398
0.00169593
0.00178671
0.00182822
0.00182232
0.00179869
0.00181049
0.0017251
0.00175146
0.00177539
0.00176698
0.00170938
0.00160322
0.00145921
0.00129217
0.00111663
0.000944422
0.000783908
0.000640071
0.000515152
0.000409386
0.000321704
0.000250289
0.000192995
0.000147625
0.000112103
8.45681e-05
6.34129e-05
4.72879e-05
3.50844e-05
2.59085e-05
1.90494e-05
1.39498e-05
1.01771e-05
7.39864e-06
5.36111e-06
3.87274e-06
2.78949e-06
2.00377e-06
1.43566e-06
1.02613e-06
7.31729e-07
5.20653e-07
3.69692e-07
2.61975e-07
1.85281e-07
1.30782e-07
9.21227e-08
6.47359e-08
4.53479e-08
3.16143e-08
2.18563e-08
1.48684e-08
9.7782e-09
5.9437e-09
2.87671e-09
)
;

boundaryField
{
    sides1
    {
        type            calculated;
        value           nonuniform List<scalar> 
20
(
1.83778e-10
1.83706e-10
1.83692e-10
1.83687e-10
1.83691e-10
1.83704e-10
1.83724e-10
1.83749e-10
1.83775e-10
1.83799e-10
-1.81737e-10
-1.81735e-10
-1.81722e-10
-1.8171e-10
-1.81704e-10
-1.81705e-10
-1.81716e-10
-1.81736e-10
-1.81766e-10
-1.81835e-10
)
;
    }
    sides2
    {
        type            calculated;
        value           uniform 0;
    }
    empty
    {
        type            empty;
        value           nonuniform 0();
    }
}


// ************************************************************************* //
