/*--------------------------------*- C++ -*----------------------------------*\
| =========                 |                                                 |
| \\      /  F ield         | OpenFOAM: The Open Source CFD Toolbox           |
|  \\    /   O peration     | Version:  3.0.1                                 |
|   \\  /    A nd           | Web:      www.OpenFOAM.org                      |
|    \\/     M anipulation  |                                                 |
\*---------------------------------------------------------------------------*/
FoamFile
{
    version     2.0;
    format      ascii;
    class       volScalarField;
    location    "0.00015";
    object      p;
}
// * * * * * * * * * * * * * * * * * * * * * * * * * * * * * * * * * * * * * //

dimensions      [1 -1 -2 0 0 0 0];

internalField   nonuniform List<scalar> 
1000
(
68970
68970
68970
68970
68970
68970
68970
68970
68970
68970
68970
68970
68970
68969.9
68969.9
68969.8
68969.6
68969.2
68968.6
68967.4
68965.1
68961.2
68954.3
68942.4
68922.4
68889.4
68836.6
68754
68628.9
68446
68188.6
67841.7
67396.6
66857
66245.6
65607.3
65011.3
64517.8
64199
63988.8
63900.1
63846.2
63800.7
63781
63768.4
63760.2
63753.1
63753.7
63749.9
63755.1
63730
63737.1
63721
63724.9
63722.8
63722.2
63720.7
63714
63698.5
63680.2
63640.7
63552.9
63435.7
63156
62738.3
62180.8
61554.5
60937.8
60394.9
59957.4
59628.7
59395.2
59236.7
59133.1
59067.5
59027.1
59002.8
58988.6
58980.3
58975.7
58973.1
58971.6
58970.9
58970.5
58970.2
58970.1
58970.1
58970
58970
58970
58970
58970
58970
58970
58970
58970
58970
58970
58970
58970
68970
68970
68970
68970
68970
68970
68970
68970
68970
68970
68970
68970
68970
68969.9
68969.9
68969.8
68969.6
68969.2
68968.6
68967.4
68965.1
68961.2
68954.3
68942.4
68922.4
68889.5
68836.6
68754
68629
68446.2
68188.8
67842
67396.9
66857.4
66245.8
65607.1
65010.5
64516.4
64196.8
63986.1
63898.1
63843.9
63799.1
63780.2
63768.1
63760
63752.2
63751.8
63747
63745.9
63736.4
63731.7
63727.3
63729.2
63726.3
63724.7
63721.7
63714.8
63698.9
63680.8
63642.4
63555.1
63438.1
63158.2
62739.8
62181.8
61554.9
60937.8
60394.7
59957.1
59628.4
59395
59236.6
59133
59067.4
59027.1
59002.8
58988.6
58980.3
58975.7
58973.1
58971.6
58970.9
58970.5
58970.2
58970.1
58970.1
58970
58970
58970
58970
58970
58970
58970
58970
58970
58970
58970
58970
58970
68970
68970
68970
68970
68970
68970
68970
68970
68970
68970
68970
68970
68970
68969.9
68969.9
68969.8
68969.6
68969.2
68968.6
68967.4
68965.2
68961.2
68954.3
68942.4
68922.4
68889.5
68836.7
68754.1
68629.2
68446.4
68189.1
67842.3
67397.2
66857.5
66245.6
65606.4
65009
64513.8
64193.9
63983.2
63896.2
63843.9
63799.6
63781.8
63770.9
63764.3
63757.3
63756.1
63750.6
63756.6
63729.5
63738.7
63723.3
63726.6
63724.3
63723.6
63721.2
63713.5
63697.6
63680.1
63641.9
63555.6
63440.6
63161
62742.4
62183.5
61555.8
60938.2
60394.7
59956.9
59628.2
59394.8
59236.4
59132.9
59067.4
59027
59002.8
58988.5
58980.3
58975.7
58973.1
58971.6
58970.9
58970.5
58970.2
58970.1
58970.1
58970
58970
58970
58970
58970
58970
58970
58970
58970
58970
58970
58970
58970
68970
68970
68970
68970
68970
68970
68970
68970
68970
68970
68970
68970
68970
68969.9
68969.9
68969.8
68969.6
68969.3
68968.6
68967.4
68965.2
68961.2
68954.3
68942.5
68922.5
68889.6
68836.8
68754.3
68629.4
68446.7
68189.5
67842.8
67397.7
66857.9
66245.7
65605.9
65007.2
64511
64190.8
63980.2
63894.6
63842.6
63798.6
63781.2
63770.8
63763.7
63756.4
63754.3
63747.5
63743.7
63733.9
63732.3
63726.2
63728
63725
63723.6
63720.1
63713.1
63698
63681
63643.7
63558.1
63443.7
63164.2
62745.1
62185.4
61556.6
60938.3
60394.4
59956.5
59627.8
59394.4
59236.1
59132.7
59067.2
59026.9
59002.7
58988.5
58980.3
58975.6
58973.1
58971.6
58970.9
58970.4
58970.2
58970.1
58970.1
58970
58970
58970
58970
58970
58970
58970
58970
58970
58970
58970
58970
58970
68970
68970
68970
68970
68970
68970
68970
68970
68970
68970
68970
68970
68970
68969.9
68969.9
68969.8
68969.6
68969.3
68968.6
68967.4
68965.2
68961.2
68954.3
68942.5
68922.5
68889.6
68836.9
68754.4
68629.6
68447
68189.9
67843.2
67398.2
66858.2
66245.7
65605.2
65005.8
64508.4
64187.6
63976.7
63892.1
63840.8
63796.9
63780.1
63770.5
63764.1
63757.6
63757.4
63753.2
63754.5
63738.7
63733.8
63724.9
63726.7
63723.3
63721.6
63718.5
63711.5
63696.7
63680.8
63645
63560.4
63446.8
63167.5
62747.6
62187
61557.6
60938.5
60394.2
59956.2
59627.4
59394.1
59235.9
59132.5
59067.1
59026.9
59002.7
58988.5
58980.3
58975.6
58973
58971.6
58970.9
58970.4
58970.2
58970.1
58970.1
58970
58970
58970
58970
58970
58970
58970
58970
58970
58970
58970
58970
58970
68970
68970
68970
68970
68970
68970
68970
68970
68970
68970
68970
68970
68970
68969.9
68969.9
68969.8
68969.6
68969.3
68968.6
68967.4
68965.2
68961.2
68954.3
68942.5
68922.5
68889.7
68836.9
68754.6
68629.8
68447.2
68190.2
67843.6
67398.7
66858.7
66246
65605.2
65005.2
64507.1
64185.8
63974.4
63889.8
63838.6
63794.8
63778.3
63769
63762.8
63756.5
63756.4
63750.9
63752.5
63736.8
63734.8
63724.6
63726.4
63723
63721.6
63719.1
63712.8
63698.3
63683
63647.6
63563
63449.4
63169.5
62749
62187.7
61557.7
60938.3
60393.9
59955.8
59627.1
59393.8
59235.7
59132.4
59067
59026.8
59002.6
58988.4
58980.3
58975.6
58973
58971.6
58970.9
58970.4
58970.2
58970.1
58970.1
58970
58970
58970
58970
58970
58970
58970
58970
58970
58970
58970
58970
58970
68970
68970
68970
68970
68970
68970
68970
68970
68970
68970
68970
68970
68970
68969.9
68969.9
68969.8
68969.6
68969.3
68968.6
68967.4
68965.2
68961.2
68954.3
68942.5
68922.6
68889.7
68837
68754.6
68629.9
68447.4
68190.5
67844
67399
66859.1
66246.3
65605.4
65005.4
64507.3
64185.8
63974.4
63888.9
63837.4
63793.6
63776.7
63766.8
63760.1
63753
63753
63748.1
63748
63736.3
63733.8
63726.6
63727.2
63723.8
63723
63720.6
63714.4
63700.2
63684.6
63648.6
63563.5
63449.5
63169.4
62749
62187.8
61557.8
60938.2
60393.7
59955.5
59626.8
59393.6
59235.5
59132.2
59066.9
59026.7
59002.6
58988.4
58980.2
58975.6
58973
58971.6
58970.9
58970.4
58970.2
58970.1
58970.1
58970
58970
58970
58970
58970
58970
58970
58970
58970
58970
58970
58970
58970
68970
68970
68970
68970
68970
68970
68970
68970
68970
68970
68970
68970
68970
68969.9
68969.9
68969.8
68969.6
68969.3
68968.6
68967.4
68965.2
68961.2
68954.4
68942.5
68922.6
68889.7
68837
68754.7
68630
68447.5
68190.6
67844.2
67399.3
66859.4
66246.7
65605.8
65005.8
64507.8
64186.4
63974.9
63888.9
63837.4
63793.5
63776.7
63766.6
63760
63753.3
63753.4
63748.5
63755.6
63728.3
63737.5
63721.4
63725.5
63723.4
63722.9
63721.2
63715.4
63700.8
63685
63648.2
63562.9
63448.9
63168.8
62748.7
62187.6
61557.6
60938
60393.5
59955.4
59626.7
59393.5
59235.4
59132.2
59066.9
59026.7
59002.6
58988.4
58980.2
58975.6
58973
58971.6
58970.9
58970.4
58970.2
58970.1
58970.1
58970
58970
58970
58970
58970
58970
58970
58970
58970
58970
58970
58970
58970
68970
68970
68970
68970
68970
68970
68970
68970
68970
68970
68970
68970
68970
68969.9
68969.9
68969.8
68969.6
68969.3
68968.6
68967.4
68965.2
68961.2
68954.4
68942.5
68922.6
68889.8
68837.1
68754.7
68630
68447.6
68190.7
67844.3
67399.4
66859.5
66246.9
65606.1
65006.3
64508.5
64186.9
63975.3
63889.2
63836.9
63792.9
63775.6
63765.3
63758.4
63751.7
63751.7
63746.6
63747.2
63736
63733.2
63726.8
63728.4
63725.8
63724.6
63722.3
63716
63701.3
63685.2
63648.5
63562.9
63448.4
63168.3
62748.2
62187.3
61557.4
60938
60393.4
59955.3
59626.6
59393.4
59235.3
59132.1
59066.8
59026.7
59002.6
58988.4
58980.2
58975.6
58973
58971.6
58970.9
58970.4
58970.2
58970.1
58970.1
58970
58970
58970
58970
58970
58970
58970
58970
58970
58970
58970
58970
58970
68970
68970
68970
68970
68970
68970
68970
68970
68970
68970
68970
68970
68970
68969.9
68969.9
68969.8
68969.6
68969.3
68968.6
68967.4
68965.2
68961.2
68954.4
68942.5
68922.6
68889.8
68837.1
68754.7
68630.1
68447.6
68190.7
67844.3
67399.4
66859.6
66247
65606.2
65006.4
64508.6
64187.4
63975.8
63889.7
63837.6
63793.1
63775.6
63765.4
63759.1
63753
63752.9
63747.8
63749.5
63734.7
63734
63725.1
63727.9
63725.7
63724.8
63722.3
63715.6
63700.8
63684.5
63647.9
63562.4
63447.7
63167.9
62747.9
62187.1
61557.3
60937.9
60393.4
59955.3
59626.6
59393.4
59235.3
59132.1
59066.8
59026.7
59002.6
58988.4
58980.2
58975.6
58973
58971.6
58970.9
58970.4
58970.2
58970.1
58970.1
58970
58970
58970
58970
58970
58970
58970
58970
58970
58970
58970
58970
58970
)
;

boundaryField
{
    sides1
    {
        type            zeroGradient;
    }
    sides2
    {
        type            slip;
    }
    empty
    {
        type            empty;
    }
}


// ************************************************************************* //
