/*--------------------------------*- C++ -*----------------------------------*\
| =========                 |                                                 |
| \\      /  F ield         | OpenFOAM: The Open Source CFD Toolbox           |
|  \\    /   O peration     | Version:  3.0.1                                 |
|   \\  /    A nd           | Web:      www.OpenFOAM.org                      |
|    \\/     M anipulation  |                                                 |
\*---------------------------------------------------------------------------*/
FoamFile
{
    version     2.0;
    format      ascii;
    class       volScalarField;
    location    "0.00015";
    object      rho;
}
// * * * * * * * * * * * * * * * * * * * * * * * * * * * * * * * * * * * * * //

dimensions      [1 -3 0 0 0 0 0];

internalField   nonuniform List<scalar> 
1000
(
0.83124
0.83124
0.83124
0.83124
0.83124
0.83124
0.83124
0.83124
0.83124
0.83124
0.83124
0.83124
0.83124
0.831239
0.831239
0.831238
0.831236
0.831232
0.831225
0.831212
0.831188
0.831147
0.831074
0.83095
0.830743
0.830403
0.829863
0.829027
0.827774
0.825962
0.823443
0.820098
0.815879
0.810868
0.805331
0.79974
0.794771
0.790912
0.788744
0.787365
0.786867
0.786514
0.786264
0.786046
0.786028
0.785936
0.785945
0.785897
0.785864
0.784176
0.774026
0.759512
0.752304
0.751261
0.751249
0.751229
0.751246
0.751159
0.751106
0.751013
0.750734
0.750253
0.749752
0.747976
0.745021
0.740624
0.735313
0.729796
0.724752
0.720572
0.717365
0.71505
0.713457
0.712405
0.711733
0.711316
0.711064
0.710914
0.710828
0.710778
0.710751
0.710736
0.710727
0.710723
0.71072
0.710719
0.710719
0.710718
0.710718
0.710718
0.710718
0.710718
0.710718
0.710718
0.710718
0.710718
0.710718
0.710718
0.710718
0.710718
0.83124
0.83124
0.83124
0.83124
0.83124
0.83124
0.83124
0.83124
0.83124
0.83124
0.83124
0.83124
0.83124
0.831239
0.831239
0.831238
0.831236
0.831232
0.831225
0.831212
0.831188
0.831147
0.831074
0.83095
0.830743
0.830404
0.829864
0.829028
0.827775
0.825963
0.823445
0.820101
0.815883
0.810871
0.805332
0.799737
0.794761
0.790897
0.788723
0.787341
0.786851
0.786499
0.786252
0.786044
0.786027
0.785935
0.785936
0.785922
0.785796
0.783621
0.773933
0.760047
0.752581
0.751306
0.751272
0.751258
0.751261
0.751168
0.751108
0.751016
0.750745
0.750268
0.749772
0.747997
0.745036
0.740634
0.735318
0.729797
0.72475
0.72057
0.717363
0.715048
0.713456
0.712404
0.711733
0.711316
0.711063
0.710914
0.710828
0.710778
0.710751
0.710736
0.710727
0.710723
0.71072
0.710719
0.710719
0.710718
0.710718
0.710718
0.710718
0.710718
0.710718
0.710718
0.710718
0.710718
0.710718
0.710718
0.710718
0.710718
0.83124
0.83124
0.83124
0.83124
0.83124
0.83124
0.83124
0.83124
0.83124
0.83124
0.83124
0.83124
0.83124
0.831239
0.831239
0.831238
0.831236
0.831232
0.831225
0.831212
0.831188
0.831147
0.831074
0.83095
0.830743
0.830404
0.829864
0.829029
0.827777
0.825965
0.823448
0.820104
0.815885
0.810871
0.805329
0.799729
0.794746
0.790872
0.788698
0.787318
0.78684
0.786504
0.786264
0.786058
0.786056
0.785974
0.785979
0.785915
0.785898
0.784229
0.774052
0.759506
0.752263
0.751272
0.751264
0.751243
0.751253
0.751157
0.751097
0.751008
0.750734
0.750267
0.74979
0.748021
0.745061
0.740652
0.735328
0.729802
0.724752
0.720568
0.717361
0.715046
0.713454
0.712403
0.711732
0.711315
0.711063
0.710914
0.710827
0.710778
0.710751
0.710735
0.710727
0.710723
0.71072
0.710719
0.710719
0.710718
0.710718
0.710718
0.710718
0.710718
0.710718
0.710718
0.710718
0.710718
0.710718
0.710718
0.710718
0.710718
0.83124
0.83124
0.83124
0.83124
0.83124
0.83124
0.83124
0.83124
0.83124
0.83124
0.83124
0.83124
0.83124
0.831239
0.831239
0.831238
0.831236
0.831232
0.831225
0.831212
0.831188
0.831147
0.831074
0.83095
0.830743
0.830405
0.829865
0.82903
0.827779
0.825968
0.823451
0.820108
0.815889
0.810874
0.805328
0.799721
0.794724
0.790842
0.78867
0.787295
0.786829
0.786499
0.786259
0.786059
0.786056
0.78597
0.785975
0.785935
0.785784
0.783629
0.77389
0.759973
0.75254
0.751296
0.751263
0.751249
0.751247
0.75115
0.751095
0.751012
0.750744
0.750282
0.749814
0.748049
0.745086
0.740672
0.735338
0.729805
0.72475
0.720565
0.717357
0.715043
0.713452
0.712401
0.711731
0.711314
0.711063
0.710914
0.710827
0.710778
0.710751
0.710735
0.710727
0.710723
0.71072
0.710719
0.710719
0.710718
0.710718
0.710718
0.710718
0.710718
0.710718
0.710718
0.710718
0.710718
0.710718
0.710718
0.710718
0.710718
0.83124
0.83124
0.83124
0.83124
0.83124
0.83124
0.83124
0.83124
0.83124
0.83124
0.83124
0.83124
0.83124
0.831239
0.831239
0.831238
0.831236
0.831232
0.831225
0.831212
0.831188
0.831147
0.831074
0.830951
0.830744
0.830405
0.829866
0.829032
0.827781
0.825971
0.823455
0.820112
0.815893
0.810876
0.805326
0.799712
0.794709
0.790816
0.788641
0.787265
0.786811
0.786487
0.786249
0.786053
0.786059
0.785979
0.785989
0.785967
0.785837
0.783715
0.773896
0.759955
0.752527
0.751282
0.751248
0.751225
0.751229
0.751135
0.751079
0.751005
0.750749
0.750297
0.749841
0.748079
0.745111
0.740689
0.73535
0.729809
0.724749
0.720563
0.717354
0.71504
0.713449
0.7124
0.711729
0.711314
0.711062
0.710913
0.710827
0.710778
0.710751
0.710735
0.710727
0.710723
0.71072
0.710719
0.710719
0.710718
0.710718
0.710718
0.710718
0.710718
0.710718
0.710718
0.710718
0.710718
0.710718
0.710718
0.710718
0.710718
0.83124
0.83124
0.83124
0.83124
0.83124
0.83124
0.83124
0.83124
0.83124
0.83124
0.83124
0.83124
0.83124
0.831239
0.831239
0.831238
0.831236
0.831232
0.831225
0.831212
0.831188
0.831147
0.831075
0.830951
0.830744
0.830406
0.829867
0.829033
0.827783
0.825973
0.823458
0.820116
0.815897
0.810879
0.805328
0.799711
0.794701
0.790802
0.788623
0.787244
0.786791
0.786469
0.786231
0.786038
0.786047
0.785969
0.785983
0.785962
0.78582
0.783702
0.773873
0.759954
0.752521
0.751282
0.751242
0.751228
0.751235
0.751142
0.751091
0.751022
0.75077
0.750319
0.749864
0.748098
0.745125
0.740697
0.735351
0.729808
0.724747
0.72056
0.717351
0.715037
0.713447
0.712398
0.711728
0.711313
0.711062
0.710913
0.710827
0.710778
0.710751
0.710735
0.710727
0.710723
0.71072
0.710719
0.710719
0.710718
0.710718
0.710718
0.710718
0.710718
0.710718
0.710718
0.710718
0.710718
0.710718
0.710718
0.710718
0.710718
0.83124
0.83124
0.83124
0.83124
0.83124
0.83124
0.83124
0.83124
0.83124
0.83124
0.83124
0.83124
0.83124
0.831239
0.831239
0.831238
0.831236
0.831232
0.831225
0.831212
0.831188
0.831147
0.831075
0.830951
0.830744
0.830406
0.829868
0.829034
0.827784
0.825975
0.823461
0.820119
0.8159
0.810883
0.805331
0.799712
0.794702
0.790804
0.788622
0.787243
0.78678
0.786455
0.786217
0.786022
0.786025
0.78594
0.785949
0.78596
0.785837
0.78364
0.77383
0.759954
0.752545
0.751293
0.751254
0.751239
0.751246
0.751156
0.751108
0.751037
0.750782
0.750326
0.749866
0.748098
0.745126
0.740699
0.735353
0.729808
0.724745
0.720557
0.717349
0.715035
0.713446
0.712397
0.711727
0.711312
0.711061
0.710913
0.710827
0.710778
0.71075
0.710735
0.710727
0.710723
0.71072
0.710719
0.710719
0.710718
0.710718
0.710718
0.710718
0.710718
0.710718
0.710718
0.710718
0.710718
0.710718
0.710718
0.710718
0.710718
0.83124
0.83124
0.83124
0.83124
0.83124
0.83124
0.83124
0.83124
0.83124
0.83124
0.83124
0.83124
0.83124
0.831239
0.831239
0.831238
0.831236
0.831232
0.831225
0.831212
0.831188
0.831147
0.831075
0.830951
0.830744
0.830406
0.829868
0.829035
0.827785
0.825976
0.823462
0.820121
0.815903
0.810886
0.805334
0.799716
0.794707
0.790808
0.788627
0.787244
0.786778
0.786451
0.786217
0.786018
0.786022
0.785938
0.785946
0.785896
0.785882
0.784223
0.77405
0.759504
0.752245
0.75126
0.751252
0.751234
0.751249
0.751166
0.751117
0.751043
0.750781
0.750323
0.749861
0.748092
0.745122
0.740696
0.735351
0.729806
0.724744
0.720556
0.717347
0.715034
0.713445
0.712396
0.711727
0.711312
0.711061
0.710913
0.710827
0.710778
0.71075
0.710735
0.710727
0.710723
0.71072
0.710719
0.710719
0.710718
0.710718
0.710718
0.710718
0.710718
0.710718
0.710718
0.710718
0.710718
0.710718
0.710718
0.710718
0.710718
0.83124
0.83124
0.83124
0.83124
0.83124
0.83124
0.83124
0.83124
0.83124
0.83124
0.83124
0.83124
0.83124
0.831239
0.831239
0.831238
0.831236
0.831232
0.831225
0.831212
0.831188
0.831147
0.831075
0.830951
0.830745
0.830407
0.829868
0.829035
0.827785
0.825977
0.823463
0.820122
0.815904
0.810887
0.805336
0.799719
0.794711
0.790815
0.78863
0.787247
0.786779
0.786447
0.786207
0.786009
0.786009
0.785927
0.785937
0.785921
0.785791
0.783625
0.773872
0.760005
0.75256
0.751299
0.751268
0.751255
0.751264
0.751173
0.751121
0.751046
0.750785
0.750325
0.749858
0.748088
0.745118
0.740693
0.735349
0.729805
0.724743
0.720555
0.717346
0.715033
0.713444
0.712396
0.711727
0.711312
0.711061
0.710913
0.710827
0.710778
0.71075
0.710735
0.710727
0.710723
0.71072
0.710719
0.710719
0.710718
0.710718
0.710718
0.710718
0.710718
0.710718
0.710718
0.710718
0.710718
0.710718
0.710718
0.710718
0.710718
0.83124
0.83124
0.83124
0.83124
0.83124
0.83124
0.83124
0.83124
0.83124
0.83124
0.83124
0.83124
0.83124
0.831239
0.831239
0.831238
0.831236
0.831232
0.831225
0.831212
0.831188
0.831147
0.831075
0.830951
0.830745
0.830407
0.829868
0.829035
0.827785
0.825977
0.823463
0.820122
0.815904
0.810888
0.805337
0.79972
0.794713
0.790816
0.788636
0.787253
0.786783
0.786451
0.78621
0.786008
0.786011
0.785931
0.78595
0.785918
0.78578
0.783698
0.773854
0.759979
0.752562
0.751292
0.751266
0.75125
0.751261
0.751171
0.751118
0.75104
0.750781
0.750321
0.749852
0.748084
0.745114
0.740692
0.735349
0.729805
0.724743
0.720555
0.717346
0.715033
0.713444
0.712395
0.711726
0.711312
0.711061
0.710913
0.710827
0.710778
0.71075
0.710735
0.710727
0.710723
0.71072
0.710719
0.710719
0.710718
0.710718
0.710718
0.710718
0.710718
0.710718
0.710718
0.710718
0.710718
0.710718
0.710718
0.710718
0.710718
)
;

boundaryField
{
    sides1
    {
        type            calculated;
        value           nonuniform List<scalar> 
20
(
0.710718
0.710718
0.710718
0.710718
0.710718
0.710718
0.710718
0.710718
0.710718
0.710718
0.83124
0.83124
0.83124
0.83124
0.83124
0.83124
0.83124
0.83124
0.83124
0.83124
)
;
    }
    sides2
    {
        type            calculated;
        value           nonuniform List<scalar> 
200
(
0.83124
0.83124
0.83124
0.83124
0.83124
0.83124
0.83124
0.83124
0.83124
0.83124
0.83124
0.83124
0.83124
0.831239
0.831239
0.831238
0.831236
0.831232
0.831225
0.831212
0.831188
0.831147
0.831074
0.83095
0.830743
0.830403
0.829863
0.829027
0.827774
0.825962
0.823443
0.820098
0.815879
0.810868
0.805331
0.79974
0.794771
0.790912
0.788744
0.787365
0.786867
0.786514
0.786264
0.786046
0.786028
0.785936
0.785945
0.785897
0.785864
0.784176
0.774026
0.759512
0.752304
0.751261
0.751249
0.751229
0.751246
0.751159
0.751106
0.751013
0.750734
0.750253
0.749752
0.747976
0.745021
0.740624
0.735313
0.729796
0.724752
0.720572
0.717365
0.71505
0.713457
0.712405
0.711733
0.711316
0.711064
0.710914
0.710828
0.710778
0.710751
0.710736
0.710727
0.710723
0.71072
0.710719
0.710719
0.710718
0.710718
0.710718
0.710718
0.710718
0.710718
0.710718
0.710718
0.710718
0.710718
0.710718
0.710718
0.710718
0.83124
0.83124
0.83124
0.83124
0.83124
0.83124
0.83124
0.83124
0.83124
0.83124
0.83124
0.83124
0.83124
0.831239
0.831239
0.831238
0.831236
0.831232
0.831225
0.831212
0.831188
0.831147
0.831075
0.830951
0.830745
0.830407
0.829868
0.829035
0.827785
0.825977
0.823463
0.820122
0.815904
0.810888
0.805337
0.79972
0.794713
0.790816
0.788636
0.787253
0.786783
0.786451
0.78621
0.786008
0.786011
0.785931
0.78595
0.785918
0.78578
0.783698
0.773854
0.759979
0.752562
0.751292
0.751266
0.75125
0.751261
0.751171
0.751118
0.75104
0.750781
0.750321
0.749852
0.748084
0.745114
0.740692
0.735349
0.729805
0.724743
0.720555
0.717346
0.715033
0.713444
0.712395
0.711726
0.711312
0.711061
0.710913
0.710827
0.710778
0.71075
0.710735
0.710727
0.710723
0.71072
0.710719
0.710719
0.710718
0.710718
0.710718
0.710718
0.710718
0.710718
0.710718
0.710718
0.710718
0.710718
0.710718
0.710718
0.710718
)
;
    }
    empty
    {
        type            empty;
    }
}


// ************************************************************************* //
