/*--------------------------------*- C++ -*----------------------------------*\
| =========                 |                                                 |
| \\      /  F ield         | OpenFOAM: The Open Source CFD Toolbox           |
|  \\    /   O peration     | Version:  3.0.1                                 |
|   \\  /    A nd           | Web:      www.OpenFOAM.org                      |
|    \\/     M anipulation  |                                                 |
\*---------------------------------------------------------------------------*/
FoamFile
{
    version     2.0;
    format      ascii;
    class       volVectorField;
    location    "0.00015";
    object      U;
}
// * * * * * * * * * * * * * * * * * * * * * * * * * * * * * * * * * * * * * //

dimensions      [0 1 -1 0 0 0 0];

internalField   nonuniform List<vector> 
1000
(
(2.84045e-09 -3.50327e-13 0)
(3.22454e-08 -1.25534e-12 0)
(7.11689e-08 -2.86101e-12 0)
(1.54563e-07 -5.95556e-12 0)
(3.27672e-07 -1.31665e-11 0)
(6.89622e-07 -2.77926e-11 0)
(1.44191e-06 -5.94681e-11 0)
(2.99574e-06 -1.26293e-10 0)
(6.18299e-06 -2.67037e-10 0)
(1.26731e-05 -5.60757e-10 0)
(2.57875e-05 -1.17024e-09 0)
(5.20719e-05 -2.42847e-09 0)
(0.000104301 -4.99856e-09 0)
(0.000207138 -1.02226e-08 0)
(0.000407669 -2.07295e-08 0)
(0.000794678 -4.16883e-08 0)
(0.00153339 -8.30911e-08 0)
(0.00292687 -1.64026e-07 0)
(0.00552238 -3.20487e-07 0)
(0.0102913 -6.1945e-07 0)
(0.0189255 -1.18322e-06 0)
(0.0343096 -2.23211e-06 0)
(0.0612479 -4.15375e-06 0)
(0.10753 -7.61739e-06 0)
(0.185403 -1.37476e-05 0)
(0.313456 -2.43834e-05 0)
(0.518748 -4.2433e-05 0)
(0.838739 -7.22898e-05 0)
(1.32216 -0.000120325 0)
(2.02749 -0.000195154 0)
(3.01724 -0.00030755 0)
(4.34645 -0.000469614 0)
(6.04458 -0.000693282 0)
(8.0898 -0.0010029 0)
(10.3895 -0.00128519 0)
(12.7312 -0.00150513 0)
(14.9201 -0.00147927 0)
(16.4545 -0.00169639 0)
(17.7707 -0.000811528 0)
(18.0321 -0.000993061 0)
(18.6427 0.00135783 0)
(18.6962 0.000775663 0)
(18.8848 0.00290145 0)
(18.8633 0.00123095 0)
(18.9628 0.00385918 0)
(18.9435 0.00173833 0)
(18.9767 -0.00614308 0)
(18.9068 -0.0292016 0)
(18.9509 -0.0426928 0)
(18.733 -0.140179 0)
(18.075 0.0875436 0)
(18.2839 0.149059 0)
(18.7716 0.0409111 0)
(18.9277 0.0180429 0)
(18.8624 0.0260301 0)
(18.9483 0.0109966 0)
(18.8465 0.00109507 0)
(18.94 -0.0060133 0)
(18.8303 -0.00478336 0)
(18.85 -0.00460001 0)
(18.5572 -0.00313304 0)
(18.6003 -0.00245246 0)
(17.8513 -6.66605e-05 0)
(17.2191 0.000306176 0)
(15.6335 0.000956042 0)
(13.5965 0.00118384 0)
(11.1291 0.0012218 0)
(8.60396 0.00109327 0)
(6.30466 0.000970536 0)
(4.40829 0.000641272 0)
(2.96014 0.000427321 0)
(1.9198 0.000275089 0)
(1.2082 0.000171071 0)
(0.740597 0.000103148 0)
(0.443497 6.05265e-05 0)
(0.260082 3.46751e-05 0)
(0.149658 1.94487e-05 0)
(0.0846394 1.07031e-05 0)
(0.0471125 5.79052e-06 0)
(0.0258413 3.08471e-06 0)
(0.0139819 1.62038e-06 0)
(0.00746959 8.40255e-07 0)
(0.00394337 4.3063e-07 0)
(0.00205875 2.18291e-07 0)
(0.00106365 1.09551e-07 0)
(0.000544148 5.44599e-08 0)
(0.000275807 2.68424e-08 0)
(0.000138575 1.31201e-08 0)
(6.90488e-05 6.366e-09 0)
(3.41357e-05 3.06557e-09 0)
(1.675e-05 1.46747e-09 0)
(8.16085e-06 6.96908e-10 0)
(3.94925e-06 3.30144e-10 0)
(1.89882e-06 1.54658e-10 0)
(9.07294e-07 7.24548e-11 0)
(4.30741e-07 3.35983e-11 0)
(2.03038e-07 1.54846e-11 0)
(9.34356e-08 7.15329e-12 0)
(4.23083e-08 3.51689e-12 0)
(3.72439e-09 2.0316e-12 0)
(2.83899e-09 -7.91156e-12 0)
(3.22341e-08 -1.29621e-11 0)
(7.11454e-08 -2.60702e-11 0)
(1.54514e-07 -5.52057e-11 0)
(3.27562e-07 -1.18878e-10 0)
(6.89394e-07 -2.51973e-10 0)
(1.44142e-06 -5.35942e-10 0)
(2.99472e-06 -1.13045e-09 0)
(6.18085e-06 -2.37449e-09 0)
(1.26687e-05 -4.95304e-09 0)
(2.57783e-05 -1.02755e-08 0)
(5.20532e-05 -2.11554e-08 0)
(0.000104263 -4.32563e-08 0)
(0.000207062 -8.77266e-08 0)
(0.000407516 -1.76459e-07 0)
(0.000794377 -3.5176e-07 0)
(0.0015328 -6.94557e-07 0)
(0.00292573 -1.35746e-06 0)
(0.0055202 -2.62424e-06 0)
(0.0102872 -5.01381e-06 0)
(0.0189178 -9.45912e-06 0)
(0.0342956 -1.76028e-05 0)
(0.0612227 -3.22758e-05 0)
(0.107485 -5.82274e-05 0)
(0.185325 -0.000103196 0)
(0.313325 -0.000179333 0)
(0.518531 -0.000304901 0)
(0.83839 -0.000505866 0)
(1.32162 -0.00081629 0)
(2.02668 -0.00127588 0)
(3.0161 -0.00192122 0)
(4.34494 -0.002766 0)
(6.04272 -0.00376245 0)
(8.08786 -0.00472749 0)
(10.388 -0.00538749 0)
(12.7314 -0.00542556 0)
(14.9206 -0.00407186 0)
(16.4592 -0.00105116 0)
(17.7767 0.00427605 0)
(18.0379 0.0104501 0)
(18.6514 0.0139683 0)
(18.7008 0.0237886 0)
(18.8877 0.023394 0)
(18.8652 0.0307272 0)
(18.9622 0.0287595 0)
(18.9479 0.0256663 0)
(18.9997 0.0273582 0)
(18.9484 0.036067 0)
(18.9399 0.0459992 0)
(18.7947 0.103407 0)
(18.5226 0.00497726 0)
(18.5725 -0.0655501 0)
(18.7893 -0.0957778 0)
(18.9348 -0.0863431 0)
(18.8873 -0.0712058 0)
(18.9639 -0.0513631 0)
(18.8676 -0.0352222 0)
(18.9449 -0.0261349 0)
(18.834 -0.0242005 0)
(18.8542 -0.0221677 0)
(18.5619 -0.0214624 0)
(18.6074 -0.0163747 0)
(17.8613 -0.0128943 0)
(17.2255 -0.00710258 0)
(15.6391 -0.00138515 0)
(13.5986 0.00192725 0)
(11.1301 0.00387996 0)
(8.60321 0.00450638 0)
(6.30306 0.00407371 0)
(4.40664 0.00339913 0)
(2.95873 0.00252865 0)
(1.91874 0.00175102 0)
(1.20745 0.0011496 0)
(0.740105 0.000723566 0)
(0.443186 0.000439926 0)
(0.259893 0.00025978 0)
(0.149546 0.000149594 0)
(0.0845748 8.42722e-05 0)
(0.0470761 4.65589e-05 0)
(0.0258212 2.52792e-05 0)
(0.013971 1.35115e-05 0)
(0.00746377 7.11964e-06 0)
(0.00394031 3.70297e-06 0)
(0.00205716 1.90305e-06 0)
(0.00106283 9.67289e-07 0)
(0.000543734 4.86667e-07 0)
(0.000275599 2.42537e-07 0)
(0.000138471 1.19808e-07 0)
(6.89977e-05 5.86969e-08 0)
(3.41108e-05 2.8534e-08 0)
(1.67379e-05 1.37712e-08 0)
(8.15501e-06 6.60129e-09 0)
(3.94645e-06 3.14272e-09 0)
(1.89749e-06 1.48826e-09 0)
(9.06665e-07 6.99998e-10 0)
(4.30445e-07 3.2772e-10 0)
(2.029e-07 1.52917e-10 0)
(9.33731e-08 7.19426e-11 0)
(4.228e-08 3.55104e-11 0)
(3.72186e-09 2.1494e-11 0)
(2.83812e-09 -1.19987e-11 0)
(3.22143e-08 -2.0027e-11 0)
(7.11027e-08 -3.90615e-11 0)
(1.54417e-07 -8.23561e-11 0)
(3.27359e-07 -1.74697e-10 0)
(6.88961e-07 -3.70676e-10 0)
(1.44052e-06 -7.82164e-10 0)
(2.99282e-06 -1.64245e-09 0)
(6.17692e-06 -3.42629e-09 0)
(1.26606e-05 -7.11147e-09 0)
(2.57617e-05 -1.46457e-08 0)
(5.20195e-05 -2.99769e-08 0)
(0.000104195 -6.08585e-08 0)
(0.000206926 -1.22604e-07 0)
(0.000407248 -2.44814e-07 0)
(0.000793852 -4.84409e-07 0)
(0.00153178 -9.4897e-07 0)
(0.00292378 -1.8396e-06 0)
(0.00551653 -3.52562e-06 0)
(0.0102804 -6.67488e-06 0)
(0.0189053 -1.2471e-05 0)
(0.034273 -2.29693e-05 0)
(0.0611826 -4.16494e-05 0)
(0.107415 -7.42444e-05 0)
(0.185207 -0.000129884 0)
(0.31313 -0.000222544 0)
(0.518218 -0.00037257 0)
(0.837906 -0.00060766 0)
(1.3209 -0.000962221 0)
(2.02567 -0.00147274 0)
(3.01477 -0.00216638 0)
(4.34336 -0.00303911 0)
(6.04115 -0.00402114 0)
(8.08681 -0.00492979 0)
(10.3881 -0.00562204 0)
(12.7333 -0.0052784 0)
(14.9281 -0.00308959 0)
(16.4687 0.00111929 0)
(17.7924 0.00537506 0)
(18.046 0.0122856 0)
(18.661 0.0106202 0)
(18.7108 0.0162725 0)
(18.8926 0.0138412 0)
(18.8718 0.00965474 0)
(18.9675 0.00547661 0)
(18.9405 0.000242071 0)
(18.9922 0.000275477 0)
(18.9215 0.0170323 0)
(18.9784 0.0294336 0)
(18.709 0.0499553 0)
(18.0489 0.00645755 0)
(18.2707 -0.0154346 0)
(18.8327 0.0082126 0)
(18.9866 -0.00631308 0)
(18.9042 -0.0113141 0)
(18.9843 -0.0139447 0)
(18.871 -0.0180659 0)
(18.9606 -0.0172348 0)
(18.8345 -0.020271 0)
(18.8602 -0.0196211 0)
(18.5647 -0.0219004 0)
(18.6163 -0.0164663 0)
(17.8668 -0.0159985 0)
(17.2409 -0.00989303 0)
(15.6502 -0.00461521 0)
(13.6066 0.000374531 0)
(11.1336 0.00359508 0)
(8.60431 0.00441684 0)
(6.30279 0.00425339 0)
(4.40544 0.00364688 0)
(2.95733 0.00281078 0)
(1.9175 0.00201157 0)
(1.2065 0.00136032 0)
(0.739432 0.000879357 0)
(0.442738 0.000547759 0)
(0.259608 0.000330711 0)
(0.149372 0.000194383 0)
(0.0844717 0.000111607 0)
(0.0470165 6.27661e-05 0)
(0.0257876 3.46509e-05 0)
(0.0139524 1.88129e-05 0)
(0.00745363 1.00603e-05 0)
(0.00393488 5.30574e-06 0)
(0.00205429 2.76289e-06 0)
(0.00106134 1.4219e-06 0)
(0.000542967 7.23871e-07 0)
(0.000275209 3.64795e-07 0)
(0.000138274 1.82119e-07 0)
(6.88996e-05 9.01187e-08 0)
(3.40623e-05 4.42291e-08 0)
(1.67141e-05 2.15379e-08 0)
(8.14344e-06 1.04117e-08 0)
(3.94087e-06 4.99925e-09 0)
(1.89481e-06 2.38433e-09 0)
(9.0539e-07 1.13029e-09 0)
(4.29841e-07 5.33321e-10 0)
(2.02617e-07 2.50331e-10 0)
(9.32426e-08 1.18379e-10 0)
(4.22211e-08 5.93091e-11 0)
(3.71718e-09 3.58347e-11 0)
(2.83497e-09 -1.41007e-11 0)
(3.2187e-08 -2.30048e-11 0)
(7.10434e-08 -4.65643e-11 0)
(1.54291e-07 -9.70699e-11 0)
(3.27089e-07 -2.0608e-10 0)
(6.88396e-07 -4.34756e-10 0)
(1.43933e-06 -9.14705e-10 0)
(2.99035e-06 -1.91092e-09 0)
(6.17181e-06 -3.9768e-09 0)
(1.26501e-05 -8.21579e-09 0)
(2.57404e-05 -1.68764e-08 0)
(5.19762e-05 -3.44095e-08 0)
(0.000104108 -6.96648e-08 0)
(0.000206753 -1.39882e-07 0)
(0.000406907 -2.78545e-07 0)
(0.000793187 -5.49528e-07 0)
(0.0015305 -1.07372e-06 0)
(0.00292134 -2.0759e-06 0)
(0.00551192 -3.96878e-06 0)
(0.0102718 -7.49619e-06 0)
(0.0188896 -1.39751e-05 0)
(0.0342448 -2.56877e-05 0)
(0.0611327 -4.64972e-05 0)
(0.107329 -8.27639e-05 0)
(0.185061 -0.000144637 0)
(0.312888 -0.000247697 0)
(0.517829 -0.000414783 0)
(0.837301 -0.000677431 0)
(1.32 -0.00107573 0)
(2.02438 -0.00165474 0)
(3.01303 -0.00245409 0)
(4.34117 -0.00348752 0)
(6.03865 -0.00470727 0)
(8.08435 -0.00596908 0)
(10.3863 -0.0068027 0)
(12.7348 -0.00656479 0)
(14.9325 -0.00471603 0)
(16.4753 -0.00134906 0)
(17.8015 0.00434234 0)
(18.0471 0.00980273 0)
(18.6622 0.0124826 0)
(18.7066 0.01516 0)
(18.8814 0.0177366 0)
(18.8556 0.0158455 0)
(18.9458 0.0170538 0)
(18.9137 0.0171431 0)
(18.9712 0.0207431 0)
(18.9072 0.0232524 0)
(18.9365 0.026992 0)
(18.787 -0.0695413 0)
(18.4205 0.00941873 0)
(18.503 0.00983634 0)
(18.8016 -0.0368891 0)
(18.9566 -0.0158363 0)
(18.9035 0.00290777 0)
(18.975 0.0011081 0)
(18.871 -0.0020564 0)
(18.9526 -0.0130789 0)
(18.8359 -0.0166265 0)
(18.8651 -0.0207632 0)
(18.5698 -0.0198667 0)
(18.6241 -0.0179266 0)
(17.8761 -0.01193 0)
(17.2501 -0.00713533 0)
(15.6596 -0.00152542 0)
(13.6136 0.00230433 0)
(11.1367 0.00461844 0)
(8.60377 0.00572725 0)
(6.30097 0.00539495 0)
(4.40331 0.00435872 0)
(2.95533 0.00327294 0)
(1.91586 0.00231229 0)
(1.20528 0.00155565 0)
(0.73858 0.00100533 0)
(0.442174 0.000628023 0)
(0.259249 0.000381061 0)
(0.149151 0.000225401 0)
(0.08434 0.000130357 0)
(0.0469399 7.3886e-05 0)
(0.0257439 4.11233e-05 0)
(0.013928 2.25132e-05 0)
(0.00744027 1.21398e-05 0)
(0.00392766 6.45588e-06 0)
(0.00205045 3.38927e-06 0)
(0.00105932 1.75835e-06 0)
(0.000541922 9.02121e-07 0)
(0.000274673 4.58104e-07 0)
(0.000138003 2.30368e-07 0)
(6.87632e-05 1.14807e-07 0)
(3.39943e-05 5.67234e-08 0)
(1.66806e-05 2.78037e-08 0)
(8.12705e-06 1.35234e-08 0)
(3.93289e-06 6.53177e-09 0)
(1.89097e-06 3.1315e-09 0)
(9.0355e-07 1.49408e-09 0)
(4.28966e-07 7.06417e-10 0)
(2.02203e-07 3.34771e-10 0)
(9.3053e-08 1.57919e-10 0)
(4.21351e-08 7.94203e-11 0)
(3.70889e-09 4.74439e-11 0)
(2.83275e-09 -1.52392e-11 0)
(3.21588e-08 -2.42602e-11 0)
(7.09798e-08 -4.74694e-11 0)
(1.54154e-07 -9.86755e-11 0)
(3.268e-07 -2.06576e-10 0)
(6.87788e-07 -4.34756e-10 0)
(1.43807e-06 -9.07085e-10 0)
(2.98773e-06 -1.89007e-09 0)
(6.16641e-06 -3.90875e-09 0)
(1.26391e-05 -8.04159e-09 0)
(2.57179e-05 -1.64426e-08 0)
(5.19309e-05 -3.3378e-08 0)
(0.000104017 -6.72751e-08 0)
(0.000206574 -1.3452e-07 2.13188e-31)
(0.000406555 -2.66708e-07 0)
(0.000792502 -5.24029e-07 0)
(0.00152918 -1.0196e-06 0)
(0.00291883 -1.96317e-06 0)
(0.00550722 -3.73758e-06 0)
(0.0102631 -7.02975e-06 0)
(0.0188737 -1.30493e-05 0)
(0.0342163 -2.38808e-05 0)
(0.0610826 -4.30314e-05 0)
(0.107242 -7.62406e-05 0)
(0.184915 -0.000132599 0)
(0.312648 -0.000225964 0)
(0.517446 -0.000376472 0)
(0.836708 -0.000611658 0)
(1.31912 -0.000966143 0)
(2.02313 -0.00147812 0)
(3.01135 -0.00217976 0)
(4.3391 -0.00307855 2.11181e-31)
(6.03639 -0.00412819 0)
(8.08251 -0.00518755 0)
(10.386 -0.00587244 0)
(12.7365 -0.00649315 0)
(14.938 -0.00570495 -2.08467e-31)
(16.4849 -0.0029275 0)
(17.8162 0.000772836 0)
(18.0558 0.00662086 2.07321e-31)
(18.6758 0.00824508 0)
(18.719 0.0188409 0)
(18.8938 0.0182275 0)
(18.8676 0.0267398 -2.08456e-31)
(18.9604 0.0270964 0)
(18.9279 0.0315977 0)
(18.9799 0.0395281 0)
(18.9178 0.0475559 0)
(18.957 0.0565812 0)
(18.7821 0.0715056 0)
(18.3663 0.00114389 0)
(18.4666 -0.0276918 0)
(18.7978 -0.0095126 0)
(18.944 -0.0236086 0)
(18.8837 -0.027408 0)
(18.9571 -0.0292808 -9.39188e-32)
(18.8545 -0.0286955 9.39283e-32)
(18.9433 -0.0251736 0)
(18.8274 -0.0232743 0)
(18.8625 -0.0188135 -9.42746e-32)
(18.5706 -0.0193936 0)
(18.6321 -0.0128778 0)
(17.8874 -0.00781546 0)
(17.2614 -0.00319172 0)
(15.6696 0.00156699 0)
(13.6187 0.00437532 0)
(11.1395 0.00524832 0)
(8.60474 0.00520685 0)
(6.2998 0.00474492 0)
(4.40141 0.00391278 0)
(2.95343 0.00297235 0)
(1.91427 0.00212531 1.0706e-31)
(1.20407 0.00144818 0)
(0.737729 0.000948333 0)
(0.441603 0.000600455 0)
(0.258882 0.000369271 0)
(0.148923 0.000221352 0)
(0.0842019 0.000129693 0)
(0.0468585 7.44434e-05 0)
(0.0256971 4.19427e-05 0)
(0.0139015 2.32323e-05 0)
(0.00742559 1.26694e-05 0)
(0.00391965 6.81011e-06 0)
(0.00204615 3.61219e-06 0)
(0.00105704 1.89227e-06 0)
(0.000540728 9.79937e-07 0)
(0.000274055 5.01976e-07 0)
(0.000137687 2.54566e-07 0)
(6.86031e-05 1.2786e-07 0)
(3.39141e-05 6.36527e-08 0)
(1.66407e-05 3.14161e-08 0)
(8.10736e-06 1.53845e-08 -1.06594e-31)
(3.92328e-06 7.47469e-09 0)
(1.8863e-06 3.60772e-09 -1.06594e-31)
(9.01297e-07 1.72768e-09 0)
(4.27894e-07 8.23448e-10 0)
(2.01692e-07 3.90238e-10 0)
(9.28161e-08 1.86617e-10 0)
(4.20268e-08 9.40683e-11 0)
(3.69847e-09 5.73117e-11 0)
(2.83047e-09 -1.27286e-11 0)
(3.21306e-08 -2.14867e-11 0)
(7.09202e-08 -4.1543e-11 0)
(1.54024e-07 -8.72899e-11 0)
(3.26528e-07 -1.83134e-10 0)
(6.87221e-07 -3.81185e-10 0)
(1.43689e-06 -7.93404e-10 0)
(2.9853e-06 -1.64125e-09 0)
(6.16144e-06 -3.37794e-09 0)
(1.26289e-05 -6.91386e-09 0)
(2.56974e-05 -1.40512e-08 0)
(5.18899e-05 -2.83852e-08 0)
(0.000103936 -5.68953e-08 0)
(0.000206412 -1.13183e-07 -2.13188e-31)
(0.000406239 -2.23235e-07 0)
(0.000791891 -4.36347e-07 0)
(0.00152801 -8.44557e-07 0)
(0.00291662 -1.61757e-06 0)
(0.00550309 -3.06297e-06 0)
(0.0102555 -5.72904e-06 0)
(0.01886 -1.05737e-05 0)
(0.0341917 -1.92352e-05 0)
(0.0610396 -3.44447e-05 0)
(0.107169 -6.06295e-05 0)
(0.184791 -0.000104731 0)
(0.312445 -0.000177207 0)
(0.517124 -0.000293085 0)
(0.836213 -0.000472688 0)
(1.31838 -0.000741405 0)
(2.02209 -0.00112741 0)
(3.00997 -0.00165684 0)
(4.33737 -0.00234442 -2.1118e-31)
(6.0344 -0.00318007 0)
(8.0804 -0.00409701 0)
(10.384 -0.00503695 0)
(12.7354 -0.00525123 0)
(14.9392 -0.00518094 2.08467e-31)
(16.4876 -0.0045952 0)
(17.8216 -0.0036386 0)
(18.0613 -0.0022012 -2.07311e-31)
(18.6825 0.00143934 0)
(18.7251 0.0028246 0)
(18.8987 0.00437017 0)
(18.8728 0.00815249 2.08472e-31)
(18.9667 0.00917278 0)
(18.9363 0.0102139 0)
(18.9944 0.00295835 0)
(18.9403 -0.0189225 0)
(18.9641 -0.0309625 0)
(18.763 -0.0772697 0)
(18.3346 0.00707058 0)
(18.4542 0.0414236 0)
(18.8175 0.0303623 0)
(18.9616 0.0170286 0)
(18.9122 0.0185521 0)
(18.9833 0.00277202 9.39002e-32)
(18.8785 -0.008392 -9.39115e-32)
(18.9595 -0.00962127 0)
(18.8406 -0.00734238 0)
(18.8744 -0.00616276 9.42562e-32)
(18.5796 -0.00356336 0)
(18.6429 -0.000907752 0)
(17.8952 0.000855251 0)
(17.268 0.00235971 0)
(15.674 0.00305336 0)
(13.6207 0.00379775 0)
(11.1393 0.00434264 0)
(8.60336 0.0042485 0)
(6.29823 0.00373809 0)
(4.39969 0.00304445 0)
(2.95182 0.00233584 0)
(1.91293 0.00169855 -1.07061e-31)
(1.20305 0.00117969 0)
(0.736994 0.000787706 0)
(0.441101 0.000508326 0)
(0.258554 0.000318357 0)
(0.148715 0.000194151 0)
(0.0840745 0.000115614 0)
(0.0467823 6.73799e-05 0)
(0.0256525 3.85056e-05 0)
(0.0138761 2.16143e-05 0)
(0.00741127 1.19338e-05 0)
(0.00391175 6.48957e-06 0)
(0.00204185 3.47949e-06 0)
(0.00105474 1.84129e-06 0)
(0.00053951 9.62523e-07 0)
(0.000273419 4.97436e-07 0)
(0.000137358 2.54323e-07 0)
(6.84354e-05 1.28732e-07 0)
(3.38293e-05 6.45365e-08 0)
(1.65983e-05 3.20701e-08 0)
(8.08631e-06 1.57991e-08 1.06594e-31)
(3.91292e-06 7.72269e-09 0)
(1.88124e-06 3.74513e-09 1.06594e-31)
(8.98853e-07 1.80384e-09 0)
(4.26713e-07 8.63312e-10 0)
(2.01132e-07 4.11459e-10 0)
(9.25569e-08 1.97031e-10 0)
(4.19068e-08 1.00419e-10 0)
(3.68956e-09 6.11188e-11 0)
(2.82778e-09 -1.06266e-11 0)
(3.21064e-08 -1.72828e-11 0)
(7.08698e-08 -3.42153e-11 0)
(1.53915e-07 -6.91313e-11 0)
(3.26302e-07 -1.44189e-10 0)
(6.86753e-07 -2.99296e-10 0)
(1.43592e-06 -6.19174e-10 0)
(2.98333e-06 -1.27026e-09 0)
(6.1574e-06 -2.60016e-09 0)
(1.26208e-05 -5.28069e-09 0)
(2.5681e-05 -1.06727e-08 0)
(5.18571e-05 -2.14069e-08 0)
(0.000103871 -4.26477e-08 0)
(0.000206285 -8.42798e-08 0)
(0.000405991 -1.65164e-07 0)
(0.000791415 -3.2071e-07 0)
(0.00152711 -6.16594e-07 0)
(0.00291491 -1.1728e-06 0)
(0.00549993 -2.20481e-06 0)
(0.0102497 -4.09276e-06 0)
(0.0188495 -7.49326e-06 0)
(0.0341733 -1.35139e-05 0)
(0.0610075 -2.39754e-05 0)
(0.107114 -4.1776e-05 0)
(0.184701 -7.13677e-05 0)
(0.312299 -0.000119302 0)
(0.516894 -0.000194699 0)
(0.835863 -0.000309431 0)
(1.31787 -0.000477444 0)
(2.02137 -0.000712986 0)
(3.00901 -0.00102571 0)
(4.33616 -0.00141393 0)
(6.03302 -0.00184792 0)
(8.07912 -0.00226171 0)
(10.3834 -0.00248962 0)
(12.736 -0.00247736 0)
(14.9399 -0.00234381 0)
(16.489 -0.0021851 0)
(17.8208 -0.00262337 0)
(18.0656 -0.00198896 0)
(18.6823 -0.00357191 0)
(18.7284 0.000338467 0)
(18.9036 -0.00241528 0)
(18.8803 0.00267653 0)
(18.9777 0.000956551 0)
(18.9521 -0.000530897 0)
(19.0045 -0.0126894 0)
(18.9469 -0.0191906 0)
(18.9351 -0.0370115 0)
(18.7605 0.0647135 0)
(18.4276 -0.016482 0)
(18.5051 -0.0374382 0)
(18.8028 -0.0127016 0)
(18.9533 -0.0150333 0)
(18.9017 -0.0310327 0)
(18.9757 -0.0157895 0)
(18.8712 -0.00497804 0)
(18.9561 0.000704766 0)
(18.8417 0.000137588 0)
(18.8754 0.00265325 0)
(18.5829 0.000874905 0)
(18.6439 0.00333415 0)
(17.8955 0.000933928 0)
(17.2694 0.00153832 0)
(15.6746 0.00124003 0)
(13.6221 0.00158908 0)
(11.1405 0.00211445 0)
(8.60347 0.00247651 0)
(6.29742 0.00236369 0)
(4.39862 0.00201595 0)
(2.95075 0.00159909 0)
(1.912 0.0011986 0)
(1.20231 0.000856516 0)
(0.736444 0.000587194 0)
(0.440715 0.000388168 0)
(0.258294 0.000248474 0)
(0.148547 0.000154558 0)
(0.0839691 9.36959e-05 0)
(0.0467181 5.54953e-05 0)
(0.0256143 3.21822e-05 0)
(0.0138538 1.83061e-05 0)
(0.00739861 1.02305e-05 0)
(0.00390467 5.62494e-06 0)
(0.00203795 3.04645e-06 0)
(0.00105263 1.6271e-06 0)
(0.000538383 8.57768e-07 0)
(0.000272825 4.46758e-07 0)
(0.000137049 2.30056e-07 0)
(6.82762e-05 1.17205e-07 0)
(3.37482e-05 5.9122e-08 0)
(1.65574e-05 2.95377e-08 0)
(8.0659e-06 1.46284e-08 0)
(3.90282e-06 7.18271e-09 0)
(1.87629e-06 3.49842e-09 0)
(8.96435e-07 1.69233e-09 0)
(4.25551e-07 8.11514e-10 0)
(2.00573e-07 3.89043e-10 0)
(9.22973e-08 1.86361e-10 0)
(4.17868e-08 9.47342e-11 0)
(3.67751e-09 5.73288e-11 0)
(2.82697e-09 -7.50284e-12 0)
(3.20892e-08 -1.22031e-11 0)
(7.08316e-08 -2.32676e-11 0)
(1.53835e-07 -4.88707e-11 0)
(3.26134e-07 -1.00223e-10 0)
(6.86406e-07 -2.06722e-10 0)
(1.43522e-06 -4.23575e-10 0)
(2.98188e-06 -8.65717e-10 0)
(6.15449e-06 -1.75663e-09 0)
(1.26149e-05 -3.54406e-09 0)
(2.56693e-05 -7.10838e-09 0)
(5.18338e-05 -1.41574e-08 0)
(0.000103825 -2.79972e-08 0)
(0.000206196 -5.49192e-08 0)
(0.00040582 -1.06809e-07 0)
(0.000791086 -2.05772e-07 0)
(0.00152649 -3.92389e-07 0)
(0.00291376 -7.39916e-07 0)
(0.0054978 -1.37819e-06 0)
(0.0102459 -2.53295e-06 0)
(0.0188427 -4.58711e-06 0)
(0.0341613 -8.17468e-06 0)
(0.0609869 -1.43108e-05 0)
(0.10708 -2.4567e-05 0)
(0.184644 -4.12698e-05 0)
(0.312209 -6.76756e-05 0)
(0.516756 -0.000108042 0)
(0.835659 -0.000167366 0)
(1.31758 -0.000250693 0)
(2.02098 -0.00036117 0)
(3.00852 -0.000498077 0)
(4.33561 -0.000652754 0)
(6.03248 -0.000812211 0)
(8.07864 -0.000972498 0)
(10.383 -0.00122319 0)
(12.7352 -0.00169523 0)
(14.9397 -0.00248237 0)
(16.4873 -0.00365702 0)
(17.8216 -0.00440004 0)
(18.0661 -0.00581779 0)
(18.6861 -0.00450885 0)
(18.731 -0.0054657 0)
(18.9054 -0.00497569 0)
(18.8809 -0.00414303 0)
(18.9709 -0.00463957 0)
(18.9441 -0.00434931 0)
(18.9883 -0.00235885 0)
(18.9063 -0.000938661 0)
(18.9682 0.00328151 0)
(18.6958 0.00630734 0)
(18.0198 -0.00099776 0)
(18.2361 -0.00389144 0)
(18.7908 -0.00221432 0)
(18.9612 -0.00144338 0)
(18.8933 0.0027223 0)
(18.9786 0.00453084 0)
(18.8711 0.00407267 0)
(18.9584 0.00366046 0)
(18.8452 0.00494188 0)
(18.8781 0.0053439 0)
(18.5843 0.00663531 0)
(18.6432 0.00511122 0)
(17.8926 0.00476905 0)
(17.2689 0.00353666 0)
(15.6735 0.0024868 0)
(13.6222 0.00178905 0)
(11.1405 0.00133622 0)
(8.60337 0.00113472 0)
(6.29706 0.00107794 0)
(4.39806 0.000994632 0)
(2.95014 0.000856635 0)
(1.91143 0.000688063 0)
(1.20183 0.000519792 0)
(0.736078 0.000372631 0)
(0.440448 0.000255452 0)
(0.258109 0.000168497 0)
(0.148424 0.000107467 0)
(0.0838902 6.6544e-05 0)
(0.046669 4.01329e-05 0)
(0.0255847 2.364e-05 0)
(0.0138363 1.36308e-05 0)
(0.00738849 7.70882e-06 0)
(0.00389894 4.283e-06 0)
(0.00203477 2.34133e-06 0)
(0.00105089 1.26078e-06 0)
(0.000537444 6.69593e-07 0)
(0.000272327 3.5103e-07 0)
(0.000136788 1.81835e-07 0)
(6.81408e-05 9.31311e-08 0)
(3.36789e-05 4.72007e-08 0)
(1.65223e-05 2.36837e-08 0)
(8.04828e-06 1.1774e-08 0)
(3.89405e-06 5.80043e-09 0)
(1.87197e-06 2.83545e-09 0)
(8.94328e-07 1.37306e-09 0)
(4.24529e-07 6.62303e-10 0)
(2.00083e-07 3.16333e-10 0)
(9.20682e-08 1.52695e-10 0)
(4.16811e-08 7.75594e-11 0)
(3.66819e-09 4.71878e-11 0)
(2.82463e-09 -3.47408e-12 0)
(3.2077e-08 -6.71461e-12 0)
(7.08072e-08 -1.32541e-11 0)
(1.53782e-07 -2.80262e-11 0)
(3.26027e-07 -5.80084e-11 0)
(6.8619e-07 -1.1914e-10 0)
(1.43477e-06 -2.4374e-10 0)
(2.98099e-06 -4.94808e-10 0)
(6.15268e-06 -9.99134e-10 0)
(1.26113e-05 -2.00749e-09 0)
(2.56621e-05 -4.005e-09 0)
(5.18198e-05 -7.93848e-09 0)
(0.000103797 -1.5617e-08 0)
(0.000206143 -3.04773e-08 0)
(0.000405718 -5.89699e-08 0)
(0.000790893 -1.12988e-07 0)
(0.00152612 -2.14242e-07 0)
(0.00291309 -4.01489e-07 0)
(0.00549659 -7.4287e-07 0)
(0.0102437 -1.35504e-06 0)
(0.0188388 -2.43302e-06 0)
(0.0341546 -4.29199e-06 0)
(0.0609757 -7.42347e-06 0)
(0.107061 -1.25583e-05 0)
(0.184615 -2.07166e-05 0)
(0.312163 -3.321e-05 0)
(0.516688 -5.15111e-05 0)
(0.835564 -7.69217e-05 0)
(1.31745 -0.000109874 0)
(2.02082 -0.000149283 0)
(3.00834 -0.000191705 0)
(4.33541 -0.000233422 0)
(6.03227 -0.000275069 0)
(8.07839 -0.000327795 0)
(10.3826 -0.000411904 0)
(12.7346 -0.000525579 0)
(14.9374 -0.000738448 0)
(16.4862 -0.000824384 0)
(17.8164 -0.00201631 0)
(18.0652 -0.00279479 0)
(18.6826 -0.00397767 0)
(18.7282 -0.00565498 0)
(18.9047 -0.00445591 0)
(18.8808 -0.00648535 0)
(18.9763 -0.00462641 0)
(18.9536 -0.00253375 0)
(19.0018 0.00333078 0)
(18.944 0.00774423 0)
(18.9381 0.00496447 0)
(18.7694 -0.0713599 0)
(18.4388 -0.0109335 0)
(18.5093 0.0310696 0)
(18.7993 -0.016449 0)
(18.9504 -0.000174025 0)
(18.9015 0.00784185 0)
(18.9771 0.0097526 0)
(18.8755 0.0115456 0)
(18.9577 0.010372 0)
(18.8439 0.0100165 0)
(18.8739 0.00712299 0)
(18.582 0.00758822 0)
(18.6399 0.00383774 0)
(17.8921 0.00488068 0)
(17.2649 0.00288585 0)
(15.6718 0.00195184 0)
(13.621 0.00116503 0)
(11.1401 0.000810951 0)
(8.60324 0.000657815 0)
(6.29705 0.000630565 0)
(4.39796 0.000608444 0)
(2.94995 0.0005437 0)
(1.9112 0.000448305 0)
(1.2016 0.000344773 0)
(0.735882 0.000250165 0)
(0.440295 0.00017288 0)
(0.257998 0.000114633 0)
(0.148347 7.33543e-05 0)
(0.0838395 4.55065e-05 0)
(0.0466368 2.74692e-05 0)
(0.0255648 1.61822e-05 0)
(0.0138244 9.32694e-06 0)
(0.00738155 5.27029e-06 0)
(0.00389497 2.92497e-06 0)
(0.00203254 1.59674e-06 0)
(0.00104966 8.58557e-07 0)
(0.000536778 4.55201e-07 0)
(0.000271971 2.38231e-07 0)
(0.0001366 1.23175e-07 0)
(6.80434e-05 6.29705e-08 0)
(3.36288e-05 3.18516e-08 0)
(1.64968e-05 1.59515e-08 0)
(8.03545e-06 7.91506e-09 0)
(3.88767e-06 3.89103e-09 0)
(1.86882e-06 1.89854e-09 0)
(8.92786e-07 9.17909e-10 0)
(4.23779e-07 4.41558e-10 0)
(1.99723e-07 2.10706e-10 0)
(9.19008e-08 1.01631e-10 0)
(4.1602e-08 5.16949e-11 0)
(3.66102e-09 3.12594e-11 0)
(2.82457e-09 -4.08715e-13 0)
(3.20717e-08 -5.25491e-13 0)
(7.07958e-08 -1.28453e-12 0)
(1.53758e-07 -2.56907e-12 0)
(3.25978e-07 -5.60524e-12 0)
(6.86088e-07 -1.17944e-11 0)
(1.43457e-06 -2.40266e-11 0)
(2.98057e-06 -4.88999e-11 0)
(6.15186e-06 -9.85296e-11 0)
(1.26097e-05 -1.97935e-10 0)
(2.56589e-05 -3.92805e-10 0)
(5.18134e-05 -7.7796e-10 0)
(0.000103785 -1.52559e-09 0)
(0.000206119 -2.97335e-09 0)
(0.000405672 -5.73611e-09 0)
(0.000790807 -1.09696e-08 0)
(0.00152596 -2.07505e-08 0)
(0.00291279 -3.87968e-08 0)
(0.00549604 -7.159e-08 0)
(0.0102427 -1.30165e-07 0)
(0.0188371 -2.32771e-07 0)
(0.0341518 -4.08645e-07 0)
(0.0609709 -7.02237e-07 0)
(0.107053 -1.17754e-06 0)
(0.184603 -1.91938e-06 0)
(0.312145 -3.02717e-06 0)
(0.516663 -4.5935e-06 0)
(0.835529 -6.64973e-06 0)
(1.31741 -9.1164e-06 0)
(2.02078 -1.16841e-05 0)
(3.00829 -1.40224e-05 0)
(4.33537 -1.57791e-05 0)
(6.03223 -1.73869e-05 0)
(8.07834 -1.89414e-05 0)
(10.3825 -1.65185e-05 0)
(12.7343 -4.39756e-06 0)
(14.9383 -8.62998e-06 0)
(16.4849 0.000126822 0)
(17.8183 -0.000204516 0)
(18.0623 0.000562856 0)
(18.6825 -0.00144013 0)
(18.7275 -0.000496083 0)
(18.9053 -0.00183877 0)
(18.8788 -0.00160048 0)
(18.9732 -0.00298224 0)
(18.9372 -0.00138113 0)
(18.9932 0.00649158 0)
(18.9205 0.0324363 0)
(18.9706 0.0541465 0)
(18.77 0.13428 0)
(18.3403 -0.0326055 0)
(18.4617 -0.0547488 0)
(18.7927 -0.0359459 0)
(18.9518 -0.0246342 0)
(18.8839 -0.024415 0)
(18.9651 -0.009504 0)
(18.8588 0.000288406 0)
(18.9502 0.00345082 0)
(18.8354 0.00323531 0)
(18.8697 0.00243516 0)
(18.5785 0.00190151 0)
(18.6366 0.00101331 0)
(17.8912 0.00073895 0)
(17.2624 0.000399027 0)
(15.6708 0.000282351 0)
(13.6203 0.000178795 0)
(11.1398 0.000123594 0)
(8.60316 9.98125e-05 0)
(6.29702 9.24216e-05 0)
(4.39789 8.7228e-05 0)
(2.94982 7.60293e-05 0)
(1.91104 6.11591e-05 0)
(1.20146 4.59987e-05 0)
(0.735759 3.2734e-05 0)
(0.440202 2.22395e-05 0)
(0.257931 1.45258e-05 0)
(0.148302 9.17084e-06 0)
(0.0838099 5.62042e-06 0)
(0.0466182 3.35542e-06 0)
(0.0255535 1.95684e-06 0)
(0.0138177 1.11738e-06 0)
(0.00737763 6.25998e-07 0)
(0.00389274 3.44646e-07 0)
(0.0020313 1.86745e-07 0)
(0.00104898 9.97118e-08 0)
(0.000536412 5.25203e-08 0)
(0.000271777 2.7317e-08 0)
(0.000136499 1.40423e-08 0)
(6.79907e-05 7.13811e-09 0)
(3.36018e-05 3.59286e-09 0)
(1.64832e-05 1.78971e-09 0)
(8.02862e-06 8.83662e-10 0)
(3.88428e-06 4.32885e-10 0)
(1.86715e-06 2.09648e-10 0)
(8.91973e-07 1.01426e-10 0)
(4.23386e-07 4.84e-11 0)
(1.99535e-07 2.30988e-11 0)
(9.18128e-08 1.1097e-11 0)
(4.15621e-08 5.5485e-12 0)
(3.65729e-09 3.51689e-12 0)
)
;

boundaryField
{
    sides1
    {
        type            zeroGradient;
    }
    sides2
    {
        type            slip;
    }
    empty
    {
        type            empty;
    }
}


// ************************************************************************* //
