# vtk DataFile Version 2.0
gauge_2
ASCII
DATASET POLYDATA
POINTS 43 double
0.2 0.0359992 0.005
0.2 0.0419991 0.005
0.2 0.047999 0.005
0.2 0.0607609 0.005
0.2 0.0735228 0.005
0.2 0.0862847 0.005
0.2 0.0990467 0.005
0.2 0.111809 0.005
0.2 0.124571 0.005
0.2 0.137332 0.005
0.2 0.150094 0.005
0.2 0.162856 0.005
0.2 0.175618 0.005
0.2 0.18838 0.005
0.2 0.201142 0.005
0.2 0.213904 0.005
0.2 0.226666 0.005
0.2 0.239428 0.005
0.2 0.25219 0.005
0.2 0.264952 0.005
0.2 0.277714 0.005
0.2 0.290476 0.005
0.2 0.303238 0.005
0.2 0.315999 0.005
0.2 0.328761 0.005
0.2 0.341523 0.005
0.2 0.354285 0.005
0.2 0.367047 0.005
0.2 0.379809 0.005
0.2 0.392571 0.005
0.2 0.405333 0.005
0.2 0.418095 0.005
0.2 0.430857 0.005
0.2 0.443619 0.005
0.2 0.456381 0.005
0.2 0.469143 0.005
0.2 0.481905 0.005
0.2 0.494666 0.005
0.2 0.507428 0.005
0.2 0.52019 0.005
0.2 0.532952 0.005
0.2 0.545714 0.005
0.2 0.558476 0.005
POINT_DATA 43
 FIELD attributes 1
alpha.water 1 43 float
1 1 1 1 0.999988 0.937224 0.498489 0.0612621 1.31597e-05 0.000121458 0.000425855 0.00059567 0.000408216 0.000604658 0.000674413 0.000191058 4.41768e-13 4.1303e-13 2.79949e-13 9.09441e-14 8.69267e-15 1.82772e-15 7.17529e-16 2.8768e-16 9.32326e-17 2.79614e-17 7.42814e-18 1.98062e-18 4.9874e-19 1.16334e-19 2.50035e-20 5.36153e-21 1.22103e-21 2.79937e-22 5.90983e-23 1.11767e-23 1.75599e-24 2.21824e-25 2.27942e-26 1.4125e-27 4.47652e-29 4.96203e-31 1.31791e-34
