/*--------------------------------*- C++ -*----------------------------------*\
| =========                 |                                                 |
| \\      /  F ield         | OpenFOAM: The Open Source CFD Toolbox           |
|  \\    /   O peration     | Version:  3.0.1                                 |
|   \\  /    A nd           | Web:      www.OpenFOAM.org                      |
|    \\/     M anipulation  |                                                 |
\*---------------------------------------------------------------------------*/
FoamFile
{
    version     2.0;
    format      ascii;
    class       volScalarField;
    location    "5e-05";
    object      maxKappa;
}
// * * * * * * * * * * * * * * * * * * * * * * * * * * * * * * * * * * * * * //

dimensions      [0 0 0 0 0 0 0];

internalField   nonuniform List<scalar> 
1000
(
3.65249e-16
3.65249e-16
1.41349e-15
3.65249e-16
3.65249e-16
1.27837e-15
1.27837e-15
9.13122e-16
2.92199e-15
1.00443e-14
2.46543e-14
6.26402e-14
1.62901e-13
4.16932e-13
1.04114e-12
2.61263e-12
6.59621e-12
1.64733e-11
4.11933e-11
1.02978e-10
2.54767e-10
6.34552e-10
1.56374e-09
3.85163e-09
9.41624e-09
2.29817e-08
5.56868e-08
1.34342e-07
3.21894e-07
7.65951e-07
1.80962e-06
4.23772e-06
9.8324e-06
2.25747e-05
5.12183e-05
0.000114649
0.000252708
0.000547162
0.00116031
0.00240076
0.00482266
0.0093532
0.0173887
0.0305004
0.0499028
0.0735046
0.0900697
0.0955892
0.0957606
0.0964434
0.0964434
0.0925549
0.0923071
0.0905894
0.0802053
0.0592069
0.037943
0.0221866
0.0121195
0.00628434
0.00313169
0.00151281
0.000712531
0.00032863
0.000148946
6.64289e-05
2.92771e-05
1.27442e-05
5.48878e-06
2.34628e-06
9.93254e-07
4.18753e-07
1.74684e-07
7.26743e-08
3.00162e-08
1.23524e-08
5.04793e-09
2.05835e-09
8.35896e-10
3.37742e-10
1.36355e-10
5.48628e-11
2.19959e-11
8.82205e-12
3.52312e-12
1.40545e-12
5.65275e-13
2.20535e-13
9.09908e-14
3.35342e-14
1.19612e-14
5.01945e-15
2.47977e-15
4.13296e-16
1.03324e-15
4.27187e-16
2.06648e-15
1.23989e-15
2.06648e-15
2.47977e-15
3.65249e-16
1.06012e-15
1.41349e-15
7.30498e-16
3.53372e-16
2.4736e-15
1.06012e-15
1.27837e-15
3.83511e-15
8.76597e-15
2.59327e-14
6.46491e-14
1.64727e-13
4.14923e-13
1.04132e-12
2.61208e-12
6.59146e-12
1.64912e-11
4.1029e-11
1.03146e-10
2.55348e-10
6.30645e-10
1.56987e-09
3.83392e-09
9.42017e-09
2.30136e-08
5.53539e-08
1.34659e-07
3.20863e-07
7.6465e-07
1.80641e-06
4.22923e-06
9.8134e-06
2.25308e-05
5.11205e-05
0.000114427
0.000252216
0.000546091
0.00115798
0.00239576
0.00481298
0.00933149
0.0173095
0.0303189
0.0493542
0.0719817
0.089626
0.095255
0.095255
0.0970005
0.0970005
0.0938024
0.0922667
0.0904144
0.0790181
0.0584316
0.0375105
0.0219358
0.0119872
0.00622096
0.00310276
0.00150035
0.000707224
0.000326352
0.000148107
6.60338e-05
2.91641e-05
1.26946e-05
5.47415e-06
2.34421e-06
9.9213e-07
4.18813e-07
1.74792e-07
7.26182e-08
3.01261e-08
1.23386e-08
5.06459e-09
2.06419e-09
8.37983e-10
3.39542e-10
1.36644e-10
5.51534e-11
2.21023e-11
8.84042e-12
3.54181e-12
1.41762e-12
5.57586e-13
2.26836e-13
8.63986e-14
3.53497e-14
1.45244e-14
5.33984e-15
2.47977e-15
2.06648e-15
1.65318e-15
1.44653e-15
2.06648e-15
1.28156e-15
2.06648e-15
3.30637e-15
2.19149e-15
2.19149e-15
1.461e-15
1.41349e-15
1.06012e-15
2.4736e-15
1.27837e-15
2.55674e-15
5.84398e-15
1.20532e-14
2.30107e-14
6.50143e-14
1.63449e-13
4.15471e-13
1.04059e-12
2.61317e-12
6.61904e-12
1.64599e-11
4.1266e-11
1.02841e-10
2.55249e-10
6.32892e-10
1.56333e-09
3.8392e-09
9.38836e-09
2.29409e-08
5.54103e-08
1.33946e-07
3.20068e-07
7.62518e-07
1.80012e-06
4.21728e-06
9.79032e-06
2.24471e-05
5.09686e-05
0.000114077
0.000251492
0.000544656
0.00115504
0.00239035
0.00480336
0.00931497
0.0172865
0.0303746
0.0496815
0.0734464
0.0902389
0.0961325
0.0961325
0.0958726
0.0958674
0.0928739
0.0928739
0.0913716
0.0805715
0.0589182
0.0376416
0.0219117
0.0119381
0.00617652
0.00307953
0.00148896
0.000701337
0.00032403
0.000146995
6.5642e-05
2.90063e-05
1.26395e-05
5.45937e-06
2.33358e-06
9.92072e-07
4.17461e-07
1.74983e-07
7.2743e-08
3.01531e-08
1.23867e-08
5.08883e-09
2.07161e-09
8.43494e-10
3.41451e-10
1.37553e-10
5.54468e-11
2.22584e-11
8.8841e-12
3.57299e-12
1.4126e-12
5.68906e-13
2.23419e-13
8.90685e-14
3.39614e-14
1.14273e-14
6.19421e-15
2.34953e-15
2.06648e-15
2.06648e-15
2.06648e-15
2.47977e-15
1.23989e-15
1.03324e-15
3.30637e-15
1.41349e-15
7.30498e-16
1.09575e-15
1.41349e-15
1.06012e-15
2.12023e-15
1.461e-15
1.64362e-15
4.20036e-15
8.40072e-15
2.66632e-14
5.497e-14
1.62901e-13
4.15836e-13
1.03566e-12
2.61646e-12
6.55092e-12
1.64426e-11
4.11425e-11
1.02393e-10
2.5465e-10
6.31013e-10
1.56083e-09
3.8331e-09
9.38092e-09
2.28472e-08
5.53824e-08
1.33442e-07
3.18991e-07
7.61943e-07
1.79214e-06
4.20162e-06
9.76051e-06
2.23652e-05
5.08284e-05
0.000113725
0.000250718
0.000543136
0.00115184
0.00238357
0.004788
0.0092833
0.0172154
0.0302103
0.0492746
0.0723309
0.0900187
0.095755
0.095755
0.096153
0.096153
0.0932092
0.0926104
0.0909308
0.0796286
0.0585052
0.0374051
0.0217543
0.0118765
0.00612618
0.00307003
0.00148021
0.000696807
0.000323089
0.000146463
6.55109e-05
2.89247e-05
1.26602e-05
5.45343e-06
2.33606e-06
9.92987e-07
4.18722e-07
1.75018e-07
7.30536e-08
3.01792e-08
1.2457e-08
5.09911e-09
2.08347e-09
8.47986e-10
3.42529e-10
1.38345e-10
5.57574e-11
2.22986e-11
8.94188e-12
3.5653e-12
1.41965e-12
5.67091e-13
2.26089e-13
8.90685e-14
3.65245e-14
1.61263e-14
7.15538e-15
3.4175e-15
1.23989e-15
2.06648e-15
2.06648e-15
2.47977e-15
1.03324e-15
1.65318e-15
1.03324e-15
1.41349e-15
1.06012e-15
1.76686e-15
9.13122e-16
9.13122e-16
1.76686e-15
5.47873e-16
1.06012e-15
3.83511e-15
1.04096e-14
2.52022e-14
6.28228e-14
1.55779e-13
4.13644e-13
1.02233e-12
2.59911e-12
6.47075e-12
1.63907e-11
4.08304e-11
1.02146e-10
2.53377e-10
6.30821e-10
1.55014e-09
3.82254e-09
9.34422e-09
2.27775e-08
5.5217e-08
1.33026e-07
3.19028e-07
7.57873e-07
1.7896e-06
4.19375e-06
9.73776e-06
2.23293e-05
5.07142e-05
0.000113681
0.000250052
0.000541995
0.00115136
0.00237662
0.00477702
0.0092604
0.0171631
0.0301226
0.0491566
0.0723492
0.0901614
0.0961829
0.0961829
0.0953019
0.0953019
0.0930088
0.0927924
0.0911071
0.0798738
0.0584325
0.0373237
0.0217324
0.0118593
0.00613584
0.00306819
0.00148472
0.000698995
0.000323585
0.00014662
6.55941e-05
2.89782e-05
1.26323e-05
5.46609e-06
2.33489e-06
9.9175e-07
4.18258e-07
1.74841e-07
7.29536e-08
3.01434e-08
1.24305e-08
5.09829e-09
2.07857e-09
8.46865e-10
3.41528e-10
1.38023e-10
5.56991e-11
2.22084e-11
8.91625e-12
3.56039e-12
1.41815e-12
5.65168e-13
2.24594e-13
8.96025e-14
3.42818e-14
1.19612e-14
6.72819e-15
3.09711e-15
1.38836e-15
9.61171e-16
1.44653e-15
1.49515e-15
1.70875e-15
1.70875e-15
1.49515e-15
2.12023e-15
2.4736e-15
2.4736e-15
1.82624e-15
7.30498e-16
1.76686e-15
1.82624e-15
1.82624e-15
4.38299e-15
9.86172e-15
2.31933e-14
6.00834e-14
1.63997e-13
4.04878e-13
1.01758e-12
2.57628e-12
6.48225e-12
1.62203e-11
4.0627e-11
1.01683e-10
2.51904e-10
6.27331e-10
1.54416e-09
3.80658e-09
9.31922e-09
2.26951e-08
5.512e-08
1.32726e-07
3.18175e-07
7.58485e-07
1.78511e-06
4.19712e-06
9.71515e-06
2.23264e-05
5.06383e-05
0.000113499
0.000249862
0.000541253
0.0011501
0.00237476
0.00477294
0.00925247
0.017149
0.0300993
0.0491275
0.0723414
0.0901434
0.0962155
0.0962155
0.0951455
0.09504
0.0930539
0.0929924
0.0912119
0.0797921
0.0584426
0.0372997
0.0216947
0.0118081
0.00611567
0.00304732
0.00147499
0.000696316
0.000321603
0.000145948
6.52314e-05
2.88259e-05
1.25604e-05
5.42876e-06
2.32338e-06
9.85189e-07
4.16087e-07
1.74072e-07
7.25177e-08
2.99708e-08
1.23768e-08
5.06312e-09
2.0682e-09
8.37965e-10
3.40138e-10
1.37471e-10
5.51309e-11
2.21425e-11
8.85131e-12
3.54245e-12
1.39936e-12
5.59188e-13
2.2438e-13
8.62918e-14
3.48157e-14
1.40972e-14
5.12624e-15
1.60195e-15
2.06648e-15
1.06797e-15
2.06648e-15
8.26591e-16
1.85983e-15
8.26591e-16
1.03324e-15
2.12023e-15
2.4736e-15
2.4736e-15
2.12023e-15
3.65249e-16
1.06012e-15
1.82624e-15
1.82624e-15
2.92199e-15
9.13122e-15
2.46543e-14
5.97182e-14
1.5797e-13
4.04513e-13
1.00991e-12
2.55711e-12
6.43715e-12
1.61411e-11
4.04526e-11
1.01086e-10
2.51441e-10
6.24904e-10
1.54039e-09
3.80716e-09
9.28654e-09
2.27308e-08
5.49525e-08
1.32998e-07
3.17368e-07
7.58286e-07
1.78651e-06
4.18952e-06
9.7169e-06
2.23139e-05
5.07213e-05
0.000113255
0.000250269
0.000541538
0.00114881
0.00237695
0.00477462
0.00925756
0.0171679
0.0301259
0.0491296
0.0720501
0.0899185
0.0957452
0.0957452
0.0960032
0.0960032
0.0933259
0.0926253
0.0909568
0.0795691
0.0584765
0.0374034
0.0217431
0.0118331
0.00610694
0.00303867
0.00146906
0.000690796
0.000319802
0.000144668
6.46193e-05
2.85979e-05
1.24316e-05
5.37988e-06
2.30042e-06
9.74957e-07
4.12279e-07
1.72023e-07
7.17631e-08
2.95845e-08
1.22439e-08
4.97496e-09
2.05839e-09
8.24204e-10
3.35796e-10
1.35556e-10
5.45036e-11
2.18307e-11
8.75594e-12
3.50304e-12
1.38345e-12
5.48294e-13
2.23312e-13
8.6719e-14
3.4175e-14
1.2602e-14
6.6214e-15
3.09711e-15
2.06648e-15
1.44653e-15
2.06648e-15
9.61171e-16
1.85983e-15
6.4078e-16
1.65318e-15
1.27837e-15
2.4736e-15
1.461e-15
2.4736e-15
7.30498e-16
1.06012e-15
7.30498e-16
2.55674e-15
3.46986e-15
9.31385e-15
2.02713e-14
6.31881e-14
1.55779e-13
3.93373e-13
1.00681e-12
2.5456e-12
6.38656e-12
1.60741e-11
4.03761e-11
1.00741e-10
2.51617e-10
6.22492e-10
1.54099e-09
3.79544e-09
9.30598e-09
2.26941e-08
5.49934e-08
1.32836e-07
3.17944e-07
7.57488e-07
1.78849e-06
4.19002e-06
9.72355e-06
2.23327e-05
5.06757e-05
0.000113438
0.000250211
0.000541791
0.00114926
0.00237828
0.00477938
0.00926768
0.0172005
0.0302326
0.0494992
0.0732668
0.0901948
0.0963249
0.0963249
0.0961022
0.0959438
0.0930234
0.0930234
0.0914709
0.0806683
0.0588867
0.0375341
0.0218045
0.0118482
0.00611789
0.00303937
0.00146532
0.0006891
0.000317617
0.000143783
6.41878e-05
2.82805e-05
1.23158e-05
5.31633e-06
2.27203e-06
9.64246e-07
4.06363e-07
1.69488e-07
7.08504e-08
2.91512e-08
1.20454e-08
4.91806e-09
2.00697e-09
8.17907e-10
3.30727e-10
1.33466e-10
5.36327e-11
2.14557e-11
8.6028e-12
3.44825e-12
1.35546e-12
5.47974e-13
2.18613e-13
8.62918e-14
3.2039e-14
1.51651e-14
6.83499e-15
3.4175e-15
1.28156e-15
1.44653e-15
1.44653e-15
2.06648e-15
2.89307e-15
1.44653e-15
1.65318e-15
1.06012e-15
7.30498e-16
1.41349e-15
2.4736e-15
7.30498e-16
7.30498e-16
1.06012e-15
1.76686e-15
5.66136e-15
1.3149e-14
2.64805e-14
6.13618e-14
1.49935e-13
4.02687e-13
9.88364e-13
2.53227e-12
6.3641e-12
1.60279e-11
4.02229e-11
1.0074e-10
2.5086e-10
6.23323e-10
1.54358e-09
3.78595e-09
9.34113e-09
2.26474e-08
5.51062e-08
1.32764e-07
3.18386e-07
7.5751e-07
1.78926e-06
4.19156e-06
9.72649e-06
2.23345e-05
5.06814e-05
0.000113473
0.000250164
0.000541764
0.00114911
0.00237795
0.00477798
0.00926299
0.0171826
0.0301531
0.0491743
0.072086
0.0898979
0.0956866
0.0956866
0.0961084
0.0961084
0.0933168
0.0925119
0.0909184
0.0795583
0.0585523
0.0374505
0.0217856
0.0118385
0.00611401
0.00303701
0.00146309
0.000687655
0.000316674
0.000143305
6.38943e-05
2.81247e-05
1.22406e-05
5.27435e-06
2.25283e-06
9.5421e-07
4.01821e-07
1.67657e-07
6.97586e-08
2.882e-08
1.18373e-08
4.84793e-09
1.97838e-09
8.03994e-10
3.25178e-10
1.31354e-10
5.27956e-11
2.11736e-11
8.46321e-12
3.39774e-12
1.33603e-12
5.40819e-13
2.11778e-13
8.59714e-14
3.34274e-14
1.19612e-14
5.66023e-15
2.27313e-15
8.54374e-16
1.44653e-15
1.03324e-15
2.06648e-15
2.89307e-15
2.27313e-15
3.09972e-15
5.47873e-16
7.30498e-16
1.41349e-15
7.30498e-16
7.06743e-16
3.65249e-16
1.06012e-15
1.09575e-15
3.83511e-15
8.76597e-15
2.41064e-14
5.71615e-14
1.51396e-13
3.94286e-13
9.8672e-13
2.5299e-12
6.33542e-12
1.60109e-11
4.01597e-11
1.00871e-10
2.50363e-10
6.25681e-10
1.53568e-09
3.79384e-09
9.33884e-09
2.26335e-08
5.51984e-08
1.32489e-07
3.19022e-07
7.56873e-07
1.79029e-06
4.19215e-06
9.72741e-06
2.23359e-05
5.06828e-05
0.000113469
0.000250148
0.000541717
0.00114894
0.00237758
0.00477723
0.00926178
0.0171826
0.0301688
0.049285
0.0726552
0.0902678
0.0961793
0.0961793
0.0953993
0.0953993
0.0930212
0.0930212
0.0912519
0.0800537
0.058645
0.0374596
0.0217827
0.0118353
0.00611168
0.00303546
0.00146211
0.000687023
0.000316262
0.000143083
6.37711e-05
2.80568e-05
1.22046e-05
5.25565e-06
2.24342e-06
9.49284e-07
3.99636e-07
1.66598e-07
6.92589e-08
2.85623e-08
1.17885e-08
4.7831e-09
1.96607e-09
7.93865e-10
3.22238e-10
1.29869e-10
5.22303e-11
2.0953e-11
8.39369e-12
3.34904e-12
1.33603e-12
5.35158e-13
2.10496e-13
8.82141e-14
3.57769e-14
1.82622e-14
7.36898e-15
2.66992e-15
1.49515e-15
1.44653e-15
1.28156e-15
8.26591e-16
4.27187e-16
2.27313e-15
3.09972e-15
)
;

boundaryField
{
    sides1
    {
        type            calculated;
        value           uniform 0;
    }
    sides2
    {
        type            calculated;
        value           uniform 0;
    }
    empty
    {
        type            empty;
    }
}


// ************************************************************************* //
