/*--------------------------------*- C++ -*----------------------------------*\
| =========                 |                                                 |
| \\      /  F ield         | OpenFOAM: The Open Source CFD Toolbox           |
|  \\    /   O peration     | Version:  3.0.1                                 |
|   \\  /    A nd           | Web:      www.OpenFOAM.org                      |
|    \\/     M anipulation  |                                                 |
\*---------------------------------------------------------------------------*/
FoamFile
{
    version     2.0;
    format      ascii;
    class       surfaceScalarField;
    location    "5e-05";
    object      phi;
}
// * * * * * * * * * * * * * * * * * * * * * * * * * * * * * * * * * * * * * //

dimensions      [1 0 -1 0 0 0 0];

internalField   nonuniform List<scalar> 
1890
(
-6.93889e-18
0
-6.93889e-18
-1.73472e-18
-3.46945e-18
6.93889e-18
-6.93889e-18
1.73472e-18
-6.93889e-18
1.73472e-18
2.42861e-17
5.20417e-18
1.04083e-17
1.73472e-18
1.73472e-17
3.46945e-18
5.55112e-17
0
1.9082e-16
-1.73472e-18
4.68375e-16
6.93889e-18
1.19002e-15
6.93889e-18
3.09475e-15
-6.93889e-18
7.92075e-15
-1.56125e-17
1.97793e-14
1.38778e-17
4.96339e-14
-3.46945e-18
1.25313e-13
-3.46945e-18
3.12955e-13
5.20417e-17
7.82579e-13
-6.03684e-16
1.95635e-12
7.14706e-16
4.83999e-12
1.69482e-15
1.2055e-11
-1.61104e-14
2.97074e-11
2.95874e-14
7.31721e-11
-9.02837e-14
1.78887e-10
2.49262e-14
4.36599e-10
4.85532e-14
1.05792e-09
-1.43926e-12
2.55219e-09
1.2273e-12
6.11525e-09
-6.24879e-12
1.45513e-08
-4.49873e-12
3.43786e-08
-1.73641e-11
8.0507e-08
-3.55237e-11
1.86793e-07
-8.52979e-11
4.28867e-07
-2.22579e-10
9.73026e-07
-4.62025e-10
2.17806e-06
-1.08869e-09
4.80076e-06
-2.46148e-09
1.03943e-05
-5.39411e-09
2.20406e-05
-1.19797e-08
4.55971e-05
-2.61288e-08
9.1568e-05
-5.09587e-08
0.000177479
-9.82144e-08
0.000329557
-2.42417e-07
0.000576733
-8.88376e-07
0.000939705
-2.58236e-06
0.0013791
-6.68886e-06
0.00168137
9.34733e-07
0.0017771
-2.4245e-06
0.00179459
-2.35033e-06
0.00178135
2.8939e-05
0.0017107
-6.03445e-06
0.00171779
-1.2021e-05
0.00166761
-6.2266e-07
0.00145928
-4.01886e-06
0.00103996
5.72646e-06
0.000647181
3.92904e-06
0.000370622
2.31386e-06
0.000199855
1.25226e-06
0.000102872
6.08591e-07
5.10641e-05
2.87174e-07
2.46182e-05
1.2174e-07
1.15838e-05
5.08151e-08
5.34013e-06
2.19351e-08
2.41979e-06
8.45329e-09
1.0791e-06
3.37741e-09
4.75571e-07
1.15873e-09
2.07009e-07
4.57573e-10
8.91561e-08
1.79008e-10
3.81112e-08
5.73995e-11
1.61337e-08
4.15861e-12
6.8019e-09
1.69114e-12
2.83743e-09
-4.77328e-13
1.18046e-09
-7.0546e-13
4.87559e-10
5.28822e-14
2.00642e-10
-5.63047e-13
8.19947e-11
-1.07414e-14
3.34342e-11
-6.87332e-14
1.35776e-11
-2.44388e-14
5.48602e-12
-9.38746e-15
2.21484e-12
-5.61964e-15
8.91148e-13
-1.25247e-15
3.57284e-13
-1.02349e-15
1.43299e-13
-4.02456e-16
5.72268e-14
-7.02563e-17
2.2829e-14
-3.81639e-17
9.18189e-15
-6.41848e-17
3.5822e-15
3.64292e-17
1.47798e-15
-4.16334e-17
5.44703e-16
2.08167e-17
1.94289e-16
-5.20417e-18
8.1532e-17
-1.12757e-17
2.60209e-17
1.73472e-18
-3.46945e-18
1.04083e-17
5.20417e-18
1.73472e-18
3.46945e-18
4.33681e-18
6.93889e-18
-8.67362e-19
1.73472e-18
8.67362e-18
-1.04083e-17
5.20417e-18
-1.21431e-17
8.67362e-18
1.04083e-17
-6.93889e-18
0
-3.46945e-18
5.20417e-18
-1.38778e-17
3.46945e-18
-3.46945e-18
1.73472e-18
0
1.73472e-18
0
1.21431e-17
-3.46945e-18
5.20417e-18
2.42861e-17
3.46945e-18
7.28584e-17
5.20417e-18
1.66533e-16
8.67362e-18
4.92661e-16
-1.56125e-17
1.22818e-15
3.46945e-18
3.12944e-15
1.73472e-17
7.88258e-15
6.93889e-18
1.97828e-14
-3.46945e-18
4.96235e-14
1.38778e-17
1.25223e-13
3.46945e-17
3.13295e-13
-1.99493e-16
7.79456e-13
6.83481e-16
1.95954e-12
-1.8683e-15
4.85102e-12
3.07046e-16
1.19808e-11
4.14772e-15
2.9824e-11
-3.12025e-14
7.28356e-11
1.91132e-14
1.78962e-10
-1.48027e-13
4.37206e-10
-2.29239e-13
1.0516e-09
-4.2702e-14
2.55822e-09
-3.07412e-12
6.09565e-09
-3.57895e-12
1.45266e-08
-7.70541e-12
3.43177e-08
-3.34961e-11
8.03456e-08
-5.76023e-11
1.86432e-07
-1.22817e-10
4.28033e-07
-3.71408e-10
9.71168e-07
-7.14311e-10
2.17382e-06
-1.71566e-09
4.79141e-06
-3.82118e-09
1.03739e-05
-7.81971e-09
2.19963e-05
-1.61748e-08
4.5502e-05
-3.37248e-08
9.13842e-05
-6.41537e-08
0.000177068
-1.2229e-07
0.000328053
-2.51752e-07
0.000573295
-3.0075e-07
0.000929405
-4.79995e-07
0.00134944
3.31933e-06
0.00167073
-2.37957e-06
0.00177073
2.70894e-06
0.00176027
3.56387e-06
0.00179497
-1.7407e-05
0.00173396
8.5173e-06
0.00171153
8.84174e-06
0.00166612
-1.98467e-06
0.00143383
1.32131e-06
0.0010259
-3.32542e-06
0.000639534
1.63119e-06
0.000366342
1.08286e-06
0.000197647
7.06682e-07
0.000101828
4.39478e-07
5.05908e-05
2.7302e-07
2.44151e-05
1.0685e-07
1.14975e-05
5.07954e-08
5.3031e-06
2.51569e-08
2.40616e-06
9.21047e-09
1.07269e-06
3.99032e-09
4.73735e-07
1.56936e-09
2.06205e-07
3.52842e-10
8.89184e-08
1.43768e-10
3.80776e-08
4.76454e-11
1.61154e-08
2.04977e-11
6.80287e-09
-4.8995e-12
2.83919e-09
1.60225e-12
1.17955e-09
-1.32504e-12
4.89344e-10
-7.75421e-13
2.00419e-10
-3.44422e-13
8.22653e-11
-2.31047e-13
3.3529e-11
-1.034e-13
1.36115e-11
-3.99993e-14
5.51526e-12
-2.2057e-14
2.21954e-12
-7.72819e-15
8.95868e-13
-1.94029e-15
3.59013e-13
-1.17961e-15
1.43597e-13
-4.4062e-16
5.75304e-14
-1.30972e-16
2.30267e-14
-1.49186e-16
9.05699e-15
2.86229e-17
3.68455e-15
-3.64292e-17
1.40339e-15
8.67362e-18
5.74193e-16
-4.33681e-18
2.35922e-16
-5.20417e-18
8.67362e-17
8.67362e-18
2.42861e-17
0
2.25514e-17
6.93889e-18
-1.21431e-17
8.67362e-18
-1.9082e-17
6.93889e-18
-1.73472e-18
6.07153e-18
1.38778e-17
8.67362e-19
2.08167e-17
5.20417e-18
5.20417e-18
4.33681e-18
1.38778e-17
4.16334e-17
6.93889e-18
2.77556e-17
1.73472e-18
1.38778e-17
0
-6.93889e-18
6.93889e-18
-6.93889e-18
5.20417e-18
2.42861e-17
1.04083e-17
0
0
4.85723e-17
6.93889e-18
1.11022e-16
3.46945e-18
2.28983e-16
-5.20417e-18
4.3715e-16
2.42861e-17
1.23512e-15
-3.29597e-17
3.10516e-15
4.16334e-17
7.89299e-15
5.20417e-18
1.97689e-14
-3.64292e-17
4.96443e-14
-3.46945e-18
1.25747e-13
-3.4521e-16
3.12701e-13
-7.97973e-17
7.8396e-13
-5.51642e-16
1.95375e-12
-1.43288e-15
4.84915e-12
-2.76688e-15
1.20235e-11
-5.50948e-15
2.96997e-11
-2.82708e-14
7.2936e-11
-6.8695e-15
1.78357e-10
-6.16156e-14
4.35825e-10
-5.23172e-13
1.05267e-09
-1.7941e-13
2.54467e-09
-2.5865e-12
6.08055e-09
-9.91818e-13
1.44861e-08
-7.85744e-12
3.41982e-08
-4.83052e-11
8.01186e-08
-5.23625e-11
1.85994e-07
-1.54281e-10
4.26443e-07
-1.8133e-11
9.68283e-07
-7.80105e-10
2.16718e-06
-1.42376e-09
4.77767e-06
-4.44822e-09
1.03467e-05
-7.91571e-09
2.19406e-05
-1.4711e-08
4.53993e-05
-4.1914e-08
9.12015e-05
-7.17126e-08
0.000176755
-1.66138e-07
0.000327618
-3.62047e-07
0.000574375
-7.85774e-07
0.000935545
-2.08118e-06
0.00137803
-4.82925e-06
0.00168441
7.24414e-07
0.00178747
-1.71533e-06
0.00179948
-1.06549e-07
0.00176859
1.70623e-05
0.00170806
-6.4912e-06
0.00172791
-9.55219e-06
0.00168436
1.89718e-06
0.00146629
9.49233e-08
0.00103474
4.66012e-06
0.000641828
2.50643e-06
0.000365916
1.33419e-06
0.000196822
5.6705e-07
0.000101095
2.64453e-07
5.02107e-05
1.89458e-07
2.42294e-05
4.25207e-08
1.14017e-05
2.71741e-08
5.26535e-06
1.17226e-08
2.3881e-06
4.12575e-09
1.06632e-06
1.7624e-09
4.71172e-07
3.69873e-10
2.0531e-07
3.03528e-10
8.86783e-08
-4.00095e-11
3.7905e-08
1.84362e-11
1.61145e-08
-1.14281e-11
6.78092e-09
-4.504e-12
2.84229e-09
-3.60419e-12
1.18158e-09
-5.50711e-13
4.89783e-10
-1.2887e-12
2.012e-10
-1.75725e-13
8.26591e-11
-2.13119e-13
3.36495e-11
-5.48598e-14
1.37011e-11
-3.97495e-14
5.54626e-12
-1.44459e-14
2.2343e-12
-4.24487e-15
9.00635e-13
-2.57259e-15
3.61548e-13
-8.65627e-16
1.44306e-13
-3.29597e-17
5.80369e-14
-2.24647e-16
2.29452e-14
2.1684e-17
9.24087e-15
-2.25514e-17
3.62904e-15
1.64799e-17
1.44676e-15
6.93889e-18
5.51642e-16
8.67362e-18
1.85615e-16
1.12757e-17
1.00614e-16
-9.54098e-18
3.81639e-17
2.60209e-18
2.77556e-17
0
2.42861e-17
5.20417e-18
1.73472e-18
8.67362e-18
0
8.67362e-18
5.20417e-18
1.04083e-17
0
3.46945e-18
1.38778e-17
-8.67362e-19
-4.33681e-18
1.38778e-17
6.93889e-18
0
1.73472e-18
2.08167e-17
-3.46945e-18
-6.93889e-18
0
-6.93889e-18
0
0
1.73472e-18
2.77556e-17
1.73472e-18
3.1225e-17
5.20417e-18
7.97973e-17
0
1.59595e-16
1.56125e-17
5.06539e-16
-5.20417e-18
1.0443e-15
2.42861e-17
3.09475e-15
-5.37764e-17
7.89993e-15
-6.93889e-18
1.96752e-14
1.21431e-17
4.97068e-14
-4.33681e-17
1.24453e-13
-2.7929e-16
3.12372e-13
-3.48679e-16
7.81614e-13
-2.06432e-16
1.94523e-12
-1.65666e-15
4.83777e-12
-3.86149e-15
1.19878e-11
-5.04111e-15
2.96522e-11
-6.52447e-14
7.28202e-11
-4.46188e-14
1.78216e-10
-1.79069e-13
4.34044e-10
-4.04276e-13
1.05214e-09
-5.97482e-13
2.53509e-09
-2.38889e-12
6.06009e-09
-1.34599e-12
1.44752e-08
-2.05273e-11
3.40465e-08
-2.28516e-11
7.98211e-08
-3.34931e-11
1.85427e-07
-1.03193e-10
4.24888e-07
-1.72669e-10
9.65619e-07
-5.39274e-10
2.16049e-06
-6.98172e-10
4.76296e-06
-4.17064e-09
1.03178e-05
-5.16122e-09
2.18798e-05
-8.60558e-09
4.52707e-05
-4.1005e-08
9.09101e-05
-4.98463e-08
0.000176154
-1.11673e-07
0.000326273
-2.64083e-07
0.000571262
-5.63856e-07
0.000927953
-9.71438e-07
0.00135626
-1.37423e-06
0.00167849
-7.59591e-07
0.00178035
8.07213e-07
0.00176822
2.97684e-06
0.00177777
-6.36959e-06
0.0017224
2.85333e-06
0.00171866
-2.46854e-06
0.00167642
-9.32592e-08
0.00144596
1.75868e-06
0.00102716
8.7991e-07
0.000637607
1.68614e-06
0.000363216
5.17922e-07
0.000195792
-3.73681e-08
0.000100266
1.86783e-07
5.00552e-05
1.60352e-08
2.40868e-05
2.05523e-08
1.1328e-05
-9.43035e-09
5.25006e-06
-4.06603e-09
2.37946e-06
-3.2632e-10
1.06419e-06
-7.42274e-11
4.69847e-07
4.32674e-11
2.05646e-07
-2.28885e-11
8.85818e-08
1.48642e-10
3.79452e-08
-1.07978e-11
1.61293e-08
3.8896e-12
6.8014e-09
5.83209e-12
2.84286e-09
1.20902e-12
1.18663e-09
3.76759e-13
4.90208e-10
2.12381e-13
2.02342e-10
1.01251e-13
8.2826e-11
8.07149e-14
3.38422e-11
1.78026e-14
1.3774e-11
9.6442e-15
5.56377e-12
-5.20417e-17
2.24717e-12
2.26728e-15
9.0568e-13
7.63278e-16
3.62202e-13
6.04551e-16
1.45245e-13
2.65413e-16
5.7912e-14
5.72459e-17
2.30597e-14
3.98986e-17
9.21138e-15
2.08167e-17
3.67241e-15
6.93889e-18
1.44676e-15
3.46945e-18
5.93275e-16
1.73472e-18
2.61943e-16
3.46945e-18
1.16226e-16
1.9082e-17
5.55112e-17
6.07153e-18
1.21431e-17
0
6.93889e-18
8.67362e-19
-1.04083e-17
-8.67362e-19
5.20417e-18
1.73472e-18
1.04083e-17
-4.33681e-18
1.56125e-17
-4.33681e-18
-3.46945e-18
-6.93889e-18
-3.46945e-18
6.93889e-18
-3.46945e-18
6.93889e-18
-5.20417e-18
3.46945e-18
-8.67362e-18
1.73472e-17
1.73472e-18
0
-3.46945e-18
6.93889e-18
8.67362e-18
-1.04083e-17
1.73472e-18
1.73472e-17
1.73472e-18
7.28584e-17
5.20417e-18
1.97758e-16
-3.46945e-18
4.78784e-16
-1.73472e-18
1.19349e-15
0
2.95944e-15
1.56125e-17
7.8583e-15
-6.93889e-17
1.9422e-14
-1.38778e-17
4.93772e-14
-1.04083e-16
1.22929e-13
-4.16334e-17
3.11386e-13
-1.05818e-15
7.75685e-13
-7.35523e-16
1.94054e-12
-2.01054e-15
4.81358e-12
-5.00988e-15
1.19841e-11
-1.52846e-14
2.9449e-11
-4.02733e-14
7.26195e-11
-6.9042e-14
1.77519e-10
-1.90284e-13
4.32721e-10
-3.09154e-13
1.049e-09
-7.37228e-13
2.5272e-09
-1.24376e-12
6.06081e-09
-4.03058e-12
1.43979e-08
-2.96072e-12
3.39982e-08
-2.78548e-11
7.96717e-08
2.25068e-12
1.84995e-07
-1.33835e-10
4.24206e-07
-6.13344e-11
9.6345e-07
-4.31975e-10
2.15966e-06
-5.99399e-10
4.75031e-06
-1.29045e-09
1.02961e-05
-3.14217e-09
2.18706e-05
-6.15224e-09
4.51386e-05
-1.52912e-08
9.07017e-05
-2.45386e-08
0.00017572
-4.86258e-08
0.000325281
-8.48275e-08
0.000569613
-1.39242e-07
0.000925768
-2.30723e-07
0.00135666
-3.28343e-07
0.0016811
-5.30674e-07
0.00178878
-7.93147e-07
0.0017794
-1.47793e-07
0.00176117
-4.34062e-06
0.00171866
3.2193e-06
0.00172323
6.45405e-07
0.00167997
1.22896e-06
0.00145099
-1.19993e-06
0.0010256
2.31043e-07
0.000636101
3.13181e-08
0.000362829
2.10901e-07
0.000195502
2.93709e-07
0.000100423
2.44901e-07
5.0025e-05
1.20329e-07
2.41602e-05
7.58054e-08
1.13636e-05
2.4781e-08
5.25812e-06
1.18529e-08
2.382e-06
6.55065e-09
1.06554e-06
2.66746e-09
4.70715e-07
1.44151e-09
2.05192e-07
5.9306e-10
8.87876e-08
3.1096e-10
3.79262e-08
1.15442e-10
1.61092e-08
4.89456e-11
6.79385e-09
2.45262e-11
2.83997e-09
8.40013e-12
1.185e-09
3.40495e-12
4.89625e-10
1.66695e-12
2.01912e-10
6.63886e-13
8.28127e-11
2.39002e-13
3.37627e-11
2.05916e-13
1.37558e-11
3.99663e-14
5.54752e-12
4.14026e-14
2.24194e-12
7.0343e-15
9.04733e-13
2.45203e-15
3.60736e-13
2.95337e-15
1.44829e-13
3.60822e-16
5.78322e-14
-1.73472e-17
2.30354e-14
5.9848e-17
9.18016e-15
5.9848e-17
3.64812e-15
2.60209e-17
1.45543e-15
-5.20417e-18
5.56846e-16
1.82146e-17
1.94289e-16
7.80626e-18
1.09288e-16
-1.04083e-17
5.0307e-17
-1.73472e-18
2.25514e-17
0
1.56125e-17
-1.73472e-18
8.67362e-18
0
-1.04083e-17
-6.07153e-18
-2.42861e-17
8.67362e-19
-2.77556e-17
0
-2.42861e-17
3.46945e-18
8.67362e-19
2.77556e-17
1.04083e-17
1.73472e-17
1.21431e-17
3.46945e-17
1.21431e-17
1.04083e-17
3.46945e-18
1.38778e-17
-1.73472e-18
-6.93889e-18
-1.73472e-18
3.46945e-17
-3.46945e-18
3.1225e-17
-3.46945e-18
8.32667e-17
-5.20417e-18
1.8735e-16
1.73472e-18
4.4062e-16
3.46945e-18
1.14145e-15
-6.93889e-18
3.11556e-15
-2.94903e-17
7.69176e-15
-1.38778e-17
1.93318e-14
-3.29597e-17
4.89435e-14
-2.08167e-17
1.23148e-13
-1.66533e-16
3.08149e-13
-5.42968e-16
7.7182e-13
-7.92769e-16
1.93175e-12
-2.44076e-15
4.78561e-12
-3.16067e-15
1.19179e-11
-1.3007e-14
2.93354e-11
-1.7767e-14
7.23163e-11
-2.9244e-14
1.77044e-10
-2.0383e-13
4.31155e-10
5.08101e-14
1.04715e-09
-1.02454e-12
2.52149e-09
8.36999e-13
6.0446e-09
-4.72023e-12
1.44095e-08
-1.11322e-12
3.3913e-08
-1.36582e-12
7.97356e-08
-2.96302e-11
1.84566e-07
-6.56108e-12
4.24151e-07
-4.50246e-11
9.62008e-07
2.53898e-10
2.15621e-06
-9.96229e-10
4.7467e-06
1.23715e-09
1.0282e-05
4.51653e-10
2.18467e-05
-4.02852e-09
4.51032e-05
3.79954e-09
9.06243e-05
4.76381e-10
0.00017557
2.48374e-08
0.000325015
6.20161e-08
0.000569176
1.57068e-07
0.000925237
2.15844e-07
0.00135656
-1.07945e-07
0.0016808
1.02881e-07
0.00178945
-1.4905e-06
0.0017819
-3.56031e-06
0.00175605
5.94968e-06
0.00171942
-1.78909e-06
0.00172604
1.7435e-06
0.00168222
1.76291e-06
0.00144877
-2.8692e-07
0.00102598
-7.47098e-07
0.000635692
-3.30499e-07
0.000362186
-2.82477e-07
0.000194646
2.84049e-08
0.000100091
4.80131e-08
4.96835e-05
1.09291e-07
2.40017e-05
7.60433e-08
1.132e-05
4.42333e-08
5.2259e-06
1.84923e-08
2.37108e-06
1.13552e-08
1.05965e-06
5.79647e-09
4.68241e-07
2.29552e-09
2.04024e-07
1.06761e-09
8.81811e-08
3.19112e-10
3.77393e-08
1.88074e-10
1.60027e-08
6.84149e-11
6.7586e-09
2.89164e-11
2.82749e-09
1.49777e-11
1.17792e-09
2.99044e-12
4.86822e-10
2.58679e-12
2.01038e-10
1.07818e-12
8.22414e-11
4.64972e-13
3.35943e-11
4.51071e-13
1.36113e-11
8.53241e-14
5.52494e-12
5.31623e-14
2.23297e-12
1.64235e-14
8.95504e-13
5.64392e-15
3.59665e-13
2.8276e-15
1.43774e-13
7.66748e-16
5.75408e-14
3.70363e-16
2.27301e-14
1.9082e-17
9.08301e-15
5.0307e-17
3.64465e-15
4.68375e-17
1.40166e-15
1.38778e-17
5.6552e-16
-7.80626e-18
2.28983e-16
-3.46945e-18
8.32667e-17
5.20417e-18
2.60209e-17
-8.67362e-19
1.9082e-17
-3.46945e-18
1.73472e-17
-8.67362e-18
1.04083e-17
-4.33681e-18
-8.67362e-18
-8.67362e-18
-8.67362e-18
-3.46945e-18
1.73472e-18
-7.80626e-18
1.73472e-18
8.67362e-19
-4.33681e-18
0
0
6.93889e-18
-1.21431e-17
1.04083e-17
-5.20417e-18
6.93889e-18
-1.04083e-17
3.46945e-18
0
1.04083e-17
-5.20417e-18
3.46945e-17
-1.73472e-18
3.46945e-17
-6.93889e-18
5.55112e-17
3.46945e-18
1.73472e-16
5.20417e-18
4.68375e-16
-2.25514e-17
1.13451e-15
3.46945e-18
3.00107e-15
-3.1225e-17
7.68482e-15
-3.46945e-17
1.9186e-14
-3.1225e-17
4.85792e-14
-8.50015e-17
1.22291e-13
-1.2837e-16
3.06644e-13
-3.747e-16
7.68507e-13
-6.64399e-16
1.92039e-12
-1.07379e-15
4.7768e-12
-1.19696e-15
1.18717e-11
-1.56663e-14
2.92638e-11
4.18068e-16
7.23274e-11
-5.48641e-14
1.76423e-10
4.16386e-14
4.31832e-10
-2.01792e-13
1.04397e-09
8.55219e-14
2.52666e-09
-4.34571e-13
6.02927e-09
1.33266e-12
1.44057e-08
-3.58432e-12
3.39396e-08
6.52777e-12
7.95912e-08
-6.47284e-13
1.84599e-07
2.62043e-11
4.23912e-07
7.27398e-11
9.63585e-07
-7.39647e-11
2.15157e-06
6.19657e-10
4.75442e-06
-1.8062e-11
1.02874e-05
1.31925e-09
2.18223e-05
1.35017e-09
4.5145e-05
1.30918e-09
9.06561e-05
1.70221e-08
0.000175666
4.75158e-08
0.000325375
1.32095e-07
0.000569675
3.91829e-07
0.000925271
1.29217e-06
0.00135089
4.63673e-06
0.00167616
-1.81694e-06
0.00178047
3.89698e-06
0.00176988
2.22565e-06
0.00177513
-1.85386e-05
0.0017245
5.69334e-06
0.00171844
9.53066e-06
0.00167699
-2.36621e-06
0.0014444
1.48787e-06
0.00102663
-4.85493e-06
0.000637559
-1.18561e-06
0.000363021
-3.9141e-07
0.000195063
-7.34408e-08
9.99467e-05
6.36257e-10
4.9542e-05
4.05212e-08
2.39049e-05
3.9218e-08
1.12302e-05
2.81038e-08
5.19662e-06
1.67935e-08
2.35029e-06
9.43324e-09
1.04971e-06
4.63989e-09
4.64538e-07
2.44576e-09
2.01932e-07
1.13191e-09
8.73871e-08
5.44586e-10
3.73664e-08
2.56059e-10
1.58365e-08
1.0976e-10
6.69674e-09
4.93918e-11
2.79421e-09
2.10496e-11
1.16566e-09
9.02857e-12
4.80548e-10
3.86221e-12
1.9888e-10
1.61401e-12
8.08095e-11
5.57453e-13
3.34349e-11
2.97541e-13
1.33877e-11
2.46313e-13
5.4544e-12
3.17116e-14
2.20186e-12
9.99201e-15
8.85314e-13
5.13391e-15
3.54602e-13
1.71304e-15
1.42225e-13
8.80372e-16
5.69007e-14
4.14599e-16
2.24716e-14
1.73472e-16
8.90607e-15
1.42247e-16
3.62731e-15
3.46945e-18
1.4086e-15
2.08167e-17
5.55112e-16
-1.04083e-17
2.04697e-16
8.67362e-18
1.07553e-16
-5.20417e-18
5.0307e-17
-4.33681e-18
2.60209e-17
1.73472e-18
-1.73472e-18
-2.60209e-18
8.67362e-18
-6.07153e-18
1.56125e-17
-6.07153e-18
1.73472e-18
-1.73472e-18
1.73472e-18
-4.33681e-18
-1.04083e-17
-8.67362e-19
-6.93889e-18
2.42861e-17
5.20417e-18
2.77556e-17
1.73472e-18
6.93889e-18
-5.20417e-18
1.38778e-17
-1.21431e-17
3.46945e-18
-1.73472e-18
-1.04083e-17
-1.73472e-18
1.38778e-17
-1.73472e-18
4.85723e-17
-8.67362e-18
6.59195e-17
-5.20417e-18
1.76942e-16
0
3.85109e-16
1.21431e-17
1.20043e-15
-1.38778e-17
2.95944e-15
-2.77556e-17
7.47319e-15
3.29597e-17
1.91271e-14
-1.30104e-16
4.83606e-14
-4.51028e-17
1.2133e-13
-1.85615e-16
3.0537e-13
-2.7929e-16
7.67053e-13
-6.69603e-16
1.91385e-12
-5.70724e-16
4.78014e-12
-3.75915e-15
1.18259e-11
7.91034e-16
2.92754e-11
-1.06859e-15
7.21046e-11
-4.48409e-14
1.76792e-10
1.17968e-13
4.31135e-10
-2.57787e-13
1.04475e-09
4.5945e-13
2.52359e-09
-4.23222e-13
6.04021e-09
1.12886e-12
1.43905e-08
1.91567e-13
3.39772e-08
1.0919e-12
7.96008e-08
5.6341e-12
1.84725e-07
1.97969e-11
4.24269e-07
2.85202e-11
9.62719e-07
5.22345e-11
2.15503e-06
1.85933e-10
4.75333e-06
-1.38886e-11
1.02923e-05
3.18378e-10
2.18307e-05
3.35939e-12
4.51703e-05
-1.11003e-09
9.07466e-05
-3.24275e-09
0.000175858
-1.01733e-08
0.000325994
-4.64679e-08
0.000571707
-2.5088e-07
0.000932181
-1.00881e-06
0.00137468
-3.93609e-06
0.00168354
2.28271e-06
0.00179132
-2.02962e-06
0.00180402
-1.49883e-06
0.00176991
1.86187e-05
0.00171019
-9.12107e-06
0.00173096
-9.16854e-06
0.00168633
1.54595e-06
0.00146811
-2.06833e-06
0.00103405
4.1273e-06
0.000639877
1.06366e-06
0.000364067
2.66242e-07
0.000195316
8.3705e-08
0.000100127
5.91194e-08
4.95532e-05
3.89705e-08
2.38441e-05
2.33142e-08
1.12026e-05
1.62376e-08
5.1611e-06
8.79985e-09
2.33591e-06
4.9945e-09
1.0427e-06
2.75604e-09
4.59381e-07
1.37082e-09
2.00052e-07
7.63967e-10
8.63549e-08
3.65427e-10
3.69052e-08
1.84646e-10
1.56625e-08
8.95825e-11
6.60064e-09
3.9849e-11
2.75304e-09
1.84589e-11
1.15084e-09
8.22484e-12
4.7351e-10
2.884e-12
1.95656e-10
1.48442e-12
7.98851e-11
6.02626e-13
3.25997e-11
2.93182e-13
1.32854e-11
1.48338e-13
5.37207e-12
4.93191e-14
2.16792e-12
1.88287e-14
8.71168e-13
7.04038e-15
3.48509e-13
2.80331e-15
1.39737e-13
1.05298e-15
5.60108e-14
2.06432e-16
2.20171e-14
2.02095e-16
8.90087e-15
8.23994e-17
3.55098e-15
9.54098e-18
1.40166e-15
2.08167e-17
5.20417e-16
1.38778e-17
2.46331e-16
-1.73472e-18
1.11022e-16
-6.93889e-18
5.55112e-17
-2.60209e-18
2.08167e-17
-9.54098e-18
3.46945e-18
1.73472e-18
-6.93889e-18
3.46945e-18
-1.21431e-17
-4.33681e-18
-1.73472e-18
-8.67362e-18
-1.73472e-18
-1.21431e-17
5.20417e-18
-6.07153e-18
-6.93889e-18
-1.38778e-17
1.73472e-18
-3.46945e-18
0
1.38778e-17
-6.93889e-18
6.93889e-18
0
1.38778e-17
3.46945e-18
6.93889e-18
0
1.73472e-17
-5.20417e-18
2.42861e-17
0
1.07553e-16
-1.73472e-18
2.498e-16
-1.04083e-17
5.0307e-16
3.46945e-18
1.16573e-15
-1.73472e-17
2.84842e-15
6.93889e-18
7.65013e-15
-3.29597e-17
1.87766e-14
-3.64292e-17
4.81074e-14
-4.85723e-17
1.20903e-13
-1.30104e-16
3.04493e-13
-1.19696e-16
7.64142e-13
-4.90927e-16
1.91383e-12
2.35922e-16
4.76577e-12
-3.75047e-15
1.18417e-11
8.35096e-15
2.93245e-11
-3.89168e-14
7.19243e-11
4.25406e-14
1.7746e-10
-1.25178e-14
4.30249e-10
-5.24372e-14
1.04689e-09
3.71399e-13
2.52222e-09
-1.14256e-12
6.0486e-09
2.85915e-12
1.43909e-08
-2.88525e-12
3.39919e-08
5.97123e-12
7.96301e-08
1.73823e-12
1.84781e-07
7.66688e-12
4.24304e-07
1.14651e-11
9.62826e-07
2.0886e-11
2.1557e-06
3.43469e-11
4.75243e-06
-5.11821e-12
1.02917e-05
-8.6097e-11
2.18278e-05
-6.7757e-10
4.5164e-05
-1.56158e-09
9.07199e-05
-3.56957e-09
0.000175769
-6.84867e-09
0.000325653
-1.02928e-08
0.000570188
3.87056e-09
0.000926094
1.87274e-07
0.00135158
1.50652e-06
0.00167594
5.38393e-07
0.00177902
2.6875e-06
0.00176648
2.15152e-06
0.00177724
-6.93007e-06
0.00172433
1.40663e-06
0.00171615
1.33277e-06
0.00167631
-3.31573e-06
0.00144429
5.51342e-07
0.00102807
-1.31451e-06
0.000638401
1.56243e-08
0.000363746
3.55979e-08
0.000195154
3.50378e-08
0.000100063
2.65162e-08
4.95146e-05
1.68921e-08
2.38076e-05
1.00453e-08
1.1179e-05
6.3979e-09
5.14577e-06
3.80192e-09
2.32814e-06
2.30032e-09
1.03793e-06
1.19497e-09
4.56851e-07
6.49197e-10
1.9883e-07
3.54021e-10
8.56729e-08
1.75107e-10
3.65933e-08
9.06747e-11
1.54995e-08
4.32326e-11
6.52686e-09
2.14215e-11
2.72329e-09
9.95992e-12
1.1331e-09
4.41056e-12
4.6813e-10
2.0416e-12
1.92275e-10
9.23569e-13
7.8746e-11
2.46007e-13
3.21353e-11
1.93132e-13
1.30595e-11
5.70351e-14
5.28195e-12
3.45071e-14
2.13361e-12
1.15186e-14
8.57571e-13
5.47219e-15
3.43928e-13
2.10942e-15
1.3747e-13
8.05779e-16
5.51902e-14
2.21177e-16
2.17014e-14
2.40259e-16
8.78464e-15
5.20417e-18
3.43996e-15
1.9082e-17
1.39645e-15
-1.38778e-17
5.42968e-16
1.47451e-17
1.94289e-16
1.82146e-17
9.19403e-17
-3.46945e-18
2.25514e-17
4.33681e-18
-1.04083e-17
0
-1.38778e-17
-8.67362e-19
0
-6.07153e-18
-3.46945e-18
-8.67362e-19
-3.46945e-18
-3.46945e-18
1.73472e-18
-1.73472e-18
-5.20417e-18
-9.54098e-18
-1.30104e-17
1.04083e-17
1.38778e-17
1.38778e-17
3.46945e-18
6.93889e-18
-3.46945e-18
3.46945e-18
2.08167e-17
7.28584e-17
1.66533e-16
4.57967e-16
1.08594e-15
2.87617e-15
7.49054e-15
1.87454e-14
4.80622e-14
1.20359e-13
3.0417e-13
7.62942e-13
1.91631e-12
4.75632e-12
1.18865e-11
2.91744e-11
7.20742e-11
1.77417e-10
4.29986e-10
1.04864e-09
2.51699e-09
6.06068e-09
1.43788e-08
3.40115e-08
7.96412e-08
1.84798e-07
4.2433e-07
9.62852e-07
2.15563e-06
4.75213e-06
1.02909e-05
2.18247e-05
4.51568e-05
9.07058e-05
0.000175746
0.000325652
0.000570491
0.00092817
0.00136263
0.00168371
0.00178876
0.00178121
0.00176246
0.00171922
0.00172868
0.00168253
0.00145493
0.00102967
0.00063856
0.000363695
0.000195101
0.000100025
4.94892e-05
2.37916e-05
1.11688e-05
5.13907e-06
2.32452e-06
1.03593e-06
4.55748e-07
1.98245e-07
8.53692e-08
3.64405e-08
1.54194e-08
6.49139e-09
2.70609e-09
1.12499e-09
4.63944e-10
1.91483e-10
7.7693e-11
3.19353e-11
1.28949e-11
5.23419e-12
2.1095e-12
8.48389e-13
3.40344e-13
1.36341e-13
5.43992e-14
2.17014e-14
8.6927e-15
3.41914e-15
1.43288e-15
5.81132e-16
2.96638e-16
1.19696e-16
4.33681e-17
2.42861e-17
-5.20417e-18
-2.08167e-17
-6.93889e-18
-3.46945e-18
-6.93889e-18
-1.9082e-17
)
;

boundaryField
{
    sides1
    {
        type            calculated;
        value           nonuniform List<scalar> 
20
(
-1.9082e-17
1.21431e-17
1.56125e-17
3.46945e-18
-2.77556e-17
2.25514e-17
-6.93889e-18
3.46945e-18
1.04083e-17
-2.60209e-17
0
-6.93889e-18
-4.16334e-17
-6.93889e-18
-1.73472e-17
-3.81639e-17
3.46945e-18
-4.85723e-17
0
-3.46945e-18
)
;
    }
    sides2
    {
        type            calculated;
        value           uniform 0;
    }
    empty
    {
        type            empty;
        value           nonuniform 0();
    }
}


// ************************************************************************* //
