/*--------------------------------*- C++ -*----------------------------------*\
| =========                 |                                                 |
| \\      /  F ield         | OpenFOAM: The Open Source CFD Toolbox           |
|  \\    /   O peration     | Version:  3.0.1                                 |
|   \\  /    A nd           | Web:      www.OpenFOAM.org                      |
|    \\/     M anipulation  |                                                 |
\*---------------------------------------------------------------------------*/
FoamFile
{
    version     2.0;
    format      ascii;
    class       volScalarField;
    location    "5e-05";
    object      rho;
}
// * * * * * * * * * * * * * * * * * * * * * * * * * * * * * * * * * * * * * //

dimensions      [1 -3 0 0 0 0 0];

internalField   nonuniform List<scalar> 
1000
(
0.83124
0.83124
0.83124
0.83124
0.83124
0.83124
0.83124
0.83124
0.83124
0.83124
0.83124
0.83124
0.83124
0.83124
0.83124
0.83124
0.83124
0.83124
0.83124
0.83124
0.83124
0.83124
0.83124
0.83124
0.83124
0.83124
0.83124
0.83124
0.83124
0.83124
0.831239
0.831238
0.831236
0.831232
0.831221
0.831198
0.831146
0.831036
0.830802
0.830325
0.829378
0.827573
0.824298
0.818785
0.810347
0.799372
0.791062
0.785927
0.786404
0.786449
0.760601
0.751147
0.751752
0.748839
0.743463
0.733383
0.724502
0.718456
0.714821
0.7128
0.711739
0.711205
0.710945
0.710822
0.710765
0.710739
0.710727
0.710722
0.71072
0.710719
0.710718
0.710718
0.710718
0.710718
0.710718
0.710718
0.710718
0.710718
0.710718
0.710718
0.710718
0.710718
0.710718
0.710718
0.710718
0.710718
0.710718
0.710718
0.710718
0.710718
0.710718
0.710718
0.710718
0.710718
0.710718
0.710718
0.710718
0.710718
0.710718
0.710718
0.83124
0.83124
0.83124
0.83124
0.83124
0.83124
0.83124
0.83124
0.83124
0.83124
0.83124
0.83124
0.83124
0.83124
0.83124
0.83124
0.83124
0.83124
0.83124
0.83124
0.83124
0.83124
0.83124
0.83124
0.83124
0.83124
0.83124
0.83124
0.83124
0.83124
0.831239
0.831238
0.831236
0.831232
0.831221
0.831198
0.831146
0.831036
0.830803
0.830326
0.82938
0.827579
0.824321
0.818831
0.810457
0.799637
0.790852
0.785801
0.786586
0.783208
0.762539
0.751812
0.752026
0.749466
0.74339
0.733299
0.724436
0.718409
0.714793
0.712786
0.711733
0.711202
0.710944
0.710821
0.710765
0.710739
0.710727
0.710722
0.71072
0.710719
0.710718
0.710718
0.710718
0.710718
0.710718
0.710718
0.710718
0.710718
0.710718
0.710718
0.710718
0.710718
0.710718
0.710718
0.710718
0.710718
0.710718
0.710718
0.710718
0.710718
0.710718
0.710718
0.710718
0.710718
0.710718
0.710718
0.710718
0.710718
0.710718
0.710718
0.83124
0.83124
0.83124
0.83124
0.83124
0.83124
0.83124
0.83124
0.83124
0.83124
0.83124
0.83124
0.83124
0.83124
0.83124
0.83124
0.83124
0.83124
0.83124
0.83124
0.83124
0.83124
0.83124
0.83124
0.83124
0.83124
0.83124
0.83124
0.83124
0.83124
0.831239
0.831238
0.831236
0.831232
0.831221
0.831198
0.831147
0.831036
0.830804
0.830328
0.829384
0.827586
0.824334
0.818836
0.810419
0.799429
0.790963
0.785654
0.786289
0.785927
0.760792
0.751083
0.752065
0.749441
0.743663
0.733386
0.72444
0.718386
0.714774
0.712772
0.711726
0.711199
0.710942
0.710821
0.710764
0.710738
0.710727
0.710722
0.71072
0.710719
0.710718
0.710718
0.710718
0.710718
0.710718
0.710718
0.710718
0.710718
0.710718
0.710718
0.710718
0.710718
0.710718
0.710718
0.710718
0.710718
0.710718
0.710718
0.710718
0.710718
0.710718
0.710718
0.710718
0.710718
0.710718
0.710718
0.710718
0.710718
0.710718
0.710718
0.83124
0.83124
0.83124
0.83124
0.83124
0.83124
0.83124
0.83124
0.83124
0.83124
0.83124
0.83124
0.83124
0.83124
0.83124
0.83124
0.83124
0.83124
0.83124
0.83124
0.83124
0.83124
0.83124
0.83124
0.83124
0.83124
0.83124
0.83124
0.83124
0.83124
0.831239
0.831238
0.831236
0.831232
0.831221
0.831198
0.831147
0.831037
0.830805
0.830331
0.829389
0.827596
0.824357
0.818886
0.810521
0.799653
0.790787
0.785678
0.786519
0.783422
0.76221
0.751676
0.752099
0.749596
0.74347
0.733262
0.724365
0.718336
0.714751
0.712758
0.711722
0.711197
0.710941
0.71082
0.710764
0.710738
0.710727
0.710722
0.71072
0.710719
0.710718
0.710718
0.710718
0.710718
0.710718
0.710718
0.710718
0.710718
0.710718
0.710718
0.710718
0.710718
0.710718
0.710718
0.710718
0.710718
0.710718
0.710718
0.710718
0.710718
0.710718
0.710718
0.710718
0.710718
0.710718
0.710718
0.710718
0.710718
0.710718
0.710718
0.83124
0.83124
0.83124
0.83124
0.83124
0.83124
0.83124
0.83124
0.83124
0.83124
0.83124
0.83124
0.83124
0.83124
0.83124
0.83124
0.83124
0.83124
0.83124
0.83124
0.83124
0.83124
0.83124
0.83124
0.83124
0.83124
0.83124
0.83124
0.83124
0.83124
0.831239
0.831238
0.831236
0.831232
0.831221
0.831198
0.831147
0.831037
0.830806
0.830333
0.829393
0.827605
0.824375
0.818918
0.810579
0.799714
0.790736
0.785607
0.786542
0.783326
0.762158
0.751715
0.752189
0.749647
0.743454
0.733183
0.724295
0.718301
0.714737
0.712754
0.711719
0.711197
0.710941
0.71082
0.710764
0.710738
0.710727
0.710722
0.71072
0.710719
0.710718
0.710718
0.710718
0.710718
0.710718
0.710718
0.710718
0.710718
0.710718
0.710718
0.710718
0.710718
0.710718
0.710718
0.710718
0.710718
0.710718
0.710718
0.710718
0.710718
0.710718
0.710718
0.710718
0.710718
0.710718
0.710718
0.710718
0.710718
0.710718
0.710718
0.83124
0.83124
0.83124
0.83124
0.83124
0.83124
0.83124
0.83124
0.83124
0.83124
0.83124
0.83124
0.83124
0.83124
0.83124
0.83124
0.83124
0.83124
0.83124
0.83124
0.83124
0.83124
0.83124
0.83124
0.83124
0.83124
0.83124
0.83124
0.83124
0.83124
0.831239
0.831238
0.831236
0.831232
0.831221
0.831198
0.831147
0.831038
0.830806
0.830334
0.829395
0.827608
0.824382
0.81893
0.810598
0.79974
0.790753
0.785594
0.786521
0.783252
0.76216
0.751639
0.752144
0.749686
0.743436
0.733207
0.724308
0.718301
0.714725
0.712748
0.711714
0.711194
0.71094
0.71082
0.710764
0.710738
0.710727
0.710722
0.71072
0.710719
0.710718
0.710718
0.710718
0.710718
0.710718
0.710718
0.710718
0.710718
0.710718
0.710718
0.710718
0.710718
0.710718
0.710718
0.710718
0.710718
0.710718
0.710718
0.710718
0.710718
0.710718
0.710718
0.710718
0.710718
0.710718
0.710718
0.710718
0.710718
0.710718
0.710718
0.83124
0.83124
0.83124
0.83124
0.83124
0.83124
0.83124
0.83124
0.83124
0.83124
0.83124
0.83124
0.83124
0.83124
0.83124
0.83124
0.83124
0.83124
0.83124
0.83124
0.83124
0.83124
0.83124
0.83124
0.83124
0.83124
0.83124
0.83124
0.83124
0.83124
0.831239
0.831238
0.831236
0.831232
0.831221
0.831198
0.831147
0.831038
0.830806
0.830333
0.829395
0.827607
0.824377
0.818922
0.810583
0.79976
0.790806
0.785749
0.786654
0.782986
0.762276
0.751713
0.7521
0.749621
0.743414
0.733237
0.724346
0.718321
0.714732
0.712747
0.711711
0.711192
0.710939
0.710819
0.710763
0.710738
0.710727
0.710722
0.71072
0.710719
0.710718
0.710718
0.710718
0.710718
0.710718
0.710718
0.710718
0.710718
0.710718
0.710718
0.710718
0.710718
0.710718
0.710718
0.710718
0.710718
0.710718
0.710718
0.710718
0.710718
0.710718
0.710718
0.710718
0.710718
0.710718
0.710718
0.710718
0.710718
0.710718
0.710718
0.83124
0.83124
0.83124
0.83124
0.83124
0.83124
0.83124
0.83124
0.83124
0.83124
0.83124
0.83124
0.83124
0.83124
0.83124
0.83124
0.83124
0.83124
0.83124
0.83124
0.83124
0.83124
0.83124
0.83124
0.83124
0.83124
0.83124
0.83124
0.83124
0.83124
0.831239
0.831238
0.831236
0.831232
0.831221
0.831198
0.831147
0.831037
0.830806
0.830333
0.829394
0.827605
0.82437
0.818898
0.810515
0.799539
0.790973
0.785621
0.786292
0.785844
0.760764
0.751087
0.752093
0.749471
0.743638
0.73332
0.724376
0.718334
0.714735
0.712748
0.711711
0.711191
0.710938
0.710819
0.710763
0.710738
0.710727
0.710722
0.71072
0.710719
0.710718
0.710718
0.710718
0.710718
0.710718
0.710718
0.710718
0.710718
0.710718
0.710718
0.710718
0.710718
0.710718
0.710718
0.710718
0.710718
0.710718
0.710718
0.710718
0.710718
0.710718
0.710718
0.710718
0.710718
0.710718
0.710718
0.710718
0.710718
0.710718
0.710718
0.83124
0.83124
0.83124
0.83124
0.83124
0.83124
0.83124
0.83124
0.83124
0.83124
0.83124
0.83124
0.83124
0.83124
0.83124
0.83124
0.83124
0.83124
0.83124
0.83124
0.83124
0.83124
0.83124
0.83124
0.83124
0.83124
0.83124
0.83124
0.83124
0.83124
0.831239
0.831238
0.831236
0.831232
0.831221
0.831198
0.831147
0.831037
0.830806
0.830333
0.829394
0.827605
0.824372
0.818911
0.810563
0.799725
0.790804
0.785688
0.786526
0.783069
0.762388
0.751751
0.75208
0.749607
0.74345
0.733271
0.724364
0.718331
0.714733
0.712747
0.71171
0.71119
0.710938
0.710818
0.710763
0.710738
0.710727
0.710722
0.71072
0.710719
0.710718
0.710718
0.710718
0.710718
0.710718
0.710718
0.710718
0.710718
0.710718
0.710718
0.710718
0.710718
0.710718
0.710718
0.710718
0.710718
0.710718
0.710718
0.710718
0.710718
0.710718
0.710718
0.710718
0.710718
0.710718
0.710718
0.710718
0.710718
0.710718
0.710718
0.83124
0.83124
0.83124
0.83124
0.83124
0.83124
0.83124
0.83124
0.83124
0.83124
0.83124
0.83124
0.83124
0.83124
0.83124
0.83124
0.83124
0.83124
0.83124
0.83124
0.83124
0.83124
0.83124
0.83124
0.83124
0.83124
0.83124
0.83124
0.83124
0.83124
0.831239
0.831238
0.831236
0.831232
0.831221
0.831198
0.831147
0.831037
0.830806
0.830333
0.829394
0.827606
0.824372
0.81891
0.81055
0.799639
0.790787
0.785599
0.786534
0.783733
0.761682
0.751818
0.752263
0.749588
0.743529
0.733279
0.724362
0.718329
0.714731
0.712746
0.711709
0.711189
0.710937
0.710818
0.710763
0.710738
0.710727
0.710722
0.71072
0.710719
0.710718
0.710718
0.710718
0.710718
0.710718
0.710718
0.710718
0.710718
0.710718
0.710718
0.710718
0.710718
0.710718
0.710718
0.710718
0.710718
0.710718
0.710718
0.710718
0.710718
0.710718
0.710718
0.710718
0.710718
0.710718
0.710718
0.710718
0.710718
0.710718
0.710718
)
;

boundaryField
{
    sides1
    {
        type            calculated;
        value           nonuniform List<scalar> 
20
(
0.710718
0.710718
0.710718
0.710718
0.710718
0.710718
0.710718
0.710718
0.710718
0.710718
0.83124
0.83124
0.83124
0.83124
0.83124
0.83124
0.83124
0.83124
0.83124
0.83124
)
;
    }
    sides2
    {
        type            calculated;
        value           nonuniform List<scalar> 
200
(
0.83124
0.83124
0.83124
0.83124
0.83124
0.83124
0.83124
0.83124
0.83124
0.83124
0.83124
0.83124
0.83124
0.83124
0.83124
0.83124
0.83124
0.83124
0.83124
0.83124
0.83124
0.83124
0.83124
0.83124
0.83124
0.83124
0.83124
0.83124
0.83124
0.83124
0.831239
0.831238
0.831236
0.831232
0.831221
0.831198
0.831146
0.831036
0.830802
0.830325
0.829378
0.827573
0.824298
0.818785
0.810347
0.799372
0.791062
0.785927
0.786404
0.786449
0.760601
0.751147
0.751752
0.748839
0.743463
0.733383
0.724502
0.718456
0.714821
0.7128
0.711739
0.711205
0.710945
0.710822
0.710765
0.710739
0.710727
0.710722
0.71072
0.710719
0.710718
0.710718
0.710718
0.710718
0.710718
0.710718
0.710718
0.710718
0.710718
0.710718
0.710718
0.710718
0.710718
0.710718
0.710718
0.710718
0.710718
0.710718
0.710718
0.710718
0.710718
0.710718
0.710718
0.710718
0.710718
0.710718
0.710718
0.710718
0.710718
0.710718
0.83124
0.83124
0.83124
0.83124
0.83124
0.83124
0.83124
0.83124
0.83124
0.83124
0.83124
0.83124
0.83124
0.83124
0.83124
0.83124
0.83124
0.83124
0.83124
0.83124
0.83124
0.83124
0.83124
0.83124
0.83124
0.83124
0.83124
0.83124
0.83124
0.83124
0.831239
0.831238
0.831236
0.831232
0.831221
0.831198
0.831147
0.831037
0.830806
0.830333
0.829394
0.827606
0.824372
0.81891
0.81055
0.799639
0.790787
0.785599
0.786534
0.783733
0.761682
0.751818
0.752263
0.749588
0.743529
0.733279
0.724362
0.718329
0.714731
0.712746
0.711709
0.711189
0.710937
0.710818
0.710763
0.710738
0.710727
0.710722
0.71072
0.710719
0.710718
0.710718
0.710718
0.710718
0.710718
0.710718
0.710718
0.710718
0.710718
0.710718
0.710718
0.710718
0.710718
0.710718
0.710718
0.710718
0.710718
0.710718
0.710718
0.710718
0.710718
0.710718
0.710718
0.710718
0.710718
0.710718
0.710718
0.710718
0.710718
0.710718
)
;
    }
    empty
    {
        type            empty;
    }
}


// ************************************************************************* //
