/*--------------------------------*- C++ -*----------------------------------*\
| =========                 |                                                 |
| \\      /  F ield         | OpenFOAM: The Open Source CFD Toolbox           |
|  \\    /   O peration     | Version:  3.0.1                                 |
|   \\  /    A nd           | Web:      www.OpenFOAM.org                      |
|    \\/     M anipulation  |                                                 |
\*---------------------------------------------------------------------------*/
FoamFile
{
    version     2.0;
    format      ascii;
    class       volVectorField;
    location    "5e-05";
    object      U;
}
// * * * * * * * * * * * * * * * * * * * * * * * * * * * * * * * * * * * * * //

dimensions      [0 1 -1 0 0 0 0];

internalField   nonuniform List<vector> 
1000
(
(5.83879e-14 1.4597e-13 0)
(-5.83879e-14 2.91939e-14 0)
(-1.16776e-13 8.75818e-14 0)
(1.75164e-13 5.83879e-14 0)
(-1.75164e-13 6.89024e-29 0)
(1.16776e-13 5.83879e-14 0)
(3.50327e-13 5.83879e-14 0)
(1.16776e-13 -2.91939e-14 0)
(5.25491e-13 -5.83879e-14 0)
(9.92594e-13 -2.91939e-14 0)
(2.91939e-12 -2.91939e-14 0)
(7.00655e-12 -5.83879e-14 0)
(1.8509e-11 -1.16776e-13 0)
(4.57761e-11 -2.04358e-13 0)
(1.15783e-10 -1.8554e-27 0)
(2.9445e-10 -2.91939e-14 0)
(7.39424e-10 -8.75818e-14 0)
(1.84739e-09 1.16776e-13 0)
(4.65871e-09 -2.3939e-12 0)
(1.16089e-08 -5.54685e-13 0)
(2.89115e-08 5.19652e-12 0)
(7.21754e-08 -5.37461e-11 0)
(1.78547e-07 6.46062e-11 0)
(4.40901e-07 -2.9734e-10 0)
(1.08608e-06 -1.65471e-10 0)
(2.65665e-06 -4.41996e-11 0)
(6.47715e-06 -4.53899e-09 0)
(1.57228e-05 4.15488e-10 0)
(3.78607e-05 -1.01993e-08 0)
(9.08105e-05 -8.87785e-09 0)
(0.000216035 -4.28565e-08 0)
(0.000510166 -1.23859e-07 0)
(0.00119451 -2.75585e-07 0)
(0.00277031 -7.01395e-07 0)
(0.00635677 -1.5316e-06 0)
(0.0144102 -3.56683e-06 0)
(0.0322199 -8.1928e-06 0)
(0.0709076 -1.91563e-05 0)
(0.153206 -4.45823e-05 0)
(0.323887 -0.000102689 0)
(0.667265 -0.000223669 0)
(1.33432 -0.000490778 0)
(2.57239 -0.00165212 0)
(4.72739 -0.005246 0)
(8.2921 -0.0173776 0)
(12.3806 -0.056341 0)
(17.4517 -0.0420798 0)
(16.7771 -0.146378 0)
(20.4898 0.0177774 0)
(16.1313 -0.331106 0)
(15.064 0.412619 0)
(20.5834 0.0348066 0)
(17.2892 0.149471 0)
(18.5429 0.0628887 0)
(14.2219 0.0999993 0)
(10.3123 0.0494671 0)
(6.08206 0.023713 0)
(3.34464 0.00959276 0)
(1.74408 0.00391561 0)
(0.872959 0.00155521 0)
(0.422946 0.000613244 0)
(0.199691 0.000242761 0)
(0.0922722 9.45683e-05 0)
(0.041864 3.72725e-05 0)
(0.0187046 1.26918e-05 0)
(0.00824233 6.06316e-06 0)
(0.00359003 1.28298e-06 0)
(0.00154832 3.55137e-07 0)
(0.000660827 6.4182e-08 0)
(0.000280296 -1.39526e-08 0)
(0.000117888 -6.05739e-09 0)
(4.93051e-05 -3.01538e-09 0)
(2.04939e-05 -4.78483e-09 0)
(8.45684e-06 -1.06072e-09 0)
(3.48131e-06 -1.904e-09 0)
(1.42455e-06 -2.91509e-10 0)
(5.80084e-07 -2.6964e-10 0)
(2.35341e-07 -1.21896e-10 0)
(9.53006e-08 -3.63128e-11 0)
(3.8416e-08 -3.49299e-11 0)
(1.54348e-08 -6.26553e-12 0)
(6.20359e-09 -4.62659e-12 0)
(2.48272e-09 -1.34871e-12 0)
(9.92139e-10 -3.07301e-13 0)
(3.97136e-10 -1.87795e-13 0)
(1.56997e-10 -3.7559e-13 0)
(6.34748e-11 8.53615e-14 0)
(2.48573e-11 -2.04868e-13 0)
(9.66292e-12 3.78653e-29 0)
(4.06321e-12 -6.82892e-14 0)
(1.29749e-12 6.82892e-14 0)
(4.4388e-13 -5.12169e-14 0)
(1.02434e-13 -1.70723e-14 0)
(-2.73157e-13 5.12169e-14 0)
(3.41446e-14 -3.41446e-14 0)
(1.02434e-13 -6.82892e-14 0)
(3.78653e-29 -1.36578e-13 0)
(-1.70723e-13 -6.31089e-29 0)
(-1.02434e-13 -1.70723e-14 0)
(-1.70723e-13 8.53615e-14 0)
(2.77679e-28 -2.33552e-13 0)
(-4.45238e-29 -1.51461e-28 0)
(-1.75164e-13 1.16776e-13 0)
(-4.57523e-29 2.91939e-14 0)
(1.11998e-28 -5.83879e-14 0)
(1.75164e-13 1.75164e-13 0)
(1.75164e-13 8.75818e-14 0)
(-3.50327e-13 -2.91939e-14 0)
(7.59043e-13 7.57306e-29 0)
(9.34206e-13 8.83524e-29 0)
(2.51068e-12 -7.57306e-29 0)
(7.00655e-12 -2.91939e-14 0)
(1.88009e-11 8.75818e-14 0)
(4.58345e-11 2.91939e-14 0)
(1.15958e-10 1.75164e-13 0)
(2.93983e-10 1.16776e-13 0)
(7.3995e-10 2.91939e-13 0)
(1.84459e-09 5.25491e-13 0)
(4.6506e-09 3.88279e-12 0)
(1.16382e-08 4.78781e-12 0)
(2.88402e-08 2.23042e-11 0)
(7.21615e-08 -1.4451e-11 0)
(1.78549e-07 8.73191e-11 0)
(4.39622e-07 -1.61793e-10 0)
(1.08802e-06 -2.19363e-10 0)
(2.64971e-06 -6.95341e-10 0)
(6.47045e-06 -6.19852e-09 0)
(1.57193e-05 -6.70378e-09 0)
(3.77732e-05 -5.60636e-08 0)
(9.06997e-05 -1.31183e-07 0)
(0.000215549 -3.94307e-07 0)
(0.000509206 -8.88853e-07 0)
(0.00119218 -2.12219e-06 0)
(0.00276475 -5.02353e-06 0)
(0.00634431 -1.2244e-05 0)
(0.0143813 -2.79711e-05 0)
(0.0321553 -6.3746e-05 0)
(0.0707643 -0.000139251 0)
(0.152884 -0.000299897 0)
(0.323224 -0.000641056 0)
(0.666107 -0.00126098 0)
(1.3313 -0.00244375 0)
(2.56321 -0.00515539 0)
(4.70365 -0.0109889 0)
(8.17559 -0.0181926 0)
(12.3396 -0.0315299 0)
(17.0639 -0.0287437 0)
(17.1603 -0.00636584 0)
(19.8141 -0.0266309 0)
(16.8999 0.198945 0)
(17.0822 -0.0471116 0)
(19.4988 -0.0647913 0)
(17.8006 -0.0793905 0)
(18.1486 -0.00345016 0)
(14.2814 0.0649467 0)
(10.1134 0.0603456 0)
(6.00745 0.0441484 0)
(3.30318 0.0272894 0)
(1.72387 0.014553 0)
(0.863674 0.00711157 0)
(0.418988 0.00308836 0)
(0.198052 0.0013185 0)
(0.0915935 0.000557368 0)
(0.04158 0.000224581 0)
(0.0186028 8.39285e-05 0)
(0.00819891 3.10954e-05 0)
(0.00357502 9.42028e-06 0)
(0.00154466 3.59645e-06 0)
(0.000659483 7.90331e-07 0)
(0.000280082 2.95257e-07 0)
(0.000117893 -2.30271e-08 0)
(4.93007e-05 -1.38013e-08 0)
(2.05204e-05 -2.83799e-08 0)
(8.46121e-06 -8.75073e-09 0)
(3.48819e-06 -7.89406e-09 0)
(1.42756e-06 -2.49805e-09 0)
(5.81032e-07 -2.18501e-09 0)
(2.36488e-07 -7.555e-10 0)
(9.55401e-08 -3.34993e-10 0)
(3.86158e-08 -1.59319e-10 0)
(1.55055e-08 -5.03974e-11 0)
(6.2209e-09 -2.39695e-11 0)
(2.4987e-09 -1.16604e-11 0)
(9.95622e-10 -2.47548e-12 0)
(3.9717e-10 -1.82674e-12 0)
(1.58943e-10 -3.92663e-13 0)
(6.29285e-11 3.41446e-14 0)
(2.51987e-11 -1.87795e-13 0)
(9.7995e-12 3.41446e-14 0)
(4.19978e-12 -1.36578e-13 0)
(1.39993e-12 -8.53615e-14 0)
(2.04868e-13 -1.70723e-14 0)
(3.41446e-13 1.43262e-29 0)
(-1.02434e-13 8.53615e-14 0)
(-3.07301e-13 2.90229e-13 0)
(-1.36578e-13 3.41446e-14 0)
(3.41446e-14 1.36578e-13 0)
(2.73157e-13 1.87795e-13 0)
(6.82892e-14 1.19506e-13 0)
(1.02434e-13 3.92663e-13 0)
(4.67103e-13 1.4515e-28 0)
(2.91939e-13 5.83879e-14 0)
(2.33552e-13 1.83016e-28 0)
(5.83879e-14 1.4597e-13 0)
(-5.83879e-14 2.04358e-13 0)
(1.75164e-13 2.33552e-13 0)
(2.52435e-29 1.00974e-28 0)
(-5.83879e-14 2.04358e-13 0)
(5.25491e-13 1.16776e-13 0)
(1.16776e-12 1.16776e-13 0)
(2.80262e-12 1.75164e-13 0)
(7.2401e-12 1.75164e-13 0)
(1.83922e-11 3.21133e-13 0)
(4.58929e-11 -2.91939e-14 0)
(1.1625e-10 2.91939e-14 0)
(2.94333e-10 1.16776e-13 0)
(7.39775e-10 -2.04358e-13 0)
(1.8516e-09 -9.92594e-13 0)
(4.66227e-09 3.03617e-12 0)
(1.16184e-08 -2.37347e-11 0)
(2.89343e-08 -3.59086e-12 0)
(7.21014e-08 -1.34e-11 0)
(1.78505e-07 -2.58483e-10 0)
(4.39828e-07 -5.32206e-11 0)
(1.0842e-06 -1.10963e-09 0)
(2.64814e-06 -4.41074e-09 0)
(6.4573e-06 -2.38684e-09 0)
(1.56663e-05 -3.39947e-08 0)
(3.76917e-05 -6.8861e-08 0)
(9.03537e-05 -1.49337e-07 0)
(0.00021485 -4.78497e-07 0)
(0.00050782 -1.06257e-06 0)
(0.00118869 -2.44498e-06 0)
(0.00275603 -7.30175e-06 0)
(0.00632349 -1.39557e-05 0)
(0.0143351 -3.52291e-05 0)
(0.0320571 -7.61837e-05 0)
(0.0705684 -0.000157008 0)
(0.152474 -0.000340116 0)
(0.322443 -0.000690209 0)
(0.664679 -0.00136058 0)
(1.32842 -0.00271605 0)
(2.55873 -0.00531577 0)
(4.70235 -0.00868381 0)
(8.2495 -0.0101212 0)
(12.3464 -0.00472071 0)
(17.4992 -0.000728844 0)
(16.7449 0.034817 0)
(20.9211 0.0112625 0)
(15.8495 0.117109 0)
(15.286 -0.0728096 0)
(20.4391 0.0012113 0)
(17.5607 -0.0156578 0)
(18.6005 -0.015165 0)
(14.3385 0.00209081 0)
(10.2326 0.0174885 0)
(6.01589 0.0206775 0)
(3.29366 0.0156224 0)
(1.71343 0.00901546 0)
(0.856923 0.00422662 0)
(0.415502 0.00200749 0)
(0.19646 0.00100398 0)
(0.0908503 0.00039986 0)
(0.0412723 0.000127869 0)
(0.0184717 5.34247e-05 0)
(0.00815384 1.2406e-05 0)
(0.00355909 5.64936e-06 0)
(0.00153759 2.18556e-07 0)
(0.000658047 1.37271e-07 0)
(0.000279259 -1.12149e-07 0)
(0.000117737 -1.16037e-07 0)
(4.9303e-05 -5.92663e-08 0)
(2.05167e-05 -3.60141e-08 0)
(8.48896e-06 -2.94058e-08 0)
(3.49926e-06 -8.88546e-09 0)
(1.43242e-06 -6.44366e-09 0)
(5.84565e-07 -2.04055e-09 0)
(2.37753e-07 -9.77935e-10 0)
(9.61193e-08 -4.65527e-10 0)
(3.8854e-08 -1.36476e-10 0)
(1.5613e-08 -7.15158e-11 0)
(6.26161e-09 -2.18696e-11 0)
(2.51444e-09 -4.98511e-12 0)
(1.00068e-09 -3.20959e-12 0)
(4.00311e-10 -5.63386e-13 0)
(1.59353e-10 -1.70723e-14 0)
(6.29968e-11 -1.02434e-13 0)
(2.54036e-11 -3.41446e-14 0)
(9.45805e-12 1.53651e-13 0)
(3.85834e-12 3.41446e-14 0)
(1.77552e-12 5.12169e-14 0)
(5.12169e-13 8.53615e-14 0)
(1.02434e-13 1.02434e-13 0)
(3.41446e-13 8.53615e-14 0)
(-1.36578e-13 6.82892e-14 0)
(6.82892e-14 3.24374e-13 0)
(1.36578e-13 2.56084e-13 0)
(-2.73157e-13 1.53651e-13 0)
(1.02434e-13 2.56084e-13 0)
(2.39012e-13 1.36578e-13 0)
(1.16776e-13 2.62745e-13 0)
(3.78653e-29 1.16776e-13 0)
(-5.83879e-14 1.4597e-13 0)
(1.75164e-13 1.16776e-13 0)
(5.83879e-14 2.91939e-14 0)
(-6.31089e-29 1.16776e-13 0)
(-5.04871e-29 -2.91939e-14 0)
(1.75164e-13 1.75164e-13 0)
(4.67103e-13 -1.26218e-29 0)
(9.92594e-13 5.83879e-14 0)
(2.74423e-12 -1.16776e-13 0)
(6.94816e-12 -8.75818e-14 0)
(1.88593e-11 -1.4597e-13 0)
(4.48419e-11 -2.91939e-14 0)
(1.16017e-10 -1.25534e-12 0)
(2.93049e-10 -5.83879e-13 0)
(7.33761e-10 -6.48106e-12 0)
(1.8516e-09 -5.57604e-12 0)
(4.63471e-09 -2.13408e-11 0)
(1.15698e-08 -3.03033e-11 0)
(2.88832e-08 -8.26189e-11 0)
(7.1837e-08 -1.3292e-10 0)
(1.78089e-07 -4.57206e-10 0)
(4.39502e-07 -6.63754e-10 0)
(1.08131e-06 -1.70166e-09 0)
(2.64598e-06 -4.69993e-09 0)
(6.44773e-06 -6.76213e-09 0)
(1.55961e-05 -3.22761e-08 0)
(3.76316e-05 -4.16479e-08 0)
(9.01673e-05 -1.54697e-07 0)
(0.000214063 -3.31726e-07 0)
(0.000506476 -9.88104e-07 0)
(0.00118371 -2.04089e-06 0)
(0.00274556 -4.65963e-06 0)
(0.00630719 -1.1294e-05 0)
(0.0142856 -2.02141e-05 0)
(0.0319603 -5.3179e-05 0)
(0.0703629 -0.000121769 0)
(0.152046 -0.00022227 0)
(0.321538 -0.000518316 0)
(0.662728 -0.00123468 0)
(1.32416 -0.00284636 0)
(2.54882 -0.00672053 0)
(4.68089 -0.0157763 0)
(8.15742 -0.0359905 0)
(12.3502 -0.078293 0)
(17.2144 -0.0439961 0)
(17.1341 -0.104611 0)
(20.0845 0.0956362 0)
(16.6818 -0.348608 0)
(16.715 0.214955 0)
(19.6413 -0.116347 0)
(17.8586 0.0960793 0)
(18.2908 0.0859171 0)
(14.3589 0.0978478 0)
(10.1199 0.0541779 0)
(5.97392 0.0229969 0)
(3.27192 0.00648152 0)
(1.70265 0.00142474 0)
(0.851842 0.000389361 0)
(0.413361 -6.86996e-05 0)
(0.195499 -0.000143424 0)
(0.0903356 -4.88152e-05 0)
(0.041135 -2.74197e-05 0)
(0.018435 -1.17348e-05 0)
(0.00813868 -4.54939e-06 0)
(0.0035564 -2.49969e-06 0)
(0.00153875 -1.06697e-06 0)
(0.00065882 -3.97536e-07 0)
(0.000279577 -1.27187e-07 0)
(0.000117943 -7.20049e-08 0)
(4.9456e-05 -4.27593e-08 0)
(2.05617e-05 -6.76232e-09 0)
(8.51841e-06 -6.00069e-09 0)
(3.51049e-06 -1.22869e-09 0)
(1.43849e-06 -1.4353e-09 0)
(5.87859e-07 -2.827e-10 0)
(2.38525e-07 -1.68964e-10 0)
(9.6792e-08 -6.04871e-11 0)
(3.90607e-08 -9.81657e-12 0)
(1.56623e-08 -2.06575e-12 0)
(6.30237e-09 -1.80966e-12 0)
(2.51977e-09 1.62187e-12 0)
(1.00351e-09 -5.12169e-14 0)
(4.01131e-10 3.24374e-13 0)
(1.59626e-10 1.70723e-14 0)
(6.29285e-11 1.36578e-13 0)
(2.5506e-11 1.87795e-13 0)
(9.83364e-12 8.53615e-14 0)
(4.16564e-12 2.04868e-13 0)
(1.33164e-12 1.87795e-13 0)
(4.09735e-13 1.70723e-13 0)
(3.41446e-13 1.53651e-13 0)
(-1.36578e-13 1.53651e-13 0)
(1.36578e-13 1.36578e-13 0)
(-3.41446e-14 1.53651e-13 0)
(-2.04868e-13 1.36578e-13 0)
(2.39012e-13 3.41446e-14 0)
(6.82892e-14 -8.20415e-29 0)
(3.41446e-14 -2.2194e-13 0)
(1.75164e-13 -2.33552e-13 0)
(2.52435e-28 -8.75818e-14 0)
(2.33552e-13 -1.75164e-13 0)
(5.83879e-14 8.75818e-14 0)
(2.33552e-13 -5.83879e-14 0)
(1.34166e-29 1.16776e-13 0)
(-1.75164e-13 5.83879e-14 0)
(2.91939e-13 2.91939e-14 0)
(1.75164e-13 2.91939e-14 0)
(1.16776e-12 -2.91939e-14 0)
(2.45229e-12 8.75818e-14 0)
(7.18171e-12 2.91939e-14 0)
(1.86257e-11 -1.16776e-13 0)
(4.47978e-11 -3.50327e-13 2.13188e-31)
(1.1355e-10 -3.50327e-13 0)
(2.91297e-10 -1.60567e-12 0)
(7.2763e-10 -2.13116e-12 0)
(1.837e-09 -7.2109e-12 0)
(4.60009e-09 -2.03482e-11 0)
(1.1526e-08 -3.36314e-11 0)
(2.87704e-08 -1.31256e-10 0)
(7.16152e-08 -1.46291e-10 0)
(1.77232e-07 -5.94097e-10 0)
(4.38221e-07 -1.20022e-09 0)
(1.07609e-06 -3.26934e-09 0)
(2.63721e-06 -8.11872e-09 0)
(6.42076e-06 -1.60196e-08 0)
(1.55704e-05 -3.66873e-08 0)
(3.75472e-05 -5.18061e-08 0)
(8.98383e-05 -1.11775e-07 0)
(0.00021366 -3.37805e-07 0)
(0.000504991 -3.66392e-07 2.13188e-31)
(0.0011816 -1.75756e-06 0)
(0.00274 -2.0278e-06 0)
(0.0062956 -6.91486e-06 0)
(0.0142703 -1.04009e-05 0)
(0.0318846 -2.7251e-05 -2.13167e-31)
(0.0702528 -7.82613e-05 0)
(0.151844 -0.000140487 0)
(0.320899 -0.000306695 2.12984e-31)
(0.661229 -0.000686131 0)
(1.32086 -0.00146028 0)
(2.54152 -0.00302307 0)
(4.66626 -0.00609079 -2.10565e-31)
(8.13105 -0.010551 0)
(12.3519 -0.0141108 0)
(17.2435 -0.00945571 0)
(17.1655 0.00207341 0)
(20.2427 0.00615216 0)
(16.6465 0.0860295 0)
(16.5294 -0.0543853 0)
(19.7611 -0.00844443 0)
(17.8295 -0.0262606 0)
(18.4016 -0.0148284 0)
(14.352 0.00088341 0)
(10.1039 0.00695316 -1.08759e-31)
(5.9621 0.00392489 1.08145e-31)
(3.26639 0.0044267 0)
(1.70249 0.00212941 0)
(0.853211 0.000768836 -1.06855e-31)
(0.414287 0.000288347 0)
(0.196167 1.97269e-05 0)
(0.0906729 -7.9869e-06 0)
(0.0412245 2.10865e-05 0)
(0.0184627 8.35142e-06 0)
(0.00814784 4.75489e-06 0)
(0.00356156 2.44495e-06 0)
(0.00153859 2.47749e-06 0)
(0.000658891 5.52579e-07 0)
(0.000279745 3.91348e-07 0)
(0.000117751 2.04857e-07 0)
(4.93971e-05 8.10864e-08 1.06594e-31)
(2.05363e-05 3.30564e-08 0)
(8.50644e-06 1.44325e-08 0)
(3.50604e-06 6.0861e-09 0)
(1.43629e-06 2.4881e-09 0)
(5.87051e-07 1.26833e-09 0)
(2.38257e-07 4.40431e-10 0)
(9.65624e-08 2.63101e-10 0)
(3.89437e-08 8.61126e-11 0)
(1.5629e-08 2.90058e-11 0)
(6.29237e-09 1.70723e-11 0)
(2.50973e-09 6.58991e-12 0)
(1.00058e-09 3.03887e-12 0)
(4.00718e-10 1.21213e-12 0)
(1.59213e-10 7.17036e-13 0)
(6.28643e-11 3.41446e-13 0)
(2.53667e-11 1.36578e-13 0)
(9.71757e-12 6.82892e-14 0)
(3.63434e-12 6.82892e-14 0)
(1.79053e-12 -8.53615e-14 0)
(5.49059e-13 5.12169e-14 -1.06594e-31)
(2.19881e-13 -3.41446e-14 0)
(3.19612e-13 1.70723e-14 -1.06594e-31)
(-2.15806e-13 1.02434e-13 0)
(1.51592e-13 -1.53651e-13 0)
(-1.11978e-13 8.53615e-14 0)
(-3.90625e-13 -3.41446e-14 0)
(-2.48556e-13 -1.70723e-14 0)
(-4.4388e-13 -1.70723e-14 0)
(4.67103e-13 8.75818e-14 0)
(1.38077e-27 2.91939e-14 0)
(4.08715e-13 -1.19907e-28 0)
(2.33552e-13 5.83879e-14 0)
(7.57306e-29 2.91939e-14 0)
(1.75164e-13 -1.16776e-13 0)
(-1.01486e-28 2.91939e-14 0)
(2.91939e-13 5.83879e-14 0)
(1.51461e-28 5.83879e-14 0)
(1.16776e-12 2.91939e-14 0)
(2.56907e-12 2.91939e-14 0)
(7.00655e-12 5.83879e-14 0)
(1.79835e-11 -1.16776e-13 0)
(4.455e-11 -4.08715e-13 -2.13188e-31)
(1.13915e-10 -3.79521e-13 0)
(2.88728e-10 -1.86841e-12 0)
(7.23835e-10 -1.66405e-12 0)
(1.82205e-09 -9.40045e-12 0)
(4.58479e-09 -1.41299e-11 0)
(1.14445e-08 -4.5455e-11 0)
(2.86065e-08 -7.69552e-11 0)
(7.12432e-08 -2.65928e-10 0)
(1.76312e-07 -5.32439e-10 0)
(4.36441e-07 -9.35374e-10 0)
(1.07163e-06 -2.51398e-09 0)
(2.62824e-06 -2.88915e-09 0)
(6.40621e-06 -1.13949e-08 0)
(1.55188e-05 -8.53453e-09 0)
(3.74879e-05 -6.69447e-08 0)
(8.97053e-05 -6.56311e-08 0)
(0.000213481 -8.14931e-08 0)
(0.000504679 -1.41074e-07 -2.13188e-31)
(0.00118023 -3.66258e-07 0)
(0.00273904 -9.6033e-07 0)
(0.00628554 -4.05608e-07 0)
(0.0142514 -1.15997e-05 0)
(0.0318509 -8.19324e-06 2.13167e-31)
(0.0701614 -9.97876e-06 0)
(0.151672 -6.22427e-05 0)
(0.320591 -0.00010039 -2.12983e-31)
(0.660709 -9.21366e-05 0)
(1.31979 -0.0001292 0)
(2.53937 -7.52095e-05 0)
(4.66246 5.66906e-05 2.10565e-31)
(8.12494 -2.82218e-05 0)
(12.3471 -0.00362857 0)
(17.243 -0.00815577 0)
(17.1568 -0.0471787 0)
(20.2822 -0.0154563 0)
(16.6266 -0.136581 0)
(16.5152 0.0836258 0)
(19.7234 0.0352467 0)
(17.9558 0.0526402 0)
(18.3114 -0.0119454 0)
(14.4079 0.0067407 0)
(10.0911 0.00130765 1.08715e-31)
(5.95738 0.00956634 -1.08145e-31)
(3.2574 0.00824484 0)
(1.69467 0.00609798 0)
(0.848196 0.00380438 1.06856e-31)
(0.41162 0.00210187 0)
(0.19479 0.00100663 0)
(0.0902354 0.000495907 0)
(0.0410265 0.000220503 0)
(0.0183541 0.000102148 0)
(0.00810557 4.79915e-05 0)
(0.00354022 1.91007e-05 0)
(0.0015299 8.57512e-06 0)
(0.000654468 3.63807e-06 0)
(0.000278062 1.33836e-06 0)
(0.00011718 6.44229e-07 0)
(4.90749e-05 2.30232e-07 -1.06594e-31)
(2.04411e-05 9.97736e-08 0)
(8.46642e-06 4.56994e-08 0)
(3.48146e-06 2.07725e-08 0)
(1.42977e-06 6.81133e-09 0)
(5.82778e-07 4.35299e-09 0)
(2.36625e-07 1.2192e-09 0)
(9.59842e-08 7.29158e-10 0)
(3.86171e-08 1.96092e-10 0)
(1.55804e-08 8.08032e-11 0)
(6.24477e-09 3.73542e-11 0)
(2.49843e-09 1.1336e-11 0)
(9.91934e-10 6.93135e-12 0)
(3.97341e-10 2.04868e-12 0)
(1.58226e-10 1.1097e-12 0)
(6.19724e-11 5.63386e-13 0)
(2.51987e-11 -8.53615e-14 0)
(9.42391e-12 5.12169e-14 0)
(3.92663e-12 -6.82892e-14 0)
(1.67308e-12 -1.70723e-14 0)
(2.04868e-13 -1.70723e-14 1.06594e-31)
(1.36578e-13 -8.53615e-14 0)
(2.04868e-13 -6.82892e-14 1.06594e-31)
(1.02434e-13 -1.87795e-13 0)
(6.82892e-14 -3.41446e-14 0)
(-3.41446e-14 -1.19506e-13 0)
(-1.02434e-13 3.41446e-14 0)
(-6.82892e-14 1.02434e-13 0)
(2.39012e-13 1.53651e-13 0)
(5.17493e-28 -5.83879e-14 0)
(-1.16776e-13 -1.64083e-28 0)
(2.91939e-13 2.91939e-14 0)
(1.75164e-13 -5.83879e-14 0)
(-1.16776e-13 2.91939e-14 0)
(-1.16776e-13 -8.75818e-14 0)
(2.33552e-13 -1.75164e-13 0)
(4.08715e-13 -5.83879e-14 0)
(5.83879e-14 -1.16776e-13 0)
(8.75818e-13 -1.16776e-13 0)
(2.91939e-12 -1.4597e-13 0)
(6.77299e-12 -5.83879e-14 0)
(1.76331e-11 -3.50327e-13 0)
(4.41412e-11 -2.91939e-13 0)
(1.12397e-10 -7.88236e-13 0)
(2.86451e-10 -1.75164e-12 0)
(7.19981e-10 -4.49587e-12 0)
(1.81061e-09 -7.53204e-12 0)
(4.55542e-09 -1.44218e-11 0)
(1.13984e-08 -4.68855e-11 0)
(2.84938e-08 -3.92659e-11 0)
(7.08597e-08 -2.11948e-10 0)
(1.76125e-07 -1.69996e-10 0)
(4.3525e-07 -5.79529e-10 0)
(1.07056e-06 -5.11536e-10 0)
(2.62459e-06 -7.73464e-10 0)
(6.40164e-06 -2.24344e-09 0)
(1.55194e-05 9.08224e-10 0)
(3.74257e-05 -1.56982e-09 0)
(8.9743e-05 -1.58384e-08 0)
(0.000213327 -1.9476e-08 0)
(0.000504323 -1.49454e-07 0)
(0.00117952 4.3014e-08 0)
(0.0027395 2.133e-08 0)
(0.00628467 7.39118e-07 0)
(0.0142481 2.33898e-06 0)
(0.031877 7.64793e-06 0)
(0.0701673 2.19251e-05 0)
(0.151662 4.7308e-05 0)
(0.320656 0.000107898 0)
(0.660885 0.000229966 0)
(1.32046 0.000738283 0)
(2.5418 0.00228541 0)
(4.66837 0.00662129 0)
(8.1255 0.0166609 0)
(12.341 0.0414112 0)
(17.1225 0.0104199 0)
(17.2132 0.074731 0)
(19.9932 -0.0903438 0)
(16.803 0.33075 0)
(16.8283 -0.200281 0)
(19.5667 0.0749827 0)
(17.9109 -0.0909219 0)
(18.2426 -0.017917 0)
(14.3758 -0.0629853 0)
(10.1087 -0.0322435 0)
(5.97661 -0.014333 0)
(3.26624 -0.00313327 0)
(1.69556 0.000958338 0)
(0.846231 0.00169372 0)
(0.409644 0.00138391 0)
(0.193695 0.00089183 0)
(0.0895157 0.000477092 0)
(0.040666 0.000252055 0)
(0.0182067 0.000124489 0)
(0.00801812 5.61978e-05 0)
(0.00350878 2.59466e-05 0)
(0.00151505 1.14626e-05 0)
(0.00064747 4.85742e-06 0)
(0.000275681 2.25891e-06 0)
(0.000115824 9.16539e-07 0)
(4.86294e-05 3.98491e-07 0)
(2.02135e-05 1.96078e-07 0)
(8.36435e-06 6.70799e-08 0)
(3.43799e-06 3.37691e-08 0)
(1.41352e-06 1.23437e-08 0)
(5.757e-07 4.74516e-09 0)
(2.33916e-07 1.88932e-09 0)
(9.47752e-08 8.02961e-10 0)
(3.80229e-08 3.51979e-10 0)
(1.53818e-08 1.52592e-10 0)
(6.16603e-09 5.39655e-11 0)
(2.46442e-09 2.54548e-11 0)
(9.81213e-10 6.93135e-12 0)
(3.92799e-10 3.3291e-12 0)
(1.55733e-10 1.16092e-12 0)
(6.10847e-11 1.70723e-13 0)
(2.48914e-11 1.70723e-13 0)
(9.38976e-12 -1.53651e-13 0)
(3.89248e-12 -6.82892e-14 0)
(1.77552e-12 -5.12169e-14 0)
(3.7559e-13 -2.39012e-13 0)
(2.73157e-13 -5.12169e-14 0)
(1.36578e-13 -1.36578e-13 0)
(-2.04868e-13 -2.65057e-28 0)
(1.70723e-13 -5.12169e-14 0)
(3.41446e-14 -5.12169e-14 0)
(3.41446e-14 -8.53615e-14 0)
(-1.36578e-13 -2.04868e-13 0)
(-1.02434e-13 -1.36578e-13 0)
(5.25491e-13 -5.83879e-14 0)
(2.91939e-13 -2.04358e-13 0)
(2.33552e-13 -8.75818e-14 0)
(1.16776e-13 -2.91939e-13 0)
(-5.83879e-14 -1.4597e-13 0)
(-1.26218e-28 -1.75164e-13 0)
(-1.75164e-13 5.83879e-14 0)
(2.33552e-13 -2.04358e-13 0)
(3.50327e-13 -8.75818e-14 0)
(9.34206e-13 2.91939e-14 0)
(2.56907e-12 -2.04358e-13 0)
(7.00655e-12 -2.04358e-13 0)
(1.73412e-11 -3.79521e-13 0)
(4.40829e-11 -5.83879e-14 0)
(1.11813e-10 -7.59043e-13 0)
(2.82889e-10 -9.34206e-13 0)
(7.13675e-10 -3.70763e-12 0)
(1.80617e-09 -6.39347e-12 0)
(4.5302e-09 -1.32249e-11 0)
(1.13727e-08 -1.56771e-11 0)
(2.84465e-08 -3.25512e-11 0)
(7.07415e-08 -4.55134e-11 0)
(1.75726e-07 -2.09613e-11 0)
(4.34688e-07 -7.34695e-10 0)
(1.07079e-06 1.05778e-09 0)
(2.6219e-06 -2.72569e-09 0)
(6.40171e-06 3.20903e-09 0)
(1.55198e-05 -7.23873e-09 0)
(3.74292e-05 2.45071e-08 0)
(8.97473e-05 -1.23895e-08 0)
(0.000213453 1.32344e-07 0)
(0.000504358 8.72861e-08 0)
(0.00118084 4.54701e-07 0)
(0.00274009 1.14322e-06 0)
(0.0062867 1.10459e-06 0)
(0.0142554 5.59399e-06 0)
(0.0318884 6.06091e-06 0)
(0.0701895 1.30615e-05 0)
(0.15171 9.40854e-06 0)
(0.320832 3.14279e-05 0)
(0.661337 8.28119e-05 0)
(1.3217 0.000166345 0)
(2.54556 0.000254722 0)
(4.67877 0.000422328 0)
(8.20972 0.000605295 0)
(12.3274 0.00348962 0)
(17.4758 0.000978648 0)
(16.7607 0.00220781 0)
(20.9754 0.000560077 0)
(15.8604 -0.00560013 0)
(15.3236 -0.00132294 0)
(20.4713 -0.0165207 0)
(17.5817 -0.0116614 0)
(18.626 -0.00807162 0)
(14.3521 -0.00293189 0)
(10.2183 0.00222266 0)
(5.99239 0.000556536 0)
(3.27378 -0.000104134 0)
(1.69828 0.000438903 0)
(0.846952 0.000658238 0)
(0.409383 0.000713007 0)
(0.193014 0.000531591 0)
(0.0890976 0.000296597 0)
(0.0404082 0.000175017 0)
(0.0180477 8.54121e-05 0)
(0.00795654 4.40013e-05 0)
(0.00346935 2.43138e-05 0)
(0.00149641 1.03742e-05 0)
(0.000640307 5.28977e-06 0)
(0.000271746 2.31956e-06 0)
(0.000114348 1.01503e-06 0)
(4.79596e-05 4.85734e-07 0)
(1.98786e-05 1.86123e-07 0)
(8.24534e-06 8.9856e-08 0)
(3.39344e-06 3.23386e-08 0)
(1.38601e-06 1.80875e-08 0)
(5.66337e-07 5.43529e-09 0)
(2.29939e-07 2.72264e-09 0)
(9.34001e-08 7.94306e-10 0)
(3.75793e-08 4.09359e-10 0)
(1.51065e-08 1.49434e-10 0)
(6.06702e-09 6.43455e-11 0)
(2.42112e-09 2.18696e-11 0)
(9.63697e-10 1.11653e-11 0)
(3.88087e-10 3.00472e-12 0)
(1.53309e-10 1.67308e-12 0)
(6.05725e-11 1.70723e-13 0)
(2.42085e-11 2.56084e-13 0)
(9.76535e-12 -1.02434e-13 0)
(3.89248e-12 6.82892e-14 0)
(8.87759e-13 -1.26218e-29 0)
(5.12169e-13 -1.70723e-13 0)
(3.41446e-13 -1.53651e-13 0)
(2.39012e-13 -5.12169e-14 0)
(-1.36578e-13 -2.56084e-13 0)
(-6.82892e-14 -2.73157e-13 0)
(-8.83524e-29 -2.04868e-13 0)
(-1.70723e-13 -1.87795e-13 0)
(-3.41446e-14 -2.73157e-13 0)
(6.82892e-14 -1.70723e-13 0)
(-1.16776e-13 5.83879e-14 0)
(-5.83879e-14 -1.4597e-13 0)
(-5.83879e-14 -2.91939e-14 0)
(1.75164e-13 -1.75164e-13 0)
(5.83879e-14 -5.83879e-14 0)
(1.75164e-13 -1.75164e-13 0)
(2.91939e-13 -1.4597e-13 0)
(1.76705e-28 -8.75818e-14 0)
(4.08715e-13 -5.83879e-14 0)
(9.92594e-13 -5.83879e-14 0)
(2.21874e-12 5.83879e-14 0)
(6.59783e-12 -2.33552e-13 0)
(1.7458e-11 -8.75818e-14 0)
(4.40829e-11 -1.16776e-13 0)
(1.09711e-10 -1.02179e-12 0)
(2.83415e-10 -1.08018e-12 0)
(7.08303e-10 -3.21133e-12 0)
(1.79636e-09 -4.58345e-12 0)
(4.52039e-09 -1.37795e-11 0)
(1.13411e-08 -1.20571e-11 0)
(2.83744e-08 -7.26637e-11 0)
(7.08587e-08 3.71055e-11 0)
(1.75325e-07 -1.68829e-10 0)
(4.35603e-07 2.97194e-11 0)
(1.07149e-06 4.39778e-10 0)
(2.62175e-06 -1.64847e-09 0)
(6.40787e-06 7.20092e-09 0)
(1.55224e-05 -8.70814e-09 0)
(3.74727e-05 3.64908e-08 0)
(8.97339e-05 -9.79466e-09 0)
(0.00021365 8.64967e-08 0)
(0.000504449 1.00659e-07 0)
(0.00118135 2.49685e-07 0)
(0.00274026 3.96722e-07 0)
(0.00628839 4.28416e-07 0)
(0.0142585 1.19006e-06 0)
(0.0318871 -1.6219e-07 0)
(0.0701883 -9.05843e-07 0)
(0.151685 -1.05942e-05 0)
(0.320789 -3.69471e-05 0)
(0.6612 -9.98399e-05 0)
(1.32127 -0.000280505 0)
(2.54367 -0.000731938 0)
(4.67226 -0.00194812 0)
(8.13577 -0.00582353 0)
(12.3375 -0.0200209 0)
(17.1251 0.00631114 0)
(17.2114 -0.0296748 0)
(19.9541 0.0582244 0)
(16.8138 -0.271169 0)
(16.864 0.0888736 0)
(19.5287 -0.0381101 0)
(17.9032 0.0381472 0)
(18.243 0.0104551 0)
(14.3765 0.0251583 0)
(10.1244 0.00852536 0)
(5.98589 0.00379056 0)
(3.27123 0.00225863 0)
(1.69721 0.00128768 0)
(0.846328 0.000748483 0)
(0.408931 0.000426566 0)
(0.192639 0.000256173 0)
(0.088862 0.000152244 0)
(0.0402687 8.11928e-05 0)
(0.0179733 4.38494e-05 0)
(0.00791612 2.42754e-05 0)
(0.00344698 1.20602e-05 0)
(0.00148592 6.24255e-06 0)
(0.000634657 3.13258e-06 0)
(0.000269051 1.47531e-06 0)
(0.000113122 7.29643e-07 0)
(4.73124e-05 3.22793e-07 0)
(1.96571e-05 1.41975e-07 0)
(8.11331e-06 6.74384e-08 0)
(3.33967e-06 2.65698e-08 0)
(1.36703e-06 9.55949e-09 0)
(5.56624e-07 5.77824e-09 0)
(2.26453e-07 1.93742e-09 0)
(9.17821e-08 9.84559e-10 0)
(3.69564e-08 3.28881e-10 0)
(1.48724e-08 1.40539e-10 0)
(5.9654e-09 5.33338e-11 0)
(2.39087e-09 2.00258e-11 0)
(9.49322e-10 6.86306e-12 0)
(3.81293e-10 3.6364e-12 0)
(1.50202e-10 6.48747e-13 0)
(6.03676e-11 4.4388e-13 0)
(2.37988e-11 5.46313e-13 0)
(9.38976e-12 1.87795e-13 0)
(4.09735e-12 1.02434e-13 0)
(1.46822e-12 -3.41446e-14 0)
(3.41446e-14 1.70723e-13 0)
(5.46313e-13 1.70723e-14 0)
(-1.36578e-13 1.02434e-13 0)
(-3.41446e-13 -1.03877e-28 0)
(1.70723e-13 3.41446e-14 0)
(3.41446e-14 -1.70723e-13 0)
(-1.70723e-13 -1.02434e-13 0)
(-1.36578e-13 -3.41446e-14 0)
(1.02434e-13 -2.73157e-13 0)
(5.83879e-14 -2.91939e-14 0)
(2.43208e-28 8.75818e-14 0)
(2.91939e-13 5.83879e-14 0)
(-5.83879e-14 1.4597e-13 0)
(3.78653e-29 1.00347e-29 0)
(-5.83879e-14 5.83879e-14 0)
(1.75164e-13 -1.16776e-13 0)
(2.91939e-13 5.83879e-14 0)
(2.33552e-13 -5.83879e-14 0)
(1.10937e-12 -2.91939e-14 0)
(2.86101e-12 8.75818e-14 0)
(6.13073e-12 1.16776e-13 0)
(1.77499e-11 1.4597e-13 0)
(4.27399e-11 -2.04358e-13 0)
(1.09419e-10 -2.04358e-13 0)
(2.81605e-10 -4.08715e-13 0)
(7.05676e-10 -6.13073e-13 0)
(1.79251e-09 -5.83879e-13 0)
(4.51496e-09 -1.78083e-12 0)
(1.13226e-08 5.83879e-13 0)
(2.8418e-08 -6.01395e-12 0)
(7.08584e-08 4.09883e-11 0)
(1.74943e-07 -1.08835e-10 0)
(4.36327e-07 9.29243e-11 0)
(1.06953e-06 -1.26994e-10 0)
(2.62458e-06 -2.11714e-10 0)
(6.40666e-06 7.19718e-10 0)
(1.55207e-05 -2.73378e-09 0)
(3.7503e-05 3.73855e-09 0)
(8.9695e-05 -6.29757e-09 0)
(0.000213783 7.29665e-09 0)
(0.000504475 9.14106e-09 0)
(0.0011816 2.49061e-08 0)
(0.00274047 4.00523e-08 0)
(0.00628877 1.12423e-07 0)
(0.0142584 1.08137e-07 0)
(0.0318854 -2.90654e-08 0)
(0.0701836 -6.67619e-07 0)
(0.151665 -2.13396e-06 0)
(0.320738 -6.56502e-06 0)
(0.661091 -1.62482e-05 0)
(1.32104 -2.65983e-05 0)
(2.54336 -2.85217e-05 0)
(4.672 5.31731e-05 0)
(8.15947 0.00133663 0)
(12.3522 0.0113199 0)
(17.3543 0.0114593 0)
(17.0228 0.070255 0)
(20.4693 0.00607028 0)
(16.3693 0.200866 0)
(16.3142 -0.217807 0)
(20.014 -0.00959336 0)
(17.7691 -0.0680058 0)
(18.4738 -0.00740783 0)
(14.3642 -0.0105709 0)
(10.1547 -0.000678059 0)
(5.98397 9.63918e-05 0)
(3.27048 0.000151422 0)
(1.69663 0.000116577 0)
(0.845942 7.39266e-05 0)
(0.408688 4.15381e-05 0)
(0.19248 2.40873e-05 0)
(0.0887612 1.39173e-05 0)
(0.0402101 7.81499e-06 0)
(0.0179398 4.35552e-06 0)
(0.0078983 2.23007e-06 0)
(0.00343741 1.22106e-06 0)
(0.00148084 6.28685e-07 0)
(0.000632069 3.09455e-07 0)
(0.000267768 1.57233e-07 0)
(0.000112481 7.46253e-08 0)
(4.70189e-05 3.37537e-08 0)
(1.95106e-05 1.74551e-08 0)
(8.06047e-06 6.35224e-09 0)
(3.30657e-06 4.98461e-09 0)
(1.35801e-06 1.11487e-09 0)
(5.51274e-07 1.09351e-09 0)
(2.23752e-07 2.1494e-10 0)
(9.09275e-08 1.487e-10 0)
(3.65015e-08 4.29539e-11 0)
(1.47265e-08 2.01965e-11 0)
(5.90029e-09 7.35816e-12 0)
(2.36161e-09 3.41446e-12 0)
(9.42254e-10 8.02398e-13 0)
(3.77195e-10 4.95097e-13 0)
(1.49348e-10 1.36578e-13 0)
(6.09822e-11 2.39012e-13 0)
(2.33549e-11 2.39012e-13 0)
(9.08246e-12 2.04868e-13 0)
(3.38031e-12 1.53651e-13 0)
(1.36578e-12 -6.82892e-14 0)
(3.41446e-13 8.53615e-14 0)
(3.07301e-13 -6.11e-29 0)
(1.36578e-13 -3.41446e-14 0)
(-2.73157e-13 1.53651e-13 0)
(-2.73157e-13 3.41446e-14 0)
(-1.36578e-13 -3.41446e-14 0)
(5.04871e-29 -5.12169e-14 0)
(-2.39012e-13 5.12169e-14 0)
(-3.41446e-13 -1.02434e-13 0)
)
;

boundaryField
{
    sides1
    {
        type            zeroGradient;
    }
    sides2
    {
        type            slip;
    }
    empty
    {
        type            empty;
    }
}


// ************************************************************************* //
