/*--------------------------------*- C++ -*----------------------------------*\
| =========                 |                                                 |
| \\      /  F ield         | OpenFOAM: The Open Source CFD Toolbox           |
|  \\    /   O peration     | Version:  v2012                                 |
|   \\  /    A nd           | Website:  www.openfoam.com                      |
|    \\/     M anipulation  |                                                 |
\*---------------------------------------------------------------------------*/
FoamFile
{
    version     2.0;
    format      ascii;
    class       volScalarField;
    location    "0.002";
    object      p;
}
// * * * * * * * * * * * * * * * * * * * * * * * * * * * * * * * * * * * * * //

dimensions      [1 -1 -2 0 0 0 0];


internalField   nonuniform List<scalar> 
5000
(
10000000
10000000
10000000
10000000
10000000
10000000
10000000
10000000
10000000
10000000
10000000
10000000
10000000
10000000
10000000
10000000
10000000
10000000
10000000
10000000
10000000
10000000
10000000
10000000
10000000
10000000
10000000
10000000
10000000
10000000
10000000
10000000
10000000
10000000
10000000
10000000
10000000
10000000
10000000
10000000
10000000
10000000
10000000
10000000
10000000
10000000
10000000
10000000
10000000
10000000
10000000
10000000
10000000
10000000
10000000
10000000
10000000
10000000
10000000
10000000
10000000
10000000
10000000
10000000
10000000
10000000
10000000
10000000
10000000
10000000
10000000
10000000
10000000
10000000
10000000
10000000
10000000
10000000
10000000
10000000
10000000
10000000
10000000
10000000
10000000
10000000
10000000
10000000
10000000
10000000
10000000
10000000
10000000
10000000
10000000
10000000
10000000
10000000
10000000
10000000
10000000
10000000
10000000
10000000
10000000
10000000
10000000
10000000
10000000
10000000
10000000
10000000
10000000
10000000
10000000
10000000
10000000
10000000
10000000
10000000
10000000
10000000
10000000
10000000
10000000
10000000
10000000
10000000
10000000
10000000
10000000
10000000
10000000
10000000
10000000
10000000
10000000
10000000
10000000
10000000
10000000
10000000
10000000
10000000
10000000
10000000
10000000
10000000
10000000
10000000
10000000
10000000
10000000
10000000
10000000
10000000
10000000
10000000
10000000
10000000
10000000
10000000
10000000
10000000
10000000
10000000
10000000
10000000
10000000
10000000
10000000
10000000
10000000
10000000
10000000
10000000
10000000
10000000
10000000
10000000
10000000
10000000
10000000
10000000
10000000
10000000
10000000
10000000
10000000
10000000
10000000
10000000
10000000
10000000
10000000
10000000
10000000
10000000
10000000
10000000
10000000
10000000
10000000
10000000
10000000
10000000
10000000
10000000
10000000
10000000
10000000
10000000
10000000
10000000
10000000
10000000
10000000
10000000
10000000
10000000
10000000
10000000
10000000
10000000
10000000
10000000
10000000
10000000
10000000
10000000
10000000
10000000
10000000
10000000
10000000
10000000
10000000
10000000
10000000
10000000
10000000
10000000
10000000
10000000
10000000
10000000
10000000
10000000
10000000
10000000
10000000
10000000
10000000
10000000
10000000
10000000
10000000
10000000
10000000
10000000
10000000
10000000
10000000
10000000
10000000
10000000
10000000
10000000
10000000
10000000
10000000
10000000
10000000
10000000
10000000
10000000
10000000
10000000
10000000
10000000
10000000
10000000
10000000
10000000
10000000
10000000
10000000
10000000
10000000
10000000
10000000
10000000
10000000
10000000
10000000
10000000
10000000
10000000
10000000
10000000
10000000
10000000
10000000
10000000
10000000
10000000
10000000
10000000
10000000
10000000
10000000
10000000
10000000
10000000
10000000
10000000
10000000
10000000
10000000
10000000
10000000
10000000
10000000
10000000
10000000
10000000
10000000
10000000
10000000
10000000
10000000
10000000
10000000
10000000
10000000
10000000
10000000
10000000
10000000
10000000
10000000
10000000
10000000
10000000
10000000
10000000
10000000
10000000
10000000
10000000
10000000
10000000
10000000
10000000
10000000
10000000
10000000
10000000
10000000
10000000
10000000
10000000
10000000
10000000
10000000
10000000
10000000
10000000
10000000
10000000
10000000
10000000
10000000
10000000
10000000
10000000
10000000
10000000
10000000
10000000
10000000
10000000
10000000
10000000
10000000
10000000
10000000
10000000
10000000
10000000
10000000
10000000
10000000
10000000
10000000
10000000
10000000
10000000
10000000
10000000
10000000
10000000
10000000
10000000
10000000
10000000
10000000
10000000
10000000
10000000
10000000
10000000
10000000
10000000
10000000
10000000
10000000
10000000
10000000
10000000
10000000
10000000
10000000
10000000
10000000
10000000
10000000
10000000
10000000
10000000
10000000
10000000
10000000
10000000
10000000
10000000
10000000
10000000
10000000
10000000
10000000
10000000
10000000
10000000
10000000
10000000
10000000
10000000
10000000
10000000
10000000
10000000
10000000
10000000
10000000
10000000
10000000
10000000
10000000
10000000
10000000
10000000
10000000
10000000
10000000
10000000
10000000
10000000
10000000
10000000
10000000
10000000
10000000
10000000
10000000
10000000
10000000
10000000
10000000
10000000
10000000
10000000
10000000
10000000
10000000
10000000
10000000
10000000
10000000
10000000
10000000
10000000
10000000
10000000
10000000
10000000
10000000
10000000
10000000
10000000
10000000
10000000
10000000
10000000
10000000
10000000
10000000
10000000
10000000
10000000
10000000
10000000
10000000
10000000
10000000
10000000
10000000
10000000
10000000
10000000
10000000
10000000
10000000
10000000
10000000
10000000
10000000
10000000
10000000
10000000
10000000
10000000
10000000
10000000
10000000
10000000
10000000
10000000
10000000
10000000
10000000
10000000
10000000
10000000
10000000
10000000
10000000
10000000
10000000
10000000
10000000
10000000
10000000
10000000
10000000
10000000
10000000
10000000
10000000
10000000
10000000
10000000
10000000
10000000
10000000
10000000
10000000
10000000
10000000
10000000
10000000
10000000
10000000
10000000
10000000
10000000
10000000
10000000
10000000
10000000
10000000
10000000
10000000
10000000
10000000
10000000
10000000
10000000
10000000
10000000
10000000
10000000
10000000
10000000
10000000
10000000
10000000
10000000
10000000
10000000
10000000
10000000
10000000
10000000
10000000
10000000
10000000
10000000
10000000
10000000
10000000
10000000
10000000
10000000
10000000
10000000
10000000
10000000
10000000
10000000
10000000
10000000
10000000
10000000
10000000
10000000
10000000
10000000
10000000
10000000
10000000
10000000
10000000
10000000
10000000
10000000
10000000
10000000
10000000
10000000
10000000
10000000
10000000
10000000
10000000
10000000
10000000
10000000
10000000
10000000
10000000
10000000
10000000
10000000
10000000
10000000
10000000
10000000
10000000
10000000
10000000
10000000
10000000
10000000
10000000
10000000
10000000
10000000
10000000
10000000
10000000
10000000
10000000
10000000
10000000
10000000
10000000
10000000
10000000
10000000
10000000
10000000
10000000
10000000
10000000
10000000
10000000
10000000
10000000
10000000
10000000
10000000
10000000
10000000
10000000
10000000
10000000
10000000
10000000
10000000
10000000
10000000
10000000
10000000
10000000
10000000
10000000
10000000
10000000
10000000
10000000
10000000
10000000
10000000
10000000
10000000
10000000
10000000
10000000
10000000
10000000
10000000
10000000
10000000
10000000
10000000
10000000
10000000
10000000
10000000
10000000
10000000
10000000
10000000
10000000
10000000
10000000
10000000
10000000
10000000
10000000
10000000
10000000
10000000
10000000
10000000
10000000
10000000
10000000
10000000
10000000
10000000
10000000
10000000
10000000
10000000
10000000
10000000
10000000
10000000
10000000
10000000
10000000
10000000
10000000
10000000
10000000
10000000
10000000
10000000
10000000
10000000
10000000
9999999.999
9999999.999
9999999.999
9999999.999
9999999.999
9999999.999
9999999.999
9999999.999
9999999.998
9999999.998
9999999.998
9999999.997
9999999.997
9999999.996
9999999.996
9999999.995
9999999.995
9999999.994
9999999.993
9999999.992
9999999.99
9999999.989
9999999.987
9999999.985
9999999.983
9999999.981
9999999.978
9999999.975
9999999.971
9999999.967
9999999.961
9999999.957
9999999.95
9999999.943
9999999.934
9999999.925
9999999.914
9999999.902
9999999.888
9999999.873
9999999.855
9999999.834
9999999.811
9999999.785
9999999.756
9999999.722
9999999.684
9999999.64
9999999.592
9999999.537
9999999.474
9999999.403
9999999.323
9999999.232
9999999.131
9999999.017
9999998.888
9999998.74
9999998.575
9999998.389
9999998.181
9999997.951
9999997.688
9999997.392
9999997.06
9999996.681
9999996.273
9999995.802
9999995.284
9999994.702
9999994.022
9999993.296
9999992.455
9999991.566
9999990.581
9999989.371
9999988.198
9999986.534
9999985.163
9999983.306
9999981.451
9999979.176
9999976.792
9999974.028
9999971.063
9999967.709
9999964.061
9999959.944
9999955.354
9999950.29
9999944.624
9999938.611
9999931.777
9999924.23
9999915.894
9999906.323
9999896.404
9999885.11
9999872.764
9999859.904
9999843.287
9999828.487
9999807.794
9999790.114
9999766.969
9999743.893
9999716.518
9999687.913
9999655.553
9999620.752
9999582.336
9999540.555
9999494.556
9999444.233
9999389.135
9999329.05
9999263.858
9999192.467
9999114.722
9999029.063
9998936.049
9998835.131
9998725.431
9998607.344
9998477.489
9998335.739
9998182.262
9998014.097
9997837.623
9997642.283
9997430.682
9997200.99
9996946.599
9996684.269
9996396.92
9996079.474
9995762.977
9995354.812
9995002.908
9994537.512
9994121.137
9993605.652
9993095.425
9992509.982
9991909.821
9991241.287
9990539.274
9989777.148
9988967.816
9988098.743
9987162.657
9986163.143
9985089.794
9983944.111
9982730.783
9981421.935
9980031.759
9978539.959
9976937.612
9975268.123
9973459.032
9971561.965
9969510.264
9967307.667
9965033.771
9962608.091
9959995.659
9957401.945
9954155.665
9951379.759
9947840.507
9944668.016
9940821.288
9937084.546
9932887.854
9928704.699
9924079.424
9919289.518
9914182.892
9908867.21
9903370.569
9897471.413
9891206.59
9884667.292
9877875.767
9870768.539
9863674.564
9854913.986
9847445.222
9838144.475
9829890.979
9820000.084
9810449.209
9799851.912
9789306.25
9777929.003
9766295.768
9753952.653
9741342.087
9728116.959
9714518.283
9700131.654
9685234.646
9669995.609
9653931.446
9637416.672
9619900.241
9602288.045
9584113.055
9566107.692
9544233.846
9525733.028
9503411.395
9483258.712
9459728.569
9437371.428
9413056.879
9388977.766
9363213.56
9337474.002
9311129.135
9283236.227
9255206.296
9226393.438
9198252.392
9165146.794
9136718.783
9102745.759
9072774.35
9037709.662
9004731.092
8968829.445
8933774.135
8896891.986
8860118.288
8822011.098
8783773.992
8744459.065
8704831.347
8664169.319
8623053.834
8581161.987
8538923.439
8496076.636
8452890.976
8409130.47
8364985.146
8320287.36
8275213.67
8229647.924
8183833.499
8137517.245
8090921.515
8043715.82
7996100.117
7948003.383
7899338.652
7850627.208
7800979.808
7752091.846
7701430.515
7652898.113
7600774.818
7553211.633
7497987.481
7451642.616
7402569.428
7361320.02
7314632.29
7271122.134
7223586.781
7177816.722
7129526.016
7082725.461
7034913.471
6988066.527
6941455.883
6895310.178
6850200.025
6805246.159
6761748.886
6716985.981
6674645.02
6626430.918
6583718.198
6534330.603
6493970.976
6450083.571
6411433.958
6370457.827
6332293.208
6293411.505
6256099.526
6218912.044
6182648.136
6147036.427
6112169.522
6078028.835
6044582.554
6011804.996
5979656.34
5948119.124
5917166.972
5886806.974
5857032.752
5827873.182
5799340.591
5771468.162
5744276.568
5717779.877
5691997.342
5666913.897
5642546.795
5618860.198
5595874.269
5573546.7
5551903.696
5530904.262
5510579.952
5490890.113
5471869.321
5453472.761
5435736.144
5418607.904
5402124.176
5386227.744
5370955.475
5356247.484
5342141.946
5328577.98
5315595.097
5303130.035
5291222.955
5279804.869
5268915.808
5258478.873
5248533.627
5238996.934
5229907.798
5221182.504
5212859.16
5204860.43
5197222.942
5189880.592
5182868.024
5176131.343
5169702.894
5163538.724
5157668.527
5152054.715
5146723.873
5141641.562
5136830.95
5132258.656
5127944.565
5123855.372
5120008.28
5116369.889
5112955.546
5109732.062
5106713.697
5103868.007
5101208.651
5098704.495
5096368.726
5094171.935
5092126.671
5090205.397
5088419.728
5086743.93
5085188.447
5083729.301
5082375.694
5081105.636
5079927.154
5078820.815
5077793.549
5076829.097
5075933.285
5075093.224
5074313.596
5073584.319
5072908.99
5072279.153
5071697.559
5071156.11
5070657.108
5070192.086
5069763.258
5069362.065
5068990.67
5068641.841
5068317.026
5068011.648
5067726.373
5067459.766
5067211.86
5066983.971
5066775.505
5066589.115
5066423.868
5066281.445
5066161.978
5066065.276
5065991.073
5065937.785
5065904.021
5065887.163
5065884.225
5065892.084
5065910.303
5065934.286
5065963.537
5065993.087
5066025.352
5066053.639
5066081.236
5066104.463
5066125.082
5066142.052
5066156.2
5066167.822
5066177.216
5066185.218
5066192.24
5066199.362
5066207.281
5066216.514
5066227.243
5066240.187
5066255.359
5066272.856
5066292.396
5066313.738
5066336.026
5066359.034
5066381.004
5066402.316
5066420.833
5066430.698
5066432.155
5066427.549
5066413.357
5066385.879
5066345.245
5066291.696
5066225.826
5066149.109
5066060.24
5065968.81
5065860.041
5065758.458
5065631.968
5065526.233
5065406.302
5065311.028
5065224.163
5065146.712
5065081.378
5065025.961
5064990.821
5064975.547
5064975.295
5064985.657
5065009.371
5065047.22
5065102.455
5065168.896
5065248.178
5065334.985
5065431.198
5065532.27
5065639.792
5065748.484
5065860.177
5065969.123
5066076.514
5066179.253
5066276.436
5066367.708
5066450.938
5066526.908
5066593.268
5066652.565
5066702.421
5066744.335
5066773.885
5066791.238
5066798.037
5066799.013
5066793.27
5066779.48
5066756.786
5066727.128
5066689.756
5066646.298
5066595.756
5066539.157
5066476.186
5066407.115
5066332.567
5066252.302
5066167.424
5066077.976
5065985.22
5065889.357
5065792.471
5065694.419
5065597.823
5065502.566
5065411.412
5065324.629
5065244.556
5065171.843
5065107.937
5065053.234
5065009.414
5064981.021
5064969.864
5064969.768
5064978.136
5064997.895
5065031.455
5065076.078
5065131.741
5065195.822
5065267.092
5065348.037
5065426.401
5065521.907
5065610.449
5065719.451
5065806.359
5065900.194
5065980.258
5066058.093
5066129.004
5066194.529
5066253.798
5066306.517
5066353.136
5066393.17
5066424.764
5066446.751
5066459.219
5066465.38
5066465.427
5066459.206
5066446.138
5066427.089
5066402.441
5066373.4
5066340.476
5066304.349
5066265.907
5066223.624
5066180.101
5066130.457
5066083.089
5066025.91
5065973.849
5065910.761
5065859.976
5065805.274
5065760.524
5065719.938
5065684.298
5065653.437
5065628.892
5065613.945
5065608.241
5065610.008
5065616.42
5065630.226
5065652.929
5065685.783
5065726.278
5065775.288
5065829.754
5065890.262
5065953.983
5066021.375
5066091.157
5066163.429
5066236.056
5066308.945
5066379.414
5066447.933
5066512.387
5066573.296
5066628.864
5066679.76
5066725.09
5066764.748
5066798.823
5066826.243
5066847.12
5066860.063
5066865.789
5066865.861
5066861.466
5066851.311
5066835.521
5066814.417
5066788.108
5066758.854
5066726.045
5066689.685
5066650.585
5066609.606
5066566.63
5066522.901
5066477.662
5066433.759
5066388.617
5066345.095
5066301.751
5066259.317
5066217.209
5066176.682
5066136.735
5066098.222
5066060.455
5066023.472
5065988.356
5065953.735
5065920.062
5065887.464
5065855.279
5065823.801
5065792.878
5065762.415
5065732.557
5065703.106
5065674.268
5065645.967
5065618.376
5065591.519
5065565.536
5065540.448
5065516.362
5065493.322
5065471.385
5065450.625
5065431.024
5065412.682
5065395.482
5065379.526
5065364.61
5065350.782
5065337.758
5065325.507
5065313.676
5065302.17
5065290.733
5065279.214
5065267.661
5065255.022
5065241.922
5065227.935
5065212.123
5065194.14
5065174.075
5065151.544
5065126.53
5065099.083
5065069.063
5065036.541
5065001.645
5064964.129
5064924.521
5064882.157
5064837.895
5064790.904
5064742.16
5064691.198
5064638.975
5064585.589
5064531.573
5064478.471
5064425.973
5064375.645
5064327.291
5064281.92
5064239.565
5064200.851
5064166.127
5064136.014
5064110.917
5064091.068
5064077.766
5064071.16
5064069.978
5064072.865
5064081.859
5064097.801
5064118.061
5064142.564
5064173.63
5064209.244
5064249.607
5064293.492
5064340.666
5064391.572
5064445.827
5064502.896
5064561.821
5064619.442
5064676.223
5064730.826
5064783.379
5064833.505
5064881.028
5064926.026
5064968.207
5065007.505
5065044.206
5065077.115
5065107.203
5065133.082
5065155.885
5065176.108
5065193.604
5065208.953
5065222.477
5065234.397
5065245.282
5065255.211
5065264.635
5065273.726
5065282.892
5065292.192
5065302.019
5065312.294
5065323.546
5065335.894
5065349.05
5065363.513
5065378.391
5065394.639
5065411.643
5065431.1
5065450.102
5065470.622
5065490.256
5065510.249
5065529.323
5065547.906
5065565.486
5065582.096
5065597.281
5065610.974
5065622.923
5065632.989
5065641.097
5065647.266
5065651.332
5065653.07
5065652.881
5065651.062
5065647.474
5065642.246
5065635.639
5065627.679
5065618.696
5065608.684
5065598.094
5065586.728
5065575.597
5065564.101
5065553.292
5065542.891
5065533.316
5065524.737
5065517.284
5065511.198
5065506.603
5065503.614
5065502.413
5065502.579
5065504.391
5065507.854
5065513.145
5065519.962
5065528.278
5065537.801
5065548.415
5065559.822
5065571.8
5065584.178
5065596.271
5065608.139
5065619.059
5065628.984
5065637.445
5065644.312
5065649.264
5065652.231
5065653.114
5065652.254
5065648.846
5065643.124
5065633.929
5065621.787
5065606.384
5065587.838
5065565.325
5065540.22
5065511.999
5065481.789
5065449.509
5065414.808
5065380.358
5065341.892
5065307.165
5065266.705
5065234.415
5065192.774
5065159.219
5065122.334
5065089.069
5065055.868
5065026.509
5064999.348
5064974.543
5064953.474
5064934.456
5064919.954
5064908.219
5064900.484
5064896.957
5064896.494
5064899.142
5064904.896
5064913.173
5064924.077
5064937.627
5064954.686
5064973.017
5064993.748
5065014.898
5065037.795
5065060.786
5065084.938
5065108.712
5065133.079
5065156.749
5065180.387
5065203.072
5065225.137
5065246.131
5065266.173
5065285.023
5065302.729
5065319.161
5065334.367
5065348.308
5065361.011
5065372.525
5065382.849
5065392.139
5065400.316
5065407.66
5065414.017
5065419.7
5065424.581
5065428.948
5065432.709
5065436.103
5065439.084
5065441.816
5065444.323
5065446.715
5065449.019
5065451.339
5065453.673
5065456.113
5065458.653
5065461.367
5065464.234
5065467.293
5065470.516
5065473.875
5065477.373
5065480.816
5065484.312
5065487.574
5065490.631
5065493.306
5065495.557
5065497.22
5065498.278
5065498.616
5065498.444
5065497.404
5065495.52
5065492.747
5065488.426
5065483.168
5065476.922
5065469.074
5065459.755
5065448.639
5065436.566
5065422.988
5065408.471
5065392.6
5065375.725
5065357.668
5065338.585
5065318.493
5065297.43
5065275.532
5065252.802
5065229.434
5065205.467
5065181.147
5065156.512
5065131.949
5065107.487
5065083.477
5065060.003
5065037.229
5065015.293
5064994.243
5064974.249
5064955.285
5064937.552
5064920.936
5064905.649
5064891.546
5064878.789
5064867.241
5064857.008
5064847.963
5064840.148
5064833.466
5064827.878
5064823.346
5064819.744
5064817.084
5064815.285
5064814.365
5064814.119
5064814.389
5064815.219
5064816.591
5064818.457
5064820.823
5064823.599
5064826.816
5064830.415
5064834.395
5064838.76
5064843.483
5064848.606
5064854.052
5064859.893
5064866.248
5064872.781
5064879.945
5064887.475
5064895.151
5064903.36
5064911.735
5064921.154
5064930.613
5064940.64
5064951.037
5064961.253
5064972.315
5064982.631
5064994.472
5065005.464
5065018.377
5065029.493
5065041.462
5065052.396
5065063.469
5065073.914
5065083.982
5065093.512
5065102.496
5065110.854
5065118.57
5065125.565
5065131.838
5065137.326
5065141.999
5065145.837
5065148.846
5065150.974
5065152.069
5065152.228
5065151.627
5065150.151
5065147.852
5065144.738
5065140.824
5065136.203
5065130.864
5065124.948
5065118.423
5065111.452
5065103.911
5065096.223
5065087.766
5065079.926
5065071.701
5065064.347
5065056.742
5065049.692
5065042.877
5065036.722
5065031.222
5065026.587
5065022.842
5065020.147
5065018.656
5065018.261
5065018.897
5065020.62
5065023.732
5065028.164
5065033.992
5065041.116
5065049.586
5065059.246
5065070.222
5065082.276
5065095.765
5065110.001
5065126.157
5065142.043
5065161.349
5065178.932
5065202.068
5065222.064
5065246.057
5065264.414
5065283.953
5065301.221
5065318.216
5065334
5065348.86
5065362.474
5065374.986
5065386.318
5065396.593
5065404.669
5065410.313
5065414.037
5065415.764
5065415.47
5065413.002
5065408.261
5065401.137
5065391.844
5065380.542
5065367.529
5065352.969
5065337.195
5065320.007
5065301.975
5065281.998
5065261.963
5065239.191
5065218.103
5065192.732
5065169.606
5065139.343
5065115.021
5065087.674
5065064.4
5065040.159
5065017.863
5064996.192
5064975.743
5064956.641
5064938.743
5064922.752
5064908.139
5064895.327
5064883.968
5064874.557
5064868.363
5064864.719
5064862.776
5064862.702
5064864.852
5064869.092
5064875.554
5064883.995
5064894.311
5064906.356
5064920.032
5064935.204
5064951.862
5064969.807
5064989.093
5065009.486
5065031.019
5065053.487
5065076.847
5065100.967
5065125.707
5065151.05
5065176.655
5065202.758
5065228.55
5065254.752
5065280.289
5065306.025
5065330.923
5065355.6
5065379.417
5065402.712
5065425.137
5065446.842
5065467.672
5065487.515
5065506.422
5065523.995
5065540.425
5065554.95
5065568.141
5065579.572
5065589.54
5065597.611
5065602.58
5065605.244
5065606.497
5065606.054
5065603.487
5065598.477
5065591.09
5065581.279
5065568.941
5065554.019
5065536.549
5065516.639
5065494.522
5065470.383
5065444.623
5065417.24
5065388.678
5065358.494
5065327.308
5065293.848
5065260.026
5065222.417
5065186.727
5065145.445
5065108.684
5065061.05
5065019.847
5064969.595
5064929.973
5064887.26
5064848.928
5064810.06
5064773.696
5064738.44
5064705.053
5064673.282
5064643.456
5064615.653
5064589.859
5064566.409
5064545.116
5064526.372
5064509.929
5064496.031
5064484.581
5064475.703
5064470.381
5064468.582
5064468.875
5064471.005
5064475.888
5064483.752
5064494.134
5064506.747
5064521.422
5064537.899
5064556.082
5064575.784
5064596.906
5064619.345
5064642.921
5064667.608
5064693.152
5064719.546
5064746.52
5064774.045
5064801.883
5064829.969
5064858.173
5064886.249
5064914.201
5064941.829
5064969.111
5064995.949
5065022.295
5065048.091
5065073.306
5065097.893
5065121.85
5065145.126
5065167.754
5065189.672
5065210.946
5065231.502
5065251.435
5065270.644
5065289.272
5065307.186
5065324.551
5065341.228
5065357.382
5065372.864
5065387.848
5065402.173
5065416.009
5065429.199
5065441.891
5065453.96
5065465.511
5065476.415
5065486.792
5065496.425
5065505.528
5065513.856
5065521.646
5065528.355
5065534.07
5065538.896
5065542.69
5065545.426
5065546.965
5065547.476
5065547.069
5065545.756
5065543.205
5065539.523
5065534.574
5065528.458
5065521.075
5065512.556
5065502.793
5065491.957
5065479.911
5065466.854
5065452.624
5065437.43
5065421.104
5065403.893
5065385.544
5065366.558
5065346.102
5065325.85
5065303.044
5065281.499
5065255.485
5065231.895
5065204.36
5065181.445
5065156.774
5065134.33
5065111.22
5065089.08
5065066.937
5065045.35
5065024.176
5065003.492
5064983.309
5064963.834
5064945.159
5064927.087
5064909.402
5064892.498
5064876.67
5064861.876
5064847.832
5064834.842
5064822.925
5064812.18
5064802.526
5064793.617
5064785.671
5064778.6
5064772.396
5064767.038
5064762.476
5064758.679
5064755.599
5064753.194
5064751.405
5064750.212
5064749.567
5064749.401
5064749.595
5064750.207
5064751.179
5064752.477
5064754.041
5064755.811
5064757.746
5064759.777
5064761.917
5064764.027
5064766.25
5064768.344
5064770.557
5064772.562
5064774.676
5064776.5
5064778.424
5064780.019
5064781.68
5064783.004
5064784.317
5064785.336
5064786.295
5064787.011
5064787.594
5064787.975
5064788.229
5064788.273
5064788.434
5064788.392
5064787.953
5064787.591
5064787.156
5064786.303
5064785.501
5064784.585
5064783.693
5064782.823
5064782.012
5064781.291
5064780.701
5064780.289
5064780.077
5064780.081
5064780.439
5064781.207
5064782.396
5064783.983
5064786.105
5064788.747
5064791.996
5064795.853
5064800.389
5064805.594
5064811.536
5064818.198
5064825.642
5064833.831
5064842.802
5064852.512
5064863.077
5064874.56
5064886.519
5064899.657
5064913.391
5064927.779
5064943.092
5064959.357
5064976.639
5064994.211
5065012.737
5065031.32
5065051.154
5065070.881
5065090.649
5065111.546
5065131.341
5065154.355
5065175.932
5065200.553
5065222.078
5065244.847
5065265.916
5065287.013
5065307.066
5065326.508
5065345.075
5065362.787
5065379.559
5065395.272
5065409.942
5065423.314
5065435.453
5065446.041
5065455.251
5065462.845
5065468.744
5065472.6
5065474.264
5065474.365
5065473.041
5065470.076
5065465.332
5065458.902
5065450.701
5065440.857
5065429.309
5065416.125
5065401.402
5065385.144
5065367.615
5065348.696
5065328.745
5065307.471
5065285.22
5065261.579
5065236.889
5065210.902
5065184.061
5065156.357
5065128.201
5065099.514
5065070.58
5065041.327
5065012.017
5064982.773
5064953.862
5064925.52
5064897.818
5064870.938
5064844.811
5064819.588
5064795.225
5064771.975
5064749.744
5064728.779
5064708.896
5064690.431
5064673.127
5064657.322
5064642.744
5064629.64
5064617.84
5064607.545
5064598.719
5064591.387
5064585.661
5064581.733
5064579.7
5064579.23
5064580.01
5064582.338
5064586.457
5064592.408
5064599.89
5064608.768
5064619.219
5064631.048
5064644.863
5064659.438
5064675.686
5064692.486
5064710.665
5064729.503
5064749.485
5064770.212
5064791.875
5064814.323
5064837.613
5064861.669
5064886.562
5064912.256
5064939.012
5064965.986
5064992.882
5065019.42
5065045.436
5065071.085
5065096.216
5065120.823
5065144.986
5065168.367
5065191.18
5065213.288
5065234.777
5065255.44
5065275.244
5065294.108
5065311.974
5065328.947
5065344.826
5065359.753
5065373.506
5065385.998
5065397.333
5065407.266
5065416.172
5065423.624
5065429.935
5065435.041
5065439.077
5065442.035
5065443.917
5065444.749
5065444.63
5065443.597
5065441.688
5065438.928
5065435.403
5065431.011
5065425.974
5065420.259
5065413.924
5065407.003
5065399.622
5065391.682
5065383.548
5065375.037
5065366.253
5065357.142
5065347.847
5065338.385
5065328.833
5065319.054
5065309.407
5065299.517
5065289.868
5065280.042
5065270.481
5065260.845
5065251.457
5065242.134
5065233.027
5065224.061
5065215.284
5065206.7
5065198.288
5065190.096
5065182.054
5065174.246
5065166.565
5065159.13
5065151.785
5065144.707
5065137.644
5065130.892
5065124.11
5065117.645
5065111.098
5065104.864
5065098.491
5065092.422
5065086.16
5065080.189
5065073.981
5065068.042
5065061.845
5065055.872
5065049.642
5065043.576
5065037.378
5065031.114
5065025.158
5065018.91
5065012.477
5065006.058
5064999.627
5064992.683
5064985.841
5064978.698
5064971.528
5064964.167
5064956.694
5064949.1
5064941.324
5064933.486
5064925.46
5064917.369
5064909.133
5064900.826
5064892.428
5064883.985
5064875.544
5064867.07
5064858.691
5064850.288
5064842.049
5064833.843
5064825.845
5064817.956
5064810.295
5064802.821
5064795.584
5064788.613
5064781.934
5064775.564
5064769.535
5064763.854
5064758.556
5064753.639
5064749.141
5064745.056
5064741.413
5064738.212
5064735.476
5064733.218
5064731.459
5064730.211
5064729.52
5064729.304
5064729.518
5064730.149
5064731.338
5064733.039
5064735.274
5064738.037
5064741.309
5064745.105
5064749.378
5064754.145
5064759.38
5064765.292
5064771.466
5064778.375
5064785.716
5064793.389
5064801.827
5064810.526
5064820.148
5064829.881
5064840.135
5064850.678
5064861.532
5064872.842
5064884.354
5064896.384
5064908.573
5064921.251
5064934.089
5064947.345
5064960.774
5064974.514
5064988.502
5065002.723
5065017.219
5065031.895
5065046.852
5065061.964
5065077.342
5065092.859
5065108.619
5065124.5
5065140.588
5065156.795
5065173.148
5065189.606
5065206.181
5065222.836
5065239.584
5065256.377
5065273.261
5065290.132
5065307.102
5065324.008
5065340.999
5065357.876
5065374.769
5065391.51
5065408.161
5065424.626
5065440.926
5065457.017
5065472.895
5065488.52
5065503.893
5065518.935
5065533.68
5065548.01
5065561.991
5065575.467
5065588.556
5065601.063
5065613.166
5065624.568
5065635.501
5065645.616
5065655.118
5065663.783
5065671.644
5065679.221
5065686.183
5065691.134
5065698.522
5065694.291
5065706.479
5065694.761
5065708.926
5065690.385
5065707.1
5065681.71
5065698.948
5065667.33
5065686.948
5065647.147
5065669.51
5065619.691
5065649.252
5065587.318
5065622.014
5065549.989
5065589.878
5065507.541
5065552.72
5065460.137
5065510.972
5065411.745
5065460.618
5065357.372
5065410.415
5065297.52
5065355.126
5065236.603
5065295.806
5065169.552
5065238.462
5065106.983
5065175.186
5065036.992
5065123.667
5064972.66
5065067.071
5064982.982
5065014.194
5065016.782
5065015.23
5065012.872
5065010.388
5065008.147
5065006.551
5065005.667
5065005.334
5065005.296
5065005.466
5065005.92
5065006.68
5065007.648
5065008.539
5065009.271
5065009.901
5065010.457
5065010.97
5065011.464
5065011.951
5065012.438
5065012.929
5065013.427
5065013.928
5065014.406
5065014.859
5065015.29
5065015.711
5065016.127
5065016.545
5065016.97
5065017.416
5065017.883
5065018.279
5065018.545
5065018.672
5065018.697
5065018.666
5065018.55
5065018.297
5065017.862
5065017.204
5065016.296
5065015.12
5065013.681
5065012
5065010.126
5065008.336
5065006.878
5065005.768
5065004.991
5065004.507
5065004.264
5065004.187
5065004.189
5065004.258
5065004.43
5065004.728
5065005.159
5065005.713
5065006.37
5065007.098
5065007.799
5065008.403
5065008.909
5065009.322
5065009.645
5065009.882
5065010.044
5065010.14
5065010.186
5065010.198
5065010.194
5065010.175
5065010.133
5065010.067
5065010.002
5065009.973
5065009.97
5065009.985
5065010.035
5065010.138
5065010.314
5065010.581
5065010.96
5065011.463
5065012.102
5065012.882
5065013.799
5065014.847
5065015.965
5065016.924
5065017.64
5065018.106
5065018.347
5065018.421
5065018.412
5065018.326
5065018.111
5065017.73
5065017.157
5065016.378
5065015.397
5065014.231
5065012.909
5065011.49
5065010.181
5065009.068
5065008.151
5065007.417
5065006.85
5065006.43
5065006.135
5065005.942
5065005.831
5065005.778
5065005.764
5065005.766
5065005.784
5065005.824
5065005.888
5065005.973
5065006.052
5065006.102
5065006.126
5065006.132
5065006.129
5065006.116
5065006.089
5065006.046