/*--------------------------------*- C++ -*----------------------------------*\
| =========                 |                                                 |
| \\      /  F ield         | OpenFOAM: The Open Source CFD Toolbox           |
|  \\    /   O peration     | Version:  v2012                                 |
|   \\  /    A nd           | Website:  www.openfoam.com                      |
|    \\/     M anipulation  |                                                 |
\*---------------------------------------------------------------------------*/
FoamFile
{
    version     2.0;
    format      ascii;
    class       volVectorField;
    location    "0.002";
    object      U;
}
// * * * * * * * * * * * * * * * * * * * * * * * * * * * * * * * * * * * * * //

dimensions      [0 1 -1 0 0 0 0];


internalField   nonuniform List<vector> 
5000
(
(-1.031324613e-13 0 0)
(-1.108276782e-13 0 0)
(-1.033255098e-13 0 0)
(-2.283318327e-14 0 0)
(6.411129679e-14 0 0)
(9.741372293e-14 0 0)
(9.790344436e-14 0 0)
(8.075499338e-14 0 0)
(3.805120959e-14 0 0)
(6.096882998e-15 0 0)
(-1.854944113e-14 0 0)
(-2.624161348e-14 0 0)
(-2.76551092e-14 0 0)
(-2.256445995e-14 0 0)
(-6.728442352e-15 0 0)
(1.242855552e-14 0 0)
(2.702489335e-14 0 0)
(3.623632355e-14 0 0)
(3.660903469e-14 0 0)
(4.11392546e-14 0 0)
(4.118526854e-14 0 0)
(4.630598094e-14 0 0)
(5.06639295e-14 0 0)
(6.795488469e-14 0 0)
(7.639465466e-14 0 0)
(8.755588939e-14 0 0)
(1.024932878e-13 0 0)
(1.132292334e-13 0 0)
(1.273942431e-13 0 0)
(1.368987396e-13 0 0)
(1.337797888e-13 0 0)
(1.248485599e-13 0 0)
(1.182422196e-13 0 0)
(1.200344847e-13 0 0)
(1.247282204e-13 0 0)
(1.272623461e-13 0 0)
(1.280372028e-13 0 0)
(1.22394867e-13 0 0)
(1.184434692e-13 0 0)
(1.068068308e-13 0 0)
(1.004059736e-13 0 0)
(9.383026451e-14 0 0)
(9.687883604e-14 0 0)
(1.202240362e-13 0 0)
(1.436656594e-13 0 0)
(1.278943996e-13 0 0)
(1.223582453e-13 0 0)
(1.496726149e-13 0 0)
(1.420778069e-13 0 0)
(1.311255806e-13 0 0)
(1.185279942e-13 0 0)
(1.159409858e-13 0 0)
(1.349259377e-13 0 0)
(1.191975309e-13 0 0)
(1.107322556e-13 0 0)
(1.154205218e-13 0 0)
(1.016395041e-13 0 0)
(1.02300096e-13 0 0)
(1.033432415e-13 0 0)
(1.026043972e-13 0 0)
(1.039321103e-13 0 0)
(1.026454486e-13 0 0)
(1.075239163e-13 0 0)
(1.199373587e-13 0 0)
(1.254897537e-13 0 0)
(1.286161255e-13 0 0)
(1.283371028e-13 0 0)
(1.240212714e-13 0 0)
(1.176787555e-13 0 0)
(1.149568838e-13 0 0)
(1.158768169e-13 0 0)
(1.172055273e-13 0 0)
(1.1579656e-13 0 0)
(1.052128789e-13 0 0)
(9.929020954e-14 0 0)
(9.580087172e-14 0 0)
(9.765145056e-14 0 0)
(1.014788658e-13 0 0)
(1.08102276e-13 0 0)
(1.131299848e-13 0 0)
(1.095924235e-13 0 0)
(1.045558184e-13 0 0)
(1.039575718e-13 0 0)
(1.109286403e-13 0 0)
(1.283878699e-13 0 0)
(1.366871226e-13 0 0)
(1.399803875e-13 0 0)
(1.346164984e-13 0 0)
(1.323867562e-13 0 0)
(1.308350279e-13 0 0)
(1.284508527e-13 0 0)
(1.278146049e-13 0 0)
(1.301067576e-13 0 0)
(1.33561588e-13 0 0)
(1.385556279e-13 0 0)
(1.37570089e-13 0 0)
(1.363405144e-13 0 0)
(1.274285218e-13 0 0)
(1.129626094e-13 0 0)
(1.092269586e-13 0 0)
(1.149927823e-13 0 0)
(1.260829499e-13 0 0)
(1.256304003e-13 0 0)
(1.24971879e-13 0 0)
(1.179933196e-13 0 0)
(1.076308443e-13 0 0)
(1.048222008e-13 0 0)
(1.155027176e-13 0 0)
(1.29610006e-13 0 0)
(1.252513636e-13 0 0)
(1.188112305e-13 0 0)
(1.078708273e-13 0 0)
(1.068824787e-13 0 0)
(1.055873894e-13 0 0)
(1.158439422e-13 0 0)
(1.297050407e-13 0 0)
(1.078847978e-13 0 0)
(1.336467855e-13 0 0)
(1.314897941e-13 0 0)
(9.913291163e-14 0 0)
(9.289971839e-14 0 0)
(9.961195266e-14 0 0)
(1.068640662e-13 0 0)
(1.038199302e-13 0 0)
(9.357919587e-14 0 0)
(1.187660814e-13 0 0)
(1.368222632e-13 0 0)
(1.271151811e-13 0 0)
(1.126927132e-13 0 0)
(1.264283277e-13 0 0)
(1.195969772e-13 0 0)
(8.151045823e-14 0 0)
(5.045376237e-14 0 0)
(4.171810062e-14 0 0)
(3.832528567e-14 0 0)
(4.331201489e-14 0 0)
(5.30920949e-14 0 0)
(6.145180191e-14 0 0)
(6.853340678e-14 0 0)
(7.034692846e-14 0 0)
(6.689140725e-14 0 0)
(5.890015151e-14 0 0)
(4.572415843e-14 0 0)
(2.457100519e-14 0 0)
(1.007021395e-14 0 0)
(-1.434809355e-14 0 0)
(-2.719981866e-14 0 0)
(-5.176129939e-14 0 0)
(-6.622612676e-14 0 0)
(-8.752595621e-14 0 0)
(-1.00606523e-13 0 0)
(-1.099308332e-13 0 0)
(-1.055008925e-13 0 0)
(-9.571249591e-14 0 0)
(-8.380420259e-14 0 0)
(-7.288714416e-14 0 0)
(-5.930830141e-14 0 0)
(-5.057342068e-14 0 0)
(-4.2882177e-14 0 0)
(-3.380208807e-14 0 0)
(-2.2422007e-14 0 0)
(-1.471445131e-14 0 0)
(-6.286585212e-15 0 0)
(2.050735886e-15 0 0)
(1.079955029e-14 0 0)
(1.516458524e-14 0 0)
(1.610896927e-14 0 0)
(1.697907281e-14 0 0)
(1.895230902e-14 0 0)
(1.793608716e-14 0 0)
(1.926798319e-14 0 0)
(1.606271358e-14 0 0)
(1.309702522e-14 0 0)
(9.47434541e-15 0 0)
(8.145765169e-15 0 0)
(5.154806413e-15 0 0)
(-4.089620637e-16 0 0)
(-2.531435467e-15 0 0)
(-4.484381447e-15 0 0)
(-2.024023161e-15 0 0)
(1.761694958e-15 0 0)
(1.005059242e-14 0 0)
(1.490620058e-14 0 0)
(2.652849477e-14 0 0)
(3.340854971e-14 0 0)
(4.797606885e-14 0 0)
(5.602819858e-14 0 0)
(7.469555732e-14 0 0)
(8.426680696e-14 0 0)
(9.615426916e-14 0 0)
(9.888166436e-14 0 0)
(1.006074551e-13 0 0)
(1.06483609e-13 0 0)
(1.126176414e-13 0 0)
(1.219898774e-13 0 0)
(1.404247279e-13 0 0)
(1.347967952e-13 0 0)
(1.202325842e-13 0 0)
(1.363761216e-13 0 0)
(1.22011093e-13 0 0)
(1.219209211e-13 0 0)
(1.410417955e-13 0 0)
(1.421901981e-13 0 0)
(1.348712541e-13 0 0)
(1.447540924e-13 0 0)
(1.152759628e-13 0 0)
(1.004109057e-13 0 0)
(1.330077149e-13 0 0)
(1.503725057e-13 0 0)
(1.256060781e-13 0 0)
(1.159124683e-13 0 0)
(1.033099484e-13 0 0)
(1.010849901e-13 0 0)
(9.930004013e-14 0 0)
(9.86012338e-14 0 0)
(9.928515853e-14 0 0)
(9.841574376e-14 0 0)
(9.784740003e-14 0 0)
(9.303402246e-14 0 0)
(8.525976606e-14 0 0)
(7.819810773e-14 0 0)
(7.072290374e-14 0 0)
(7.460824046e-14 0 0)
(7.925890572e-14 0 0)
(9.506200681e-14 0 0)
(1.033669139e-13 0 0)
(1.171386287e-13 0 0)
(1.288420175e-13 0 0)
(1.328378009e-13 0 0)
(1.344910136e-13 0 0)
(1.310742809e-13 0 0)
(1.187746652e-13 0 0)
(1.084125205e-13 0 0)
(1.019507712e-13 0 0)
(9.919283537e-14 0 0)
(9.850359704e-14 0 0)
(1.016002287e-13 0 0)
(1.038980823e-13 0 0)
(1.144776784e-13 0 0)
(1.202907946e-13 0 0)
(1.250781057e-13 0 0)
(1.257477402e-13 0 0)
(1.254379708e-13 0 0)
(1.241244151e-13 0 0)
(1.23897127e-13 0 0)
(1.221971557e-13 0 0)
(1.127638247e-13 0 0)
(1.031845553e-13 0 0)
(9.921999605e-14 0 0)
(9.794345264e-14 0 0)
(9.906653035e-14 0 0)
(1.03388015e-13 0 0)
(1.11223167e-13 0 0)
(1.180763586e-13 0 0)
(1.235338405e-13 0 0)
(1.213585607e-13 0 0)
(1.223136215e-13 0 0)
(1.21748065e-13 0 0)
(1.225356992e-13 0 0)
(1.171359522e-13 0 0)
(1.113961099e-13 0 0)
(1.07510115e-13 0 0)
(1.079803831e-13 0 0)
(1.08876814e-13 0 0)
(1.110391218e-13 0 0)
(1.099636697e-13 0 0)
(1.085730391e-13 0 0)
(1.044312779e-13 0 0)
(1.018780514e-13 0 0)
(1.048601147e-13 0 0)
(1.089291976e-13 0 0)
(1.193683474e-13 0 0)
(1.307798022e-13 0 0)
(1.485795259e-13 0 0)
(1.341170904e-13 0 0)
(1.332898226e-13 0 0)
(1.137671465e-13 0 0)
(8.824474827e-14 0 0)
(1.365219195e-13 0 0)
(1.253021781e-13 0 0)
(1.16855232e-13 0 0)
(1.368025787e-13 0 0)
(1.413511942e-13 0 0)
(1.23866828e-13 0 0)
(1.209044787e-13 0 0)
(1.188619912e-13 0 0)
(1.181774536e-13 0 0)
(1.116857017e-13 0 0)
(1.043263399e-13 0 0)
(9.075658816e-14 0 0)
(8.252771874e-14 0 0)
(7.458751329e-14 0 0)
(7.781330729e-14 0 0)
(8.264211579e-14 0 0)
(9.915593005e-14 0 0)
(1.177553973e-13 0 0)
(1.252722611e-13 0 0)
(1.15100729e-13 0 0)
(1.00301035e-13 0 0)
(1.038503775e-13 0 0)
(1.189093451e-13 0 0)
(1.250643425e-13 0 0)
(1.297316508e-13 0 0)
(1.185321279e-13 0 0)
(1.076388759e-13 0 0)
(1.010157108e-13 0 0)
(1.094592433e-13 0 0)
(1.231331161e-13 0 0)
(1.046212203e-13 0 0)
(1.312634378e-13 0 0)
(1.361141828e-13 0 0)
(1.014348377e-13 0 0)
(8.97109056e-14 0 0)
(1.038985891e-13 0 0)
(1.163228985e-13 0 0)
(1.035833656e-13 0 0)
(8.597165255e-14 0 0)
(7.870032781e-14 0 0)
(8.138382629e-14 0 0)
(9.32656786e-14 0 0)
(1.058735625e-13 0 0)
(1.162737121e-13 0 0)
(1.205963827e-13 0 0)
(1.213478622e-13 0 0)
(1.248812998e-13 0 0)
(1.231345123e-13 0 0)
(1.231765206e-13 0 0)
(1.285723828e-13 0 0)
(1.295238673e-13 0 0)
(1.374911911e-13 0 0)
(1.377873388e-13 0 0)
(1.304179242e-13 0 0)
(1.148418808e-13 0 0)
(9.283859058e-14 0 0)
(8.718546611e-14 0 0)
(9.612984882e-14 0 0)
(1.0564409e-13 0 0)
(1.132870567e-13 0 0)
(1.224746488e-13 0 0)
(1.263300157e-13 0 0)
(1.317079742e-13 0 0)
(1.315372012e-13 0 0)
(1.312048646e-13 0 0)
(1.284917245e-13 0 0)
(1.246300641e-13 0 0)
(1.261806449e-13 0 0)
(1.304943605e-13 0 0)
(1.345291446e-13 0 0)
(1.377391356e-13 0 0)
(1.504676704e-13 0 0)
(1.356231612e-13 0 0)
(1.213561697e-13 0 0)
(1.31597996e-13 0 0)
(1.330502751e-13 0 0)
(1.337931495e-13 0 0)
(1.163737378e-13 0 0)
(1.085044413e-13 0 0)
(9.547971875e-14 0 0)
(9.998881232e-14 0 0)
(1.187294371e-13 0 0)
(1.319087686e-13 0 0)
(1.384411722e-13 0 0)
(1.338763628e-13 0 0)
(1.253495826e-13 0 0)
(1.166470484e-13 0 0)
(1.085034905e-13 0 0)
(1.08417874e-13 0 0)
(1.189598429e-13 0 0)
(1.272864709e-13 0 0)
(1.277578884e-13 0 0)
(1.240010649e-13 0 0)
(1.213561934e-13 0 0)
(1.251923237e-13 0 0)
(1.188150451e-13 0 0)
(1.126362659e-13 0 0)
(1.119673009e-13 0 0)
(1.17255326e-13 0 0)
(1.243571089e-13 0 0)
(1.279040543e-13 0 0)
(1.267567623e-13 0 0)
(1.205706551e-13 0 0)
(1.144018552e-13 0 0)
(1.117427393e-13 0 0)
(1.016410617e-13 0 0)
(1.0506045e-13 0 0)
(1.225284873e-13 0 0)
(1.051732379e-13 0 0)
(1.31795022e-13 0 0)
(1.26275357e-13 0 0)
(9.389831575e-14 0 0)
(7.663501223e-14 0 0)
(7.033901936e-14 0 0)
(7.333078032e-14 0 0)
(9.138091622e-14 0 0)
(1.007840984e-13 0 0)
(1.175937305e-13 0 0)
(1.23589928e-13 0 0)
(1.253670337e-13 0 0)
(1.257201497e-13 0 0)
(1.201269556e-13 0 0)
(1.16712285e-13 0 0)
(1.157192282e-13 0 0)
(1.159858733e-13 0 0)
(1.175489748e-13 0 0)
(1.188255127e-13 0 0)
(1.199014718e-13 0 0)
(1.210252678e-13 0 0)
(1.26577061e-13 0 0)
(1.31063828e-13 0 0)
(1.243375109e-13 0 0)
(1.127655611e-13 0 0)
(1.060282419e-13 0 0)
(1.01593063e-13 0 0)
(1.001412028e-13 0 0)
(1.270969592e-13 0 0)
(1.277875896e-13 0 0)
(1.121234851e-13 0 0)
(1.413256313e-13 0 0)
(1.457946971e-13 0 0)
(1.193136831e-13 0 0)
(9.76402418e-14 0 0)
(1.282884502e-13 0 0)
(1.313079058e-13 0 0)
(1.179768364e-13 0 0)
(1.142828423e-13 0 0)
(1.126765199e-13 0 0)
(1.228977876e-13 0 0)
(1.317506705e-13 0 0)
(1.314617599e-13 0 0)
(1.310936916e-13 0 0)
(1.341433778e-13 0 0)
(1.335187142e-13 0 0)
(1.33802844e-13 0 0)
(1.379269792e-13 0 0)
(1.333993188e-13 0 0)
(1.285506191e-13 0 0)
(1.133101591e-13 0 0)
(9.212648873e-14 0 0)
(8.177211975e-14 0 0)
(7.891731305e-14 0 0)
(7.669964719e-14 0 0)
(8.087339772e-14 0 0)
(8.660806512e-14 0 0)
(9.818587102e-14 0 0)
(1.101507823e-13 0 0)
(1.146235603e-13 0 0)
(1.17025777e-13 0 0)
(1.244429491e-13 0 0)
(1.454638393e-13 0 0)
(1.256751223e-13 0 0)
(1.005215187e-13 0 0)
(1.224213001e-13 0 0)
(1.251883051e-13 0 0)
(1.334451162e-13 0 0)
(1.35693964e-13 0 0)
(1.129189535e-13 0 0)
(1.329704902e-13 0 0)
(1.301372172e-13 0 0)
(1.077242472e-13 0 0)
(8.8251707e-14 0 0)
(1.134912714e-13 0 0)
(1.359528411e-13 0 0)
(1.405263275e-13 0 0)
(1.417699547e-13 0 0)
(1.239578651e-13 0 0)
(9.987856816e-14 0 0)
(1.237722411e-13 0 0)
(1.413641073e-13 0 0)
(1.311979218e-13 0 0)
(1.18759517e-13 0 0)
(1.099091861e-13 0 0)
(1.025150673e-13 0 0)
(1.057487735e-13 0 0)
(1.24456981e-13 0 0)
(1.395723218e-13 0 0)
(1.217639341e-13 0 0)
(1.031743825e-13 0 0)
(9.792868779e-14 0 0)
(9.866566551e-14 0 0)
(1.004205912e-13 0 0)
(1.004169714e-13 0 0)
(9.578089674e-14 0 0)
(9.074857301e-14 0 0)
(8.831493523e-14 0 0)
(9.742871282e-14 0 0)
(1.000749212e-13 0 0)
(1.048714697e-13 0 0)
(1.079644031e-13 0 0)
(1.109960765e-13 0 0)
(1.139414201e-13 0 0)
(1.167736083e-13 0 0)
(1.168207299e-13 0 0)
(1.111078015e-13 0 0)
(1.070387205e-13 0 0)
(1.057627529e-13 0 0)
(1.089613132e-13 0 0)
(1.097089644e-13 0 0)
(1.240719796e-13 0 0)
(1.394765596e-13 0 0)
(1.424622371e-13 0 0)
(1.282351466e-13 0 0)
(1.1634588e-13 0 0)
(1.199379839e-13 0 0)
(1.309949476e-13 0 0)
(1.219507385e-13 0 0)
(1.001320277e-13 0 0)
(8.524373111e-14 0 0)
(9.724100393e-14 0 0)
(1.191351825e-13 0 0)
(1.254701005e-13 0 0)
(1.277318849e-13 0 0)
(1.269729828e-13 0 0)
(1.196369994e-13 0 0)
(1.109749583e-13 0 0)
(1.067665849e-13 0 0)
(1.23397313e-13 0 0)
(1.386328016e-13 0 0)
(1.258755612e-13 0 0)
(1.074441667e-13 0 0)
(9.275591841e-14 0 0)
(9.062941392e-14 0 0)
(9.380405174e-14 0 0)
(9.60319855e-14 0 0)
(9.300615619e-14 0 0)
(9.387653632e-14 0 0)
(9.43842869e-14 0 0)
(9.64323996e-14 0 0)
(9.589712367e-14 0 0)
(9.9611364e-14 0 0)
(1.025185181e-13 0 0)
(1.06356228e-13 0 0)
(1.173963528e-13 0 0)
(1.383103688e-13 0 0)
(1.647761802e-13 0 0)
(1.461210921e-13 0 0)
(1.426852202e-13 0 0)
(1.539340878e-13 0 0)
(1.264222039e-13 0 0)
(1.290323355e-13 0 0)
(1.615593941e-13 0 0)
(1.39648589e-13 0 0)
(1.474366429e-13 0 0)
(1.68810809e-13 0 0)
(1.543557583e-13 0 0)
(1.493375988e-13 0 0)
(1.557711261e-13 0 0)
(1.539117363e-13 0 0)
(1.448839608e-13 0 0)
(1.341745032e-13 0 0)
(1.110765748e-13 0 0)
(1.434552388e-13 0 0)
(1.529971637e-13 0 0)
(1.526849136e-13 0 0)
(1.521515051e-13 0 0)
(1.421933459e-13 0 0)
(1.592994182e-13 0 0)
(1.841641032e-13 0 0)
(1.866547956e-13 0 0)
(1.644712811e-13 0 0)
(1.341360107e-13 0 0)
(1.434768097e-13 0 0)
(1.643611386e-13 0 0)
(1.464344453e-13 0 0)
(1.44041379e-13 0 0)
(1.674020654e-13 0 0)
(1.819934189e-13 0 0)
(1.857061724e-13 0 0)
(1.834731636e-13 0 0)
(1.70402898e-13 0 0)
(1.657283851e-13 0 0)
(1.566646213e-13 0 0)
(1.51633882e-13 0 0)
(1.426386912e-13 0 0)
(1.41227907e-13 0 0)
(1.399211362e-13 0 0)
(1.405047121e-13 0 0)
(1.487716195e-13 0 0)
(1.517692118e-13 0 0)
(1.555249321e-13 0 0)
(1.590053596e-13 0 0)
(1.705218457e-13 0 0)
(1.802749107e-13 0 0)
(1.874648831e-13 0 0)
(1.902174239e-13 0 0)
(1.805373208e-13 0 0)
(1.697545971e-13 0 0)
(1.707505858e-13 0 0)
(1.840180851e-13 0 0)
(1.804856254e-13 0 0)
(1.710757222e-13 0 0)
(1.620612777e-13 0 0)
(1.575341234e-13 0 0)
(1.606335909e-13 0 0)
(1.628063789e-13 0 0)
(1.616009594e-13 0 0)
(1.581363668e-13 0 0)
(1.550664398e-13 0 0)
(1.602562166e-13 0 0)
(1.640059539e-13 0 0)
(1.737004982e-13 0 0)
(1.953773941e-13 0 0)
(2.301462658e-13 0 0)
(2.837287276e-13 0 0)
(3.521801602e-13 0 0)
(4.013251924e-13 0 0)
(4.179924092e-13 0 0)
(4.145401686e-13 0 0)
(4.138453001e-13 0 0)
(4.079392528e-13 0 0)
(3.982222986e-13 0 0)
(3.78248204e-13 0 0)
(3.721264983e-13 0 0)
(3.771097911e-13 0 0)
(3.859021905e-13 0 0)
(3.840184922e-13 0 0)
(3.518990526e-13 0 0)
(2.895015082e-13 0 0)
(2.31597177e-13 0 0)
(2.018125276e-13 0 0)
(1.908607641e-13 0 0)
(1.868568893e-13 0 0)
(1.861538286e-13 0 0)
(1.829238978e-13 0 0)
(1.773273076e-13 0 0)
(1.731146943e-13 0 0)
(1.705984081e-13 0 0)
(1.715044947e-13 0 0)
(1.752458341e-13 0 0)
(1.858297297e-13 0 0)
(1.916753317e-13 0 0)
(1.944894776e-13 0 0)
(1.928412915e-13 0 0)
(1.887463428e-13 0 0)
(1.855137431e-13 0 0)
(1.851473138e-13 0 0)
(1.848936279e-13 0 0)
(1.878928556e-13 0 0)
(1.874559919e-13 0 0)
(1.845565136e-13 0 0)
(1.846312143e-13 0 0)
(1.844957916e-13 0 0)
(1.836217805e-13 0 0)
(1.84673755e-13 0 0)
(1.850756891e-13 0 0)
(1.777864954e-13 0 0)
(1.672095739e-13 0 0)
(1.301319939e-13 0 0)
(1.326718282e-13 0 0)
(1.852968384e-13 0 0)
(1.603657338e-13 0 0)
(1.182210167e-13 0 0)
(1.336237522e-13 0 0)
(1.438257052e-13 0 0)
(1.456759638e-13 0 0)
(1.42838599e-13 0 0)
(1.496960546e-13 0 0)
(1.497235187e-13 0 0)
(1.575813306e-13 0 0)
(1.584948697e-13 0 0)
(1.619062931e-13 0 0)
(1.70358975e-13 0 0)
(1.780465554e-13 0 0)
(1.990540811e-13 0 0)
(2.100739113e-13 0 0)
(2.177805013e-13 0 0)
(2.164289242e-13 0 0)
(2.141423951e-13 0 0)
(1.978987075e-13 0 0)
(1.851352505e-13 0 0)
(1.67423413e-13 0 0)
(1.590719765e-13 0 0)
(1.49158997e-13 0 0)
(1.460883174e-13 0 0)
(1.453922982e-13 0 0)
(1.469284295e-13 0 0)
(1.55445638e-13 0 0)
(1.696026846e-13 0 0)
(1.720945401e-13 0 0)
(1.681287112e-13 0 0)
(1.53979003e-13 0 0)
(1.341611572e-13 0 0)
(1.485127332e-13 0 0)
(1.71130523e-13 0 0)
(1.590352995e-13 0 0)
(1.497656255e-13 0 0)
(1.522645699e-13 0 0)
(1.635273556e-13 0 0)
(1.438952034e-13 0 0)
(1.309047514e-13 0 0)
(1.566729296e-13 0 0)
(1.631958164e-13 0 0)
(1.74060931e-13 0 0)
(1.759694355e-13 0 0)
(1.778962268e-13 0 0)
(1.826150983e-13 0 0)
(1.835357187e-13 0 0)
(1.833926847e-13 0 0)
(1.813747278e-13 0 0)
(1.844555046e-13 0 0)
(1.853432576e-13 0 0)
(1.8874199e-13 0 0)
(1.889514405e-13 0 0)
(1.876290588e-13 0 0)
(1.862625695e-13 0 0)
(1.817126518e-13 0 0)
(1.802799203e-13 0 0)
(1.753254015e-13 0 0)
(1.736500585e-13 0 0)
(1.735109084e-13 0 0)
(1.731864172e-13 0 0)
(1.72431142e-13 0 0)
(1.741268891e-13 0 0)
(1.776362585e-13 0 0)
(1.789804808e-13 0 0)
(1.857161316e-13 0 0)
(2.019181932e-13 0 0)
(2.120558248e-13 0 0)
(2.326002967e-13 0 0)
(2.45435345e-13 0 0)
(2.558624898e-13 0 0)
(2.568379795e-13 0 0)
(2.525160266e-13 0 0)
(2.427346168e-13 0 0)
(2.277511836e-13 0 0)
(2.201402346e-13 0 0)
(2.120156402e-13 0 0)
(2.042995147e-13 0 0)
(1.995918607e-13 0 0)
(1.924430891e-13 0 0)
(1.903323314e-13 0 0)
(1.865664123e-13 0 0)
(1.828063541e-13 0 0)
(1.766467853e-13 0 0)
(1.792406796e-13 0 0)
(1.975303756e-13 0 0)
(2.488105634e-13 0 0)
(3.78917417e-13 0 0)
(5.96733802e-13 0 0)
(7.440596948e-13 0 0)
(9.236517817e-13 0 0)
(1.142189645e-12 0 0)
(1.555753913e-12 0 0)
(1.842375513e-12 0 0)
(2.341995129e-12 0 0)
(2.782795851e-12 0 0)
(3.306142823e-12 0 0)
(4.324455929e-12 0 0)
(4.814398649e-12 0 0)
(6.422286055e-12 0 0)
(7.026304982e-12 0 0)
(8.987906817e-12 0 0)
(1.021187622e-11 0 0)
(1.282685437e-11 0 0)
(1.426196411e-11 0 0)
(1.786336821e-11 0 0)
(1.989163712e-11 0 0)
(2.486502499e-11 0 0)
(2.760266985e-11 0 0)
(3.433253774e-11 0 0)
(3.817576796e-11 0 0)
(4.740003449e-11 0 0)
(5.248421361e-11 0 0)
(6.499449912e-11 0 0)
(7.191597539e-11 0 0)
(8.883626775e-11 0 0)
(9.810114912e-11 0 0)
(1.215085319e-10 0 0)
(1.338666733e-10 0 0)
(1.648908633e-10 0 0)
(1.816702667e-10 0 0)
(2.236408199e-10 0 0)
(2.465006271e-10 0 0)
(3.033409996e-10 0 0)
(3.340769366e-10 0 0)
(4.100504704e-10 0 0)
(4.505425007e-10 0 0)
(5.521873589e-10 0 0)
(6.070672534e-10 0 0)
(7.446078589e-10 0 0)
(8.197558163e-10 0 0)
(1.000770888e-09 0 0)
(1.100078253e-09 0 0)
(1.337217139e-09 0 0)
(1.468299614e-09 0 0)
(1.796342252e-09 0 0)
(1.966739809e-09 0 0)
(2.406040181e-09 0 0)
(2.624110273e-09 0 0)
(3.18556988e-09 0 0)
(3.498956553e-09 0 0)
(4.231381603e-09 0 0)
(4.684277988e-09 0 0)
(5.638213166e-09 0 0)
(6.178757973e-09 0 0)
(7.486679361e-09 0 0)
(8.077639531e-09 0 0)
(9.993266324e-09 0 0)
(1.076572615e-08 0 0)
(1.309923251e-08 0 0)
(1.453819203e-08 0 0)
(1.679357597e-08 0 0)
(1.957468985e-08 0 0)
(2.175506991e-08 0 0)
(2.598163549e-08 0 0)
(2.902937551e-08 0 0)
(3.338849539e-08 0 0)
(3.868834375e-08 0 0)
(4.311590874e-08 0 0)
(5.093585726e-08 0 0)
(5.590169972e-08 0 0)
(6.666844812e-08 0 0)
(7.274683524e-08 0 0)
(8.697751599e-08 0 0)
(9.465607668e-08 0 0)
(1.130168835e-07 0 0)
(1.227979476e-07 0 0)
(1.465357398e-07 0 0)
(1.591866741e-07 0 0)
(1.898793328e-07 0 0)
(2.061054996e-07 0 0)
(2.452124098e-07 0 0)
(2.659470776e-07 0 0)
(3.159640493e-07 0 0)
(3.42700524e-07 0 0)
(4.071106491e-07 0 0)
(4.411496616e-07 0 0)
(5.23054817e-07 0 0)
(5.657084983e-07 0 0)
(6.693699787e-07 0 0)
(7.240954621e-07 0 0)
(8.572791108e-07 0 0)
(9.284385799e-07 0 0)
(1.095336218e-06 0 0)
(1.183885166e-06 0 0)
(1.391967095e-06 0 0)
(1.503614103e-06 0 0)
(1.775528377e-06 0 0)
(1.913527961e-06 0 0)
(2.256552074e-06 0 0)
(2.427683337e-06 0 0)
(2.84506728e-06 0 0)
(3.074809988e-06 0 0)
(3.592009693e-06 0 0)
(3.892641192e-06 0 0)
(4.547947037e-06 0 0)
(4.88982146e-06 0 0)
(5.731893783e-06 0 0)
(6.115231516e-06 0 0)
(7.204684772e-06 0 0)
(7.732731892e-06 0 0)
(9.007981217e-06 0 0)
(9.896528043e-06 0 0)
(1.107127976e-05 0 0)
(1.251704862e-05 0 0)
(1.368542425e-05 0 0)
(1.57089634e-05 0 0)
(1.699385881e-05 0 0)
(1.960434429e-05 0 0)
(2.10645775e-05 0 0)
(2.43394649e-05 0 0)
(2.608723851e-05 0 0)
(3.027621498e-05 0 0)
(3.238997031e-05 0 0)
(3.747754305e-05 0 0)
(4.002676299e-05 0 0)
(4.610670906e-05 0 0)
(4.951579573e-05 0 0)
(5.685153433e-05 0 0)
(6.105016052e-05 0 0)
(7.013445669e-05 0 0)
(7.462201654e-05 0 0)
(8.62840172e-05 0 0)
(9.143842673e-05 0 0)
(0.000105415776 0 0)
(0.000113341576 0 0)
(0.000127659652 0 0)
(0.0001404851027 0 0)
(0.0001539861582 0 0)
(0.0001726261079 0 0)
(0.0001860960311 0 0)
(0.0002107564252 0 0)
(0.0002253869684 0 0)
(0.0002562152033 0 0)
(0.0002729355818 0 0)
(0.0003103343217 0 0)
(0.0003300678149 0 0)
(0.0003752981314 0 0)
(0.0003987952089 0 0)
(0.0004529980937 0 0)
(0.0004806029047 0 0)
(0.0005447708038 0 0)
(0.0005777396764 0 0)
(0.0006546988411 0 0)
(0.0006946971399 0 0)
(0.0007851773497 0 0)
(0.0008317837116 0 0)
(0.0009378817255 0 0)
(0.0009930085675 0 0)
(0.001122018452 0 0)
(0.001186073985 0 0)
(0.001336848916 0 0)
(0.001411498663 0 0)
(0.001585024114 0 0)
(0.00167952164 0 0)
(0.00188098165 0 0)
(0.001992218062 0 0)
(0.002230500213 0 0)
(0.002346987171 0 0)
(0.002640093402 0 0)
(0.00277473032 0 0)
(0.003103413454 0 0)
(0.003307701733 0 0)
(0.003615479202 0 0)
(0.003927864103 0 0)
(0.004215563829 0 0)
(0.004629611929 0 0)
(0.004915383783 0 0)
(0.005429406714 0 0)
(0.005733648567 0 0)
(0.006352140528 0 0)
(0.006684747897 0 0)
(0.007406290417 0 0)
(0.007778029683 0 0)
(0.00861401952 0 0)
(0.009042652839 0 0)
(0.0100014186 0 0)
(0.01049331028 0 0)
(0.01157721517 0 0)
(0.01213326081 0 0)
(0.01338743536 0 0)
(0.01401522583 0 0)
(0.01545373892 0 0)
(0.01615817081 0 0)
(0.01775782812 0 0)
(0.01859509175 0 0)
(0.0203900824 0 0)
(0.02135990784 0 0)
(0.02339204286 0 0)
(0.0244071217 0 0)
(0.0267768162 0 0)
(0.02793100997 0 0)
(0.03050530085 0 0)
(0.03214299342 0 0)
(0.03446109582 0 0)
(0.03684260136 0 0)
(0.03897386748 0 0)
(0.04199271995 0 0)
(0.04404764049 0 0)
(0.04758853587 0 0)
(0.04971451234 0 0)
(0.05391614316 0 0)
(0.05616169789 0 0)
(0.0608097308 0 0)
(0.06322285326 0 0)
(0.06840403237 0 0)
(0.07118036795 0 0)
(0.07694848316 0 0)
(0.07985869706 0 0)
(0.08621493627 0 0)
(0.08949926411 0 0)
(0.09633368661 0 0)
(0.1008464615 0 0)
(0.1068663973 0 0)
(0.1131049747 0 0)
(0.1185120808 0 0)
(0.1262392676 0 0)
(0.1314445415 0 0)
(0.1403269579 0 0)
(0.1455833345 0 0)
(0.1556413814 0 0)
(0.1611729903 0 0)
(0.1722195675 0 0)
(0.1779772424 0 0)
(0.1900560415 0 0)
(0.1962963652 0 0)
(0.209498899 0 0)
(0.2160664312 0 0)
(0.2300884261 0 0)
(0.2373399076 0 0)
(0.2526665052 0 0)
(0.2604638154 0 0)
(0.276443435 0 0)
(0.2852030412 0 0)
(0.3019246704 0 0)
(0.3134611847 0 0)
(0.3275247646 0 0)
(0.3430045179 0 0)
(0.355429931 0 0)
(0.373652811 0 0)
(0.3853687664 0 0)
(0.4057344966 0 0)
(0.4177518305 0 0)
(0.4397578067 0 0)
(0.4518352534 0 0)
(0.4755455615 0 0)
(0.4885444089 0 0)
(0.5131753396 0 0)
(0.5270974343 0 0)
(0.5523710849 0 0)
(0.5702780368 0 0)
(0.5918793262 0 0)
(0.6148084375 0 0)
(0.6334761529 0 0)
(0.6602617435 0 0)
(0.6774969739 0 0)
(0.7070660099 0 0)
(0.7240465026 0 0)
(0.7556584276 0 0)
(0.772821471 0 0)
(0.8061022991 0 0)
(0.8235290076 0 0)
(0.858270799 0 0)
(0.876138764 0 0)
(0.9123570454 0 0)
(0.9306569963 0 0)
(0.9679833557 0 0)
(0.9866329322 0 0)
(1.024820419 0 0)
(1.043820312 0 0)
(1.08287254 0 0)
(1.102310419 0 0)
(1.142329711 0 0)
(1.162267974 0 0)
(1.20326755 0 0)
(1.22364031 0 0)
(1.26543999 0 0)
(1.286057542 0 0)
(1.328300294 0 0)
(1.349017505 0 0)
(1.391387642 0 0)
(1.412320988 0 0)
(1.454376184 0 0)
(1.47603351 0 0)
(1.517306091 0 0)
(1.540403213 0 0)
(1.579836938 0 0)
(1.606189902 0 0)
(1.642130175 0 0)
(1.674138306 0 0)
(1.705718227 0 0)
(1.743281218 0 0)
(1.771368927 0 0)
(1.810904935 0 0)
(1.835510686 0 0)
(1.874595716 0 0)
(1.896701294 0 0)
(1.935568447 0 0)
(1.956273193 0 0)
(1.994906235 0 0)
(2.014931489 0 0)
(2.052814468 0 0)
(2.072774675 0 0)
(2.109648803 0 0)
(2.12989316 0 0)
(2.165273743 0 0)
(2.187175124 0 0)
(2.220813684 0 0)
(2.24737828 0 0)
(2.276414403 0 0)
(2.310217883 0 0)
(2.332293235 0 0)
(2.366536324 0 0)
(2.385504812 0 0)
(2.4193922 0 0)
(2.436491968 0 0)
(2.469656139 0 0)
(2.485830147 0 0)
(2.518146237 0 0)
(2.533756791 0 0)
(2.565233152 0 0)
(2.580368753 0 0)
(2.610875679 0 0)
(2.625472014 0 0)
(2.654805987 0 0)
(2.668779551 0 0)
(2.696775878 0 0)
(2.710070364 0 0)
(2.736657946 0 0)
(2.749260872 0 0)
(2.774464378 0 0)
(2.786401155 0 0)
(2.810298455 0 0)
(2.821606436 0 0)
(2.844264157 0 0)
(2.854966846 0 0)
(2.876408058 0 0)
(2.88651115 0 0)
(2.906732205 0 0)
(2.91623655 0 0)
(2.935240747 0 0)
(2.944154725 0 0)
(2.961969291 0 0)
(2.970311515 0 0)
(2.986982305 0 0)
(2.994777094 0 0)
(3.010354623 0 0)
(3.017626427 0 0)
(3.032156816 0 0)
(3.038927714 0 0)
(3.052453086 0 0)
(3.058743874 0 0)
(3.071308089 0 0)
(3.077140528 0 0)
(3.08879251 0 0)
(3.094189753 0 0)
(3.104979645 0 0)
(3.10996391 0 0)
(3.119934171 0 0)
(3.124523504 0 0)
(3.133702049 0 0)
(3.137908976 0 0)
(3.146310351 0 0)
(3.150143735 0 0)
(3.157778407 0 0)
(3.161247614 0 0)
(3.168133872 0 0)
(3.17125298 0 0)
(3.177424967 0 0)
(3.180214979 0 0)
(3.185723633 0 0)
(3.188211864 0 0)
(3.193119819 0 0)
(3.195337107 0 0)
(3.199710939 0 0)
(3.20168818 0 0)
(3.205591374 0 0)
(3.207356782 0 0)
(3.210845317 0 0)
(3.2124231 0 0)
(3.215543949 0 0)
(3.216954261 0 0)
(3.219746069 0 0)
(3.221005727 0 0)
(3.223500649 0 0)
(3.224624075 0 0)
(3.226849866 0 0)
(3.227849914 0 0)
(3.229831632 0 0)
(3.230720103 0 0)
(3.232480981 0 0)
(3.233268773 0 0)
(3.234830189 0 0)
(3.235527166 0 0)
(3.236908083 0 0)
(3.237522892 0 0)
(3.238739502 0 0)
(3.239279626 0 0)
(3.240345818 0 0)
(3.240817952 0 0)
(3.241746648 0 0)
(3.242157251 0 0)
(3.242961905 0 0)
(3.243317602 0 0)
(3.244012885 0 0)
(3.244320443 0 0)
(3.244921545 0 0)
(3.245187461 0 0)
(3.245708324 0 0)
(3.24593825 0 0)
(3.246389814 0 0)
(3.246588186 0 0)
(3.246977678 0 0)
(3.247147922 0 0)
(3.247479712 0 0)
(3.247624477 0 0)
(3.247902623 0 0)
(3.248024548 0 0)
(3.248254929 0 0)
(3.248357383 0 0)
(3.248548772 0 0)
(3.248636161 0 0)
(3.248800275 0 0)
(3.248877496 0 0)
(3.249026863 0 0)
(3.249098813 0 0)
(3.249243234 0 0)
(3.249314305 0 0)
(3.249459828 0 0)
(3.249531934 0 0)
(3.249679591 0 0)
(3.24975236 0 0)
(3.249903978 0 0)
(3.249976222 0 0)
(3.250117519 0 0)
(3.250184609 0 0)
(3.250315765 0 0)
(3.250376414 0 0)
(3.250492723 0 0)
(3.250544299 0 0)
(3.250642986 0 0)
(3.250685629 0 0)
(3.250766052 0 0)
(3.25080067 0 0)
(3.25086476 0 0)
(3.250892598 0 0)
(3.25094335 0 0)
(3.250965694 0 0)
(3.251006398 0 0)
(3.251024635 0 0)
(3.251058385 0 0)
(3.251073918 0 0)
(3.25110387 0 0)
(3.251118311 0 0)
(3.251146574 0 0)
(3.251160749 0 0)
(3.251188569 0 0)
(3.251202779 0 0)
(3.251229636 0 0)
(3.251243367 0 0)
(3.251266767 0 0)
(3.251279358 0 0)
(3.251296656 0 0)
(3.25130337 0 0)
(3.251304535 0 0)
(3.25130096 0 0)
(3.251292889 0 0)
(3.25127186 0 0)
(3.251252625 0 0)
(3.251205378 0 0)
(3.251174517 0 0)
(3.251103249 0 0)
(3.251061343 0 0)
(3.25097216 0 0)
(3.250919137 0 0)
(3.250823286 0 0)
(3.250750452 0 0)
(3.250671808 0 0)
(3.250589953 0 0)
(3.250529607 0 0)
(3.250456161 0 0)
(3.25040595 0 0)
(3.250352142 0 0)
(3.250309773 0 0)
(3.250281389 0 0)
(3.250265795 0 0)
(3.250261755 0 0)
(3.250262357 0 0)
(3.250272341 0 0)
(3.250289175 0 0)
(3.250323732 0 0)
(3.25035236 0 0)
(3.250410335 0 0)
(3.250446942 0 0)
(3.2505222 0 0)
(3.250564105 0 0)
(3.25065112 0 0)
(3.250696028 0 0)
(3.250788394 0 0)
(3.250833484 0 0)
(3.250923923 0 0)
(3.250967265 0 0)
(3.251049143 0 0)
(3.251088733 0 0)
(3.251158119 0 0)
(3.251192315 0 0)
(3.251245784 0 0)
(3.251273943 0 0)
(3.251310924 0 0)
(3.251333807 0 0)
(3.251351237 0 0)
(3.251360468 0 0)
(3.251362742 0 0)
(3.251360312 0 0)
(3.251353931 0 0)
(3.251345266 0 0)
(3.251326721 0 0)
(3.251311663 0 0)
(3.25127978 0 0)
(3.251259531 0 0)
(3.251215222 0 0)
(3.251190159 0 0)
(3.251133818 0 0)
(3.251104022 0 0)
(3.251036537 0 0)
(3.25100221 0 0)
(3.250925242 0 0)
(3.250886854 0 0)
(3.25080278 0 0)
(3.250761528 0 0)
(3.25067342 0 0)
(3.25063061 0 0)
(3.250542607 0 0)
(3.250499884 0 0)
(3.250417139 0 0)
(3.250377179 0 0)
(3.250304752 0 0)
(3.250270153 0 0)
(3.250212803 0 0)
(3.25018468 0 0)
(3.250146679 0 0)
(3.250128735 0 0)
(3.250119846 0 0)
(3.250119486 0 0)
(3.25012336 0 0)
(3.250133296 0 0)
(3.25015588 0 0)
(3.250176077 0 0)
(3.250218905 0 0)
(3.250246855 0 0)
(3.25030461 0 0)
(3.250339843 0 0)
(3.250407609 0 0)
(3.250452771 0 0)
(3.250522675 0 0)
(3.250585894 0 0)
(3.250632387 0 0)
(3.250700311 0 0)
(3.250736222 0 0)
(3.250799177 0 0)
(3.250828838 0 0)
(3.250882173 0 0)
(3.250906605 0 0)
(3.250947744 0 0)
(3.250966813 0 0)
(3.250995154 0 0)
(3.251008322 0 0)
(3.251018594 0 0)
(3.251021401 0 0)
(3.251020306 0 0)
(3.251013014 0 0)
(3.251006711 0 0)
(3.250990533 0 0)
(3.250979283 0 0)
(3.250952558 0 0)
(3.250936906 0 0)
(3.250900651 0 0)
(3.250881007 0 0)
(3.250836444 0 0)
(3.250813507 0 0)
(3.250764238 0 0)
(3.250738712 0 0)
(3.250688611 0 0)
(3.250657816 0 0)
(3.250606995 0 0)
(3.250565176 0 0)
(3.250528399 0 0)
(3.250482918 0 0)
(3.250453139 0 0)
(3.25041349 0 0)
(3.250388921 0 0)
(3.250358952 0 0)
(3.250338541 0 0)
(3.250324137 0 0)
(3.250316914 0 0)
(3.250315161 0 0)
(3.250317809 0 0)
(3.250327216 0 0)
(3.250339263 0 0)
(3.250364886 0 0)
(3.250384244 0 0)
(3.250424103 0 0)
(3.250448513 0 0)
(3.250499889 0 0)
(3.250528629 0 0)
(3.250589895 0 0)
(3.250621971 0 0)
(3.25068965 0 0)
(3.250723458 0 0)
(3.250794334 0 0)
(3.250828155 0 0)
(3.250897928 0 0)
(3.25093029 0 0)
(3.250995715 0 0)
(3.251025214 0 0)
(3.251083103 0 0)
(3.251108967 0 0)
(3.251157723 0 0)
(3.251180129 0 0)
(3.251219519 0 0)
(3.251238111 0 0)
(3.251265987 0 0)
(3.251279388 0 0)
(3.251295679 0 0)
(3.251306375 0 0)
(3.251316165 0 0)
(3.251322211 0 0)
(3.251325697 0 0)
(3.251326952 0 0)
(3.251326042 0 0)
(3.251323878 0 0)
(3.251319432 0 0)
(3.251314485 0 0)
(3.251307713 0 0)
(3.251301116 0 0)
(3.251294335 0 0)
(3.251286495 0 0)
(3.251281523 0 0)
(3.251274618 0 0)
(3.251270968 0 0)
(3.251265616 0 0)
(3.251263003 0 0)
(3.251259407 0 0)
(3.251257808 0 0)
(3.251257064 0 0)
(3.251256942 0 0)
(3.251257556 0 0)
(3.251258549 0 0)
(3.251261525 0 0)
(3.251264469 0 0)
(3.251267517 0 0)
(3.251272325 0 0)
(3.251275487 0 0)
(3.251281333 0 0)
(3.251284647 0 0)
(3.251290962 0 0)
(3.251294313 0 0)
(3.251300759 0 0)
(3.251304057 0 0)
(3.251310513 0 0)
(3.251313784 0 0)
(3.251320315 0 0)
(3.251323632 0 0)
(3.251330349 0 0)
(3.251333743 0 0)
(3.251340716 0 0)