/*--------------------------------*- C++ -*----------------------------------*\
| =========                 |                                                 |
| \\      /  F ield         | OpenFOAM: The Open Source CFD Toolbox           |
|  \\    /   O peration     | Version:  2012                                  |
|   \\  /    A nd           | Website:  www.openfoam.com                      |
|    \\/     M anipulation  |                                                 |
\*---------------------------------------------------------------------------*/
FoamFile
{
    version     2.0;
    format      ascii;
    class       surfaceScalarField;
    location    "0.3";
    object      alphaPhi0.water;
}
// * * * * * * * * * * * * * * * * * * * * * * * * * * * * * * * * * * * * * //

dimensions      [0 3 -1 0 0 0 0];
oriented        oriented;


internalField   nonuniform List<scalar> 
4432
(
-8.6808e-07
8.6808e-07
2.83725e-06
-3.70533e-06
8.95273e-06
-6.11549e-06
1.54679e-05
-6.51513e-06
2.13103e-05
-5.84241e-06
2.62329e-05
-4.92266e-06
3.03907e-05
-4.15781e-06
3.40306e-05
-3.63989e-06
3.73464e-05
-3.3158e-06
4.04315e-05
-3.08511e-06
4.32815e-05
-2.85e-06
4.58145e-05
-2.53294e-06
4.78885e-05
-2.07404e-06
4.92866e-05
-1.39809e-06
4.95436e-05
-2.56999e-07
4.77668e-05
1.77684e-06
4.26763e-05
5.09048e-06
3.28111e-05
9.8652e-06
1.77715e-05
1.50395e-05
3.72879e-08
1.77343e-05
-1.03942e-05
1.20007e-05
-1.33685e-05
2.74521e-06
-1.36492e-05
-7.86632e-07
1.65471e-06
2.9851e-06
-7.47706e-06
9.11942e-06
-1.22498e-05
1.56116e-05
-1.30073e-05
2.14237e-05
-1.16545e-05
2.63289e-05
-9.82792e-06
3.04919e-05
-8.32073e-06
3.41612e-05
-7.30921e-06
3.75252e-05
-6.67977e-06
4.06698e-05
-6.22977e-06
4.35853e-05
-5.7655e-06
4.61891e-05
-5.13676e-06
4.83437e-05
-4.22862e-06
4.98766e-05
-2.93099e-06
5.07766e-05
-1.15696e-06
5.11527e-05
1.40069e-06
5.09272e-05
5.31601e-06
4.88215e-05
1.19708e-05
4.17724e-05
2.20887e-05
2.68493e-05
3.26573e-05
6.17217e-06
3.31664e-05
-3.79128e-06
1.37205e-05
-1.99304e-05
-6.21316e-07
2.27603e-06
3.2246e-06
-1.1323e-05
9.35185e-06
-1.8377e-05
1.57498e-05
-1.94052e-05
2.14435e-05
-1.73482e-05
2.62579e-05
-1.46423e-05
3.03808e-05
-1.24436e-05
3.40617e-05
-1.09901e-05
3.74757e-05
-1.00938e-05
4.06928e-05
-9.44686e-06
4.36919e-05
-8.76465e-06
4.63866e-05
-7.83147e-06
4.86476e-05
-6.4896e-06
5.03205e-05
-4.60389e-06
5.11953e-05
-2.0318e-06
5.11301e-05
1.46596e-06
5.02128e-05
6.23328e-06
4.91384e-05
1.30453e-05
4.78946e-05
2.33325e-05
4.32597e-05
3.72922e-05
3.0596e-05
4.58301e-05
1.33638e-05
3.09507e-05
-6.57459e-06
-3.74272e-07
2.6503e-06
3.57682e-06
-1.52741e-05
9.68181e-06
-2.4482e-05
1.59399e-05
-2.56633e-05
2.14656e-05
-2.2874e-05
2.6159e-05
-1.93357e-05
3.0239e-05
-1.65237e-05
3.39505e-05
-1.47016e-05
3.74467e-05
-1.359e-05
4.07743e-05
-1.27744e-05
4.38968e-05
-1.18872e-05
4.67233e-05
-1.0658e-05
4.91283e-05
-8.89458e-06
5.09638e-05
-6.43939e-06
5.20614e-05
-3.12937e-06
5.2258e-05
1.26933e-06
5.14254e-05
7.0659e-06
4.98189e-05
1.46518e-05
4.8659e-05
2.44923e-05
4.80534e-05
3.78979e-05
4.22164e-05
5.16671e-05
2.50638e-05
4.81005e-05
1.82259e-05
-3.51506e-08
2.68545e-06
4.01788e-06
-1.93271e-05
1.00733e-05
-3.05374e-05
1.61448e-05
-3.17348e-05
2.14616e-05
-2.81908e-05
2.60154e-05
-2.38895e-05
3.0058e-05
-2.05662e-05
3.38216e-05
-1.84652e-05
3.74284e-05
-1.71968e-05
4.08959e-05
-1.62419e-05
4.41703e-05
-1.51617e-05
4.71564e-05
-1.3644e-05
4.97344e-05
-1.14726e-05
5.17703e-05
-8.47534e-06
5.31207e-05
-4.47977e-06
5.3657e-05
7.33054e-07
5.32856e-05
7.43733e-06
5.19583e-05
1.59791e-05
5.00278e-05
2.64228e-05
4.88366e-05
3.90891e-05
4.55968e-05
5.4907e-05
3.08387e-05
6.28585e-05
4.88007e-05
2.63771e-07
2.42168e-06
4.51982e-06
-2.35831e-05
1.0501e-05
-3.65186e-05
1.63423e-05
-3.75761e-05
2.14214e-05
-3.32699e-05
2.58316e-05
-2.82997e-05
2.98521e-05
-2.45868e-05
3.36918e-05
-2.23048e-05
3.74334e-05
-2.09384e-05
4.1062e-05
-1.98705e-05
4.45069e-05
-1.86066e-05
4.76707e-05
-1.68078e-05
5.04424e-05
-1.42443e-05
5.2703e-05
-1.07359e-05
5.43293e-05
-6.10614e-06
5.5213e-05
-1.50595e-07
5.52756e-05
7.37474e-06
5.44798e-05
1.67749e-05
5.26033e-05
2.82992e-05
5.01449e-05
4.15475e-05
4.65438e-05
5.85081e-05
3.34942e-05
7.59081e-05
8.20349e-05
6.4133e-07
1.78035e-06
5.07814e-06
-2.80199e-05
1.09488e-05
-4.23893e-05
1.65214e-05
-4.31488e-05
2.13483e-05
-3.80967e-05
2.56257e-05
-3.25771e-05
2.96485e-05
-2.86095e-05
3.35896e-05
-2.6246e-05
3.74864e-05
-2.48352e-05
4.12915e-05
-2.36756e-05
4.4921e-05
-2.22361e-05
4.82797e-05
-2.01665e-05
5.12673e-05
-1.72318e-05
5.37769e-05
-1.32455e-05
5.5698e-05
-8.02718e-06
5.69324e-05
-1.38504e-06
5.74083e-05
6.89883e-06
5.70974e-05
1.70858e-05
5.57622e-05
2.96345e-05
5.3025e-05
4.42848e-05
4.85254e-05
6.30077e-05
3.7573e-05
8.68604e-05
0.000119355
1.06194e-06
7.18414e-07
5.67417e-06
-3.26322e-05
1.13995e-05
-4.81146e-05
1.66849e-05
-4.84341e-05
2.12692e-05
-4.2681e-05
2.54417e-05
-3.67496e-05
2.9498e-05
-3.26658e-05
3.35661e-05
-3.0314e-05
3.76364e-05
-2.89055e-05
4.16333e-05
-2.76725e-05
4.54659e-05
-2.60687e-05
4.90455e-05
-2.3746e-05
5.22805e-05
-2.04669e-05
5.50688e-05
-1.60338e-05
5.73021e-05
-1.02605e-05
5.88865e-05
-2.96937e-06
5.97625e-05
6.02279e-06
5.98975e-05
1.69507e-05
5.91889e-05
3.03431e-05
5.71038e-05
4.63699e-05
5.24874e-05
6.7624e-05
4.1617e-05
9.77309e-05
0.000160723
3.63782e-13
-5.68267e-13
1.5213e-14
2.23503e-13
2.13793e-16
6.05892e-15
1.13355e-17
1.10148e-16
5.2443e-19
2.92897e-19
2.17993e-20
-6.0685e-21
1.08289e-21
-1.63265e-21
5.79193e-23
-1.1041e-22
3.16937e-24
-5.10278e-24
1.67278e-25
-1.66856e-25
8.31664e-27
-5.3629e-28
3.97031e-28
1.39593e-28
1.66748e-29
1.36108e-29
5.98168e-31
8.91786e-31
1.72207e-32
4.50745e-32
3.62299e-34
1.77108e-33
5.84594e-36
5.1065e-35
1.88807e-36
9.4987e-37
3.23817e-38
9.76069e-12
-1.13434e-11
6.33369e-13
7.5078e-12
1.08026e-14
3.32938e-13
6.4618e-17
1.03384e-14
1.29376e-17
3.94385e-17
8.62427e-19
-4.32958e-19
4.06329e-20
-1.13167e-19
2.37058e-21
-7.32798e-21
1.42852e-22
-3.27091e-22
8.29136e-24
-1.14912e-23
4.5453e-25
-1.80412e-25
2.40269e-26
1.99521e-26
1.14935e-27
2.62669e-27
4.74907e-29
2.07382e-28
1.59298e-30
1.24272e-29
3.94271e-32
5.76816e-31
6.10395e-34
1.96988e-32
6.69854e-36
4.4133e-34
4.87523e-36
1.68626e-10
-1.99764e-10
1.68822e-11
9.8399e-11
2.16832e-13
9.44234e-12
2.06269e-15
2.1194e-13
4.09294e-17
1.48453e-15
1.11411e-17
-1.18128e-17
8.2335e-19
-2.84719e-18
4.49116e-20
-1.74668e-19
2.79153e-21
-6.85159e-21
1.62052e-22
-2.42897e-22
8.51936e-24
-3.46733e-24
4.55944e-25
5.52414e-25
2.14361e-26
7.13355e-26
8.63329e-28
5.62535e-27
2.82283e-29
3.3309e-28
6.81097e-31
1.51879e-29
1.25855e-32
5.09109e-31
2.07139e-34
1.13351e-32
1.30455e-34
1.67422e-09
-2.08879e-09
2.53534e-10
6.93829e-10
2.33329e-12
1.69087e-10
2.37251e-14
2.37922e-12
2.55611e-16
1.91996e-14
6.42299e-17
-3.36494e-16
8.10097e-18
-2.96361e-17
6.08579e-19
-1.80229e-18
4.63453e-20
-1.44688e-19
6.15121e-21
-6.29738e-21
1.17468e-22
-2.78376e-22
6.19918e-24
1.47338e-23
3.1137e-25
1.32749e-24
1.20171e-26
1.05162e-25
3.883e-28
6.20661e-27
1.11473e-29
2.81273e-28
2.25465e-31
9.51035e-30
3.7153e-33
2.12196e-31
2.46279e-33
9.47817e-09
-1.35746e-08
2.04575e-09
9.55744e-10
1.21239e-11
1.0048e-09
1.47436e-13
1.32538e-11
1.22892e-15
1.25744e-13
5.07223e-16
-2.42436e-15
6.57681e-17
-2.05881e-16
1.20377e-17
3.3754e-17
1.89423e-18
-2.46779e-18
3.63257e-19
-4.02635e-19
9.09626e-21
-3.74577e-20
1.61728e-22
5.23402e-22
8.98834e-24
4.63479e-23
3.3771e-25
3.71708e-24
1.34734e-26
2.20412e-25
4.16118e-28
1.02445e-26
8.55096e-30
3.52279e-28
1.07379e-31
7.96138e-30
9.05475e-32
3.08638e-08
-6.44671e-08
6.67601e-09
-1.21467e-08
2.82371e-11
2.2293e-09
4.3896e-13
3.77244e-11
2.50263e-14
4.24358e-13
5.01863e-15
-4.42027e-15
1.97001e-15
-5.6734e-16
9.18184e-16
5.25542e-16
9.50212e-17
6.88108e-16
1.60432e-17
5.19454e-18
5.05352e-19
-1.83086e-18
8.19477e-21
2.95603e-20
4.87115e-22
2.78274e-21
1.79618e-23
2.2933e-22
7.76622e-25
1.38545e-23
2.66119e-26
6.6098e-25
5.80666e-28
2.33821e-26
6.77387e-30
5.41961e-28
6.247e-30
4.93374e-08
-1.41883e-07
1.62625e-10
-1.45977e-10
-3.3519e-11
1.38883e-09
4.06777e-13
5.74714e-12
1.91994e-13
6.23455e-13
1.37259e-13
-1.57144e-13
7.20263e-14
4.77395e-14
5.01274e-14
2.91463e-15
4.11522e-15
4.45082e-14
5.20581e-16
2.58224e-15
2.13472e-17
-4.3871e-17
3.83301e-19
1.48115e-18
2.29479e-20
1.46444e-19
9.58735e-22
1.24176e-20
4.4559e-23
7.76914e-22
1.5757e-24
3.8333e-23
3.54311e-26
1.39928e-24
4.29581e-28
3.34503e-26
4.05181e-28
-5.32755e-09
-5.09338e-08
-1.27364e-09
8.62109e-08
-3.03446e-11
3.18842e-11
2.43507e-12
-9.1318e-11
3.66799e-12
2.35158e-12
8.17737e-12
-4.67312e-12
2.63496e-12
5.00119e-12
1.76457e-12
2.14612e-13
1.36889e-13
1.53106e-12
1.51372e-14
1.03988e-13
6.64041e-16
3.18835e-15
1.45471e-17
8.00494e-17
8.80807e-19
6.42315e-18
4.3395e-20
5.39495e-19
2.10513e-21
3.52704e-20
7.69741e-23
1.81045e-21
1.78695e-24
6.8693e-23
2.30823e-26
1.70234e-24
2.17655e-26
3.66573e-06
-2.94732e-06
1.40148e-05
-4.29812e-05
2.57356e-05
-5.98354e-05
3.60595e-05
-5.87581e-05
4.51125e-05
-5.1734e-05
5.38011e-05
-4.54382e-05
6.26741e-05
-4.15389e-05
7.18144e-05
-3.94543e-05
8.10585e-05
-3.81496e-05
9.01816e-05
-3.67957e-05
9.89936e-05
-3.48808e-05
0.000107333
-3.20856e-05
0.000115025
-2.81588e-05
0.000121875
-2.28841e-05
0.000127709
-1.60941e-05
0.000132379
-7.63888e-06
0.000135778
2.62338e-06
0.000137756
1.49724e-05
0.000138401
2.96983e-05
0.000137668
4.7103e-05
0.000136538
6.87545e-05
0.000142022
9.22462e-05
0.000131076
0.000171158
5.70605e-06
-8.65337e-06
1.67098e-05
-5.39849e-05
2.75743e-05
-7.06998e-05
3.66909e-05
-6.78746e-05
4.50324e-05
-6.00756e-05
5.36852e-05
-5.40909e-05
6.29744e-05
-5.0828e-05
7.27078e-05
-4.91877e-05
8.25611e-05
-4.80028e-05
9.22677e-05
-4.65022e-05
0.000101674
-4.42866e-05
0.000110661
-4.10732e-05
0.000119129
-3.66263e-05
0.000126993
-3.07478e-05
0.000134239
-2.33409e-05
0.000141061
-1.44604e-05
0.000147186
-3.50186e-06
0.000152628
9.53062e-06
0.000157205
2.51214e-05
0.00016201
4.22982e-05
0.000170321
6.04429e-05
0.000185236
7.73312e-05
0.000100691
0.000215667
7.99897e-06
-1.66523e-05
1.92828e-05
-6.52687e-05
2.8797e-05
-8.02127e-05
3.66252e-05
-7.57017e-05
4.44468e-05
-6.78963e-05
5.31591e-05
-6.28024e-05
6.26672e-05
-6.03354e-05
7.25194e-05
-5.9039e-05
8.2351e-05
-5.78328e-05
9.19787e-05
-5.61274e-05
0.000101379
-5.36839e-05
0.000110526
-5.02178e-05
0.00011959
-4.56882e-05
0.000128751
-3.99054e-05
0.000137964
-3.25524e-05
0.000146768
-2.32636e-05
0.00015558
-1.23147e-05
0.000164808
3.25414e-07
0.000171372
1.85571e-05
0.000178357
3.53136e-05
0.000187932
5.08679e-05
0.000199636
6.56268e-05
7.91367e-05
0.00022119
1.09423e-05
-2.75946e-05
2.1941e-05
-7.62627e-05
2.91906e-05
-8.74448e-05
3.5429e-05
-8.19241e-05
4.28031e-05
-7.52568e-05
5.15247e-05
-7.15118e-05
6.09914e-05
-6.97866e-05
7.0688e-05
-6.87115e-05
8.0445e-05
-6.75543e-05
9.03996e-05
-6.60349e-05
0.000101121
-6.43507e-05
0.000112067
-6.11084e-05
0.000122638
-5.31867e-05
0.000131359
-4.20073e-05
0.000138255
-3.04565e-05
0.000143371
-1.94968e-05
0.000148635
-1.04568e-05
0.00015398
-2.38739e-06
0.000167069
6.45999e-06
0.000183298
1.83488e-05
0.000198302
3.58637e-05
0.000208476
5.54523e-05
6.55296e-05
0.000222084
1.55604e-05
-4.31503e-05
2.62577e-05
-8.68331e-05
2.96833e-05
-9.06573e-05
3.38802e-05
-8.59214e-05
4.13149e-05
-8.25048e-05
5.068e-05
-8.02191e-05
6.05943e-05
-7.51654e-05
6.94463e-05
-6.60361e-05
7.61773e-05
-5.44475e-05
7.93498e-05
-4.16546e-05
7.74617e-05
-2.80101e-05
6.67502e-05
-7.29382e-06
5.31502e-05
-1.35151e-06
4.071e-05
-2.48117e-07
2.98118e-05
-4.83324e-08
2.07929e-05
-1.01876e-08
1.53934e-05
-2.24648e-09
1.44059e-05
-1.97898e-10
2.17353e-05
5.05959e-07
4.01209e-05
8.32146e-07
7.3893e-05
8.33548e-07
0.000123029
2.10918e-06
8.89236e-06
0.000176111
2.2526e-05
-6.05631e-05
2.55733e-05
-4.87545e-05
2.42327e-05
-3.26383e-05
2.57959e-05
-3.12017e-05
2.88653e-05
-2.76354e-05
3.03157e-05
-1.77083e-05
2.79091e-05
-1.21885e-06
2.32015e-05
-1.00257e-07
1.71467e-05
-8.94928e-09
1.03002e-05
-8.89477e-10
8.9512e-06
-1.01282e-10
1.65741e-06
-1.21193e-11
3.06037e-07
-3.23364e-11
5.97409e-08
-1.54685e-09
1.38221e-08
-2.268e-09
6.73284e-09
-2.87086e-09
6.11454e-09
-1.92692e-09
5.84717e-09
-2.28735e-10
4.98381e-07
1.43873e-08
1.26444e-06
6.47668e-08
1.98391e-06
1.12984e-07
3.87475e-06
1.833e-07
3.19918e-07
1.19938e-05
1.25567e-05
7.49699e-25
2.25615e-06
-2.25888e-23
2.42818e-06
-1.82374e-21
2.4792e-06
-1.4384e-19
2.33201e-06
-8.07775e-18
1.32906e-06
-1.04894e-16
1.10209e-07
-5.64194e-16
9.95228e-09
-1.65895e-15
1.00301e-09
-2.45137e-15
1.13531e-10
-9.08635e-16
1.42342e-11
-2.28381e-12
2.1594e-12
-3.3361e-13
9.0997e-12
-1.84315e-11
3.88502e-10
-1.81731e-09
2.61381e-09
-4.21937e-09
5.98203e-09
-6.0935e-09
7.93972e-09
-4.24347e-09
7.39886e-09
3.83943e-11
1.79065e-08
3.12361e-09
6.48137e-08
1.52789e-08
1.50197e-07
2.46631e-08
3.27202e-07
2.05091e-08
9.09411e-08
6.21254e-07
-9.63642e-26
3.89569e-24
5.15837e-25
-2.3201e-23
7.17041e-23
-1.87729e-21
6.83615e-21
-1.48732e-19
4.00969e-19
-8.30311e-18
5.62626e-18
-1.00853e-16
3.37401e-17
-4.69597e-16
1.2742e-16
-9.32269e-16
3.29904e-16
-8.91329e-16
5.04201e-16
-6.47368e-16
2.97176e-13
-2.58113e-12
5.23518e-13
-7.84006e-13
1.17493e-10
-1.35704e-10
4.14311e-09
-5.75262e-09
3.7593e-08
-4.0458e-08
7.76664e-08
-5.89905e-08
5.49053e-08
-2.96363e-08
1.84962e-08
3.87103e-09
1.12246e-08
4.68457e-09
1.32929e-08
5.79722e-09
2.27206e-08
9.35845e-09
5.07363e-08
9.94881e-09
2.49115e-09
1.53177e-07
-1.07187e-24
2.3762e-24
2.89979e-25
-9.9328e-23
4.80762e-22
-8.17581e-21
6.3597e-20
-5.23329e-19
3.97669e-18
-2.68236e-17
5.62578e-17
-3.73854e-16
3.36873e-16
-2.19374e-15
6.35538e-16
-3.61347e-15
6.66667e-16
-2.28778e-15
1.23534e-15
-9.88949e-16
3.29327e-12
-5.85862e-12
6.28962e-12
-3.90798e-12
1.06418e-09
-1.19476e-09
6.31099e-08
-6.01901e-08
1.22686e-07
-1.08025e-07
1.19373e-07
-6.4601e-08
1.1187e-07
-2.7084e-08
2.75576e-08
5.51049e-09
1.62302e-08
8.59857e-09
1.1623e-08
6.51987e-09
1.27723e-08
4.87295e-09
1.80783e-08
1.52363e-09
-1.56962e-08
7.13541e-07
-3.17229e-24
6.66123e-25
1.78304e-23
-2.2023e-22
3.95769e-21
-2.49061e-20
6.01522e-19
-2.97573e-18
4.0291e-17
-1.63357e-16
4.8636e-16
-1.683e-15
1.56702e-15
-4.67765e-15
1.97021e-15
-5.50548e-15
2.37227e-15
-4.66972e-15
3.72375e-15
-2.3979e-15
2.4758e-11
-1.2658e-10
3.28006e-11
-1.2435e-11
9.38912e-09
-1.05671e-08
6.52135e-08
-1.01373e-07
7.94564e-08
-1.12955e-07
5.7919e-08
-4.30362e-08
1.00285e-08
-8.38597e-09
9.39878e-09
1.81341e-09
1.10454e-08
5.21843e-09
1.11128e-08
3.58444e-09
3.03885e-07
2.11036e-08
3.92201e-07
-1.01702e-08
-8.80027e-09
4.43353e-07
-3.44264e-26
-1.94016e-24
3.93359e-23
-2.3511e-22
7.45768e-21
-3.07276e-20
1.55148e-18
-5.29335e-18
1.05649e-16
-3.00722e-16
9.44692e-16
-2.56222e-15
1.83083e-15
-5.27224e-15
2.1516e-15
-6.11057e-15
4.03947e-15
-9.71168e-15
9.76602e-15
-8.41639e-15
7.40959e-11
-1.41063e-10
9.0242e-11
-3.02306e-11
1.56285e-08
-2.81005e-11
2.76209e-08
-1.04052e-07
2.66085e-08
-9.4961e-08
2.84118e-09
-5.15373e-08
4.33419e-09
-5.59552e-08
6.41261e-09
-1.16036e-08
1.46287e-08
1.27049e-09
2.00898e-07
7.47747e-09
2.78509e-07
-5.47892e-09
1.78394e-07
-1.48687e-08
-3.75054e-09
1.59869e-08
1.43796e-25
-2.21841e-24
4.08522e-23
-2.17312e-22
7.88357e-21
-3.07502e-20
2.00525e-18
-6.16223e-18
1.35968e-16
-3.54185e-16
1.0192e-15
-2.67469e-15
1.73552e-15
-5.31083e-15
2.08527e-15
-6.23603e-15
6.86282e-15
-1.81623e-14
3.71117e-14
-1.249e-14
3.00119e-11
-1.02862e-10
1.00718e-11
-2.54893e-11
3.44618e-12
-3.43406e-11
7.40187e-09
-3.84431e-12
6.56213e-09
-5.76493e-08
1.45917e-08
-1.19448e-07
3.85162e-08
-5.76203e-08
8.13795e-08
-4.94247e-08
1.09019e-07
-1.26307e-08
1.59663e-07
-1.70077e-09
2.42923e-08
-1.73274e-09
4.60203e-09
-1.24485e-10
-3.48876e-11
8.96268e-10
1.61611e-25
-1.86116e-24
2.94747e-23
-1.1395e-22
6.67063e-21
-1.91013e-20
2.05602e-18
-6.0859e-18
1.37461e-16
-3.48963e-16
9.24861e-16
-2.2702e-15
1.54774e-15
-4.05483e-15
2.08476e-15
-5.75609e-15
9.90674e-15
-2.41581e-14
4.58342e-14
-4.08827e-14
1.53999e-11
-5.08126e-14
-1.05235e-12
-4.13619e-14
4.60446e-12
-6.84387e-11
1.4114e-13
-3.94551e-12
1.44098e-09
-3.71439e-13
6.0454e-09
-9.76571e-15
1.11739e-08
-2.98786e-16
2.42152e-08
-1.17049e-16
1.00289e-08
-6.153e-16
1.90232e-09
-2.06746e-15
1.65996e-10
-7.0374e-15
4.06392e-11
-6.04809e-15
-8.0703e-15
5.84373e-12
8.84087e-26
-5.7761e-25
1.19609e-23
-3.31345e-23
3.06963e-21
-5.91978e-21
1.63179e-18
-3.59701e-18
1.05498e-16
-1.9846e-16
5.6364e-16
-1.04558e-15
1.03286e-15
-2.01461e-15
1.94758e-15
-4.06824e-15
9.43013e-15
-2.41419e-14
1.09691e-14
-6.69308e-14
7.25863e-15
-6.00303e-14
6.93415e-15
-4.02953e-14
1.35073e-11
-3.39852e-14
3.79755e-13
-2.07599e-14
9.97184e-15
-1.8832e-15
3.01713e-16
-1.48545e-16
3.10285e-17
-5.94347e-17
3.69967e-17
-1.25544e-16
1.01526e-16
-2.12528e-16
2.54491e-16
-4.83536e-16
1.0013e-15
-1.17771e-15
2.70029e-15
-2.35417e-15
-3.93399e-15
4.76853e-15
1.66981e-26
9.93288e-26
2.92446e-24
-5.72635e-24
8.03161e-22
-1.22912e-21
7.18267e-19
-1.14953e-18
4.37622e-17
-5.91897e-17
2.16399e-16
-3.08961e-16
4.76469e-16
-7.3628e-16
1.41991e-15
-2.40162e-15
6.52485e-15
-1.41105e-14
2.00492e-14
-5.51076e-14
9.43901e-15
-6.65834e-14
1.04898e-14
-7.32746e-14
9.28502e-15
-6.83983e-14
8.49581e-16
-1.25516e-14
1.06184e-16
-1.19276e-15
3.0586e-17
-1.14004e-16
3.14624e-17
-7.53433e-17
6.15211e-17
-2.81808e-16
1.88763e-16
-8.14156e-16
6.30967e-16
-2.15184e-15
3.27087e-15
-5.21748e-15
6.48427e-15
-6.49701e-15
-9.97536e-15
1.48517e-14
-4.92416e-27
2.68206e-25
4.39275e-25
-3.59967e-25
1.60499e-22
-3.45852e-22
1.93319e-19
-2.45279e-19
1.10084e-17
-1.1357e-17
5.86878e-17
-6.3465e-17
1.70103e-16
-2.2272e-16
8.06708e-16
-1.26003e-15
4.98307e-15
-4.88066e-15
2.00829e-14
-2.81627e-14
2.08951e-14
-6.44551e-14
2.35785e-14
-6.15059e-14
6.6604e-15
-4.24455e-14
1.33159e-15
-1.13692e-14
1.46649e-16
-1.02553e-15
3.81315e-17
-6.83578e-17
4.41837e-17
-6.38792e-17
3.33659e-16
-2.07706e-16
1.19695e-15
-4.92065e-16
3.82606e-15
-1.05954e-15
8.95914e-15
-3.44423e-15
1.26593e-14
-5.23741e-15
-1.5057e-14
2.93618e-14
-1.16343e-26
3.42636e-25
2.78317e-26
2.69345e-25
4.98908e-23
-2.02438e-22
3.6707e-20
-3.98448e-20
1.88077e-18
-1.44769e-18
1.14795e-17
-9.17995e-18
5.17098e-17
-6.14568e-17
3.73881e-16
-5.53382e-16
1.48299e-15
-1.71658e-15
8.24988e-15
-4.34848e-15
1.94287e-14
-2.56754e-14
2.07495e-14
-3.04077e-14
1.03978e-14
-1.77748e-14
1.37129e-15
-4.26029e-15
6.83227e-17
-3.27514e-16
1.66192e-17
-1.60001e-17
3.22847e-17
-6.88562e-18
1.44534e-16
-2.81689e-17
4.04278e-16
-1.39623e-16
1.18486e-15
-5.7943e-16
4.24039e-15
-1.96584e-15
8.20126e-15
-3.72258e-15
-2.5575e-14
4.25042e-14
-1.32219e-26
3.21825e-25
-1.63766e-26
3.61382e-25
2.84461e-23
-1.13129e-22
5.43967e-21
-5.75442e-21
2.18016e-19
-1.17671e-19
1.60855e-18
-9.79767e-19
1.44997e-17
-1.75272e-17
1.43457e-16
-1.8825e-16
4.31226e-16
-6.03036e-16
1.10034e-15
-1.01206e-15
5.31196e-15
-2.51426e-15
5.83468e-15
-2.87869e-15
2.27031e-15
-1.62005e-15
2.70098e-16
-3.55933e-16
1.55977e-17
-2.43957e-17
1.74394e-18
-1.43201e-18
2.77149e-18
-1.40522e-18
2.02194e-17
-9.60508e-18
1.33013e-16
-7.12379e-17
6.92322e-16
-3.98807e-16
2.52496e-15
-1.58542e-15
6.41441e-15
-3.63212e-15
-3.70982e-14
6.49452e-14
-1.12158e-26
2.31461e-25
-2.06447e-26
3.38606e-25
1.32418e-23
-2.87337e-23
7.15162e-22
-7.34652e-22
1.6346e-20
-5.7801e-21
1.69979e-19
-1.14443e-19
4.09673e-18
-5.07886e-18
4.4294e-17
-5.07891e-17
1.31098e-16
-1.85234e-16
2.31678e-16
-3.50337e-16
4.63105e-16
-5.62417e-16
5.10954e-16
-4.68941e-16
1.86732e-16
-1.88554e-16
1.95784e-17
-2.8853e-17
1.31834e-18
-2.06107e-18
2.95398e-19
-2.37489e-19
6.57782e-19
-4.36076e-19
7.6908e-18
-4.30175e-18
7.06563e-17
-4.2721e-17
4.61612e-16
-2.95032e-16
1.98585e-15
-1.36677e-15
6.11257e-15
-3.7153e-15
-4.25587e-14
7.46193e-14
-7.37646e-27
1.218e-25
-1.8194e-26
2.31652e-25
2.62811e-24
-2.14278e-24
7.92004e-23
-4.71924e-23
7.34792e-22
-1.50905e-22
2.04154e-20
-2.13234e-20
1.10917e-18
-1.19975e-18
1.1174e-17
-1.22563e-17
3.92825e-17
-4.88475e-17
7.62564e-17
-1.0025e-16
1.07441e-16
-2.29386e-16
8.00504e-17
-1.8705e-16
1.84407e-17
-6.90851e-17
1.29887e-18
-7.92219e-18
9.61377e-20
-4.293e-19
7.25162e-20
-8.66843e-20
2.33653e-19
-1.86043e-19
3.45937e-18
-2.1911e-18
4.05356e-17
-2.61394e-17
3.16981e-16
-2.12892e-16
1.58174e-15
-1.12548e-15
5.71614e-15
-3.67961e-15
-4.25024e-14
7.05713e-14
-3.58156e-27
4.22425e-26
-1.17099e-26
9.99542e-26
1.80446e-25
7.85282e-27
4.09906e-24
-1.49811e-28
1.62424e-23
-4.40721e-25
3.6917e-21
-3.05208e-21
2.36068e-19
-1.87301e-19
2.52822e-18
-2.4931e-18
9.7815e-18
-1.11827e-17
2.14469e-17
-2.2671e-17
4.14817e-17
-5.09887e-17
3.08558e-17
-4.19717e-17
6.12508e-18
-1.56992e-17
3.18558e-19
-1.77764e-18
2.81447e-20
-8.49305e-20
2.5785e-20
-2.37653e-20
9.9948e-20
-7.41747e-20
1.65765e-18
-1.04533e-18
2.26699e-17
-1.46239e-17
2.05623e-16
-1.40432e-16
1.16874e-15
-8.28265e-16
4.90271e-15
-3.48551e-15
-3.27446e-14
4.95763e-14
-1.15255e-27
8.18328e-27
-4.75059e-27
2.02617e-26
-5.6392e-28
1.45242e-27
6.90132e-28
7.32041e-31
5.41965e-26
-2.6357e-26
4.69754e-22
-1.23769e-22
3.31667e-20
-1.58323e-20
4.77481e-19
-3.4425e-19
2.05183e-18
-1.91038e-18
4.3531e-18
-4.0735e-18
7.71124e-18
-5.1331e-18
5.77446e-18
-3.38764e-18
1.20303e-18
-1.26693e-18
6.98319e-20
-2.12355e-19
6.45383e-21
-1.27251e-20
6.27587e-21
-5.8232e-21
3.94461e-20
-2.69543e-20
7.15671e-19
-4.44557e-19
1.12912e-17
-7.19386e-18
1.19674e-16
-8.17734e-17
7.68891e-16
-5.68587e-16
3.95116e-15
-2.71194e-15
-2.61619e-14
3.09528e-14
-2.07771e-28
8.37158e-28
-9.04209e-28
2.54608e-27
-9.79446e-29
1.66118e-28
-6.57757e-32
4.64027e-30
3.06681e-27
-4.45506e-28
1.6891e-23
-1.10718e-25
2.545e-21
-4.18871e-22
6.06965e-20
-2.35337e-20
3.21356e-19
-1.82472e-19
6.00209e-19
-4.91384e-19
7.01192e-19
-4.96175e-19
3.63645e-19
-3.80253e-19
9.49099e-20
-1.82326e-19
8.45087e-21
-3.4174e-20
1.29066e-21
-1.70333e-21
1.42865e-21
-9.82554e-22
1.36901e-20
-8.88684e-21
2.72404e-19
-1.67331e-19
4.89488e-18
-3.04971e-18
6.12178e-17
-4.15665e-17
4.65156e-16
-3.48999e-16
2.58431e-15
-1.97643e-15
-1.99669e-14
2.04944e-14
-1.97933e-29
1.90325e-45
-1.06464e-28
2.48635e-42
-1.04935e-29
-2.4877e-38
-3.90682e-31
-3.64746e-32
4.77488e-29
-2.9895e-30
1.39473e-26
-2.03019e-28
6.19159e-23
-7.78314e-25
3.84308e-21
-5.44257e-22
2.89939e-20
-6.11019e-21
5.60297e-20
-1.80859e-20
6.19857e-20
-2.36033e-20
4.24229e-20
-1.4172e-20
1.50752e-20
-6.3157e-21
1.27836e-21
-1.37198e-21
1.56474e-22
-1.17767e-22
2.5467e-22
-1.75693e-22
4.2701e-21
-2.70302e-21
9.10777e-20
-5.55573e-20
1.8173e-18
-1.10921e-18
2.72123e-17
-1.83467e-17
2.5024e-16
-1.90049e-16
1.6777e-15
-1.38139e-15
-1.58814e-14
1.36907e-14
-4.18744e-47
1.89455e-45
-9.71413e-44
1.93161e-42
2.91599e-39
1.28823e-41
5.61874e-33
-1.42039e-34
2.89336e-31
-1.03486e-32
2.37933e-29
-6.70825e-31
1.07169e-25
-2.27105e-27
8.28201e-23
-2.07086e-24
8.93806e-22
-2.47169e-23
2.2006e-21
-7.02331e-23
2.64738e-21
-9.5386e-23
1.20199e-21
-8.27115e-23
4.3559e-22
-3.94897e-23
5.4411e-23
-1.01861e-23
1.95969e-23
-7.7583e-24
4.80672e-23
-3.46827e-23
1.18387e-21
-7.43775e-22
2.66757e-20
-1.62269e-20
5.78103e-19
-3.53034e-19
1.04801e-17
-7.11533e-18
1.19889e-16
-9.35798e-17
1.05579e-15
-9.8309e-16
-1.36072e-14
9.80805e-15
-3.87068e-47
1.57281e-45
-7.02574e-44
9.19688e-43
-7.06876e-43
2.1919e-41
1.03274e-35
-4.15352e-38
9.33236e-34
-4.58762e-36
7.3039e-32
-2.65351e-34
2.9071e-28
-2.98724e-30
2.90948e-25
-7.40249e-27
3.29423e-24
-1.60803e-25
7.95948e-24
-7.11109e-25
9.76027e-24
-1.44559e-24
8.1691e-24
-1.81619e-24
2.72818e-24
-1.57767e-24
1.12634e-24
-8.3658e-25
1.21266e-24
-9.89785e-25
1.13042e-23
-8.05952e-24
2.90672e-22
-1.84088e-22
6.86853e-21
-4.36933e-21
1.61822e-19
-1.05422e-19
3.55678e-18
-2.54676e-18
5.22788e-17
-4.38291e-17
6.8236e-16
-7.32354e-16
-1.17349e-14
7.22919e-15
-2.97302e-47
1.24517e-45
-3.10042e-44
2.62277e-43
-1.11386e-42
2.46333e-41
2.72667e-39
1.13124e-39
3.79798e-37
3.77668e-38
2.66051e-35
6.54792e-37
3.53283e-31
-3.41376e-35
9.78522e-28
-8.59591e-32
2.14169e-26
-2.10792e-28
8.73831e-26
-5.17919e-27
1.59624e-25
-2.25659e-26
1.89131e-25
-4.0709e-26
1.59428e-25
-4.17945e-26
1.05939e-25
-3.07493e-26
1.62404e-25
-6.61299e-26
2.46086e-24
-1.44916e-24
6.35316e-23
-4.19066e-23
1.64058e-21
-1.1649e-21
4.292e-20
-3.23553e-20
1.12122e-18
-9.08224e-19
2.16888e-17
-2.04339e-17
4.53516e-16
-5.69006e-16
-9.85409e-15
5.52372e-15
-2.16733e-47
9.90609e-46
-8.15449e-45
2.13738e-43
-1.15361e-42
2.10099e-41
-7.05583e-41
1.26198e-39
-2.93995e-39
5.03793e-38
-6.1082e-38
1.34482e-36
1.4308e-36
2.19784e-35
1.06518e-32
9.4785e-35
2.88342e-29
-3.87141e-31
7.03553e-28
-2.47211e-29
2.69463e-27
-1.28924e-28
3.87676e-27
-2.19799e-28
4.25872e-27
-1.78815e-28
3.39654e-27
-3.35678e-28
1.27913e-26
-6.99897e-27
4.02706e-25
-2.62301e-25
1.28195e-23
-9.2372e-24
3.88874e-22
-3.18084e-22
1.17215e-20
-1.05993e-20
3.5169e-19
-3.35844e-19
8.82878e-18
-9.50655e-18
3.04727e-16
-4.46609e-16
-8.32848e-15
4.30686e-15
-1.57927e-47
5.31198e-46
-6.09742e-45
1.17348e-43
-9.01979e-43
1.20441e-41
-7.21173e-41
7.58687e-40
-3.5909e-39
3.20744e-38
-1.1477e-37
9.25949e-37
-2.18311e-36
1.76327e-35
-1.07324e-35
1.80096e-34
4.89734e-32
-2.95945e-33
3.13114e-30
-1.80476e-32
1.36522e-29
-3.53859e-33
1.84593e-29
-8.92599e-33
1.61982e-29
-4.42755e-31
4.96453e-29
-2.31713e-29
1.57755e-27
-1.13165e-27
6.54813e-26
-4.87913e-26
2.50758e-24
-2.16344e-24
9.3899e-23
-9.1912e-23
3.36637e-21
-3.60497e-21
1.12081e-19
-1.23575e-19
3.47551e-18
-4.17573e-18
1.98108e-16
-3.279e-16
-6.7633e-15
3.2405e-15
-7.71652e-48
1.44966e-46
-3.05737e-45
3.27285e-44
-4.71585e-43
3.50349e-42
-3.95057e-41
2.31406e-40
-2.08116e-39
1.03931e-38
-7.18525e-38
3.28512e-37
-1.59027e-36
7.26096e-36
-1.84826e-35
1.06324e-34
2.41166e-34
8.79871e-34
1.00052e-33
2.31812e-33
2.24583e-34
3.03033e-34
1.16198e-33
-9.24923e-34
7.52418e-32
-6.04874e-32
4.31616e-30
-3.26324e-30
2.31959e-28
-1.74457e-28
1.07516e-26
-9.41156e-27
5.15797e-25
-5.18674e-25
2.34948e-23
-2.63124e-23
9.72955e-22
-1.1762e-21
3.43331e-20
-4.22843e-20
1.23584e-18
-1.58904e-18
1.13193e-16
-2.01836e-16
-4.66595e-15
2.07956e-15
-1.91334e-48
1.06227e-60
-7.76046e-46
1.02905e-57
-1.24531e-43
8.5667e-56
-1.09219e-41
6.46291e-55
-6.10363e-40
-6.26599e-53
-2.30366e-38
-9.3261e-51
-5.9069e-37
-2.42953e-48
-9.82122e-36
-9.34946e-46
-9.07445e-35
-8.51934e-44
-2.63296e-34
-9.35886e-42
-3.74667e-35
-6.08111e-37
1.73344e-34
-8.19165e-35
9.43298e-33
-5.6078e-33
5.43394e-31
-3.80728e-31
3.10873e-29
-2.66168e-29
1.79658e-27
-1.72517e-27
1.05503e-25
-1.14845e-25
5.62185e-24
-6.7318e-24
2.59538e-22
-3.36659e-22
9.41934e-21
-1.26984e-20
3.62895e-19
-4.9003e-19
5.08798e-17
-9.70573e-17
-2.6487e-15
1.03212e-15
-1.2733e-62
3.09758e-60
-2.2155e-59
1.35287e-57
-2.75291e-57
1.19049e-55
-2.7511e-56
1.14413e-54
6.60048e-54
-9.41815e-55
1.25844e-51
-1.1729e-51
3.50443e-49
-5.69432e-50
1.52027e-46
-2.73322e-47
1.54988e-44
-1.67163e-44
1.87059e-42
-1.14339e-42
1.30781e-37
-4.08952e-38
1.02072e-35
-5.93853e-36
7.48944e-34
-5.13496e-34
5.43667e-32
-4.03836e-32
4.05888e-30
-3.48925e-30
2.78404e-28
-2.87881e-28
1.93908e-26
-2.29354e-26
1.16521e-24
-1.48986e-24
5.87914e-23
-8.27829e-23
2.19448e-21
-3.40261e-21
8.30039e-20
-1.26279e-19
1.70506e-17
-3.66369e-17
-1.26504e-15
4.03242e-16
-3.38258e-62
3.89952e-60
-2.63956e-59
1.39837e-57
-3.44418e-57
1.30616e-55
-4.36988e-56
1.35875e-54
9.32317e-56
1.21151e-55
6.71937e-53
4.98012e-54
3.82327e-51
-4.55717e-51
2.24046e-48
-5.55383e-48
1.55092e-45
-3.27e-45
1.06046e-43
-4.01731e-44
4.07294e-39
-2.12323e-39
6.38345e-37
-3.30568e-37
5.91292e-35
-4.00416e-35
4.92726e-33
-4.06512e-33
4.47387e-31
-4.23541e-31
3.85809e-29
-4.38626e-29
3.1337e-27
-3.79446e-27
2.03164e-25
-2.6708e-25
1.10865e-23
-1.67548e-23
4.38381e-22
-7.95093e-22
1.52077e-20
-3.02716e-20
4.17732e-18
-1.12003e-17
-4.95624e-16
1.16619e-16
-3.89199e-62
2.70948e-60
-2.46386e-59
1.01202e-57
-3.38344e-57
1.00901e-55
-4.62689e-56
1.14579e-54
-5.09282e-57
2.15109e-55
-2.48093e-55
8.40029e-53
2.70273e-52
3.59115e-53
4.09611e-49
-4.58434e-49
2.51164e-46
-1.43938e-46
3.73267e-45
-1.52044e-44
1.84058e-40
-8.8603e-41
3.04573e-38
-1.80951e-38
3.91817e-36
-2.82046e-36
4.17609e-34
-3.52875e-34
4.51952e-32
-4.77965e-32
4.75457e-30
-5.21307e-30
4.07682e-28
-4.99319e-28
2.79737e-26
-4.19873e-26
1.65604e-24
-2.84031e-24
7.16082e-23
-1.51241e-22
2.36807e-21
-6.3357e-21
7.08908e-19
-2.76911e-18
-1.51599e-16
1.95657e-17
-2.4736e-62
9.83281e-61
-1.59894e-59
3.84964e-58
-2.32072e-57
4.1189e-56
-3.44777e-56
5.16772e-55
-7.96438e-57
1.06941e-55
-3.67528e-54
4.59607e-53
-1.80272e-54
4.30166e-53
2.67676e-50
-1.97577e-52
9.0786e-48
-1.06075e-48
1.26959e-45
-1.04549e-45
6.53513e-42
-2.45274e-42
1.4209e-39
-8.65642e-40
2.31029e-37
-1.41016e-37
2.9993e-35
-2.51836e-35
4.13137e-33
-3.73892e-33
4.45585e-31
-4.72468e-31
4.13754e-29
-5.42523e-29
3.25068e-27
-4.56128e-27
1.96095e-25
-3.66892e-25
8.64215e-24
-2.27654e-23
2.65993e-22
-1.13521e-21
5.92004e-20
-5.79908e-19
-3.69406e-17
-1.01314e-18
-8.17196e-63
1.83502e-84
-5.38822e-60
9.22039e-81
-8.30664e-58
1.61032e-77
-1.35677e-56
-5.8901e-68
-3.44414e-57
-7.67224e-64
-1.74484e-54
-4.03646e-64
-1.86924e-54
-6.988e-58
1.51985e-53
-1.05907e-52
5.93907e-50
-9.71271e-50
6.36585e-47
-6.83346e-47
1.53544e-43
-7.67488e-44
5.67659e-41
-2.12987e-41
9.54445e-39
-5.17326e-39
1.74206e-36
-1.15404e-36
2.55924e-34
-1.81929e-34
3.13967e-32
-2.93895e-32
3.36428e-30
-3.52216e-30
2.49199e-28
-3.39203e-28
1.63519e-26
-3.08355e-26
6.99494e-25
-2.4789e-24
1.47578e-23
-2.6103e-22
-3.1476e-20
-9.67412e-20
-7.39406e-18
-2.54019e-18
-1.37491e-86
1.91501e-84
-1.12288e-82
1.12578e-80
-2.7972e-79
2.10532e-77
1.28845e-69
-3.09754e-68
2.11323e-65
-4.00244e-64
1.30819e-65
-2.50732e-64
5.17633e-59
-4.43609e-58
5.97502e-54
-7.18383e-55
4.62395e-51
-1.29628e-51
3.42884e-48
-3.93558e-50
4.01234e-45
-6.80303e-46
1.15431e-42
-3.53686e-43
2.87468e-40
-9.98737e-41
6.41877e-38
-2.55443e-38
9.85444e-36
-5.30947e-36
1.49824e-33
-8.34184e-34
1.59988e-31
-1.15489e-31
1.27271e-29
-1.46694e-29
8.13638e-28
-1.84681e-27
2.77569e-26
-2.00163e-25
-8.39927e-24
-7.23239e-23
-1.88409e-20
-1.39096e-20
-1.48139e-18
-1.57318e-18
-1.27714e-86
2.01122e-84
-1.1609e-82
9.90407e-81
-3.06715e-79
1.9964e-77
6.91491e-70
-1.72849e-72