/*--------------------------------*- C++ -*----------------------------------*\
| =========                 |                                                 |
| \\      /  F ield         | OpenFOAM: The Open Source CFD Toolbox           |
|  \\    /   O peration     | Version:  2012                                  |
|   \\  /    A nd           | Website:  www.openfoam.com                      |
|    \\/     M anipulation  |                                                 |
\*---------------------------------------------------------------------------*/
FoamFile
{
    version     2.0;
    format      ascii;
    class       volScalarField;
    location    "0.3";
    object      alpha.water;
}
// * * * * * * * * * * * * * * * * * * * * * * * * * * * * * * * * * * * * * //

dimensions      [0 0 0 0 0 0 0];


internalField   nonuniform List<scalar> 
2268
(
1
1
1
1
1
1
1
1
1
1
1
1
1
1
1
1
1
1
1
1
0.879871
0.806125
0.805917
1
1
1
1
1
1
1
1
1
1
1
1
1
1
1
1
1
1
1
1
0.978999
0.910417
0.97102
1
1
1
1
1
1
1
1
1
1
1
1
1
1
1
1
1
1
1
1
1
0.999885
0.999465
1
1
1
1
1
1
1
1
1
1
1
1
1
1
1
1
1
1
1
1
1
0.999947
0.990336
1
1
1
1
1
1
1
1
1
1
1
1
1
1
1
1
1
1
1
1
1
0.999997
0.990299
1
1
1
1
1
1
1
1
1
1
1
1
1
1
1
1
1
1
1
1
1
1
0.990471
1
1
1
1
1
1
1
1
1
1
1
1
1
1
1
1
1
1
1
1
1
1
0.990783
1
1
1
1
1
1
1
1
1
1
1
1
1
1
1
1
1
1
1
1
1
1
0.990997
2.94988e-09
1.45328e-09
7.72086e-11
1.09659e-12
8.20965e-14
3.57895e-15
1.47995e-16
6.24811e-18
2.90167e-19
1.4661e-20
7.57533e-22
4.00496e-23
1.80475e-24
7.14406e-26
2.41839e-27
6.54719e-29
1.27749e-30
1.22447e-32
7.51099e-33
2.07613e-08
2.68028e-08
2.89146e-09
6.37905e-12
6.47706e-13
1.00306e-13
5.87062e-15
2.63816e-16
1.35945e-17
7.32573e-19
3.85572e-20
2.07135e-21
9.9664e-23
4.20794e-24
1.51018e-25
4.23481e-27
7.98266e-29
6.55024e-31
7.51099e-33
5.02255e-07
7.75265e-07
6.74419e-08
1.48331e-10
8.36511e-12
7.59434e-13
9.87314e-14
5.83961e-15
2.8635e-16
1.48281e-17
6.30771e-19
3.71063e-20
1.81523e-21
7.1794e-23
2.34133e-24
5.65906e-26
7.55428e-28
6.07804e-30
3.328e-31
6.89793e-06
1.2224e-05
9.85097e-07
1.78611e-09
7.02487e-11
5.25691e-12
7.69283e-13
6.62296e-14
3.78368e-15
1.54523e-16
2.34903e-18
2.04175e-19
2.26396e-20
8.81488e-22
2.51982e-23
4.77165e-25
7.64515e-27
8.02356e-29
5.6776e-30
6.77013e-05
0.000119876
1.23952e-05
1.39006e-08
5.03081e-10
3.19313e-11
3.43801e-12
3.53509e-13
4.55924e-14
3.2444e-15
4.40233e-17
2.349e-18
3.89311e-19
1.68199e-20
3.72811e-22
9.71431e-24
1.98989e-25
2.10476e-27
7.41524e-29
0.000794222
0.000821102
8.19799e-05
5.51476e-08
1.96377e-09
2.35039e-10
3.61697e-11
3.08969e-12
3.46093e-13
1.45138e-13
1.35327e-15
6.38076e-17
1.60707e-17
7.51079e-19
1.09206e-20
3.14865e-22
9.2373e-24
1.16556e-25
1.86679e-27
0.00165396
0.00200028
5.19904e-05
2.93382e-08
2.02153e-08
3.21753e-09
1.77611e-10
7.20542e-11
8.2334e-12
1.3766e-12
6.60505e-14
3.11088e-15
7.19083e-16
3.13041e-17
4.6751e-19
1.62297e-20
4.94422e-22
6.25485e-24
9.08131e-26
0.00120734
0.00116615
1.02366e-06
3.19833e-07
3.7764e-08
1.23129e-08
4.12479e-09
2.64561e-09
5.2375e-10
5.14413e-11
2.80097e-12
1.36628e-13
2.58161e-14
1.02903e-15
2.18402e-17
8.05786e-19
2.45437e-20
2.80851e-22
5.13919e-24
1
1
1
1
1
1
1
1
1
1
1
1
1
1
1
1
1
1
1
1
1
1
0.991306
1
1
0.999999
1
1
1
1
1
1
0.999999
0.999999
0.999999
1
0.999999
0.999999
1
1
1
1
1
1
1
0.995262
1
0.999999
0.999992
0.999993
0.999995
0.999995
0.999995
0.999993
0.999991
0.999986
0.99998
0.999974
0.999969
0.999963
0.99996
0.999971
0.999992
0.999762
1
1
1
1
1
0.999999
0.999974
0.999896
0.999906
0.999916
0.999914
0.999898
0.999859
0.999788
0.99968
0.999535
0.999368
0.992279
0.96955
0.929591
0.876556
0.831563
0.791
0.815918
0.895545
0.999999
1
0.999818
0.999974
0.99925
0.998732
0.99881
0.998824
0.99817
0.99209
0.97268
0.932236
0.865139
0.768174
0.623943
0.46596
0.323999
0.209621
0.124727
0.076327
0.0516735
0.0656801
0.109744
0.206226
0.383077
0.593348
0.991948
0.811756
0.722471
0.714662
0.676532
0.600175
0.481939
0.357932
0.238526
0.133745
0.0384846
8.15146e-09
2.93129e-08
8.74723e-07
6.13388e-06
1.62647e-05
2.11178e-05
2.11171e-05
1.90661e-05
0.00014814
0.00043338
0.000946728
0.0192471
0.459118
0.127021
0.0519438
0.0471662
0.0251677
5.92895e-14
3.83462e-13
1.42482e-12
3.10868e-12
4.191e-12
1.81002e-09
2.3067e-09
8.15186e-09
2.93134e-08
8.74723e-07
6.13388e-06
1.62647e-05
2.10726e-05
2.15975e-05
4.08932e-05
7.77706e-05
0.000121146
0.000254049
-7.56754e-21
-5.59642e-57
1.11141e-20
9.32029e-19
7.33651e-17
4.0982e-15
5.92979e-14
3.83464e-13
1.62823e-12
3.79867e-12
4.19294e-12
1.3136e-09
2.2591e-09
8.79568e-08
5.00437e-05
0.000243964
0.000300326
0.000126629
3.91895e-05
5.26918e-05
5.42073e-05
5.5931e-05
0.000122547
-3.48446e-20
1.48074e-19
1.12655e-17
5.5966e-16
2.58809e-14
4.26334e-13
3.52224e-12
9.52755e-12
6.97385e-12
4.19128e-12
-1.16333e-11
1.07636e-09
4.35284e-09
3.66733e-05
0.000607094
0.000631389
0.000611143
0.000341392
5.26918e-05
5.09748e-05
5.25496e-05
5.42073e-05
0.000208829
-2.23746e-20
1.11393e-18
1.15152e-16
1.10197e-14
5.80845e-13
6.65075e-12
2.54265e-11
3.39074e-11
2.45426e-11
4.7403e-12
1.90647e-07
5.07716e-09
6.0197e-09
0.000589262
0.000649622
0.000648426
0.000386212
5.78334e-05
5.08919e-05
5.20326e-05
0.000745607
0.00155946
0.00156202
-6.44998e-21
1.59617e-18
2.04161e-16
3.05587e-14
1.70198e-12
1.55341e-11
3.69543e-11
4.11964e-11
4.22855e-11
6.2466e-12
8.05074e-07
1.92987e-08
4.20183e-05
0.000649622
0.000649622
0.000312503
0.000192566
7.76269e-05
5.5284e-05
0.000960931
0.00135397
0.00135587
0.000340819
1.78996e-20
1.61795e-18
2.23304e-16
4.14682e-14
2.35764e-12
1.88345e-11
3.85342e-11
4.26405e-11
8.42157e-11
1.44012e-11
8.15625e-07
1.62611e-07
1.55127e-07
0.000241225
0.000619969
0.00100292
0.00103027
0.0010526
0.00106733
0.0010587
0.000550317
5.59614e-06
-6.18437e-09
1.92588e-20
1.17116e-18
1.90972e-16
4.41048e-14
2.52279e-12
1.88351e-11
3.413e-11
4.17822e-11
1.32291e-10
3.20862e-11
5.36012e-07
8.09106e-08
1.88611e-07
1.12806e-08
3.4656e-05
0.00025532
0.000282736
0.000454641
0.000214202
7.69671e-06
-2.51821e-09
-7.7023e-10
-4.28631e-10
1.05093e-20
4.82674e-19
8.72999e-17
3.58428e-14
2.03235e-12
1.17598e-11
2.09958e-11
3.32476e-11
1.55921e-10
2.53177e-10
1.87166e-10
1.88268e-10
3.98533e-07
1.0258e-08
1.41407e-12
5.13276e-13
4.71382e-13
5.47917e-13
5.62584e-13
8.16373e-13
2.34432e-12
1.21609e-11
1.73989e-11
2.05224e-21
1.20934e-19
2.31428e-17
1.59293e-14
8.60759e-13
4.42389e-12
8.90155e-12
2.06216e-11
1.4123e-10
4.11962e-10
1.83467e-10
2.10973e-10
2.34797e-10
1.41407e-12
5.13276e-13
4.71382e-13
4.71382e-13
5.76583e-13
1.20034e-12
2.97989e-12
1.532e-11
2.83395e-11
5.60748e-11
-7.03872e-22
1.81804e-20
4.77812e-18
4.36743e-15
2.19936e-13
1.1549e-12
2.94642e-12
1.11836e-11
5.8076e-11
3.45836e-10
4.06692e-10
4.31239e-10
1.95505e-10
6.15401e-11
4.88375e-12
4.02719e-13
5.48561e-13
2.22743e-12
7.01686e-12
1.95492e-11
4.93483e-11
6.19201e-11
1.0926e-10
-1.81082e-21
2.63258e-22
1.55925e-18
8.49906e-16
3.81431e-14
2.15539e-13
8.34935e-13
5.38853e-12
1.88868e-11
9.60364e-11
3.14554e-10
3.74103e-10
2.5248e-10
6.79119e-11
5.01753e-12
1.04005e-13
2.70822e-13
9.35827e-13
2.32702e-12
5.70467e-12
1.96894e-11
3.28943e-11
1.30225e-10
-2.21716e-21
-1.57542e-21
9.2216e-19
1.30077e-16
4.48242e-15
2.89283e-14
2.22265e-13
2.14335e-12
6.52621e-12
1.41687e-11
8.24892e-11
9.71192e-11
5.6278e-11
1.31016e-11
7.39591e-13
9.58901e-15
2.03707e-14
1.08797e-13
6.28886e-13
3.02168e-12
1.09933e-11
2.26089e-11
1.83743e-10
-2.00512e-21
-2.06035e-21
4.38339e-19
1.79323e-17
3.40613e-16
2.97043e-15
6.17398e-14
6.6478e-13
2.18292e-12
3.59062e-12
7.76096e-12
8.42596e-12
4.66998e-12
9.8137e-13
4.58189e-14
1.28515e-15
4.65577e-15
3.84578e-14
3.17699e-13
1.94316e-12
8.27449e-12
2.01346e-11
2.1359e-10
-1.39354e-21
-1.88298e-21
8.78729e-20
2.13871e-18
1.58267e-17
3.51218e-16
1.69436e-14
1.68073e-13
6.27633e-13
1.21909e-12
1.99871e-12
1.62292e-12
6.30015e-13
8.15363e-14
3.48456e-15
5.25669e-16
1.53712e-15
1.67479e-14
1.7839e-13
1.31298e-12
6.40938e-12
1.8479e-11
2.17222e-10
-7.10668e-22
-1.25765e-21
5.69216e-21
1.25572e-19
3.93104e-19
6.39405e-17
3.66536e-15
3.83379e-14
1.55772e-13
3.19974e-13
7.75053e-13
6.28656e-13
2.27917e-13
2.16264e-14
4.81895e-16
2.26237e-16
6.40085e-16
7.99834e-15
9.97259e-14
8.52521e-13
4.67039e-12
1.63799e-11
1.74316e-10
-2.39432e-22
-5.3036e-22
-4.23268e-23
1.28172e-25
1.13947e-21
8.30353e-18
5.20477e-16
7.23634e-15
3.32727e-14
6.73782e-14
1.44546e-13
1.17042e-13
4.33343e-14
4.37896e-15
7.94703e-17
6.02401e-17
2.3724e-16
3.48771e-15
5.03099e-14
5.03261e-13
3.07234e-12
1.36998e-11
1.21432e-10
-4.51511e-23
-1.05197e-22
-7.64859e-24
-3.85096e-27
6.68963e-23
3.06447e-19
4.03838e-17
9.14654e-16
5.20327e-15
1.12595e-14
1.34276e-14
8.7813e-15
3.27509e-15
5.2054e-16
1.79943e-17
1.49182e-17
8.08544e-17
1.36236e-15
2.24097e-14
2.63519e-13
1.91267e-12
9.34473e-12
9.1296e-11
-4.50464e-24
-1.29504e-23
-8.55819e-25
-2.38736e-26
1.07417e-24
2.62835e-22
1.00197e-18
5.77807e-17
4.54094e-16
1.23874e-15
1.22916e-15
9.36549e-16
4.49268e-16
7.98514e-17
2.11841e-18
2.33168e-18
2.50942e-17
4.74705e-16
8.67413e-15
1.21672e-13
1.06288e-12
6.37549e-12
6.61229e-11
-1.00046e-41
-1.24051e-38
1.2395e-34
1.80807e-28
7.01094e-27
4.72401e-25
1.8001e-21
1.26548e-18
1.42068e-17
4.1907e-17
5.45066e-17
3.21358e-17
1.40034e-17
2.88697e-18
2.09859e-19
4.30013e-19
7.21372e-18
1.47126e-16
2.9216e-15
4.94372e-14
5.33019e-13
4.24908e-12
5.16635e-11
-9.74448e-42
-9.46524e-39
-6.37734e-38
3.26431e-31
2.37073e-29
1.52879e-27
5.14579e-24
4.6698e-21
5.55047e-20
1.57043e-19
2.11809e-19
1.81999e-19
8.62101e-20
2.1687e-20
1.78688e-20
8.65296e-20
1.87971e-18
4.06763e-17
8.80022e-16
1.80148e-14
2.47351e-13
2.9616e-12
4.30658e-11
-7.92765e-42
-4.4317e-39
-1.06577e-37
9.07506e-35
1.02029e-32
5.90898e-31
6.6321e-27
1.63402e-23
3.53255e-22
1.55836e-21
3.1612e-21
3.951e-21
3.41661e-21
1.81904e-21
2.20771e-21
1.93953e-20
4.44671e-19
1.05748e-17
2.55403e-16
6.21736e-15
1.11778e-13
2.18068e-12
3.56235e-11
-6.15975e-42
-1.24437e-39
-1.17796e-37
-5.3969e-36
-1.79446e-34
-3.09532e-33
2.06702e-32
1.85807e-28
4.53167e-25
1.10908e-23
4.81216e-23
8.61973e-23
8.6995e-23
6.33212e-23
1.43043e-22
3.33763e-21
9.80731e-20
2.76591e-18
7.76423e-17
2.18004e-15
5.08329e-14
1.6686e-12
2.90079e-11
-4.81664e-42
-9.99687e-40
-9.8936e-38
-5.92787e-36
-2.35668e-34
-6.2581e-33
-1.01625e-31
-4.34967e-31
8.20431e-28
5.18702e-26
2.68083e-25
4.51591e-25
3.6046e-25
6.94268e-25
1.55817e-23
5.96261e-22
2.13265e-20
7.487e-19
2.52637e-17
7.93461e-16
2.292e-14
1.26522e-12
2.37986e-11
-2.54231e-42
-5.41706e-40
-5.59214e-38
-3.51344e-36
-1.47915e-34
-4.24756e-33
-8.03636e-32
-8.14525e-31
4.13689e-30
3.1938e-29
6.3438e-30
1.89958e-29
9.48764e-28
5.03922e-26
2.5293e-24
1.09794e-22
4.9574e-21
2.13831e-19
8.43529e-18
2.8407e-16
9.59623e-15
8.67517e-13
1.81939e-11
-6.83874e-43
-1.49285e-40
-1.60589e-38
-1.05786e-36
-4.73125e-35
-1.48755e-33
-3.26653e-32
-4.74642e-31
-3.8927e-30
-1.01505e-29
-1.31144e-30
2.01355e-30
1.32968e-28
7.13746e-27
3.82659e-25
2.08742e-23
1.16599e-21
5.95544e-20
2.65908e-18
9.36952e-17
3.44384e-15
4.8663e-13
1.1492e-11
-4.94596e-57
-4.64296e-54
-3.88123e-52
-2.92017e-51
2.78797e-49
4.15382e-47
1.06387e-44
4.05483e-42
3.71038e-40
4.0003e-38
2.54931e-33
1.74298e-31
1.18899e-29
8.09241e-28
5.71798e-26
3.74495e-24
2.51253e-22
1.4694e-20
7.31235e-19
2.71958e-17
1.01168e-15
2.15496e-13
6.0995e-12
-1.42516e-56
-6.04411e-54
-5.3375e-52
-5.11576e-51
1.65512e-51
2.48556e-48
1.22224e-46
6.29411e-44
3.92248e-41
2.40652e-39
8.4185e-35
1.23196e-32
1.07239e-30
8.45399e-29
7.33523e-27
6.11801e-25
4.86505e-23
3.13507e-21
1.73202e-19
7.08438e-18
2.54711e-16
7.67105e-14
2.75503e-12
-1.77474e-56
-6.19222e-54
-5.80183e-52
-6.01916e-51
-5.34524e-52
-2.18599e-50
9.55997e-48
1.29397e-44
7.36997e-42
1.01273e-40
4.35134e-36
6.74926e-34
8.21628e-32
8.3776e-30
8.77815e-28
9.07376e-26
7.78399e-24
5.45537e-22
3.39423e-20
1.60529e-18
6.01287e-17
2.25485e-14
1.02287e-12
-1.22094e-56
-4.44623e-54
-4.44535e-52
-5.0344e-51
-9.41425e-52
-3.658e-49
-1.55431e-49
9.52458e-46
2.9207e-43
3.80028e-41
1.78167e-37
3.65755e-35
5.67757e-33
7.13463e-31
9.66357e-29
1.04517e-26
9.97129e-25
8.31487e-23
5.58647e-21
2.96144e-19
1.25673e-17
5.36476e-15
2.98515e-13
-4.39077e-57
-1.67973e-54
-1.80175e-52
-2.25447e-51
-4.64751e-52
-1.98767e-49
-1.84942e-49
5.54138e-49
2.20222e-45
2.17024e-42
4.88034e-39
1.71519e-36
2.78025e-34
4.97493e-32
7.31397e-30
9.21675e-28
1.05125e-25
8.71805e-24
6.98033e-22
4.33896e-20
2.09836e-18
9.99556e-16
6.85746e-14
-8.12658e-81
-3.99966e-77
-7.00115e-74
2.58334e-64
3.31418e-60
1.75956e-60
3.01683e-54
2.93229e-49
2.01038e-46
1.37243e-43
1.50629e-40
4.13869e-38
1.00169e-35
2.22086e-33
3.4732e-31
5.56902e-29
6.59872e-27
6.31968e-25
5.72348e-23
4.6089e-21
2.67034e-19
1.35742e-16
1.11565e-14
-8.41777e-81
-4.85993e-77
-9.10618e-74
7.43876e-65
1.72016e-60
6.27566e-61
1.11034e-54
1.41375e-51
2.54338e-48
7.62624e-47
1.30991e-42
6.77474e-40
1.89675e-37
4.80683e-35
9.92331e-33
1.5416e-30
2.11648e-28
2.67473e-26
3.35797e-24
3.31774e-22
2.58243e-20
7.70706e-18
1.04965e-15
-8.7821e-81
-4.25951e-77
-8.59866e-74
3.44494e-69
8.96707e-65
2.46066e-65
2.7403e-58
1.19588e-54
1.88123e-51
3.60261e-49
1.567e-45
1.0586e-42
4.14659e-40
1.29972e-37
4.64408e-35
1.13225e-32
2.37519e-30
4.40258e-28
6.94057e-26
9.33544e-24
1.25879e-21
1.7573e-19
3.46857e-17
-6.4587e-81
-2.03616e-77
-4.46419e-74
-1.80732e-72
-7.46349e-68
-1.10769e-66
-3.11178e-61
-5.85309e-57
-1.15645e-58
4.3808e-55
3.72549e-51
1.4514e-47
1.02489e-44
5.89479e-42
3.78048e-39
1.6145e-36
6.36127e-34
2.17495e-31
6.40065e-29
1.59519e-26
4.00391e-24
1.84251e-21
3.41935e-19
-2.52424e-81
-1.62662e-80
-8.3577e-77
-1.49719e-73
-3.38145e-70
-6.30207e-67
-7.87326e-65
-5.38176e-61
-6.42979e-63
-1.74376e-65
1.5346e-61
2.1567e-58
1.81298e-54
5.60683e-51
7.1924e-48
9.43082e-45
1.03613e-41
9.78838e-39
7.91088e-36
5.4175e-33
3.73719e-30
8.51671e-24
2.69839e-22
-3.23967e-100
-6.94498e-103
-6.51601e-106
-5.63695e-109
-4.85496e-112
-4.29467e-115
-3.62455e-91
-1.12463e-93
-2.22213e-96
-2.20276e-74
-7.90263e-77
-1.73058e-79
-2.97548e-82
-4.36234e-85
1.50705e-63
1.94072e-60
8.77073e-58
6.90782e-54
3.12538e-70
1.22225e-48
6.12133e-46
0
1.46631e-40
0.995102
0.997943
0.988508
0.180569
0.995283
0.999333
0.99934
0.950118
0.999731
0.99953
0.99942
0.999341
0.99953
0.999427
0.999427
0.99942
0.774402
0.966217
0.99942
0.999288
0.0530751
0.101314
0.163367
0.249574
0.000769686
0.00356149
0.00387676
0.00236331
0.000303532
0.00608731
0.00608737
0.00252361
0.00199034
0.00597328
0.00541725
0.00461768
0.00137365
0.000460027
6.15018e-05
1.92414e-05
1.96648e-06
6.07995e-07
2.00909e-07
6.38702e-08
-8.70471e-08
1.88947e-09
-6.43468e-10
5.29691e-10
-4.89339e-10
-4.16518e-10
9.89719e-11
2.91385e-10
2.69052e-11
3.72048e-11
9.16651e-11
3.34356e-10
9.42988e-11
1.20992e-10
4.84381e-10
1.62854e-09
1.94541e-10
2.91142e-10
7.90344e-10
1.5582e-09
3.04738e-10
5.67444e-10
9.78986e-10
1.51976e-09
4.70687e-10
9.62542e-10
1.10164e-09
1.09356e-09
5.58507e-10
8.85857e-10
1.00169e-09
5.98763e-10
5.2175e-10
6.31923e-10
5.71249e-10
1.96712e-10
3.23448e-10
3.24726e-10
2.57877e-10
1.73337e-10
1.95656e-10
1.8937e-10
1.15664e-10
1.28531e-10
1.29144e-10
1.16414e-10
1.00401e-10
1.24408e-10
9.20707e-11
8.51972e-11
8.53894e-11
1.06277e-10
7.18769e-11
7.07773e-11
1.38883e-10
1.8795e-10
5.83529e-11
5.46949e-11
6.60999e-10
1.53662e-09
5.20641e-11
6.57304e-11
9.17952e-10
9.84764e-10
5.08004e-11
1.6562e-10
8.60531e-10
9.92168e-10
5.44866e-11
1.95529e-10
1.11605e-09
1.16448e-09
4.61823e-11
1.99785e-10
1.19715e-09
2.02345e-09
3.03343e-11
1.82364e-10
9.84438e-10
2.0937e-09
1.85294e-11
1.28006e-10
6.7169e-10
2.51505e-09
9.90993e-12
8.11662e-11
4.36574e-10
1.51405e-09
4.16317e-12
4.32056e-11
2.51362e-10
7.90451e-10
1.2854e-12
1.85617e-11
1.23766e-10
3.67499e-10
2.96535e-13
5.94293e-12
4.89031e-11
2.06498e-10
5.0769e-14
1.29365e-12
1.64163e-11
1.04268e-10
8.87862e-15
2.7164e-13
4.6535e-12
3.56656e-11
8.46468e-16
2.92842e-14
6.15562e-13
7.86876e-12
9.80102e-18
3.65739e-16
1.23393e-14
2.99641e-13
1.99571e-22
2.14788e-20
2.01472e-18
1.50435e-16
0
-6.81805e-35
-2.20019e-31
-2.267e-28
0.143459
0.000629498
2.38433e-06
1.02366e-06
2.8662e-07
4.31624e-07
1.4002e-07
9.46018e-08
1.58964e-08
1.62263e-09
9.47117e-11
4.87995e-12
2.93807e-13
3.00574e-14
1.29903e-15
2.6244e-17
7.79715e-19
1.19531e-20
2.49726e-22
0.935255
0.254839
0.0715523
2.75777e-05
5.44401e-05
1.3143e-05
4.05523e-06
2.51557e-06
3.77129e-07
3.80747e-08
2.53201e-09
1.44531e-10
7.4993e-12
3.35912e-13
1.74175e-14
7.0743e-16
2.01622e-17
4.85867e-19
1.04198e-20
0.999052
0.969508
0.906678
0.338991
0.05058
0.00307263
0.000149484
8.43115e-05
1.1435e-05
1.23391e-06
9.92872e-08
5.69535e-09
3.54843e-10
1.65119e-11
4.92842e-13
2.96678e-14
1.73497e-15
5.2404e-17
-4.90475e-19
0.999288
0.999001
0.998091
0.985674
0.939648
0.471472
0.0670837
0.00147784
0.000218569
2.35658e-05
2.24175e-06
1.61826e-07
1.07358e-08
6.21091e-10
2.65149e-11
2.92424e-13
2.18794e-14
6.22231e-16
-6.76845e-17
0.999001
0.998271
0.997749
0.997546
0.996569
0.994336
0.874416
0.295303
0.0100653
0.000323368
3.56242e-05
2.96661e-06
2.22534e-07
1.60112e-08
8.40023e-10
2.39158e-11
-9.83608e-13
-1.5508e-13
-3.11982e-15
0.383148
0.671699
0.98397
0.996569
0.994336
0.99172
0.990343
0.94596
0.44629
0.0235864
0.000413134
4.07343e-05
3.82122e-06
3.25649e-07
2.25782e-08
1.14553e-09
2.94679e-12
-8.43229e-12
-7.90567e-14
0.00150815
0.0297415
0.111562
0.212361
0.508908
0.947131
0.9871
0.974595
0.945024
0.491157
0.0268808
0.000562945
5.80815e-05
6.0285e-06
5.55924e-07
4.0806e-08
1.41618e-09
-1.49067e-10
6.18829e-12
0.00082189
0.000207094
0.000118142
0.00015684
0.00557949
0.0404562
0.344919
0.928855
0.934246
0.877601
0.409008
0.0122739
0.000750293
9.11545e-05
1.0715e-05
1.06469e-06
6.97718e-08
8.4232e-10
2.45382e-10
0.00106296
-1.3648e-05
6.15901e-06
5.70324e-06
1.92645e-05
2.90954e-05
0.000106083
0.199804
0.82011
0.865512
0.745546
0.225695
0.00618036
0.00104091
0.000155021
1.91045e-05
1.45107e-06
3.6623e-08
6.54763e-09
2.14451e-05
2.41921e-06
-1.04812e-06
3.48244e-07
1.18282e-06
1.9365e-06
3.66026e-06
9.1957e-05
0.32008
0.808572
0.78935
0.493067
0.0560765
0.00323696
0.00055839
7.61799e-05
6.72245e-06
3.35675e-07
8.37917e-08
1.24983e-08
3.69665e-09
1.2347e-09
2.60234e-09
-3.38416e-11
1.28428e-07
2.40667e-07
1.81686e-06
0.0110698
0.563114
0.751059
0.657125
0.167692
0.00674634
0.00127248
0.000192657
1.97232e-05
1.36278e-06
4.71962e-07
8.52631e-10
1.36955e-09
2.26401e-09
2.83436e-09
3.08665e-09
1.21725e-08
3.25405e-08
1.10126e-07
1.81216e-06
0.226177
0.690661
0.640729
0.309405
0.0204047
0.00204271
0.000331909
3.50175e-05
2.59501e-06
1.61987e-06
7.89248e-10
1.55845e-09
2.31128e-09
2.6742e-09
3.65709e-09
8.55955e-09
1.61149e-08
3.25514e-08
1.08117e-07
0.0414026
0.561685
0.606052
0.41017
0.0380145
0.00283843
0.000460757
5.27334e-05
5.90734e-06
3.72822e-06
1.469e-09
1.54284e-09
1.5652e-09
1.65823e-09
8.98719e-08
2.13535e-07
1.08035e-07
1.05604e-07
1.54354e-07
1.96276e-06
0.422216
0.588048
0.438062
0.0619865
0.00331765
0.000548081
6.20398e-05
8.66589e-06
6.41496e-06
1.79024e-09
1.50704e-09
1.50691e-09
1.60278e-09
1.42629e-07
1.08253e-06
3.8011e-07
1.54319e-07
2.85622e-07
4.78772e-07
0.296511
0.544314
0.425594
0.0706898
0.00333949
0.00053552
5.98612e-05
7.9311e-06
5.76244e-06
1.65097e-09
1.44925e-09
1.45361e-09
1.68032e-06
3.56826e-05
6.38502e-05
3.04018e-05
2.85622e-07
4.78782e-07
1.7906e-06
0.241016
0.504469
0.399723
0.0657447
0.00291997
0.000439038
4.65596e-05
5.7115e-06
3.63666e-06
1.26993e-09
1.11598e-09
1.4051e-09
1.73795e-05
9.17488e-05
9.17488e-05
9.17488e-05
3.20451e-05
1.79061e-06
6.68965e-06
0.242133
0.470548
0.345903
0.0471961
0.00218776
0.000327806
5.4657e-05
7.73848e-06
2.11915e-06
9.21747e-10
9.37336e-10
1.4888e-09
3.73385e-09
4.21965e-05
9.17488e-05
9.15589e-05
3.54655e-05
6.68965e-06
1.16349e-05
0.250651
0.437797
0.2547
0.0189237
0.00149056
0.000311505
6.72817e-05
7.85457e-06
1.21492e-06
4.97618e-10
1.86888e-08
7.5264e-09
1.803e-08
3.27822e-08
2.27055e-05
2.77397e-05
1.37131e-05
1.16349e-05
0.0194861
0.249716
0.408453
0.138667
0.00458604
0.0010146
0.000351274
8.37092e-05
8.54451e-06
7.29811e-07
3.03978e-10
2.76565e-08
1.84381e-08
3.27822e-08
3.40683e-05
5.1689e-05
2.11325e-05
1.29223e-05
1.21821e-05
0.0715887
0.293176
0.273735
0.0539923
0.00266512
0.000700975
0.000393611
6.55488e-05
6.0408e-06
4.57775e-07
1.75521e-10
2.94481e-08
6.61413e-08
8.07654e-08
4.41913e-05
5.18616e-05
3.29992e-05
1.62795e-05
0.0121653
0.235854
0.292968
0.19788
0.0151623
0.00168824
0.000682037
0.000268203
4.1997e-05
3.90312e-06
2.83941e-07
3.23518e-08
4.12726e-08
1.25713e-06
1.03062e-06
2.59037e-06
1.98359e-05
4.25002e-05
2.09757e-05
0.144405
0.27259
0.293144
0.109201
0.00351701
0.001046
0.00064979
0.000161588
2.23438e-05
2.12225e-06
1.55168e-07
4.95728e-08
3.65304e-08
7.36416e-07
1.10595e-06
1.60305e-06
2.21014e-06
0.00839743
0.124533
0.238383
0.244257
0.19073
0.0352871
0.00207866
0.000827721
0.000416053
7.89984e-05
1.02964e-05
1.02387e-06
7.7327e-08
1.76698e-08
3.10051e-08
1.97076e-07
1.86915e-07
1.70753e-06
2.79492e-06
0.0899369
0.216366
0.227639
0.206839
0.0595807
0.00695095
0.00197242
0.000834927
0.000199906
3.26065e-05
4.86195e-06
5.05335e-07
3.91935e-08
5.0146e-10
7.06986e-09
2.42012e-08
8.61624e-06
2.79492e-06
0.0161927
0.170573
0.200799
0.161071
0.0607697
0.00653203
0.00282109
0.00198072
0.000592371
6.79195e-05
1.41782e-05
2.25329e-06
2.44152e-07
1.95535e-08
2.54307e-08
2.82637e-08
4.79389e-08
2.40307e-05
4.48324e-06
0.0156711
0.164872
0.113594
0.0297746
0.00465184
0.00236226
0.00115046
0.000841445
0.000212902
2.69086e-05
6.0438e-06
1.06727e-06
1.19914e-07
9.87478e-09
5.55356e-08
5.0687e-08
1.16214e-07
2.51862e-05
8.12062e-06
0.0293994
0.14259
0.0374533
0.00465654
0.00187586
0.000845639
0.000502122
0.000120736
3.21961e-05
1.37204e-05
2.69024e-06
5.20184e-07
6.03334e-08
5.07895e-09
4.02778e-08
5.92169e-08
8.95136e-07
6.99491e-06
1.00779e-05
0.034403
0.136687
0.113668
0.00783946
0.000845922
0.000375499
0.000178024
5.48601e-05
1.54692e-05
6.73001e-06
1.42129e-06
2.63792e-07
3.13253e-08
2.66922e-09
3.07724e-08
3.3711e-08
1.53231e-06
7.69817e-06
5.71305e-05
4.89218e-05
0.104974
0.121652
0.00704643
0.00037558
0.00019376
7.86648e-05
2.95797e-05
8.33853e-06
3.62891e-06
8.83797e-07
1.41868e-07
1.67679e-08
1.43025e-09
3.8368e-08
7.67093e-08
1.18154e-06
2.12928e-05
9.20695e-05
4.71739e-05
0.0978341
0.120965
0.0914318
0.00219063
8.66304e-05
3.64966e-05
1.16644e-05
3.91758e-06
1.27492e-06
5.59106e-07
8.07483e-08
9.16932e-09
7.72247e-10
3.89027e-08
7.81642e-08
1.58892e-06
1.35126e-05
8.70172e-05
4.89218e-05
0.0844482
0.121879
0.124242
0.00326533
5.41889e-05
1.7213e-05
3.04627e-06
1.46172e-06
4.2052e-07
2.48354e-07
4.51427e-08
5.01371e-09
4.12736e-10
1.88864e-08
8.23615e-08
7.55842e-07
8.03713e-06
4.62432e-05
5.30166e-05
0.0159338
0.12421
0.125886
0.0763029
0.00293463
1.71724e-05
3.22788e-06
6.02464e-07
1.87317e-07
6.41678e-08
2.19264e-08
2.64433e-09
2.15426e-10
1.1122e-08
6.63846e-08
5.02589e-07
2.72098e-06
4.56395e-05
0.000494286
0.000591589
0.123419
0.126152
0.125886
0.00997656
9.49354e-05
5.22976e-06
4.46892e-07
8.74452e-08
2.61144e-08
9.99929e-09
1.40498e-09
1.09732e-10
6.87666e-09
2.9043e-08
5.07681e-07
4.41128e-06
1.80476e-05
0.000670903
0.00068946
0.115524
0.126152
0.126152
0.0621576
0.00129081
1.07501e-05
3.80719e-07
5.18866e-08
1.93222e-08
5.53345e-09
7.63422e-10
5.49954e-11
3.31674e-09
1.47035e-08
2.27221e-07
4.31901e-06
2.46712e-05
0.000168032
0.00277487
0.0531099
0.126152
0.125293
0.0994082
0.00183652
1.16574e-05
4.1107e-06
1.92173e-07
1.97703e-08
3.00435e-09
3.93038e-10
2.7251e-11
1.96411e-09
1.20083e-08
1.209e-07
2.43814e-06
2.38766e-05
8.69584e-05
0.00299895
0.0101585
0.112147
0.110088
0.0513756
0.00240193
9.72043e-05
1.86334e-06
1.52104e-07
1.1689e-08
1.42516e-09
1.97126e-10
1.32918e-11
1.20341e-09
8.15369e-09
1.24495e-07
1.4418e-06
1.27916e-05
8.35439e-05
0.0023536
0.0093676
0.0253454
0.0244354
0.00191295
0.00192167
6.49942e-05
-2.41005e-08
1.80085e-09
9.46695e-10
6.60354e-10
1.00128e-10
6.3414e-12
4.65086e-10
4.87694e-09
8.22598e-08
1.04765e-06
9.54995e-06
6.29551e-05
0.00144408
0.00380703
0.00228347
0.00245065
0.000466471
1.77321e-05
-2.05337e-07
-3.67478e-08
8.77623e-10
4.44171e-10
3.29843e-10
5.04677e-11
2.94525e-12
1.14072e-10
1.40049e-09
2.49832e-08
3.31943e-07
3.15955e-06
2.17344e-05
0.00040784
0.000861755
0.000703011
0.000850874
0.000191262
7.42203e-06
-1.33203e-07
-1.29834e-08
4.90695e-10
2.28948e-10
1.742e-10
2.50277e-11
1.34839e-12
6.49833e-12
1.56688e-10
3.39719e-09
5.1091e-08
5.45977e-07
4.02454e-06
7.49728e-05
0.000187371
0.000226618
0.000282986
7.23651e-05
4.05941e-06
3.02379e-08
-5.16179e-09
2.78708e-10
1.12122e-10
8.88921e-11
1.21407e-11
4.6758e-13
9.59597e-15
8.90805e-13
5.06588e-11
1.67561e-09
3.33502e-08
4.43263e-07
7.03146e-06
2.97925e-05
6.80242e-05
9.42718e-05
2.60299e-05
1.52462e-06
5.55791e-08
5.68622e-10
1.46675e-10
6.15298e-11
4.50059e-11
6.08601e-12
1.94032e-13
-2.37416e-26
-2.17206e-16
-3.60604e-13
-1.59934e-11
-3.37796e-10
3.26247e-08
4.52541e-07
3.83122e-06
2.00294e-05
4.90481e-05
9.10972e-06
5.63386e-07
2.1269e-08
5.91812e-10
8.19311e-11
2.59377e-11
1.33299e-11
1.86771e-12
1.94032e-13
)
;

boundaryField
{
    leftWall
    {
        type            zeroGradient;
    }
    rightWall
    {
        type            zeroGradient;
    }
    lowerWall
    {
        type            zeroGradient;
    }
    atmosphere
    {
        type            inletOutlet;
        inletValue      uniform 0;
        value           nonuniform List<scalar> 
46
(
0
0
0
0
0
0
0
0
0
0
0
0
0
0
0
0
0
0
0
0
0
0
0
0
0
0
0
0
0
0
0
0
3.26247e-08
4.52541e-07
3.83122e-06
2.00294e-05
4.90481e-05
9.10972e-06
5.63386e-07
2.1269e-08
5.91812e-10
8.19311e-11
2.59377e-11
1.33299e-11
1.86771e-12
1.94032e-13
)
;
    }
    defaultFaces
    {
        type            empty;
    }
}


// ************************************************************************* //
