/*--------------------------------*- C++ -*----------------------------------*\
| =========                 |                                                 |
| \\      /  F ield         | OpenFOAM: The Open Source CFD Toolbox           |
|  \\    /   O peration     | Version:  2012                                  |
|   \\  /    A nd           | Website:  www.openfoam.com                      |
|    \\/     M anipulation  |                                                 |
\*---------------------------------------------------------------------------*/
FoamFile
{
    version     2.0;
    format      ascii;
    class       volScalarField;
    location    "0.3";
    object      p;
}
// * * * * * * * * * * * * * * * * * * * * * * * * * * * * * * * * * * * * * //

dimensions      [1 -1 -2 0 0 0 0];


internalField   nonuniform List<scalar> 
2268
(
1303.89
1308.54
1313.58
1313.9
1307.65
1296.92
1284.65
1272.5
1261.16
1251.1
1242.91
1237.37
1235.5
1238.69
1249.01
1268.05
1297.29
1336.06
1378.16
1408.9
1408.78
1385.22
1427.1
1244.07
1248.66
1253.71
1253.96
1247.67
1236.98
1224.79
1212.69
1201.36
1191.26
1182.98
1177.31
1175.24
1178.09
1187.05
1203.85
1230.27
1266.78
1309.77
1344.33
1349.67
1315.41
1365.77
1183.3
1187.82
1192.82
1192.95
1186.57
1175.98
1163.94
1151.94
1140.61
1130.43
1121.97
1116.02
1113.59
1115.89
1124.22
1140.03
1164.03
1195.83
1232.67
1266.12
1281.52
1272.65
1318.12
1121.67
1126.09
1130.98
1130.9
1124.42
1113.96
1102.13
1090.27
1078.94
1068.6
1059.86
1053.51
1050.55
1052.16
1059.58
1073.98
1095.81
1124.24
1156.14
1186.34
1210.75
1227.74
1287.23
1059.26
1063.56
1068.26
1067.89
1061.29
1050.99
1039.41
1027.68
1016.32
1005.76
996.631
989.741
986.092
986.828
993.115
1005.93
1025.61
1051.35
1080.44
1108.76
1137.63
1169.69
1240.45
996.157
1000.34
1004.74
1004
997.26
987.14
975.81
964.207
952.748
941.88
932.242
924.668
920.165
919.845
924.808
935.923
953.445
976.671
1003.5
1030.25
1058.77
1092.99
1160.86
932.552
936.43
940.45
939.241
932.383
922.483
911.407
899.878
888.247
876.963
866.689
858.282
852.755
851.193
854.639
863.886
879.194
899.906
924.181
948.571
972.592
997.316
1033.6
868.511
872.022
875.401
873.605
866.669
857.055
846.252
834.761
822.88
811.076
800.04
790.648
783.919
780.915
782.638
789.859
802.844
820.994
842.266
863.113
878.894
887.505
848.166
52.5235
52.4662
52.4302
52.4339
52.4486
52.4672
52.4897
52.5116
52.5297
52.5435
52.5527
52.5568
52.5559
52.5509
52.5431
52.5341
52.5257
52.5192
52.5158
52.4618
52.3957
52.3655
52.3738
52.3886
52.4077
52.431
52.4531
52.4714
52.4853
52.4945
52.4985
52.4974
52.4921
52.484
52.4747
52.466
52.4593
52.4557
52.3959
52.3068
52.2962
52.3121
52.3263
52.3473
52.3724
52.3951
52.4137
52.4279
52.4373
52.4412
52.4398
52.4338
52.4247
52.4144
52.4048
52.3975
52.3936
52.3277
52.1827
52.2222
52.2488
52.2615
52.2863
52.314
52.3374
52.3565
52.3711
52.3809
52.3849
52.3829
52.3758
52.3652
52.3533
52.3422
52.3338
52.3293
52.2495
52.0159
52.1527
52.1816
52.1937
52.2254
52.2559
52.2802
52.2998
52.3151
52.3254
52.3295
52.3267
52.318
52.3054
52.2912
52.2782
52.2682
52.2629
52.1048
51.7672
52.1062
52.1071
52.1234
52.1652
52.198
52.2232
52.2436
52.2597
52.2709
52.2751
52.2713
52.2606
52.2452
52.2281
52.2124
52.2005
52.1941
51.8265
51.166
52.0748
52.016
52.0534
52.1054
52.1399
52.1667
52.1878
52.205
52.2175
52.2219
52.2168
52.2034
52.1846
52.1638
52.1448
52.1303
52.1226
51.6579
51.0391
52.0867
51.9246
51.9853
52.0471
52.0828
52.1113
52.132
52.1507
52.1653
52.1701
52.1634
52.1467
52.1235
52.0982
52.0749
52.0573
52.0479
767.736
770.626
772.733
770
762.938
753.67
743.14
731.536
719.074
706.243
693.768
682.542
673.599
667.983
666.643
670.336
679.502
693.74
710.255
724.454
722.238
681.017
434.396
629.231
630.975
631.046
626.794
619.29
610.002
599.156
586.666
572.699
557.749
542.562
528.036
515.328
505.363
499.041
496.861
498.479
505.696
514.027
519.695
506.791
455.88
341.469
490.5
489.995
487.268
481.405
473.395
463.739
452.003
438.116
422.227
404.772
386.455
368.201
351.467
336.504
324.242
317.316
318.581
322.68
325.036
333.93
336.601
316.727
279.451
352.579
348.66
342.74
335.492
326.655
315.882
302.247
286.247
267.773
246.853
223.813
198.58
176.295
154.999
133.56
111.813
93.8221
84.7957
92.6934
115.188
142.077
157.457
153.448
217.839
210.062
196.775
187.538
177.602
164.949
147.866
129.831
110.515
89.7912
67.7908
42.3921
28.5147
18.8607
11.5857
6.30096
3.32249
1.91937
3.18205
6.07488
11.7675
22.719
36.3537
97.9638
82.091
60.5371
54.5377
48.8507
40.2479
28.6717
20.4856
13
6.47447
0.880958
-1.35209
-1.75143
-1.87034
-1.91234
-1.93357
-1.94284
-1.92637
-1.93488
-2.08125
-2.20707
-2.04397
-1.2668
26.8441
5.71976
1.12784
0.775353
-0.586805
-1.86873
-2.05541
-2.11798
-2.09774
-2.0492
-1.97042
-1.95188
-2.01815
-2.08505
-2.15829
-2.23605
-2.29788
-2.33414
-2.39425
-2.46574
-2.49204
-2.45106
-2.44122
-2.41548
-2.44069
-2.37359
-2.3436
-2.32054
-2.27633
-2.27992
-2.27636
-2.25879
-2.23281
-2.21131
-2.21729
-2.26356
-2.35339
-2.50313
-2.68231
-2.80502
-2.82168
-2.77702
-2.72066
-2.70071
-2.70809
-2.79308
-2.55051
-2.53941
-2.51791
-2.50311
-2.49099
-2.47505
-2.46678
-2.46066
-2.45411
-2.45006
-2.46241
-2.50507
-2.57254
-2.70107
-2.97895
-3.28352
-3.4551
-3.40529
-3.19945
-2.99979
-2.8946
-2.89777
-2.98982
-2.71296
-2.6889
-2.68531
-2.6796
-2.67358
-2.66874
-2.66754
-2.66831
-2.67173
-2.68341
-2.7167
-2.77906
-2.86349
-3.0265
-3.38235
-3.70373
-3.84166
-3.75958
-3.48245
-3.20151
-3.08958
-3.14201
-3.42194
-2.88036
-2.8698
-2.86375
-2.86075
-2.85933
-2.86108
-2.86658
-2.8752
-2.88852
-2.91233
-2.95694
-3.02767
-3.11631
-3.28358
-3.56357
-3.76974
-3.83754
-3.74095
-3.55223
-3.36003
-3.38197
-3.60667
-3.8272
-3.04448
-3.04006
-3.03874
-3.04033
-3.04408
-3.05144
-3.06318
-3.07947
-3.10186
-3.13443
-3.18318
-3.25235
-3.3373
-3.47568
-3.64559
-3.76532
-3.79823
-3.73013
-3.62456
-3.6177
-3.72932
-3.87679
-4.00754
-3.2115
-3.21261
-3.21436
-3.21935
-3.22725
-3.23914
-3.25593
-3.27826
-3.30739
-3.34562
-3.39575
-3.46048
-3.53966
-3.64354
-3.74457
-3.82223
-3.85762
-3.84978
-3.84558
-3.88342
-3.9575
-4.05663
-4.18169
-3.38091
-3.38508
-3.38918
-3.3968
-3.4079
-3.42324
-3.44373
-3.47021
-3.50371
-3.54541
-3.59615
-3.65633
-3.72612
-3.80517
-3.88052
-3.94171
-3.97611
-3.99574
-4.01659
-4.06173
-4.14126
-4.24618
-4.36888
-3.55097
-3.55661
-3.56249
-3.57212
-3.58565
-3.60358
-3.62675
-3.65595
-3.69204
-3.73565
-3.78674
-3.84456
-3.90807
-3.97492
-4.03865
-4.09213
-4.13092
-4.16501
-4.20639
-4.26699
-4.35224
-4.45695
-4.57561
-3.72053
-3.7267
-3.73386
-3.74499
-3.76035
-3.78028
-3.80547
-3.83659
-3.87433
-3.91907
-3.97049
-4.0275
-4.08844
-4.15059
-4.21029
-4.26427
-4.31256
-4.36022
-4.41558
-4.48574
-4.57422
-4.67943
-4.7977
-3.88842
-3.89463
-3.90274
-3.91503
-3.9318
-3.95333
-3.98018
-4.0129
-4.05202
-4.09777
-4.14977
-4.2069
-4.26743
-4.32904
-4.38965
-4.44779
-4.50452
-4.56353
-4.63038
-4.71004
-4.80492
-4.91451
-5.03627
-4.05373
-4.05987
-4.06868
-4.08191
-4.09982
-4.12268
-4.15096
-4.18516
-4.22567
-4.27263
-4.32567
-4.38376
-4.44537
-4.50878
-4.5727
-4.63684
-4.70247
-4.7725
-4.85078
-4.94071
-5.04397
-5.16069
-5.28935
-4.21585
-4.22191
-4.23127
-4.24528
-4.26416
-4.28819
-4.31779
-4.3534
-4.39539
-4.44384
-4.4984
-4.55823
-4.6221
-4.68877
-4.75756
-4.8287
-4.90354
-4.98445
-5.07417
-5.17518
-5.28884
-5.41577
-5.5551
-4.37427
-4.38033
-4.39014
-4.40483
-4.42459
-4.44969
-4.48054
-4.51757
-4.56113
-4.61132
-4.66784
-4.73004
-4.79699
-4.86786
-4.94239
-5.0211
-5.10534
-5.19715
-5.29866
-5.41182
-5.53788
-5.67798
-5.83169
-4.52861
-4.53472
-4.54491
-4.56024
-4.58083
-4.60696
-4.63904
-4.6775
-4.72271
-4.77482
-4.83363
-4.89864
-4.96921
-5.04484
-5.12557
-5.21214
-5.30595
-5.40879
-5.52247
-5.64868
-5.78881
-5.94466
-6.11636
-4.67848
-4.6847
-4.69527
-4.7112
-4.7326
-4.75974
-4.79304
-4.83294
-4.87984
-4.93396
-4.99522
-5.06329
-5.13775
-5.2184
-5.30555
-5.40009
-5.50348
-5.61739
-5.74345
-5.88337
-6.03882
-6.21235
-6.40471
-4.82358
-4.82996
-4.84088
-4.85741
-4.8796
-4.90774
-4.94223
-4.98354
-5.03212
-5.08825
-5.152
-5.22318
-5.3016
-5.38731
-5.48081
-5.5832
-5.69598
-5.82078
-5.95922
-6.11311
-6.28455
-6.47681
-6.69131
-4.96363
-4.97019
-4.98147
-4.99858
-5.02154
-5.05064
-5.08627
-5.12892
-5.17908
-5.23714
-5.30327
-5.37748
-5.45975
-5.55034
-5.64994
-5.7598
-5.88151
-6.01673
-6.16717
-6.33482
-6.52219
-6.73321
-6.97005
-5.09837
-5.10514
-5.11675
-5.13442
-5.15811
-5.18809
-5.22476
-5.26863
-5.32023
-5.38003
-5.44835
-5.52534
-5.61119
-5.70632
-5.81156
-5.92829
-6.05818
-6.20303
-6.36466
-6.54527
-6.74774
-6.97639
-7.23416
-5.22759
-5.23457
-5.24648
-5.26465
-5.28898
-5.31974
-5.35732
-5.40222
-5.45504
-5.51631
-5.58649
-5.66591
-5.75493
-5.85408
-5.96434
-6.08712
-6.22423
-6.37759
-6.5492
-6.74144
-6.95744
-7.20165
-7.47748
-5.35109
-5.35824
-5.37041
-5.38899
-5.41385
-5.44525
-5.48355
-5.52927
-5.58301
-5.6454
-5.71702
-5.79837
-5.88997
-5.99249
-6.10696
-6.23483
-6.37797
-6.53848
-6.71853
-6.92068
-7.14817
-7.40538
-7.69588
-5.46872
-5.476
-5.48835
-5.50723
-5.53248
-5.56433
-5.60314
-5.64939
-5.70371
-5.76679
-5.83933
-5.922
-6.01546
-6.12051
-6.23822
-6.37004
-6.51788
-6.68396
-6.87069
-7.08079
-7.31754
-7.58512
-7.88698
-5.58038
-5.58772
-5.60017
-5.61922
-5.64468
-5.67678
-5.71584
-5.76231
-5.81683
-5.88013
-5.953
-6.03626
-6.13074
-6.23732
-6.35711
-6.49158
-6.64262
-6.81257
-7.00403
-7.21991
-7.4636
-7.73906
-8.04949
-5.68607
-5.69338
-5.70585
-5.7249
-5.75038
-5.7825
-5.82152
-5.86789
-5.9222
-5.98522
-6.0578
-6.14088
-6.23541
-6.3424
-6.46297
-6.59858
-6.75115
-6.9231
-7.11719
-7.33649
-7.58462
-7.86544
-8.1823
-5.78579
-5.79298
-5.80536
-5.82426
-5.84954
-5.8814
-5.92008
-5.96599
-6.01968
-6.0819
-6.15355
-6.23564
-6.32923
-6.43539
-6.55529
-6.69041
-6.84266
-7.01457
-7.20898
-7.42917
-7.67899
-7.96246
-8.28348
-5.87952
-5.88652
-5.89869
-5.91725
-5.94209
-5.97341
-6.01142
-6.05648
-6.1091
-6.17
-6.24006
-6.32033
-6.41192
-6.51597
-6.63367
-6.7665
-6.91643
-7.08601
-7.27821
-7.4965
-7.74497
-8.02802
-8.35047
-5.96742
-5.97416
-5.98598
-6.00401
-6.02814
-6.05861
-6.09557
-6.13937
-6.19045
-6.24947
-6.31728
-6.39489
-6.48344
-6.58405
-6.69794
-6.82658
-6.97196
-7.13666
-7.32379
-7.53695
-7.78045
-8.05914
-8.37918
-6.04994
-6.05639
-6.06771
-6.08501
-6.10818
-6.13747
-6.17303
-6.21515
-6.26421
-6.32079
-6.38567
-6.45982
-6.54429
-6.64019
-6.74868
-6.87122
-7.00976
-7.16687
-7.34572
-7.54997
-7.78403
-8.05318
-8.36469
-6.12742
-6.13358
-6.14426
-6.16066
-6.18262
-6.21045
-6.24425
-6.28428
-6.33085
-6.38445
-6.44577
-6.51567
-6.59513
-6.68516
-6.78684
-6.90154
-7.03111
-7.17804
-7.3454
-7.5367
-7.75627
-8.00946
-8.30407
-6.19936
-6.20523
-6.21514
-6.23048
-6.25101
-6.27706
-6.30874
-6.34624
-6.38982
-6.43987
-6.49696
-6.56184
-6.63538
-6.71846
-6.81207
-6.9174
-7.03616
-7.1706
-7.32351
-7.49805
-7.69808
-7.92836
-8.19661
-6.26493
-6.27051
-6.27951
-6.29362
-6.31247
-6.33642
-6.36556
-6.40004
-6.44006
-6.48589
-6.53798
-6.59697
-6.66358
-6.7386
-6.82284
-6.91733
-7.02351
-7.14329
-7.27898
-7.43315
-7.60878
-7.80979
-8.04307
-6.32552
-6.33087
-6.33885
-6.35158
-6.36854
-6.3901
-6.41633
-6.44734
-6.48324
-6.52421
-6.5706
-6.62289
-6.6817
-6.74766
-6.82144
-6.90381
-6.99588
-7.09906
-7.21502
-7.34548
-7.49231
-7.65835
-7.84877
-6.38593
-6.3912
-6.39813
-6.40944
-6.42446
-6.44351
-6.46667
-6.49399
-6.52553
-6.56139
-6.60182
-6.64718
-6.69798
-6.75469
-6.81776
-6.8877
-6.96517
-7.05101
-7.1461
-7.25117
-7.36689
-7.49457
-7.63701
-6.44861
-6.45392
-6.45992
-6.46985
-6.48298
-6.49956
-6.51964
-6.54328
-6.57051
-6.6014
-6.63612
-6.67494
-6.71819
-6.76618
-6.81913
-6.87726
-6.94079
-7.00999
-7.085
-7.16566
-7.25163
-7.34249
-7.43832
-6.50422
-6.50949
-6.51476
-6.52318
-6.53425
-6.54808
-6.56475
-6.58433
-6.60685
-6.63239
-6.66104
-6.69293
-6.72818
-6.76688
-6.80905
-6.85463
-6.9035
-6.95542
-7.00993
-7.06627
-7.12346
-7.17955
-7.2326
-6.5341
-6.5398
-6.54399
-6.55037
-6.55858
-6.5687
-6.58079
-6.59491
-6.6111
-6.62939
-6.64975
-6.67213
-6.69639
-6.72237
-6.74985
-6.77852
-6.8079
-6.8373
-6.86576
-6.89206
-6.91448
-6.93051
-6.93687
-31.068
16.3121
57.4841
36.5193
183.889
112.221
23.6255
-35.7775
214.679
154.23
99.4115
69.237
127.074
103.954
84.7262
72.8929
41.9817
43.3924
42.706
41.2721
0.0179142
2.21889
6.50842
11.8817
-2.3537
-2.18327
-2.09245
-2.28316
-3.03578
-3.111
-2.86505
-3.0067
-3.22258
-3.43241
-3.6021
-3.76471
-3.75576
-3.92697
-4.0348
-4.12742
-3.97041
-4.05422
-4.14401
-4.23277
-4.11759
-4.19507
-4.27106
-4.34271
-4.28442
-4.35076
-4.41664
-4.48121
-4.46571
-4.52813
-4.59049
-4.65163
-4.66905
-4.72953
-4.79003
-4.84991
-4.8909
-4.9517
-5.013
-5.07446
-5.13235
-5.19552
-5.25985
-5.32536
-5.39131
-5.4591
-5.529
-5.60133
-5.66606
-5.74046
-5.81779
-5.89843
-5.95491
-6.03811
-6.1247
-6.21511
-6.25542
-6.35016
-6.44896
-6.55293
-6.56236
-6.67061
-6.78417
-6.90516
-6.86902
-6.99158
-7.12104
-7.25956
-7.16828
-7.30564
-7.45203
-7.60896
-7.45144
-7.60267
-7.76525
-7.94065
-7.71041
-7.87255
-8.0473
-8.23643
-7.94066
-8.1103
-8.29252
-8.48881
-8.14052
-8.31534
-8.50213
-8.7016
-8.30942
-8.48803
-8.67813
-8.87982
-8.44725
-8.62881
-8.82171
-9.02595
-8.55266
-8.73711
-8.93338
-9.14138
-8.62299
-8.81034
-9.01072
-9.22428
-8.65275
-8.84196
-9.04614
-9.2657
-8.63395
-8.82173
-9.02655
-9.24793
-8.5605
-8.74063
-8.93846
-9.15446
-8.43092
-8.59561
-8.77714
-8.97591
-8.24572
-8.38781
-8.544
-8.71425
-8.01202
-8.12567
-8.24947
-8.38279
-7.7552
-7.83622
-7.92297
-8.01444
-7.51198
-7.56031
-7.60973
-7.65902
-7.26697
-7.28662
-7.30337
-7.31596
-6.93104
-6.92295
-6.90996
-6.8912
43.1124
49.9842
51.9883
51.9285
51.8902
51.9577
51.9997
52.0288
52.0437
52.066
52.0858
52.0918
52.0818
52.0586
52.0272
51.9931
51.9619
51.9383
51.9257
-3.77632
31.8587
47.9129
51.3866
51.5405
51.7802
51.8796
51.9082
51.912
51.9502
51.9865
51.9952
51.9778
51.941
51.8928
51.8412
51.7944
51.7591
51.7402
26.6149
-16.2415
2.28113
30.5807
47.4098
51.5669
51.77
51.635
51.725
51.8413
51.9059
51.9146
51.8836
51.8258
51.7526
51.6756
51.606
51.5539
51.5262
47.7667
15.133
5.54562
-9.52192
-1.63705
23.4556
47.5589
50.9936
51.4205
51.7694
51.8644
51.8587
51.802
51.7119
51.6027
51.4891
51.3872
51.3112
51.2711
38.4232
28.8192
17.2486
5.03724
2.19844
-1.45296
16.2579
32.3696
50.7925
51.932
51.9045
51.8333
51.7353
51.5976
51.4364
51.271
51.1234
51.0141
50.9569
19.4605
28.9629
30.3576
22.8312
15.8833
11.3308
15.8329
18.6817
29.6932
50.6948
52.02
51.8567
51.6711
51.4759
51.2438
51.0041
50.7924
50.6374
50.5572
-2.94456
-2.9504
1.86533
8.58689
23.5354
29.1262
7.98628
2.87729
17.3929
38.17
50.3645
51.8822
51.629
51.3164
51.0045
50.6618
50.3597
50.144
50.0341
-3.50173
-4.2347
-4.39566
-4.29068
-4.2048
-3.00288
8.84559
1.17648
0.462541
24.476
46.4335
51.2487
51.5028
51.1071
50.6666
50.1934
49.7711
49.479
49.3342
-4.04409
-4.38228
-4.54728
-4.58121
-4.64187
-4.80378
-4.92966
0.100974
-8.31112
9.19994
30.4807
46.8527
50.823
50.6316
50.0894
49.4892
48.9357
48.5642
48.3852
-4.28731
-4.47545
-4.61196
-4.68215
-4.74731
-4.83481
-4.90006
-5.0622
-3.10896
-2.40788
20.4211
38.497
48.8991
49.6041
49.0311
48.3664
47.721
47.2958
47.0973
-4.37035
-4.52309
-4.64249
-4.73351
-4.81149
-4.89942
-4.96733
-4.99173
-4.49018
-12.6055
7.1572
28.7843
45.8895
47.5156
47.101
46.5398
45.9496
45.5576
45.3759
-4.45852
-4.59484
-4.69694
-4.77417
-4.86972
-4.97472
-5.06071
-5.15171
-5.22045
-6.14602
-1.49354
15.5203
37.9247
43.9925
44.2141
43.8795
43.5086
43.2714
43.1557
-4.5877
-4.71861
-4.82452
-4.91524
-5.00497
-5.10619
-5.20276
-5.29474
-5.38019
-4.66517
-0.892765
11.6486
31.3311
39.3081
40.266
40.3666
40.3983
40.447
40.4413
-4.75276
-4.88168
-4.99437
-5.10076
-5.20568
-5.31365
-5.40541
-5.46369
-5.46713
-4.57723
0.700609
6.4351
21.9755
33.6281
35.5317
36.2166
36.7982
37.2065
37.3316
-4.95052
-5.08435
-5.21191
-5.33903
-5.45795
-5.57302
-5.67255
-5.72109
-5.72099
-5.22555
-0.134364
2.88688
15.7148
28.1418
30.5433
31.8055
33.0391
33.7715
34.0132
-5.17898
-5.32305
-5.47101
-5.62577
-5.76697
-5.89409
-6.00866
-6.06855
-6.09062
-5.95597
-1.51834
2.73791
12.8673
23.7266
25.8608
27.7467
29.5191
30.3797
30.7034
-5.43729
-5.5944
-5.7628
-5.94621
-6.11545
-6.2656
-6.41211
-6.48377
-6.47964
-6.44462
-1.76422
3.47795
11.5164
21.0085
22.4491
24.6657
26.4513
27.2299
27.5836
-5.72526
-5.90374
-6.10073
-6.31543
-6.50061
-6.65863
-6.8134
-6.87979
-6.80788
-6.56083
-2.12487
5.29711
11.1589
18.171
20.2194
22.3269
23.7259
24.3928
24.7391
-6.03762
-6.24563
-6.48692
-6.75641
-6.97001
-7.12711
-7.27246
-7.28259
-7.10119
-6.59752
1.61226
11.4518
13.3973
16.1247
18.441
20.1981
21.2428
21.853
22.1721
-6.37155
-6.60699
-6.88653
-7.21742
-7.50698
-7.68842
-7.84365
-7.84074
-7.48003
-6.85871
5.95565
10.5942
14.8097
15.2834
16.8429
18.1185
18.9965
19.5673
19.8579
-6.7328
-7.00329
-7.31963
-7.68538
-8.01792
-8.24785
-8.44755
-8.57214
-8.38465
-6.02257
4.85946
8.84091
13.4029
14.0389
15.2631
16.1973
16.9891
17.4994
17.777
-7.1166
-7.45071
-7.86078
-8.30874
-8.58495
-8.69621
-9.10338
-9.3167
-6.289
-3.19317
6.73008
9.53438
11.0932
12.3909
13.5854
14.4655
15.1852
15.6337
15.901
-7.50569
-7.91611
-8.44423
-9.07468
-9.31363
-9.2959
-10.5669
-14.3427
-2.80875
4.38034
7.28479
8.96919
9.59425
10.9904
12.0424
12.9155
13.5601
13.9588
14.2037
-7.89333
-8.37019
-8.97339
-9.72627
-10.0476
-10.8742
-14.6817
-9.62897
2.53854
9.19015
9.15486
8.12504
8.63993
9.87491
10.777
11.5545
12.1072
12.458
12.6682
-8.2635
-8.80366
-9.53757
-10.3683
-10.8941
-12.5853
-24.3223
-11.1129
4.0513
8.42128
7.48984
7.55435
8.0058
8.9086
9.70824
10.3497
10.8097
11.1084
11.2763
-8.58335
-9.16928
-10.0413
-11.0327
-12.0262
-13.5254
-27.228
-9.78803
3.88967
6.07077
6.30099
6.76437
7.40462
8.10786
8.76338
9.26695
9.6385
9.88248
10.0067
-8.84299
-9.4408
-10.2835
-11.1517
-12.7722
-17.2267
-30.917
-5.63143
3.47008
5.46156
5.81735
6.31753
6.88257
7.43919
7.91677
8.28553
8.56611
8.75432
8.83647
-9.05692
-9.64852
-10.3629
-10.9986
-11.9321
-10.4317
-27.6511
-5.79566
3.8351
5.63019
5.83178
6.20836
6.54026
6.86128
7.14121
7.37612
7.56428
7.69801
7.74312
-9.23711
-9.82027
-10.4694
-11.1828
-11.7318
-11.8977
-11.9113
-1.17805
5.61768
5.84904
6.07182
6.16183
6.20646
6.28923
6.39033
6.50172
6.60402
6.68772
6.70482
-9.38747
-9.96558
-10.599
-11.3498
-11.8729
-12.2723
-12.2064
-1.59809
3.18529
5.76979
6.34345
5.96674
5.78133
5.66266
5.6178
5.62708
5.65929
5.70005
5.70302
-9.50989
-10.0934
-10.7391
-11.5049
-11.9861
-12.3261
-11.4125
-5.71009
1.65854
6.1895
6.0956
5.64894
5.22322
4.93482
4.7851
4.72283
4.71013
4.71584
4.7237
-9.60417
-10.2071
-10.8952
-11.6886
-12.1723
-12.4296
-10.1492
-15.9546
-9.23532
2.1041
5.22573
5.07635
4.42321
4.05184
3.86084
3.7689
3.73892
3.72246
3.7546
-9.65972
-10.2981
-11.0669
-11.9835
-12.7118
-13.1455
-14.0483
-17.4294
-18.2757
-1.82661
4.18177
3.95085
3.23044
2.96244
2.8184
2.74967
2.73876
2.71986
2.78429
-9.64981
-10.3346
-11.2067
-12.3131
-13.5239
-14.394
-16.3172
-17.4935
-29.0538
-11.6283
0.161382
1.59302
1.47509
1.63795
1.6502
1.67149
1.71281
1.71268
1.80775
-9.55052
-10.2549
-11.1917
-12.4783
-14.1153
-15.7377
-18.8739
-25.7568
-38.904
-20.1771
-7.18943
-2.16566
-0.486621
0.163054
0.419198
0.570169
0.677425
0.715615
0.830294
-9.34337
-10.0141
-10.9314
-12.2605
-14.1584
-16.8904
-22.3482
-34.8003
-43.6064
-24.4826
-12.3768
-5.07746
-2.03404
-1.21989
-0.753393
-0.496694
-0.331931
-0.256751
-0.137759
-9.02913
-9.60666
-10.3962
-11.5535
-13.3444
-16.5038
-22.8831
-33.5763
-38.0466
-26.2272
-14.1457
-6.31105
-3.1764
-2.38248
-1.79154
-1.48542
-1.28939
-1.18832
-1.08361
-8.62724
-9.06776
-9.64961
-10.4767
-11.7879
-14.099
-17.9439
-22.4679
-24.4578
-20.389
-11.903
-6.49776
-4.03912
-3.27398
-2.68132
-2.37902
-2.18285
-2.07318
-1.9979
-8.17911
-8.46376
-8.81809
-9.29055
-9.99949
-11.0973
-12.4856
-13.8187
-14.3598
-12.5135
-8.62439
-5.91379
-4.5522
-3.90556
-3.43651
-3.18115
-3.01299
-2.91304
-2.87552
-7.74292
-7.87136
-8.01112
-8.18342
-8.4373
-8.80355
-9.17641
-9.3767
-9.1155
-8.07321
-6.62931
-5.50015
-4.82103
-4.40193
-4.10257
-3.92251
-3.80101
-3.72384
-3.72091
-7.32915
-7.32221
-7.27752
-7.20372
-7.14686
-7.14756
-7.18443
-7.12409
-6.85652
-6.38116
-5.82874
-5.38564
-5.07781
-4.86924
-4.71881
-4.62049
-4.55157
-4.50318
-4.53045
-6.84795
-6.74457
-6.58285
-6.36298
-6.1336
-6.00315
-5.96166
-5.9268
-5.91565
-5.92041
-5.76377
-5.63184
-5.54078
-5.47934
-5.43145
-5.39694
-5.37436
-5.35401
-5.35914
)
;

boundaryField
{
    leftWall
    {
        type            calculated;
        value           nonuniform List<scalar> 
50
(
1303.89
1244.07
1183.3
1121.67
1059.26
996.157
932.552
868.511
767.736
629.231
490.5
352.579
217.839
97.9638
26.8441
-2.41548
-2.55051
-2.71296
-2.88036
-3.04448
-3.2115
-3.38091
-3.55097
-3.72053
-3.88842
-4.05373
-4.21585
-4.37427
-4.52861
-4.67848
-4.82358
-4.96363
-5.09837
-5.22759
-5.35109
-5.46872
-5.58038
-5.68607
-5.78579
-5.87952
-5.96742
-6.04994
-6.12742
-6.19936
-6.26493
-6.32552
-6.38593
-6.44861
-6.50422
-6.5341
)
;
    }
    rightWall
    {
        type            calculated;
        value           nonuniform List<scalar> 
50
(
52.5158
52.4557
52.3936
52.3293
52.2629
52.1941
52.1226
52.0479
51.9257
51.7402
51.5262
51.2711
50.9569
50.5572
50.0341
49.3342
48.3852
47.0973
45.3759
43.1557
40.4413
37.3316
34.0132
30.7034
27.5836
24.7391
22.1721
19.8579
17.777
15.901
14.2037
12.6682
11.2763
10.0067
8.83647
7.74312
6.70482
5.70302
4.7237
3.7546
2.78429
1.80775
0.830294
-0.137759
-1.08361
-1.9979
-2.87552
-3.72091
-4.53045
-5.35914
)
;
    }
    lowerWall
    {
        type            calculated;
        value           nonuniform List<scalar> 
62
(
1333.32
1337.97
1343.01
1343.32
1337.08
1326.35
1314.08
1301.93
1290.59
1280.53
1272.34
1266.8
1264.93
1268.12
1278.44
1297.48
1326.72
1365.49
1407.59
1438.33
1434.68
1408.95
1450.82
1427.1
1365.77
1318.12
1287.23
1240.45
1160.86
1033.6
848.166
31.2229
78.7807
119.363
47.8736
52.5235
52.4618
52.3959
52.3277
52.2495
52.1048
51.8265
51.6579
52.5529
52.4957
52.4596
52.4633
52.4781
52.4967
52.5192
52.541
52.5592
52.573
52.5822
52.5863
52.5854
52.5803
52.5725
52.5635
52.5551
52.5487
52.5452
)
;
    }
    atmosphere
    {
        type            calculated;
        value           nonuniform List<scalar> 
46
(
-6.52617
-6.53351
-6.53628
-6.54114
-6.54729
-6.55476
-6.56359
-6.57381
-6.58543
-6.59844
-6.61273
-6.62811
-6.64429
-6.66098
-6.6778
-6.69429
-6.70976
-6.72331
-6.73374
-6.73963
-6.73913
-6.72969
-6.70798
-6.68034
-6.65784
-6.6305
-6.59812
-6.53101
-6.40145
-6.23058
-6.03133
-5.84208
-5.73216
-5.73163
-5.75097
-5.84367
-6.00976
-5.78118
-5.73226
-5.72916
-5.72904
-5.72904
-5.72904
-5.72904
-5.72904
-5.72904
)
;
    }
    defaultFaces
    {
        type            empty;
    }
}


// ************************************************************************* //
