/*--------------------------------*- C++ -*----------------------------------*\
| =========                 |                                                 |
| \\      /  F ield         | OpenFOAM: The Open Source CFD Toolbox           |
|  \\    /   O peration     | Version:  2012                                  |
|   \\  /    A nd           | Website:  www.openfoam.com                      |
|    \\/     M anipulation  |                                                 |
\*---------------------------------------------------------------------------*/
FoamFile
{
    version     2.0;
    format      ascii;
    class       volVectorField;
    location    "0.3";
    object      U;
}
// * * * * * * * * * * * * * * * * * * * * * * * * * * * * * * * * * * * * * //

dimensions      [0 1 -1 0 0 0 0];


internalField   nonuniform List<vector> 
2268
(
(-0.0200693 0.00260131 0)
(0.00140049 -0.00979552 0)
(0.0639832 -0.0164235 0)
(0.137355 -0.0176034 0)
(0.209199 -0.015809 0)
(0.271893 -0.0132841 0)
(0.323934 -0.0111506 0)
(0.36788 -0.00968244 0)
(0.406871 -0.00875151 0)
(0.442823 -0.00809277 0)
(0.476265 -0.00744017 0)
(0.506693 -0.00657488 0)
(0.532826 -0.00533535 0)
(0.552562 -0.00354858 0)
(0.563777 -0.000236571 0)
(0.557937 0.00622499 0)
(0.523566 0.0175385 0)
(0.445703 0.0344855 0)
(0.307158 0.0519776 0)
(0.111113 0.055194 0)
(-0.115681 0.0123403 0)
(-0.227995 -0.0343502 0)
(-0.0734769 -0.0764961 0)
(-0.0199317 0.0074358 0)
(0.00288289 -0.029777 0)
(0.0660204 -0.0495429 0)
(0.139503 -0.0530036 0)
(0.21097 -0.0476478 0)
(0.27319 -0.0401391 0)
(0.325033 -0.0338085 0)
(0.36915 -0.0294699 0)
(0.408602 -0.0267278 0)
(0.445193 -0.0247841 0)
(0.479375 -0.022844 0)
(0.510597 -0.0202746 0)
(0.537625 -0.0165867 0)
(0.558808 -0.0112943 0)
(0.571552 -0.00310525 0)
(0.578306 0.00970393 0)
(0.581063 0.0302374 0)
(0.575703 0.0623871 0)
(0.539297 0.105385 0)
(0.418225 0.143926 0)
(0.193988 0.127478 0)
(-0.0985629 0.049199 0)
(0.0385277 -0.126764 0)
(-0.0190212 0.0116565 0)
(0.00544976 -0.0499871 0)
(0.0690126 -0.0825619 0)
(0.142019 -0.0879567 0)
(0.212175 -0.0789252 0)
(0.272954 -0.0665112 0)
(0.323884 -0.0561681 0)
(0.367805 -0.0491696 0)
(0.407637 -0.044785 0)
(0.44497 -0.041658 0)
(0.48008 -0.0384808 0)
(0.512328 -0.0342372 0)
(0.540472 -0.0281636 0)
(0.562912 -0.0195598 0)
(0.577664 -0.00775184 0)
(0.582533 0.00816717 0)
(0.576561 0.0310682 0)
(0.563266 0.0668761 0)
(0.555587 0.123086 0)
(0.537288 0.193127 0)
(0.443901 0.222026 0)
(0.204494 0.126189 0)
(0.14068 -0.0834654 0)
(-0.0177648 0.0147972 0)
(0.00930245 -0.0707278 0)
(0.0732604 -0.115559 0)
(0.145394 -0.122312 0)
(0.213652 -0.109437 0)
(0.2725 -0.0923051 0)
(0.322318 -0.0782977 0)
(0.366143 -0.0689881 0)
(0.406669 -0.0632197 0)
(0.445165 -0.0590602 0)
(0.48166 -0.0547209 0)
(0.51539 -0.0488483 0)
(0.545113 -0.0404666 0)
(0.569285 -0.0287603 0)
(0.586155 -0.0129455 0)
(0.593946 0.00833139 0)
(0.591076 0.0368339 0)
(0.576184 0.0752901 0)
(0.555672 0.128961 0)
(0.549137 0.204912 0)
(0.540855 0.269783 0)
(0.392092 0.217532 0)
(0.227706 0.0277137 0)
(-0.0159519 0.016404 0)
(0.0142621 -0.0920765 0)
(0.0784338 -0.14833 0)
(0.149201 -0.1557 0)
(0.214998 -0.138838 0)
(0.271556 -0.117327 0)
(0.320199 -0.100174 0)
(0.364107 -0.0890198 0)
(0.405633 -0.0821839 0)
(0.445637 -0.0771596 0)
(0.483853 -0.0717294 0)
(0.519387 -0.0642689 0)
(0.551003 -0.0536383 0)
(0.577272 -0.0389315 0)
(0.596659 -0.0192324 0)
(0.607661 0.00667093 0)
(0.609122 0.0403638 0)
(0.599909 0.0838026 0)
(0.579482 0.137601 0)
(0.553189 0.20657 0)
(0.553245 0.287983 0)
(0.466637 0.299224 0)
(0.281559 0.180345 0)
(-0.0134921 0.0160763 0)
(0.0201155 -0.114198 0)
(0.0842638 -0.180726 0)
(0.153163 -0.187876 0)
(0.216013 -0.166918 0)
(0.270088 -0.141491 0)
(0.317656 -0.121851 0)
(0.361907 -0.109417 0)
(0.404733 -0.101874 0)
(0.446512 -0.0961646 0)
(0.486676 -0.0897209 0)
(0.524214 -0.0807269 0)
(0.557934 -0.0679383 0)
(0.586547 -0.0503866 0)
(0.608714 -0.0271294 0)
(0.623143 0.00298277 0)
(0.628885 0.0413113 0)
(0.624794 0.0895572 0)
(0.611266 0.148284 0)
(0.579249 0.215945 0)
(0.55575 0.302734 0)
(0.489831 0.371959 0)
(0.308559 0.355444 0)
(-0.010526 0.0138772 0)
(0.0266369 -0.137302 0)
(0.0906018 -0.212747 0)
(0.157117 -0.218866 0)
(0.216659 -0.193754 0)
(0.268242 -0.164886 0)
(0.31498 -0.143404 0)
(0.359897 -0.130221 0)
(0.404305 -0.122288 0)
(0.44807 -0.116028 0)
(0.490343 -0.108609 0)
(0.530055 -0.0981101 0)
(0.5661 -0.0832446 0)
(0.597327 -0.0630198 0)
(0.622528 -0.0364894 0)
(0.64051 -0.00263819 0)
(0.650491 0.0397901 0)
(0.651294 0.0922117 0)
(0.643734 0.156698 0)
(0.619265 0.23073 0)
(0.581449 0.324732 0)
(0.515341 0.435647 0)
(0.352311 0.531778 0)
(-0.00718351 0.00993296 0)
(0.0335373 -0.16144 0)
(0.097192 -0.244316 0)
(0.160971 -0.248591 0)
(0.217133 -0.2194 0)
(0.266471 -0.187654 0)
(0.312763 -0.164938 0)
(0.358704 -0.151433 0)
(0.404957 -0.143313 0)
(0.450896 -0.136547 0)
(0.495459 -0.128129 0)
(0.537586 -0.116118 0)
(0.576283 -0.0992333 0)
(0.610487 -0.0764561 0)
(0.639 -0.0468005 0)
(0.660655 -0.00926014 0)
(0.674713 0.0371598 0)
(0.68049 0.0935494 0)
(0.67784 0.162488 0)
(0.664381 0.244033 0)
(0.629237 0.349312 0)
(0.573442 0.498642 0)
(0.344893 0.762216 0)
(0.108514 -0.0431008 0)
(0.262454 -0.0180399 0)
(0.286042 0.00684932 0)
(0.237979 0.00701428 0)
(0.211607 0.00310734 0)
(0.209122 0.000416515 0)
(0.215795 -0.00189343 0)
(0.229294 -0.00292355 0)
(0.244659 -0.00264962 0)
(0.257253 -0.00162395 0)
(0.263146 8.99402e-05 0)
(0.260288 0.00177598 0)
(0.248606 0.00351674 0)
(0.228023 0.00519692 0)
(0.1993 0.00672618 0)
(0.163213 0.00803543 0)
(0.121051 0.00904837 0)
(0.0743655 0.00974654 0)
(0.0250014 0.0102514 0)
(0.137137 -0.130969 0)
(0.285916 -0.0442176 0)
(0.297834 0.0231112 0)
(0.243617 0.0184329 0)
(0.218542 0.00708339 0)
(0.218103 -0.000774151 0)
(0.227334 -0.00751809 0)
(0.24381 -0.0104848 0)
(0.262088 -0.00963239 0)
(0.277335 -0.00652449 0)
(0.286608 -0.00173346 0)
(0.288701 0.00374764 0)
(0.281505 0.00963976 0)
(0.263496 0.0155594 0)
(0.234529 0.0211336 0)
(0.195085 0.0260651 0)
(0.146473 0.0300223 0)
(0.090735 0.0328096 0)
(0.0305237 0.0340339 0)
(0.187814 -0.24833 0)
(0.348593 -0.0646475 0)
(0.309554 0.0465361 0)
(0.233783 0.0300741 0)
(0.212394 0.0118117 0)
(0.214171 -0.00225418 0)
(0.224459 -0.0138545 0)
(0.242737 -0.0185998 0)
(0.262503 -0.0171606 0)
(0.278647 -0.0119832 0)
(0.287999 -0.00436 0)
(0.289127 0.00491896 0)
(0.280942 0.0151068 0)
(0.262346 0.0256041 0)
(0.233234 0.0357035 0)
(0.193955 0.0448079 0)
(0.145661 0.0522569 0)
(0.0902756 0.0575572 0)
(0.0303477 0.0599138 0)
(0.178926 -0.379314 0)
(0.41322 -0.0738248 0)
(0.321861 0.0802571 0)
(0.217123 0.0453143 0)
(0.20267 0.0186889 0)
(0.207233 -0.00453753 0)
(0.219971 -0.0213288 0)
(0.241493 -0.0275362 0)
(0.263743 -0.0252816 0)
(0.28147 -0.0176745 0)
(0.291779 -0.00666686 0)
(0.293173 0.00650703 0)
(0.284718 0.020952 0)
(0.265533 0.0359237 0)
(0.235687 0.0504541 0)
(0.195679 0.0636509 0)
(0.146752 0.0745502 0)
(0.0908715 0.0823503 0)
(0.0305381 0.0858494 0)
(0.0944936 -0.513072 0)
(0.409535 -0.054768 0)
(0.307306 0.11129 0)
(0.187262 0.0602099 0)
(0.187777 0.0267446 0)
(0.196504 -0.00940529 0)
(0.213931 -0.0305892 0)
(0.240086 -0.0377539 0)
(0.265721 -0.0344383 0)
(0.285671 -0.0240559 0)
(0.297413 -0.00942439 0)
(0.299648 0.00792306 0)
(0.291545 0.0268474 0)
(0.272265 0.0464605 0)
(0.241857 0.0655143 0)
(0.200877 0.08284 0)
(0.150662 0.0971859 0)
(0.093288 0.107461 0)
(0.031359 0.112073 0)
(0.0134809 -0.665226 0)
(0.303395 -0.0255369 0)
(0.213891 0.141081 0)
(0.14014 0.079308 0)
(0.167272 0.0345533 0)
(0.179958 -0.0188294 0)
(0.205985 -0.0420241 0)
(0.238351 -0.049701 0)
(0.268327 -0.0449693 0)
(0.291153 -0.0312979 0)
(0.304702 -0.0126929 0)
(0.30802 0.00905348 0)
(0.300463 0.0326451 0)
(0.281233 0.0571112 0)
(0.250293 0.0809122 0)
(0.208187 0.102566 0)
(0.1563 0.120507 0)
(0.0968382 0.133358 0)
(0.0325726 0.139137 0)
(-0.0406528 -0.801465 0)
(0.164499 -0.158046 0)
(-0.0922999 0.065342 0)
(0.0538871 0.0808422 0)
(0.141129 0.037477 0)
(0.160691 -0.0382454 0)
(0.198192 -0.0574887 0)
(0.23674 -0.0643106 0)
(0.271771 -0.0572989 0)
(0.298027 -0.0396052 0)
(0.313654 -0.0165777 0)
(0.318263 0.00980573 0)
(0.311378 0.0382895 0)
(0.292245 0.0678465 0)
(0.260696 0.0967088 0)
(0.217248 0.122988 0)
(0.163327 0.144767 0)
(0.10128 0.160381 0)
(0.0340937 0.167427 0)
(-0.0840605 -0.796913 0)
(-0.019132 0.279959 0)
(-0.576785 0.198688 0)
(-0.0210213 -0.0290764 0)
(0.119523 0.00969161 0)
(0.146002 -0.0577913 0)
(0.196686 -0.0715301 0)
(0.237971 -0.0816453 0)
(0.277158 -0.0714149 0)
(0.306949 -0.0489585 0)
(0.324625 -0.0211819 0)
(0.330533 0.0101008 0)
(0.324367 0.0437776 0)
(0.305351 0.0786518 0)
(0.273099 0.112831 0)
(0.228046 0.144003 0)
(0.171698 0.169833 0)
(0.106569 0.188387 0)
(0.0358992 0.196786 0)
(-0.00176593 -0.00183113 0)
(0.0443608 -0.201462 0)
(0.107284 -0.291837 0)
(0.166582 -0.291358 0)
(0.217987 -0.256534 0)
(0.264826 -0.222247 0)
(0.311353 -0.199384 0)
(0.359428 -0.186467 0)
(0.408703 -0.178581 0)
(0.457936 -0.171278 0)
(0.505908 -0.161566 0)
(0.551682 -0.147597 0)
(0.594428 -0.128105 0)
(0.633195 -0.10192 0)
(0.666948 -0.0679707 0)
(0.694866 -0.0253563 0)
(0.7163 0.027297 0)
(0.731162 0.09089 0)
(0.737868 0.168231 0)
(0.742156 0.259819 0)
(0.732845 0.378694 0)
(0.781004 0.524201 0)
(0.784195 0.8836 0)
(0.00588017 -0.0261444 0)
(0.0594028 -0.258495 0)
(0.120612 -0.353451 0)
(0.173439 -0.344528 0)
(0.218998 -0.303572 0)
(0.263664 -0.268738 0)
(0.31142 -0.248123 0)
(0.362446 -0.237433 0)
(0.415035 -0.230527 0)
(0.467402 -0.222825 0)
(0.518372 -0.211663 0)
(0.567273 -0.195353 0)
(0.613627 -0.172559 0)
(0.657009 -0.141953 0)
(0.697029 -0.102546 0)
(0.734037 -0.0544607 0)
(0.768251 0.0010438 0)
(0.799708 0.0646442 0)
(0.82579 0.141993 0)
(0.852246 0.230969 0)
(0.876867 0.337837 0)
(0.942503 0.449183 0)
(1.03793 0.631732 0)
(0.0148007 -0.0630416 0)
(0.0754711 -0.31967 0)
(0.131685 -0.409767 0)
(0.176011 -0.390646 0)
(0.216328 -0.346951 0)
(0.259988 -0.315552 0)
(0.308862 -0.299311 0)
(0.360969 -0.291091 0)
(0.413846 -0.28436 0)
(0.465955 -0.275112 0)
(0.516768 -0.261422 0)
(0.566169 -0.241508 0)
(0.614812 -0.214612 0)
(0.663484 -0.180207 0)
(0.712334 -0.137519 0)
(0.760412 -0.0849204 0)
(0.806517 -0.0204643 0)
(0.85299 0.062173 0)
(0.894135 0.153875 0)
(0.929437 0.246735 0)
(0.968997 0.333888 0)
(1.02275 0.408999 0)
(1.10663 0.468507 0)
(0.0254104 -0.113501 0)
(0.0961911 -0.381485 0)
(0.141736 -0.455659 0)
(0.172871 -0.42777 0)
(0.208049 -0.386526 0)
(0.251612 -0.361311 0)
(0.301318 -0.349106 0)
(0.353771 -0.341893 0)
(0.407371 -0.334462 0)
(0.46198 -0.324296 0)
(0.518871 -0.310904 0)
(0.57885 -0.292804 0)
(0.642944 -0.272207 0)
(0.712769 -0.248322 0)
(0.790682 -0.219944 0)
(0.874266 -0.183742 0)
(0.954964 -0.134669 0)
(1.0124 -0.0675225 0)
(1.03856 0.0122489 0)
(1.04668 0.100565 0)
(1.05911 0.192825 0)
(1.0844 0.285743 0)
(1.13884 0.357638 0)
(0.0397806 -0.187836 0)
(0.133485 -0.43756 0)
(0.161302 -0.48307 0)
(0.171421 -0.454774 0)
(0.202912 -0.425867 0)
(0.251398 -0.410795 0)
(0.307889 -0.404176 0)
(0.368683 -0.401382 0)
(0.434007 -0.399397 0)
(0.506536 -0.397266 0)
(0.592427 -0.396082 0)
(0.688225 -0.394265 0)
(0.789222 -0.387957 0)
(0.90382 -0.374432 0)
(1.03488 -0.346716 0)
(1.17201 -0.289553 0)
(1.29113 -0.192286 0)
(1.35286 -0.0409826 0)
(1.3118 0.102215 0)
(1.23615 0.197102 0)
(1.1765 0.252674 0)
(1.1478 0.294192 0)
(1.15787 0.32626 0)
(0.0672673 -0.290974 0)
(0.192417 -0.50096 0)
(0.201303 -0.497318 0)
(0.188518 -0.479194 0)
(0.223395 -0.476159 0)
(0.286831 -0.477942 0)
(0.358408 -0.480392 0)
(0.435394 -0.485316 0)
(0.523618 -0.493268 0)
(0.631762 -0.505569 0)
(0.769029 -0.526904 0)
(0.889769 -0.517426 0)
(1.02556 -0.496895 0)
(1.16667 -0.468421 0)
(1.30314 -0.424372 0)
(1.41547 -0.336965 0)
(1.47979 -0.20736 0)
(1.50478 0.0149598 0)
(1.48191 0.198326 0)
(1.42851 0.293553 0)
(1.37571 0.337891 0)
(1.28737 0.348445 0)
(1.19547 0.336836 0)
(0.083597 -0.425928 0)
(0.229064 -0.612358 0)
(0.256437 -0.490442 0)
(0.242423 -0.48854 0)
(0.287911 -0.533277 0)
(0.36031 -0.564743 0)
(0.41511 -0.563355 0)
(0.481517 -0.560462 0)
(0.544923 -0.56901 0)
(0.616614 -0.591917 0)
(0.707703 -0.603854 0)
(0.837375 -0.545333 0)
(0.989257 -0.563375 0)
(1.14387 -0.578724 0)
(1.29641 -0.551751 0)
(1.42211 -0.445914 0)
(1.49404 -0.264688 0)
(1.49319 -0.0477382 0)
(1.43305 0.191921 0)
(1.3206 0.369931 0)
(1.19529 0.446326 0)
(1.11992 0.492222 0)
(1.07005 0.469904 0)
(0.00353242 -0.657216 0)
(0.0629203 -0.66238 0)
(0.183755 -0.494878 0)
(0.223495 -0.493466 0)
(0.247653 -0.55654 0)
(0.277007 -0.564566 0)
(0.317607 -0.560421 0)
(0.370086 -0.573562 0)
(0.436028 -0.611673 0)
(0.524534 -0.673343 0)
(0.636633 -0.733377 0)
(0.766915 -0.771053 0)
(0.906118 -0.801242 0)
(1.05725 -0.810422 0)
(1.21788 -0.74965 0)
(1.35164 -0.590738 0)
(1.44308 -0.32616 0)
(1.46337 0.0141761 0)
(1.34655 0.333763 0)
(1.15379 0.518311 0)
(1.04426 0.516441 0)
(1.07896 0.431251 0)
(1.23538 0.281731 0)
(-0.0404386 -0.571424 0)
(-0.0368629 -0.550429 0)
(0.0419926 -0.592062 0)
(0.127184 -0.58731 0)
(0.186467 -0.602206 0)
(0.228786 -0.619259 0)
(0.26882 -0.637401 0)
(0.317449 -0.667751 0)
(0.379553 -0.72391 0)
(0.458375 -0.803208 0)
(0.546169 -0.873631 0)
(0.649259 -0.903882 0)
(0.754427 -0.923329 0)
(0.85654 -0.962583 0)
(0.979421 -0.90172 0)
(1.08318 -0.717569 0)
(1.1619 -0.413407 0)
(1.20415 0.00157679 0)
(1.15225 0.431745 0)
(1.06718 0.624004 0)
(1.11611 0.531364 0)
(1.30336 0.307847 0)
(1.49112 0.0838001 0)
(-0.0260371 -0.54319 0)
(0.0127414 -0.738267 0)
(0.0680096 -0.694454 0)
(0.117486 -0.65781 0)
(0.164828 -0.654675 0)
(0.20834 -0.667855 0)
(0.247174 -0.68617 0)
(0.287721 -0.718177 0)
(0.331873 -0.779414 0)
(0.379327 -0.863448 0)
(0.421612 -0.939849 0)
(0.480024 -0.970289 0)
(0.534946 -1.00295 0)
(0.55969 -1.06197 0)
(0.585089 -0.96372 0)
(0.632407 -0.74425 0)
(0.667214 -0.409736 0)
(0.729499 0.0413044 0)
(0.779971 0.473648 0)
(0.897841 0.567238 0)
(1.16261 0.300785 0)
(1.36313 0.0546445 0)
(1.48748 -0.0809486 0)
(0.0162946 -0.560429 0)
(0.0500887 -0.766916 0)
(0.0777189 -0.72405 0)
(0.114559 -0.694152 0)
(0.154004 -0.694656 0)
(0.192336 -0.705077 0)
(0.226232 -0.719568 0)
(0.257436 -0.749796 0)
(0.282235 -0.809759 0)
(0.297617 -0.89072 0)
(0.299888 -0.965782 0)
(0.308168 -0.993866 0)
(0.321827 -1.00995 0)
(0.233585 -1.03802 0)
(0.203781 -0.910438 0)
(0.178744 -0.699869 0)
(0.185916 -0.358585 0)
(0.259597 0.0262623 0)
(0.458297 0.272867 0)
(0.802104 0.209767 0)
(1.06034 0.0501244 0)
(1.21405 -0.0576417 0)
(1.29261 -0.10222 0)
(0.0317721 -0.599082 0)
(0.058894 -0.793157 0)
(0.0772204 -0.749676 0)
(0.110745 -0.729426 0)
(0.146823 -0.731541 0)
(0.180769 -0.738746 0)
(0.211475 -0.748522 0)
(0.237276 -0.771173 0)
(0.250752 -0.818892 0)
(0.247123 -0.885396 0)
(0.226223 -0.947535 0)
(0.197668 -0.970389 0)
(0.179412 -0.950579 0)
(0.0803146 -0.963523 0)
(0.0362817 -0.86444 0)
(0.0351732 -0.689789 0)
(0.106875 -0.453862 0)
(0.273608 -0.250482 0)
(0.493123 -0.128727 0)
(0.721327 -0.0968563 0)
(0.89217 -0.0934289 0)
(0.997718 -0.121453 0)
(1.06108 -0.154558 0)
(0.0316466 -0.646419 0)
(0.0593417 -0.818367 0)
(0.0775915 -0.776207 0)
(0.109258 -0.762474 0)
(0.142289 -0.764973 0)
(0.173617 -0.769628 0)
(0.203434 -0.774696 0)
(0.229043 -0.787696 0)
(0.242694 -0.819494 0)
(0.238087 -0.867807 0)
(0.215554 -0.913786 0)
(0.180653 -0.934168 0)
(0.160576 -0.915537 0)
(0.115315 -0.908429 0)
(0.0770206 -0.857906 0)
(0.0742264 -0.760796 0)
(0.131823 -0.60419 0)
(0.252642 -0.419976 0)
(0.407876 -0.262306 0)
(0.57909 -0.192418 0)
(0.734353 -0.20064 0)
(0.869552 -0.234909 0)
(0.99246 -0.263262 0)
(0.0285995 -0.692223 0)
(0.0572347 -0.83931 0)
(0.0769577 -0.802232 0)
(0.107377 -0.793412 0)
(0.1385 -0.796093 0)
(0.168706 -0.799686 0)
(0.198776 -0.802544 0)
(0.227318 -0.808905 0)
(0.248104 -0.827255 0)
(0.254235 -0.858458 0)
(0.245083 -0.890656 0)
(0.226754 -0.909615 0)
(0.21174 -0.903462 0)
(0.202872 -0.887184 0)
(0.189449 -0.846521 0)
(0.178851 -0.779218 0)
(0.211328 -0.658956 0)
(0.296869 -0.531343 0)
(0.428759 -0.432385 0)
(0.58482 -0.389739 0)
(0.739742 -0.382497 0)
(0.879293 -0.386171 0)
(1.00244 -0.392146 0)
(0.0249809 -0.735342 0)
(0.0539771 -0.861344 0)
(0.0757212 -0.829057 0)
(0.105129 -0.823326 0)
(0.135073 -0.826268 0)
(0.164574 -0.829804 0)
(0.19452 -0.832681 0)
(0.225032 -0.836486 0)
(0.252274 -0.846471 0)
(0.270457 -0.865186 0)
(0.277662 -0.887085 0)
(0.277389 -0.901758 0)
(0.274439 -0.901643 0)
(0.275657 -0.885164 0)
(0.280535 -0.846706 0)
(0.30096 -0.793537 0)
(0.339668 -0.7204 0)
(0.412066 -0.644585 0)
(0.515333 -0.578709 0)
(0.637063 -0.533354 0)
(0.762876 -0.51136 0)
(0.883862 -0.504281 0)
(0.999111 -0.504061 0)
(0.0218309 -0.774805 0)
(0.050654 -0.884449 0)
(0.0740382 -0.856252 0)
(0.102689 -0.852497 0)
(0.131725 -0.855596 0)
(0.160443 -0.85932 0)
(0.18951 -0.863009 0)
(0.219553 -0.866886 0)
(0.24901 -0.873336 0)
(0.27409 -0.884616 0)
(0.291988 -0.898473 0)
(0.303501 -0.908021 0)
(0.311606 -0.907216 0)
(0.321039 -0.892853 0)
(0.338237 -0.865256 0)
(0.366181 -0.824022 0)
(0.410645 -0.772128 0)
(0.475347 -0.717657 0)
(0.561063 -0.671198 0)
(0.662714 -0.640392 0)
(0.773024 -0.625791 0)
(0.885385 -0.62044 0)
(0.997692 -0.619113 0)
(0.0194748 -0.811045 0)
(0.0477881 -0.908502 0)
(0.0721357 -0.883444 0)
(0.100114 -0.880983 0)
(0.12834 -0.884115 0)
(0.15631 -0.887876 0)
(0.184311 -0.892057 0)
(0.21275 -0.896564 0)
(0.24132 -0.901994 0)
(0.268073 -0.909258 0)
(0.290649 -0.917379 0)
(0.30873 -0.922539 0)
(0.324868 -0.920518 0)
(0.343122 -0.908914 0)
(0.36724 -0.887961 0)
(0.40089 -0.858971 0)
(0.448385 -0.82476 0)
(0.512195 -0.790646 0)
(0.59196 -0.762618 0)
(0.684267 -0.743923 0)
(0.785031 -0.734514 0)
(0.889726 -0.730628 0)
(0.997816 -0.730136 0)
(0.0177529 -0.844738 0)
(0.0453711 -0.933103 0)
(0.0701413 -0.910395 0)
(0.0974919 -0.908821 0)
(0.124996 -0.911935 0)
(0.152341 -0.915598 0)
(0.179574 -0.919795 0)
(0.206779 -0.924499 0)
(0.233953 -0.929592 0)
(0.26043 -0.934973 0)
(0.285102 -0.940018 0)
(0.307797 -0.942907 0)
(0.33023 -0.94128 0)
(0.355469 -0.933476 0)
(0.386596 -0.919862 0)
(0.42638 -0.901871 0)
(0.476843 -0.881612 0)
(0.539358 -0.861882 0)
(0.613742 -0.845952 0)
(0.698274 -0.836325 0)
(0.79125 -0.833398 0)
(0.889609 -0.83445 0)
(0.994171 -0.838446 0)
(0.0164838 -0.876388 0)
(0.0433209 -0.957854 0)
(0.0681165 -0.936954 0)
(0.0948543 -0.936027 0)
(0.121693 -0.939145 0)
(0.148487 -0.942752 0)
(0.175254 -0.946848 0)
(0.201939 -0.951453 0)
(0.228521 -0.956362 0)
(0.254955 -0.961197 0)
(0.281114 -0.965427 0)
(0.307212 -0.968122 0)
(0.334413 -0.968066 0)
(0.364733 -0.96453 0)
(0.400268 -0.957696 0)
(0.442837 -0.948327 0)
(0.493878 -0.937934 0)
(0.554241 -0.928681 0)
(0.624221 -0.922949 0)
(0.703192 -0.922429 0)
(0.790566 -0.927016 0)
(0.883973 -0.934324 0)
(0.98526 -0.944265 0)
(0.0155289 -0.90638 0)
(0.0415414 -0.982442 0)
(0.0660633 -0.963013 0)
(0.0921683 -0.962597 0)
(0.118354 -0.965774 0)
(0.144597 -0.969447 0)
(0.170961 -0.973599 0)
(0.197429 -0.97822 0)
(0.224002 -0.983179 0)
(0.250804 -0.988175 0)
(0.278076 -0.992794 0)
(0.30625 -0.996498 0)
(0.336221 -0.998698 0)
(0.369309 -0.999031 0)
(0.406919 -0.997694 0)
(0.450413 -0.995392 0)
(0.500849 -0.993247 0)
(0.559101 -0.99284 0)
(0.625636 -0.995941 0)
(0.700183 -1.0037 0)
(0.782749 -1.01576 0)
(0.871571 -1.03005 0)
(0.96944 -1.0472 0)
(0.0147691 -0.934992 0)
(0.0399308 -1.00661 0)
(0.0639573 -0.988474 0)
(0.0893841 -0.988504 0)
(0.114892 -0.991792 0)
(0.140536 -0.995632 0)
(0.166407 -1.00002 0)
(0.192574 -1.00493 0)
(0.219117 -1.01024 0)
(0.246192 -1.01578 0)
(0.274108 -1.0213 0)
(0.303346 -1.02651 0)
(0.334634 -1.03116 0)
(0.368916 -1.03517 0)
(0.407217 -1.03874 0)
(0.450578 -1.04239 0)
(0.499857 -1.04713 0)
(0.555822 -1.0542 0)
(0.618976 -1.06502 0)
(0.689299 -1.08043 0)
(0.767173 -1.09993 0)
(0.851315 -1.12174 0)
(0.945334 -1.14715 0)
(0.0141164 -0.962399 0)
(0.0384052 -1.03018 0)
(0.0617699 -1.01325 0)
(0.0864574 -1.0137 0)
(0.111234 -1.01714 0)
(0.136207 -1.02122 0)
(0.161476 -1.02596 0)
(0.187155 -1.03133 0)
(0.21339 -1.03725 0)
(0.240377 -1.04361 0)
(0.268429 -1.05031 0)
(0.297992 -1.05723 0)
(0.329655 -1.06433 0)
(0.364115 -1.07167 0)
(0.402147 -1.07951 0)
(0.44457 -1.08836 0)
(0.492096 -1.09904 0)
(0.545377 -1.11258 0)
(0.604908 -1.13017 0)
(0.670842 -1.15257 0)
(0.743727 -1.17923 0)
(0.822609 -1.20861 0)
(0.91162 -1.24268 0)
(0.0135147 -0.98869 0)
(0.0369033 -1.05302 0)
(0.0594781 -1.03726 0)
(0.0833552 -1.03812 0)
(0.107323 -1.04175 0)
(0.13154 -1.04612 0)
(0.156099 -1.05127 0)
(0.181131 -1.0572 0)
(0.206801 -1.06387 0)
(0.233337 -1.07121 0)
(0.261047 -1.07923 0)
(0.290314 -1.08792 0)
(0.321609 -1.09737 0)
(0.355475 -1.10776 0)
(0.392502 -1.11938 0)
(0.433315 -1.1327 0)
(0.478504 -1.14844 0)
(0.528633 -1.16754 0)
(0.584158 -1.19106 0)
(0.645331 -1.21974 0)
(0.712721 -1.25303 0)
(0.785585 -1.28958 0)
(0.868229 -1.33197 0)
(0.0129316 -1.0139 0)
(0.0353816 -1.07501 0)
(0.0570649 -1.06042 0)
(0.0800532 -1.06167 0)
(0.103127 -1.06552 0)
(0.126483 -1.07022 0)
(0.150212 -1.07583 0)
(0.174442 -1.08236 0)
(0.199336 -1.08982 0)
(0.225115 -1.0982 0)
(0.252071 -1.10756 0)
(0.280529 -1.11797 0)
(0.310875 -1.1296 0)
(0.343528 -1.1427 0)
(0.378923 -1.15759 0)
(0.417548 -1.17475 0)
(0.459879 -1.1948 0)
(0.506401 -1.21864 0)
(0.5575 -1.24728 0)
(0.61346 -1.28146 0)
(0.674771 -1.32066 0)
(0.740868 -1.36371 0)
(0.815978 -1.41374 0)
(0.0123497 -1.03804 0)
(0.0338106 -1.09606 0)
(0.0545171 -1.08265 0)
(0.0765363 -1.08428 0)
(0.0986282 -1.08836 0)
(0.121017 -1.0934 0)
(0.143784 -1.09947 0)
(0.16705 -1.10662 0)
(0.190966 -1.11487 0)
(0.215729 -1.12426 0)
(0.241596 -1.13488 0)
(0.268836 -1.14688 0)
(0.297766 -1.16048 0)
(0.328708 -1.17594 0)
(0.361978 -1.19364 0)
(0.397951 -1.21401 0)
(0.436992 -1.23767 0)
(0.479495 -1.26547 0)
(0.525758 -1.2984 0)
(0.57604 -1.33721 0)
(0.630674 -1.38142 0)
(0.689257 -1.43004 0)
(0.755574 -1.48672 0)
(0.0117546 -1.06106 0)
(0.0321683 -1.1161 0)
(0.0518283 -1.10387 0)
(0.0728006 -1.10586 0)
(0.0938292 -1.11016 0)
(0.115148 -1.11554 0)
(0.136831 -1.12207 0)
(0.158983 -1.1298 0)
(0.181737 -1.13879 0)
(0.205261 -1.1491 0)
(0.229765 -1.16088 0)
(0.255466 -1.17429 0)
(0.282618 -1.18957 0)
(0.311462 -1.20703 0)
(0.342224 -1.22706 0)
(0.375183 -1.25008 0)
(0.410584 -1.27667 0)
(0.448727 -1.30766 0)
(0.48982 -1.34401 0)
(0.534033 -1.38649 0)
(0.581512 -1.43465 0)
(0.631967 -1.48757 0)
(0.688365 -1.54931 0)
(0.0111324 -1.08294 0)
(0.0304405 -1.13505 0)
(0.0490023 -1.12401 0)
(0.0688552 -1.12633 0)
(0.0887459 -1.13085 0)
(0.108904 -1.13654 0)
(0.129396 -1.14348 0)
(0.150306 -1.15174 0)
(0.171745 -1.16139 0)
(0.193845 -1.17252 0)
(0.216769 -1.18528 0)
(0.240687 -1.19987 0)
(0.265792 -1.21654 0)
(0.292247 -1.23563 0)
(0.320215 -1.25752 0)
(0.349888 -1.28262 0)
(0.381382 -1.31149 0)
(0.414928 -1.34492 0)
(0.450625 -1.38383 0)
(0.488528 -1.42902 0)
(0.528637 -1.47997 0)
(0.570712 -1.53581 0)
(0.616879 -1.60065 0)
(0.0104767 -1.10359 0)
(0.0286289 -1.15287 0)
(0.0460575 -1.14302 0)
(0.0647265 -1.14562 0)
(0.0834116 -1.15034 0)
(0.102332 -1.1563 0)
(0.121542 -1.16361 0)
(0.141106 -1.17232 0)
(0.161107 -1.18252 0)
(0.181642 -1.19432 0)
(0.202827 -1.20788 0)
(0.224784 -1.22341 0)
(0.247649 -1.24117 0)
(0.271514 -1.2615 0)
(0.29649 -1.28477 0)
(0.322685 -1.31141 0)
(0.350105 -1.34193 0)
(0.378919 -1.37705 0)
(0.409082 -1.4177 0)
(0.440605 -1.46466 0)
(0.47335 -1.51738 0)
(0.507178 -1.57497 0)
(0.543567 -1.64122 0)
(0.0097931 -1.12297 0)
(0.0267566 -1.16952 0)
(0.0430305 -1.16084 0)
(0.0604619 -1.16368 0)
(0.0778818 -1.16857 0)
(0.0955015 -1.17476 0)
(0.113354 -1.18236 0)
(0.131489 -1.19144 0)
(0.14996 -1.20208 0)
(0.16883 -1.2144 0)
(0.188166 -1.22856 0)
(0.208044 -1.24477 0)
(0.228546 -1.2633 0)
(0.249703 -1.28448 0)
(0.271572 -1.30867 0)
(0.294177 -1.3363 0)
(0.317457 -1.36785 0)
(0.341471 -1.40396 0)
(0.366068 -1.44558 0)
(0.391233 -1.49341 0)
(0.416696 -1.54706 0)
(0.442557 -1.60539 0)
(0.469706 -1.67196 0)
(0.00910405 -1.14106 0)
(0.02487 -1.18503 0)
(0.0399738 -1.17746 0)
(0.0561286 -1.18048 0)
(0.0722346 -1.1855 0)
(0.0885056 -1.19186 0)
(0.104943 -1.19969 0)
(0.121587 -1.20904 0)
(0.138463 -1.22 0)
(0.155598 -1.23269 0)
(0.17302 -1.24725 0)
(0.190756 -1.2639 0)
(0.208831 -1.28288 0)
(0.227241 -1.30453 0)
(0.245966 -1.32918 0)
(0.264961 -1.35728 0)
(0.284104 -1.38924 0)
(0.303324 -1.4257 0)
(0.322447 -1.4675 0)
(0.341316 -1.51536 0)
(0.359626 -1.56905 0)
(0.37765 -1.62722 0)
(0.395743 -1.69321 0)
(0.00844719 -1.15782 0)
(0.0230295 -1.19939 0)
(0.0369439 -1.19281 0)
(0.0518016 -1.19597 0)
(0.0665589 -1.20107 0)
(0.081451 -1.20756 0)
(0.0964356 -1.21554 0)
(0.111549 -1.22507 0)
(0.126787 -1.23623 0)
(0.142151 -1.24912 0)
(0.157628 -1.26389 0)
(0.173202 -1.28074 0)
(0.188848 -1.29989 0)
(0.204527 -1.32164 0)
(0.220147 -1.34634 0)
(0.235604 -1.37439 0)
(0.25068 -1.40619 0)
(0.265227 -1.44233 0)
(0.279038 -1.48355 0)
(0.291764 -1.53065 0)
(0.303128 -1.58346 0)
(0.313375 -1.6406 0)
(0.322471 -1.70483 0)
(0.00786076 -1.17328 0)
(0.0212875 -1.21257 0)
(0.0339804 -1.20682 0)
(0.0475408 -1.21008 0)
(0.0609326 -1.21522 0)
(0.0744366 -1.22177 0)
(0.0879557 -1.22983 0)
(0.101524 -1.23943 0)
(0.115112 -1.25066 0)
(0.128696 -1.26361 0)
(0.142232 -1.27841 0)
(0.155664 -1.29523 0)
(0.168929 -1.31427 0)
(0.18194 -1.33581 0)
(0.194562 -1.36016 0)
(0.206619 -1.38768 0)
(0.217794 -1.41878 0)
(0.227884 -1.45394 0)
(0.236598 -1.49388 0)
(0.243459 -1.53941 0)
(0.248119 -1.59045 0)
(0.250858 -1.64564 0)
(0.251211 -1.70688 0)
(0.00736518 -1.18754 0)
(0.0196641 -1.22461 0)
(0.0310892 -1.2195 0)
(0.0433685 -1.22282 0)
(0.0553994 -1.22796 0)
(0.0675285 -1.23451 0)
(0.0796002 -1.24256 0)
(0.091643 -1.25214 0)
(0.103607 -1.26331 0)
(0.115444 -1.27618 0)
(0.127082 -1.29083 0)
(0.138436 -1.3074 0)
(0.149407 -1.32609 0)
(0.159869 -1.34711 0)
(0.169649 -1.37074 0)
(0.178493 -1.3973 0)
(0.186033 -1.42717 0)
(0.191957 -1.46074 0)
(0.195881 -1.49869 0)
(0.197251 -1.54181 0)
(0.195571 -1.59019 0)
(0.191197 -1.64241 0)
(0.183118 -1.69968 0)
(0.00694606 -1.20091 0)
(0.0181321 -1.23564 0)
(0.0282425 -1.23101 0)
(0.0392643 -1.23439 0)
(0.0499584 -1.23949 0)
(0.0607446 -1.246 0)
(0.0714164 -1.25397 0)
(0.081992 -1.26343 0)
(0.0924025 -1.27445 0)
(0.102577 -1.28709 0)
(0.112421 -1.30143 0)
(0.121819 -1.31758 0)
(0.130643 -1.33569 0)
(0.138735 -1.35593 0)
(0.145883 -1.37851 0)
(0.151776 -1.40372 0)
(0.156014 -1.43187 0)
(0.158151 -1.46329 0)
(0.157698 -1.49856 0)
(0.154052 -1.53843 0)
(0.146544 -1.58317 0)
(0.135403 -1.6314 0)
(0.119239 -1.68365 0)
(0.0065606 -1.2135 0)
(0.0166286 -1.24566 0)
(0.0253927 -1.24143 0)
(0.0351793 -1.24486 0)
(0.0445746 -1.24992 0)
(0.0540614 -1.25636 0)
(0.0634015 -1.2642 0)
(0.0725989 -1.2735 0)
(0.0815703 -1.28428 0)
(0.0902236 -1.29659 0)
(0.0984402 -1.3105 0)
(0.106081 -1.32608 0)
(0.112986 -1.34344 0)
(0.118969 -1.36269 0)
(0.123784 -1.384 0)
(0.127087 -1.40756 0)
(0.128423 -1.4336 0)
(0.127251 -1.46242 0)
(0.122987 -1.49442 0)
(0.114925 -1.53025 0)
(0.102208 -1.57038 0)
(0.0847848 -1.61354 0)
(0.0612391 -1.6594 0)
(0.00616535 -1.22486 0)
(0.0150881 -1.25413 0)
(0.0224936 -1.25028 0)
(0.0310684 -1.25378 0)
(0.0392112 -1.2588 0)
(0.0474477 -1.26515 0)
(0.0555314 -1.27285 0)
(0.0634534 -1.28193 0)
(0.0711223 -1.29242 0)
(0.0784292 -1.30433 0)
(0.0852388 -1.31772 0)
(0.0913875 -1.33261 0)
(0.0966886 -1.34907 0)
(0.100927 -1.36717 0)
(0.103826 -1.38701 0)
(0.105012 -1.4087 0)
(0.103988 -1.43239 0)
(0.100138 -1.45825 0)
(0.0927955 -1.48655 0)
(0.0811334 -1.51777 0)
(0.0641121 -1.55244 0)
(0.041288 -1.58951 0)
(0.0110533 -1.62776 0)
(0.00574007 -1.23444 0)
(0.0134727 -1.26047 0)
(0.0195144 -1.25707 0)
(0.0269037 -1.26064 0)
(0.0338396 -1.2656 0)
(0.0408726 -1.27185 0)
(0.0477695 -1.27939 0)
(0.0545114 -1.28822 0)
(0.0610098 -1.29836 0)
(0.0671494 -1.3098 0)
(0.0727886 -1.32256 0)
(0.0777493 -1.33664 0)
(0.0818248 -1.35206 0)
(0.0847784 -1.36883 0)
(0.0863079 -1.38698 0)
(0.0860104 -1.40655 0)
(0.0833516 -1.42759 0)
(0.0776678 -1.45014 0)
(0.0682117 -1.47431 0)
(0.0540566 -1.50039 0)
(0.0340195 -1.52883 0)
(0.00711076 -1.5589 0)
(-0.0284482 -1.58871 0)
(0.00527953 -1.24303 0)
(0.0117619 -1.26545 0)
(0.0164139 -1.26265 0)
(0.0226275 -1.2663 0)
(0.0283817 -1.27122 0)
(0.0342349 -1.27738 0)
(0.0399898 -1.28475 0)
(0.0456182 -1.29334 0)
(0.0510452 -1.30313 0)
(0.0561616 -1.31409 0)
(0.0608358 -1.3262 0)
(0.0648926 -1.33942 0)
(0.0681232 -1.35373 0)
(0.0702908 -1.36907 0)
(0.0710818 -1.3854 0)
(0.0700816 -1.40267 0)
(0.0667393 -1.4208 0)
(0.0603606 -1.43971 0)
(0.0501422 -1.4593 0)
(0.0350847 -1.4796 0)
(0.0138794 -1.50083 0)
(-0.0150481 -1.52258 0)
(-0.0537246 -1.54278 0)
(0.00472296 -1.25291 0)
(0.00987949 -1.27125 0)
(0.0131101 -1.26936 0)
(0.0180947 -1.27312 0)
(0.0226573 -1.27806 0)
(0.0273059 -1.2842 0)
(0.031902 -1.29152 0)
(0.0364138 -1.29998 0)
(0.0407881 -1.30956 0)
(0.0449314 -1.32021 0)
(0.0487374 -1.33187 0)
(0.0520513 -1.34448 0)
(0.0546879 -1.35795 0)
(0.0564477 -1.37218 0)
(0.0570414 -1.38703 0)
(0.0560916 -1.40233 0)
(0.0530895 -1.41788 0)
(0.0473702 -1.43341 0)
(0.0381385 -1.4486 0)
(0.0243895 -1.4631 0)
(0.00471285 -1.47672 0)
(-0.0228417 -1.48904 0)
(-0.0608102 -1.49811 0)
(0.0039116 -1.2642 0)
(0.00766323 -1.27796 0)
(0.00954143 -1.27741 0)
(0.0131541 -1.28132 0)
(0.0164484 -1.28638 0)
(0.0198045 -1.29262 0)
(0.0231461 -1.30002 0)
(0.0264451 -1.30854 0)
(0.0296663 -1.31815 0)
(0.0327397 -1.3288 0)
(0.0355888 -1.34039 0)
(0.0380945 -1.35286 0)
(0.0401224 -1.36606 0)
(0.0415384 -1.37985 0)
(0.0421278 -1.39401 0)
(0.0416071 -1.40828 0)
(0.0395886 -1.42233 0)
(0.0355474 -1.43572 0)
(0.0288348 -1.44791 0)
(0.0185913 -1.45823 0)
(0.00353076 -1.4659 0)
(-0.0182079 -1.47 0)
(-0.0492936 -1.46863 0)
(0.00270124 -1.27089 0)
(0.00495933 -1.28001 0)
(0.00569782 -1.28106 0)
(0.00779981 -1.28508 0)
(0.00973575 -1.29022 0)
(0.011705 -1.29652 0)
(0.0136719 -1.30397 0)
(0.0156161 -1.31252 0)
(0.0175137 -1.32215 0)
(0.0193256 -1.33278 0)
(0.0210051 -1.34432 0)
(0.0224856 -1.35666 0)
(0.0236928 -1.36964 0)
(0.0245504 -1.38307 0)
(0.0249416 -1.39672 0)
(0.0247002 -1.41025 0)
(0.0236008 -1.42328 0)
(0.0213411 -1.43528 0)
(0.0175313 -1.44555 0)
(0.0116373 -1.45321 0)
(0.00284064 -1.45709 0)
(-0.0100534 -1.45568 0)
(-0.0288033 -1.44688 0)
(0.00104971 -1.26629 0)