/*--------------------------------*- C++ -*----------------------------------*\
| =========                 |                                                 |
| \\      /  F ield         | OpenFOAM: The Open Source CFD Toolbox           |
|  \\    /   O peration     | Version:  3.0.1                                 |
|   \\  /    A nd           | Web:      www.OpenFOAM.org                      |
|    \\/     M anipulation  |                                                 |
\*---------------------------------------------------------------------------*/
FoamFile
{
    version     2.0;
    format      ascii;
    class       volScalarField;
    location    "0.0001";
    object      p;
}
// * * * * * * * * * * * * * * * * * * * * * * * * * * * * * * * * * * * * * //

dimensions      [1 -1 -2 0 0 0 0];

internalField   nonuniform List<scalar> 
1000
(
68970
68970
68970
68970.1
68970.1
68970
68970
68970
68969.9
68969.9
68969.8
68969.9
68969.9
68970
68970.1
68970.1
68970.2
68970.3
68970.3
68970.2
68970.1
68970
68970
68970
68970
68969.9
68969.7
68969.4
68968.7
68967.2
68964.2
68957.6
68944
68918.3
68867.9
68783.3
68629.8
68399.3
68031.5
67493.2
66778.2
65951.5
65147.8
64542.4
64189.9
64036.1
63989.7
63970.4
63975.5
63960.8
63869.6
63791.2
63735.4
63686.5
63635.5
63521.9
63257.1
62790.9
62100.6
61335.7
60587.9
59992.5
59576.3
59304.2
59153.5
59062.5
59017.4
58993.5
58980.8
58975.3
58972.3
58971.1
58970.4
58970.2
58970.1
58970
58970
58970
58970
58970
58970
58970
58970
58970
58970
58970
58970
58970
58970
58970
58970
58970
58970
58970
58970
58970
58970
58970
58970
58970
68970
68970
68970
68970.1
68970.1
68970
68970
68970
68970
68969.9
68969.9
68969.9
68969.9
68969.9
68970
68970
68970.1
68970.1
68970.1
68970.1
68970
68970
68970
68970
68969.9
68969.9
68969.8
68969.4
68968.8
68967.2
68964.5
68958.9
68945.5
68920.5
68870.4
68792.5
68634.3
68416.9
68050.7
67522.8
66806.6
65972.5
65134.7
64503
64118.3
63972.7
63948.5
63945.4
63964.1
63942.6
63876.3
63810.3
63765.2
63723.6
63671.3
63562.6
63306.1
62829.4
62142.7
61343.6
60581.3
59980.1
59559.5
59298.3
59148.4
59060.2
59017.3
58992.4
58980.8
58975.2
58972.3
58971.1
58970.4
58970.2
58970.1
58970
58970
58970
58970
58970
58970
58970
58970
58970
58970
58970
58970
58970
58970
58970
58970
58970
58970
58970
58970
58970
58970
58970
58970
58970
68970
68970
68970
68970
68970
68970
68970
68970
68970
68969.9
68969.9
68969.9
68969.9
68969.9
68969.9
68969.9
68970
68970
68970
68970
68970
68970
68970
68970
68969.9
68969.9
68969.8
68969.5
68968.7
68967.4
68964.9
68960.2
68944.7
68921.2
68870.2
68793.3
68632.5
68420.7
68077.1
67531.5
66832.2
66006.7
65170
64479.8
64091
63939.3
63922
63920.9
63898.7
63888.4
63820.7
63774.7
63762.7
63727.6
63667.3
63548.9
63292
62860.7
62183.4
61398.1
60640.6
60007.8
59568.3
59316.2
59154.3
59068.1
59020.1
58995.3
58981.8
58975.7
58972.6
58971.2
58970.5
58970.2
58970.1
58970
58970
58970
58970
58970
58970
58970
58970
58970
58970
58970
58970
58970
58970
58970
58970
58970
58970
58970
58970
58970
58970
58970
58970
58970
68970
68970
68970
68970
68970
68970
68970
68970
68970
68970
68970
68969.9
68969.9
68969.9
68969.9
68969.9
68969.9
68969.9
68969.9
68969.9
68970
68970
68970
68970
68970
68969.9
68969.8
68969.5
68968.9
68967.6
68965.1
68959.3
68945.3
68923.4
68868.8
68787.4
68636.7
68420.4
68075.7
67555.2
66841.1
66031.2
65113.3
64489
64072
63929.2
63893.3
63862.2
63846.7
63828.8
63771.5
63765.8
63764.6
63740.2
63668.1
63527.8
63287
62883.9
62255.5
61459.2
60723.9
60029.3
59585.1
59326
59159.7
59071
59023.8
58996.5
58982.7
58976.1
58972.9
58971.3
58970.5
58970.2
58970.1
58970
58970
58970
58970
58970
58970
58970
58970
58970
58970
58970
58970
58970
58970
58970
58970
58970
58970
58970
58970
58970
58970
58970
58970
58970
68970
68970
68970
68970
68970
68970
68970
68970
68970
68970
68970
68970
68970
68970
68969.9
68969.9
68969.9
68970
68970
68970
68970
68970
68970
68970
68970
68970
68969.8
68969.5
68969
68967.8
68965.3
68960.4
68945.3
68924.5
68872.4
68790.1
68638.1
68417.8
68054.3
67564
66842.7
66045.9
65130.3
64488.6
64085.7
63923.2
63861.4
63806.7
63798.3
63788.5
63774.5
63762.7
63770.7
63739
63679.4
63553.7
63315.4
62915.9
62271.5
61466.9
60702.2
60011
59594
59320
59159.1
59071.6
59023.2
58996.6
58982.8
58975.9
58972.8
58971.2
58970.5
58970.2
58970.1
58970
58970
58970
58970
58970
58970
58970
58970
58970
58970
58970
58970
58970
58970
58970
58970
58970
58970
58970
58970
58970
58970
58970
58970
58970
68970
68970
68970
68970
68970
68970
68970
68970
68970
68970
68970.1
68970.1
68970
68970
68970
68970
68970
68970
68970
68970
68970
68970
68970
68970
68970
68969.9
68969.8
68969.5
68968.9
68967.6
68964.9
68959.1
68947.3
68925.9
68875.2
68794.8
68654.2
68432.7
68061.5
67580.9
66774.3
66024.6
65126.5
64494.3
64094.6
63914.2
63832.3
63781.3
63768.1
63770.5
63766.6
63771
63776.7
63746.8
63694.6
63581.9
63363.6
62928.1
62263.7
61457.2
60645.5
59972.9
59588.7
59330.5
59162.8
59073
59022.3
58995.7
58982.4
58975.6
58972.6
58971.2
58970.5
58970.2
58970.1
58970
58970
58970
58970
58970
58970
58970
58970
58970
58970
58970
58970
58970
58970
58970
58970
58970
58970
58970
58970
58970
58970
58970
58970
58970
68970
68970
68970
68970
68970
68970
68970
68970
68970
68970
68970
68970
68970
68970
68970
68970
68970
68970
68970
68970
68970
68970
68970
68970
68969.9
68969.9
68969.8
68969.5
68968.9
68967.7
68964.9
68959.5
68948.1
68926.7
68875.1
68804
68652.3
68438.2
68082.8
67573.5
66827.4
66003.6
65137.7
64500
64099.7
63910.1
63836.4
63794.8
63781.9
63775.6
63783.7
63784.9
63790.9
63756.5
63708
63613.8
63364.9
62904.9
62214.7
61427.6
60646.6
60000.5
59558.2
59326.7
59160.6
59073.3
59019
58994.6
58982.1
58975.3
58972.5
58971.1
58970.5
58970.2
58970.1
58970
58970
58970
58970
58970
58970
58970
58970
58970
58970
58970
58970
58970
58970
58970
58970
58970
58970
58970
58970
58970
58970
58970
58970
58970
68970
68970
68969.9
68969.9
68969.9
68970
68970
68970
68970
68970
68970
68970
68970
68970
68970
68970
68970
68969.9
68969.9
68969.9
68969.9
68969.9
68969.9
68969.9
68969.9
68969.8
68969.8
68969.5
68968.9
68967.7
68965.1
68959.2
68946.2
68920
68873.6
68790.7
68632
68401.5
68062.4
67504.4
66830.7
65991
65173.3
64531.6
64144.8
63930.2
63849
63815.6
63796.5
63786.9
63787.7
63784.2
63792.7
63766.3
63727.4
63628.4
63383.2
62900.9
62195.1
61378.7
60626.2
59994.1
59529.3
59301
59150
59066
59018.1
58993.4
58981.5
58975.2
58972.4
58971.1
58970.5
58970.2
58970.1
58970
58970
58970
58970
58970
58970
58970
58970
58970
58970
58970
58970
58970
58970
58970
58970
58970
58970
58970
58970
58970
58970
58970
58970
58970
68970
68970
68969.9
68970
68970
68970
68970.1
68970.1
68970.1
68970.1
68970.1
68970.1
68970
68970
68970
68970
68970
68969.9
68969.9
68969.9
68969.9
68969.8
68969.8
68969.8
68969.9
68969.9
68969.8
68969.6
68969
68967.8
68965.1
68959.6
68945.6
68921.2
68877.5
68780.5
68628.8
68370.2
68027.3
67474.3
66839.1
65988.9
65165.5
64534.4
64156.5
63957.8
63872.7
63834.6
63812.4
63794.4
63788.6
63791.1
63796.9
63779.6
63749.3
63652.3
63404.4
62924.3
62222.6
61365.9
60563.5
59953.1
59531.6
59282.7
59138.3
59056.4
59014.3
58991.3
58980.5
58974.7
58972.3
58970.9
58970.5
58970.2
58970.1
58970
58970
58970
58970
58970
58970
58970
58970
58970
58970
58970
58970
58970
58970
58970
58970
58970
58970
58970
58970
58970
58970
58970
58970
58970
68970
68970
68970
68970
68970.1
68970.1
68970.2
68970.2
68970.2
68970.2
68970.2
68970.1
68970
68969.9
68970
68970
68970
68969.9
68969.9
68969.9
68970
68970
68970
68970.1
68970.1
68970
68969.9
68969.6
68969
68967.8
68964.8
68958.6
68945.7
68919.1
68874.4
68778.4
68627.1
68352
68000.2
67473.4
66820.7
65958.5
65162.5
64536.9
64160.4
63979.9
63900.3
63839.9
63810.2
63795
63793.2
63797.3
63806.3
63783
63743.2
63636.9
63372.4
62908.8
62217
61367.8
60583.7
59962.8
59549.4
59289.1
59142.2
59057.6
59015
58991.6
58980.7
58974.8
58972.4
58971
58970.4
58970.2
58970.1
58970
58970
58970
58970
58970
58970
58970
58970
58970
58970
58970
58970
58970
58970
58970
58970
58970
58970
58970
58970
58970
58970
58970
58970
58970
)
;

boundaryField
{
    sides1
    {
        type            zeroGradient;
    }
    sides2
    {
        type            slip;
    }
    empty
    {
        type            empty;
    }
}


// ************************************************************************* //
