/*--------------------------------*- C++ -*----------------------------------*\
| =========                 |                                                 |
| \\      /  F ield         | OpenFOAM: The Open Source CFD Toolbox           |
|  \\    /   O peration     | Version:  3.0.1                                 |
|   \\  /    A nd           | Web:      www.OpenFOAM.org                      |
|    \\/     M anipulation  |                                                 |
\*---------------------------------------------------------------------------*/
FoamFile
{
    version     2.0;
    format      ascii;
    class       surfaceScalarField;
    location    "0.0001";
    object      phi;
}
// * * * * * * * * * * * * * * * * * * * * * * * * * * * * * * * * * * * * * //

dimensions      [1 0 -1 0 0 0 0];

internalField   nonuniform List<scalar> 
1890
(
-1.66172e-09
-1.1157e-09
-7.82763e-09
-9.31522e-10
-1.76874e-08
-1.23342e-09
-1.78324e-08
-1.68988e-10
-1.27945e-08
8.32546e-10
-3.71374e-09
1.76743e-09
7.49089e-09
2.15104e-09
1.25841e-08
2.2845e-09
1.39582e-08
8.93926e-10
2.12347e-08
-2.53783e-09
1.01992e-08
-3.96818e-09
-1.9941e-09
-4.57339e-09
-2.11448e-08
5.59241e-09
-3.05171e-08
7.01181e-09
-2.70749e-08
-3.40389e-09
9.65419e-09
-6.63994e-09
4.21437e-08
2.3123e-09
5.91265e-08
7.6587e-09
4.87965e-08
1.40715e-08
2.42862e-08
1.2821e-08
1.12142e-08
9.15226e-09
-1.47077e-09
1.07303e-08
-1.17553e-08
4.4753e-09
-7.11453e-09
-9.74564e-10
1.04581e-08
-5.38485e-09
3.8101e-08
-6.91151e-09
1.08541e-07
-6.94354e-09
2.81613e-07
-7.58229e-09
6.51641e-07
-7.44398e-09
1.36725e-06
-6.209e-09
2.89646e-06
-5.86184e-08
6.13108e-06
-2.59028e-07
1.22867e-05
-2.3681e-07
2.41228e-05
-4.74675e-07
4.57505e-05
-6.79673e-07
8.33529e-05
-2.02173e-06
0.000144724
-1.40061e-06
0.000241463
-3.08797e-06
0.000385886
-5.86369e-06
0.000586445
-7.30593e-06
0.000827488
-8.82238e-06
0.00108529
-8.66867e-06
0.00129264
-9.28996e-06
0.0014206
-6.7968e-06
0.00148601
-7.00396e-06
0.00152268
-7.34641e-06
0.0015398
-2.2902e-06
0.00153821
2.85419e-06
0.00152835
1.0263e-05
0.00151726
2.00776e-05
0.00149974
2.22423e-05
0.00147917
1.53244e-05
0.00145457
7.1074e-06
0.00142577
1.85828e-06
0.00140747
-9.3966e-06
0.00137588
-9.18183e-06
0.00129243
-8.37192e-06
0.00111709
-5.63165e-06
0.000885667
-2.39064e-06
0.000637002
-5.20244e-07
0.000421231
1.96031e-06
0.000257479
2.89323e-06
0.000147859
2.94876e-06
8.1846e-05
1.32936e-06
4.26777e-05
9.26018e-07
2.19834e-05
4.37054e-07
1.09622e-05
2.88856e-08
5.29363e-06
1.07784e-07
2.50873e-06
2.09968e-08
1.1429e-06
1.97159e-08
5.19947e-07
1.77909e-09
2.30008e-07
9.22312e-10
1.02824e-07
5.14896e-11
4.50692e-08
1.53585e-10
1.99756e-08
2.99461e-10
8.76253e-09
1.7268e-10
3.85012e-09
1.35834e-10
1.68835e-09
5.30573e-11
7.41958e-10
2.31852e-11
3.2381e-10
1.32441e-11
1.42415e-10
5.6383e-12
6.58219e-11
8.69564e-13
3.02283e-11
3.33847e-13
1.24623e-11
-1.43477e-13
5.00564e-12
-9.36026e-13
2.35782e-12
-1.48975e-12
1.997e-12
-2.20416e-12
3.17305e-12
-2.88277e-12
5.92501e-12
-3.65669e-12
9.72513e-12
-3.41358e-12
1.31025e-11
-1.09937e-12
1.63466e-11
-8.16527e-13
1.63479e-11
2.17506e-12
1.64667e-11
2.65547e-12
1.41936e-11
4.75263e-12
1.2197e-11
3.05622e-12
1.16821e-11
5.83212e-13
1.13841e-11
-2.12848e-12
7.90762e-12
-3.08376e-12
-3.64175e-12
-1.30377e-09
-2.51065e-09
-6.27241e-09
-2.49991e-09
-1.48491e-08
-2.1019e-09
-1.53851e-08
5.64673e-10
-1.12923e-08
3.09602e-09
-2.22732e-09
3.0863e-09
6.89298e-09
4.10183e-09
1.14848e-08
4.8024e-09
1.25395e-08
4.5748e-09
1.76014e-08
-2.76618e-09
1.403e-08
-8.43641e-09
9.74117e-09
-1.06857e-08
1.31323e-08
-1.00338e-08
1.78874e-08
-6.78561e-09
1.61094e-08
-4.10071e-09
1.8992e-08
-4.41081e-09
1.97807e-08
7.72573e-10
2.32149e-08
4.95691e-12
7.02585e-09
1.03176e-08
2.96996e-10
5.1139e-09
-5.20151e-09
5.23944e-09
-1.14375e-08
7.92346e-09
-1.31109e-08
1.38663e-09
-7.45493e-09
-2.74838e-09
3.03871e-09
-8.92036e-09
2.47141e-08
-1.16774e-08
9.24319e-08
-1.23497e-08
2.48833e-07
-1.29102e-08
6.00697e-07
-3.76653e-09
1.33151e-06
-6.09858e-09
2.72465e-06
-4.59842e-08
5.17007e-06
1.80188e-08
1.04635e-05
-4.44432e-08
2.15304e-05
-3.88727e-07
4.20501e-05
4.85296e-08
7.38133e-05
-1.21432e-07
0.000135108
-4.37812e-07
0.000224925
-1.72396e-06
0.000360626
-3.4957e-06
0.000546887
-4.717e-06
0.000788111
-8.60623e-06
0.00103962
-7.00915e-06
0.00126133
-1.54396e-05
0.00139664
-1.40071e-05
0.0014692
-1.57443e-05
0.00150461
-1.33252e-05
0.00151107
-5.3522e-07
0.00150672
4.5046e-06
0.00150833
6.11456e-06
0.00150046
3.68806e-05
0.00149151
3.55029e-05
0.00147373
2.53291e-05
0.00145279
1.26832e-05
0.00142713
7.75823e-06
0.00139982
-4.23752e-06
0.00136277
-3.52626e-06
0.00126069
-1.8817e-06
0.00107784
-5.64519e-06
0.000841734
-7.44128e-06
0.000592763
-7.50471e-06
0.000385355
-1.00791e-05
0.000232646
-4.36898e-06
0.000133438
-2.08618e-06
7.3546e-05
-2.1607e-06
3.80319e-05
-1.33838e-06
2.02577e-05
-1.08879e-06
9.77317e-06
-5.38959e-07
4.73564e-06
-3.31162e-07
2.24691e-06
-1.96275e-07
1.03762e-06
-8.55689e-08
4.79055e-07
-4.97016e-08
2.10216e-07
-1.83667e-08
9.3447e-08
-9.34609e-09
3.98551e-08
-3.77227e-09
1.76102e-08
-1.77178e-09
7.5907e-09
-6.67656e-10
3.36581e-09
-2.40858e-10
1.42664e-09
-6.44973e-11
6.14893e-10
-5.61811e-11
2.75075e-10
-2.95222e-11
1.24581e-10
-8.88676e-12
5.53015e-11
-5.03796e-12
2.50369e-11
-2.64025e-12
1.01575e-11
-1.58634e-12
3.06143e-12
-1.86564e-12
-2.88172e-14
-2.79455e-12
-6.48757e-13
-4.10411e-12
1.17947e-12
-5.68004e-12
5.72493e-12
-6.61356e-12
1.31693e-11
-5.47933e-12
2.15165e-11
-1.18704e-12
2.45134e-11
4.19905e-12
2.39146e-11
1.24014e-11
2.08002e-11
1.27629e-11
1.35216e-11
1.81103e-11
6.8654e-12
1.38388e-11
2.91445e-12
5.94612e-12
4.21415e-12
-4.0676e-12
4.82369e-12
-9.31234e-12
-9.11587e-12
-1.56232e-09
-4.12466e-09
-6.11406e-09
-3.6948e-09
-1.11491e-08
-2.75458e-09
-1.00339e-08
-1.71982e-09
-3.58635e-09
-3.54702e-10
2.11915e-09
3.98556e-10
7.44568e-09
1.23729e-09
8.97851e-09
1.98925e-09
4.31865e-09
1.68735e-09
1.16093e-08
-1.35437e-09
1.38587e-08
-7.17935e-09
1.67313e-08
-1.09233e-08
2.39437e-08
-1.34521e-08
2.80478e-08
-1.25653e-08
2.55216e-08
-1.1087e-08
1.91355e-08
-1.03716e-08
1.3294e-08
-9.07559e-09
2.88614e-09
-1.07489e-08
-3.31676e-09
-9.91814e-09
-1.2822e-08
-9.14267e-09
-1.69884e-08
-6.36874e-09
-1.68838e-08
-1.56762e-09
-1.2795e-08
-2.40014e-09
-3.53576e-09
-5.49616e-09
1.01855e-08
-9.49078e-09
3.76842e-08
-1.33838e-08
1.16475e-07
-2.06593e-08
2.71633e-07
-1.81339e-08
6.53237e-07
-3.1479e-08
1.38762e-06
-4.12424e-08
2.64503e-06
-3.35719e-09
5.25376e-06
-7.03693e-08
1.08717e-05
1.24255e-08
2.13378e-05
-4.46815e-07
4.36705e-05
5.98486e-08
7.73863e-05
5.23352e-07
0.000142056
-1.41615e-06
0.000233075
-1.53951e-06
0.000360758
-1.49192e-06
0.000553131
-6.37545e-06
0.00080286
-7.79574e-06
0.00104504
-9.54925e-06
0.00128897
-1.81031e-05
0.00142421
-1.23028e-05
0.00148907
-1.15946e-05
0.00150072
6.44371e-06
0.00149954
1.09793e-05
0.00149239
4.74079e-06
0.00148409
5.22072e-06
0.00149191
2.50363e-05
0.00148599
3.25377e-05
0.00147573
2.12612e-05
0.00147054
1.20479e-05
0.00146374
8.36555e-06
0.00145565
-1.24068e-06
0.00141261
2.57303e-06
0.00131863
8.78731e-07
0.00114295
-8.30242e-06
0.000920934
-1.45392e-05
0.000657094
-8.31393e-06
0.000418724
-7.56421e-06
0.000252299
-1.96733e-06
0.000150219
-1.95499e-06
8.36339e-05
-1.68205e-06
4.46691e-05
-7.41346e-07
2.31474e-05
-6.73741e-07
1.1814e-05
-4.41549e-07
5.7776e-06
-2.57003e-07
2.7613e-06
-1.07011e-07
1.28443e-06
-7.0708e-08
5.88906e-07
-4.09982e-08
2.64004e-07
-1.53733e-08
1.16339e-07
-5.46881e-09
5.09957e-08
-1.65534e-09
2.20405e-08
-6.96512e-10
9.41894e-09
-2.96896e-10
4.09834e-09
-1.06916e-10
1.81652e-09
1.13444e-11
7.86493e-10
-2.15147e-11
3.24623e-10
-1.5696e-11
1.49134e-10
-1.01377e-11
6.35646e-11
-3.53781e-12
2.6322e-11
-2.27722e-12
8.53191e-12
-1.1397e-12
2.74294e-13
-2.09519e-12
-4.25244e-12
-2.98262e-12
-5.61435e-12
-4.16509e-12
-4.01368e-12
-4.97404e-12
2.57266e-12
-7.46754e-12
1.45539e-11
-3.20026e-12
3.05705e-11
8.64702e-13
4.27506e-11
9.54968e-12
4.25044e-11
1.99493e-11
2.80978e-11
2.97985e-11
1.49859e-11
2.89611e-11
4.75023e-13
2.18282e-11
-5.89004e-12
1.20114e-11
-2.5261e-12
-2.82876e-12
6.39574e-12
-1.56147e-11
-1.71812e-11
-2.40079e-09
-4.64717e-09
-6.7362e-09
-4.24718e-09
-6.9071e-09
-3.9796e-09
-5.50223e-09
-3.16617e-09
-1.95847e-09
-2.79022e-09
3.80071e-09
-4.19249e-09
7.00439e-09
-4.05638e-09
6.61426e-09
-4.65633e-09
4.48026e-09
-5.31657e-09
5.77886e-09
-4.89975e-09
4.63321e-09
-4.67962e-09
1.25852e-08
-7.17201e-09
2.09449e-08
-3.52847e-09
2.70156e-08
-2.88656e-09
2.76996e-08
-5.09788e-09
2.62293e-08
-8.37528e-09
2.10845e-08
-1.15916e-08
1.30882e-08
-1.33988e-08
4.41978e-09
-1.39178e-08
-3.50368e-09
-1.22448e-08
-6.70235e-09
-1.06204e-08
-2.35833e-09
-7.25075e-09
4.46642e-09
-5.79124e-09
1.16295e-08
-2.2592e-09
2.01201e-08
-1.50181e-09
4.67468e-08
-3.61893e-09
9.75324e-08
-5.51109e-09
2.31347e-07
-1.22704e-08
5.5254e-07
-2.29567e-08
1.20561e-06
-3.44769e-08
2.44376e-06
-2.32242e-08
5.1521e-06
-7.99318e-08
1.10894e-05
-9.29749e-08
2.11085e-05
-3.60588e-07
4.46932e-05
-2.76193e-07
8.15582e-05
-6.92936e-07
0.000142578
-1.88976e-06
0.000230077
-1.2014e-06
0.000357972
-1.73864e-06
0.000555318
-6.02959e-06
0.000794608
-7.16057e-06
0.00104046
-1.23904e-05
0.00129919
-1.7459e-05
0.001442
-5.71989e-06
0.00149823
-7.2467e-06
0.00150562
1.29422e-05
0.00150256
1.38656e-05
0.00149282
7.55507e-06
0.00147937
3.9096e-06
0.00147627
1.77237e-05
0.00148557
1.80475e-05
0.00148712
3.26656e-06
0.00149471
5.96683e-07
0.0015059
2.67785e-06
0.00150178
-2.38125e-06
0.00147528
-5.18381e-08
0.00138265
-2.8838e-06
0.00124783
-8.75887e-06
0.00100302
-3.51508e-06
0.000715596
-1.83228e-06
0.0004387
5.57838e-06
0.000260191
1.55802e-06
0.000153458
-9.93591e-07
8.63528e-05
3.23994e-07
4.56266e-05
9.1611e-08
2.41831e-05
-3.22178e-07
1.27236e-05
-6.13352e-08
6.31741e-06
-1.12613e-08
3.15482e-06
-2.2883e-08
1.48592e-06
1.4831e-08
6.48616e-07
1.45153e-08
2.76446e-07
6.02631e-09
1.21406e-07
1.44382e-09
5.27293e-08
2.23999e-09
2.29887e-08
4.41414e-10
9.59833e-09
2.22989e-10
4.06227e-09
2.8921e-11
2.0348e-09
-5.74414e-11
9.55708e-10
1.12109e-11
3.81419e-10
3.30481e-12
1.5854e-10
4.31314e-12
6.97005e-11
-6.86507e-13
2.81413e-11
-7.59205e-13
8.50143e-12
-9.71426e-13
-2.49393e-12
-1.25708e-12
-9.02567e-12
-1.6832e-12
-1.05098e-11
-2.59386e-12
-5.25751e-12
-3.02341e-12
2.55398e-12
-2.95231e-12
1.48862e-11
-2.21963e-12
4.7645e-11
4.86771e-13
6.2158e-11
9.8387e-12
5.53102e-11
1.46232e-11
3.95321e-11
1.29944e-11
9.17696e-12
1.6247e-11
-2.10824e-11
8.39863e-12
-2.03232e-11
5.38979e-12
-1.2514e-12
-9.52868e-12
2.01277e-11
-1.66413e-11
-2.14323e-11
-3.45705e-09
-4.91741e-09
-4.89366e-09
-4.70441e-09
-5.50085e-09
-3.60945e-09
-5.98422e-09
-2.10966e-09
-6.17008e-09
-9.96469e-10
-4.33585e-09
-2.49403e-09
-1.19151e-09
-2.63665e-09
2.73028e-09
-5.86098e-09
8.1547e-09
-9.90606e-09
1.11221e-08
-7.59131e-09
1.23842e-08
-4.44996e-09
1.46392e-08
-1.92676e-09
2.05375e-08
1.61804e-09
2.4699e-08
5.40304e-09
2.56074e-08
4.33581e-09
2.26222e-08
1.06544e-09
1.72904e-08
-2.1487e-09
1.19185e-08
-5.01527e-09
7.10006e-09
-6.36668e-09
5.16956e-09
-6.32059e-09
7.56394e-09
-9.06687e-09
1.46338e-08
-1.03953e-08
2.64585e-08
-1.11211e-08
3.15685e-08
-4.32303e-09
3.05678e-08
3.39167e-09
3.847e-08
5.38742e-09
7.97714e-08
6.36005e-09
1.98231e-07
1.08667e-09
4.49769e-07
2.57949e-09
1.00042e-06
2.06507e-08
2.2007e-06
2.63048e-08
4.99271e-06
-1.36718e-07
1.10583e-05
-3.54182e-07
2.0552e-05
-3.05171e-07
4.28846e-05
-6.06406e-07
8.15177e-05
-2.00873e-06
0.000143744
-3.68589e-06
0.000236483
-4.65658e-06
0.000384135
-3.46696e-06
0.000567853
-5.20439e-06
0.000818967
-6.79445e-06
0.00105277
-7.48642e-06
0.00131044
-8.90258e-06
0.00145672
-2.44344e-06
0.00149777
-2.03795e-06
0.00150521
5.78319e-06
0.00150347
8.66062e-06
0.00149107
5.993e-06
0.00147704
2.52679e-06
0.00148867
1.27893e-06
0.00150171
-1.95052e-06
0.00149892
-4.07232e-06
0.0015002
-4.23593e-06
0.00150539
-2.0172e-06
0.00150307
-4.30131e-06
0.00146634
-4.10821e-06
0.00137966
-5.44482e-06
0.00122218
2.59139e-06
0.000973193
6.63124e-06
0.000696173
2.68086e-06
0.000437795
6.05021e-06
0.000264048
6.96094e-06
0.000149939
1.85129e-06
8.40253e-05
-1.23169e-07
4.56925e-05
-6.29776e-07
2.40087e-05
-1.69364e-07
1.26165e-05
2.5329e-07
6.17881e-06
1.43044e-07
2.90409e-06
4.64432e-08
1.34848e-06
6.87149e-08
5.94378e-07
3.18263e-08
2.48993e-07
1.17059e-08
1.07912e-07
3.10713e-10
4.93776e-08
-5.92661e-10
2.19498e-08
1.32616e-10
9.53147e-09
-4.73926e-11
4.15231e-09
-5.03649e-11
1.8199e-09
-4.8015e-11
8.13442e-10
-2.58328e-11
3.57121e-10
-6.5725e-12
1.62286e-10
6.82086e-13
7.34324e-11
-6.73325e-13
2.99025e-11
-4.3127e-13
7.62563e-12
-8.01789e-14
-4.81395e-12
2.55771e-13
-1.19459e-11
3.66457e-13
-1.44081e-11
9.08069e-13
-1.09742e-11
3.53332e-13
5.64552e-13
-2.45709e-13
1.46217e-11
1.65808e-12
5.32335e-11
1.29924e-12
7.86524e-11
-4.50943e-13
7.08195e-11
-3.11042e-12
2.849e-11
-6.70448e-12
-2.1333e-11
-2.06444e-11
-4.60131e-11
-1.85011e-11
-1.72903e-11
-1.27135e-12
7.99842e-12
3.51158e-12
4.14563e-11
-7.44335e-12
-1.84892e-11
-2.93834e-09
-4.20276e-09
-2.98536e-09
-3.68891e-09
-3.16594e-09
-2.06552e-09
-4.18677e-09
4.84151e-10
-4.9785e-09
2.40501e-09
-7.25002e-09
3.18158e-09
-4.91407e-09
5.58274e-10
-1.61085e-09
-7.79813e-10
8.69903e-09
-4.34219e-09
1.56409e-08
-4.29909e-09
1.68687e-08
-1.70188e-09
1.70886e-08
-7.20149e-10
1.87145e-08
2.80026e-09
1.79381e-08
7.48602e-09
1.53521e-08
8.16957e-09
9.31037e-09
7.4338e-09
5.66552e-09
1.43791e-09
2.8631e-09
8.39831e-10
3.17415e-09
-1.70506e-09
5.12121e-09
-4.63423e-10
9.0471e-09
-3.75719e-09
1.61014e-08
-9.29736e-09
2.46309e-08
-1.38903e-08
2.95505e-08
-1.52621e-08
2.73472e-08
-9.07194e-09
3.6691e-08
-1.16754e-08
8.16946e-08
-4.61923e-09
2.13005e-07
3.45305e-10
5.00258e-07
4.86641e-09
1.16917e-06
-7.84349e-10
2.44552e-06
-1.70099e-08
5.23696e-06
-9.60674e-08
1.06012e-05
-2.0107e-07
1.99394e-05
4.91771e-08
4.03582e-05
-1.9826e-07
7.54706e-05
-7.26247e-07
0.00013155
-1.71697e-07
0.000222877
-4.68623e-07
0.000376195
-2.34442e-06
0.000558962
1.3081e-06
0.000816677
-7.0224e-08
0.00104512
2.35821e-06
0.00130729
-2.90307e-06
0.00144396
-5.68502e-07
0.00148998
1.50451e-06
0.00149812
1.7224e-06
0.00150644
1.66517e-06
0.00149797
3.26933e-06
0.00149429
-2.91517e-06
0.00150309
-1.11591e-05
0.00150623
-1.24824e-05
0.00150125
-8.32269e-06
0.00149942
-5.01858e-06
0.00150128
-4.54254e-06
0.00148886
-3.67438e-06
0.00145197
-7.15116e-06
0.00134945
4.94737e-07
0.00117449
8.41301e-06
0.000936046
7.1139e-06
0.000658677
6.85962e-06
0.000430522
-4.30288e-07
0.000282877
6.26783e-07
0.000161814
7.80388e-06
8.57236e-05
1.43193e-06
4.49188e-05
9.32019e-08
2.29424e-05
2.82359e-07
1.16242e-05
3.34697e-08
5.62119e-06
3.91763e-08
2.52943e-06
3.54741e-08
1.22224e-06
-1.4428e-08
5.66687e-07
8.34837e-09
2.54756e-07
2.45579e-09
1.13071e-07
3.62382e-09
4.99959e-08
-5.40665e-10
2.25814e-08
-4.15312e-10
9.97755e-09
-3.60319e-10
4.46135e-09
-1.77914e-10
1.91136e-09
-5.22285e-11
8.05194e-10
7.01892e-12
3.63817e-10
-1.07433e-11
1.73824e-10
-2.74528e-12
7.71268e-11
1.36923e-13
3.04481e-11
5.48678e-13
7.9888e-12
1.23283e-12
-3.57903e-12
1.45087e-12
-1.04312e-11
2.24748e-12
-1.24039e-11
3.66778e-12
-7.6852e-12
3.95962e-12
2.69373e-12
4.58368e-12
2.24729e-11
4.24055e-12
6.39577e-11
-1.16177e-12
7.31986e-11
-6.44117e-12
5.95307e-11
-1.62961e-11
1.80078e-11
-2.45687e-11
-4.65969e-11
-2.84759e-11
-6.2637e-11
-1.68544e-11
-1.44157e-11
7.07192e-12
3.26992e-11
1.72782e-11
6.13805e-11
1.32399e-11
1.36482e-11
-3.71067e-09
-1.6099e-09
-1.12154e-09
-2.65092e-11
1.09182e-09
-6.86473e-10
2.15046e-10
4.05054e-09
-1.72009e-09
3.58532e-09
-6.49579e-09
1.87249e-09
-1.09049e-08
-4.07384e-09
-9.66932e-09
-5.14208e-09
-2.14802e-09
-6.24015e-09
6.03675e-09
-4.49836e-09
1.02073e-08
1.91375e-10
1.29413e-08
-1.19861e-09
1.21676e-08
1.95249e-09
9.72704e-09
6.276e-09
1.82994e-09
8.14377e-09
9.69938e-10
2.29078e-09
-4.29897e-09
1.61988e-09
-1.58173e-09
-3.8183e-10
5.1818e-09
-9.45437e-11
1.2565e-08
5.55987e-09
1.32145e-08
7.16837e-09
1.59937e-08
3.93487e-10
1.72606e-08
-2.73518e-09
1.18125e-08
2.17134e-09
8.80712e-09
-3.01856e-10
2.77197e-08
-6.38764e-09
9.67031e-08
-9.15343e-09
2.53766e-07
-8.20528e-09
5.67694e-07
-4.74024e-09
1.21328e-06
-2.88746e-09
2.50419e-06
-1.60127e-08
4.97915e-06
2.49473e-08
1.0005e-05
2.57116e-07
2.08792e-05
4.88801e-07
4.14853e-05
3.68828e-07
7.19262e-05
2.47958e-06
0.000129948
2.95564e-06
0.0002201
3.44422e-06
0.00035405
6.01331e-06
0.000546257
1.14371e-05
0.000792653
6.94151e-06
0.00105472
4.06286e-06
0.00129793
6.15994e-06
0.00143327
3.06805e-07
0.00148788
-1.9975e-06
0.00150448
-1.03675e-06
0.0015145
-7.11374e-06
0.00151794
-2.08489e-06
0.00152411
-9.30733e-06
0.00151903
-1.31654e-05
0.00150656
-1.6785e-05
0.00149499
-1.12237e-05
0.00149115
-7.99936e-06
0.00148551
-6.11615e-06
0.00147344
-6.36628e-06
0.00141773
-5.07913e-06
0.00133282
-2.54656e-06
0.00116017
6.73375e-06
0.000945722
7.30458e-06
0.000670411
8.53091e-06
0.000432294
4.49497e-06
0.00026775
1.83051e-06
0.000165858
4.73007e-06
8.75745e-05
3.42408e-06
4.51067e-05
2.03169e-06
2.32538e-05
1.05423e-06
1.1362e-05
3.97824e-07
5.5598e-06
1.47029e-07
2.643e-06
6.70692e-08
1.24855e-06
2.31072e-08
5.80362e-07
1.93704e-08
2.64921e-07
9.37831e-09
1.2908e-07
3.55821e-09
5.72203e-08
1.65577e-09
2.48925e-08
6.08574e-10
1.09299e-08
2.20942e-10
4.67077e-09
1.26296e-10
1.99187e-09
4.81823e-11
9.30646e-10
2.68022e-11
4.07416e-10
2.3519e-11
1.81937e-10
9.21147e-12
7.73521e-11
5.17572e-12
2.923e-11
2.43357e-12
1.00757e-11
1.73446e-12
-2.00709e-13
2.26523e-12
-5.46464e-12
3.08049e-12
-5.82617e-12
4.13266e-12
-2.39143e-12
5.61163e-12
5.05452e-12
7.09152e-12
2.19297e-11
4.44355e-12
4.90815e-11
1.8513e-12
5.74962e-11
-7.91083e-12
4.75068e-11
-1.89891e-11
1.37885e-11
-2.18022e-11
-3.41902e-11
-1.80076e-11
-4.21309e-11
-2.41503e-12
-1.28565e-11
2.51755e-11
2.28797e-11
3.16867e-11
3.78583e-11
3.01043e-11
2.90959e-11
1.29473e-09
6.32535e-11
1.01295e-08
2.62152e-09
1.63922e-08
4.13199e-09
1.13947e-08
3.81089e-09
5.95978e-09
-1.85114e-09
-1.62632e-09
-9.57802e-09
-1.46675e-08
-1.50624e-08
-2.42577e-08
-1.49261e-08
-2.52774e-08
-1.1547e-08
-2.62313e-08
-2.9665e-09
-1.92856e-08
-2.18524e-09
-1.23387e-08
-2.05441e-09
-1.64382e-08
7.34322e-09
-2.33289e-08
9.07719e-09
-2.78071e-08
1.04615e-08
-2.42802e-08
-6.25502e-09
-1.5245e-08
-5.34712e-09
-8.97136e-09
-3.75682e-09
3.52666e-09
-1.29715e-09
2.52726e-08
-1.87438e-09
3.66041e-08
4.28683e-09
2.59995e-08
5.95619e-09
8.01511e-09
1.14428e-08
-8.80378e-09
1.7922e-08
-1.24755e-08
1.49687e-08
2.91589e-08
6.75375e-09
1.21486e-07
-1.46809e-08
2.7817e-07
-1.51837e-08
6.46136e-07
-2.64256e-08
1.361e-06
-3.48472e-08
2.77298e-06
-2.58461e-08
5.3846e-06
4.71979e-08
1.1532e-05
3.03475e-08
2.49788e-05
-9.50205e-08
4.59559e-05
4.21311e-07
8.12915e-05
2.22266e-06
0.00015273
1.38257e-06
0.000255241
4.92619e-06
0.000392335
8.31152e-06
0.000602509
9.69975e-06
0.000840134
7.8823e-06
0.00110207
8.32022e-06
0.00134462
1.06027e-05
0.00146894
5.44402e-06
0.00151513
2.9712e-06
0.00151887
2.81111e-06
0.00152434
-5.73117e-06
0.00153065
-7.57052e-06
0.00153555
-9.93309e-06
0.00152958
-1.33169e-05
0.00150957
-1.36083e-05
0.00148338
-3.06383e-06
0.00147468
-9.16025e-06
0.00146441
-2.91901e-06
0.00144405
-7.93395e-06
0.00139953
-8.30245e-06
0.00131125
-4.14945e-06
0.00114785
2.02772e-07
0.00091314
1.10387e-06
0.000654098
3.69998e-06
0.000410072
1.17161e-05
0.000240561
6.40399e-06
0.000148187
4.53381e-07
8.24515e-05
1.82585e-06
4.337e-05
2.0096e-06
2.27172e-05
1.25122e-06
1.12558e-05
6.22407e-07
5.50022e-06
3.62076e-07
2.59155e-06
1.74449e-07
1.20089e-06
8.1008e-08
5.49256e-07
3.53592e-08
2.57083e-07
2.06279e-08
1.2118e-07
6.43773e-09
5.45789e-08
4.95568e-09
2.34177e-08
2.48772e-09
1.00335e-08
9.31553e-10
4.34275e-09
4.38267e-10
1.85861e-09
1.92679e-10
8.21057e-10
6.31798e-11
3.55061e-10
3.0396e-11
1.56595e-10
1.25798e-11
6.78226e-11
7.2975e-12
2.58807e-11
3.8481e-12
9.78107e-12
1.64579e-12
1.7181e-12
2.05458e-12
-1.00338e-12
2.17754e-12
-1.18538e-12
3.17678e-12
3.29292e-12
3.57491e-12
1.0445e-11
4.12719e-12
2.08362e-11
2.474e-12
3.65483e-11
-1.60516e-12
4.08065e-11
-4.80272e-12
3.17547e-11
-9.69032e-12
1.0549e-11
-8.85031e-12
-1.32813e-11
-3.37129e-12
-2.15863e-11
4.77647e-12
-2.53151e-12
1.74476e-11
5.89925e-12
2.34076e-11
6.78678e-12
1.77916e-11
1.51895e-11
1.43881e-08
2.99175e-10
2.54427e-08
1.78258e-09
2.49946e-08
4.51754e-09
1.92285e-08
-1.23573e-09
5.4831e-09
-5.06701e-09
-6.56578e-09
-8.51678e-09
-3.61415e-08
-9.23455e-09
-4.83733e-08
-4.03834e-09
-4.22295e-08
-9.3119e-09
-4.06083e-08
-4.29456e-09
-4.24474e-08
4.50466e-09
-3.86286e-08
-3.40954e-09
-3.51854e-08
6.06619e-09
-3.9945e-08
1.13122e-08
-4.23818e-08
5.62007e-09
-4.34372e-08
-3.1754e-09
-3.03124e-08
-8.45478e-09
-2.03563e-08
-9.61291e-09
-5.52357e-09
-1.08121e-08
9.72223e-09
-1.09199e-08
2.50679e-08
-4.19511e-09
2.98176e-08
7.75189e-09
1.8636e-08
1.57568e-08
9.22487e-10
2.03282e-08
-6.292e-09
1.94435e-08
3.132e-08
3.54855e-09
1.27732e-07
-3.23507e-08
2.84814e-07
-1.74195e-08
6.15098e-07
-1.11684e-08
1.27212e-06
-2.44558e-08
2.55304e-06
3.00722e-08
5.00072e-06
1.78638e-07
1.09372e-05
1.02577e-07
2.19036e-05
2.75395e-07
4.23842e-05
3.52526e-07
8.21543e-05
5.76056e-07
0.000152621
5.99383e-07
0.000263054
3.42566e-06
0.000407852
4.52877e-06
0.000625245
1.97331e-06
0.000852793
8.48582e-06
0.00110489
1.02839e-05
0.00135137
7.0056e-06
0.00147866
6.23639e-06
0.00152479
3.06046e-06
0.00153801
-2.92653e-07
0.00153504
-8.3538e-07
0.00153457
-6.42428e-06
0.0015386
-8.95903e-06
0.00152934
-7.68562e-06
0.0015057
-4.67558e-06
0.00148545
-1.76573e-06
0.00147226
-1.99379e-06
0.00146206
-1.26993e-07
0.00143569
-5.13755e-07
0.00138727
-7.88207e-07
0.00128711
3.22779e-06
0.00111097
2.45457e-06
0.00085904
5.80379e-07
0.000590825
-1.09876e-06
0.000379025
-2.77124e-06
0.000225954
-2.12071e-06
0.000127778
-3.21267e-06
6.93292e-05
-1.38285e-06
3.64403e-05
-6.70207e-07
1.869e-05
-1.84782e-07
9.134e-06
-1.02994e-07
4.42042e-06
-4.56288e-08
2.08179e-06
-3.94263e-08
9.70367e-07
-2.17393e-08
4.41633e-07
-1.62945e-08
2.03303e-07
-3.30421e-09
8.70964e-08
1.64511e-11
3.91265e-08
-5.69375e-10
1.754e-08
-1.12869e-10
7.5827e-09
-1.84502e-10
3.30032e-09
-4.60102e-11
1.46824e-09
-1.50767e-11
6.27819e-10
-3.29392e-12
2.73887e-10
-2.79541e-12
1.16919e-10
-1.62549e-12
4.98155e-11
1.48994e-13
2.06813e-11
1.72384e-13
7.10528e-12
3.93735e-13
2.27742e-12
5.36097e-13
4.01495e-13
1.01149e-12
8.80839e-13
1.35201e-12
3.34842e-12
1.61349e-12
7.93409e-12
1.59495e-12
1.39332e-11
1.03173e-12
2.04822e-11
-7.05618e-13
2.12068e-11
-8.94266e-13
1.66777e-11
-1.77142e-12
9.48858e-12
-1.05664e-12
4.94726e-12
4.62096e-14
3.77764e-12
1.27365e-12
6.22386e-12
4.96241e-12
1.08188e-11
7.39927e-12
7.86029e-12
4.48591e-12
4.12716e-12
1.81583e-08
2.81588e-08
2.78532e-08
1.36617e-08
-1.53656e-08
-4.0131e-08
-4.86037e-08
-2.87909e-08
-5.87675e-09
-1.31827e-08
-3.34055e-08
-6.41059e-08
-5.74447e-08
-4.45296e-08
-3.70779e-08
-4.00232e-08
-4.00024e-08
-3.68454e-08
-3.97593e-08
-5.58797e-08
-6.75627e-08
-3.4806e-08
1.455e-08
5.47445e-08
6.78077e-08
9.3087e-08
1.171e-07
2.34818e-07
5.3524e-07
1.15265e-06
2.49787e-06
5.50506e-06
1.17312e-05
2.35023e-05
4.49515e-05
8.50292e-05
0.000151645
0.000264375
0.000414177
0.000619383
0.000856752
0.00112747
0.00135189
0.00148791
0.00153307
0.00154411
0.00154915
0.00154057
0.00152977
0.00152003
0.00150593
0.00149313
0.00148647
0.00148021
0.00145804
0.00141397
0.00132281
0.00115833
0.000912312
0.000643804
0.000413711
0.000248912
0.000141058
7.71924e-05
4.03373e-05
2.07285e-05
1.02921e-05
5.03996e-06
2.37587e-06
1.11575e-06
5.02063e-07
2.21605e-07
9.90882e-08
4.44951e-08
2.01919e-08
8.777e-09
3.78536e-09
1.62363e-09
7.02822e-10
3.08131e-10
1.32996e-10
5.71997e-11
2.40972e-11
1.01722e-11
4.00059e-12
2.11307e-12
2.13829e-12
3.72172e-12
6.56195e-12
9.79342e-12
1.24442e-11
1.40587e-11
1.43212e-11
1.50478e-11
1.5507e-11
1.54321e-11
1.62542e-11
1.63033e-11
9.94017e-12
)
;

boundaryField
{
    sides1
    {
        type            calculated;
        value           nonuniform List<scalar> 
20
(
4.52477e-12
3.00687e-12
1.10423e-11
3.24669e-11
5.33143e-11
5.05008e-11
3.27314e-11
-2.61647e-12
2.50634e-12
3.50516e-12
-4.47615e-09
-4.03458e-09
-2.2255e-09
-1.74905e-09
1.15855e-09
2.85072e-09
6.27385e-09
4.93243e-09
-3.30503e-09
-8.52377e-09
)
;
    }
    sides2
    {
        type            calculated;
        value           uniform 0;
    }
    empty
    {
        type            empty;
        value           nonuniform 0();
    }
}


// ************************************************************************* //
