/*--------------------------------*- C++ -*----------------------------------*\
| =========                 |                                                 |
| \\      /  F ield         | OpenFOAM: The Open Source CFD Toolbox           |
|  \\    /   O peration     | Version:  3.0.1                                 |
|   \\  /    A nd           | Web:      www.OpenFOAM.org                      |
|    \\/     M anipulation  |                                                 |
\*---------------------------------------------------------------------------*/
FoamFile
{
    version     2.0;
    format      ascii;
    class       volScalarField;
    location    "0.0001";
    object      rho;
}
// * * * * * * * * * * * * * * * * * * * * * * * * * * * * * * * * * * * * * //

dimensions      [1 -3 0 0 0 0 0];

internalField   nonuniform List<scalar> 
1000
(
0.83124
0.83124
0.83124
0.83124
0.831241
0.831241
0.83124
0.831239
0.831238
0.831238
0.831238
0.831239
0.831239
0.83124
0.831242
0.831243
0.831244
0.831243
0.831242
0.831242
0.831242
0.831241
0.83124
0.831239
0.831239
0.831238
0.831237
0.831234
0.831226
0.831209
0.831176
0.831107
0.830964
0.830688
0.830173
0.829284
0.827754
0.825405
0.821834
0.816575
0.809915
0.80241
0.795806
0.791412
0.789518
0.788692
0.787865
0.786766
0.784298
0.779232
0.770821
0.76106
0.753253
0.749462
0.748331
0.74843
0.748192
0.745653
0.740205
0.733534
0.726709
0.721039
0.716901
0.714205
0.712631
0.711707
0.711224
0.710967
0.710837
0.710774
0.710744
0.71073
0.710723
0.71072
0.710719
0.710718
0.710718
0.710718
0.710718
0.710718
0.710718
0.710718
0.710718
0.710718
0.710718
0.710718
0.710718
0.710718
0.710718
0.710718
0.710718
0.710718
0.710718
0.710718
0.710718
0.710718
0.710718
0.710718
0.710718
0.710718
0.83124
0.83124
0.83124
0.83124
0.831241
0.831241
0.83124
0.831239
0.831238
0.831238
0.831238
0.831239
0.831239
0.831239
0.83124
0.831241
0.831241
0.831241
0.83124
0.83124
0.831241
0.83124
0.83124
0.831239
0.831239
0.831238
0.831237
0.831234
0.831226
0.83121
0.83118
0.831119
0.830984
0.83071
0.830199
0.829371
0.827798
0.82558
0.822067
0.816902
0.810105
0.802618
0.795637
0.791227
0.78921
0.788403
0.787483
0.786253
0.783909
0.779014
0.771049
0.761435
0.753726
0.750102
0.749034
0.748984
0.748698
0.745941
0.740485
0.733586
0.726657
0.720883
0.71675
0.714121
0.712584
0.711676
0.711221
0.710963
0.710834
0.710773
0.710743
0.71073
0.710723
0.71072
0.710719
0.710718
0.710718
0.710718
0.710718
0.710718
0.710718
0.710718
0.710718
0.710718
0.710718
0.710718
0.710718
0.710718
0.710718
0.710718
0.710718
0.710718
0.710718
0.710718
0.710718
0.710718
0.710718
0.710718
0.710718
0.710718
0.83124
0.83124
0.83124
0.83124
0.831241
0.831241
0.83124
0.831239
0.831239
0.831238
0.831239
0.831239
0.831239
0.831239
0.831239
0.831239
0.831239
0.831239
0.831239
0.831239
0.831239
0.831239
0.831239
0.831239
0.831239
0.831239
0.831237
0.831234
0.831226
0.831211
0.831184
0.831123
0.830983
0.830735
0.830164
0.829349
0.8278
0.825629
0.822319
0.816962
0.810181
0.802953
0.795628
0.791221
0.789331
0.788367
0.787297
0.785589
0.782807
0.778095
0.770265
0.761103
0.754081
0.750919
0.749679
0.74941
0.748654
0.746122
0.740745
0.734136
0.72733
0.721158
0.716851
0.714289
0.712668
0.711754
0.711254
0.710987
0.710846
0.710779
0.710746
0.710731
0.710724
0.71072
0.710719
0.710718
0.710718
0.710718
0.710718
0.710718
0.710718
0.710718
0.710718
0.710718
0.710718
0.710718
0.710718
0.710718
0.710718
0.710718
0.710718
0.710718
0.710718
0.710718
0.710718
0.710718
0.710718
0.710718
0.710718
0.710718
0.83124
0.83124
0.83124
0.83124
0.83124
0.83124
0.83124
0.831239
0.831239
0.831239
0.831239
0.831239
0.831239
0.831239
0.831239
0.831239
0.831239
0.831239
0.831239
0.831239
0.831239
0.831239
0.83124
0.83124
0.831239
0.831239
0.831238
0.831235
0.831228
0.831214
0.831187
0.831119
0.830985
0.830752
0.830135
0.829294
0.827873
0.825685
0.822305
0.81704
0.810364
0.803029
0.795045
0.790846
0.788791
0.787877
0.786701
0.784786
0.782072
0.777419
0.769752
0.761172
0.754626
0.751638
0.75029
0.74939
0.748636
0.745989
0.741456
0.734828
0.728256
0.721458
0.717021
0.714368
0.712723
0.711781
0.711278
0.711003
0.710854
0.710784
0.71075
0.710732
0.710724
0.710721
0.710719
0.710718
0.710718
0.710718
0.710718
0.710718
0.710718
0.710718
0.710718
0.710718
0.710718
0.710718
0.710718
0.710718
0.710718
0.710718
0.710718
0.710718
0.710718
0.710718
0.710718
0.710718
0.710718
0.710718
0.710718
0.710718
0.83124
0.83124
0.83124
0.83124
0.83124
0.83124
0.83124
0.83124
0.83124
0.83124
0.83124
0.83124
0.83124
0.83124
0.831239
0.831239
0.831239
0.831239
0.83124
0.83124
0.83124
0.83124
0.83124
0.83124
0.831239
0.831239
0.831239
0.831236
0.83123
0.831216
0.831187
0.831122
0.83099
0.830765
0.830182
0.829293
0.827909
0.825687
0.821956
0.817146
0.810159
0.803232
0.79516
0.790521
0.788375
0.787345
0.786038
0.784229
0.781707
0.777259
0.769978
0.761256
0.754817
0.751925
0.750507
0.74972
0.748743
0.746321
0.741647
0.734819
0.727992
0.721289
0.717121
0.714351
0.7127
0.711792
0.711276
0.711003
0.710856
0.710782
0.710748
0.710732
0.710724
0.71072
0.710719
0.710718
0.710718
0.710718
0.710718
0.710718
0.710718
0.710718
0.710718
0.710718
0.710718
0.710718
0.710718
0.710718
0.710718
0.710718
0.710718
0.710718
0.710718
0.710718
0.710718
0.710718
0.710718
0.710718
0.710718
0.710718
0.83124
0.83124
0.83124
0.83124
0.83124
0.83124
0.83124
0.83124
0.83124
0.83124
0.83124
0.83124
0.83124
0.83124
0.83124
0.83124
0.83124
0.83124
0.83124
0.83124
0.83124
0.83124
0.83124
0.831239
0.831238
0.831238
0.831238
0.831236
0.831229
0.831215
0.831185
0.831118
0.830997
0.830768
0.830239
0.829387
0.828062
0.825771
0.821747
0.817104
0.809997
0.803114
0.795109
0.7906
0.78826
0.787259
0.786093
0.784712
0.782315
0.777459
0.7695
0.760694
0.754577
0.751936
0.750748
0.750068
0.749236
0.746598
0.741536
0.734784
0.727386
0.720817
0.717107
0.714498
0.712742
0.711801
0.711272
0.710993
0.710852
0.710778
0.710746
0.710731
0.710724
0.710721
0.710719
0.710718
0.710718
0.710718
0.710718
0.710718
0.710718
0.710718
0.710718
0.710718
0.710718
0.710718
0.710718
0.710718
0.710718
0.710718
0.710718
0.710718
0.710718
0.710718
0.710718
0.710718
0.710718
0.710718
0.710718
0.710718
0.83124
0.83124
0.83124
0.831239
0.831239
0.831239
0.831239
0.83124
0.83124
0.831241
0.831241
0.831241
0.83124
0.83124
0.83124
0.83124
0.83124
0.83124
0.83124
0.83124
0.83124
0.83124
0.83124
0.831239
0.831239
0.831239
0.831238
0.831235
0.831228
0.831214
0.831185
0.831125
0.831
0.830739
0.830254
0.82948
0.827988
0.825768
0.822267
0.817226
0.810446
0.802918
0.795418
0.790691
0.788173
0.787316
0.786745
0.785631
0.783274
0.777667
0.76883
0.759902
0.754268
0.751944
0.750919
0.750445
0.749113
0.746442
0.74089
0.734514
0.727468
0.721078
0.716801
0.714438
0.712744
0.711792
0.711261
0.71098
0.710846
0.710777
0.710745
0.71073
0.710724
0.710721
0.710719
0.710718
0.710718
0.710718
0.710718
0.710718
0.710718
0.710718
0.710718
0.710718
0.710718
0.710718
0.710718
0.710718
0.710718
0.710718
0.710718
0.710718
0.710718
0.710718
0.710718
0.710718
0.710718
0.710718
0.710718
0.710718
0.83124
0.83124
0.831239
0.831239
0.831239
0.831239
0.831239
0.831239
0.83124
0.831241
0.831241
0.831241
0.831241
0.83124
0.83124
0.831239
0.831239
0.83124
0.83124
0.831239
0.831239
0.831238
0.831238
0.831239
0.83124
0.83124
0.831239
0.831235
0.831227
0.831214
0.831183
0.831123
0.830981
0.830695
0.830232
0.829378
0.827693
0.825388
0.822042
0.816675
0.810396
0.802817
0.795655
0.791079
0.788551
0.787583
0.786841
0.785858
0.78338
0.777606
0.768534
0.759601
0.754138
0.751957
0.751088
0.750506
0.749333
0.746322
0.740981
0.734036
0.727325
0.721037
0.7165
0.714144
0.712629
0.71172
0.711234
0.71097
0.710841
0.710776
0.710744
0.71073
0.710723
0.71072
0.710719
0.710718
0.710718
0.710718
0.710718
0.710718
0.710718
0.710718
0.710718
0.710718
0.710718
0.710718
0.710718
0.710718
0.710718
0.710718
0.710718
0.710718
0.710718
0.710718
0.710718
0.710718
0.710718
0.710718
0.710718
0.710718
0.83124
0.83124
0.83124
0.83124
0.83124
0.83124
0.83124
0.831241
0.831241
0.831241
0.831241
0.831241
0.831242
0.83124
0.831239
0.831238
0.831239
0.83124
0.831239
0.831238
0.831237
0.831237
0.831238
0.831238
0.831238
0.831239
0.831239
0.831235
0.831228
0.831215
0.831185
0.831124
0.830976
0.830722
0.830237
0.829276
0.827619
0.825091
0.82166
0.816391
0.810481
0.80289
0.795688
0.791221
0.788865
0.787641
0.786638
0.785454
0.782928
0.777582
0.768992
0.760179
0.754407
0.752112
0.751186
0.750669
0.749643
0.746605
0.741285
0.734009
0.726619
0.720653
0.716504
0.713968
0.712483
0.711639
0.711188
0.710948
0.710829
0.71077
0.710742
0.710729
0.710723
0.71072
0.710719
0.710718
0.710718
0.710718
0.710718
0.710718
0.710718
0.710718
0.710718
0.710718
0.710718
0.710718
0.710718
0.710718
0.710718
0.710718
0.710718
0.710718
0.710718
0.710718
0.710718
0.710718
0.710718
0.710718
0.710718
0.710718
0.83124
0.83124
0.83124
0.83124
0.831241
0.83124
0.831241
0.831243
0.831244
0.831242
0.831241
0.831241
0.831242
0.831241
0.831239
0.831238
0.831239
0.83124
0.831239
0.831237
0.831237
0.831239
0.831241
0.831241
0.83124
0.831239
0.831238
0.831235
0.831228
0.831214
0.831183
0.831116
0.830973
0.830708
0.830215
0.829252
0.827619
0.824874
0.821332
0.816398
0.810324
0.802557
0.795805
0.791251
0.789052
0.787787
0.786487
0.784987
0.782416
0.777478
0.769455
0.760702
0.754718
0.752132
0.751048
0.750464
0.749438
0.746518
0.741256
0.734059
0.726757
0.720803
0.716658
0.714045
0.712522
0.711653
0.711194
0.710952
0.710832
0.710771
0.710743
0.710729
0.710723
0.71072
0.710719
0.710718
0.710718
0.710718
0.710718
0.710718
0.710718
0.710718
0.710718
0.710718
0.710718
0.710718
0.710718
0.710718
0.710718
0.710718
0.710718
0.710718
0.710718
0.710718
0.710718
0.710718
0.710718
0.710718
0.710718
0.710718
)
;

boundaryField
{
    sides1
    {
        type            calculated;
        value           nonuniform List<scalar> 
20
(
0.710718
0.710718
0.710718
0.710718
0.710718
0.710718
0.710718
0.710718
0.710718
0.710718
0.83124
0.83124
0.83124
0.83124
0.83124
0.83124
0.83124
0.83124
0.83124
0.83124
)
;
    }
    sides2
    {
        type            calculated;
        value           nonuniform List<scalar> 
200
(
0.83124
0.83124
0.83124
0.83124
0.831241
0.831241
0.83124
0.831239
0.831238
0.831238
0.831238
0.831239
0.831239
0.83124
0.831242
0.831243
0.831244
0.831243
0.831242
0.831242
0.831242
0.831241
0.83124
0.831239
0.831239
0.831238
0.831237
0.831234
0.831226
0.831209
0.831176
0.831107
0.830964
0.830688
0.830173
0.829284
0.827754
0.825405
0.821834
0.816575
0.809915
0.80241
0.795806
0.791412
0.789518
0.788692
0.787865
0.786766
0.784298
0.779232
0.770821
0.76106
0.753253
0.749462
0.748331
0.74843
0.748192
0.745653
0.740205
0.733534
0.726709
0.721039
0.716901
0.714205
0.712631
0.711707
0.711224
0.710967
0.710837
0.710774
0.710744
0.71073
0.710723
0.71072
0.710719
0.710718
0.710718
0.710718
0.710718
0.710718
0.710718
0.710718
0.710718
0.710718
0.710718
0.710718
0.710718
0.710718
0.710718
0.710718
0.710718
0.710718
0.710718
0.710718
0.710718
0.710718
0.710718
0.710718
0.710718
0.710718
0.83124
0.83124
0.83124
0.83124
0.831241
0.83124
0.831241
0.831243
0.831244
0.831242
0.831241
0.831241
0.831242
0.831241
0.831239
0.831238
0.831239
0.83124
0.831239
0.831237
0.831237
0.831239
0.831241
0.831241
0.83124
0.831239
0.831238
0.831235
0.831228
0.831214
0.831183
0.831116
0.830973
0.830708
0.830215
0.829252
0.827619
0.824874
0.821332
0.816398
0.810324
0.802557
0.795805
0.791251
0.789052
0.787787
0.786487
0.784987
0.782416
0.777478
0.769455
0.760702
0.754718
0.752132
0.751048
0.750464
0.749438
0.746518
0.741256
0.734059
0.726757
0.720803
0.716658
0.714045
0.712522
0.711653
0.711194
0.710952
0.710832
0.710771
0.710743
0.710729
0.710723
0.71072
0.710719
0.710718
0.710718
0.710718
0.710718
0.710718
0.710718
0.710718
0.710718
0.710718
0.710718
0.710718
0.710718
0.710718
0.710718
0.710718
0.710718
0.710718
0.710718
0.710718
0.710718
0.710718
0.710718
0.710718
0.710718
0.710718
)
;
    }
    empty
    {
        type            empty;
    }
}


// ************************************************************************* //
