/*--------------------------------*- C++ -*----------------------------------*\
| =========                 |                                                 |
| \\      /  F ield         | OpenFOAM: The Open Source CFD Toolbox           |
|  \\    /   O peration     | Version:  3.0.1                                 |
|   \\  /    A nd           | Web:      www.OpenFOAM.org                      |
|    \\/     M anipulation  |                                                 |
\*---------------------------------------------------------------------------*/
FoamFile
{
    version     2.0;
    format      ascii;
    class       volVectorField;
    location    "0.0001";
    object      U;
}
// * * * * * * * * * * * * * * * * * * * * * * * * * * * * * * * * * * * * * //

dimensions      [0 1 -1 0 0 0 0];

internalField   nonuniform List<vector> 
1000
(
(3.78103e-05 -4.05059e-06 0)
(-5.2198e-05 -5.20566e-06 0)
(-0.000166556 -1.20752e-05 0)
(-0.000166518 -8.05648e-06 0)
(-0.000149027 2.01044e-05 0)
(-8.74897e-05 5.29697e-05 0)
(-6.78775e-06 7.85998e-05 0)
(5.64043e-05 9.73836e-05 0)
(0.000132822 7.52853e-05 0)
(0.000253925 5.19345e-07 0)
(0.000197813 -4.60613e-05 0)
(4.96419e-05 -2.92721e-05 0)
(-2.70548e-05 -3.75355e-06 0)
(-0.000263574 -1.41577e-05 0)
(-0.000252371 -0.000479048 0)
(-0.000211301 -0.000748356 0)
(0.000207788 -0.000668563 0)
(0.000505314 -0.000476128 0)
(0.000567159 -0.000114737 0)
(0.000524071 -0.000112479 0)
(0.000314013 -0.00010441 0)
(1.64922e-05 5.32631e-05 0)
(-0.000148962 -4.96979e-06 0)
(-0.000160907 -8.3824e-05 0)
(-3.58042e-05 -0.000154667 0)
(0.000246374 -0.000166612 0)
(0.000774737 -0.000122607 0)
(0.00193408 -8.25213e-05 0)
(0.00434839 -6.55816e-06 0)
(0.00974143 6.83857e-05 0)
(0.0205514 -0.00013059 0)
(0.0438747 -0.000846378 0)
(0.0897739 -0.00183738 0)
(0.183191 -0.00314018 0)
(0.349401 -0.00632558 0)
(0.655851 -0.0134342 0)
(1.16131 -0.015882 0)
(2.01244 -0.0269943 0)
(3.24586 -0.046038 0)
(5.13946 -0.0749078 0)
(7.47235 -0.0980042 0)
(10.2838 -0.100859 0)
(12.5672 -0.165012 0)
(14.4028 -0.185838 0)
(15.3365 -0.228169 0)
(15.8577 -0.25663 0)
(16.1672 -0.173798 0)
(16.2798 -0.0528997 0)
(16.2149 0.154987 0)
(16.1299 0.390544 0)
(16.1257 0.51487 0)
(16.0703 0.417535 0)
(16.0611 0.256949 0)
(15.9351 0.137225 0)
(15.78 -0.0643835 0)
(15.5302 -0.0337109 0)
(14.9071 -0.0327429 0)
(13.527 -0.00861937 0)
(11.5156 0.0124748 0)
(8.88153 0.0342214 0)
(6.32099 0.0390124 0)
(4.02977 0.0325916 0)
(2.43028 0.0251167 0)
(1.34923 0.0122217 0)
(0.728951 0.00679919 0)
(0.380355 0.00286609 0)
(0.18544 0.000810646 0)
(0.0948682 0.00099337 0)
(0.0436803 9.57485e-05 0)
(0.0209491 0.000113547 0)
(0.00946003 -3.62754e-07 0)
(0.00425403 6.48718e-06 0)
(0.00189129 3.39755e-07 0)
(0.000826732 1.64381e-06 0)
(0.000365813 1.92471e-06 0)
(0.000156948 1.22209e-06 0)
(6.9565e-05 8.14021e-07 0)
(2.98353e-05 3.53412e-07 0)
(1.31917e-05 1.38629e-07 0)
(5.74066e-06 7.48993e-08 0)
(2.53774e-06 2.72667e-08 0)
(1.07095e-06 6.09165e-09 0)
(5.41843e-07 4.91587e-09 0)
(2.34729e-07 -3.01718e-09 0)
(8.76087e-08 -8.3811e-09 0)
(3.94293e-08 -1.0808e-08 0)
(2.28043e-08 -1.79152e-08 0)
(2.99285e-08 -2.88735e-08 0)
(5.48993e-08 -4.09274e-08 0)
(9.31077e-08 -4.96125e-08 0)
(1.36939e-07 -5.39952e-08 0)
(1.70601e-07 -3.77157e-08 0)
(1.95016e-07 6.57843e-09 0)
(1.9875e-07 1.15482e-08 0)
(1.80885e-07 4.77605e-08 0)
(1.58323e-07 4.50714e-08 0)
(1.31472e-07 2.89493e-08 0)
(1.39532e-07 2.22918e-08 0)
(1.08053e-07 7.09774e-08 0)
(6.2399e-08 7.58925e-08 0)
(3.42131e-05 -4.2053e-05 0)
(-4.49421e-05 -3.90954e-05 0)
(-0.000135459 -3.21188e-05 0)
(-0.000139729 -1.31496e-05 0)
(-0.000124495 7.15535e-06 0)
(-7.16832e-05 2.15565e-05 0)
(-2.54766e-05 3.90491e-05 0)
(8.03257e-05 6.23885e-05 0)
(0.000102221 1.95325e-05 0)
(0.000230028 -8.92097e-05 0)
(0.000145605 -0.000148552 0)
(0.00014723 -0.000172272 0)
(0.00011877 -8.78222e-05 0)
(0.000216698 4.67216e-07 0)
(0.000224492 -7.3051e-05 0)
(0.000151072 -0.000176828 0)
(0.000154938 -8.08997e-05 0)
(0.000237722 0.000128116 0)
(0.000206397 0.000201823 0)
(0.000120726 0.000116289 0)
(-3.38405e-05 7.41392e-05 0)
(-9.6708e-05 0.000179951 0)
(-0.000161496 4.10152e-05 0)
(-0.000156015 -2.95454e-05 0)
(-6.93417e-05 -0.000108471 0)
(0.000156466 -0.000155987 0)
(0.000586315 -0.000175227 0)
(0.00169538 -0.000188349 0)
(0.00390893 -4.4057e-05 0)
(0.00943594 -0.000160253 0)
(0.019474 -0.0010619 0)
(0.0391794 -0.00337732 0)
(0.0766449 -0.0017063 0)
(0.157279 -0.00379053 0)
(0.330137 -0.0063906 0)
(0.583986 -0.0127672 0)
(1.07104 -0.0197633 0)
(1.85061 -0.0499091 0)
(3.15538 -0.0973522 0)
(4.56663 -0.104516 0)
(7.3676 -0.191379 0)
(9.47961 -0.165343 0)
(12.47 -0.284554 0)
(13.9445 -0.268761 0)
(15.2303 -0.262163 0)
(15.5931 -0.198212 0)
(15.9347 -0.0693811 0)
(15.9957 0.122186 0)
(15.951 0.247239 0)
(15.9862 0.442301 0)
(15.9731 0.525619 0)
(15.9867 0.424251 0)
(15.9969 0.227181 0)
(15.9309 0.171854 0)
(15.7241 -0.10202 0)
(15.405 -0.0770008 0)
(14.6258 -0.0786965 0)
(13.1704 -0.134313 0)
(10.983 -0.096589 0)
(8.39248 -0.0294456 0)
(5.85746 -0.00416231 0)
(3.64213 -0.00280505 0)
(2.22612 0.00691206 0)
(1.20246 -0.00498246 0)
(0.665911 -0.00115973 0)
(0.339008 -0.00485279 0)
(0.173532 -0.00214024 0)
(0.0839341 -0.00162399 0)
(0.0389658 -0.000767185 0)
(0.0186449 -0.000341915 0)
(0.00863473 -0.000169464 0)
(0.00384012 -8.54964e-05 0)
(0.00174309 -4.08354e-05 0)
(0.00072529 -1.60364e-05 0)
(0.00033415 -6.9258e-06 0)
(0.000133462 -2.01824e-06 0)
(6.22304e-05 -3.20551e-07 0)
(2.55269e-05 -2.15189e-07 0)
(1.12085e-05 -1.03002e-07 0)
(4.81566e-06 -3.80153e-08 0)
(2.1805e-06 -5.51665e-09 0)
(9.64584e-07 -2.35824e-08 0)
(4.51502e-07 -1.52294e-08 0)
(1.94781e-07 -1.50589e-08 0)
(5.01548e-08 -3.0418e-08 0)
(4.90918e-09 -5.83557e-08 0)
(-1.99879e-08 -8.78865e-08 0)
(-1.68062e-09 -1.21268e-07 0)
(2.64553e-08 -1.40738e-07 0)
(9.75798e-08 -1.41179e-07 0)
(2.23142e-07 -6.67536e-08 0)
(2.80981e-07 -1.74276e-08 0)
(2.85441e-07 6.6347e-08 0)
(2.87279e-07 1.18759e-07 0)
(2.09044e-07 2.59973e-07 0)
(1.2478e-07 1.62587e-07 0)
(7.76603e-08 6.96662e-08 0)
(4.31524e-08 -4.34625e-08 0)
(7.52728e-08 -1.40382e-07 0)
(3.7004e-08 -1.54009e-07 0)
(1.51964e-05 -7.03922e-05 0)
(-5.96707e-05 -6.75796e-05 0)
(-8.83854e-05 -4.86298e-05 0)
(-0.000111424 -1.39412e-05 0)
(-6.30382e-05 7.76913e-05 0)
(-1.47558e-05 7.92763e-05 0)
(2.46166e-05 7.8062e-05 0)
(4.06815e-05 8.86184e-05 0)
(5.50383e-05 3.9089e-05 0)
(0.000139952 -5.02156e-05 0)
(0.000163027 -0.000183723 0)
(0.000122278 -0.000202468 0)
(0.000204504 -0.000225235 0)
(0.000285565 -0.000233173 0)
(0.000290528 -0.000228963 0)
(0.000201773 -0.000203319 0)
(0.000154018 -0.000121686 0)
(0.000121154 -0.000119129 0)
(1.76429e-05 -8.57047e-05 0)
(-6.1399e-05 -0.000126777 0)
(-0.000158086 -0.000115993 0)
(-0.00018717 3.62562e-05 0)
(-0.000151458 3.11662e-05 0)
(-0.000114118 -4.59307e-05 0)
(1.84151e-05 -0.000158962 0)
(0.000134219 -0.000193948 0)
(0.000819992 -0.000281238 0)
(0.00165882 -0.000257122 0)
(0.00411186 -0.000167093 0)
(0.01061 -0.000513066 0)
(0.0189573 -0.000537379 0)
(0.039624 0.000234128 0)
(0.0855319 -0.000776543 0)
(0.152389 -0.00352322 0)
(0.332147 -0.00114535 0)
(0.623658 0.00471134 0)
(1.1353 -0.0104574 0)
(1.91372 -0.0229253 0)
(3.17192 -0.0424639 0)
(4.59144 -0.106061 0)
(7.59634 -0.156281 0)
(9.39524 -0.177479 0)
(12.8768 -0.350526 0)
(14.1005 -0.360369 0)
(15.5794 -0.259774 0)
(15.6052 -0.142611 0)
(15.8541 0.0802707 0)
(15.8678 0.051003 0)
(15.8693 -0.0153991 0)
(15.8461 0.777316 0)
(15.9758 0.694992 0)
(15.932 0.575481 0)
(16.1208 0.389196 0)
(16.2104 0.327874 0)
(16.2537 -0.0227802 0)
(15.9112 -0.0192155 0)
(15.2696 -0.0131106 0)
(13.7817 -0.227008 0)
(11.8081 -0.271932 0)
(9.25557 -0.208152 0)
(6.47113 -0.21178 0)
(3.87791 -0.0812654 0)
(2.45121 -0.0661296 0)
(1.37032 -0.0566773 0)
(0.760251 -0.0285682 0)
(0.393373 -0.0238907 0)
(0.202707 -0.0167952 0)
(0.10089 -0.00850256 0)
(0.0481543 -0.00380132 0)
(0.0230237 -0.00187031 0)
(0.0104593 -0.00109506 0)
(0.00476727 -0.000427257 0)
(0.00215571 -0.00017963 0)
(0.000913632 -6.81993e-05 0)
(0.000404736 -2.73496e-05 0)
(0.000169329 -1.06581e-05 0)
(7.46245e-05 -3.8127e-06 0)
(3.0714e-05 -7.20592e-07 0)
(1.51932e-05 -8.9655e-07 0)
(5.4771e-06 -5.59367e-07 0)
(2.67241e-06 -2.38859e-07 0)
(1.16857e-06 -1.1175e-07 0)
(4.72933e-07 -5.09702e-08 0)
(1.93804e-07 -3.60877e-08 0)
(2.82183e-08 -5.55472e-08 0)
(-5.08244e-08 -7.37093e-08 0)
(-6.65144e-08 -1.04455e-07 0)
(-8.62692e-08 -1.41521e-07 0)
(-2.02319e-08 -1.60444e-07 0)
(8.40928e-08 -1.45887e-07 0)
(3.34017e-07 -4.91741e-08 0)
(4.18288e-07 8.69619e-08 0)
(4.94976e-07 3.92533e-07 0)
(3.88802e-07 3.8412e-07 0)
(2.21356e-07 4.51312e-07 0)
(1.33894e-07 3.8215e-07 0)
(8.17722e-09 2.25052e-07 0)
(-2.3992e-08 2.10709e-09 0)
(8.78455e-08 -1.51954e-07 0)
(1.23822e-07 -2.71885e-07 0)
(6.10061e-06 -9.18553e-05 0)
(-6.41394e-05 -7.71621e-05 0)
(-6.8352e-05 -7.1717e-05 0)
(-5.90378e-05 -6.15294e-05 0)
(-3.21964e-05 -4.63638e-05 0)
(-2.26041e-05 -3.80626e-05 0)
(2.13979e-05 4.41081e-06 0)
(3.64207e-05 3.19549e-05 0)
(2.6087e-05 2.42954e-05 0)
(5.91231e-05 -6.54025e-05 0)
(7.39713e-05 -0.00011981 0)
(0.000127482 -0.000171992 0)
(0.000199029 -0.000215195 0)
(0.000235144 -0.000189569 0)
(0.000274138 -0.000170152 0)
(0.000268188 -0.000203353 0)
(0.000244852 -0.000179061 0)
(0.000164792 -0.000200239 0)
(9.59809e-05 -0.000206612 0)
(-2.64475e-06 -0.00018963 0)
(-6.19828e-05 -0.000126802 0)
(-6.88264e-05 -5.64301e-05 0)
(-5.52358e-06 -4.83085e-05 0)
(8.95532e-05 -7.60421e-05 0)
(0.000137561 -0.00015162 0)
(0.000283283 -0.000184931 0)
(0.000669466 -0.000195674 0)
(0.00154178 -0.000214462 0)
(0.0036084 -0.000423704 0)
(0.008552 -0.000722305 0)
(0.0173681 -0.00051317 0)
(0.0365228 -0.000232775 0)
(0.0850006 -0.0012147 0)
(0.162904 -0.00501027 0)
(0.306404 -0.00503197 0)
(0.67498 -0.00407462 0)
(1.18248 -0.0241066 0)
(1.88289 -0.0230274 0)
(3.11817 -0.0193556 0)
(4.71057 -0.129204 0)
(7.24953 -0.175827 0)
(9.81382 -0.229394 0)
(12.3132 -0.368664 0)
(14.8121 -0.246129 0)
(15.3612 -0.212028 0)
(15.8567 0.257879 0)
(15.8899 0.249222 0)
(15.9139 0.123144 0)
(15.7967 0.089164 0)
(15.8364 0.460882 0)
(15.8805 0.667883 0)
(16.0791 0.308478 0)
(16.2126 0.223067 0)
(16.6444 0.153694 0)
(16.5651 0.0286983 0)
(16.8057 0.0404915 0)
(15.6201 0.0478988 0)
(15.1546 -0.199704 0)
(12.4597 -0.215776 0)
(10.3627 -0.102509 0)
(6.75376 -0.0127083 0)
(4.12205 0.000671336 0)
(2.49119 -0.0273424 0)
(1.41045 -0.000234488 0)
(0.772319 -0.00497107 0)
(0.411721 -0.00612857 0)
(0.216747 -0.00456489 0)
(0.110691 -0.00130454 0)
(0.0519516 -0.000785096 0)
(0.0274762 -0.000218597 0)
(0.011317 -0.000161649 0)
(0.00524104 -2.34466e-05 0)
(0.00214663 -1.23339e-05 0)
(0.000981811 6.64998e-06 0)
(0.000407851 3.43214e-07 0)
(0.000182029 5.58538e-07 0)
(7.43111e-05 -1.37795e-07 0)
(2.98125e-05 3.32339e-08 0)
(1.81065e-05 7.86083e-08 0)
(6.74299e-06 2.85757e-08 0)
(2.9965e-06 -4.48202e-08 0)
(1.2432e-06 -1.89314e-08 0)
(5.10357e-07 -2.66153e-08 0)
(1.60034e-07 -2.62945e-08 0)
(-1.66094e-08 -3.94831e-08 0)
(-8.04859e-08 -5.75427e-08 0)
(-1.4713e-07 -9.01296e-08 0)
(-1.27784e-07 -1.06949e-07 0)
(-5.37209e-08 -1.3762e-07 0)
(1.29734e-07 -1.35161e-07 0)
(4.48e-07 -5.50155e-08 0)
(7.06662e-07 2.20122e-07 0)
(6.02244e-07 3.54202e-07 0)
(4.49445e-07 5.01421e-07 0)
(3.29351e-07 3.3588e-07 0)
(1.83024e-07 2.51072e-07 0)
(-1.88544e-07 2.78976e-07 0)
(-7.3592e-08 -1.42499e-08 0)
(1.78313e-08 -3.10442e-07 0)
(3.22684e-07 -4.24728e-07 0)
(-1.66092e-05 -9.19751e-05 0)
(-4.55167e-05 -9.20407e-05 0)
(-5.39485e-05 -8.7678e-05 0)
(-6.10898e-05 -7.73409e-05 0)
(-5.01311e-05 -7.07227e-05 0)
(-5.09177e-05 -9.23416e-05 0)
(-4.91209e-05 -9.84688e-05 0)
(-6.91212e-06 -9.82551e-05 0)
(3.08951e-05 -0.000122543 0)
(0.000106928 -6.93639e-05 0)
(0.000127515 -7.4138e-05 0)
(0.000183188 -6.8494e-05 0)
(0.000192884 -2.52412e-05 0)
(0.000203996 1.05771e-05 1.35688e-31)
(0.000240937 -1.10646e-05 0)
(0.000239275 -5.26134e-05 0)
(0.00020926 -8.93677e-05 0)
(0.000150027 -0.000180264 0)
(0.000115645 -0.000162449 0)
(4.95819e-05 -0.00017775 0)
(4.66373e-05 -0.000178176 0)
(0.000123657 -0.000142384 0)
(0.000201363 -0.000132566 0)
(0.000232019 -5.93763e-05 0)
(0.000260611 -6.05615e-05 0)
(0.000358171 -6.20803e-05 0)
(0.00057038 -4.56996e-05 0)
(0.00136684 -9.11226e-05 0)
(0.00309294 -0.000205449 0)
(0.00711718 -0.000116843 0)
(0.0143978 -3.96276e-05 0)
(0.0352574 -0.00026044 1.35317e-31)
(0.0873468 -0.00204544 0)
(0.157779 -0.00461248 0)
(0.303477 -0.0132725 0)
(0.653338 -0.0308205 0)
(1.22403 -0.0556648 -1.88525e-31)
(1.77617 -0.057086 0)
(3.49017 -0.112866 0)
(4.84227 -0.1297 1.4962e-31)
(7.39919 -0.149683 0)
(10.0431 -0.228575 0)
(12.4899 -0.271825 0)
(14.8197 -0.0559336 -1.75114e-31)
(15.5282 -0.108596 0)
(15.8177 0.154323 0)
(15.948 0.258237 0)
(15.8799 0.17523 0)
(15.7934 0.107828 0)
(15.7981 0.0892607 0)
(15.9917 -0.0690001 0)
(16.181 -0.0783545 0)
(16.3942 -0.0845406 0)
(16.611 -0.00786572 0)
(16.6456 -0.0422962 0)
(16.5585 -0.0379569 -8.46127e-32)
(15.735 -0.140929 9.00381e-32)
(14.8097 0.0539531 0)
(12.367 0.0304812 0)
(9.87649 0.0223258 -9.39538e-32)
(6.73696 0.114956 0)
(4.11642 0.0918237 0)
(2.55697 0.0324147 0)
(1.30478 0.00434905 0)
(0.779241 -0.00437705 0)
(0.412057 -0.00251246 0)
(0.212407 0.00249381 0)
(0.107265 0.00120817 0)
(0.0520866 0.000392684 0)
(0.0235101 0.000689118 0)
(0.0110034 0.000556097 0)
(0.00454321 0.000174268 6.85525e-32)
(0.00199156 1.06842e-05 0)
(0.000840354 9.12668e-06 0)
(0.000400078 3.34979e-06 0)
(0.000168603 1.38657e-06 0)
(7.4717e-05 1.30417e-07 0)
(3.11584e-05 -8.01954e-07 0)
(1.44875e-05 -1.48195e-07 0)
(6.33084e-06 1.10056e-07 0)
(2.74965e-06 2.50254e-08 0)
(1.35418e-06 -1.63585e-08 0)
(5.26278e-07 -1.15677e-08 0)
(1.58498e-07 -6.1063e-09 0)
(-2.70393e-08 -6.36338e-09 0)
(-1.28289e-07 -1.19197e-08 0)
(-1.67854e-07 -1.59988e-08 0)
(-1.74883e-07 -2.80728e-08 0)
(-1.05386e-07 -3.52394e-08 0)
(1.13884e-07 -4.11519e-08 0)
(5.61691e-07 -2.29747e-08 0)
(6.87638e-07 6.09689e-09 -7.10992e-32)
(7.81401e-07 5.41247e-08 0)
(4.44857e-07 2.56514e-08 -5.60397e-32)
(3.05701e-07 -4.75973e-08 0)
(1.57804e-08 1.56196e-07 0)
(-1.28065e-07 3.84699e-07 0)
(-3.84337e-08 2.71196e-07 0)
(1.78736e-07 -1.15831e-07 0)
(5.48491e-07 -3.52569e-07 0)
(-2.84862e-05 -9.87869e-05 0)
(-3.65492e-05 -9.22714e-05 0)
(-3.8168e-05 -7.53912e-05 0)
(-4.14166e-05 -4.66072e-05 0)
(-4.66433e-05 -3.00915e-05 0)
(-4.89601e-05 -3.09673e-05 0)
(-8.04574e-05 -3.26714e-05 0)
(9.21633e-06 -7.89311e-05 0)
(1.96304e-05 -0.000125666 0)
(0.000114818 -8.60896e-05 0)
(0.00016345 -4.64119e-05 0)
(0.000182771 1.10363e-05 0)
(0.000196729 5.32588e-05 0)
(0.000170548 0.00010724 -1.05775e-31)
(0.000162413 9.39209e-05 0)
(0.000113302 5.99217e-05 0)
(7.95611e-05 2.31614e-05 0)
(6.79738e-05 -8.54713e-06 0)
(3.09285e-05 -5.47182e-05 0)
(4.78488e-05 -5.57571e-05 0)
(7.56965e-05 -0.000132743 0)
(0.000115952 -0.000207088 0)
(0.000170005 -0.000235773 0)
(0.00022133 -0.0001447 0)
(0.000239434 9.48496e-06 0)
(0.000342097 2.69584e-06 0)
(0.000624622 -2.69495e-06 0)
(0.00141447 2.91262e-06 0)
(0.0033478 1.72473e-05 0)
(0.00781047 -4.91739e-06 0)
(0.0177325 1.60778e-05 0)
(0.0361898 9.12593e-06 -1.46927e-31)
(0.0828314 -0.00475919 0)
(0.145317 -0.00537273 0)
(0.297192 -0.00731274 0)
(0.603765 -0.0261045 0)
(1.07325 -0.0215209 1.7425e-31)
(1.81692 -0.0612777 0)
(3.06275 -0.0644666 0)
(5.06466 -0.0391177 -1.64872e-31)
(7.33878 -0.0595367 0)
(10.0611 -0.0966936 0)
(12.3473 -0.0844264 0)
(14.7797 -0.0211884 1.71098e-31)
(15.3772 0.0329402 0)
(15.8451 0.0893147 0)
(15.8938 0.156029 0)
(15.9173 0.19221 0)
(15.8596 0.105334 0)
(15.9546 -0.0634118 0)
(16.0837 -0.106596 0)
(16.2549 -0.18103 0)
(16.4227 -0.12091 0)
(16.5869 -0.0724203 0)
(16.5584 -0.0787631 0)
(16.345 -0.0381581 8.5721e-32)
(15.6105 -0.0337119 -7.94142e-32)
(14.1191 0.139442 0)
(12.1323 0.208115 0)
(9.34822 0.089175 7.9199e-32)
(6.51641 0.0135439 0)
(4.10884 0.0128241 0)
(2.85379 0.0511096 0)
(1.32392 0.00559635 0)
(0.792271 -0.00275411 0)
(0.39406 0.00146958 0)
(0.197463 0.00662367 0)
(0.0991648 0.00304235 0)
(0.0470845 0.000938955 0)
(0.02018 0.000590579 0)
(0.0101408 0.000282767 0)
(0.00457357 0.000218708 -7.94269e-32)
(0.00210315 1.9997e-05 0)
(0.000873927 2.53638e-06 0)
(0.000398552 -8.40733e-06 0)
(0.000178604 -3.04724e-06 0)
(7.61871e-05 -2.2674e-06 0)
(3.48168e-05 -1.02573e-06 0)
(1.46984e-05 -2.8906e-07 0)
(6.45936e-06 -1.94413e-07 0)
(2.82983e-06 -1.94679e-08 0)
(1.46701e-06 -1.89993e-08 0)
(5.30997e-07 4.2235e-09 0)
(1.65099e-07 1.01739e-08 0)
(-2.64084e-08 1.53724e-08 0)
(-9.45735e-08 3.15227e-08 0)
(-1.64208e-07 5.4657e-08 0)
(-1.50576e-07 7.25956e-08 0)
(-5.78333e-08 9.81446e-08 0)
(1.48884e-07 1.3614e-07 0)
(7.40314e-07 7.35292e-08 0)
(6.72875e-07 1.31794e-08 6.76296e-32)
(7.11491e-07 -1.41238e-07 0)
(3.6636e-07 -3.26701e-07 6.00529e-32)
(4.07119e-08 -4.53314e-07 0)
(-1.49533e-07 -1.83553e-07 0)
(-3.86818e-07 3.58636e-08 0)
(8.65213e-08 2.41716e-07 0)
(3.00813e-07 1.11844e-07 0)
(5.57842e-07 1.30867e-07 0)
(-5.89205e-05 -6.5475e-05 0)
(-3.00761e-05 -5.12637e-05 0)
(-7.32064e-07 -1.05224e-05 0)
(1.28095e-05 5.76373e-05 0)
(-2.39586e-05 7.3981e-05 0)
(-5.13633e-05 5.87785e-05 0)
(-8.1902e-05 -8.62811e-05 0)
(-9.21918e-05 -0.000116525 0)
(-3.3556e-05 -0.000147739 0)
(-2.46321e-05 -0.000102251 0)
(8.64497e-05 2.12865e-05 0)
(0.000119093 2.12965e-05 0)
(0.000133762 6.28534e-05 0)
(0.000100824 0.000126966 0)
(2.18559e-05 0.00013577 0)
(1.76054e-05 9.88836e-05 0)
(-3.87707e-05 4.13411e-05 0)
(-5.4226e-05 -1.78927e-05 0)
(1.00119e-05 2.12792e-06 0)
(0.000124123 6.28295e-05 0)
(0.000168736 0.000109729 0)
(0.000123327 -0.000161202 0)
(0.000103842 -0.000196937 0)
(0.000115757 -0.000103716 0)
(0.000116843 7.47932e-05 0)
(0.000175803 7.50595e-06 0)
(0.000651618 -8.11835e-05 0)
(0.00157467 -9.26082e-05 0)
(0.00404949 1.49754e-05 0)
(0.00835152 -0.000172841 0)
(0.0181731 -0.000797473 0)
(0.0371824 -0.000826699 0)
(0.0740391 6.06924e-05 0)
(0.151912 0.00297981 0)
(0.335895 -0.000423585 0)
(0.569097 0.00498495 0)
(1.04185 0.0240154 0)
(1.81742 0.0300918 0)
(2.97773 0.0536747 0)
(4.75499 0.0826582 0)
(7.13158 0.0668495 0)
(9.85457 0.069635 0)
(12.5723 -0.0275863 0)
(14.4416 0.00257636 0)
(15.4144 0.0551201 0)
(15.8129 0.00405994 0)
(15.9622 -0.0844096 0)
(16.0208 0.123545 0)
(16.1111 -0.0363439 0)
(16.123 -0.330059 0)
(16.1955 -0.400088 0)
(16.2339 -0.320992 0)
(16.37 -0.183886 0)
(16.4361 -0.132133 0)
(16.4687 -0.081119 0)
(15.9404 -0.0728981 0)
(15.3336 -0.0213122 0)
(14.1394 0.16874 0)
(11.7062 0.245003 0)
(9.9176 0.186378 0)
(6.39524 0.0141415 0)
(4.05465 0.00595154 0)
(2.62525 0.115064 0)
(1.55442 0.0515866 0)
(0.741692 0.0175706 0)
(0.410327 0.0100054 0)
(0.20076 0.00713132 0)
(0.0968337 0.00286273 0)
(0.0481919 0.0010811 0)
(0.0216985 0.000319021 0)
(0.0102675 0.000126417 0)
(0.00487622 9.07187e-05 0)
(0.0021806 9.21967e-05 0)
(0.00112121 1.77934e-05 0)
(0.000419786 -2.2455e-06 0)
(0.000202516 -3.82046e-07 0)
(8.18692e-05 -1.18264e-07 0)
(3.59087e-05 9.89695e-08 0)
(1.61208e-05 2.84264e-07 0)
(7.63869e-06 1.00712e-07 0)
(2.89716e-06 4.62922e-08 0)
(1.58147e-06 3.94352e-08 0)
(5.30018e-07 2.66664e-08 0)
(1.55487e-07 3.36776e-08 0)
(1.46765e-08 4.68956e-08 0)
(-6.71232e-08 6.51531e-08 0)
(-7.46136e-08 1.03432e-07 0)
(-9.30608e-08 1.40831e-07 0)
(1.1569e-10 1.78491e-07 0)
(1.53091e-07 1.62089e-07 0)
(5.77141e-07 -2.20699e-09 0)
(5.83494e-07 -1.98646e-07 0)
(5.443e-07 -4.27321e-07 0)
(2.46169e-07 -5.0786e-07 0)
(1.00965e-07 -4.07587e-07 0)
(-9.90128e-08 -2.08759e-07 0)
(-1.70888e-07 2.38923e-07 0)
(-4.61648e-08 3.73516e-07 0)
(2.37328e-07 3.19981e-07 0)
(3.68809e-07 3.21961e-07 0)
(-3.9574e-05 -1.20774e-05 0)
(4.06013e-05 9.87158e-06 0)
(0.000187731 0.000108694 0)
(0.000128066 0.00011309 0)
(8.12415e-05 7.61591e-05 0)
(-3.14495e-06 -1.23439e-05 0)
(-0.000156374 -0.000185963 0)
(-9.06784e-05 -0.000280284 0)
(-0.000236679 -0.000186056 0)
(-0.000259853 5.35123e-05 0)
(-0.000243341 7.05768e-05 0)
(-0.000148207 8.25027e-05 0)
(-0.000159785 0.00014767 0)
(-0.000255169 0.000124474 0)
(-0.00027789 2.23441e-05 0)
(-0.000263264 -8.19737e-05 0)
(-0.000139197 -0.000106899 0)
(-0.000112909 -3.96054e-05 0)
(-8.79341e-06 -2.84478e-05 0)
(0.000172703 -0.000100722 0)
(0.000385213 -0.000119686 0)
(0.000315908 -0.000330126 0)
(0.000179227 -0.000241573 0)
(3.36863e-05 4.07797e-05 0)
(-7.99532e-05 7.78631e-05 0)
(-1.21656e-05 1.99486e-05 0)
(0.000554292 -0.000177057 0)
(0.00162578 -0.000231696 0)
(0.00426272 -0.000368173 0)
(0.00952774 -0.000323201 0)
(0.0189484 -0.000706134 0)
(0.0412743 -0.000410407 0)
(0.0764712 0.0026119 0)
(0.186324 0.00654292 0)
(0.361045 0.00520595 0)
(0.629696 0.0318606 0)
(1.16534 0.0388062 0)
(2.19444 0.138764 0)
(3.2541 0.178926 0)
(5.25594 0.276983 0)
(7.81356 0.213409 0)
(10.14 0.16481 0)
(13.2472 0.137592 0)
(14.7157 0.0934164 0)
(15.8144 0.0948733 0)
(16.0308 0.00717355 0)
(16.0565 -0.233149 0)
(16.1512 -0.19872 0)
(16.2339 -0.260899 0)
(16.2383 -0.282693 0)
(16.228 -0.277552 0)
(16.2263 -0.249174 0)
(16.1854 -0.181583 0)
(16.3068 -0.149379 0)
(16.0132 -0.177036 0)
(15.9109 -0.168333 0)
(14.8313 -0.0669256 0)
(14.182 0.0871741 0)
(11.3563 0.151481 0)
(9.49207 0.197206 0)
(6.34976 0.225661 0)
(3.80027 0.0973016 0)
(2.3677 0.0490181 0)
(1.3568 0.0829801 0)
(0.735009 0.0526251 0)
(0.379698 0.0337919 0)
(0.199507 0.0101105 0)
(0.0942681 0.00591158 0)
(0.0460409 0.00290878 0)
(0.0217108 0.0010865 0)
(0.00928212 0.000415513 0)
(0.00460121 0.00020203 0)
(0.00200794 0.000120219 0)
(0.00101316 7.57012e-05 0)
(0.00040613 3.14075e-05 0)
(0.000185209 1.2509e-05 0)
(7.56872e-05 5.44957e-06 0)
(3.35668e-05 2.42067e-06 0)
(1.45998e-05 9.86063e-07 0)
(6.42482e-06 6.96023e-07 0)
(2.72155e-06 2.66652e-07 0)
(1.25079e-06 1.7372e-07 0)
(4.99369e-07 7.40106e-08 0)
(1.47371e-07 3.69517e-08 0)
(3.02567e-08 5.36576e-08 0)
(-1.48521e-08 6.55863e-08 0)
(-3.80734e-08 9.4257e-08 0)
(-2.47575e-09 1.12226e-07 0)
(7.46255e-08 1.49077e-07 0)
(2.05031e-07 1.23628e-07 0)
(3.90225e-07 -8.51205e-09 0)
(4.45251e-07 -1.41136e-07 0)
(4.07264e-07 -3.62315e-07 0)
(2.30144e-07 -3.0037e-07 0)
(9.40558e-08 -1.96329e-07 0)
(-6.48158e-08 2.55595e-08 0)
(-9.74877e-08 3.44129e-07 0)
(-5.48339e-09 4.86239e-07 0)
(1.31959e-07 5.32663e-07 0)
(-3.44949e-08 5.82334e-07 0)
(5.33872e-05 5.46489e-06 0)
(0.000272327 7.85816e-05 0)
(0.000271444 0.000108118 0)
(0.000229337 9.73827e-05 0)
(0.000116271 -1.95522e-05 0)
(-6.27261e-05 -0.00026362 0)
(-0.000247298 -0.000134062 0)
(-0.000313027 6.61995e-06 0)
(-0.000453412 -0.000116136 0)
(-0.000442293 -2.01409e-05 0)
(-0.000427415 2.11586e-05 0)
(-0.00033655 0.000114853 0)
(-0.000375457 0.000268997 0)
(-0.000468894 0.000291898 0)
(-0.000502532 9.47221e-05 0)
(-0.000427957 -0.000102305 0)
(-0.00026137 -0.000189076 0)
(-0.000224364 -0.000168392 0)
(-0.000195783 -0.000192214 0)
(-0.000135491 -0.000249243 0)
(0.000165983 1.71819e-05 0)
(0.000382779 0.000477929 0)
(0.000231511 0.000820086 0)
(5.52184e-05 0.000803977 0)
(-9.06529e-05 0.000583266 0)
(0.000103347 2.2723e-05 0)
(0.000508558 -0.000451869 0)
(0.00174842 -0.000249977 0)
(0.00424661 -0.000357565 0)
(0.00858059 -0.000715803 0)
(0.0180419 -8.46278e-06 0)
(0.0373326 0.000801759 0)
(0.0751674 0.00139834 0)
(0.171546 0.00348741 0)
(0.313458 0.00322846 0)
(0.649509 0.0111013 0)
(1.17181 0.0224048 0)
(2.21488 0.0825895 0)
(3.42097 0.132683 0)
(5.50874 0.0892073 0)
(7.92914 0.1672 0)
(10.3511 0.22178 0)
(13.0724 0.238931 0)
(15.0083 0.191847 0)
(15.8031 0.106931 0)
(16.2038 -0.00278353 0)
(16.2172 -0.0762304 0)
(16.2478 -0.203993 0)
(16.3053 -0.238535 0)
(16.2672 -0.153052 0)
(16.2114 -0.0909107 0)
(16.2007 0.0157556 0)
(16.2113 -0.0387298 0)
(16.2449 -0.0292123 0)
(16.0062 -0.0588975 0)
(15.7139 -0.090319 0)
(14.7853 -0.0223711 0)
(13.6051 0.0397474 0)
(11.198 0.0286054 0)
(8.53174 0.011901 0)
(5.82335 0.0468362 0)
(3.54599 0.0308159 0)
(2.16807 -0.0161761 0)
(1.12536 0.00105565 0)
(0.637257 0.00547307 0)
(0.315446 0.00603635 0)
(0.163 0.00293903 0)
(0.07669 0.00147973 0)
(0.0377393 0.00059678 0)
(0.0174017 0.000353252 0)
(0.00787663 4.64248e-05 0)
(0.00376959 0.000105093 0)
(0.0016158 2.82469e-05 0)
(0.000711714 1.49471e-05 0)
(0.000307426 9.69612e-06 0)
(0.000140218 2.55244e-06 0)
(5.981e-05 1.41448e-06 0)
(2.58671e-05 5.21586e-07 0)
(1.15344e-05 2.63738e-07 0)
(4.78162e-06 1.37317e-07 0)
(2.15322e-06 4.17669e-08 0)
(8.8892e-07 3.07247e-08 0)
(3.85212e-07 1.80624e-08 0)
(1.35896e-07 1.56905e-08 0)
(4.95771e-08 3.13741e-08 0)
(9.92346e-09 4.24899e-08 0)
(4.7866e-09 5.99488e-08 0)
(2.11989e-08 7.51253e-08 0)
(6.24931e-08 7.14252e-08 0)
(1.43685e-07 7.74744e-08 0)
(2.00947e-07 4.65525e-08 0)
(2.53346e-07 -2.54518e-08 0)
(2.14603e-07 -8.97848e-08 0)
(1.598e-07 -1.03304e-07 0)
(1.06434e-07 -2.80027e-08 0)
(5.63715e-08 4.43618e-08 0)
(7.52183e-08 1.57499e-07 0)
(1.19622e-07 2.52168e-07 0)
(1.2499e-07 1.59771e-07 0)
(3.43694e-08 1.68503e-07 0)
(0.000116839 5.93571e-06 0)
(0.000267149 3.02464e-05 0)
(0.000355654 9.71015e-05 0)
(0.000213686 8.58571e-05 0)
(8.83042e-05 4.77667e-05 0)
(-0.000303371 0.000123361 0)
(-0.00045427 0.000256915 0)
(-0.000257638 0.000466072 0)
(-0.000333631 0.000216635 0)
(-0.000235209 2.60288e-05 0)
(-0.000203065 -0.000278979 0)
(-0.000331921 -9.20066e-05 0)
(-0.000554001 0.000120787 0)
(-0.000651914 0.000265876 0)
(-0.000580538 0.000137123 0)
(-0.000385016 -0.000153506 0)
(-0.000270688 -0.00016746 0)
(-0.000298833 -0.000144381 0)
(-0.000503416 -0.000211179 0)
(-0.000598321 -0.000173262 0)
(-0.000512371 1.92918e-05 0)
(-0.000377221 0.000705479 0)
(-0.000116124 0.00114455 0)
(0.0003506 0.00122814 0)
(0.000514028 0.000948521 0)
(0.00106398 0.000369483 0)
(0.000822346 -0.000797076 0)
(0.00151111 -0.000558693 0)
(0.00387051 -0.000701037 0)
(0.00745157 -0.000690476 0)
(0.0179013 -0.000170836 0)
(0.0376663 0.00118076 0)
(0.0861985 0.00137601 0)
(0.17866 0.00323856 0)
(0.338887 0.00403993 0)
(0.66609 0.00264038 0)
(1.22273 0.00943625 0)
(2.10473 0.0168403 0)
(3.65714 0.0199726 0)
(5.3868 0.0292256 0)
(7.84152 0.112114 0)
(10.5918 0.121832 0)
(13.1609 0.148295 0)
(15.0623 0.117932 0)
(15.9195 0.0861444 0)
(16.2446 0.0520067 0)
(16.3725 0.0137449 0)
(16.3949 -0.175545 0)
(16.2951 -0.248313 0)
(16.2052 -0.194741 0)
(16.1847 -0.013403 0)
(16.2062 0.0355277 0)
(16.3154 0.0263074 0)
(16.3925 0.0164225 0)
(16.2811 -0.0292987 0)
(15.8931 -0.0659535 0)
(15.3112 -0.00684059 0)
(13.8651 0.0269053 0)
(11.9036 -0.0178185 0)
(9.15354 -0.0432002 0)
(6.2867 -0.0380735 0)
(3.96426 -0.0267182 0)
(2.30818 -0.0219666 0)
(1.28509 -0.0118553 0)
(0.686204 -0.00468106 0)
(0.353713 -0.00153252 0)
(0.178378 -0.000839664 0)
(0.0872338 -0.000386634 0)
(0.0426051 -0.000275629 0)
(0.0197069 -0.000166276 0)
(0.00934348 -0.000109072 0)
(0.00418866 -1.65221e-05 0)
(0.00172517 -5.23409e-06 0)
(0.000820119 -5.24793e-06 0)
(0.000346578 -1.20119e-06 0)
(0.000161443 -1.27466e-06 0)
(6.9868e-05 -1.14439e-07 0)
(2.92566e-05 -1.89222e-07 0)
(1.2902e-05 -3.75029e-09 0)
(5.34569e-06 -1.63701e-08 0)
(2.38692e-06 -6.57016e-09 0)
(1.02616e-06 1.00975e-09 0)
(4.3733e-07 1.62729e-09 0)
(1.73645e-07 3.44399e-09 0)
(7.99991e-08 3.80144e-09 0)
(3.22764e-08 7.50736e-09 0)
(2.20962e-08 1.24607e-08 0)
(3.67786e-08 1.61089e-08 0)
(6.2043e-08 2.06957e-08 0)
(1.00934e-07 1.84537e-08 0)
(1.34559e-07 1.80037e-08 0)
(1.55118e-07 1.03456e-08 0)
(1.65891e-07 1.39856e-09 0)
(1.75611e-07 1.82942e-09 0)
(1.79359e-07 -2.49407e-08 0)
(1.83295e-07 -4.50065e-08 0)
(1.86954e-07 -4.00548e-08 0)
(1.94046e-07 -6.21269e-08 0)
(1.61404e-07 -1.01277e-07 0)
(5.11241e-08 -1.13586e-07 0)
)
;

boundaryField
{
    sides1
    {
        type            zeroGradient;
    }
    sides2
    {
        type            slip;
    }
    empty
    {
        type            empty;
    }
}


// ************************************************************************* //
