/*--------------------------------*- C++ -*----------------------------------*\
| =========                 |                                                 |
| \\      /  F ield         | OpenFOAM: The Open Source CFD Toolbox           |
|  \\    /   O peration     | Version:  2012                                  |
|   \\  /    A nd           | Website:  www.openfoam.com                      |
|    \\/     M anipulation  |                                                 |
\*---------------------------------------------------------------------------*/
FoamFile
{
    version     2.0;
    format      ascii;
    class       volScalarField;
    location    "0.32";
    object      maxKappa;
}
// * * * * * * * * * * * * * * * * * * * * * * * * * * * * * * * * * * * * * //

dimensions      [0 0 0 0 0 0 0];


internalField   nonuniform List<scalar> 
2268
(
7.41654e-06
1.4365e-05
2.12952e-05
2.83949e-05
3.53407e-05
4.20585e-05
4.85336e-05
5.50483e-05
6.09452e-05
6.67689e-05
7.19358e-05
7.59382e-05
7.9615e-05
8.25366e-05
8.39565e-05
8.39565e-05
8.33381e-05
8.08502e-05
7.60732e-05
6.85658e-05
5.72923e-05
4.28211e-05
2.42332e-05
9.03429e-06
1.51586e-05
2.18355e-05
2.88017e-05
3.56606e-05
4.23288e-05
4.87868e-05
5.5265e-05
6.11526e-05
6.70022e-05
7.21396e-05
7.62609e-05
8.00542e-05
8.26254e-05
8.40381e-05
8.40381e-05
8.37591e-05
8.1379e-05
7.66376e-05
6.9163e-05
5.78723e-05
4.38557e-05
2.75036e-05
1.1434e-05
1.66555e-05
2.28988e-05
2.96197e-05
3.63194e-05
4.28928e-05
4.93163e-05
5.57309e-05
6.16059e-05
6.74826e-05
7.25732e-05
7.68605e-05
8.07376e-05
8.32376e-05
8.48352e-05
8.50658e-05
8.50658e-05
8.32042e-05
7.91487e-05
7.27093e-05
6.28224e-05
5.02172e-05
3.5693e-05
1.41619e-05
1.86167e-05
2.4357e-05
3.07567e-05
3.72286e-05
4.36693e-05
5.00442e-05
5.63697e-05
6.22227e-05
6.81113e-05
7.31378e-05
7.75722e-05
8.1505e-05
8.40581e-05
8.56826e-05
8.58174e-05
8.58174e-05
8.42219e-05
8.03133e-05
7.44472e-05
6.5843e-05
5.72084e-05
4.83312e-05
1.71549e-05
2.09841e-05
2.62202e-05
3.22708e-05
3.84815e-05
4.47604e-05
5.10675e-05
5.72803e-05
6.31222e-05
6.90148e-05
7.39739e-05
7.86383e-05
8.26758e-05
8.54577e-05
8.74177e-05
8.81497e-05
8.81497e-05
8.75006e-05
8.48865e-05
8.04489e-05
7.31981e-05
6.51692e-05
5.69584e-05
2.02296e-05
2.35492e-05
2.83115e-05
3.40067e-05
3.99263e-05
4.60096e-05
5.22233e-05
5.83068e-05
6.41392e-05
6.99987e-05
7.48952e-05
7.97965e-05
8.39191e-05
8.67774e-05
8.90298e-05
8.97808e-05
8.97808e-05
8.93642e-05
8.69739e-05
8.3528e-05
7.81359e-05
7.53105e-05
7.48592e-05
2.34471e-05
2.63633e-05
3.07046e-05
3.60694e-05
4.17133e-05
4.75962e-05
5.37031e-05
5.96524e-05
6.54833e-05
7.1272e-05
7.61387e-05
8.13546e-05
8.55389e-05
8.88349e-05
9.14632e-05
9.28704e-05
9.34945e-05
9.34945e-05
9.27296e-05
9.12595e-05
8.77539e-05
8.61912e-05
8.46536e-05
2.66773e-05
2.92499e-05
3.321e-05
3.82569e-05
4.36067e-05
4.92672e-05
5.52307e-05
6.10674e-05
6.69197e-05
7.25929e-05
7.75171e-05
8.30061e-05
8.72204e-05
9.07966e-05
9.36756e-05
9.52093e-05
9.63254e-05
9.63254e-05
9.5957e-05
9.5957e-05
9.86519e-05
0.000109426
0.000109426
0.000327847
0.000614532
0.000869232
0.00103836
0.00111958
0.00115604
0.00115604
0.00113821
0.00109498
0.00104733
0.000960329
0.000865228
0.000752842
0.000628452
0.000507668
0.000388113
0.000278987
0.000180061
9.72777e-05
0.000397831
0.000704065
0.000946749
0.00106689
0.00111667
0.00114966
0.00114966
0.00113537
0.00109911
0.00105788
0.000971281
0.000874245
0.000762171
0.000638073
0.000518075
0.000398531
0.000291298
0.000200171
0.000135583
0.000469928
0.000663238
0.000891712
0.00107555
0.00116379
0.00120237
0.00120237
0.00117392
0.00111905
0.00107417
0.000989514
0.000898959
0.000793241
0.000671588
0.000556367
0.000445398
0.000348379
0.000266274
0.000210805
0.000546529
0.000812558
0.00105628
0.00113834
0.00115099
0.0011827
0.0011827
0.001164
0.00113024
0.0011047
0.00101964
0.000920498
0.000815674
0.000695728
0.000582644
0.000471278
0.000376998
0.000305492
0.00026278
0.000677258
0.000800303
0.00100898
0.00118022
0.00125601
0.00129192
0.00129192
0.00124058
0.00116373
0.00113151
0.00105596
0.000972711
0.000879725
0.000760909
0.000652731
0.000551517
0.000462706
0.000389744
0.00034197
0.00078721
0.00101303
0.00125012
0.00128589
0.00128589
0.00125991
0.00125991
0.00123481
0.00120071
0.00119863
0.00110954
0.00100112
0.000909536
0.000796734
0.000691085
0.000587009
0.000499194
0.000435
0.000396382
0.000983119
0.00104106
0.0012384
0.00138566
0.00143144
0.00144812
0.00144812
0.00134354
0.0012281
0.00122694
0.00116911
0.00108946
0.00100897
0.000887669
0.000781915
0.000686951
0.000596473
0.000521136
0.000469818
0.00114513
0.00135347
0.00160283
0.00160283
0.00155928
0.00140584
0.00140403
0.00133943
0.00132481
0.00132481
0.00125119
0.00112449
0.00104748
0.000941745
0.000835305
0.000731442
0.000639499
0.000569216
0.000523001
3.47529e-05
3.65074e-05
3.87472e-05
4.30067e-05
4.74982e-05
5.25023e-05
5.82586e-05
6.39484e-05
6.9785e-05
7.53553e-05
8.04659e-05
8.62268e-05
9.13723e-05
9.5075e-05
0.000101321
0.000102437
0.000108428
0.000107977
0.000114728
0.000120244
0.000134374
0.000164904
0.000183207
4.21214e-05
4.36501e-05
4.5503e-05
4.93007e-05
5.33287e-05
5.79282e-05
6.30124e-05
6.86514e-05
7.3924e-05
8.01287e-05
8.51164e-05
9.15334e-05
9.61862e-05
0.000102054
0.000107198
0.00011083
0.000117155
0.00011804
0.000125449
0.000126722
0.000138757
0.000151766
0.000183207
4.96372e-05
5.09995e-05
5.26847e-05
5.61631e-05
5.99261e-05
6.44497e-05
6.96997e-05
7.59315e-05
8.24719e-05
9.11681e-05
0.000100945
0.000118038
0.000136501
0.000159908
0.000178696
0.000204183
0.000212871
0.000213787
0.000204533
0.000175371
0.000152464
0.000169397
0.000177837
7.87021e-05
8.14061e-05
8.61604e-05
9.51564e-05
0.00010639
0.000121572
0.000141476
0.000168403
0.000202203
0.000255041
0.000334058
0.000507968
0.000766194
0.000970394
0.00114871
0.00135185
0.00141579
0.00143933
0.00128158
0.000861361
0.000383925
0.000354022
0.00031284
0.000482997
0.000502691
0.000543881
0.000616871
0.000709911
0.000834936
0.000992662
0.00119082
0.00141299
0.00154472
0.00178966
0.00208328
0.00234414
0.00264194
0.00285731
0.00304329
0.00313097
0.00320102
0.0032276
0.00318127
0.00297926
0.00262266
0.00209774
0.00136348
0.00138931
0.00144209
0.00151679
0.00163349
0.00179374
0.00197961
0.00218646
0.00218646
0.00221548
0.00239408
0.00267297
0.00297041
0.00331086
0.0035898
0.00382304
0.00394401
0.00395481
0.0037076
0.00353734
0.00369447
0.00377169
0.00391977
0.00155519
0.00157653
0.00161385
0.00166669
0.00171796
0.00179696
0.00189503
0.00206147
0.00224116
0.00242832
0.00270324
0.00305336
0.0034255
0.00376858
0.00404906
0.00425237
0.00435224
0.00440996
0.00450772
0.00433713
0.00419989
0.00438791
0.0047672
0.00169927
0.00172095
0.00174891
0.00180344
0.00184672
0.00191781
0.00201409
0.00214288
0.00231672
0.00255194
0.00283795
0.00311164
0.00334533
0.00355778
0.00378995
0.00402275
0.00423016
0.00459433
0.00484664
0.00504823
0.00526582
0.00536675
0.0055825
0.00184241
0.00185995
0.00188091
0.00193261
0.00197318
0.00203826
0.00213566
0.00228966
0.00248119
0.00268979
0.00287746
0.00300354
0.00316082
0.00329929
0.00341188
0.0035651
0.0037833
0.00415665
0.00483436
0.00540485
0.00577372
0.00598169
0.00598169
0.0019806
0.00199299
0.0020129
0.00205429
0.0020929
0.00215336
0.00223909
0.00235917
0.00252033
0.00267589
0.00278145
0.00288412
0.00294384
0.00298098
0.00301081
0.00303583
0.00314017
0.00332158
0.00392113
0.00462674
0.00525296
0.00561559
0.0059532
0.00210533
0.00211542
0.00213516
0.00217301
0.00221434
0.00227388
0.00235306
0.0024599
0.00259648
0.00270221
0.00275096
0.00278742
0.00281189
0.002812
0.00277488
0.00270327
0.00263608
0.00264315
0.00294149
0.00356512
0.00422334
0.00479099
0.00531231
0.00223139
0.00224116
0.00226025
0.00229683
0.00233737
0.00239455
0.00245936
0.00254123
0.00263025
0.00271703
0.00277842
0.00280904
0.00282609
0.0028161
0.00279413
0.00276945
0.00274531
0.00278387
0.00291497
0.00324099
0.00374289
0.00435163
0.00481881
0.00235125
0.0023606
0.00237933
0.0024132
0.00245104
0.0025042
0.00255864
0.0026292
0.00269422
0.0027814
0.00284262
0.0028869
0.00292771
0.00295618
0.00298387
0.00302007
0.00306534
0.00317297
0.00334325
0.00366351
0.00410705
0.00464221
0.00508995
0.00246685
0.00247655
0.00249489
0.00252662
0.00256178
0.00261282
0.00266109
0.00272801
0.00278211
0.00286131
0.0029308
0.00299706
0.00306345
0.00312512
0.00318255
0.00325462
0.00333943
0.00349
0.00368354
0.00400509
0.00443158
0.00493652
0.00535254
0.00257861
0.00258838
0.0026056
0.00263576
0.00266854
0.00271746
0.002762
0.00282771
0.00287931
0.0029591
0.00303669
0.00311524
0.00319551
0.00327277
0.00334867
0.0034478
0.00356369
0.00374701
0.00397078
0.00430046
0.0047023
0.00518397
0.00563222
0.00268656
0.00269543
0.00271121
0.0027399
0.00277057
0.00281865
0.00286106
0.00292751
0.00298198
0.00306016
0.00313702
0.00322088
0.00330884
0.0034008
0.00349344
0.00361682
0.00375752
0.00396857
0.00423846
0.00457922
0.00498841
0.00548832
0.00591416
0.00278899
0.00279753
0.00281289
0.00284109
0.00287061
0.00291828
0.00295941
0.00302474
0.0030801
0.00315691
0.00323523
0.00332339
0.00341537
0.00351809
0.00362469
0.00377161
0.00394091
0.00417151
0.00446103
0.00481007
0.00522249
0.00572907
0.00617763
0.00288685
0.00289554
0.00291058
0.00293825
0.00296624
0.00301268
0.00305223
0.00311587
0.00317264
0.00324883
0.00332663
0.00341688
0.0035104
0.00362743
0.00375718
0.00392095
0.00412623
0.00437253
0.00467233
0.00503443
0.00546438
0.0059971
0.00641057
0.00298066
0.0029894
0.00300372
0.00303053
0.00305703
0.00310236
0.00314096
0.00320364
0.00325993
0.00333621
0.00341228
0.00350809
0.00360491
0.00373605
0.00387911
0.00405369
0.00426696
0.00451979
0.00482452
0.00519635
0.00563613
0.00618074
0.00658375
0.00306981
0.00307827
0.00309167
0.00311752
0.0031427
0.0031867
0.00322439
0.00328542
0.00334079
0.0034182
0.00349664
0.00359494
0.00371274
0.00384304
0.00399985
0.00417802
0.00439647
0.00465394
0.00496724
0.00534575
0.00579645
0.00635274
0.0066844
0.00315314
0.00316131
0.00317401
0.00319904
0.00322312
0.00326561
0.00330222
0.00336153
0.00341563
0.00349274
0.00357089
0.00366958
0.00378731
0.00391699
0.00407448
0.00425556
0.0044778
0.00473744
0.00505456
0.00542743
0.00588183
0.00642599
0.00669945
0.00323158
0.00323951
0.00325173
0.00327575
0.00329893
0.00333931
0.00337493
0.00343176
0.00348451
0.00356007
0.00364575
0.00374404
0.00386044
0.00399216
0.00415127
0.00433462
0.0045532
0.00480861
0.00511626
0.00547785
0.00592295
0.00643949
0.00669945
0.00330517
0.00331267
0.00332416
0.00334671
0.00336872
0.00340645
0.00344093
0.00349429
0.00354551
0.00361677
0.00370047
0.003796
0.00390987
0.00404078
0.00419429
0.00437116
0.00458012
0.0048271
0.00512111
0.00547175
0.00589158
0.00639055
0.00667423
0.00337417
0.00338102
0.00339161
0.00341231
0.00343312
0.00346791
0.00350109
0.00355031
0.00360082
0.00367006
0.00375139
0.00384539
0.00395467
0.00408001
0.00422567
0.00439701
0.00459629
0.0048321
0.00510565
0.00543341
0.00581974
0.00628548
0.00659899
0.00343855
0.00344462
0.00345414
0.00347263
0.00349191
0.00352321
0.00355465
0.00359898
0.00364815
0.00371318
0.00378828
0.00387517
0.00397608
0.00409494
0.00423255
0.00439364
0.00457701
0.00479586
0.00504561
0.00534937
0.00569566
0.00612952
0.00646729
0.00349908
0.00350428
0.00351254
0.00352846
0.0035457
0.00357299
0.003602
0.0036411
0.00368746
0.00374709
0.00381612
0.00389752
0.00399165
0.0041013
0.00422582
0.00437433
0.00454341
0.00474656
0.0049724
0.00524627
0.00554881
0.0059301
0.00628057
0.00355612
0.00356028
0.00356704
0.00357999
0.0035947
0.00361738
0.00364308
0.00367633
0.00371956
0.00377338
0.0038351
0.0039072
0.00398934
0.0040872
0.00419905
0.00433304
0.00448229
0.00466418
0.00486605
0.00511294
0.00538032
0.00570445
0.00604323
0.00361011
0.00361319
0.00361835
0.00362831
0.00364027
0.0036581
0.00367963
0.00370648
0.00374277
0.00378955
0.00384325
0.00390695
0.00397979
0.00406572
0.00416106
0.00427686
0.00440732
0.00456682
0.00474477
0.00496048
0.00519831
0.00547743
0.00578641
0.00366123
0.00366329
0.00366684
0.0036738
0.00368278
0.00369552
0.00371207
0.00373183
0.00376135
0.00380003
0.00384458
0.00389736
0.00395651
0.00402897
0.00411046
0.00420829
0.00431557
0.0044479
0.004603
0.00477922
0.00500088
0.00523471
0.00552828
0.00370982
0.00371095
0.00371297
0.00371706
0.00372293
0.0037307
0.00374206
0.00375464
0.00377432
0.00380021
0.00383413
0.00387627
0.00392389
0.0039814
0.00405081
0.0041261
0.00422793
0.0043207
0.00446545
0.00458512
0.00479466
0.00496824
0.005255
0.0037555
0.00375576
0.0037564
0.00375771
0.00376038
0.00376329
0.00376924
0.00377441
0.0037858
0.00380117
0.00382281
0.00385096
0.00389198
0.00392809
0.00399133
0.00403884
0.00412991
0.00419282
0.00431807
0.00440403
0.00457721
0.00470858
0.00495234
0.00379759
0.00379705
0.00379654
0.00379547
0.00379534
0.00379411
0.00379547
0.00379427
0.00379767
0.00379678
0.00381347
0.00382683
0.00385628
0.00387645
0.00392321
0.00395204
0.00402032
0.004062
0.00415937
0.00422092
0.00435649
0.00445581
0.00464611
0.00383534
0.0038341
0.00383253
0.00382957
0.00382716
0.00382247
0.00381946
0.00381273
0.00380937
0.00379994
0.00380424
0.00380441
0.00381876
0.00382175
0.00384903
0.00385907
0.00390402
0.00392376
0.00399056
0.00402664
0.00412426
0.00419631
0.00434169
0.00386802
0.00386617
0.00386369
0.00385932
0.0038552
0.00384792
0.00384125
0.00382963
0.00382076
0.00380459
0.00379715
0.003785
0.00378391
0.00376873
0.00377374
0.0037613
0.00378052
0.00377698
0.00381417
0.00382317
0.00388191
0.00391856
0.00401784
0.00389501
0.00389262
0.00388932
0.00388378
0.0038782
0.00386894
0.00385996
0.0038451
0.00383182
0.00381286
0.00379494
0.00377262
0.00375529
0.00372384
0.00370677
0.00367009
0.00365926
0.003628
0.00363311
0.00361651
0.00364019
0.0036435
0.00369476
0.00391641
0.00391359
0.00390966
0.00390323
0.00389647
0.0038858
0.00387524
0.00385843
0.00384221
0.00381678
0.00379401
0.00376595
0.00373364
0.00369226
0.00365273
0.00359312
0.003551
0.00348668
0.00345245
0.00340137
0.00338855
0.00336072
0.00337076
0.00393212
0.0039289
0.00392434
0.00391713
0.00390946
0.00389785
0.00388613
0.00386968
0.00385242
0.00383017
0.00380307
0.00376879
0.00372791
0.00367765
0.00361879
0.00354778
0.00346512
0.00336907
0.003293
0.00319892
0.0031397
0.0030745
0.00304578
0.0039432
0.00393969
0.00393465
0.00392691
0.00391855
0.00390621
0.00389354
0.00387471
0.00385566
0.00383115
0.00380235
0.00376541
0.00372026
0.00366404
0.00359673
0.0035145
0.00341657
0.00329943
0.00316528
0.00302536
0.00291102
0.0027934
0.00271809
0.00394972
0.00394586
0.00394034
0.00393214
0.00392317
0.00391232
0.00389981
0.00388391
0.0038646
0.00384007
0.00381008
0.00377159
0.00372376
0.00366332
0.00359018
0.00350097
0.00339475
0.00326723
0.0031162
0.00294107
0.00274656
0.00254662
0.00240536
0.00395357
0.00394951
0.0039436
0.00393491
0.00392538
0.0039119
0.00389791
0.00387973
0.00385946
0.00383408
0.00380327
0.00376403
0.00371525
0.00365295
0.00357644
0.00348234
0.00336911
0.00323247
0.00306978
0.00287705
0.00265451
0.00240604
0.00214214
0.00395452
0.00395028
0.00394414
0.00393687
0.00392777
0.0039163
0.00390262
0.00388569
0.0038654
0.00383989
0.00380877
0.00376902
0.00371955
0.00365669
0.00357924
0.00348338
0.00336751
0.00322777
0.00306169
0.00286468
0.00263297
0.00236535
0.00206389
0.00395452
0.00395028
0.00394396
0.00393469
0.00392449
0.00391044
0.00389588
0.00387548
0.00385435
0.00382736
0.0037953
0.00375468
0.00370431
0.00364052
0.00356207
0.00346473
0.00334639
0.00320276
0.00303114
0.00282781
0.00258982
0.00231443
0.0020003
0.000172569
0.000142483
0.000125551
0.000593599
0.000183525
0.000184417
0.000182881
0.0002249
0.000185341
0.000189503
0.000192893
0.000193431
0.000265498
0.000241685
0.000203603
0.000193431
0.00156604
0.00128619
0.000626268
0.000467547
0.00390346
0.00385963
0.00378625
0.00366826
0.00492404
0.00496977
0.0049758
0.00489005
0.00571389
0.00578081
0.00584725
0.0058719
0.00620313
0.00634875
0.00649575
0.00664649
0.00620313
0.00634875
0.00649575
0.00664649
0.00569828
0.00593081
0.00614507
0.00636147
0.0052789
0.00555905
0.00583909
0.00612052
0.00554083
0.00580526
0.00608883
0.00636906
0.00580006
0.00605586
0.00635336
0.00663509
0.00608119
0.0063432
0.00666387
0.00694943
0.00636894
0.00665215
0.00699713
0.00729306
0.00664331
0.00695602
0.00732236
0.00765981
0.00688819
0.00722772
0.00762008
0.00803139
0.00707029
0.00743219
0.00787524
0.00836466
0.00719117
0.00757462
0.00807924
0.00860041
0.0072322
0.00760518
0.008142
0.00860041
0.0072322
0.00760518
0.008142
0.0085475
0.00719106
0.00753007
0.00802978
0.00828127
0.00705263
0.00737277
0.00779868
0.00796422
0.00683726
0.0071733
0.0075108
0.00768534
0.0065701
0.00691303
0.00717295
0.00739054
0.00627282
0.00657946
0.00680371
0.00703383
0.00597588
0.00622041
0.00641417
0.00667696
0.00569651
0.00588229
0.00603483
0.00629009
0.0054189
0.00557345
0.0056968
0.00589515
0.00510489
0.00524256
0.00535951
0.00551884
0.00476797
0.00488158
0.0049837
0.00511935
0.00444063
0.00452844
0.00461451
0.00472117
0.00408891
0.00415525
0.00422253
0.00430672
0.00373365
0.00377543
0.00382181
0.00388171
0.00337796
0.00339625
0.00342044
0.00345704
0.00302292
0.00301866
0.00301963
0.00303287
0.00266795
0.00264484
0.00262525
0.00261669
0.00231597
0.00227353
0.00223444
0.00220735
0.0019909
0.00191439
0.00184705
0.00179773
0.00174861
0.00162181
0.00150527
0.00141022
0.00161694
0.0014497
0.00128273
0.00112665
0.00156988
0.00175452
0.00217275
0.00193559
0.00166172
0.0017637
0.0017637
0.0015019
0.00127039
0.00142539
0.00135579
0.00133281
0.0012695
0.00111852
0.00100043
0.000912016
0.000800121
0.000699085
0.000622495
0.00164011
0.00302669
0.00318364
0.00318364
0.00214332
0.00221501
0.00208016
0.00152775
0.00164946
0.00164946
0.00150823
0.0013853
0.00135141
0.00130812
0.00117788
0.00103928
0.000919893
0.000809627
0.000721831
0.000320595
0.000585879
0.00157107
0.00208368
0.00354141
0.00383862
0.00383862
0.00260765
0.00285758
0.00287417
0.00205683
0.00184726
0.00173508
0.00150155
0.00138526
0.00134536
0.00115611
0.000951913
0.000776113
0.000223432
0.000229419
0.000301901
0.00039105
0.000693942
0.00171606
0.00219222
0.00416779
0.00550936
0.00550936
0.00385429
0.00349141
0.00267216
0.00204678
0.00175039
0.00156205
0.00136092
0.00110455
0.000820843
0.000443389
0.000419218
0.000396343
0.00035124
0.000273125
0.000328828
0.000424792
0.000720438
0.00178167
0.00308815
0.00564967
0.00564967
0.00479232
0.00365705
0.00285657
0.00212389
0.0017234
0.00126653
0.000789222
0.00337169
0.00305842
0.00274695
0.00223176
0.00120808
0.000631636
0.000623525
0.000554743
0.000372099
0.000465551
0.00110818
0.00344305
0.00614309
0.00614309
0.00545981
0.00352544
0.00239353
0.00185295
0.00106154
0.00500377
0.00506911
0.00508391
0.00508391
0.00506147
0.00500523
0.00485298
0.00410112
0.00228405
0.000833476
0.000591784
0.000495112
0.00216416
0.00559265
0.0061402
0.0061402
0.00401811
0.00271957
0.00243194
0.00594946
0.0060701
0.00616328
0.00620487
0.00620165
0.00612369
0.00626351
0.00645222
0.00645222
0.0064029
0.00443215
0.00145193
0.000675834
0.00184608
0.00566882
0.00604719
0.00604719
0.00431321
0.00498714
0.00761599
0.00787199
0.00803939
0.00806021
0.00806021
0.00794637
0.00772938
0.0073537
0.0068129
0.00623592
0.00668059
0.00668059
0.00280233
0.00104898
0.00286506
0.00632555
0.00632555
0.00613971
0.00851083
0.00778645
0.0082171
0.00859271
0.00883237
0.00895663
0.00895663
0.00892192
0.00868179
0.0082143
0.00750231
0.00670105
0.00614958
0.00613454
0.0024821
0.0014399
0.00486488
0.00672024
0.0087917
0.0127521
0.00737787
0.00788436
0.00826411
0.00853838
0.00869089
0.00870735
0.00870735
0.00860315
0.00847415
0.00829623
0.00787853
0.00697007
0.00629974
0.00536023
0.00161836
0.00277068
0.00643487
0.0117476
0.0168341
0.00746928
0.00810238
0.00863648
0.00905524
0.00931874
0.00940338
0.00940338
0.00925251
0.00899968
0.0086371
0.00822362
0.00767548
0.00680063
0.00658905
0.00317244
0.00173236
0.00519568
0.0139448
0.0208701
0.00768225
0.00828825
0.00880284
0.00925334
0.00957749
0.00975187
0.00975187
0.00971028
0.00947403
0.00911299
0.00864571
0.00805161
0.00713519
0.00676127
0.00490622
0.00168888
0.00508058
0.0166269
0.0253541
0.00807643
0.00878408
0.00946521
0.0100895
0.0104868
0.0106479
0.0106479
0.0105502
0.0102277
0.00969294
0.0090881
0.00840857
0.00739976
0.00657474
0.00543123
0.00189655
0.0054306
0.019354
0.0295836
0.00842541
0.00929684
0.0101974
0.0109215
0.0113106
0.0114211
0.0114211
0.0112835
0.010942
0.010286
0.00953119
0.00859604
0.00746344
0.00671881
0.00586565
0.00237261
0.00623622
0.0217696
0.0337356
0.0090761
0.0102092
0.0112644
0.0119294
0.0121402
0.0121402
0.0120602
0.0116798
0.0112582
0.0106258
0.00990231
0.00879916
0.00743023
0.00702622
0.0047093
0.00467226
0.0077291
0.0244698
0.0376008
0.00971583
0.0110193
0.01197
0.0124248
0.012459
0.012459
0.0122301
0.0118018
0.0112887
0.0105996
0.010068
0.00909249
0.0075228
0.00651136
0.00335432
0.00523175
0.0076815
0.0263802
0.0410354
0.0105412
0.0117722
0.0123489
0.0124989
0.0124989
0.0122164
0.0115905
0.0109987
0.0106889
0.0103682
0.0100005
0.00916689
0.00770377
0.00463656
0.00276646
0.00438682
0.00741351
0.0284382
0.0442585
0.0109562
0.011632
0.011632
0.0114599
0.0109844
0.010376
0.00990026
0.00962581
0.00954994
0.00965297
0.00965297
0.0090754
0.00752833
0.00477834
0.00289313
0.00544849
0.00791367
0.030694
0.046719
0.0109914
0.0109914
0.0108746
0.00973657
0.0084084
0.00737611
0.00756361
0.00806424
0.00869884
0.00890151
0.00890151
0.00871477
0.0076192
0.00657498
0.00625419
0.00735789
0.0090685
0.0328479
0.0482109
0.0103974
0.0103974
0.00930405
0.00696645
0.00423329
0.00443347
0.00600111
0.00697826
0.00747728
0.00764628
0.00843585
0.00954111
0.00954111
0.00845556
0.0084158
0.00921624
0.0128249
0.0356286
0.0482232
0.00947451
0.00947451
0.00724509
0.00458839
0.00463016
0.00579098
0.00607667
0.00614058
0.00614058
0.00593097
0.00809201
0.0101874
0.0107531
0.0110626
0.0111705
0.0111705
0.0158843
0.0381649
0.0482232
0.00869886
0.00861617
0.00543992
0.0046162
0.00652216
0.00722651
0.00722651
0.00713217
0.00660458
0.00521378
0.00325876
0.00519824
0.00717462
0.00850764
0.00880105
0.00951942
0.0195166
0.0398078
0.0463356
0.00816862
0.00799937
0.00428266
0.00477654
0.00667311
0.0080102
0.00873134
0.0090245
0.0090245
0.00857612
0.00680422
0.0062802
0.00426409
0.00392461
0.00489548
0.0118482
0.0233331
0.0377646
0.0423012
0.00790414
0.00790414
0.00405817
0.00508709
0.00620366
0.00737449
0.00779437
0.00779437
0.00754796
0.00822416
0.00931667
0.00931667
0.00798853
0.00716672
0.0102519
0.0160748
0.0243833
0.0333261
0.0364052
0.00774147
0.00774147
0.00451398
0.00511281
0.00546576
0.0058881
0.00572581
0.00535798
0.00499835
0.00501457
0.00639549
0.00943686
0.00943686
0.00902672
0.012399
0.0172568
0.0232749
0.0281051
0.0297352
0.00739047
0.00739047
0.00536512
0.00545361
0.00577573
0.00577573
0.00560645
0.00597831
0.00597831
0.00590908
0.00573214
0.00574159
0.00790583
0.00862065
0.0127044
0.0167719
0.0209986
0.0230922
0.0235396
0.00725112
0.00725112
0.00627864
0.0043383
0.00611546
0.00611546
0.00606477
0.00612249
0.00503613
0.00399778
0.00532491
0.00594538
0.00482411
0.00798459
0.011984
0.0153959
0.0179678
0.0189734
0.0189734
0.007119
0.007119
0.00683144
0.0046102
0.00532982
0.00546585
0.00561722
0.00612249
0.00459032
0.00399457
0.00520465
0.00620545
0.00701105
0.00941734
0.0117344
0.013861
0.0155478
0.0163538
0.0163538
0.00688935
0.00692442
0.00692442
0.00611654
0.00301682
0.00497262
0.00553522
0.00627246
0.00627246
0.0053577
0.00653684
0.00716539
0.00941115
0.0110851
0.0118301
0.0129138
0.0140077
0.0145679
0.0145679
0.00647084
0.00694987
0.00694987
0.00683925
0.00564325
0.00298617
0.0054403
0.0065386
0.00683847
0.00688342
0.00737948
0.00900826
0.0115933
0.0118459
0.0118459
0.0124018
0.0130228
0.013393
0.013393
0.00590508
0.00643623
0.0068978
0.0068978
0.00688971
0.00568702
0.00372084
0.00409248
0.00478507
0.0054502
0.00797787
0.0114231
0.0125265
0.0125265
0.0117922
0.0118405
0.0121578
0.0123234
0.0123234
0.00540868
0.00588395
0.00646054
0.00703423
0.00726129
0.00726129
0.0067452
0.00615224
0.00649466
0.00858086
0.0110097
0.0124307
0.0124307
0.0121768
0.0114142
0.0112385
0.0113971
0.0115046
0.0115046
0.00482444
0.00519697
0.005693
0.00632965
0.00695915
0.00739063
0.00771495
0.00817312
0.00898524
0.0100454
0.0111078
0.0115164
0.0115164
0.0110795
0.0106261
0.0105317
0.0105954
0.0106627
0.0106627
0.00430824
0.0046158
0.00503408
0.0055963
0.00630976
0.00697379
0.00755417
0.00818916
0.0089433
0.00978922
0.0104048
0.0104106
0.0104106
0.0101023
0.0099203
0.00989137
0.00995767
0.010018
0.010018
0.00373678
0.00396896
0.00430105
0.00475718
0.00535572
0.00609429
0.00687219
0.00759018
0.00825449
0.00880667
0.00908128
0.00909943
0.00909943
0.00911618
0.00916269
0.00919935
0.00926907
0.00932598
0.00932598
0.00322862
0.00341585
0.0037124
0.00411684
0.00462789
0.00522544
0.00590622
0.00658993
0.00719304
0.00766769
0.00799335
0.00821989
0.0083846
0.00849657
0.00859509
0.00867437
0.00876058
0.00882237
0.00882237
0.00268624
0.00282342
0.003075
0.00344405
0.00391363
0.00445564
0.00504363
0.00563885
0.00619416
0.00668069
0.00708282
0.00739319
0.00763615
0.00781501
0.00796377
0.0080788
0.00817651
0.00824237
0.00824237
0.00220212
0.00231204
0.00255475
0.00291499
0.00337315
0.00389889
0.00446705
0.00504
0.00558931
0.00608803
0.00651472
0.00687005
0.00715529
0.00737326
0.00755753
0.00769692
0.00780741
0.00787874
0.00787874
0.00174661
0.00179271
0.00205104
0.00244003
0.00291021
0.00342758
0.00396615
0.00450094
0.0050145
0.00548976
0.00591457
0.00627981
0.00658527
0.00683108
0.00703888
0.00719347
0.00731353
0.00738914
0.00738914
0.00130123
0.00130365
0.00155495
0.00197392
0.00247457
0.00301552
0.00357238
0.00412313
0.00465368
0.00514747
0.00559251
0.00597897
0.00630578
0.00657512
0.00679971
0.00696602
0.0070953
0.00717443
0.00717443
0.000904613
0.000807611
0.00111665
0.00161293
0.00214496
0.0026846
0.0032208
0.00374209
0.00424197
0.00470997
0.00513797
0.00551598
0.00584614
0.0061224
0.00635336
0.00652558
0.00666229
0.00674521
0.00674521
)
;

boundaryField
{
    leftWall
    {
        type            calculated;
        value           uniform 0;
    }
    rightWall
    {
        type            calculated;
        value           uniform 0;
    }
    lowerWall
    {
        type            calculated;
        value           uniform 0;
    }
    atmosphere
    {
        type            calculated;
        value           uniform 0;
    }
    defaultFaces
    {
        type            empty;
    }
}


// ************************************************************************* //
