/*--------------------------------*- C++ -*----------------------------------*\
| =========                 |                                                 |
| \\      /  F ield         | OpenFOAM: The Open Source CFD Toolbox           |
|  \\    /   O peration     | Version:  2012                                  |
|   \\  /    A nd           | Website:  www.openfoam.com                      |
|    \\/     M anipulation  |                                                 |
\*---------------------------------------------------------------------------*/
FoamFile
{
    version     2.0;
    format      ascii;
    class       volScalarField;
    location    "0.32";
    object      pcorr;
}
// * * * * * * * * * * * * * * * * * * * * * * * * * * * * * * * * * * * * * //

dimensions      [1 -1 -2 0 0 0 0];


internalField   nonuniform List<scalar> 
2268
(
101223
101223
101223
101224
101224
101225
101226
101227
101229
101230
101231
101231
101232
101231
101229
101224
101216
101201
101179
101149
101112
101075
101050
101223
101223
101223
101224
101224
101225
101226
101227
101229
101230
101231
101231
101232
101231
101229
101225
101217
101203
101181
101150
101112
101072
101045
101223
101223
101223
101224
101224
101225
101226
101227
101229
101230
101231
101232
101232
101232
101230
101227
101220
101206
101185
101153
101112
101067
101034
101223
101223
101223
101223
101224
101225
101226
101227
101229
101230
101231
101232
101233
101233
101232
101229
101223
101212
101191
101159
101112
101059
101017
101222
101223
101223
101223
101224
101225
101226
101227
101229
101230
101231
101232
101233
101234
101234
101233
101229
101219
101200
101167
101115
101049
100992
101222
101222
101223
101223
101224
101225
101226
101227
101229
101230
101232
101233
101234
101235
101236
101236
101235
101229
101213
101179
101120
101036
100957
101222
101222
101222
101223
101223
101224
101226
101227
101229
101230
101232
101233
101235
101236
101238
101241
101242
101240
101229
101198
101132
101022
100904
101222
101222
101222
101222
101223
101224
101225
101227
101229
101231
101232
101234
101235
101238
101241
101245
101251
101254
101249
101223
101153
101010
100826
98795.4
98796.5
98798.8
98802.3
98806.9
98812.5
98819.1
98826.4
98834.3
98842.6
98851.3
98860.1
98868.8
98877.2
98884.8
98891.5
98896.9
98900.7
98902.7
98795.2
98796.3
98798.6
98802.1
98806.7
98812.4
98818.9
98826.3
98834.2
98842.6
98851.3
98860.1
98868.9
98877.3
98885
98891.8
98897.2
98901
98903
98794.8
98795.9
98798.1
98801.6
98806.3
98812
98818.7
98826
98834
98842.5
98851.3
98860.2
98869
98877.5
98885.4
98892.3
98897.8
98901.7
98903.7
98794.2
98795.2
98797.5
98801
98805.8
98811.6
98818.3
98825.7
98833.8
98842.3
98851.2
98860.2
98869.2
98877.9
98885.9
98893
98898.7
98902.7
98904.8
98793.4
98794.4
98796.6
98800.2
98805
98810.9
98817.7
98825.3
98833.4
98842.1
98851.1
98860.3
98869.4
98878.3
98886.6
98893.9
98899.9
98904.1
98906.3
98792.5
98793.3
98795.4
98799.1
98804.1
98810.1
98817
98824.7
98833
98841.8
98851
98860.3
98869.7
98878.9
98887.5
98895.1
98901.4
98905.8
98908.1
98791.4
98791.9
98794
98797.8
98802.9
98809.1
98816.2
98824
98832.5
98841.4
98850.8
98860.4
98870.1
98879.6
98888.6
98896.6
98903.2
98907.9
98910.4
98790.2
98790.2
98792.3
98796.3
98801.5
98807.9
98815.3
98823.3
98831.9
98841
98850.6
98860.4
98870.4
98880.3
98889.8
98898.3
98905.4
98910.4
98913.1
101222
101222
101222
101222
101222
101223
101225
101227
101229
101231
101233
101234
101236
101239
101244
101252
101264
101279
101288
101280
101211
101006
100641
101221
101221
101221
101221
101221
101222
101224
101226
101229
101232
101234
101235
101236
101239
101245
101257
101280
101318
101358
101418
101429
101160
100750
101221
101220
101220
101219
101219
101220
101222
101225
101230
101233
101235
101235
101235
101236
101240
101251
101280
101356
101408
101604
101929
101458
100999
101221
101220
101219
101217
101216
101216
101218
101223
101231
101237
101238
101235
101232
101230
101230
101231
101236
101255
101320
101659
103232
101745
101227
101222
101221
101218
101215
101212
101211
101213
101220
101234
101246
101245
101244
101244
101243
101242
101242
101242
101242
101243
101251
101297
101261
101215
101248
101248
101248
101248
101248
101247
101247
101247
101247
101247
101246
101245
101244
101244
101243
101242
101242
101241
101241
101242
101245
101241
101234
101249
101249
101249
101249
101249
101249
101248
101248
101248
101247
101246
101246
101245
101244
101243
101242
101241
101241
101240
101239
101238
101235
101230
101250
101250
101250
101250
101250
101249
101249
101249
101248
101248
101247
101246
101245
101244
101243
101242
101241
101240
101239
101237
101235
101232
101228
101251
101251
101251
101251
101250
101250
101250
101249
101249
101248
101247
101246
101245
101244
101243
101242
101241
101239
101238
101236
101233
101230
101226
101252
101252
101252
101251
101251
101251
101250
101250
101249
101249
101248
101247
101246
101245
101244
101242
101241
101239
101237
101235
101232
101229
101226
101253
101253
101253
101252
101252
101252
101251
101251
101250
101249
101248
101248
101246
101245
101244
101242
101241
101239
101237
101235
101232
101229
101225
101254
101254
101254
101253
101253
101253
101252
101252
101251
101250
101249
101248
101247
101246
101244
101243
101241
101239
101237
101234
101232
101229
101225
101255
101255
101255
101255
101254
101254
101253
101253
101252
101251
101250
101249
101248
101247
101245
101243
101242
101240
101237
101235
101232
101229
101225
101256
101256
101256
101256
101255
101255
101254
101254
101253
101252
101251
101250
101249
101247
101246
101244
101242
101240
101238
101235
101232
101229
101226
101258
101257
101257
101257
101257
101256
101256
101255
101254
101253
101252
101251
101250
101248
101247
101245
101243
101241
101239
101236
101233
101230
101227
101259
101259
101259
101258
101258
101258
101257
101256
101256
101255
101254
101252
101251
101250
101248
101246
101244
101242
101240
101237
101234
101231
101228
101260
101260
101260
101260
101259
101259
101258
101258
101257
101256
101255
101254
101252
101251
101249
101248
101246
101243
101241
101239
101236
101233
101229
101262
101262
101262
101261
101261
101261
101260
101259
101258
101258
101256
101255
101254
101253
101251
101249
101247
101245
101243
101240
101237
101234
101231
101264
101264
101263
101263
101263
101262
101262
101261
101260
101259
101258
101257
101256
101254
101253
101251
101249
101247
101244
101242
101239
101236
101233
101265
101265
101265
101265
101264
101264
101263
101263
101262
101261
101260
101259
101257
101256
101254
101253
101251
101249
101246
101244
101241
101238
101235
101267
101267
101267
101267
101266
101266
101265
101265
101264
101263
101262
101261
101259
101258
101256
101255
101253
101251
101249
101246
101243
101241
101237
101269
101269
101269
101269
101268
101268
101267
101267
101266
101265
101264
101263
101262
101260
101259
101257
101255
101253
101251
101249
101246
101243
101240
101271
101271
101271
101271
101270
101270
101269
101269
101268
101267
101266
101265
101264
101262
101261
101259
101257
101256
101253
101251
101249
101246
101243
101273
101273
101273
101273
101273
101272
101272
101271
101270
101269
101268
101267
101266
101265
101263
101262
101260
101258
101256
101254
101252
101249
101246
101276
101276
101275
101275
101275
101274
101274
101273
101273
101272
101271
101270
101269
101267
101266
101264
101263
101261
101259
101257
101255
101252
101250
101278
101278
101278
101278
101277
101277
101276
101276
101275
101274
101273
101272
101271
101270
101269
101267
101266
101264
101262
101260
101258
101256
101253
101280
101280
101280
101280
101280
101279
101279
101278
101277
101277
101276
101275
101274
101273
101272
101270
101269
101267
101265
101263
101261
101259
101257
101283
101283
101283
101282
101282
101282
101281
101281
101280
101279
101279
101278
101277
101276
101274
101273
101272
101270
101269
101267
101265
101263
101261
101285
101285
101285
101285
101285
101284
101284
101283
101283
101282
101281
101281
101280
101279
101278
101276
101275
101274
101272
101271
101269
101267
101265
101288
101288
101288
101288
101287
101287
101287
101286
101286
101285
101284
101284
101283
101282
101281
101280
101278
101277
101276
101274
101273
101271
101269
101291
101291
101291
101290
101290
101290
101289
101289
101289
101288
101287
101287
101286
101285
101284
101283
101282
101281
101279
101278
101277
101275
101274
101294
101293
101293
101293
101293
101293
101292
101292
101291
101291
101290
101290
101289
101288
101287
101286
101285
101284
101283
101282
101281
101279
101278
101296
101296
101296
101296
101296
101296
101295
101295
101294
101294
101293
101293
101292
101291
101291
101290
101289
101288
101287
101286
101285
101284
101282
101299
101299
101299
101299
101299
101299
101298
101298
101298
101297
101297
101296
101295
101295
101294
101293
101293
101292
101291
101290
101289
101288
101287
101302
101302
101302
101302
101302
101302
101301
101301
101301
101300
101300
101299
101299
101298
101298
101297
101296
101296
101295
101294
101293
101292
101291
101305
101305
101305
101305
101305
101305
101304
101304
101304
101303
101303
101303
101302
101302
101301
101301
101300
101299
101299
101298
101297
101297
101296
101308
101308
101308
101308
101308
101308
101307
101307
101307
101307
101306
101306
101306
101305
101305
101304
101304
101303
101303
101302
101302
101301
101300
101311
101311
101311
101311
101311
101311
101311
101310
101310
101310
101310
101309
101309
101309
101308
101308
101308
101307
101307
101306
101306
101305
101305
101314
101314
101314
101314
101314
101314
101314
101314
101313
101313
101313
101313
101313
101312
101312
101312
101311
101311
101311
101310
101310
101310
101309
101317
101317
101317
101317
101317
101317
101317
101317
101317
101317
101316
101316
101316
101316
101316
101316
101315
101315
101315
101315
101314
101314
101314
101320
101320
101320
101320
101320
101320
101320
101320
101320
101320
101320
101320
101320
101320
101319
101319
101319
101319
101319
101319
101319
101318
101318
101323
101323
101323
101323
101323
101323
101323
101323
101323
101323
101323
101323
101323
101323
101323
101323
101323
101323
101323
101323
101323
101323
101323
100115
99729.2
99270.8
98788.1
100346
100068
99778.1
99366
100678
100469
100249
100006
101022
100918
100824
100713
101209
101259
101429
101852
101230
101229
101231
101235
101227
101225
101223
101220
101224
101222
101219
101217
101223
101221
101219
101217
101223
101221
101219
101216
101222
101220
101218
101216
101222
101220
101219
101217
101223
101221
101219
101217
101223
101221
101220
101218
101224
101222
101221
101219
101225
101224
101222
101220
101227
101225
101223
101221
101228
101227
101225
101223
101230
101229
101227
101225
101233
101231
101229
101227
101235
101233
101232
101230
101238
101236
101235
101233
101241
101239
101238
101236
101244
101242
101241
101239
101247
101246
101245
101243
101251
101250
101248
101247
101255
101254
101253
101251
101259
101258
101257
101256
101263
101262
101261
101260
101268
101267
101266
101265
101272
101272
101271
101270
101277
101276
101276
101275
101281
101281
101280
101280
101286
101286
101285
101285
101291
101290
101290
101289
101295
101295
101294
101294
101300
101300
101299
101299
101304
101304
101304
101304
101309
101309
101309
101308
101314
101313
101313
101313
101318
101318
101318
101318
101323
101323
101323
101323
98788.4
98787.1
98789
98793.7
98799.1
98805.9
98813.7
98821.9
98830.7
98840.2
98850.1
98860.4
98871
98881.7
98892
98901.5
98909.4
98915
98918
98785.7
98773.5
98775.6
98789.3
98794.7
98802.2
98811.1
98819.5
98828.7
98838.9
98849.3
98860.2
98871.7
98883.7
98895.7
98907
98916.6
98923.5
98927.2
99577.1
99152.5
98755.8
98782.7
98782
98792.8
98808.9
98816.3
98825.9
98837.3
98848
98859.4
98872.1
98885.8
98900
98913.9
98925.9
98934.8
98939.4
100367
99961
99646.2
99477.9
99249.5
98843.8
98804.8
98806.2
98817.5
98836.1
98846
98857.6
98871.8
98887.3
98904.7
98922.3
98937.8
98949.4
98955.5
101093
100705
100490
100372
100342
99917.7
99717.7
99493.6
99113
98840.8
98835.6
98850.4
98870.3
98887.2
98909.2
98932.3
98953
98968.4
98976.6
101203
101154
101088
101021
100984
100873
100785
100757
101187
102028
99610.8
98807.9
98857.1
98879.1
98913.6
98944.6
98972.6
98993.3
99004.4
101215
101208
101201
101195
101189
101179
101163
101126
101148
101200
100442
99655.1
98935.6
98810.2
98906.7
98958.8
98998
99026.1
99041.3
101213
101208
101202
101196
101191
101185
101178
101171
101168
101159
101102
100610
99707.4
98959.6
98814
98973.7
99028.2
99069.2
99090.7
101213
101208
101202
101196
101191
101185
101178
101172
101166
101160
101151
101134
100520
99540
98772.5
98965.8
99065.2
99125.4
99157.7
101213
101208
101202
101196
101191
101185
101178
101172
101166
101159
101150
101141
101130
100326
99238.7
98800.9
99134.4
99195.1
99251.1
101213
101208
101202
101197
101191
101185
101179
101172
101166
101158
101151
101142
101134
101112
99850
98899.1
99162.4
99293.9
99384.1
101213
101208
101203
101197
101191
101185
101179
101173
101166
101159
101151
101144
101136
101126
100328
99280.2
99174.6
99504.4
99565.7
101214
101209
101203
101198
101192
101186
101180
101173
101166
101159
101152
101145
101138
101128
100903
99766.3
99502.6
99765.9
99784
101214
101209
101204
101199
101193
101187
101181
101174
101167
101160
101153
101145
101137
101128
101109
100179
99963.8
100023
100012
101215
101210
101205
101200
101194
101188
101182
101175
101168
101161
101154
101146
101138
101128
101112
100425
100375
100278
100226
101217
101212
101207
101201
101195
101189
101183
101176
101170
101163
101155
101148
101139
101128
101049
100667
100576
100479
100409
101218
101213
101208
101203
101197
101191
101184
101178
101171
101164
101157
101149
101140
101123
100586
100721
100626
100593
100552
101220
101215
101210
101204
101198
101192
101186
101179
101173
101166
101159
101153
101141
100789
100630
100706
100715
100688
100667
101222
101217
101212
101206
101200
101194
101188
101181
101174
101168
101161
101155
101148
100808
100777
100921
100817
100782
100765
101224
101220
101214
101209
101203
101196
101189
101183
101176
101169
101162
101157
101152
101116
101101
101057
100917
100866
100850
101227
101222
101217
101212
101205
101199
101192
101185
101177
101170
101163
101155
101141
101119
101095
101058
100996
100941
100923
101230
101225
101220
101215
101208
101201
101194
101187
101179
101171
101163
101152
101138
101120
101099
101071
101035
100999
100982
101233
101229
101224
101218
101212
101205
101197
101189
101181
101172
101163
101153
101141
101125
101107
101085
101061
101040
101028
101237
101232
101227
101222
101216
101209
101201
101192
101182
101173
101165
101156
101145
101133
101119
101102
101085
101071
101063
101240
101236
101232
101226
101220
101213
101205
101195
101184
101174
101166
101159
101152
101142
101131
101119
101107
101098
101092
101245
101241
101236
101231
101226
101219
101210
101199
101185
101172
101168
101163
101160
101153
101145
101136
101127
101121
101117
101249
101245
101241
101237
101232
101225
101217
101205
101188
101153
101170
101170
101170
101166
101159
101152
101146
101141
101138
101254
101251
101247
101243
101239
101234
101228
101210
100687
100665
100995
101186
101184
101180
101174
101168
101163
101159
101157
101259
101256
101253
101250
101247
101244
101240
101235
100790
100903
101112
101216
101201
101195
101189
101184
101179
101176
101174
101264
101261
101259
101257
101255
101253
101253
101261
101287
101279
101303
101235
101218
101210
101204
101199
101195
101192
101190
101269
101267
101265
101263
101262
101261
101263
101269
101278
101281
101271
101248
101232
101224
101217
101213
101209
101206
101205
101274
101272
101271
101269
101269
101269
101270
101273
101275
101274
101267
101256
101244
101236
101230
101225
101222
101220
101219
101279
101277
101276
101275
101275
101274
101275
101276
101276
101274
101269
101261
101253
101247
101242
101237
101234
101232
101231
101284
101283
101282
101281
101280
101280
101280
101280
101279
101277
101273
101267
101262
101256
101252
101248
101246
101244
101243
101289
101288
101287
101286
101286
101285
101285
101284
101283
101281
101278
101274
101269
101265
101262
101259
101257
101255
101254
101294
101293
101292
101291
101291
101290
101290
101289
101288
101286
101283
101280
101277
101274
101271
101269
101267
101265
101265
101298
101298
101297
101297
101296
101295
101295
101294
101293
101291
101289
101287
101284
101282
101280
101278
101276
101275
101275
101303
101303
101302
101302
101301
101301
101300
101299
101298
101297
101295
101294
101292
101290
101288
101287
101286
101285
101285
101308
101308
101307
101307
101306
101306
101305
101305
101304
101303
101302
101301
101299
101298
101297
101296
101295
101294
101294
101313
101313
101312
101312
101312
101311
101311
101310
101310
101309
101308
101307
101307
101306
101305
101304
101303
101303
101303
101318
101318
101317
101317
101317
101317
101317
101316
101316
101315
101315
101314
101314
101313
101313
101312
101312
101312
101312
101323
101323
101322
101322
101322
101322
101322
101322
101322
101322
101322
101321
101321
101321
101321
101321
101321
101321
101321
)
;

boundaryField
{
    leftWall
    {
        type            zeroGradient;
    }
    rightWall
    {
        type            zeroGradient;
    }
    lowerWall
    {
        type            zeroGradient;
    }
    atmosphere
    {
        type            fixedValue;
        value           uniform 101325;
    }
    defaultFaces
    {
        type            empty;
    }
}


// ************************************************************************* //
