/*--------------------------------*- C++ -*----------------------------------*\
| =========                 |                                                 |
| \\      /  F ield         | OpenFOAM: The Open Source CFD Toolbox           |
|  \\    /   O peration     | Version:  2012                                  |
|   \\  /    A nd           | Website:  www.openfoam.com                      |
|    \\/     M anipulation  |                                                 |
\*---------------------------------------------------------------------------*/
FoamFile
{
    version     2.0;
    format      ascii;
    class       surfaceScalarField;
    location    "0.32";
    object      phi;
}
// * * * * * * * * * * * * * * * * * * * * * * * * * * * * * * * * * * * * * //

dimensions      [0 3 -1 0 0 0 0];
oriented        oriented;


internalField   nonuniform List<scalar> 
4432
(
4.01308e-06
-4.01308e-06
8.0017e-06
-3.98862e-06
1.19111e-05
-3.90944e-06
1.59054e-05
-3.99421e-06
1.98103e-05
-3.90495e-06
2.35856e-05
-3.77533e-06
2.72227e-05
-3.63703e-06
3.08824e-05
-3.6597e-06
3.41954e-05
-3.31301e-06
3.74651e-05
-3.26977e-06
4.03718e-05
-2.90666e-06
4.26155e-05
-2.24373e-06
4.46877e-05
-2.07214e-06
4.6322e-05
-1.63436e-06
4.7129e-05
-8.07005e-07
4.67753e-05
3.53691e-07
4.5388e-05
1.38724e-06
4.26989e-05
2.68908e-06
3.84953e-05
4.2036e-06
3.21578e-05
6.3375e-06
2.40393e-05
8.11848e-06
1.31716e-05
1.08676e-05
1.31709e-05
4.00856e-06
-8.02164e-06
8.00644e-06
-7.9865e-06
1.19223e-05
-7.82535e-06
1.59152e-05
-7.98706e-06
1.98249e-05
-7.81469e-06
2.3609e-05
-7.55939e-06
2.72579e-05
-7.28595e-06
3.09176e-05
-7.31938e-06
3.42433e-05
-6.63874e-06
3.75408e-05
-6.56724e-06
4.04508e-05
-5.81668e-06
4.27741e-05
-4.56706e-06
4.49191e-05
-4.21718e-06
4.63661e-05
-3.08132e-06
4.71728e-05
-1.61368e-06
4.70026e-05
5.23863e-07
4.56418e-05
2.74797e-06
4.28962e-05
5.43471e-06
3.85039e-05
8.59589e-06
3.17667e-05
1.30746e-05
2.29093e-05
1.69759e-05
1.12049e-05
2.2572e-05
2.43751e-05
4.00751e-06
-1.20292e-05
8.02241e-06
-1.20014e-05
1.19464e-05
-1.17493e-05
1.59371e-05
-1.19778e-05
1.98588e-05
-1.17363e-05
2.36606e-05
-1.13612e-05
2.73333e-05
-1.09586e-05
3.09979e-05
-1.0984e-05
3.43506e-05
-9.99145e-06
3.76913e-05
-9.90792e-06
4.06129e-05
-8.73825e-06
4.30546e-05
-7.00873e-06
4.52658e-05
-6.42842e-06
4.66926e-05
-4.5081e-06
4.76168e-05
-2.53794e-06
4.77353e-05
4.05412e-07
4.66615e-05
3.82166e-06
4.42758e-05
7.82041e-06
4.04395e-05
1.24323e-05
3.43867e-05
1.91274e-05
2.61435e-05
2.52191e-05
1.39907e-05
3.47247e-05
3.83645e-05
4.00889e-06
-1.60381e-05
8.04009e-06
-1.60326e-05
1.19711e-05
-1.56803e-05
1.5956e-05
-1.59627e-05
1.98883e-05
-1.56686e-05
2.37169e-05
-1.51899e-05
2.74259e-05
-1.46676e-05
3.10998e-05
-1.4658e-05
3.44895e-05
-1.33811e-05
3.78774e-05
-1.32958e-05
4.0819e-05
-1.16799e-05
4.33789e-05
-9.56865e-06
4.56507e-05
-8.70019e-06
4.7137e-05
-5.99441e-06
4.80876e-05
-3.48855e-06
4.814e-05
3.52986e-07
4.71321e-05
4.82957e-06
4.4643e-05
1.03095e-05
4.06151e-05
1.64601e-05
3.4315e-05
2.54274e-05
2.59599e-05
3.35742e-05
1.38752e-05
4.68094e-05
5.22382e-05
4.01627e-06
-2.00543e-05
8.06889e-06
-2.00852e-05
1.20144e-05
-1.96258e-05
1.60005e-05
-1.99488e-05
1.9948e-05
-1.96162e-05
2.38104e-05
-1.90522e-05
2.75656e-05
-1.84228e-05
3.12541e-05
-1.83465e-05
3.46986e-05
-1.68257e-05
3.81461e-05
-1.67433e-05
4.11194e-05
-1.46531e-05
4.38558e-05
-1.23051e-05
4.62318e-05
-1.10762e-05
4.78872e-05
-7.64984e-06
4.90532e-05
-4.65462e-06
4.94481e-05
-4.19215e-08
4.89659e-05
5.31184e-06
4.71569e-05
1.21184e-05
4.39105e-05
1.97065e-05
3.83184e-05
3.10195e-05
3.03818e-05
4.15107e-05
1.76268e-05
5.95643e-05
6.98632e-05
4.02083e-06
-2.40752e-05
8.08848e-06
-2.41529e-05
1.20484e-05
-2.35857e-05
1.60383e-05
-2.39388e-05
1.99998e-05
-2.35777e-05
2.38951e-05
-2.29475e-05
2.76999e-05
-2.22276e-05
3.1409e-05
-2.20555e-05
3.49206e-05
-2.03374e-05
3.8419e-05
-2.02417e-05
4.14397e-05
-1.76738e-05
4.43636e-05
-1.5229e-05
4.6843e-05
-1.35556e-05
4.85911e-05
-9.3979e-06
4.99461e-05
-6.00967e-06
5.03548e-05
-4.5059e-07
4.99185e-05
5.74812e-06
4.80265e-05
1.40104e-05
4.46903e-05
2.30426e-05
3.88946e-05
3.68152e-05
3.08959e-05
4.95094e-05
1.76151e-05
7.28451e-05
8.74766e-05
4.03494e-06
-2.81101e-05
8.12508e-06
-2.8243e-05
1.21089e-05
-2.75695e-05
1.61148e-05
-2.79446e-05
2.01015e-05
-2.75644e-05
2.40352e-05
-2.68812e-05
2.78981e-05
-2.60905e-05
3.16388e-05
-2.57962e-05
3.52309e-05
-2.39295e-05
3.87769e-05
-2.37877e-05
4.18678e-05
-2.07647e-05
4.50352e-05
-1.83964e-05
4.76293e-05
-1.61498e-05
4.96835e-05
-1.14521e-05
5.12925e-05
-7.61866e-06
5.20875e-05
-1.24558e-06
5.22307e-05
5.60491e-06
5.12011e-05
1.504e-05
4.89945e-05
2.52491e-05
4.43905e-05
4.14192e-05
3.7604e-05
5.62959e-05
2.38956e-05
8.65535e-05
0.000111371
4.04436e-06
-3.21545e-05
8.13906e-06
-3.23377e-05
1.2148e-05
-3.15784e-05
1.61699e-05
-3.19665e-05
2.01746e-05
-3.15691e-05
2.41428e-05
-3.08494e-05
2.80556e-05
-3.00033e-05
3.18521e-05
-2.95927e-05
3.55495e-05
-2.76268e-05
3.91268e-05
-2.73651e-05
4.23399e-05
-2.39778e-05
4.57334e-05
-2.17898e-05
4.84288e-05
-1.88452e-05
5.07079e-05
-1.37312e-05
5.25059e-05
-9.41665e-06
5.34035e-05
-2.14324e-06
5.37838e-05
5.22466e-06
5.27974e-05
1.60264e-05
5.09227e-05
2.71237e-05
4.63303e-05
4.60115e-05
3.94841e-05
6.31421e-05
2.55941e-05
0.000100443
0.000136965
-8.5321e-06
6.2499e-06
-1.64186e-05
5.60487e-06
-2.31944e-05
4.49487e-06
-2.78057e-05
2.33186e-06
-3.01971e-05
1.1325e-07
-3.13478e-05
-1.12546e-06
-3.10619e-05
-2.56034e-06
-3.00164e-05
-3.31816e-06
-2.88836e-05
-3.40356e-06
-2.66245e-05
-4.52834e-06
-2.4173e-05
-4.7192e-06
-2.11886e-05
-5.25091e-06
-1.78743e-05
-5.57979e-06
-1.45676e-05
-5.5716e-06
-1.1251e-05
-5.58098e-06
-8.11863e-06
-5.3965e-06
-5.20878e-06
-5.17388e-06
-2.53107e-06
-4.94165e-06
-4.79501e-06
-9.87458e-06
1.38423e-05
-1.81781e-05
1.16268e-05
-2.47958e-05
8.83175e-06
-2.84218e-05
3.67847e-06
-3.01514e-05
-4.35213e-07
-3.12055e-05
-2.34748e-06
-3.09617e-05
-5.07857e-06
-3.00685e-05
-6.48391e-06
-2.90674e-05
-6.67532e-06
-2.67973e-05
-9.06765e-06
-2.42649e-05
-9.51922e-06
-2.12429e-05
-1.05393e-05
-1.78902e-05
-1.1198e-05
-1.45659e-05
-1.11607e-05
-1.12002e-05
-1.12111e-05
-8.02374e-06
-1.0837e-05
-5.10972e-06
-1.03519e-05
-2.4736e-06
-9.84169e-06
-9.53253e-06
-9.73462e-06
2.1295e-05
-1.7162e-05
1.67728e-05
-2.3842e-05
1.32311e-05
-2.88146e-05
6.37185e-06
-3.12909e-05
-2.36874e-07
-3.24507e-05
-3.46364e-06
-3.1824e-05
-7.97947e-06
-3.0437e-05
-1.01434e-05
-2.9271e-05
-1.01119e-05
-2.68962e-05
-1.37114e-05
-2.44271e-05
-1.42558e-05
-2.14083e-05
-1.58245e-05
-1.79734e-05
-1.68982e-05
-1.45738e-05
-1.6825e-05
-1.11901e-05
-1.68591e-05
-8.04109e-06
-1.625e-05
-5.14504e-06
-1.55119e-05
-2.48414e-06
-1.47665e-05
-1.42806e-05
-1.09455e-05
2.99587e-05
-1.97577e-05
2.33038e-05
-2.69771e-05
1.81701e-05
-3.01058e-05
7.22147e-06
-3.10739e-05
-1.5466e-06
-3.19918e-05
-4.8215e-06
-3.14307e-05
-1.08146e-05
-3.05207e-05
-1.33256e-05
-2.97894e-05
-1.31136e-05
-2.73617e-05
-1.8408e-05
-2.45872e-05
-1.92976e-05
-2.1444e-05
-2.12338e-05
-1.79101e-05
-2.26974e-05
-1.44895e-05
-2.25102e-05
-1.10048e-05
-2.26079e-05
-7.77341e-06
-2.17452e-05
-4.88119e-06
-2.06679e-05
-2.33148e-06
-1.958e-05
-1.88759e-05
-1.09908e-05
3.86681e-05
-1.91967e-05
2.92289e-05
-2.66257e-05
2.3319e-05
-3.15289e-05
9.84599e-06
-3.35899e-05
-1.76294e-06
-3.45943e-05
-6.09249e-06
-3.32091e-05
-1.44736e-05
-3.11887e-05
-1.76181e-05
-3.0103e-05
-1.64693e-05
-2.75402e-05
-2.32394e-05
-2.49934e-05
-2.41115e-05
-2.19117e-05
-2.65813e-05
-1.81803e-05
-2.86937e-05
-1.45718e-05
-2.8383e-05
-1.10166e-05
-2.84271e-05
-7.76539e-06
-2.72602e-05
-4.87558e-06
-2.58215e-05
-2.30913e-06
-2.44102e-05
-2.34488e-05
-1.34896e-05
4.98767e-05
-2.3268e-05
3.67268e-05
-3.1197e-05
2.89683e-05
-3.3817e-05
1.01874e-05
-3.34652e-05
-4.39203e-06
-3.37781e-05
-8.05466e-06
-3.26274e-05
-1.78977e-05
-3.16635e-05
-2.08537e-05
-3.14065e-05
-1.89959e-05
-2.8502e-05
-2.84122e-05
-2.51722e-05
-2.9708e-05
-2.18046e-05
-3.22145e-05
-1.7945e-05
-3.48179e-05
-1.43582e-05
-3.42339e-05
-1.06655e-05
-3.43834e-05
-7.32298e-06
-3.28663e-05
-4.47069e-06
-3.09373e-05
-2.07306e-06
-2.90714e-05
-2.77855e-05
-1.35983e-05
6.11946e-05
-2.33002e-05
4.41487e-05
-3.2109e-05
3.5498e-05
-3.67735e-05
1.25741e-05
-3.79313e-05
-5.51078e-06
-3.83542e-05
-9.90633e-06
-3.53553e-05
-2.31698e-05
-3.23365e-05
-2.6144e-05
-3.16508e-05
-2.19509e-05
-2.87576e-05
-3.35733e-05
-2.59855e-05
-3.47464e-05
-2.2778e-05
-3.7687e-05
-1.84855e-05
-4.13747e-05
-1.44938e-05
-4.04893e-05
-1.0665e-05
-4.04757e-05
-7.21703e-06
-3.85776e-05
-4.32855e-06
-3.60892e-05
-1.95247e-06
-3.3711e-05
-3.20017e-05
-1.82337e-05
7.71483e-05
-3.01491e-05
5.37846e-05
-3.95708e-05
4.2641e-05
-4.09399e-05
1.16656e-05
-3.78096e-05
-1.09178e-05
-3.70057e-05
-1.29843e-05
-3.4006e-05
-2.8442e-05
-3.23682e-05
-3.00526e-05
-3.36663e-05
-2.29214e-05
-3.06215e-05
-3.88857e-05
-2.64246e-05
-4.12093e-05
-2.25838e-05
-4.37925e-05
-1.81474e-05
-4.80749e-05
-1.4218e-05
-4.66819e-05
-1.01519e-05
-4.68048e-05
-6.59183e-06
-4.44006e-05
-3.79128e-06
-4.11529e-05
-1.63573e-06
-3.81299e-05
-3.59009e-05
8.67256e-06
-4.0827e-05
1.74221e-05
-4.10872e-05
2.60867e-05
-4.0243e-05
3.47436e-05
-4.06234e-05
4.33695e-05
-4.0195e-05
5.19792e-05
-3.94591e-05
6.051e-05
-3.85342e-05
6.88217e-05
-3.79043e-05
7.70277e-05
-3.58329e-05
8.48283e-05
-3.51656e-05
9.22367e-05
-3.13862e-05
9.99814e-05
-2.95345e-05
0.000105942
-2.48054e-05
0.000112238
-2.00279e-05
0.000117117
-1.42956e-05
0.000121049
-6.07521e-06
0.00012372
2.55338e-06
0.000126378
1.33691e-05
0.00012773
2.5771e-05
0.000131535
4.22072e-05
0.000134774
5.9903e-05
0.000146188
8.90292e-05
0.000129493
0.000153655
8.73364e-06
-4.95607e-05
1.75073e-05
-4.98609e-05
2.63032e-05
-4.90389e-05
3.50637e-05
-4.9384e-05
4.38182e-05
-4.89495e-05
5.26132e-05
-4.82541e-05
6.14147e-05
-4.73357e-05
7.00956e-05
-4.65853e-05
7.87509e-05
-4.44882e-05
8.70824e-05
-4.34971e-05
9.5477e-05
-3.97808e-05
0.000103503
-3.75606e-05
0.000110653
-3.19549e-05
0.000118186
-2.75617e-05
0.000123743
-1.98524e-05
0.000129029
-1.13615e-05
0.00013241
-8.2723e-07
0.000134688
1.1091e-05
0.000135156
2.53029e-05
0.000137146
4.02167e-05
0.000140789
5.62602e-05
0.000154565
7.52534e-05
0.000106832
0.000177224
8.85269e-06
-5.84133e-05
1.77132e-05
-5.87214e-05
2.6709e-05
-5.80348e-05
3.56681e-05
-5.8343e-05
4.46456e-05
-5.7927e-05
5.37306e-05
-5.73391e-05
6.28883e-05
-5.64934e-05
7.20042e-05
-5.57012e-05
8.11401e-05
-5.3624e-05
9.00989e-05
-5.24559e-05
9.91131e-05
-4.8795e-05
0.000107802
-4.62496e-05
0.000116533
-4.06861e-05
0.000124822
-3.58509e-05
0.000132012
-2.70426e-05
0.000139868
-1.92178e-05
0.00014575
-6.70851e-06
0.000151692
5.24463e-06
0.000156411
2.05836e-05
0.000162204
3.44235e-05
0.000169032
4.94329e-05
0.00018115
6.31352e-05
8.73609e-05
0.000200621
8.9309e-06
-6.73443e-05
1.78432e-05
-6.76338e-05
2.69905e-05
-6.71821e-05
3.6084e-05
-6.74366e-05
4.52087e-05
-6.70517e-05
5.44918e-05
-6.66223e-05
6.39049e-05
-6.59068e-05
7.33788e-05
-6.51756e-05
8.3051e-05
-6.3297e-05
9.27231e-05
-6.21296e-05
0.000102585
-5.86601e-05
0.000112463
-5.61373e-05
0.000122453
-5.06942e-05
0.000131991
-4.54164e-05
0.00014231
-3.73934e-05
0.000151121
-2.80754e-05
0.000158546
-1.41856e-05
0.000164736
-1.00017e-06
0.000166939
1.83283e-05
0.000169028
3.2306e-05
0.000173892
4.90789e-05
0.000181946
5.50803e-05
7.24441e-05
0.000196863
9.01347e-06
-7.63936e-05
1.79804e-05
-7.66396e-05
2.72959e-05
-7.65432e-05
3.65801e-05
-7.67792e-05
4.59121e-05
-7.64596e-05
5.54618e-05
-7.62712e-05
6.52075e-05
-7.57807e-05
7.51003e-05
-7.52306e-05
8.52147e-05
-7.36062e-05
9.52509e-05
-7.23784e-05
0.00010537
-6.8987e-05
0.000115503
-6.64414e-05
0.000125433
-6.07557e-05
0.000136057
-5.6122e-05
0.000146259
-4.76744e-05
0.000154355
-3.614e-05
0.000163277
-2.30137e-05
0.000169634
-7.19055e-06
0.000172264
1.58268e-05
0.000174987
2.96897e-05
0.000179585
4.44373e-05
0.000188372
4.62189e-05
6.29246e-05
0.000197776
8.94918e-06
-8.56318e-05
1.78671e-05
-8.58393e-05
2.72484e-05
-8.61907e-05
3.66722e-05
-8.64405e-05
4.62088e-05
-8.62024e-05
5.61706e-05
-8.63985e-05
6.68119e-05
-8.6545e-05
7.85781e-05
-8.70755e-05
9.37946e-05
-8.88668e-05
0.000109421
-8.7207e-05
0.000124474
-8.40785e-05
0.000142093
-8.40974e-05
0.000161756
-8.04541e-05
0.000181709
-7.61078e-05
0.000198849
-6.48454e-05
0.000210242
-4.75623e-05
0.000213534
-2.63326e-05
0.000201312
5.00789e-06
0.000183532
3.36728e-05
0.000177192
3.61487e-05
0.000178396
4.34375e-05
0.000186092
3.88284e-05
5.32032e-05
0.000196102
9.4286e-06
-9.50976e-05
1.90198e-05
-9.54677e-05
2.88994e-05
-9.61075e-05
3.90435e-05
-9.66216e-05
4.90142e-05
-9.621e-05
5.93308e-05
-9.67515e-05
7.01921e-05
-9.74423e-05
8.23381e-05
-9.92566e-05
9.66161e-05
-0.000103179
0.000114521
-0.000105147
0.000136377
-0.000105968
0.00016179
-0.000109544
0.000189743
-0.000108439
0.00021678
-0.000103176
0.000240911
-8.90064e-05
0.000259508
-6.61858e-05
0.000268172
-3.50216e-05
0.000258752
1.44028e-05
0.000236738
5.56688e-05
0.000214276
5.85947e-05
0.000199486
5.82149e-05
0.000197873
4.04354e-05
4.59322e-05
0.000205208
8.78501e-06
-0.000103916
1.77469e-05
-0.000104463
2.64207e-05
-0.000104815
3.58743e-05
-0.00010611
4.54764e-05
-0.000105847
5.5451e-05
-0.000106761
6.63695e-05
-0.000108396
7.82967e-05
-0.000111219
9.0622e-05
-0.000115541
0.000107035
-0.000121595
0.00012752
-0.000126488
0.000148363
-0.000130421
0.000169038
-0.000129146
0.000189126
-0.000123295
0.000210642
-0.000110551
0.000234582
-9.0154e-05
0.000258484
-5.89484e-05
0.000281989
-9.12353e-06
0.000294038
4.36002e-05
0.000291354
6.1264e-05
0.000285628
6.39282e-05
0.000281817
4.42364e-05
4.34827e-05
0.000284254
8.7412e-06
-0.000112691
1.74091e-05
-0.000113165
2.56656e-05
-0.000113106
3.4176e-05
-0.000114654
4.29318e-05
-0.000114637
5.20452e-05
-0.000115909
6.17523e-05
-0.000118139
7.25149e-05
-0.000122017
8.45113e-05
-0.000127572
9.81213e-05
-0.00013524
0.000111478
-0.000139879
0.000122774
-0.000141751
0.000133761
-0.000140164
0.000146473
-0.000136036
0.000163565
-0.000127671
0.000186222
-0.000112838
0.000214486
-8.72353e-05
0.000253149
-4.78074e-05
0.000295023
1.70776e-06
0.00032966
2.66121e-05
0.000353593
3.99833e-05
0.000367828
2.99926e-05
2.96025e-05
0.000381703
8.43598e-06
-0.00012116
1.67068e-05
-0.000121469
2.50824e-05
-0.000121515
3.30961e-05
-0.000122702
4.13617e-05
-0.000122937
4.97257e-05
-0.000124308
5.81152e-05
-0.000126563
6.6629e-05
-0.000130565
7.48679e-05
-0.000135845
8.28953e-05
-0.000143301
8.94772e-05
-0.000146494
9.46121e-05
-0.000146918
0.000100152
-0.000145735
0.000106689
-0.000142603
0.000114507
-0.000135517
0.00012578
-0.000124136
0.000143582
-0.00010506
0.000174104
-7.83499e-05
0.000219856
-4.4062e-05
0.000267739
-2.12844e-05
0.000307567
1.45132e-07
0.000339788
-2.23616e-06
3.65997e-07
0.00036902
7.64919e-06
-0.000128842
1.52079e-05
-0.000129061
2.29364e-05
-0.000129276
3.05913e-05
-0.00013039
3.86527e-05
-0.000131032
4.69137e-05
-0.000132602
5.50714e-05
-0.000134754
6.29289e-05
-0.000138456
6.9832e-05
-0.000142782
7.49735e-05
-0.000148476
7.91981e-05
-0.000150751
8.3459e-05
-0.000151211
8.78835e-05
-0.00015019
9.20901e-05
-0.000146838
9.68801e-05
-0.000140334
0.000103563
-0.000130843
0.000114372
-0.000115892
0.000133855
-9.78518e-05
0.000164909
-7.51323e-05
0.000203863
-6.02512e-05
0.000244174
-4.01748e-05
0.000281034
-3.91026e-05
-3.51243e-05
0.000316521
7.71511e-06
-0.00013659
1.54234e-05
-0.000136801
2.32132e-05
-0.000137099
3.09683e-05
-0.000138178
3.88983e-05
-0.000138995
4.68512e-05
-0.000140589
5.42753e-05
-0.000142212
6.08931e-05
-0.000145108
6.58687e-05
-0.000147791
6.97242e-05
-0.000152364
7.34211e-05
-0.00015448
7.69744e-05
-0.000154795
8.03613e-05
-0.000153607
8.3935e-05
-0.00015044
8.88047e-05
-0.000145229
9.62794e-05
-0.000138342
0.000108201
-0.000127834
0.000126764
-0.000116433
0.000152827
-0.00010121
0.000185417
-9.28521e-05
0.000223668
-7.84344e-05
0.000263272
-7.87123e-05
-7.44328e-05
0.000302579
7.35338e-06
-0.000143975
1.47259e-05
-0.000144206
2.21965e-05
-0.000144602
2.96332e-05
-0.000145647
3.71267e-05
-0.000146521
4.4626e-05
-0.000148121
5.1776e-05
-0.000149395
5.83572e-05
-0.000151722
6.39764e-05
-0.000153443
6.8754e-05
-0.000157174
7.33501e-05
-0.000159108
7.83102e-05
-0.000159786
8.42211e-05
-0.000159546
9.14307e-05
-0.000157677
0.000100456
-0.00015428
0.000111886
-0.000149794
0.000126754
-0.000142722
0.000146352
-0.000136047
0.000171454
-0.000126326
0.00020177
-0.000123179
0.000236515
-0.000113186
0.000272706
-0.000114907
-0.000112068
0.000310341
7.07617e-06
-0.000151083
1.42025e-05
-0.000151364
2.14038e-05
-0.000151835
2.85684e-05
-0.000152844
3.57499e-05
-0.000153735
4.29587e-05
-0.000155362
5.00231e-05
-0.000156492
5.69321e-05
-0.000158663
6.31473e-05
-0.00015969
6.84686e-05
-0.000162527
7.39728e-05
-0.000164642
8.02925e-05
-0.000166135
8.77985e-05
-0.00016708
9.68727e-05
-0.000166777
0.000107542
-0.000164973
0.000120297
-0.00016257
0.000135852
-0.000158296
0.000155493
-0.000155705
0.000179233
-0.000150078
0.000207439
-0.000151394
0.000240115
-0.000145868
0.000275123
-0.000149918
-0.000149982
0.000313037
6.86209e-06
-0.000157976
1.37608e-05
-0.000158294
2.06739e-05
-0.000158779
2.76023e-05
-0.000159804
3.45386e-05
-0.000160703
4.15273e-05
-0.000162382
4.84886e-05
-0.000163485
5.55563e-05
-0.000165762
6.25874e-05
-0.000166752
6.94254e-05
-0.000169395
7.65123e-05
-0.000171759
8.41559e-05
-0.000173807
9.26012e-05
-0.000175552
0.000102111
-0.000176312
0.000113029
-0.000175913
0.00012616
-0.000175722
0.000141912
-0.000174065
0.00016137
-0.000175177
0.000184279
-0.000173
0.000210948
-0.000178071
0.000241628
-0.000176552
0.000275042
-0.000183334
-0.000187489
0.000312551
6.6111e-06
-0.000164617
1.31996e-05
-0.000164913
1.97692e-05
-0.000165379
2.63411e-05
-0.000166406
3.29114e-05
-0.000167304
3.95695e-05
-0.000169071
4.62651e-05
-0.000170211
5.31549e-05
-0.000172683
6.04526e-05
-0.00017408
6.76948e-05
-0.000176667
7.49815e-05
-0.000179074
8.26368e-05
-0.000181489
9.09433e-05
-0.000183884
0.000100486
-0.000185879
0.000111428
-0.000186877
0.000124666
-0.000188978
0.000140194
-0.00018961
0.000159333
-0.000194329
0.000181601
-0.000195278
0.00020748
-0.000203957
0.000237598
-0.000206674
0.000271205
-0.000216942
-0.000226012
0.00030973
6.29602e-06
-0.000170943
1.26034e-05
-0.00017125
1.89464e-05
-0.000171752
2.53448e-05
-0.000172835
3.17827e-05
-0.000173772
3.83251e-05
-0.000175644
4.49541e-05
-0.00017687
5.16766e-05
-0.000179435
5.87104e-05
-0.000181143
6.59098e-05
-0.000183894
7.34097e-05
-0.000186601
8.14248e-05
-0.00018953
8.98965e-05
-0.000192381
9.95135e-05
-0.000195518
0.000110302
-0.000197686
0.000123461
-0.000202156
0.00013855
-0.000204714
0.000156748
-0.00021254
0.000177767
-0.000216306
0.000201821
-0.000228016
0.000230287
-0.000235143
0.000262527
-0.000249182
-0.000263665
0.000300184
5.99807e-06
-0.000176971
1.20295e-05
-0.000177311
1.80918e-05
-0.000177844
2.41948e-05
-0.000178967
3.03079e-05
-0.000179914
3.64694e-05
-0.000181835
4.27017e-05
-0.000183131
4.89968e-05
-0.000185759
5.56036e-05
-0.000187778
6.24332e-05
-0.000190751
6.94782e-05
-0.000193673
7.70451e-05
-0.000197122
8.49817e-05
-0.000200341
9.43644e-05
-0.000204922
0.000104909
-0.000208249
0.000117824
-0.000215088
0.000132351
-0.000219255
0.000149421
-0.000229621
0.000169141
-0.000236034
0.000191489
-0.000250369
0.000218254
-0.000261909
0.000249213
-0.000280139
-0.000300299
0.000285852
5.77043e-06
-0.000182769
1.15664e-05
-0.000183135
1.73678e-05
-0.000183674
2.31889e-05
-0.000184817
2.90204e-05
-0.000185774
3.49006e-05
-0.000187743
4.08763e-05
-0.000189135
4.69461e-05
-0.000191856
5.31869e-05
-0.000194046
5.96781e-05
-0.000197269
6.62946e-05
-0.000200314
7.35782e-05
-0.00020443
8.12784e-05
-0.000208063
9.03054e-05
-0.00021397
0.000100233
-0.000218195
0.000111847
-0.000226718
0.000124937
-0.000232358
0.000139821
-0.000244515
0.000157309
-0.000253528
0.00017712
-0.000270184
0.000200791
-0.000285581
0.000228548
-0.000307892
-0.000333025
0.00026128
5.46968e-06
-0.000188267
1.09453e-05
-0.000188638
1.64126e-05
-0.000189169
2.18886e-05
-0.00019032
2.73814e-05
-0.000191295
3.28983e-05
-0.000193288
3.85093e-05
-0.000194773
4.41676e-05
-0.000197541
4.99788e-05
-0.000199883
5.60661e-05
-0.000203381
6.23302e-05
-0.000206603
6.92147e-05
-0.000211337
7.65637e-05
-0.000215433
8.47307e-05
-0.000222155
9.37519e-05
-0.000227233
0.000103651
-0.000236631
0.000115211
-0.000243929
0.000127844
-0.000257156
0.000143021
-0.000268711
0.000160032
-0.000287198
0.000180028
-0.000305577
0.000203834
-0.000331694
-0.000360379
0.000231195
5.1298e-06
-0.000193423
1.02626e-05
-0.000193798
1.53972e-05
-0.00019433
2.05418e-05
-0.000195491
2.57074e-05
-0.000196487
3.08772e-05
-0.000198484
3.6119e-05
-0.000200041
4.13917e-05
-0.000202839
4.67799e-05
-0.000205296
5.2335e-05
-0.00020896
5.81181e-05
-0.000212408
6.42073e-05
-0.000217447
7.07336e-05
-0.000221979
7.75361e-05
-0.000228975
8.53212e-05
-0.000235033
9.34814e-05
-0.000244804
0.000103311
-0.000253769
0.00011346
-0.000267313
0.000125813
-0.000281068
0.000138838
-0.000300224
0.000154349
-0.000321087
0.000171905
-0.000349245
-0.000380132
0.000191666
4.81695e-06
-0.000198266
9.63589e-06
-0.000198642
1.44622e-05
-0.000199182
1.92775e-05
-0.000200332
2.41143e-05
-0.000201349
2.89069e-05
-0.000203301
3.37639e-05
-0.000204923
3.85911e-05
-0.000207691
4.35192e-05
-0.000210248
4.85173e-05
-0.000213981
5.37112e-05
-0.000217623
5.89418e-05
-0.000222697
6.45956e-05
-0.000227651
7.02957e-05
-0.000234692
7.69314e-05
-0.000241683
8.34751e-05
-0.00025136
9.12221e-05
-0.000261525
9.87058e-05
-0.000274803
0.000107705
-0.000290071
0.000116386
-0.000308905
0.00012708
-0.000331778
0.000137308
-0.000359468
-0.00039274
0.000149924
4.53408e-06
-0.000202824
9.05742e-06
-0.00020319
1.35685e-05
-0.000203718
1.80372e-05
-0.000204825
2.25053e-05
-0.000205841
2.68935e-05
-0.000207714
3.13228e-05
-0.000209376
3.56587e-05
-0.00021205
4.00619e-05
-0.000214673
4.43663e-05
-0.000218306
4.88076e-05
-0.000222085
5.31496e-05
-0.000227058
5.78757e-05
-0.000232393
6.2427e-05
-0.000239258
6.75327e-05
-0.000246801
7.22511e-05
-0.000256088
7.76932e-05
-0.000266975
8.26135e-05
-0.000279729
8.8278e-05
-0.000295738
9.29647e-05
-0.000313591
9.84481e-05
-0.000337258
0.00010198
-0.000362993
-0.000397543
0.000106793
4.23908e-06
-0.000207087
8.4512e-06
-0.000207426
1.26368e-05
-0.000207927
1.67497e-05
-0.000208962
2.08488e-05
-0.000209964
2.4838e-05
-0.000211726
2.8842e-05
-0.000213402
3.26974e-05
-0.000215927
3.65604e-05
-0.000218557
4.0246e-05
-0.000222012
4.40118e-05
-0.000225869
4.75471e-05
-0.00023061
5.1223e-05
-0.000236085
5.45188e-05
-0.000242567
5.80555e-05
-0.000250349
6.11452e-05
-0.000259187
6.44788e-05
-0.000270315
6.69854e-05
-0.000282239
6.95152e-05
-0.000298269
7.04536e-05
-0.000314527
7.10639e-05
-0.000337864
6.86675e-05
-0.000360589
-0.000394828
6.59626e-05
3.97096e-06
-0.00021108
7.90552e-06
-0.000211383
1.1798e-05
-0.000211841
1.55901e-05
-0.000212776
1.9338e-05
-0.000213733
2.2935e-05
-0.000215344
2.65051e-05
-0.000216993
2.98734e-05
-0.000219315
3.32006e-05
-0.000221904
3.62727e-05
-0.000225102
3.92807e-05
-0.000228894
4.19254e-05
-0.000233271
4.45144e-05
-0.000238688
4.66657e-05
-0.00024473
4.87338e-05
-0.000252427
5.01453e-05
-0.000260606
5.13504e-05
-0.000271525
5.15551e-05
-0.000282446
5.12768e-05
-0.000297991
4.91122e-05
-0.00031236
4.57621e-05
-0.000334508
3.86077e-05
-0.000353426
-0.000385802
2.95917e-05
3.71953e-06
-0.000214821
7.39416e-06
-0.000215078
1.10105e-05
-0.000215479
1.44971e-05
-0.000216283
1.78981e-05
-0.000217155
2.11048e-05
-0.000218571
2.42258e-05
-0.000220134
2.71091e-05
-0.000222218
2.98815e-05
-0.000224695
3.23469e-05
-0.000227585
3.46482e-05
-0.000231211
3.65492e-05
-0.000235186
3.81996e-05
-0.000240351
3.926e-05
-0.000245801
3.99211e-05
-0.000253097
3.97582e-05
-0.000260449
3.90606e-05
-0.000270832
3.71398e-05
-0.000280527
3.43573e-05
-0.000295207
2.9626e-05
-0.000307625
2.31175e-05
-0.000327994
1.30504e-05
-0.00034335
-0.000371553
-1.18662e-06
3.52211e-06
-0.000218363
6.98828e-06
-0.000218564
1.03775e-05
-0.000218887
1.36083e-05
-0.000219533
1.67149e-05
-0.000220281
1.95802e-05
-0.000221455
2.229e-05
-0.000222862
2.47098e-05
-0.000224655
2.69399e-05
-0.000226941
2.88225e-05
-0.000229483
3.04386e-05
-0.000232842
3.15864e-05
-0.000236347
3.23209e-05
-0.000241096
3.23892e-05
-0.000245879
3.18664e-05
-0.000252582
3.03359e-05
-0.000258924
2.79267e-05
-0.000268426
2.41107e-05
-0.000276712
1.89477e-05
-0.000290043
1.19644e-05
-0.000300637
2.72209e-06
-0.000318745
-9.06438e-06
-0.000331554
-0.000354827
-2.57788e-05
3.3167e-06
-0.000221698
6.57379e-06
-0.00022184
9.7446e-06
-0.000222076
1.27497e-05
-0.000222557
1.56087e-05
-0.000223157
1.82011e-05
-0.000224065
2.05701e-05
-0.000225248
2.25961e-05
-0.000226697
2.43352e-05
-0.000228696
2.56564e-05
-0.000230818
2.65957e-05
-0.000233794
2.70185e-05
-0.000236781
2.69207e-05
-0.000241009
2.60838e-05
-0.00024505
2.45423e-05
-0.000251046
2.19347e-05
-0.00025632
1.81665e-05
-0.000264659
1.28996e-05
-0.000271444
5.83612e-06
-0.000282976
-3.1048e-06
-0.000291691
-1.47418e-05
-0.0003071
-2.83928e-05
-0.000317893
-0.000336929
-4.62789e-05
3.16164e-06
-0.000224876
6.26582e-06
-0.000224961
9.28124e-06
-0.000225109
1.21289e-05
-0.000225421
1.48111e-05
-0.000225856
1.72064e-05
-0.000226476
1.93194e-05
-0.000227376
2.10345e-05
-0.000228427
2.23648e-05
-0.00023004
2.31952e-05
-0.000231662
2.35205e-05
-0.000234131
2.32426e-05
-0.000236513
2.2351e-05
-0.000240126
2.0626e-05
-0.000243332
1.80519e-05
-0.000248477
1.44529e-05
-0.000252724
9.62199e-06
-0.000259829
3.26269e-06
-0.000265083
-5.15378e-06
-0.000274556
-1.56402e-05
-0.000281199
-2.90988e-05
-0.000293634
-4.48908e-05
-0.00030209
-0.00031759
-6.42167e-05
2.98259e-06
-0.000227875
5.9134e-06
-0.000227907
8.75926e-06
-0.00022797
1.14419e-05
-0.000228119
1.39485e-05
-0.000228378
1.61709e-05
-0.000228713
1.80914e-05
-0.000229311
1.95983e-05
-0.000229947
2.06591e-05
-0.000231114
2.11668e-05
-0.000232181
2.10511e-05
-0.000234026
2.02073e-05
-0.000235678
1.86297e-05
-0.000238556
1.62086e-05
-0.000240917
1.27967e-05
-0.000245069
8.24322e-06
-0.000248173
2.35991e-06
-0.000253946
-4.88099e-06
-0.00025784
-1.41572e-05
-0.000265276
-2.53821e-05
-0.000269967
-3.97402e-05
-0.000279267
-5.67112e-05
-0.000285108
-0.000296491
-7.77977e-05
2.83106e-06
-0.00023072
5.61438e-06
-0.000230705
8.32235e-06
-0.000230692
1.08758e-05
-0.000230686
1.32487e-05
-0.000230764
1.53444e-05
-0.000230822
1.71224e-05
-0.000231102
1.84675e-05
-0.000231305
1.93117e-05
-0.000231969
1.95908e-05
-0.00023247
1.9239e-05
-0.000233683
1.81098e-05
-0.000234557
1.6105e-05
-0.000236557
1.31389e-05
-0.000237955
9.14142e-06
-0.000241075
3.97278e-06
-0.000243005
-2.68057e-06
-0.000247292
-1.07712e-05
-0.000249747
-2.07812e-05
-0.000255261
-3.26415e-05
-0.0002581
-4.72161e-05
-0.000264683
-6.44223e-05
-0.00026789
-0.000275328
-8.55724e-05
2.58073e-06
-0.000233314
5.11865e-06
-0.000233256
7.59584e-06
-0.000233182
9.94288e-06
-0.000233046
1.2133e-05
-0.000232967
1.40898e-05
-0.000232791
1.57771e-05
-0.000232801
1.70901e-05
-0.000232629
1.79128e-05
-0.000232802
1.81336e-05
-0.0002327
1.76541e-05
-0.000233212
1.63634e-05
-0.000233273
1.41235e-05
-0.000234323
1.08292e-05
-0.000234665
6.31819e-06
-0.000236566
6.49702e-07
-0.000237337
-6.50674e-06
-0.000240134
-1.50855e-05
-0.000241165
-2.56938e-05
-0.000244647
-3.80956e-05
-0.000245691
-5.31743e-05
-0.000249595
-7.04595e-05
-0.000250594
-0.00025456
-9.1214e-05
2.34802e-06
-0.000235673
4.65899e-06
-0.000235578
6.91649e-06
-0.000235451
9.07542e-06
-0.000235216
1.11124e-05
-0.000235015
1.296e-05
-0.000234649
1.45567e-05
-0.000234407
1.58363e-05
-0.000233918
1.67089e-05
-0.000233683
1.70654e-05
-0.000233065
1.67816e-05
-0.000232935
1.57332e-05
-0.000232231
1.37117e-05
-0.000232306
1.05577e-05
-0.000231514
6.01722e-06
-0.000232027
9.04169e-08
-0.00023141
-7.42026e-06
-0.000232621
-1.64059e-05
-0.000232175
-2.72848e-05
-0.000233763
-3.99978e-05
-0.00023297
-5.53014e-05
-0.000234282
-7.31258e-05
-0.000232758
-0.000233373
-9.43e-05
1.99995e-06
-0.000237684
3.96855e-06
-0.000237557
5.89152e-06
-0.000237384
7.74447e-06
-0.000237079
9.50998e-06
-0.00023679
1.11406e-05
-0.000236289
1.25639e-05
-0.00023584
1.37078e-05
-0.00023507
1.452e-05
-0.000234503
1.49257e-05
-0.000233478
1.4782e-05
-0.000232797
1.3963e-05
-0.000231417
1.2255e-05
-0.000230601
9.51888e-06
-0.00022878
5.38734e-06
-0.000227896
-2.39069e-07
-0.000225783
-7.69122e-06
-0.000225167
-1.6792e-05
-0.00022307
-2.78092e-05
-0.00022274
-4.03934e-05
-0.000220378
-5.51751e-05
-0.000219492
-7.20994e-05
-0.000215823
-0.000213355
-9.21051e-05
1.6894e-06
-0.000239382
3.35044e-06
-0.000239227
4.97039e-06
-0.000239013
6.53426e-06
-0.000238651
8.02506e-06
-0.000238289
9.41786e-06
-0.00023769
1.06883e-05
-0.000237118
1.17835e-05
-0.000236173
1.26204e-05
-0.000235347
1.31261e-05
-0.000233989
1.31839e-05
-0.00023286
1.27105e-05
-0.000230947
1.15288e-05
-0.000229423
9.50871e-06
-0.000226762
6.28149e-06
-0.000224669
1.62925e-06
-0.00022113
-4.91293e-06
-0.000218622
-1.34016e-05
-0.000214577
-2.41414e-05
-0.000211995
-3.68261e-05
-0.000207686
-5.16277e-05
-0.000204681
-6.8294e-05
-0.000199146
-0.000194098
-8.75388e-05
1.30072e-06
-0.00024069
2.58014e-06
-0.000240514
3.82733e-06
-0.000240268
5.03174e-06
-0.000239863
6.17582e-06
-0.00023944
7.25086e-06
-0.000238772
8.24337e-06
-0.000238117
9.13503e-06
-0.000237071
9.85494e-06
-0.000236073
1.03499e-05
-0.000234489
1.05115e-05
-0.000233026
1.02613e-05
-0.000230701
9.40995e-06
-0.000228574
7.86826e-06
-0.000225221
5.36648e-06
-0.000222168
1.73135e-06
-0.000217493
-3.57614e-06
-0.000213312
-1.07537e-05
-0.000207396
-2.02999e-05
-0.000202443
-3.21388e-05
-0.000195841
-4.63818e-05
-0.00019043
-6.24597e-05
-0.000183059
-0.000175992
-8.05548e-05
9.98298e-07
-0.000241695
1.97436e-06
-0.000241496
2.91653e-06
-0.000241216
3.81931e-06
-0.000240772
4.67509e-06
-0.000240302
5.48646e-06
-0.000239589
6.2383e-06
-0.000238874
6.93712e-06
-0.000237775
7.55042e-06
-0.000236691
8.04562e-06
-0.000234989
8.31623e-06
-0.0002333
8.28573e-06
-0.000230673
7.80634e-06
-0.000228096
6.823e-06
-0.000224239
5.13548e-06
-0.00022048
2.62771e-06
-0.000214984