/*--------------------------------*- C++ -*----------------------------------*\
| =========                 |                                                 |
| \\      /  F ield         | OpenFOAM: The Open Source CFD Toolbox           |
|  \\    /   O peration     | Version:  2012                                  |
|   \\  /    A nd           | Website:  www.openfoam.com                      |
|    \\/     M anipulation  |                                                 |
\*---------------------------------------------------------------------------*/
FoamFile
{
    version     2.0;
    format      ascii;
    class       volScalarField;
    location    "0.32";
    object      rho;
}
// * * * * * * * * * * * * * * * * * * * * * * * * * * * * * * * * * * * * * //

dimensions      [1 -3 0 0 0 0 0];


internalField   nonuniform List<scalar> 
2268
(
1000.05
1000.05
1000.05
1000.05
1000.05
1000.05
1000.05
1000.05
1000.05
1000.05
1000.05
1000.05
1000.05
1000.05
1000.05
1000.05
1000.05
1000.05
1000.05
1000.05
1000.05
1000.05
998.686
1000.05
1000.05
1000.05
1000.05
1000.05
1000.05
1000.05
1000.05
1000.05
1000.05
1000.05
1000.05
1000.05
1000.05
1000.05
1000.05
1000.05
1000.05
1000.05
1000.05
1000.05
1000.05
999.015
1000.05
1000.05
1000.05
1000.05
1000.05
1000.05
1000.05
1000.05
1000.05
1000.05
1000.05
1000.05
1000.05
1000.05
1000.05
1000.05
1000.05
1000.05
1000.05
1000.05
1000.05
1000.05
997.819
1000.05
1000.05
1000.05
1000.05
1000.05
1000.05
1000.05
1000.05
1000.05
1000.05
1000.05
1000.05
1000.05
1000.05
1000.05
1000.05
1000.05
1000.05
1000.05
1000.05
1000.05
1000.05
997.367
1000.05
1000.05
1000.05
1000.05
1000.05
1000.05
1000.05
1000.05
1000.05
1000.05
1000.05
1000.05
1000.05
1000.05
1000.05
1000.05
1000.05
1000.05
1000.05
1000.05
1000.05
1000.05
997.367
1000.05
1000.05
1000.05
1000.05
1000.05
1000.05
1000.05
1000.05
1000.05
1000.05
1000.05
1000.05
1000.05
1000.05
1000.05
1000.05
1000.05
1000.05
1000.05
1000.05
1000.05
1000.05
997.367
1000.05
1000.05
1000.05
1000.05
1000.05
1000.05
1000.05
1000.05
1000.05
1000.05
1000.05
1000.05
1000.05
1000.05
1000.05
1000.05
1000.05
1000.05
1000.05
1000.05
1000.05
1000.05
999.09
1000.05
1000.05
1000.05
1000.05
1000.05
1000.05
1000.05
1000.05
1000.05
1000.05
1000.05
1000.05
1000.05
1000.05
1000.05
1000.05
1000.05
1000.05
1000.05
1000.05
1000.05
1000.05
999.63
1.30074
1.30074
1.30075
1.30075
1.30076
1.30077
1.30079
1.3008
1.30081
1.30083
1.30085
1.30087
1.30089
1.3009
1.30092
1.30093
1.30094
1.30095
1.30095
1.30074
1.30074
1.30075
1.30075
1.30076
1.30077
1.30078
1.3008
1.30081
1.30083
1.30085
1.30087
1.30088
1.3009
1.30092
1.30093
1.30094
1.30095
1.30095
1.30074
1.30074
1.30074
1.30075
1.30076
1.30077
1.30078
1.3008
1.30081
1.30083
1.30085
1.30087
1.30088
1.3009
1.30092
1.30093
1.30094
1.30095
1.30095
1.30074
1.30074
1.30074
1.30075
1.30076
1.30077
1.30078
1.3008
1.30081
1.30083
1.30085
1.30087
1.30089
1.3009
1.30092
1.30093
1.30094
1.30095
1.30096
1.30074
1.30074
1.30074
1.30075
1.30076
1.30077
1.30078
1.3008
1.30081
1.30083
1.30085
1.30087
1.30089
1.3009
1.30092
1.30094
1.30095
1.30096
1.30096
1.30073
1.30074
1.30074
1.30075
1.30076
1.30077
1.30078
1.3008
1.30081
1.30083
1.30085
1.30087
1.30089
1.30091
1.30092
1.30094
1.30095
1.30096
1.30096
1.30073
1.30073
1.30074
1.30075
1.30076
1.30077
1.30078
1.3008
1.30081
1.30083
1.30085
1.30087
1.30089
1.30091
1.30093
1.30094
1.30096
1.30096
1.30097
1.30073
1.30073
1.30074
1.30075
1.30076
1.30077
1.30078
1.3008
1.30081
1.30083
1.30085
1.30087
1.30089
1.30091
1.30093
1.30095
1.30096
1.30097
1.30098
1000.05
1000.05
1000.05
1000.05
1000.05
1000.05
1000.05
1000.05
1000.05
1000.05
1000.05
1000.05
1000.05
1000.05
1000.05
1000.05
1000.05
1000.05
1000.05
1000.05
1000.05
1000.05
997.62
1000.05
1000.05
1000.05
1000.05
1000.05
1000.05
1000.05
1000.05
1000.05
1000.05
1000.05
1000.05
1000.05
1000.05
1000.05
1000.05
1000.05
1000.05
1000.05
1000.05
1000.05
1000.05
999.308
1000.05
1000.05
1000.05
1000.05
1000.05
1000.05
1000.05
1000.05
1000.05
1000.05
1000.04
1000.02
999.94
999.768
999.558
999.259
999.35
1000.05
1000.05
1000.05
1000.05
1000.05
1000.05
999.917
999.894
999.836
999.695
999.435
998.934
997.989
996.25
993.44
988.561
979.384
957.319
927.692
890.358
858.596
821.812
816.474
833.554
877.562
947.048
1000.05
1000.05
1000.05
918.544
913.469
901.883
880.578
852.103
813.762
764.364
701.999
632.422
537.98
436.647
340.47
265.528
196.308
158.322
116.454
106.065
113.036
148.786
218.38
355.045
535.487
749.623
253.152
244.752
226.234
196.986
163.791
127.059
89.1215
51.0868
18.8225
1.29328
1.29327
1.29326
1.29325
1.29324
1.29323
1.29323
1.29324
1.29327
1.58188
2.8731
7.84937
18.4248
81.1494
1.29329
1.29329
1.29329
1.29328
1.29327
1.29326
1.29325
1.29323
1.29322
1.2932
1.29319
1.29318
1.29318
1.29317
1.29318
1.29317
1.29317
1.29319
1.29322
1.29322
1.54061
2.72597
3.59404
1.2932
1.2932
1.2932
1.29319
1.29319
1.29318
1.29318
1.29317
1.29317
1.29317
1.29323
1.29322
1.29323
1.29317
1.29317
1.29333
1.29326
1.29317
1.29317
1.29319
1.29319
1.41487
2.09406
1.29316
1.29316
1.29316
1.29316
1.29316
1.29316
1.29316
1.29315
1.29315
1.29342
1.2949
1.29469
1.29345
1.29315
1.29314
1.29504
1.30754
1.3103
1.30457
1.2971
1.29482
1.29583
1.29605
1.29315
1.29315
1.29315
1.29315
1.29315
1.29315
1.29315
1.29315
1.29315
1.29513
1.29572
1.29552
1.29337
1.29315
1.29314
1.29619
1.32982
1.33358
1.33357
1.33358
1.32273
1.29492
1.29313
1.29315
1.29315
1.29315
1.29315
1.29315
1.29315
1.29315
1.29315
1.29338
1.29572
1.29572
1.29388
1.2932
1.29314
1.29364
1.29423
1.29681
1.31085
1.31009
1.29958
1.29436
1.29336
1.29312
1.29315
1.29315
1.29315
1.29315
1.29315
1.29315
1.29315
1.29315
1.29329
1.29417
1.2938
1.29315
1.29317
1.29327
1.29314
1.29314
1.29313
1.29313
1.29313
1.29313
1.29312
1.29312
1.29312
1.29315
1.29315
1.29315
1.29315
1.29315
1.29314
1.29314
1.29314
1.29314
1.29314
1.29314
1.29314
1.29314
1.29314
1.29313
1.29313
1.29313
1.29313
1.29312
1.29312
1.29312
1.29311
1.29311
1.29314
1.29314
1.29314
1.29314
1.29314
1.29314
1.29314
1.29315
1.29314
1.29314
1.29314
1.29314
1.29314
1.29314
1.29313
1.29313
1.29313
1.29313
1.29312
1.29312
1.29312
1.29311
1.29311
1.29314
1.29314
1.29314
1.29314
1.29314
1.29314
1.29314
1.29314
1.29314
1.29314
1.29314
1.29314
1.29314
1.29313
1.29313
1.29313
1.29312
1.29312
1.29312
1.29311
1.29311
1.29311
1.2931
1.29314
1.29314
1.29314
1.29314
1.29314
1.29314
1.29314
1.29314
1.29314
1.29314
1.29313
1.29313
1.29313
1.29313
1.29313
1.29313
1.29312
1.29312
1.29312
1.29311
1.29311
1.2931
1.2931
1.29314
1.29314
1.29314
1.29314
1.29314
1.29314
1.29314
1.29314
1.29313
1.29313
1.29313
1.29313
1.29313
1.29313
1.29312
1.29312
1.29312
1.29312
1.29311
1.29311
1.2931
1.2931
1.29309
1.29314
1.29314
1.29314
1.29314
1.29314
1.29314
1.29313
1.29313
1.29313
1.29313
1.29313
1.29313
1.29313
1.29312
1.29312
1.29312
1.29312
1.29311
1.29311
1.2931
1.2931
1.29309
1.29309
1.29314
1.29314
1.29314
1.29313
1.29313
1.29313
1.29313
1.29313
1.29313
1.29313
1.29313
1.29313
1.29312
1.29312
1.29312
1.29312
1.29311
1.29311
1.29311
1.2931
1.2931
1.29309
1.29308
1.29313
1.29313
1.29313
1.29313
1.29313
1.29313
1.29313
1.29313
1.29313
1.29313
1.29313
1.29312
1.29312
1.29312
1.29312
1.29311
1.29311
1.29311
1.2931
1.2931
1.29309
1.29309
1.29308
1.29313
1.29313
1.29313
1.29313
1.29313
1.29313
1.29313
1.29313
1.29313
1.29313
1.29312
1.29312
1.29312
1.29312
1.29312
1.29311
1.29311
1.29311
1.2931
1.2931
1.29309
1.29308
1.29307
1.29313
1.29313
1.29313
1.29313
1.29313
1.29313
1.29313
1.29313
1.29313
1.29312
1.29312
1.29312
1.29312
1.29312
1.29311
1.29311
1.29311
1.2931
1.2931
1.29309
1.29309
1.29308
1.29307
1.29313
1.29313
1.29313
1.29313
1.29313
1.29313
1.29313
1.29313
1.29312
1.29312
1.29312
1.29312
1.29312
1.29312
1.29311
1.29311
1.29311
1.2931
1.2931
1.29309
1.29308
1.29308
1.29307
1.29313
1.29313
1.29313
1.29313
1.29313
1.29313
1.29313
1.29312
1.29312
1.29312
1.29312
1.29312
1.29312
1.29311
1.29311
1.29311
1.2931
1.2931
1.2931
1.29309
1.29308
1.29308
1.29307
1.29313
1.29313
1.29313
1.29313
1.29313
1.29313
1.29312
1.29312
1.29312
1.29312
1.29312
1.29312
1.29312
1.29311
1.29311
1.29311
1.2931
1.2931
1.29309
1.29309
1.29308
1.29308
1.29307
1.29313
1.29313
1.29313
1.29313
1.29312
1.29312
1.29312
1.29312
1.29312
1.29312
1.29312
1.29312
1.29311
1.29311
1.29311
1.29311
1.2931
1.2931
1.29309
1.29309
1.29308
1.29308
1.29307
1.29312
1.29312
1.29312
1.29312
1.29312
1.29312
1.29312
1.29312
1.29312
1.29312
1.29312
1.29312
1.29311
1.29311
1.29311
1.29311
1.2931
1.2931
1.29309
1.29309
1.29308
1.29308
1.29307
1.29312
1.29312
1.29312
1.29312
1.29312
1.29312
1.29312
1.29312
1.29312
1.29312
1.29312
1.29312
1.29311
1.29311
1.29311
1.29311
1.2931
1.2931
1.2931
1.29309
1.29309
1.29308
1.29307
1.29312
1.29312
1.29312
1.29312
1.29312
1.29312
1.29312
1.29312
1.29312
1.29312
1.29312
1.29312
1.29311
1.29311
1.29311
1.29311
1.2931
1.2931
1.2931
1.29309
1.29309
1.29308
1.29307
1.29312
1.29312
1.29312
1.29312
1.29312
1.29312
1.29312
1.29312
1.29312
1.29312
1.29312
1.29311
1.29311
1.29311
1.29311
1.29311
1.29311
1.2931
1.2931
1.2931
1.29309
1.29308
1.29308
1.29311
1.29311
1.29311
1.29311
1.29311
1.29311
1.29311
1.29311
1.29311
1.29311
1.29311
1.29311
1.29311
1.29311
1.29311
1.29311
1.29311
1.2931
1.2931
1.2931
1.29309
1.29309
1.29308
1.29311
1.29311
1.29311
1.29311
1.29311
1.29311
1.29311
1.29311
1.29311
1.29311
1.29311
1.29311
1.29311
1.29311
1.29311
1.29311
1.29311
1.29311
1.2931
1.2931
1.2931
1.29309
1.29309
1.2931
1.2931
1.2931
1.2931
1.2931
1.2931
1.2931
1.2931
1.2931
1.2931
1.2931
1.29311
1.29311
1.29311
1.29311
1.29311
1.29311
1.29311
1.2931
1.2931
1.2931
1.2931
1.29309
1.29308
1.29308
1.29308
1.29308
1.29309
1.29309
1.29309
1.29309
1.29309
1.29309
1.29309
1.2931
1.2931
1.2931
1.2931
1.29311
1.29311
1.29311
1.29311
1.2931
1.2931
1.2931
1.2931
1.29307
1.29307
1.29307
1.29307
1.29307
1.29307
1.29307
1.29308
1.29308
1.29308
1.29308
1.29308
1.29309
1.29309
1.29309
1.2931
1.2931
1.2931
1.2931
1.29311
1.2931
1.2931
1.2931
1.29306
1.29306
1.29306
1.29306
1.29306
1.29306
1.29306
1.29306
1.29307
1.29307
1.29307
1.29307
1.29307
1.29308
1.29308
1.29309
1.29309
1.2931
1.2931
1.29311
1.29311
1.29311
1.2931
1.29305
1.29305
1.29305
1.29305
1.29305
1.29305
1.29305
1.29306
1.29306
1.29306
1.29306
1.29306
1.29306
1.29306
1.29307
1.29307
1.29308
1.29309
1.29309
1.2931
1.2931
1.29311
1.29311
1.29305
1.29305
1.29305
1.29305
1.29305
1.29305
1.29305
1.29305
1.29305
1.29305
1.29305
1.29305
1.29305
1.29306
1.29306
1.29306
1.29307
1.29307
1.29308
1.29309
1.2931
1.29311
1.29311
1.29304
1.29304
1.29304
1.29304
1.29304
1.29304
1.29304
1.29304
1.29305
1.29305
1.29305
1.29305
1.29305
1.29305
1.29305
1.29306
1.29306
1.29306
1.29307
1.29308
1.29309
1.2931
1.29311
1.29304
1.29304
1.29304
1.29304
1.29304
1.29304
1.29304
1.29304
1.29304
1.29304
1.29304
1.29304
1.29305
1.29305
1.29305
1.29305
1.29306
1.29306
1.29306
1.29307
1.29308
1.29309
1.2931
1.29304
1.29304
1.29304
1.29304
1.29304
1.29304
1.29304
1.29304
1.29304
1.29304
1.29304
1.29304
1.29304
1.29304
1.29305
1.29305
1.29305
1.29306
1.29306
1.29307
1.29307
1.29308
1.29309
1.29304
1.29304
1.29304
1.29304
1.29304
1.29304
1.29304
1.29304
1.29304
1.29304
1.29304
1.29304
1.29304
1.29304
1.29305
1.29305
1.29305
1.29306
1.29306
1.29307
1.29307
1.29308
1.29309
997.62
999.086
1000.05
683.859
997.617
998.672
1000.05
990.078
999.826
999.398
999.808
999.74
1000.05
1000.05
1000.05
1000.05
875.226
927.713
984.316
1000.05
146.343
199.745
257.389
324.342
4.29362
4.99508
6.10829
7.86233
2.50048
2.28713
1.82622
1.51847
1.29518
1.29568
1.29563
1.29524
1.29312
1.29312
1.29312
1.29312
1.29311
1.29311
1.29311
1.2931
1.29311
1.29311
1.29311
1.2931
1.2931
1.2931
1.2931
1.2931
1.2931
1.2931
1.2931
1.29309
1.2931
1.29309
1.29309
1.29309
1.29309
1.29309
1.29308
1.29308
1.29308
1.29308
1.29308
1.29307
1.29308
1.29308
1.29307
1.29306
1.29307
1.29307
1.29306
1.29306
1.29307
1.29306
1.29306
1.29305
1.29306
1.29306
1.29305
1.29304
1.29306
1.29306
1.29305
1.29304
1.29306
1.29306
1.29305
1.29304
1.29306
1.29306
1.29305
1.29304
1.29306
1.29306
1.29305
1.29304
1.29306
1.29306
1.29305
1.29304
1.29307
1.29306
1.29306
1.29305
1.29307
1.29306
1.29306
1.29305
1.29307
1.29307
1.29306
1.29306
1.29307
1.29307
1.29307
1.29306
1.29308
1.29307
1.29307
1.29307
1.29308
1.29308
1.29308
1.29307
1.29309
1.29308
1.29308
1.29308
1.29309
1.29309
1.29309
1.29309
1.2931
1.2931
1.29309
1.29309
1.2931
1.2931
1.2931
1.2931
1.29311
1.29311
1.29311
1.2931
1.29311
1.29311
1.29311
1.29311
1.29311
1.29311
1.29311
1.29312
1.29311
1.29311
1.29312
1.29312
1.2931
1.2931
1.29311
1.29312
1.2931
1.2931
1.29311
1.29311
1.30073
1.30073
1.30074
1.30074
1.30076
1.30077
1.30078
1.3008
1.30081
1.30083
1.30085
1.30087
1.3009
1.30092
1.30094
1.30096
1.30097
1.30098
1.30099
777.429
459.608
82.4367
1.30143
1.30086
1.30078
1.30079
1.3008
1.30081
1.30084
1.30086
1.30088
1.3009
1.30093
1.30095
1.30097
1.30099
1.301
1.30101
996.705
976.635
869.167
732.195
474.692
86.4203
1.30154
1.30091
1.30082
1.30088
1.30086
1.30088
1.30092
1.30094
1.30096
1.30099
1.30101
1.30103
1.30104
1000.05
999.985
999.226
997.159
975.92
895.635
792.99
528.579
112.541
2.26078
1.30104
1.30162
1.30097
1.30095
1.30099
1.30102
1.30104
1.30106
1.30107
1000.05
1000.05
1000.05
1000.05
1000.05
999.675
997.897
983.276
928.666
752.801
276.236
17.614
1.30137
1.30133
1.30171
1.30118
1.30109
1.30111
1.30112
466.88
596.546
700.322
825.561
955.11
999.543
1000.05
1000.05
1000.05
1000.05
969.05
739.761
199.151
11.7878
1.90475
1.34261
1.30264
1.30117
1.30118
13.1966
29.0211
55.6342
95.7261
144.972
195.176
284.997
544.263
898.297
995.427
1000.01
1000.01
899.35
381.072
28.4676
2.4402
1.32684
1.30128
1.30126
1.37952
1.35
1.38148
1.51458
1.90307
3.04508
6.11685
13.9886
35.8994
154.121
615.1
959.966
966.91
908.757
384.408
24.0843
1.6214
1.30198
1.30135
1.29422
1.29348
1.29323
1.29315
1.29329
1.29334
1.2931
1.29308
1.29308
1.29309
6.71569
235.314
843.57
922.812
819.536
226.108
7.49739
1.3123
1.30148
1.29313
1.29325
1.29321
1.2931
1.29308
1.29308
1.29307
1.29307
1.29334
1.29582
1.30136
1.29318
223.039
851.232
906.273
580.643
54.3575
1.83462
1.30195
1.2931
1.29317
1.2932
1.29313
1.29308
1.29307
1.29307
1.29307
1.29317
1.29416
1.29386
1.29316
1.29313
440.028
906.233
817
273.232
9.14016
1.30552
1.2931
1.29309
1.29308
1.29308
1.29307
1.29307
1.29306
1.29306
1.29306
1.29307
1.2931
1.29309
1.29313
141.201
782.569
868.006
567.207
39.5038
1.32496
1.29309
1.29308
1.29308
1.29307
1.29307
1.29306
1.29306
1.29306
1.29306
1.29305
1.29306
1.29306
1.29311
16.5536
629.678
868.202
606.796
53.2203
1.34768
1.29309
1.29308
1.29307
1.29307
1.29307
1.29306
1.29305
1.29304
1.29304
1.29304
1.29305
1.29304
1.29308
1.29313
426.953
868.006
565.591
41.195
1.3358
1.29308
1.29307
1.29306
1.29305
1.29306
1.29306
1.29304
1.29303
1.29303
1.29305
1.29308
1.29305
1.29308
1.29315
341.785
813.037
437.087
20.8287
1.3151
1.29307
1.29306
1.29305
1.29303
1.29302
1.29301
1.293
1.2932
1.29363
1.29363
1.2933
1.29302
1.29311
3.76511
534.188
501.333
126.013
5.86495
1.30214
1.29307
1.29305
1.29303
1.29301
1.29299
1.29298
1.29321
1.29363
1.29364
1.29355
1.29311
1.29299
1.29316
227.501
689.449
494.264
54.8799
1.72583
1.29599
1.29306
1.29303
1.29303
1.29301
1.29301
1.29307
1.29315
1.2934
1.29339
1.29322
1.29299
1.29301
29.998
579.781
689.44
570.477
80.7884
1.51399
1.29365
1.29304
1.29301
1.29364
1.29591
1.30868
1.29548
1.29385
1.29499
1.295
1.29332
1.29295
1.29304
33.4269
546.425
689.449
466.157
40.7612
1.36243
1.29268
1.29303
1.29715
1.2958
1.33525
1.4503
1.38983
1.30546
1.29385
1.29351
1.29304
1.29293
1.29304
27.2417
177.932
224.838
122.119
14.1984
1.32661
1.29222
1.29302
1.30601
1.30394
1.45036
1.45029
1.4503
1.29512
1.29288
1.29289
1.29293
1.29717
2.87997
5.20753
4.30192
3.44629
2.86334
2.96592
1.49203
1.29212
1.29302
1.30714
1.3118
1.45039
1.45033
1.45035
1.35371
1.40771
1.42711
1.43351
1.64892
1.93512
1.51304
1.32394
1.2962
1.29468
1.33127
1.395
1.29221
1.29302
1.29661
1.3008
1.41931
1.45038
1.4331
1.31716
1.35077
1.35186
1.34506
1.32018
1.2931
1.29278
1.29262
1.29248
1.29232
1.29243
1.29378
1.29223
1.29307
1.29553
1.29639
1.34478
1.41302
1.32546
1.29292
1.29382
1.29484
1.29609
1.29669
1.2928
1.29272
1.29264
1.29253
1.29244
1.29235
1.2924
1.29248
1.29306
1.30722
1.32194
1.29352
1.30145
1.29403
1.29293
1.29293
1.29504
1.30922
1.30856
1.29284
1.29277
1.29272
1.29264
1.2926
1.29255
1.29267
1.29274
1.29308
1.30604
1.32196
1.293
1.293
1.29299
1.29301
1.29302
1.29303
1.293
1.29287
1.33096
1.29284
1.29281
1.29276
1.29276
1.29273
1.29284
1.29289
1.29307
1.29489
1.31625
1.30139
1.29306
1.29299
1.29302
1.29314
69.7659
203.006
70.9504
4.64824
1.29292
1.2929
1.29288
1.29288
1.29287
1.29295
1.29294
1.29304
1.29302
1.29298
1.31252
1.2947
1.29298
1.29306
51.9231
409.271
475.995
341.051
33.7248
1.31613
1.29301
1.29293
1.29297
1.29294
1.29299
1.29298
1.29305
1.29303
1.29301
1.30412
1.31612
1.29798
1.29304
54.009
461.328
475.956
373.895
32.9561
1.31408
1.293
1.29299
1.29299
1.29298
1.29301
1.293
1.29305
1.29304
1.29306
1.31066
1.32954
1.2996
1.29298
21.0623
175.677
288.31
152.102
12.2925
1.302
1.29305
1.29299
1.29302
1.293
1.29302
1.29301
1.29306
1.29305
1.29303
1.29301
1.29352
1.32201
1.51134
2.8224
4.7373
8.77445
4.56601
3.37153
1.29301
1.29302
1.29301
1.29302
1.29302
1.29303
1.29302
1.29307
1.29306
1.29304
1.29303
1.29316
1.30549
1.35208
1.29329
1.29317
1.29366
1.29355
1.30018
1.29302
1.29304
1.29302
1.29304
1.29303
1.29304
1.29304
1.29308
1.29307
1.29306
1.29305
1.29303
1.29301
1.29296
1.29293
1.2929
1.29292
1.29294
1.29299
1.29302
1.29303
1.29303
1.29304
1.29304
1.29305
1.29304
1.29308
1.29308
1.29307
1.29306
1.29305
1.29304
1.29302
1.29301
1.29299
1.293
1.29301
1.29304
1.29305
1.29305
1.29305
1.29306
1.29305
1.29306
1.29306
1.29309
1.29308
1.29308
1.29307
1.29307
1.29306
1.29305
1.29305
1.29304
1.29304
1.29304
1.29305
1.29306
1.29306
1.29306
1.29306
1.29306
1.29307
1.29306
1.2931
1.29309
1.29309
1.29308
1.29308
1.29308
1.29307
1.29307
1.29306
1.29307
1.29307
1.29307
1.29307
1.29307
1.29307
1.29307
1.29307
1.29307
1.29307
1.2931
1.2931
1.2931
1.29309
1.29309
1.29309
1.29308
1.29308
1.29308
1.29308
1.29308
1.29308
1.29308
1.29308
1.29308
1.29308
1.29308
1.29308
1.29308
1.29311
1.29311
1.2931
1.2931
1.2931
1.2931
1.2931
1.2931
1.29309
1.29309
1.29309
1.29309
1.29309
1.29309
1.29309
1.29309
1.29309
1.29309
1.29309
1.29311
1.29311
1.29311
1.29311
1.29311
1.29311
1.2931
1.2931
1.2931
1.2931
1.2931
1.2931
1.2931
1.2931
1.2931
1.2931
1.2931
1.2931
1.2931
1.29312
1.29312
1.29312
1.29312
1.29312
1.29312
1.29311
1.29311
1.29311
1.29311
1.29311
1.29311
1.29311
1.29311
1.29311
1.29311
1.29311
1.29311
1.29311
1.29312
1.29313
1.29313
1.29313
1.29312
1.29312
1.29312
1.29312
1.29312
1.29312
1.29312
1.29312
1.29312
1.29312
1.29312
1.29312
1.29312
1.29312
1.29312
1.29312
1.29313
1.29313
1.29313
1.29313
1.29313
1.29313
1.29313
1.29313
1.29313
1.29313
1.29313
1.29313
1.29313
1.29313
1.29313
1.29313
1.29313
1.29313
)
;

boundaryField
{
    leftWall
    {
        type            calculated;
        value           nonuniform List<scalar> 
50
(
1000.05
1000.05
1000.05
1000.05
1000.05
1000.05
1000.05
1000.05
1000.05
1000.05
1000.05
999.917
918.544
253.152
1.29329
1.2932
1.29316
1.29315
1.29315
1.29315
1.29315
1.29314
1.29314
1.29314
1.29314
1.29314
1.29314
1.29313
1.29313
1.29313
1.29313
1.29313
1.29313
1.29313
1.29312
1.29312
1.29312
1.29312
1.29311
1.29311
1.2931
1.29308
1.29307
1.29306
1.29305
1.29305
1.29304
1.29304
1.29304
1.29304
)
;
    }
    rightWall
    {
        type            calculated;
        value           nonuniform List<scalar> 
50
(
1.30095
1.30095
1.30095
1.30096
1.30096
1.30096
1.30097
1.30098
1.30099
1.30101
1.30104
1.30107
1.30112
1.30118
1.30126
1.30135
1.30148
1.30195
1.30552
1.32496
1.34768
1.3358
1.3151
1.30214
1.29599
1.29365
1.29268
1.29222
1.29212
1.29221
1.29223
1.29248
1.29274
1.29289
1.29294
1.29298
1.293
1.29301
1.29302
1.29304
1.29304
1.29306
1.29306
1.29307
1.29308
1.29309
1.2931
1.29311
1.29312
1.29313
)
;
    }
    lowerWall
    {
        type            calculated;
        value           nonuniform List<scalar> 
62
(
1000.05
1000.05
1000.05
1000.05
1000.05
1000.05
1000.05
1000.05
1000.05
1000.05
1000.05
1000.05
1000.05
1000.05
1000.05
1000.05
1000.05
1000.05
1000.05
1000.05
1000.05
1000.05
998.686
998.686
999.015
997.819
997.367
997.367
997.367
999.09
999.63
997.62
999.086
1000.05
683.859
1.30074
1.30074
1.30074
1.30074
1.30074
1.30073
1.30073
1.30073
1.30074
1.30074
1.30075
1.30075
1.30076
1.30077
1.30079
1.3008
1.30082
1.30083
1.30085
1.30087
1.30089
1.3009
1.30092
1.30093
1.30094
1.30095
1.30095
)
;
    }
    atmosphere
    {
        type            calculated;
        value           nonuniform List<scalar> 
46
(
1.29313
1.29313
1.29313
1.29313
1.29313
1.29313
1.29313
1.29314
1.29314
1.29314
1.29314
1.29314
1.29314
1.29314
1.29314
1.29314
1.29315
1.29315
1.29316
1.29316
1.29317
1.29318
1.29318
1.29319
1.2932
1.2932
1.29321
1.29321
1.29322
1.29323
1.29323
1.29323
1.29323
1.29323
1.29323
1.29323
1.29323
1.29323
1.29323
1.29323
1.29323
1.29323
1.29323
1.29323
1.29323
1.29323
)
;
    }
    defaultFaces
    {
        type            empty;
    }
}


// ************************************************************************* //
