/*--------------------------------*- C++ -*----------------------------------*\
| =========                 |                                                 |
| \\      /  F ield         | OpenFOAM: The Open Source CFD Toolbox           |
|  \\    /   O peration     | Version:  2012                                  |
|   \\  /    A nd           | Website:  www.openfoam.com                      |
|    \\/     M anipulation  |                                                 |
\*---------------------------------------------------------------------------*/
FoamFile
{
    version     2.0;
    format      ascii;
    class       volScalarField;
    location    "0.32";
    object      rhogh;
}
// * * * * * * * * * * * * * * * * * * * * * * * * * * * * * * * * * * * * * //

dimensions      [1 -1 -2 0 0 0 0];


internalField   nonuniform List<scalar> 
2268
(
-29.4294
-29.4294
-29.4294
-29.4294
-29.4294
-29.4294
-29.4294
-29.4294
-29.4294
-29.4294
-29.4294
-29.4294
-29.4294
-29.4294
-29.4294
-29.4294
-29.4294
-29.4294
-29.4294
-29.4294
-29.4294
-29.4294
-29.389
-88.2881
-88.2881
-88.2881
-88.2881
-88.2881
-88.2881
-88.2881
-88.2881
-88.2881
-88.2881
-88.2881
-88.2881
-88.2881
-88.2881
-88.2881
-88.2881
-88.2881
-88.2881
-88.2881
-88.2881
-88.2881
-88.2881
-88.1962
-147.147
-147.147
-147.147
-147.147
-147.147
-147.147
-147.147
-147.147
-147.147
-147.147
-147.147
-147.147
-147.147
-147.147
-147.147
-147.147
-147.147
-147.147
-147.147
-147.147
-147.147
-147.147
-146.817
-206.006
-206.006
-206.006
-206.006
-206.006
-206.006
-206.006
-206.006
-206.006
-206.006
-206.006
-206.006
-206.006
-206.006
-206.006
-206.006
-206.006
-206.006
-206.006
-206.006
-206.006
-206.006
-205.451
-264.864
-264.864
-264.864
-264.864
-264.864
-264.864
-264.864
-264.864
-264.864
-264.864
-264.864
-264.864
-264.864
-264.864
-264.864
-264.864
-264.864
-264.864
-264.864
-264.864
-264.864
-264.864
-264.152
-323.723
-323.723
-323.723
-323.723
-323.723
-323.723
-323.723
-323.723
-323.723
-323.723
-323.723
-323.723
-323.723
-323.723
-323.723
-323.723
-323.723
-323.723
-323.723
-323.723
-323.723
-323.723
-322.852
-382.582
-382.582
-382.582
-382.582
-382.582
-382.582
-382.582
-382.582
-382.582
-382.582
-382.582
-382.582
-382.582
-382.582
-382.582
-382.582
-382.582
-382.582
-382.582
-382.582
-382.582
-382.582
-382.212
-441.44
-441.44
-441.44
-441.44
-441.44
-441.44
-441.44
-441.44
-441.44
-441.44
-441.44
-441.44
-441.44
-441.44
-441.44
-441.44
-441.44
-441.44
-441.44
-441.44
-441.44
-441.44
-441.253
-1.99485e-23
-6.14593e-23
-8.6269e-22
-1.86051e-20
-3.17628e-19
-1.80506e-18
-6.71727e-19
-6.71727e-19
-7.93362e-20
-9.83114e-21
-6.37451e-22
-4.37106e-23
-1.52861e-24
-2.82266e-26
-3.30458e-28
-2.38941e-30
-1.50562e-32
-7.57899e-35
-4.3362e-37
-2.40536e-21
-2.86697e-20
-5.70511e-19
-1.1567e-17
-1.82664e-16
-7.88208e-16
-1.54018e-16
-2.34282e-16
-2.91357e-17
-3.74295e-18
-2.90691e-19
-2.41445e-20
-1.04368e-21
-2.26169e-23
-3.00934e-25
-2.38675e-27
-1.62178e-29
-8.74027e-32
-2.68158e-34
-1.68687e-19
-3.59359e-18
-8.22732e-17
-1.61682e-15
-2.25141e-14
-8.54455e-14
-1.48975e-14
-2.11597e-14
-2.74547e-15
-3.66229e-16
-3.3543e-17
-3.39821e-18
-1.85016e-19
-4.81768e-21
-7.44039e-23
-6.62779e-25
-4.99144e-27
-2.9529e-29
-9.92598e-32
-1.59917e-17
-4.6114e-16
-9.16573e-15
-1.42002e-13
-1.69698e-12
-4.61986e-12
-7.2463e-13
-9.27203e-13
-1.28141e-13
-1.8314e-14
-1.9834e-15
-2.43743e-16
-1.68919e-17
-5.4113e-19
-9.96483e-21
-1.02397e-22
-8.78711e-25
-5.88244e-27
-2.2267e-29
-1.33646e-15
-3.51699e-14
-5.8081e-13
-7.42228e-12
-6.89063e-11
-1.45993e-10
-2.23646e-11
-2.54105e-11
-3.70231e-12
-5.71404e-13
-7.19337e-14
-1.07618e-14
-9.6287e-16
-3.89886e-17
-8.7598e-19
-1.05571e-20
-1.04397e-22
-7.96612e-25
-3.42595e-27
-1.22363e-13
-2.37404e-12
-2.83287e-11
-2.85875e-10
-1.9365e-09
-2.9902e-09
-4.49245e-10
-4.47019e-10
-6.96033e-11
-1.21177e-11
-1.78113e-12
-3.20708e-13
-3.72197e-14
-1.95618e-15
-5.55688e-17
-8.09497e-19
-9.50968e-21
-8.54251e-23
-4.2971e-25
-5.26304e-12
-9.42647e-11
-9.48381e-10
-7.75383e-09
-3.22173e-08
-4.10454e-08
-6.37761e-09
-5.66496e-09
-9.12822e-10
-1.81865e-10
-3.05719e-11
-6.63213e-12
-1.01837e-12
-7.10625e-14
-2.64574e-15
-4.80228e-17
-6.83162e-19
-7.32074e-21
-4.41002e-23
-2.25705e-10
-3.22165e-09
-2.5e-08
-1.49324e-07
-3.36982e-07
-3.33252e-07
-6.4224e-08
-5.07727e-08
-8.29924e-09
-2.00525e-09
-3.80485e-10
-9.66921e-11
-2.04699e-11
-1.88642e-12
-9.6697e-14
-2.36167e-15
-4.40501e-17
-6.07759e-19
-4.68714e-21
-533.467
-533.467
-533.467
-533.467
-533.467
-533.467
-533.467
-533.467
-533.467
-533.467
-533.467
-533.467
-533.467
-533.467
-533.467
-533.467
-533.467
-533.467
-533.467
-533.467
-533.467
-533.467
-532.167
-658.662
-658.662
-658.662
-658.662
-658.662
-658.662
-658.662
-658.662
-658.662
-658.662
-658.662
-658.662
-658.662
-658.662
-658.662
-658.662
-658.662
-658.662
-658.662
-658.662
-658.662
-658.662
-658.169
-783.856
-783.856
-783.856
-783.856
-783.856
-783.856
-783.856
-783.856
-783.855
-783.854
-783.849
-783.827
-783.767
-783.632
-783.467
-783.232
-783.304
-783.856
-783.856
-783.856
-783.856
-783.856
-783.853
-908.926
-908.905
-908.852
-908.724
-908.488
-908.032
-907.172
-905.588
-903.031
-898.59
-890.238
-870.155
-843.189
-809.207
-780.298
-746.818
-741.96
-757.506
-797.561
-860.806
-909.051
-909.051
-909.051
-949.839
-944.585
-932.586
-910.525
-881.037
-841.334
-790.182
-725.601
-653.551
-555.754
-450.821
-351.227
-273.623
-201.943
-162.608
-119.252
-108.494
-115.712
-152.733
-224.799
-366.321
-553.173
-774.917
-292.378
-282.626
-261.129
-227.175
-188.64
-145.998
-101.958
-57.8042
-20.3493
5.02789e-18
-7.77752e-28
-2.39753e-27
2.08976e-25
-1.87528e-25
-1.08786e-24
-2.34548e-25
-3.73579e-26
3.60172e-27
-0.335042
-1.83401
-7.61087
-19.8876
-92.7033
-4.78543e-34
-4.53249e-34
-1.35732e-32
2.19203e-30
-9.6297e-29
-2.49411e-28
-3.14406e-27
1.24029e-27
2.27465e-28
-4.87624e-08
-8.30536e-08
-1.33277e-07
-9.29656e-07
-3.5441e-06
-1.04412e-05
-7.58118e-06
-2.85473e-06
-4.96274e-07
-2.70219e-06
-1.57253e-19
-0.318209
-1.84288
-2.95944
-3.38364e-16
-2.77428e-14
-1.33672e-12
-4.07798e-11
-7.25921e-10
-1.15148e-08
-3.99479e-08
-2.55244e-08
5.18767e-27
-9.34542e-06
-9.34566e-05
-9.21081e-05
-0.000106482
-2.03378e-05
-2.18656e-05
-0.00024629
-0.000148114
-2.12278e-05
-2.05002e-24
6.13131e-24
-3.14361e-20
-0.171774
-1.13052
-2.34936e-15
-1.96432e-13
-8.89656e-12
-2.45842e-10
-4.11549e-09
-5.5529e-08
-9.23083e-08
-4.03608e-08
-4.32797e-27
-0.000409155
-0.00268382
-0.00237186
-0.000459323
-2.36573e-06
-2.36411e-06
-0.00292573
-0.0221328
-0.0263809
-0.0175629
-0.00608991
-0.00256696
-0.00413702
-0.00447927
-6.80502e-15
-5.48213e-13
-2.27689e-11
-5.52558e-10
-9.40619e-09
-9.74068e-08
-1.073e-07
-3.46535e-08
6.36101e-23
-0.00329751
-0.00427663
-0.00393666
-0.000366539
-2.55693e-06
-2.551e-06
-0.00507004
-0.0609816
-0.0672382
-0.0672156
-0.0672382
-0.0491965
-0.00298664
-6.14895e-06
-1.05243e-14
-8.25389e-13
-3.27782e-11
-7.50865e-10
-1.29303e-08
-1.12852e-07
-1.02313e-07
-3.32558e-08
-0.000407632
-0.00459912
-0.00459912
-0.00131496
-0.000108417
-2.80474e-06
-0.000900312
-0.00194878
-0.00657518
-0.0316851
-0.0303204
-0.0115373
-0.00221327
-0.000435586
-1.28366e-05
-1.22543e-14
-9.46663e-13
-3.67976e-11
-8.20257e-10
-1.23387e-08
-1.11156e-07
-8.18888e-08
-3.56117e-08
-0.000285269
-0.00195888
-0.00125352
-1.53354e-05
-4.74804e-05
-0.000241051
-3.01586e-08
-5.74483e-13
-5.89835e-13
-5.74483e-13
-5.89835e-13
-5.74483e-13
-5.89835e-13
-5.74483e-13
-2.93499e-07
-1.17924e-14
-8.85512e-13
-3.28539e-11
-6.80301e-10
-7.65405e-09
-6.59631e-08
-4.01893e-08
-2.55027e-06
-2.3057e-08
-2.3057e-08
-2.3057e-08
-3.13479e-08
-8.66486e-07
-6.06797e-06
-2.4949e-06
-6.69838e-07
-1.8572e-07
-5.13842e-08
-1.4331e-08
-4.14374e-09
-1.1882e-09
-2.9644e-10
-1.7421e-10
-6.80669e-15
-4.86143e-13
-1.70058e-11
-3.29345e-10
-3.62279e-09
-2.70049e-08
-1.97284e-08
-6.62562e-06
-1.28281e-06
-1.93097e-07
-2.44749e-08
-6.85599e-06
-1.0108e-05
-7.04581e-06
-3.78096e-06
-1.13681e-06
-3.20132e-07
-8.92453e-08
-2.48877e-08
-7.08745e-09
-2.05674e-09
-5.65884e-10
-2.24344e-10
-2.69786e-15
-1.88093e-13
-6.44383e-12
-1.22567e-10
-1.38383e-09
-1.04558e-08
-1.02862e-08
-5.66303e-06
-3.54181e-06
-5.93065e-07
-3.76121e-08
-2.02222e-06
-9.06022e-06
-8.81092e-06
-4.55643e-06
-1.23293e-06
-3.30967e-07
-8.86962e-08
-2.36744e-08
-6.29927e-09
-1.67879e-09
-4.29592e-10
-3.62617e-10
-8.18092e-16
-5.63078e-14
-1.91571e-12
-3.66681e-11
-4.36803e-10
-3.87785e-09
-1.25911e-08
-1.16401e-06
-8.48648e-07
-2.08813e-07
-5.00281e-08
-4.8161e-07
-1.97853e-06
-2.24011e-06
-1.6594e-06
-6.1032e-07
-1.59715e-07
-3.95872e-08
-9.67366e-09
-2.33019e-09
-5.28057e-10
-2.21278e-10
-6.60696e-10
-1.8432e-16
-1.27604e-14
-4.39857e-13
-8.76481e-12
-1.1494e-10
-1.26566e-09
-2.26601e-08
-9.62356e-10
-9.62352e-10
-6.15434e-09
-3.26411e-08
-2.57878e-07
-3.4968e-07
-3.75521e-07
-3.2248e-07
-1.53341e-07
-4.20291e-08
-1.02895e-08
-2.41855e-09
-5.37881e-10
-1.20467e-10
-1.75106e-10
-1.59242e-09
-2.93684e-17
-2.11249e-15
-7.63557e-14
-1.66142e-12
-2.49778e-11
-2.82916e-10
-6.42215e-09
-3.16051e-09
-1.00985e-09
-2.2795e-09
-2.35926e-08
-1.07871e-07
-1.04111e-07
-8.24605e-08
-5.49188e-08
-2.3027e-08
-6.85956e-09
-1.69791e-09
-3.85247e-10
-7.56081e-11
-3.5074e-11
-2.64881e-10
-2.86242e-09
-3.05083e-18
-2.42734e-16
-9.75659e-15
-2.43809e-13
-4.21164e-12
-4.97637e-11
-3.8713e-10
-2.96999e-10
-2.73232e-10
-7.44872e-10
-6.6203e-09
-1.85738e-08
-1.5363e-08
-1.11885e-08
-7.68972e-09
-3.4763e-09
-1.00109e-09
-2.30857e-10
-4.69847e-11
-8.97254e-12
-2.21611e-11
-3.60988e-10
-4.40832e-09
-1.81369e-19
-1.7941e-17
-8.70084e-16
-2.55465e-14
-4.8356e-13
-5.48288e-12
-2.34539e-11
-1.46202e-11
-2.78136e-11
-1.40553e-10
-9.54157e-10
-1.24577e-09
-8.17603e-10
-9.66581e-10
-8.97576e-10
-5.00409e-10
-1.28212e-10
-2.57562e-11
-4.29129e-12
-1.60697e-12
-2.29876e-11
-4.67543e-10
-7.42406e-09
-5.14887e-21
-7.00928e-19
-4.30927e-17
-1.44397e-15
-2.79398e-14
-2.74653e-13
-8.05337e-13
-9.25097e-13
-3.91989e-12
-1.90012e-11
-5.85894e-11
-3.19592e-11
-5.16237e-12
-6.03788e-11
-6.96511e-11
-4.01489e-11
-9.21921e-12
-1.60679e-12
-2.31542e-13
-6.5576e-13
-2.39863e-11
-6.41073e-10
-1.49561e-08
-5.75581e-23
-4.63459e-21
-1.96237e-19
-5.64823e-18
-1.28941e-16
-1.88637e-15
-1.19798e-14
-6.92302e-14
-4.03853e-13
-1.64523e-12
-2.38997e-12
-1.76511e-12
-5.6696e-13
-3.07255e-12
-3.36753e-12
-1.78443e-12
-3.58117e-13
-5.17352e-14
-1.62266e-14
-5.37687e-13
-2.65447e-11
-9.89908e-10
-2.34841e-08
-4.89118e-24
-4.25178e-22
-1.87976e-20
-5.53212e-19
-1.31075e-17
-2.09117e-16
-1.26373e-15
-5.82312e-15
-2.69129e-14
-7.06803e-14
-7.28651e-14
-7.27302e-14
-4.27223e-14
-7.09341e-15
-2.09748e-14
-1.50807e-14
-3.599e-15
-5.4259e-16
-6.73423e-15
-5.52121e-13
-3.42447e-11
-1.25594e-09
-2.75436e-08
-2.05469e-25
-1.84155e-23
-7.86598e-22
-2.02795e-20
-3.56906e-19
-4.37391e-18
-3.97294e-17
-2.55547e-16
-1.18125e-15
-2.93746e-15
-3.98822e-15
-5.01432e-15
-2.76713e-15
-4.54871e-16
-4.82283e-17
-3.71041e-18
-2.01995e-18
-7.29999e-17
-5.65254e-15
-5.8633e-13
-3.82637e-11
-1.29599e-09
-2.25625e-08
-1.07032e-30
-6.51304e-29
-1.84102e-27
-3.0369e-26
-3.09785e-25
-9.85001e-25
-1.3209e-24
-1.30792e-23
-7.11339e-23
-2.64463e-22
-5.72516e-22
-6.13364e-22
-4.13019e-22
-1.77836e-22
-3.97037e-22
-1.9976e-20
-1.02041e-18
-4.68789e-17
-3.54451e-15
-4.28826e-13
-2.81467e-11
-6.50194e-10
-7.44571e-09
-9.27573e-35
-7.55341e-33
-3.06739e-31
-8.19781e-30
-1.71919e-28
-3.38151e-27
-1.35017e-25
-2.76488e-24
-2.2087e-23
-9.47128e-23
-1.76651e-22
-1.84112e-22
-7.78202e-23
-1.36314e-23
-1.59379e-22
-1.13027e-20
-6.09827e-19
-2.62791e-17
-1.27373e-15
-1.14037e-13
-7.05905e-12
-1.42073e-10
-1.36451e-09
-6.05472e-38
-4.74717e-36
-1.78719e-34
-4.16843e-33
-6.7932e-32
-8.01086e-31
-7.18032e-30
-4.84262e-29
-2.56733e-28
-1.10037e-27
-4.49832e-27
-5.15514e-26
-1.80403e-26
-6.89852e-25
-7.11886e-23
-5.61579e-21
-3.24475e-19
-1.38065e-17
-4.55091e-16
-1.35159e-14
-3.73589e-13
-9.50043e-12
-2.53693e-10
-2.07333e-43
-2.07908e-41
-1.02433e-39
-3.22092e-38
-7.32297e-37
-1.26109e-35
-1.73328e-34
-1.91438e-33
-1.75046e-32
-1.30742e-31
-8.25717e-31
-1.17195e-29
-1.54293e-27
-2.33522e-25
-2.73029e-23
-2.37365e-21
-1.48274e-19
-6.68611e-18
-2.35084e-16
-7.79386e-15
-2.71885e-13
-8.39805e-12
-2.4967e-10
-8.01799e-47
-8.60786e-45
-4.55892e-43
-1.56019e-41
-3.92948e-40
-7.73531e-39
-1.26224e-37
-1.73028e-36
-2.02849e-35
-2.14021e-34
-7.39107e-33
-1.60868e-30
-3.57834e-28
-6.39426e-26
-8.54414e-24
-8.28942e-22
-5.60936e-20
-2.64842e-18
-8.4862e-17
-1.91016e-15
-3.32976e-14
-5.03701e-13
-7.10067e-12
-3.83373e-53
-5.01961e-51
-3.61915e-49
-1.88287e-47
-7.75712e-46
-2.55889e-44
-6.90508e-43
-2.18959e-41
-4.20296e-39
-1.80669e-36
-7.02943e-34
-2.3634e-31
-6.30069e-29
-1.35344e-26
-2.08483e-24
-2.33141e-22
-1.72689e-20
-8.24494e-19
-2.63e-17
-6.25074e-16
-1.23822e-14
-2.41781e-13
-5.45104e-12
-2.55568e-58
-5.4356e-56
-5.97973e-54
-4.41393e-52
-2.48634e-50
-1.57951e-48
-4.62004e-46
-3.05643e-43
-1.94802e-40
-1.09456e-37
-5.36653e-35
-2.23228e-32
-7.38523e-30
-1.93475e-27
-3.5136e-25
-4.49548e-23
-3.51977e-21
-1.69014e-19
-5.5547e-18
-1.38476e-16
-3.06513e-15
-8.31904e-14
-3.10318e-12
-1.82855e-62
-5.54347e-60
-8.47421e-58
-8.73855e-56
-9.47895e-54
-4.09871e-51
-3.97568e-48
-3.82183e-45
-3.3451e-42
-2.60846e-39
-1.79643e-36
-1.01928e-33
-4.73698e-31
-1.5944e-28
-3.90704e-26
-5.83167e-24
-4.88233e-22
-2.48544e-20
-8.76842e-19
-2.29323e-17
-4.63913e-16
-7.49429e-15
-9.91258e-14
-5.72136e-67
-2.51305e-64
-6.09313e-62
-1.47402e-59
-9.90161e-57
-1.38018e-53
-1.96785e-50
-2.61802e-47
-3.20903e-44
-3.50643e-41
-3.34417e-38
-2.55876e-35
-1.54677e-32
-6.62365e-30
-2.03722e-27
-3.74689e-25
-3.66992e-23
-2.13498e-21
-8.55166e-20
-2.53604e-18
-5.80105e-17
-1.05011e-15
-1.51803e-14
-1.04019e-70
-5.67199e-68
-1.76715e-65
-6.06239e-63
-5.87955e-60
-1.07698e-56
-2.15744e-53
-4.12735e-50
-7.37707e-47
-1.21605e-43
-1.6827e-40
-2.0036e-37
-1.86048e-34
-1.26765e-31
-5.9614e-29
-1.55541e-26
-1.91693e-24
-1.32399e-22
-6.11218e-21
-2.05094e-19
-5.27057e-18
-1.06925e-16
-1.73627e-15
-6.02728e-75
-4.61521e-72
-2.05788e-69
-9.55734e-67
-1.1663e-63
-3.06902e-60
-9.03532e-57
-2.72193e-53
-7.35346e-50
-1.81201e-46
-3.7875e-43
-6.93739e-40
-9.10337e-37
-9.39522e-34
-5.97963e-31
-2.39071e-28
-4.5169e-26
-4.25333e-24
-2.51197e-22
-1.03367e-20
-3.15922e-19
-7.47288e-18
-1.40021e-16
-2.16227e-79
-2.31794e-76
-1.45928e-73
-8.65443e-71
-1.15651e-67
-3.9923e-64
-1.67712e-60
-7.28104e-57
-2.93632e-53
-1.10273e-49
-3.62594e-46
-1.0037e-42
-2.10456e-39
-3.59804e-36
-3.66585e-33
-2.45443e-30
-6.95211e-28
-9.03126e-26
-7.02008e-24
-3.6584e-22
-1.36924e-20
-3.85704e-19
-8.45398e-18
-1.98026e-84
-3.37264e-81
-3.3142e-78
-2.66001e-75
-3.02761e-72
-1.19897e-68
-7.67607e-65
-5.08292e-61
-3.40076e-57
-1.96796e-53
-1.0094e-49
-4.30059e-46
-1.55626e-42
-4.18036e-39
-6.99653e-36
-7.74776e-33
-3.85138e-30
-8.08563e-28
-9.30239e-26
-6.79088e-24
-3.40702e-22
-1.23568e-20
-3.3685e-19
-1.2064e-89
-3.18347e-86
-4.86655e-83
-5.82848e-80
-8.08612e-77
-3.63518e-73
-3.29622e-69
-3.16774e-65
-3.05858e-61
-2.59524e-57
-2.10479e-53
-1.45787e-49
-8.95597e-46
-4.448e-42
-1.20703e-38
-2.27858e-35
-1.58482e-32
-4.69924e-30
-7.81111e-28
-8.16646e-26
-5.72732e-24
-2.80498e-22
-9.92379e-21
-1.22149e-95
-6.10854e-92
-1.67232e-88
-3.31243e-85
-6.3543e-82
-3.28218e-78
-4.35457e-74
-6.7464e-70
-1.11382e-65
-1.62836e-61
-2.2464e-57
-2.78856e-53
-2.6324e-49
-2.21533e-45
-9.33753e-42
-2.09241e-38
-1.95939e-35
-8.5753e-33
-2.19248e-30
-3.56811e-28
-3.87113e-26
-2.86449e-24
-1.47579e-22
-1.18991e-101
-1.14687e-97
-6.83257e-94
-7.5811e-90
-1.43645e-84
-1.25523e-79
-2.81583e-75
-2.74642e-71
-2.09346e-67
-2.83119e-63
-6.1494e-59
-1.04858e-54
-7.00411e-51
-2.20462e-47
-4.03533e-44
-4.27583e-41
-2.89198e-38
-1.2926e-35
-4.01482e-33
-8.89055e-31
-1.41889e-28
-1.61709e-26
-1.29941e-24
-2.91707e-104
-6.58717e-99
-4.08052e-94
-1.16527e-89
-1.26953e-84
-1.87039e-79
-5.52972e-75
-6.391e-71
-3.90399e-67
-1.40157e-63
-4.06058e-60
-8.60225e-57
-1.38645e-53
-1.73162e-50
-1.72613e-47
-1.37597e-44
-8.73416e-42
-4.35089e-39
-1.68777e-36
-5.06822e-34
-1.18071e-31
-2.10842e-29
-2.83059e-27
-8.54699e-104
-2.76017e-98
-1.92889e-93
-5.22236e-89
-7.15808e-85
-6.5189e-81
-3.96411e-77
-1.68214e-73
-5.26934e-70
-1.2676e-66
-2.41127e-63
-3.70591e-60
-4.68316e-57
-4.92488e-54
-4.35877e-51
-3.26862e-48
-2.07726e-45
-1.11297e-42
-4.9743e-40
-1.83492e-37
-5.5593e-35
-1.3825e-32
-2.80011e-30
-532.167
-532.95
-533.467
-364.577
-657.055
-657.75
-658.662
-652.083
-783.677
-783.342
-783.663
-783.61
-909.051
-909.051
-909.051
-909.05
-904.983
-959.334
-1017.95
-1034.25
-168.385
-230.379
-297.295
-375.02
-3.85929
-4.76154
-6.19339
-8.4495
-1.70424
-1.4031
-0.752495
-0.318098
-0.00314529
-0.00392505
-0.0038579
-0.00326581
-3.32333e-06
-4.01921e-06
-5.42231e-06
-4.7179e-06
-1.22983e-06
-2.12335e-06
-2.76629e-06
-1.00383e-06
-4.2893e-07
-4.13096e-07
-3.20684e-07
-1.51989e-07
-1.74164e-10
-7.87716e-10
-3.01609e-09
-6.28272e-09
-2.1145e-10
-2.16333e-10
-2.71048e-10
-5.15017e-10
-4.46901e-10
-6.76671e-10
-1.21124e-09
-2.46906e-09
-1.43556e-09
-2.55818e-09
-4.96731e-09
-1.06363e-08
-3.86415e-09
-7.28579e-09
-1.65634e-08
-4.16229e-08
-7.35594e-09
-1.64866e-08
-5.49717e-08
-1.70963e-07
-1.3507e-08
-4.49578e-08
-2.1855e-07
-3.43069e-07
-3.14308e-08
-1.55029e-07
-5.51569e-07
-3.9671e-07
-8.17277e-08
-3.35911e-07
-7.45209e-07
-4.32897e-07
-1.33101e-07
-4.25732e-07
-7.75926e-07
-3.07217e-07
-1.57274e-07
-3.74938e-07
-4.46001e-07
-1.94161e-07
-1.11293e-07
-1.2436e-07
-1.11728e-07
-1.11727e-07
-2.76472e-08
-3.37571e-08
-6.36107e-08
-2.53465e-07
-5.65809e-09
-2.65562e-08
-1.42273e-07
-6.96926e-07
-4.65251e-09
-4.7171e-08
-2.81656e-07
-1.00947e-06
-4.75095e-09
-4.87581e-08
-3.0523e-07
-4.87743e-07
-6.85311e-11
-4.28295e-10
-2.51001e-09
-1.53023e-08
-9.77216e-11
-1.13745e-09
-1.14045e-08
-8.73761e-08
-8.506e-11
-1.25347e-09
-1.39815e-08
-1.20021e-07
-8.41174e-13
-4.58509e-12
-1.66275e-11
-2.07269e-11
-1.34018e-13
-7.12877e-13
-3.30085e-12
-1.41507e-11
-1.71939e-14
-1.02067e-13
-5.24763e-13
-2.42548e-12
-1.58638e-15
-1.07257e-14
-6.31711e-14
-3.36013e-13
-1.10678e-16
-8.58933e-16
-5.82038e-15
-3.55451e-14
-5.32743e-18
-4.94322e-17
-4.00995e-16
-2.92361e-15
-1.95664e-19
-2.22546e-18
-2.2019e-17
-1.93987e-16
-4.02246e-21
-6.17705e-20
-8.1697e-19
-9.49084e-18
-5.37859e-23
-1.21948e-21
-2.32495e-20
-3.77211e-19
-2.03977e-25
-8.08223e-24
-2.7097e-22
-7.65847e-21
-3.35808e-28
-2.26627e-26
-1.33344e-24
-6.78383e-23
-1.96887e-13
-1.96875e-13
-1.96887e-13
-6.86873e-07
-8.69899e-07
-7.73508e-07
-4.08774e-07
-5.15282e-07
-9.07419e-08
-2.62219e-08
-5.25619e-09
-1.48522e-09
-5.40428e-10
-5.8673e-11
-4.23297e-12
-1.53163e-13
-4.13165e-15
-7.98239e-17
-8.30523e-19
-511.844
-302.245
-53.5063
-5.22167e-07
-5.22163e-07
-5.22167e-07
-7.91045e-07
-1.37461e-06
-4.84678e-07
-3.10734e-07
-6.71791e-08
-1.5482e-08
-1.99477e-08
-1.54416e-09
-1.50069e-10
-8.89454e-12
-3.93063e-13
-1.152e-14
-1.63438e-16
-781.228
-765.476
-681.131
-573.631
-371.533
-66.8029
-5.77003e-07
-5.76804e-07
-5.76803e-07
-1.97664e-05
-2.37431e-07
-1.27542e-07
-1.66179e-06
-2.42763e-08
-2.24357e-09
-2.24155e-10
-2.17797e-11
-1.14984e-12
-1.92961e-14
-909.049
-908.988
-908.297
-906.416
-887.084
-814.01
-720.584
-479.92
-101.247
-0.872621
-2.75352e-07
-0.000636083
-3.2478e-05
-1.29479e-07
-4.31646e-08
-3.96709e-09
-1.87677e-09
-2.14331e-10
-2.61483e-12
-1034.25
-1034.25
-1034.25
-1034.25
-1034.25
-1033.85
-1032.01
-1016.87
-960.321
-778.205
-284.704
-16.8905
-3.69506e-05
-0.000318442
-0.000713604
-0.000126331
-9.48212e-06
-7.65853e-08
-9.22117e-10
-540.49
-691.016
-811.487
-956.875
-1107.27
-1158.85
-1159.44
-1159.44
-1159.44
-1159.44
-1123.45
-857.268
-229.679
-12.1713
-0.699768
-0.0480643
-0.00174329
-8.80266e-06
-1.18357e-08
-15.3105
-35.6645
-69.8951
-121.462
-184.804
-249.378
-364.908
-698.383
-1153.75
-1278.68
-1284.58
-1284.58
-1155.11
-488.474
-34.9394
-1.46344
-0.03279
-4.49325e-05
-1.31139e-08
-0.121955
-0.0803065
-0.12476
-0.312665
-0.861051
-2.47309
-6.80914
-17.9208
-48.8496
-215.728
-866.436
-1353.24
-1363.04
-1280.95
-540.787
-32.1568
-0.450845
-0.000826466
-2.18183e-08
-0.00170705
-0.000576314
-0.000199291
-8.49402e-05
-0.000317625
-0.000389831
-2.5361e-05
-5.62359e-07
-5.62355e-07
-5.62359e-07
-8.33412
-359.674
-1294.52
-1416.31
-1257.58
-345.511
-9.51974
-0.0162465
-2.85854e-06
-4.18833e-05
-0.00024043
-0.000189586
-2.09721e-05
-3.99815e-06
-3.61711e-06
-2.5203e-06
-6.06277e-07
-0.000451761
-0.00456622
-0.0137503
-0.000115228
-368.603
-1412.83
-1504.33
-963.034
-88.1902
-0.884742
-0.000549689
-1.61361e-08
-0.000140923
-0.000195878
-9.05386e-05
-4.82262e-06
-9.82116e-07
-6.52029e-07
-6.52023e-07
-0.000184042
-0.00195515
-0.00141452
-0.000123918
-1.78883e-07
-784.295
-1617.69
-1458.18
-486.112
-14.0091
-0.00660042
-1.72676e-08
-9.0423e-09
-9.04222e-09
-9.94182e-09
-1.6015e-07
-4.93608e-07
-6.95234e-07
-1.34849e-06
-8.88392e-06
-2.04352e-05
-7.05927e-05
-4.29367e-05
-1.91427e-07
-267.641
-1494.56
-1658
-1082.57
-73.0771
-0.0452276
-1.32419e-08
-1.68755e-07
-1.1811e-06
-2.79132e-06
-2.33144e-06
-1.9434e-06
-2.69881e-06
-3.40313e-06
-3.25971e-06
-2.01974e-06
-2.09476e-06
-3.6001e-06
-2.0397e-07
-31.1059
-1280.85
-1767.04
-1234.21
-105.83
-0.0999465
-1.23598e-09
-1.23598e-09
-8.56184e-07
-1.22743e-05
-2.87481e-05
-2.46406e-05
-1.13249e-05
-3.19252e-06
-1.84926e-06
-1.84889e-06
-1.84842e-06
-2.18389e-06
-7.09419e-07
-2.16514e-07
-920.991
-1875.29
-1220.95
-86.3269
-0.0874584
-1.1556e-08
-1.58905e-08
-1.58905e-08
-5.70693e-06
-4.28514e-05
-5.12741e-05
-2.7607e-05
-1.9555e-06
-1.956e-06
-4.03625e-05
-0.000106585
-5.01766e-05
-2.03419e-06
-2.29057e-07
-779.395
-1858.1
-997.543
-44.7156
-0.0507492
-5.13351e-08
-5.23001e-08
-6.45113e-08
-1.02825e-08
-1.02825e-08
-1.02825e-08
-1.02825e-08
-0.000474548
-0.00150417
-0.00150681
-0.000663613
-1.18363e-05
-2.416e-07
-5.96822
-1286.61
-1207.29
-301.121
-11.0387
-0.0240648
-1.11057e-07
-6.22244e-08
-6.06481e-07
-4.49532e-07
-1.05226e-07
-1.08163e-08
-0.000603747
-0.00165901
-0.00166077
-0.00144225
-0.000279845
-3.92425e-06
-2.54144e-07
-574.507
-1747.73
-1252.01
-136.097
-1.09989
-0.00957759
-1.73851e-07
-5.25544e-09
-7.41205e-05
-9.79761e-05
-0.000194271
-0.000373846
-0.000601355
-0.00122081
-0.00115744
-0.000698921
-5.59061e-05
-2.66687e-07
-76.5006
-1541.72
-1833.97
-1516.92
-211.863
-0.590711
-0.00398255
-2.17845e-07
-6.62613e-09
-0.00186486
-0.00832817
-0.0440883
-0.00724832
-0.00269023
-0.00582203
-0.00582201
-0.00107792
-1.37488e-05
-2.79231e-07
-89.6672
-1521.15
-1920.25
-1297.17
-110.136
-0.196692
-0.00185715
-8.51998e-08
-0.0121163
-0.00835665
-0.123527
-0.459177
-0.282819
-0.036782
-0.00283886
-0.00181989
-0.00034028
-2.91774e-07
-2.91774e-07
-75.6611
-515.039
-651.809
-352.303
-37.6326
-0.101537
-0.000654992
-8.88286e-08
-0.0396446
-0.0335218
-0.478917
-0.478917
-0.478917
-0.00693521
-8.51688e-07
-8.35337e-07
-8.51688e-07
-0.0129197
-4.82635
-11.9055
-9.15195
-6.55057
-4.77854
-5.09079
-0.608915
-3.21693e-12
-9.25253e-08
-0.0448771
-0.059762
-0.498658
-0.498658
-0.498658
-0.192664
-0.363549
-0.424972
-0.445218
-1.1274
-2.03395
-0.697778
-0.0993412
-0.0118742
-0.00750322
-0.123733
-0.326246
-3.3442e-12
-9.61513e-08
-0.0119816
-0.0258912
-0.415974
-0.518398
-0.461511
-0.0799304
-0.190509
-0.194154
-0.17174
-0.0900189
-0.000940206
-0.000264015
-2.18663e-05
-3.14975e-06
-1.44584e-05
-0.000776245
-0.00547334
-3.47647e-12
-0.000163136
-0.00874976
-0.0117793
-0.177034
-0.410322
-0.111153
-2.92951e-06
-0.00312649
-0.00669021
-0.0109283
-0.0131027
-8.08099e-09
-8.08096e-09
-8.81015e-08
-8.94827e-08
-2.37312e-07
-1.94714e-06
-4.45099e-06
-3.60867e-12
-0.000133646
-0.0504884
-0.102716
-0.0019215
-0.0300264
-0.00382011
-3.03858e-06
-5.45181e-06
-0.00756957
-0.0579084
-0.0558515
-8.37739e-09
-1.03784e-08
-5.94883e-08
-5.77975e-08
-6.78856e-08
-1.02029e-07
-7.0134e-08
-3.73478e-12
-0.000166816
-0.0478879
-0.106351
-2.33358e-05
-2.3336e-05
-9.85296e-06
-3.105e-05
-5.94097e-07
-1.38737e-08
-1.38728e-08
-1.38737e-08
-0.140011
-8.67382e-09
-3.65818e-08
-4.37228e-08
-3.48663e-08
-4.20431e-08
-4.49914e-08
-3.8668e-12
-0.000108367
-0.00714304
-0.0883021
-0.0319134
-0.000263663
-3.34006e-06
-3.60326e-06
-3.42242e-07
-259.733
-765.144
-264.228
-12.728
-8.97084e-09
-2.12974e-08
-3.34325e-08
-2.32427e-08
-1.6763e-08
-1.55008e-08
-3.99873e-12
-5.0924e-08
-5.078e-08
-2.14032e-06
-0.0766447
-0.00679058
-3.7768e-07
-3.7768e-07
-198.397
-1598.69
-1860.15
-1331.37
-127.088
-0.090986
-3.68671e-09
-1.88031e-08
-1.57095e-08
-8.41256e-09
-3.18746e-09
-3.4701e-12
-9.05837e-08
-7.72821e-07
-5.26081e-05
-0.0451351
-0.0937576
-0.0202277
-3.89762e-07
-213.179
-1860.35
-1919.5
-1506.77
-128.044
-0.0853082
-3.84564e-09
-1.0899e-08
-7.80258e-09
-3.77459e-09
-4.59298e-10
-1.71697e-12
-6.87574e-07
-4.21212e-06
-0.000183797
-0.0737669
-0.15264
-0.0278208
-4.01843e-07
-82.424
-727.055
-1196.65
-628.765
-45.8612
-0.0377915
-9.80343e-10
-6.02876e-09
-3.33555e-09
-1.22994e-09
-4.97439e-11
-4.8778e-13
-1.23924e-06
-6.37693e-06
-7.09365e-06
-6.06031e-07
-0.00245288
-0.124971
-0.938189
-6.56885
-14.7931
-32.1314
-14.0578
-8.92737
-7.33294e-05
-1.00981e-09
-3.22859e-09
-1.27343e-09
-3.02338e-10
-4.50754e-12
-1.23091e-13
-2.07292e-11
-2.07325e-11
-2.111e-11
-6.23718e-07
-0.000701574
-0.0554406
-0.261672
-0.00199064
-0.0017624
-0.00400583
-0.00332994
-0.0320087
-2.14531e-07
-1.05082e-09
-1.41675e-09
-4.29941e-10
-6.00435e-11
-4.40933e-13
-2.91791e-14
-8.52158e-11
-4.99763e-10
-2.07097e-09
-3.38164e-09
-3.38168e-09
-3.38159e-09
-1.23856e-06
-6.34642e-08
-5.5912e-08
-5.59119e-08
-9.12689e-08
-1.82615e-07
-5.14545e-09
-1.47981e-09
-5.51095e-10
-1.31733e-10
-1.03419e-11
-7.38144e-14
-6.72818e-15
-1.517e-11
-1.06424e-10
-5.94558e-10
-2.52101e-09
-7.61331e-09
-1.79109e-08
-3.15643e-08
-5.1223e-08
-5.82818e-08
-5.7574e-08
-4.73051e-08
-3.50493e-08
-2.78294e-08
-2.12074e-09
-2.28705e-10
-3.964e-11
-1.79383e-12
-2.12539e-14
-1.54589e-15
-2.47519e-12
-2.0827e-11
-1.4276e-10
-7.74802e-10
-3.32087e-09
-1.10943e-08
-2.84055e-08
-5.79404e-08
-8.6564e-08
-9.64119e-08
-9.16872e-08
-7.69952e-08
-5.4615e-08
-2.25385e-09
-1.01853e-10
-1.24835e-11
-3.99922e-13
-7.22836e-15
-3.57926e-16
-3.03443e-13
-2.9558e-12
-2.35133e-11
-1.5035e-10
-7.85543e-10
-3.41167e-09
-1.24723e-08
-3.63049e-08
-7.10852e-08
-9.28843e-08
-9.78542e-08
-9.0934e-08
-5.23576e-08
-1.96473e-09
-4.50632e-11
-4.09787e-12
-1.18095e-13
-2.41822e-15
-8.31105e-17
-3.00848e-14
-3.49863e-13
-3.27473e-12
-2.43295e-11
-1.46635e-10
-7.33187e-10
-3.02642e-09
-1.01984e-08
-2.83442e-08
-5.05467e-08
-6.35504e-08
-6.38722e-08
-3.04451e-08
-1.08648e-09
-1.80491e-11
-1.30868e-12
-3.70424e-14
-7.46951e-16
-1.90493e-17
-2.41837e-15
-3.36679e-14
-3.7464e-13
-3.30273e-12
-2.32465e-11
-1.32949e-10
-5.9754e-10
-2.17789e-09
-6.44027e-09
-1.3241e-08
-1.86972e-08
-2.05386e-08
-8.75838e-09
-3.54663e-10
-6.32236e-12
-3.86088e-13
-1.07693e-14
-2.08703e-16
-4.22176e-18
-1.56044e-16
-2.77786e-15
-3.83385e-14
-4.08443e-13
-3.42599e-12
-2.15886e-11
-1.04225e-10
-4.03894e-10
-1.26881e-09
-2.86543e-09
-4.24657e-09
-4.73684e-09
-2.0309e-09
-9.75892e-11
-1.91194e-12
-1.02426e-13
-2.79763e-15
-5.24565e-17
-8.893e-19
-8.49682e-18
-1.9632e-16
-3.43267e-15
-4.53537e-14
-4.44089e-13
-3.09278e-12
-1.6055e-11
-6.56347e-11
-2.17735e-10
-5.38857e-10
-8.41161e-10
-9.64315e-10
-4.12531e-10
-2.36541e-11
-5.07044e-13
-2.44685e-14
-6.51702e-16
-1.19123e-17
-1.75919e-19
-2.97137e-19
-1.07136e-17
-2.62758e-16
-4.54228e-15
-5.19267e-14
-4.0486e-13
-2.26985e-12
-9.74182e-12
-3.37936e-11
-9.07593e-11
-1.49916e-10
-1.77067e-10
-7.58072e-11
-5.12972e-12
-1.19352e-13
-5.29698e-15
-1.37646e-16
-2.46733e-18
-3.26339e-20
-4.88227e-21
-3.28961e-19
-1.38007e-17
-3.27253e-16
-4.59705e-15
-4.1436e-14
-2.55937e-13
-1.16261e-12
-4.2171e-12
-1.21274e-11
-2.14722e-11
-2.64144e-11
-1.15362e-11
-8.89707e-13
-2.19921e-14
-9.14883e-16
-2.32134e-17
-4.08943e-19
-4.96849e-21
)
;

boundaryField
{
    leftWall
    {
        type            calculated;
        value           nonuniform List<scalar> 
50
(
-29.4294
-88.2881
-147.147
-206.006
-264.864
-323.723
-382.582
-441.44
-533.467
-658.662
-783.856
-908.926
-949.839
-292.378
-4.78543e-34
-3.38364e-16
-2.34936e-15
-6.80502e-15
-1.05243e-14
-1.22543e-14
-1.17924e-14
-6.80669e-15
-2.69786e-15
-8.18092e-16
-1.8432e-16
-2.93684e-17
-3.05083e-18
-1.81369e-19
-5.14887e-21
-5.75581e-23
-4.89118e-24
-2.05469e-25
-1.07032e-30
-9.27573e-35
-6.05472e-38
-2.07333e-43
-8.01799e-47
-3.83373e-53
-2.55568e-58
-1.82855e-62
-5.72136e-67
-1.04019e-70
-6.02728e-75
-2.16227e-79
-1.98026e-84
-1.2064e-89
-1.22149e-95
-1.18991e-101
-2.91707e-104
-8.54699e-104
)
;
    }
    rightWall
    {
        type            calculated;
        value           nonuniform List<scalar> 
50
(
-4.3362e-37
-2.68158e-34
-9.92598e-32
-2.2267e-29
-3.42595e-27
-4.2971e-25
-4.41002e-23
-4.68714e-21
-8.30523e-19
-1.63438e-16
-1.92961e-14
-2.61483e-12
-9.22117e-10
-1.18357e-08
-1.31139e-08
-2.18183e-08
-2.85854e-06
-0.000549689
-0.00660042
-0.0452276
-0.0999465
-0.0874584
-0.0507492
-0.0240648
-0.00957759
-0.00398255
-0.00185715
-0.000654992
-3.21693e-12
-3.3442e-12
-3.47647e-12
-3.60867e-12
-3.73478e-12
-3.8668e-12
-3.99873e-12
-3.4701e-12
-1.71697e-12
-4.8778e-13
-1.23091e-13
-2.91791e-14
-6.72818e-15
-1.54589e-15
-3.57926e-16
-8.31105e-17
-1.90493e-17
-4.22176e-18
-8.893e-19
-1.75919e-19
-3.26339e-20
-4.96849e-21
)
;
    }
    lowerWall
    {
        type            calculated;
        value           nonuniform List<scalar> 
62
(
0
0
0
0
0
0
0
0
0
0
0
0
0
0
0
0
0
0
0
0
0
0
0
-29.389
-88.1962
-146.817
-205.451
-264.152
-322.852
-382.212
-441.253
-469.722
-470.413
-470.87
-321.797
-1.99485e-23
-2.40536e-21
-1.68687e-19
-1.59917e-17
-1.33646e-15
-1.22363e-13
-5.26304e-12
-2.25705e-10
0
0
0
0
0
0
0
0
0
0
0
0
0
0
0
0
0
0
0
)
;
    }
    atmosphere
    {
        type            calculated;
        value           nonuniform List<scalar> 
46
(
-0
-0
-0
-0
-0
-0
-0
-0
-0
-0
-0
-0
-0
-0
-0
-0
-0
-0
-0
-0
-0
-0
-0
-0
-0
-0
-0
-0
-0
-1.39531e-17
-3.30868e-16
-4.64783e-15
-4.18938e-14
-2.58764e-13
-1.17545e-12
-4.26368e-12
-1.22614e-11
-2.17094e-11
-2.67062e-11
-1.16637e-11
-8.99536e-13