/*--------------------------------*- C++ -*----------------------------------*\
| =========                 |                                                 |
| \\      /  F ield         | OpenFOAM: The Open Source CFD Toolbox           |
|  \\    /   O peration     | Version:  2012                                  |
|   \\  /    A nd           | Website:  www.openfoam.com                      |
|    \\/     M anipulation  |                                                 |
\*---------------------------------------------------------------------------*/
FoamFile
{
    version     2.0;
    format      ascii;
    class       volVectorField;
    location    "0.32";
    object      Uc;
}
// * * * * * * * * * * * * * * * * * * * * * * * * * * * * * * * * * * * * * //

dimensions      [0 1 -1 0 0 0 0];


internalField   nonuniform List<vector> 
2268
(
(0.0229062 -0.0108253 0)
(0.068579 -0.0107593 0)
(0.11366 -0.0105457 0)
(0.158773 -0.0107744 0)
(0.203861 -0.0105336 0)
(0.247699 -0.010184 0)
(0.290008 -0.0098109 0)
(0.331657 -0.00987206 0)
(0.371456 -0.00893686 0)
(0.40903 -0.00882022 0)
(0.444284 -0.00784072 0)
(0.473682 -0.00605248 0)
(0.498317 -0.00558961 0)
(0.519473 -0.0044087 0)
(0.533408 -0.0021769 0)
(0.535995 0.000954082 0)
(0.526058 0.00374209 0)
(0.502791 0.00725382 0)
(0.463448 0.0113392 0)
(0.40328 0.0170954 0)
(0.320767 0.0218996 0)
(0.212396 0.0293154 0)
(0.0751823 0.0355285 0)
(0.0228804 -0.0324637 0)
(0.0685802 -0.0323029 0)
(0.113751 -0.0316547 0)
(0.158894 -0.0323195 0)
(0.204001 -0.0316138 0)
(0.247916 -0.0305754 0)
(0.290343 -0.0294648 0)
(0.332059 -0.0296161 0)
(0.371931 -0.0268449 0)
(0.409735 -0.0265354 0)
(0.445167 -0.0235312 0)
(0.475038 -0.0183721 0)
(0.500543 -0.0169655 0)
(0.521046 -0.0127206 0)
(0.533909 -0.00652981 0)
(0.537542 0.0023672 0)
(0.528804 0.0111547 0)
(0.505365 0.021914 0)
(0.464622 0.0345267 0)
(0.401096 0.0523644 0)
(0.312084 0.0676921 0)
(0.19472 0.0902035 0)
(0.0639562 0.101281 0)
(0.0228744 -0.0540871 0)
(0.0686654 -0.0539174 0)
(0.113979 -0.0528027 0)
(0.159156 -0.0538554 0)
(0.204319 -0.052739 0)
(0.248404 -0.0510384 0)
(0.291067 -0.0492149 0)
(0.332948 -0.0493735 0)
(0.373002 -0.04486 0)
(0.411207 -0.0444418 0)
(0.446951 -0.039262 0)
(0.477564 -0.0312257 0)
(0.504122 -0.0287165 0)
(0.524888 -0.0204725 0)
(0.538307 -0.011199 0)
(0.544259 0.00250672 0)
(0.538806 0.0177216 0)
(0.51906 0.0357557 0)
(0.483545 0.0567235 0)
(0.427099 0.0868651 0)
(0.345499 0.113821 0)
(0.229081 0.154558 0)
(0.0798574 0.169241 0)
(0.0228823 -0.0757114 0)
(0.0687743 -0.0756218 0)
(0.114221 -0.0739915 0)
(0.159404 -0.0753698 0)
(0.204595 -0.073925 0)
(0.248894 -0.0716216 0)
(0.291917 -0.0691268 0)
(0.334058 -0.0691695 0)
(0.374376 -0.0630477 0)
(0.413062 -0.0625921 0)
(0.44919 -0.0550779 0)
(0.480592 -0.0447176 0)
(0.508171 -0.0408095 0)
(0.529621 -0.0283306 0)
(0.543531 -0.0162565 0)
(0.549256 0.00204578 0)
(0.543802 0.0233367 0)
(0.523841 0.0489055 0)
(0.486643 0.0779372 0)
(0.427693 0.120187 0)
(0.344042 0.158595 0)
(0.227374 0.219939 0)
(0.0791982 0.244401 0)
(0.0229244 -0.0973593 0)
(0.0689807 -0.0974279 0)
(0.114633 -0.0952383 0)
(0.159906 -0.0968715 0)
(0.20519 -0.0951811 0)
(0.249768 -0.0923681 0)
(0.293248 -0.0892613 0)
(0.335736 -0.0890298 0)
(0.376451 -0.081483 0)
(0.41579 -0.0810305 0)
(0.452438 -0.0710332 0)
(0.485028 -0.0590044 0)
(0.514209 -0.0533469 0)
(0.53722 -0.0368054 0)
(0.553325 -0.0219662 0)
(0.562235 0.000839099 0)
(0.561736 0.0273565 0)
(0.548658 0.0604994 0)
(0.519802 0.0975595 0)
(0.469353 0.152266 0)
(0.392133 0.202542 0)
(0.274028 0.286943 0)
(0.100612 0.329369 0)
(0.0229504 -0.119039 0)
(0.0691186 -0.119332 0)
(0.114939 -0.116563 0)
(0.160315 -0.118387 0)
(0.205701 -0.116516 0)
(0.250547 -0.113295 0)
(0.294498 -0.109655 0)
(0.337387 -0.108985 0)
(0.378602 -0.100247 0)
(0.418614 -0.099767 0)
(0.455824 -0.0872018 0)
(0.489755 -0.0742732 0)
(0.520597 -0.0664444 0)
(0.544727 -0.0459863 0)
(0.562439 -0.028767 0)
(0.572506 -0.00132855 0)
(0.572348 0.0298343 0)
(0.559059 0.0704827 0)
(0.529217 0.115316 0)
(0.477094 0.182984 0)
(0.398357 0.245527 0)
(0.276895 0.357175 0)
(0.100545 0.424425 0)
(0.023031 -0.14077 0)
(0.069408 -0.141338 0)
(0.115493 -0.137991 0)
(0.161097 -0.139956 0)
(0.206718 -0.137956 0)
(0.251927 -0.134413 0)
(0.296429 -0.130338 0)
(0.33983 -0.12908 0)
(0.381684 -0.11941 0)
(0.422428 -0.118769 0)
(0.460311 -0.103688 0)
(0.496033 -0.0907046 0)
(0.528919 -0.0801303 0)
(0.555451 -0.0562429 0)
(0.576359 -0.0367625 0)
(0.590081 -0.00457543 0)
(0.595436 0.0306248 0)
(0.590376 0.0783637 0)
(0.571905 0.130267 0)
(0.533031 0.211037 0)
(0.468016 0.28541 0)
(0.351033 0.429978 0)
(0.136393 0.536393 0)
(0.0230847 -0.162564 0)
(0.0695415 -0.163417 0)
(0.115796 -0.159552 0)
(0.161635 -0.161611 0)
(0.20745 -0.159513 0)
(0.252959 -0.155729 0)
(0.297943 -0.151313 0)
(0.341947 -0.149412 0)
(0.384721 -0.139073 0)
(0.426244 -0.137985 0)
(0.465003 -0.120693 0)
(0.502712 -0.108402 0)
(0.537467 -0.094399 0)
(0.565861 -0.0679319 0)
(0.589132 -0.0459528 0)
(0.604519 -0.00914136 0)
(0.611813 0.0292128 0)
(0.608353 0.0838017 0)
(0.592022 0.141276 0)
(0.555109 0.235845 0)
(0.489819 0.322184 0)
(0.371459 0.504425 0)
(0.146088 0.669889 0)
(-0.0487003 0.0151743 0)
(-0.142416 0.0136082 0)
(-0.226107 0.0109132 0)
(-0.291103 0.00566157 0)
(-0.331073 0.000274962 0)
(-0.351291 -0.00273254 0)
(-0.356228 -0.0062163 0)
(-0.348628 -0.00805624 0)
(-0.336194 -0.00826358 0)
(-0.316834 -0.0109945 0)
(-0.289946 -0.0114578 0)
(-0.258918 -0.0127488 0)
(-0.222966 -0.0135473 0)
(-0.185175 -0.0135274 0)
(-0.14737 -0.0135502 0)
(-0.11056 -0.0131023 0)
(-0.0760713 -0.0125618 0)
(-0.0441781 -0.011998 0)
(-0.014447 -0.0116419 0)
(-0.056363 0.0487825 0)
(-0.160121 0.0418371 0)
(-0.24529 0.032356 0)
(-0.30376 0.0145926 0)
(-0.334329 -0.000781702 0)
(-0.350218 -0.00843204 0)
(-0.354843 -0.0185467 0)
(-0.348353 -0.0237987 0)
(-0.337541 -0.0244707 0)
(-0.318869 -0.03301 0)
(-0.291457 -0.0345698 0)
(-0.259753 -0.0383375 0)
(-0.223368 -0.0407351 0)
(-0.185256 -0.0406248 0)
(-0.14707 -0.0407698 0)
(-0.109728 -0.0394138 0)
(-0.0749643 -0.0376953 0)
(-0.0432847 -0.0358928 0)
(-0.014119 -0.0347862 0)
(-0.0555641 0.0853109 0)
(-0.153523 0.068952 0)
(-0.234047 0.053567 0)
(-0.300558 0.0244014 0)
(-0.343075 -0.00163178 0)
(-0.363829 -0.014109 0)
(-0.366873 -0.0317039 0)
(-0.355379 -0.0403698 0)
(-0.340807 -0.0407581 0)
(-0.320596 -0.0553059 0)
(-0.292948 -0.057724 0)
(-0.261623 -0.0640093 0)
(-0.224786 -0.0682154 0)
(-0.185776 -0.0679473 0)
(-0.147057 -0.0681522 0)
(-0.109769 -0.0657653 0)
(-0.0752649 -0.0627952 0)
(-0.0435465 -0.0597468 0)
(-0.0141792 -0.0578164 0)
(-0.0624755 0.12444 0)
(-0.17525 0.0973029 0)
(-0.266757 0.0762399 0)
(-0.325823 0.0330035 0)
(-0.349207 -0.00433014 0)
(-0.359972 -0.0201157 0)
(-0.362008 -0.0456306 0)
(-0.353612 -0.0569808 0)
(-0.344243 -0.0563896 0)
(-0.326212 -0.0779837 0)
(-0.296518 -0.0814652 0)
(-0.262741 -0.0899746 0)
(-0.224629 -0.0961351 0)
(-0.184933 -0.0955029 0)
(-0.145518 -0.0958229 0)
(-0.107184 -0.0922496 0)
(-0.072231 -0.0878417 0)
(-0.0411691 -0.0833906 0)
(-0.0133078 -0.0805013 0)
(-0.0627342 0.166621 0)
(-0.172307 0.127545 0)
(-0.261549 0.100733 0)
(-0.331939 0.0414385 0)
(-0.371691 -0.00803533 0)
(-0.389188 -0.0264984 0)
(-0.387015 -0.0613979 0)
(-0.367575 -0.0751289 0)
(-0.349846 -0.0718249 0)
(-0.329021 -0.101117 0)
(-0.299856 -0.105394 0)
(-0.267729 -0.116091 0)
(-0.228841 -0.124774 0)
(-0.186946 -0.123565 0)
(-0.146056 -0.123909 0)
(-0.107205 -0.118982 0)
(-0.0721532 -0.112873 0)
(-0.0410096 -0.106805 0)
(-0.0131803 -0.102761 0)
(-0.0769972 0.21498 0)
(-0.209808 0.160135 0)
(-0.31088 0.12695 0)
(-0.371093 0.0486396 0)
(-0.384039 -0.0149438 0)
(-0.383817 -0.0343482 0)
(-0.379035 -0.0785952 0)
(-0.366965 -0.0934067 0)
(-0.359996 -0.0861067 0)
(-0.341951 -0.125406 0)
(-0.306366 -0.13067 0)
(-0.268139 -0.142752 0)
(-0.226887 -0.154201 0)
(-0.184383 -0.152029 0)
(-0.142833 -0.152499 0)
(-0.102676 -0.145983 0)
(-0.067317 -0.137806 0)
(-0.037351 -0.129849 0)
(-0.0118328 -0.124393 0)
(-0.0776178 0.269673 0)
(-0.210613 0.196359 0)
(-0.316269 0.156519 0)
(-0.393173 0.0552633 0)
(-0.426406 -0.0240433 0)
(-0.435429 -0.0436079 0)
(-0.420725 -0.0997088 0)
(-0.386377 -0.114107 0)
(-0.365232 -0.0994158 0)
(-0.344804 -0.150496 0)
(-0.312467 -0.15649 0)
(-0.278336 -0.169715 0)
(-0.235527 -0.18499 0)
(-0.188242 -0.181422 0)
(-0.143604 -0.181752 0)
(-0.102069 -0.17346 0)
(-0.0659008 -0.162735 0)
(-0.0358513 -0.152431 0)
(-0.0111445 -0.145159 0)
(-0.104076 0.335886 0)
(-0.276164 0.237775 0)
(-0.397953 0.189715 0)
(-0.459546 0.0588522 0)
(-0.449493 -0.0398873 0)
(-0.427037 -0.0555767 0)
(-0.405327 -0.12531 0)
(-0.378857 -0.136441 0)
(-0.376918 -0.108947 0)
(-0.366948 -0.175925 0)
(-0.325613 -0.184415 0)
(-0.279734 -0.197826 0)
(-0.232489 -0.217177 0)
(-0.184738 -0.211645 0)
(-0.139101 -0.21191 0)
(-0.0955712 -0.201465 0)
(-0.0592656 -0.187538 0)
(-0.0309768 -0.174424 0)
(-0.00933656 -0.164862 0)
(0.0232728 -0.196868 0)
(0.0700248 -0.198064 0)
(0.116756 -0.193739 0)
(0.163238 -0.195812 0)
(0.209616 -0.193584 0)
(0.255868 -0.189658 0)
(0.301864 -0.18488 0)
(0.347061 -0.182074 0)
(0.391386 -0.171183 0)
(0.43434 -0.168677 0)
(0.475153 -0.149344 0)
(0.515816 -0.138447 0)
(0.552593 -0.117748 0)
(0.585485 -0.0910654 0)
(0.615475 -0.063964 0)
(0.639119 -0.0221693 0)
(0.656838 0.0209813 0)
(0.671137 0.0792943 0)
(0.681898 0.142684 0)
(0.695737 0.237971 0)
(0.714638 0.331915 0)
(0.753959 0.511103 0)
(0.804626 0.718773 0)
(0.0234367 -0.243821 0)
(0.0704174 -0.245333 0)
(0.117565 -0.240838 0)
(0.164678 -0.242795 0)
(0.211679 -0.240468 0)
(0.258773 -0.236607 0)
(0.305993 -0.231635 0)
(0.352907 -0.227911 0)
(0.399429 -0.216666 0)
(0.445013 -0.212193 0)
(0.489897 -0.191973 0)
(0.533962 -0.180989 0)
(0.574686 -0.153111 0)
(0.614088 -0.128373 0)
(0.649216 -0.0921143 0)
(0.678314 -0.0470357 0)
(0.701571 0.0046563 0)
(0.716756 0.0659811 0)
(0.724125 0.137772 0)
(0.730722 0.222339 0)
(0.745839 0.313351 0)
(0.792582 0.443153 0)
(0.890354 0.637489 0)
(0.0237561 -0.29126 0)
(0.0712895 -0.292901 0)
(0.119207 -0.288832 0)
(0.167389 -0.290594 0)
(0.215521 -0.2883 0)
(0.263992 -0.284838 0)
(0.312946 -0.28008 0)
(0.361984 -0.275918 0)
(0.410962 -0.264658 0)
(0.459519 -0.258834 0)
(0.507749 -0.238934 0)
(0.555256 -0.226078 0)
(0.602002 -0.195949 0)
(0.647676 -0.171056 0)
(0.689215 -0.126499 0)
(0.729591 -0.0824878 0)
(0.766455 -0.0203277 0)
(0.798183 0.0440654 0)
(0.826794 0.123779 0)
(0.855004 0.201342 0)
(0.888871 0.285108 0)
(0.93971 0.373304 0)
(1.02448 0.523837 0)
(0.023966 -0.339232 0)
(0.0718482 -0.340844 0)
(0.120311 -0.337773 0)
(0.16926 -0.339291 0)
(0.218149 -0.337131 0)
(0.267546 -0.334386 0)
(0.317717 -0.330175 0)
(0.3684 -0.326066 0)
(0.419779 -0.315395 0)
(0.471689 -0.309095 0)
(0.524107 -0.289861 0)
(0.577079 -0.276189 0)
(0.630396 -0.246499 0)
(0.682801 -0.219219 0)
(0.736085 -0.173816 0)
(0.78742 -0.127573 0)
(0.830991 -0.0563621 0)
(0.867526 0.0114495 0)
(0.890048 0.104965 0)
(0.901567 0.180003 0)
(0.920224 0.265736 0)
(0.954889 0.318887 0)
(1.01653 0.431075 0)
(0.0241876 -0.387733 0)
(0.072438 -0.389178 0)
(0.121499 -0.387699 0)
(0.171411 -0.389023 0)
(0.221368 -0.387122 0)
(0.272036 -0.385456 0)
(0.323815 -0.382202 0)
(0.376515 -0.378746 0)
(0.430204 -0.369297 0)
(0.484279 -0.362836 0)
(0.538366 -0.344329 0)
(0.592713 -0.330656 0)
(0.646551 -0.300637 0)
(0.701706 -0.2739 0)
(0.757592 -0.229471 0)
(0.806694 -0.173221 0)
(0.852362 -0.100345 0)
(0.893365 -0.0220945 0)
(0.917482 0.0921335 0)
(0.931847 0.167234 0)
(0.951493 0.25226 0)
(0.987412 0.273255 0)
(1.03623 0.365158 0)
(0.0240151 -0.437064 0)
(0.0719614 -0.438288 0)
(0.121067 -0.438975 0)
(0.171531 -0.440286 0)
(0.222411 -0.438781 0)
(0.274735 -0.438802 0)
(0.330023 -0.437874 0)
(0.390153 -0.437821 0)
(0.462561 -0.438272 0)
(0.545329 -0.430482 0)
(0.627658 -0.412895 0)
(0.715331 -0.406079 0)
(0.815377 -0.380914 0)
(0.921687 -0.35669 0)
(1.02122 -0.303523 0)
(1.09779 -0.225787 0)
(1.1372 -0.133112 0)
(1.11324 -0.00588773 0)
(1.03273 0.133525 0)
(0.968 0.177599 0)
(0.954219 0.237043 0)
(0.978101 0.229415 0)
(1.02562 0.313255 0)
(0.0253016 -0.487518 0)
(0.0763411 -0.489076 0)
(0.128591 -0.49175 0)
(0.182324 -0.493811 0)
(0.236302 -0.492058 0)
(0.290743 -0.494048 0)
(0.347574 -0.496307 0)
(0.409314 -0.502632 0)
(0.480223 -0.518045 0)
(0.566587 -0.518876 0)
(0.673285 -0.512652 0)
(0.80013 -0.522349 0)
(0.943337 -0.509539 0)
(1.0909 -0.483618 0)
(1.22821 -0.415016 0)
(1.34287 -0.306836 0)
(1.41602 -0.165503 0)
(1.414 0.0523603 0)
(1.32965 0.240999 0)
(1.21029 0.255571 0)
(1.11033 0.274208 0)
(1.06631 0.213814 0)
(1.08167 0.267418 0)
(0.0235745 -0.536841 0)
(0.0711981 -0.539315 0)
(0.118523 -0.541991 0)
(0.167168 -0.546869 0)
(0.218304 -0.545049 0)
(0.270838 -0.548976 0)
(0.326905 -0.555251 0)
(0.388211 -0.567759 0)
(0.453292 -0.589998 0)
(0.530412 -0.611638 0)
(0.629429 -0.627052 0)
(0.740333 -0.647309 0)
(0.851745 -0.640886 0)
(0.961132 -0.610905 0)
(1.07277 -0.538308 0)
(1.19476 -0.421727 0)
(1.32314 -0.253484 0)
(1.45036 0.0142408 0)
(1.54577 0.267779 0)
(1.5709 0.323319 0)
(1.54833 0.329482 0)
(1.52274 0.228403 0)
(1.51905 0.241197 0)
(0.023457 -0.584299 0)
(0.0701743 -0.587053 0)
(0.115591 -0.587844 0)
(0.160585 -0.595512 0)
(0.206918 -0.594757 0)
(0.25487 -0.600654 0)
(0.305375 -0.611079 0)
(0.360306 -0.629154 0)
(0.421379 -0.655797 0)
(0.490094 -0.692813 0)
(0.562458 -0.718525 0)
(0.628615 -0.734186 0)
(0.688413 -0.726466 0)
(0.752006 -0.699547 0)
(0.831984 -0.642606 0)
(0.938652 -0.547572 0)
(1.0753 -0.394331 0)
(1.25489 -0.153571 0)
(1.47102 0.122218 0)
(1.67633 0.237046 0)
(1.8335 0.280302 0)
(1.93593 0.200233 0)
(2.01136 0.197148 0)
(0.0226379 -0.630815 0)
(0.0674705 -0.632926 0)
(0.112141 -0.632891 0)
(0.156122 -0.640269 0)
(0.199807 -0.640857 0)
(0.244432 -0.647986 0)
(0.28939 -0.660083 0)
(0.33475 -0.68134 0)
(0.379706 -0.710569 0)
(0.423357 -0.751365 0)
(0.462561 -0.772491 0)
(0.494003 -0.778687 0)
(0.522648 -0.771216 0)
(0.555057 -0.751631 0)
(0.593579 -0.709952 0)
(0.644809 -0.639238 0)
(0.722831 -0.518718 0)
(0.852508 -0.34031 0)
(1.05719 -0.114251 0)
(1.30846 0.0143713 0)
(1.54383 0.108247 0)
(1.73717 0.0748732 0)
(1.90208 0.0808402 0)
(0.0205266 -0.674382 0)
(0.0613369 -0.675805 0)
(0.10236 -0.676511 0)
(0.143641 -0.682717 0)
(0.185816 -0.685082 0)
(0.229617 -0.693016 0)
(0.273677 -0.704904 0)
(0.316653 -0.725687 0)
(0.356263 -0.7516 0)
(0.388585 -0.78707 0)
(0.413719 -0.80182 0)
(0.43649 -0.804206 0)
(0.459797 -0.79826 0)
(0.482958 -0.78077 0)
(0.5071 -0.744109 0)
(0.537887 -0.687808 0)
(0.584827 -0.596019 0)
(0.666116 -0.475305 0)
(0.801732 -0.321527 0)
(0.989599 -0.219943 0)
(1.2023 -0.10798 0)
(1.40939 -0.111512 0)
(1.60353 -0.0937606 0)
(0.0207035 -0.716003 0)
(0.0620922 -0.717164 0)
(0.103681 -0.718549 0)
(0.145396 -0.724464 0)
(0.187487 -0.728399 0)
(0.230108 -0.736934 0)
(0.271372 -0.747118 0)
(0.309054 -0.764916 0)
(0.340165 -0.783824 0)
(0.363863 -0.811518 0)
(0.38413 -0.823363 0)
(0.403585 -0.825454 0)
(0.422209 -0.819494 0)
(0.440888 -0.80191 0)
(0.463546 -0.770308 0)
(0.496672 -0.726127 0)
(0.548723 -0.657453 0)
(0.630528 -0.578033 0)
(0.750282 -0.475685 0)
(0.907676 -0.412997 0)
(1.09778 -0.319949 0)
(1.3067 -0.317806 0)
(1.51846 -0.295531 0)
(0.0197328 -0.756824 0)
(0.0592497 -0.758019 0)
(0.0990812 -0.759889 0)
(0.139085 -0.76562 0)
(0.17915 -0.770182 0)
(0.219383 -0.778795 0)
(0.258694 -0.786611 0)
(0.295542 -0.800699 0)
(0.328282 -0.812581 0)
(0.356181 -0.834981 0)
(0.381336 -0.845904 0)
(0.40698 -0.848584 0)
(0.436152 -0.844732 0)
(0.471361 -0.831146 0)
(0.514928 -0.807928 0)
(0.56982 -0.777246 0)
(0.640389 -0.729827 0)
(0.732877 -0.681066 0)
(0.852829 -0.61378 0)
(1.00154 -0.582745 0)
(1.17614 -0.516898 0)
(1.36649 -0.52229 0)
(1.5646 -0.503088 0)
(0.0189889 -0.795919 0)
(0.0571012 -0.797302 0)
(0.0955492 -0.799639 0)
(0.1341 -0.805181 0)
(0.172598 -0.809943 0)
(0.211214 -0.818647 0)
(0.249516 -0.825131 0)
(0.287014 -0.837265 0)
(0.322233 -0.844679 0)
(0.353191 -0.862393 0)
(0.382241 -0.873317 0)
(0.41397 -0.879172 0)
(0.451072 -0.881077 0)
(0.495564 -0.875215 0)
(0.548545 -0.861186 0)
(0.611403 -0.842602 0)
(0.687373 -0.811996 0)
(0.781823 -0.787003 0)
(0.898237 -0.745602 0)
(1.03763 -0.740661 0)
(1.20101 -0.6988 0)
(1.38264 -0.714368 0)
(1.57832 -0.706882 0)
(0.0184144 -0.833687 0)
(0.0553416 -0.835304 0)
(0.0924054 -0.837883 0)
(0.129549 -0.843368 0)
(0.166755 -0.848197 0)
(0.204123 -0.857117 0)
(0.241557 -0.863138 0)
(0.279204 -0.875139 0)
(0.317038 -0.880581 0)
(0.354256 -0.89536 0)
(0.391623 -0.907443 0)
(0.431152 -0.916993 0)
(0.474327 -0.924253 0)
(0.52251 -0.925484 0)
(0.577328 -0.919542 0)
(0.641862 -0.912543 0)
(0.719369 -0.896544 0)
(0.813854 -0.892556 0)
(0.927547 -0.871504 0)
(1.06059 -0.888732 0)
(1.21449 -0.869731 0)
(1.38648 -0.898951 0)
(1.5768 -0.91033 0)
(0.0177409 -0.870197 0)
(0.0531618 -0.871852 0)
(0.0884716 -0.874419 0)
(0.123737 -0.879953 0)
(0.159004 -0.8848 0)
(0.194502 -0.894098 0)
(0.230337 -0.900146 0)
(0.266793 -0.912957 0)
(0.304865 -0.919398 0)
(0.343883 -0.933502 0)
(0.382871 -0.946373 0)
(0.422968 -0.958412 0)
(0.465801 -0.969582 0)
(0.5137 -0.977011 0)
(0.56867 -0.978627 0)
(0.633556 -0.983779 0)
(0.710751 -0.981016 0)
(0.80378 -0.996745 0)
(0.914893 -0.993429 0)
(1.0441 -1.03052 0)
(1.19436 -1.03376 0)
(1.36537 -1.07975 0)
(1.55894 -1.11542 0)
(0.0168953 -0.905177 0)
(0.0507166 -0.906801 0)
(0.0846639 -0.909415 0)
(0.118855 -0.915104 0)
(0.153301 -0.920054 0)
(0.188134 -0.929871 0)
(0.22348 -0.936253 0)
(0.259308 -0.949839 0)
(0.296223 -0.958217 0)
(0.334418 -0.972615 0)
(0.373863 -0.986411 0)
(0.415498 -1.00083 0)
(0.45974 -1.01498 0)
(0.508281 -1.02882 0)
(0.563039 -1.03736 0)
(0.627303 -1.05509 0)
(0.703105 -1.06369 0)
(0.792429 -1.09753 0)
(0.89767 -1.11025 0)
(1.01862 -1.16525 0)
(1.15956 -1.1918 0)
(1.32246 -1.25737 0)
(1.51003 -1.32091 0)
(0.0160958 -0.938499 0)
(0.0483768 -0.940245 0)
(0.0808304 -0.943038 0)
(0.113476 -0.948987 0)
(0.146258 -0.954071 0)
(0.179197 -0.964301 0)
(0.212455 -0.971106 0)
(0.246072 -0.985111 0)
(0.280695 -0.995168 0)
(0.316751 -1.01061 0)
(0.353984 -1.02579 0)
(0.393195 -1.043 0)
(0.434798 -1.05937 0)
(0.481274 -1.08019 0)
(0.534748 -1.09501 0)
(0.597703 -1.12552 0)
(0.671346 -1.14366 0)
(0.756136 -1.19273 0)
(0.85486 -1.22019 0)
(0.967749 -1.29045 0)
(1.09955 -1.3408 0)
(1.25445 -1.42784 0)
(1.43584 -1.5213 0)
(0.0154849 -0.9704 0)
(0.0465233 -0.972304 0)
(0.0776447 -0.975196 0)
(0.108834 -0.981308 0)
(0.140103 -0.986447 0)
(0.171532 -0.996939 0)
(0.203347 -1.00419 0)
(0.235671 -1.01862 0)
(0.268706 -1.02997 0)
(0.302873 -1.04669 0)
(0.338047 -1.06278 0)
(0.375348 -1.08319 0)
(0.415557 -1.10167 0)
(0.460444 -1.12996 0)
(0.511309 -1.15033 0)
(0.569116 -1.19177 0)
(0.63541 -1.21823 0)
(0.710478 -1.27898 0)
(0.797347 -1.3206 0)
(0.897437 -1.4042 0)
(1.01412 -1.47686 0)
(1.15213 -1.58622 0)
(1.31445 -1.7084 0)
(0.0146778 -1.00087 0)
(0.0440495 -1.00286 0)
(0.0734147 -1.00574 0)
(0.102781 -1.01193 0)
(0.132216 -1.01715 0)
(0.16176 -1.02783 0)
(0.191622 -1.0356 0)
(0.221863 -1.0504 0)
(0.252642 -1.06263 0)
(0.284571 -1.08075 0)
(0.317716 -1.09766 0)
(0.353 -1.12153 0)
(0.391196 -1.14238 0)
(0.432833 -1.17645 0)
(0.478957 -1.20154 0)
(0.529729 -1.24989 0)
(0.587314 -1.28479 0)
(0.652235 -1.35326 0)
(0.726864 -1.40874 0)
(0.813242 -1.50354 0)
(0.912551 -1.59465 0)
(1.03009 -1.72529 0)
(1.1674 -1.87046 0)
(0.0137658 -1.02961 0)
(0.0413053 -1.03162 0)
(0.0688578 -1.03449 0)
(0.0964422 -1.04073 0)
(0.12411 -1.04604 0)
(0.151845 -1.0568 0)
(0.179784 -1.06501 0)
(0.207999 -1.08003 0)
(0.236608 -1.09297 0)
(0.265974 -1.11229 0)
(0.2964 -1.13028 0)
(0.32826 -1.15665 0)
(0.362113 -1.17992 0)
(0.397881 -1.21693 0)
(0.437027 -1.24696 0)
(0.479816 -1.29867 0)
(0.52809 -1.34254 0)
(0.581704 -1.41476 0)
(0.642088 -1.48303 0)
(0.710188 -1.58457 0)
(0.786765 -1.69043 0)
(0.875501 -1.83684 0)
(0.97564 -1.99753 0)
(0.0129262 -1.05658 0)
(0.0387841 -1.05861 0)
(0.0646672 -1.0615 0)
(0.0905406 -1.06774 0)
(0.116442 -1.07316 0)
(0.142282 -1.08382 0)
(0.168177 -1.09239 0)
(0.194164 -1.10741 0)
(0.220342 -1.12093 0)
(0.24698 -1.14088 0)
(0.27433 -1.16001 0)
(0.302304 -1.18729 0)
(0.331512 -1.21288 0)
(0.36198 -1.25074 0)
(0.395083 -1.28594 0)
(0.43045 -1.3384 0)
(0.468799 -1.39001 0)
(0.509671 -1.46236 0)
(0.553904 -1.54065 0)
(0.601348 -1.64313 0)
(0.653339 -1.7611 0)
(0.709483 -1.91176 0)
(0.770787 -2.08482 0)
(0.0121672 -1.08194 0)
(0.0364727 -1.08395 0)
(0.0607165 -1.08682 0)
(0.0848137 -1.09291 0)
(0.108796 -1.0984 0)
(0.132561 -1.10871 0)
(0.156223 -1.11757 0)
(0.179745 -1.13225 0)
(0.203196 -1.14623 0)
(0.226563 -1.1661 0)
(0.250032 -1.18611 0)
(0.273602 -1.21322 0)
(0.297936 -1.24097 0)
(0.322832 -1.27848 0)
(0.348746 -1.31769 0)
(0.375109 -1.36884 0)
(0.402375 -1.42563 0)
(0.430182 -1.49585 0)
(0.458587 -1.58022 0)
(0.486364 -1.67918 0)
(0.513655 -1.80473 0)
(0.537847 -1.94884 0)
(0.560241 -2.13179 0)
(0.0113755 -1.10574 0)
(0.0340543 -1.10764 0)
(0.0565894 -1.11041 0)
(0.0788583 -1.11619 0)
(0.100895 -1.12164 0)
(0.1226 -1.13144 0)
(0.14405 -1.14044 0)
(0.165141 -1.15447 0)
(0.185853 -1.16864 0)
(0.20611 -1.18776 0)
(0.226105 -1.20836 0)
(0.245698 -1.23456 0)
(0.265049 -1.26372 0)
(0.283758 -1.29972 0)
(0.302092 -1.34107 0)
(0.319875 -1.38996 0)
(0.337112 -1.44934 0)
(0.352784 -1.51591 0)
(0.366299 -1.60234 0)
(0.375606 -1.69435 0)
(0.379762 -1.82114 0)
(0.374969 -1.95186 0)
(0.361279 -2.13743 0)
(0.0106561 -1.12801 0)
(0.0318705 -1.12974 0)
(0.0528743 -1.13233 0)
(0.0734958 -1.13764 0)
(0.0937292 -1.14292 0)
(0.113439 -1.15202 0)
(0.132672 -1.16099 0)
(0.151291 -1.17407 0)
(0.169259 -1.18815 0)
(0.186431 -1.20609 0)
(0.202747 -1.22673 0)
(0.217916 -1.25132 0)
(0.231961 -1.2807 0)
(0.244681 -1.31449 0)
(0.256004 -1.35624 0)
(0.265341 -1.40214 0)
(0.272363 -1.46162 0)
(0.276147 -1.52324 0)
(0.275949 -1.60841 0)
(0.269393 -1.69103 0)
(0.254595 -1.81373 0)
(0.226406 -1.92606 0)
(0.183013 -2.10575 0)
(0.00998133 -1.14887 0)
(0.0298235 -1.15038 0)
(0.0493889 -1.1527 0)
(0.0684495 -1.15739 0)
(0.0869321 -1.16232 0)
(0.104664 -1.17049 0)
(0.121644 -1.17915 0)
(0.137757 -1.19104 0)
(0.152934 -1.2047 0)
(0.16699 -1.22112 0)
(0.179781 -1.24114 0)
(0.191058 -1.26366 0)
(0.200588 -1.29221 0)
(0.207862 -1.32321 0)
(0.212482 -1.36365 0)
(0.213819 -1.40555 0)
(0.21151 -1.46301 0)
(0.204483 -1.51862 0)
(0.191862 -1.60016 0)
(0.171699 -1.67241 0)
(0.141537 -1.7871 0)
(0.0970564 -1.87956 0)
(0.0318363 -2.04297 0)
(0.00945157 -1.16851 0)
(0.0282046 -1.16975 0)
(0.046601 -1.1717 0)
(0.0643659 -1.17562 0)
(0.0813724 -1.17998 0)
(0.0973979 -1.18697 0)
(0.112358 -1.19498 0)
(0.126124 -1.20544 0)
(0.138602 -1.21829 0)
(0.149638 -1.23294 0)
(0.159027 -1.25178 0)
(0.166444 -1.27196 0)
(0.171495 -1.29871 0)
(0.173649 -1.32631 0)
(0.17243 -1.36407 0)
(0.16692 -1.40101 0)
(0.156347 -1.45465 0)
(0.139642 -1.50315 0)
(0.115547 -1.57871 0)
(0.0829525 -1.64079 0)
(0.0394112 -1.74458 0)
(-0.0170195 -1.82056 0)
(-0.0935015 -1.95941 0)
(0.00890034 -1.18706 0)
(0.0265411 -1.18799 0)
(0.0437903 -1.1895 0)
(0.0603634 -1.19254 0)
(0.0760995 -1.19618 0)
(0.0907284 -1.20179 0)
(0.104042 -1.20878 0)
(0.115836 -1.21752 0)
(0.12594 -1.22908 0)
(0.134152 -1.24166 0)
(0.140218 -1.25875 0)
(0.143873 -1.27626 0)
(0.144746 -1.30048 0)
(0.142237 -1.32428 0)
(0.135855 -1.35854 0)
(0.124721 -1.38987 0)
(0.107611 -1.438 0)
(0.0833658 -1.47865 0)
(0.0502773 -1.54572 0)
(0.00732947 -1.59781 0)
(-0.0478912 -1.68822 0)
(-0.115751 -1.75188 0)
(-0.200381 -1.86601 0)
(0.00848426 -1.20464 0)
(0.0252986 -1.20525 0)
(0.0417205 -1.20628 0)
(0.057454 -1.20842 0)
(0.0722934 -1.21122 0)
(0.0859188 -1.21534 0)
(0.0980168 -1.22096 0)
(0.10829 -1.2277 0)
(0.116462 -1.23744 0)
(0.12226 -1.24754 0)
(0.125361 -1.26223 0)
(0.125489 -1.27671 0)
(0.12235 -1.29786 0)
(0.115329 -1.31741 0)
(0.103792 -1.34747 0)
(0.0872265 -1.37315 0)
(0.0646048 -1.41481 0)
(0.034576 -1.44729 0)
(-0.00507472 -1.50395 0)
(-0.0558004 -1.54537 0)
(-0.120057 -1.62048 0)
(-0.198551 -1.67241 0)
(-0.29279 -1.76557 0)
(0.00800378 -1.2213 0)
(0.0238724 -1.22161 0)
(0.039374 -1.22218 0)
(0.0542098 -1.22343 0)
(0.068135 -1.2253 0)
(0.0808251 -1.22788 0)
(0.0919428 -1.23192 0)
(0.10114 -1.23647 0)
(0.108031 -1.24396 0)
(0.11224 -1.25122 0)
(0.113291 -1.26286 0)
(0.110717 -1.27374 0)
(0.104219 -1.29124 0)
(0.0934884 -1.30626 0)
(0.0778354 -1.33134 0)
(0.0564604 -1.35117 0)
(0.0284534 -1.38591 0)
(-0.00676529 -1.41059 0)
(-0.0510888 -1.4562 0)
(-0.106103 -1.48677 0)
(-0.174755 -1.5454 0)
(-0.258827 -1.58397 0)
(-0.360954 -1.65649 0)
(0.00759714 -1.23706 0)
(0.0226633 -1.23711 0)
(0.0373991 -1.23724 0)
(0.0515181 -1.23763 0)
(0.064738 -1.23854 0)
(0.0767294 -1.2396 0)
(0.0871245 -1.24197 0)
(0.0955056 -1.24423 0)
(0.10138 -1.24917 0)
(0.104395 -1.2534 0)
(0.1042 -1.26165 0)
(0.100225 -1.26846 0)
(0.0918153 -1.28162 0)
(0.0784757 -1.29176 0)
(0.0597891 -1.31138 0)
(0.0351919 -1.32495 0)
(0.00346762 -1.35209 0)
(-0.0360977 -1.36922 0)
(-0.0846705 -1.40415 0)
(-0.143359 -1.42446 0)
(-0.214297 -1.46731 0)
(-0.299581 -1.49172 0)
(-0.40251 -1.54248 0)
(0.00692536 -1.25173 0)
(0.0206612 -1.25154 0)
(0.0341193 -1.2513 0)
(0.0470651 -1.25092 0)
(0.0592404 -1.25092 0)
(0.0703687 -1.2506 0)
(0.0801477 -1.25138 0)
(0.0881989 -1.25146 0)
(0.0939301 -1.25372 0)
(0.0967304 -1.2548 0)
(0.0960361 -1.25945 0)
(0.0912857 -1.26197 0)
(0.0818113 -1.2702 0)
(0.0669602 -1.27489 0)
(0.0460148 -1.28844 0)
(0.0186983 -1.29573 0)
(-0.0157173 -1.31483 0)
(-0.0579428 -1.32424 0)
(-0.109431 -1.3485 0)
(-0.171179 -1.35898 0)
(-0.244922 -1.38727 0)
(-0.33177 -1.39861 0)
(-0.43385 -1.42937 0)
(0.0063009 -1.26509 0)
(0.0188033 -1.26468 0)
(0.0310628 -1.26414 0)
(0.0429142 -1.26314 0)
(0.0541739 -1.26238 0)
(0.0645981 -1.26092 0)
(0.0738409 -1.2603 0)
(0.0815594 -1.25851 0)
(0.0873349 -1.25835 0)
(0.0906333 -1.2564 0)
(0.0908282 -1.25743 0)
(0.0872531 -1.2557 0)
(0.0790151 -1.25873 0)
(0.0651266 -1.25752 0)
(0.0444786 -1.26403 0)
(0.0163898 -1.26445 0)
(-0.0196696 -1.27526 0)
(-0.0639375 -1.27684 0)
(-0.117244 -1.29051 0)
(-0.180553 -1.29119 0)
(-0.255735 -1.30526 0)
(-0.344634 -1.30384 0)
(-0.449286 -1.3162 0)
(0.00536687 -1.27688 0)
(0.0160164 -1.27628 0)
(0.0264594 -1.27548 0)
(0.0365921 -1.27402 0)
(0.0463022 -1.27269 0)
(0.0554156 -1.27036 0)
(0.0636107 -1.26849 0)
(0.0704998 -1.2651 0)
(0.075749 -1.26294 0)
(0.0790172 -1.2585 0)
(0.0797204 -1.25632 0)
(0.077137 -1.25069 0)
(0.0703557 -1.24869 0)
(0.05843 -1.24164 0)
(0.0400008 -1.24065 0)
(0.0138154 -1.23328 0)
(-0.0212809 -1.23488 0)
(-0.0657005 -1.22803 0)
(-0.119687 -1.23142 0)
(-0.183021 -1.22291 0)
(-0.256458 -1.22406 0)
(-0.34154 -1.21005 0)
(-0.440642 -1.20505 0)
(0.00453349 -1.28689 0)
(0.0135244 -1.28613 0)
(0.0223289 -1.28508 0)
(0.0308727 -1.28328 0)
(0.0390699 -1.28153 0)
(0.046808 -1.27856 0)
(0.0539548 -1.27581 0)
(0.0603031 -1.27118 0)
(0.0654879 -1.26742 0)
(0.0690905 -1.26099 0)
(0.0706026 -1.25611 0)
(0.0694874 -1.24723 0)
(0.0650459 -1.24092 0)
(0.0564539 -1.22883 0)
(0.0423729 -1.2208 0)
(0.0212284 -1.20555 0)
(-0.00881176 -1.19712 0)
(-0.0491469 -1.18056 0)
(-0.100746 -1.1727 0)
(-0.163606 -1.15471 0)
(-0.237365 -1.14421 0)
(-0.321809 -1.11938 0)
(-0.418176 -1.09911 0)
(0.00349048 -1.295 0)
(0.0104143 -1.2941 0)
(0.0171944 -1.29286 0)
(0.0237733 -1.2908 0)
(0.0300754 -1.28868 0)
(0.0360304 -1.28526 0)
(0.0415787 -1.28195 0)
(0.0466349 -1.27658 0)
(0.0509595 -1.27166 0)
(0.0542195 -1.26372 0)
(0.0559813 -1.25673 0)
(0.0557436 -1.2453 0)
(0.0527876 -1.23545 0)
(0.046366 -1.21923 0)
(0.0355154 -1.20535 0)
(0.019047 -1.18319 0)
(-0.00495049 -1.16514 0)
(-0.0384541 -1.13827 0)
(-0.0833322 -1.11795 0)
(-0.140719 -1.08852 0)
(-0.21071 -1.06582 0)
(-0.292075 -1.031 0)
(-0.383778 -0.99832 0)
(0.00267893 -1.30124 0)
(0.00797711 -1.30022 0)
(0.0131247 -1.2988 0)
(0.0180756 -1.29652 0)
(0.0227947 -1.29411 0)
(0.0272685 -1.29038 0)
(0.0314633 -1.28669 0)
(0.0353562 -1.2809 0)
(0.0388772 -1.27528 0)
(0.0418519 -1.26642 0)
(0.0439069 -1.25792 0)
(0.0445513 -1.24456 0)
(0.043183 -1.23187 0)
(0.0392578 -1.21242 0)
(0.0320905 -1.19405 0)
(0.0208325 -1.16661 0)
(0.00395865 -1.14061 0)
(-0.0206016 -1.1044 0)
(-0.0553301 -1.07175 0)
(-0.102399 -1.02965 0)
(-0.163361 -0.992968 0)
(-0.238228 -0.946707 0)
(-0.325269 -0.902829 0)
(0.00177205 -1.30574 0)
(0.005274 -1.30463 0)
(0.00866327 -1.30304 0)
(0.0119072 -1.30057 0)
(0.0149774 -1.29794 0)
(0.0178457 -1.29399 0)
(0.0204702 -1.28999 0)
(0.0228312 -1.28393 0)
(0.0248816 -1.27789 0)
(0.0265789 -1.26854 0)
(0.0278119 -1.25913 0)
(0.0283479 -1.24456 0)
(0.0277079 -1.22987 0)
(0.0253321 -1.2081 0)
(0.0205181 -1.18633 0)
(0.0126048 -1.15505 0)
(0.000766922 -1.1233 0)
(-0.0162742 -1.07987 0)
(-0.0408069 -1.03667 0)
(-0.0756872 -0.982299 0)
(-0.123804 -0.9306 0)
(-0.187285 -0.869925 0)
(-0.265995 -0.812902 0)
(0.00116719 -1.30872 0)
(0.0034453 -1.30751 0)
(0.00559098 -1.30578 0)
(0.00759119 -1.30316 0)
(0.00943059 -1.30033 0)
(0.0110965 -1.2962 0)
(0.0125788 -1.29195 0)
(0.0138716 -1.28568 0)
(0.0149397 -1.27932 0)
(0.0157614 -1.26969 0)
(0.0162972 -1.2598 0)
(0.0165038 -1.24466 0)
(0.0161572 -1.22879 0)
(0.0148436 -1.20548 0)
(0.0120358 -1.18129 0)
(0.0072828 -1.14735 0)
(2.34061e-05 -1.11178 0)
(-0.0104246 -1.06373 0)
(-0.0254487 -1.01301 0)
(-0.0473439 -0.948838 0)
(-0.0792029 -0.88361 0)
(-0.124447 -0.807555 0)
(-0.185949 -0.734251 0)
(0.000559759 -1.31048 0)
(0.00164975 -1.30918 0)
(0.00264767 -1.30731 0)
(0.00350685 -1.30454 0)
(0.00419695 -1.30153 0)
(0.00470328 -1.29722 0)
(0.00501367 -1.29277 0)
(0.00514537 -1.28633 0)
(0.005103 -1.27973 0)
(0.00488159 -1.26991 0)
(0.00445018 -1.25971 0)
(0.00378153 -1.24431 0)
(0.00280477 -1.22783 0)
(0.00138583 -1.2037 0)
(-0.000794228 -1.17805 0)
(-0.00412524 -1.14245 0)
(-0.0090969 -1.10437 0)
(-0.0161259 -1.05355 0)
(-0.0256335 -0.998499 0)
(-0.0385914 -0.928279 0)
(-0.0571112 -0.853486 0)
(-0.0844455 -0.764673 0)
(-0.12502 -0.674468 0)
(0.000249401 -1.3113 0)
(0.000716576 -1.30994 0)
(0.001086 -1.30794 0)
(0.00129513 -1.30501 0)
(0.00130405 -1.30179 0)
(0.00111817 -1.2973 0)
(0.000755975 -1.29266 0)
(0.000234152 -1.28607 0)
(-0.000443552 -1.27928 0)
(-0.0012761 -1.26931 0)
(-0.0022806 -1.25887 0)
(-0.00347846 -1.24328 0)
(-0.00489757 -1.22646 0)