/*--------------------------------*- C++ -*----------------------------------*\
| =========                 |                                                 |
| \\      /  F ield         | OpenFOAM: The Open Source CFD Toolbox           |
|  \\    /   O peration     | Version:  2012                                  |
|   \\  /    A nd           | Website:  www.openfoam.com                      |
|    \\/     M anipulation  |                                                 |
\*---------------------------------------------------------------------------*/
FoamFile
{
    version     2.0;
    format      ascii;
    class       surfaceScalarField;
    location    "0.03";
    object      phi;
}
// * * * * * * * * * * * * * * * * * * * * * * * * * * * * * * * * * * * * * //

dimensions      [0 3 -1 0 0 0 0];
oriented        oriented;


internalField   nonuniform List<scalar> 
4432
(
2.05489e-06
-2.0549e-06
4.14363e-06
-2.08874e-06
6.29935e-06
-2.15573e-06
8.56882e-06
-2.26947e-06
1.09922e-05
-2.4234e-06
1.36561e-05
-2.6639e-06
1.66243e-05
-2.96816e-06
2.00756e-05
-3.45137e-06
2.42218e-05
-4.14621e-06
2.93788e-05
-5.15699e-06
3.70476e-05
-7.66883e-06
4.7874e-05
-1.08264e-05
6.18151e-05
-1.39442e-05
7.7143e-05
-1.53037e-05
8.03269e-05
-3.18043e-06
6.34874e-05
1.684e-05
4.34728e-05
2.00143e-05
3.16885e-05
1.17841e-05
2.39063e-05
7.78204e-06
1.7639e-05
6.26707e-06
1.19079e-05
5.73102e-06
6.08464e-06
5.82309e-06
6.08449e-06
2.04732e-06
-4.10223e-06
4.1279e-06
-4.16931e-06
6.27409e-06
-4.30193e-06
8.53185e-06
-4.52723e-06
1.0939e-05
-4.83056e-06
1.35821e-05
-5.30698e-06
1.65103e-05
-5.89639e-06
1.99217e-05
-6.86278e-06
2.3907e-05
-8.13155e-06
2.89699e-05
-1.02199e-05
3.56049e-05
-1.43038e-05
4.45701e-05
-1.97916e-05
5.68885e-05
-2.6268e-05
6.86512e-05
-2.7039e-05
6.8836e-05
-3.36324e-06
5.39004e-05
3.17759e-05
3.98462e-05
3.40683e-05
3.04526e-05
2.11775e-05
2.34724e-05
1.47622e-05
1.74955e-05
1.22437e-05
1.18929e-05
1.13335e-05
6.10911e-06
1.16067e-05
1.21934e-05
2.03231e-06
-6.13455e-06
4.0967e-06
-6.2337e-06
6.22411e-06
-6.42935e-06
8.45873e-06
-6.76185e-06
1.08345e-05
-7.20637e-06
1.3436e-05
-7.90846e-06
1.62934e-05
-8.7538e-06
1.96136e-05
-1.0183e-05
2.33789e-05
-1.18968e-05
2.81737e-05
-1.50147e-05
3.37823e-05
-1.99124e-05
4.11213e-05
-2.71306e-05
5.11697e-05
-3.63084e-05
5.97091e-05
-3.55529e-05
5.58228e-05
5.24055e-07
4.36147e-05
4.39842e-05
3.5716e-05
4.19668e-05
2.86855e-05
2.82078e-05
2.27285e-05
2.07191e-05
1.72419e-05
1.77301e-05
1.19129e-05
1.66625e-05
6.21232e-06
1.73072e-05
1.84056e-05
2.01018e-06
-8.14474e-06
4.05072e-06
-8.27424e-06
6.15063e-06
-8.52927e-06
8.35139e-06
-8.96261e-06
1.06821e-05
-9.53711e-06
1.32228e-05
-1.04491e-05
1.59828e-05
-1.15139e-05
1.91663e-05
-1.33665e-05
2.26745e-05
-1.5405e-05
2.70469e-05
-1.93871e-05
3.17532e-05
-2.46187e-05
3.76139e-05
-3.29912e-05
4.42442e-05
-4.29047e-05
5.01008e-05
-4.1386e-05
4.43209e-05
6.30459e-06
3.61047e-05
5.22006e-05
3.22405e-05
4.58308e-05
2.69582e-05
3.349e-05
2.19294e-05
2.57478e-05
1.695e-05
2.27094e-05
1.1915e-05
2.16973e-05
6.30663e-06
2.29154e-05
2.47121e-05
1.98124e-06
-1.0126e-05
3.99066e-06
-1.02837e-05
6.05492e-06
-1.05935e-05
8.21192e-06
-1.11196e-05
1.04858e-05
-1.1811e-05
1.29493e-05
-1.29126e-05
1.55949e-05
-1.41595e-05
1.86108e-05
-1.63823e-05
2.18575e-05
-1.86517e-05
2.57502e-05
-2.32799e-05
2.96771e-05
-2.85457e-05
3.42241e-05
-3.75382e-05
3.81368e-05
-4.67686e-05
4.21625e-05
-4.53895e-05
3.59146e-05
1.25531e-05
3.10784e-05
5.70368e-05
2.91678e-05
4.77414e-05
2.52568e-05
3.74009e-05
2.11467e-05
2.98579e-05
1.67945e-05
2.70615e-05
1.22207e-05
2.6271e-05
6.71123e-06
2.84248e-05
3.14232e-05
1.94618e-06
-1.20722e-05
3.91801e-06
-1.22555e-05
5.93955e-06
-1.26151e-05
8.04445e-06
-1.32245e-05
1.02523e-05
-1.40189e-05
1.26255e-05
-1.52858e-05
1.51471e-05
-1.66811e-05
1.79732e-05
-1.92084e-05
2.096e-05
-2.16385e-05
2.43687e-05
-2.66886e-05
2.76519e-05
-3.18288e-05
3.11488e-05
-4.10351e-05
3.3504e-05
-4.90673e-05
3.60161e-05
-4.78798e-05
2.99e-05
1.86697e-05
2.76899e-05
5.9247e-05
2.66285e-05
4.88028e-05
2.36964e-05
4.03329e-05
2.03093e-05
3.3245e-05
1.64908e-05
3.08798e-05
1.22686e-05
3.04931e-05
6.85258e-06
3.38407e-05
3.82757e-05
1.90518e-06
-1.39773e-05
3.83318e-06
-1.41835e-05
5.80522e-06
-1.45871e-05
7.85012e-06
-1.52694e-05
9.98347e-06
-1.61523e-05
1.22554e-05
-1.75577e-05
1.46451e-05
-1.90707e-05
1.72686e-05
-2.18319e-05
1.99966e-05
-2.43666e-05
2.29531e-05
-2.96451e-05
2.56907e-05
-3.45664e-05
2.83746e-05
-4.3719e-05
2.98743e-05
-5.05046e-05
3.12437e-05
-4.92282e-05
2.56712e-05
2.42429e-05
2.51506e-05
5.97676e-05
2.45063e-05
4.94473e-05
2.2394e-05
4.24451e-05
1.9757e-05
3.5882e-05
1.67466e-05
3.38901e-05
1.34008e-05
3.38389e-05
8.12566e-06
3.91157e-05
4.64014e-05
1.85923e-06
-1.58366e-05
3.73828e-06
-1.60626e-05
5.65562e-06
-1.65045e-05
7.63482e-06
-1.72486e-05
9.68846e-06
-1.82059e-05
1.1853e-05
-1.97223e-05
1.41094e-05
-2.13272e-05
1.65275e-05
-2.425e-05
1.90054e-05
-2.68444e-05
2.15555e-05
-3.21953e-05
2.38355e-05
-3.68464e-05
2.58654e-05
-4.57488e-05
2.68326e-05
-5.14042e-05
2.7591e-05
-4.99664e-05
2.27524e-05
2.90821e-05
2.30793e-05
5.94409e-05
2.26395e-05
4.98872e-05
2.11123e-05
4.39724e-05
1.89874e-05
3.80069e-05
1.64728e-05
3.64047e-05
1.36045e-05
3.67072e-05
8.48908e-06
4.42311e-05
5.48904e-05
1.72993e-06
-1.72995e-06
3.11043e-06
-1.38055e-06
3.90961e-06
-7.9922e-07
4.3395e-06
-4.29905e-07
4.44461e-06
-1.05121e-07
4.36428e-06
8.03275e-08
4.15411e-06
2.10157e-07
3.8706e-06
2.83481e-07
3.54304e-06
3.27514e-07
3.19316e-06
3.49853e-07
2.83268e-06
3.60455e-07
2.46916e-06
3.63507e-07
2.10662e-06
3.62511e-07
1.7472e-06
3.59389e-07
1.39164e-06
3.55542e-07
1.03989e-06
3.51771e-07
6.91324e-07
3.48561e-07
3.45059e-07
3.46223e-07
3.45057e-07
1.77877e-06
-3.50876e-06
3.18778e-06
-2.78961e-06
3.97811e-06
-1.58956e-06
4.39208e-06
-8.43877e-07
4.4813e-06
-1.94336e-07
4.38768e-06
1.7394e-07
4.16817e-06
4.2963e-07
3.87881e-06
5.72802e-07
3.54751e-06
6.58771e-07
3.19528e-06
7.0207e-07
2.8334e-06
7.22319e-07
2.46908e-06
7.27804e-07
2.10612e-06
7.2542e-07
1.74655e-06
7.18963e-07
1.39099e-06
7.11123e-07
1.03932e-06
7.0344e-07
6.90911e-07
6.96923e-07
3.44854e-07
6.92285e-07
6.89934e-07
1.91315e-06
-5.42195e-06
3.37888e-06
-4.25536e-06
4.1379e-06
-2.34857e-06
4.50775e-06
-1.21372e-06
4.55813e-06
-2.44714e-07
4.43585e-06
2.96216e-07
4.19695e-06
6.68502e-07
3.89523e-06
8.74517e-07
3.55631e-06
9.97668e-07
3.19941e-06
1.05898e-06
2.83474e-06
1.08695e-06
2.46885e-06
1.09367e-06
2.1051e-06
1.08914e-06
1.74522e-06
1.07886e-06
1.38965e-06
1.06669e-06
1.03818e-06
1.05488e-06
6.9009e-07
1.04497e-06
3.44437e-07
1.03798e-06
1.03436e-06
2.05669e-06
-7.47866e-06
3.60982e-06
-5.80849e-06
4.34267e-06
-3.08141e-06
4.66058e-06
-1.53162e-06
4.66268e-06
-2.46808e-07
4.50226e-06
4.56626e-07
4.23722e-06
9.33529e-07
3.91829e-06
1.19346e-06
3.56861e-06
1.34734e-06
3.20504e-06
1.42254e-06
2.83642e-06
1.45553e-06
2.4683e-06
1.46176e-06
2.10344e-06
1.45399e-06
1.74313e-06
1.43918e-06
1.3876e-06
1.42222e-06
1.03643e-06
1.406e-06
6.88856e-07
1.39255e-06
3.43795e-07
1.38306e-06
1.3781e-06
2.4155e-06
-9.89416e-06
4.07986e-06
-7.47284e-06
4.70241e-06
-3.70395e-06
4.90253e-06
-1.73174e-06
4.81557e-06
-1.59875e-07
4.59403e-06
6.78162e-07
4.29112e-06
1.23643e-06
3.94826e-06
1.53632e-06
3.58419e-06
1.7114e-06
3.21192e-06
1.79478e-06
2.83823e-06
1.82919e-06
2.46728e-06
1.83269e-06
2.10103e-06
1.82024e-06
1.74023e-06
1.8e-06
1.38477e-06
1.77766e-06
1.03406e-06
1.75669e-06
6.87176e-07
1.73947e-06
3.42914e-07
1.7273e-06
1.72099e-06
2.6005e-06
-1.24947e-05
4.45581e-06
-9.32815e-06
5.03394e-06
-4.2821e-06
5.13574e-06
-1.83357e-06
4.97134e-06
4.48202e-09
4.69082e-06
9.5867e-07
4.34931e-06
1.57793e-06
3.98079e-06
1.90484e-06
3.60091e-06
2.09125e-06
3.2189e-06
2.17675e-06
2.83953e-06
2.20853e-06
2.46543e-06
2.20679e-06
2.09765e-06
2.18804e-06
1.73636e-06
2.1613e-06
1.38109e-06
2.1329e-06
1.03102e-06
2.10679e-06
6.85014e-07
2.08549e-06
3.41791e-07
2.07048e-06
2.06282e-06
3.56773e-06
-1.60624e-05
5.46037e-06
-1.12208e-05
5.68987e-06
-4.51164e-06
5.52331e-06
-1.66706e-06
5.19697e-06
3.3077e-07
4.81731e-06
1.33832e-06
4.42032e-06
1.9749e-06
4.01857e-06
2.30657e-06
3.61949e-06
2.49029e-06
3.22606e-06
2.57014e-06
2.84022e-06
2.59435e-06
2.46259e-06
2.58441e-06
2.09318e-06
2.55744e-06
1.73145e-06
2.52301e-06
1.37651e-06
2.48781e-06
1.02725e-06
2.45605e-06
6.82352e-07
2.43036e-06
3.40429e-07
2.41241e-06
2.40328e-06
4.72183e-06
-2.07842e-05
5.99366e-06
-1.24927e-05
6.12057e-06
-4.63859e-06
5.78337e-06
-1.32991e-06
5.36675e-06
7.47358e-07
4.92048e-06
1.78458e-06
4.48119e-06
2.41417e-06
4.05158e-06
2.73615e-06
3.63518e-06
2.90664e-06
3.23108e-06
2.9742e-06
2.83906e-06
2.98635e-06
2.4581e-06
2.96534e-06
2.08724e-06
2.92825e-06
1.72526e-06
2.88492e-06
1.37088e-06
2.84216e-06
1.02268e-06
2.80423e-06
6.79149e-07
2.77385e-06
3.38797e-07
2.7528e-06
2.74202e-06
3.78756e-06
-1.96241e-05
7.6072e-06
-1.98822e-05
1.14888e-05
-2.03861e-05
1.54657e-05
-2.12255e-05
1.95563e-05
-2.22965e-05
2.37955e-05
-2.39615e-05
2.81579e-05
-2.56895e-05
3.26611e-05
-2.87533e-05
3.71873e-05
-3.13706e-05
4.15383e-05
-3.65464e-05
4.52767e-05
-4.05847e-05
4.81212e-05
-4.85934e-05
4.97854e-05
-5.29154e-05
5.06592e-05
-5.07998e-05
4.24186e-05
3.7324e-05
4.36535e-05
5.82064e-05
4.32095e-05
5.03316e-05
4.17926e-05
4.53894e-05
3.95536e-05
4.0246e-05
3.83694e-05
3.7589e-05
3.8771e-05
3.63056e-05
4.53107e-05
3.76915e-05
4.144e-05
5.87613e-05
3.52455e-06
-2.31487e-05
7.06803e-06
-2.34257e-05
1.06482e-05
-2.39662e-05
1.42786e-05
-2.4856e-05
1.79682e-05
-2.5986e-05
2.17101e-05
-2.77035e-05
2.54935e-05
-2.9473e-05
2.92358e-05
-3.24956e-05
3.28983e-05
-3.5033e-05
3.61904e-05
-3.98385e-05
3.89008e-05
-4.32951e-05
4.0687e-05
-5.03796e-05
4.17283e-05
-5.37906e-05
4.15447e-05
-5.05801e-05
3.5769e-05
4.31008e-05
3.72892e-05
5.66864e-05
3.73771e-05
5.02442e-05
3.69865e-05
4.57802e-05
3.592e-05
4.13126e-05
3.55204e-05
3.79886e-05
3.59883e-05
3.58377e-05
4.08384e-05
3.28413e-05
3.19084e-05
5.03701e-05
3.24525e-06
-2.6394e-05
6.49818e-06
-2.66786e-05
9.76614e-06
-2.72342e-05
1.30477e-05
-2.81376e-05
1.63441e-05
-2.92824e-05
1.9622e-05
-3.09814e-05
2.28797e-05
-3.27307e-05
2.59857e-05
-3.56016e-05
2.89491e-05
-3.79965e-05
3.14641e-05
-4.23535e-05
3.34686e-05
-4.52996e-05
3.46145e-05
-5.15255e-05
3.51937e-05
-5.41937e-05
3.39312e-05
-4.92865e-05
3.02461e-05
4.67869e-05
3.19894e-05
5.49434e-05
3.26038e-05
4.96301e-05
3.29833e-05
4.54009e-05
3.2931e-05
4.13649e-05
3.32082e-05
3.77115e-05
3.40639e-05
3.4982e-05
3.58364e-05
3.10689e-05
2.87728e-05
3.8972e-05
2.95778e-06
-2.93517e-05
5.91437e-06
-2.96352e-05
8.86879e-06
-3.01886e-05
1.18095e-05
-3.10783e-05
1.47315e-05
-3.22045e-05
1.75889e-05
-3.38388e-05
2.03831e-05
-3.55249e-05
2.29721e-05
-3.81905e-05
2.53859e-05
-4.04103e-05
2.73494e-05
-4.4317e-05
2.88815e-05
-4.68317e-05
2.96565e-05
-5.23005e-05
3.00632e-05
-5.4417e-05
2.76641e-05
-4.68609e-05
2.54545e-05
4.89972e-05
2.7221e-05
5.31771e-05
2.81144e-05
4.8737e-05
2.88143e-05
4.47011e-05
2.91775e-05
4.10017e-05
2.95852e-05
3.73039e-05
3.02683e-05
3.4299e-05
3.09981e-05
3.03391e-05
2.72188e-05
3.25521e-05
2.67263e-06
-3.20244e-05
5.33753e-06
-3.23001e-05
7.98748e-06
-3.28386e-05
1.06046e-05
-3.36954e-05
1.31794e-05
-3.47793e-05
1.56617e-05
-3.63211e-05
1.8053e-05
-3.79162e-05
2.02187e-05
-4.03562e-05
2.2196e-05
-4.23876e-05
2.37505e-05
-4.58714e-05
2.49427e-05
-4.80238e-05
2.54822e-05
-5.28401e-05
2.57721e-05
-5.45203e-05
2.20661e-05
-4.31329e-05
2.10586e-05
5.00052e-05
2.2932e-05
5.13038e-05
2.40906e-05
4.75786e-05
2.50441e-05
4.37477e-05
2.56998e-05
4.03461e-05
2.62067e-05
3.67972e-05
2.67621e-05
3.37436e-05
2.70114e-05
3.00899e-05
2.69411e-05
2.72891e-05
2.39558e-06
-3.442e-05
4.77899e-06
-3.46836e-05
7.13875e-06
-3.51983e-05
9.45364e-06
-3.60103e-05
1.17112e-05
-3.70368e-05
1.38623e-05
-3.84722e-05
1.59073e-05
-3.99612e-05
1.7727e-05
-4.21759e-05
1.93592e-05
-4.40199e-05
2.06101e-05
-4.71224e-05
2.15587e-05
-4.89724e-05
2.19486e-05
-5.323e-05
2.21615e-05
-5.45464e-05
1.70673e-05
-3.80206e-05
1.70386e-05
5.00343e-05
1.90088e-05
4.93337e-05
2.03395e-05
4.6248e-05
2.14233e-05
4.2664e-05
2.2202e-05
3.95675e-05
2.27493e-05
3.62501e-05
2.32174e-05
3.32755e-05
2.33648e-05
2.99426e-05
2.68943e-05
2.34116e-05
2.13097e-06
-3.65509e-05
4.24712e-06
-3.67997e-05
6.33436e-06
-3.72856e-05
8.37025e-06
-3.80462e-05
1.03407e-05
-3.90073e-05
1.22003e-05
-4.03318e-05
1.39479e-05
-4.17088e-05
1.54819e-05
-4.37099e-05
1.68374e-05
-4.53754e-05
1.78553e-05
-4.81403e-05
1.86205e-05
-4.97376e-05
1.8908e-05
-5.35175e-05
1.906e-05
-5.45142e-05
1.26589e-05
-3.1605e-05
1.34548e-05
4.92387e-05
1.55223e-05
4.72662e-05
1.69823e-05
4.47881e-05
1.8157e-05
4.14894e-05
1.90204e-05
3.87041e-05
1.96106e-05
3.56599e-05
2.00299e-05
3.28563e-05
2.01264e-05
2.98461e-05
2.70135e-05
2.00072e-05
1.88233e-06
-3.84333e-05
3.74852e-06
-3.86659e-05
5.58319e-06
-3.91203e-05
7.364e-06
-3.9827e-05
9.07631e-06
-4.07196e-05
1.06794e-05
-4.19349e-05
1.21712e-05
-4.32006e-05
1.34664e-05
-4.50052e-05
1.4597e-05
-4.65059e-05
1.54322e-05
-4.89755e-05
1.60567e-05
-5.03621e-05
1.62729e-05
-5.37337e-05
1.63704e-05
-5.44327e-05
8.94744e-06
-2.41704e-05
1.0354e-05
4.78322e-05
1.24372e-05
4.5183e-05
1.39547e-05
4.32706e-05
1.51527e-05
4.02914e-05
1.60423e-05
3.78145e-05
1.66518e-05
3.50505e-05
1.70604e-05
3.24477e-05
1.71869e-05
2.97197e-05
2.71039e-05
1.70966e-05
1.64796e-06
-4.00812e-05
3.27969e-06
-4.02976e-05
4.87975e-06
-4.07203e-05
6.42695e-06
-4.13742e-05
7.9071e-06
-4.21997e-05
9.28446e-06
-4.33122e-05
1.05567e-05
-4.44729e-05
1.16526e-05
-4.61011e-05
1.26009e-05
-4.74542e-05
1.32925e-05
-4.96671e-05
1.38085e-05
-5.08781e-05
1.39727e-05
-5.3898e-05
1.40187e-05
-5.43068e-05
5.977e-06
-1.61194e-05
7.7949e-06
4.60142e-05
9.82904e-06
4.31488e-05
1.13407e-05
4.1759e-05
1.25096e-05
3.91225e-05
1.33822e-05
3.69419e-05
1.3984e-05
3.44488e-05
1.43787e-05
3.2053e-05
1.45287e-05
2.95698e-05
2.71585e-05
1.44741e-05
1.4353e-06
-4.15165e-05
2.85462e-06
-4.1717e-05
4.24274e-06
-4.21084e-05
5.57982e-06
-4.27113e-05
6.85226e-06
-4.34722e-05
8.02896e-06
-4.44889e-05
9.1075e-06
-4.55514e-05
1.00292e-05
-4.70228e-05
1.08193e-05
-4.82443e-05
1.13882e-05
-5.02361e-05
1.18114e-05
-5.13012e-05
1.19376e-05
-5.40243e-05
1.19228e-05
-5.41296e-05
3.79509e-06
-7.98445e-06
5.75087e-06
4.40583e-05
7.62096e-06
4.12788e-05
9.03344e-06
4.03465e-05
1.01114e-05
3.80446e-05
1.09287e-05
3.61246e-05
1.1505e-05
3.38726e-05
1.18941e-05
3.16639e-05
1.20803e-05
2.93838e-05
2.71482e-05
1.20906e-05
1.22613e-06
-4.27427e-05
2.43821e-06
-4.2929e-05
3.62282e-06
-4.32931e-05
4.76286e-06
-4.38513e-05
5.84643e-06
-4.45557e-05
6.8475e-06
-4.549e-05
7.76356e-06
-4.64675e-05
8.54609e-06
-4.78053e-05
9.2169e-06
-4.89151e-05
9.69811e-06
-5.07173e-05
1.0059e-05
-5.16621e-05
1.01562e-05
-5.41214e-05
1.00874e-05
-5.3909e-05
2.25726e-06
-1.48624e-07
4.25129e-06
4.20642e-05
5.92904e-06
3.96011e-05
7.1785e-06
3.9097e-05
8.10376e-06
3.71194e-05
8.8057e-06
3.54227e-05
9.30757e-06
3.33709e-05
9.65849e-06
3.13131e-05
9.85382e-06
2.91885e-05
2.70915e-05
9.91057e-06
1.05164e-06
-4.37943e-05
2.08957e-06
-4.3967e-05
3.10065e-06
-4.43041e-05
4.06907e-06
-4.48197e-05
4.98355e-06
-4.54702e-05
5.82172e-06
-4.63282e-05
6.58085e-06
-4.72266e-05
7.22186e-06
-4.84463e-05
7.76185e-06
-4.94551e-05
8.1408e-06
-5.10962e-05
8.41906e-06
-5.19404e-05
8.49557e-06
-5.41979e-05
8.33344e-06
-5.36083e-05
1.69222e-06
6.49704e-06
3.25955e-06
4.04969e-05
4.52589e-06
3.83349e-05
5.46361e-06
3.81594e-05
6.15973e-06
3.64234e-05
6.72278e-06
3.48598e-05
7.15667e-06
3.29371e-05
7.49187e-06
3.0978e-05
7.71776e-06
2.89627e-05
2.697e-05
7.8393e-06
8.6047e-07
-4.46548e-05
1.70958e-06
-4.48161e-05
2.53658e-06
-4.51311e-05
3.3292e-06
-4.56124e-05
4.07868e-06
-4.62197e-05
4.76935e-06
-4.70188e-05
5.39962e-06
-4.78569e-05
5.94381e-06
-4.89905e-05
6.41684e-06
-4.99281e-05
6.76901e-06
-5.14484e-05
7.05144e-06
-5.22228e-05
7.11456e-06
-5.4261e-05
7.03349e-06
-5.3403e-05
1.20576e-06
1.23284e-05
2.78385e-06
3.89189e-05
3.67881e-06
3.74402e-05
4.26391e-06
3.75744e-05
4.67088e-06
3.60165e-05
5.01711e-06
3.45136e-05
5.30762e-06
3.26467e-05
5.5657e-06
3.072e-05
5.77646e-06
2.8752e-05
2.68156e-05
5.93089e-06
7.13578e-07
-4.53684e-05
1.41687e-06
-4.55194e-05
2.09951e-06
-4.58138e-05
2.75056e-06
-4.62634e-05
3.35947e-06
-4.68286e-05
3.91271e-06
-4.75721e-05
4.40209e-06
-4.83463e-05
4.80771e-06
-4.93961e-05
5.13217e-06
-5.02526e-05
5.35679e-06
-5.1673e-05
5.49785e-06
-5.23639e-05
5.53806e-06
-5.43013e-05
5.35366e-06
-5.31101e-05
3.26775e-06
1.4417e-05
3.12366e-06
3.90631e-05
2.85709e-06
3.77069e-05
2.79214e-06
3.76394e-05
2.80112e-06
3.60077e-05
2.9704e-06
3.43445e-05
3.20321e-06
3.2414e-05
3.48363e-06
3.04397e-05
3.7596e-06
2.84761e-05
2.65692e-05
4.00601e-06
5.62262e-07
-4.59306e-05
1.11725e-06
-4.60744e-05
1.65749e-06
-4.6354e-05
2.17657e-06
-4.67825e-05
2.66782e-06
-4.73199e-05
3.12819e-06
-4.80324e-05
3.55263e-06
-4.87707e-05
3.94659e-06
-4.97901e-05
4.3014e-06
-5.06074e-05
4.62804e-06
-5.19997e-05
4.89935e-06
-5.26352e-05
4.96941e-06
-5.43713e-05
6.90065e-06
-5.49418e-05
3.6013e-06
1.77194e-05
3.40249e-06
3.92621e-05
2.85859e-06
3.8251e-05
2.14583e-06
3.83523e-05
1.71072e-06
3.64429e-05
1.50907e-06
3.45463e-05
1.53766e-06
3.23855e-05
1.70971e-06
3.02677e-05
1.96491e-06
2.8221e-05
2.62864e-05
2.2478e-06
4.22552e-07
-4.63532e-05
8.38094e-07
-4.64899e-05
1.23904e-06
-4.6755e-05
1.61764e-06
-4.71611e-05
1.9643e-06
-4.76665e-05
2.26782e-06
-4.8336e-05
2.51539e-06
-4.90183e-05
2.68503e-06
-4.99597e-05
2.76634e-06
-5.06887e-05
2.72689e-06
-5.19602e-05
2.59189e-06
-5.25002e-05
2.42866e-06
-5.42081e-05
2.61671e-06
-5.50405e-05
8.73986e-06
1.15978e-05
5.06702e-06
4.29351e-05
1.0669e-06
4.22513e-05
-3.37723e-07
3.97571e-05
-1.19719e-06
3.73026e-05
-1.23866e-06
3.45879e-05
-1.02804e-06
3.2175e-05
-6.15462e-07
2.98553e-05
-1.45922e-07
2.77515e-05
2.58111e-05
3.29471e-07
2.79169e-07
-4.66324e-05
5.54963e-07
-4.67657e-05
8.23792e-07
-4.70238e-05
1.08481e-06
-4.74221e-05
1.33492e-06
-4.79167e-05
1.58521e-06
-4.85863e-05
1.83004e-06
-4.92631e-05
2.13645e-06
-5.02661e-05
2.46362e-06
-5.10159e-05
3.12435e-06
-5.2621e-05
3.78273e-06
-5.31586e-05
6.35452e-06
-5.57269e-05
1.29215e-05
-6.14878e-05
9.15022e-06
1.53767e-05
4.92952e-06
4.7156e-05
2.25804e-06
4.49231e-05
-6.31345e-07
4.26467e-05
-1.92221e-06
3.85936e-05
-2.61333e-06
3.52792e-05
-2.6422e-06
3.2204e-05
-2.35404e-06
2.95672e-05
-1.87903e-06
2.72766e-05
2.52715e-05
-1.33937e-06
1.66984e-07
-4.68002e-05
3.30057e-07
-4.69296e-05
4.85125e-07
-4.71797e-05
6.26091e-07
-4.75639e-05
7.47775e-07
-4.80392e-05
8.3035e-07
-4.86698e-05
8.73696e-07
-4.93075e-05
7.8243e-07
-5.01759e-05
6.18581e-07
-5.08532e-05
-8.28635e-08
-5.19207e-05
-7.86019e-07
-5.2457e-05
-2.85033e-06
-5.36772e-05
-7.73907e-06
-5.64366e-05
6.75099e-07
6.96289e-06
1.56414e-06
4.62671e-05
-7.32368e-06
5.38111e-05
-7.83937e-06
4.31626e-05
-8.2474e-06
3.90018e-05
-7.25708e-06
3.4289e-05
-6.3072e-06
3.12543e-05
-5.22522e-06
2.84853e-05
-4.23053e-06
2.6282e-05
2.43555e-05
-3.31445e-06
6.01969e-09
-4.71025e-05
1.18696e-08
-4.72332e-05
1.72951e-08
-4.74858e-05
2.22643e-08
-4.78739e-05
2.63143e-08
-4.83538e-05
2.98296e-08
-4.8991e-05
3.22642e-08
-4.96353e-05
4.14066e-08
-5.05207e-05
1.34253e-07
-5.12908e-05
8.75409e-07
-5.30259e-05
6.85493e-06
-5.88599e-05
3.0215e-05
-7.76329e-05
6.79612e-05
-9.4135e-05
4.5742e-05
2.93014e-05
1.33484e-05
7.86626e-05
2.79053e-08
6.71319e-05
-6.4291e-06
4.96198e-05
-8.17088e-06
4.07438e-05
-8.50497e-06
3.46233e-05
-7.82644e-06
3.05758e-05
-6.89098e-06
2.75499e-05
-5.84511e-06
2.52362e-05
2.33474e-05
-4.83693e-06
-2.6324e-06
-4.448e-05
-5.32595e-06
-4.45495e-05
-8.15975e-06
-4.46619e-05
-1.11893e-05
-4.48543e-05
-1.45166e-05
-4.50365e-05
-1.82254e-05
-4.52923e-05
-2.23822e-05
-4.54886e-05
-2.72216e-05
-4.56915e-05
-3.24396e-05
-4.60831e-05
-3.88951e-05
-4.65808e-05
-4.52073e-05
-5.25588e-05
-5.39438e-05
-6.89082e-05
-6.56047e-05
-8.24635e-05
-7.09878e-05
3.46866e-05
-5.50959e-05
6.27717e-05
-3.48982e-05
4.69345e-05
-2.60074e-05
4.07293e-05
-1.95163e-05
3.42529e-05
-1.54529e-05
3.056e-05
-1.23726e-05
2.74957e-05
-1.00632e-05
2.52405e-05
-8.2066e-06
2.33797e-05
2.18334e-05
-6.6925e-06
-2.52037e-06
-4.19596e-05
-5.07832e-06
-4.19916e-05
-7.73919e-06
-4.2001e-05
-1.04996e-05
-4.20938e-05
-1.34855e-05
-4.20506e-05
-1.65809e-05
-4.21969e-05
-2.00783e-05
-4.19911e-05
-2.36525e-05
-4.21172e-05
-2.78965e-05
-4.18391e-05
-3.30922e-05
-4.1385e-05
-4.32814e-05
-4.23694e-05
-7.38297e-05
-3.83598e-05
-0.000115644
-4.06483e-05
-8.89994e-05
8.04225e-06
-5.48946e-05
2.86673e-05
-3.80455e-05
3.00856e-05
-2.74076e-05
3.00917e-05
-2.12205e-05
2.80659e-05
-1.69026e-05
2.62422e-05
-1.3826e-05
2.44192e-05
-1.14271e-05
2.28417e-05
-9.49493e-06
2.14476e-05
2.02273e-05
-7.88876e-06
-2.66102e-06
-3.92985e-05
-5.37439e-06
-3.92781e-05
-8.19956e-06
-3.91758e-05
-1.11924e-05
-3.91009e-05
-1.44245e-05
-3.88185e-05
-1.79801e-05
-3.86412e-05
-2.193e-05
-3.80411e-05
-2.64213e-05
-3.76259e-05
-3.15991e-05
-3.66612e-05
-3.744e-05
-3.55439e-05
-4.49358e-05
-3.48735e-05
-5.27502e-05
-3.05451e-05
-6.46081e-05
-2.87901e-05
-6.15241e-05
4.95854e-06
-4.7876e-05
1.50193e-05
-3.82394e-05
2.04493e-05
-3.01834e-05
2.20358e-05
-2.42342e-05
2.21169e-05
-1.96293e-05
2.16374e-05
-1.6072e-05
2.0862e-05
-1.32527e-05
2.00225e-05
-1.09889e-05
1.91839e-05
1.83751e-05
-9.13662e-06
-2.53766e-06
-3.67608e-05
-5.10899e-06
-3.67068e-05
-7.75704e-06
-3.65277e-05
-1.05039e-05
-3.6354e-05
-1.34199e-05
-3.59024e-05
-1.64992e-05
-3.55618e-05
-1.98996e-05
-3.46407e-05
-2.35963e-05
-3.39292e-05
-2.79452e-05
-3.23123e-05
-3.31551e-05
-3.03339e-05
-3.9986e-05
-2.80425e-05
-4.87562e-05
-2.17748e-05
-5.93843e-05
-1.81619e-05
-5.27253e-05
-1.70027e-06
-4.38024e-05
6.09659e-06
-3.59164e-05
1.25634e-05
-2.9171e-05
1.52905e-05
-2.39763e-05
1.69224e-05
-1.98131e-05
1.74743e-05
-1.6514e-05
1.7563e-05
-1.38388e-05
1.73474e-05
-1.16429e-05
1.69879e-05
1.65452e-05
-9.81298e-06
-2.5252e-06
-3.42356e-05
-5.08827e-06
-3.41437e-05
-7.7219e-06
-3.38941e-05
-1.04735e-05
-3.36024e-05
-1.3364e-05
-3.30119e-05
-1.64624e-05
-3.24634e-05
-1.97581e-05
-3.13449e-05
-2.33197e-05
-3.03675e-05
-2.71402e-05
-2.84918e-05
-3.10156e-05
-2.64584e-05
-3.5319e-05
-2.3739e-05
-3.82087e-05
-1.8885e-05
-4.15881e-05
-1.47824e-05
-4.00802e-05
-3.20805e-06
-3.6366e-05
2.38254e-06
-3.18162e-05
8.01374e-06
-2.732e-05
1.07944e-05
-2.32942e-05
1.28967e-05
-1.97863e-05
1.39665e-05
-1.68064e-05
1.45832e-05
-1.4281e-05
1.48222e-05
-1.2145e-05
1.48521e-05
1.4732e-05
-1.03318e-05
-2.37605e-06
-3.18595e-05
-4.77643e-06
-3.17433e-05
-7.22006e-06
-3.14504e-05
-9.73682e-06
-3.10856e-05
-1.23377e-05
-3.0411e-05
-1.50622e-05
-2.97389e-05
-1.79098e-05
-2.84972e-05
-2.09359e-05
-2.73414e-05
-2.41213e-05
-2.53064e-05
-2.74569e-05
-2.31227e-05
-3.09649e-05
-2.02309e-05
-3.40177e-05
-1.58321e-05
-3.68246e-05
-1.19754e-05
-3.51262e-05
-4.90637e-06
-3.24877e-05
-2.55807e-07
-2.88619e-05
4.38806e-06
-2.53406e-05
7.27311e-06
-2.2001e-05
9.55719e-06
-1.90345e-05
1.10001e-05
-1.64207e-05
1.19695e-05
-1.41544e-05
1.25559e-05
-1.21893e-05
1.28871e-05
1.30325e-05
-1.04896e-05
-2.26303e-06
-2.95965e-05
-4.54736e-06
-2.94589e-05
-6.86277e-06
-2.9135e-05
-9.24119e-06
-2.87072e-05
-1.16679e-05
-2.79842e-05
-1.41914e-05
-2.72153e-05
-1.67468e-05
-2.59418e-05
-1.93836e-05
-2.47046e-05
-2.19943e-05
-2.26957e-05
-2.44669e-05
-2.06501e-05
-2.68673e-05
-1.78305e-05
-2.83426e-05
-1.43567e-05
-2.9591e-05
-1.0727e-05
-2.89746e-05
-5.52269e-06
-2.75685e-05
-1.66188e-06
-2.53264e-05
2.14597e-06
-2.28983e-05
4.84515e-06
-2.03844e-05
7.04333e-06
-1.80019e-05
8.61769e-06
-1.57951e-05
9.76278e-06
-1.38066e-05
1.05675e-05
-1.20316e-05
1.1112e-05
1.14622e-05
-1.04614e-05
-2.09828e-06
-2.74982e-05
-4.20871e-06
-2.73485e-05
-6.33317e-06
-2.70105e-05
-8.49269e-06
-2.65476e-05
-1.06676e-05
-2.58093e-05
-1.2895e-05
-2.49879e-05
-1.51094e-05
-2.37273e-05
-1.73698e-05
-2.24441e-05
-1.95401e-05
-2.05253e-05
-2.16409e-05
-1.85492e-05
-2.35232e-05
-1.59482e-05
-2.49338e-05
-1.29461e-05
-2.58595e-05
-9.80117e-06
-2.54145e-05
-5.96759e-06
-2.43772e-05
-2.69914e-06
-2.26764e-05
4.45265e-07
-2.07825e-05
2.95124e-06
-1.87665e-05
5.02741e-06
-1.68032e-05
6.65451e-06
-1.49361e-05
7.89576e-06
-1.32123e-05
8.84377e-06
-1.16397e-05
9.53957e-06
1.00445e-05
-1.0222e-05
-1.9429e-06
-2.55553e-05
-3.89336e-06
-2.5398e-05
-5.84867e-06
-2.50552e-05
-7.82405e-06
-2.45722e-05
-9.79388e-06
-2.38394e-05
-1.17854e-05
-2.29964e-05
-1.37279e-05
-2.17848e-05
-1.5657e-05
-2.0515e-05
-1.74517e-05
-1.87306e-05
-1.90937e-05
-1.69072e-05
-2.04963e-05
-1.45456e-05
-2.14127e-05
-1.20298e-05
-2.19854e-05
-9.22844e-06
-2.17836e-05
-6.16929e-06
-2.1131e-05
-3.3517e-06
-1.99852e-05
-7.0042e-07
-1.86066e-05
1.57269e-06
-1.70693e-05
3.49012e-06
-1.54988e-05
5.0841e-06
-1.39547e-05
6.35164e-06
-1.24844e-05
7.3735e-06
-1.11111e-05
8.16631e-06
8.78086e-06
-9.84745e-06
-1.7723e-06
-2.37829e-05
-3.54668e-06
-2.36236e-05
-5.31687e-06
-2.3285e-05
-7.09083e-06
-2.27982e-05
-8.84362e-06
-2.20866e-05
-1.05933e-05
-2.12466e-05
-1.22775e-05
-2.01006e-05
-1.39289e-05
-1.88636e-05
-1.54335e-05
-1.72259e-05
-1.68165e-05
-1.55242e-05
-1.79445e-05
-1.34175e-05
-1.87652e-05
-1.1209e-05
-1.9206e-05
-8.7876e-06
-1.91075e-05
-6.26777e-06
-1.86232e-05
-3.836e-06
-1.77689e-05
-1.55462e-06
-1.66956e-05
4.99455e-07
-1.54762e-05
2.27082e-06
-1.4196e-05
3.8039e-06
-1.29109e-05
5.0666e-06
-1.16603e-05
6.12295e-06
-1.04706e-05
6.97663e-06
7.66727e-06
-9.35693e-06
-1.60803e-06
-2.21749e-05
-3.21479e-06
-2.20168e-05
-4.81242e-06
-2.16873e-05
-6.40353e-06
-2.12071e-05
-7.96503e-06
-2.05251e-05
-9.50539e-06
-1.97062e-05
-1.09728e-05
-1.86332e-05
-1.2383e-05
-1.74532e-05
-1.3649e-05
-1.59599e-05
-1.47776e-05
-1.43956e-05
-1.56797e-05
-1.25154e-05
-1.63087e-05
-1.05799e-05
-1.66498e-05
-8.44647e-06
-1.66216e-05
-6.29596e-06
-1.62933e-05
-4.16423e-06
-1.56819e-05
-2.16597e-06
-1.4871e-05
-3.11396e-07
-1.39221e-05
1.3219e-06
-1.28927e-05
2.77462e-06
-1.18345e-05
4.00839e-06
-1.07808e-05
5.06924e-06
-9.75935e-06
5.95522e-06
6.69496e-06
-8.78705e-06
-1.44314e-06
-2.07317e-05
-2.88225e-06
-2.05777e-05
-4.3085e-06
-2.0261e-05
-5.72037e-06
-1.97952e-05
-7.09764e-06
-1.91477e-05
-8.44275e-06
-1.83611e-05
-9.71427e-06
-1.73616e-05
-1.09216e-05
-1.62458e-05
-1.19959e-05
-1.48856e-05
-1.29491e-05
-1.34424e-05
-1.37004e-05
-1.17641e-05
-1.42468e-05
-1.00335e-05
-1.45351e-05
-8.15818e-06
-1.45501e-05
-6.28087e-06
-1.43135e-05
-4.40087e-06
-1.38562e-05
-2.62323e-06
-1.32247e-05
-9.42802e-07
-1.24713e-05
5.6844e-07
-1.16355e-05
1.93893e-06
-1.07608e-05
3.1337e-06
-9.87428e-06
4.18281e-06
-9.00148e-06
5.08249e-06
5.85212e-06
-8.15865e-06
-1.28648e-06
-1.94452e-05
-2.56732e-06
-1.92968e-05
-3.83351e-06
-1.89948e-05
-5.08076e-06
-1.85479e-05
-6.29179e-06
-1.79366e-05
-7.46424e-06
-1.71886e-05
-8.56598e-06
-1.62598e-05
-9.59844e-06
-1.52133e-05
-1.05115e-05
-1.39725e-05
-1.13085e-05
-1.26454e-05
-1.19347e-05
-1.11378e-05
-1.23866e-05
-9.58165e-06
-1.2634e-05
-7.91065e-06
-1.26729e-05
-6.24203e-06
-1.25111e-05
-4.56261e-06
-1.21733e-05
-2.96095e-06
-1.1687e-05
-1.42909e-06
-1.10922e-05
-2.63482e-08
-1.04175e-05
1.26424e-06
-9.69808e-06
2.41429e-06
-8.95664e-06
3.44142e-06
-8.21565e-06
4.34161e-06
5.12697e-06
-7.49044e-06
-1.13376e-06
-1.83114e-05
-2.26103e-06
-1.81695e-05
-3.37311e-06
-1.78826e-05
-4.46414e-06
-1.74568e-05
-5.51959e-06
-1.68811e-05
-6.53449e-06
-1.61736e-05
-7.4843e-06
-1.531e-05
-8.36679e-06
-1.43308e-05
-9.14531e-06
-1.3194e-05
-9.82108e-06
-1.19696e-05
-1.03527e-05
-1.06061e-05
-1.07423e-05
-9.19213e-06
-1.09612e-05
-7.69168e-06
-1.10154e-05
-6.18787e-06
-1.09047e-05
-4.67331e-06
-1.06514e-05
-3.21424e-06
-1.02726e-05
-1.80792e-06
-9.79927e-06
-4.99609e-07
-9.25295e-06
7.17928e-07
-8.66121e-06
1.82252e-06
-8.04293e-06
2.82307e-06
-7.41704e-06
3.71571e-06
4.50726e-06
-6.7973e-06
-9.91534e-07
-1.73198e-05
-1.97613e-06
-1.71847e-05
-2.94548e-06
-1.69132e-05
-3.89296e-06
-1.65093e-05
-4.80639e-06
-1.59677e-05
-5.67946e-06
-1.53005e-05
-6.49354e-06
-1.44959e-05
-7.24381e-06
-1.35805e-05
-7.90433e-06
-1.25334e-05
-8.47304e-06
-1.14009e-05
-8.92205e-06
-1.01571e-05
-9.25166e-06
-8.86249e-06
-9.44408e-06
-7.49929e-06
-9.50429e-06
-6.12761e-06
-9.43171e-06
-4.74587e-06
-9.24276e-06
-3.40315e-06
-8.94914e-06
-2.10151e-06
-8.57392e-06
-8.74858e-07
-8.13339e-06
2.77476e-07
-7.64907e-06
1.33828e-06
-7.13665e-06
2.31064e-06
-6.61184e-06
3.19084e-06
3.98209e-06
-6.08665e-06
-8.52053e-07
-1.64677e-05
-1.69769e-06
-1.6339e-05
-2.52948e-06
-1.60813e-05
-3.34091e-06
-1.56978e-05
-4.12188e-06
-1.51867e-05
-4.86569e-06
-1.45567e-05
-5.55807e-06
-1.38035e-05
-6.19322e-06
-1.29454e-05
-6.75249e-06
-1.19741e-05
-7.23253e-06
-1.09209e-05
-7.61376e-06
-9.77587e-06
-7.89605e-06
-8.58019e-06
-8.06636e-06
-7.32899e-06
-8.1294e-06
-6.06454e-06
-8.08436e-06
-4.79089e-06
-7.94374e-06
-3.54374e-06
-7.7162e-06
-2.32903e-06
-7.41893e-06
-1.17218e-06
-7.06484e-06
-7.66606e-08
-6.67043e-06
9.43879e-07
-6.24857e-06
1.88875e-06
-5.81213e-06
2.75427e-06
3.54132e-06
-5.37136e-06
-7.24857e-07
-1.57428e-05
-1.44349e-06
-1.56203e-05
-2.14904e-06
-1.53757e-05
-2.83527e-06
-1.50115e-05
-3.49384e-06
-1.4528e-05
-4.11843e-06
-1.39321e-05
-4.69824e-06
-1.32236e-05
-5.22759e-06
-1.2416e-05
-5.69326e-06
-1.15085e-05
-6.09133e-06
-1.05228e-05
-6.40879e-06
-9.4584e-06
-6.64484e-06
-8.34414e-06
-6.79112e-06
-7.18263e-06
-6.85107e-06
-6.00456e-06
-6.82448e-06
-4.8174e-06
-6.7203e-06
-3.64784e-06
-6.54515e-06
-2.50413e-06
-6.31152e-06
-1.40572e-06
-6.02957e-06
-3.58623e-07
-5.71176e-06
6.26097e-07
-5.36851e-06
1.54552e-06
-5.01021e-06
2.3959e-06
3.17657e-06
-4.64546e-06
-5.97869e-07
-1.51448e-05
-1.19074e-06
-1.50274e-05
-1.77306e-06
-1.47933e-05
-2.33943e-06
-1.44451e-05
-2.88306e-06
-1.39844e-05
-3.39819e-06
-1.3417e-05
-3.87647e-06
-1.27453e-05
-4.31255e-06
-1.198e-05
-4.69689e-06
-1.11241e-05
-5.02559e-06
-1.01941e-05
-5.28956e-06
-9.19442e-06
-5.48743e-06
-8.14628e-06
-5.61354e-06
-7.05646e-06
-5.67021e-06
-5.94786e-06
-5.65767e-06
-4.82993e-06
-5.58231e-06
-3.72317e-06
-5.44935e-06
-2.63704e-06
-5.26798e-06
-1.58705e-06
-5.04629e-06
-5.80395e-07
-4.79377e-06
3.73522e-07
-4.51869e-06
1.27045e-06