/*--------------------------------*- C++ -*----------------------------------*\
| =========                 |                                                 |
| \\      /  F ield         | OpenFOAM: The Open Source CFD Toolbox           |
|  \\    /   O peration     | Version:  2012                                  |
|   \\  /    A nd           | Website:  www.openfoam.com                      |
|    \\/     M anipulation  |                                                 |
\*---------------------------------------------------------------------------*/
FoamFile
{
    version     2.0;
    format      ascii;
    class       volVectorField;
    location    "0.03";
    object      Uc;
}
// * * * * * * * * * * * * * * * * * * * * * * * * * * * * * * * * * * * * * //

dimensions      [0 1 -1 0 0 0 0];


internalField   nonuniform List<vector> 
2268
(
(0.0117291 -0.0055431 0)
(0.0353805 -0.00563438 0)
(0.0596073 -0.00581509 0)
(0.0848658 -0.00612191 0)
(0.111652 -0.00653713 0)
(0.14069 -0.00718589 0)
(0.172837 -0.00800662 0)
(0.209479 -0.00931009 0)
(0.252845 -0.0111844 0)
(0.305946 -0.013911 0)
(0.379155 -0.0206867 0)
(0.484723 -0.0292043 0)
(0.626093 -0.0376145 0)
(0.793157 -0.0412817 0)
(0.89882 -0.00857923 0)
(0.820876 0.0454259 0)
(0.610516 0.0539886 0)
(0.429012 0.0317877 0)
(0.317329 0.0209921 0)
(0.237136 0.0169054 0)
(0.16865 0.0154595 0)
(0.102699 0.0157078 0)
(0.0347304 0.0164129 0)
(0.0116859 -0.0166089 0)
(0.0352475 -0.0168811 0)
(0.0593734 -0.0174196 0)
(0.0845106 -0.0183341 0)
(0.111137 -0.0195676 0)
(0.139963 -0.0215015 0)
(0.171764 -0.0239121 0)
(0.20795 -0.0278225 0)
(0.250169 -0.0331193 0)
(0.301816 -0.0414791 0)
(0.368586 -0.0592714 0)
(0.45763 -0.0825921 0)
(0.579114 -0.108472 0)
(0.716566 -0.11422 0)
(0.784761 -0.0176516 0)
(0.700566 0.131141 0)
(0.535095 0.145888 0)
(0.401258 0.088914 0)
(0.307798 0.0608131 0)
(0.23384 0.049933 0)
(0.167746 0.0460317 0)
(0.102753 0.047017 0)
(0.0348701 0.0493048 0)
(0.0116002 -0.0276137 0)
(0.0349837 -0.0280622 0)
(0.05891 -0.0289477 0)
(0.083808 -0.0304523 0)
(0.110124 -0.0324696 0)
(0.138533 -0.0356487 0)
(0.169692 -0.0395189 0)
(0.204953 -0.045981 0)
(0.245396 -0.0540265 0)
(0.294256 -0.0680704 0)
(0.353638 -0.0922986 0)
(0.427541 -0.126573 0)
(0.526786 -0.1688 0)
(0.632883 -0.168842 0)
(0.659443 -0.00765871 0)
(0.567578 0.204363 0)
(0.452811 0.205105 0)
(0.367597 0.133217 0)
(0.293465 0.0957108 0)
(0.228147 0.0808546 0)
(0.166412 0.0755193 0)
(0.103457 0.0779953 0)
(0.0354592 0.0825411 0)
(0.0114739 -0.0385184 0)
(0.034595 -0.0391352 0)
(0.0582282 -0.0403509 0)
(0.0827759 -0.0424168 0)
(0.108641 -0.0451656 0)
(0.136446 -0.0495197 0)
(0.166702 -0.0546721 0)
(0.200627 -0.0635247 0)
(0.238822 -0.0736468 0)
(0.283804 -0.0927991 0)
(0.335624 -0.120123 0)
(0.395939 -0.162179 0)
(0.467237 -0.213678 0)
(0.53851 -0.207543 0)
(0.538948 0.0184203 0)
(0.45906 0.259459 0)
(0.390106 0.236834 0)
(0.3379 0.16643 0)
(0.279045 0.125344 0)
(0.221919 0.109086 0)
(0.164758 0.103476 0)
(0.104007 0.108501 0)
(0.0359975 0.11631 0)
(0.0113087 -0.0492853 0)
(0.0340869 -0.05006 0)
(0.057339 -0.0515838 0)
(0.0814335 -0.0541719 0)
(0.106725 -0.0575867 0)
(0.133765 -0.0630183 0)
(0.162927 -0.0692539 0)
(0.195242 -0.0802475 0)
(0.230988 -0.0918682 0)
(0.271739 -0.115094 0)
(0.316373 -0.143411 0)
(0.364741 -0.190253 0)
(0.413028 -0.241894 0)
(0.458339 -0.234077 0)
(0.445655 0.0508686 0)
(0.382388 0.294668 0)
(0.343879 0.252411 0)
(0.31065 0.191228 0)
(0.264866 0.149996 0)
(0.216564 0.134257 0)
(0.165615 0.129395 0)
(0.108061 0.13849 0)
(0.038307 0.151425 0)
(0.0111086 -0.0598796 0)
(0.0334721 -0.0607995 0)
(0.0562659 -0.0626053 0)
(0.0798191 -0.0656684 0)
(0.104436 -0.0696764 0)
(0.130584 -0.0760652 0)
(0.158523 -0.0831926 0)
(0.189047 -0.0960061 0)
(0.222226 -0.108683 0)
(0.258731 -0.13479 0)
(0.296928 -0.16286 0)
(0.335627 -0.211952 0)
(0.36903 -0.258518 0)
(0.396812 -0.251594 0)
(0.376241 0.0842237 0)
(0.328717 0.313676 0)
(0.310043 0.260428 0)
(0.287249 0.209687 0)
(0.25118 0.17022 0)
(0.210051 0.156297 0)
(0.164155 0.153121 0)
(0.109141 0.167961 0)
(0.0391138 0.188013 0)
(0.0108745 -0.0702687 0)
(0.0327539 -0.0713193 0)
(0.0550149 -0.073378 0)
(0.0779431 -0.0768625 0)
(0.101792 -0.0813869 0)
(0.126937 -0.0885955 0)
(0.153545 -0.0964407 0)
(0.18216 -0.110706 0)
(0.212706 -0.124099 0)
(0.245152 -0.15196 0)
(0.277653 -0.179101 0)
(0.308599 -0.228624 0)
(0.332478 -0.268596 0)
(0.348855 -0.261949 0)
(0.324864 0.115757 0)
(0.290085 0.321042 0)
(0.283436 0.26503 0)
(0.267702 0.223294 0)
(0.240593 0.18647 0)
(0.208358 0.174717 0)
(0.172078 0.173536 0)
(0.12287 0.1968 0)
(0.0463803 0.228417 0)
(0.0106123 -0.0804232 0)
(0.03195 -0.0815889 0)
(0.0536193 -0.0838697 0)
(0.0758603 -0.0877176 0)
(0.0988793 -0.0926814 0)
(0.122956 -0.100563 0)
(0.14819 -0.108973 0)
(0.174872 -0.124306 0)
(0.202817 -0.138142 0)
(0.231517 -0.166815 0)
(0.259087 -0.192636 0)
(0.283687 -0.24134 0)
(0.300794 -0.274899 0)
(0.310644 -0.267578 0)
(0.287355 0.143845 0)
(0.261602 0.321566 0)
(0.260958 0.267955 0)
(0.24973 0.233112 0)
(0.228885 0.199316 0)
(0.202403 0.189621 0)
(0.171678 0.190299 0)
(0.126107 0.224828 0)
(0.0484547 0.273235 0)
(0.00987423 -0.00420018 0)
(0.0276282 -0.00335187 0)
(0.0400696 -0.00194045 0)
(0.047085 -0.00104378 0)
(0.0501387 -0.000255225 0)
(0.0502801 0.000195029 0)
(0.048622 0.000510245 0)
(0.0458042 0.000688269 0)
(0.0423163 0.000795179 0)
(0.0384495 0.000849416 0)
(0.0343948 0.000875158 0)
(0.0302623 0.000882567 0)
(0.026118 0.000880148 0)
(0.0219972 0.00087257 0)
(0.0179161 0.00086323 0)
(0.0138789 0.000854073 0)
(0.00988154 0.000846279 0)
(0.00591556 0.000840602 0)
(0.00196956 0.000837772 0)
(0.010153 -0.0127192 0)
(0.0283485 -0.0101248 0)
(0.0409021 -0.00579977 0)
(0.0477761 -0.00309265 0)
(0.0506483 -0.000727058 0)
(0.0506232 0.000617343 0)
(0.0488358 0.00155335 0)
(0.0459313 0.00207899 0)
(0.0423886 0.00239463 0)
(0.0384871 0.00255399 0)
(0.034411 0.00262889 0)
(0.0302659 0.00264962 0)
(0.0261147 0.00264141 0)
(0.0219906 0.00261816 0)
(0.0179087 0.00258978 0)
(0.0138719 0.00256197 0)
(0.00987598 0.00253835 0)
(0.00591203 0.00252142 0)
(0.00196838 0.00251288 0)
(0.01092 -0.0216831 0)
(0.0302063 -0.0171047 0)
(0.0429049 -0.00956148 0)
(0.0493484 -0.00499568 0)
(0.051747 -0.00106598 0)
(0.0513366 0.0011415 0)
(0.0492751 0.00266618 0)
(0.0461892 0.00351398 0)
(0.0425325 0.00402171 0)
(0.0385609 0.00427569 0)
(0.0344422 0.00439278 0)
(0.0302723 0.00442239 0)
(0.0261076 0.00440561 0)
(0.0219772 0.00436498 0)
(0.0178935 0.0043164 0)
(0.0138578 0.00426908 0)
(0.00986475 0.00422918 0)
(0.00590496 0.00420096 0)
(0.00196601 0.00418645 0)
(0.0117394 -0.0313217 0)
(0.0323438 -0.0244343 0)
(0.0453919 -0.0131836 0)
(0.0513896 -0.00666546 0)
(0.0532161 -0.00119338 0)
(0.0523124 0.00182784 0)
(0.049884 0.00388961 0)
(0.0465507 0.00502089 0)
(0.0427343 0.00569351 0)
(0.0386632 0.00602493 0)
(0.034484 0.00617297 0)
(0.0302787 0.00620438 0)
(0.026095 0.00617451 0)
(0.0219558 0.00611362 0)
(0.0178698 0.00604288 0)
(0.0138361 0.00597484 0)
(0.00984775 0.00591812 0)
(0.00589425 0.00587812 0)
(0.00196234 0.00585728 0)
(0.0137874 -0.0421799 0)
(0.0370748 -0.0322461 0)
(0.0501282 -0.0164743 0)
(0.0548239 -0.00792318 0)
(0.0554698 -0.000987395 0)
(0.0537089 0.00275518 0)
(0.0507154 0.00526849 0)
(0.0470294 0.00662771 0)
(0.0429944 0.00742639 0)
(0.0387914 0.00781141 0)
(0.0345336 0.00797506 0)
(0.0302832 0.00799866 0)
(0.0260754 0.00794958 0)
(0.0219255 0.00786451 0)
(0.0178371 0.00776906 0)
(0.0138064 0.00767878 0)
(0.00982465 0.00760433 0)
(0.00587964 0.00755172 0)
(0.00195732 0.00752436 0)
(0.0148434 -0.0543584 0)
(0.0402766 -0.0407915 0)
(0.0541664 -0.0193895 0)
(0.0580474 -0.00865631 0)
(0.0576901 -0.000377281 0)
(0.0551505 0.0039741 0)
(0.0516 0.00683304 0)
(0.0475473 0.00835488 0)
(0.0432755 0.00923254 0)
(0.0389267 0.00964257 0)
(0.0345808 0.00980328 0)
(0.0302801 0.00980755 0)
(0.0260455 0.0097318 0)
(0.0218841 0.00961775 0)
(0.017794 0.00949454 0)
(0.013768 0.00938023 0)
(0.00979492 0.00928671 0)
(0.00586089 0.00922072 0)
(0.00195091 0.0091868 0)
(0.0203642 -0.0693344 0)
(0.0515314 -0.0498913 0)
(0.0636443 -0.0213505 0)
(0.0640035 -0.00849926 0)
(0.0611901 0.000813966 0)
(0.0571604 0.00557691 0)
(0.0527273 0.00862599 0)
(0.0481683 0.010225 0)
(0.0435972 0.0111236 0)
(0.0390736 0.0115251 0)
(0.0346256 0.011661 0)
(0.0302678 0.0116327 0)
(0.0260039 0.0115216 0)
(0.0218306 0.0113731 0)
(0.0177399 0.0112187 0)
(0.0137204 0.0110782 0)
(0.00975824 0.0109641 0)
(0.00583792 0.0108841 0)
(0.00194313 0.0108434 0)
(0.0269517 -0.0894609 0)
(0.0611628 -0.0575746 0)
(0.0691466 -0.0222161 0)
(0.0679463 -0.0072764 0)
(0.0636436 0.00261761 0)
(0.0587184 0.00758215 0)
(0.0536637 0.0106563 0)
(0.0487041 0.0122433 0)
(0.0438752 0.0131033 0)
(0.0391919 0.0134613 0)
(0.0346477 0.0135495 0)
(0.0302356 0.0134744 0)
(0.0259443 0.0133188 0)
(0.0217613 0.01313 0)
(0.0176725 0.0129408 0)
(0.0136622 0.0127716 0)
(0.00971386 0.0126354 0)
(0.00581032 0.0125407 0)
(0.00193381 0.0124924 0)
(0.0101639 -0.0956555 0)
(0.0305778 -0.0969612 0)
(0.0512441 -0.0995124 0)
(0.0723323 -0.103784 0)
(0.0939813 -0.109255 0)
(0.116334 -0.117837 0)
(0.139417 -0.126828 0)
(0.163208 -0.142977 0)
(0.187438 -0.157035 0)
(0.21126 -0.185431 0)
(0.232968 -0.208871 0)
(0.250633 -0.254489 0)
(0.262732 -0.281403 0)
(0.269543 -0.271817 0)
(0.249774 0.179131 0)
(0.230974 0.317354 0)
(0.233096 0.270341 0)
(0.228102 0.241054 0)
(0.218292 0.211088 0)
(0.209106 0.199598 0)
(0.207006 0.196953 0)
(0.225633 0.220986 0)
(0.279277 0.259852 0)
(0.00945812 -0.11538 0)
(0.0284251 -0.116823 0)
(0.0475413 -0.119641 0)
(0.0668909 -0.124305 0)
(0.0865341 -0.130242 0)
(0.106477 -0.139367 0)
(0.126671 -0.148801 0)
(0.146866 -0.165219 0)
(0.166737 -0.179124 0)
(0.185399 -0.206049 0)
(0.201507 -0.226266 0)
(0.213573 -0.26698 0)
(0.221161 -0.28784 0)
(0.223463 -0.273473 0)
(0.207471 0.216946 0)
(0.196051 0.309924 0)
(0.200367 0.271304 0)
(0.199554 0.24593 0)
(0.195644 0.220005 0)
(0.19171 0.203871 0)
(0.191893 0.194607 0)
(0.206164 0.190263 0)
(0.244758 0.197858 0)
(0.00870861 -0.133642 0)
(0.0261464 -0.135157 0)
(0.0436452 -0.138113 0)
(0.0612208 -0.14295 0)
(0.0788727 -0.149087 0)
(0.0965147 -0.158303 0)
(0.114053 -0.167795 0)
(0.13113 -0.183692 0)
(0.147417 -0.196997 0)
(0.162119 -0.221713 0)
(0.174246 -0.238985 0)
(0.182701 -0.27489 0)
(0.18733 -0.291288 0)
(0.185497 -0.269391 0)
(0.17222 0.242472 0)
(0.167009 0.301122 0)
(0.173335 0.269411 0)
(0.176003 0.245961 0)
(0.176881 0.223023 0)
(0.177484 0.204202 0)
(0.180524 0.191037 0)
(0.187577 0.172398 0)
(0.200748 0.163688 0)
(0.00793718 -0.150374 0)
(0.0238084 -0.151907 0)
(0.0396705 -0.154898 0)
(0.05549 -0.159735 0)
(0.0712226 -0.165861 0)
(0.0867317 -0.174853 0)
(0.101898 -0.18412 0)
(0.116343 -0.199055 0)
(0.129768 -0.211503 0)
(0.141515 -0.233794 0)
(0.150895 -0.248525 0)
(0.157086 -0.280071 0)
(0.160257 -0.292978 0)
(0.154911 -0.259358 0)
(0.142543 0.258378 0)
(0.141354 0.291655 0)
(0.148492 0.265346 0)
(0.152768 0.24305 0)
(0.155621 0.222184 0)
(0.15769 0.202355 0)
(0.160617 0.186886 0)
(0.164408 0.165649 0)
(0.170537 0.151038 0)
(0.00717199 -0.165562 0)
(0.0214952 -0.167071 0)
(0.0357576 -0.170016 0)
(0.0498917 -0.174727 0)
(0.0638241 -0.180689 0)
(0.0773949 -0.189257 0)
(0.0904734 -0.198108 0)
(0.102702 -0.21188 0)
(0.11382 -0.223348 0)
(0.123297 -0.243284 0)
(0.130668 -0.255873 0)
(0.135315 -0.283617 0)
(0.137541 -0.293859 0)
(0.128373 -0.242759 0)
(0.115725 0.267059 0)
(0.118048 0.281838 0)
(0.126185 0.259812 0)
(0.131853 0.238591 0)
(0.136171 0.219436 0)
(0.139291 0.199888 0)
(0.142142 0.183545 0)
(0.144301 0.163008 0)
(0.145715 0.146097 0)
(0.00642852 -0.179234 0)
(0.0192529 -0.180689 0)
(0.0319812 -0.18353 0)
(0.0445256 -0.188031 0)
(0.0567957 -0.193724 0)
(0.0686263 -0.201755 0)
(0.0798865 -0.210075 0)
(0.0902573 -0.222631 0)
(0.0995205 -0.233085 0)
(0.107257 -0.250851 0)
(0.11316 -0.261648 0)
(0.116752 -0.286124 0)
(0.118369 -0.294208 0)
(0.10527 -0.218912 0)
(0.091523 0.269857 0)
(0.096733 0.27147 0)
(0.105591 0.253098 0)
(0.11207 0.233096 0)
(0.117068 0.215567 0)
(0.120627 0.197045 0)
(0.123351 0.180784 0)
(0.125003 0.161938 0)
(0.125524 0.145221 0)
(0.00571845 -0.191444 0)
(0.0171156 -0.192826 0)
(0.0283953 -0.195526 0)
(0.0394598 -0.199768 0)
(0.0502107 -0.205129 0)
(0.0604885 -0.212574 0)
(0.0701684 -0.220305 0)
(0.0789746 -0.231677 0)
(0.0867285 -0.241144 0)
(0.0930975 -0.256972 0)
(0.0978824 -0.26627 0)
(0.100707 -0.287952 0)
(0.101887 -0.294191 0)
(0.0851175 -0.187816 0)
(0.0700762 0.267789 0)
(0.07776 0.260579 0)
(0.0872259 0.24557 0)
(0.0942961 0.227004 0)
(0.0997654 0.211138 0)
(0.103666 0.193978 0)
(0.106375 0.178391 0)
(0.107759 0.16128 0)
(0.107698 0.145417 0)
(0.00505122 -0.20227 0)
(0.0151103 -0.203569 0)
(0.0250416 -0.206105 0)
(0.0347437 -0.210063 0)
(0.0441175 -0.215063 0)
(0.0530143 -0.221915 0)
(0.0613193 -0.229044 0)
(0.0687984 -0.239309 0)
(0.0753081 -0.24785 0)
(0.0805832 -0.26197 0)
(0.0845004 -0.270019 0)
(0.0867565 -0.289311 0)
(0.0875983 -0.293885 0)
(0.0679404 -0.150454 0)
(0.0517953 0.261849 0)
(0.0611602 0.249382 0)
(0.0708226 0.237539 0)
(0.0781096 0.220604 0)
(0.0837117 0.206409 0)
(0.0877345 0.190742 0)
(0.0904666 0.176158 0)
(0.0919024 0.160679 0)
(0.0919994 0.145982 0)
(0.00442229 -0.211793 0)
(0.0132233 -0.213005 0)
(0.0218958 -0.21537 0)
(0.0303415 -0.21904 0)
(0.0384653 -0.223675 0)
(0.0461335 -0.229954 0)
(0.0532436 -0.2365 0)
(0.0595986 -0.24576 0)
(0.0650841 -0.253458 0)
(0.0694847 -0.266089 0)
(0.0727253 -0.273096 0)
(0.0745508 -0.290337 0)
(0.0751148 -0.293325 0)
(0.0536583 -0.108682 0)
(0.0369568 0.253151 0)
(0.0472938 0.238275 0)
(0.0568088 0.229368 0)
(0.064002 0.214219 0)
(0.0694806 0.201656 0)
(0.0734371 0.187475 0)
(0.0761111 0.173991 0)
(0.0775728 0.159934 0)
(0.0778288 0.146373 0)
(0.00385162 -0.22011 0)
(0.011512 -0.221235 0)
(0.0190457 -0.223431 0)
(0.0263588 -0.226821 0)
(0.0333614 -0.2311 0)
(0.0399337 -0.236844 0)
(0.0459856 -0.242841 0)
(0.0513532 -0.251202 0)
(0.0559468 -0.258147 0)
(0.0595938 -0.269489 0)
(0.062256 -0.275629 0)
(0.0637303 -0.291121 0)
(0.0640294 -0.292508 0)
(0.042179 -0.0650204 0)
(0.0256165 0.242971 0)
(0.0358832 0.227744 0)
(0.044692 0.22148 0)
(0.0513752 0.208159 0)
(0.0564612 0.197097 0)
(0.0602008 0.184297 0)
(0.0627914 0.171877 0)
(0.0643351 0.159028 0)
(0.0648625 0.146492 0)
(0.00329032 -0.22729 0)
(0.00983325 -0.228333 0)
(0.0162647 -0.230371 0)
(0.0225029 -0.233503 0)
(0.02847 -0.237456 0)
(0.0340641 -0.242719 0)
(0.0392087 -0.248221 0)
(0.0437669 -0.255799 0)
(0.0476669 -0.262088 0)
(0.0507583 -0.272322 0)
(0.0530182 -0.277744 0)
(0.0542474 -0.291723 0)
(0.0543235 -0.291434 0)
(0.0331268 -0.021939 0)
(0.0174657 0.232316 0)
(0.0273189 0.218174 0)
(0.035174 0.214299 0)
(0.0410099 0.202755 0)
(0.0453765 0.192999 0)
(0.0486069 0.18139 0)
(0.0508953 0.169881 0)
(0.0523612 0.157999 0)
(0.0530376 0.146312 0)
(0.00282207 -0.233434 0)
(0.00842944 -0.234402 0)
(0.0139279 -0.236294 0)
(0.0192399 -0.239191 0)
(0.0242927 -0.242845 0)
(0.0289959 -0.24768 0)
(0.0332822 -0.25274 0)
(0.0370395 -0.259639 0)
(0.0402087 -0.265354 0)
(0.0426747 -0.274642 0)
(0.0444383 -0.279468 0)
(0.0453903 -0.292192 0)
(0.0451606 -0.290028 0)
(0.0269038 0.0171249 0)
(0.0132881 0.222709 0)
(0.0208922 0.210233 0)
(0.0268068 0.208399 0)
(0.0311912 0.198382 0)
(0.0345702 0.189587 0)
(0.0372454 0.178866 0)
(0.0393093 0.16803 0)
(0.040815 0.156863 0)
(0.0417473 0.145831 0)
(0.00230907 -0.238592 0)
(0.00689671 -0.239493 0)
(0.0113945 -0.241252 0)
(0.0157408 -0.243941 0)
(0.019879 -0.247334 0)
(0.0237436 -0.251804 0)
(0.0272884 -0.256488 0)
(0.03044 -0.262836 0)
(0.0331697 -0.268087 0)
(0.0353842 -0.276615 0)
(0.0370871 -0.280981 0)
(0.0380144 -0.292569 0)
(0.0379662 -0.288664 0)
(0.02211 0.0507816 0)
(0.0107061 0.214224 0)
(0.0173425 0.204404 0)
(0.0213142 0.204292 0)
(0.0239765 0.195407 0)
(0.0259977 0.187135 0)
(0.0277063 0.176913 0)
(0.0291785 0.16643 0)
(0.0304366 0.155686 0)
(0.0314166 0.145087 0)
(0.00191488 -0.242838 0)
(0.00571704 -0.24368 0)
(0.00943619 -0.245324 0)
(0.0130151 -0.247835 0)
(0.0163962 -0.250998 0)
(0.0195149 -0.255159 0)
(0.0223127 -0.259508 0)
(0.0247145 -0.265398 0)
(0.0266736 -0.270238 0)
(0.0281471 -0.278171 0)
(0.0291284 -0.282123 0)
(0.0296148 -0.292847 0)
(0.0292279 -0.28732 0)
(0.0231355 0.0721456 0)
(0.0171513 0.210357 0)
(0.0160493 0.20271 0)
(0.0151597 0.202889 0)
(0.0150095 0.194286 0)
(0.0154879 0.185745 0)
(0.0165669 0.175501 0)
(0.0179441 0.164978 0)
(0.0194372 0.154373 0)
(0.020839 0.144006 0)
(0.00150883 -0.246279 0)
(0.00450695 -0.247075 0)
(0.00744598 -0.248623 0)
(0.0102887 -0.250992 0)
(0.0129999 -0.253966 0)
(0.0155536 -0.257894 0)
(0.0179279 -0.261973 0)
(0.0201241 -0.267555 0)
(0.0221334 -0.27207 0)
(0.0239621 -0.279658 0)
(0.0255667 -0.283235 0)
(0.0264828 -0.293145 0)
(0.0318533 -0.291471 0)
(0.0281819 0.086688 0)
(0.0187946 0.211282 0)
(0.0168016 0.204897 0)
(0.0134294 0.204988 0)
(0.010349 0.195436 0)
(0.00864027 0.185833 0)
(0.00817588 0.174797 0)
(0.00871432 0.163759 0)
(0.00986082 0.152941 0)
(0.0113048 0.142578 0)
(0.00113392 -0.248936 0)
(0.00338294 -0.249693 0)
(0.00557396 -0.251162 0)
(0.00766587 -0.253413 0)
(0.00961212 -0.256226 0)
(0.0113569 -0.259954 0)
(0.0128357 -0.263786 0)
(0.0139553 -0.269076 0)
(0.0146287 -0.273247 0)
(0.014741 -0.280432 0)
(0.0142729 -0.283603 0)
(0.0134726 -0.292893 0)
(0.0135392 -0.296678 0)
(0.0304753 0.0790833 0)
(0.0370507 0.221727 0)
(0.0164603 0.217156 0)
(0.00195673 0.210701 0)
(-0.00411893 0.198929 0)
(-0.0065366 0.18649 0)
(-0.0060827 0.174152 0)
(-0.00441034 0.162182 0)
(-0.00204317 0.150986 0)
(0.000492552 0.140533 0)
(0.000749148 -0.250829 0)
(0.00223839 -0.251557 0)
(0.00369988 -0.252969 0)
(0.00512171 -0.255139 0)
(0.00649332 -0.257836 0)
(0.00783616 -0.261448 0)
(0.00916481 -0.265114 0)
(0.010644 -0.27036 0)
(0.0123442 -0.274349 0)
(0.0149953 -0.282108 0)
(0.0185351 -0.285015 0)
(0.0272033 -0.29655 0)
(0.0517271 -0.314336 0)
(0.0592293 0.0727638 0)
(0.0377829 0.243021 0)
(0.0192878 0.235153 0)
(0.00436522 0.222285 0)
(-0.00685247 0.20473 0)
(-0.0121711 0.188467 0)
(-0.0141032 0.173663 0)
(-0.0134074 0.160292 0)
(-0.0113594 0.148439 0)
(-0.00863657 0.137796 0)
(0.000448102 -0.252035 0)
(0.00133381 -0.252743 0)
(0.00218754 -0.254114 0)
(0.00298194 -0.256225 0)
(0.00368676 -0.258841 0)
(0.00423489 -0.262349 0)
(0.0045728 -0.265895 0)
(0.00444421 -0.270943 0)
(0.0037596 -0.274792 0)
(0.00143759 -0.282002 0)
(-0.00233164 -0.284899 0)
(-0.00975814 -0.295118 0)
(-0.0284166 -0.318102 0)
(-0.0189561 0.060261 0)
(0.00600898 0.252009 0)
(-0.0154557 0.266336 0)
(-0.04069 0.231471 0)
(-0.0431688 0.209314 0)
(-0.0416062 0.187661 0)
(-0.0363997 0.171179 0)
(-0.0309472 0.156597 0)
(-0.0253745 0.144474 0)
(-0.0202469 0.133869 0)
(1.61538e-05 -0.253303 0)
(4.80058e-05 -0.254005 0)
(7.82634e-05 -0.255361 0)
(0.000106157 -0.257444 0)
(0.00013036 -0.260021 0)
(0.000150662 -0.26344 0)
(0.000166628 -0.266898 0)
(0.000197695 -0.27163 0)
(0.000471382 -0.275534 0)
(0.00270942 -0.283094 0)
(0.0207443 -0.300278 0)
(0.099477 -0.35421 0)
(0.263455 -0.406167 0)
(0.305122 0.097823 0)
(0.158569 0.336998 0)
(0.0358952 0.326244 0)
(-0.0171776 0.250281 0)
(-0.039179 0.215114 0)
(-0.0447496 0.185891 0)
(-0.0438253 0.166787 0)
(-0.0394941 0.151155 0)
(-0.0341772 0.13897 0)
(-0.0286652 0.128679 0)
(-0.00706402 -0.247044 0)
(-0.0213562 -0.247584 0)
(-0.0361888 -0.248569 0)
(-0.0519231 -0.250135 0)
(-0.0689818 -0.251921 0)
(-0.0878632 -0.25433 0)
(-0.10897 -0.256597 0)
(-0.133112 -0.259533 0)
(-0.160101 -0.262667 0)
(-0.191426 -0.26869 0)
(-0.225688 -0.300552 0)
(-0.266072 -0.395295 0)
(-0.320808 -0.476375 0)
(-0.366545 0.172608 0)
(-0.338345 0.38152 0)
(-0.241499 0.307695 0)
(-0.16344 0.243717 0)
(-0.122163 0.202304 0)
(-0.0938397 0.175832 0)
(-0.0746697 0.156648 0)
(-0.0602063 0.142402 0)
(-0.0490268 0.131141 0)
(-0.0399817 0.121875 0)
(-0.0067634 -0.233171 0)
(-0.0203911 -0.233445 0)
(-0.0343957 -0.233773 0)
(-0.0489438 -0.234543 0)
(-0.064364 -0.234918 0)
(-0.0806831 -0.236003 0)
(-0.0983747 -0.235977 0)
(-0.117351 -0.236864 0)
(-0.138331 -0.23717 0)
(-0.163663 -0.237288 0)
(-0.204948 -0.256069 0)
(-0.314267 -0.289356 0)
(-0.508453 -0.332095 0)
(-0.549161 0.115261 0)
(-0.386139 0.246657 0)
(-0.249404 0.207762 0)
(-0.175643 0.19104 0)
(-0.130493 0.168105 0)
(-0.102303 0.153224 0)
(-0.0824603 0.140041 0)
(-0.0677667 0.129702 0)
(-0.0561442 0.120922 0)
(-0.046649 0.113459 0)
(-0.00714082 -0.219194 0)
(-0.021563 -0.219225 0)
(-0.0364256 -0.218975 0)
(-0.0520383 -0.219023 0)
(-0.0687428 -0.218144 0)
(-0.0869576 -0.218061 0)
(-0.107099 -0.215887 0)
(-0.129751 -0.215107 0)
(-0.155697 -0.211755 0)
(-0.185266 -0.207516 0)
(-0.221055 -0.208363 0)
(-0.26214 -0.185871 0)
(-0.31493 -0.187311 0)
(-0.338475 0.0350697 0)
(-0.293575 0.117845 0)
(-0.23109 0.136318 0)
(-0.183612 0.140614 0)
(-0.146029 0.135368 0)
(-0.117707 0.129155 0)
(-0.0958043 0.122146 0)
(-0.0786929 0.115626 0)
(-0.0650524 0.109604 0)
(-0.0540068 0.10413 0)
(-0.00680981 -0.20517 0)
(-0.0205198 -0.20497 0)
(-0.0345259 -0.204211 0)
(-0.0490032 -0.20354 0)
(-0.0641995 -0.20156 0)
(-0.0802879 -0.200163 0)
(-0.0976761 -0.19606 0)
(-0.116721 -0.19302 0)
(-0.138311 -0.186056 0)
(-0.163962 -0.177706 0)
(-0.196274 -0.169716 0)
(-0.238139 -0.141133 0)
(-0.290195 -0.126653 0)
(-0.300846 0.00878918 0)
(-0.259032 0.0569603 0)
(-0.213925 0.0890518 0)
(-0.174662 0.100688 0)
(-0.142621 0.105309 0)
(-0.117509 0.105504 0)
(-0.0974836 0.103652 0)
(-0.0814516 0.100805 0)
(-0.0683799 0.0975737 0)
(-0.0575766 0.0941978 0)
(-0.00677636 -0.191513 0)
(-0.0204307 -0.191119 0)
(-0.034376 -0.189963 0)
(-0.0488272 -0.188708 0)
(-0.0639677 -0.185897 0)
(-0.0800389 -0.183498 0)
(-0.0971976 -0.177997 0)
(-0.115599 -0.173441 0)
(-0.135409 -0.164019 0)
(-0.156061 -0.153197 0)
(-0.178009 -0.139681 0)
(-0.197311 -0.10968 0)
(-0.214134 -0.0888673 0)
(-0.219156 -0.0132402 0)
(-0.205143 0.0228725 0)
(-0.182967 0.0555069 0)
(-0.158692 0.0703641 0)
(-0.135823 0.0804371 0)
(-0.115606 0.0848115 0)
(-0.0981962 0.0867146 0)
(-0.0834229 0.0867775 0)
(-0.0709142 0.0858886 0)
(-0.0603165 0.0843705 0)
(-0.00637611 -0.178292 0)
(-0.0191936 -0.17773 0)
(-0.0321925 -0.176267 0)
(-0.0455037 -0.174496 0)
(-0.0592368 -0.171083 0)
(-0.0735273 -0.167791 0)
(-0.0884802 -0.161424 0)
(-0.104242 -0.15567 0)
(-0.120911 -0.145121 0)
(-0.13841 -0.133745 0)
(-0.156774 -0.118609 0)
(-0.17438 -0.0936496 0)
(-0.190105 -0.0721793 0)
(-0.193079 -0.0218887 0)
(-0.181442 0.00573686 0)
(-0.164632 0.0334539 0)
(-0.145452 0.0487371 0)
(-0.127041 0.0605695 0)
(-0.110119 0.0673474 0)
(-0.0951441 0.0716261 0)
(-0.0820483 0.0738526 0)
(-0.0706933 0.0748265 0)
(-0.0608587 0.0748949 0)
(-0.00607284 -0.165778 0)
(-0.0182757 -0.165093 0)
(-0.030619 -0.163429 0)
(-0.0432149 -0.161291 0)
(-0.0561094 -0.157521 0)
(-0.0693934 -0.153634 0)
(-0.0830225 -0.146849 0)
(-0.0969557 -0.140394 0)
(-0.111037 -0.129486 0)
(-0.124679 -0.118077 0)
(-0.137755 -0.102671 0)
(-0.148156 -0.0814345 0)
(-0.155465 -0.0612398 0)
(-0.157161 -0.0281324 0)
(-0.151733 -0.00517296 0)
(-0.141943 0.0176256 0)
(-0.129411 0.0326891 0)
(-0.116149 0.04478 0)
(-0.103009 0.052919 0)
(-0.090694 0.0586229 0)
(-0.0794359 0.0623754 0)
(-0.0693365 0.0647377 0)
(-0.0603597 0.0660745 0)
(-0.00563072 -0.154013 0)
(-0.0169248 -0.153238 0)
(-0.0282891 -0.151453 0)
(-0.0397851 -0.14905 0)
(-0.0514165 -0.145108 0)
(-0.06323 -0.140818 0)
(-0.0751496 -0.133983 0)
(-0.0871578 -0.127184 0)
(-0.0990476 -0.116589 0)
(-0.110509 -0.10574 0)
(-0.121198 -0.0911181 0)
(-0.130034 -0.0736496 0)
(-0.136303 -0.0553747 0)
(-0.137594 -0.0309951 0)
(-0.133616 -0.0117639 0)
(-0.126268 0.00698986 0)
(-0.116622 0.0210308 0)
(-0.10613 0.0325608 0)
(-0.0954512 0.0411968 0)
(-0.0851723 0.047634 0)
(-0.0755361 0.0523618 0)
(-0.0666903 0.0557078 0)
(-0.0586658 0.0580144 0)
(-0.00521375 -0.143112 0)
(-0.0156616 -0.142284 0)
(-0.0261427 -0.140447 0)
(-0.0366907 -0.137896 0)
(-0.0472776 -0.133928 0)
(-0.0579078 -0.129438 0)
(-0.0684646 -0.122769 0)
(-0.0788541 -0.115882 0)
(-0.0888471 -0.105893 0)
(-0.0980694 -0.0956439 0)
(-0.106239 -0.0822569 0)
(-0.112462 -0.0673726 0)
(-0.116458 -0.0513325 0)
(-0.117454 -0.0327393 0)
(-0.115161 -0.0163222 0)
(-0.110335 -0.000688283 0)
(-0.103561 0.0122033 0)
(-0.0957362 0.022976 0)
(-0.0873964 0.0316649 0)
(-0.0790384 0.0384324 0)
(-0.070949 0.0437461 0)
(-0.0633183 0.0477617 0)
(-0.0562421 0.0507814 0)
(-0.00475596 -0.13309 0)
(-0.0142735 -0.132236 0)
(-0.0237853 -0.130398 0)
(-0.033296 -0.127782 0)
(-0.04276 -0.123886 0)
(-0.052159 -0.119346 0)
(-0.0613739 -0.112986 0)
(-0.0703249 -0.106224 0)
(-0.078794 -0.0969929 0)
(-0.0865427 -0.087484 0)
(-0.0932807 -0.0754305 0)
(-0.0985101 -0.0626865 0)
(-0.101895 -0.0485984 0)
(-0.102814 -0.033549 0)
(-0.10125 -0.0193888 0)
(-0.097658 -0.00608299 0)
(-0.0924854 0.00558962 0)
(-0.086333 0.0155401 0)
(-0.0796252 0.0239754 0)
(-0.0727411 0.0308007 0)
(-0.0659367 0.0364067 0)
(-0.0593882 0.0408481 0)
(-0.053207 0.0443689 0)
(-0.00431515 -0.123971 0)
(-0.012942 -0.123115 0)
(-0.021541 -0.121313 0)
(-0.0300979 -0.118704 0)
(-0.038558 -0.114945 0)
(-0.0468818 -0.110471 0)
(-0.054953 -0.104484 0)
(-0.0626751 -0.0979647 0)
(-0.0698568 -0.089519 0)
(-0.0762826 -0.080709 0)
(-0.0817319 -0.0699542 0)
(-0.0858407 -0.0587755 0)
(-0.088444 -0.046489 0)
(-0.0892835 -0.0338907 0)
(-0.0883269 -0.0215807 0)
(-0.0858054 -0.0100363 0)
(-0.0819887 0.000507289 0)
(-0.0772661 0.00969136 0)
(-0.0719572 0.0177456 0)
(-0.0663552 0.0244798 0)
(-0.0606879 0.030191 0)
(-0.0551193 0.0348837 0)
(-0.0497692 0.0387422 0)
(-0.00387266 -0.115741 0)
(-0.0116072 -0.114899 0)
(-0.0192963 -0.113156 0)
(-0.0269124 -0.110604 0)
(-0.0343971 -0.107018 0)
(-0.0417026 -0.102687 0)
(-0.0487243 -0.0970961 0)
(-0.0553763 -0.0909034 0)
(-0.061499 -0.0832059 0)
(-0.0669397 -0.0750932 0)
(-0.0715139 -0.0654941 0)
(-0.0749964 -0.0556046 0)
(-0.0772362 -0.0447911 0)
(-0.0780501 -0.0339261 0)
(-0.0774555 -0.0231044 0)
(-0.0755932 -0.0129189 0)
(-0.0726715 -0.0033832 0)
(-0.0689551 0.00509919 0)
(-0.0646905 0.0127148 0)
(-0.0601004 0.0192658 0)
(-0.0553741 0.0249574 0)
(-0.050653 0.0297743 0)
(-0.0460491 0.0338458 0)
(-0.00345226 -0.108377 0)
(-0.0103416 -0.107562 0)
(-0.0171766 -0.105893 0)
(-0.0239214 -0.10343 0)
(-0.0305182 -0.100035 0)
(-0.0369142 -0.0958956 0)
(-0.043017 -0.090694 0)
(-0.0487441 -0.0848612 0)
(-0.0539649 -0.0778448 0)
(-0.0585538 -0.0703719 0)
(-0.0623729 -0.0617778 0)
(-0.065266 -0.0529119 0)
(-0.0671427 -0.0433457 0)
(-0.067911 -0.0337806 0)
(-0.0675811 -0.024179 0)
(-0.0662406 -0.0150633 0)
(-0.0640292 -0.00639818 0)
(-0.0611278 0.0014623 0)
(-0.0577211 0.00864056 0)
(-0.0539801 0.0149657 0)
(-0.0500599 0.0205664 0)
(-0.0460818 0.0254215 0)
(-0.0421472 0.0296162 0)
(-0.00304243 -0.101849 0)
(-0.00910991 -0.101065 0)
(-0.0151192 -0.099477 0)
(-0.0210312 -0.0971227 0)
(-0.0267913 -0.0939211 0)
(-0.032347 -0.0899949 0)
(-0.0376194 -0.0851597 0)
(-0.0425363 -0.0796955 0)
(-0.0469937 -0.0732817 0)
(-0.0508962 -0.0663992 0)
(-0.0541363 -0.0586541 0)
(-0.0566083 -0.0506423 0)
(-0.0582413 -0.0420874 0)
(-0.0589743 -0.0335297 0)
(-0.0588226 -0.0249139 0)
(-0.0578457 -0.0166576 0)
(-0.0561494 -0.00873184 0)
(-0.0538627 -0.00141877 0)
(-0.0511265 0.00534692 0)
(-0.0480725 0.0114288 0)
(-0.0448255 0.0168985 0)
(-0.0414867 0.0217346 0)
(-0.0381441 0.0259884 0)
(-0.00266078 -0.0961154 0)
(-0.00796372 -0.0953681 0)
(-0.0132071 -0.093862 0)
(-0.0183509 -0.0916236 0)
(-0.0233447 -0.0886098 0)
(-0.0281387 -0.0849018 0)
(-0.0326662 -0.0804013 0)
(-0.0368641 -0.075291 0)
(-0.04065 -0.0693998 0)
(-0.0439486 -0.0630423 0)
(-0.0466796 -0.0560087 0)
(-0.0487691 -0.0487024 0)
(-0.0501699 -0.0409777 0)
(-0.0508479 -0.033221 0)
(-0.0508147 -0.0254083 0)
(-0.0501128 -0.0178504 0)
(-0.0488179 -0.0105457 0)
(-0.047023 -0.00370763 0)
(-0.044834 0.00268511 0)
(-0.0423522 0.00852629 0)
(-0.0396774 0.0138482 0)
(-0.036894 0.0186304 0)
(-0.0340764 0.0229001 0)
(-0.00228648 -0.091142 0)
(-0.00684223 -0.0904305 0)
(-0.0113436 -0.0890029 0)
(-0.0157532 -0.0868786 0)
(-0.0200264 -0.084039 0)
(-0.0241181 -0.0805401 0)
(-0.0279721 -0.0763376 0)
(-0.0315345 -0.0715537 0)
(-0.0347398 -0.0661093 0)
(-0.0375287 -0.0602133 0)
(-0.0398399 -0.0537692 0)
(-0.0416205 -0.0470517 0)
(-0.0428351 -0.0399993 0)
(-0.0434612 -0.0328884 0)
(-0.0435095 -0.0257254 0)
(-0.0430113 -0.0187392 0)
(-0.0420234 -0.0119514 0)
(-0.0406151 -0.00552188 0)
(-0.0388671 0.000541702 0)
(-0.0368585 0.00615615 0)
(-0.0346681 0.0113279 0)
(-0.0323648 0.016037 0)
(-0.0300108 0.0202944 0)
(-0.00194515 -0.0868879 0)
(-0.00581876 -0.0862105 0)
(-0.00964054 -0.0848555 0)
(-0.0133754 -0.0828383 0)
(-0.0169841 -0.0801555 0)
(-0.0204275 -0.0768487 0)
(-0.0236595 -0.0729058 0)
(-0.0266359 -0.0684125 0)
(-0.0293061 -0.0633444 0)
(-0.0316239 -0.0578446 0)
(-0.033544 -0.0518845 0)
(-0.0350294 -0.0456535 0)
(-0.0360553 -0.0391452 0)
(-0.0366088 -0.0325564 0)
(-0.0366983 -0.0259184 0)
(-0.0363473 -0.0193993 0)
(-0.0355978 -0.0130374 0)
(-0.0345008 -0.0069539 0)
(-0.0331172 -0.00117418 0)
(-0.0315078 0.00423502 0)
(-0.0297339 0.00926396 0)
(-0.0278513 0.0138926 0)
(-0.0259109 0.0181215 0)
(-0.00160438 -0.0833193 0)
(-0.00479972 -0.0826724 0)
(-0.00795333 -0.0813812 0)
(-0.0110358 -0.0794592 0)
(-0.0140145 -0.0769125 0)
(-0.0168557 -0.0737742 0)
(-0.0195215 -0.0700514 0)
(-0.0219752 -0.0658083 0)
(-0.0241768 -0.0610515 0)
(-0.0260902 -0.055884 0)
(-0.0276807 -0.0503161 0)
(-0.02892 -0.044483 0)
(-0.0297894 -0.03841 0)
(-0.0302799 -0.0322417 0)
(-0.0303983 -0.0260237 0)
(-0.0301624 -0.0198833 0)
(-0.0296034 -0.0138683 0)
(-0.0287599 -0.00807301 0)
(-0.0276783 -0.002533 0)
(-0.0264058 0.00269647 0)
(-0.0249899 0.00759612 0)
(-0.0234751 0.0121451 0)
(-0.0219022 0.0163374 0)
(-0.00129573 -0.0804036 0)
(-0.0038748 -0.0797829 0)
(-0.00641606 -0.0785456 0)
(-0.00889383 -0.076705 0)
(-0.0112808 -0.0742727 0)
(-0.0135497 -0.071277 0)
(-0.0156714 -0.0677357 0)
(-0.017618 -0.0637005 0)
(-0.0193603 -0.0591947 0)
(-0.020872 -0.0542977 0)
(-0.0221285 -0.0490405 0)
(-0.0231104 -0.0435255 0)
(-0.023805 -0.037795 0)
(-0.0242068 -0.0319592 0)
(-0.024321 -0.0260719 0)
(-0.0241612 -0.0202327 0)
(-0.0237496 -0.0144941 0)
(-0.0231145 -0.00893285 0)
(-0.0222899 -0.00358926 0)