# vtk DataFile Version 2.0
gauge_2
ASCII
DATASET POLYDATA
POINTS 43 double
0.2 0.0359992 0.005
0.2 0.0419991 0.005
0.2 0.047999 0.005
0.2 0.0607609 0.005
0.2 0.0735228 0.005
0.2 0.0862847 0.005
0.2 0.0990467 0.005
0.2 0.111809 0.005
0.2 0.124571 0.005
0.2 0.137332 0.005
0.2 0.150094 0.005
0.2 0.162856 0.005
0.2 0.175618 0.005
0.2 0.18838 0.005
0.2 0.201142 0.005
0.2 0.213904 0.005
0.2 0.226666 0.005
0.2 0.239428 0.005
0.2 0.25219 0.005
0.2 0.264952 0.005
0.2 0.277714 0.005
0.2 0.290476 0.005
0.2 0.303238 0.005
0.2 0.315999 0.005
0.2 0.328761 0.005
0.2 0.341523 0.005
0.2 0.354285 0.005
0.2 0.367047 0.005
0.2 0.379809 0.005
0.2 0.392571 0.005
0.2 0.405333 0.005
0.2 0.418095 0.005
0.2 0.430857 0.005
0.2 0.443619 0.005
0.2 0.456381 0.005
0.2 0.469143 0.005
0.2 0.481905 0.005
0.2 0.494666 0.005
0.2 0.507428 0.005
0.2 0.52019 0.005
0.2 0.532952 0.005
0.2 0.545714 0.005
0.2 0.558476 0.005
POINT_DATA 43
 FIELD attributes 1
alpha.water 1 43 float
1 1 1 0.999611 0.765808 0.268106 0.00231907 0.000504235 0.000199948 0.000112072 6.31021e-06 2.15775e-07 4.16642e-08 9.10796e-09 3.10141e-09 1.93342e-09 1.26634e-09 4.8892e-10 6.68008e-10 6.92459e-10 1.31476e-10 7.2718e-12 1.73202e-12 4.04093e-13 6.02937e-14 4.69744e-15 3.71747e-16 2.8569e-17 2.05708e-18 1.39307e-19 8.94853e-21 5.48782e-22 3.22834e-23 1.8295e-24 1.00485e-25 5.4062e-27 2.89815e-28 1.58546e-29 9.04821e-31 5.34057e-32 3.07685e-33 1.63144e-34 7.94975e-36
