/*--------------------------------*- C++ -*----------------------------------*\
| =========                 |                                                 |
| \\      /  F ield         | OpenFOAM: The Open Source CFD Toolbox           |
|  \\    /   O peration     | Version:  2012                                  |
|   \\  /    A nd           | Website:  www.openfoam.com                      |
|    \\/     M anipulation  |                                                 |
\*---------------------------------------------------------------------------*/
FoamFile
{
    version     2.0;
    format      ascii;
    class       volScalarField;
    location    "0.33";
    object      minKappa;
}
// * * * * * * * * * * * * * * * * * * * * * * * * * * * * * * * * * * * * * //

dimensions      [0 0 0 0 0 0 0];


internalField   nonuniform List<scalar> 
2268
(
2.09948e-06
4.84111e-06
7.61244e-06
1.0553e-05
1.35121e-05
1.63453e-05
1.90882e-05
2.16688e-05
2.44217e-05
2.64192e-05
2.90582e-05
3.05017e-05
3.21027e-05
3.31318e-05
3.38482e-05
3.3747e-05
3.28645e-05
3.11042e-05
2.83526e-05
2.44952e-05
1.90369e-05
1.31718e-05
5.82155e-06
2.09948e-06
4.84111e-06
7.61244e-06
1.0553e-05
1.35121e-05
1.63453e-05
1.90882e-05
2.16688e-05
2.44217e-05
2.64192e-05
2.90582e-05
3.05017e-05
3.21027e-05
3.31318e-05
3.38482e-05
3.3747e-05
3.28645e-05
3.11042e-05
2.83526e-05
2.44952e-05
1.90369e-05
1.31718e-05
5.82155e-06
3.21384e-06
5.42409e-06
7.99532e-06
1.08474e-05
1.37365e-05
1.65342e-05
1.92498e-05
2.18392e-05
2.45424e-05
2.65763e-05
2.92088e-05
3.06273e-05
3.23433e-05
3.33902e-05
3.3936e-05
3.40143e-05
3.32768e-05
3.16237e-05
2.90493e-05
2.54081e-05
2.02233e-05
1.47254e-05
8.43985e-06
4.5169e-06
6.28528e-06
8.59221e-06
1.13154e-05
1.40977e-05
1.68378e-05
1.9513e-05
2.21147e-05
2.4745e-05
2.68357e-05
2.94428e-05
3.08392e-05
3.26933e-05
3.36871e-05
3.42816e-05
3.4397e-05
3.37803e-05
3.22856e-05
2.98643e-05
2.66705e-05
2.20291e-05
1.7912e-05
1.30555e-05
5.88159e-06
7.33793e-06
9.36861e-06
1.19431e-05
1.45946e-05
1.72575e-05
1.98813e-05
2.24922e-05
2.503e-05
2.71975e-05
2.97522e-05
3.11387e-05
3.31496e-05
3.40584e-05
3.48631e-05
3.49411e-05
3.45367e-05
3.32671e-05
3.11357e-05
2.83671e-05
2.42294e-05
2.12038e-05
1.77147e-05
7.27311e-06
8.5113e-06
1.02806e-05
1.27026e-05
1.52144e-05
1.77854e-05
2.03473e-05
2.29607e-05
2.5397e-05
2.76615e-05
3.0129e-05
3.15368e-05
3.37172e-05
3.4554e-05
3.55504e-05
3.57036e-05
3.54693e-05
3.44916e-05
3.26212e-05
3.04469e-05
2.68386e-05
2.51856e-05
2.32236e-05
8.68118e-06
9.76677e-06
1.13036e-05
1.35782e-05
1.59519e-05
1.8423e-05
2.09146e-05
2.35189e-05
2.58544e-05
2.8224e-05
3.05609e-05
3.20409e-05
3.43851e-05
3.51421e-05
3.64132e-05
3.65824e-05
3.66e-05
3.58663e-05
3.43984e-05
3.28466e-05
2.98588e-05
2.96551e-05
2.88588e-05
1.01026e-05
1.10761e-05
1.24094e-05
1.45472e-05
1.6789e-05
1.91543e-05
2.15742e-05
2.4152e-05
2.64117e-05
2.88848e-05
3.10576e-05
3.26885e-05
3.5152e-05
3.58577e-05
3.74626e-05
3.75749e-05
3.79448e-05
3.74812e-05
3.64385e-05
3.57272e-05
3.3237e-05
3.46115e-05
3.50966e-05
0.000161173
0.000468375
0.000648774
0.000835954
0.000929658
0.00100824
0.00106991
0.00108563
0.00111025
0.0011094
0.00107778
0.00103339
0.000975895
0.000866992
0.000776867
0.000617656
0.000478026
0.000291791
0.000128228
0.000161173
0.000468375
0.000648774
0.000835954
0.000929658
0.00100824
0.00106991
0.00108563
0.00111025
0.0011094
0.00107778
0.00103339
0.000975895
0.000866992
0.000776867
0.000617656
0.000478026
0.000291791
0.000128228
0.000275106
0.000524581
0.000671954
0.000850093
0.000944437
0.00102409
0.00108409
0.00109057
0.00111512
0.0011133
0.00108304
0.00104032
0.000985575
0.000874948
0.000788088
0.000630574
0.000494995
0.000318635
0.000178956
0.000398227
0.000611016
0.0007306
0.000895171
0.000961807
0.00103648
0.00109239
0.00109619
0.00112541
0.00112676
0.00109274
0.00104981
0.000997108
0.000887124
0.000805215
0.000650938
0.000521885
0.00035971
0.000243439
0.000535592
0.000717697
0.000798683
0.000938181
0.000994323
0.00106748
0.00112021
0.00110692
0.00113489
0.0011391
0.00110387
0.00106552
0.00101868
0.000905271
0.000830421
0.00068014
0.000558333
0.000412026
0.000314115
0.000674869
0.000856337
0.000895896
0.0010119
0.00102907
0.00108959
0.00113849
0.00111909
0.00115411
0.00116535
0.00112175
0.00108095
0.001041
0.000927352
0.000861756
0.000716478
0.000603675
0.000473205
0.000389663
0.000843038
0.00100536
0.00100414
0.00107969
0.00108442
0.00113741
0.00118434
0.00113304
0.00116669
0.00118749
0.00113937
0.00110662
0.00107717
0.000955179
0.000900135
0.000761319
0.000656246
0.000542085
0.000469171
0.00099867
0.00120753
0.00115246
0.00118744
0.00113056
0.00116528
0.00121023
0.00114087
0.00118965
0.00122916
0.00116882
0.00113261
0.00111774
0.000988219
0.000946898
0.000813415
0.000717651
0.000617668
0.000553561
1.80377e-05
1.94244e-05
2.12529e-05
2.44027e-05
2.77167e-05
3.12497e-05
3.49292e-05
3.88903e-05
4.23522e-05
4.63252e-05
4.94815e-05
5.23804e-05
5.6215e-05
5.73194e-05
6.03882e-05
6.04817e-05
6.1844e-05
6.12661e-05
6.11183e-05
6.09179e-05
6.03077e-05
6.45985e-05
7.26186e-05
3.11024e-05
3.27032e-05
3.46564e-05
3.84388e-05
4.24476e-05
4.67601e-05
5.11125e-05
5.59059e-05
6.07087e-05
6.5726e-05
7.04829e-05
7.52638e-05
7.9855e-05
8.28621e-05
8.78488e-05
8.83142e-05
9.24025e-05
9.12667e-05
9.50113e-05
9.39095e-05
9.89776e-05
0.000104544
9.55628e-05
3.77551e-05
3.91539e-05
4.07776e-05
4.41498e-05
4.77506e-05
5.18131e-05
5.62623e-05
6.09902e-05
6.56428e-05
7.0562e-05
7.54345e-05
8.04331e-05
8.48662e-05
8.96942e-05
9.40094e-05
9.64193e-05
0.000101022
0.000100988
0.000106077
0.00010646
0.000114255
0.000119402
0.00011517
4.50613e-05
4.63572e-05
4.79574e-05
5.12712e-05
5.49668e-05
5.94826e-05
6.48576e-05
7.15267e-05
7.9707e-05
9.26693e-05
0.000106414
0.000124612
0.000141237
0.000161761
0.000174677
0.000193638
0.000194187
0.000188794
0.000174925
0.0001412
0.000126466
0.000128486
0.000110754
9.74893e-05
0.000100774
0.00010635
0.000117063
0.000130691
0.000149598
0.000175349
0.000214839
0.000277081
0.00040308
0.000590741
0.000752472
0.00089944
0.00106749
0.00118992
0.00133261
0.00133019
0.00130656
0.00112027
0.000609518
0.000333054
0.000295726
0.000248312
0.000709746
0.000732157
0.000775355
0.000849827
0.000940625
0.00105932
0.00118167
0.00122379
0.00135162
0.00151497
0.00165188
0.00177687
0.00190568
0.00207935
0.00226343
0.00243595
0.00252019
0.00264636
0.00269931
0.00272767
0.00255564
0.00217359
0.00161187
0.00130477
0.00132158
0.00135126
0.00137889
0.00140894
0.00144605
0.00144944
0.00144944
0.00146923
0.00157211
0.00172643
0.00192746
0.00214902
0.00238835
0.00259048
0.00280521
0.00293142
0.00308357
0.00303124
0.00291921
0.00294427
0.00294427
0.00260534
0.00136403
0.00137708
0.00139524
0.00142416
0.00144187
0.00145678
0.00147669
0.00149821
0.00158412
0.00172457
0.00188247
0.00205982
0.00221887
0.00228757
0.00233765
0.00239925
0.00256301
0.0027827
0.00334218
0.00353972
0.00334147
0.0032237
0.00268219
0.00145309
0.00146583
0.00147373
0.00150388
0.00151275
0.00153319
0.00156039
0.00161175
0.00170579
0.00181643
0.00195031
0.00206037
0.00209688
0.00209514
0.00208265
0.00206052
0.00207352
0.00215435
0.0025166
0.00317024
0.00387455
0.00408023
0.00351458
0.0015495
0.00155839
0.00156348
0.00159019
0.00160111
0.0016241
0.0016583
0.00171083
0.00178607
0.00188692
0.00198535
0.00203242
0.00203288
0.00201395
0.00196364
0.00189785
0.001812
0.00174239
0.00183005
0.00226167
0.00291839
0.00352825
0.00338831
0.00163633
0.001641
0.00164732
0.00166636
0.00167907
0.0017031
0.00173992
0.00179711
0.00186732
0.00194326
0.00200739
0.00202925
0.00201646
0.00196894
0.00189772
0.00179858
0.00168406
0.00163136
0.00163136
0.00177233
0.00214989
0.00270169
0.00279764
0.00172152
0.00172526
0.00173315
0.00175169
0.00176939
0.00179687
0.00183165
0.00188178
0.00193501
0.00198388
0.00202912
0.0020522
0.00203798
0.00200338
0.00195157
0.00188647
0.00180414
0.00172765
0.00173643
0.00191054
0.00214428
0.00253604
0.00263763
0.00180654
0.00181063
0.00181893
0.00183768
0.00185597
0.00188503
0.00191347
0.00195652
0.00199164
0.0020403
0.00208486
0.00209827
0.00210029
0.0020888
0.00206137
0.00203227
0.00199377
0.00199221
0.00203931
0.00223271
0.00252416
0.00292773
0.00282031
0.00189149
0.00189592
0.00190496
0.0019226
0.00194021
0.00196866
0.00199271
0.00203166
0.00205952
0.00211091
0.0021489
0.00217552
0.00219965
0.00221513
0.00222097
0.00223507
0.002249
0.00230785
0.00240314
0.00261618
0.00288812
0.00320559
0.00299473
0.0019731
0.00197826
0.00198749
0.0020051
0.00202225
0.00205151
0.00207412
0.00211493
0.00214005
0.00218663
0.0022303
0.00227268
0.00231282
0.0023492
0.00237762
0.00241912
0.00246596
0.00256245
0.00268781
0.00291181
0.00315989
0.0034685
0.00316562
0.00205623
0.00206144
0.00207012
0.0020875
0.00210397
0.00213351
0.00215566
0.00219714
0.00222447
0.00227305
0.00232147
0.00236994
0.00241923
0.00246891
0.00251396
0.00257829
0.00265165
0.00277744
0.00292732
0.00314658
0.00340259
0.00371692
0.00336655
0.00213578
0.00214082
0.00214923
0.00216686
0.00218292
0.00221356
0.00223566
0.00227832
0.00230978
0.00235803
0.00240617
0.00245929
0.00251515
0.00257636
0.00263601
0.00272083
0.00281725
0.00296079
0.00313003
0.00334554
0.00361353
0.00393614
0.00353989
0.00221432
0.00221968
0.00222833
0.00224652
0.00226248
0.00229382
0.00231615
0.00235883
0.0023923
0.00244092
0.00249131
0.00254865
0.00260857
0.00267987
0.00275324
0.00285853
0.00297437
0.00313036
0.00331303
0.00353854
0.00381699
0.00415355
0.00372689
0.00229048
0.0022963
0.00230491
0.00232341
0.00233878
0.00237023
0.00239248
0.0024351
0.00247053
0.0025207
0.0025716
0.00263056
0.00269428
0.00277163
0.00286042
0.00296892
0.00309671
0.00325289
0.00344346
0.00367586
0.003965
0.00431391
0.00386647
0.00236531
0.00237128
0.00237949
0.00239798
0.00241278
0.00244436
0.0024668
0.00250993
0.00254576
0.00259815
0.00264877
0.0027171
0.00278339
0.00287185
0.00296652
0.00308046
0.00321334
0.0033766
0.00357386
0.00381476
0.00411054
0.00446736
0.00398754
0.00243718
0.00244315
0.00245095
0.00246941
0.00248382
0.00251531
0.00253776
0.00258102
0.00261649
0.00266919
0.00272134
0.00278386
0.00285396
0.00293882
0.00303389
0.003151
0.00328787
0.00345645
0.0036554
0.00389951
0.00419082
0.00454703
0.00403346
0.0025059
0.00251187
0.00251947
0.0025378
0.00255195
0.00258292
0.00260525
0.00264823
0.00268338
0.00273789
0.00278943
0.00285458
0.00292607
0.00301217
0.00311125
0.00323132
0.00337031
0.00353729
0.00373288
0.00397115
0.00425176
0.00460277
0.00405127
0.00257231
0.00257819
0.00258559
0.0026034
0.00261733
0.0026472
0.00266956
0.00271148
0.00274633
0.0027948
0.00284623
0.00290724
0.00297767
0.00306236
0.00316049
0.00327616
0.00341144
0.00357221
0.00376297
0.003991
0.00426244
0.0045916
0.00402373
0.0026359
0.00264143
0.00264838
0.00266511
0.00267864
0.00270675
0.0027291
0.00276871
0.0028034
0.00284932
0.00289992
0.00295963
0.00302933
0.00311094
0.00320612
0.00331776
0.00345024
0.00360479
0.00378832
0.00400178
0.00425607
0.00455638
0.00394559
0.002697
0.00270202
0.00270843
0.00272372
0.00273674
0.00276264
0.00278479
0.00282136
0.00285569
0.00289603
0.00294387
0.00299923
0.0030642
0.00314013
0.00323042
0.00333514
0.00345959
0.00360219
0.00377401
0.00397056
0.00420848
0.00447708
0.00381926
0.00275546
0.00275984
0.00276559
0.00277902
0.0027912
0.00281415
0.00283559
0.00286794
0.00289978
0.00293692
0.00298155
0.00303323
0.00309466
0.00316579
0.00324973
0.00334547
0.0034606
0.00359246
0.00375219
0.00393148
0.00414876
0.00438702
0.00367525
0.00281194
0.00281557
0.00282048
0.00283174
0.0028427
0.00286222
0.00288223
0.00291042
0.00293886
0.0029721
0.00301245
0.00305888
0.00311363
0.00317618
0.00325134
0.00333734
0.00344099
0.00355677
0.00369859
0.00385697
0.00405359
0.00426473
0.00351679
0.0028663
0.00286908
0.00287301
0.00288187
0.00289135
0.00290702
0.00292488
0.00294815
0.00297248
0.00300081
0.00303552
0.00307575
0.00312414
0.0031799
0.00324684
0.00332187
0.00341281
0.0035145
0.00363931
0.0037773
0.00394885
0.00413579
0.0033901
0.00291874
0.00292072
0.00292365
0.00293017
0.00293797
0.00294972
0.00296478
0.0029826
0.00300413
0.00302672
0.00305465
0.00308726
0.00312688
0.00317184
0.00322736
0.0032908
0.00336856
0.00345338
0.00355785
0.00366923
0.00381749
0.00396562
0.00323873
0.00296915
0.00297038
0.00297234
0.00297654
0.0029824
0.00299013
0.00300186
0.00301391
0.00303021
0.00304606
0.00306635
0.00309047
0.00312112
0.00315703
0.00320172
0.00325121
0.00331546
0.00337506
0.0034745
0.00354816
0.00368742
0.00379187
0.00307453
0.00301712
0.00301768
0.00301876
0.00302082
0.00302469
0.00302863
0.00303686
0.00304337
0.00305756
0.00306692
0.00307952
0.00309423
0.00311339
0.00313586
0.00316698
0.00319184
0.00324885
0.00327991
0.00336458
0.00341367
0.0035301
0.0036121
0.0029033
0.0030621
0.00306197
0.00306235
0.00306242
0.00306441
0.00306487
0.00306955
0.00307076
0.00307912
0.00308135
0.00308595
0.00309196
0.00310145
0.00310702
0.00312647
0.00312764
0.00316467
0.00317745
0.00323775
0.00326769
0.00335467
0.00341731
0.00273898
0.00310274
0.00310197
0.00310181
0.00310031
0.00310089
0.00309876
0.00310051
0.00309745
0.00310104
0.00309716
0.00309763
0.0030951
0.00309137
0.00308072
0.00308268
0.00306337
0.00307552
0.00306531
0.00309912
0.00310859
0.00316595
0.00320325
0.0025567
0.00313883
0.00313755
0.00313682
0.00313414
0.00313359
0.00312941
0.00312859
0.00312161
0.0031153
0.0031073
0.00309739
0.00308698
0.00307327
0.00305877
0.00304075
0.00300938
0.00299561
0.00295796
0.002959
0.00294368
0.00297303
0.00298746
0.00234955
0.00316916
0.00316743
0.00316617
0.00316256
0.00316106
0.00315526
0.00315269
0.00314309
0.00313573
0.00312342
0.00310715
0.00308797
0.00306341
0.00303564
0.00300229
0.00296668
0.00292815
0.00286344
0.00282593
0.00277389
0.00276484
0.0027536
0.00216077
0.00319404
0.00319197
0.00319028
0.00318599
0.00318369
0.00317679
0.0031698
0.00315997
0.00314668
0.00313084
0.00311047
0.00308614
0.00305495
0.0030176
0.0029709
0.00291608
0.00285168
0.00278326
0.00271651
0.00262312
0.00256361
0.00251039
0.00194014
0.00321306
0.00321068
0.0032074
0.00320332
0.00319794
0.00319193
0.00318385
0.00317427
0.00316106
0.00314415
0.00312086
0.00309157
0.00305377
0.00300789
0.00295086
0.00288324
0.00280281
0.00271036
0.00260991
0.00250488
0.00239225
0.00228118
0.0017314
0.00322723
0.00322454
0.00322039
0.00321573
0.00320953
0.00320243
0.00319311
0.00318211
0.00316753
0.00314966
0.00312536
0.00309404
0.00305277
0.00300155
0.0029374
0.00285935
0.00276404
0.00265004
0.00251796
0.00237317
0.00223119
0.00209093
0.00149559
0.00323164
0.00322858
0.00322417
0.0032194
0.0032133
0.0032065
0.00319762
0.00318701
0.00317264
0.00315446
0.00312958
0.00309725
0.00305405
0.00299945
0.00293055
0.00284582
0.00274202
0.0026172
0.0024693
0.00229673
0.00210856
0.00191945
0.00129597
0.00323916
0.00323607
0.00323145
0.00322614
0.00321919
0.00321133
0.00320137
0.00318974
0.00317449
0.00315567
0.00313034
0.00309762
0.00305389
0.0029979
0.00292629
0.00283702
0.0027269
0.00259255
0.00243139
0.00223947
0.00201931
0.001775
0.00112789
0.0032358
0.00323229
0.00322715
0.0032215
0.00321452
0.00320688
0.00319728
0.003186
0.00317101
0.00315222
0.00312671
0.00309359
0.00304954
0.00299331
0.00292123
0.0028308
0.00271868
0.0025814
0.00241612
0.00221794
0.00198687
0.00171879
0.00104909
0.0032429
0.00323888
0.00323302
0.0032264
0.0032183
0.00320944
0.00319865
0.00318627
0.00317029
0.00315065
0.00312442
0.00309064
0.00304583
0.00298864
0.00291533
0.0028233
0.00270884
0.00256784
0.00239769
0.00219301
0.00195323
0.0016736
0.00100143
4.80461e-05
4.78212e-05
4.78212e-05
0.00025171
6.02716e-05
5.85292e-05
5.85292e-05
7.18059e-05
7.63058e-05
7.63058e-05
7.75852e-05
7.78323e-05
7.38507e-05
7.38507e-05
7.67608e-05
7.90782e-05
0.000130543
8.32994e-05
7.88787e-05
7.88787e-05
0.00108437
0.000550625
0.000413736
0.000397521
0.00173822
0.00173822
0.00180394
0.00186502
0.00183723
0.00183723
0.00193467
0.00195325
0.00228362
0.00228362
0.00230587
0.00233278
0.00225725
0.00225725
0.00233319
0.0024108
0.00191076
0.00191076
0.00202122
0.00212975
0.00181586
0.00181586
0.00193702
0.00206002
0.00192094
0.00192094
0.00203125
0.00214492
0.00203136
0.00203136
0.00214274
0.00225989
0.00213698
0.00213698
0.00224685
0.00236366
0.00226924
0.00226924
0.00238689
0.00251069
0.00238444
0.00238444
0.00250953
0.0026381
0.00251179
0.00251179
0.00264495
0.00278338
0.00260535
0.00260535
0.00274564
0.0029002
0.00268785
0.00268785
0.00284162
0.00302146
0.00272091
0.00272091
0.00288576
0.00308007
0.00273469
0.00273469
0.0029028
0.00308254
0.00270789
0.00270789
0.00286055
0.00301111
0.00264372
0.00264372
0.00278479
0.00291148
0.00255363
0.00255363
0.00267341
0.00278066
0.00244977
0.00244977
0.0025559
0.00265467
0.00232726
0.00232726
0.00240917
0.00249492
0.00223132
0.00223132
0.00229644
0.00237748
0.00213001
0.00213001
0.00218473
0.00225519
0.00202085
0.00202085
0.00207077
0.00212946
0.0019035
0.0019035
0.0019486
0.00199803
0.00179198
0.00179198
0.00183036
0.00187334
0.00167019
0.00167019
0.00170463
0.00174283
0.00152835
0.00152835
0.00155425
0.00158424
0.0013988
0.0013988
0.00141636
0.00143708
0.00125019
0.00125019
0.00125958
0.00127266
0.00110877
0.00110877
0.00110966
0.00111269
0.00095016
0.000946065
0.000944821
0.000944821
0.000804437
0.000786451
0.0007752
0.0007752
0.000673544
0.000632152
0.000601232
0.000601232
0.000604189
0.000537493
0.00047644
0.00047644
0.000566051
0.000487022
0.000406973
0.000406973
0.00211622
0.00219436
0.00199462
0.00194748
0.00185352
0.00192863
0.00198624
0.00177968
0.00185335
0.00195668
0.00185811
0.00182969
0.0018355
0.00160774
0.0015621
0.00136925
0.00122759
0.0010963
0.00100566
0.000372639
0.00103592
0.00209593
0.00237199
0.00173458
0.00153547
0.00153547
0.00225162
0.00231183
0.00230125
0.00260293
0.0025325
0.00264495
0.00241136
0.00242607
0.00219125
0.00203779
0.00191254
0.00181987
0.000138209
0.000225616
0.000325771
0.000457044
0.000719019
0.0019104
0.00248068
0.00212543
0.00149112
0.00149112
0.00200705
0.00250841
0.00252994
0.00257607
0.00268787
0.00263421
0.00245543
0.00242377
0.00234955
0.000135902
0.000184507
0.000194257
0.000204507
0.000222648
0.000313175
0.000433805
0.000603729
0.00161561
0.00246631
0.00256143
0.0017816
0.0017816
0.00252247
0.00237105
0.00307272
0.00300965
0.00302703
0.00299763
0.000135357
0.000184507
0.000194257
0.000204507
0.000222648
0.000210656
0.000220884
0.00023027
0.000288124
0.00038662
0.000624862
0.00225071
0.00303766
0.00175653
0.00175653
0.0023357
0.00352883
0.0037914
0.00382886
0.000364413
0.000336044
0.000321703
0.00029871
0.000244107
0.000210656
0.000220884
0.00023027
0.00024341
0.000248525
0.000239172
0.000341028
0.000512726
0.00272991
0.00283651
0.0023357
0.00247421
0.00449354
0.00492802
0.00267573
0.00232979
0.00211094
0.00181402
0.0010509
0.000549286
0.000547895
0.000516394
0.000425243
0.000248525
0.000239172
0.000254204
0.000236292
0.000421219
0.00195729
0.00285809
0.00298141
0.00330208
0.00620808
0.00318989
0.0040187
0.00411378
0.00420841
0.00424183
0.00422
0.00419956
0.00393869
0.00307179
0.000844842
0.000598247
0.000406976
0.000236292
0.000285029
0.00042272
0.00215835
0.00360082
0.00319705
0.00569772
0.00396576
0.00445054
0.00453891
0.00467276
0.00472064
0.00477237
0.00480078
0.00481903
0.00498777
0.00503302
0.00463163
0.00284039
0.000616215
0.000322143
0.000539281
0.000756605
0.00263251
0.00319705
0.0057254
0.00418182
0.00558456
0.00576149
0.00591994
0.00590018
0.00581206
0.00564465
0.00548938
0.00510751
0.00503302
0.00483932
0.00480886
0.00368564
0.00104922
0.000539281
0.000574661
0.00101445
0.00359765
0.00461857
0.00374155
0.00551581
0.00595054
0.00633312
0.00646671
0.0065082
0.00644575
0.00633996
0.00596125
0.00555334
0.00499537
0.00480886
0.00415582
0.00321876
0.000806168
0.000574661
0.000814362
0.00240166
0.00337741
0.0036531
0.00551581
0.00595054
0.00633312
0.00656994
0.00673596
0.00677086
0.00671629
0.00648639
0.00621512
0.00579331
0.00516186
0.00449966
0.00334241
0.00158408
0.000668889
0.000796994
0.00124721
0.00317223
0.00377978
0.00562709
0.00612081
0.00655917
0.00687365
0.00711161
0.00721294
0.00722104
0.00700226
0.00675027
0.0065061
0.00583834
0.00572156
0.00346442
0.00253073
0.00105185
0.000796332
0.00119814
0.00367453
0.00398077
0.00586526
0.00639626
0.00690212
0.00731286
0.0076434
0.00777912
0.00786048
0.00767018
0.00741186
0.00713791
0.00652204
0.00657576
0.0045901
0.0029016
0.00119575
0.000796332
0.00126693
0.00480356
0.00415439
0.00617029
0.00678203
0.00746209
0.00800244
0.00844378
0.00857359
0.00866887
0.0084698
0.00820788
0.00779337
0.00725055
0.00692562
0.0051452
0.00325925
0.00135674
0.00083527
0.00142761
0.0066148
0.00441489
0.00654648
0.0073224
0.00820904
0.00885618
0.00936901
0.00949587
0.0095482
0.00931344
0.00906099
0.00850446
0.00802312
0.00741291
0.00544676
0.00391618
0.00248603
0.00110522
0.00288143
0.00964019
0.00465008
0.00706896
0.0080552
0.00901994
0.00966407
0.0101829
0.0102888
0.010296
0.0100091
0.00985807
0.00917102
0.00896496
0.00780211
0.00556095
0.00315795
0.00201102
0.00245123
0.0048955
0.0143869
0.00493927
0.00768981
0.00872692
0.00935755
0.00966373
0.00998624
0.0102612
0.0103776
0.0103899
0.0104881
0.00979845
0.0102135
0.00799315
0.0048994
0.00260644
0.00200884
0.00234719
0.00415035
0.0162161
0.00519994
0.00825467
0.00849116
0.00816837
0.00823552
0.00810101
0.00879999
0.0094383
0.0099402
0.0105411
0.0103736
0.0113934
0.00851478
0.00416884
0.0024468
0.00200884
0.00241407
0.0042564
0.0184284
0.00545186
0.00796254
0.00732532
0.00629797
0.00554428
0.00468704
0.00643245
0.00781596
0.00895589
0.00984624
0.0105769
0.0115343
0.00905089
0.00567488
0.00312079
0.00232993
0.0030448
0.00611551
0.021146
0.00551862
0.00720842
0.00567381
0.00417971
0.00273058
0.0024468
0.00411314
0.00638802
0.00778943
0.00869823
0.00980677
0.0104891
0.0101377
0.00698655
0.00515785
0.00441322
0.00516759
0.00761572
0.023449
0.00542446
0.00640583
0.00395095
0.00239579
0.00225972
0.00231113
0.00360673
0.00558124
0.00666369
0.00715145
0.00798214
0.00892282
0.0118511
0.00951275
0.00768158
0.00638079
0.00565784
0.00728458
0.024263
0.00522159
0.00512341
0.0024449
0.00199715
0.00225972
0.00323827
0.0044515
0.00590889
0.00602907
0.00571335
0.00565319
0.00580741
0.00858429
0.0106786
0.0111231
0.00943942
0.00785378
0.0084761
0.0240991
0.00498486
0.00413069
0.00139132
0.00199715
0.00318131
0.00455089
0.00542765
0.00628715
0.00583891
0.00494927
0.00443921
0.00280388
0.00324099
0.00651304
0.0089082
0.0111821
0.012348
0.0120585
0.0276443
0.00472517
0.00373528
0.00092484
0.00223287
0.00342962
0.00476936
0.00554916
0.00561617
0.00473131
0.00435295
0.00362385
0.00152571
0.00152571
0.00256698
0.00441582
0.00732615
0.0134074
0.0171288
0.0314965
0.00450282
0.00360669
0.00092484
0.00252426
0.00342962
0.00437021
0.00455636
0.00423096
0.0037436
0.00363198
0.00318681
0.00259016
0.00210973
0.00374243
0.00279133
0.0027872
0.0103657
0.020295
0.0353153
0.00423728
0.00419515
0.00154469
0.00316706
0.00398704
0.00465204
0.00437277
0.00416728
0.0037436
0.00418116
0.00369276
0.00321781
0.00330916
0.00514299
0.00191262
0.00191262
0.00640068
0.02026
0.0376963
0.00408902
0.00497318
0.00307643
0.00200124
0.00442443
0.00510268
0.00467502
0.00449078
0.0041888
0.00345972
0.00335764
0.00401637
0.00330916
0.00418922
0.00404922
0.00224764
0.00807574
0.0203286
0.0376026
0.00390731
0.00505758
0.00343387
0.00200124
0.00282724
0.00533844
0.00500755
0.00481462
0.00383067
0.00305781
0.00302521
0.00362629
0.00353095
0.0022734
0.00422543
0.00522174
0.0106288
0.020806
0.0342888
0.00368748
0.00498878
0.00467267
0.00261199
0.00182475
0.00330509
0.00461077
0.00473169
0.00377736
0.00305781
0.00302521
0.00365714
0.0040167
0.0022734
0.00455764
0.00737677
0.0128933
0.0208852
0.0282279
0.00345049
0.00474687
0.00492644
0.00399014
0.00182475
0.00211351
0.00353374
0.00470645
0.00478293
0.00332933
0.00332056
0.00447264
0.00543423
0.00402731
0.00675812
0.00925223
0.013881
0.0191535
0.0214845
0.00322264
0.00440906
0.0048668
0.00474436
0.00347522
0.00211351
0.00247806
0.00364521
0.00407263
0.00431368
0.004337
0.00522013
0.00658572
0.00737705
0.00857131
0.0105732
0.013067
0.0164656
0.0164405
0.00299699
0.00402379
0.00449997
0.00492147
0.00479035
0.00309363
0.00248896
0.00259029
0.00308595
0.00386576
0.00413716
0.00536714
0.0085311
0.00989514
0.00963979
0.0110536
0.0119643
0.0140758
0.0135877
0.00271723
0.00361106
0.00403077
0.00447441
0.00514533
0.00487
0.00379477
0.00335076
0.00375605
0.00433979
0.00530755
0.00761251
0.0103952
0.0101619
0.00987859
0.0105704
0.0110324
0.0123082
0.0118771
0.0024549
0.00319451
0.00356078
0.00393577
0.00459376
0.00519537
0.00553777
0.00529802
0.00541464
0.00620038
0.00766973
0.00940486
0.00982712
0.00948976
0.00941919
0.00990448
0.0101428
0.0109449
0.0106706
0.00216692
0.0027712
0.00309199
0.00343464
0.00401347
0.00463539
0.00537217
0.00599517
0.00663769
0.00740319
0.00809509
0.0087411
0.00884569
0.00875158
0.0088414
0.00919712
0.0093526
0.00989291
0.00974333
0.00188139
0.00234863
0.00262681
0.00294023
0.00344252
0.00400358
0.0046883
0.00542131
0.00608263
0.0067754
0.00731879
0.00773128
0.00787825
0.0080368
0.00821094
0.00851839
0.00865607
0.00904725
0.00897762
0.0015907
0.00193535
0.00218597
0.00249209
0.00294685
0.00345688
0.00405244
0.00472594
0.00535797
0.00597746
0.00645946
0.00686456
0.00715285
0.00743587
0.00764615
0.00794187
0.00807203
0.0083787
0.00835428
0.00129489
0.00153091
0.00177944
0.00210925
0.00255392
0.003051
0.00358546
0.00418454
0.00473915
0.00530266
0.0057696
0.00621446
0.0065638
0.00689139
0.0071255
0.00742546
0.00755381
0.00782069
0.00781574
0.000981789
0.00110483
0.00137579
0.00173911
0.00218745
0.00268993
0.00319703
0.00375372
0.00427402
0.00481037
0.00528426
0.00573926
0.00610978
0.00645808
0.00671053
0.00701336
0.00714225
0.00738424
0.00739066
0.000684981
0.000689574
0.00101162
0.00143349
0.0018873
0.00239409
0.0028827
0.00341613
0.00391042
0.00442166
0.00488079
0.00532959
0.00570341
0.00606163
0.00632837
0.00663365
0.0067654
0.0069999
0.00700889
0.000556932
0.000576177
0.00075051
0.00119903
0.00170213
0.00222741
0.0027629
0.00330268
0.0038463
0.00437913
0.00488079
0.00532959
0.00570341
0.00606163
0.00632837
0.00663365
0.0067654
0.0069999
0.00700889
)
;

boundaryField
{
    leftWall
    {
        type            calculated;
        value           uniform 0;
    }
    rightWall
    {
        type            calculated;
        value           uniform 0;
    }
    lowerWall
    {
        type            calculated;
        value           uniform 0;
    }
    atmosphere
    {
        type            calculated;
        value           uniform 0;
    }
    defaultFaces
    {
        type            empty;
    }
}


// ************************************************************************* //
