/*--------------------------------*- C++ -*----------------------------------*\
| =========                 |                                                 |
| \\      /  F ield         | OpenFOAM: The Open Source CFD Toolbox           |
|  \\    /   O peration     | Version:  2012                                  |
|   \\  /    A nd           | Website:  www.openfoam.com                      |
|    \\/     M anipulation  |                                                 |
\*---------------------------------------------------------------------------*/
FoamFile
{
    version     2.0;
    format      ascii;
    class       surfaceScalarField;
    location    "0.33";
    object      phi;
}
// * * * * * * * * * * * * * * * * * * * * * * * * * * * * * * * * * * * * * //

dimensions      [0 3 -1 0 0 0 0];
oriented        oriented;


internalField   nonuniform List<scalar> 
4432
(
3.90594e-06
-3.90593e-06
7.7878e-06
-3.88186e-06
1.15726e-05
-3.78481e-06
1.54365e-05
-3.86391e-06
1.92148e-05
-3.77831e-06
2.28428e-05
-3.62795e-06
2.62924e-05
-3.44957e-06
2.97561e-05
-3.46372e-06
3.28332e-05
-3.07714e-06
3.58243e-05
-2.99103e-06
3.84735e-05
-2.64917e-06
4.04174e-05
-1.94399e-06
4.20663e-05
-1.64889e-06
4.32673e-05
-1.20096e-06
4.36876e-05
-4.20277e-07
4.29642e-05
7.23356e-07
4.1212e-05
1.75223e-06
3.82733e-05
2.93876e-06
3.3985e-05
4.28827e-06
2.79833e-05
6.00176e-06
2.06205e-05
7.36275e-06
1.12627e-05
9.35785e-06
1.12632e-05
3.90173e-06
-7.80766e-06
7.79362e-06
-7.77374e-06
1.15871e-05
-7.57828e-06
1.54503e-05
-7.72716e-06
1.92335e-05
-7.56147e-06
2.28714e-05
-7.26582e-06
2.63357e-05
-6.91391e-06
2.98015e-05
-6.92953e-06
3.2891e-05
-6.16658e-06
3.59129e-05
-6.01297e-06
3.85674e-05
-5.30359e-06
4.05686e-05
-3.94517e-06
4.23274e-05
-3.40771e-06
4.33785e-05
-2.25208e-06
4.3744e-05
-7.85816e-07
4.31676e-05
1.29981e-06
4.14422e-05
3.47761e-06
3.84516e-05
5.92941e-06
3.39812e-05
8.75866e-06
2.75926e-05
1.23904e-05
1.94958e-05
1.54595e-05
9.2839e-06
1.95698e-05
2.05474e-05
3.90113e-06
-1.17088e-05
7.81104e-06
-1.16836e-05
1.16153e-05
-1.13826e-05
1.54763e-05
-1.15881e-05
1.92699e-05
-1.13551e-05
2.29262e-05
-1.09221e-05
2.64175e-05
-1.04052e-05
2.98894e-05
-1.04015e-05
3.30034e-05
-9.28052e-06
3.60722e-05
-9.0818e-06
3.87354e-05
-7.96675e-06
4.08346e-05
-6.04442e-06
4.26801e-05
-5.25314e-06
4.37052e-05
-3.27721e-06
4.41446e-05
-1.22521e-06
4.38225e-05
1.62196e-06
4.23418e-05
4.9583e-06
3.96503e-05
8.6209e-06
3.56279e-05
1.27811e-05
2.9778e-05
1.82403e-05
2.21727e-05
2.30648e-05
1.16279e-05
3.01146e-05
3.21759e-05
3.90441e-06
-1.56132e-05
7.83348e-06
-1.56127e-05
1.16499e-05
-1.5199e-05
1.55075e-05
-1.54457e-05
1.9312e-05
-1.51596e-05
2.2998e-05
-1.46081e-05
2.65334e-05
-1.39406e-05
3.00207e-05
-1.38887e-05
3.31751e-05
-1.2435e-05
3.63018e-05
-1.22084e-05
3.89845e-05
-1.06495e-05
4.11972e-05
-8.25716e-06
4.31097e-05
-7.16561e-06
4.41951e-05
-4.36254e-06
4.46826e-05
-1.71278e-06
4.42808e-05
2.02376e-06
4.28051e-05
6.43402e-06
3.99835e-05
1.14425e-05
3.57629e-05
1.70018e-05
2.96801e-05
2.43231e-05
2.19563e-05
3.07886e-05
1.14961e-05
4.05749e-05
4.3673e-05
3.91317e-06
-1.95264e-05
7.86626e-06
-1.95658e-05
1.17004e-05
-1.90331e-05
1.55608e-05
-1.93061e-05
1.93794e-05
-1.89782e-05
2.30982e-05
-1.83269e-05
2.66844e-05
-1.75269e-05
3.01873e-05
-1.73916e-05
3.33952e-05
-1.56429e-05
3.65888e-05
-1.5402e-05
3.92934e-05
-1.3354e-05
4.16662e-05
-1.063e-05
4.36716e-05
-9.17106e-06
4.49158e-05
-5.60668e-06
4.55967e-05
-2.39367e-06
4.54647e-05
2.15572e-06
4.4421e-05
7.47772e-06
4.21203e-05
1.37432e-05
3.84668e-05
2.06553e-05
3.28267e-05
2.99633e-05
2.52608e-05
3.83544e-05
1.43016e-05
5.15341e-05
5.79756e-05
3.92153e-06
-2.34479e-05
7.89443e-06
-2.35387e-05
1.17488e-05
-2.28874e-05
1.56192e-05
-2.31765e-05
1.94558e-05
-2.28148e-05
2.32122e-05
-2.20832e-05
2.68585e-05
-2.11732e-05
3.0391e-05
-2.09241e-05
3.36771e-05
-1.8929e-05
3.69368e-05
-1.86617e-05
3.96843e-05
-1.61015e-05
4.2246e-05
-1.31916e-05
4.43748e-05
-1.12999e-05
4.56905e-05
-6.92234e-06
4.65532e-05
-3.25636e-06
4.6444e-05
2.26488e-06
4.54293e-05
8.49247e-06
4.30129e-05
1.61596e-05
3.92058e-05
2.44624e-05
3.33225e-05
3.58466e-05
2.56225e-05
4.60544e-05
1.42585e-05
6.28981e-05
7.22353e-05
3.9386e-06
-2.73865e-05
7.93724e-06
-2.75373e-05
1.18189e-05
-2.67691e-05
1.57081e-05
-2.70658e-05
1.95702e-05
-2.66768e-05
2.33644e-05
-2.58774e-05
2.707e-05
-2.48788e-05
3.06357e-05
-2.44898e-05
3.40086e-05
-2.23019e-05
3.73213e-05
-2.19744e-05
4.01211e-05
-1.89014e-05
4.29195e-05
-1.59899e-05
4.51564e-05
-1.35368e-05
4.67468e-05
-8.51276e-06
4.78425e-05
-4.35201e-06
4.80322e-05
2.07513e-06
4.74762e-05
9.04855e-06
4.56695e-05
1.79662e-05
4.26398e-05
2.74921e-05
3.74294e-05
4.1057e-05
3.02864e-05
5.31975e-05
1.86352e-05
7.45493e-05
9.08713e-05
3.9541e-06
-3.13406e-05
7.96039e-06
-3.15436e-05
1.18768e-05
-3.06855e-05
1.57917e-05
-3.09807e-05
1.96789e-05
-3.05641e-05
2.35177e-05
-2.97162e-05
2.72867e-05
-2.86478e-05
3.09169e-05
-2.81199e-05
3.44183e-05
-2.58033e-05
3.778e-05
-2.53361e-05
4.06911e-05
-2.18125e-05
4.37387e-05
-1.90375e-05
4.61069e-05
-1.5905e-05
4.79004e-05
-1.03063e-05
4.9183e-05
-5.63459e-06
4.94602e-05
1.79802e-06
4.91348e-05
9.37395e-06
4.73388e-05
1.97622e-05
4.45247e-05
3.03062e-05
3.92543e-05
4.63274e-05
3.19189e-05
6.05329e-05
2.00798e-05
8.63884e-05
0.000110951
-1.76852e-05
1.90851e-05
-3.54762e-05
1.91912e-05
-4.8161e-05
1.40852e-05
-5.87447e-05
1.19849e-05
-6.49567e-05
7.61337e-06
-7.00302e-05
6.47537e-06
-7.23191e-05
3.69073e-06
-7.36999e-05
2.78251e-06
-7.41762e-05
1.87764e-06
-7.33008e-05
5.25494e-07
-7.06234e-05
-1.27731e-06
-6.74101e-05
-1.81386e-06
-6.1627e-05
-4.3845e-06
-5.50213e-05
-5.20776e-06
-4.64648e-05
-7.15925e-06
-3.64251e-05
-8.64293e-06
-2.5199e-05
-9.82972e-06
-1.28075e-05
-1.09955e-05
-1.14115e-05
-1.92348e-05
3.97197e-05
-3.77127e-05
3.90693e-05
-5.01548e-05
2.79277e-05
-5.93967e-05
2.26279e-05
-6.47341e-05
1.43522e-05
-6.97035e-05
1.28466e-05
-7.22168e-05
7.60583e-06
-7.39539e-05
5.92139e-06
-7.46555e-05
3.98066e-06
-7.37369e-05
1.00766e-06
-7.09017e-05
-2.71238e-06
-6.76122e-05
-3.7039e-06
-6.18159e-05
-8.78216e-06
-5.52676e-05
-1.0358e-05
-4.66821e-05
-1.43475e-05
-3.66132e-05
-1.73149e-05
-2.53416e-05
-1.9705e-05
-1.28842e-05
-2.20566e-05
-2.28997e-05
-1.92349e-05
6.03544e-05
-3.72987e-05
5.85334e-05
-4.96687e-05
4.1698e-05
-6.04212e-05
3.47817e-05
-6.6841e-05
2.21733e-05
-7.19131e-05
1.93206e-05
-7.35161e-05
1.06106e-05
-7.43062e-05
8.11323e-06
-7.47479e-05
5.82366e-06
-7.39068e-05
1.5674e-06
-7.14196e-05
-3.79945e-06
-6.84306e-05
-5.29343e-06
-6.26117e-05
-1.32025e-05
-5.59148e-05
-1.56568e-05
-4.73384e-05
-2.15265e-05
-3.71441e-05
-2.61121e-05
-2.5765e-05
-2.96874e-05
-1.30978e-05
-3.33274e-05
-3.46012e-05
-2.12684e-05
8.30225e-05
-4.12667e-05
7.99319e-05
-5.37774e-05
5.56089e-05
-6.1614e-05
4.40195e-05
-6.5827e-05
2.77876e-05
-7.06838e-05
2.55792e-05
-7.30503e-05
1.43788e-05
-7.49715e-05
1.14362e-05
-7.62299e-05
8.48342e-06
-7.52893e-05
2.02764e-06
-7.21685e-05
-5.52015e-06
-6.88973e-05
-7.16513e-06
-6.30817e-05
-1.76194e-05
-5.66274e-05
-2.0713e-05
-4.80036e-05
-2.87527e-05
-3.77433e-05
-3.49752e-05
-2.62221e-05
-3.98116e-05
-1.33413e-05
-4.48114e-05
-4.65459e-05
-2.08273e-05
0.00010525
-4.18008e-05
0.000102306
-5.45533e-05
6.97617e-05
-6.46492e-05
5.55166e-05
-7.05974e-05
3.51372e-05
-7.54917e-05
3.18755e-05
-7.58874e-05
1.61762e-05
-7.55135e-05
1.24638e-05
-7.6156e-05
1.05272e-05
-7.54572e-05
2.72955e-06
-7.3167e-05
-6.41016e-06
-7.07295e-05
-8.20313e-06
-6.48424e-05
-2.21076e-05
-5.7979e-05
-2.6178e-05
-4.93612e-05
-3.59726e-05
-3.88108e-05
-4.41279e-05
-2.70442e-05
-5.01809e-05
-1.37739e-05
-5.66845e-05
-5.89227e-05
-2.58241e-05
0.000132474
-4.8892e-05
0.000126774
-6.10403e-05
8.331e-05
-6.63237e-05
6.22011e-05
-6.83091e-05
3.85237e-05
-7.27974e-05
3.77656e-05
-7.50121e-05
1.97926e-05
-7.70217e-05
1.5875e-05
-7.92429e-05
1.41497e-05
-7.82533e-05
3.14059e-06
-7.43787e-05
-8.88466e-06
-7.12179e-05
-9.96442e-06
-6.54844e-05
-2.64422e-05
-5.91763e-05
-3.10875e-05
-5.05438e-05
-4.32069e-05
-3.98908e-05
-5.33829e-05
-2.78946e-05
-6.07793e-05
-1.42204e-05
-6.89609e-05
-7.17453e-05
-2.38472e-05
0.000157721
-5.05116e-05
0.000154839
-6.37868e-05
9.79853e-05
-7.23337e-05
7.21494e-05
-7.7008e-05
4.45994e-05
-8.12895e-05
4.34492e-05
-7.95739e-05
1.94786e-05
-7.69961e-05
1.46985e-05
-7.83544e-05
1.69092e-05
-7.80671e-05
4.25386e-06
-7.59717e-05
-9.57985e-06
-7.46041e-05
-9.93245e-06
-6.85392e-05
-3.11079e-05
-6.12555e-05
-3.69723e-05
-5.26446e-05
-5.04192e-05
-4.15479e-05
-6.3081e-05
-2.91259e-05
-7.18029e-05
-1.48932e-05
-8.1795e-05
-8.524e-05
-3.33881e-05
0.000192508
-6.32435e-05
0.000186095
-7.44433e-05
0.000110585
-7.42898e-05
7.3397e-05
-7.17885e-05
4.34992e-05
-7.57531e-05
4.88154e-05
-7.73082e-05
2.24353e-05
-7.90432e-05
1.78348e-05
-8.3504e-05
2.27713e-05
-8.30398e-05
5.19021e-06
-7.80914e-05
-1.31282e-05
-7.54354e-05
-1.11889e-05
-6.96157e-05
-3.55284e-05
-6.31783e-05
-4.20107e-05
-5.46178e-05
-5.75806e-05
-4.32611e-05
-7.30387e-05
-3.05355e-05
-8.31293e-05
-1.56209e-05
-9.53104e-05
-9.94616e-05
8.49641e-06
-3.9837e-05
1.70654e-05
-4.01126e-05
2.55517e-05
-3.91718e-05
3.39959e-05
-3.94249e-05
4.23746e-05
-3.89428e-05
5.07072e-05
-3.80488e-05
5.89385e-05
-3.68791e-05
6.6885e-05
-3.60664e-05
7.46925e-05
-3.36108e-05
8.2026e-05
-3.26696e-05
8.87564e-05
-2.8543e-05
9.58489e-05
-2.613e-05
0.000101046
-2.11016e-05
0.000106173
-1.54342e-05
0.000109862
-9.32272e-06
0.00011215
-4.90678e-07
0.00011285
8.6741e-06
0.000112668
1.99447e-05
0.000110531
3.24433e-05
0.000108609
4.82487e-05
0.000103943
6.51989e-05
0.000100415
8.99162e-05
0.000124855
8.6513e-05
8.59559e-06
-4.84326e-05
1.72227e-05
-4.87397e-05
2.58833e-05
-4.78324e-05
3.44881e-05
-4.80297e-05
4.30564e-05
-4.7511e-05
5.1644e-05
-4.66364e-05
6.02296e-05
-4.54646e-05
6.86468e-05
-4.44836e-05
7.7017e-05
-4.19809e-05
8.49632e-05
-4.06159e-05
9.28453e-05
-3.6425e-05
0.000100303
-3.35876e-05
0.000106617
-2.74159e-05
0.000113216
-2.2033e-05
0.000117715
-1.38219e-05
0.000121304
-4.07925e-06
0.000122684
7.29414e-06
0.000122111
2.05177e-05
0.000119175
3.53789e-05
0.000115713
5.1711e-05
0.000112053
6.88584e-05
0.000111572
9.03974e-05
0.000123109
0.000113319
8.75078e-06
-5.71834e-05
1.74935e-05
-5.74825e-05
2.63887e-05
-5.67276e-05
3.52226e-05
-5.68635e-05
4.40254e-05
-5.63138e-05
5.29001e-05
-5.55111e-05
6.18227e-05
-5.43872e-05
7.06473e-05
-5.33082e-05
7.94794e-05
-5.08131e-05
8.80671e-05
-4.92035e-05
9.66185e-05
-4.49765e-05
0.000104725
-4.16945e-05
0.000112712
-3.54019e-05
0.000120214
-2.9535e-05
0.000126109
-1.97174e-05
0.000132319
-1.02886e-05
0.000136251
3.36206e-06
0.000139453
1.73834e-05
0.000140832
3.40003e-05
0.000142183
5.03596e-05
0.000143321
6.77207e-05
0.000146817
8.69015e-05
0.000114673
0.000155252
8.86354e-06
-6.60469e-05
1.76912e-05
-6.63101e-05
2.67776e-05
-6.58139e-05
3.58031e-05
-6.58889e-05
4.48211e-05
-6.53317e-05
5.39822e-05
-6.46722e-05
6.32787e-05
-6.36837e-05
7.2602e-05
-6.26317e-05
8.21015e-05
-6.03139e-05
9.15175e-05
-5.86241e-05
0.000101028
-5.44963e-05
0.000110458
-5.11397e-05
0.000119947
-4.49112e-05
0.000128629
-3.82407e-05
0.000137868
-2.89819e-05
0.000145573
-1.80233e-05
0.00015089
-1.98651e-06
0.000154431
1.38141e-05
0.000153778
3.46282e-05
0.000151923
5.22057e-05
0.000151398
7.09547e-05
0.00015282
8.5479e-05
0.000106292
0.000161202
8.95432e-06
-7.51133e-05
1.78507e-05
-7.53229e-05
2.71239e-05
-7.52115e-05
3.63699e-05
-7.52732e-05
4.56222e-05
-7.47384e-05
5.50622e-05
-7.42847e-05
6.46383e-05
-7.34511e-05
7.41863e-05
-7.23707e-05
8.39083e-05
-7.02141e-05
9.36503e-05
-6.85053e-05
0.000103507
-6.44552e-05
0.000113373
-6.10594e-05
0.000122825
-5.43935e-05
0.000132803
-4.8204e-05
0.000142498
-3.86387e-05
0.000149414
-2.48038e-05
0.00015684
-9.22207e-06
0.00016241
8.45149e-06
0.000163367
3.38981e-05
0.000164186
5.16196e-05
0.000164909
7.03341e-05
0.000167035
8.34436e-05
0.000101359
0.000171965
8.99943e-06
-8.41723e-05
1.80183e-05
-8.4394e-05
2.76105e-05
-8.48427e-05
3.73845e-05
-8.50623e-05
4.74151e-05
-8.47616e-05
5.78519e-05
-8.4695e-05
6.6567e-05
-8.21383e-05
7.22566e-05
-7.79903e-05
7.83892e-05
-7.63184e-05
8.65784e-05
-7.66677e-05
9.69681e-05
-7.48172e-05
0.000110204
-7.42675e-05
0.000126147
-7.03094e-05
0.000142355
-6.43857e-05
0.000157693
-5.39498e-05
0.000168658
-3.57424e-05
0.000175098
-1.5636e-05
0.000170683
1.29477e-05
0.000159728
4.49807e-05
0.000159254
5.22889e-05
0.000162774
6.71321e-05
0.000169029
7.76122e-05
9.23681e-05
0.000178418
6.49738e-06
-9.06379e-05
1.3138e-05
-9.10028e-05
1.97575e-05
-9.14304e-05
2.67519e-05
-9.2025e-05
3.34959e-05
-9.1474e-05
4.04372e-05
-9.16045e-05
4.80743e-05
-8.97444e-05
5.69818e-05
-8.68658e-05
6.76259e-05
-8.69312e-05
8.12169e-05
-9.02278e-05
9.82712e-05
-9.18413e-05
0.000118404
-9.4371e-05
0.000141039
-9.29158e-05
0.000164061
-8.73802e-05
0.000186555
-7.64178e-05
0.000206351
-5.55123e-05
0.000220541
-2.98015e-05
0.00022109
1.24232e-05
0.000206605
5.94899e-05
0.000184909
7.40119e-05
0.00016652
8.55545e-05
0.00016282
8.13726e-05
8.44553e-05
0.000170897
5.948e-06
-9.65536e-05
1.19539e-05
-9.69764e-05
1.73076e-05
-9.67521e-05
2.30259e-05
-9.77113e-05
2.83508e-05
-9.67675e-05
3.32027e-05
-9.64253e-05
3.95594e-05
-9.6071e-05
4.9237e-05
-9.65126e-05
6.08397e-05
-9.85036e-05
7.41221e-05
-0.00010348
8.92877e-05
-0.000106978
0.000104231
-0.000109286
0.000118721
-0.000107378
0.000133804
-0.000102436
0.00015025
-9.28368e-05
0.000171707
-7.69433e-05
0.000196062
-5.41312e-05
0.000223363
-1.48523e-05
0.000243285
3.95919e-05
0.00023942
7.78998e-05
0.000225538
9.94622e-05
0.000215683
9.1251e-05
8.88147e-05
0.00021135
6.25781e-06
-0.000102779
1.23727e-05
-0.000103059
1.82789e-05
-0.000102626
2.41256e-05
-0.000103526
3.02625e-05
-0.000102872
3.66991e-05
-0.00010283
4.36375e-05
-0.000102978
5.12628e-05
-0.000104106
5.94039e-05
-0.000106614
6.84282e-05
-0.000112474
7.71467e-05
-0.000115666
8.42536e-05
-0.000116363
9.10762e-05
-0.000114173
9.86918e-05
-0.000110024
0.000109044
-0.000103163
0.000124276
-9.2149e-05
0.000144443
-7.42739e-05
0.000175003
-4.53876e-05
0.000215441
-8.23165e-07
0.00025348
3.98836e-05
0.000280182
7.27819e-05
0.000295007
7.64476e-05
7.93944e-05
0.000304448
5.75408e-06
-0.000108501
1.12803e-05
-0.000108553
1.69658e-05
-0.000108279
2.22099e-05
-0.000108738
2.76796e-05
-0.00010831
3.33163e-05
-0.000108435
3.92789e-05
-0.000108909
4.59471e-05
-0.000110743
5.25581e-05
-0.000113194
5.84766e-05
-0.000118363
6.31002e-05
-0.00012026
6.65084e-05
-0.000119743
7.01283e-05
-0.000117764
7.44649e-05
-0.000114334
7.93657e-05
-0.000108037
8.6011e-05
-9.87685e-05
9.6267e-05
-8.45049e-05
0.000114697
-6.37926e-05
0.00014732
-3.34222e-05
0.000192736
-5.50884e-06
0.000237675
2.78658e-05
0.000272737
4.14079e-05
5.08494e-05
0.000301304
5.59879e-06
-0.000114067
1.11382e-05
-0.000114059
1.68588e-05
-0.000113967
2.2561e-05
-0.000114407
2.8652e-05
-0.000114369
3.50165e-05
-0.000114767
4.13019e-05
-0.000115163
4.73069e-05
-0.000116717
5.23593e-05
-0.000118216
5.58267e-05
-0.0001218
5.86034e-05
-0.000123008
6.13624e-05
-0.000122473
6.42543e-05
-0.000120628
6.68846e-05
-0.000116937
6.97899e-05
-0.000110916
7.3811e-05
-0.000102765
7.98125e-05
-9.04823e-05
9.07677e-05
-7.47244e-05
0.000110608
-5.32396e-05
0.000140637
-3.55158e-05
0.000178427
-9.90257e-06
0.000215905
3.95056e-06
1.62437e-05
0.000250531
5.61036e-06
-0.000119644
1.12358e-05
-0.000119652
1.69294e-05
-0.000119628
2.26198e-05
-0.000120065
2.84303e-05
-0.000120147
3.44133e-05
-0.000120718
4.016e-05
-0.000120878
4.55216e-05
-0.000122047
4.97563e-05
-0.00012242
5.29134e-05
-0.000124927
5.58492e-05
-0.000125914
5.86417e-05
-0.000125237
6.14433e-05
-0.000123402
6.45847e-05
-0.000120052
6.84683e-05
-0.000114774
7.37217e-05
-0.000107993
8.14848e-05
-9.82212e-05
9.39057e-05
-8.7122e-05
0.00011203
-7.13417e-05
0.000135917
-5.93804e-05
0.000166707
-4.0671e-05
0.000202104
-3.14262e-05
-2.06426e-05
0.000239011
5.61538e-06
-0.000125227
1.12763e-05
-0.00012528
1.70437e-05
-0.000125363
2.28044e-05
-0.000125793
2.86235e-05
-0.000125934
3.45263e-05
-0.000126589
4.02947e-05
-0.000126615
4.58399e-05
-0.000127561
5.0847e-05
-0.000127396
5.50617e-05
-0.000129111
5.91141e-05
-0.000129937
6.35601e-05
-0.000129655
6.89075e-05
-0.000128722
7.51753e-05
-0.000126293
8.25603e-05
-0.000122134
9.15061e-05
-0.000116914
0.000102532
-0.000109224
0.000116888
-0.000101456
0.000135409
-8.98416e-05
0.000159125
-8.30756e-05
0.00018813
-6.9657e-05
0.000219805
-6.3082e-05
-5.44157e-05
0.000253597
5.37309e-06
-0.000130567
1.08e-05
-0.000130674
1.6283e-05
-0.000130813
2.1798e-05
-0.000131276
2.73639e-05
-0.000131467
3.30501e-05
-0.000132243
3.87562e-05
-0.000132289
4.46149e-05
-0.000133389
5.02892e-05
-0.00013304
5.52814e-05
-0.000134074
6.02496e-05
-0.000134876
6.57809e-05
-0.000135158
7.20246e-05
-0.000134939
7.93669e-05
-0.000133609
8.794e-05
-0.000130681
9.82269e-05
-0.000127177
0.000110635
-0.000121609
0.000126402
-0.000117201
0.000145644
-0.000109063
0.000168733
-0.000106145
0.000196371
-9.72753e-05
0.000227363
-9.40561e-05
-8.86772e-05
0.000261643
5.51617e-06
-0.00013605
1.10531e-05
-0.000136178
1.6591e-05
-0.000136318
2.21724e-05
-0.000136824
2.7778e-05
-0.00013704
3.35017e-05
-0.000137935
3.92927e-05
-0.000138048
4.52437e-05
-0.000139309
5.1475e-05
-0.00013924
5.77538e-05
-0.000140323
6.41567e-05
-0.00014125
7.07886e-05
-0.000141762
7.78841e-05
-0.000142007
8.58436e-05
-0.000141543
9.49142e-05
-0.000139727
0.00010583
-0.00013807
0.000118759
-0.000134516
0.000134828
-0.000133249
0.000154041
-0.000128255
0.000176841
-0.000128927
0.000203746
-0.000124163
0.000233746
-0.00012404
-0.000122573
0.000267659
5.23767e-06
-0.000141254
1.04812e-05
-0.000141388
1.57429e-05
-0.000141547
2.10674e-05
-0.000142116
2.64287e-05
-0.000142369
3.19332e-05
-0.000143407
3.75304e-05
-0.000143614
4.32895e-05
-0.000145037
4.94876e-05
-0.000145408
5.57768e-05
-0.000146582
6.2156e-05
-0.000147601
6.89485e-05
-0.000148526
7.62384e-05
-0.00014927
8.45694e-05
-0.000149848
9.40112e-05
-0.000149145
0.000105462
-0.000149497
0.000118862
-0.000147895
0.00013536
-0.000149727
0.000154875
-0.000147751
0.000177507
-0.000151541
0.000204284
-0.000150923
0.000234892
-0.000154631
-0.000157694
0.000270028
5.22368e-06
-0.000146445
1.04846e-05
-0.000146616
1.5791e-05
-0.00014682
2.11797e-05
-0.000147472
2.66176e-05
-0.000147774
3.21765e-05
-0.000148933
3.78489e-05
-0.000149255
4.36203e-05
-0.000150777
4.96795e-05
-0.000151437
5.59593e-05
-0.000152832
6.25147e-05
-0.000154128
6.95768e-05
-0.000155561
7.70072e-05
-0.000156675
8.55044e-05
-0.000158321
9.50594e-05
-0.000158676
0.000106721
-0.000161136
0.000120174
-0.000161327
0.000136254
-0.000165788
0.000155157
-0.000166636
0.000176856
-0.000173224
0.000202713
-0.000176764
0.000232613
-0.000184517
-0.000192639
0.000267572
5.02117e-06
-0.000151433
1.0086e-05
-0.000151648
1.51787e-05
-0.00015188
2.03358e-05
-0.000152596
2.55225e-05
-0.000152929
3.07954e-05
-0.000154174
3.61787e-05
-0.000154606
4.16703e-05
-0.000156238
4.7444e-05
-0.00015718
5.35191e-05
-0.000158878
5.97838e-05
-0.000160364
6.66454e-05
-0.000162395
7.3896e-05
-0.000163899
8.24662e-05
-0.000166866
9.20923e-05
-0.000168279
0.000103719
-0.000172741
0.000116985
-0.000174574
0.000132386
-0.00018117
0.000150529
-0.000184762
0.00017119
-0.000193869
0.000195951
-0.000201511
0.000225038
-0.000213591
-0.000227122
0.000259533
4.98277e-06
-0.000156382
9.99044e-06
-0.000156622
1.50024e-05
-0.000156859
2.00598e-05
-0.00015762
2.51464e-05
-0.000157983
3.03153e-05
-0.000159311
3.56016e-05
-0.000159861
4.10249e-05
-0.00016163
4.66129e-05
-0.000162738
5.25318e-05
-0.000164768
5.85921e-05
-0.000166396
6.53544e-05
-0.000169131
7.25278e-05
-0.000171047
8.08476e-05
-0.000175162
8.9991e-05
-0.0001774
0.000100558
-0.000183287
0.000112638
-0.000186634
0.000126444
-0.000194958
0.000142846
-0.000201147
0.00016175
-0.000212759
0.000184361
-0.000224108
0.000211269
-0.000240487
-0.000259327
0.000243486
4.74853e-06
-0.000161098
9.51229e-06
-0.000161353
1.42847e-05
-0.000161598
1.91e-05
-0.000162403
2.39612e-05
-0.000162812
2.88869e-05
-0.000164205
3.39317e-05
-0.000164875
3.90895e-05
-0.000166758
4.43953e-05
-0.000168015
5.00605e-05
-0.000170405
5.59358e-05
-0.000172244
6.24378e-05
-0.000175607
6.93941e-05
-0.000177978
7.70798e-05
-0.000182824
8.56259e-05
-0.000185924
9.50585e-05
-0.0001927
0.000106105
-0.000197663
0.000118372
-0.000207208
0.000132953
-0.000215714
0.000149561
-0.000229353
0.000169119
-0.000243654
0.000192293
-0.00026365
-0.000287189
0.000220164
4.57849e-06
-0.000165643
9.17023e-06
-0.000165912
1.37787e-05
-0.000166174
1.84179e-05
-0.00016701
2.31044e-05
-0.000167466
2.78203e-05
-0.00016889
3.26374e-05
-0.000169661
3.753e-05
-0.00017162
4.25679e-05
-0.000173023
4.78142e-05
-0.000175623
5.3314e-05
-0.000177717
5.90951e-05
-0.000181362
6.5383e-05
-0.000184242
7.19764e-05
-0.000189395
7.96487e-05
-0.000193575
8.7775e-05
-0.000200806
9.75287e-05
-0.000207399
0.000107823
-0.000217486
0.000120151
-0.000228027
0.00013346
-0.00024265
0.000149143
-0.000259326
0.000167216
-0.000281714
-0.000308053
0.000188089
4.3966e-06
-0.000170007
8.79812e-06
-0.000170281
1.32129e-05
-0.000170557
1.76285e-05
-0.000171394
2.2092e-05
-0.000171898
2.65441e-05
-0.000173311
3.11051e-05
-0.000174192
3.56848e-05
-0.000176171
4.04139e-05
-0.000177724
4.52294e-05
-0.000180411
5.03081e-05
-0.000182769
5.54571e-05
-0.000186486
6.11569e-05
-0.000189918
6.69486e-05
-0.000195164
7.37362e-05
-0.000200342
8.05178e-05
-0.000207569
8.86038e-05
-0.000215468
9.66401e-05
-0.000225508
0.000106318
-0.000237692
0.000115933
-0.000252253
0.000127544
-0.000270928
0.000139231
-0.000293393
-0.000321722
0.000152907
4.23941e-06
-0.000174214
8.46647e-06
-0.000174476
1.26889e-05
-0.000174747
1.68738e-05
-0.000175547
2.10889e-05
-0.000176082
2.52485e-05
-0.00017744
2.95049e-05
-0.000178419
3.37014e-05
-0.000180338
3.80396e-05
-0.000182034
4.23076e-05
-0.000184652
4.68242e-05
-0.00018726
5.1264e-05
-0.000190902
5.61881e-05
-0.00019482
6.09701e-05
-0.000199925
6.64274e-05
-0.00020578
7.16884e-05
-0.000212812
7.78692e-05
-0.000221633
8.38227e-05
-0.000231447
9.08133e-05
-0.00024467
9.7213e-05
-0.000258642
0.000104646
-0.000278352
0.000110432
-0.000299171
-0.000328925
0.000117641
4.05147e-06
-0.000178234
8.07809e-06
-0.000178471
1.20907e-05
-0.000178728
1.60368e-05
-0.000179462
1.99979e-05
-0.000180013
2.38662e-05
-0.000181278
2.7806e-05
-0.000182329
3.16374e-05
-0.000184141
3.55757e-05
-0.000185945
3.93818e-05
-0.000188432
4.33855e-05
-0.000191239
4.7185e-05
-0.000194678
5.12569e-05
-0.000198869
5.50341e-05
-0.000203682
5.91973e-05
-0.000209925
6.30672e-05
-0.000216665
6.73718e-05
-0.000225922
7.12052e-05
-0.000235267
7.54166e-05
-0.00024887
7.8667e-05
-0.000261883
8.20114e-05
-0.000281688
8.29032e-05
-0.000300057
-0.00032954
8.35231e-05
3.90145e-06
-0.000182104
7.76856e-06
-0.000182307
1.16094e-05
-0.000182539
1.53522e-05
-0.000183175
1.90792e-05
-0.00018371
2.26583e-05
-0.000184828
2.62603e-05
-0.000185903
2.96879e-05
-0.000187541
3.31754e-05
-0.000189407
3.64559e-05
-0.000191687
3.98201e-05
-0.00019458
4.29084e-05
-0.000197743
4.60912e-05
-0.000202031
4.89562e-05
-0.000206527
5.18774e-05
-0.000212828
5.43261e-05
-0.000219098
5.67423e-05
-0.000228324
5.85247e-05
-0.000237037
6.01546e-05
-0.00025049
6.06393e-05
-0.000262359
6.05731e-05
-0.000281615
5.77284e-05
-0.000297207
-0.000324935
5.31276e-05
3.75043e-06
-0.000185824
7.45746e-06
-0.000185984
1.11236e-05
-0.000186175
1.46665e-05
-0.000186688
1.81597e-05
-0.000187175
2.14653e-05
-0.000188106
2.47289e-05
-0.000189139
2.7772e-05
-0.000190558
3.07931e-05
-0.000192402
3.356e-05
-0.00019443
3.63049e-05
-0.000197301
3.87628e-05
-0.000200179
4.11233e-05
-0.000204371
4.30676e-05
-0.000208453
4.47953e-05
-0.000214538
4.59546e-05
-0.000220242
4.67207e-05
-0.000229076
4.66023e-05
-0.000236907
4.58022e-05
-0.00024968
4.36276e-05
-0.000260176
4.03263e-05
-0.000278307
3.44751e-05
-0.000291351
-0.000316249
2.5792e-05
3.63197e-06
-0.000189427
7.21369e-06
-0.000189536
1.07431e-05
-0.000189675
1.41316e-05
-0.000190048
1.7446e-05
-0.000190461
2.05382e-05
-0.000191171
2.35254e-05
-0.0001921
2.62325e-05
-0.00019324
2.88216e-05
-0.000194967
3.10976e-05
-0.000196683
3.3202e-05
-0.000199384
3.49526e-05
-0.00020191
3.64407e-05
-0.00020584
3.74764e-05
-0.000209471
3.81335e-05
-0.00021518
3.81273e-05
-0.000220221
3.74627e-05
-0.000228399
3.57345e-05
-0.000235168
3.29255e-05
-0.000246861
2.85562e-05
-0.0002558
2.25932e-05
-0.000272339
1.47012e-05
-0.000283455
-0.000305288
3.74277e-06
3.48573e-06
-0.000192884
6.92387e-06
-0.000192946
1.03063e-05
-0.00019303
1.35494e-05
-0.000193263
1.66999e-05
-0.000193585
1.96181e-05
-0.000194063
2.23761e-05
-0.000194832
2.48177e-05
-0.000195657
2.70401e-05
-0.000197166
2.88859e-05
-0.000198506
3.04077e-05
-0.000200885
3.15039e-05
-0.000202986
3.22002e-05
-0.000206519
3.23414e-05
-0.000209596
3.19345e-05
-0.000214758
3.07915e-05
-0.000219065
2.88236e-05
-0.00022642
2.57287e-05
-0.000232063
2.12438e-05
-0.000242368
1.5151e-05
-0.0002497
6.76356e-06
-0.000263946
-3.14345e-06
-0.000273544
-0.000291935
-1.64941e-05
3.37287e-06
-0.00019623
6.70261e-06
-0.000196249
9.97709e-06
-0.000196278
1.31145e-05
-0.000196375
1.6141e-05
-0.000196586
1.8927e-05
-0.000196824
2.15116e-05
-0.000197393
2.37511e-05
-0.000197873
2.56758e-05
-0.000199069
2.71659e-05
-0.000199975
2.82161e-05
-0.000201916
2.87432e-05
-0.000203495
2.87376e-05
-0.000206496
2.80931e-05
-0.000208936
2.67495e-05
-0.0002134
2.45759e-05
-0.000216879
2.15064e-05
-0.000223339
1.73383e-05
-0.000227885
1.16797e-05
-0.000236702
4.44469e-06
-0.000242459
-5.31368e-06
-0.000254183
-1.70696e-05
-0.000261785
-0.000276849
-3.21536e-05
3.19164e-06
-0.000199396
6.34623e-06
-0.000199378
9.45293e-06
-0.000199359
1.24367e-05
-0.000199334
1.53049e-05
-0.000199429
1.79484e-05
-0.000199444
2.03768e-05
-0.000199799
2.24708e-05
-0.000199945
2.41971e-05
-0.000200774
2.54651e-05
-0.000201224
2.62187e-05
-0.000202651
2.63519e-05
-0.000203611
2.57981e-05
-0.000205927
2.44991e-05
-0.000207623
2.2386e-05
-0.000211274
1.92926e-05
-0.000213774
1.50979e-05
-0.000219134
9.84283e-06
-0.000222622
3.09269e-06
-0.000229945
-5.0291e-06
-0.000234332
-1.55841e-05
-0.000243624
-2.80834e-05
-0.000249283
-0.000260782
-4.41489e-05
3.01374e-06
-0.000202386
5.9897e-06
-0.00020233
8.93279e-06
-0.000202278
1.17664e-05
-0.000202144
1.44969e-05
-0.000202137
1.70275e-05
-0.000201952
1.93405e-05
-0.000202091
2.13327e-05
-0.000201917
2.29263e-05
-0.000202349
2.40445e-05
-0.000202324
2.46144e-05
-0.000203204
2.4544e-05
-0.000203525
2.37127e-05
-0.000205081
2.19817e-05
-0.000205878
1.92891e-05
-0.00020857
1.55841e-05
-0.000210058
1.06376e-05
-0.000214179
4.47624e-06
-0.000216453
-3.2898e-06
-0.000222172
-1.24086e-05
-0.000225208
-2.37245e-05
-0.000232304
-3.67097e-05
-0.000236295
-0.000244725
-5.27651e-05
2.70837e-06
-0.000205072
5.38292e-06
-0.000204982
8.03558e-06
-0.000204909
1.06089e-05
-0.000204696
1.31119e-05
-0.000204619
1.54782e-05
-0.000204298
1.76713e-05
-0.000204264
1.96149e-05
-0.000203842
2.12176e-05
-0.000203934
2.23825e-05
-0.000203472
2.2995e-05
-0.000203801
2.29474e-05
-0.000203463
2.20764e-05
-0.000204197
2.02322e-05
-0.000204022
1.72131e-05
-0.00020554
1.30045e-05
-0.00020584
7.43319e-06
-0.000208599
6.06152e-07
-0.000209618
-7.95398e-06
-0.000213606
-1.7997e-05
-0.00021516
-3.03027e-05
-0.000219994
-4.44426e-05
-0.000222153
-0.000227831
-6.13351e-05
2.41964e-06
-0.000207471
4.81325e-06
-0.000207355
7.18368e-06
-0.000207259
9.50133e-06
-0.000206993
1.17691e-05
-0.000206868
1.39398e-05
-0.00020645
1.59691e-05
-0.000206275
1.77794e-05
-0.000205636
1.93064e-05
-0.000205444
2.04925e-05
-0.000204643
2.12058e-05
-0.0002045
2.13282e-05
-0.000203573
2.06797e-05
-0.000203537
1.91045e-05
-0.000202436
1.63025e-05
-0.000202729
1.20963e-05
-0.000201626
6.191e-06
-0.000202687
-1.25382e-06
-0.000202167
-1.05053e-05
-0.000204349
-2.12282e-05
-0.000204433
-3.41282e-05
-0.000207091
-4.90388e-05
-0.00020724
-0.000209946
-6.69223e-05
2.02564e-06
-0.000209477
4.02981e-06
-0.000209341
6.01134e-06
-0.000209222
7.955e-06
-0.000208919
9.85867e-06
-0.000208754
1.16917e-05
-0.000208267
1.3438e-05
-0.000208006
1.50508e-05
-0.000207233
1.64696e-05
-0.000206849
1.76288e-05
-0.000205789
1.8411e-05
-0.00020527
1.87012e-05
-0.000203851
1.83381e-05
-0.000203163
1.71655e-05
-0.000201254
1.48552e-05
-0.00020041
1.12639e-05
-0.000198027
5.87705e-06
-0.000197293
-1.36411e-06
-0.000194921
-1.07663e-05
-0.000194943
-2.18135e-05
-0.000193382
-3.47895e-05
-0.000194112
-4.95344e-05
-0.000192493
-0.000192458
-6.70206e-05
1.66287e-06
-0.000211124
3.30958e-06
-0.000210971
4.93807e-06
-0.000210835
6.54025e-06
-0.000210505
8.11002e-06
-0.000210308
9.63725e-06
-0.000209779
1.11236e-05
-0.000209478
1.25633e-05
-0.000208659
1.38946e-05
-0.000208168
1.50336e-05
-0.000206916
1.5891e-05
-0.000206117
1.63617e-05
-0.000204312
1.62952e-05
-0.000203088
1.55721e-05
-0.000200523
1.39172e-05
-0.000198748
1.11844e-05
-0.000195288
6.79638e-06
-0.0001929
5.19667e-07
-0.000188639
-8.29293e-06
-0.000186126
-1.94255e-05
-0.000182246
-3.30279e-05
-0.000180507
-4.83842e-05
-0.000177134
-0.000174751
-6.60896e-05
1.27959e-06
-0.000212389
2.54262e-06
-0.000212219
3.78404e-06
-0.000212062
4.99954e-06
-0.000211707
6.1866e-06
-0.000211482
7.34784e-06
-0.000210927
8.47678e-06
-0.000210594
9.57112e-06
-0.000209742
1.06061e-05
-0.000209192
1.1555e-05
-0.000207855
1.23262e-05
-0.000206878
1.28328e-05
-0.00020481
1.29323e-05
-0.000203179
1.25277e-05
-0.000200112
1.13575e-05
-0.000197572
9.27221e-06
-0.000193197
5.83862e-06
-0.000189462
8.39268e-07
-0.000183636
-6.52303e-06
-0.00017876
-1.65022e-05
-0.000172264
-2.95398e-05
-0.000167467
-4.49838e-05
-0.000161688
-0.000157133
-6.26e-05
9.3439e-07
-0.000213311
1.85881e-06
-0.000213132
2.76664e-06
-0.000212958
3.65761e-06
-0.000212586
4.53023e-06
-0.000212343
5.38708e-06
-0.000211773
6.2206e-06
-0.000211418
7.04233e-06
-0.000210554
7.83644e-06
-0.000209977
8.61454e-06
-0.000208625
9.31834e-06
-0.000207575
9.87814e-06
-0.000205363
1.01495e-05
-0.000203444
1.0054e-05
-0.000200011
9.39427e-06
-0.000196907
8.10095e-06
-0.0001919
5.83205e-06
-0.000187189
2.4072e-06
-0.000180208
-2.92797e-06
-0.000173422