/*--------------------------------*- C++ -*----------------------------------*\
| =========                 |                                                 |
| \\      /  F ield         | OpenFOAM: The Open Source CFD Toolbox           |
|  \\    /   O peration     | Version:  2012                                  |
|   \\  /    A nd           | Website:  www.openfoam.com                      |
|    \\/     M anipulation  |                                                 |
\*---------------------------------------------------------------------------*/
FoamFile
{
    version     2.0;
    format      ascii;
    class       volScalarField;
    location    "0.33";
    object      rho;
}
// * * * * * * * * * * * * * * * * * * * * * * * * * * * * * * * * * * * * * //

dimensions      [1 -3 0 0 0 0 0];


internalField   nonuniform List<scalar> 
2268
(
1000.05
1000.05
1000.05
1000.05
1000.05
1000.05
1000.05
1000.05
1000.05
1000.05
1000.05
1000.05
1000.05
1000.05
1000.05
1000.05
1000.05
1000.05
1000.05
1000.05
1000.05
1000.05
998.864
1000.05
1000.05
1000.05
1000.05
1000.05
1000.05
1000.05
1000.05
1000.05
1000.05
1000.05
1000.05
1000.05
1000.05
1000.05
1000.05
1000.05
1000.05
1000.05
1000.05
1000.05
1000.05
999.281
1000.05
1000.05
1000.05
1000.05
1000.05
1000.05
1000.05
1000.05
1000.05
1000.05
1000.05
1000.05
1000.05
1000.05
1000.05
1000.05
1000.05
1000.05
1000.05
1000.05
1000.05
1000.05
998.439
1000.05
1000.05
1000.05
1000.05
1000.05
1000.05
1000.05
1000.05
1000.05
1000.05
1000.05
1000.05
1000.05
1000.05
1000.05
1000.05
1000.05
1000.05
1000.05
1000.05
1000.05
1000.05
997.546
1000.05
1000.05
1000.05
1000.05
1000.05
1000.05
1000.05
1000.05
1000.05
1000.05
1000.05
1000.05
1000.05
1000.05
1000.05
1000.05
1000.05
1000.05
1000.05
1000.05
1000.05
1000.05
997.546
1000.05
1000.05
1000.05
1000.05
1000.05
1000.05
1000.05
1000.05
1000.05
1000.05
1000.05
1000.05
1000.05
1000.05
1000.05
1000.05
1000.05
1000.05
1000.05
1000.05
1000.05
1000.05
997.546
1000.05
1000.05
1000.05
1000.05
1000.05
1000.05
1000.05
1000.05
1000.05
1000.05
1000.05
1000.05
1000.05
1000.05
1000.05
1000.05
1000.05
1000.05
1000.05
1000.05
1000.05
1000.05
997.879
1000.05
1000.05
1000.05
1000.05
1000.05
1000.05
1000.05
1000.05
1000.05
1000.05
1000.05
1000.05
1000.05
1000.05
1000.05
1000.05
1000.05
1000.05
1000.05
1000.05
1000.05
1000.05
999.574
1.31924
1.31924
1.31925
1.31924
1.31925
1.31925
1.31926
1.31926
1.31927
1.31927
1.31929
1.31929
1.3193
1.3193
1.31931
1.31931
1.31932
1.31932
1.31932
1.31924
1.31924
1.31925
1.31924
1.31925
1.31925
1.31926
1.31926
1.31927
1.31927
1.31928
1.31929
1.3193
1.3193
1.31931
1.31931
1.31932
1.31932
1.31932
1.31924
1.31924
1.31924
1.31924
1.31925
1.31925
1.31926
1.31926
1.31927
1.31927
1.31928
1.31928
1.3193
1.3193
1.31931
1.31931
1.31931
1.31932
1.31932
1.31924
1.31923
1.31924
1.31924
1.31925
1.31925
1.31926
1.31926
1.31927
1.31927
1.31928
1.31928
1.31929
1.3193
1.3193
1.31931
1.31931
1.31932
1.31932
1.31923
1.31923
1.31924
1.31923
1.31925
1.31924
1.31926
1.31926
1.31927
1.31927
1.31928
1.31928
1.31929
1.31929
1.3193
1.31931
1.31931
1.31931
1.31932
1.31923
1.31923
1.31924
1.31923
1.31925
1.31924
1.31925
1.31925
1.31927
1.31927
1.31928
1.31928
1.31929
1.31929
1.3193
1.3193
1.31931
1.31931
1.31932
1.31922
1.31922
1.31923
1.31923
1.31924
1.31924
1.31925
1.31925
1.31926
1.31926
1.31928
1.31928
1.31929
1.31929
1.3193
1.3193
1.31931
1.31931
1.31931
1.31922
1.31922
1.31923
1.31923
1.31924
1.31924
1.31925
1.31925
1.31926
1.31926
1.31927
1.31927
1.31929
1.31929
1.3193
1.3193
1.31931
1.31931
1.31931
1000.05
1000.05
1000.05
1000.05
1000.05
1000.05
1000.05
1000.05
1000.05
1000.05
1000.05
1000.05
1000.05
1000.05
1000.05
1000.05
1000.05
1000.05
1000.05
1000.05
1000.05
1000.05
998.681
1000.05
1000.05
1000.05
1000.05
1000.05
1000.05
1000.05
1000.05
1000.05
1000.05
1000.05
1000.05
1000.05
1000.05
1000.05
1000.05
1000.05
1000.05
1000.05
1000.05
1000.05
1000.05
999.202
1000.05
1000.05
1000.05
1000.05
1000.05
1000.05
1000.05
1000.05
1000.04
1000.02
999.954
999.799
999.562
999.2
998.965
998.721
999.277
1000.05
1000.05
1000.05
1000.05
1000.05
1000.04
998.121
997.945
997.57
996.769
995.57
993.7
990.83
986.237
976.787
957.129
931.299
896.759
862.486
824.3
802.155
775.93
788.871
821.57
881.169
964.61
1000.05
1000.05
1000.05
763.983
756.362
740.767
712.544
677.162
632.668
578.842
497.718
419.355
339.82
274.6
210.972
167.531
122.819
103.906
82.9767
85.8256
103.127
153.869
242.818
407.1
609.075
819.44
89.3998
84.5761
74.564
58.7558
41.1834
22.2328
2.56923
1.29354
1.29351
1.29348
1.29347
1.29346
1.29346
1.29345
1.29345
1.29346
1.29347
1.30943
1.76999
3.6864
10.7263
35.2593
126.215
1.29346
1.29345
1.29345
1.29345
1.29344
1.29343
1.29342
1.29342
1.29341
1.2934
1.2934
1.29339
1.2934
1.2934
1.2934
1.29342
1.29342
1.29343
1.29346
1.29349
1.3499
1.88667
3.44093
1.29338
1.29338
1.29338
1.29338
1.29337
1.29337
1.29337
1.29337
1.29337
1.29339
1.29373
1.29398
1.29374
1.29343
1.29339
1.29349
1.29379
1.29359
1.29341
1.29344
1.29355
1.29356
1.35343
1.29335
1.29335
1.29335
1.29335
1.29335
1.29335
1.29336
1.29336
1.29336
1.29373
1.29564
1.2959
1.29427
1.29338
1.29338
1.29338
1.30032
1.31553
1.31215
1.30231
1.29445
1.29385
1.29626
1.29334
1.29334
1.29334
1.29335
1.29335
1.29335
1.29335
1.29335
1.29336
1.29534
1.29588
1.29588
1.29384
1.29338
1.29344
1.29338
1.30404
1.33322
1.33384
1.33383
1.33385
1.31876
1.29408
1.29334
1.29334
1.29334
1.29334
1.29334
1.29334
1.29335
1.29335
1.29335
1.29513
1.2955
1.29363
1.29339
1.29337
1.29358
1.29384
1.29337
1.29675
1.30587
1.30343
1.29829
1.29549
1.29377
1.29334
1.29334
1.29334
1.29334
1.29334
1.29334
1.29334
1.29335
1.2934
1.29335
1.29335
1.29336
1.29336
1.29342
1.29336
1.29337
1.29337
1.29338
1.29338
1.29338
1.29339
1.29339
1.2934
1.29333
1.29333
1.29333
1.29333
1.29334
1.29334
1.29334
1.29334
1.29334
1.29334
1.29335
1.29335
1.29335
1.29336
1.29336
1.29336
1.29336
1.29337
1.29337
1.29338
1.29338
1.29338
1.29339
1.29333
1.29333
1.29333
1.29333
1.29333
1.29333
1.29333
1.29334
1.29334
1.29334
1.29334
1.29335
1.29335
1.29335
1.29335
1.29336
1.29336
1.29336
1.29337
1.29337
1.29337
1.29338
1.29338
1.29332
1.29332
1.29332
1.29333
1.29333
1.29333
1.29333
1.29333
1.29333
1.29333
1.29333
1.29334
1.29334
1.29334
1.29335
1.29335
1.29335
1.29335
1.29336
1.29336
1.29336
1.29337
1.29337
1.29332
1.29332
1.29332
1.29332
1.29332
1.29332
1.29332
1.29333
1.29333
1.29333
1.29333
1.29333
1.29333
1.29334
1.29334
1.29334
1.29334
1.29335
1.29335
1.29335
1.29336
1.29336
1.29336
1.29331
1.29331
1.29331
1.29331
1.29332
1.29332
1.29332
1.29332
1.29332
1.29332
1.29332
1.29332
1.29333
1.29333
1.29333
1.29333
1.29333
1.29334
1.29334
1.29334
1.29334
1.29335
1.29335
1.29331
1.29331
1.29331
1.29331
1.29331
1.29331
1.29331
1.29331
1.29331
1.29332
1.29332
1.29332
1.29332
1.29332
1.29332
1.29333
1.29333
1.29333
1.29333
1.29333
1.29333
1.29334
1.29334
1.2933
1.2933
1.2933
1.2933
1.2933
1.2933
1.2933
1.29331
1.29331
1.29331
1.29331
1.29331
1.29331
1.29331
1.29331
1.29332
1.29332
1.29332
1.29332
1.29332
1.29332
1.29332
1.29332
1.2933
1.2933
1.2933
1.2933
1.2933
1.2933
1.2933
1.2933
1.2933
1.2933
1.2933
1.2933
1.2933
1.29331
1.29331
1.29331
1.29331
1.29331
1.29331
1.29331
1.29331
1.29331
1.29331
1.29329
1.29329
1.29329
1.29329
1.29329
1.29329
1.29329
1.29329
1.29329
1.29329
1.29329
1.2933
1.2933
1.2933
1.2933
1.2933
1.2933
1.2933
1.2933
1.2933
1.2933
1.2933
1.2933
1.29328
1.29328
1.29328
1.29328
1.29328
1.29328
1.29328
1.29329
1.29329
1.29329
1.29329
1.29329
1.29329
1.29329
1.29329
1.29329
1.29329
1.29329
1.29329
1.29329
1.29329
1.29329
1.29329
1.29328
1.29328
1.29328
1.29328
1.29328
1.29328
1.29328
1.29328
1.29328
1.29328
1.29328
1.29328
1.29328
1.29328
1.29328
1.29328
1.29328
1.29328
1.29328
1.29328
1.29328
1.29328
1.29328
1.29327
1.29327
1.29327
1.29327
1.29327
1.29327
1.29327
1.29327
1.29327
1.29327
1.29327
1.29327
1.29327
1.29327
1.29327
1.29327
1.29327
1.29328
1.29327
1.29327
1.29327
1.29327
1.29327
1.29326
1.29326
1.29326
1.29326
1.29326
1.29326
1.29326
1.29326
1.29326
1.29326
1.29326
1.29326
1.29327
1.29327
1.29327
1.29327
1.29327
1.29327
1.29326
1.29326
1.29326
1.29326
1.29326
1.29325
1.29325
1.29325
1.29325
1.29325
1.29325
1.29325
1.29326
1.29326
1.29326
1.29326
1.29326
1.29326
1.29326
1.29326
1.29326
1.29326
1.29326
1.29326
1.29326
1.29325
1.29325
1.29325
1.29324
1.29324
1.29324
1.29324
1.29325
1.29325
1.29325
1.29325
1.29325
1.29325
1.29325
1.29325
1.29325
1.29325
1.29325
1.29325
1.29325
1.29325
1.29325
1.29325
1.29324
1.29324
1.29324
1.29324
1.29324
1.29324
1.29324
1.29324
1.29324
1.29324
1.29324
1.29324
1.29324
1.29324
1.29324
1.29324
1.29324
1.29324
1.29324
1.29324
1.29324
1.29324
1.29324
1.29324
1.29323
1.29323
1.29322
1.29323
1.29323
1.29323
1.29323
1.29323
1.29323
1.29323
1.29323
1.29323
1.29323
1.29323
1.29323
1.29323
1.29323
1.29323
1.29323
1.29323
1.29323
1.29323
1.29323
1.29323
1.29322
1.29321
1.29321
1.29321
1.29321
1.29321
1.29322
1.29322
1.29322
1.29322
1.29322
1.29322
1.29322
1.29322
1.29322
1.29322
1.29322
1.29322
1.29322
1.29322
1.29322
1.29322
1.29322
1.29322
1.2932
1.2932
1.2932
1.2932
1.2932
1.2932
1.2932
1.2932
1.29321
1.29321
1.29321
1.29321
1.29321
1.29321
1.29321
1.29321
1.29322
1.29322
1.29321
1.29321
1.29321
1.29321
1.29321
1.29318
1.29318
1.29318
1.29318
1.29318
1.29319
1.29319
1.29319
1.29319
1.29319
1.2932
1.2932
1.2932
1.2932
1.2932
1.29321
1.29321
1.29321
1.29321
1.29321
1.29321
1.2932
1.2932
1.29316
1.29316
1.29316
1.29316
1.29316
1.29317
1.29317
1.29317
1.29317
1.29317
1.29318
1.29318
1.29318
1.29319
1.29319
1.29319
1.2932
1.2932
1.2932
1.2932
1.2932
1.2932
1.29319
1.29314
1.29314
1.29314
1.29314
1.29314
1.29314
1.29315
1.29315
1.29315
1.29315
1.29316
1.29316
1.29316
1.29317
1.29317
1.29318
1.29318
1.29319
1.29319
1.29319
1.29319
1.29319
1.29319
1.29312
1.29312
1.29312
1.29312
1.29312
1.29313
1.29313
1.29313
1.29313
1.29313
1.29313
1.29314
1.29314
1.29315
1.29315
1.29316
1.29316
1.29317
1.29317
1.29318
1.29318
1.29318
1.29318
1.29311
1.29311
1.29311
1.29311
1.29311
1.29311
1.29311
1.29311
1.29311
1.29311
1.29312
1.29312
1.29312
1.29312
1.29313
1.29313
1.29314
1.29315
1.29316
1.29317
1.29317
1.29317
1.29317
1.29309
1.29309
1.29309
1.29309
1.29309
1.29309
1.2931
1.2931
1.2931
1.2931
1.2931
1.2931
1.2931
1.29311
1.29311
1.29311
1.29312
1.29313
1.29314
1.29315
1.29316
1.29316
1.29317
1.29308
1.29308
1.29308
1.29308
1.29308
1.29308
1.29308
1.29308
1.29308
1.29308
1.29309
1.29309
1.29309
1.29309
1.29309
1.2931
1.2931
1.29311
1.29312
1.29312
1.29314
1.29315
1.29316
1.29307
1.29307
1.29307
1.29307
1.29307
1.29307
1.29307
1.29307
1.29307
1.29307
1.29307
1.29307
1.29308
1.29308
1.29308
1.29308
1.29309
1.29309
1.2931
1.2931
1.29311
1.29313
1.29314
1.29306
1.29306
1.29306
1.29306
1.29306
1.29306
1.29306
1.29306
1.29306
1.29306
1.29306
1.29306
1.29306
1.29307
1.29307
1.29307
1.29307
1.29308
1.29308
1.29309
1.2931
1.29311
1.29312
1.29305
1.29305
1.29305
1.29305
1.29305
1.29305
1.29305
1.29305
1.29305
1.29305
1.29305
1.29305
1.29306
1.29306
1.29306
1.29306
1.29306
1.29307
1.29307
1.29308
1.29308
1.29309
1.2931
1.29305
1.29305
1.29305
1.29305
1.29305
1.29305
1.29305
1.29305
1.29305
1.29305
1.29305
1.29305
1.29305
1.29305
1.29305
1.29306
1.29306
1.29306
1.29307
1.29307
1.29308
1.29309
1.2931
998.458
998.775
959.387
329.24
998.458
998.856
999.572
938.915
999.833
999.519
999.588
999.049
1000.05
1000.05
1000.02
1000.04
933.445
985.44
1000.05
1000.05
217.188
288.916
377.324
468.143
5.44398
7.67094
10.8617
15.2161
1.55485
2.40605
2.75853
2.36369
1.30095
1.3024
1.30037
1.29911
1.29343
1.29343
1.29343
1.29343
1.29341
1.29341
1.29341
1.29342
1.2934
1.2934
1.29341
1.29341
1.29339
1.29339
1.2934
1.2934
1.29338
1.29339
1.29339
1.29339
1.29337
1.29337
1.29337
1.29337
1.29336
1.29336
1.29336
1.29336
1.29335
1.29335
1.29335
1.29335
1.29334
1.29334
1.29334
1.29333
1.29332
1.29332
1.29332
1.29332
1.29331
1.29331
1.29331
1.2933
1.2933
1.29329
1.29329
1.29329
1.29329
1.29328
1.29328
1.29328
1.29327
1.29327
1.29327
1.29326
1.29327
1.29326
1.29326
1.29325
1.29325
1.29325
1.29325
1.29324
1.29325
1.29324
1.29324
1.29324
1.29324
1.29323
1.29323
1.29323
1.29323
1.29323
1.29323
1.29322
1.29322
1.29322
1.29322
1.29321
1.29321
1.29321
1.29321
1.29321
1.2932
1.2932
1.2932
1.2932
1.2932
1.2932
1.29319
1.29319
1.29319
1.29319
1.29319
1.29319
1.29319
1.29318
1.29318
1.29318
1.29318
1.29318
1.29318
1.29318
1.29317
1.29317
1.29317
1.29317
1.29317
1.29317
1.29317
1.29316
1.29316
1.29316
1.29316
1.29316
1.29315
1.29315
1.29315
1.29315
1.29313
1.29314
1.29314
1.29315
1.29311
1.29312
1.29312
1.29313
1.2931
1.29311
1.29311
1.29312
1.31922
1.31919
1.31922
1.31921
1.31923
1.31923
1.31925
1.31925
1.31926
1.31926
1.31927
1.31927
1.31928
1.31928
1.31929
1.3193
1.3193
1.31931
1.31931
572.776
301.966
28.35
1.32224
1.31958
1.31925
1.31925
1.31924
1.31925
1.31925
1.31927
1.31927
1.31928
1.31928
1.31929
1.31929
1.3193
1.31931
1.31931
988.402
934.817
762.624
574.971
401.4
114.232
1.32328
1.31981
1.31928
1.3193
1.31927
1.31926
1.31929
1.31928
1.31929
1.31929
1.3193
1.3193
1.31931
1000.04
999.817
997.558
992.256
973.062
850.297
688.688
531.716
256.059
1.32695
1.32225
1.31949
1.31937
1.31931
1.3196
1.31932
1.3193
1.3193
1.3193
1000.05
1000.05
1000.05
1000.05
1000.05
999.171
996.423
989.342
922.401
780.351
503.543
88.247
1.32418
1.32004
1.32499
1.32077
1.31986
1.31935
1.31931
621.362
737.226
801.473
867.527
957.444
1000.05
1000.05
1000.05
1000.05
999.476
991.168
869.895
533.485
74.2688
1.3316
1.399
1.35121
1.32066
1.31932
35.0696
73.9384
116.236
164.883
225.186
310.264
386.778
489.041
715.886
987
1000.01
1000.01
1000.01
777.888
243.467
12.3256
2.02504
1.3406
1.31938
1.65315
1.53751
1.7075
2.12288
2.89859
4.66133
7.90486
14.6808
62.8404
156.484
352.542
772.743
993.895
993.896
834.738
270.639
14.4736
1.52494
1.32339
1.29701
1.29514
1.29419
1.29374
1.29366
1.29382
1.29453
1.29972
1.3947
2.20035
3.11039
81.0758
420.122
925.948
933.846
732.909
143.301
4.27968
1.3544
1.29344
1.29345
1.29353
1.29358
1.29351
1.29348
1.29349
1.2935
1.2935
1.29388
1.29726
1.68329
1.29379
387.325
930.927
920.013
437.155
25.5794
1.65773
1.29342
1.29343
1.29346
1.29356
1.29353
1.29347
1.29347
1.29348
1.29348
1.29354
1.29458
1.2943
1.29363
19.901
595.937
913.676
744.747
171.602
4.4418
1.29341
1.29342
1.29342
1.29343
1.29344
1.29345
1.29345
1.29347
1.29347
1.2935
1.29352
1.29361
1.29361
1.29364
225.253
826.823
863.063
437.293
12.9277
1.2934
1.29341
1.29341
1.29342
1.29342
1.29343
1.29344
1.29345
1.29345
1.29348
1.29348
1.2935
1.29352
1.29358
46.5803
688.733
862.691
574.149
32.4625
1.29339
1.29339
1.2934
1.2934
1.29341
1.29342
1.29343
1.29344
1.29344
1.29346
1.29346
1.29348
1.29349
1.29355
1.29366
502.008
863.062
588.903
37.9337
1.29338
1.29338
1.29338
1.29339
1.29338
1.2934
1.29341
1.29343
1.29342
1.29344
1.29343
1.29347
1.29346
1.29354
1.29363
307.516
862.689
572.492
36.6799
1.29336
1.29337
1.29337
1.29337
1.29336
1.29337
1.29337
1.29339
1.29339
1.29341
1.29342
1.29347
1.29345
1.29353
1.29367
298.27
666.766
386.31
25.9745
1.29335
1.29335
1.29334
1.29333
1.29332
1.29332
1.29332
1.29334
1.29335
1.29339
1.29356
1.29366
1.29341
1.29357
66.335
638.86
456.043
76.3951
12.1822
1.29334
1.29353
1.29349
1.29344
1.29337
1.29327
1.29327
1.2933
1.2933
1.29357
1.29411
1.29363
1.29335
1.29371
429.215
687.747
570.114
92.0514
5.1435
1.29331
1.29486
1.29394
1.29381
1.31464
1.31166
1.29569
1.29449
1.29414
1.29428
1.29428
1.29346
1.29333
14.2427
567.549
687.722
587.582
98.7113
3.1805
1.2933
1.29483
1.29354
1.30751
1.42673
1.45458
1.3826
1.29487
1.29369
1.29423
1.29385
1.2933
1.29334
17.2284
312.661
483.325
330.581
46.8876
2.19463
1.29328
1.29439
1.29351
1.42751
1.45454
1.45446
1.35012
1.29314
1.29318
1.29336
1.29327
1.29324
1.29336
9.51086
20.1224
30.2111
18.4364
10.1367
1.84563
1.29326
1.29323
1.30066
1.45458
1.45451
1.45265
1.31552
1.30379
1.30132
1.29321
1.29324
1.29324
1.85682
2.40253
2.00807
1.50634
1.3327
2.06677
1.75004
1.29325
1.29749
1.30495
1.42244
1.45456
1.38909
1.31864
1.37489
1.37483
1.35239
1.33111
1.35978
1.68708
1.49549
1.33394
1.3005
1.29406
1.29335
1.46623
1.29324
1.30892
1.309
1.40455
1.4028
1.29696
1.30868
1.34668
1.34021
1.3179
1.3109
1.31711
1.29986
1.29366
1.29313
1.29297
1.29295
1.29285
1.34208
1.29331
1.30784
1.32141
1.31121
1.31515
1.29365
1.29425
1.29921
1.3027
1.30254
1.29652
1.29548
1.29313
1.29306
1.29296
1.29288
1.29286
1.29279
1.30741
1.29326
1.29483
1.32142
1.29325
1.29326
1.29339
1.29322
1.29323
1.29331
1.29357
1.30298
1.32223
1.29316
1.29304
1.29292
1.29282
1.29267
1.2926
1.3334
1.29323
1.29367
1.3017
1.29717
1.29323
1.2932
1.29321
1.29323
1.29334
1.29337
1.29327
1.29315
1.3391
1.29301
1.29291
1.29275
1.29253
1.29271
1.3389
1.29321
1.2932
1.29317
1.30889
1.29353
1.29318
1.29321
1.29329
1.33699
159.44
170.725
46.975
2.54296
1.29304
1.29293
1.29276
1.29249
1.29342
1.3342
1.29321
1.2932
1.29381
1.30887
1.31655
1.2994
1.29327
1.2933
172.169
471.942
474.936
226.021
4.69319
1.2932
1.29302
1.29288
1.29261
1.29289
1.29744
1.2932
1.29319
1.2933
1.30239
1.31741
1.30801
1.29352
1.29327
181.361
474.936
474.936
235.403
4.56786
1.29329
1.29309
1.29304
1.29281
1.2927
1.29254
1.29319
1.29319
1.29317
1.29315
1.29453
1.31595
1.29447
1.29316
43.8265
233.728
238.452
84.053
3.55734
1.29321
1.29316
1.29314
1.29304
1.29304
1.29295
1.29319
1.29318
1.29317
1.29315
1.2937
1.31595
1.31885
1.82187
2.66988
5.22669
4.74738
3.55909
1.98278
1.29318
1.29316
1.29319
1.29316
1.29321
1.29319
1.29318
1.29318
1.29317
1.29316
1.29313
1.2931
1.30291
1.39024
1.29367
1.29332
1.29323
1.29594
1.316
1.29318
1.29318
1.2932
1.29321
1.29326
1.29325
1.29318
1.29317
1.29317
1.29316
1.29315
1.29313
1.29309
1.29306
1.29301
1.293
1.29302
1.29307
1.29313
1.29316
1.29317
1.29319
1.2932
1.29323
1.29324
1.29317
1.29317
1.29316
1.29316
1.29315
1.29314
1.29312
1.29311
1.29309
1.29309
1.2931
1.29313
1.29315
1.29317
1.29317
1.29319
1.2932
1.29323
1.29323
1.29317
1.29317
1.29316
1.29316
1.29315
1.29315
1.29314
1.29313
1.29312
1.29313
1.29313
1.29314
1.29315
1.29316
1.29317
1.29318
1.29319
1.2932
1.29321
1.29316
1.29316
1.29316
1.29316
1.29315
1.29315
1.29315
1.29314
1.29314
1.29314
1.29315
1.29315
1.29316
1.29317
1.29317
1.29318
1.29319
1.2932
1.2932
1.29316
1.29316
1.29316
1.29315
1.29315
1.29315
1.29315
1.29315
1.29315
1.29315
1.29315
1.29315
1.29315
1.29316
1.29316
1.29317
1.29317
1.29318
1.29318
1.29315
1.29315
1.29315
1.29315
1.29315
1.29315
1.29314
1.29314
1.29314
1.29315
1.29315
1.29315
1.29315
1.29316
1.29316
1.29316
1.29317
1.29317
1.29317
1.29315
1.29315
1.29315
1.29315
1.29315
1.29314
1.29314
1.29314
1.29314
1.29314
1.29314
1.29314
1.29314
1.29314
1.29314
1.29315
1.29315
1.29315
1.29315
1.29314
1.29314
1.29314
1.29314
1.29314
1.29314
1.29314
1.29314
1.29314
1.29314
1.29314
1.29314
1.29314
1.29314
1.29314
1.29315
1.29315
1.29315
1.29315
1.29313
1.29314
1.29314
1.29314
1.29314
1.29314
1.29314
1.29314
1.29314
1.29314
1.29314
1.29314
1.29314
1.29313
1.29313
1.29313
1.29313
1.29313
1.29313
)
;

boundaryField
{
    leftWall
    {
        type            calculated;
        value           nonuniform List<scalar> 
50
(
1000.05
1000.05
1000.05
1000.05
1000.05
1000.05
1000.05
1000.05
1000.05
1000.05
1000.05
998.121
763.983
89.3998
1.29346
1.29338
1.29335
1.29334
1.29334
1.29334
1.29333
1.29333
1.29332
1.29332
1.29331
1.29331
1.2933
1.2933
1.29329
1.29328
1.29328
1.29327
1.29326
1.29325
1.29324
1.29324
1.29322
1.29321
1.2932
1.29318
1.29316
1.29314
1.29312
1.29311
1.29309
1.29308
1.29307
1.29306
1.29305
1.29305
)
;
    }
    rightWall
    {
        type            calculated;
        value           nonuniform List<scalar> 
50
(
1.31932
1.31932
1.31932
1.31932
1.31932
1.31932
1.31931
1.31931
1.31931
1.31931
1.31931
1.3193
1.31931
1.31932
1.31938
1.32339
1.3544
1.65773
4.4418
12.9277
32.4625
37.9337
36.6799
25.9745
12.1822
5.1435
3.1805
2.19463
1.84563
1.75004
1.46623
1.34208
1.30741
1.3334
1.3389
1.3342
1.29744
1.29254
1.29295
1.29319
1.29325
1.29324
1.29323
1.29321
1.2932
1.29318
1.29317
1.29315
1.29315
1.29313
)
;
    }
    lowerWall
    {
        type            calculated;
        value           nonuniform List<scalar> 
62
(
1000.05
1000.05
1000.05
1000.05
1000.05
1000.05
1000.05
1000.05
1000.05
1000.05
1000.05
1000.05
1000.05
1000.05
1000.05
1000.05
1000.05
1000.05
1000.05
1000.05
1000.05
1000.05
998.864
998.864
999.281
998.439
997.546
997.546
997.546
997.879
999.574
998.458
998.775
959.387
329.241
1.31924
1.31924
1.31924
1.31924
1.31923
1.31923
1.31922
1.31922
1.31924
1.31924
1.31925
1.31924
1.31925
1.31925
1.31926
1.31926
1.31927
1.31927
1.31929
1.31929
1.3193
1.3193
1.31931
1.31931
1.31932
1.31932
1.31932
)
;
    }
    atmosphere
    {
        type            calculated;
        value           nonuniform List<scalar> 
46
(
1.29314
1.29314
1.29314
1.29314
1.29314
1.29314
1.29314
1.29314
1.29314
1.29314
1.29314
1.29314
1.29314
1.29314
1.29314
1.29314
1.29315
1.29315
1.29316
1.29316
1.29317
1.29318
1.29318
1.29319
1.2932
1.2932
1.29321
1.29322
1.29322
1.29323
1.29323
1.29323
1.29323
1.29323
1.29323
1.29323
1.29323
1.29323
1.29323
1.29323
1.29323
1.29323
1.29323
1.29323
1.29323
1.29323
)
;
    }
    defaultFaces
    {
        type            empty;
    }
}


// ************************************************************************* //
