/*--------------------------------*- C++ -*----------------------------------*\
| =========                 |                                                 |
| \\      /  F ield         | OpenFOAM: The Open Source CFD Toolbox           |
|  \\    /   O peration     | Version:  2012                                  |
|   \\  /    A nd           | Website:  www.openfoam.com                      |
|    \\/     M anipulation  |                                                 |
\*---------------------------------------------------------------------------*/
FoamFile
{
    version     2.0;
    format      ascii;
    class       volScalarField;
    location    "0.33";
    object      rho2;
}
// * * * * * * * * * * * * * * * * * * * * * * * * * * * * * * * * * * * * * //

dimensions      [1 -3 0 0 0 0 0];


internalField   nonuniform List<scalar> 
2268
(
1.30846
1.30846
1.30844
1.30845
1.30844
1.30847
1.30846
1.30854
1.30859
1.30874
1.30893
1.30914
1.30954
1.30995
1.31058
1.31132
1.3122
1.31331
1.31447
1.31581
1.31702
1.31816
1.31877
1.30769
1.3077
1.30768
1.30769
1.30768
1.3077
1.3077
1.30777
1.30782
1.30797
1.30815
1.30836
1.30876
1.30916
1.30978
1.31051
1.31139
1.3125
1.31364
1.315
1.3162
1.31732
1.31794
1.30692
1.30692
1.30691
1.30692
1.3069
1.30692
1.30692
1.30699
1.30704
1.30718
1.30736
1.30757
1.30797
1.30837
1.30899
1.30973
1.31061
1.31172
1.3129
1.3143
1.31558
1.31686
1.31757
1.30614
1.30614
1.30612
1.30613
1.30611
1.30613
1.30613
1.30619
1.30623
1.30636
1.30653
1.30673
1.30711
1.30748
1.30809
1.30882
1.30967
1.3108
1.31195
1.31339
1.31463
1.31592
1.31651
1.30534
1.30534
1.30533
1.30533
1.30531
1.30533
1.30532
1.30538
1.30542
1.30555
1.30571
1.30591
1.30629
1.30665
1.30727
1.30799
1.30886
1.30998
1.31118
1.31268
1.31406
1.31558
1.31656
1.30454
1.30454
1.30452
1.30452
1.3045
1.30451
1.3045
1.30454
1.30457
1.30468
1.30481
1.305
1.30534
1.30568
1.30626
1.30696
1.30778
1.30893
1.31007
1.31168
1.313
1.31468
1.31537
1.30372
1.30372
1.3037
1.3037
1.30367
1.30368
1.30366
1.30371
1.30373
1.30384
1.30396
1.30415
1.30448
1.30481
1.30541
1.30607
1.30693
1.30806
1.30927
1.31089
1.31238
1.31429
1.31562
1.3029
1.3029
1.30288
1.30287
1.30284
1.30284
1.30281
1.30284
1.30284
1.30292
1.30301
1.30318
1.30345
1.30375
1.30429
1.3049
1.3057
1.30682
1.30797
1.30972
1.31114
1.31347
1.31449
1.31924
1.31924
1.31925
1.31924
1.31925
1.31925
1.31926
1.31926
1.31927
1.31927
1.31929
1.31929
1.3193
1.3193
1.31931
1.31931
1.31932
1.31932
1.31932
1.31924
1.31924
1.31925
1.31924
1.31925
1.31925
1.31926
1.31926
1.31927
1.31927
1.31928
1.31929
1.3193
1.3193
1.31931
1.31931
1.31932
1.31932
1.31932
1.31924
1.31924
1.31924
1.31924
1.31925
1.31925
1.31926
1.31926
1.31927
1.31927
1.31928
1.31928
1.3193
1.3193
1.31931
1.31931
1.31931
1.31932
1.31932
1.31924
1.31923
1.31924
1.31924
1.31925
1.31925
1.31926
1.31926
1.31927
1.31927
1.31928
1.31928
1.31929
1.3193
1.3193
1.31931
1.31931
1.31932
1.31932
1.31923
1.31923
1.31924
1.31923
1.31925
1.31924
1.31926
1.31926
1.31927
1.31927
1.31928
1.31928
1.31929
1.31929
1.3193
1.31931
1.31931
1.31931
1.31932
1.31923
1.31923
1.31924
1.31923
1.31925
1.31924
1.31925
1.31925
1.31927
1.31927
1.31928
1.31928
1.31929
1.31929
1.3193
1.3193
1.31931
1.31931
1.31932
1.31922
1.31922
1.31923
1.31923
1.31924
1.31924
1.31925
1.31925
1.31926
1.31926
1.31928
1.31928
1.31929
1.31929
1.3193
1.3193
1.31931
1.31931
1.31931
1.31922
1.31922
1.31923
1.31923
1.31924
1.31924
1.31925
1.31925
1.31926
1.31926
1.31927
1.31927
1.31929
1.31929
1.3193
1.3193
1.31931
1.31931
1.31931
1.30158
1.30157
1.30155
1.30154
1.30151
1.3015
1.30147
1.30148
1.30148
1.30155
1.30164
1.30178
1.30204
1.30233
1.30289
1.30339
1.3043
1.3053
1.30661
1.3083
1.31011
1.31277
1.31503
1.29978
1.29977
1.29974
1.29971
1.29967
1.29962
1.29956
1.29952
1.29946
1.29944
1.29943
1.29948
1.29958
1.29974
1.3001
1.30044
1.30114
1.30197
1.3032
1.30496
1.30688
1.31037
1.3132
1.29789
1.29788
1.29785
1.29781
1.29775
1.2977
1.29762
1.29757
1.29751
1.29746
1.29744
1.29744
1.2975
1.2976
1.29788
1.29811
1.29881
1.2993
1.30047
1.3015
1.30315
1.30484
1.30721
1.29606
1.29604
1.296
1.29594
1.29587
1.29578
1.29567
1.29554
1.29539
1.29524
1.2951
1.29495
1.29484
1.29472
1.29468
1.29466
1.29477
1.29503
1.29577
1.29694
1.29851
1.30101
1.30307
1.29435
1.29433
1.2943
1.29424
1.29418
1.2941
1.29402
1.29395
1.29389
1.29383
1.29378
1.29373
1.2937
1.29366
1.29366
1.29365
1.29366
1.29369
1.29373
1.29377
1.2939
1.29419
1.29541
1.29363
1.29363
1.29362
1.2936
1.29359
1.29357
1.29357
1.29354
1.29351
1.29348
1.29347
1.29346
1.29346
1.29345
1.29345
1.29346
1.29347
1.29349
1.29353
1.29358
1.29362
1.29365
1.29371
1.29346
1.29345
1.29345
1.29345
1.29344
1.29343
1.29342
1.29342
1.29341
1.2934
1.2934
1.29339
1.29339
1.29339
1.2934
1.2934
1.29341
1.29343
1.29346
1.29349
1.29351
1.29354
1.29356
1.29338
1.29338
1.29338
1.29338
1.29337
1.29337
1.29337
1.29337
1.29337
1.29337
1.29337
1.29338
1.29338
1.29338
1.29339
1.29339
1.29339
1.2934
1.29341
1.29344
1.29347
1.29348
1.29349
1.29335
1.29335
1.29335
1.29335
1.29335
1.29335
1.29336
1.29336
1.29336
1.29336
1.29336
1.29337
1.29337
1.29337
1.29338
1.29338
1.29338
1.29339
1.2934
1.29341
1.29342
1.29343
1.29344
1.29334
1.29334
1.29334
1.29335
1.29335
1.29335
1.29335
1.29335
1.29336
1.29336
1.29336
1.29336
1.29337
1.29337
1.29337
1.29338
1.29338
1.29339
1.29339
1.2934
1.2934
1.29341
1.29342
1.29334
1.29334
1.29334
1.29334
1.29334
1.29334
1.29335
1.29335
1.29335
1.29335
1.29336
1.29336
1.29336
1.29336
1.29337
1.29337
1.29337
1.29338
1.29338
1.29339
1.29339
1.2934
1.2934
1.29334
1.29334
1.29334
1.29334
1.29334
1.29334
1.29334
1.29335
1.29335
1.29335
1.29335
1.29336
1.29336
1.29336
1.29336
1.29337
1.29337
1.29338
1.29338
1.29338
1.29339
1.29339
1.2934
1.29333
1.29333
1.29333
1.29333
1.29334
1.29334
1.29334
1.29334
1.29334
1.29334
1.29335
1.29335
1.29335
1.29335
1.29336
1.29336
1.29336
1.29337
1.29337
1.29338
1.29338
1.29338
1.29339
1.29333
1.29333
1.29333
1.29333
1.29333
1.29333
1.29333
1.29334
1.29334
1.29334
1.29334
1.29334
1.29335
1.29335
1.29335
1.29336
1.29336
1.29336
1.29337
1.29337
1.29337
1.29338
1.29338
1.29332
1.29332
1.29332
1.29333
1.29333
1.29333
1.29333
1.29333
1.29333
1.29333
1.29333
1.29334
1.29334
1.29334
1.29334
1.29335
1.29335
1.29335
1.29336
1.29336
1.29336
1.29337
1.29337
1.29332
1.29332
1.29332
1.29332
1.29332
1.29332
1.29332
1.29332
1.29333
1.29333
1.29333
1.29333
1.29333
1.29334
1.29334
1.29334
1.29334
1.29335
1.29335
1.29335
1.29336
1.29336
1.29336
1.29331
1.29331
1.29331
1.29331
1.29332
1.29332
1.29332
1.29332
1.29332
1.29332
1.29332
1.29332
1.29333
1.29333
1.29333
1.29333
1.29333
1.29334
1.29334
1.29334
1.29334
1.29335
1.29335
1.29331
1.29331
1.29331
1.29331
1.29331
1.29331
1.29331
1.29331
1.29331
1.29332
1.29332
1.29332
1.29332
1.29332
1.29332
1.29333
1.29333
1.29333
1.29333
1.29333
1.29333
1.29334
1.29334
1.2933
1.2933
1.2933
1.2933
1.2933
1.2933
1.2933
1.29331
1.29331
1.29331
1.29331
1.29331
1.29331
1.29331
1.29331
1.29332
1.29332
1.29332
1.29332
1.29332
1.29332
1.29332
1.29332
1.2933
1.2933
1.2933
1.2933
1.2933
1.2933
1.2933
1.2933
1.2933
1.2933
1.2933
1.2933
1.2933
1.29331
1.29331
1.29331
1.29331
1.29331
1.29331
1.29331
1.29331
1.29331
1.29331
1.29329
1.29329
1.29329
1.29329
1.29329
1.29329
1.29329
1.29329
1.29329
1.29329
1.29329
1.2933
1.2933
1.2933
1.2933
1.2933
1.2933
1.2933
1.2933
1.2933
1.2933
1.2933
1.2933
1.29328
1.29328
1.29328
1.29328
1.29328
1.29328
1.29328
1.29329
1.29329
1.29329
1.29329
1.29329
1.29329
1.29329
1.29329
1.29329
1.29329
1.29329
1.29329
1.29329
1.29329
1.29329
1.29329
1.29328
1.29328
1.29328
1.29328
1.29328
1.29328
1.29328
1.29328
1.29328
1.29328
1.29328
1.29328
1.29328
1.29328
1.29328
1.29328
1.29328
1.29328
1.29328
1.29328
1.29328
1.29328
1.29328
1.29327
1.29327
1.29327
1.29327
1.29327
1.29327
1.29327
1.29327
1.29327
1.29327
1.29327
1.29327
1.29327
1.29327
1.29327
1.29327
1.29327
1.29328
1.29327
1.29327
1.29327
1.29327
1.29327
1.29326
1.29326
1.29326
1.29326
1.29326
1.29326
1.29326
1.29326
1.29326
1.29326
1.29326
1.29326
1.29327
1.29327
1.29327
1.29327
1.29327
1.29327
1.29326
1.29326
1.29326
1.29326
1.29326
1.29325
1.29325
1.29325
1.29325
1.29325
1.29325
1.29325
1.29326
1.29326
1.29326
1.29326
1.29326
1.29326
1.29326
1.29326
1.29326
1.29326
1.29326
1.29326
1.29326
1.29325
1.29325
1.29325
1.29324
1.29324
1.29324
1.29324
1.29325
1.29325
1.29325
1.29325
1.29325
1.29325
1.29325
1.29325
1.29325
1.29325
1.29325
1.29325
1.29325
1.29325
1.29325
1.29325
1.29324
1.29324
1.29324
1.29324
1.29324
1.29324
1.29324
1.29324
1.29324
1.29324
1.29324
1.29324
1.29324
1.29324
1.29324
1.29324
1.29324
1.29324
1.29324
1.29324
1.29324
1.29324
1.29324
1.29324
1.29323
1.29323
1.29322
1.29323
1.29323
1.29323
1.29323
1.29323
1.29323
1.29323
1.29323
1.29323
1.29323
1.29323
1.29323
1.29323
1.29323
1.29323
1.29323
1.29323
1.29323
1.29323
1.29323
1.29323
1.29322
1.29321
1.29321
1.29321
1.29321
1.29321
1.29322
1.29322
1.29322
1.29322
1.29322
1.29322
1.29322
1.29322
1.29322
1.29322
1.29322
1.29322
1.29322
1.29322
1.29322
1.29322
1.29322
1.29322
1.2932
1.2932
1.2932
1.2932
1.2932
1.2932
1.2932
1.2932
1.29321
1.29321
1.29321
1.29321
1.29321
1.29321
1.29321
1.29321
1.29322
1.29322
1.29321
1.29321
1.29321
1.29321
1.29321
1.29318
1.29318
1.29318
1.29318
1.29318
1.29319
1.29319
1.29319
1.29319
1.29319
1.2932
1.2932
1.2932
1.2932
1.2932
1.29321
1.29321
1.29321
1.29321
1.29321
1.29321
1.2932
1.2932
1.29316
1.29316
1.29316
1.29316
1.29316
1.29317
1.29317
1.29317
1.29317
1.29317
1.29318
1.29318
1.29318
1.29319
1.29319
1.29319
1.2932
1.2932
1.2932
1.2932
1.2932
1.2932
1.29319
1.29314
1.29314
1.29314
1.29314
1.29314
1.29314
1.29315
1.29315
1.29315
1.29315
1.29316
1.29316
1.29316
1.29317
1.29317
1.29318
1.29318
1.29319
1.29319
1.29319
1.29319
1.29319
1.29319
1.29312
1.29312
1.29312
1.29312
1.29312
1.29313
1.29313
1.29313
1.29313
1.29313
1.29313
1.29314
1.29314
1.29315
1.29315
1.29316
1.29316
1.29317
1.29317
1.29318
1.29318
1.29318
1.29318
1.29311
1.29311
1.29311
1.29311
1.29311
1.29311
1.29311
1.29311
1.29311
1.29311
1.29312
1.29312
1.29312
1.29312
1.29313
1.29313
1.29314
1.29315
1.29316
1.29317
1.29317
1.29317
1.29317
1.29309
1.29309
1.29309
1.29309
1.29309
1.29309
1.2931
1.2931
1.2931
1.2931
1.2931
1.2931
1.2931
1.29311
1.29311
1.29311
1.29312
1.29313
1.29314
1.29315
1.29316
1.29316
1.29317
1.29308
1.29308
1.29308
1.29308
1.29308
1.29308
1.29308
1.29308
1.29308
1.29308
1.29309
1.29309
1.29309
1.29309
1.29309
1.2931
1.2931
1.29311
1.29312
1.29312
1.29314
1.29315
1.29316
1.29307
1.29307
1.29307
1.29307
1.29307
1.29307
1.29307
1.29307
1.29307
1.29307
1.29307
1.29307
1.29308
1.29308
1.29308
1.29308
1.29309
1.29309
1.2931
1.2931
1.29311
1.29313
1.29314
1.29306
1.29306
1.29306
1.29306
1.29306
1.29306
1.29306
1.29306
1.29306
1.29306
1.29306
1.29306
1.29306
1.29307
1.29307
1.29307
1.29307
1.29308
1.29308
1.29309
1.2931
1.29311
1.29312
1.29305
1.29305
1.29305
1.29305
1.29305
1.29305
1.29305
1.29305
1.29305
1.29305
1.29305
1.29305
1.29306
1.29306
1.29306
1.29306
1.29306
1.29307
1.29307
1.29308
1.29308
1.29309
1.2931
1.29305
1.29305
1.29305
1.29305
1.29305
1.29305
1.29305
1.29305
1.29305
1.29305
1.29305
1.29305
1.29305
1.29305
1.29305
1.29306
1.29306
1.29306
1.29307
1.29307
1.29308
1.29309
1.2931
1.31748
1.32348
1.32659
1.32509
1.31884
1.32112
1.32164
1.32393
1.30886
1.31132
1.31284
1.31511
1.30555
1.3067
1.30797
1.30925
1.29676
1.29792
1.29896
1.30029
1.29379
1.29386
1.294
1.29415
1.29357
1.29359
1.29359
1.2936
1.29351
1.29352
1.29353
1.29352
1.29345
1.29345
1.29346
1.29346
1.29342
1.29342
1.29343
1.29343
1.29341
1.29341
1.29341
1.29342
1.2934
1.2934
1.29341
1.29341
1.29339
1.29339
1.2934
1.2934
1.29338
1.29339
1.29339
1.29339
1.29337
1.29337
1.29337
1.29337
1.29336
1.29336
1.29336
1.29336
1.29335
1.29335
1.29335
1.29335
1.29334
1.29334
1.29334
1.29333
1.29332
1.29332
1.29332
1.29332
1.29331
1.29331
1.29331
1.2933
1.2933
1.29329
1.29329
1.29329
1.29329
1.29328
1.29328
1.29328
1.29327
1.29327
1.29327
1.29326
1.29327
1.29326
1.29326
1.29325
1.29325
1.29325
1.29325
1.29324
1.29325
1.29324
1.29324
1.29324
1.29324
1.29323
1.29323
1.29323
1.29323
1.29323
1.29323
1.29322
1.29322
1.29322
1.29322
1.29321
1.29321
1.29321
1.29321
1.29321
1.2932
1.2932
1.2932
1.2932
1.2932
1.2932
1.29319
1.29319
1.29319
1.29319
1.29319
1.29319
1.29319
1.29318
1.29318
1.29318
1.29318
1.29318
1.29318
1.29318
1.29317
1.29317
1.29317
1.29317
1.29317
1.29317
1.29317
1.29316
1.29316
1.29316
1.29316
1.29316
1.29315
1.29315
1.29315
1.29315
1.29313
1.29314
1.29314
1.29315
1.29311
1.29312
1.29312
1.29313
1.2931
1.29311
1.29311
1.29312
1.31922
1.31919
1.31922
1.31921
1.31923
1.31922
1.31925
1.31925
1.31926
1.31926
1.31927
1.31927
1.31928
1.31928
1.31929
1.3193
1.3193
1.31931
1.31931
1.32541
1.32555
1.32619
1.32224
1.31958
1.31925
1.31925
1.31923
1.31925
1.31925
1.31927
1.31926
1.31928
1.31928
1.31929
1.31929
1.3193
1.31931
1.31931
1.31766
1.3224
1.32769
1.32756
1.32677
1.3268
1.32328
1.31981
1.31928
1.3193
1.31927
1.31925
1.31928
1.31928
1.31929
1.31929
1.3193
1.3193
1.31931
1.31181
1.31338
1.31525
1.31806
1.32146
1.32564
1.32786
1.32686
1.32689
1.32695
1.32225
1.31949
1.31934
1.31929
1.31932
1.31932
1.3193
1.3193
1.3193
1.30225
1.30528
1.30792
1.30962
1.31141
1.31289
1.3146
1.31822
1.32242
1.3282
1.32785
1.327
1.32418
1.32004
1.31965
1.31959
1.31937
1.3193
1.31931
1.29463
1.29541
1.29634
1.2977
1.29951
1.30195
1.30438
1.30665
1.30981
1.31346
1.31826
1.32502
1.32836
1.32737
1.32626
1.32196
1.31986
1.31938
1.31932
1.2936
1.29362
1.29364
1.29367
1.29367
1.29369
1.29376
1.2942
1.29625
1.30095
1.30524
1.3117
1.31758
1.32683
1.32899
1.32764
1.32316
1.31981
1.31938
1.29349
1.29348
1.29348
1.2935
1.29353
1.29357
1.29362
1.29367
1.29368
1.29368
1.29395
1.29786
1.30591
1.31428
1.32441
1.32917
1.32719
1.32205
1.31968
1.29346
1.29346
1.29346
1.29347
1.29348
1.29349
1.2935
1.29351
1.29351
1.29356
1.2936
1.29375
1.29426
1.30383
1.31396
1.32578
1.329
1.32508
1.32074
1.29343
1.29344
1.29344
1.29345
1.29346
1.29347
1.29348
1.2935
1.2935
1.29352
1.29353
1.29357
1.29375
1.29433
1.30535
1.31832
1.32885
1.32789
1.32271
1.29342
1.29343
1.29343
1.29344
1.29345
1.29346
1.29346
1.29348
1.29348
1.2935
1.29351
1.29354
1.29359
1.29373
1.29562
1.31094
1.32473
1.32951
1.3245
1.29341
1.29342
1.29342
1.29343
1.29343
1.29345
1.29345
1.29347
1.29347
1.29349
1.2935
1.29351
1.29356
1.29364
1.29389
1.30298
1.32035
1.33036
1.32744
1.2934
1.29341
1.29341
1.29342
1.29342
1.29343
1.29343
1.29345
1.29345
1.29347
1.29348
1.2935
1.29351
1.29358
1.29374
1.2963
1.31692
1.32892
1.32888
1.29339
1.29339
1.2934
1.2934
1.2934
1.29342
1.29342
1.29343
1.29344
1.29346
1.29346
1.29348
1.29349
1.29355
1.29366
1.29385
1.3132
1.32612
1.3271
1.29338
1.29338
1.29338
1.29339
1.29338
1.29339
1.29339
1.29341
1.29341
1.29344
1.29343
1.29347
1.29345
1.29354
1.29363
1.29382
1.3091
1.32346
1.32382
1.29336
1.29337
1.29337
1.29337
1.29336
1.29337
1.29336
1.29338
1.29338
1.29341
1.29341
1.29344
1.29343
1.29352
1.29367
1.29377
1.30596
1.31386
1.31178
1.29335
1.29335
1.29334
1.29333
1.29332
1.29332
1.29332
1.29334
1.29335
1.29338
1.29337
1.29342
1.29338
1.29357
1.29367
1.29541
1.30726
1.30931
1.30672
1.29334
1.29333
1.29331
1.2933
1.29327
1.29327
1.29327
1.2933
1.2933
1.29334
1.29333
1.29339
1.29335
1.29371
1.29355
1.29663
1.3036
1.30649
1.30407
1.29331
1.2933
1.29327
1.29324
1.29321
1.2932
1.2932
1.29323
1.29325
1.29329
1.29329
1.29334
1.29333
1.29363
1.2936
1.29518
1.29918
1.29958
1.29731
1.2933
1.29327
1.29324
1.29321
1.29316
1.29314
1.29315
1.29319
1.29321
1.29325
1.29327
1.29328
1.29334
1.29338
1.29342
1.29351
1.29389
1.29361
1.29183
1.29328
1.29324
1.2932
1.29318
1.29313
1.2931
1.29311
1.29314
1.29318
1.29321
1.29323
1.29323
1.29336
1.29319
1.29313
1.293
1.29301
1.29273
1.29094
1.29326
1.29323
1.29319
1.29319
1.29315
1.29313
1.29313
1.29316
1.29319
1.29321
1.29324
1.29324
1.2933
1.29318
1.29309
1.29296
1.29293
1.29277
1.29125
1.29325
1.29321
1.29318
1.2932
1.29317
1.29315
1.29315
1.29317
1.29318
1.29321
1.29321
1.29323
1.29319
1.29311
1.29303
1.29301
1.29301
1.29289
1.29157
1.29324
1.29321
1.29318
1.29321
1.2932
1.29317
1.29317
1.29317
1.29319
1.29319
1.2932
1.29316
1.29317
1.29309
1.29303
1.29296
1.29295
1.29285
1.29176
1.29323
1.2932
1.29317
1.29321
1.2932
1.29318
1.29317
1.29317
1.29318
1.29318
1.29316
1.29318
1.29313
1.29306
1.29296
1.29288
1.29286
1.29279
1.29194
1.29323
1.2932
1.29318
1.29321
1.29322
1.29321
1.29321
1.2932
1.29323
1.2932
1.29316
1.29309
1.29309
1.29304
1.29292
1.29282
1.29267
1.2926
1.29198
1.29322
1.2932
1.29318
1.29319
1.2932
1.2932
1.29321
1.29323
1.29334
1.29337
1.29327
1.29315
1.29305
1.29301
1.29291
1.29275
1.29253
1.29242
1.29196
1.29321
1.2932
1.29317
1.29316
1.29317
1.29318
1.29321
1.29329
1.29352
1.29339
1.29323
1.29304
1.29294
1.29304
1.29293
1.29276
1.29247
1.29228
1.29202
1.29321
1.2932
1.29317
1.29314
1.29312
1.29314
1.29316
1.2933
1.29337
1.29323
1.29316
1.29289
1.293
1.29304
1.29302
1.29288
1.29258
1.29234
1.29222
1.2932
1.29319
1.29318
1.29314
1.29311
1.2931
1.29315
1.29327
1.29335
1.29321
1.29305
1.29289
1.29299
1.29312
1.29309
1.29304
1.29281
1.29268
1.29254
1.29319
1.29319
1.29317
1.29315
1.29309
1.29306
1.29308
1.29316
1.2931
1.29307
1.293
1.29288
1.29303
1.29316
1.29316
1.29314
1.29304
1.29304
1.29295
1.29319
1.29318
1.29317
1.29315
1.29312
1.29307
1.29303
1.29303
1.29295
1.29285
1.29279
1.29283
1.29303
1.29318
1.29316
1.29319
1.29316
1.29321
1.29319
1.29318
1.29318
1.29317
1.29316
1.29313
1.2931
1.29304
1.29299
1.29294
1.29288
1.29287
1.29296
1.29313
1.29318
1.29318
1.2932
1.29321
1.29326
1.29325
1.29318
1.29317
1.29317
1.29316
1.29315
1.29313
1.29309
1.29306
1.29301
1.293
1.29302
1.29307
1.29312
1.29316
1.29317
1.29319
1.2932
1.29323
1.29324
1.29317
1.29317
1.29316
1.29316
1.29315
1.29314
1.29312
1.29311
1.29309
1.29309
1.2931
1.29313
1.29315
1.29317
1.29317
1.29319
1.2932
1.29323
1.29323
1.29317
1.29317
1.29316
1.29316
1.29315
1.29315
1.29314
1.29313
1.29312
1.29313
1.29313
1.29314
1.29315
1.29316
1.29317
1.29318
1.29319
1.2932
1.29321
1.29316
1.29316
1.29316
1.29316
1.29315
1.29315
1.29315
1.29314
1.29314
1.29314
1.29315
1.29315
1.29316
1.29317
1.29317
1.29318
1.29319
1.2932
1.2932
1.29316
1.29316
1.29316
1.29315
1.29315
1.29315
1.29315
1.29315
1.29315
1.29315
1.29315
1.29315
1.29315
1.29316
1.29316
1.29317
1.29317
1.29318
1.29318
1.29315
1.29315
1.29315
1.29315
1.29315
1.29315
1.29314
1.29314
1.29314
1.29315
1.29315
1.29315
1.29315
1.29316
1.29316
1.29316
1.29317
1.29317
1.29317
1.29315
1.29315
1.29315
1.29315
1.29315
1.29314
1.29314
1.29314
1.29314
1.29314
1.29314
1.29314
1.29314
1.29314
1.29314
1.29315
1.29315
1.29315
1.29315
1.29314
1.29314
1.29314
1.29314
1.29314
1.29314
1.29314
1.29314
1.29314
1.29314
1.29314
1.29314
1.29314
1.29314
1.29314
1.29315
1.29315
1.29315
1.29315
1.29313
1.29314
1.29314
1.29314
1.29314
1.29314
1.29314
1.29314
1.29314
1.29314
1.29314
1.29314
1.29314
1.29313
1.29313
1.29313
1.29313
1.29313
1.29313
)
;

boundaryField
{
    leftWall
    {
        type            calculated;
        value           nonuniform List<scalar> 
50
(
1.30846
1.30769
1.30692
1.30614
1.30534
1.30454
1.30372
1.3029
1.30158
1.29978
1.29789
1.29606
1.29435
1.29363
1.29346
1.29338
1.29335
1.29334
1.29334
1.29334
1.29333
1.29333
1.29332
1.29332
1.29331
1.29331
1.2933
1.2933
1.29329
1.29328
1.29328
1.29327
1.29326
1.29325
1.29324
1.29324
1.29322
1.29321
1.2932
1.29318
1.29316
1.29314
1.29312
1.29311
1.29309
1.29308
1.29307
1.29306
1.29305
1.29305
)
;
    }
    rightWall
    {
        type            calculated;
        value           nonuniform List<scalar> 
50
(
1.31932
1.31932
1.31932
1.31932
1.31932
1.31932
1.31931
1.31931
1.31931
1.31931
1.31931
1.3193
1.31931
1.31932
1.31938
1.31968
1.32074
1.32271
1.3245
1.32744
1.32888
1.3271
1.32382
1.31178
1.30672
1.30407
1.29731
1.29183
1.29094
1.29125
1.29157
1.29176
1.29194
1.29198
1.29196
1.29202
1.29222
1.29254
1.29295
1.29319
1.29325
1.29324
1.29323
1.29321
1.2932
1.29318
1.29317
1.29315
1.29315
1.29313
)
;
    }
    lowerWall
    {
        type            calculated;
        value           nonuniform List<scalar> 
62
(
1.30883
1.30883
1.30882
1.30883
1.30881
1.30884
1.30884
1.30892
1.30897
1.30912
1.30931
1.30952
1.30992
1.31033
1.31095
1.31169
1.31257
1.31368
1.31484
1.31618
1.3174
1.31853
1.31914
1.31877
1.31794
1.31757
1.31651
1.31656
1.31537
1.31562
1.31449
1.31828
1.32427
1.32736
1.32535
1.31924
1.31924
1.31924
1.31924
1.31923
1.31923
1.31922
1.31922
1.31924
1.31924
1.31925
1.31924
1.31925
1.31925
1.31926
1.31926
1.31927
1.31927
1.31929
1.31929
1.3193
1.3193
1.31931
1.31931
1.31932
1.31932
1.31932
)
;
    }
    atmosphere
    {
        type            calculated;
        value           nonuniform List<scalar> 
46
(
1.29314
1.29314
1.29314
1.29314
1.29314
1.29314
1.29314
1.29314
1.29314
1.29314
1.29314
1.29314
1.29314
1.29314
1.29314
1.29314
1.29315
1.29315
1.29316
1.29316
1.29317
1.29318
1.29318
1.29319
1.2932
1.2932
1.29321
1.29322
1.29322
1.29323
1.29323
1.29323
1.29323
1.29323
1.29323
1.29323
1.29323
1.29323
1.29323
1.29323
1.29323
1.29323
1.29323
1.29323
1.29323
1.29323
)
;
    }
    defaultFaces
    {
        type            empty;
    }
}


// ************************************************************************* //
