/*--------------------------------*- C++ -*----------------------------------*\
| =========                 |                                                 |
| \\      /  F ield         | OpenFOAM: The Open Source CFD Toolbox           |
|  \\    /   O peration     | Version:  2012                                  |
|   \\  /    A nd           | Website:  www.openfoam.com                      |
|    \\/     M anipulation  |                                                 |
\*---------------------------------------------------------------------------*/
FoamFile
{
    version     2.0;
    format      ascii;
    class       volScalarField;
    location    "0.33";
    object      rhogh;
}
// * * * * * * * * * * * * * * * * * * * * * * * * * * * * * * * * * * * * * //

dimensions      [1 -1 -2 0 0 0 0];


internalField   nonuniform List<scalar> 
2268
(
-29.4294
-29.4294
-29.4294
-29.4294
-29.4294
-29.4294
-29.4294
-29.4294
-29.4294
-29.4294
-29.4294
-29.4294
-29.4294
-29.4294
-29.4294
-29.4294
-29.4294
-29.4294
-29.4294
-29.4294
-29.4294
-29.4294
-29.3943
-88.2881
-88.2881
-88.2881
-88.2881
-88.2881
-88.2881
-88.2881
-88.2881
-88.2881
-88.2881
-88.2881
-88.2881
-88.2881
-88.2881
-88.2881
-88.2881
-88.2881
-88.2881
-88.2881
-88.2881
-88.2881
-88.2881
-88.2197
-147.147
-147.147
-147.147
-147.147
-147.147
-147.147
-147.147
-147.147
-147.147
-147.147
-147.147
-147.147
-147.147
-147.147
-147.147
-147.147
-147.147
-147.147
-147.147
-147.147
-147.147
-147.147
-146.909
-206.006
-206.006
-206.006
-206.006
-206.006
-206.006
-206.006
-206.006
-206.006
-206.006
-206.006
-206.006
-206.006
-206.006
-206.006
-206.006
-206.006
-206.006
-206.006
-206.006
-206.006
-206.006
-205.488
-264.864
-264.864
-264.864
-264.864
-264.864
-264.864
-264.864
-264.864
-264.864
-264.864
-264.864
-264.864
-264.864
-264.864
-264.864
-264.864
-264.864
-264.864
-264.864
-264.864
-264.864
-264.864
-264.199
-323.723
-323.723
-323.723
-323.723
-323.723
-323.723
-323.723
-323.723
-323.723
-323.723
-323.723
-323.723
-323.723
-323.723
-323.723
-323.723
-323.723
-323.723
-323.723
-323.723
-323.723
-323.723
-322.91
-382.582
-382.582
-382.582
-382.582
-382.582
-382.582
-382.582
-382.582
-382.582
-382.582
-382.582
-382.582
-382.582
-382.582
-382.582
-382.582
-382.582
-382.582
-382.582
-382.582
-382.582
-382.582
-381.748
-441.44
-441.44
-441.44
-441.44
-441.44
-441.44
-441.44
-441.44
-441.44
-441.44
-441.44
-441.44
-441.44
-441.44
-441.44
-441.44
-441.44
-441.44
-441.44
-441.44
-441.44
-441.44
-441.228
-3.91452e-23
-5.06097e-22
-1.0474e-20
-1.30111e-19
-9.03488e-19
-1.71276e-18
-1.10246e-18
-9.38718e-19
-1.11346e-19
-2.365e-20
-3.6101e-21
-5.86114e-22
-1.22681e-22
-9.7331e-24
-9.29621e-25
-6.59489e-26
-3.65172e-26
-3.74762e-26
-3.7961e-28
-8.15155e-21
-2.82601e-19
-5.50165e-18
-6.3951e-17
-3.95535e-16
-6.46811e-16
-2.74153e-16
-3.04745e-16
-3.71726e-17
-8.14458e-18
-1.3906e-18
-2.51638e-19
-5.9233e-20
-5.20391e-21
-5.33975e-22
-4.16688e-23
-1.732e-23
-3.42999e-23
-1.61257e-25
-8.23959e-19
-3.23998e-17
-6.44359e-16
-7.55409e-15
-4.30704e-14
-6.56597e-14
-2.49305e-14
-2.6114e-14
-3.21764e-15
-7.15033e-16
-1.33703e-16
-2.71166e-17
-7.44468e-18
-7.1576e-19
-7.78711e-20
-6.79351e-21
-3.75435e-21
-8.08374e-21
-3.50279e-23
-8.63853e-17
-3.07594e-15
-5.3177e-14
-5.54538e-13
-2.54471e-12
-3.38318e-12
-1.10473e-12
-1.06396e-12
-1.35862e-13
-3.21054e-14
-6.68785e-15
-1.51059e-15
-4.95851e-16
-5.00152e-17
-5.74235e-18
-5.65211e-19
-4.18143e-19
-9.78278e-19
-3.85623e-21
-4.5852e-15
-1.49412e-13
-2.43282e-12
-2.37551e-11
-8.63199e-11
-1.00419e-10
-3.15144e-11
-2.76048e-11
-3.60764e-12
-8.95808e-13
-2.02519e-13
-5.17485e-14
-2.19394e-14
-2.18095e-15
-2.58131e-16
-2.9167e-17
-2.91716e-17
-7.4098e-17
-2.62342e-19
-2.83538e-13
-6.99121e-12
-9.11499e-11
-7.0942e-10
-1.95087e-09
-1.98331e-09
-5.72203e-10
-4.42728e-10
-6.16782e-11
-1.69338e-11
-4.23601e-12
-1.24996e-12
-7.3307e-13
-6.37589e-14
-7.65008e-15
-1.00459e-15
-1.38807e-15
-3.82732e-15
-1.1977e-17
-7.98319e-12
-1.78732e-10
-2.02573e-09
-1.28904e-08
-2.8696e-08
-2.54752e-08
-7.53517e-09
-5.23118e-09
-7.54873e-10
-2.2453e-10
-6.02036e-11
-2.15474e-11
-1.99124e-11
-1.31269e-12
-1.53416e-13
-2.39674e-14
-4.67938e-14
-1.40844e-13
-3.82072e-16
-2.56453e-10
-3.92264e-09
-3.63455e-08
-1.80343e-07
-3.05852e-07
-2.04078e-07
-7.06374e-08
-4.52587e-08
-6.29591e-09
-2.06197e-09
-6.26698e-10
-2.97546e-10
-4.15834e-10
-1.86079e-11
-2.07806e-12
-4.02515e-13
-1.12704e-12
-3.76301e-12
-8.63282e-15
-533.467
-533.467
-533.467
-533.467
-533.467
-533.467
-533.467
-533.467
-533.467
-533.467
-533.467
-533.467
-533.467
-533.467
-533.467
-533.467
-533.467
-533.467
-533.467
-533.467
-533.467
-533.467
-532.733
-658.662
-658.662
-658.662
-658.662
-658.662
-658.662
-658.662
-658.662
-658.662
-658.662
-658.662
-658.662
-658.662
-658.662
-658.662
-658.662
-658.662
-658.662
-658.662
-658.662
-658.662
-658.662
-658.1
-783.856
-783.856
-783.856
-783.856
-783.856
-783.856
-783.855
-783.853
-783.848
-783.828
-783.778
-783.656
-783.47
-783.186
-783.001
-782.81
-783.246
-783.856
-783.856
-783.856
-783.856
-783.856
-783.848
-907.292
-907.131
-906.79
-906.061
-904.969
-903.268
-900.656
-896.475
-887.874
-869.982
-846.471
-815.034
-783.84
-749.083
-728.928
-705.058
-716.836
-746.598
-800.844
-876.79
-909.051
-909.051
-909.051
-789.787
-781.895
-765.746
-736.52
-699.881
-653.806
-598.068
-514.061
-432.914
-350.554
-283.017
-217.128
-172.143
-125.844
-106.258
-84.5852
-87.5353
-105.451
-157.996
-250.105
-420.225
-629.375
-847.214
-102.281
-96.6808
-85.058
-66.7067
-46.3073
-24.3079
-1.48089
1.36202e-19
9.44359e-21
3.48073e-26
-1.27823e-25
-9.49138e-26
4.90367e-25
-1.76155e-24
-1.13495e-24
1.87181e-24
-2.51628e-25
-0.0185014
-0.553115
-2.77778
-10.9502
-39.43
-145.019
-1.47402e-34
-2.09436e-34
5.4014e-31
2.15362e-30
3.1882e-29
4.39435e-27
-3.11694e-27
-2.76732e-09
-8.98222e-29
-5.55401e-07
-1.22103e-06
-9.797e-07
-3.46525e-06
-1.06303e-05
-7.55526e-06
-2.8161e-05
-1.32834e-05
-9.8173e-06
-9.81763e-06
-9.49761e-19
-0.072531
-0.762902
-2.76201
-8.53121e-16
-6.61782e-14
-2.89027e-12
-8.05617e-11
-1.30145e-09
-1.93667e-08
-5.02871e-08
-3.36216e-08
1.496e-27
-1.99616e-05
-0.000505356
-0.000847546
-0.000503717
-6.39782e-05
-2.47259e-06
-0.000149207
-0.000562311
-0.000269912
2.00839e-22
-0
-0.00011967
-0.00011967
-0.0846099
-4.18772e-15
-3.22967e-13
-1.33215e-11
-3.26968e-10
-5.30754e-09
-6.14818e-08
-9.11012e-08
-4.89158e-08
2.11844e-27
-0.000572663
-0.0034923
-0.00389196
-0.00138551
-4.99654e-06
-2.69406e-06
-2.69216e-06
-0.0106566
-0.0340263
-0.0288277
-0.0136823
-0.00159038
-0.000638928
-0.00433701
-8.39792e-15
-6.25707e-13
-2.41673e-11
-5.42169e-10
-9.00728e-09
-8.72203e-08
-9.85313e-08
-4.27881e-08
3.10659e-27
-0.003294
-0.00418761
-0.00418758
-0.000790811
-1.07558e-05
-0.000102219
-2.9174e-06
-0.0177224
-0.0662204
-0.0672382
-0.0672156
-0.0672382
-0.0421344
-0.00110214
-1.08722e-14
-7.95989e-13
-2.99251e-11
-6.48927e-10
-1.08295e-08
-9.29664e-08
-8.98103e-08
-4.12743e-08
-3.59376e-10
-0.00317337
-0.0038246
-0.000480459
-5.1199e-05
-1.158e-05
-0.000380148
-0.000844539
-7.84537e-08
-0.00603109
-0.0223186
-0.017951
-0.00876086
-0.0037385
-0.000659551
-1.16439e-14
-8.40773e-13
-3.08928e-11
-6.44918e-10
-8.05342e-09
-7.87648e-08
-5.37124e-08
-2.41503e-07
-9.50573e-05
-2.16695e-08
-2.1639e-08
-2.1639e-08
-4.10731e-06
-0.000103523
-4.18966e-07
-4.11116e-07
-8.39527e-08
-5.89835e-13
-5.74483e-13
-5.89835e-13
-5.74483e-13
-1.4589e-08
-2.82182e-06
-8.94951e-15
-6.1786e-13
-2.12131e-11
-4.02738e-10
-4.25628e-09
-3.61482e-08
-2.12916e-08
-3.33227e-06
-3.67575e-07
-3.18708e-08
-2.3057e-08
-1.43393e-06
-2.23902e-06
-6.86299e-06
-4.0234e-06
-1.34926e-06
-4.62737e-07
-1.35919e-07
-4.22928e-08
-1.36193e-08
-4.56634e-09
-1.40513e-09
-1.74164e-10
-4.11142e-15
-2.75489e-13
-9.19171e-12
-1.70169e-10
-1.82957e-09
-1.42167e-08
-1.2418e-08
-4.48947e-06
-2.5391e-06
-5.93163e-07
-3.85074e-08
-3.3197e-06
-6.98328e-06
-5.81746e-06
-4.83539e-06
-2.08975e-06
-6.36287e-07
-1.99083e-07
-6.29528e-08
-2.0142e-08
-6.64785e-09
-2.16854e-09
-7.82283e-10
-1.45502e-15
-9.56781e-14
-3.14458e-12
-5.76747e-11
-6.41109e-10
-5.24042e-09
-5.24042e-09
-2.851e-06
-2.48588e-06
-7.96314e-07
-1.03013e-07
-5.40438e-07
-4.23873e-06
-5.21007e-06
-4.03865e-06
-1.70729e-06
-5.11014e-07
-1.52825e-07
-4.5977e-08
-1.36783e-08
-4.12737e-09
-1.16558e-09
-5.5497e-10
-3.9585e-16
-2.58879e-14
-8.50795e-13
-1.58494e-11
-1.8759e-10
-1.72467e-09
-1.17537e-08
-2.70512e-07
-2.81426e-07
-1.26653e-07
-4.42255e-08
-1.97387e-07
-4.92247e-07
-8.31383e-07
-7.46113e-07
-4.60413e-07
-1.62419e-07
-4.91938e-08
-1.42986e-08
-4.03139e-09
-1.10247e-09
-3.41407e-10
-4.41635e-10
-8.04008e-17
-5.32623e-15
-1.78524e-13
-3.48899e-12
-4.56318e-11
-5.12399e-10
-1.15881e-08
-6.82827e-10
-6.82829e-10
-2.19692e-09
-1.63174e-08
-1.03921e-07
-1.39608e-07
-1.3398e-07
-1.23307e-07
-8.66389e-08
-3.47109e-08
-1.04685e-08
-2.9795e-09
-7.98622e-10
-1.90038e-10
-1.46332e-10
-6.69015e-10
-1.1617e-17
-8.06053e-16
-2.85389e-14
-6.11892e-13
-9.12073e-12
-1.00345e-10
-2.66603e-09
-1.93803e-09
-7.16531e-10
-9.47356e-10
-7.70921e-09
-3.48256e-08
-3.86567e-08
-3.29116e-08
-2.37459e-08
-1.25683e-08
-4.74759e-09
-1.46256e-09
-4.06905e-10
-9.93817e-11
-3.19275e-11
-1.0656e-10
-1.24854e-09
-1.1039e-18
-8.52275e-17
-3.36989e-15
-8.26989e-14
-1.3975e-12
-1.58295e-11
-1.21008e-10
-1.06249e-10
-9.96127e-11
-2.41373e-10
-1.79026e-09
-5.32395e-09
-5.12773e-09
-4.08781e-09
-2.96892e-09
-1.69367e-09
-6.30616e-10
-1.81726e-10
-4.58048e-11
-9.46362e-12
-1.15229e-11
-1.54721e-10
-2.62293e-09
-6.09022e-20
-5.83188e-18
-2.76976e-16
-7.90849e-15
-1.45027e-13
-1.57344e-12
-7.01396e-12
-5.27998e-12
-9.02433e-12
-3.97959e-11
-2.43663e-10
-3.58151e-10
-2.625e-10
-2.75418e-10
-2.72319e-10
-1.97758e-10
-7.57902e-11
-1.88062e-11
-3.97163e-12
-1.0835e-12
-9.36215e-12
-2.60993e-10
-5.7551e-09
-1.63482e-21
-2.11308e-19
-1.252e-17
-4.0413e-16
-7.58058e-15
-7.25435e-14
-2.27965e-13
-2.96107e-13
-1.09505e-12
-4.96755e-12
-1.56251e-11
-1.17193e-11
-3.14947e-12
-1.25062e-11
-1.81696e-11
-1.36382e-11
-5.01358e-12
-1.09693e-12
-1.86983e-13
-3.14469e-13
-1.23304e-11
-4.22203e-10
-8.6955e-09
-1.96961e-23
-1.53442e-21
-6.32995e-20
-1.76539e-18
-3.91916e-17
-5.60998e-16
-3.49593e-15
-1.8981e-14
-1.03995e-13
-4.11519e-13
-6.60807e-13
-5.49822e-13
-2.3116e-13
-6.06836e-13
-7.91305e-13
-5.59202e-13
-1.75794e-13
-3.30043e-14
-9.48059e-15
-2.72297e-13
-1.60259e-11
-5.28422e-10
-1.00882e-08
-1.52945e-24
-1.27918e-22
-5.47575e-21
-1.54773e-19
-3.50483e-18
-5.3558e-17
-3.25314e-16
-1.49094e-15
-6.66311e-15
-1.85575e-14
-2.08251e-14
-2.08544e-14
-1.4481e-14
-3.59862e-15
-4.31137e-15
-3.68559e-15
-1.4943e-15
-2.92531e-16
-2.92195e-15
-2.87366e-13
-1.77073e-11
-5.50292e-10
-8.52223e-09
-5.86309e-26
-5.05706e-24
-2.09935e-22
-5.24973e-21
-8.98436e-20
-1.06827e-18
-9.45174e-18
-5.92587e-17
-2.68941e-16
-6.9293e-16
-9.74412e-16
-1.22788e-15
-8.23369e-16
-2.03435e-16
-2.88306e-17
-3.11865e-18
-1.0749e-18
-2.84189e-17
-1.90743e-15
-2.20533e-13
-1.35913e-11
-3.08323e-10
-3.39633e-09
-2.97353e-31
-1.74535e-29
-4.80655e-28
-7.71908e-27
-7.70006e-26
-2.50219e-25
-3.98251e-25
-3.99679e-24
-2.42074e-23
-9.4312e-23
-2.07832e-22
-2.29184e-22
-1.54823e-22
-5.70818e-23
-1.44829e-22
-7.93599e-21
-4.12638e-19
-1.76542e-17
-9.07041e-16
-8.18594e-14
-4.6758e-12
-9.56977e-11
-1.04419e-09
-2.51443e-35
-1.97866e-33
-7.83454e-32
-2.03873e-30
-4.16692e-29
-7.9603e-28
-3.07073e-26
-6.12039e-25
-4.82089e-24
-2.05802e-23
-4.15174e-23
-4.41282e-23
-2.34891e-23
-4.88889e-24
-5.76263e-23
-4.23658e-21
-2.35353e-19
-1.00089e-17
-3.77865e-16
-2.02535e-14
-9.72562e-13
-2.13206e-11
-3.93217e-10
-1.60011e-38
-1.21454e-36
-4.46572e-35
-1.01683e-33
-1.62031e-32
-1.86834e-31
-1.64009e-30
-1.08547e-29
-5.64901e-29
-2.38215e-28
-9.47487e-28
-1.08093e-26
-5.81941e-27
-2.21592e-25
-2.38479e-23
-1.96728e-21
-1.17544e-19
-5.16716e-18
-1.72236e-16
-5.23654e-15
-1.75214e-13
-7.33014e-12
-2.97238e-10
-5.35736e-44
-5.21066e-42
-2.51051e-40
-7.71807e-39
-1.7172e-37
-2.89433e-36
-3.89514e-35
-4.21822e-34
-3.77772e-33
-2.77388e-32
-1.73923e-31
-2.96572e-30
-4.37053e-28
-6.95565e-26
-8.48745e-24
-7.75627e-22
-5.00796e-20
-2.31801e-18
-7.80501e-17
-2.2952e-15
-8.10876e-14
-5.72557e-12
-2.51059e-10
-2.02507e-47
-2.11176e-45
-1.09502e-43
-3.66971e-42
-9.05655e-41
-1.74819e-39
-2.7971e-38
-3.76641e-37
-4.33251e-36
-4.56408e-35
-1.77203e-33
-4.11402e-31
-9.43203e-29
-1.76754e-26
-2.45573e-24
-2.52076e-22
-1.76233e-20
-8.52739e-19
-2.9214e-17
-8.89447e-16
-3.75686e-14
-1.81635e-12
-6.69207e-11
-9.4814e-54
-1.20809e-51
-8.5391e-50
-4.3565e-48
-1.76057e-46
-5.70424e-45
-1.51326e-43
-4.82723e-42
-9.58013e-40
-4.1571e-37
-1.63493e-34
-5.61131e-32
-1.53576e-29
-3.43091e-27
-5.48287e-25
-6.41646e-23
-4.8549e-21
-2.48893e-19
-1.00064e-17
-5.31399e-16
-4.26442e-14
-2.58417e-12
-9.7995e-11
-6.19699e-59
-1.28482e-56
-1.3874e-54
-1.00601e-52
-5.56922e-51
-3.49302e-49
-1.0137e-46
-6.65605e-44
-4.21318e-41
-2.37109e-38
-1.16867e-35
-4.94162e-33
-1.67603e-30
-4.54214e-28
-8.64985e-26
-1.1563e-23
-9.46162e-22
-5.58105e-20
-3.2574e-18
-2.54057e-16
-2.18605e-14
-1.31858e-12
-5.02032e-11
-4.35338e-63
-1.28995e-60
-1.93933e-58
-1.96893e-56
-2.10519e-54
-9.00543e-52
-8.63009e-49
-8.22857e-46
-7.14826e-43
-5.57277e-40
-3.84156e-37
-2.20339e-34
-1.03533e-31
-3.57066e-29
-8.96432e-27
-1.39552e-24
-1.30315e-22
-9.9413e-21
-5.7236e-19
-2.06684e-17
-5.32949e-16
-1.03876e-14
-1.55587e-13
-1.34025e-67
-5.76831e-65
-1.37803e-62
-3.28836e-60
-2.17824e-57
-3.00024e-54
-4.2267e-51
-5.5775e-48
-6.77942e-45
-7.39143e-42
-7.03134e-39
-5.4211e-36
-3.3068e-33
-1.45355e-30
-4.60461e-28
-8.8997e-26
-1.03932e-23
-1.11483e-21
-7.58115e-20
-3.11765e-18
-8.91397e-17
-1.88246e-15
-3.03803e-14
-2.40164e-71
-1.28757e-68
-3.96259e-66
-1.34435e-63
-1.28882e-60
-2.33886e-57
-4.64055e-54
-8.82634e-51
-1.56756e-47
-2.582e-44
-3.56864e-41
-4.28216e-38
-4.00601e-35
-2.78894e-32
-1.33929e-29
-3.64787e-27
-5.62055e-25
-7.95283e-23
-6.65087e-21
-3.18476e-19
-1.03493e-17
-2.45135e-16
-4.37364e-15
-1.375e-75
-1.0383e-72
-4.58371e-70
-2.11017e-67
-2.55156e-64
-6.66763e-61
-1.94847e-57
-5.84636e-54
-1.57183e-50
-3.87571e-47
-8.10261e-44
-1.49683e-40
-1.98158e-37
-2.09056e-34
-1.36208e-31
-5.68813e-29
-1.23722e-26
-2.37386e-24
-3.13691e-22
-2.03087e-20
-8.28962e-19
-2.35472e-17
-4.92543e-16
-4.88579e-80
-5.18317e-77
-3.23925e-74
-1.90939e-71
-2.53518e-68
-8.71369e-65
-3.64262e-61
-1.57886e-57
-6.35166e-54
-2.39186e-50
-7.88067e-47
-2.20345e-43
-4.66731e-40
-8.15806e-37
-8.50934e-34
-5.93622e-31
-1.89799e-28
-4.98582e-26
-9.80001e-24
-8.59773e-22
-4.50737e-20
-1.57403e-18
-3.91666e-17
-4.44208e-85
-7.5086e-82
-7.34084e-79
-5.86924e-76
-6.65275e-73
-2.6289e-69
-1.67844e-65
-1.11185e-61
-7.43463e-58
-4.32086e-54
-2.22408e-50
-9.58423e-47
-3.50871e-43
-9.64887e-40
-1.65546e-36
-1.91105e-33
-1.00742e-30
-3.35675e-28
-1.142e-25
-1.62683e-23
-1.25347e-21
-6.02414e-20
-1.95167e-18
-2.69226e-90
-7.0716e-87
-1.07794e-83
-1.28893e-80
-1.78481e-77
-8.02425e-74
-7.27217e-70
-7.00656e-66
-6.77674e-62
-5.78776e-58
-4.72113e-54
-3.31373e-50
-2.06279e-46
-1.0497e-42
-2.92239e-39
-5.74496e-36
-4.29399e-33
-2.1392e-30
-1.1304e-27
-2.29901e-25
-2.52278e-23
-1.68102e-21
-7.24908e-20
-2.71676e-96
-1.35535e-92
-3.7063e-89
-7.34318e-86
-1.41913e-82
-8.28915e-79
-1.21696e-74
-1.77065e-70
-2.68816e-66
-3.85465e-62
-5.395e-58
-6.89413e-54
-6.46756e-50
-5.41197e-46
-2.31766e-42
-5.39014e-39
-5.42274e-36
-3.86052e-33
-3.00987e-30
-9.46104e-28
-1.64233e-25
-1.71944e-23
-1.13521e-21
-2.67555e-102
-3.90018e-98
-1.3117e-93
-4.27733e-89
-1.70981e-84
-1.25259e-79
-3.19801e-75
-3.89805e-71
-3.09416e-67
-2.16753e-63
-2.08231e-59
-2.62364e-55
-1.69864e-51
-5.43368e-48
-1.04991e-44
-1.97567e-41
-3.18875e-38
-2.5206e-35
-1.22629e-32
-3.90066e-30
-8.42123e-28
-1.23514e-25
-1.21635e-23
-7.64633e-104
-4.65435e-98
-7.83832e-93
-3.34527e-88
-6.06673e-84
-1.2649e-79
-3.82849e-75
-7.59312e-71
-7.22809e-67
-3.79596e-63
-1.26275e-59
-3.0924e-56
-5.53604e-53
-7.50449e-50
-8.0146e-47
-6.84939e-44
-4.72238e-41
-2.60548e-38
-1.14124e-35
-3.9069e-33
-1.04014e-30
-2.11326e-28
-3.21155e-26
-7.16807e-103
-4.02707e-97
-4.65477e-92
-1.75191e-87
-2.98789e-83
-2.80101e-79
-1.60992e-75
-6.95476e-72
-2.17701e-68
-5.09916e-65
-9.27435e-62
-1.34825e-58
-1.60355e-55
-1.58875e-52
-1.32535e-49
-9.38893e-47
-5.65767e-44
-2.90382e-41
-1.25947e-38
-4.57382e-36
-1.3762e-33
-3.38892e-31
-6.72174e-29
-532.614
-532.783
-511.744
-175.154
-657.609
-657.871
-658.344
-618.34
-783.683
-783.436
-783.49
-783.067
-909.051
-909.051
-909.021
-909.041
-965.27
-1019.11
-1034.25
-1034.25
-250.628
-333.895
-436.526
-541.956
-5.33837
-8.20274
-12.3068
-17.9075
-0.368905
-1.57042
-2.06796
-1.51064
-0.0115356
-0.0137468
-0.0106224
-0.00868649
-1.93328e-05
-6.38033e-06
-4.21275e-06
-3.7649e-06
-7.83247e-06
-5.44436e-07
-6.85526e-07
-1.20462e-06
-5.26754e-07
-1.6648e-07
-2.35381e-07
-2.98808e-07
-1.7421e-10
-1.74164e-10
-1.7421e-10
-1.75497e-10
-4.28044e-10
-3.32631e-10
-3.28746e-10
-3.69954e-10
-5.3997e-10
-6.00424e-10
-8.081e-10
-1.31887e-09
-7.23357e-10
-1.2244e-09
-2.38497e-09
-5.20472e-09
-1.57871e-09
-3.09174e-09
-7.78164e-09
-2.03296e-08
-3.32655e-09
-7.84647e-09
-3.09374e-08
-5.49443e-08
-7.96903e-09
-2.37642e-08
-1.26062e-07
-1.07171e-07
-1.96789e-08
-6.55573e-08
-2.05522e-07
-1.64251e-07
-3.14591e-08
-1.04675e-07
-2.25498e-07
-1.83604e-07
-3.74247e-08
-8.92952e-08
-1.95424e-07
-1.42986e-07
-3.12515e-08
-5.89234e-08
-1.03368e-07
-6.79415e-08
-1.24761e-08
-3.23729e-08
-9.84958e-08
-7.0098e-08
-6.05986e-09
-3.41425e-08
-1.78935e-07
-7.2707e-08
-5.73164e-09
-5.31817e-08
-2.36981e-07
-7.61147e-07
-6.82843e-09
-5.86807e-08
-2.04409e-07
-4.52068e-07
-3.82286e-09
-2.66091e-08
-8.4047e-08
-1.48801e-07
-1.18225e-09
-1.05284e-08
-6.65828e-08
-2.93023e-07
-1.72945e-09
-1.51149e-08
-9.39093e-08
-3.99437e-07
-9.15658e-10
-8.54611e-09
-6.30229e-08
-3.74013e-07
-1.32409e-12
-3.27639e-12
-3.27644e-12
-3.27628e-12
-2.95054e-13
-1.79352e-12
-1.00102e-11
-4.1106e-11
-4.52964e-14
-2.75771e-13
-1.43536e-12
-6.659e-12
-5.90354e-15
-4.14918e-14
-2.51575e-13
-1.36976e-12
-5.4653e-16
-4.43783e-15
-3.11899e-14
-1.97301e-13
-3.36757e-17
-3.32069e-16
-2.81776e-15
-2.13151e-14
-1.58323e-18
-1.92767e-17
-1.9938e-16
-1.80762e-15
-3.59632e-20
-6.17609e-19
-8.83024e-18
-1.07641e-16
-5.79729e-22
-1.46763e-20
-3.03242e-19
-5.17468e-18
-2.58136e-24
-1.11835e-22
-3.99075e-21
-1.16395e-19
-7.77439e-27
-5.00061e-25
-2.75007e-23
-1.27538e-21
-1.96875e-13
-1.96887e-13
-1.96875e-13
-6.15415e-07
-7.23032e-07
-5.83965e-07
-4.53335e-07
-4.21136e-07
-6.30241e-08
-2.05657e-08
-7.40182e-09
-5.47456e-09
-1.03158e-08
-2.70984e-10
-2.92595e-11
-7.7577e-12
-3.1293e-11
-1.1925e-10
-2.21768e-13
-376.871
-198.272
-17.8222
-5.22163e-07
-5.22164e-07
-5.22163e-07
-8.31621e-07
-9.33822e-07
-3.66877e-07
-1.67016e-07
-1.05561e-07
-1.81754e-07
-2.83318e-07
-3.969e-09
-3.41376e-10
-1.36234e-10
-7.2202e-10
-3.30004e-09
-4.50756e-12
-774.711
-732.655
-597.507
-450.227
-313.999
-88.6145
-2.14236e-07
-2.14162e-07
-2.14163e-07
-2.14163e-07
-4.59733e-07
-3.25136e-06
-7.96466e-06
-6.00621e-07
-3.9683e-08
-1.05222e-09
-8.79183e-09
-5.35948e-08
-2.1755e-11
-909.041
-908.834
-906.778
-901.952
-884.482
-772.74
-625.642
-482.765
-231.859
-1.9693e-07
-1.96927e-07
-1.9693e-07
-2.46105e-05
-2.55779e-05
-0.000247069
-1.22027e-09
-4.86709e-07
-9.12589e-07
-2.52297e-11
-1034.25
-1034.25
-1034.25
-1034.25
-1034.25
-1033.33
-1030.48
-1023.15
-953.83
-806.727
-520.076
-90.0111
-3.96529e-08
-3.96258e-08
-0.00552554
-0.00122191
-0.000508638
-5.21146e-05
-2.87052e-11
-719.824
-854.328
-928.911
-1005.59
-1109.97
-1159.44
-1159.44
-1159.44
-1159.44
-1158.77
-1149.12
-1008.34
-617.79
-84.679
-0.00619444
-0.089436
-0.0364013
-0.00148624
-3.22358e-11
-43.4437
-93.4378
-147.842
-210.414
-287.977
-397.407
-495.821
-627.354
-919.128
-1267.84
-1284.58
-1284.58
-1284.58
-998.867
-311.456
-14.1463
-0.902797
-0.0267453
-2.06856e-08
-0.507686
-0.344476
-0.584424
-1.17074
-2.26567
-4.75385
-9.33229
-18.8969
-86.8781
-219.064
-495.815
-1088.96
-1401.14
-1401.14
-1176.46
-380.165
-18.5578
-0.286407
-0.00524652
-0.00545604
-0.00258643
-0.0011201
-0.000404811
-0.000274894
-0.000501628
-0.00159157
-0.0095315
-0.15552
-1.39368
-2.79228
-122.619
-643.708
-1421.13
-1433.26
-1124.43
-218.209
-4.54115
-0.0517209
-5.02796e-06
-2.55675e-05
-0.000153438
-0.00021419
-7.49252e-05
-1.28714e-05
-5.71887e-06
-3.15248e-06
-7.70513e-07
-0.00059613
-0.0062115
-0.647813
-6.6132e-05
-641.691
-1545.31
-1527.16
-724.49
-40.314
-0.556897
-5.99452e-07
-6.38998e-08
-5.20696e-05
-0.000203146
-0.000146258
-1.90949e-05
-1.64955e-06
-4.23388e-07
-4.21886e-07
-7.83427e-05
-0.00190609
-0.00135626
-7.11213e-05
-33.2629
-1063
-1631
-1329
-304.395
-5.57274
-2.28942e-07
-6.83809e-08
-7.15367e-07
-8.41789e-06
-1.17289e-05
-5.07595e-06
-9.89206e-07
-4.5591e-07
-4.51411e-07
-2.46207e-05
-4.05166e-05
-0.000190706
-8.73811e-05
-1.91427e-07
-428.429
-1579.22
-1648.54
-834.018
-22.1918
-1.61266e-09
-1.42529e-08
-9.94369e-08
-5.6346e-07
-1.84056e-06
-1.98887e-06
-9.91092e-07
-6.64626e-07
-1.47548e-06
-3.32783e-06
-2.59661e-06
-4.10856e-06
-1.698e-05
-2.0397e-07
-92.3089
-1401.23
-1755.8
-1167.64
-63.4628
-1.14515e-09
-3.44614e-09
-4.08129e-09
-4.08128e-09
-1.17167e-06
-1.1443e-05
-2.18503e-05
-1.74141e-05
-7.06676e-06
-2.83849e-06
-1.42034e-06
-6.26316e-07
-1.11385e-06
-2.9561e-07
-2.16514e-07
-1083.38
-1864.58
-1271.37
-79.2074
-7.30572e-09
-1.97162e-08
-3.6213e-08
-3.18776e-08
-3.18779e-08
-9.9504e-06
-3.31634e-05
-3.33368e-05
-2.08125e-05
-1.78075e-06
-6.42185e-07
-6.42168e-07
-3.1933e-06
-2.07483e-06
-2.29057e-07
-700.952
-1971.75
-1307.46
-80.9334
-3.77575e-08
-4.72356e-08
-1.66333e-07
-1.83584e-07
-1.4913e-07
-9.78097e-07
-6.12658e-06
-1.19418e-05
-7.34452e-06
-7.89159e-06
-1.73048e-05
-7.25073e-05
-3.37685e-05
-1.58297e-06
-2.416e-07
-717.014
-1606.69
-929.544
-59.5463
-5.98515e-08
-6.48157e-07
-3.58558e-06
-3.87299e-06
-2.47628e-06
-8.76201e-07
-6.60011e-07
-7.53206e-07
-7.4856e-08
-3.62699e-05
-0.000486513
-0.000624345
-6.21906e-05
-2.54144e-07
-165.187
-1619.24
-1154.92
-190.7
-27.621
-5.46982e-08
-0.000548599
-0.000473192
-0.000379142
-0.000273461
-7.85505e-08
-7.85502e-08
-7.85505e-08
-7.85502e-08
-0.000618105
-0.00205919
-0.000664259
-7.00342e-06
-2.66687e-07
-1140.44
-1829.45
-1515.94
-241.845
-10.2325
-5.72412e-08
-0.00435238
-0.0018695
-0.00156526
-0.059796
-0.0515241
-0.00694696
-0.00350681
-0.00248118
-0.00275128
-0.00275416
-0.000353899
-2.79231e-07
-36.1334
-1580.1
-1915.43
-1635.99
-271.822
-5.25492
-5.98436e-08
-0.00455667
-0.000891133
-0.0417065
-0.389451
-0.470737
-0.260837
-0.00490682
-0.00138547
-0.00287788
-0.00170992
-7.72924e-05
-2.91774e-07
-46.4631
-907.879
-1405.5
-960.128
-132.942
-2.63233
-6.2384e-08
-0.00349114
-0.000929373
-0.408505
-0.490884
-0.490698
-0.17338
-3.04318e-07
-3.04318e-07
-0.000451145
-0.000119518
-1.06993e-05
-3.04318e-07
-24.991
-57.2622
-87.9435
-52.1354
-26.8955
-1.68685
-6.49889e-08
-6.49564e-08
-0.0236299
-0.511027
-0.510924
-0.505119
-0.0708864
-0.033644
-0.0257389
-3.95954e-06
-3.95953e-06
-3.95954e-06
-1.78436
-3.51275
-2.26398
-0.675667
-0.125905
-2.45086
-1.45275
-6.75267e-08
-0.0140985
-0.0387456
-0.425455
-0.531256
-0.315816
-0.0839326
-0.269009
-0.268752
-0.19481
-0.124738
-0.219073
-1.29662
-0.666181
-0.134674
-0.0246849
-0.00343368
-0.00152941
-0.57496
-7.01343e-08
-0.0537037
-0.0540632
-0.380472
-0.374551
-0.0129479
-0.0529979
-0.182865
-0.160685
-0.0844498
-0.0604709
-0.081829
-0.0228598
-0.00193502
-0.000326871
-5.18838e-05
-9.58906e-06
-1.05014e-07
-0.171928
-0.00027875
-0.0518754
-0.100045
-0.0637898
-0.0777653
-0.00163785
-0.00381349
-0.0214134
-0.0337377
-0.0331709
-0.0118791
-0.00814577
-1.41658e-08
-1.41658e-08
-4.93607e-08
-8.59137e-08
-1.08937e-07
-1.08936e-07
-0.0548103
-0.000121723
-0.00596945
-0.103586
-0.000158892
-0.000158546
-0.00065821
-2.76206e-05
-0.000103604
-0.000273883
-0.00137
-0.0360267
-0.106873
-0.000236472
-1.4667e-08
-8.61912e-08
-3.09225e-07
-1.12791e-07
-1.12718e-07
-0.151937
-1.46935e-05
-0.00179282
-0.0323167
-0.0151176
-0.000132578
-5.04508e-06
-6.65949e-06
-2.57919e-06
-1.4497e-06
-1.44971e-06
-1.4497e-06
-1.44971e-06
-0.174694
-1.51683e-08
-2.05491e-07
-1.84783e-06
-1.02183e-05
-0.00108457
-0.178033
-5.17993e-08
-5.0924e-08
-5.078e-08
-0.061636
-0.00140404
-7.01234e-07
-7.01087e-07
-7.70974e-08
-0.170353
-619.708
-663.932
-179.008
-4.89827
-1.56695e-08
-3.11725e-07
-3.76102e-06
-9.3704e-05
-0.00444544
-0.165265
-8.68185e-07
-3.1149e-06
-0.00257922
-0.0636128
-0.0947211
-0.0252893
-0.000454774
-8.21335e-08
-691.008
-1903.27
-1915.38
-908.783
-13.7501
-0.000641593
-2.78671e-09
-3.28035e-06
-9.04157e-05
-0.00221297
-0.0211002
-1.22424e-06
-3.29037e-06
-0.000521536
-0.0385761
-0.101305
-0.0621555
-0.00154288
-8.20298e-08
-750.75
-1974.75
-1974.75
-976.068
-13.6538
-0.000686159
-2.87308e-09
-1.14551e-06
-1.52396e-05
-9.07959e-05
-6.04811e-06
-8.70023e-07
-8.41004e-07
-9.05955e-11
-9.19322e-11
-0.00616503
-0.0982703
-0.00596434
-8.72253e-08
-182.665
-998.221
-1018.51
-355.424
-9.72437
-0.000222267
-2.95947e-09
-1.36349e-07
-6.18103e-07
-4.97053e-07
-2.94709e-08
-3.28574e-12
-3.28589e-12
-1.18136e-08
-6.1097e-07
-0.00253536
-0.101138
-0.114108
-2.33746
-6.086
-17.3875
-15.2692
-10.0168
-3.04867
-6.11359e-10
-3.51975e-09
-1.90951e-08
-7.01558e-08
-8.53541e-08
-2.6437e-08
-1.96447e-10
-9.02662e-10
-2.4102e-09
-3.81263e-09
-3.15173e-09
-3.15173e-09
-0.0448985
-0.442045
-0.00331842
-0.00202187
-0.00161088
-0.0135575
-0.103984
-6.28815e-10
-2.45093e-09
-3.5553e-09
-1.05463e-08
-1.86003e-08
-1.03275e-08
-4.16767e-11
-2.89701e-10
-1.59475e-09
-6.44321e-09
-1.29703e-08
-1.8954e-08
-1.89538e-08
-1.69714e-06
-1.6087e-07
-6.06439e-08
-2.70497e-07
-1.35429e-06
-2.72236e-06
-7.37509e-10
-1.352e-09
-9.18651e-10
-1.52797e-09
-3.02301e-09
-1.81076e-09
-1.03117e-11
-8.74609e-11
-5.97471e-10
-3.248e-09
-1.42712e-08
-4.12722e-08
-6.10039e-08
-6.59258e-08
-5.84314e-08
-5.09233e-08
-5.00438e-08
-3.11576e-08
-1.09156e-08
-6.80242e-10
-5.66672e-10
-2.62607e-10
-2.20463e-10
-3.91735e-10
-2.45472e-10
-1.76042e-12
-1.78911e-11
-1.48736e-10
-9.98028e-10
-5.34813e-09
-2.28121e-08
-5.83241e-08
-7.82914e-08
-8.06194e-08
-7.57858e-08
-6.59537e-08
-4.65387e-08
-1.6826e-08
-6.40273e-10
-2.12026e-10
-7.47663e-11
-3.33596e-11
-4.26526e-11
-2.70798e-11
-2.28096e-13
-2.73667e-12
-2.64978e-11
-2.07003e-10
-1.31492e-09
-6.83727e-09
-2.81754e-08
-6.32169e-08
-7.90827e-08
-8.06595e-08
-7.45172e-08
-5.01165e-08
-1.75472e-08
-6.36285e-10
-7.81033e-11
-2.06711e-11
-5.2233e-12
-4.05743e-12
-2.50096e-12
-2.30416e-14
-3.21652e-13
-3.55334e-12
-3.13815e-11
-2.25705e-10
-1.36077e-09
-6.78387e-09
-2.57808e-08
-5.25823e-08
-6.52542e-08
-6.55395e-08
-4.44815e-08
-1.38661e-08
-5.8331e-10
-2.90618e-11
-5.58056e-12
-8.272e-13
-3.51547e-13
-1.97492e-13
-1.81688e-15
-3.17815e-14
-4.22703e-13
-4.36771e-12
-3.63502e-11
-2.57544e-10
-1.40079e-09
-5.8465e-09
-1.69974e-08
-2.94779e-08
-3.51272e-08
-2.73285e-08
-7.08426e-09
-3.86824e-10
-1.06562e-11
-1.49823e-12
-1.34551e-13
-2.8764e-14
-1.35912e-14
-1.18917e-16
-2.62479e-15
-4.21172e-14
-5.1998e-13
-5.26453e-12
-4.16437e-11
-2.48304e-10
-1.14598e-09
-3.84977e-09
-7.83186e-09
-1.02608e-08
-9.43456e-09
-2.61126e-09
-1.48804e-10
-3.71007e-12
-4.00937e-13
-2.35931e-14
-2.37777e-15
-8.33812e-16
-4.51938e-18
-1.54235e-16
-3.48471e-15
-5.79651e-14
-6.98667e-13
-6.14329e-12
-3.99382e-11
-2.00945e-10
-7.46761e-10
-1.76425e-09
-2.51704e-09
-2.5705e-09
-7.87625e-10
-4.71276e-11
-1.18994e-12
-1.04979e-13
-4.61874e-15
-2.30358e-16
-4.76857e-17
-8.11442e-20
-4.77461e-18
-1.82943e-16
-4.50782e-15
-6.66227e-14
-6.74755e-13
-4.85886e-12
-2.67796e-11
-1.0851e-10
-2.96068e-10
-4.63345e-10
-5.11735e-10
-1.73302e-10
-1.11658e-11
-2.90017e-13
-2.22313e-14
-8.35873e-16
-2.69307e-17
-2.65669e-18
)
;

boundaryField
{
    leftWall
    {
        type            calculated;
        value           nonuniform List<scalar> 
50
(
-29.4294
-88.2881
-147.147
-206.006
-264.864
-323.723
-382.582
-441.44
-533.467
-658.662
-783.856
-907.292
-789.787
-102.281
-1.47402e-34
-8.53121e-16
-4.18772e-15
-8.39792e-15
-1.08722e-14
-1.16439e-14
-8.94951e-15
-4.11142e-15
-1.45502e-15
-3.9585e-16
-8.04008e-17
-1.1617e-17
-1.1039e-18
-6.09022e-20
-1.63482e-21
-1.96961e-23
-1.52945e-24
-5.86309e-26
-2.97353e-31
-2.51443e-35
-1.60011e-38
-5.35736e-44
-2.02507e-47
-9.4814e-54
-6.19699e-59
-4.35338e-63
-1.34025e-67
-2.40164e-71
-1.375e-75
-4.88579e-80
-4.44208e-85
-2.69226e-90
-2.71676e-96
-2.67555e-102
-7.64633e-104
-7.16807e-103
)
;
    }
    rightWall
    {
        type            calculated;
        value           nonuniform List<scalar> 
50
(
-3.7961e-28
-1.61257e-25
-3.50279e-23
-3.85623e-21
-2.62342e-19
-1.1977e-17
-3.82072e-16
-8.63282e-15
-2.21768e-13
-4.50756e-12
-2.1755e-11
-2.52297e-11
-2.87052e-11
-3.22358e-11
-2.06856e-08
-0.00524652
-0.0517209
-0.556897
-5.57274
-22.1918
-63.4628
-79.2074
-80.9334
-59.5463
-27.621
-10.2325
-5.25492
-2.63233
-1.68685
-1.45275
-0.57496
-0.171928
-0.0548103
-0.151937
-0.178033
-0.165265
-0.0211002
-6.04811e-06
-2.94709e-08
-2.6437e-08
-1.03275e-08
-1.81076e-09
-2.45472e-10
-2.70798e-11
-2.50096e-12
-1.97492e-13
-1.35912e-14
-8.33812e-16
-4.76857e-17
-2.65669e-18
)
;
    }
    lowerWall
    {
        type            calculated;
        value           nonuniform List<scalar> 
62
(
0
0
0
0
0
0
0
0
0
0
0
0
0
0
0
0
0
0
0
0
0
0
0
-29.3943
-88.2197
-146.909
-205.488
-264.199
-322.91
-381.748
-441.228
-470.117
-470.266
-451.696
-154.602
-3.91452e-23
-8.15155e-21
-8.23959e-19
-8.63853e-17
-4.5852e-15
-2.83538e-13
-7.98319e-12
-2.56453e-10
0
0
0
0
0
0
0
0
0
0
0
0
0
0
0
0
0
0
0
)
;
    }
    atmosphere
    {
        type            calculated;
        value           nonuniform List<scalar> 
46
(
-0
-0
-0
-0
-0
-0
-0
-0
-0
-0
-0
-0
-0
-0
-0
-0
-0
-0
-0
-0
-0
-0
-0
-0
-0
-0
-0
-0
-4.82736e-18
-1.84964e-16
-4.55762e-15
-6.73587e-14
-6.82209e-13
-4.91253e-12
-2.70755e-11
-1.09709e-10
-2.99338e-10
-4.68464e-10
-5.17388e-10
-1.75216e-10
-1.12892e-11
-2.93221e-13
-2.24769e-14
-8.45107e-16
-2.72283e-17
-2.68604e-18
)
;
    }
    defaultFaces
    {
        type            empty;
    }
}

