/*--------------------------------*- C++ -*----------------------------------*\
| =========                 |                                                 |
| \\      /  F ield         | OpenFOAM: The Open Source CFD Toolbox           |
|  \\    /   O peration     | Version:  2012                                  |
|   \\  /    A nd           | Website:  www.openfoam.com                      |
|    \\/     M anipulation  |                                                 |
\*---------------------------------------------------------------------------*/
FoamFile
{
    version     2.0;
    format      ascii;
    class       volVectorField;
    location    "0.33";
    object      U;
}
// * * * * * * * * * * * * * * * * * * * * * * * * * * * * * * * * * * * * * //

dimensions      [0 1 -1 0 0 0 0];


internalField   nonuniform List<vector> 
2268
(
(0.0214834 -0.0106678 0)
(0.0677206 -0.0106049 0)
(0.11013 -0.0103439 0)
(0.15417 -0.010563 0)
(0.198361 -0.0103482 0)
(0.240485 -0.00996043 0)
(0.281205 -0.00948802 0)
(0.319315 -0.00952479 0)
(0.360306 -0.0084921 0)
(0.389656 -0.00827583 0)
(0.428665 -0.00720429 0)
(0.450204 -0.0056429 0)
(0.473203 -0.00429927 0)
(0.487926 -0.00397036 0)
(0.500811 -0.00154874 0)
(0.497669 0.000329233 0)
(0.484466 0.00288608 0)
(0.457867 0.00264788 0)
(0.41747 0.00474703 0)
(0.360082 0.00321357 0)
(0.280327 0.00600692 0)
(0.191775 0.00724103 0)
(0.0661083 0.0377193 0)
(0.0214175 -0.0314876 0)
(0.0676903 -0.0312911 0)
(0.110292 -0.0305057 0)
(0.154338 -0.0311414 0)
(0.198509 -0.0304345 0)
(0.240763 -0.0292024 0)
(0.281579 -0.0277537 0)
(0.319929 -0.0278743 0)
(0.360728 -0.0247416 0)
(0.39055 -0.0240362 0)
(0.429791 -0.021428 0)
(0.451219 -0.0153911 0)
(0.475634 -0.0135621 0)
(0.491448 -0.00907102 0)
(0.499827 -0.00307643 0)
(0.499938 0.00737188 0)
(0.48684 0.0159136 0)
(0.460759 0.0289695 0)
(0.418659 0.0414507 0)
(0.358841 0.0615298 0)
(0.27269 0.0734904 0)
(0.173784 0.0938497 0)
(0.0389691 0.0840062 0)
(0.0213393 -0.0527809 0)
(0.0677545 -0.0526119 0)
(0.110626 -0.0512895 0)
(0.154648 -0.052262 0)
(0.198789 -0.0511837 0)
(0.241311 -0.0492291 0)
(0.28228 -0.0468855 0)
(0.32109 -0.0469394 0)
(0.361568 -0.0418479 0)
(0.392271 -0.0409047 0)
(0.431699 -0.0358705 0)
(0.453141 -0.0272626 0)
(0.479778 -0.0233063 0)
(0.495347 -0.0153423 0)
(0.503379 -0.00552832 0)
(0.505528 0.00652478 0)
(0.496201 0.0214967 0)
(0.471947 0.0349228 0)
(0.434875 0.053067 0)
(0.380278 0.0723097 0)
(0.301233 0.093712 0)
(0.206495 0.118036 0)
(0.0598759 0.138711 0)
(0.021294 -0.0735873 0)
(0.0678742 -0.0734861 0)
(0.111017 -0.0715622 0)
(0.155043 -0.0728113 0)
(0.199104 -0.071381 0)
(0.241953 -0.0686714 0)
(0.283272 -0.0654474 0)
(0.32274 -0.0653679 0)
(0.362908 -0.0583815 0)
(0.394844 -0.0572032 0)
(0.434354 -0.050233 0)
(0.456163 -0.0381307 0)
(0.485019 -0.0335862 0)
(0.499901 -0.0202666 0)
(0.509992 -0.00798095 0)
(0.511196 0.010669 0)
(0.50099 0.0316731 0)
(0.477765 0.0578103 0)
(0.436696 0.0846143 0)
(0.381646 0.124456 0)
(0.297754 0.155328 0)
(0.205236 0.207355 0)
(0.0582653 0.209088 0)
(0.021267 -0.0949268 0)
(0.0681005 -0.0950236 0)
(0.111538 -0.0924857 0)
(0.155673 -0.0939021 0)
(0.19969 -0.0922508 0)
(0.242901 -0.0890157 0)
(0.284607 -0.0850472 0)
(0.324843 -0.0845779 0)
(0.3646 -0.0758941 0)
(0.398166 -0.0746451 0)
(0.437569 -0.0648175 0)
(0.459986 -0.0511331 0)
(0.491883 -0.0439269 0)
(0.505844 -0.027034 0)
(0.520492 -0.0107468 0)
(0.521543 0.0108892 0)
(0.51768 0.0375044 0)
(0.49798 0.0654418 0)
(0.465329 0.0987886 0)
(0.414854 0.138174 0)
(0.336572 0.177562 0)
(0.242129 0.231787 0)
(0.085763 0.264371 0)
(0.0212714 -0.115812 0)
(0.068286 -0.116142 0)
(0.111995 -0.112936 0)
(0.156319 -0.114471 0)
(0.200375 -0.112593 0)
(0.243956 -0.108813 0)
(0.286149 -0.104166 0)
(0.327267 -0.103199 0)
(0.366818 -0.0930441 0)
(0.40237 -0.0917313 0)
(0.441291 -0.0795068 0)
(0.465173 -0.0638518 0)
(0.499908 -0.0553809 0)
(0.513851 -0.0338801 0)
(0.530145 -0.0155775 0)
(0.533716 0.0118382 0)
(0.527847 0.0425894 0)
(0.510869 0.0823118 0)
(0.472854 0.123625 0)
(0.424374 0.184992 0)
(0.338565 0.236538 0)
(0.248841 0.325252 0)
(0.0784044 0.362649 0)
(0.0213536 -0.137262 0)
(0.0685927 -0.137913 0)
(0.112664 -0.134096 0)
(0.157246 -0.135684 0)
(0.201474 -0.133665 0)
(0.245462 -0.129562 0)
(0.288113 -0.124402 0)
(0.330121 -0.122698 0)
(0.369537 -0.111347 0)
(0.407201 -0.109801 0)
(0.445217 -0.0944355 0)
(0.471198 -0.0787338 0)
(0.509229 -0.0668359 0)
(0.52234 -0.0411555 0)
(0.545751 -0.0199365 0)
(0.547503 0.0121606 0)
(0.550325 0.0486283 0)
(0.535122 0.091653 0)
(0.509335 0.140127 0)
(0.466419 0.201854 0)
(0.390579 0.26117 0)
(0.303753 0.355198 0)
(0.124252 0.420547 0)
(0.0216547 -0.158304 0)
(0.0686442 -0.159283 0)
(0.11314 -0.154815 0)
(0.158089 -0.156436 0)
(0.202535 -0.15427 0)
(0.246878 -0.149765 0)
(0.290189 -0.144172 0)
(0.332979 -0.14171 0)
(0.373084 -0.129495 0)
(0.412988 -0.127561 0)
(0.449877 -0.109832 0)
(0.479526 -0.0941938 0)
(0.519567 -0.0797171 0)
(0.533669 -0.0512874 0)
(0.560716 -0.0277366 0)
(0.563111 0.00944042 0)
(0.567285 0.0480999 0)
(0.556049 0.10133 0)
(0.526543 0.155678 0)
(0.492449 0.240716 0)
(0.406429 0.312893 0)
(0.325929 0.450626 0)
(0.136091 0.563317 0)
(-0.071904 0.0490828 0)
(-0.332019 0.0311869 0)
(-0.474824 0.000231388 0)
(-0.626647 -0.0221861 0)
(-0.712149 -0.013004 0)
(-0.775053 -0.0035962 0)
(-0.823366 0.00705442 0)
(-0.833187 0.00968669 0)
(-0.850484 0.00709671 0)
(-0.848959 -0.000224898 0)
(-0.826076 -0.00812229 0)
(-0.792334 -0.0080994 0)
(-0.748434 -0.0149994 0)
(-0.664116 -0.0121046 0)
(-0.594096 -0.0214033 0)
(-0.471163 -0.0202127 0)
(-0.362276 -0.0261801 0)
(-0.215563 -0.0257771 0)
(-0.077601 -0.0277651 0)
(-0.0854242 0.136003 0)
(-0.353737 0.155254 0)
(-0.504044 0.136669 0)
(-0.642803 0.139222 0)
(-0.710904 0.0875206 0)
(-0.771218 0.0670674 0)
(-0.81983 0.0289776 0)
(-0.834423 0.0173575 0)
(-0.855059 0.0111164 0)
(-0.855357 0.0053142 0)
(-0.82963 -0.0042515 0)
(-0.795156 -0.00947136 0)
(-0.750223 -0.0275705 0)
(-0.666682 -0.0385574 0)
(-0.597162 -0.0482396 0)
(-0.473103 -0.0639456 0)
(-0.364673 -0.0696055 0)
(-0.216445 -0.0813921 0)
(-0.078496 -0.0835037 0)
(-0.0835255 0.248621 0)
(-0.355507 0.223678 0)
(-0.492228 0.135162 0)
(-0.643736 0.0806527 0)
(-0.733108 0.0523776 0)
(-0.797319 0.0580149 0)
(-0.844069 0.0456544 0)
(-0.839981 0.0408485 0)
(-0.857644 0.0280365 0)
(-0.854937 0.00472227 0)
(-0.833985 -0.0220971 0)
(-0.802662 -0.026605 0)
(-0.761399 -0.0578588 0)
(-0.673686 -0.0621344 0)
(-0.605012 -0.0914142 0)
(-0.480294 -0.104654 0)
(-0.36968 -0.122389 0)
(-0.221182 -0.133643 0)
(-0.0786689 -0.139795 0)
(-0.0967548 0.336385 0)
(-0.388133 0.345288 0)
(-0.549789 0.270716 0)
(-0.679508 0.25981 0)
(-0.724766 0.164976 0)
(-0.782493 0.131544 0)
(-0.831139 0.0578775 0)
(-0.84238 0.0379332 0)
(-0.870483 0.0283943 0)
(-0.876017 0.0104079 0)
(-0.844419 -0.0146505 0)
(-0.809412 -0.024636 0)
(-0.765287 -0.070277 0)
(-0.680673 -0.0901732 0)
(-0.614303 -0.117948 0)
(-0.486343 -0.149591 0)
(-0.377435 -0.166891 0)
(-0.223945 -0.191192 0)
(-0.0815432 -0.197601 0)
(-0.0784402 0.467282 0)
(-0.396116 0.429571 0)
(-0.552567 0.270269 0)
(-0.695081 0.167135 0)
(-0.777812 0.105635 0)
(-0.838899 0.117312 0)
(-0.884244 0.0834356 0)
(-0.854369 0.0746544 0)
(-0.871063 0.0550406 0)
(-0.873841 0.00984026 0)
(-0.850559 -0.0391145 0)
(-0.826102 -0.045209 0)
(-0.790441 -0.101164 0)
(-0.695705 -0.11112 0)
(-0.630315 -0.16192 0)
(-0.501442 -0.190965 0)
(-0.386881 -0.221023 0)
(-0.233437 -0.245733 0)
(-0.0820141 -0.256326 0)
(-0.120394 0.551519 0)
(-0.466508 0.565731 0)
(-0.643314 0.409987 0)
(-0.751575 0.378214 0)
(-0.760148 0.239769 0)
(-0.804233 0.195994 0)
(-0.858035 0.0742332 0)
(-0.860715 0.0460085 0)
(-0.899257 0.0467766 0)
(-0.916299 0.0162988 0)
(-0.871734 -0.0227005 0)
(-0.832786 -0.0340506 0)
(-0.794831 -0.11325 0)
(-0.706256 -0.143521 0)
(-0.647077 -0.187842 0)
(-0.511952 -0.238621 0)
(-0.401271 -0.267963 0)
(-0.238608 -0.306762 0)
(-0.0871973 -0.318286 0)
(-0.0683618 0.730151 0)
(-0.472799 0.66265 0)
(-0.67113 0.400608 0)
(-0.788085 0.223422 0)
(-0.859533 0.134802 0)
(-0.904545 0.17101 0)
(-0.951191 0.120759 0)
(-0.872217 0.110908 0)
(-0.887541 0.0923953 0)
(-0.907781 0.015191 0)
(-0.876299 -0.0642309 0)
(-0.864567 -0.0633051 0)
(-0.840362 -0.144123 0)
(-0.730386 -0.158402 0)
(-0.670741 -0.232659 0)
(-0.536446 -0.281161 0)
(-0.414876 -0.324236 0)
(-0.253437 -0.365766 0)
(-0.0878636 -0.381525 0)
(-0.140257 0.792003 0)
(-0.613532 0.846639 0)
(-0.820364 0.557347 0)
(-0.880934 0.489311 0)
(-0.812645 0.305986 0)
(-0.832059 0.257345 0)
(-0.898426 0.0685812 0)
(-0.873455 0.0302215 0)
(-0.93307 0.070751 0)
(-0.980183 0.0251263 0)
(-0.916867 -0.0276978 0)
(-0.872823 -0.0322069 0)
(-0.850857 -0.157227 0)
(-0.744964 -0.201235 0)
(-0.699974 -0.257396 0)
(-0.552664 -0.332746 0)
(-0.438221 -0.375521 0)
(-0.262474 -0.431483 0)
(-0.0957498 -0.449888 0)
(0.0223696 -0.192154 0)
(0.0688494 -0.193499 0)
(0.114364 -0.188532 0)
(0.159965 -0.190072 0)
(0.205015 -0.187665 0)
(0.249933 -0.182961 0)
(0.294465 -0.176855 0)
(0.338328 -0.173217 0)
(0.379773 -0.160158 0)
(0.422189 -0.156444 0)
(0.458524 -0.134776 0)
(0.494495 -0.121314 0)
(0.53475 -0.0993531 0)
(0.55034 -0.0654916 0)
(0.590008 -0.0368684 0)
(0.590022 0.00926824 0)
(0.61494 0.0548458 0)
(0.597815 0.116795 0)
(0.613463 0.17935 0)
(0.575526 0.269096 0)
(0.593469 0.356469 0)
(0.526751 0.501684 0)
(0.557715 0.683913 0)
(0.0230624 -0.237776 0)
(0.0692183 -0.239408 0)
(0.115679 -0.23423 0)
(0.1622 -0.23543 0)
(0.208054 -0.232649 0)
(0.254195 -0.227728 0)
(0.300238 -0.221243 0)
(0.346378 -0.216155 0)
(0.390593 -0.202776 0)
(0.436259 -0.196409 0)
(0.475909 -0.173643 0)
(0.520914 -0.161178 0)
(0.55602 -0.129025 0)
(0.588755 -0.101891 0)
(0.627013 -0.0647749 0)
(0.637152 -0.015799 0)
(0.665879 0.0372667 0)
(0.652306 0.0968295 0)
(0.660248 0.169016 0)
(0.621698 0.250084 0)
(0.623803 0.345942 0)
(0.583562 0.467776 0)
(0.619856 0.662236 0)
(0.0238835 -0.284943 0)
(0.0700595 -0.286627 0)
(0.11774 -0.282021 0)
(0.165554 -0.282956 0)
(0.212573 -0.28015 0)
(0.26006 -0.275644 0)
(0.307834 -0.2695 0)
(0.355845 -0.264025 0)
(0.402552 -0.250432 0)
(0.45066 -0.242115 0)
(0.494746 -0.21972 0)
(0.542465 -0.201653 0)
(0.58181 -0.167312 0)
(0.628207 -0.136504 0)
(0.662462 -0.085188 0)
(0.691512 -0.0292851 0)
(0.729505 0.040165 0)
(0.733996 0.123016 0)
(0.764436 0.210831 0)
(0.749864 0.3058 0)
(0.780631 0.395488 0)
(0.760422 0.503829 0)
(0.820424 0.660489 0)
(0.0245341 -0.332179 0)
(0.0706156 -0.333726 0)
(0.119299 -0.330195 0)
(0.168159 -0.330736 0)
(0.216192 -0.327624 0)
(0.264971 -0.323484 0)
(0.314529 -0.317525 0)
(0.364739 -0.311413 0)
(0.41459 -0.298163 0)
(0.4667 -0.289217 0)
(0.515661 -0.266135 0)
(0.568778 -0.248953 0)
(0.616907 -0.215602 0)
(0.670617 -0.183379 0)
(0.710157 -0.129116 0)
(0.769769 -0.0837442 0)
(0.792972 -0.0065886 0)
(0.826998 0.0610523 0)
(0.831566 0.151945 0)
(0.82164 0.233596 0)
(0.816992 0.335063 0)
(0.805822 0.429218 0)
(0.837065 0.570216 0)
(0.0250783 -0.380665 0)
(0.0710432 -0.381965 0)
(0.120583 -0.380154 0)
(0.170593 -0.380439 0)
(0.219852 -0.377556 0)
(0.269938 -0.374592 0)
(0.321209 -0.369886 0)
(0.372646 -0.3647 0)
(0.42369 -0.352983 0)
(0.477009 -0.343743 0)
(0.528284 -0.322327 0)
(0.582822 -0.30336 0)
(0.634235 -0.269604 0)
(0.684294 -0.230042 0)
(0.741443 -0.184644 0)
(0.788411 -0.112269 0)
(0.815753 -0.017076 0)
(0.868109 0.0844417 0)
(0.875551 0.216022 0)
(0.87853 0.31952 0)
(0.885105 0.410492 0)
(0.885913 0.481008 0)
(0.909623 0.565444 0)
(0.0252076 -0.42877 0)
(0.0714131 -0.429693 0)
(0.122044 -0.430229 0)
(0.174407 -0.430475 0)
(0.227038 -0.427428 0)
(0.282343 -0.425275 0)
(0.340626 -0.419852 0)
(0.380004 -0.413173 0)
(0.403622 -0.402195 0)
(0.448625 -0.393432 0)
(0.492815 -0.371688 0)
(0.562077 -0.35452 0)
(0.635917 -0.316876 0)
(0.735111 -0.290122 0)
(0.810999 -0.232845 0)
(0.901796 -0.157122 0)
(0.929469 -0.0852876 0)
(0.972338 0.00253242 0)
(0.878912 0.143522 0)
(0.853008 0.228341 0)
(0.867283 0.330906 0)
(0.883288 0.407638 0)
(0.932761 0.516619 0)
(0.0160422 -0.477379 0)
(0.055066 -0.478903 0)
(0.0887255 -0.483292 0)
(0.127538 -0.485604 0)
(0.165343 -0.485779 0)
(0.201474 -0.489057 0)
(0.240797 -0.469384 0)
(0.283556 -0.432614 0)
(0.33729 -0.424207 0)
(0.399153 -0.436697 0)
(0.484621 -0.43844 0)
(0.583641 -0.45006 0)
(0.702198 -0.444933 0)
(0.827864 -0.408385 0)
(0.950811 -0.353437 0)
(1.07087 -0.233529 0)
(1.16424 -0.0890477 0)
(1.2251 0.131925 0)
(1.17195 0.337906 0)
(1.0714 0.326832 0)
(0.941548 0.375954 0)
(0.86794 0.412358 0)
(0.898119 0.465738 0)
(0.0129769 -0.50097 0)
(0.052172 -0.503405 0)
(0.0787713 -0.503705 0)
(0.11095 -0.507913 0)
(0.141528 -0.50196 0)
(0.169221 -0.500406 0)
(0.19498 -0.499241 0)
(0.237943 -0.504571 0)
(0.299727 -0.513791 0)
(0.363851 -0.536915 0)
(0.443392 -0.553068 0)
(0.528123 -0.569148 0)
(0.60494 -0.559364 0)
(0.685187 -0.536677 0)
(0.768054 -0.4742 0)
(0.863132 -0.369472 0)
(0.999717 -0.237302 0)
(1.12618 -0.00383269 0)
(1.2939 0.296318 0)
(1.34203 0.463185 0)
(1.25423 0.538405 0)
(1.19261 0.457967 0)
(1.15031 0.433628 0)
(0.0186642 -0.541386 0)
(0.0497496 -0.543622 0)
(0.0855542 -0.541117 0)
(0.11437 -0.547625 0)
(0.149557 -0.543974 0)
(0.181363 -0.542603 0)
(0.219731 -0.541002 0)
(0.256726 -0.541051 0)
(0.302668 -0.553466 0)
(0.345176 -0.584375 0)
(0.400716 -0.60615 0)
(0.439964 -0.61543 0)
(0.478264 -0.60498 0)
(0.514461 -0.575004 0)
(0.561242 -0.534412 0)
(0.626991 -0.468149 0)
(0.725829 -0.354917 0)
(0.844966 -0.165094 0)
(1.05517 0.121595 0)
(1.28052 0.366655 0)
(1.46438 0.522054 0)
(1.56849 0.512769 0)
(1.62539 0.511228 0)
(0.018808 -0.570122 0)
(0.0441424 -0.570929 0)
(0.0792853 -0.568837 0)
(0.106354 -0.572117 0)
(0.13671 -0.568831 0)
(0.166156 -0.569852 0)
(0.198298 -0.572997 0)
(0.231167 -0.585136 0)
(0.270809 -0.600024 0)
(0.303328 -0.63249 0)
(0.335286 -0.645559 0)
(0.354295 -0.644103 0)
(0.37287 -0.631472 0)
(0.394528 -0.617134 0)
(0.420442 -0.584381 0)
(0.44847 -0.532651 0)
(0.492732 -0.453853 0)
(0.559905 -0.332816 0)
(0.691522 -0.139961 0)
(0.911427 0.0526954 0)
(1.18028 0.251498 0)
(1.39479 0.299348 0)
(1.55862 0.330753 0)
(0.0178154 -0.603886 0)
(0.0434018 -0.603741 0)
(0.0783859 -0.603058 0)
(0.105911 -0.605024 0)
(0.140679 -0.60407 0)
(0.172346 -0.604852 0)
(0.210028 -0.607323 0)
(0.240823 -0.615456 0)
(0.275503 -0.627332 0)
(0.296101 -0.651087 0)
(0.313758 -0.658859 0)
(0.327044 -0.655297 0)
(0.344451 -0.64705 0)
(0.359262 -0.625037 0)
(0.373706 -0.590438 0)
(0.391731 -0.542761 0)
(0.417845 -0.468262 0)
(0.45753 -0.366547 0)
(0.536454 -0.232553 0)
(0.671865 -0.124921 0)
(0.860022 0.0349117 0)
(1.07829 0.131594 0)
(1.26412 0.200954 0)
(0.0158217 -0.631491 0)
(0.0454673 -0.631584 0)
(0.0772441 -0.631343 0)
(0.107658 -0.634202 0)
(0.139328 -0.634864 0)
(0.171085 -0.638498 0)
(0.20451 -0.640451 0)
(0.233819 -0.649245 0)
(0.262966 -0.653835 0)
(0.280388 -0.669 0)
(0.297759 -0.674653 0)
(0.313089 -0.672799 0)
(0.328621 -0.661679 0)
(0.344394 -0.64434 0)
(0.363222 -0.614613 0)
(0.38735 -0.575065 0)
(0.420493 -0.517887 0)
(0.472008 -0.450466 0)
(0.554781 -0.353665 0)
(0.667745 -0.271293 0)
(0.812391 -0.15589 0)
(0.999039 -0.104267 0)
(1.19359 -0.043031 0)
(0.0160719 -0.665113 0)
(0.0452141 -0.665181 0)
(0.0778356 -0.665302 0)
(0.108128 -0.667383 0)
(0.14065 -0.667868 0)
(0.171581 -0.670743 0)
(0.204964 -0.670863 0)
(0.23448 -0.675096 0)
(0.265423 -0.674883 0)
(0.28923 -0.687241 0)
(0.311603 -0.69267 0)
(0.33378 -0.687785 0)
(0.360249 -0.67963 0)
(0.392271 -0.661484 0)
(0.428405 -0.63493 0)
(0.472703 -0.602074 0)
(0.525261 -0.554611 0)
(0.592254 -0.503166 0)
(0.680239 -0.430666 0)
(0.792122 -0.385002 0)
(0.935952 -0.29973 0)
(1.1039 -0.253038 0)
(1.27744 -0.19903 0)
(0.0146424 -0.692632 0)
(0.0439966 -0.693171 0)
(0.073835 -0.694016 0)
(0.10383 -0.696667 0)
(0.133941 -0.69784 0)
(0.164559 -0.702179 0)
(0.195851 -0.702554 0)
(0.226804 -0.708747 0)
(0.259582 -0.707493 0)
(0.28873 -0.713945 0)
(0.313995 -0.717845 0)
(0.343125 -0.720088 0)
(0.374163 -0.718698 0)
(0.411251 -0.711136 0)
(0.453737 -0.693439 0)
(0.504412 -0.670646 0)
(0.564894 -0.635909 0)
(0.638734 -0.604401 0)
(0.734914 -0.552585 0)
(0.846201 -0.526355 0)
(0.983793 -0.468079 0)
(1.14331 -0.445066 0)
(1.31766 -0.407267 0)
(0.0149895 -0.723883 0)
(0.0451342 -0.724564 0)
(0.0753265 -0.725329 0)
(0.105493 -0.727853 0)
(0.136126 -0.72896 0)
(0.166576 -0.73328 0)
(0.198437 -0.7337 0)
(0.229646 -0.739753 0)
(0.263177 -0.73761 0)
(0.297446 -0.742787 0)
(0.331417 -0.747992 0)
(0.367114 -0.749341 0)
(0.403414 -0.748917 0)
(0.444262 -0.742803 0)
(0.489615 -0.729584 0)
(0.542643 -0.71534 0)
(0.607513 -0.690784 0)
(0.682405 -0.67562 0)
(0.780788 -0.640538 0)
(0.889361 -0.636311 0)
(1.02659 -0.599945 0)
(1.17834 -0.589505 0)
(1.34996 -0.570408 0)
(0.014259 -0.752468 0)
(0.0428328 -0.7532 0)
(0.0713955 -0.754024 0)
(0.100194 -0.757059 0)
(0.129379 -0.758437 0)
(0.158632 -0.763934 0)
(0.189273 -0.764976 0)
(0.219607 -0.772759 0)
(0.251877 -0.774482 0)
(0.287046 -0.781298 0)
(0.320139 -0.786512 0)
(0.356462 -0.791086 0)
(0.39376 -0.794673 0)
(0.435686 -0.7963 0)
(0.483851 -0.790573 0)
(0.538016 -0.787599 0)
(0.607404 -0.774598 0)
(0.682766 -0.776915 0)
(0.785226 -0.75907 0)
(0.892867 -0.77152 0)
(1.02911 -0.757615 0)
(1.18051 -0.767832 0)
(1.35879 -0.772499 0)
(0.0141634 -0.78117 0)
(0.042731 -0.781937 0)
(0.0714511 -0.782919 0)
(0.100516 -0.786182 0)
(0.1301 -0.787723 0)
(0.159709 -0.793676 0)
(0.190564 -0.795141 0)
(0.221416 -0.803055 0)
(0.253297 -0.805696 0)
(0.287277 -0.811996 0)
(0.321458 -0.818226 0)
(0.358484 -0.824185 0)
(0.39798 -0.82917 0)
(0.439096 -0.83442 0)
(0.489879 -0.833196 0)
(0.542485 -0.840713 0)
(0.615749 -0.837169 0)
(0.687596 -0.855478 0)
(0.789177 -0.852857 0)
(0.890904 -0.882307 0)
(1.02314 -0.890515 0)
(1.16845 -0.9215 0)
(1.34536 -0.950953 0)
(0.0135391 -0.80903 0)
(0.04114 -0.810146 0)
(0.0686758 -0.811444 0)
(0.096595 -0.815319 0)
(0.124787 -0.817203 0)
(0.153063 -0.823936 0)
(0.182123 -0.826176 0)
(0.211645 -0.834943 0)
(0.241784 -0.839745 0)
(0.27443 -0.848833 0)
(0.30767 -0.856989 0)
(0.342501 -0.866912 0)
(0.381962 -0.874458 0)
(0.421153 -0.88749 0)
(0.47458 -0.893185 0)
(0.525245 -0.912846 0)
(0.60004 -0.919208 0)
(0.668255 -0.949785 0)
(0.766145 -0.962434 0)
(0.863345 -1.00492 0)
(0.988844 -1.03593 0)
(1.12923 -1.08954 0)
(1.30206 -1.14891 0)
(0.0133922 -0.836026 0)
(0.0408304 -0.837276 0)
(0.0678805 -0.838568 0)
(0.0953664 -0.842559 0)
(0.122895 -0.844437 0)
(0.1507 -0.851372 0)
(0.179097 -0.85405 0)
(0.208171 -0.863204 0)
(0.238016 -0.86891 0)
(0.268877 -0.878555 0)
(0.302234 -0.886856 0)
(0.334641 -0.899362 0)
(0.375497 -0.908558 0)
(0.412313 -0.928145 0)
(0.465494 -0.938301 0)
(0.511037 -0.967486 0)
(0.57969 -0.981603 0)
(0.641098 -1.02301 0)
(0.728775 -1.04993 0)
(0.817299 -1.10665 0)
(0.932703 -1.15901 0)
(1.0599 -1.23685 0)
(1.22269 -1.32449 0)
(0.0126919 -0.862941 0)
(0.0389763 -0.864316 0)
(0.0645191 -0.865656 0)
(0.090905 -0.869995 0)
(0.116887 -0.872186 0)
(0.143786 -0.879765 0)
(0.17043 -0.883262 0)
(0.198635 -0.893456 0)
(0.226445 -0.900027 0)
(0.25628 -0.912623 0)
(0.287891 -0.922294 0)
(0.320012 -0.939719 0)
(0.358327 -0.951688 0)
(0.39528 -0.97702 0)
(0.44151 -0.991597 0)
(0.487497 -1.02656 0)
(0.54351 -1.04924 0)
(0.606401 -1.09836 0)
(0.675994 -1.139 0)
(0.763084 -1.20837 0)
(0.855117 -1.27933 0)
(0.973023 -1.37909 0)
(1.10482 -1.49568 0)
(0.0121253 -0.887808 0)
(0.0376759 -0.889229 0)
(0.0620707 -0.890618 0)
(0.0877982 -0.89509 0)
(0.112519 -0.897472 0)
(0.138752 -0.905135 0)
(0.163782 -0.909106 0)
(0.191102 -0.919522 0)
(0.216926 -0.926836 0)
(0.245814 -0.940405 0)
(0.273847 -0.950994 0)
(0.305464 -0.97031 0)
(0.336496 -0.984439 0)
(0.373535 -1.01193 0)
(0.407859 -1.03141 0)
(0.456411 -1.07017 0)
(0.495657 -1.10176 0)
(0.561575 -1.15632 0)
(0.606686 -1.20829 0)
(0.694317 -1.28688 0)
(0.750023 -1.37114 0)
(0.863031 -1.48807 0)
(0.94444 -1.62652 0)
(0.011515 -0.912466 0)
(0.0362948 -0.913981 0)
(0.0593783 -0.915499 0)
(0.0843027 -0.920157 0)
(0.107383 -0.922853 0)
(0.13283 -0.93073 0)
(0.155767 -0.935313 0)
(0.182399 -0.946295 0)
(0.205504 -0.954427 0)
(0.233763 -0.969245 0)
(0.257754 -0.981633 0)
(0.28886 -1.00207 0)
(0.313565 -1.01947 0)
(0.350594 -1.04809 0)
(0.376246 -1.07424 0)
(0.423984 -1.11411 0)
(0.449486 -1.15424 0)
(0.511325 -1.20922 0)
(0.536049 -1.27168 0)
(0.615859 -1.35162 0)
(0.639291 -1.44806 0)
(0.741306 -1.57346 0)
(0.764589 -1.71998 0)
(0.0109938 -0.935671 0)
(0.0350896 -0.937148 0)
(0.0569482 -0.938682 0)
(0.0809925 -0.943172 0)
(0.10244 -0.946074 0)
(0.126815 -0.953632 0)
(0.147645 -0.958785 0)
(0.17308 -0.969424 0)
(0.193223 -0.978363 0)
(0.220223 -0.992885 0)
(0.239534 -1.00634 0)
(0.269281 -1.02643 0)
(0.287641 -1.04655 0)
(0.322722 -1.07503 0)
(0.339341 -1.10532 0)
(0.381929 -1.14401 0)
(0.396039 -1.18977 0)
(0.44901 -1.24376 0)
(0.459929 -1.31354 0)
(0.524977 -1.39144 0)
(0.528239 -1.49735 0)
(0.606039 -1.61513 0)
(0.589368 -1.77536 0)
(0.0103592 -0.958302 0)
(0.0336694 -0.959681 0)
(0.054124 -0.961149 0)
(0.0772861 -0.965398 0)
(0.0970106 -0.968419 0)
(0.120351 -0.975688 0)
(0.139046 -0.981312 0)
(0.163187 -0.991638 0)
(0.180659 -1.00129 0)
(0.206009 -1.01534 0)
(0.221962 -1.03039 0)
(0.249539 -1.04999 0)
(0.263138 -1.07257 0)
(0.293821 -1.09966 0)
(0.303981 -1.13304 0)
(0.339138 -1.17078 0)
(0.345671 -1.22075 0)
(0.386064 -1.2733 0)
(0.386765 -1.3468 0)
(0.432126 -1.4204 0)
(0.421323 -1.52776 0)
(0.469073 -1.63548 0)
(0.430194 -1.79678 0)
(0.00986725 -0.979714 0)
(0.0325144 -0.980925 0)
(0.0518834 -0.982309 0)
(0.0742524 -0.986086 0)
(0.0925488 -0.989154 0)
(0.114772 -0.995719 0)
(0.131437 -1.00165 0)
(0.153956 -1.01113 0)
(0.168665 -1.02124 0)
(0.191923 -1.03434 0)
(0.204265 -1.04995 0)
(0.228585 -1.06785 0)
(0.237726 -1.09095 0)
(0.263342 -1.11626 0)
(0.268681 -1.15077 0)
(0.29535 -1.1863 0)
(0.295023 -1.23683 0)
(0.322021 -1.28571 0)
(0.314021 -1.35969 0)
(0.340372 -1.42716 0)
(0.318822 -1.53431 0)
(0.340743 -1.62547 0)
(0.287415 -1.7833 0)
(0.00935863 -1.00045 0)
(0.0313662 -1.00146 0)
(0.0496206 -1.00264 0)
(0.0711948 -1.00583 0)
(0.0881031 -1.00869 0)
(0.109173 -1.01436 0)
(0.124017 -1.02023 0)
(0.144694 -1.02867 0)
(0.157078 -1.03896 0)
(0.177625 -1.05077 0)
(0.187124 -1.06671 0)
(0.20761 -1.08333 0)
(0.213786 -1.10689 0)
(0.233493 -1.13054 0)
(0.234851 -1.16447 0)
(0.252605 -1.19712 0)
(0.247395 -1.24664 0)
(0.261414 -1.29238 0)
(0.246121 -1.36408 0)
(0.253435 -1.42537 0)
(0.22263 -1.52653 0)
(0.218679 -1.60439 0)
(0.159403 -1.74621 0)
(0.00899245 -1.02044 0)
(0.0304265 -1.02118 0)
(0.0478738 -1.02213 0)
(0.0687558 -1.02458 0)
(0.0846611 -1.02711 0)
(0.104784 -1.03166 0)
(0.118244 -1.03714 0)
(0.137311 -1.04425 0)
(0.147657 -1.05413 0)
(0.165581 -1.0645 0)
(0.172391 -1.07989 0)
(0.188669 -1.0947 0)
(0.191417 -1.11679 0)
(0.205161 -1.13762 0)
(0.202694 -1.16986 0)
(0.212744 -1.19925 0)
(0.202708 -1.24562 0)
(0.206156 -1.28494 0)
(0.184122 -1.35171 0)
(0.176612 -1.40428 0)
(0.136976 -1.49952 0)
(0.113407 -1.563 0)
(0.051561 -1.69083 0)
(0.00854836 -1.03965 0)
(0.0292672 -1.04011 0)
(0.0458548 -1.04073 0)
(0.0659855 -1.04241 0)
(0.0810474 -1.04446 0)
(0.100223 -1.04774 0)
(0.112729 -1.05247 0)
(0.130256 -1.05789 0)
(0.139259 -1.0669 0)
(0.154556 -1.07534 0)
(0.15935 -1.08942 0)
(0.171345 -1.10221 0)
(0.171344 -1.12291 0)
(0.179267 -1.14167 0)
(0.173044 -1.17145 0)
(0.175332 -1.19693 0)
(0.160907 -1.23927 0)
(0.15463 -1.27353 0)
(0.127742 -1.33343 0)
(0.106917 -1.37791 0)
(0.0622705 -1.46163 0)
(0.0173652 -1.51881 0)
(-0.0442982 -1.62696 0)
(0.00822274 -1.05826 0)
(0.0283492 -1.05849 0)
(0.0443315 -1.05884 0)
(0.0638789 -1.05978 0)
(0.0783541 -1.06133 0)
(0.0967551 -1.06337 0)
(0.108582 -1.06713 0)
(0.124897 -1.07083 0)
(0.132913 -1.07836 0)
(0.145966 -1.08467 0)
(0.14916 -1.09658 0)
(0.157655 -1.10681 0)
(0.155027 -1.12462 0)
(0.158002 -1.13948 0)
(0.148274 -1.16586 0)
(0.143978 -1.18732 0)
(0.125055 -1.22487 0)
(0.111417 -1.25203 0)
(0.0803459 -1.30392 0)
(0.051084 -1.33912 0)
(0.00258563 -1.40979 0)
(-0.0532059 -1.4568 0)
(-0.123876 -1.54788 0)
(0.00776648 -1.076 0)
(0.0268329 -1.07601 0)
(0.0419596 -1.07603 0)
(0.0605296 -1.07623 0)
(0.0743019 -1.07708 0)
(0.0916742 -1.07777 0)
(0.102971 -1.08033 0)
(0.118106 -1.08204 0)
(0.125714 -1.08765 0)
(0.137004 -1.0914 0)
(0.139564 -1.10072 0)
(0.145459 -1.10786 0)
(0.141201 -1.12278 0)
(0.139862 -1.13463 0)
(0.127434 -1.15681 0)
(0.117507 -1.17332 0)
(0.0943617 -1.20592 0)
(0.0727976 -1.22828 0)
(0.0380214 -1.272 0)
(0.000651948 -1.29944 0)
(-0.0491878 -1.35577 0)
(-0.11233 -1.39135 0)
(-0.18349 -1.46333 0)
(0.00739219 -1.09286 0)
(0.025291 -1.0927 0)
(0.0396115 -1.09253 0)
(0.0572038 -1.09216 0)
(0.0703105 -1.09246 0)
(0.0868409 -1.09208 0)
(0.0977378 -1.09353 0)
(0.112002 -1.09362 0)
(0.119362 -1.0972 0)
(0.12944 -1.09857 0)
(0.131584 -1.10495 0)
(0.135882 -1.1085 0)
(0.131022 -1.11893 0)
(0.127269 -1.12577 0)
(0.112602 -1.14343 0)
(0.0986609 -1.15433 0)
(0.0729508 -1.18005 0)
(0.0458423 -1.19582 0)
(0.00688665 -1.23165 0)
(-0.037268 -1.25211 0)
(-0.0909743 -1.2966 0)
(-0.158544 -1.32271 0)
(-0.230343 -1.37542 0)
(0.00665198 -1.10847 0)
(0.0227214 -1.10807 0)
(0.0356089 -1.10773 0)
(0.0514863 -1.10675 0)
(0.0634857 -1.10649 0)
(0.0786507 -1.10502 0)
(0.0891233 -1.10524 0)
(0.102489 -1.10348 0)
(0.110206 -1.10479 0)
(0.119985 -1.10341 0)
(0.122915 -1.1068 0)
(0.12684 -1.10703 0)
(0.122591 -1.11371 0)
(0.117759 -1.11582 0)
(0.102944 -1.12758 0)
(0.0856094 -1.13313 0)
(0.0578789 -1.15229 0)
(0.0260498 -1.16148 0)
(-0.0153386 -1.18781 0)
(-0.0656175 -1.20054 0)
(-0.123122 -1.2331 0)
(-0.197525 -1.25048 0)
(-0.274936 -1.28926 0)
(0.0058705 -1.1222 0)
(0.0203726 -1.12167 0)
(0.0317848 -1.12128 0)
(0.0460798 -1.12005 0)
(0.056888 -1.11961 0)
(0.0706905 -1.11776 0)
(0.080397 -1.11735 0)
(0.0927439 -1.11476 0)
(0.100021 -1.11467 0)
(0.1094 -1.11133 0)
(0.112932 -1.11178 0)
(0.117311 -1.10822 0)
(0.114408 -1.10979 0)
(0.11058 -1.10617 0)
(0.0976427 -1.11119 0)
(0.0807163 -1.10931 0)
(0.0526132 -1.12035 0)
(0.0175065 -1.12264 0)
(-0.0271863 -1.13981 0)
(-0.0816838 -1.14438 0)
(-0.142159 -1.16449 0)
(-0.22014 -1.171 0)
(-0.302046 -1.19397 0)
(0.00487783 -1.13454 0)
(0.0171044 -1.13386 0)
(0.0265883 -1.13327 0)
(0.0386065 -1.13172 0)
(0.0476525 -1.13091 0)
(0.0592775 -1.1284 0)
(0.0675152 -1.12708 0)
(0.0782602 -1.12296 0)
(0.0849986 -1.12121 0)
(0.0937217 -1.11615 0)
(0.0976017 -1.11442 0)
(0.102338 -1.10826 0)
(0.100865 -1.10659 0)
(0.0986456 -1.09866 0)
(0.0884012 -1.09714 0)
(0.07403 -1.08748 0)
(0.0499633 -1.08828 0)
(0.0163586 -1.08076 0)
(-0.0276742 -1.08755 0)
(-0.0844445 -1.08426 0)
(-0.14618 -1.09331 0)
(-0.223644 -1.08875 0)
(-0.304417 -1.09548 0)
(0.0039653 -1.1441 0)
(0.0140926 -1.14334 0)
(0.0218139 -1.1427 0)
(0.0317778 -1.14108 0)
(0.0391854 -1.14021 0)
(0.0488375 -1.13761 0)
(0.0557399 -1.13629 0)
(0.065003 -1.13227 0)
(0.0713404 -1.1301 0)
(0.0794992 -1.12398 0)
(0.083702 -1.12039 0)
(0.0888981 -1.11155 0)
(0.0888821 -1.10613 0)
(0.0883576 -1.09383 0)
(0.0812439 -1.08662 0)
(0.0707294 -1.07098 0)
(0.0520421 -1.06269 0)
(0.0237066 -1.04507 0)
(-0.0151853 -1.03895 0)
(-0.0708792 -1.02591 0)
(-0.134498 -1.02519 0)
(-0.216973 -1.01288 0)
(-0.299084 -1.00621 0)
(0.00300696 -1.15252 0)
(0.0109061 -1.15166 0)
(0.0167154 -1.15088 0)
(0.024406 -1.14903 0)
(0.0299137 -1.14787 0)
(0.0373266 -1.1449 0)
(0.0425192 -1.14313 0)
(0.0496237 -1.1385 0)
(0.054395 -1.13556 0)
(0.060908 -1.12841 0)
(0.0647003 -1.12362 0)
(0.0693494 -1.11324 0)
(0.0702498 -1.10573 0)
(0.0705635 -1.09065 0)
(0.0660115 -1.07902 0)
(0.0581241 -1.05765 0)
(0.0437305 -1.04054 0)
(0.0213567 -1.01252 0)
(-0.00983268 -0.991923 0)
(-0.0576249 -0.963426 0)
(-0.116855 -0.945795 0)
(-0.197559 -0.922009 0)
(-0.282532 -0.903426 0)
(0.00214845 -1.15783 0)
(0.00803002 -1.15689 0)
(0.0121982 -1.15604 0)
(0.0179231 -1.15414 0)
(0.0218863 -1.15298 0)
(0.0274422 -1.15011 0)
(0.0312 -1.14846 0)
(0.0365424 -1.14408 0)
(0.0401276 -1.1413 0)
(0.0452156 -1.13427 0)
(0.0485775 -1.1288 0)
(0.0529067 -1.11716 0)
(0.0546826 -1.10741 0)
(0.0559339 -1.08976 0)
(0.0537587 -1.07436 0)
(0.0489321 -1.04894 0)
(0.0399913 -1.02615 0)
(0.0246122 -0.991768 0)
(0.00337449 -0.960196 0)
(-0.0326996 -0.919122 0)
(-0.0790168 -0.885432 0)
(-0.149889 -0.847432 0)
(-0.229947 -0.817268 0)
(0.00142449 -1.16277 0)
(0.00549782 -1.1618 0)
(0.00815635 -1.16082 0)
(0.0119836 -1.15879 0)
(0.014431 -1.15742 0)
(0.0180522 -1.15427 0)
(0.0202844 -1.15223 0)
(0.0236896 -1.14747 0)
(0.0257194 -1.14421 0)
(0.0287805 -1.13687 0)
(0.0305209 -1.13123 0)
(0.033147 -1.11925 0)
(0.0343685 -1.10856 0)
(0.0354385 -1.08943 0)
(0.0343225 -1.07164 0)
(0.0312727 -1.04332 0)
(0.0253181 -1.01561 0)
(0.0141603 -0.974981 0)
(-0.00131885 -0.933713 0)
(-0.0269489 -0.879557 0)
(-0.062027 -0.827247 0)
(-0.118358 -0.768838 0)
(-0.190009 -0.716707 0)
(0.000815551 -1.16442 0)
(0.0032715 -1.16332 0)
(0.00477265 -1.16222 0)
(0.0071196 -1.16014 0)
(0.00845222 -1.15877 0)
(0.0105753 -1.15573 0)
(0.0116759 -1.15385 0)
(0.0135866 -1.14931 0)
(0.0145439 -1.14619 0)
(0.0162786 -1.13893 0)
(0.0170796 -1.13306 0)
(0.0184701 -1.12099 0)
(0.0191011 -1.10974 0)
(0.0198876 -1.08984 0)
(0.0196235 -1.07039 0)
(0.0180626 -1.04023 0)
(0.0149381 -1.0094 0)
(0.00818035 -0.965554 0)
(-0.000390809 -0.919541 0)
(-0.0163857 -0.858916 0)
(-0.0362254 -0.794491 0)
(-0.0731219 -0.719949 0)
(-0.121341 -0.647985 0)
(0.000370528 -1.16713 0)
(0.00167761 -1.16603 0)
(0.00230668 -1.1649 0)
(0.0033646 -1.1627 0)
(0.00367746 -1.16108 0)
(0.00438916 -1.1577 0)
(0.00438541 -1.15541 0)
(0.00479075 -1.15052 0)
(0.00454546 -1.14704 0)
(0.00467775 -1.13954 0)
(0.00422166 -1.13348 0)
(0.00406322 -1.12129 0)
(0.00334496 -1.10991 0)
(0.00275691 -1.08979 0)
(0.00170361 -1.06958 0)
(8.22353e-05 -1.0382 0)
(-0.00248389 -1.00527 0)
(-0.00700362 -0.958872 0)
(-0.0130866 -0.908424 0)
(-0.0234463 -0.842524 0)
(-0.0365767 -0.769454 0)
(-0.0582219 -0.681849 0)
(-0.0887881 -0.58775 0)
(0.000178973 -1.16598 0)
(0.000808418 -1.16479 0)
(0.000928523 -1.16346 0)
(0.0011592 -1.16109 0)
(0.000822481 -1.15938 0)
(0.000626483 -1.15606 0)
(-6.58511e-05 -1.15388 0)
(-0.000561555 -1.14914 0)
(-0.00149374 -1.14576 0)
(-0.00223304 -1.13835 0)
(-0.00337369 -1.13223 0)
(-0.00440672 -1.11997 0)