/*--------------------------------*- C++ -*----------------------------------*\
| =========                 |                                                 |
| \\      /  F ield         | OpenFOAM: The Open Source CFD Toolbox           |
|  \\    /   O peration     | Version:  2012                                  |
|   \\  /    A nd           | Website:  www.openfoam.com                      |
|    \\/     M anipulation  |                                                 |
\*---------------------------------------------------------------------------*/
FoamFile
{
    version     2.0;
    format      ascii;
    class       volScalarField;
    location    "0.9";
    object      maxKappa;
}
// * * * * * * * * * * * * * * * * * * * * * * * * * * * * * * * * * * * * * //

dimensions      [0 0 0 0 0 0 0];


internalField   nonuniform List<scalar> 
2268
(
1.27688e-06
2.42332e-06
3.47603e-06
4.37518e-06
5.10631e-06
5.70108e-06
6.15687e-06
6.51983e-06
6.79359e-06
6.9292e-06
6.9292e-06
6.84648e-06
6.58485e-06
6.08557e-06
5.31535e-06
4.24839e-06
2.82599e-06
1.29068e-06
2.4514e-06
3.53255e-06
3.53255e-06
3.1677e-06
2.17321e-06
1.56318e-06
2.58695e-06
3.5964e-06
4.45235e-06
5.14212e-06
5.7147e-06
6.1729e-06
6.5444e-06
6.82106e-06
6.96434e-06
6.96434e-06
6.8911e-06
6.64956e-06
6.17112e-06
5.41413e-06
4.37266e-06
3.04165e-06
1.78318e-06
2.635e-06
3.63206e-06
3.63206e-06
3.47302e-06
2.71735e-06
2.00345e-06
2.84501e-06
3.74749e-06
4.57158e-06
5.27319e-06
5.85837e-06
6.30689e-06
6.65573e-06
6.89452e-06
7.02487e-06
7.02487e-06
6.98472e-06
6.77326e-06
6.31127e-06
5.60607e-06
4.65233e-06
3.5165e-06
2.62896e-06
3.47449e-06
4.41857e-06
4.41857e-06
4.07134e-06
3.08868e-06
2.4866e-06
3.19544e-06
4.01355e-06
4.74765e-06
5.37184e-06
5.90588e-06
6.3358e-06
6.69527e-06
6.96717e-06
7.15912e-06
7.15912e-06
7.15305e-06
6.97555e-06
6.57031e-06
5.93465e-06
5.08979e-06
4.13438e-06
3.42283e-06
4.07714e-06
5.04852e-06
5.20133e-06
5.20133e-06
4.75444e-06
3.08731e-06
3.67554e-06
4.36353e-06
5.03986e-06
5.65735e-06
6.18757e-06
6.57678e-06
6.87433e-06
7.10291e-06
7.28752e-06
7.33603e-06
7.33603e-06
7.21876e-06
6.8588e-06
6.32018e-06
5.60918e-06
4.87859e-06
4.64929e-06
5.59988e-06
6.623e-06
6.623e-06
6.44354e-06
5.83957e-06
3.66199e-06
4.14167e-06
4.75185e-06
5.31329e-06
5.83236e-06
6.27837e-06
6.61043e-06
6.91206e-06
7.22829e-06
7.53773e-06
7.62431e-06
7.62431e-06
7.54791e-06
7.29557e-06
6.8622e-06
6.29388e-06
5.77929e-06
5.759e-06
6.71532e-06
7.47146e-06
7.62094e-06
8.09934e-06
8.09934e-06
4.37716e-06
4.75612e-06
5.20101e-06
5.68002e-06
6.18349e-06
6.64066e-06
6.92267e-06
7.13379e-06
7.3989e-06
7.69513e-06
7.88229e-06
7.93731e-06
7.93731e-06
7.76652e-06
7.43398e-06
7.00723e-06
6.90859e-06
7.42466e-06
8.23275e-06
8.42794e-06
8.59138e-06
9.52355e-06
9.52355e-06
5.09753e-06
5.45454e-06
5.81638e-06
6.12907e-06
6.51726e-06
6.82848e-06
6.9579e-06
7.13353e-06
7.55267e-06
8.06002e-06
8.29423e-06
8.38813e-06
8.38813e-06
8.30129e-06
8.05965e-06
8.01591e-06
8.36053e-06
8.68252e-06
1.12665e-05
1.16891e-05
8.82379e-06
1.20056e-05
1.20056e-05
0.0001217
0.000385719
0.00159561
0.00213314
0.00213314
0.00202381
0.00118737
0.000389245
0.000153612
7.0065e-05
2.57542e-05
3.43113e-05
4.27839e-05
6.40574e-05
6.40574e-05
6.25551e-05
5.30629e-05
4.50715e-05
2.78158e-05
0.000145636
0.000724705
0.00162453
0.00210046
0.00220787
0.00220787
0.00176505
0.00109385
0.000390266
6.78809e-05
2.97501e-05
4.93746e-05
6.35771e-05
0.000119071
0.000128201
0.000149711
0.000149711
9.81494e-05
2.63278e-05
0.000158212
0.000643139
0.00132277
0.0014355
0.0014355
0.00120839
0.00120839
0.00118561
0.000383874
6.82462e-05
3.36716e-05
7.03624e-05
9.77401e-05
0.000136982
0.000258952
0.000258952
0.00023783
0.000175596
2.98855e-05
0.000156505
0.000398458
0.000447995
0.000447995
0.000361225
0.000363722
0.000621915
0.000621915
0.00011494
4.39308e-05
3.84856e-05
0.000118178
0.000185179
0.000185179
0.000188565
0.000316345
0.000316345
0.000130823
2.89938e-05
0.000222437
0.00044977
0.00044977
0.000325285
0.000167722
0.000103725
0.000299906
0.000299906
8.73551e-05
4.29833e-05
3.55974e-05
2.98154e-05
0.000191436
0.000209965
0.000209965
0.000200646
0.000200646
4.54504e-05
1.49842e-05
0.000453714
0.000453714
0.000407863
0.000289
0.000197533
0.000110236
0.00010476
0.00010476
5.5991e-05
4.2401e-05
5.86791e-05
0.000172724
0.000246135
0.0003229
0.0003229
0.000156235
3.36654e-05
1.59508e-05
9.48816e-06
0.000253914
0.000253914
0.000223993
0.000223057
0.000223057
0.000195729
0.000111844
3.80027e-05
4.2336e-05
6.74913e-05
0.000277687
0.000458795
0.000458795
0.000395199
0.000326035
0.000193822
3.763e-05
1.36559e-05
5.33221e-06
0.000104883
0.000104883
0.000210217
0.000311994
0.000373546
0.000373546
0.000171239
3.59694e-05
5.00982e-05
0.000153491
0.000496474
0.000633811
0.000733617
0.000733617
0.000566389
0.00027283
8.34468e-05
1.71103e-05
1.41241e-05
7.40015e-06
7.53615e-06
7.48585e-06
7.39466e-06
7.43893e-06
7.59897e-06
7.59386e-06
8.66079e-06
9.13099e-06
1.06705e-05
1.12338e-05
1.16771e-05
1.2503e-05
1.32928e-05
1.53351e-05
2.05541e-05
3.51562e-05
9.07082e-05
0.000151563
0.000150807
0.000100461
5.63236e-05
2.26641e-05
1.01537e-05
1.01968e-05
9.9567e-06
9.96986e-06
1.42761e-05
2.19085e-05
2.42125e-05
2.75076e-05
3.50915e-05
4.3968e-05
4.79153e-05
5.05333e-05
5.29131e-05
6.00749e-05
0.000103805
0.000162655
0.000199134
0.000286921
0.000293918
0.000293918
0.000239214
0.000119851
7.21976e-05
1.43782e-05
1.5237e-05
1.64156e-05
2.97238e-05
0.000167517
0.000317997
0.000292911
0.000205916
0.000107218
0.00019787
0.000184341
0.000145685
0.000160935
0.000192396
0.000317808
0.000384784
0.000386519
0.000271503
0.000288655
0.000272304
0.000239358
0.000119014
0.000100893
3.23179e-05
3.78863e-05
4.87136e-05
0.000208632
0.000613946
0.000669608
0.000624771
0.000654221
0.000633667
0.000508532
0.000299602
0.000207088
0.000243123
0.000286233
0.000295024
0.000474897
0.000548474
0.000370475
0.000349181
0.000296766
0.000215132
5.49875e-05
7.69234e-05
0.000225243
0.000153133
0.000215408
0.000647517
0.000874684
0.000947436
0.0011038
0.00131013
0.00143693
0.00111738
0.000808226
0.000513908
0.000353161
0.00056864
0.000608536
0.000580309
0.000720273
0.000579119
0.000512302
0.000362669
8.4528e-05
6.25099e-05
7.83116e-05
0.000591375
0.000406245
0.000860029
0.00131062
0.00114738
0.00125912
0.00167699
0.00176125
0.00176125
0.00159947
0.00137869
0.00121812
0.000815577
0.00111589
0.00121998
0.00095693
0.000944231
0.00089222
0.000703246
0.000497243
0.000142751
7.84771e-05
8.29625e-05
0.00091921
0.000872643
0.00159968
0.00166557
0.00157194
0.0015873
0.00169134
0.00172794
0.00152822
0.00141509
0.00139922
0.00146917
0.00128118
0.0013715
0.0013715
0.00125498
0.0011262
0.0011262
0.00097408
0.000828816
0.000467025
0.000104077
9.74884e-05
0.00116221
0.00152136
0.00196225
0.0017832
0.00143524
0.00123425
0.00152789
0.00157289
0.0015407
0.00146923
0.0013814
0.00146917
0.0013543
0.00128921
0.00117951
0.00105408
0.000980892
0.00104428
0.00105908
0.00105908
0.000872538
0.000363326
8.47103e-05
0.00127703
0.00153004
0.00199568
0.00192417
0.00141699
0.00101338
0.00107622
0.0011291
0.00126202
0.00127579
0.00140955
0.00140955
0.00137743
0.00130172
0.00110194
0.000879939
0.000865633
0.000885514
0.000971197
0.00104647
0.000940657
0.000587588
0.000345199
0.00144583
0.00170271
0.00211354
0.0019348
0.00142876
0.000890609
0.00080649
0.000726153
0.00089706
0.000976282
0.00113924
0.00111744
0.00115419
0.00111962
0.00102069
0.000978362
0.000900332
0.000877758
0.000866819
0.000935043
0.000789605
0.00070239
0.000686226
0.00157813
0.00188619
0.00228643
0.00199517
0.00141846
0.000790947
0.000636594
0.000513828
0.000617783
0.000621063
0.000754969
0.000782747
0.000798243
0.000735202
0.000857947
0.000897718
0.000889475
0.000883397
0.000824459
0.000826447
0.000854806
0.000854806
0.000828751
0.00178092
0.00213838
0.00251671
0.00207197
0.00140218
0.000734721
0.000526025
0.00042529
0.000480577
0.000433854
0.000506523
0.000507284
0.000515861
0.000427392
0.000558009
0.000693043
0.00080342
0.000822264
0.000779886
0.000683096
0.000701542
0.000741024
0.000696393
0.00187526
0.00235703
0.00267259
0.0021852
0.00136356
0.000664068
0.000428106
0.000346714
0.000402465
0.000350818
0.000388798
0.000362539
0.00039625
0.00040592
0.000434933
0.000474312
0.000591455
0.000660756
0.000683901
0.00056069
0.000588994
0.000674588
0.000679401
0.0020955
0.00252901
0.00267948
0.00216496
0.00126091
0.000567032
0.000340763
0.000336633
0.000353176
0.000322502
0.000309609
0.000294547
0.000345772
0.000337466
0.000398673
0.00043265
0.000477106
0.000518569
0.000560788
0.000522825
0.000591316
0.000670763
0.000679401
0.00244549
0.00263812
0.00267948
0.00209511
0.00112132
0.000453058
0.000298057
0.00033768
0.000324742
0.000290991
0.000268848
0.000263959
0.000293221
0.000323473
0.000353415
0.000377625
0.000432457
0.000458012
0.000504268
0.00050043
0.000544728
0.00060447
0.00067506
0.00277981
0.00279849
0.00267896
0.0020124
0.000963949
0.000369467
0.000318568
0.000339549
0.000314932
0.000277633
0.000252311
0.000242134
0.000267902
0.00028337
0.000327412
0.000365903
0.000401242
0.000434288
0.000470435
0.000502904
0.00055756
0.000615912
0.00064422
0.00303108
0.00293263
0.00274403
0.00193272
0.000808627
0.000301092
0.000323006
0.000339549
0.000290004
0.000253417
0.000218521
0.000222416
0.000238746
0.0002661
0.000296585
0.000328894
0.000372407
0.000407393
0.000446116
0.000470125
0.0005112
0.000555367
0.000605566
0.00324904
0.00308014
0.00277032
0.00184489
0.000638495
0.000373961
0.000337643
0.000329361
0.000270681
0.000224694
0.000193154
0.000197456
0.000214211
0.000245583
0.000284278
0.000323304
0.00036
0.000397087
0.000434763
0.000469418
0.00050407
0.00053297
0.000555339
0.00339556
0.00318566
0.00272669
0.00173929
0.000581892
0.000455956
0.000374453
0.000316778
0.000231331
0.000186151
0.000147021
0.000165528
0.000191965
0.000231274
0.000271875
0.00031352
0.000354078
0.000391154
0.000425584
0.000456001
0.000485921
0.000513122
0.000539874
0.00349063
0.00327873
0.00272639
0.00162886
0.000675983
0.000537545
0.00043108
0.000318675
0.000208078
0.000134831
9.28086e-05
0.000125436
0.000169079
0.00021552
0.000260544
0.00030345
0.000344859
0.000383181
0.000418876
0.000450858
0.00048116
0.000508191
0.000531574
0.00362268
0.00343968
0.00264265
0.00156922
0.000823475
0.000617631
0.000477854
0.000323796
0.000200532
0.000102109
5.60583e-05
0.000113232
0.000169295
0.00021984
0.000268554
0.000313127
0.000354389
0.000390891
0.000425087
0.000456693
0.000495636
0.000531668
0.000566708
0.00362268
0.00323688
0.00239635
0.00152616
0.000968592
0.000722077
0.000515107
0.000349019
0.000228574
0.000136063
0.000123515
0.000132226
0.000186675
0.000231354
0.000278679
0.000322313
0.00036473
0.000405225
0.000447212
0.000490315
0.000541222
0.000584861
0.00062276
0.00336632
0.00278322
0.00208015
0.00148058
0.00104194
0.000774459
0.000558542
0.000402641
0.000286595
0.000210807
0.000202456
0.000197731
0.000236768
0.000264615
0.000310478
0.000349305
0.000393105
0.000436008
0.000491662
0.000544876
0.00059793
0.000636527
0.000666333
0.00276621
0.00222548
0.00182483
0.00140467
0.00103886
0.000789662
0.000597655
0.000460842
0.000361023
0.000294928
0.00028242
0.000271016
0.0002967
0.000315749
0.000356528
0.00039009
0.000440946
0.000492303
0.00055621
0.00060855
0.000648566
0.000669042
0.000692593
0.00214619
0.00187076
0.00159421
0.00128904
0.0010154
0.000808805
0.000645653
0.000522804
0.0004373
0.000378589
0.000361968
0.000347587
0.00036369
0.000377525
0.000413868
0.000449675
0.00050699
0.000565388
0.000622632
0.000654754
0.000670918
0.000685377
0.0007042
0.00168709
0.00160658
0.00137717
0.00117258
0.000981595
0.000818777
0.000688374
0.00058462
0.000511137
0.000459788
0.000440182
0.000424669
0.000434778
0.000447029
0.000482899
0.000524829
0.000586343
0.00063722
0.000669217
0.000671055
0.000677316
0.000690234
0.000704363
0.0014216
0.00139743
0.00124251
0.00110173
0.000965847
0.00083959
0.000732157
0.000641822
0.000582385
0.000537705
0.000516985
0.000502247
0.000509275
0.000523327
0.000562251
0.000609921
0.000663166
0.000686995
0.000682852
0.000674902
0.000680494
0.000690883
0.000704363
0.00127142
0.00125969
0.00115338
0.00105605
0.000956804
0.000860345
0.000775094
0.000701235
0.000650436
0.000612483
0.000592413
0.00057999
0.000587805
0.000607002
0.000650881
0.000694695
0.000720835
0.000703533
0.000686313
0.000674762
0.000679398
0.000684333
0.00069073
0.00118687
0.00117238
0.00110536
0.00103607
0.000961568
0.000885291
0.000814903
0.000756901
0.000717028
0.000684783
0.000666977
0.000658811
0.000670156
0.000697049
0.000739819
0.00076109
0.000741903
0.000720504
0.000691663
0.000677283
0.00067363
0.000668351
0.000657178
0.00113884
0.0011227
0.00107855
0.00102842
0.000972904
0.000914941
0.000860204
0.000814932
0.000781795
0.000755442
0.000741633
0.000739572
0.000757213
0.000788144
0.000814424
0.000792103
0.000757217
0.000714404
0.000685419
0.000667943
0.000656482
0.000635056
0.000609338
0.00111492
0.00109905
0.00107307
0.00103506
0.000991017
0.00094499
0.000906377
0.000872425
0.000845465
0.000824898
0.000817064
0.000821518
0.00084455
0.000869319
0.000858182
0.000819624
0.000766278
0.000718524
0.00068197
0.000647488
0.00061991
0.000586385
0.000552511
0.00111104
0.00109999
0.00107893
0.00105092
0.00101815
0.000986377
0.000956174
0.000929362
0.000908443
0.000894519
0.000893356
0.000905183
0.00092892
0.000927572
0.000882146
0.000824302
0.000757188
0.000704166
0.000656268
0.000614077
0.000574766
0.000536654
0.000500834
0.00112473
0.00111794
0.00110146
0.00108058
0.00105594
0.00103143
0.00100766
0.000986945
0.000972016
0.000964982
0.000970649
0.000987339
0.000997771
0.000956603
0.000904714
0.000824075
0.000752244
0.000687429
0.000625937
0.000569451
0.000525859
0.00048633
0.000453028
0.00114698
0.00114286
0.00113118
0.00111553
0.0010971
0.00107866
0.00106086
0.00104612
0.00103756
0.00103728
0.00104927
0.00106201
0.00103806
0.000983972
0.000898599
0.000807837
0.000726705
0.00065037
0.000581991
0.000523443
0.000478266
0.000440936
0.000412641
0.00117891
0.00117621
0.00116806
0.00115667
0.00114323
0.00112974
0.00111699
0.00110771
0.00110459
0.00110944
0.0011221
0.00111629
0.00106982
0.00099439
0.000890807
0.000793588
0.00070112
0.000614604
0.000537969
0.00047352
0.000429348
0.000397799
0.000377949
0.0012153
0.00121374
0.00120852
0.00120086
0.00119191
0.00118328
0.00117563
0.00117197
0.00117363
0.00118138
0.00118732
0.00114485
0.0010863
0.000980554
0.000866215
0.000758416
0.000656326
0.000565445
0.000489352
0.000429706
0.000387169
0.000362748
0.000354481
0.00126247
0.00126117
0.00125701
0.00125194
0.00124663
0.00124176
0.0012381
0.00123852
0.00124168
0.00124659
0.00123082
0.00118139
0.00108886
0.000965723
0.000844392
0.000728577
0.000620373
0.000524226
0.000442674
0.000379919
0.000348814
0.000334649
0.00033946
0.00130949
0.00130873
0.00130643
0.00130428
0.00130241
0.0013015
0.00130219
0.00130618
0.00130921
0.00130559
0.00125725
0.0011879
0.00106704
0.000931827
0.000802199
0.000679324
0.000568036
0.000472948
0.00039842
0.000347291
0.000320232
0.000331352
0.000340061
0.00137022
0.00136989
0.00136856
0.00136717
0.0013672
0.00136845
0.00137107
0.00137357
0.0013707
0.00134447
0.00129409
0.00119048
0.00104963
0.000907833
0.000772615
0.000645707
0.000531393
0.000432328
0.000352922
0.000307022
0.000299005
0.00031707
0.00035102
0.00142534
0.00142559
0.00142526
0.00142605
0.00142916
0.0014329
0.00143735
0.00143874
0.00142773
0.00137454
0.00129334
0.0011584
0.00100625
0.000859555
0.000720541
0.000591735
0.000478234
0.000385628
0.000321328
0.00028887
0.000308964
0.000343855
0.000364821
0.00150089
0.00150164
0.00150258
0.00150504
0.00150837
0.00151145
0.00151248
0.00150469
0.0014666
0.00141295
0.00130188
0.00114901
0.000990445
0.00083782
0.000692804
0.000560101
0.000443956
0.000349063
0.000284556
0.000268656
0.000296274
0.000338221
0.000382453
0.00156649
0.00156661
0.00156713
0.00156779
0.00156779
0.00156752
0.00156401
0.00155065
0.00150775
0.00141084
0.00126224
0.00109315
0.000929282
0.000774914
0.000632477
0.000505794
0.000399187
0.000318871
0.000273166
0.000286835
0.000326862
0.000374135
0.000382453
2.16728e-05
2.47617e-05
8.96291e-05
7.10367e-05
0.000100298
7.66198e-05
8.96291e-05
9.29687e-05
0.000142247
9.11436e-05
9.09593e-05
0.000112616
0.000142247
0.000102192
0.00011561
0.000148936
9.92942e-05
0.000155455
0.000200164
0.000425926
0.000129891
0.000538538
0.000811126
0.00098045
0.000226764
0.000723103
0.000953761
0.000998044
0.000151451
0.000723103
0.000953761
0.000998044
0.000293561
0.000427857
0.00070928
0.000825976
0.000489888
0.000600742
0.000613989
0.000711451
0.000574719
0.000612286
0.000613989
0.000589625
0.000574719
0.000612286
0.000561912
0.000452351
0.000639531
0.000512435
0.000457974
0.000385671
0.00071718
0.000708407
0.000652931
0.000620199
0.00071718
0.000716838
0.000737734
0.00075617
0.000696307
0.000716838
0.000737734
0.00075617
0.000648244
0.00067127
0.000695589
0.000717465
0.000580438
0.000595236
0.000608941
0.000624601
0.000556543
0.000565827
0.000570866
0.000575624
0.000547281
0.000556799
0.000562958
0.000569105
0.00058569
0.000597266
0.000606615
0.000615995
0.000642212
0.000655845
0.000667162
0.00068006
0.000684772
0.000699438
0.000711716
0.000726426
0.000710691
0.000724519
0.000736108
0.000749273
0.000719638
0.000729934
0.000737637
0.000749273
0.000719638
0.000729934
0.000737637
0.000745886
0.0007115
0.000715548
0.000715838
0.000716192
0.000685243
0.000681187
0.000672632
0.000663827
0.000639129
0.000627097
0.000611822
0.000596711
0.000583126
0.000567488
0.000549534
0.000533281
0.000524979
0.000508686
0.000491951
0.000476696
0.000475173
0.000460303
0.000446223
0.000433932
0.000430808
0.000419402
0.000409191
0.000401772
0.000396717
0.000389607
0.000384665
0.000382315
0.000370374
0.000368889
0.00036975
0.000375036
0.000355495
0.000359964
0.00037056
0.000383956
0.000353589
0.000367838
0.000382357
0.000399149
0.000363589
0.000381237
0.000398178
0.000417362
0.000379018
0.000399044
0.000417928
0.000438675
0.000396081
0.000417523
0.00043774
0.000459345
0.000416539
0.000439089
0.000460528
0.000482839
0.000416539
0.000439089
0.000460528
0.000482839
0.000127424
0.000177702
0.000419266
0.000419266
0.000411662
0.000232824
0.000113984
3.99568e-05
7.64548e-05
0.000399322
0.000706505
0.000762383
0.000762383
0.0006066
0.000556932
0.000483583
0.000199879
5.71443e-05
9.06359e-05
0.000135281
0.00027542
0.000230878
0.000287146
0.000258547
0.000166146
0.00010066
6.15151e-05
0.000325674
0.000723368
0.000832413
0.000832413
0.000765622
0.000423816
0.00025899
0.000188393
0.000128263
0.000182034
0.000227678
0.000209991
0.000526323
0.000455705
0.000297935
0.000118311
8.19553e-05
6.23007e-05
0.00023594
0.000668674
0.000862093
0.000862093
0.000754754
0.000608667
0.000484324
0.0003829
0.000267562
0.000280508
0.000405274
0.000335416
0.000492789
0.000599474
0.000536141
0.000137593
9.87776e-05
5.82455e-05
4.06669e-05
0.000165451
0.00036894
0.000571092
0.000699361
0.000688629
0.000625842
0.000484106
0.000488499
0.000510803
0.000498378
0.000502172
0.000566148
0.000807248
0.000688658
0.000408882
0.00042354
0.000602886
0.000317556
9.92003e-05
5.48509e-05
0.000154093
0.000421173
0.000606828
0.000558246
0.000645069
0.000692719
0.000720946
0.000736035
0.000757639
0.00068743
0.000800849
0.00102555
0.000937283
0.000685054
0.000870763
0.000896988
0.000822696
0.000423753
0.000189211
0.0003313
0.000522338
0.000653354
0.000665298
0.000665298
0.000545461
0.000481928
0.000791536
0.000797689
0.000845631
0.000953234
0.00102555
0.000908707
0.00080109
0.000880411
0.000963971
0.000963971
0.00065897
0.000395332
0.000354987
0.000342848
0.000325562
0.000393926
0.000510224
0.000679875
0.000679875
0.00041183
0.000598198
0.000960003
0.00105068
0.00096245
0.000775472
0.000560524
0.000721425
0.00100739
0.00100739
0.000956946
0.000586929
0.000338571
0.000451427
0.000451427
0.000398822
0.000410461
0.000471041
0.000523436
0.000348152
0.000488207
0.000962219
0.00105068
0.000812904
0.000651307
0.000572552
0.000588173
0.000922391
0.000945831
0.000945831
0.000626414
0.00032518
0.000432208
0.000606146
0.000580746
0.000481644
0.000480169
0.000722455
0.000593626
0.000543745
0.000876155
0.00100227
0.000697131
0.000627758
0.000561689
0.000625088
0.000789411
0.000858127
0.000803129
0.000847311
0.000866279
0.000818782
0.000897474
0.000922826
0.000893808
0.000764999
0.000748328
0.000460264
0.000577634
0.000794969
0.000879888
0.000763105
0.000782374
0.000782374
0.000639548
0.000499513
0.000693201
0.00103075
0.00130011
0.00133602
0.00133602
0.00123845
0.00116203
0.00113529
0.000924659
0.000599106
0.000469233
0.000586362
0.000757602
0.000807625
0.000412537
0.000491728
0.000584737
0.000513374
0.000379014
0.000537916
0.00107489
0.00121046
0.00121046
0.00119426
0.001051
0.000957171
0.000889605
0.000729229
0.000453318
0.000548429
0.000609845
0.000730391
0.000756314
0.000353802
0.000333424
0.000438108
0.000285924
0.000524917
0.000989347
0.00110552
0.00110552
0.00099898
0.000848903
0.000777804
0.000706175
0.00066265
0.000588159
0.000499523
0.000578364
0.000606432
0.000695859
0.00070453
0.00058694
0.000469951
0.000474445
0.000458187
0.000919951
0.00115381
0.00115381
0.00096193
0.000712318
0.000647129
0.000663846
0.000663846
0.000646828
0.000604281
0.000585211
0.000615263
0.000615263
0.00065576
0.00065576
0.000805745
0.000776522
0.000739816
0.000794721
0.000951268
0.000986702
0.000976733
0.000648382
0.000577046
0.000713135
0.000713135
0.000705234
0.000682858
0.000653036
0.000614479
0.000607596
0.000598032
0.000590899
0.000590943
0.000957723
0.000986275
0.000986275
0.000929705
0.000882397
0.000835136
0.000689726
0.00037881
0.00072435
0.00083465
0.00083465
0.000817742
0.000777062
0.000724016
0.000665997
0.000627383
0.000583015
0.000515696
0.000523696
0.000838045
0.000925056
0.000925056
0.000910799
0.000737526
0.000588616
0.000348551
0.000612024
0.000815117
0.000871203
0.000871203
0.00084085
0.000791402
0.000730718
0.000659656
0.000596829
0.000517774
0.000436279
0.000454421
0.000647727
0.000691687
0.000700565
0.000652234
0.000460736
0.000292551
0.000413095
0.000670695
0.000827615
0.00088066
0.00088066
0.000858662
0.00081272
0.000744332
0.000656314
0.000560708
0.000457366
0.000369727
0.000384903
0.000608293
0.000608293
0.000562685
0.0004758
0.000357956
0.000290333
0.0004284
0.000637918
0.000767205
0.000818018
0.000818018
0.000812789
0.000773462
0.00070134
0.000601344
0.00049072
0.000383258
0.000295993
0.000313665
0.000601823
0.000601823
0.000566557
0.00051394
0.000459364
0.000469248
0.000512824
0.000659219
0.000771876
0.000836577
0.000836577
0.00083487
0.000778933
0.000681649
0.000562953
0.000442757
0.000333355
0.000243455
0.000244311
0.000652771
0.000652771
0.000646619
0.000635452
0.000610651
0.000626177
0.000664492
0.000764128
0.000851842
0.000899985
0.000899985
0.000878761
0.00080017
0.000685354
0.000545324
0.00040582
0.000290113
0.000195741
0.000176717
0.000743635
0.000759716
0.000769209
0.000769209
0.000759476
0.000774129
0.000819327
0.000899246
0.000977952
0.00102584
0.00102584
0.000996291
0.000891326
0.000738685
0.000558334
0.000381813
0.000252245
0.000161781
0.000109235
0.000821369
0.000845029
0.000854329
0.000854329
0.000853385
0.000884332
0.000938385
0.00101697
0.00109556
0.00114321
0.00114321
0.00111322
0.000988737
0.000798531
0.000581878
0.000368363
0.000219477
0.000142551
7.64708e-05
0.000856025
0.000872627
0.000878203
0.000881377
0.000907656
0.00095555
0.00102385
0.00111347
0.00120274
0.00126454
0.00126454
0.00125322
0.00112767
0.000903374
0.000642001
0.00038084
0.000207157
0.000148955
0.00010232
0.000856242
0.000859758
0.000863655
0.000886409
0.000930741
0.000993329
0.00107676
0.00118028
0.00128413
0.00136358
0.00137474
0.00137474
0.00125645
0.00100827
0.000706964
0.000401172
0.000208806
0.00018905
0.000152445
0.000812172
0.000812172
0.00081614
0.00085772
0.000921115
0.0010038
0.00110581
0.00122603
0.00134738
0.00144879
0.00148582
0.00148582
0.00138892
0.00114021
0.000805029
0.000445829
0.000224977
0.000233878
0.000208998
0.000737501
0.000737501
0.000735071
0.000791013
0.000870122
0.000972519
0.00109793
0.00124128
0.00138641
0.00151121
0.00157339
0.00157339
0.001504
0.00126508
0.000901045
0.000493268
0.000244754
0.000282353
0.000268001
0.000650285
0.000650285
0.00065986
0.000730391
0.000825069
0.000938894
0.00107606
0.00123485
0.00140287
0.00155595
0.00164391
0.00164391
0.00160661
0.00139278
0.00101767
0.000565042
0.000283047
0.000337728
0.000331297
0.000571702
0.000571702
0.000592721
0.00067635
0.000788335
0.00091323
0.00105526
0.00121835
0.0013987
0.00157886
0.00169683
0.00169683
0.00169002
0.001507
0.00113192
0.000641171
0.000330234
0.000404295
0.000404295
0.000515016
0.000515016
0.000547173
0.000638994
0.000765596
0.000903049
0.00104892
0.00121186
0.00139265
0.0015896
0.00173731
0.00175896
0.00175896
0.00160896
0.00125155
0.000733196
0.000381452
0.000484489
0.000488468
0.000464968
0.000464968
0.000506434
0.000599353
0.000735959
0.000887617
0.00103988
0.00120406
0.00138255
0.0015878
0.00176297
0.00181254
0.00181254
0.00169501
0.00136393
0.000831927
0.000436817
0.000576243
0.000584491
0.000447588
0.000457436
0.000502436
0.0005895
0.000725905
0.000885581
0.00104322
0.00121003
0.00138489
0.00159009
0.00178581
0.00185928
0.00185928
0.00176869
0.00146736
0.000928041
0.000495864
0.000677248
0.000691239
0.000427809
0.0004503
0.000500357
0.000581057
0.000713003
0.000877044
0.00103951
0.00121064
0.00138477
0.00158729
0.00180019
0.00189623
0.00189623
0.00182938
0.00155731
0.00101967
0.00055527
0.0007887
0.000810288
0.000439657
0.000471334
0.000524676
0.000601677
0.000726482
0.000888085
0.00105076
0.00122408
0.00139862
0.00159598
0.00181873
0.00193379
0.00193379
0.00188559
0.0016413
0.00110833
0.000623797
0.000912367
0.000940338
0.000439624
0.000480973
0.000537919
0.000612477
0.000731807
0.000891435
0.00105485
0.0012301
0.0014072
0.00160031
0.00182977
0.00196172
0.00196172
0.00193247
0.00171634
0.00119794
0.000688549
0.00104312
0.00108273
0.00046911
0.000514579
0.000571683
0.000643976
0.000758615
0.000914728
0.0010767
0.00125066
0.00142892
0.00161933
0.00185058
0.00199406
0.00199406
0.00197945
0.00178645
0.00127536
0.000767836
0.00119003
0.00123338
0.000479795
0.000531707
0.000590683
0.000661503
0.000771946
0.000925639
0.00108813
0.00126137
0.00144155
0.00163126
0.0018643
0.00201879
0.00201879
0.00201839
0.00184856
0.00135122
0.000835489
0.00133381
0.00139434
0.000516506
0.000569743
0.0006287
0.000698102
0.000804871
0.000955252
0.00111726
0.00128872
0.00146853
0.00165759
0.0018904
0.00205077
0.00205862
0.00205862
0.00190542
0.00141504
0.000923602
0.00149999
0.00155477
0.00052922
0.00058592
0.000646842
0.000716855
0.000821029
0.000968878
0.00113199
0.00130275
0.00148318
0.00167306
0.00190642
0.00207446
0.00209115
0.00209115
0.00195664
0.00147692
0.000987924
0.00164246
0.00172031
0.000570671
0.000627234
0.000687541
0.000756454
0.000858714
0.00100399
0.00116584
0.00133495
0.00151393
0.00170296
0.00193495
0.00210546
0.00212525
0.00212525
0.00200166
0.00151946
0.00108393
0.00181943
0.00186712
0.000579082
0.000637629
0.000699485
0.000769433
0.000871706
0.00101577
0.00117822
0.00134717
0.0015261
0.00171575
0.00194743
0.00212193
0.00214609
0.00214609
0.0020364
0.00157149
0.00113699
0.00192994
0.00202002
0.000627106
0.000685906
0.000747901
0.000816958
0.000918092
0.00105978
0.00121976
0.00138671
0.00156365
0.00175208
0.00198174
0.00215633
0.00217992
0.00217992
0.00207381
0.00160281
0.00123327
0.00212809
0.00212809
)
;

boundaryField
{
    leftWall
    {
        type            calculated;
        value           uniform 0;
    }
    rightWall
    {
        type            calculated;
        value           uniform 0;
    }
    lowerWall
    {
        type            calculated;
        value           uniform 0;
    }
    atmosphere
    {
        type            calculated;
        value           uniform 0;
    }
    defaultFaces
    {
        type            empty;
    }
}


// ************************************************************************* //
