/*--------------------------------*- C++ -*----------------------------------*\
| =========                 |                                                 |
| \\      /  F ield         | OpenFOAM: The Open Source CFD Toolbox           |
|  \\    /   O peration     | Version:  2012                                  |
|   \\  /    A nd           | Website:  www.openfoam.com                      |
|    \\/     M anipulation  |                                                 |
\*---------------------------------------------------------------------------*/
FoamFile
{
    version     2.0;
    format      ascii;
    class       volScalarField;
    location    "0.9";
    object      minKappa;
}
// * * * * * * * * * * * * * * * * * * * * * * * * * * * * * * * * * * * * * //

dimensions      [0 0 0 0 0 0 0];


internalField   nonuniform List<scalar> 
2268
(
4.14046e-07
9.28159e-07
1.43974e-06
1.90281e-06
2.26929e-06
2.57442e-06
2.82107e-06
3.00646e-06
3.16826e-06
3.26665e-06
3.30009e-06
3.19293e-06
3.06223e-06
2.73077e-06
2.34031e-06
1.7342e-06
1.0389e-06
4.1379e-07
8.84868e-07
1.51901e-06
1.86711e-06
1.2714e-06
1.04121e-06
4.14046e-07
9.28159e-07
1.43974e-06
1.90281e-06
2.26929e-06
2.57442e-06
2.82107e-06
3.00646e-06
3.16826e-06
3.26665e-06
3.30009e-06
3.19293e-06
3.06223e-06
2.73077e-06
2.34031e-06
1.7342e-06
1.0389e-06
4.1379e-07
8.84868e-07
1.51901e-06
1.86711e-06
1.2714e-06
1.04121e-06
6.34726e-07
1.05084e-06
1.51632e-06
1.9545e-06
2.31041e-06
2.61216e-06
2.85767e-06
3.04076e-06
3.19817e-06
3.28441e-06
3.32754e-06
3.23082e-06
3.11338e-06
2.78628e-06
2.42218e-06
1.8432e-06
1.2562e-06
8.28925e-07
1.15899e-06
1.72838e-06
2.0765e-06
1.48911e-06
1.25843e-06
8.98962e-07
1.22299e-06
1.63173e-06
2.03622e-06
2.36822e-06
2.6629e-06
2.89726e-06
3.07814e-06
3.2321e-06
3.31955e-06
3.38447e-06
3.2977e-06
3.20057e-06
2.88774e-06
2.56671e-06
2.03756e-06
1.57823e-06
1.28174e-06
1.51493e-06
2.05398e-06
2.42037e-06
1.96205e-06
1.74987e-06
1.1862e-06
1.44795e-06
1.79925e-06
2.15982e-06
2.46592e-06
2.74675e-06
2.96899e-06
3.13396e-06
3.27959e-06
3.37055e-06
3.45762e-06
3.3906e-06
3.31824e-06
3.02884e-06
2.76309e-06
2.29337e-06
1.9661e-06
1.77995e-06
1.9893e-06
2.58405e-06
2.93221e-06
2.57144e-06
2.44221e-06
1.49255e-06
1.69704e-06
1.99732e-06
2.31065e-06
2.5824e-06
2.8479e-06
3.04389e-06
3.18886e-06
3.32715e-06
3.44642e-06
3.56072e-06
3.51026e-06
3.46911e-06
3.22076e-06
3.00955e-06
2.61595e-06
2.42084e-06
2.33959e-06
2.579e-06
3.24112e-06
3.42033e-06
3.22686e-06
3.36277e-06
1.81694e-06
1.98217e-06
2.22283e-06
2.48092e-06
2.71467e-06
2.9643e-06
3.14162e-06
3.25459e-06
3.38402e-06
3.52942e-06
3.67039e-06
3.65881e-06
3.6602e-06
3.4587e-06
3.29801e-06
2.9882e-06
2.92688e-06
2.96975e-06
3.26045e-06
3.80245e-06
3.70777e-06
3.9526e-06
4.37569e-06
2.16325e-06
2.31424e-06
2.51119e-06
2.69564e-06
2.88548e-06
3.11717e-06
3.24875e-06
3.3117e-06
3.43159e-06
3.63518e-06
3.81151e-06
3.83436e-06
3.88181e-06
3.71245e-06
3.61021e-06
3.4315e-06
3.54052e-06
3.67463e-06
3.92868e-06
4.14726e-06
3.73133e-06
4.39523e-06
5.77861e-06
3.14097e-05
8.79004e-05
0.000385719
0.000833237
0.000976464
0.000819703
0.000370036
0.000135557
4.65496e-05
1.42029e-05
4.87658e-06
1.53909e-05
1.80481e-05
2.69326e-05
2.44065e-05
2.82572e-05
2.63001e-05
1.68769e-05
6.44718e-06
3.14097e-05
8.79004e-05
0.000519541
0.000698722
0.000814686
0.000636222
0.000370036
0.000135557
4.65496e-05
1.42029e-05
4.87658e-06
1.53909e-05
1.80481e-05
2.69326e-05
2.44065e-05
2.82572e-05
2.63001e-05
1.68769e-05
6.44718e-06
4.02685e-05
0.000128518
0.000389451
0.000367179
0.000361225
0.000222379
0.000453808
0.000320055
2.82986e-05
1.55724e-05
9.46959e-06
1.80767e-05
2.98954e-05
3.99681e-05
7.58972e-05
7.53023e-05
8.03146e-05
2.98855e-05
7.2666e-06
5.13151e-05
0.000128518
0.000198007
0.000131725
5.65766e-05
4.51717e-05
0.000166059
0.00011494
2.02541e-05
1.6709e-05
1.30741e-05
1.2602e-05
5.5609e-05
5.14119e-05
6.62201e-05
0.000135427
7.24329e-05
1.47258e-05
5.40301e-06
6.30437e-05
0.000139419
0.000138441
0.000112351
4.32173e-05
3.84113e-05
4.78544e-05
8.73551e-05
1.93686e-05
1.6709e-05
1.32785e-05
1.2602e-05
2.98154e-05
9.34456e-05
6.62201e-05
4.7316e-05
1.68583e-05
6.88904e-06
3.52083e-06
0.00011538
0.000160715
8.42903e-05
0.000112351
4.32173e-05
3.84113e-05
2.1726e-05
2.35085e-05
1.83686e-05
1.69416e-05
1.48085e-05
2.12402e-05
4.78337e-05
0.000132345
9.04402e-05
3.26695e-05
7.60176e-06
4.22033e-06
1.98654e-06
6.59635e-05
4.94811e-05
8.21258e-05
0.000102907
5.68537e-05
6.04688e-05
2.1726e-05
1.42745e-05
1.79064e-05
1.76671e-05
2.90286e-05
0.000114708
0.000136719
0.000132345
0.000143044
3.26695e-05
7.60176e-06
4.22033e-06
1.98654e-06
6.59635e-05
4.94811e-05
8.21258e-05
0.000102907
0.000124397
0.000117231
2.38696e-05
1.42745e-05
1.79064e-05
2.18229e-05
0.000128264
0.00020401
0.000261167
0.00021975
0.000160311
5.27719e-05
8.41909e-06
5.31339e-06
2.00271e-06
4.02498e-06
4.213e-06
4.38903e-06
4.5911e-06
4.84138e-06
5.17005e-06
5.28371e-06
5.24087e-06
5.39031e-06
5.77136e-06
6.12458e-06
6.25331e-06
6.42558e-06
6.27058e-06
6.30597e-06
6.22832e-06
6.87227e-06
8.32234e-06
1.12665e-05
1.16891e-05
6.94128e-06
1.15847e-05
1.11937e-05
7.40015e-06
7.53615e-06
7.48585e-06
7.39466e-06
7.43893e-06
7.51718e-06
7.51718e-06
8.66079e-06
9.13099e-06
1.06705e-05
1.12338e-05
1.16771e-05
1.2503e-05
1.32928e-05
1.53351e-05
2.05541e-05
3.51562e-05
9.07082e-05
0.000151563
0.000150807
0.000100461
3.29756e-05
1.99373e-05
1.01537e-05
1.01968e-05
9.9567e-06
9.96986e-06
1.42761e-05
2.19085e-05
2.42125e-05
2.75076e-05
3.50915e-05
4.3968e-05
4.79153e-05
5.05333e-05
5.29131e-05
6.00749e-05
0.000103805
0.000162655
0.00019309
0.000243329
0.000245331
0.000239358
0.000119014
2.9341e-05
7.21976e-05
1.43782e-05
1.5237e-05
1.64156e-05
2.97238e-05
0.000167517
0.000317997
0.000292911
0.000205916
0.000107218
0.00019787
0.000184341
0.000145685
0.000160935
0.000174962
0.00014528
0.000295024
0.000370475
0.00023058
0.00023058
0.000215132
5.49875e-05
2.9341e-05
4.05601e-05
3.23179e-05
3.78863e-05
4.87136e-05
0.000153039
0.000552878
0.000669608
0.000624771
0.000654221
0.000633667
0.000508532
0.000234871
0.000162496
0.000202875
0.000238783
0.00014528
0.000215539
0.000442031
0.00031613
0.000349181
8.4528e-05
5.16019e-05
3.82157e-05
5.75625e-05
0.000225243
0.000153133
0.000215408
0.000647517
0.000874684
0.000947436
0.0011038
0.00131013
0.00143693
0.00111738
0.000808226
0.000513908
0.000353161
0.00056864
0.000608536
0.000580309
0.000720273
0.000579119
0.000497243
0.000142751
6.1966e-05
6.25099e-05
7.07203e-05
0.000591375
0.000406245
0.000840657
0.00131062
0.00114738
0.00121347
0.00152789
0.00147909
0.00139036
0.00135945
0.00128365
0.00121812
0.000815577
0.00111589
0.00117951
0.000927212
0.000944231
0.00089222
0.000703246
0.000407944
0.000104077
7.2444e-05
6.98895e-05
0.00091921
0.000872643
0.00152136
0.00143524
0.00108106
0.00101338
0.00107622
0.0011291
0.00126202
0.00127579
0.00136903
0.0013543
0.00124743
0.000997717
0.000950645
0.000879939
0.000865633
0.000885514
0.000954926
0.000828816
0.000363326
8.47103e-05
5.92767e-05
0.00114933
0.00110494
0.00153004
0.00141699
0.000975098
0.000846577
0.00080649
0.000726153
0.00089706
0.000976282
0.00113924
0.00111744
0.00115419
0.00110194
0.0008628
0.000841751
0.000836752
0.00082844
0.00082844
0.000935043
0.000587588
0.000280891
7.32038e-05
0.00127703
0.00124455
0.00170271
0.00142876
0.000890609
0.000653902
0.00063542
0.000513828
0.000617783
0.000621063
0.000754969
0.000782747
0.000798243
0.000735202
0.000857947
0.00087363
0.00084959
0.000846287
0.0007701
0.000767519
0.000623036
0.000515958
0.000307924
0.00144583
0.00148029
0.00188619
0.00141846
0.000790947
0.000490045
0.000506866
0.000412363
0.000480577
0.000433854
0.000506523
0.000507284
0.000515861
0.000427392
0.000558009
0.000693043
0.00080342
0.000822264
0.000744213
0.000657197
0.000701542
0.00070239
0.000496281
0.00157813
0.00174011
0.00207197
0.00140218
0.000734721
0.00037401
0.00042529
0.000346714
0.000402465
0.000350818
0.000388798
0.000362539
0.000354795
0.000346832
0.000348487
0.000446426
0.000591455
0.000660756
0.000683096
0.00056069
0.000582963
0.000661685
0.000445171
0.0017577
0.00187526
0.0021852
0.00136356
0.000664068
0.00028319
0.000340763
0.000327433
0.00033269
0.000305328
0.000309609
0.000294547
0.000345772
0.000337466
0.000398673
0.000417881
0.000456389
0.000511873
0.000553846
0.00050892
0.000535158
0.000588994
0.000416987
0.0017577
0.0020955
0.00216496
0.00126091
0.000567032
0.000216189
0.000276102
0.000319734
0.000322502
0.000290991
0.000268848
0.000257856
0.000282902
0.000295553
0.000326621
0.000377625
0.000432457
0.000458012
0.000504268
0.000491064
0.000522825
0.000591316
0.000538198
0.00203935
0.00241029
0.00209511
0.00112132
0.000453058
0.000194343
0.000226193
0.000298057
0.000290281
0.000261512
0.000242809
0.000240743
0.000263959
0.000282479
0.000323473
0.000349627
0.000373275
0.000408745
0.000452311
0.00047995
0.00050043
0.000544728
0.000491945
0.00244549
0.00263812
0.0020124
0.000963949
0.000369467
0.000194343
0.000247484
0.000314932
0.000268046
0.000252311
0.000218521
0.000222416
0.000238746
0.000254435
0.00028337
0.00032423
0.000365903
0.000400403
0.000434288
0.0004661
0.000502904
0.000555367
0.00050237
0.00277981
0.00274403
0.00193272
0.000808627
0.000241359
0.0002284
0.000281898
0.000290004
0.00023377
0.000217369
0.000187828
0.000197456
0.000214211
0.000237588
0.0002661
0.000295233
0.000328894
0.000367304
0.000407393
0.000442343
0.000470125
0.000502509
0.000426018
0.00303108
0.00277032
0.00184489
0.000638495
0.000140122
0.000233241
0.000323006
0.000270681
0.000194318
0.000186151
0.000147021
0.000165528
0.000188387
0.000212001
0.000245583
0.000284278
0.000323304
0.00036
0.000397087
0.000434763
0.000469418
0.00050407
0.000411278
0.00318566
0.00272669
0.00173929
0.000581892
0.000140122
0.000278407
0.000316778
0.000231331
0.000156756
0.000134831
9.28086e-05
0.000123706
0.000159228
0.000191965
0.000231274
0.000271875
0.00031352
0.000354078
0.000391154
0.000425584
0.000456001
0.000485921
0.000395037
0.00327873
0.00272639
0.00162886
0.000675983
0.000283317
0.00043108
0.000318675
0.000208078
0.000126362
8.80112e-05
4.62817e-05
8.44275e-05
0.000125436
0.000169079
0.00021552
0.000260544
0.00030345
0.000344859
0.000383181
0.000418876
0.000450858
0.00048116
0.00039108
0.00343968
0.00264265
0.00156922
0.000823475
0.00054393
0.000477854
0.000323796
0.000200532
0.000102109
4.55092e-05
4.55092e-05
5.26922e-05
0.000113232
0.000169295
0.00021984
0.000268554
0.000313127
0.000354389
0.000390891
0.000425087
0.000456693
0.000488494
0.000402002
0.00323688
0.00239635
0.00152616
0.000968592
0.000722077
0.000515107
0.000349019
0.000228574
0.000136063
8.02286e-05
5.60583e-05
9.08077e-05
0.000132226
0.000183468
0.000231354
0.000278679
0.000322313
0.00036473
0.000405225
0.000446126
0.000487971
0.000531668
0.000445456
0.00276621
0.00208015
0.00148058
0.00104194
0.000774459
0.000558542
0.000402641
0.000286595
0.000205106
0.000130706
0.000123515
0.000131676
0.000184439
0.000222748
0.000264615
0.000307756
0.000349305
0.000392027
0.000436008
0.00048496
0.000536318
0.000584861
0.000484131
0.00214619
0.00182483
0.00140467
0.00103886
0.000789662
0.000597655
0.000460842
0.000357717
0.000285093
0.000210807
0.000202456
0.000197731
0.000236768
0.000263417
0.000306022
0.000343896
0.000384285
0.000430985
0.000484693
0.000544384
0.00059793
0.000636527
0.000507862
0.00168709
0.00159421
0.00128904
0.0010154
0.000808805
0.000645653
0.000522804
0.000429056
0.000361023
0.000294928
0.00028242
0.000271016
0.0002967
0.000315749
0.000356528
0.00039009
0.000440946
0.000492303
0.00055621
0.00060855
0.000648566
0.000668832
0.000522187
0.0014216
0.00137717
0.00117258
0.000981595
0.000818777
0.000688374
0.00058462
0.000500418
0.0004373
0.000378589
0.000361968
0.000347587
0.00036369
0.000377525
0.000413868
0.000449675
0.00050699
0.000565388
0.000622632
0.000654754
0.000666329
0.000673982
0.00052219
0.00127142
0.00124251
0.00110173
0.000965847
0.00083959
0.000732157
0.000641822
0.000568969
0.000511137
0.000459788
0.000440182
0.000424669
0.000434778
0.000447029
0.000482899
0.000524829
0.000586343
0.00063722
0.000669217
0.000671055
0.000672508
0.000680494
0.000514325
0.00118687
0.00115338
0.00105605
0.000956804
0.000860345
0.000775094
0.000701235
0.000634937
0.000582385
0.000537705
0.000516985
0.000502247
0.000509275
0.000523327
0.000562251
0.000609921
0.000663166
0.000686313
0.00067175
0.000670387
0.000670387
0.000668351
0.000489825
0.00113884
0.00110536
0.00103607
0.000961568
0.000885291
0.000814903
0.000752111
0.000696729
0.000650436
0.000612483
0.000592413
0.00057999
0.000587805
0.000607002
0.000650881
0.000694695
0.000720504
0.000691663
0.000677283
0.000667943
0.000656482
0.000635056
0.000452897
0.00111168
0.00107855
0.00102842
0.000972904
0.000914941
0.000860204
0.000809295
0.000756901
0.000717028
0.000684783
0.000666977
0.000658811
0.000670156
0.000697049
0.000739819
0.000757217
0.000714404
0.000685419
0.00066578
0.000646657
0.00061991
0.000586385
0.000411893
0.00109905
0.00107307
0.00103506
0.000991017
0.000943893
0.000898706
0.000857086
0.000814932
0.000781795
0.000755442
0.000741633
0.000739572
0.000757213
0.000788144
0.000814424
0.000766278
0.000718524
0.00068197
0.000647488
0.000612024
0.000574457
0.000536654
0.000368604
0.00109854
0.00107893
0.00105092
0.00101815
0.000982984
0.00094499
0.000906377
0.000872425
0.000845465
0.000824898
0.000817064
0.000821518
0.00084455
0.000869319
0.000824302
0.000757188
0.000704166
0.000656268
0.000611437
0.00056881
0.000525859
0.00048633
0.0003384
0.00111005
0.00109549
0.00107305
0.00104621
0.00101752
0.000986377
0.000956174
0.000929362
0.000908443
0.000894519
0.000893356
0.000905183
0.00092892
0.000904714
0.000824075
0.000752244
0.000687429
0.000625937
0.000569422
0.000519149
0.000475941
0.000439859
0.000302309
0.00112473
0.00111794
0.00110146
0.00108058
0.00105594
0.00103143
0.00100766
0.000986945
0.000972016
0.000964982
0.000970649
0.000987339
0.000983972
0.000898599
0.000807837
0.000726705
0.00065037
0.000581991
0.000523443
0.00047352
0.000429348
0.000397799
0.000285773
0.00114698
0.00114286
0.00113118
0.00111553
0.0010971
0.00107866
0.00106086
0.00104612
0.00103756
0.00103728
0.00104927
0.00106201
0.00099439
0.000890807
0.000793588
0.00070112
0.000614604
0.000537969
0.000473184
0.00042159
0.000384624
0.000362748
0.000260001
0.00117891
0.00117621
0.00116806
0.00115667
0.00114323
0.00112974
0.00111699
0.00110771
0.00110459
0.00110944
0.0011221
0.0010863
0.000980554
0.000866215
0.000758416
0.000656326
0.000565445
0.000489352
0.000429706
0.000379919
0.000348814
0.000334649
0.000260125
0.0012153
0.00121374
0.00120852
0.00120086
0.00119191
0.00118328
0.00117563
0.00117197
0.00117363
0.00118138
0.00118139
0.00108886
0.000965723
0.000844392
0.000728577
0.000620373
0.000524226
0.000442674
0.000378568
0.000336918
0.000318846
0.000318846
0.000247248
0.00126247
0.00126117
0.00125701
0.00125194
0.00124663
0.00124176
0.0012381
0.00123852
0.00124168
0.00124659
0.0011879
0.00106704
0.000931827
0.000802199
0.000679324
0.000568036
0.000472948
0.00039842
0.000345367
0.000307022
0.000299005
0.000311723
0.000262444
0.00130949
0.00130873
0.00130643
0.00130428
0.00130241
0.0013015
0.00130219
0.00130618
0.00130921
0.00129409
0.00119048
0.00104963
0.000907833
0.000772615
0.000645707
0.000531393
0.000432328
0.000352922
0.000301049
0.000282175
0.000282175
0.000290529
0.000259337
0.00137022
0.00136989
0.00136856
0.00136717
0.0013672
0.00136845
0.00137107
0.00137357
0.0013707
0.00129334
0.0011584
0.00100625
0.000859555
0.000720541
0.000591735
0.000478234
0.000385628
0.000321328
0.000281152
0.000268656
0.000287584
0.000308964
0.000283084
0.00142534
0.00142559
0.00142526
0.00142605
0.00142916
0.0014329
0.00143735
0.00143874
0.00141295
0.00130188
0.00114901
0.000990445
0.00083782
0.000692804
0.000560101
0.000443956
0.000349063
0.000284556
0.000257646
0.000257646
0.00026582
0.000296274
0.000282875
0.00150089
0.00150164
0.00150258
0.00150504
0.00150837
0.00151145
0.00151248
0.00150469
0.00141084
0.00126224
0.00109315
0.000929282
0.000774914
0.000632477
0.000505794
0.000399187
0.000318871
0.000273166
0.000262613
0.000262536
0.000286835
0.000326862
0.00031189
4.14218e-06
4.14218e-06
2.47617e-05
3.73775e-05
2.16728e-05
1.08798e-05
2.29682e-05
2.9818e-05
6.41634e-05
3.51765e-05
3.51765e-05
4.25968e-05
4.87021e-05
4.64065e-05
4.64065e-05
5.31589e-05
4.94879e-05
4.94879e-05
5.60288e-05
7.1266e-05
7.02912e-05
7.02912e-05
0.000200164
0.000348563
9.74884e-05
0.000226764
0.000448997
0.000509303
5.92767e-05
9.59264e-05
0.000336581
0.000409871
0.000126494
0.000130529
0.000210218
0.000325805
0.000216072
0.000216072
0.000272094
0.000294531
0.000293873
0.000293873
0.000275729
0.000275729
0.000262878
0.000245062
0.000201743
0.000201743
0.000198659
0.000150791
0.000147941
0.000147941
0.000342667
0.000305213
0.000249477
0.000249477
0.000327018
0.000327018
0.000334156
0.000342055
0.000336402
0.000336402
0.000348462
0.000358371
0.000283099
0.000283099
0.000293183
0.000304947
0.000268767
0.000268767
0.000271988
0.000273917
0.000258107
0.000258107
0.00026156
0.000264165
0.00025507
0.00025507
0.000258045
0.000260127
0.000263142
0.000263142
0.000267501
0.000271169
0.00029192
0.00029192
0.000297362
0.000302459
0.000316964
0.000316964
0.000323205
0.000329443
0.000332148
0.000332148
0.000338519
0.000344908
0.000340884
0.000340884
0.000346398
0.000351573
0.00033889
0.00033889
0.000341784
0.000344051
0.000330406
0.000329511
0.000327515
0.000327515
0.000310539
0.000305502
0.000299338
0.000299338
0.000283458
0.00027567
0.000267579
0.000267579
0.000256365
0.000248418
0.000240535
0.000240535
0.000228708
0.00022123
0.000214174
0.000214174
0.000210447
0.000204407
0.000199152
0.000199152
0.000188811
0.000184768
0.000181809
0.000181809
0.000180576
0.000179021
0.000178616
0.000178616
0.00016681
0.00016681
0.000168132
0.000170621
0.000169498
0.000169498
0.000173241
0.000177896
0.000163956
0.000163956
0.000170107
0.000176978
0.000175337
0.000175337
0.000182772
0.000190685
0.000175026
0.000175026
0.000183918
0.000193057
0.000191058
0.000191058
0.000200531
0.0002101
0.000191788
0.000191788
0.000201977
0.00021215
0.000210929
0.000210929
0.000221504
0.000231987
5.97448e-05
6.28686e-05
0.000167865
0.000178552
0.000232824
0.000103373
3.99568e-05
2.00731e-05
2.82193e-05
7.30846e-05
0.00034329
0.000406434
0.000481867
0.000343254
0.00025899
0.000167083
3.3336e-05
1.35234e-05
1.41241e-05
7.54817e-05
0.000135281
0.000135066
0.000135066
8.53027e-05
6.19761e-05
3.57126e-05
2.72155e-05
5.8861e-05
0.000325674
0.000683516
0.000662401
0.000423816
0.000234321
0.000177485
0.000128263
8.98639e-05
5.71443e-05
9.06359e-05
9.06189e-05
0.000209414
0.000230878
9.58896e-05
6.24892e-05
4.56123e-05
3.62515e-05
4.29631e-05
0.00023594
0.000571092
0.000699361
0.000608667
0.000479724
0.000271232
0.000178264
0.000135195
0.00011867
0.000182034
0.000227678
0.000114578
0.000492789
0.000137593
6.75148e-05
4.9453e-05
3.53276e-05
2.15082e-05
4.06669e-05
0.000134155
0.000266852
0.000556739
0.000534361
0.000472785
0.000382228
0.000326612
0.000267562
0.000280508
0.000405274
0.000335416
0.000257264
0.000408882
0.000287355
0.000109361
9.87776e-05
5.82455e-05
2.15082e-05
3.29475e-05
4.68514e-05
0.000154093
0.000421173
0.000534361
0.000472785
0.000458538
0.000423201
0.000510803
0.000498378
0.000502172
0.000566148
0.000722258
0.000610562
0.000342599
0.00042354
0.000602886
0.000317556
9.92003e-05
3.82769e-05
0.000106314
0.000318638
0.000325562
0.000393926
0.000468037
0.000350678
0.000350678
0.000372845
0.000589603
0.000551705
0.000800849
0.000837667
0.000574304
0.000548051
0.000623484
0.000871475
0.00065897
0.00029488
0.000189211
0.000237586
0.000186129
0.000145395
0.000145395
0.00028334
0.000445401
0.00041183
0.000227061
0.000287387
0.000598198
0.000953234
0.000705155
0.000521827
0.000491267
0.000370043
0.000721425
0.00091092
0.000564769
0.000266458
0.000166449
0.000338571
0.000229315
0.000254459
0.000294709
0.00026204
0.000348152
0.000227061
0.000289057
0.000488207
0.000962219
0.000597795
0.000471552
0.00048901
0.000370043
0.000588173
0.000858127
0.000626414
0.000281737
0.000166449
0.000239387
0.000408058
0.000336561
0.000206369
0.000206369
0.000480169
0.000222074
0.000289057
0.000543745
0.000876155
0.000525482
0.000471552
0.00053399
0.000413715
0.000499513
0.000619102
0.000711469
0.00046912
0.00032518
0.000366856
0.000606146
0.000580746
0.000481644
0.000396032
0.000460264
0.000222074
0.000302272
0.000577634
0.000794969
0.000412537
0.000491728
0.000561689
0.000454606
0.000338483
0.000277465
0.000693201
0.000847311
0.000866279
0.000818782
0.000897474
0.000922826
0.000889605
0.000599106
0.000343799
0.000239477
0.000457501
0.000586362
0.000756314
0.000241795
0.000234435
0.00041127
0.00028153
0.000201081
0.000201081
0.000537916
0.000986302
0.00099898
0.000848903
0.000777804
0.000706175
0.00066265
0.000453318
0.000315713
0.000405945
0.000493384
0.000583301
0.00070453
0.000232521
0.000234435
0.000285924
0.000203217
0.000218039
0.000425314
0.000989347
0.000815453
0.000708419
0.000630932
0.00061919
0.000596179
0.000564753
0.000481168
0.000315713
0.000499523
0.000515351
0.000569443
0.000651165
0.000353802
0.000281457
0.000334147
0.000203217
0.000428177
0.000882513
0.000940492
0.000517583
0.000492247
0.000611309
0.000617262
0.000596179
0.000564753
0.000512578
0.000431668
0.000548365
0.000529114
0.000535089
0.000590943
0.00058694
0.000469951
0.000474445
0.00044604
0.000709094
0.000834498
0.000648382
0.000234786
0.000403333
0.000577046
0.000617262
0.000619193
0.000581669
0.000553943
0.000510669
0.000565044
0.000502492
0.000476078
0.000523696
0.00062078
0.000766665
0.000739816
0.000736418
0.000659495
0.000588616
0.000348551
0.000234786
0.00037881
0.000702745
0.00069496
0.000680678
0.000638282
0.000606098
0.000551276
0.000541695
0.000453502
0.000405876
0.000454421
0.000532639
0.000691687
0.000700565
0.000652234
0.000439792
0.000292551
0.000211279
0.000283155
0.000612024
0.000778686
0.000762765
0.000735897
0.000681634
0.000633378
0.000554096
0.000492754
0.000389111
0.000338697
0.000384903
0.00046032
0.000563467
0.000524441
0.000446259
0.000260791
0.000173152
0.000210775
0.000413095
0.000670695
0.000769448
0.000765345
0.000745082
0.000688648
0.000618433
0.000518946
0.000432068
0.000328285
0.000273795
0.000313665
0.000442938
0.000540363
0.0004758
0.000357956
0.000251356
0.000173152
0.000249568
0.0004284
0.000637918
0.000741505
0.000752468
0.000735636
0.000667021
0.000583179
0.000469809
0.000374655
0.00027366
0.000214334
0.000244311
0.000437414
0.000540363
0.000483128
0.000413691
0.000321635
0.000290333
0.000327225
0.000512824
0.000648228
0.000741505
0.000752468
0.000735636
0.000667021
0.000562953
0.000436314
0.000331372
0.000232771
0.00016462
0.000176717
0.000458947
0.000565134
0.000534458
0.000504924
0.000459364
0.000469248
0.00046717
0.00059684
0.000688503
0.00077707
0.000789979
0.000756606
0.000669369
0.000545324
0.00040582
0.000290113
0.000195741
0.000126128
0.000109235
0.0005145
0.000639392
0.000635595
0.000635452
0.000605673
0.000626177
0.000625582
0.000715875
0.000786756
0.000865067
0.000872531
0.000818971
0.000707652
0.000558334
0.000381813
0.000252245
0.000161781
0.000104398
5.50797e-05
0.000562238
0.000722479
0.000732871
0.000739138
0.00071537
0.000745137
0.000755608
0.000833732
0.000897608
0.000974481
0.000982715
0.000920156
0.000775857
0.000581878
0.000368363
0.000219477
0.000142551
7.64708e-05
4.55453e-05
0.000588192
0.000775997
0.000782069
0.000788868
0.000776305
0.000818328
0.000846573
0.000927745
0.00099719
0.00107785
0.00109464
0.0010398
0.000869015
0.000642001
0.00038084
0.000207157
0.000146579
0.00010232
4.55453e-05
0.000596378
0.000761591
0.000747723
0.00077489
0.000804997
0.000859193
0.000904219
0.000995098
0.00107725
0.00116786
0.00120321
0.00116672
0.000983239
0.000706964
0.000401172
0.000208806
0.000146579
0.00014695
8.35379e-05
0.000578415
0.00069754
0.000682793
0.000722783
0.000770214
0.00085082
0.000935321
0.00103778
0.00113591
0.00123938
0.00129742
0.00128154
0.00110342
0.000805029
0.000445829
0.000224977
0.00015774
0.00018905
0.000137899
0.000543181
0.000615884
0.000606628
0.000656813
0.000720326
0.000813174
0.000914836
0.00104926
0.0011731
0.00129395
0.00137536
0.00138189
0.00122547
0.000901045
0.000493268
0.000244754
0.000172777
0.000233878
0.000197511
0.00049013
0.000538488
0.000537808
0.000596263
0.000676604
0.000782377
0.000891441
0.00103345
0.00118067
0.00133018
0.00143498
0.00146392
0.00133875
0.00101767
0.000565042
0.000279746
0.000192252
0.000282353
0.000259514
0.000434949
0.000479061
0.000484016
0.000547643
0.000642109
0.000762628
0.000878263
0.00102153
0.00117119
0.00134567
0.00147924
0.00153001
0.0014392
0.00113192
0.000641171
0.000319182
0.000216941
0.000330234
0.00032731
0.000390678
0.000433766
0.000443921
0.000509314
0.000610439
0.000746536
0.000870727
0.00101464
0.00116459
0.00133705
0.00150922
0.00158322
0.00152203
0.00125155
0.000733196
0.000366449
0.00024325
0.000381452
0.00040305
0.000348509
0.000408543
0.00042457
0.000487884
0.000586794
0.00073393
0.0008671
0.0010126
0.00116441
0.00132961
0.00152512
0.00162589
0.00158852
0.00136393
0.000831927
0.000419396
0.000269778
0.000436817
0.000488468
0.000326758
0.000398136
0.000422974
0.000483718
0.000574149
0.00072551
0.000865569
0.0010126
0.00116441
0.00132635
0.00153226
0.00166147
0.00164208
0.00146736
0.000928041
0.000470702
0.000295266
0.000495864
0.000584491
0.000302174
0.000398136
0.000422974
0.000483718
0.000574149
0.000713003
0.000865569
0.00101333
0.00116907
0.00132635
0.00153436
0.00169195
0.0016857
0.00155061
0.00101967
0.000524666
0.000317609
0.00055527
0.000691239
0.000300961
0.000400303
0.000433116
0.000493422
0.000575185
0.000724691
0.000868272
0.00101699
0.00117756
0.00132965
0.00153569
0.00171936
0.00172408
0.00161645
0.00110833
0.000579699
0.000340559
0.000623797
0.000810288
0.000292065
0.000411212
0.000449711
0.000510541
0.000586215
0.00073038
0.000875245
0.00102345
0.00118816
0.0013387
0.00153781
0.00174322
0.00175867
0.00167426
0.00119794
0.000636278
0.000362498
0.000688549
0.000940338
0.000307408
0.000428614
0.000471165
0.000531323
0.000603397
0.000741948
0.000887403
0.00103431
0.0012009
0.00135298
0.00154446
0.00176515
0.00179114
0.00172618
0.00127536
0.000690722
0.000386545
0.000767836
0.00108273
0.000308992
0.000450034
0.000495394
0.000554554
0.000624227
0.000757118
0.000902858
0.00104872
0.00121465
0.00137028
0.00155529
0.00178569
0.00182209
0.0017725
0.00135122
0.000737491
0.000409566
0.000835489
0.00123338
0.000333348
0.00047358
0.000521474
0.000579749
0.000647672
0.000775175
0.000921226
0.00106692
0.00123082
0.00138988
0.00157028
0.00180673
0.00185216
0.00181361
0.00141504
0.000783656
0.000432282
0.000923602
0.00139434
0.000339141
0.000497079
0.000546789
0.000604981
0.00067223
0.00079483
0.000940592
0.00108713
0.00124797
0.00141031
0.00158757
0.00182747
0.00188152
0.0018496
0.00147692
0.000811711
0.000451359
0.000987924
0.00155477
0.000368176
0.000522245
0.000573328
0.000631338
0.000698298
0.000817222
0.000962051
0.00110936
0.00126731
0.00143179
0.00160687
0.00184822
0.00190981
0.00188103
0.00151946
0.000838901
0.000472939
0.00108393
0.00172031
0.000372506
0.000545054
0.000597118
0.000654969
0.000722082
0.000839151
0.000982411
0.00113067
0.00128602
0.00145173
0.00162535
0.00186663
0.001934
0.00190608
0.00157149
0.000869525
0.000492624
0.00113699
0.00186712
0.000406133
0.00057077
0.000624123
0.000682171
0.000749253
0.000865307
0.00100631
0.00115509
0.00130793
0.00147429
0.00164667
0.00188705
0.00195889
0.00192988
0.00160281
0.000885478
0.000498728
0.00123327
0.00202002
)
;

boundaryField
{
    leftWall
    {
        type            calculated;
        value           uniform 0;
    }
    rightWall
    {
        type            calculated;
        value           uniform 0;
    }
    lowerWall
    {
        type            calculated;
        value           uniform 0;
    }
    atmosphere
    {
        type            calculated;
        value           uniform 0;
    }
    defaultFaces
    {
        type            empty;
    }
}


// ************************************************************************* //
