/*--------------------------------*- C++ -*----------------------------------*\
| =========                 |                                                 |
| \\      /  F ield         | OpenFOAM: The Open Source CFD Toolbox           |
|  \\    /   O peration     | Version:  2012                                  |
|   \\  /    A nd           | Website:  www.openfoam.com                      |
|    \\/     M anipulation  |                                                 |
\*---------------------------------------------------------------------------*/
FoamFile
{
    version     2.0;
    format      ascii;
    class       volScalarField;
    location    "0.9";
    object      p_rgh;
}
// * * * * * * * * * * * * * * * * * * * * * * * * * * * * * * * * * * * * * //

dimensions      [1 -1 -2 0 0 0 0];


internalField   nonuniform List<scalar> 
2268
(
102534
102523
102503
102473
102440
102402
102366
102329
102298
102267
102242
102215
102194
102169
102149
102125
102108
102085
102071
102055
102052
102050
102057
102535
102524
102503
102473
102440
102401
102365
102328
102296
102266
102241
102215
102193
102168
102148
102124
102107
102084
102069
102054
102051
102049
102056
102541
102529
102508
102477
102443
102402
102366
102327
102296
102266
102241
102214
102193
102168
102148
102123
102105
102081
102066
102049
102048
102047
102056
102544
102532
102509
102478
102441
102401
102362
102324
102292
102263
102238
102213
102191
102166
102146
102121
102102
102077
102061
102044
102046
102044
102053
102556
102543
102520
102486
102447
102403
102363
102323
102291
102262
102238
102213
102191
102166
102144
102118
102097
102069
102052
102033
102035
102037
102049
102561
102548
102522
102486
102444
102400
102356
102317
102283
102257
102233
102210
102189
102164
102141
102114
102092
102063
102042
102022
102027
102031
102048
102579
102566
102538
102499
102452
102402
102357
102315
102281
102255
102234
102210
102189
102163
102139
102110
102083
102048
102023
102000
102003
102016
102027
102588
102573
102543
102499
102448
102398
102347
102306
102268
102250
102227
102208
102186
102160
102134
102103
102076
102040
102009
101982
101982
102010
102037
102836
102075
101742
101719
101717
101743
101848
101947
102393
102334
102213
102104
101988
101829
101798
101814
101830
101935
102057
102778
102015
101737
101719
101717
101728
101789
101880
102316
102286
102190
102116
101954
101794
101778
101778
101801
101905
102030
102518
101884
101721
101719
101714
101734
101786
101819
102257
102224
102140
102009
101899
101782
101764
101736
101735
101859
102021
102412
101905
101716
101718
101724
101774
101772
101824
102196
102168
102083
101972
101768
101724
101803
101729
101736
101899
102024
102254
101805
101715
101728
101838
101874
101807
101868
102180
102119
102028
101897
101716
101635
101766
101814
101876
101982
102037
102116
101861
101811
101803
101785
101870
101958
102015
102138
102094
101973
101757
101627
101509
101652
101916
102029
102019
102046
102199
101981
101978
101726
101674
101695
102024
102104
102140
102059
101836
101566
101523
101512
101555
101899
102069
102031
102043
102229
102144
101955
101670
101673
101670
101980
102155
102139
102035
101684
101578
101527
101521
101549
101764
102054
102056
102008
102626
102612
102577
102528
102464
102400
102346
102299
102263
102242
102229
102208
102186
102159
102129
102096
102051
101973
101859
101786
101788
101895
101938
102657
102638
102600
102527
102452
102387
102310
102219
102157
102193
102184
102180
102156
102127
102074
101966
101787
101562
101430
101412
101474
101649
101975
102744
102733
102679
102603
102408
102043
101813
101744
101719
101811
101969
101997
101990
101891
101625
101435
101359
101359
101360
101360
101471
101772
101769
102766
102757
102720
102487
101904
101749
101690
101606
101479
101510
101576
101749
101649
101384
101358
101358
101358
101358
101359
101438
101871
102002
101948
102727
102802
102735
102378
101969
101813
101732
101592
101403
101391
101398
101386
101376
101360
101358
101357
101359
101358
101365
101750
102264
102147
102127
102199
102525
102277
101874
101798
101676
101464
101412
101432
101495
101417
101359
101354
101356
101357
101358
101358
101358
101367
101741
102383
102385
102391
101877
102017
101479
101367
101363
101330
101333
101415
101567
101563
101569
101394
101352
101354
101356
101361
101377
101372
101367
101433
102162
102549
102623
101582
101401
101343
101330
101329
101328
101329
101330
101371
101520
101561
101518
101353
101354
101365
101484
101631
101583
101410
101377
101719
102586
102798
101587
101326
101331
101328
101328
101327
101328
101327
101327
101327
101350
101413
101439
101411
101427
101716
101711
101717
101524
101374
101596
102128
102389
101664
101326
101329
101327
101328
101327
101327
101326
101327
101327
101327
101327
101327
101327
101462
101606
101654
101531
101398
101357
101591
101844
101723
101688
101326
101329
101326
101327
101326
101327
101326
101327
101326
101327
101327
101328
101326
101327
101327
101326
101327
101327
101332
101344
101355
101395
101544
101326
101328
101326
101327
101326
101327
101326
101327
101326
101327
101327
101327
101326
101326
101326
101326
101327
101327
101327
101327
101327
101327
101331
101325
101327
101325
101327
101325
101326
101326
101326
101326
101327
101326
101327
101326
101327
101327
101327
101327
101327
101327
101327
101327
101327
101326
101325
101326
101325
101326
101325
101326
101326
101326
101326
101326
101326
101327
101326
101326
101327
101327
101327
101327
101327
101327
101327
101327
101325
101325
101325
101324
101325
101325
101326
101325
101326
101326
101326
101326
101326
101326
101327
101327
101327
101327
101327
101327
101327
101327
101327
101325
101324
101324
101324
101325
101324
101325
101325
101326
101326
101326
101326
101326
101326
101327
101327
101327
101327
101327
101327
101327
101327
101327
101324
101324
101323
101323
101324
101324
101325
101325
101326
101326
101326
101326
101326
101326
101327
101327
101327
101327
101327
101327
101327
101327
101327
101324
101323
101323
101322
101323
101324
101325
101325
101326
101326
101326
101326
101326
101326
101327
101327
101327
101327
101327
101327
101327
101327
101327
101323
101323
101322
101322
101323
101324
101325
101325
101326
101326
101326
101326
101326
101326
101327
101327
101327
101327
101327
101327
101327
101327
101327
101323
101323
101322
101322
101323
101324
101325
101325
101326
101326
101326
101326
101326
101326
101327
101327
101327
101327
101327
101327
101327
101327
101327
101324
101324
101323
101323
101324
101324
101325
101325
101326
101326
101326
101326
101326
101326
101327
101327
101327
101327
101327
101327
101327
101327
101327
101326
101325
101324
101324
101325
101325
101326
101326
101326
101326
101326
101326
101327
101327
101327
101327
101327
101327
101327
101327
101327
101327
101327
101327
101326
101325
101325
101326
101326
101326
101326
101326
101326
101327
101326
101327
101327
101327
101327
101327
101327
101327
101327
101327
101327
101327
101327
101327
101327
101326
101326
101326
101326
101326
101327
101327
101327
101327
101327
101327
101327
101327
101327
101327
101327
101327
101327
101327
101327
101328
101328
101327
101327
101327
101327
101327
101327
101327
101327
101327
101327
101327
101327
101327
101327
101327
101327
101327
101327
101327
101327
101327
101328
101328
101327
101327
101327
101327
101327
101327
101327
101327
101327
101327
101327
101327
101327
101327
101327
101327
101327
101327
101327
101326
101326
101328
101328
101327
101327
101327
101327
101327
101327
101327
101327
101327
101327
101327
101327
101327
101327
101327
101327
101326
101326
101326
101326
101326
101327
101327
101327
101327
101327
101327
101327
101327
101327
101327
101327
101327
101327
101327
101327
101327
101327
101326
101326
101326
101326
101326
101326
101327
101327
101327
101327
101327
101327
101327
101327
101327
101327
101327
101327
101327
101327
101327
101326
101326
101326
101326
101326
101326
101326
101326
101327
101327
101327
101327
101327
101327
101327
101327
101327
101327
101327
101327
101327
101327
101326
101326
101326
101326
101326
101326
101326
101326
101326
101327
101327
101327
101327
101327
101327
101327
101327
101327
101327
101327
101327
101326
101326
101326
101326
101326
101326
101326
101326
101326
101326
101326
101327
101327
101327
101327
101327
101327
101327
101327
101327
101327
101326
101326
101326
101326
101326
101326
101326
101326
101326
101326
101326
101326
101326
101327
101327
101327
101327
101327
101327
101327
101326
101326
101326
101326
101326
101326
101326
101326
101326
101326
101326
101326
101326
101326
101326
101326
101326
101326
101326
101326
101326
101326
101326
101326
101326
101326
101326
101326
101326
101326
101326
101326
101326
101326
101326
101326
101326
101326
101326
101326
101326
101326
101326
101326
101326
101326
101326
101326
101326
101326
101326
101326
101326
101326
101326
101326
101326
101326
101326
101326
101326
101326
101326
101326
101326
101326
101326
101326
101326
101326
101326
101326
101326
101326
101326
101326
101326
101326
101326
101326
101326
101326
101326
101326
101326
101326
101326
101326
101326
101326
101326
101326
101326
101326
101326
101326
101326
101326
101326
101326
101326
101326
101326
101325
101325
101325
101325
101325
101326
101326
101326
101326
101326
101326
101326
101326
101326
101326
101326
101326
101326
101326
101325
101325
101325
101325
101325
101325
101325
101325
101325
101326
101326
101326
101326
101326
101326
101326
101326
101326
101326
101325
101325
101325
101325
101325
101325
101325
101325
101325
101325
101325
101325
101325
101326
101326
101326
101326
101326
101326
101326
101326
101326
101325
101325
101325
101325
101325
101325
101325
101325
101325
101325
101325
101325
101325
101325
101325
101325
101325
101325
101325
101325
101325
101325
101325
101325
101325
101325
101325
101325
101325
101325
101325
101325
101325
101325
101325
101325
101325
101326
101326
101325
101325
101325
101325
101325
101325
101325
101325
101325
101325
101325
101325
101325
101325
101325
101325
101325
101325
101325
101325
101325
101956
101764
101858
101749
101956
101892
101943
102094
101807
101862
102102
102139
101942
102088
102155
102214
102164
102203
102231
102200
102437
102220
101986
101773
102388
101700
101519
101513
102681
101824
101537
101523
102316
102181
101697
101571
101464
101589
101594
101513
101382
101353
101363
101373
101327
101359
101437
101444
101327
101327
101327
101327
101327
101327
101327
101327
101327
101327
101327
101327
101327
101327
101327
101327
101327
101327
101327
101327
101327
101327
101327
101327
101327
101327
101327
101327
101327
101327
101327
101327
101327
101327
101327
101327
101327
101327
101327
101327
101327
101327
101327
101327
101327
101327
101327
101327
101327
101327
101327
101327
101326
101326
101326
101326
101326
101326
101326
101326
101326
101326
101326
101326
101326
101326
101326
101326
101326
101326
101326
101326
101326
101326
101326
101326
101326
101326
101326
101326
101326
101326
101326
101326
101326
101326
101326
101326
101326
101326
101326
101326
101325
101325
101325
101325
101325
101325
101325
101325
101325
101325
101325
101325
101325
101325
101325
101325
101325
101325
101325
101325
101325
101325
101325
101325
101325
101325
101325
101325
102196
102129
101711
101669
101678
101671
101934
102183
102140
101920
101584
101566
101576
101689
101720
101791
102022
102038
101963
102159
102140
101736
101764
101686
101734
102111
102232
102041
101671
101564
101577
101602
101889
101948
101982
101976
101832
101707
102253
101912
101718
102118
102296
102274
102274
102108
101651
101466
101573
101642
101608
101587
101612
101706
101618
101416
101347
102220
101874
101968
102356
102334
102360
102329
102133
101471
101475
101445
101612
101643
101642
101492
101414
101333
101333
101333
101955
101790
102012
101938
101787
102022
102187
102147
101961
101693
101354
101345
101348
101368
101385
101333
101333
101332
101332
101625
101589
101581
101320
101333
101436
101632
101857
101715
101635
101446
101334
101332
101332
101332
101331
101332
101331
101331
101537
101407
101315
101314
101322
101355
101330
101329
101329
101329
101347
101343
101355
101341
101332
101330
101330
101330
101331
101499
101599
101312
101311
101340
101385
101350
101328
101328
101331
101343
101408
101407
101383
101332
101330
101330
101330
101330
101448
101642
101472
101326
101377
101403
101354
101328
101328
101328
101328
101333
101343
101339
101329
101330
101330
101330
101330
101354
101456
101461
101367
101398
101382
101328
101328
101328
101328
101328
101328
101327
101328
101329
101330
101330
101330
101330
101357
101342
101335
101332
101410
101329
101328
101328
101328
101328
101328
101328
101328
101329
101329
101329
101329
101329
101329
101443
101364
101328
101329
101350
101336
101329
101328
101328
101328
101328
101328
101328
101329
101329
101329
101329
101329
101329
101341
101366
101356
101358
101327
101331
101328
101327
101328
101328
101328
101328
101328
101329
101329
101329
101329
101329
101329
101330
101340
101346
101338
101327
101327
101327
101327
101327
101328
101328
101328
101328
101329
101329
101329
101329
101329
101329
101327
101328
101327
101327
101327
101327
101327
101327
101327
101327
101328
101328
101328
101328
101329
101329
101329
101329
101329
101327
101328
101327
101327
101327
101327
101327
101327
101327
101328
101328
101328
101328
101328
101328
101329
101329
101329
101329
101327
101327
101328
101328
101328
101328
101328
101327
101327
101328
101328
101328
101328
101328
101328
101328
101329
101329
101329
101327
101327
101327
101328
101328
101328
101328
101328
101328
101328
101328
101328
101328
101328
101328
101328
101328
101328
101329
101327
101327
101327
101327
101328
101328
101328
101328
101328
101328
101328
101328
101328
101328
101328
101328
101328
101328
101328
101327
101327
101327
101327
101328
101328
101328
101328
101328
101328
101328
101328
101328
101328
101328
101328
101328
101328
101328
101327
101327
101327
101327
101328
101328
101328
101328
101328
101328
101328
101328
101328
101328
101328
101328
101328
101328
101328
101327
101327
101327
101327
101327
101328
101328
101328
101328
101328
101328
101328
101328
101328
101328
101328
101328
101328
101328
101327
101327
101327
101327
101327
101327
101328
101328
101328
101328
101328
101328
101328
101328
101328
101328
101328
101328
101328
101327
101327
101327
101327
101327
101327
101327
101327
101328
101328
101328
101328
101328
101328
101328
101328
101328
101328
101328
101327
101327
101327
101327
101327
101327
101327
101327
101327
101327
101328
101328
101328
101328
101328
101328
101328
101328
101328
101326
101327
101327
101327
101327
101327
101327
101327
101327
101327
101327
101328
101328
101328
101328
101328
101328
101328
101328
101326
101326
101326
101326
101326
101327
101327
101327
101327
101327
101327
101327
101328
101328
101328
101328
101328
101328
101328
101326
101326
101326
101326
101326
101326
101326
101327
101327
101327
101327
101327
101327
101328
101328
101328
101328
101328
101328
101326
101326
101326
101326
101326
101326
101326
101326
101327
101327
101327
101327
101327
101327
101328
101328
101328
101328
101328
101326
101326
101326
101326
101326
101326
101326
101326
101326
101327
101327
101327
101327
101327
101328
101328
101328
101328
101328
101326
101326
101326
101326
101326
101326
101326
101326
101326
101326
101327
101327
101327
101327
101328
101328
101328
101328
101328
101326
101326
101326
101326
101326
101326
101326
101326
101326
101326
101327
101327
101327
101327
101327
101328
101328
101328
101328
101326
101326
101326
101326
101326
101326
101326
101326
101326
101326
101326
101327
101327
101327
101327
101327
101328
101328
101328
101326
101326
101326
101326
101326
101326
101326
101326
101326
101326
101326
101326
101327
101327
101327
101327
101327
101327
101328
101326
101326
101326
101326
101326
101326
101326
101326
101326
101326
101326
101326
101326
101327
101327
101327
101327
101327
101327
101325
101326
101326
101326
101326
101326
101326
101326
101326
101326
101326
101326
101326
101327
101327
101327
101327
101327
101327
101325
101325
101325
101325
101325
101325
101326
101326
101326
101326
101326
101326
101326
101326
101326
101327
101327
101327
101327
101325
101325
101325
101325
101325
101325
101325
101325
101325
101326
101326
101326
101326
101326
101326
101327
101327
101327
101327
101325
101325
101325
101325
101325
101325
101325
101325
101325
101325
101326
101326
101326
101326
101326
101326
101326
101326
101326
101325
101325
101325
101325
101325
101325
101325
101325
101325
101325
101325
101325
101325
101326
101326
101326
101326
101326
101326
101325
101325
101325
101325
101325
101325
101325
101325
101325
101325
101325
101325
101325
101325
101325
101325
101325
101325
101325
101325
101325
101325
101325
101325
101325
101325
101325
101325
101325
101325
101325
101325
101325
101325
101325
101325
101325
101325
)
;

boundaryField
{
    leftWall
    {
        type            zeroGradient;
    }
    rightWall
    {
        type            zeroGradient;
    }
    lowerWall
    {
        type            zeroGradient;
    }
    atmosphere
    {
        type            fixedValue;
        value           uniform 101325;
    }
    defaultFaces
    {
        type            empty;
    }
}


// ************************************************************************* //
