/*--------------------------------*- C++ -*----------------------------------*\
| =========                 |                                                 |
| \\      /  F ield         | OpenFOAM: The Open Source CFD Toolbox           |
|  \\    /   O peration     | Version:  2012                                  |
|   \\  /    A nd           | Website:  www.openfoam.com                      |
|    \\/     M anipulation  |                                                 |
\*---------------------------------------------------------------------------*/
FoamFile
{
    version     2.0;
    format      ascii;
    class       volScalarField;
    location    "0.9";
    object      rho2;
}
// * * * * * * * * * * * * * * * * * * * * * * * * * * * * * * * * * * * * * //

dimensions      [1 -3 0 0 0 0 0];


internalField   nonuniform List<scalar> 
2268
(
1.30827
1.30813
1.30788
1.3075
1.30708
1.30658
1.30613
1.30565
1.30526
1.30486
1.30454
1.3042
1.30393
1.30361
1.30336
1.30306
1.30283
1.30255
1.30237
1.30217
1.30212
1.3021
1.30218
1.30753
1.30739
1.30713
1.30675
1.30632
1.30582
1.30536
1.30489
1.30449
1.3041
1.30378
1.30344
1.30317
1.30285
1.3026
1.30229
1.30207
1.30178
1.30159
1.30139
1.30136
1.30133
1.30142
1.30686
1.30671
1.30644
1.30605
1.30561
1.30509
1.30462
1.30413
1.30373
1.30334
1.30303
1.30269
1.30242
1.3021
1.30184
1.30153
1.30129
1.30099
1.3008
1.30058
1.30056
1.30055
1.30066
1.30614
1.30599
1.30571
1.3053
1.30483
1.30432
1.30382
1.30334
1.30293
1.30256
1.30224
1.30192
1.30165
1.30133
1.30106
1.30074
1.3005
1.30019
1.29998
1.29977
1.29978
1.29976
1.29988
1.30554
1.30538
1.30509
1.30465
1.30416
1.30359
1.30309
1.30258
1.30217
1.30179
1.30149
1.30117
1.30089
1.30057
1.30029
1.29996
1.29969
1.29934
1.29911
1.29886
1.29888
1.29892
1.29907
1.30486
1.30469
1.30437
1.30391
1.30337
1.30281
1.30225
1.30175
1.30131
1.30099
1.30068
1.30039
1.30011
1.29979
1.29951
1.29916
1.29888
1.29851
1.29822
1.29793
1.29801
1.29808
1.29831
1.30434
1.30417
1.30382
1.30332
1.30273
1.30209
1.30151
1.30098
1.30054
1.30021
1.29994
1.29964
1.29936
1.29904
1.29873
1.29837
1.29802
1.29755
1.29716
1.29678
1.29687
1.29709
1.29729
1.3037
1.30351
1.30313
1.30257
1.30193
1.30128
1.30063
1.3001
1.29963
1.29939
1.29911
1.29886
1.29859
1.29826
1.29793
1.29753
1.29717
1.29663
1.29611
1.2957
1.29575
1.29618
1.29665
1.31119
1.30157
1.29754
1.2974
1.29739
1.29771
1.29887
1.30007
1.30577
1.30503
1.30351
1.30207
1.3006
1.29859
1.29819
1.2984
1.2986
1.29997
1.30155
1.30975
1.30029
1.29744
1.29743
1.29745
1.29759
1.29827
1.29912
1.30427
1.30382
1.3026
1.30161
1.29949
1.29766
1.29767
1.2976
1.29784
1.29911
1.30062
1.30572
1.29805
1.29736
1.2975
1.29746
1.29768
1.29832
1.29847
1.30289
1.30235
1.30125
1.29976
1.29818
1.29666
1.29695
1.29731
1.29725
1.29826
1.2998
1.30366
1.29776
1.29731
1.29744
1.29732
1.29756
1.29807
1.29817
1.30116
1.30091
1.29976
1.29843
1.29658
1.29549
1.29644
1.29693
1.29708
1.29784
1.29912
1.30106
1.29731
1.29724
1.29738
1.29735
1.29758
1.29793
1.29807
1.30028
1.29952
1.29826
1.29655
1.29542
1.29457
1.29559
1.2969
1.29718
1.29774
1.29856
1.29977
1.29784
1.29717
1.29717
1.29713
1.29725
1.29784
1.29807
1.29905
1.29847
1.29683
1.29536
1.29452
1.2941
1.29479
1.29639
1.29746
1.29753
1.29795
1.2994
1.29739
1.29729
1.29682
1.29689
1.29686
1.29762
1.29789
1.29836
1.29728
1.29554
1.29479
1.29431
1.29411
1.29464
1.29602
1.29742
1.29725
1.29719
1.2984
1.29744
1.29707
1.29689
1.29686
1.29684
1.29743
1.29786
1.29762
1.29647
1.29494
1.29483
1.2943
1.2942
1.2945
1.29579
1.29742
1.29689
1.29643
1.30303
1.30285
1.3024
1.30178
1.30096
1.30015
1.29946
1.29886
1.29841
1.29815
1.29798
1.2977
1.29743
1.29708
1.29669
1.29625
1.29566
1.2949
1.29431
1.29405
1.29418
1.29441
1.2941
1.30185
1.30161
1.30112
1.30019
1.29925
1.29843
1.29751
1.2969
1.29624
1.29647
1.29617
1.2961
1.29581
1.29543
1.2949
1.29433
1.29391
1.29357
1.29335
1.29333
1.29328
1.2933
1.29375
1.30139
1.30124
1.30055
1.29961
1.29804
1.29691
1.29597
1.29535
1.2948
1.29481
1.29504
1.29472
1.29444
1.294
1.2937
1.29347
1.29344
1.29338
1.29333
1.29326
1.29315
1.29273
1.2923
1.30006
1.30006
1.29964
1.29772
1.29652
1.29614
1.29538
1.29466
1.29382
1.29423
1.29383
1.29379
1.29353
1.29341
1.29343
1.29342
1.29337
1.29333
1.29329
1.29319
1.29241
1.29092
1.29048
1.29972
1.30011
1.29887
1.29757
1.29627
1.29544
1.29445
1.29385
1.29383
1.29365
1.29371
1.29344
1.29332
1.29333
1.29337
1.29335
1.29324
1.29319
1.29317
1.29308
1.29226
1.29073
1.29044
1.29712
1.29715
1.29668
1.29525
1.29425
1.29344
1.2936
1.29363
1.2936
1.29398
1.29351
1.29337
1.29332
1.29332
1.29331
1.29321
1.29314
1.29312
1.2931
1.29305
1.29272
1.29226
1.29227
1.2948
1.29446
1.29352
1.2932
1.29316
1.29314
1.29313
1.29322
1.29339
1.29333
1.29339
1.2933
1.29323
1.2932
1.29316
1.29312
1.29312
1.29308
1.29308
1.29293
1.2929
1.29287
1.29375
1.29379
1.29307
1.29305
1.29307
1.29315
1.29315
1.29315
1.29312
1.29314
1.29321
1.29312
1.29329
1.29325
1.29317
1.29317
1.2932
1.29325
1.29321
1.29325
1.29306
1.29327
1.29413
1.2945
1.29316
1.29295
1.29299
1.29305
1.29315
1.29317
1.29318
1.29317
1.29317
1.29316
1.29316
1.29316
1.29322
1.29333
1.293
1.29326
1.29322
1.29329
1.29333
1.29324
1.29346
1.29359
1.29507
1.29309
1.29294
1.29299
1.29305
1.29316
1.29318
1.2932
1.29319
1.29319
1.29318
1.29319
1.29319
1.29318
1.29316
1.29321
1.2933
1.29335
1.2933
1.29321
1.29319
1.29324
1.29351
1.29335
1.29305
1.29294
1.29298
1.29305
1.29318
1.2932
1.29322
1.29321
1.29321
1.29319
1.29319
1.29319
1.29321
1.29319
1.2932
1.29321
1.29322
1.29323
1.29322
1.2932
1.2932
1.29322
1.29323
1.293
1.29295
1.29299
1.29307
1.29318
1.2932
1.29322
1.29321
1.29322
1.29321
1.2932
1.29319
1.2932
1.2932
1.2932
1.2932
1.2932
1.29321
1.29321
1.29321
1.2932
1.29321
1.2932
1.29295
1.29297
1.293
1.2931
1.29319
1.2932
1.29322
1.29321
1.29321
1.29321
1.2932
1.2932
1.2932
1.2932
1.2932
1.2932
1.2932
1.2932
1.2932
1.2932
1.2932
1.2932
1.29318
1.29295
1.29299
1.29303
1.29313
1.29319
1.2932
1.29321
1.2932
1.29321
1.29321
1.2932
1.2932
1.2932
1.2932
1.2932
1.2932
1.2932
1.2932
1.2932
1.2932
1.2932
1.2932
1.29318
1.29297
1.29302
1.29306
1.29314
1.29319
1.2932
1.29321
1.2932
1.2932
1.2932
1.2932
1.2932
1.2932
1.2932
1.2932
1.2932
1.2932
1.2932
1.2932
1.2932
1.2932
1.2932
1.29319
1.29298
1.29303
1.29308
1.29315
1.29319
1.29319
1.2932
1.29319
1.29319
1.29319
1.2932
1.29319
1.29319
1.29319
1.2932
1.2932
1.2932
1.2932
1.2932
1.2932
1.2932
1.2932
1.2932
1.29298
1.29304
1.29309
1.29315
1.29318
1.29318
1.29319
1.29318
1.29319
1.29319
1.29319
1.29319
1.29319
1.29319
1.29319
1.29319
1.2932
1.2932
1.2932
1.2932
1.2932
1.2932
1.2932
1.29298
1.29305
1.29309
1.29314
1.29317
1.29317
1.29318
1.29318
1.29318
1.29318
1.29319
1.29319
1.29319
1.29319
1.29319
1.29319
1.29319
1.29319
1.29319
1.2932
1.29319
1.29319
1.29319
1.29298
1.29305
1.29308
1.29312
1.29315
1.29316
1.29318
1.29318
1.29318
1.29318
1.29319
1.29319
1.29319
1.29319
1.29319
1.29319
1.29319
1.29319
1.29319
1.29319
1.29319
1.29319
1.29319
1.29298
1.29304
1.29307
1.29309
1.29314
1.29316
1.29317
1.29317
1.29318
1.29318
1.29318
1.29319
1.29319
1.29319
1.29319
1.29319
1.29319
1.29319
1.29319
1.29319
1.29318
1.29317
1.29317
1.29298
1.29303
1.29305
1.29308
1.29314
1.29316
1.29317
1.29318
1.29318
1.29318
1.29318
1.29318
1.29319
1.29319
1.29319
1.29319
1.29319
1.29319
1.29318
1.29317
1.29316
1.29315
1.29314
1.29298
1.293
1.29304
1.29309
1.29315
1.29317
1.29317
1.29318
1.29318
1.29318
1.29318
1.29318
1.29318
1.29318
1.29319
1.29318
1.29318
1.29318
1.29316
1.29314
1.29313
1.29312
1.29311
1.29299
1.29302
1.29306
1.29312
1.29317
1.29317
1.29318
1.29318
1.29318
1.29318
1.29318
1.29318
1.29318
1.29318
1.29318
1.29318
1.29317
1.29315
1.29313
1.29312
1.29311
1.2931
1.29308
1.29304
1.29307
1.29311
1.29316
1.29318
1.29318
1.29318
1.29318
1.29318
1.29318
1.29318
1.29318
1.29318
1.29318
1.29317
1.29316
1.29314
1.29313
1.29312
1.29311
1.29309
1.29307
1.29305
1.29312
1.29314
1.29317
1.29318
1.29318
1.29318
1.29318
1.29318
1.29318
1.29318
1.29318
1.29318
1.29318
1.29317
1.29316
1.29314
1.29312
1.29311
1.2931
1.29308
1.29306
1.29304
1.29303
1.29317
1.29318
1.29318
1.29318
1.29318
1.29318
1.29318
1.29318
1.29318
1.29318
1.29318
1.29317
1.29317
1.29316
1.29314
1.29312
1.29311
1.2931
1.29308
1.29306
1.29304
1.29303
1.29301
1.29318
1.29318
1.29318
1.29318
1.29318
1.29318
1.29318
1.29318
1.29318
1.29317
1.29317
1.29317
1.29316
1.29314
1.29312
1.29311
1.2931
1.29308
1.29306
1.29304
1.29303
1.29302
1.293
1.29318
1.29318
1.29318
1.29318
1.29318
1.29318
1.29317
1.29317
1.29317
1.29317
1.29317
1.29316
1.29314
1.29312
1.29311
1.2931
1.29308
1.29306
1.29304
1.29303
1.29302
1.29301
1.293
1.29318
1.29318
1.29317
1.29317
1.29317
1.29317
1.29317
1.29317
1.29317
1.29316
1.29316
1.29314
1.29312
1.29311
1.2931
1.29308
1.29306
1.29305
1.29304
1.29303
1.29302
1.29301
1.293
1.29317
1.29317
1.29317
1.29317
1.29317
1.29317
1.29317
1.29316
1.29316
1.29316
1.29314
1.29312
1.29311
1.2931
1.29308
1.29307
1.29305
1.29304
1.29303
1.29303
1.29302
1.29302
1.29301
1.29317
1.29317
1.29317
1.29316
1.29316
1.29316
1.29316
1.29316
1.29315
1.29314
1.29312
1.29311
1.2931
1.29309
1.29307
1.29305
1.29305
1.29304
1.29304
1.29303
1.29303
1.29303
1.29303
1.29316
1.29316
1.29316
1.29316
1.29316
1.29316
1.29315
1.29315
1.29314
1.29313
1.29311
1.2931
1.29309
1.29307
1.29306
1.29305
1.29304
1.29304
1.29304
1.29304
1.29304
1.29304
1.29304
1.29315
1.29315
1.29315
1.29315
1.29315
1.29315
1.29315
1.29314
1.29312
1.29311
1.2931
1.29309
1.29308
1.29306
1.29305
1.29305
1.29305
1.29305
1.29305
1.29305
1.29305
1.29305
1.29305
1.29315
1.29315
1.29315
1.29315
1.29314
1.29314
1.29313
1.29312
1.29311
1.2931
1.29309
1.29308
1.29307
1.29305
1.29305
1.29305
1.29305
1.29305
1.29305
1.29306
1.29306
1.29306
1.29306
1.29314
1.29314
1.29314
1.29314
1.29313
1.29313
1.29312
1.29311
1.2931
1.29309
1.29308
1.29307
1.29306
1.29305
1.29305
1.29305
1.29305
1.29306
1.29306
1.29307
1.29307
1.29307
1.29307
1.29313
1.29313
1.29313
1.29313
1.29312
1.29312
1.2931
1.29309
1.29309
1.29308
1.29308
1.29306
1.29305
1.29305
1.29305
1.29305
1.29306
1.29306
1.29307
1.29307
1.29308
1.29308
1.29308
1.29312
1.29312
1.29312
1.29312
1.29311
1.2931
1.29309
1.29308
1.29308
1.29308
1.29307
1.29306
1.29305
1.29305
1.29305
1.29306
1.29306
1.29307
1.29308
1.29308
1.29309
1.29309
1.29309
1.29311
1.29311
1.29311
1.2931
1.2931
1.29309
1.29308
1.29308
1.29308
1.29307
1.29306
1.29305
1.29305
1.29305
1.29306
1.29306
1.29307
1.29308
1.29308
1.29309
1.29309
1.29309
1.2931
1.2931
1.2931
1.29309
1.29309
1.29308
1.29308
1.29307
1.29307
1.29307
1.29306
1.29305
1.29305
1.29305
1.29305
1.29306
1.29307
1.29308
1.29308
1.29309
1.2931
1.2931
1.2931
1.2931
1.29309
1.29309
1.29308
1.29308
1.29307
1.29307
1.29307
1.29307
1.29306
1.29306
1.29305
1.29305
1.29305
1.29306
1.29307
1.29308
1.29308
1.29309
1.2931
1.2931
1.2931
1.2931
1.2931
1.29307
1.29307
1.29307
1.29306
1.29306
1.29306
1.29306
1.29306
1.29306
1.29305
1.29305
1.29305
1.29305
1.29307
1.29308
1.29309
1.29309
1.2931
1.2931
1.2931
1.2931
1.29311
1.29311
1.29307
1.29307
1.29306
1.29306
1.29306
1.29306
1.29306
1.29306
1.29305
1.29305
1.29305
1.29305
1.29306
1.29308
1.29309
1.29309
1.2931
1.2931
1.2931
1.2931
1.2931
1.2931
1.2931
1.29432
1.29352
1.29519
1.29202
1.29444
1.29473
1.29443
1.29438
1.29286
1.29281
1.29315
1.2934
1.29137
1.29167
1.29219
1.29289
1.29086
1.29131
1.29164
1.29235
1.2928
1.29299
1.29306
1.29295
1.29357
1.29334
1.29298
1.29291
1.29382
1.29322
1.29306
1.29286
1.293
1.29321
1.29299
1.29296
1.29317
1.29286
1.2928
1.29277
1.29317
1.29305
1.29309
1.29306
1.29317
1.29315
1.29316
1.29314
1.29316
1.29315
1.29314
1.29312
1.29315
1.29314
1.29313
1.29312
1.29316
1.29314
1.29314
1.29313
1.29318
1.29316
1.29315
1.29314
1.2932
1.29319
1.29318
1.29317
1.29319
1.29319
1.29319
1.29319
1.29319
1.29319
1.29319
1.29319
1.29317
1.29317
1.29317
1.29317
1.29314
1.29313
1.29313
1.29313
1.2931
1.2931
1.29309
1.29309
1.29307
1.29306
1.29305
1.29304
1.29304
1.29303
1.29302
1.29301
1.29301
1.29301
1.293
1.293
1.293
1.293
1.29299
1.29299
1.293
1.29299
1.29299
1.29298
1.29299
1.29299
1.29298
1.29298
1.293
1.29299
1.29299
1.29299
1.29301
1.293
1.293
1.293
1.29302
1.29302
1.29302
1.29302
1.29304
1.29303
1.29303
1.29303
1.29305
1.29305
1.29305
1.29304
1.29306
1.29306
1.29306
1.29306
1.29307
1.29307
1.29307
1.29307
1.29308
1.29308
1.29308
1.29308
1.29309
1.29309
1.29309
1.29309
1.29309
1.29309
1.29309
1.29309
1.2931
1.2931
1.2931
1.2931
1.2931
1.2931
1.2931
1.2931
1.2931
1.2931
1.2931
1.2931
1.2931
1.2931
1.2931
1.2931
1.29691
1.29671
1.29707
1.29669
1.29685
1.29673
1.29713
1.29712
1.29652
1.29526
1.29436
1.29448
1.29433
1.29408
1.29469
1.29552
1.29596
1.29559
1.29533
1.29503
1.29659
1.29732
1.29669
1.29676
1.29686
1.29673
1.29624
1.29522
1.29461
1.29404
1.29415
1.29385
1.29377
1.29375
1.29418
1.29428
1.29381
1.29363
1.29511
1.29707
1.29681
1.29603
1.29622
1.29594
1.29559
1.29473
1.2945
1.29397
1.29381
1.29363
1.29329
1.29301
1.29305
1.29296
1.29313
1.29323
1.2933
1.29498
1.29611
1.29593
1.29526
1.29479
1.2951
1.29471
1.29433
1.29384
1.29432
1.29353
1.29325
1.29332
1.29327
1.29314
1.29308
1.2932
1.29332
1.29335
1.29317
1.29412
1.29367
1.29326
1.29321
1.29376
1.29373
1.29334
1.29351
1.29322
1.29284
1.29312
1.29322
1.29317
1.29317
1.29322
1.29329
1.29332
1.29333
1.29281
1.29288
1.29288
1.29279
1.29296
1.29318
1.29338
1.29327
1.29326
1.29316
1.29295
1.29281
1.29286
1.29307
1.29315
1.29323
1.29326
1.29326
1.29328
1.29247
1.29251
1.29265
1.29263
1.29258
1.29304
1.29314
1.29318
1.29315
1.29308
1.29281
1.29277
1.29289
1.29292
1.29307
1.29314
1.29321
1.29323
1.29326
1.29251
1.29238
1.29252
1.2924
1.29236
1.29296
1.29313
1.29317
1.29317
1.29316
1.29312
1.29304
1.29299
1.29298
1.29305
1.2931
1.2932
1.29323
1.29325
1.29269
1.29249
1.29233
1.29223
1.29229
1.29296
1.29316
1.29315
1.29317
1.29315
1.29315
1.29314
1.29311
1.29305
1.29308
1.29315
1.29322
1.29323
1.29324
1.29275
1.29262
1.29255
1.29241
1.29244
1.29307
1.29317
1.29315
1.29314
1.29315
1.29315
1.29315
1.29313
1.29312
1.29314
1.29322
1.29322
1.29323
1.29324
1.29296
1.2928
1.29256
1.29246
1.29271
1.29314
1.29317
1.29317
1.29318
1.29318
1.29318
1.29318
1.29318
1.29319
1.29319
1.29322
1.29322
1.29322
1.29323
1.29302
1.29269
1.29248
1.29249
1.29292
1.29314
1.29318
1.29317
1.29317
1.29316
1.29315
1.29317
1.29318
1.2932
1.29321
1.29321
1.29322
1.29322
1.29323
1.29306
1.29283
1.29258
1.29277
1.29314
1.29314
1.29316
1.29314
1.29311
1.2931
1.29311
1.29313
1.29316
1.29318
1.2932
1.29321
1.29322
1.29322
1.29322
1.29309
1.29301
1.29291
1.29309
1.29314
1.29314
1.29314
1.2931
1.29308
1.29308
1.2931
1.29312
1.29315
1.29317
1.29319
1.2932
1.29321
1.29322
1.29322
1.29313
1.29313
1.29313
1.29315
1.29315
1.29314
1.29313
1.29309
1.29308
1.2931
1.29312
1.29315
1.29316
1.29318
1.29319
1.2932
1.29321
1.29321
1.29322
1.29313
1.29314
1.29315
1.29316
1.29315
1.29314
1.29313
1.29311
1.2931
1.29313
1.29315
1.29317
1.29318
1.29318
1.29319
1.2932
1.29321
1.29321
1.29321
1.29315
1.29313
1.29313
1.29314
1.29314
1.29314
1.29313
1.29312
1.29314
1.29315
1.29316
1.29316
1.29317
1.29318
1.29319
1.29319
1.2932
1.29321
1.29321
1.29319
1.29317
1.29315
1.29314
1.29314
1.29314
1.29314
1.29315
1.29315
1.29315
1.29314
1.29314
1.29315
1.29316
1.29317
1.29318
1.29319
1.2932
1.29321
1.29319
1.29319
1.29319
1.29319
1.29319
1.29318
1.29318
1.29315
1.29311
1.29307
1.29306
1.29306
1.29308
1.29311
1.29314
1.29316
1.29318
1.2932
1.2932
1.29317
1.29317
1.29317
1.29316
1.29314
1.29311
1.29308
1.29304
1.29301
1.29299
1.29299
1.293
1.29303
1.29306
1.2931
1.29314
1.29317
1.29319
1.2932
1.29312
1.29312
1.2931
1.29308
1.29305
1.29302
1.29299
1.29297
1.29295
1.29294
1.29294
1.29296
1.29299
1.29302
1.29307
1.29312
1.29316
1.29318
1.29319
1.29308
1.29306
1.29304
1.29301
1.29298
1.29296
1.29295
1.29293
1.29292
1.29291
1.29291
1.29292
1.29295
1.29299
1.29305
1.2931
1.29315
1.29318
1.29319
1.29303
1.29301
1.29299
1.29297
1.29295
1.29294
1.29293
1.29291
1.2929
1.29289
1.29288
1.29288
1.29291
1.29296
1.29302
1.29309
1.29314
1.29317
1.29319
1.293
1.29298
1.29297
1.29295
1.29294
1.29293
1.29292
1.29291
1.29289
1.29288
1.29287
1.29286
1.29288
1.29292
1.29299
1.29307
1.29313
1.29317
1.29318
1.29299
1.29297
1.29296
1.29295
1.29294
1.29293
1.29292
1.2929
1.29289
1.29287
1.29285
1.29284
1.29285
1.29289
1.29295
1.29304
1.29312
1.29316
1.29318
1.29298
1.29297
1.29296
1.29295
1.29294
1.29293
1.29292
1.29291
1.29289
1.29287
1.29285
1.29283
1.29283
1.29286
1.29292
1.29301
1.29311
1.29316
1.29318
1.29297
1.29297
1.29296
1.29295
1.29295
1.29295
1.29294
1.29293
1.29291
1.29288
1.29285
1.29282
1.29281
1.29283
1.29288
1.29298
1.29309
1.29315
1.29317
1.29298
1.29297
1.29297
1.29297
1.29296
1.29296
1.29295
1.29294
1.29292
1.29289
1.29286
1.29282
1.2928
1.29281
1.29285
1.29294
1.29306
1.29314
1.29317
1.29298
1.29298
1.29298
1.29298
1.29297
1.29297
1.29296
1.29295
1.29293
1.2929
1.29287
1.29282
1.29279
1.29279
1.29282
1.2929
1.29303
1.29313
1.29316
1.293
1.29299
1.29299
1.29299
1.29298
1.29298
1.29297
1.29296
1.29294
1.29291
1.29288
1.29283
1.29279
1.29277
1.2928
1.29286
1.29299
1.29312
1.29316
1.29301
1.29301
1.293
1.293
1.29299
1.29299
1.29298
1.29297
1.29295
1.29292
1.29288
1.29284
1.29278
1.29276
1.29278
1.29283
1.29295
1.2931
1.29315
1.29303
1.29302
1.29301
1.29301
1.293
1.293
1.29299
1.29298
1.29295
1.29293
1.29289
1.29285
1.29279
1.29275
1.29276
1.2928
1.29291
1.29308
1.29315
1.29304
1.29303
1.29303
1.29302
1.29301
1.29301
1.293
1.29298
1.29296
1.29293
1.2929
1.29285
1.29279
1.29274
1.29275
1.29278
1.29287
1.29305
1.29314
1.29305
1.29305
1.29304
1.29303
1.29302
1.29302
1.293
1.29299
1.29297
1.29294
1.29291
1.29286
1.2928
1.29274
1.29274
1.29276
1.29284
1.29302
1.29313
1.29307
1.29306
1.29305
1.29304
1.29303
1.29302
1.29301
1.293
1.29298
1.29295
1.29291
1.29286
1.2928
1.29274
1.29272
1.29275
1.29282
1.29298
1.29312
1.29307
1.29307
1.29306
1.29305
1.29304
1.29303
1.29302
1.293
1.29298
1.29295
1.29292
1.29287
1.2928
1.29273
1.29271
1.29273
1.2928
1.29295
1.29311
1.29308
1.29308
1.29307
1.29306
1.29304
1.29303
1.29302
1.29301
1.29298
1.29296
1.29292
1.29287
1.2928
1.29273
1.2927
1.29271
1.29277
1.29292
1.2931
1.29309
1.29308
1.29307
1.29306
1.29305
1.29304
1.29302
1.29301
1.29299
1.29296
1.29292
1.29287
1.2928
1.29273
1.29269
1.2927
1.29276
1.2929
1.29309
1.29309
1.29309
1.29308
1.29306
1.29305
1.29304
1.29303
1.29301
1.29299
1.29296
1.29292
1.29287
1.2928
1.29273
1.29267
1.29268
1.29273
1.29287
1.29307
1.29309
1.29309
1.29308
1.29306
1.29305
1.29304
1.29303
1.29301
1.29299
1.29296
1.29292
1.29287
1.2928
1.29272
1.29267
1.29267
1.29272
1.29286
1.29306
1.2931
1.29309
1.29308
1.29307
1.29305
1.29304
1.29303
1.29301
1.29299
1.29296
1.29292
1.29287
1.2928
1.29272
1.29266
1.29265
1.2927
1.29284
1.29305
1.29309
1.29308
1.29307
1.29306
1.29305
1.29304
1.29302
1.293
1.29298
1.29295
1.29291
1.29286
1.29279
1.29271
1.29265
1.29264
1.29268
1.29283
1.29304
)
;

boundaryField
{
    leftWall
    {
        type            calculated;
        value           nonuniform List<scalar> 
50
(
1.30827
1.30753
1.30686
1.30614
1.30554
1.30486
1.30434
1.3037
1.30303
1.30185
1.30139
1.30006
1.29972
1.29712
1.2948
1.29379
1.29316
1.29309
1.29305
1.293
1.29295
1.29295
1.29297
1.29298
1.29298
1.29298
1.29298
1.29298
1.29298
1.29298
1.29299
1.29304
1.29312
1.29317
1.29318
1.29318
1.29318
1.29317
1.29317
1.29316
1.29315
1.29315
1.29314
1.29313
1.29312
1.29311
1.2931
1.29309
1.29307
1.29307
)
;
    }
    rightWall
    {
        type            calculated;
        value           nonuniform List<scalar> 
50
(
1.30155
1.30062
1.2998
1.29912
1.29856
1.29795
1.29719
1.29643
1.29533
1.29363
1.2933
1.29335
1.29333
1.29328
1.29326
1.29325
1.29324
1.29324
1.29323
1.29323
1.29322
1.29322
1.29322
1.29321
1.29321
1.29321
1.2932
1.2932
1.29319
1.29319
1.29319
1.29318
1.29318
1.29318
1.29317
1.29317
1.29316
1.29316
1.29315
1.29315
1.29314
1.29313
1.29312
1.29311
1.2931
1.29309
1.29307
1.29306
1.29305
1.29304
)
;
    }
    lowerWall
    {
        type            calculated;
        value           nonuniform List<scalar> 
62
(
1.30865
1.30851
1.30825
1.30787
1.30745
1.30696
1.30651
1.30603
1.30563
1.30524
1.30492
1.30458
1.3043
1.30398
1.30374
1.30343
1.30321
1.30292
1.30274
1.30254
1.3025
1.30247
1.30256
1.30218
1.30142
1.30066
1.29988
1.29907
1.29831
1.29729
1.29665
1.29512
1.29412
1.29573
1.29271
1.31119
1.30975
1.30572
1.30366
1.30106
1.29977
1.2994
1.2984
1.31153
1.30191
1.29768
1.2974
1.29739
1.29775
1.2991
1.3004
1.30612
1.30538
1.30382
1.30237
1.30095
1.29894
1.29855
1.29876
1.29897
1.30034
1.30191
)
;
    }
    atmosphere
    {
        type            calculated;
        value           nonuniform List<scalar> 
46
(
1.29315
1.29315
1.29315
1.29315
1.29315
1.29315
1.29315
1.29315
1.29314
1.29314
1.29314
1.29315
1.29316
1.29317
1.29318
1.29319
1.29319
1.29319
1.29319
1.2932
1.2932
1.2932
1.2932
1.2932
1.29319
1.29319
1.29319
1.29319
1.29318
1.29317
1.29316
1.29314
1.29313
1.29312
1.2931
1.29308
1.29305
1.29301
1.29296
1.29289
1.29281
1.29275
1.29273
1.29277
1.29292
1.29313
)
;
    }
    defaultFaces
    {
        type            empty;
    }
}


// ************************************************************************* //
