/*--------------------------------*- C++ -*----------------------------------*\
| =========                 |                                                 |
| \\      /  F ield         | OpenFOAM: The Open Source CFD Toolbox           |
|  \\    /   O peration     | Version:  2012                                  |
|   \\  /    A nd           | Website:  www.openfoam.com                      |
|    \\/     M anipulation  |                                                 |
\*---------------------------------------------------------------------------*/
FoamFile
{
    version     2.0;
    format      ascii;
    class       volScalarField;
    location    "0.9";
    object      rhogh;
}
// * * * * * * * * * * * * * * * * * * * * * * * * * * * * * * * * * * * * * //

dimensions      [1 -1 -2 0 0 0 0];


internalField   nonuniform List<scalar> 
2268
(
-29.4294
-29.4294
-29.4294
-29.4294
-29.4294
-29.4294
-29.4294
-29.4294
-29.4294
-29.4294
-29.4294
-29.4294
-29.4294
-29.4294
-29.4294
-29.4294
-29.4294
-29.4294
-29.4294
-29.4294
-29.4294
-29.4294
-29.4256
-88.2881
-88.2881
-88.2881
-88.2881
-88.2881
-88.2881
-88.2881
-88.2881
-88.2881
-88.2881
-88.2881
-88.2881
-88.2881
-88.2881
-88.2881
-88.2881
-88.2881
-88.2881
-88.2881
-88.2881
-88.2881
-88.2874
-88.2652
-147.147
-147.147
-147.147
-147.147
-147.147
-147.147
-147.147
-147.147
-147.147
-147.147
-147.147
-147.147
-147.147
-147.147
-147.147
-147.147
-147.147
-147.147
-147.147
-147.147
-147.147
-147.147
-147.108
-206.006
-206.006
-206.006
-206.006
-206.006
-206.006
-206.006
-206.006
-206.006
-206.006
-206.006
-206.006
-206.006
-206.006
-206.006
-206.006
-206.006
-206.006
-206.006
-206.006
-206.006
-206.006
-205.951
-264.864
-264.864
-264.864
-264.864
-264.864
-264.864
-264.864
-264.864
-264.864
-264.864
-264.864
-264.864
-264.864
-264.864
-264.864
-264.864
-264.864
-264.864
-264.864
-264.864
-264.864
-264.864
-264.803
-323.723
-323.723
-323.723
-323.723
-323.723
-323.723
-323.723
-323.723
-323.723
-323.723
-323.723
-323.723
-323.723
-323.723
-323.723
-323.723
-323.723
-323.723
-323.721
-323.722
-323.723
-323.723
-323.709
-382.582
-382.582
-382.582
-382.582
-382.582
-382.582
-382.582
-382.582
-382.582
-382.582
-382.582
-382.582
-382.582
-382.582
-382.582
-382.582
-382.582
-382.582
-382.572
-382.543
-382.546
-382.569
-382.579
-441.44
-441.44
-441.44
-441.44
-441.44
-441.44
-441.44
-441.44
-441.44
-441.44
-441.44
-441.44
-441.44
-441.44
-441.44
-441.44
-441.438
-441.38
-440.787
-438.999
-438.097
-441.437
-441.437
-27.0731
-26.5706
-10.9135
-0.0803705
-0.0710178
-3.0671
-18.305
-26.056
-27.4315
-27.4319
-24.418
-23.6724
-27.0018
-27.8123
-27.8122
-28.3482
-28.5604
-28.6332
-28.6332
-81.2192
-65.5213
-12.3357
-0.114422
-0.213065
-2.09315
-9.14578
-36.0151
-73.3332
-84.5594
-83.7462
-82.8806
-82.8807
-61.7586
-42.0379
-61.0273
-67.8065
-76.0717
-86.59
-135.365
-109.482
-6.46131
-0.190719
-0.266304
-0.744333
-0.744221
-23.0148
-124.011
-140.932
-140.427
-122.244
-134.542
-133.002
-85.8224
-29.9507
-29.9507
-89.9581
-144.317
-189.511
-150.048
-1.96856
-0.266984
-10.9143
-48.0964
-1.63355
-49.5837
-201.177
-198.854
-197.555
-186.59
-128.3
-169.651
-169.484
-53.6528
-44.5111
-158.135
-202.044
-233.579
-82.319
-2.53032
-12.215
-137.804
-162.117
-43.5
-102.882
-258.656
-258.654
-258.654
-258.182
-164.897
-152.896
-201.926
-141.201
-181.646
-258.763
-262.479
-195.42
-95.0695
-105.772
-111.442
-107.362
-186.808
-215.292
-257.919
-316.133
-316.133
-314.082
-210.868
-149.043
-62.6201
-152.203
-286.555
-318.896
-320.808
-320.808
-307.239
-251.699
-270.063
-66.6151
-5.63697
-33.5173
-311.092
-369.324
-373.612
-372.946
-277.095
-67.3921
-67.3759
-67.392
-67.3759
-302.059
-367.807
-362.829
-377.305
-415.371
-414.526
-273.597
-6.5042
-6.50422
-6.91314
-285.179
-427.06
-431.087
-411.307
-172.195
-77.7415
-77.7601
-77.7415
-77.76
-193.692
-367.79
-418.633
-394.09
-533.467
-533.467
-533.467
-533.467
-533.467
-533.467
-533.467
-533.467
-533.467
-533.467
-533.467
-533.41
-533.385
-533.315
-533.21
-532.592
-528.259
-500.542
-423.981
-364.806
-353.433
-449.217
-533.463
-658.662
-658.662
-658.662
-658.662
-658.662
-658.662
-653.812
-609.449
-598.425
-616.963
-630.436
-631.76
-629.484
-628.172
-612.855
-543.983
-392.132
-186.377
-65.1448
-42.2554
-104.977
-276.873
-586.506
-783.856
-783.856
-783.856
-782.965
-710.073
-430.135
-266.052
-240.629
-259.04
-354.31
-497.747
-550.718
-563.019
-493.587
-247.492
-73.5558
-2.63673e-05
-2.63673e-05
-2.63673e-05
-0.112612
-113.166
-444.965
-481.367
-909.051
-900.443
-895.47
-805.258
-306.798
-175.613
-175.613
-148.681
-87.6725
-87.6047
-187.945
-364.559
-283.763
-26.0118
-3.05785e-05
-3.05785e-05
-3.05785e-05
-7.5935e-05
-0.773064
-80.1133
-572.031
-818.592
-799.439
-895.902
-939.437
-961.744
-695.338
-386.385
-299.063
-297.647
-203.863
-13.8915
-13.8913
-15.3471
-24.3567
-21.8688
-4.51668
-0.539473
-3.47898e-05
-3.47898e-05
-0.00110443
-7.2572
-398.364
-976.995
-976.995
-976.988
-569.041
-888.269
-666.382
-370.89
-379.693
-324.296
-98.5533
-39.1264
-58.8246
-91.4436
-48.8535
-1.43341
-8.7611e-05
-0.0091847
-0.0435153
-0.000903355
-0.00581882
-0.00738466
-8.94942
-389.137
-1059.65
-1095.25
-1095.25
-424.835
-582.777
-111.158
-26.6414
-31.5227
-0.560086
-1.37173
-75.4368
-212.395
-212.15
-210.395
-38.6646
-9.70918e-05
-0.0243911
-0.472579
-4.5962
-18.9073
-17.028
-9.91465
-85.765
-822.14
-1213.51
-1213.51
-202.551
-66.9134
-9.00014
-0.170748
-0.0857495
-0.00184556
-0.247737
-3.06646
-43.08
-185.682
-230.82
-168.778
-0.000863241
-0.000870683
-9.67778
-131.366
-277.398
-231.995
-45.9901
-20.9485
-346.764
-1149.63
-1331.77
-253.165
-7.68127e-06
-0.452414
-0.0678832
-3.61549e-05
-0.000610373
-0.00212195
-3.67499e-07
-3.68561e-07
-3.67499e-07
-22.5477
-84.4157
-101.414
-61.992
-104.78
-376.322
-376.297
-376.322
-173.651
-22.8084
-227.357
-750.178
-888.576
-333.111
-8.30775e-06
-0.00438546
-0.00990727
-3.90756e-05
-4.1336e-05
-1.71481e-05
-1.94814e-06
-1.74243e-05
-3.75459e-05
-3.75464e-05
-3.75459e-05
-0.0670662
-0.873281
-131.144
-270.842
-316.174
-197.575
-69.553
-26.8444
-255.74
-490.031
-379.611
-358.353
-8.93422e-06
-3.68328e-05
-0.000124898
-0.000110159
-3.62036e-06
-4.20406e-07
-4.83699e-07
-1.37409e-06
-2.61604e-05
-0.00047085
-0.000839785
-2.38112e-07
-2.38112e-07
-2.38112e-07
-2.38112e-07
-2.38112e-07
-2.38112e-07
-2.38112e-07
-4.53127
-16.5475
-26.9361
-66.148
-214.204
-9.56069e-06
-9.56069e-06
-1.94372e-05
-8.1785e-05
-6.72168e-06
-4.49814e-07
-6.06768e-07
-6.32187e-07
-7.79299e-07
-7.34674e-05
-0.00152056
-0.00218669
-0.00100024
-2.54809e-07
-3.57917e-07
-1.62618e-06
-1.69365e-06
-2.13707e-06
-2.54809e-07
-2.54809e-07
-2.54809e-07
-2.54809e-07
-3.80806
-1.01872e-05
-1.01872e-05
-1.01872e-05
-1.01873e-05
-1.96636e-05
-1.7865e-06
-8.688e-07
-1.11993e-06
-1.41908e-06
-6.26846e-06
-0.000396222
-0.00232998
-0.00231909
-0.000108581
-2.79167e-07
-4.78012e-06
-4.98513e-06
-1.35921e-05
-5.36376e-05
-7.20897e-05
-4.62278e-05
-6.97422e-06
-0.000179051
-1.08136e-05
-1.08136e-05
-2.82822e-05
-0.000397451
-4.48074e-07
-1.91352e-06
-8.86819e-07
-1.17715e-06
-1.81717e-06
-1.58262e-06
-1.58266e-06
-0.000283923
-0.000834079
-3.09828e-05
-2.9641e-07
-2.69269e-06
-2.6256e-06
-1.02922e-05
-7.006e-05
-8.67487e-05
-8.33232e-05
-1.08237e-05
-1.1439e-05
-1.69935e-05
-1.14401e-05
-1.16394e-05
-0.00222625
-4.73805e-07
-8.11976e-07
-5.33086e-07
-9.53424e-07
-1.6554e-06
-2.08141e-06
-2.34186e-05
-6.75459e-05
-3.14787e-07
-2.06139e-06
-3.95417e-06
-2.80861e-06
-1.74778e-06
-4.78241e-07
-1.61554e-07
-1.61554e-07
-1.45314e-07
-1.07508e-05
-1.20654e-05
-2.1828e-05
-0.00166765
-0.0111336
-0.00182616
-3.09812e-07
-4.08747e-07
-3.87617e-07
-8.20109e-07
-1.2923e-06
-3.18446e-06
-2.19857e-05
-3.32025e-07
-3.32216e-07
-5.49265e-07
-2.42074e-06
-2.53222e-06
-1.54409e-06
-7.2483e-07
-3.00886e-07
-1.79197e-07
-1.53271e-07
-1.53272e-07
-1.26918e-05
-1.5437e-05
-0.00464205
-0.0133316
-0.0012532
-3.25888e-07
-3.25888e-07
-3.24701e-07
-7.1115e-07
-1.17282e-06
-2.73745e-06
-1.15128e-05
-2.95176e-06
-4.90463e-07
-5.76664e-07
-9.80053e-07
-9.50191e-07
-5.42879e-07
-3.9266e-07
-3.27798e-07
-2.42769e-07
-1.79534e-07
-1.66595e-07
-1.33182e-05
-1.33182e-05
-0.00279671
-0.0118283
-0.000216234
-1.44158e-06
-2.31059e-07
-2.65172e-07
-5.48722e-07
-1.08821e-06
-3.15129e-06
-3.06885e-06
-1.08941e-06
-3.13594e-07
-4.49325e-07
-4.8728e-07
-4.07238e-07
-2.31245e-07
-1.46388e-07
-1.05911e-07
-9.69292e-08
-1.13913e-07
-1.82437e-07
-1.39446e-05
-1.39446e-05
-0.00377159
-0.00161958
-2.67302e-05
-5.01473e-07
-2.03052e-07
-2.14459e-07
-4.28466e-07
-9.48889e-07
-2.7161e-06
-1.85927e-06
-3.80122e-07
-2.06082e-07
-2.42221e-07
-2.36847e-07
-1.51124e-07
-8.05176e-08
-5.30864e-08
-4.90448e-08
-6.28048e-08
-1.14789e-07
-2.3631e-07
-0.00925965
-0.436616
-0.0398316
-0.000734836
-5.33584e-06
-4.70975e-07
-1.79357e-07
-1.61974e-07
-3.40631e-07
-9.05889e-07
-1.83701e-06
-8.67906e-07
-1.82677e-07
-1.26074e-07
-1.24539e-07
-9.92844e-08
-5.10723e-08
-2.98685e-08
-3.0918e-08
-5.87196e-08
-1.97998e-07
-5.98051e-07
-1.66834e-06
-0.615017
-0.638783
-0.134256
-0.000408245
-2.74362e-06
-3.54725e-07
-1.21467e-07
-1.1594e-07
-2.92851e-07
-8.71754e-07
-1.03209e-06
-3.49265e-07
-9.77532e-08
-6.90609e-08
-5.62641e-08
-3.21934e-08
-1.7623e-08
-2.1447e-08
-7.28096e-08
-3.6993e-07
-1.67206e-06
-9.17341e-06
-4.08652e-05
-0.70416
-0.6588
-0.0938445
-0.000427251
-1.77181e-06
-2.07646e-07
-6.6922e-08
-8.71032e-08
-2.73449e-07
-7.13566e-07
-5.50616e-07
-1.4347e-07
-5.29687e-08
-3.46102e-08
-2.16608e-08
-1.33386e-08
-1.80466e-08
-8.17902e-08
-4.72409e-07
-2.44419e-06
-1.80908e-05
-0.000142086
-0.000223195
-0.600138
-0.1653
-0.0151177
-0.000312334
-1.62465e-06
-1.4111e-07
-3.77651e-08
-7.15413e-08
-2.56477e-07
-4.58158e-07
-2.46417e-07
-6.30573e-08
-2.5857e-08
-1.45284e-08
-1.15847e-08
-1.85882e-08
-9.60533e-08
-5.14903e-07
-2.53094e-06
-2.97714e-05
-0.000215239
-0.000275947
-0.000187607
-0.049086
-0.00498167
-0.000571462
-4.03504e-05
-1.06335e-06
-6.3143e-08
-2.05367e-08
-6.10602e-08
-2.2239e-07
-2.45583e-07
-1.01565e-07
-2.80319e-08
-1.10261e-08
-8.30711e-09
-1.56241e-08
-6.26444e-08
-2.11308e-07
-1.33106e-06
-5.46847e-05
-0.000268002
-0.000271308
-0.000184573
-4.57426e-08
-4.42079e-06
-6.68813e-06
-1.28469e-06
-9.19647e-07
-1.15643e-07
-1.1106e-08
-1.29323e-08
-5.20957e-08
-1.55467e-07
-1.16485e-07
-4.00733e-08
-1.20747e-08
-6.94785e-09
-8.61185e-09
-1.37676e-08
-1.37676e-08
-1.37675e-08
-6.25617e-05
-0.00021418
-0.000277764
-0.00012411
-7.34119e-08
-7.34128e-08
-1.47831e-09
-1.1702e-08
-1.9934e-08
-4.19128e-08
-9.28186e-09
-3.47424e-09
-9.39253e-09
-4.1498e-08
-8.73037e-08
-5.0443e-08
-1.62767e-08
-6.43203e-09
-1.57064e-08
-1.35506e-07
-1.01733e-06
-1.53979e-05
-0.000223135
-0.000400679
-0.000282546
-3.34634e-08
-1.81674e-06
-3.19263e-07
-1.02869e-07
-4.27758e-10
-1.41169e-09
-1.95985e-09
-3.07417e-09
-1.29847e-09
-1.81593e-09
-7.41046e-09
-2.9607e-08
-4.34247e-08
-1.69956e-08
-5.00767e-09
-2.51942e-09
-4.6484e-09
-2.39622e-08
-2.39619e-08
-1.9334e-05
-0.000384348
-0.000414374
-7.68813e-05
-3.46614e-08
-1.05031e-07
-1.20701e-07
-6.87496e-08
-9.90311e-11
-1.976e-10
-2.44628e-10
-3.64669e-10
-3.96994e-10
-1.14266e-09
-5.88201e-09
-1.80284e-08
-1.92903e-08
-9.73502e-09
-1.53843e-08
-8.5941e-08
-2.68434e-08
-2.47538e-08
-8.90288e-05
-0.000325264
-0.00019613
-4.50285e-05
-1.11552e-05
-3.57506e-08
-5.4084e-08
-4.83043e-08
-1.82224e-08
-1.85313e-11
-2.96263e-11
-4.53073e-11
-8.45745e-11
-1.86132e-10
-8.60322e-10
-4.45728e-09
-9.53831e-09
-8.45689e-09
-1.07635e-08
-7.904e-08
-6.5141e-07
-1.01947e-05
-0.00020986
-0.000804222
-0.000701533
-1.57512e-08
-8.116e-07
-1.49673e-06
-5.75944e-08
-1.62804e-08
-7.33393e-09
-2.53795e-09
-3.01263e-12
-4.9105e-12
-1.1177e-11
-2.95006e-11
-1.13584e-10
-6.57858e-10
-2.60967e-09
-3.62407e-09
-3.64607e-09
-1.19229e-08
-1.18679e-07
-1.5105e-06
-7.95408e-05
-0.000711104
-0.000829702
-0.000451739
-1.62396e-08
-1.686e-07
-2.59808e-07
-2.98046e-08
-3.3493e-09
-8.66112e-10
-2.63379e-10
-4.49251e-13
-8.99487e-13
-3.22843e-12
-1.2482e-11
-6.70848e-11
-3.85139e-10
-1.38805e-09
-3.7086e-09
-1.38407e-08
-2.98344e-08
-2.84891e-08
-3.13324e-08
-1.40164e-05
-0.000637186
-0.00078648
-2.21096e-05
-1.67276e-08
-5.31535e-08
-4.351e-08
-5.31956e-09
-4.8969e-10
-8.95586e-11
-2.69547e-11
-6.43107e-14
-1.85297e-13
-1.05225e-12
-7.06707e-12
-5.34687e-11
-3.35084e-10
-1.60486e-09
-9.15634e-09
-7.23458e-08
-2.24007e-07
-2.93136e-08
-4.79325e-06
-0.000231526
-0.000191972
-0.000119492
-4.78394e-06
-1.72161e-08
-1.76388e-08
-5.80085e-09
-6.89597e-10
-5.33445e-11
-8.49487e-12
-2.79849e-12
-9.03912e-15
-5.89419e-14
-7.95055e-13
-8.96786e-12
-8.84039e-11
-6.70919e-10
-4.15973e-09
-2.95999e-08
-2.79451e-07
-3.28904e-06
-6.78786e-05
-0.000923279
-0.00151724
-0.000149571
-1.89117e-08
-1.31297e-06
-5.3663e-08
-8.32592e-09
-8.82104e-10
-7.57166e-11
-4.91347e-12
-7.43183e-13
-2.65707e-13
-3.77245e-15
-6.66744e-14
-1.54985e-12
-2.64795e-11
-3.1614e-10
-2.48862e-09
-1.29285e-08
-5.70407e-08
-3.40288e-07
-1.18462e-05
-0.000905909
-0.00229951
-0.00155906
-5.67614e-09
-1.94556e-08
-2.76343e-07
-4.23825e-08
-3.31613e-09
-1.47154e-10
-7.15493e-12
-3.8332e-13
-6.23528e-14
-2.11283e-14
-4.98589e-15
-2.27417e-13
-6.60467e-12
-1.25211e-10
-1.63431e-09
-1.44307e-08
-7.64402e-08
-1.6527e-07
-4.06697e-07
-1.22692e-05
-0.00088536
-0.00236119
-0.000719093
-5.80189e-09
-2.16498e-08
-5.54839e-08
-1.36075e-08
-7.99572e-10
-2.31283e-11
-6.05125e-13
-2.84181e-14
-5.12691e-15
-1.52924e-15
-1.6554e-14
-8.56536e-13
-2.32601e-11
-4.23237e-10
-5.61782e-09
-5.57065e-08
-2.34784e-07
-2.65382e-07
-6.48909e-07
-0.000123603
-0.00181697
-0.00115145
-6.59383e-09
-8.02987e-08
-7.15861e-08
-1.01256e-08
-2.66789e-09
-1.38251e-10
-2.81468e-12
-4.04478e-14
-2.05001e-15
-3.37953e-16
-9.10213e-17
-7.13431e-14
-3.13264e-12
-7.143e-11
-1.1205e-09
-1.34546e-08
-1.33159e-07
-9.66584e-07
-2.82122e-06
-6.65585e-07
-1.29438e-05
-0.00186412
-0.000107142
-6.76233e-09
-1.21504e-07
-9.32213e-08
-2.10108e-09
-4.71812e-10
-1.96824e-11
-2.57658e-13
-2.18793e-15
-1.56734e-16
-2.10529e-17
-4.86148e-18
-2.43217e-13
-9.13109e-12
-1.73585e-10
-2.23397e-09
-2.15728e-08
-1.58346e-07
-9.5917e-07
-1.65206e-05
-0.000638985
-0.00437771
-0.00141651
-1.38743e-09
-3.79876e-08
-1.10762e-07
-5.97619e-08
-5.10971e-10
-7.71083e-11
-2.283e-12
-1.54221e-14
-8.44128e-17
-7.62531e-18
-9.07513e-19
-1.96902e-19
-8.39524e-13
-2.7148e-11
-4.27131e-10
-4.36115e-09
-3.20293e-08
-1.73096e-07
-1.53746e-06
-0.00016488
-0.00340755
-0.00504852
-0.00135295
-1.42086e-09
-3.11982e-08
-5.23872e-08
-1.58873e-08
-1.40771e-10
-1.22958e-11
-2.20631e-13
-5.45157e-16
-4.10632e-18
-3.17669e-19
-3.24856e-20
-6.2677e-21
-2.39687e-12
-7.0047e-11
-9.68314e-10
-8.41191e-09
-5.11105e-08
-2.33499e-07
-6.07748e-06
-0.00130359
-0.00516798
-0.0051647
-7.37953e-05
-1.45469e-09
-2.31823e-08
-1.78571e-08
-3.03076e-09
-3.68858e-11
-1.77644e-12
-1.5624e-14
-6.75669e-18
-8.15377e-20
-5.55407e-21
-5.55765e-22
-1.17698e-22
-6.6869e-12
-1.77771e-10
-2.19494e-09
-1.64968e-08
-8.11268e-08
-1.54092e-07
-1.54093e-07
-0.00106005
-0.00528408
-0.00205323
-8.84128e-09
-9.75971e-09
-2.1956e-08
-8.43081e-09
-5.14984e-10
-9.01418e-12
-2.31039e-13
-7.51077e-16
-1.83751e-20
-7.22395e-22
-3.64951e-23
-3.7933e-24
-1.03695e-24
-3.09976e-11
-7.01898e-10
-7.51086e-09
-5.20586e-08
-2.99814e-07
-9.12342e-06
-0.000847256
-0.00353285
-0.00184106
-5.2864e-06
-9.04104e-09
-1.72308e-08
-1.706e-08
-3.12731e-09
-7.35411e-11
-1.64227e-12
-2.25602e-14
-1.95212e-17
-2.84674e-25
-2.3535e-29
-2.89632e-31
-5.40968e-32
-1.06244e-32
-533.463
-400.394
-358.288
-464.934
-516.808
-424.605
-486.87
-616.754
-481.367
-534.5
-735.099
-740.444
-723.966
-840.049
-858.711
-858.711
-976.987
-976.98
-976.98
-889.14
-1095.24
-860.405
-620.561
-414.922
-987.193
-313.807
-158.566
-158.569
-1265.22
-450.773
-174.022
-174.019
-966.754
-813.064
-343.695
-218.329
-119.015
-254.52
-259.432
-180.03
-53.5266
-22.0664
-22.0642
-33.0687
-2.54809e-07
-30.6036
-106.547
-112.694
-2.71506e-07
-2.71506e-07
-0.156509
-0.561442
-4.03552e-06
-1.03918e-05
-1.03979e-05
-0.164082
-6.80038e-06
-9.42863e-06
-0.00537108
-0.379539
-1.53271e-07
-2.91093e-06
-0.00167539
-0.0143313
-2.45361e-07
-6.75992e-07
-8.22861e-06
-0.000870786
-3.2323e-07
-6.92392e-07
-4.00457e-06
-3.79131e-05
-4.47248e-07
-5.49052e-07
-5.25909e-07
-3.26605e-07
-4.19271e-06
-7.97019e-06
-1.01819e-05
-1.14108e-05
-5.5508e-05
-4.29046e-05
-3.84773e-05
-4.63753e-05
-0.000123329
-1.16777e-06
-9.99367e-06
-3.84448e-05
-4.40647e-08
-1.214e-06
-2.46939e-06
-2.06162e-06
-4.57426e-08
-4.57426e-08
-4.57426e-08
-4.72886e-08
-1.06928e-07
-1.51382e-07
-1.7992e-07
-1.96768e-07
-1.34023e-07
-1.42426e-07
-1.45969e-07
-1.46134e-07
-5.81742e-08
-5.40127e-08
-4.97546e-08
-4.53388e-08
-1.21735e-08
-1.0819e-08
-9.62879e-09
-8.5146e-09
-1.60723e-09
-1.35894e-09
-1.16959e-09
-1.02073e-09
-1.52531e-10
-1.2453e-10
-1.0654e-10
-9.18438e-11
-1.58581e-11
-1.27891e-11
-1.05415e-11
-8.83888e-12
-1.69008e-12
-1.34587e-12
-1.09614e-12
-9.09964e-13
-1.5457e-13
-1.21405e-13
-9.77627e-14
-8.04905e-14
-1.19213e-14
-9.28226e-15
-7.43295e-15
-6.10486e-15
-8.28345e-16
-6.36362e-16
-5.04054e-16
-4.10768e-16
-4.81857e-17
-3.68688e-17
-2.9101e-17
-2.36284e-17
-2.43078e-18
-1.82884e-18
-1.42781e-18
-1.15094e-18
-9.7696e-20
-7.27344e-20
-5.60885e-20
-4.46939e-20
-3.0267e-21
-2.22855e-21
-1.69234e-21
-1.32433e-21
-5.92925e-23
-4.36639e-23
-3.30744e-23
-2.58591e-23
-5.54405e-25
-4.12578e-25
-3.16492e-25
-2.49772e-25
-2.92787e-33
-1.47155e-33
-7.5215e-34
-4.01496e-34
-501.964
-467.453
-36.0881
-18.9988
-11.5111
-15.5057
-262.585
-514.834
-520.156
-390.482
-114.593
-93.9707
-128.615
-263.852
-244.279
-246.304
-440.808
-485.065
-438.126
-619.765
-498.257
-32.1539
-114.103
-33.1475
-81.1227
-473.069
-635.347
-526.957
-193.363
-116.111
-116.075
-165.951
-462.809
-522.834
-522.827
-519.402
-434.855
-336.942
-715.968
-234.084
-59.7182
-530.261
-696.365
-698.496
-730.081
-637.382
-200.282
-52.6392
-159.039
-228.011
-209.941
-206.341
-231.055
-342.877
-266.04
-79.0526
-12.8345
-700.256
-271.461
-380.86
-831.007
-846.678
-846.687
-846.678
-693.41
-75.657
-43.0108
-73.2271
-264.333
-289.266
-289.105
-148.693
-79.5403
-0.3308
-0.32443
-0.324526
-580.458
-346.518
-618.842
-585.565
-439.191
-632.239
-789.173
-770.828
-575.385
-326.337
-17.1767
-0.608079
-10.713
-34.8222
-51.5892
-2.21107
-1.59483
-1.09356
-0.369255
-279.528
-248.388
-255.997
-5.31077
-5.266
-97.3509
-280.321
-502.383
-367.352
-291.247
-106.775
-0.681694
-0.0112448
-0.0112448
-0.0112448
-0.0706755
-1.60484
-0.0253794
-0.0253883
-217.544
-92.7561
-0.0110462
-0.0160493
-5.83434
-25.4805
-0.0774911
-0.0772275
-0.0772292
-0.0772275
-18.4038
-14.9386
-19.7389
-11.2392
-0.926759
-0.0255273
-0.0255109
-0.0368806
-0.127605
-175.625
-288.744
-0.0121627
-0.220029
-26.726
-58.2023
-20.8926
-0.196723
-0.0847556
-2.36368
-14.044
-77.8972
-77.9173
-53.4793
-1.53462
-0.0639663
-0.0714716
-0.190628
-0.195831
-113.113
-322.278
-164.817
-16.8667
-64.4016
-76.0648
-25.2011
-0.155641
-0.0613148
-0.00314873
-0.0031487
-5.08897
-15.1889
-10.5309
-0.0995649
-0.142619
-0.0220197
-0.207522
-0.150067
-19.3257
-126.772
-132.559
-39.0404
-75.8934
-53.5917
-0.00144061
-0.0084217
-0.0289184
-0.0768803
-0.0469221
-0.00568105
-0.00568029
-0.155866
-0.0113393
-0.00162925
-2.87078e-06
-0.11829
-1.93859e-07
-18.6864
-7.38578
-7.38613
-2.85246
-81.503
-0.00171171
-0.00171078
-0.0568636
-0.09369
-0.0601235
-0.00610945
-0.00610863
-0.00610909
-0.00612666
-0.00616279
-3.19296e-06
-3.19299e-06
-2.08478e-07
-2.08363e-07
-112.686
-39.7006
-2.46311
-2.46105
-23.9066
-7.70936
-0.00136609
-0.0434716
-0.100287
-0.0857442
-0.00656601
-0.00690429
-0.0013214
-2.39832e-05
-3.02226e-05
-0.000106605
-1.93759e-05
-4.24122e-07
-2.87692e-07
-14.1343
-37.9571
-29.7578
-29.3749
-4.57174e-05
-3.13333
-0.00145569
-0.032363
-0.0911756
-0.0368894
-0.0271606
-0.018068
-0.00251418
-2.55085e-05
-0.000264812
-0.000264811
-2.53105e-05
-1.25774e-06
-1.95353e-06
-2.9924
-13.63
-19.3493
-10.8445
-4.85289e-05
-0.0167068
-0.0144383
-0.0103576
-0.00432588
-2.70353e-05
-2.69514e-05
-2.70353e-05
-2.69514e-05
-2.85008e-05
-0.000361444
-0.000122128
-5.27991e-06
-6.2359e-06
-9.51904e-05
-0.886267
-1.13976
-1.09044
-0.258563
-5.13403e-05
-0.00859379
-0.0156979
-0.00198633
-0.000888508
-0.000890618
-0.000456084
-0.000198846
-0.000238355
-0.000381803
-0.000109189
-4.56896e-07
-4.56895e-07
-5.3026e-05
-0.000599457
-0.276137
-1.04353
-0.675234
-5.41517e-05
-5.41518e-05
-0.00175006
-0.0103469
-0.0015345
-0.00385233
-0.00384807
-0.000971343
-0.000598421
-0.000687377
-0.000687391
-0.00020874
-5.54981e-06
-4.81916e-07
-0.000427564
-0.000710158
-0.0289372
-0.289923
-0.568381
-0.37984
-0.053704
-0.000698927
-0.0027189
-0.00740996
-0.00740776
-0.00224665
-3.4487e-05
-1.83049e-06
-0.000139878
-0.000209232
-0.000137411
-1.26034e-05
-5.06935e-07
-0.000735486
-0.000747325
-0.000359882
-0.00673503
-0.0503604
-0.124199
-0.0863155
-0.0167345
-0.0135844
-0.0017968
-7.93215e-08
-7.92923e-08
-7.93215e-08
-1.92004e-06
-7.93215e-08
-7.92923e-08
-7.93215e-08
-8.72614e-06
-5.31957e-07
-0.000399045
-0.000306861
-3.26589e-07
-3.26605e-07
-1.26516e-05
-1.74487e-05
-8.30218e-08
-8.30523e-08
-8.30218e-08
-8.30523e-08
-1.2743e-06
-1.10659e-06
-8.38395e-07
-1.8177e-05
-6.6417e-06
-1.98569e-06
-1.25615e-06
-1.07373e-06
-5.63316e-07
-5.82926e-05
-1.05542e-05
-1.19302e-05
-1.20958e-05
-1.11808e-05
-1.00091e-05
-8.67305e-06
-6.01933e-06
-3.24716e-06
-2.16359e-06
-1.95994e-06
-1.18935e-06
-4.42166e-07
-2.03436e-05
-0.000193406
-0.000216165
-3.80615e-05
-5.41713e-06
-6.58991e-06
-6.58991e-06
-1.10284e-05
-4.63613e-05
-4.01754e-05
-1.86989e-05
-1.11745e-05
-6.95318e-06
-3.8718e-06
-2.21878e-06
-1.03861e-06
-4.64235e-07
-3.87622e-07
-7.50676e-07
-4.09289e-07
-0.0011165
-0.00165545
-0.000564676
-3.33129e-05
-3.61785e-05
-2.33287e-05
-1.90004e-05
-4.56521e-05
-1.14885e-05
-2.80253e-06
-1.44157e-06
-6.41884e-07
-2.86602e-07
-1.34322e-07
-7.25587e-08
-1.36495e-07
-6.61375e-07
-4.05638e-06
-1.1331e-06
-0.00122208
-0.0017492
-0.00170434
-0.000208539
-5.75758e-05
-7.91327e-05
-3.48002e-05
-7.63658e-07
-8.56106e-08
-8.56419e-08
-9.54947e-08
-7.9086e-08
-3.69472e-08
-2.7132e-08
-4.84923e-08
-1.98381e-07
-1.01268e-06
-9.97137e-06
-9.77767e-05
-0.000135481
-0.00158317
-0.00189014
-0.000702072
-5.93794e-05
-0.000245634
-0.000197962
-7.78667e-08
-1.43735e-07
-1.55142e-07
-1.19406e-07
-4.61301e-08
-1.85315e-08
-1.67945e-08
-4.79649e-08
-1.9208e-07
-7.81702e-07
-1.05625e-05
-0.000334623
-0.000712672
-0.000426469
-0.00196217
-0.00121093
-6.16408e-05
-0.000392202
-0.000541069
-2.03728e-07
-1.97988e-07
-1.38721e-07
-4.68476e-08
-1.36439e-08
-6.22446e-09
-6.53532e-09
-2.11874e-08
-9.06238e-08
-3.91818e-07
-6.02539e-06
-0.000389693
-0.00103321
-0.00044218
-0.00201527
-0.00151727
-0.000111239
-0.000622434
-0.000642763
-1.38696e-07
-1.01105e-07
-4.14201e-08
-1.18218e-08
-3.29613e-09
-1.54579e-09
-1.94233e-09
-8.37431e-09
-4.61284e-08
-2.699e-07
-2.86712e-06
-0.000101281
-0.000866878
-0.000623263
-0.000735973
-0.00157094
-0.000310935
-0.000603178
-0.00062503
-3.70724e-08
-2.22685e-08
-9.08092e-09
-2.56828e-09
-6.99243e-10
-3.16152e-10
-4.96617e-10
-2.85472e-09
-1.85071e-08
-1.17214e-07
-4.01438e-07
-4.01466e-07
-0.000326089
-0.00483298
-0.000671149
-0.00155908
-0.000369398
-0.000326563
-0.000559714
-6.7234e-09
-4.05273e-09
-1.72001e-09
-4.95952e-10
-1.33489e-10
-5.45806e-11
-8.80424e-11
-5.59008e-10
-3.47958e-09
-1.59216e-08
-3.10456e-08
-4.37754e-07
-0.000478618
-0.00576775
-0.000687765
-0.000685584
-0.000324315
-3.23612e-05
-0.00228523
-8.03304e-10
-5.01563e-10
-2.34932e-10
-7.51384e-11
-2.14712e-11
-7.36836e-12
-7.16619e-12
-3.61725e-11
-1.9401e-10
-9.62321e-10
-9.84321e-09
-4.71587e-07
-0.000233889
-0.00464449
-0.00150849
-0.000479077
-0.000246627
-3.33946e-05
-0.00438313
-7.12258e-11
-4.53476e-11
-2.39842e-11
-9.10433e-12
-2.88963e-12
-7.93363e-13
-2.10026e-13
-1.60206e-13
-3.84307e-12
-1.25247e-10
-4.20698e-09
-1.60754e-07
-6.89871e-06
-7.77334e-05
-0.0282383
-0.00240679
-0.000191165
-3.44306e-05
-0.00452013
-6.7077e-12
-4.25072e-12
-2.37725e-12
-9.99989e-13
-3.29158e-13
-8.93851e-14
-2.38983e-14
-5.30125e-15
-9.89734e-15
-2.19863e-13
-1.71555e-12
-6.32454e-38
4.10887e-39
5.58478e-22
-0.0446066
-0.0111028
-0.000182609
-3.54649e-05
-0.00465605
-6.8428e-13
-4.31729e-13
-2.4415e-13
-1.03804e-13
-3.29173e-14
-8.18936e-15
-2.3399e-15
-5.09098e-16
-6.5992e-17
-8.22455e-18
-1.47259e-20
-1.47267e-20
-3.39171e-21
9.49e-22
-0.0426366
-0.02265
-0.00036993
-3.65009e-05
-0.00389013
-6.01765e-14
-3.80603e-14
-2.18649e-14
-9.45631e-15
-2.96776e-15
-6.376e-16
-1.90072e-16
-4.996e-17
-5.93835e-18
-7.44412e-19
-1.00776e-19
-2.4407e-20
-1.76094e-21
1.17523e-21
-0.00165058
-0.0359106
-0.00556637
-6.85355e-05
-0.000509182
-4.57429e-15
-2.93501e-15
-1.73163e-15
-7.63554e-16
-2.47209e-16
-4.34696e-17
-1.25305e-17
-4.13347e-18
-4.52136e-19
-5.15969e-20
-3.91575e-21
-5.31572e-22
-8.45857e-23
9.41355e-22
3.18945e-21
-0.0943
-0.0217813
-0.000225088
-3.71553e-06
-3.06512e-16
-1.9811e-16
-1.21012e-16
-5.6065e-17
-1.9427e-17
-2.78128e-18
-6.77905e-19
-2.79412e-19
-3.03753e-20
-3.11114e-21
-2.43477e-22
-2.78812e-23
-5.81743e-24
5.03041e-22
4.95693e-21
-0.204443
-0.0620522
-0.000471921
-1.46634e-06
-1.75653e-17
-1.13567e-17
-7.09376e-18
-3.48673e-18
-1.3271e-18
-1.68549e-19
-3.21117e-20
-1.42694e-20
-1.80322e-21
-1.91065e-22
-1.55898e-23
-1.33225e-24
-2.20368e-25
2.00639e-22
5.33501e-21
-0.209799
-0.120337
-0.00147606
-1.50474e-06
-8.50567e-19
-5.49308e-19
-3.5167e-19
-1.85071e-19
-7.94504e-20
-9.43587e-21
-1.43786e-21
-5.77001e-22
-9.48829e-23
-1.04103e-23
-8.70106e-25
-6.3438e-26
-7.07423e-27
6.35666e-23
4.5814e-21
-0.215071
-0.174462
-0.00829456
-2.53846e-06
-3.27047e-20
-2.1052e-20
-1.38054e-20
-7.62087e-21
-3.59608e-21
-4.23474e-22
-6.18954e-23
-1.96645e-23
-3.3485e-24
-3.84327e-25
-3.35191e-26
-2.3525e-27
-2.04793e-28
1.6024e-23
3.08221e-21
-0.209453
-0.206231
-0.0181013
-5.47301e-06
-9.50061e-22
-6.06013e-22
-4.1385e-22
-2.40773e-22
-1.25915e-22
-1.72575e-23
-2.34258e-24
-5.55157e-25
-9.2997e-26
-1.11117e-26
-1.0194e-27
-7.28531e-29
-5.70875e-30
2.91487e-24
1.51758e-21
-0.073077
-0.300776
-0.0351077
-1.05302e-05
-1.86387e-23
-1.20984e-23
-8.46551e-24
-5.0632e-24
-2.68853e-24
-4.0706e-25
-5.2654e-26
-1.04486e-26
-1.6023e-27
-1.82646e-28
-1.64114e-29
-1.1452e-30
-8.33861e-32
3.36241e-25
4.79803e-22
-0.0135472
-0.307699
-0.0587445
-1.89892e-05
-1.81291e-25
-1.19362e-25
-8.60883e-26
-5.35543e-26
-2.9743e-26
-5.73675e-27
-7.30224e-28
-1.15135e-28
-1.61687e-29
-1.81225e-30
-1.65855e-31
-1.18761e-32
-8.70369e-34
1.65874e-26
6.5416e-23
5.72118e-22
-0.314319
-0.0712009
-1.94285e-05
-1.69606e-34
-3.60605e-35
-7.01097e-36
-7.96145e-37
-4.46975e-38
-2.15018e-39
-9.87301e-41
-2.99695e-42
-1.75601e-45
2.70205e-44
1.54955e-44
5.49915e-45
2.54101e-45
2.48297e-45
1.20709e-45
1.07111e-21
-0.212805
-0.0895427
-0.0053013
)
;

boundaryField
{
    leftWall
    {
        type            calculated;
        value           nonuniform List<scalar> 
50
(
-29.4294
-88.2881
-147.147
-206.006
-264.864
-323.723
-382.582
-441.44
-533.467
-658.662
-783.856
-909.051
-895.902
-569.041
-424.835
-202.551
-253.165
-333.111
-358.353
-214.204
-3.80806
-0.000179051
-1.1439e-05
-1.20654e-05
-1.26918e-05
-1.33182e-05
-1.39446e-05
-0.00925965
-0.615017
-0.70416
-0.600138
-0.049086
-4.42079e-06
-1.47831e-09
-4.27758e-10
-9.90311e-11
-1.85313e-11
-3.01263e-12
-4.49251e-13
-6.43107e-14
-9.03912e-15
-3.77245e-15
-4.98589e-15
-1.6554e-14
-7.13431e-14
-2.43217e-13
-8.39524e-13
-2.39687e-12
-6.6869e-12
-3.09976e-11
)
;
    }
    rightWall
    {
        type            calculated;
        value           nonuniform List<scalar> 
50
(
-28.6332
-86.59
-144.317
-202.044
-262.479
-320.808
-377.305
-394.09
-438.126
-336.942
-12.8345
-0.324526
-0.369255
-0.0253883
-0.127605
-0.195831
-0.150067
-1.93859e-07
-2.08363e-07
-2.87692e-07
-1.95353e-06
-9.51904e-05
-0.000599457
-0.000710158
-0.000747325
-0.000306861
-1.05542e-05
-1.10284e-05
-1.90004e-05
-3.48002e-05
-0.000197962
-0.000541069
-0.000642763
-0.00062503
-0.000559714
-0.00228523
-0.00438313
-0.00452013
-0.00465605
-0.00389013
-0.000509182
-3.71553e-06
-1.46634e-06
-1.50474e-06
-2.53846e-06
-5.47301e-06
-1.05302e-05
-1.89892e-05
-1.94285e-05
-0.0053013
)
;
    }
    lowerWall
    {
        type            calculated;
        value           nonuniform List<scalar> 
62
(
0
0
0
0
0
0
0
0
0
0
0
0
0
0
0
0
0
0
0
0
0
0
0
-29.4256
-88.2652
-147.108
-205.951
-264.803
-323.709
-382.579
-441.437
-470.866
-353.412
-316.246
-410.378
-27.0731
-81.2192
-135.365
-189.511
-233.579
-195.42
-307.239
-415.371
0
0
0
0
0
0
0
0
0
0
0
0
0
0
0
0
0
0
0
)
;
    }
    atmosphere
    {
        type            calculated;
        value           nonuniform List<scalar> 
46
(
-3.13401e-11
-7.09652e-10
-7.59383e-09
-5.26337e-08
-3.03126e-07
-9.22421e-06
-0.000856616
-0.00357188
-0.0018614
-5.3448e-06
-9.14091e-09
-1.74212e-08
-1.72484e-08
-3.16185e-09
-7.43535e-11
-1.66041e-12
-2.28094e-14
-1.97368e-17
-0
-0
-0
-0
-0
-0
-0
-0
-0
-0
-0
-0
-0
-0
-0
-0
-0
-0
-0
-0
-0
-0
-0
-0
-0
-0.215156
-0.0905319
-0.00535986
)
;
    }
    defaultFaces
    {
        type            empty;
    }
}


// ************************************************************************* //
