/*--------------------------------*- C++ -*----------------------------------*\
| =========                 |                                                 |
| \\      /  F ield         | OpenFOAM: The Open Source CFD Toolbox           |
|  \\    /   O peration     | Version:  2012                                  |
|   \\  /    A nd           | Website:  www.openfoam.com                      |
|    \\/     M anipulation  |                                                 |
\*---------------------------------------------------------------------------*/
FoamFile
{
    version     2.0;
    format      ascii;
    class       volScalarField;
    location    "0.9";
    object      volumeFraction1;
}
// * * * * * * * * * * * * * * * * * * * * * * * * * * * * * * * * * * * * * //

dimensions      [0 0 0 0 0 0 0];


internalField   nonuniform List<scalar> 
2268
(
1
1
1
1
1
1
1
1
1
1
1
1
1
1
1
1
1
1
1
1
1
1
0.999873
1
1
1
1
1
1
1
1
1
1
1
1
1
1
1
1
1
1
1
1
1
0.999992
0.99974
1
1
1
1
1
1
1
1
1
1
1
1
1
1
1
1
1
1
1
1
1
1
0.999735
1
1
1
1
1
1
1
1
1
1
1
1
1
1
1
1
1
1
1
1
1
1
0.999735
1
1
1
1
1
1
1
1
1
1
1
1
1
1
1
1
1
0.999999
1
1
1
1
0.999769
1
1
1
1
1
1
1
1
1
1
1
1
1
1
1
1
1
0.999999
0.999995
0.999998
1
1
0.999957
1
1
1
1
1
1
1
1
1
1
1
1
1
1
1
1
1
1
0.999974
0.999899
0.999907
0.999968
0.999993
1
1
1
1
1
1
1
1
1
1
1
1
1
1
1
1
0.999994
0.999863
0.998519
0.994469
0.992427
0.999993
0.999993
0.919934
0.902859
0.370836
0.00273096
0.00241316
0.104219
0.621997
0.885376
0.932112
0.932126
0.829714
0.804382
0.917512
0.945051
0.945051
0.963261
0.970474
0.972946
0.972946
0.919934
0.742131
0.139721
0.00129601
0.00241329
0.0237082
0.10359
0.407927
0.830613
0.957767
0.948556
0.938752
0.938753
0.699513
0.476144
0.691229
0.768015
0.86163
0.980766
0.919934
0.74403
0.0439106
0.00129612
0.00180978
0.00505844
0.00505768
0.156407
0.842774
0.957767
0.954333
0.830761
0.914339
0.903871
0.583243
0.203543
0.203543
0.611349
0.980769
0.919934
0.72837
0.00955587
0.00129601
0.0529808
0.233471
0.00792963
0.240691
0.976559
0.965285
0.958979
0.905752
0.6228
0.823528
0.822715
0.260444
0.216068
0.767623
0.980769
0.88188
0.310797
0.00955328
0.0461179
0.520281
0.612074
0.164235
0.388431
0.976562
0.976553
0.976555
0.974769
0.622573
0.577261
0.762376
0.533108
0.685809
0.976966
0.990996
0.603663
0.293675
0.326737
0.34425
0.331647
0.57706
0.66505
0.796729
0.976553
0.976555
0.970218
0.651385
0.460403
0.193437
0.470164
0.885185
0.985089
0.990996
0.990996
0.803068
0.657897
0.705897
0.17412
0.014734
0.0876083
0.813138
0.965347
0.976555
0.974815
0.724277
0.176151
0.176109
0.176151
0.176108
0.789528
0.961381
0.94837
0.986208
0.940945
0.93903
0.619782
0.014734
0.0147341
0.0156604
0.646018
0.967423
0.976546
0.931738
0.390076
0.176109
0.176151
0.176109
0.176151
0.438773
0.83316
0.948334
0.892737
1
1
1
1
1
1
1
1
1
1
1
0.999893
0.999847
0.999714
0.999518
0.99836
0.990238
0.938281
0.794765
0.683839
0.66252
0.84207
0.999993
1
1
1
1
1
1
0.992637
0.925283
0.908547
0.936693
0.957147
0.959157
0.955701
0.953709
0.930455
0.825891
0.595346
0.282963
0.0989049
0.0641534
0.159379
0.420357
0.890451
1
1
1
0.998863
0.905871
0.548742
0.339415
0.306981
0.330469
0.452009
0.634997
0.702575
0.718268
0.62969
0.315737
0.0938384
3.36379e-08
3.36379e-08
3.36379e-08
0.000143664
0.14437
0.567662
0.614101
1
0.990531
0.985061
0.885823
0.337493
0.193183
0.193183
0.163556
0.096444
0.0963694
0.206749
0.401032
0.312153
0.0286142
3.36379e-08
3.36379e-08
3.36379e-08
8.35322e-08
0.000850408
0.0881286
0.629262
0.900491
0.879422
0.866237
0.908331
0.929899
0.672314
0.373591
0.289161
0.287791
0.197113
0.0134315
0.0134313
0.0148389
0.0235502
0.0211447
0.00436713
0.00052161
3.36379e-08
3.36379e-08
1.06786e-06
0.00701691
0.385173
0.944645
0.944645
0.944638
0.49079
0.766119
0.574745
0.319887
0.32748
0.279701
0.0850008
0.033746
0.0507354
0.0788687
0.0421355
0.0012363
7.55632e-08
7.92167e-06
3.75313e-05
7.79131e-07
5.01865e-06
6.36916e-06
0.00771875
0.335625
0.913937
0.944638
0.944638
0.330705
0.453652
0.0865289
0.0207385
0.0245383
0.000435988
0.0010678
0.0587224
0.165335
0.165144
0.163778
0.0300977
7.55793e-08
1.89868e-05
0.000367871
0.00357783
0.0147181
0.0132551
0.00771788
0.0667622
0.63998
0.944638
0.944631
0.14367
0.0474621
0.00638385
0.000121113
6.08226e-05
1.30907e-06
0.000175721
0.00217506
0.0305569
0.131706
0.163722
0.119715
6.12302e-07
6.17581e-07
0.00686451
0.0931785
0.19676
0.164556
0.0326211
0.0148589
0.245961
0.815438
0.944631
0.164926
5.00401e-09
0.000294728
4.42229e-05
2.35534e-08
3.97631e-07
1.38235e-06
2.3941e-10
2.40101e-10
2.3941e-10
0.0146888
0.0549931
0.0660667
0.040385
0.0682597
0.245157
0.245141
0.245157
0.113126
0.0148587
0.148113
0.488708
0.578868
0.200643
5.00401e-09
2.6415e-06
5.96745e-06
2.35364e-08
2.48979e-08
1.03288e-08
1.17343e-09
1.04952e-08
2.2615e-08
2.26153e-08
2.2615e-08
4.0396e-05
0.000526004
0.0789923
0.163136
0.190441
0.119005
0.0418939
0.0161692
0.15404
0.295161
0.228651
0.200712
5.00401e-09
2.06299e-08
6.99548e-08
6.16994e-08
2.02775e-09
2.35467e-10
2.70917e-10
7.69622e-10
1.46523e-08
2.63721e-07
4.70359e-07
1.33366e-10
1.33366e-10
1.33366e-10
1.33366e-10
1.33366e-10
1.33366e-10
1.33366e-10
0.00253794
0.00926817
0.0150868
0.0370491
0.112113
5.00401e-09
5.00401e-09
1.01733e-08
4.28058e-08
3.51809e-09
2.3543e-10
3.17579e-10
3.30883e-10
4.0788e-10
3.84524e-08
7.95854e-07
1.1445e-06
5.23522e-07
1.33366e-10
1.87331e-10
8.51133e-10
8.86444e-10
1.11853e-09
1.33366e-10
1.33366e-10
1.33366e-10
1.33366e-10
0.00187054
5.00401e-09
5.00401e-09
5.00401e-09
5.00408e-09
9.65891e-09
8.77539e-10
4.26761e-10
5.50118e-10
6.97061e-10
3.07911e-09
1.94627e-07
1.1445e-06
1.13915e-06
5.33356e-08
1.37129e-10
2.34803e-09
2.44873e-09
6.67655e-09
2.63471e-08
3.5411e-08
2.27074e-08
3.42579e-09
8.28558e-08
5.00401e-09
5.00401e-09
1.30876e-08
1.8392e-07
2.07346e-10
8.85482e-10
4.10375e-10
5.44726e-10
8.40895e-10
7.32355e-10
7.32374e-10
1.31385e-07
3.8597e-07
1.43373e-08
1.37164e-10
1.24604e-09
1.215e-09
4.76272e-09
3.24202e-08
4.01429e-08
3.85578e-08
5.00867e-09
5.0035e-09
7.43313e-09
5.00401e-09
5.09119e-09
9.73783e-07
2.07247e-10
3.55166e-10
2.33176e-10
4.17036e-10
7.24086e-10
9.10427e-10
1.02435e-08
2.95452e-08
1.37691e-10
9.01671e-10
1.72959e-09
1.22851e-09
7.64496e-10
2.09187e-10
7.06651e-11
7.06651e-11
6.35618e-11
4.70251e-09
5.0035e-09
9.05207e-09
6.91575e-07
4.61709e-06
7.57307e-07
1.28479e-10
1.69507e-10
1.60744e-10
3.40099e-10
5.35918e-10
1.32059e-09
9.11747e-09
1.37691e-10
1.3777e-10
2.2778e-10
1.00388e-09
1.05011e-09
6.40332e-10
3.00587e-10
1.24777e-10
7.43131e-11
6.35615e-11
6.35618e-11
5.0035e-09
6.08575e-09
1.83004e-06
5.25572e-06
4.94053e-07
1.28475e-10
1.28475e-10
1.28007e-10
2.80358e-10
4.62363e-10
1.07919e-09
4.53871e-09
1.16368e-09
1.93356e-10
2.27339e-10
3.86368e-10
3.74595e-10
2.1402e-10
1.54799e-10
1.29228e-10
9.57074e-11
7.0778e-11
6.5677e-11
5.0035e-09
5.0035e-09
1.05069e-06
4.44377e-06
8.12367e-08
5.41587e-10
8.68066e-11
9.96222e-11
2.06149e-10
4.08828e-10
1.18391e-09
1.15293e-09
4.0928e-10
1.17814e-10
1.68807e-10
1.83066e-10
1.52995e-10
8.68764e-11
5.49964e-11
3.97898e-11
3.64153e-11
4.2796e-11
6.85396e-11
5.0035e-09
5.0035e-09
1.35329e-06
5.81126e-07
9.59115e-09
1.79935e-10
7.28577e-11
7.69508e-11
1.53739e-10
3.40473e-10
9.74573e-10
6.6713e-10
1.36393e-10
7.39448e-11
8.69121e-11
8.49837e-11
5.42251e-11
2.88908e-11
1.90481e-11
1.75979e-11
2.25352e-11
4.11877e-11
8.47911e-11
3.17965e-06
0.000149929
1.36777e-05
2.52333e-07
1.83226e-09
1.61727e-10
6.15889e-11
5.56198e-11
1.16968e-10
3.11071e-10
6.30807e-10
2.98028e-10
6.27289e-11
4.32923e-11
4.2765e-11
3.4093e-11
1.75376e-11
1.02565e-11
1.06169e-11
2.01636e-11
6.799e-11
2.05363e-10
5.72888e-10
0.000202484
0.000210309
4.42015e-05
1.34408e-07
9.03291e-10
1.16787e-10
3.99911e-11
3.81712e-11
9.64165e-11
2.87011e-10
3.398e-10
1.1499e-10
3.21836e-11
2.27372e-11
1.8524e-11
1.05992e-11
5.80208e-12
7.06108e-12
2.39714e-11
1.21793e-10
5.505e-10
3.02019e-09
1.34542e-08
0.000222655
0.000208313
2.96736e-05
1.35097e-07
5.60247e-10
6.56578e-11
2.11608e-11
2.75421e-11
8.64646e-11
2.2563e-10
1.74105e-10
4.53651e-11
1.67487e-11
1.09437e-11
6.84916e-12
4.21768e-12
5.70635e-12
2.58621e-11
1.49376e-10
7.72853e-10
5.7203e-09
4.49275e-08
7.05742e-08
0.000182538
5.02774e-05
4.5982e-06
9.49993e-08
4.94153e-10
4.29199e-11
1.14866e-11
2.176e-11
7.801e-11
1.39353e-10
7.49502e-11
1.91795e-11
7.86465e-12
4.41894e-12
3.52359e-12
5.65378e-12
2.92155e-11
1.56613e-10
7.69811e-10
9.05526e-09
6.5467e-08
8.3932e-08
5.70625e-08
1.43823e-05
1.45964e-06
1.6744e-07
1.18228e-08
3.11564e-10
1.8501e-11
6.01731e-12
1.78908e-11
6.51607e-11
7.19565e-11
2.97587e-11
8.21342e-12
3.23067e-12
2.434e-12
4.57789e-12
1.8355e-11
6.19138e-11
3.90003e-10
1.60227e-08
7.85254e-08
7.94938e-08
5.40805e-08
1.34027e-11
1.24947e-09
1.8903e-09
3.63097e-10
2.59924e-10
3.26848e-11
3.13893e-12
3.65512e-12
1.47241e-11
4.39405e-11
3.29227e-11
1.13261e-11
3.41273e-12
1.9637e-12
2.43401e-12
3.89119e-12
3.8912e-12
3.89116e-12
1.76821e-08
6.05347e-08
7.85057e-08
3.50779e-08
2.07488e-11
2.0749e-11
4.03542e-13
3.19435e-12
5.44148e-12
1.14412e-11
2.53372e-12
9.48383e-13
2.56393e-12
1.13279e-11
2.38318e-11
1.37697e-11
4.44314e-12
1.75579e-12
4.28747e-12
3.69898e-11
2.77706e-10
4.20324e-09
6.09105e-08
1.09376e-07
7.71281e-08
9.1347e-12
4.95927e-10
8.7151e-11
2.80806e-11
1.12909e-13
3.72621e-13
5.17312e-13
8.11443e-13
3.42738e-13
4.79323e-13
1.95603e-12
7.81493e-12
1.14622e-11
4.48608e-12
1.3218e-12
6.65013e-13
1.22697e-12
6.32494e-12
6.32487e-12
5.10331e-09
1.01451e-07
1.09376e-07
2.02932e-08
9.14905e-12
2.77235e-11
3.18597e-11
1.81468e-11
2.53036e-14
5.0489e-14
6.25052e-14
9.3177e-14
1.01437e-13
2.91963e-13
1.50292e-12
4.60646e-12
4.9289e-12
2.48741e-12
3.93087e-12
2.19589e-11
6.8588e-12
6.32487e-12
2.27479e-08
8.31086e-08
5.01135e-08
1.15053e-08
2.85028e-09
9.1347e-12
1.38191e-11
1.23423e-11
4.65603e-12
4.58818e-15
7.33522e-15
1.12177e-14
2.09399e-14
4.60846e-14
2.13008e-13
1.10358e-12
2.3616e-12
2.09385e-12
2.66496e-12
1.95696e-11
1.61283e-10
2.52411e-09
5.19595e-08
1.99118e-07
1.73693e-07
3.89985e-12
2.00945e-10
3.70577e-10
1.42599e-11
4.03088e-12
1.81582e-12
6.28374e-13
7.23474e-16
1.17924e-15
2.68412e-15
7.0845e-15
2.72769e-14
1.57983e-13
6.26706e-13
8.70312e-13
8.75594e-13
2.86325e-12
2.85005e-11
3.62744e-10
1.91015e-08
1.7077e-07
1.99251e-07
1.08484e-07
3.8999e-12
4.04888e-11
6.23923e-11
7.15751e-12
8.04325e-13
2.07995e-13
6.32498e-14
1.04737e-16
2.09705e-16
7.52669e-16
2.91004e-15
1.564e-14
8.97906e-14
3.23608e-13
8.64617e-13
3.2268e-12
6.95553e-12
6.64188e-12
7.30478e-12
3.26777e-09
1.48552e-07
1.83358e-07
5.1546e-09
3.89985e-12
1.23921e-11
1.01438e-11
1.24019e-12
1.14165e-13
2.08795e-14
6.28417e-15
1.45681e-17
4.19747e-17
2.38361e-16
1.60088e-15
1.21121e-14
7.59054e-14
3.63544e-13
2.07415e-12
1.63882e-11
5.07435e-11
6.64029e-12
1.0858e-09
5.24467e-08
4.34866e-08
2.7068e-08
1.08369e-09
3.8999e-12
3.99566e-12
1.31404e-12
1.56212e-13
1.20839e-14
1.92431e-15
6.33933e-16
1.99113e-18
1.29837e-17
1.75134e-16
1.97543e-15
1.94735e-14
1.4779e-13
9.16302e-13
6.52025e-12
6.15573e-11
7.24507e-10
1.49523e-08
2.03379e-07
3.34217e-07
3.29474e-08
4.16586e-12
2.89219e-10
1.18208e-11
1.83403e-12
1.94309e-13
1.66788e-14
1.08234e-15
1.63708e-16
5.85297e-17
8.08691e-19
1.42928e-17
3.32237e-16
5.67635e-15
6.77701e-14
5.3348e-13
2.77146e-12
1.22277e-11
7.29467e-11
2.53944e-09
1.94197e-07
4.92941e-07
3.34212e-07
1.21678e-12
4.17065e-12
5.92389e-11
9.08543e-12
7.1087e-13
3.15449e-14
1.53378e-15
8.21713e-17
1.33664e-17
4.52921e-18
1.04088e-18
4.74766e-17
1.37882e-15
2.61395e-14
3.41186e-13
3.01263e-12
1.5958e-11
3.45025e-11
8.49041e-11
2.56139e-09
1.84832e-07
4.92934e-07
1.50121e-07
1.21123e-12
4.51972e-12
1.15831e-11
2.84076e-12
1.66922e-13
4.82837e-15
1.26329e-16
5.93269e-18
1.07032e-18
3.19251e-19
3.36788e-18
1.7426e-16
4.73221e-15
8.61064e-14
1.14293e-12
1.13333e-11
4.77663e-11
5.39912e-11
1.32019e-10
2.51467e-08
3.69657e-07
2.3426e-07
1.3415e-12
1.63366e-11
1.4564e-11
2.06003e-12
5.42775e-13
2.81268e-14
5.7264e-16
8.229e-18
4.17069e-19
6.87557e-20
1.8518e-20
1.41541e-17
6.21498e-16
1.41713e-14
2.223e-13
2.66932e-12
2.6418e-11
1.91765e-10
5.59714e-10
1.32048e-10
2.56797e-09
3.69831e-07
2.12563e-08
1.34161e-12
2.41057e-11
1.84946e-11
4.16843e-13
9.36048e-14
3.90488e-15
5.11178e-17
4.34073e-19
3.10951e-20
4.17678e-21
9.6449e-22
4.70834e-17
1.76765e-15
3.36037e-14
4.32465e-13
4.1762e-12
3.06536e-11
1.85682e-10
3.19815e-09
1.23698e-07
8.47464e-07
2.74216e-07
2.68588e-13
7.35387e-12
2.14419e-11
1.15691e-11
9.89168e-14
1.49271e-14
4.41956e-16
2.98551e-18
1.63411e-20
1.47615e-21
1.75682e-22
3.81175e-23
1.58674e-16
5.13111e-15
8.073e-14
8.24281e-13
6.0537e-12
3.2716e-11
2.90587e-10
3.11633e-08
6.44045e-07
9.54196e-07
2.55715e-07
2.68551e-13
5.89662e-12
9.90145e-12
3.00278e-12
2.66064e-14
2.32397e-15
4.17003e-17
1.03037e-19
7.76117e-22
6.0041e-23
6.13994e-24
1.18463e-24
4.42549e-16
1.29332e-14
1.78786e-13
1.55314e-12
9.43685e-12
4.31125e-11
1.12212e-09
2.4069e-07
9.54196e-07
9.53591e-07
1.36253e-08
2.68588e-13
4.28029e-12
3.29707e-12
5.59588e-13
6.81045e-15
3.27994e-16
2.88475e-18
1.24753e-21
1.50548e-23
1.02548e-24
1.02614e-25
2.17313e-26
1.20675e-15
3.20813e-14
3.9611e-13
2.97709e-12
1.46405e-11
2.78082e-11
2.78083e-11
1.91301e-07
9.53591e-07
3.70535e-07
1.59554e-12
1.76128e-12
3.96229e-12
1.52146e-12
9.29364e-14
1.62674e-15
4.16943e-17
1.35543e-19
3.31606e-24
1.30367e-25
6.58609e-27
6.84556e-28
1.87133e-28
5.47039e-15
1.23869e-13
1.3255e-12
9.18717e-12
5.29104e-11
1.61008e-09
1.49522e-07
6.23469e-07
3.24906e-07
9.32931e-10
1.59554e-12
3.04085e-12
3.0107e-12
5.519e-13
1.29784e-14
2.89823e-16
3.98137e-18
3.44505e-21
5.02385e-29
4.1534e-33
5.11135e-35
9.54688e-36
1.87497e-36
0.999993
0.75055
0.671621
0.871532
0.784633
0.644648
0.739181
0.936374
0.614101
0.681886
0.937799
0.944617
0.796398
0.924095
0.944624
0.944624
0.944638
0.944631
0.944631
0.8597
0.944631
0.742087
0.535225
0.357865
0.768462
0.244277
0.123433
0.123435
0.897425
0.319736
0.123435
0.123433
0.629798
0.529675
0.223902
0.142232
0.0716862
0.153305
0.156264
0.108438
0.02998
0.0123593
0.0123581
0.0185216
1.33366e-10
0.0160177
0.055766
0.0589834
1.33366e-10
1.33366e-10
7.68783e-05
0.000275784
1.86744e-09
4.8088e-09
4.81162e-09
7.59288e-05
2.97455e-09
4.12417e-09
2.34936e-06
0.000166014
6.35615e-11
1.20716e-09
6.94784e-07
5.94317e-06
9.6729e-11
2.66498e-10
3.24398e-09
3.43291e-07
1.21434e-10
2.60124e-10
1.50447e-09
1.42436e-08
1.60478e-10
1.97007e-10
1.88703e-10
1.1719e-10
1.43972e-09
2.73686e-09
3.49635e-09
3.91832e-09
1.82751e-08
1.41256e-08
1.2668e-08
1.52683e-08
3.89965e-08
3.69248e-10
3.16e-09
1.21563e-08
1.34027e-11
3.6925e-10
7.5109e-10
6.27063e-10
1.34027e-11
1.34027e-11
1.34027e-11
1.38557e-11
3.02216e-11
4.27857e-11
5.08517e-11
5.56135e-11
3.65849e-11
3.88789e-11
3.98459e-11
3.9891e-11
1.53554e-11
1.42569e-11
1.3133e-11
1.19674e-11
3.11047e-12
2.76438e-12
2.46027e-12
2.17558e-12
3.97935e-13
3.36462e-13
2.8958e-13
2.52724e-13
3.66301e-14
2.99055e-14
2.55853e-14
2.20561e-14
3.69713e-15
2.98162e-15
2.45763e-15
2.06068e-15
3.82847e-16
3.04876e-16
2.48305e-16
2.06131e-16
3.40486e-17
2.6743e-17
2.15351e-17
1.77304e-17
2.55554e-18
1.98982e-18
1.59338e-18
1.30868e-18
1.72929e-19
1.3285e-19
1.05229e-19
8.57539e-20
9.80325e-21
7.50086e-21
5.92053e-21
4.80714e-21
4.82252e-22
3.62831e-22
2.83269e-22
2.28339e-22
1.89126e-23
1.40804e-23
1.0858e-23
8.65211e-24
5.72062e-25
4.21208e-25
3.19861e-25
2.50305e-25
1.09476e-26
8.06194e-27
6.10674e-27
4.77453e-27
1.00051e-28
7.44559e-29
5.71157e-29
4.5075e-29
5.16703e-37
2.59696e-37
1.32738e-37
7.08551e-38
0.940946
0.876255
0.0676482
0.0356138
0.0215779
0.0290659
0.492223
0.965072
0.975047
0.731969
0.214807
0.176151
0.241093
0.494599
0.457908
0.461705
0.826308
0.909269
0.82128
0.940945
0.756469
0.0488171
0.173234
0.0503255
0.123163
0.718228
0.964603
0.800042
0.29357
0.176283
0.176229
0.251953
0.702651
0.793782
0.793772
0.788572
0.66021
0.511555
0.913392
0.298632
0.0761852
0.676477
0.888383
0.891102
0.931397
0.813136
0.255509
0.0671542
0.202893
0.290883
0.267831
0.263239
0.294767
0.437424
0.3394
0.100851
0.0163735
0.770316
0.298621
0.418964
0.914148
0.931387
0.931397
0.931387
0.762784
0.0832264
0.047314
0.0805533
0.290779
0.318207
0.31803
0.16357
0.0874982
0.000363896
0.000356889
0.000356995
0.561238
0.335044
0.598351
0.566177
0.424648
0.611305
0.763042
0.745305
0.556334
0.315532
0.016608
0.000587944
0.0103583
0.0336692
0.0498811
0.00213786
0.00154202
0.00105735
0.000357028
0.241089
0.214231
0.220793
0.00458046
0.00454185
0.0839638
0.241772
0.433298
0.316836
0.251196
0.0920919
0.000587951
9.69848e-06
9.69848e-06
9.69848e-06
6.09566e-05
0.00138415
2.18894e-05
2.18971e-05
0.169343
0.0722043
8.59874e-06
1.24933e-05
0.00454163
0.0198348
6.03215e-05
6.01163e-05
6.01176e-05
6.01163e-05
0.0143261
0.0116287
0.0153654
0.00874895
0.000721419
1.98713e-05
1.98585e-05
2.8709e-05
9.93321e-05
0.124572
0.204808
8.62704e-06
0.000156068
0.0189569
0.0412832
0.0148193
0.000139537
6.01177e-05
0.00167657
0.00996147
0.0552529
0.0552672
0.0379332
0.00108851
4.53717e-05
5.06953e-05
0.000135214
0.000138904
0.0736884
0.20995
0.107371
0.0109879
0.0419548
0.0495529
0.0164174
0.000101393
3.99439e-05
2.05126e-06
2.05124e-06
0.00331524
0.00989489
0.00686042
6.48621e-05
9.291e-05
1.43449e-05
0.000135191
9.77623e-05
0.0116405
0.0763586
0.0798446
0.0235152
0.0457129
0.0322799
8.67723e-07
5.07265e-06
1.74184e-05
4.63073e-05
2.82626e-05
3.42187e-06
3.42141e-06
9.38829e-05
6.82999e-06
9.81349e-07
1.72916e-09
7.12495e-05
1.16767e-10
0.0104662
0.00413674
0.00413693
0.00159765
0.0456494
9.58721e-07
9.58201e-07
3.1849e-05
5.24753e-05
3.36749e-05
3.42187e-06
3.42141e-06
3.42167e-06
3.43151e-06
3.45175e-06
1.78836e-09
1.78838e-09
1.16767e-10
1.16703e-10
0.058979
0.0207791
0.00128918
0.0012881
0.0125126
0.00403503
7.15001e-07
2.27528e-05
5.24895e-05
4.4878e-05
3.43661e-06
3.61366e-06
6.91615e-07
1.25526e-08
1.58183e-08
5.57963e-08
1.01412e-08
2.21983e-10
1.50576e-10
0.00694287
0.0186448
0.0146172
0.0144291
2.24567e-08
0.00153911
7.15046e-07
1.5897e-05
4.47861e-05
1.81203e-05
1.33415e-05
8.87515e-06
1.23498e-06
1.253e-08
1.30077e-07
1.30077e-07
1.24327e-08
6.17812e-10
9.59588e-10
0.00138473
0.00630728
0.00895388
0.00501827
2.24567e-08
7.73105e-06
6.6813e-06
4.79298e-06
2.0018e-06
1.25106e-08
1.24718e-08
1.25106e-08
1.24718e-08
1.31887e-08
1.67258e-07
5.65146e-08
2.44328e-09
2.88566e-09
4.40493e-08
0.000387661
0.000498541
0.000476969
0.000113098
2.24567e-08
3.759e-06
6.8664e-06
8.68838e-07
3.88641e-07
3.89564e-07
1.99495e-07
8.69771e-08
1.04259e-07
1.67004e-07
4.77602e-08
1.9985e-10
1.9985e-10
2.3194e-08
2.62208e-07
0.000114514
0.00043275
0.000280019
2.24567e-08
2.24567e-08
7.25751e-07
4.29087e-06
6.36357e-07
1.59756e-06
1.59579e-06
4.02815e-07
2.48165e-07
2.85055e-07
2.8506e-07
8.65644e-08
2.3015e-09
1.9985e-10
1.77311e-07
2.94502e-07
1.1408e-05
0.000114297
0.000224074
0.000149745
2.11718e-05
2.75539e-07
1.07188e-06
2.92124e-06
2.92037e-06
8.85699e-07
1.35959e-08
7.21637e-10
5.51442e-08
8.24857e-08
5.41716e-08
4.96867e-09
1.9985e-10
2.89952e-07
2.94619e-07
1.35204e-07
2.53028e-06
1.89199e-05
4.66603e-05
3.24278e-05
6.28698e-06
5.10353e-06
6.75037e-07
2.98002e-11
2.97893e-11
2.98002e-11
7.2134e-10
2.98002e-11
2.97893e-11
2.98002e-11
3.27832e-09
1.9985e-10
1.49917e-07
1.15284e-07
1.17184e-10
1.1719e-10
4.53957e-09
6.26082e-09
2.97893e-11
2.98002e-11
2.97893e-11
2.98002e-11
4.57236e-10
3.9706e-10
3.00827e-10
6.52214e-09
2.38313e-09
7.1249e-10
4.50724e-10
3.85268e-10
2.02125e-10
2.09161e-08
3.78699e-09
4.0967e-09
4.15356e-09
3.83936e-09
3.437e-09
2.97821e-09
2.06696e-09
1.11503e-09
7.4295e-10
6.73019e-10
4.08407e-10
1.51834e-10
6.98574e-09
6.6413e-08
7.42284e-08
1.30699e-08
1.86018e-09
2.26289e-09
2.26289e-09
3.78701e-09
1.52637e-08
1.32271e-08
6.15632e-09
3.67902e-09
2.28922e-09
1.27473e-09
7.30496e-10
3.41945e-10
1.52842e-10
1.27618e-10
2.47148e-10
1.34752e-10
3.67591e-07
5.4503e-07
1.8591e-07
1.09677e-08
1.19112e-08
7.6806e-09
6.25558e-09
1.44352e-08
3.63266e-09
8.86159e-10
4.55826e-10
2.02964e-10
9.06238e-11
4.24725e-11
2.29431e-11
4.31599e-11
2.09127e-10
1.28263e-09
3.58286e-10
3.86422e-07
5.53098e-07
5.38912e-07
6.594e-08
1.82055e-08
2.50218e-08
1.10038e-08
2.32274e-10
2.60393e-11
2.60488e-11
2.90456e-11
2.40548e-11
1.12379e-11
8.25247e-12
1.47494e-11
6.03395e-11
3.08016e-10
3.03289e-09
2.97397e-08
4.1208e-08
4.81536e-07
5.74905e-07
2.13542e-07
1.80608e-08
7.47121e-08
6.02121e-08
2.28151e-11
4.21146e-11
4.5457e-11
3.49861e-11
1.35162e-11
5.42978e-12
4.92082e-12
1.40538e-11
5.62798e-11
2.2904e-10
3.09483e-09
9.80454e-08
2.08815e-07
1.24956e-07
5.7492e-07
3.54805e-07
1.80609e-08
1.14916e-07
1.58535e-07
5.75805e-11
5.59582e-11
3.92074e-11
1.32408e-11
3.85625e-12
1.75925e-12
1.84711e-12
5.98828e-12
2.56134e-11
1.10741e-10
1.70298e-09
1.10141e-07
2.92022e-07
1.24975e-07
5.69584e-07
4.28832e-07
3.144e-08
1.75921e-07
1.81667e-07
3.78606e-11
2.75993e-11
1.13067e-11
3.22705e-12
8.99764e-13
4.21963e-13
5.3021e-13
2.28598e-12
1.25919e-11
7.36761e-11
7.82655e-10
2.76472e-08
2.36636e-07
1.70136e-07
2.00903e-07
4.28829e-07
8.48778e-08
1.64653e-07
1.70618e-07
9.78545e-12
5.87788e-12
2.39695e-12
6.77911e-13
1.84569e-13
8.345e-14
1.31084e-13
7.53516e-13
4.88505e-12
3.09392e-11
1.05962e-10
1.05969e-10
8.60727e-08
1.27569e-06
1.77153e-07
4.11528e-07
9.75045e-08
8.61979e-08
1.47739e-07
1.71791e-12
1.03552e-12
4.39482e-13
1.26721e-13
3.41078e-14
1.3946e-14
2.24958e-14
1.42833e-13
8.89072e-13
4.06816e-12
7.93251e-12
1.11851e-10
1.22292e-07
1.47373e-06
1.75732e-07
1.75175e-07
8.28662e-08
8.26867e-09
5.83902e-07
1.98891e-13
1.24183e-13
5.81671e-14
1.86036e-14
5.31607e-15
1.82434e-15
1.77429e-15
8.956e-15
4.80352e-14
2.38262e-13
2.43709e-12
1.16761e-10
5.79088e-08
1.14993e-06
3.73489e-07
1.18615e-07
6.10627e-08
8.26821e-09
1.08522e-06
1.71047e-14
1.08901e-14
5.75975e-15
2.18638e-15
6.93938e-16
1.90524e-16
5.04373e-17
3.84731e-17
9.22902e-16
3.00778e-14
1.0103e-12
3.86046e-11
1.65671e-09
1.86675e-08
6.78136e-06
5.77983e-07
4.59077e-08
8.26842e-09
1.0855e-06
1.56382e-15
9.91004e-16
5.54227e-16
2.33136e-16
7.67392e-17
2.08391e-17
5.5716e-18
1.23592e-18
2.30745e-18
5.12586e-17
3.99959e-16
1.47449e-41
-9.57935e-43
-1.30202e-25
1.03995e-05
2.58848e-06
4.25732e-08
8.26821e-09
1.0855e-06
1.55007e-16
9.77981e-17
5.53064e-17
2.35145e-17
7.45664e-18
1.8551e-18
5.30049e-19
1.15324e-19
1.49489e-20
1.86308e-21
3.3358e-24
3.33599e-24
7.68312e-25
-2.14974e-25
9.6583e-06
5.13082e-06
8.37989e-08
8.26842e-09
8.81217e-07
1.32556e-17
8.38389e-18
4.81638e-18
2.08303e-18
6.53737e-19
1.4045e-19
4.18688e-20
1.10051e-20
1.30809e-21
1.63979e-22
2.21989e-23
5.37635e-24
3.87899e-25
-2.58879e-25
3.63589e-07
7.91037e-06
1.22616e-06
1.50969e-08
1.12162e-07
9.8058e-19
6.2917e-19
3.71204e-19
1.63681e-19
5.29936e-20
9.31848e-21
2.68613e-21
8.86081e-22
9.69234e-23
1.10607e-23
8.3941e-25
1.13952e-25
1.81324e-26
-2.01796e-25
-6.83715e-25
2.02149e-05
4.66921e-06
4.82515e-08
7.96488e-10
6.3989e-20
4.13583e-20
2.52631e-20
1.17044e-20
4.05568e-21
5.80634e-22
1.41523e-22
5.83313e-23
6.34129e-24
6.49497e-25
5.08293e-26
5.82062e-27
1.21447e-27
-1.05017e-25
-1.03483e-24
4.26805e-05
1.29543e-05
9.85204e-08
3.06121e-10
3.57362e-21
2.3105e-21
1.44321e-21
7.09365e-22
2.69996e-22
3.42909e-23
6.53304e-24
2.90308e-24
3.6686e-25
3.88718e-26
3.17171e-27
2.71044e-28
4.48333e-29
-4.08194e-26
-1.08539e-24
4.2683e-05
2.44822e-05
3.00301e-07
3.06135e-10
1.68747e-22
1.08979e-22
6.97694e-23
3.67171e-23
1.57625e-23
1.87202e-24
2.85262e-25
1.14474e-25
1.88242e-26
2.06534e-27
1.72624e-28
1.25857e-29
1.40349e-30
-1.26112e-26
-9.08924e-25
4.26688e-05
3.46122e-05
1.64559e-06
5.03615e-10
6.33117e-24
4.07538e-24
2.67253e-24
1.47529e-24
6.96151e-25
8.19787e-26
1.19821e-26
3.80677e-27
6.48222e-28
7.44004e-29
6.48883e-30
4.55412e-31
3.96451e-32
-3.10202e-27
-5.96672e-25
4.05472e-05
3.99234e-05
3.50416e-06
1.0595e-09
1.79567e-25
1.1454e-25
7.82198e-26
4.55074e-26
2.37986e-26
3.26175e-27
4.4276e-28
1.04928e-28
1.75769e-29
2.10017e-30
1.92672e-31
1.37696e-32
1.07898e-33
-5.50925e-28
-2.8683e-25
1.38119e-05
5.68483e-05
6.63554e-06
1.99025e-09
3.44139e-27
2.2338e-27
1.56304e-27
9.3485e-28
4.964e-28
7.5158e-29
9.72184e-30
1.92919e-30
2.95843e-31
3.37231e-32
3.03013e-33
2.11445e-34
1.53961e-35
-6.20823e-29
-8.85891e-26
2.50131e-06
5.68124e-05
1.08464e-05
3.5061e-09
3.27166e-29
2.15406e-29
1.55359e-29
9.66466e-30
5.36756e-30
1.03528e-30
1.3178e-31
2.07778e-32
2.91788e-33
3.27047e-34
2.99311e-35
2.14321e-36
1.57071e-37
-2.99344e-30
-1.18053e-26
-1.03247e-25
5.67236e-05
1.28493e-05
3.50616e-09
2.99317e-38
6.36386e-39
1.23728e-39
1.40502e-40
7.8881e-42
3.79459e-43
1.74237e-44
5.28894e-46
3.09896e-49
-4.76851e-48
-2.73461e-48
-9.70476e-49
-4.48431e-49
-4.38189e-49
-2.13023e-49
-1.89026e-25
3.75554e-05
1.58023e-05
9.3556e-07
)
;

boundaryField
{
    leftWall
    {
        type            zeroGradient;
    }
    rightWall
    {
        type            zeroGradient;
    }
    lowerWall
    {
        type            zeroGradient;
    }
    atmosphere
    {
        type            inletOutlet;
        inletValue      uniform 0;
        value           nonuniform List<scalar> 
46
(
5.47039e-15
1.23869e-13
1.3255e-12
9.18717e-12
5.29104e-11
1.61008e-09
1.49522e-07
6.23469e-07
3.24906e-07
9.32931e-10
1.59554e-12
3.04085e-12
3.0107e-12
5.519e-13
1.29784e-14
2.89823e-16
3.98137e-18
3.44505e-21
0
0
0
0
0
0
0
0
0
0
0
0
0
0
0
0
0
0
0
0
0
0
0
0
0
3.75554e-05
1.58023e-05
9.3556e-07
)
;
    }
    defaultFaces
    {
        type            empty;
    }
}


// ************************************************************************* //
