/*--------------------------------*- C++ -*----------------------------------*\
| =========                 |                                                 |
| \\      /  F ield         | OpenFOAM: The Open Source CFD Toolbox           |
|  \\    /   O peration     | Version:  2012                                  |
|   \\  /    A nd           | Website:  www.openfoam.com                      |
|    \\/     M anipulation  |                                                 |
\*---------------------------------------------------------------------------*/
FoamFile
{
    version     2.0;
    format      ascii;
    class       volScalarField;
    location    "0.15";
    object      alpha.water;
}
// * * * * * * * * * * * * * * * * * * * * * * * * * * * * * * * * * * * * * //

dimensions      [0 0 0 0 0 0 0];


internalField   nonuniform List<scalar> 
2268
(
1
0.999999
1
1
1
1
1
1
1
1
1
1
1
1
1
1
1
1
0.999987
0.999958
0.999956
0.967014
0.690588
1
1
1
1
1
1
1
0.999999
0.999999
1
1
1
1
1
1
0.999999
0.999999
1
0.999995
0.9999
0.999945
0.999939
0.724205
1
1
1
1
1
1
1
1
1
1
1
1
1
1
1
1
1
1
1
0.999992
0.999974
0.999969
0.736489
1
1
1
1
1
1
1
1
1
1
1
1
1
1
1
1
1
1
1
1
0.999998
0.999994
0.793837
1
1
1
1
1
1
1
1
1
1
1
1
1
1
1
1
1
1
1
1
0.999943
0.999975
0.964761
1
1
1
1
1
1
1
1
1
1
1
1
1
1
1
1
1
1
1
0.998585
0.999492
0.999674
0.999606
1
1
1
1
1
1
1
1
1
1
1
1
1
1
1
1
1
0.999999
1
0.985412
0.988203
0.997787
0.994952
1
1
1
1
1
1
1
1
1
1
1
1
1
1
1
1
0.999995
0.999972
0.999956
0.927137
0.779904
0.947947
0.987932
3.6587e-18
1.01342e-18
2.96942e-19
2.97261e-20
8.24495e-22
1.62578e-23
6.19809e-25
2.85101e-26
1.10413e-27
3.56314e-29
9.97432e-31
2.40838e-32
4.90655e-34
8.23959e-36
1.10603e-37
1.12788e-39
8.02486e-42
2.48083e-44
1.39564e-44
6.44857e-17
1.11425e-16
5.28234e-17
5.53224e-18
1.47738e-19
2.73591e-21
8.10648e-23
2.90057e-24
9.76331e-26
2.90988e-27
7.68586e-29
1.76522e-30
3.42787e-32
5.46186e-34
6.85138e-36
6.30911e-38
3.71752e-40
9.06012e-43
1.39586e-44
2.71778e-15
7.246e-15
5.12985e-15
6.962e-16
1.50889e-17
2.25758e-19
4.9068e-21
1.28895e-22
3.50003e-24
9.05888e-26
2.15573e-27
4.54487e-29
8.17998e-31
1.20696e-32
1.3785e-34
1.09413e-36
4.93205e-39
8.08537e-42
2.037e-43
5.87506e-14
4.71841e-13
9.22891e-13
9.61933e-14
1.06532e-15
1.1954e-17
2.04678e-19
4.22303e-21
9.37512e-23
2.07854e-24
4.37967e-26
8.35292e-28
1.37302e-29
1.83574e-31
1.86014e-33
1.32169e-35
5.22668e-38
5.89109e-41
5.48258e-42
3.16005e-12
2.41091e-11
3.31844e-11
1.83468e-12
1.96829e-14
2.60693e-16
4.94529e-18
9.53197e-20
1.87057e-21
3.6497e-23
6.81833e-25
1.16415e-26
1.72729e-28
2.10315e-30
2.00648e-32
1.29842e-34
4.97791e-37
3.55795e-40
1.08594e-40
6.50386e-11
4.07756e-10
1.11594e-10
5.35746e-12
1.13679e-13
2.22356e-15
5.82495e-17
1.22354e-18
2.38861e-20
4.45695e-22
7.80622e-24
1.23855e-25
1.72215e-27
2.00177e-29
1.77331e-31
1.13975e-33
3.71023e-36
1.74546e-39
1.64845e-39
3.50736e-10
7.76318e-10
1.60072e-10
5.47767e-12
3.22425e-13
9.83278e-15
2.81863e-16
7.99149e-18
1.86099e-19
3.62069e-21
6.31911e-23
9.97655e-25
1.38193e-26
1.56162e-28
1.40438e-30
9.029e-33
2.69991e-35
2.01839e-38
1.98955e-38
3.4602e-10
3.631e-10
1.1585e-11
6.45055e-13
4.25855e-13
4.24274e-14
4.54485e-16
2.82463e-17
1.06586e-18
2.43239e-20
4.36929e-22
6.79203e-24
9.15701e-26
1.00354e-27
8.52139e-30
5.28249e-32
1.48129e-34
1.85655e-37
1.92322e-37
1
1
1
1
1
1
1
1
1
1
1
1
1
1
1
0.999999
0.999948
0.999426
0.904824
0.518886
0.0979107
0.264412
0.94364
1
1
1
1
1
1
1
1
1
1
1
1
1
1
1
0.999979
0.999182
0.777553
0.193086
0.00501144
0.00494422
0.012285
0.866493
1
1
1
1
1
1
1
1
1
1
1
1
1
1
0.999994
0.999699
0.749882
0.113953
0.00296554
0.000668295
0.00104504
0.00350329
0.48737
1
1
1
1
1
1
1
1
1
1
1
1
1
1
0.999919
0.866979
0.158687
0.00296123
0.000335743
8.19803e-05
0.000216473
0.0011755
0.0219452
1
1
1
1
1
1
1
1
1
1
1
1
1
0.999992
0.999194
0.307614
0.00340641
0.000335635
3.44002e-05
1.29395e-05
4.3633e-05
0.000208094
0.000940609
1
1
1
1
1
1
1
1
1
1
1
1
0.999998
0.99994
0.578202
0.0154235
0.000348163
2.99348e-05
4.84824e-06
2.01496e-06
9.3188e-06
4.31544e-05
0.000229229
1
1
1
1
1
1
1
1
1
1
0.999999
0.999998
0.999982
0.955942
0.156379
0.00085393
3.20991e-05
4.00012e-06
4.93055e-07
3.21532e-07
1.61485e-06
8.35505e-06
4.71537e-05
1
1
1
1
1
1
1
0.999999
0.999999
0.999997
0.999992
0.999978
0.999826
0.443318
0.00201365
5.30732e-05
3.32406e-06
3.42835e-07
5.62821e-08
4.86218e-08
2.70833e-07
3.50891e-06
9.66982e-06
1
0.999999
0.999999
0.999999
0.999998
0.999998
0.999997
0.999994
0.999988
0.99997
0.999929
0.999826
0.982656
0.122804
0.000228217
3.97639e-06
3.66053e-07
4.24615e-08
7.19957e-09
7.37632e-09
4.57613e-08
5.55292e-07
2.52479e-06
0.999995
0.999991
0.999991
0.999989
0.999985
0.999978
0.999967
0.999944
0.999887
0.999742
0.999436
0.998669
0.628638
0.0161008
9.39098e-06
3.89081e-07
3.93138e-08
5.47561e-09
1.85204e-09
1.66362e-09
6.27823e-09
6.32349e-08
3.74521e-07
0.999944
0.999906
0.999906
0.999885
0.999846
0.999784
0.999685
0.999494
0.999028
0.997871
0.99235
0.940663
0.322828
0.00304807
1.90434e-06
3.84348e-08
4.75493e-09
1.58999e-09
1.06516e-09
8.22277e-10
1.11259e-09
5.23622e-09
4.21846e-08
0.999381
0.999066
0.999046
0.99884
0.998494
0.997955
0.995034
0.975938
0.917791
0.779503
0.559443
0.291155
0.0693736
0.014592
6.74386e-05
9.87015e-07
1.1973e-08
-5.18709e-10
8.2627e-10
6.75035e-10
3.62754e-10
7.38148e-10
5.59733e-09
0.90489
0.864639
0.85403
0.817881
0.762056
0.680976
0.568537
0.408634
0.248974
0.0997395
0.00162181
7.71823e-07
2.85242e-06
0.0187058
0.0073927
1.31045e-05
3.64295e-07
-1.56766e-09
1.08992e-10
4.22142e-10
2.19986e-10
1.4517e-10
7.38733e-10
0.212912
0.163634
0.151085
0.11794
0.0788094
0.0387738
0.00264445
5.18259e-12
1.92901e-10
5.63403e-09
1.20994e-07
2.15294e-07
7.71824e-07
0.00901733
0.0107532
0.00116167
9.80242e-07
1.05861e-08
-4.3578e-11
9.60081e-11
9.18323e-11
4.48762e-11
1.32477e-10
1.90692e-22
1.8108e-22
1.96129e-22
4.59226e-21
6.36208e-19
6.56162e-17
4.67964e-15
1.96984e-13
4.89863e-12
1.91981e-10
5.63403e-09
1.29085e-07
1.06466e-06
3.64143e-06
0.010743
0.00232206
3.96873e-07
1.11135e-09
9.78867e-10
7.13479e-13
2.60668e-11
1.10152e-11
2.43487e-11
1.85759e-22
2.51197e-22
1.88968e-20
3.11293e-18
3.40532e-16
2.88802e-14
1.40068e-12
2.18904e-12
3.78026e-11
2.15109e-09
4.51889e-07
7.44822e-07
3.41245e-06
5.81952e-06
0.0082046
0.00190456
6.11315e-08
2.26598e-10
-7.70925e-12
2.38813e-13
6.1032e-12
1.90155e-12
8.1861e-12
2.88396e-22
2.85921e-21
5.69636e-19
7.91386e-17
7.73852e-15
4.97748e-13
1.52877e-11
2.80875e-10
7.71723e-09
1.49495e-07
3.12251e-06
0.000176781
0.000381338
0.000373329
0.00235519
0.000627054
9.11347e-09
2.87047e-11
6.93329e-14
4.01905e-14
1.26596e-12
2.9094e-13
1.38143e-12
3.04392e-22
1.25392e-20
2.32215e-18
2.73515e-16
2.45687e-14
1.1666e-12
2.44746e-11
4.75702e-10
1.51012e-08
2.47276e-07
2.0509e-06
0.00045746
0.00129835
0.00129835
0.00113166
1.37456e-07
1.22371e-09
3.2937e-12
4.10648e-14
3.26605e-14
2.49705e-13
4.20367e-14
1.34066e-13
1.20364e-22
1.76515e-20
3.10073e-18
3.28328e-16
2.99415e-14
7.79923e-13
3.80523e-12
9.07699e-11
3.15836e-09
1.96265e-07
1.62179e-06
0.00034525
0.00102673
0.000920304
2.03233e-05
1.83513e-08
-3.96733e-11
4.23875e-13
1.97749e-14
2.85977e-14
5.60844e-14
5.43152e-15
1.24407e-14
1.10098e-38
9.02429e-22
6.50109e-19
7.75719e-17
5.0117e-15
7.96639e-14
1.31603e-11
3.9351e-10
3.67732e-09
1.25534e-06
2.45774e-06
7.06632e-10
4.39675e-09
1.308e-05
1.12055e-07
1.30149e-09
1.16568e-11
-1.27019e-12
5.4178e-15
1.8736e-14
1.93202e-14
5.975e-16
1.03764e-15
-1.78536e-21
-1.83077e-37
-2.7948e-35
8.18036e-32
-4.72022e-31
1.28092e-13
1.07939e-10
1.18518e-09
9.25521e-10
2.0963e-12
1.13958e-11
9.16612e-11
7.06646e-10
4.39494e-09
2.24675e-09
2.17192e-11
-5.94217e-12
5.4178e-15
2.4532e-15
1.09989e-14
8.15125e-15
5.15288e-17
7.52924e-17
-7.16926e-21
-2.12733e-19
-2.57067e-18
-1.49712e-17
-3.1226e-17
6.77311e-33
3.43204e-17
1.58194e-15
1.43959e-14
1.92098e-13
2.0963e-12
5.09902e-12
2.49946e-09
7.06078e-09
1.35069e-11
2.70698e-11
4.57876e-14
1.04761e-15
2.41048e-15
4.64798e-15
2.32778e-15
3.24451e-18
4.73761e-18
-5.83308e-21
-1.74631e-19
-2.15024e-18
-1.275e-17
-2.28943e-17
6.00906e-18
5.86375e-16
3.34799e-14
8.17537e-13
4.67269e-12
7.63216e-12
5.7857e-12
3.97527e-12
1.86201e-12
3.77636e-13
1.74375e-13
1.97887e-15
6.27555e-17
6.94447e-16
8.27934e-16
2.53221e-16
1.52422e-19
2.5828e-19
-2.3008e-21
-6.91203e-20
-8.48077e-19
-4.7707e-18
-3.17776e-18
-4.41539e-27
2.57507e-16
2.73188e-14
9.86021e-13
7.86529e-12
1.83562e-11
2.2181e-11
1.22908e-11
3.11368e-12
3.68448e-13
2.14922e-15
1.0347e-16
2.21456e-19
4.63608e-17
4.00271e-17
6.3833e-18
5.93091e-21
1.21776e-20
-1.32111e-42
1.69102e-40
1.57292e-56
-7.0788e-34
-3.99182e-28
3.55785e-20
1.10767e-18
2.59095e-16
1.35955e-13
3.46787e-12
1.65892e-11
2.69138e-11
2.82401e-11
2.18063e-11
3.39126e-12
6.00474e-17
3.57433e-34
-1.47854e-16
7.40812e-19
6.43819e-19
1.85561e-20
2.07425e-22
4.95087e-22
5.93958e-32
1.2644e-29
1.33574e-27
9.32807e-26
4.82944e-24
1.58917e-22
8.1365e-21
4.13774e-19
2.24338e-16
1.53863e-14
1.58911e-13
5.09005e-13
7.76886e-13
3.5513e-13
5.31865e-14
9.5127e-16
4.75813e-18
-1.29341e-16
1.61673e-20
8.78444e-21
5.23826e-23
6.48389e-24
1.73465e-23
1.29433e-35
2.91617e-33
2.73713e-31
1.29544e-29
1.55139e-28
-1.61832e-25
-4.43235e-24
6.9638e-22
1.595e-18
1.24918e-16
1.33395e-15
4.05589e-15
5.73179e-15
5.52367e-15
1.47101e-15
2.62883e-16
7.95685e-17
-3.38839e-17
1.25632e-21
7.75026e-23
1.6554e-24
1.74162e-25
5.24823e-25
1.0718e-38
-4.64865e-36
-1.30108e-33
-1.52237e-31
-1.1409e-29
-1.85141e-27
3.40887e-27
1.88489e-25
1.23952e-23
1.46882e-20
1.12165e-18
1.47285e-17
5.3515e-17
8.34662e-17
8.54487e-17
2.51974e-17
2.02357e-19
-3.93905e-18
7.52934e-23
5.61872e-25
4.66501e-26
3.97779e-27
1.37576e-26
-1.31173e-39
-3.08387e-37
-3.74759e-35
-3.01777e-33
-1.79836e-31
3.23091e-32
1.41352e-30
8.44711e-29
4.9948e-27
1.27488e-23
2.27575e-21
5.20931e-20
2.71908e-19
5.11382e-19
5.58753e-19
1.60739e-19
-7.47365e-20
-2.1616e-19
2.10927e-24
1.26805e-26
1.08594e-27
7.62759e-29
3.13954e-28
9.05257e-47
2.60578e-44
3.75027e-42
3.60292e-40
2.60188e-38
1.50657e-36
7.29324e-35
3.53588e-33
2.3916e-31
1.86181e-27
1.1026e-24
4.4342e-23
3.45217e-22
8.20354e-22
9.94623e-22
1.47495e-22
-1.25406e-21
-5.13057e-21
5.04882e-26
5.063e-28
2.15207e-29
1.25147e-30
6.23777e-30
2.17735e-50
6.96058e-48
1.11228e-45
1.18789e-43
9.49209e-42
6.07547e-40
2.89611e-38
2.58467e-36
1.12793e-34
4.75711e-33
5.28313e-30
1.93295e-27
1.16852e-25
1.35741e-24
3.99925e-24
4.76915e-24
-2.50542e-24
-3.4577e-23
1.3122e-27
1.42108e-29
3.64937e-31
2.27902e-32
1.07682e-31
6.93958e-56
2.49212e-53
4.17502e-51
-8.8757e-48
-1.47105e-45
-3.84242e-43
-2.24359e-41
1.16409e-41
9.08273e-40
4.18316e-38
3.13547e-34
1.01071e-30
1.09882e-28
2.04497e-27
8.28588e-27
1.23506e-26
8.44442e-27
5.0349e-29
3.01708e-29
2.30921e-31
3.79629e-33
4.28079e-34
1.62356e-33
1.36675e-59
5.17974e-57
-7.46386e-54
-1.31668e-51
-1.54476e-49
-3.38454e-47
9.61089e-47
9.65108e-45
5.58036e-43
2.7215e-41
1.31368e-39
7.6644e-37
3.02628e-34
4.47179e-32
1.45381e-30
8.89783e-30
1.59268e-29
1.36705e-29
1.13281e-31
2.40196e-33
3.48478e-35
7.9139e-36
2.14323e-35
-1.03824e-62
-1.54734e-58
-2.91122e-56
-3.76856e-54
-3.63788e-52
1.49275e-52
1.20438e-50
1.38149e-48
9.4049e-47
5.44569e-45
2.856e-43
2.86255e-41
1.52894e-37
4.06534e-35
2.35592e-33
2.17564e-32
4.73092e-32
4.5211e-32
1.22084e-34
2.55132e-35
2.46558e-36
1.49389e-37
2.48991e-37
-1.94341e-65
1.69089e-67
4.6239e-65
8.46154e-63
1.16988e-60
1.24919e-58
1.09114e-56
6.80051e-55
1.20953e-52
9.04673e-51
5.59455e-49
4.2101e-46
1.41195e-41
1.02367e-38
1.07299e-36
1.54937e-35
4.39889e-35
4.69515e-35
6.36575e-37
5.05435e-37
2.84547e-38
2.59239e-39
2.59536e-39
2.08515e-74
1.36491e-71
4.45402e-69
9.72824e-67
1.58898e-64
2.09611e-62
2.04019e-60
3.97247e-58
3.77854e-56
3.07818e-54
2.33163e-52
1.63795e-50
1.17645e-48
1.73317e-45
1.06202e-42
2.08364e-40
5.68062e-39
2.49905e-38
3.27415e-38
1.56766e-39
3.88293e-40
4.35393e-41
2.50035e-41
1.21773e-79
9.82302e-77
3.94268e-74
-2.91737e-71
-1.07069e-68
-9.15083e-66
-5.20935e-64
8.9687e-63
1.18308e-60
1.18931e-58
1.1124e-56
9.83091e-55
8.19597e-53
2.23312e-50
4.62735e-46
1.94783e-43
9.40176e-42
5.96375e-41
9.2137e-41
9.95968e-42
7.59116e-42
6.76612e-43
2.4145e-43
2.70745e-85
2.85752e-82
-2.66348e-77
-1.01408e-74
-2.61304e-72
-1.11237e-69
5.18411e-70
1.13213e-67
2.0696e-65
2.68488e-63
3.24196e-61
3.70136e-59
4.00992e-57
4.28196e-55
1.11255e-51
1.11593e-47
2.45733e-45
5.72547e-44
2.18071e-43
2.70151e-43
4.42308e-44
9.91111e-45
2.61188e-45
7.72761e-91
-2.51625e-84
-1.17927e-81
-3.82427e-79
-9.25828e-77
4.81838e-77
1.21553e-74
4.36119e-72
9.63148e-70
1.74974e-67
2.95888e-65
4.72976e-63
7.24615e-61
1.06918e-58
1.56496e-56
2.05918e-53
1.65781e-49
3.46726e-47
6.11156e-46
1.58699e-45
3.29864e-46
1.58722e-46
3.86266e-47
-6.80647e-93
9.54436e-95
1.23626e-91
1.03978e-88
6.54709e-86
3.30853e-83
1.41223e-80
6.56426e-78
3.29721e-75
1.01232e-72
2.87952e-70
7.72409e-68
1.98123e-65
4.92241e-63
1.19147e-60
5.92679e-58
4.44869e-53
3.80125e-50
1.58175e-48
6.30459e-48
3.34514e-48
2.46415e-48
7.12531e-49
2.5134e-112
3.07585e-108
1.29218e-104
3.42089e-101
-1.58037e-92
-2.20336e-89
-1.86246e-85
-1.09603e-84
1.74551e-85
2.95383e-82
2.84119e-79
2.36173e-76
1.87118e-73
1.43065e-70
1.06801e-67
7.85137e-65
2.39141e-58
1.08748e-53
1.86883e-51
1.8836e-50
2.79471e-50
4.14412e-50
1.38387e-50
0
3.45436e-124
0
-7.06624e-106
-2.94727e-102
-7.18286e-98
-1.60252e-95
-2.54887e-104
0
-2.71522e-99
-9.73136e-96
-1.68597e-92
-1.43488e-89
-1.46932e-86
-7.52292e-84
-4.76869e-81
-3.94418e-78
4.03425e-62
1.79016e-56
1.05044e-53
4.34979e-52
6.00531e-51
1.70452e-51
0.361749
4.79305e-10
4.35084e-10
3.94369e-10
0.492747
0.0164832
2.59358e-09
1.02001e-07
0.484425
0.103112
1.23679e-08
9.35511e-08
0.343994
0.209643
0.00218484
1.51342e-07
0.0533773
0.183166
0.0530431
0.00047453
0.00376255
0.0455378
0.0611745
0.0377517
0.000832803
0.00243613
0.0252743
0.036611
0.000162159
0.000491416
0.000906946
0.00645719
2.71732e-05
8.27603e-05
0.000157797
0.000210055
3.95694e-06
1.19345e-05
2.26993e-05
2.99944e-05
5.18819e-07
1.52593e-06
2.85481e-06
3.69603e-06
6.29465e-08
1.786e-07
3.26089e-07
4.11056e-07
7.20786e-09
1.95335e-08
3.45979e-08
4.23162e-08
7.86289e-10
2.0264e-09
3.46042e-09
4.0898e-09
1.0297e-10
2.08882e-10
3.29525e-10
3.74709e-10
1.37936e-11
2.60547e-11
3.80137e-11
3.9943e-11
3.06939e-12
4.85967e-12
5.20418e-12
4.51304e-12
3.76129e-13
6.14253e-13
6.94168e-13
6.12462e-13
3.14145e-14
4.94514e-14
5.54565e-14
4.61922e-14
2.45537e-15
3.44749e-15
3.55022e-15
2.60251e-15
1.69153e-16
2.16834e-16
2.10705e-16
1.37929e-16
1.01235e-17
1.20559e-17
1.11409e-17
6.57709e-18
5.26832e-19
5.90134e-19
5.22822e-19
2.81384e-19
2.38619e-20
2.54214e-20
2.17979e-20
1.08139e-20
9.43925e-22
9.64169e-22
8.08865e-22
3.74161e-22
3.25716e-23
3.25e-23
2.66606e-23
1.16975e-23
9.86203e-25
9.71122e-25
7.85151e-25
3.32069e-25
2.62353e-26
2.57985e-26
2.0746e-26
8.6133e-27
6.14395e-28
6.1194e-28
4.93566e-28
2.0552e-28
1.27167e-29
1.30006e-29
1.06177e-29
4.53879e-30
2.32872e-31
2.50224e-31
2.06177e-31
9.31877e-32
3.78587e-33
4.36137e-33
3.63708e-33
1.7821e-33
5.48848e-35
6.90398e-35
5.84961e-35
3.17348e-35
7.11244e-37
9.95703e-37
8.60903e-37
5.25479e-37
8.27313e-39
1.31091e-38
1.16486e-38
8.08125e-39
8.68143e-41
1.57835e-40
1.45687e-40
1.15458e-40
8.27416e-43
1.74352e-42
1.69218e-42
1.53731e-42
7.23593e-45
1.75831e-44
1.86755e-44
1.90349e-44
5.97117e-47
1.61353e-46
2.03936e-46
2.16116e-46
5.16044e-49
1.4079e-48
2.12143e-48
2.32095e-48
4.57959e-51
1.02252e-50
1.74134e-50
2.15922e-50
1.70452e-51
2.42227e-51
4.96805e-51
1.01585e-50
3.52712e-10
6.74529e-10
6.54797e-11
2.76673e-12
3.33949e-13
2.8734e-13
1.07539e-14
2.55636e-16
7.16597e-18
2.0224e-19
4.89275e-21
1.00665e-22
1.7411e-24
2.47487e-26
2.72984e-28
2.11977e-30
8.96652e-33
3.07749e-36
1.86821e-36
1.51555e-07
9.51058e-10
2.99752e-09
4.85592e-11
9.40872e-13
1.29729e-13
9.3483e-14
1.27079e-15
1.49536e-17
4.29218e-19
1.21757e-20
2.76394e-22
5.02673e-24
7.51808e-26
9.03742e-28
8.17065e-30
4.94116e-32
1.49496e-34
1.13737e-35
3.73075e-07
3.04228e-06
5.66004e-07
9.0079e-10
1.78704e-11
5.12251e-13
5.74953e-13
3.25995e-14
1.57321e-16
2.88729e-19
1.13151e-21
2.26636e-22
6.45553e-24
9.47266e-26
1.12866e-27
1.07826e-29
7.65983e-32
3.41746e-34
1.15653e-35
4.16813e-07
3.00736e-05
1.24968e-05
6.28206e-07
3.14082e-10
1.71748e-11
1.11252e-12
3.98095e-13
1.59591e-14
1.27095e-16
9.2938e-19
6.85238e-21
4.61537e-23
2.83201e-25
1.55747e-27
8.50116e-30
5.02098e-32
2.35492e-34
1.19255e-35
2.74521e-05
3.35677e-05
2.84039e-05
3.51658e-06
5.40997e-09
1.72864e-10
4.9968e-12
7.78968e-13
1.42348e-13
3.19618e-15
2.61983e-17
2.07973e-19
1.42436e-21
7.34126e-24
2.5977e-26
5.89443e-29
7.44257e-32
5.43742e-35
1.29781e-35
0.00189821
4.72724e-05
1.26198e-05
1.50163e-06
4.25411e-08
1.6914e-09
6.59649e-11
3.18668e-12
3.59358e-13
1.53207e-14
2.23926e-16
2.15619e-18
1.75123e-20
1.13657e-22
5.38828e-25
1.56516e-27
1.34027e-30
9.64009e-34
1.10513e-34
0.0133671
0.000233425
2.9609e-05
2.62037e-06
1.63093e-07
7.5034e-09
2.65665e-10
1.1209e-11
3.03197e-13
2.56701e-14
5.02554e-16
5.68808e-18
5.56218e-20
4.28135e-22
2.50615e-24
1.04963e-26
2.6912e-29
2.51481e-32
1.27959e-33
0.0076232
0.00107967
2.22017e-05
2.03954e-06
1.36932e-07
6.94076e-09
2.74161e-10
9.81164e-12
2.98835e-13
1.77371e-14
3.56709e-16
4.78206e-18
5.35916e-20
4.77658e-22
3.29713e-24
1.69333e-26
6.12982e-29
1.27621e-31
5.60294e-33
0.000124024
0.000171725
1.77602e-05
2.8663e-07
1.90197e-08
9.89253e-10
4.08095e-11
1.74834e-12
1.1553e-13
3.69167e-15
7.4686e-17
1.26114e-18
1.72267e-20
1.87125e-22
1.58845e-24
1.0183e-26
4.57613e-29
1.29583e-31
1.25393e-33
1.60165e-05
3.67295e-06
6.35112e-07
3.64082e-08
2.34477e-09
1.21148e-10
6.51407e-12
4.83081e-13
2.34545e-14
5.65798e-16
1.09364e-17
1.7903e-19
2.41442e-21
2.64577e-23
2.30601e-25
1.54429e-27
7.46944e-30
2.30295e-32
2.04635e-34
1.91698e-06
4.21579e-07
5.68477e-08
4.336e-09
2.77268e-10
1.82455e-11
1.47928e-12
1.03937e-13
3.24145e-15
7.60196e-17
1.53555e-18
2.57698e-20
3.56256e-22
4.00325e-24
3.57864e-26
2.45801e-28
1.22272e-30
3.91057e-33
2.63e-35
2.06152e-07
4.37203e-08
5.9369e-09
4.96198e-10
3.73485e-11
3.69706e-12
3.1771e-13
1.24236e-14
3.52589e-16
8.68934e-18
1.79043e-19
3.06979e-21
4.34622e-23
5.01433e-25
4.61467e-27
3.27266e-29
1.68631e-31
5.62137e-34
2.67887e-36
2.03926e-08
4.16194e-09
5.58768e-10
5.82064e-11
6.74466e-12
6.80589e-13
3.29351e-14
1.12079e-15
3.3264e-17
8.27058e-19
1.72052e-20
2.98524e-22
4.28787e-24
5.0321e-26
4.72372e-28
3.42708e-30
1.81227e-32
6.23062e-35
2.2308e-37
1.88411e-09
3.67931e-10
5.81441e-11
8.42427e-12
1.04979e-12
6.2585e-14
2.56251e-15
9.1065e-17
2.70465e-18
6.72867e-20
1.40346e-21
2.44701e-23
3.5403e-25
4.19531e-27
3.98687e-29
2.9361e-31
1.58056e-33
5.55357e-36
1.56079e-38
1.68821e-10
3.83749e-11
7.38051e-12
1.1732e-12
8.71663e-14
4.34029e-15
1.84646e-16
6.52045e-18
1.92343e-19
4.76241e-21
9.90754e-23
1.72681e-24
2.50327e-26
2.97945e-28
2.85088e-30
2.11933e-32
1.15471e-34
4.12021e-37
9.38675e-40
1.74861e-11
5.04451e-12
9.67625e-13
9.02511e-14
5.5401e-15
2.83559e-16
1.19055e-17
4.14797e-19
1.21005e-20
2.96978e-22
6.13799e-24
1.0653e-25
1.54141e-27
1.83552e-29
1.7614e-31
1.31642e-33
7.22901e-36
2.60744e-38
4.95457e-41
2.52155e-12
5.82362e-13
6.97438e-14
5.3705e-15
3.34121e-16
1.67531e-17
6.89581e-19
2.36234e-20
6.79422e-22
1.6481e-23
3.37487e-25
5.817e-27
8.37836e-29
9.95477e-31
9.55385e-33
7.15787e-35
3.94977e-37
1.43523e-39
2.51321e-42
2.42644e-13
3.85537e-14
3.91893e-15
3.02748e-16
1.83242e-17
8.95291e-19
3.60463e-20
1.21167e-21
3.42928e-23
8.20771e-25
1.66238e-26
2.84083e-28
4.06624e-30
4.81221e-32
4.61055e-34
3.45618e-36
1.9125e-38
6.98471e-41
1.23024e-43
1.53894e-14
2.14529e-15
2.08933e-16
1.5535e-17
9.11482e-19
4.33645e-20
1.70643e-21
5.62446e-23
1.5655e-24
3.69457e-26
7.39592e-28
1.25213e-29
1.77964e-31
2.09591e-33
2.00265e-35
1.50036e-37
8.31502e-40
3.04768e-42
5.39378e-45
8.76719e-16
1.16187e-16
1.04313e-17
7.30036e-19
4.11788e-20
1.90749e-21
7.3406e-23
2.37356e-24
6.4996e-26
1.51263e-27
2.99352e-29
5.02145e-31
7.0864e-33
8.30362e-35
7.91002e-37
5.91969e-39
3.28349e-41
1.20676e-43
2.13729e-46
4.63732e-17
5.83016e-18
4.96253e-19
3.22419e-20
1.71645e-21
7.65787e-23
2.88083e-24
9.15325e-26
2.46827e-27
5.66913e-29
1.10999e-30
1.84588e-32
2.58769e-34
3.01802e-36
2.867e-38
2.14332e-40
1.18962e-42
4.38274e-45
7.74702e-48
2.2341e-18
2.6894e-19
2.2007e-20
1.36515e-21
6.82425e-23
2.86809e-24
1.04001e-25
3.23954e-27
8.61973e-29
1.95763e-30
3.79751e-32
6.26671e-34
8.73357e-36
1.01445e-37
9.61479e-40
7.18321e-42
3.99013e-44
1.47387e-46
2.58967e-49
9.76884e-20
1.1385e-20
9.04762e-22
5.42982e-23
2.60937e-24
1.04307e-25
3.55669e-27
1.07104e-28
2.78793e-30
6.26486e-32
1.20617e-33
1.97873e-35
2.74532e-37
3.17878e-39
3.00727e-41
2.2465e-43
1.24948e-45
4.63041e-48
8.03948e-51
3.86986e-21
4.41515e-22
3.44648e-23
2.0201e-24
9.43872e-26
3.65214e-27
1.1998e-28
3.42994e-30
8.56493e-32
1.8816e-33
3.58234e-35
5.84942e-37
8.09243e-39
9.35298e-41
8.84164e-43
6.6078e-45
3.68216e-47
1.37045e-49
2.33411e-52
1.38786e-22
1.56728e-23
1.21529e-24
7.02894e-26
3.22149e-27
1.21759e-28
3.89695e-30
1.08124e-31
2.60274e-33
5.47458e-35
1.01722e-36
1.63594e-38
2.25205e-40
2.60087e-42
2.46e-44
1.84104e-46
1.0284e-48
3.84862e-51
6.39228e-54
4.50821e-24
5.09407e-25
3.96693e-26
2.28673e-27
1.03748e-28
3.86153e-30
1.21268e-31
3.29496e-33
7.75331e-35
1.59209e-36
2.86624e-38
4.46125e-40
6.04646e-42
6.92322e-44
6.52906e-46
4.89035e-48
2.73981e-50
1.03291e-52
1.66687e-55
1.32876e-25
1.51824e-26
1.19991e-27
6.9601e-29
3.15334e-30
1.16511e-31
3.61669e-33
9.68382e-35
2.24214e-36
4.528e-38
8.00876e-40
1.2253e-41
1.62334e-43
1.81844e-45
1.69379e-47
1.26172e-49
7.06205e-52
2.67614e-54
4.20231e-57
3.56479e-27
4.16055e-28
3.3702e-29
1.9849e-30
9.05424e-32
3.3461e-33
1.03385e-34
2.74539e-36
6.28988e-38
1.25532e-39
2.19355e-41
3.31685e-43
4.3428e-45
4.81302e-47
4.43051e-49
3.26387e-51
1.81218e-53
6.87975e-56
1.05892e-58
8.74359e-29
1.05244e-29
8.81641e-31
5.31603e-32
2.46013e-33
9.15749e-35
2.8345e-36
7.50961e-38
1.71176e-39
3.39292e-41
5.88182e-43
8.82181e-45
1.14614e-46
1.26162e-48
1.15448e-50
8.46711e-53
4.69179e-55
1.79389e-57
2.70733e-60
1.97152e-30
2.46977e-31
2.15656e-32
1.34117e-33
6.34021e-35
2.39239e-36
7.46256e-38
1.98339e-39
4.52071e-41
8.94014e-43
1.54391e-44
2.30531e-46
2.981e-48
3.26755e-50
2.9804e-52
2.1822e-54
1.21051e-56
4.67908e-59
6.96954e-62
4.11193e-32
5.40843e-33
4.95536e-34
3.19902e-35
1.5543e-36
5.97962e-38
1.88984e-39
5.06405e-41
1.15951e-42
2.29747e-44
3.96758e-46
5.91816e-48
7.64036e-50
8.36319e-52
7.62398e-54
5.58904e-56
3.11584e-58
1.22481e-60
1.82784e-63
7.98253e-34
1.11211e-34
1.07505e-35
7.24359e-37
3.6365e-38
1.43368e-39
4.61314e-41
1.25196e-42
2.89179e-44
5.76308e-46
9.98773e-48
1.49312e-49
1.93041e-51
2.1166e-53
1.93507e-55
1.42678e-57
8.04951e-60
3.25282e-62
5.00272e-65
1.4507e-35
2.16032e-36
2.21346e-37
1.56376e-38
8.14906e-40
3.30718e-41
1.08809e-42
3.00289e-44
7.02377e-46
1.4129e-47
2.4655e-49
3.7059e-51
4.81402e-53
5.30715e-55
4.89032e-57
3.65434e-59
2.11258e-61
8.9418e-64
1.48161e-66
2.47992e-37
3.98617e-38
4.34697e-39
3.23273e-40
1.7557e-41
7.36366e-43
2.48666e-44
7.00418e-46
1.66473e-47
3.39138e-49
5.97816e-51
9.06589e-53
1.18805e-54
1.32405e-56
1.23986e-58
9.51659e-61
5.75932e-63
2.62582e-65
4.93301e-68
4.00304e-39
7.01862e-40
8.18098e-41
6.42752e-42
3.65093e-43
1.58802e-44
5.52293e-46
1.59295e-47
3.85958e-49
7.98864e-51
1.42751e-52
2.19337e-54
2.9165e-56
3.31518e-58
3.20015e-60
2.58073e-62
1.68749e-64
8.54628e-67
1.87735e-69
6.12149e-41
1.18382e-41
1.48194e-42
1.23441e-43
7.35722e-45
3.3292e-46
1.19612e-47
3.54345e-49
8.77984e-51
1.85288e-52
3.37095e-54
5.28024e-56
7.19227e-58
8.46703e-60
8.62799e-62
7.55313e-64
5.51944e-66
3.15497e-68
8.01828e-71
8.89848e-43
1.91968e-43
2.59483e-44
2.29993e-45
1.44279e-46
6.81185e-48
2.53559e-49
7.73862e-51
1.96773e-52
4.25313e-54
7.92885e-56
1.27917e-57
1.81441e-59
2.26858e-61
2.52331e-63
2.47931e-65
2.0578e-67
1.31122e-69
3.70143e-72
1.23486e-44
3.00473e-45
4.41158e-46
4.17645e-47
2.76595e-48
1.36639e-49
5.28513e-51
1.66755e-52
4.37161e-54
9.74468e-56
1.88185e-57
3.18296e-59
4.82889e-61
6.63693e-63
8.32256e-65
9.30403e-67
8.64448e-69
5.94704e-71
1.78491e-73
1.64551e-46
4.56218e-47
7.32019e-48
7.43031e-49
5.21099e-50
2.70164e-51
1.08976e-52
3.57178e-54
9.72613e-56
2.26281e-57
4.6132e-59
8.41743e-61
1.41497e-62
2.20497e-64
3.14867e-66
3.93536e-68
3.95688e-70
2.84598e-72
8.80169e-75
2.12133e-48
6.76478e-49
1.19319e-49
1.30356e-50
9.71328e-52
5.30524e-53
2.24349e-54
7.70009e-56
2.20688e-57
5.47207e-59
1.21338e-60
2.47611e-62
4.74664e-64
8.4336e-66
1.34277e-67
1.81194e-69
1.9082e-71
1.40299e-73
4.39406e-76
2.1908e-50
8.99475e-51
1.83474e-51
2.2102e-52
1.77781e-53
1.03684e-54
4.66464e-56
1.70826e-57
5.28017e-59
1.4427e-60
3.6107e-62
8.47071e-64
1.85528e-65
3.66935e-67
6.28972e-69
8.87942e-71
9.58151e-73
7.10816e-75
9.18999e-78
4.64458e-51
8.82968e-52
1.0207e-52
7.92149e-54
4.45984e-55
1.92813e-56
6.77355e-58
2.05771e-59
6.91783e-61
2.16316e-62
6.25706e-64
1.68342e-65
4.10582e-67
8.74634e-69
1.57078e-70
2.27917e-72
2.49506e-74
1.85879e-76
8.23043e-78
)
;

boundaryField
{
    leftWall
    {
        type            zeroGradient;
    }
    rightWall
    {
        type            zeroGradient;
    }
    lowerWall
    {
        type            zeroGradient;
    }
    atmosphere
    {
        type            inletOutlet;
        inletValue      uniform 0;
        value           nonuniform List<scalar> 
46
(
0
0
0
0
0
0
0
0
0
0
0
0
0
0
0
0
0
0
0
0
4.34979e-52
6.00531e-51
1.70452e-51
1.70452e-51
2.42227e-51
4.96805e-51
1.01585e-50
4.64458e-51
8.82968e-52
1.0207e-52
7.92149e-54
4.45984e-55
1.92813e-56
6.77355e-58
2.05771e-59
6.91783e-61
2.16316e-62
6.25706e-64
1.68342e-65
4.10582e-67
8.74634e-69
1.57078e-70
2.27917e-72
2.49506e-74
1.85879e-76
8.23043e-78
)
;
    }
    defaultFaces
    {
        type            empty;
    }
}


// ************************************************************************* //
