/*--------------------------------*- C++ -*----------------------------------*\
| =========                 |                                                 |
| \\      /  F ield         | OpenFOAM: The Open Source CFD Toolbox           |
|  \\    /   O peration     | Version:  2012                                  |
|   \\  /    A nd           | Website:  www.openfoam.com                      |
|    \\/     M anipulation  |                                                 |
\*---------------------------------------------------------------------------*/
FoamFile
{
    version     2.0;
    format      ascii;
    class       surfaceScalarField;
    location    "0.15";
    object      alphaPhi0.water;
}
// * * * * * * * * * * * * * * * * * * * * * * * * * * * * * * * * * * * * * //

dimensions      [0 3 -1 0 0 0 0];
oriented        oriented;


internalField   nonuniform List<scalar> 
4432
(
4.37087e-06
-4.37087e-06
1.12031e-05
-6.83227e-06
1.7956e-05
-6.75283e-06
2.43734e-05
-6.41743e-06
3.07414e-05
-6.36799e-06
3.72685e-05
-6.52711e-06
4.40545e-05
-6.78594e-06
5.11374e-05
-7.0829e-06
5.85336e-05
-7.39626e-06
6.62416e-05
-7.70796e-06
7.42381e-05
-7.99651e-06
8.24711e-05
-8.23304e-06
9.08181e-05
-8.34694e-06
9.90284e-05
-8.21029e-06
0.000106701
-7.6722e-06
0.000113258
-6.55759e-06
0.000117719
-4.46063e-06
0.000117921
-2.01885e-07
0.00010925
8.66586e-06
8.56068e-05
2.36383e-05
4.61996e-05
3.94018e-05
4.99932e-06
3.97263e-05
3.56997e-06
4.40597e-06
-8.77684e-06
1.12183e-05
-1.36446e-05
1.79726e-05
-1.35071e-05
2.44017e-05
-1.28465e-05
3.07764e-05
-1.27427e-05
3.73103e-05
-1.30611e-05
4.41041e-05
-1.35797e-05
5.1196e-05
-1.41748e-05
5.86042e-05
-1.48045e-05
6.63282e-05
-1.54319e-05
7.43433e-05
-1.60116e-05
8.26057e-05
-1.64954e-05
9.10144e-05
-1.67557e-05
9.93452e-05
-1.65411e-05
0.000107213
-1.55402e-05
0.000114043
-1.3387e-05
0.000119027
-9.44511e-06
0.000121392
-2.56703e-06
0.000120534
9.52365e-06
0.000113158
3.09881e-05
9.02557e-05
6.22965e-05
4.47842e-05
8.51877e-05
4.24005e-05
4.43009e-06
-1.32069e-05
1.11989e-05
-2.04134e-05
1.79085e-05
-2.02167e-05
2.4308e-05
-1.9246e-05
3.06599e-05
-1.90946e-05
3.71759e-05
-1.9577e-05
4.39548e-05
-2.03587e-05
5.10348e-05
-2.12548e-05
5.8437e-05
-2.22067e-05
6.61637e-05
-2.31586e-05
7.41972e-05
-2.40451e-05
8.25084e-05
-2.48065e-05
9.10169e-05
-2.52642e-05
9.95266e-05
-2.50508e-05
0.0001077
-2.3714e-05
0.000115038
-2.07246e-05
0.000120796
-1.52034e-05
0.000123641
-5.41208e-06
0.000121807
1.13583e-05
0.000113994
3.88017e-05
9.74577e-05
7.88132e-05
6.02862e-05
0.000122345
9.73919e-05
4.45975e-06
-1.76667e-05
1.11781e-05
-2.71318e-05
1.78228e-05
-2.68614e-05
2.4175e-05
-2.55982e-05
3.04952e-05
-2.54149e-05
3.69888e-05
-2.60707e-05
4.37508e-05
-2.71206e-05
5.08192e-05
-2.83233e-05
5.82192e-05
-2.96066e-05
6.59589e-05
-3.08983e-05
7.40334e-05
-3.21197e-05
8.24325e-05
-3.32055e-05
9.10949e-05
-3.39267e-05
9.98635e-05
-3.38194e-05
0.000108486
-3.23365e-05
0.000116569
-2.88076e-05
0.000123407
-2.20414e-05
0.000127814
-9.81887e-06
0.000127625
1.15474e-05
0.000119679
4.6747e-05
0.000100995
9.74924e-05
6.47215e-05
0.000158613
0.000165723
4.49554e-06
-2.21622e-05
1.11545e-05
-3.37907e-05
1.77161e-05
-3.34229e-05
2.40057e-05
-3.18879e-05
3.02869e-05
-3.1696e-05
3.67556e-05
-3.25394e-05
4.34998e-05
-3.38648e-05
5.05579e-05
-3.53814e-05
5.79602e-05
-3.70088e-05
6.57222e-05
-3.86603e-05
7.38567e-05
-4.02542e-05
8.23737e-05
-4.17225e-05
9.12287e-05
-4.27816e-05
0.000100318
-4.29084e-05
0.00010951
-4.15286e-05
0.000118529
-3.78271e-05
0.000126735
-3.02472e-05
0.000133092
-1.61755e-05
0.000135837
8.80252e-06
0.000131244
5.13394e-05
0.000110909
0.000117754
7.15124e-05
0.000197939
0.000245408
4.54225e-06
-2.67045e-05
1.1129e-05
-4.03775e-05
1.75877e-05
-3.98816e-05
2.38015e-05
-3.81016e-05
3.00374e-05
-3.7932e-05
3.64775e-05
-3.89794e-05
4.32005e-05
-4.05878e-05
5.02446e-05
-4.24256e-05
5.76458e-05
-4.441e-05
6.5429e-05
-4.64435e-05
7.36275e-05
-4.84528e-05
8.22712e-05
-5.03661e-05
9.13291e-05
-5.18396e-05
0.000100763
-5.2342e-05
0.000110587
-5.13528e-05
0.000120649
-4.78889e-05
0.000130391
-3.99896e-05
0.000139154
-2.49382e-05
0.000146212
1.74424e-06
0.000147624
4.91501e-05
0.000127362
0.000137846
8.17762e-05
0.000243237
0.000326768
4.60162e-06
-3.13061e-05
1.10947e-05
-4.68705e-05
1.74291e-05
-4.6216e-05
2.35537e-05
-4.42263e-05
2.97355e-05
-4.41138e-05
3.61376e-05
-4.53815e-05
4.28282e-05
-4.72785e-05
4.98461e-05
-4.94435e-05
5.72334e-05
-5.17973e-05
6.5026e-05
-5.42361e-05
7.32791e-05
-5.67059e-05
8.20402e-05
-5.91272e-05
9.12991e-05
-6.10985e-05
0.000101096
-6.21385e-05
0.000111583
-6.184e-05
0.000122734
-5.90405e-05
0.000134151
-5.14059e-05
0.000145771
-3.6559e-05
0.000158115
-1.06005e-05
0.000164054
3.78119e-05
0.000141767
0.000139147
8.97993e-05
0.00029214
0.000414432
4.66621e-06
-3.59723e-05
1.10352e-05
-5.32395e-05
1.72306e-05
-5.24114e-05
2.32544e-05
-5.02501e-05
2.93689e-05
-5.02282e-05
3.57183e-05
-5.1731e-05
4.23606e-05
-5.39208e-05
4.93361e-05
-5.6419e-05
5.6694e-05
-5.91553e-05
6.44821e-05
-6.20242e-05
7.27757e-05
-6.49994e-05
8.16362e-05
-6.79877e-05
9.10902e-05
-7.05525e-05
0.000101265
-7.23132e-05
0.000112404
-7.29786e-05
0.000124625
-7.12624e-05
0.000137835
-6.46161e-05
0.000152177
-5.09159e-05
0.00016772
-2.62064e-05
0.000154821
2.05732e-05
0.000111623
6.97546e-05
8.17112e-05
0.000259949
0.000490416
-1.92684e-23
4.45789e-23
-9.18358e-24
6.50404e-24
-1.27315e-24
7.73737e-25
-5.23703e-26
-3.28604e-26
-1.05164e-27
-7.85804e-27
-2.92704e-29
-2.5045e-28
-9.37032e-31
-8.71632e-30
-2.65466e-32
-3.2179e-31
-6.2872e-34
-1.04769e-32
-1.27988e-35
-2.78614e-34
-2.22094e-37
-6.25109e-36
-3.18952e-39
-1.19187e-37
-3.677e-41
-1.87472e-39
-3.36093e-43
-2.2724e-41
-2.22708e-45
-2.32467e-43
-1.02023e-47
-1.63248e-45
-1.31588e-50
-9.33683e-48
-2.40517e-51
-2.36297e-50
-2.41024e-51
-1.56325e-21
3.29946e-21
-1.57669e-21
2.72875e-21
-2.64479e-22
4.66036e-22
-9.53636e-24
-1.90202e-23
-1.63145e-25
-2.76221e-24
-3.55005e-27
-7.01145e-26
-8.75217e-29
-1.805e-27
-2.07574e-30
-4.85205e-29
-4.34615e-32
-1.26635e-30
-7.95394e-34
-2.91613e-32
-1.23254e-35
-5.90568e-34
-1.56031e-37
-1.02244e-35
-1.55427e-39
-1.46122e-37
-1.1242e-41
-1.66543e-39
-5.62767e-44
-1.45409e-41
-1.52783e-46
-8.54161e-44
-1.54559e-49
-2.98976e-46
-4.8036e-52
-4.43165e-49
-4.24707e-51
-1.12301e-19
2.2428e-19
-1.41131e-19
2.70792e-19
-3.67843e-20
6.4611e-20
-9.06409e-22
-1.69342e-20
-1.21375e-23
-6.35119e-22
-2.07233e-25
-9.36287e-24
-3.91037e-27
-1.67838e-25
-7.5039e-29
-3.32624e-27
-1.35717e-30
-6.82426e-29
-2.2313e-32
-1.32247e-30
-3.17551e-34
-2.36146e-32
-3.74131e-36
-3.69323e-34
-3.44145e-38
-4.83798e-36
-2.30983e-40
-4.96512e-38
-1.00341e-42
-3.68163e-40
-2.19149e-45
-1.85893e-42
-1.52913e-48
-4.86787e-45
-7.85979e-51
-4.72504e-48
-1.13081e-49
-4.86537e-18
7.82463e-18
-2.2382e-17
2.98583e-17
-4.69395e-18
1.20999e-17
-5.30709e-20
-3.31839e-18
-5.4238e-22
-4.61404e-20
-7.76704e-24
-5.73752e-22
-1.21357e-25
-9.11462e-24
-1.93393e-27
-1.50598e-25
-3.00498e-29
-2.5285e-27
-4.34507e-31
-4.12248e-29
-5.53835e-33
-6.33639e-31
-5.87525e-35
-8.697e-33
-4.89618e-37
-1.00064e-34
-2.82e-39
-9.15326e-37
-1.07365e-41
-6.13646e-39
-1.8889e-44
-2.67701e-41
-7.79208e-48
-6.65245e-44
-1.39709e-49
-3.77169e-47
-3.23353e-48
-4.27281e-16
6.1918e-16
-9.34523e-16
1.76595e-15
-9.78398e-17
2.86817e-16
-9.75227e-19
-4.29335e-17
-1.0907e-20
-7.11372e-19
-1.68316e-22
-1.15588e-20
-2.51269e-24
-2.55836e-22
-3.58873e-26
-4.04221e-24
-4.92915e-28
-5.97857e-26
-6.28829e-30
-8.72242e-28
-7.07447e-32
-1.1957e-29
-6.61012e-34
-1.45065e-31
-4.76246e-36
-1.49006e-33
-2.49551e-38
-1.24886e-35
-7.40827e-41
-7.48825e-38
-1.03595e-43
-3.03182e-40
-1.25197e-47
-6.2116e-43
-1.79554e-49
-1.6845e-46
-6.20776e-47
-1.16309e-14
1.43183e-14
-6.39459e-15
1.3486e-14
-3.38198e-16
2.9447e-16
-5.89282e-18
-7.36741e-17
-9.2149e-20
-4.67575e-18
-1.82609e-21
-8.48652e-20
-2.9594e-23
-3.19043e-21
-4.24644e-25
-5.17524e-23
-5.55604e-27
-7.66268e-25
-6.5356e-29
-1.07422e-26
-6.69314e-31
-1.40192e-28
-5.73675e-33
-1.63934e-30
-3.64016e-35
-1.65732e-32
-1.59109e-37
-1.31412e-34
-3.51424e-40
-7.94763e-37
-7.0756e-44
-3.15423e-39
5.5456e-46
-5.54334e-42
4.63045e-47
-1.38475e-45
-8.25789e-46
-2.97951e-14
5.47792e-14
-6.3232e-15
2.68918e-14
-4.34332e-16
-2.14429e-16
-1.74743e-17
-6.83212e-17
-4.26202e-19
-9.82207e-18
-8.94471e-21
-4.17039e-19
-1.85516e-22
-8.06886e-21
-3.04916e-24
-2.48966e-22
-4.06671e-26
-6.40021e-24
-4.65552e-28
-9.93945e-26
-4.53327e-30
-1.19855e-27
-3.59477e-32
-1.2455e-29
-2.10344e-34
-1.12207e-31
-6.57266e-37
-8.01624e-34
2.249e-41
-4.30439e-36
8.75627e-42
-1.57346e-38
1.19305e-44
-2.34325e-41
1.25727e-45
-1.03267e-44
-7.8727e-45
-1.82897e-14
8.36249e-14
-5.06157e-15
1.84431e-14
-4.53195e-16
-4.40114e-15
-2.48015e-17
-4.2943e-16
-1.76194e-18
-2.66066e-19
-2.2363e-20
-5.21422e-18
-6.82143e-22
3.49093e-20
-1.60616e-23
-1.54095e-22
-2.43693e-25
-4.49895e-23
-2.7758e-27
-1.14443e-24
-2.5293e-29
-1.77289e-26
-1.75235e-31
-2.18526e-28
-6.93271e-34
-2.30988e-30
1.78004e-37
-1.93489e-32
2.37301e-38
-1.06581e-34
1.18412e-40
-2.70169e-37
1.32931e-43
2.79666e-40
1.95525e-44
3.09805e-43
-2.13957e-45
9.96519e-06
-4.59375e-05
2.32137e-05
-6.6488e-05
3.58331e-05
-6.50308e-05
4.8225e-05
-6.2642e-05
6.09498e-05
-6.2953e-05
7.42124e-05
-6.49936e-05
8.81058e-05
-6.78142e-05
0.000102725
-7.10383e-05
0.000118201
-7.46309e-05
0.000134671
-7.84941e-05
0.000152345
-8.26734e-05
0.000171388
-8.70306e-05
0.000192013
-9.11775e-05
0.000214693
-9.49936e-05
0.000239917
-9.82029e-05
0.000268382
-9.97281e-05
0.000301091
-9.73468e-05
0.000329138
-7.94245e-05
0.000252707
-3.18163e-05
7.41063e-05
3.9832e-06
4.97401e-05
9.90388e-06
9.95082e-05
5.21734e-05
0.000453146
0.000104966
1.00684e-05
-5.60059e-05
2.26186e-05
-7.90381e-05
3.44887e-05
-7.6901e-05
4.6309e-05
-7.44622e-05
5.85808e-05
-7.52249e-05
7.14294e-05
-7.78421e-05
8.49174e-05
-8.13021e-05
9.91538e-05
-8.52747e-05
0.000114301
-8.97778e-05
0.000130538
-9.47318e-05
0.00014812
-0.000100255
0.000167264
-0.000106175
0.00018836
-0.000112273
0.000211948
-0.000118582
0.000238491
-0.000124746
0.000267934
-0.000129181
0.000281954
-0.000111678
0.000143684
-4.97474e-05
8.78781e-06
-6.14829e-06
1.07533e-05
1.14305e-07
1.62255e-05
2.48513e-06
4.47315e-05
1.93361e-05
0.000324734
0.000104558
1.0081e-05
-6.60869e-05
2.1801e-05
-9.07581e-05
3.28169e-05
-8.79169e-05
4.39892e-05
-8.56345e-05
5.5705e-05
-8.69407e-05
6.80013e-05
-9.01385e-05
8.09254e-05
-9.42262e-05
9.46022e-05
-9.89515e-05
0.000109221
-0.000104397
0.00012498
-0.00011049
0.000142149
-0.000117424
0.000161027
-0.000125052
0.000182015
-0.000133262
0.000205369
-0.000141936
0.000231596
-0.000150973
0.000243596
-0.000141313
0.00010906
-7.46002e-05
8.1349e-06
-8.8122e-06
1.70233e-06
-5.73928e-07
1.52731e-06
2.7062e-08
3.17025e-06
4.08645e-07
1.73985e-05
3.86934e-06
6.93385e-05
6.01276e-05
9.9659e-06
-7.60528e-05
2.07358e-05
-0.000101528
3.08413e-05
-9.80224e-05
4.12969e-05
-9.60901e-05
5.23439e-05
-9.79877e-05
6.39433e-05
-0.000101738
7.61402e-05
-0.000106423
8.90752e-05
-0.000111887
0.000102955
-0.000118277
0.000117965
-0.0001255
0.000134405
-0.000133865
0.000152635
-0.000143282
0.000172732
-0.000153359
0.0001948
-0.000164003
0.00021478
-0.000170961
0.00012863
-0.000124532
9.16521e-06
-1.46019e-05
7.54412e-07
-1.25714e-06
1.03346e-07
5.68197e-09
9.60574e-08
3.77829e-09
3.54417e-07
5.39673e-08
2.59602e-06
9.78601e-07
1.14519e-05
3.49417e-05
9.71329e-06
-8.57661e-05
1.94252e-05
-0.00011124
2.85818e-05
-0.000107179
3.82513e-05
-0.00010576
4.85103e-05
-0.000108247
5.92657e-05
-0.000112493
7.05696e-05
-0.000117727
8.25754e-05
-0.000123892
9.54949e-05
-0.000131196
0.000109482
-0.000139487
0.000124944
-0.000149327
0.000142099
-0.000160437
0.000160518
-0.000171778
0.000180183
-0.000183668
0.000162474
-0.000159516
1.44739e-05
-3.03598e-05
1.30213e-06
-2.0622e-06
3.51537e-09
-2.98145e-08
1.89213e-09
9.17942e-10
-3.21389e-10
1.26425e-09
2.83807e-08
7.01578e-09
7.26136e-07
1.89404e-07
3.18213e-06
8.65651e-06
9.31882e-06
-9.50849e-05
1.78855e-05
-0.000119807
2.60679e-05
-0.000115361
3.48796e-05
-0.000114571
4.42311e-05
-0.000117598
5.40006e-05
-0.000122263
6.42517e-05
-0.000127978
7.51459e-05
-0.000134786
8.6881e-05
-0.000142931
9.95999e-05
-0.000152205
0.000113872
-0.000163599
0.00012944
-0.000176006
0.000145938
-0.000188274
0.0001531
-0.000190837
3.28804e-05
-9.36066e-05
1.96724e-06
-4.47228e-06
3.34835e-08
-2.14215e-07
-1.60151e-10
2.82046e-09
-9.93726e-10
8.00331e-10
-7.61023e-10
2.3938e-10
3.27951e-10
1.36778e-09
1.4773e-07
2.30016e-08
5.46712e-07
2.69064e-06
8.77592e-06
-0.000103861
1.61434e-05
-0.000127174
2.33388e-05
-0.000122557
3.12214e-05
-0.000122454
3.95541e-05
-0.000125931
4.82111e-05
-0.00013092
5.72663e-05
-0.000137033
6.68831e-05
-0.000144403
7.72206e-05
-0.000153269
8.84638e-05
-0.000163449
0.000101147
-0.000176282
0.000114426
-0.000189285
0.000128389
-0.000202232
9.52263e-05
-0.000168972
4.11801e-06
-1.5236e-05
2.26699e-07
-7.07488e-07
-1.31316e-09
4.98197e-09
-8.00061e-10
1.24685e-09
-2.03285e-10
1.02056e-10
-1.3912e-10
3.86787e-11
1.57715e-10
2.37934e-10
1.65607e-08
2.57516e-09
5.88892e-08
4.83847e-07
8.09758e-06
-0.000111958
1.42436e-05
-0.00013332
2.04511e-05
-0.000128764
2.73421e-05
-0.000129345
3.45671e-05
-0.000133156
4.20126e-05
-0.000138365
4.97556e-05
-0.000144776
5.79391e-05
-0.000152586
6.66548e-05
-0.000161984
7.61403e-05
-0.000172933
8.64052e-05
-0.000186544
9.67629e-05
-0.000199635
0.00010306
-0.00020847
1.32397e-05
-7.90981e-05
6.45112e-07
-2.17042e-06
-2.80592e-09
-6.22849e-08
-1.09742e-09
2.4655e-09
-1.07284e-10
1.5463e-10
-2.5107e-11
1.01473e-11
-1.39355e-11
5.29801e-12
3.4748e-11
3.88994e-11
2.19998e-10
4.56564e-10
4.16523e-09
5.05964e-08
7.31976e-06
-0.000119278
1.22631e-05
-0.000138263
1.75012e-05
-0.000134002
2.33638e-05
-0.000135207
2.94291e-05
-0.000139221
3.5596e-05
-0.000144531
4.1915e-05
-0.000151094
4.84477e-05
-0.000159117
5.51593e-05
-0.000168691
6.21803e-05
-0.000179944
6.87487e-05
-0.000193091
7.58989e-05
-0.000206723
6.20941e-05
-0.000198261
1.83858e-06
-1.6574e-05
6.04598e-08
-4.02301e-07
-2.33034e-09
5.57112e-10
-1.43097e-10
1.88251e-10
-1.05945e-11
1.10398e-11
-2.53747e-12
9.23635e-13
-1.05806e-12
6.71973e-13
6.46412e-12
4.75896e-12
1.10315e-10
5.27125e-11
6.66694e-10
2.21364e-09
6.50358e-06
-0.00012578
1.02897e-05
-0.000142046
1.45888e-05
-0.000138298
1.94042e-05
-0.000140019
2.42581e-05
-0.00014407
2.90361e-05
-0.000149303
3.37029e-05
-0.000155753
3.81739e-05
-0.000163573
4.22276e-05
-0.000172705
4.57781e-05
-0.000183406
4.80444e-05
-0.000195187
5.01261e-05
-0.000208337
1.33552e-05
-0.000146195
3.24692e-07
-2.88346e-06
-4.09091e-10
-7.70675e-08
-1.49698e-10
3.09244e-10
-8.69165e-12
4.05012e-11
-6.52549e-13
1.85673e-12
-2.08102e-13
2.85787e-13
-7.91664e-14
1.60943e-13
6.67133e-13
5.38886e-13
5.92176e-12
6.69783e-12
1.14227e-10
3.05113e-10
5.67615e-06
-0.000131438
8.28474e-06
-0.000144625
1.16234e-05
-0.000141607
1.53063e-05
-0.000143667
1.87853e-05
-0.000147504
2.19054e-05
-0.000152365
2.45119e-05
-0.000158281
2.64895e-05
-0.000165405
2.77163e-05
-0.000173588
2.87676e-05
-0.000183736
3.05241e-05
-0.000191284
3.05036e-05
-0.000162404
-2.60771e-07
-6.06215e-05
1.11829e-08
-3.24259e-06
1.62963e-10
-6.74936e-08
-7.45725e-12
4.81918e-10
-2.63528e-13
3.26764e-11
-3.72705e-14
1.57837e-12
-1.83655e-14
2.12706e-13
-9.42258e-15
1.16253e-13
1.67709e-14
7.09816e-14
2.5306e-12
1.12847e-12
1.52744e-11
7.53741e-11
4.69236e-06
-0.000135929
5.93413e-06
-0.000145565
8.17752e-06
-0.000143547
1.05395e-05
-0.000145671
1.24773e-05
-0.000149002
1.39098e-05
-0.000153242
1.47456e-05
-0.000155651
1.51366e-05
-0.000145627
1.53219e-05
-0.000122297
1.50791e-05
-8.60353e-05
1.39325e-05
-4.40585e-05
6.64234e-06
-3.0138e-06
-3.21594e-07
-2.33504e-07
-2.18492e-07
-4.55952e-06
8.72929e-09
-3.49567e-07
6.30187e-10
8.21256e-09
8.29471e-12
6.49326e-10
1.77968e-14
1.03719e-11
2.28428e-16
1.68532e-13
-5.31579e-16
9.78046e-14
1.23907e-14
5.04629e-14
5.56951e-13
1.39438e-13
1.59813e-12
1.0698e-11
3.17051e-06
-9.06892e-05
2.89884e-06
-8.36879e-05
3.92773e-06
-8.03543e-05
4.82204e-06
-7.30799e-05
5.27905e-06
-6.32269e-05
5.41388e-06
-5.12409e-05
5.4563e-06
-3.62427e-05
5.22169e-06
-8.82859e-07
4.53392e-06
-3.34439e-08
2.841e-06
-1.93083e-09
3.24889e-06
-8.24061e-11
2.37845e-07
-1.87146e-09
1.29263e-08
-4.61208e-10
1.23385e-06
-1.87308e-06
4.36253e-08
-1.4534e-06
6.97465e-09
4.03578e-08
1.9913e-10
7.27699e-09
1.1573e-12
2.04049e-10
-1.10286e-14
1.62187e-12
4.11638e-16
5.17007e-14
1.72365e-15
2.74781e-14
5.40639e-14
2.23233e-14
1.5569e-13
1.05194e-12
5.58674e-07
-3.84137e-26
2.9367e-07
-7.94519e-26
4.70593e-07
-1.28613e-23
5.85403e-07
-1.84556e-21
6.27001e-07
-1.90289e-19
5.10645e-07
-1.37244e-17
9.18301e-07
-2.99911e-16
3.54413e-08
-1.45958e-14
1.99786e-09
-5.64229e-13
8.03842e-11
-1.46582e-11
3.99143e-11
-6.32757e-11
1.85429e-10
-1.12298e-09
1.60449e-09
-9.94752e-10
5.33035e-07
-3.63964e-09
6.28396e-07
-1.30005e-06
9.13934e-09
1.24663e-07
2.3475e-10
1.58371e-08
1.39374e-12
4.34862e-10
-1.06426e-14
3.0224e-12
-3.16588e-16
1.08069e-14
-3.44452e-17
8.667e-15
2.14762e-15
5.45163e-15
1.77158e-14
7.10938e-14
4.8312e-28
-5.52331e-26
1.04413e-27
-9.57123e-26
8.35767e-26
-1.29647e-23
1.99677e-23
-1.86727e-21
3.3001e-21
-1.93825e-19
1.91449e-19
-1.39394e-17
1.99173e-17
-3.21571e-16
6.88512e-16
-1.53369e-14
3.32894e-14
-5.98086e-13
2.03397e-12
-1.67143e-11
9.53233e-11
-1.57869e-10
5.15026e-10
-1.57467e-09
9.66222e-10
-1.32542e-09
1.53764e-09
-4.33479e-09
3.23575e-07
-1.30665e-06
8.28397e-10
1.53899e-07
-2.96705e-10
1.70749e-08
-2.49353e-12
1.39938e-10
-9.81684e-15
6.3706e-13
-4.03895e-16
2.25035e-15
-1.88779e-16
2.13185e-15
-1.20526e-16
9.60469e-16
5.30848e-15
2.37674e-15
5.18099e-28
-4.03457e-26
4.01167e-27
-1.42822e-25
1.10522e-24
-2.6284e-23
2.32122e-22
-3.99318e-21
3.2871e-20
-4.31718e-19
3.12171e-18
-3.43811e-17
1.84792e-16
-1.39602e-15
1.87954e-14
-3.52563e-14
7.54119e-13
-1.34482e-12
2.19342e-11
-3.9404e-11
5.90692e-10
-1.12139e-09
3.21175e-09
-4.37432e-09
6.35814e-09
-5.2843e-09
4.36502e-08
-2.57798e-08
7.42049e-08
-5.06952e-07
-1.4278e-08
1.32972e-07
-1.15596e-10
2.93155e-09
-5.49584e-13
2.44282e-11
-2.17876e-15
9.0787e-14
-2.23301e-16
2.52934e-16
-7.0945e-17
4.49315e-16
-1.20544e-16
1.41145e-16
9.34878e-16
-2.23802e-16
3.59525e-28
-4.57197e-26
1.81985e-26
-1.21594e-24
5.78137e-24
-2.54199e-22
1.04897e-21
-3.57668e-20
1.27073e-19
-3.53902e-18
1.01957e-17
-2.156e-16
8.47645e-16
-6.58506e-15
7.28038e-14
-1.92243e-13
2.83266e-12
-6.63015e-12
9.34118e-11
-1.6243e-10
2.19422e-09
-3.2144e-09
6.04854e-09
-8.41861e-08
5.51117e-09
-1.98158e-07
-1.6969e-08
-8.21526e-08
-1.00419e-07
-2.68691e-10
-2.53536e-09
5.42238e-08
-2.13786e-11
4.18854e-10
-7.95523e-14
3.12619e-12
-3.06858e-16
9.6101e-15
-7.81893e-17
1.5055e-17
-1.82113e-17
8.39629e-17
-2.71031e-17
1.98299e-17
8.7821e-17
-9.88017e-17
-2.9548e-28
-3.41127e-26
-5.87829e-26
-4.90863e-24
-1.86256e-23
-9.04892e-22
-4.06669e-21
-1.05753e-19
-5.34538e-19
-9.2683e-18
-2.11127e-17
-4.51655e-16
5.26943e-15
-1.70549e-14
4.17438e-13
-6.79008e-13
1.21038e-11
-2.05809e-11
3.05932e-10
-4.17198e-10
4.65137e-09
-6.3225e-09
-1.08608e-07
-1.08985e-07
-1.28192e-07
-1.327e-07
-1.25758e-07
-3.87121e-08
-5.09955e-08
2.77039e-09
-3.88414e-10
3.65493e-09
-2.87771e-12
3.36568e-11
-8.95259e-15
2.36821e-13
-2.1792e-17
6.81699e-16
-2.01971e-17
5.35745e-18
-3.64654e-18
1.53281e-17
-4.72191e-18
2.46102e-18
7.82823e-18
-1.72108e-17
-6.20931e-26
-2.48942e-26
-6.29758e-25
-9.24082e-24
-1.58728e-22
-1.52066e-21
-3.03351e-20
-1.49921e-19
-3.63338e-18
-1.02558e-17
3.1971e-17
-4.72899e-16
-7.83356e-18
-1.76093e-14
-1.21165e-13
-5.75728e-13
-6.0072e-12
-1.52219e-11
-5.12031e-11
-4.11261e-10
-3.91709e-09
-1.98747e-09
-9.90657e-08
-7.19856e-10
-2.25443e-07
-4.36618e-09
-9.25241e-08
-6.30643e-09
-3.48532e-09
9.5787e-10
-3.06703e-11
2.05502e-10
-2.16079e-13
3.1904e-12
-6.15686e-16
2.10769e-14
-3.23867e-18
4.04607e-17
-5.09064e-18
3.15697e-18
-5.84192e-19
3.56535e-18
-6.73665e-19
2.607e-19
6.43438e-19
-2.2012e-18
-2.7724e-25
2.52346e-25
-1.40821e-24
-8.75249e-24
-3.25549e-22
-1.39421e-21
-4.67564e-20
-1.26973e-19
-3.54795e-18
-8.11603e-18
-1.08399e-16
-3.82835e-16
-2.52426e-15
-2.23998e-14
-1.97254e-13
-4.63709e-13
-1.68077e-11
-1.30761e-12
-4.44821e-10
-2.82714e-14
-4.90939e-11
-2.67713e-13
-7.66782e-10
-1.6557e-12
-5.12028e-09
-9.13077e-12
-1.22422e-09
-4.64738e-11
-1.96433e-10
3.95786e-11
-2.95449e-12
1.24758e-11
-1.89781e-14
2.58298e-13
-4.03761e-17
1.72725e-15
-1.91528e-18
9.87985e-19
-1.73547e-18
1.54789e-18
-7.48257e-20
1.20404e-18
-7.87177e-20
2.2705e-20
4.62281e-20
-2.28145e-19
-6.24971e-25
9.74499e-25
-3.88624e-23
2.9485e-23
-1.794e-21
3.60929e-22
-1.3091e-19
2.14258e-21
-8.25152e-18
4.5785e-21
-5.42913e-16
-2.58367e-20
-7.2395e-14
-2.29994e-18
-9.40447e-14
-3.80175e-17
-1.31936e-15
-4.96349e-16
-2.79185e-14
-1.96435e-15
-2.54908e-13
-2.01388e-14
-1.70718e-12
-1.45742e-13
-9.67388e-12
-6.51814e-13
-5.40333e-11
-6.18982e-13
-1.25123e-11
4.01046e-13
-2.54093e-13
2.47518e-13
-1.70364e-15
4.31555e-15
-1.40329e-18
2.41796e-17
-1.13946e-18
2.45218e-19
-8.80408e-19
6.82234e-19
-7.48816e-21
4.03111e-19
-7.47186e-21
1.55418e-21
2.87729e-21
-1.96485e-20
1.3442e-24
7.56019e-25
3.35613e-23
2.30276e-23
3.06362e-22
2.85971e-22
9.04535e-22
1.71627e-21
-2.68104e-21
3.12583e-21
-1.65526e-20
-1.19651e-20
-1.75406e-18
-5.71882e-19
-3.02947e-17
-1.06791e-17
-4.05576e-16
-1.24313e-16
-1.88285e-15
-5.22357e-16
-2.14283e-14
-8.85465e-16
-1.66329e-13
-1.07067e-15
-1.48419e-12
-1.09338e-15
-6.36334e-13
-3.4854e-15
-2.20861e-13
-2.13755e-16
-4.27355e-15
4.07953e-15
-2.34134e-17
7.78327e-17
-3.07308e-19
6.20218e-19
-4.66194e-19
1.20887e-19
-3.02113e-19
1.70637e-19
-5.75873e-22
6.66088e-20
-5.69211e-22
8.3156e-23
1.54652e-22
-1.42347e-21
1.20027e-24
2.8239e-25
3.03412e-23
8.61423e-24
2.79827e-22
1.06144e-22
7.02899e-22
6.00416e-22
-6.45156e-21
4.01949e-22
-1.05267e-20
-9.75433e-21
-4.10564e-19
-2.87349e-19
-1.65003e-17
-7.20574e-18
-2.91625e-16
-1.3062e-16
-9.20886e-16
-8.74093e-16
-9.46569e-16
-1.80039e-15
-7.49257e-16
-1.43416e-15
-7.67527e-16
-6.30663e-16
-4.03563e-15
-1.03792e-16
-4.17734e-15
-5.04558e-18
-7.81776e-17
2.56973e-17
-6.9876e-19
9.48008e-19
-7.29737e-20
9.39248e-21
-8.23712e-20
1.19467e-20
-3.99963e-20
1.21901e-20
-3.4853e-23
3.0522e-21
-3.52326e-23
3.64511e-24
7.1668e-24
-8.73673e-23
4.93008e-25
-1.07097e-30
1.23584e-23
-2.17421e-28
1.07358e-22
-2.15228e-26
9.90317e-23
-1.39503e-24
-5.26899e-21
-6.60383e-23
-1.24034e-20
-2.61995e-21
-3.12004e-19
-6.28985e-20
-1.50128e-17
-1.51629e-18
-3.42391e-16
-4.13921e-17
-1.66033e-15
-5.39329e-16
-2.66703e-15
-1.52855e-15
-2.26754e-15
-1.82923e-15
-7.3711e-16
-1.3569e-15
-8.27694e-17
-5.94995e-16
-2.6616e-17
-2.99364e-17
-9.43766e-19
3.11948e-19
-1.03398e-20
3.57358e-20
-5.59686e-21
4.35811e-21
-5.08313e-21
2.62102e-22
-1.78737e-21
2.5863e-22
-1.73263e-24
5.59415e-23
-1.81738e-24
1.36352e-25
2.86147e-25
-4.5671e-24
-1.0654e-30
-5.57297e-33
-2.17332e-28
-1.15445e-30
-2.16234e-26
-1.16775e-28
-1.40889e-24
-7.76271e-27
-6.70682e-23
-3.79002e-25
-2.68251e-21
-8.83711e-24
-6.54878e-20
-2.22559e-22
-1.66692e-18
-5.65745e-21
-7.84401e-17
-1.40136e-19
-1.0264e-15
-3.21826e-18
-2.72299e-15
-2.48511e-17
-3.22014e-15
-6.21786e-17
-2.53852e-15
-3.3844e-17
-7.5877e-16
-2.00264e-17
-3.52609e-19
-1.29686e-18
-2.08731e-20
1.24632e-21
1.47457e-20
1.16943e-22
-2.42583e-22
-3.72784e-21
-1.52534e-22
3.70175e-24
-4.98036e-23
4.55697e-24
-7.25371e-26
1.48024e-24
-7.91662e-26
4.38363e-27
9.84191e-27
-2.04268e-25
-5.55967e-33
-2.22823e-35
-1.15703e-30
-4.80983e-33
-1.17611e-28
-5.07213e-31
-7.85757e-27
-3.52331e-29
-3.85676e-25
-1.80523e-27
-9.20291e-24
-4.49845e-26
-2.31977e-22
-1.20536e-24
-5.94248e-21
-3.29228e-23
-2.07439e-19
-8.90694e-22
-5.25198e-18
-2.26071e-20
-3.39258e-17
-1.83183e-19
-7.61079e-17
-4.53626e-19
-5.48344e-17
-4.86251e-19
-1.02784e-17
-3.05019e-19
-1.92771e-19
-4.16853e-20
-1.24126e-20
-1.01774e-21
1.15066e-20
9.81669e-23
-6.7304e-24
-2.34566e-21
-3.92647e-24
8.98361e-26
-1.41757e-24
8.16508e-26
-2.56857e-27
3.56439e-26
-2.92121e-27
1.20194e-28
2.91921e-28
-7.82649e-27
-2.22799e-35
-4.5536e-39
-4.83154e-33
-1.03898e-36
-5.1192e-31
-1.1583e-34
-3.57389e-29
-8.54036e-33
-1.84054e-27
-4.66386e-31
-4.69239e-26
-1.25917e-29
-1.25163e-24
-3.66798e-28
-3.44713e-23
-1.07922e-26
-1.3941e-21
-2.73137e-25
-3.95669e-20
-6.96041e-24
-2.48641e-19
-1.66484e-22
-4.99125e-19
-1.50355e-21
-5.12634e-19
-4.13289e-21
-2.17547e-19
-4.53368e-21
-3.72039e-20
-2.65645e-21
-1.283e-20
-2.68755e-22
2.68953e-21
3.34032e-22
-2.07447e-25
-4.27127e-22
-9.46257e-26
3.58784e-27
-3.40295e-26
1.31426e-27
-7.68045e-29
7.10101e-28
-9.1356e-29
2.79965e-30
7.48051e-30
-2.57226e-28
-4.55179e-39
-3.52291e-42
-1.03436e-36
-8.37087e-40
-1.16584e-34
-1.04364e-37
-8.62412e-33
-8.57133e-36
-4.72736e-31
-5.21835e-34
-1.28239e-29
-1.50527e-32
-3.79587e-28
-5.23976e-31
-1.11853e-26
-1.69082e-29
-2.87398e-25
-4.71179e-28
-1.14527e-23
-1.22959e-26
-3.57913e-22
-3.58688e-25
-2.77137e-21
-5.01257e-24
-6.41174e-21
-1.98997e-23
-6.64493e-21
-2.74185e-23
-3.33155e-21
-1.90327e-23
-2.92691e-22
-2.59698e-24
2.78749e-22
2.16928e-25
-7.59212e-27
-3.25572e-23
-1.89831e-27
1.04911e-28
-6.7184e-28
1.4699e-29
-1.94113e-30
1.16872e-29
-2.42482e-30
5.54809e-32
1.65967e-31
-7.29154e-30
-1.84066e-42
-4.68248e-46
-7.98349e-40
-1.69673e-43
-9.94357e-38
-2.20584e-41
-8.22208e-36
-1.89936e-39
-5.03945e-34
-1.21719e-37
-1.55559e-32
-5.27637e-36
-5.39524e-31
-2.01183e-34
-1.74561e-29
-7.15876e-33
-4.89881e-28
-2.21476e-31
-1.73264e-26
-6.16184e-30
-8.20653e-25
-2.00783e-28
-1.04707e-23
-4.11815e-27
-3.23673e-23
-2.40991e-26
-3.81238e-23
-4.30983e-26
-2.11866e-23
-3.51228e-26
4.91311e-24
-3.04583e-27
1.36313e-23
2.69273e-27
-1.97411e-28
-1.03922e-24
-2.74106e-29
1.52196e-30
-1.08856e-29
1.53916e-31
-4.14904e-32
1.59829e-31
-5.47082e-32
9.36862e-34
3.19661e-33
-1.78886e-31
-8.4907e-46
-1.73456e-50
-1.70521e-43
-5.03553e-48
-2.22288e-41
-7.17985e-46
-1.92158e-39
-6.79053e-44
-1.2364e-37
-4.78901e-42
-5.40001e-36
-2.29908e-40
-2.06584e-34
-9.70136e-39
-7.3659e-33
-3.83199e-37
-2.28901e-31
-1.32503e-35
-7.30725e-30
-4.06237e-34
-4.50095e-28
-1.14542e-32
-9.49209e-27
-3.52992e-31
-4.16855e-26
-8.72387e-30
-5.93281e-26
-6.98064e-29
-4.05981e-26
-1.45811e-28
7.29234e-26
-1.04057e-28
2.87574e-25
1.06385e-29
-4.09092e-30
-1.06064e-26
-3.30042e-31
2.31385e-32
-1.44882e-31
1.51828e-33
-7.52179e-34
1.84274e-33
-1.05093e-33
1.36386e-35
5.35809e-35
-3.80386e-33
-1.73449e-50
-3.91905e-54
-5.05265e-48
-1.26316e-51
-7.23002e-46
-1.99715e-49
-6.86246e-44
-2.09635e-47
-4.85736e-42
-1.64332e-45
-2.34764e-40
-8.81322e-44
-9.94384e-39
-4.15476e-42
-3.93469e-37
-1.8402e-40
-1.36529e-35
-7.16609e-39
-4.20471e-34
-2.48525e-37
-1.3797e-32
-7.80984e-36
-8.37155e-31
-2.61361e-34
-2.72714e-29
-8.51537e-33
-1.79645e-28
-1.04074e-31
-2.50547e-28
-3.06149e-31
1.28631e-28
-2.97211e-31
1.71833e-27
-5.02741e-32
-8.28992e-32
-5.95806e-36
-3.6422e-33
3.59097e-34
-1.60542e-33
1.31231e-35
-1.17821e-35
1.6086e-35
-1.72989e-35
1.74917e-37
7.84177e-37
-7.01768e-35
-3.91905e-54
-1.17703e-59
-1.26707e-51
-4.26066e-57
-2.00981e-49
-7.54975e-55
-2.1163e-47
-8.89025e-53
-1.66424e-45
-7.82889e-51
-9.02121e-44
-4.73609e-49
-4.24545e-42
-2.52332e-47
-1.88266e-40
-1.26506e-45
-7.35446e-39
-5.58737e-44
-2.55884e-37
-2.2057e-42
-8.22805e-36
-7.89764e-41
-5.29503e-34
-2.62259e-39
-2.72286e-32
-8.76177e-38
-2.69028e-31
-3.08825e-36
-5.67684e-31
-5.56458e-35
-5.03489e-31
-2.26747e-34
-2.9672e-33
-2.28391e-34
-1.87878e-33
-4.41582e-35
-3.54763e-35
2.7421e-36
-1.48268e-35
8.85697e-38
-1.60354e-37
1.13427e-37
-2.44716e-37
1.98673e-39
1.0067e-38
-1.12954e-36
-1.177e-59
-2.19017e-63
-4.27179e-57
-8.95645e-61
-7.57877e-55
-1.80438e-58
-8.94248e-53
-2.42371e-56
-7.89163e-51
-2.43474e-54
-4.75491e-49
-1.63642e-52
-2.57112e-47
-1.04488e-50
-1.29202e-45
-5.98854e-49
-5.72139e-44
-3.02891e-47
-2.26534e-42
-1.37337e-45
-8.13796e-41
-5.66588e-44
-2.91884e-39
-2.15406e-42
-1.63948e-37
-8.06451e-41
-1.19144e-35
-3.35681e-39
-2.11709e-34
-9.2413e-38
-6.308e-34
-5.77945e-37
-6.0254e-34
-7.75003e-37
-1.13395e-35
-2.95597e-37
-2.73632e-37
1.33579e-39
-1.12494e-37
4.92496e-40
-1.91943e-39
3.93886e-40
-2.99186e-39
2.05432e-41
1.13982e-40
-1.59193e-38
-2.1755e-63
-1.14034e-67
-8.75467e-61
-4.75965e-65
-1.7712e-58
-1.0999e-62
-2.38828e-56
-1.68881e-60
-2.40831e-54
-1.94191e-58
-1.66052e-52
-1.68411e-56
-1.06151e-50
-1.23981e-54
-6.09656e-49
-8.21009e-53
-3.0906e-47
-4.80897e-51
-1.40472e-45
-2.53135e-49
-5.80881e-44
-1.21553e-47
-2.21737e-42
-5.39135e-46
-1.20504e-40
-2.27304e-44
-1.18211e-38
-1.09335e-42
-3.73152e-37
-4.36592e-41
-1.63178e-36
-4.25142e-40
-1.59145e-36
-7.90683e-40
-1.32343e-38
-4.12806e-40
-1.91848e-39
-3.16772e-44
-8.11359e-40
3.84065e-42
-2.08713e-41
2.70235e-42
-3.21012e-41
2.02548e-43
1.14683e-42
-1.97144e-40
-1.12483e-67
-3.85548e-74
-4.7709e-65
-2.12828e-71
-1.10467e-62
-5.74294e-69
-1.69986e-60
-1.02982e-66
-1.95891e-58
-1.3839e-64
-1.7037e-56
-1.405e-62
-1.25685e-54
-1.2115e-60
-8.3359e-53
-9.40794e-59
-4.89235e-51
-6.47587e-57
-2.58028e-49
-4.01358e-55
-1.24134e-47
-2.27389e-53
-5.51707e-46
-1.19236e-51
-2.76567e-44
-5.84457e-50
-3.2662e-42
-2.7358e-48
-1.78045e-40
-1.35525e-46
-1.22785e-39
-6.93627e-45
-1.36435e-39
-1.09255e-43
-1.97865e-41
-2.63514e-43
-1.74659e-41
-7.36816e-44
-5.76398e-42
3.0789e-44
-2.11664e-43
1.24415e-44
-3.08589e-43
1.978e-45
1.03632e-44
-2.1537e-42
-3.85544e-74
-2.49847e-78
-2.13211e-71
-1.64489e-75
-5.76418e-69
-5.29421e-73
-1.03557e-66
-1.13256e-70
-1.39423e-64
-1.81685e-68
-1.41893e-62
-2.20466e-66
-1.22699e-60
-2.27627e-64
-9.53509e-59
-2.11815e-62
-6.57358e-57
-1.74951e-60
-4.08136e-55
-1.30318e-58
-2.31637e-53
-8.88896e-57
-1.21676e-51
-5.62209e-55
-5.97683e-50
-3.33029e-53
-3.20853e-48
-1.86179e-51
-3.62809e-46
-1.07019e-49
-3.65574e-44
-7.2876e-48
-4.79906e-43
-1.91058e-46
-7.85436e-43
-7.11336e-46
-8.10795e-44
-3.78252e-46
-3.22539e-44
3.51582e-47
-2.11635e-45
9.54678e-47
-2.79081e-45
2.03805e-47
8.53533e-47
-2.0843e-44
-2.49846e-78
-1.40556e-83
-1.64739e-75
-1.14002e-80
-5.31067e-73
-4.51105e-78
-1.13781e-70
-1.18608e-75
-1.82805e-68
-2.3398e-73
-2.24149e-66