/*--------------------------------*- C++ -*----------------------------------*\
| =========                 |                                                 |
| \\      /  F ield         | OpenFOAM: The Open Source CFD Toolbox           |
|  \\    /   O peration     | Version:  2012                                  |
|   \\  /    A nd           | Website:  www.openfoam.com                      |
|    \\/     M anipulation  |                                                 |
\*---------------------------------------------------------------------------*/
FoamFile
{
    version     2.0;
    format      ascii;
    class       surfaceScalarField;
    location    "0.15";
    object      phi;
}
// * * * * * * * * * * * * * * * * * * * * * * * * * * * * * * * * * * * * * //

dimensions      [0 3 -1 0 0 0 0];
oriented        oriented;


internalField   nonuniform List<scalar> 
4432
(
4.30945e-06
-4.30945e-06
1.11327e-05
-6.82321e-06
1.78937e-05
-6.76107e-06
2.43076e-05
-6.41386e-06
3.06567e-05
-6.34909e-06
3.71545e-05
-6.49785e-06
4.3904e-05
-6.74945e-06
5.09429e-05
-7.03898e-06
5.82844e-05
-7.34144e-06
6.59217e-05
-7.63727e-06
7.38246e-05
-7.90297e-06
8.19322e-05
-8.1076e-06
9.01129e-05
-8.18069e-06
9.8105e-05
-7.99203e-06
0.000105485
-7.37966e-06
0.000111636
-6.15156e-06
0.000115532
-3.89611e-06
0.000115022
5.10334e-07
0.000105475
9.54691e-06
8.13557e-05
2.41193e-05
4.23458e-05
3.90099e-05
2.88917e-06
3.94567e-05
2.88917e-06
4.34522e-06
-8.65467e-06
1.11487e-05
-1.36267e-05
1.79111e-05
-1.35234e-05
2.43368e-05
-1.28395e-05
3.06928e-05
-1.27052e-05
3.71981e-05
-1.30031e-05
4.39562e-05
-1.35076e-05
5.10052e-05
-1.40879e-05
5.83598e-05
-1.46961e-05
6.60149e-05
-1.52924e-05
7.39393e-05
-1.58274e-05
8.20791e-05
-1.62474e-05
9.03233e-05
-1.64249e-05
9.84369e-05
-1.61056e-05
0.000106016
-1.49592e-05
0.000112458
-1.25928e-05
0.000116938
-8.3766e-06
0.000118785
-1.33693e-06
0.000117555
1.07775e-05
0.000109806
3.18678e-05
8.66594e-05
6.21568e-05
4.33001e-05
8.28159e-05
4.61893e-05
4.37069e-06
-1.30254e-05
1.11311e-05
-2.03871e-05
1.78483e-05
-2.02407e-05
2.4244e-05
-1.92352e-05
3.05775e-05
-1.90387e-05
3.70655e-05
-1.9491e-05
4.38101e-05
-2.02522e-05
5.08491e-05
-2.11269e-05
5.82e-05
-2.2047e-05
6.58611e-05
-2.29535e-05
7.38083e-05
-2.37745e-05
8.20021e-05
-2.44413e-05
9.03521e-05
-2.47748e-05
9.86516e-05
-2.44052e-05
0.000106546
-2.28532e-05
0.000113505
-1.9552e-05
0.000118764
-1.36356e-05
0.000120972
-3.54473e-06
0.000118585
1.31643e-05
0.000110624
3.98291e-05
9.43393e-05
7.8441e-05
5.81283e-05
0.000119027
0.000104318
4.40243e-06
-1.74278e-05
1.11133e-05
-2.7098e-05
1.7765e-05
-2.68924e-05
2.41127e-05
-2.55829e-05
3.04148e-05
-2.53407e-05
3.68818e-05
-2.59581e-05
4.36117e-05
-2.6982e-05
5.06418e-05
-2.8157e-05
5.79941e-05
-2.93993e-05
6.56729e-05
-3.06323e-05
7.36671e-05
-3.17687e-05
8.19565e-05
-3.27307e-05
9.04706e-05
-3.3289e-05
9.90407e-05
-3.29752e-05
0.000107394
-3.1206e-05
0.000115106
-2.72649e-05
0.000121441
-1.99698e-05
0.000125165
-7.26897e-06
0.000124212
1.41173e-05
0.000115681
4.83597e-05
9.72272e-05
9.68952e-05
6.19118e-05
0.000154342
0.000166229
4.44109e-06
-2.18689e-05
1.10938e-05
-3.37508e-05
1.76615e-05
-3.346e-05
2.39458e-05
-3.18672e-05
3.02092e-05
-3.16042e-05
3.6653e-05
-3.24019e-05
4.33679e-05
-3.36969e-05
5.03912e-05
-3.51803e-05
5.77501e-05
-3.67582e-05
6.54568e-05
-3.83391e-05
7.3518e-05
-3.98298e-05
8.19353e-05
-4.1148e-05
9.06558e-05
-4.20096e-05
9.95606e-05
-4.188e-05
0.000108495
-4.01405e-05
0.00011716
-3.59297e-05
0.000124875
-2.76852e-05
0.000130511
-1.29042e-05
0.00013224
1.23877e-05
0.000126374
5.42257e-05
0.0001058
0.00011747
6.76555e-05
0.000192487
0.000233885
4.49142e-06
-2.63603e-05
1.10732e-05
-4.03325e-05
1.75367e-05
-3.99236e-05
2.37438e-05
-3.80743e-05
2.99625e-05
-3.78228e-05
3.63796e-05
-3.8819e-05
4.30762e-05
-4.03935e-05
5.00892e-05
-4.21934e-05
5.74519e-05
-4.41209e-05
6.5186e-05
-4.60732e-05
7.33193e-05
-4.79631e-05
8.18754e-05
-4.97041e-05
9.0817e-05
-5.09511e-05
0.000100086
-5.11493e-05
0.000109672
-4.97265e-05
0.000119411
-4.56679e-05
0.000128699
-3.69742e-05
0.000136688
-2.08927e-05
0.000142369
6.70661e-06
0.000141888
5.47069e-05
0.000121066
0.000138292
7.75197e-05
0.000236033
0.000311405
4.5549e-06
-3.09152e-05
1.10442e-05
-4.68218e-05
1.73817e-05
-4.6261e-05
2.34982e-05
-4.41909e-05
2.96631e-05
-4.39877e-05
3.60444e-05
-4.52003e-05
4.27119e-05
-4.70609e-05
4.97029e-05
-4.91844e-05
5.70573e-05
-5.14752e-05
6.48082e-05
-5.38241e-05
7.3006e-05
-5.61608e-05
8.16944e-05
-5.83926e-05
9.08585e-05
-6.01152e-05
0.000100517
-6.08083e-05
0.0001108
-6.00092e-05
0.000121683
-5.65507e-05
0.000132719
-4.80099e-05
0.000143548
-3.17222e-05
0.000154338
-4.08289e-06
0.000160917
4.81274e-05
0.000139083
0.000160126
8.87108e-05
0.000286405
0.000400115
4.6239e-06
-3.55391e-05
1.09902e-05
-5.31882e-05
1.71869e-05
-5.24577e-05
2.32014e-05
-5.02054e-05
2.92998e-05
-5.0086e-05
3.5631e-05
-5.15315e-05
4.22539e-05
-5.36838e-05
4.92073e-05
-5.61379e-05
5.65387e-05
-5.88066e-05
6.42938e-05
-6.15792e-05
7.25439e-05
-6.44109e-05
8.13486e-05
-6.71973e-05
9.07304e-05
-6.9497e-05
0.000100799
-7.08774e-05
0.000111783
-7.09931e-05
0.000123815
-6.85822e-05
0.000136801
-6.09958e-05
0.000150781
-4.57019e-05
0.000166732
-2.00345e-05
0.000177893
3.69666e-05
0.000146595
0.000191424
9.00349e-05
0.000342965
0.00049015
-1.20314e-05
1.20314e-05
-1.86287e-05
6.59724e-06
-2.15514e-05
2.9227e-06
-2.14658e-05
-8.57352e-08
-1.96744e-05
-1.79131e-06
-1.70544e-05
-2.61985e-06
-1.41856e-05
-2.86888e-06
-1.14581e-05
-2.72744e-06
-9.0199e-06
-2.43813e-06
-6.95516e-06
-2.06475e-06
-5.2667e-06
-1.68841e-06
-3.90772e-06
-1.35906e-06
-2.83443e-06
-1.07326e-06
-2.03115e-06
-8.034e-07
-1.40044e-06
-6.30898e-07
-9.42365e-07
-4.57904e-07
-5.71116e-07
-3.7135e-07
-2.73396e-07
-2.97521e-07
-2.73555e-07
-1.38743e-05
2.59055e-05
-1.99952e-05
1.2718e-05
-2.21117e-05
5.03941e-06
-2.15236e-05
-6.73849e-07
-1.94078e-05
-3.90714e-06
-1.65047e-05
-5.5228e-06
-1.34309e-05
-5.94259e-06
-1.05555e-05
-5.60288e-06
-8.02912e-06
-4.96438e-06
-5.94982e-06
-4.14408e-06
-4.29162e-06
-3.34656e-06
-3.01581e-06
-2.63505e-06
-2.06596e-06
-2.02317e-06
-1.35382e-06
-1.5152e-06
-8.67513e-07
-1.11711e-06
-5.17602e-07
-8.07402e-07
-2.9266e-07
-5.96518e-07
-1.36507e-07
-4.52986e-07
-4.1027e-07
-1.51498e-05
4.10553e-05
-2.14057e-05
1.89736e-05
-2.31925e-05
6.82634e-06
-2.21746e-05
-1.69154e-06
-1.97238e-05
-6.35804e-06
-1.66236e-05
-8.62291e-06
-1.34439e-05
-9.12214e-06
-1.05351e-05
-8.51163e-06
-8.00715e-06
-7.49232e-06
-5.93701e-06
-6.21411e-06
-4.29083e-06
-4.99248e-06
-3.02557e-06
-3.89985e-06
-2.06827e-06
-2.98011e-06
-1.36957e-06
-2.21372e-06
-8.78233e-07
-1.60865e-06
-5.32145e-07
-1.15309e-06
-3.01267e-07
-8.27602e-07
-1.40148e-07
-6.13637e-07
-5.50641e-07
-1.79404e-05
5.89957e-05
-2.40972e-05
2.51303e-05
-2.49465e-05
7.67568e-06
-2.31345e-05
-3.50342e-06
-2.01907e-05
-9.30175e-06
-1.67505e-05
-1.20632e-05
-1.33684e-05
-1.25041e-05
-1.03415e-05
-1.15383e-05
-7.80983e-06
-1.00239e-05
-5.74893e-06
-8.2747e-06
-4.12541e-06
-6.61585e-06
-2.88381e-06
-5.14167e-06
-1.97554e-06
-3.88872e-06
-1.28779e-06
-2.90134e-06
-8.2323e-07
-2.07309e-06
-4.89032e-07
-1.48674e-06
-2.74365e-07
-1.04252e-06
-1.26909e-07
-7.60772e-07
-6.77715e-07
-2.24324e-05
8.14281e-05
-2.79362e-05
3.06341e-05
-2.73519e-05
7.09131e-06
-2.43912e-05
-6.46407e-06
-2.07116e-05
-1.29812e-05
-1.68461e-05
-1.59287e-05
-1.3265e-05
-1.60852e-05
-1.00832e-05
-1.47198e-05
-7.51413e-06
-1.25931e-05
-5.46656e-06
-1.03226e-05
-3.87207e-06
-8.21064e-06
-2.66413e-06
-6.34983e-06
-1.77552e-06
-4.77741e-06
-1.14966e-06
-3.52691e-06
-7.01281e-07
-2.52148e-06
-4.11539e-07
-1.77619e-06
-2.29225e-07
-1.22513e-06
-1.06203e-07
-8.83517e-07
-7.84017e-07
-2.80397e-05
0.000109468
-3.26622e-05
3.52569e-05
-3.04382e-05
4.86728e-06
-2.60539e-05
-1.08486e-05
-2.13493e-05
-1.76858e-05
-1.69409e-05
-2.0337e-05
-1.30083e-05
-2.0018e-05
-9.76592e-06
-1.79622e-05
-7.16449e-06
-1.51946e-05
-5.11252e-06
-1.23747e-05
-3.56119e-06
-9.76197e-06
-2.42176e-06
-7.48913e-06
-1.55325e-06
-5.64581e-06
-9.73547e-07
-4.10632e-06
-5.68426e-07
-2.92672e-06
-3.28551e-07
-2.01592e-06
-1.64658e-07
-1.38928e-06
-7.21455e-08
-9.75758e-07
-8.56236e-07
-3.72675e-05
0.000146735
-3.9088e-05
3.70774e-05
-3.43489e-05
1.28271e-07
-2.81882e-05
-1.70094e-05
-2.21658e-05
-2.37082e-05
-1.6977e-05
-2.55257e-05
-1.2751e-05
-2.42439e-05
-9.26293e-06
-2.14505e-05
-6.63125e-06
-1.78262e-05
-4.63714e-06
-1.43686e-05
-3.14149e-06
-1.12574e-05
-2.05985e-06
-8.57056e-06
-1.31345e-06
-6.39215e-06
-7.56747e-07
-4.66279e-06
-4.28262e-07
-3.25528e-06
-2.01018e-07
-2.24296e-06
-8.82435e-08
-1.50219e-06
-3.55484e-08
-1.0282e-06
-8.91844e-07
-4.74018e-05
0.000194137
-4.91288e-05
3.88044e-05
-3.94173e-05
-9.58299e-06
-3.06257e-05
-2.5801e-05
-2.30572e-05
-3.12766e-05
-1.70145e-05
-3.15687e-05
-1.22936e-05
-2.89645e-05
-8.7423e-06
-2.50017e-05
-6.08774e-06
-2.04807e-05
-4.10379e-06
-1.63525e-05
-2.68661e-06
-1.26745e-05
-1.68192e-06
-9.57527e-06
-9.74306e-07
-7.09992e-06
-5.3338e-07
-5.10365e-06
-2.24659e-07
-3.56409e-06
-6.69973e-08
-2.40046e-06
-2.18716e-09
-1.56709e-06
6.26551e-09
-1.0365e-06
-8.85611e-07
9.88923e-06
-4.54283e-05
2.31379e-05
-6.64369e-05
3.57541e-05
-6.50739e-05
4.81225e-05
-6.25737e-05
6.08174e-05
-6.2781e-05
7.40513e-05
-6.47655e-05
8.79169e-05
-6.75494e-05
0.000102507
-7.0728e-05
0.00011795
-7.42494e-05
0.000134382
-7.80109e-05
0.000152008
-8.2037e-05
0.000170993
-8.61822e-05
0.000191542
-9.00468e-05
0.000214123
-9.34575e-05
0.000239229
-9.60998e-05
0.000267553
-9.69062e-05
0.000300824
-9.42666e-05
0.000339104
-8.39822e-05
0.000371775
-5.27054e-05
0.000356576
5.21657e-05
0.000289634
0.000258366
0.000219262
0.000413337
0.000555744
0.000153669
1.00135e-05
-5.54418e-05
2.25674e-05
-7.89908e-05
3.44273e-05
-7.69338e-05
4.62222e-05
-7.43686e-05
5.84713e-05
-7.50301e-05
7.1305e-05
-7.75991e-05
8.47839e-05
-8.10283e-05
9.90157e-05
-8.49598e-05
0.000114163
-8.93968e-05
0.000130409
-9.42571e-05
0.000148008
-9.96353e-05
0.000167182
-0.000105357
0.000188326
-0.000111191
0.000211998
-0.000117129
0.000238714
-0.000122816
0.000269589
-0.000127781
0.000304696
-0.000129374
0.000339238
-0.000118524
0.000352504
-6.59719e-05
0.000317444
8.72258e-05
0.000273508
0.000302302
0.000233488
0.000453357
0.000606939
0.000182293
1.00471e-05
-6.54889e-05
2.17719e-05
-9.07156e-05
3.27697e-05
-8.79316e-05
4.39161e-05
-8.55151e-05
5.5617e-05
-8.6731e-05
6.7911e-05
-8.98931e-05
8.08425e-05
-9.39598e-05
9.45369e-05
-9.86542e-05
0.000109188
-0.000104048
0.000125
-0.000110069
0.000142246
-0.000116882
0.000161238
-0.000124348
0.000182397
-0.00013235
0.000205996
-0.000140728
0.000233084
-0.000149905
0.000264664
-0.00015936
0.000297939
-0.000162649
0.000311225
-0.000131811
0.000290338
-4.50847e-05
0.000271842
0.000105721
0.000237543
0.0003366
0.00019973
0.000491171
0.000604086
0.000202583
9.95149e-06
-7.54404e-05
2.07242e-05
-0.000101488
3.08038e-05
-9.80112e-05
4.12344e-05
-9.59456e-05
5.22736e-05
-9.77702e-05
6.38802e-05
-0.0001015
7.60969e-05
-0.000106176
8.90666e-05
-0.000111624
0.000103005
-0.000117986
0.000118106
-0.00012517
0.000134677
-0.000133453
0.000153107
-0.000142778
0.000173489
-0.000152732
0.000195969
-0.000163208
0.000222732
-0.000176668
0.000252645
-0.000189273
0.000266694
-0.000176698
0.000242333
-0.00010745
0.000184473
1.27756e-05
0.000146643
0.000143552
0.000156525
0.000326718
0.00016587
0.000481826
0.000566873
0.000203082
9.71589e-06
-8.51563e-05
1.94255e-05
-0.000111198
2.85491e-05
-0.000107135
3.81948e-05
-0.000105591
4.84507e-05
-0.000108026
5.9218e-05
-0.000112267
7.05475e-05
-0.000117506
8.25976e-05
-0.000123674
9.55931e-05
-0.000130981
0.000109698
-0.000139275
0.00012534
-0.000149095
0.000142787
-0.000160225
0.0001616
-0.000171546
0.000182915
-0.000184522
0.000207304
-0.000201057
0.000228112
-0.000210081
0.00020494
-0.000153526
0.000129466
-3.1976e-05
4.77581e-05
9.44831e-05
1.29606e-05
0.000178349
5.61495e-05
0.000283529
0.000116666
0.00042131
0.000504705
0.000178834
9.33515e-06
-9.44914e-05
1.78914e-05
-0.000119754
2.60348e-05
-0.000115278
3.48237e-05
-0.00011438
4.4173e-05
-0.000117375
5.39535e-05
-0.000122048
6.42288e-05
-0.000127781
7.51678e-05
-0.000134613
8.69838e-05
-0.000142798
9.98306e-05
-0.000152122
0.000114313
-0.000163577
0.000130219
-0.000176131
0.000147291
-0.000188618
0.00016822
-0.000205451
0.000192862
-0.000225698
0.000183005
-0.000200224
0.000117172
-8.76934e-05
1.79592e-05
6.72373e-05
-4.25319e-05
0.000154974
-5.82226e-05
0.000194039
-1.97375e-05
0.000245044
6.09948e-05
0.000340578
0.000425877
0.000139823
8.80242e-06
-0.000103294
1.61496e-05
-0.000127101
2.33014e-05
-0.00012243
3.11611e-05
-0.00012224
3.94892e-05
-0.000125703
4.81512e-05
-0.00013071
5.72225e-05
-0.000136853
6.68748e-05
-0.000144265
7.72793e-05
-0.000153202
8.86344e-05
-0.000163477
0.000101499
-0.000176441
0.000115079
-0.000189712
0.000130881
-0.00020442
0.000149126
-0.000223696
0.000161288
-0.00023786
0.000123922
-0.000162858
2.54081e-05
1.08199e-05
-4.87423e-05
0.000141387
-7.08309e-05
0.000177062
-7.31085e-05
0.000196316
-4.92348e-05
0.00022117
2.28204e-05
0.000268523
0.000342733
0.000105965
8.1308e-06
-0.000111425
1.42472e-05
-0.000133218
2.04097e-05
-0.000128592
2.7278e-05
-0.000129108
3.44941e-05
-0.00013292
4.19359e-05
-0.000138151
4.96805e-05
-0.000144597
5.7874e-05
-0.000152459
6.66072e-05
-0.000161935
7.61235e-05
-0.000172994
8.6417e-05
-0.000186735
9.71219e-05
-0.000200417
0.000112847
-0.000220146
0.000132445
-0.000243294
0.000115428
-0.000220843
3.9851e-05
-8.72807e-05
-4.56925e-05
9.63631e-05
-6.6392e-05
0.000162087
-6.58947e-05
0.000176566
-6.1815e-05
0.000192236
-4.93722e-05
0.000208727
-7.71636e-06
0.000226867
0.000274043
6.09734e-05
7.35994e-06
-0.000118785
1.22669e-05
-0.000138125
1.74618e-05
-0.000133787
2.33027e-05
-0.000134949
2.93526e-05
-0.000138969
3.55e-05
-0.000144299
4.17891e-05
-0.000150886
4.82684e-05
-0.000158938
5.48853e-05
-0.000168552
6.17716e-05
-0.00017988
6.82117e-05
-0.000193175
7.6432e-05
-0.000208637
9.03925e-05
-0.000234106
9.84276e-05
-0.000251329
6.5324e-05
-0.000187739
-2.07743e-05
-1.18234e-06
-5.80393e-05
0.000133628
-5.44218e-05
0.000158469
-4.96742e-05
0.000171818
-4.4494e-05
0.000187056
-3.79487e-05
0.000202181
-2.29584e-05
0.000211877
0.000238106
1.29781e-05
6.55266e-06
-0.000125337
1.02911e-05
-0.000141863
1.45465e-05
-0.000138043
1.9334e-05
-0.000139737
2.41515e-05
-0.000143787
2.88718e-05
-0.000149019
3.34461e-05
-0.000155461
3.77597e-05
-0.000163252
4.1603e-05
-0.000172395
4.50014e-05
-0.000183278
4.77858e-05
-0.000195959
5.62214e-05
-0.000217072
6.97274e-05
-0.000247612
5.82505e-05
-0.000239853
1.42236e-05
-0.000143712
-3.69708e-05
5.00123e-05
-4.1828e-05
0.000138485
-3.35056e-05
0.000150147
-3.13818e-05
0.000169695
-2.73006e-05
0.000182975
-2.15389e-05
0.00019642
-1.40151e-05
0.000204354
0.000219207
4.88462e-06
5.72734e-06
-0.000131065
8.26209e-06
-0.000144398
1.15442e-05
-0.000141325
1.51801e-05
-0.000143372
1.8588e-05
-0.000147195
2.16125e-05
-0.000152043
2.41353e-05
-0.000157983
2.60228e-05
-0.000165139
2.73602e-05
-0.000173733
2.89264e-05
-0.000184844
3.35971e-05
-0.00020063
4.68169e-05
-0.000230292
5.54915e-05
-0.000256287
4.63906e-05
-0.000230751
1.34469e-05
-0.000110769
-8.11714e-06
7.15757e-05
-9.5333e-06
0.000139902
-1.25554e-05
0.000153169
-1.47568e-05
0.000171896
-1.32135e-05
0.000181431
-7.58272e-06
0.000190789
6.96337e-07
0.000196075
0.000202966
1.69374e-05
4.77318e-06
-0.000135838
5.92435e-06
-0.000145549
8.12886e-06
-0.000143529
1.04984e-05
-0.000145742
1.24223e-05
-0.000149119
1.38527e-05
-0.000153474
1.4983e-05
-0.000159114
1.62968e-05
-0.000166453
1.9618e-05
-0.000177054
2.78581e-05
-0.000193085
4.68017e-05
-0.000219573
6.84652e-05
-0.000251956
7.18054e-05
-0.000259627
6.7692e-05
-0.000226638
7.35026e-05
-0.000116579
5.2567e-05
9.25101e-05
2.52985e-05
0.000167171
6.21776e-06
0.000172249
-1.51978e-06
0.000179633
-3.85201e-06
0.000183764
1.42987e-07
0.000186795
8.6276e-06
0.00018759
0.000188271
2.33223e-05
3.61374e-06
-0.000139451
3.36372e-06
-0.000145299
4.65429e-06
-0.00014482
6.23986e-06
-0.000147328
7.79361e-06
-0.000150673
9.93546e-06
-0.000155616
1.40911e-05
-0.000163269
2.17475e-05
-0.00017411
3.87335e-05
-0.00019404
7.53417e-05
-0.000229693
0.000117958
-0.000262189
0.000127757
-0.000261755
8.33114e-05
-0.000215181
6.34509e-05
-0.000206777
8.73002e-05
-0.000140428
9.79244e-05
8.18853e-05
4.96032e-05
0.000215493
1.74871e-05
0.000204365
3.85e-06
0.000193271
-8.04419e-07
0.000188419
1.69826e-06
0.000184292
9.10807e-06
0.00018018
0.000176008
2.13717e-05
2.70711e-06
-0.000142159
2.08322e-06
-0.000144675
3.77557e-06
-0.000146512
6.83162e-06
-0.000150384
1.23007e-05
-0.000156142
2.35954e-05
-0.00016691
4.19445e-05
-0.000181618
6.72563e-05
-0.000199421
9.8384e-05
-0.000225168
0.00012543
-0.000256738
0.000142643
-0.000279402
0.000140209
-0.000259322
0.000102193
-0.000177165
5.94045e-05
-0.000163989
5.41124e-05
-0.000135136
8.26884e-05
5.33094e-05
4.35894e-05
0.000254592
1.41903e-05
0.000233764
-2.92289e-07
0.000207753
-4.49014e-06
0.000192617
-2.16518e-06
0.000181967
4.51521e-06
0.0001735
0.000165776
1.47472e-05
2.95997e-06
-0.000145119
6.04424e-06
-0.00014776
1.10099e-05
-0.000151478
1.80827e-05
-0.000157457
2.80293e-05
-0.000166088
3.97549e-05
-0.000178636
5.40797e-05
-0.000195943
7.20024e-05
-0.000217344
9.32503e-05
-0.000246415
0.000117234
-0.000280722
0.000135354
-0.000297523
0.000140215
-0.000264182
0.000129045
-0.000165994
6.98527e-05
-0.000104798
4.08246e-05
-0.000106107
3.00082e-05
6.41257e-05
7.75817e-06
0.000276842
-9.38533e-06
0.000250908
-1.53424e-05
0.00021371
-1.51684e-05
0.000192443
-1.08745e-05
0.000177673
-3.59677e-06
0.000166222
0.000156359
5.82079e-06
2.83215e-06
-0.000147951
6.48513e-06
-0.000151413
1.08196e-05
-0.000155812
1.57355e-05
-0.000162373
2.17243e-05
-0.000172077
2.85089e-05
-0.000185421
3.60459e-05
-0.000203481
4.57123e-05
-0.00022701
6.03487e-05
-0.000261051
8.04194e-05
-0.000300792
9.64401e-05
-0.000313544
9.75829e-05
-0.000265325
9.12541e-05
-0.000159665
6.35408e-05
-7.70841e-05
1.0973e-05
-5.35397e-05
-3.53039e-05
0.000110403
-4.61715e-05
0.000287709
-4.23467e-05
0.000247083
-3.73419e-05
0.000208705
-3.07404e-05
0.000185841
-2.28713e-05
0.000169804
-1.39058e-05
0.000157257
0.000146682
-4.22919e-06
1.31957e-06
-0.000149271
2.94272e-06
-0.000153036
4.53175e-06
-0.000157402
6.05074e-06
-0.000163892
7.46779e-06
-0.000173494
8.63279e-06
-0.000186586
9.26893e-06
-0.000204117
1.10085e-05
-0.00022875
1.59805e-05
-0.000266023
2.23053e-05
-0.000307117
2.22506e-05
-0.000313489
1.04902e-05
-0.000253564
2.9496e-06
-0.000152124
-1.37586e-05
-6.03758e-05
-7.18843e-05
4.58606e-06
-0.00012535
0.000163868
-0.000105503
0.000267863
-7.94638e-05
0.000221044
-6.19304e-05
0.000191172
-4.82637e-05
0.000172174
-3.6208e-05
0.000157748
-2.50247e-05
0.000146074
0.000136126
-1.44686e-05
-7.56031e-07
-0.000148514
-1.49996e-06
-0.000152292
-2.74394e-06
-0.000156158
-4.47239e-06
-0.000162163
-7.13306e-06
-0.000170834
-1.11939e-05
-0.000182525
-1.72588e-05
-0.000198052
-2.5346e-05
-0.000220663
-3.64036e-05
-0.000254965
-5.27879e-05
-0.000290732
-7.3139e-05
-0.000293138
-9.17741e-05
-0.000234929
-0.000106763
-0.000137136
-0.000127002
-4.01366e-05
-0.000183062
6.06464e-05
-0.000198581
0.000179387
-0.000148647
0.000217929
-0.000109189
0.000181585
-8.34328e-05
0.000165416
-6.42453e-05
0.000152987
-4.87102e-05
0.000142213
-3.55589e-05
0.000132922
0.000124602
-2.40348e-05
-2.66198e-06
-0.000145852
-5.53241e-06
-0.000149421
-9.06012e-06
-0.00015263
-1.35024e-05
-0.000157721
-1.95061e-05
-0.00016483
-2.78244e-05
-0.000174207
-3.96558e-05
-0.00018622
-5.74037e-05
-0.000202915
-8.50828e-05
-0.000227286
-0.000123284
-0.000252531
-0.000162981
-0.000253441
-0.000191546
-0.000206363
-0.000211444
-0.000117238
-0.000240833
-1.07473e-05
-0.00026125
8.10634e-05
-0.00022798
0.000146117
-0.000165994
0.000155943
-0.000125713
0.000141304
-9.75704e-05
0.000137273
-7.59416e-05
0.000131358
-5.86358e-05
0.000124907
-4.43621e-05
0.000118649
0.000112456
-3.22158e-05
-4.22848e-06
-0.000141624
-8.87005e-06
-0.00014478
-1.42102e-05
-0.000147289
-2.07346e-05
-0.000151197
-2.9092e-05
-0.000156472
-4.01777e-05
-0.000163121
-5.54079e-05
-0.00017099
-7.79848e-05
-0.000180338
-0.000112918
-0.000192353
-0.000161611
-0.000203838
-0.000216006
-0.000199046
-0.000261351
-0.000161018
-0.00028754
-9.10484e-05
-0.000289125
-9.16221e-06
-0.000266537
5.84746e-05
-0.000215961
9.55409e-05
-0.00016364
0.000103622
-0.000130054
0.000107718
-0.000103678
0.000110897
-8.24981e-05
0.000110178
-6.52006e-05
0.00010761
-5.08154e-05
0.000104263
0.000100235
-3.85946e-05
-5.50023e-06
-0.000136124
-1.14624e-05
-0.000138818
-1.81397e-05
-0.000140612
-2.6036e-05
-0.0001433
-3.57454e-05
-0.000146762
-4.80509e-05
-0.000150815
-6.4005e-05
-0.000155036
-8.56584e-05
-0.000158684
-0.000116656
-0.000161355
-0.000159116
-0.000161378
-0.00020694
-0.000151222
-0.000246486
-0.000121473
-0.000265452
-7.20818e-05
-0.000257855
-1.67597e-05
-0.000227673
2.82927e-05
-0.000186843
5.47114e-05
-0.000152463
6.92419e-05
-0.000126475
8.17303e-05
-0.000103749
8.81714e-05
-8.46627e-05
9.10913e-05
-6.85612e-05
9.15082e-05
-5.48569e-05
9.05591e-05
8.84522e-05
-4.30741e-05
-6.40104e-06
-0.000129722
-1.32271e-05
-0.000131991
-2.07366e-05
-0.000133102
-2.93546e-05
-0.000134682
-3.95728e-05
-0.000136544
-5.19656e-05
-0.000138423
-6.71568e-05
-0.000139844
-8.5884e-05
-0.000139957
-0.00010951
-0.000137729
-0.000139249
-0.000131639
-0.000172047
-0.000118425
-0.000199114
-9.44059e-05
-0.000211066
-6.01294e-05
-0.000204412
-2.34136e-05
-0.000183245
7.1263e-06
-0.000159343
3.08088e-05
-0.000138462
4.8361e-05
-0.000118614
6.18826e-05
-0.000100071
6.96286e-05
-8.36806e-05
7.47009e-05
-6.93392e-05
7.71668e-05
-5.67836e-05
7.80035e-05
7.74701e-05
-4.58014e-05
-6.94764e-06
-0.000122775
-1.42635e-05
-0.000124675
-2.21837e-05
-0.000125182
-3.10262e-05
-0.000125839
-4.11596e-05
-0.000126411
-5.29644e-05
-0.000126618
-6.67965e-05
-0.000126012
-8.28287e-05
-0.000123925
-0.000101068
-0.00011949
-0.000121266
-0.00011144
-0.000141701
-9.79898e-05
-0.000158168
-7.79387e-05
-0.000165732
-5.25659e-05
-0.00016297
-2.61756e-05
-0.000152718
-3.1253e-06
-0.000139006
1.70968e-05
-0.000124526
3.38811e-05
-0.000109124
4.64805e-05
-9.43664e-05
5.4871e-05
-8.06559e-05
6.09905e-05
-6.82205e-05
6.47315e-05
-5.7025e-05
6.68082e-05
6.74942e-05
-4.70489e-05
-7.19624e-06
-0.000115578
-1.47016e-05
-0.000117169
-2.26989e-05
-0.000117185
-3.14242e-05
-0.000117114
-4.11224e-05
-0.000116713
-5.2014e-05
-0.000115726
-6.42625e-05
-0.000113764
-7.78828e-05
-0.000110304
-9.26144e-05
-0.000104758
-0.000107713
-9.63413e-05
-0.000121684
-8.40185e-05
-0.000132297
-6.73257e-05
-0.000137371
-4.74919e-05
-0.000136396
-2.7151e-05
-0.000131106
-8.41501e-06
-0.000122402
8.39235e-06
-0.000111532
2.30111e-05
-9.95639e-05
3.45127e-05
-8.78023e-05
4.31094e-05
-7.64419e-05
4.96302e-05
-6.58155e-05
5.41052e-05
-5.60131e-05
5.70057e-05
5.86002e-05
-4.71192e-05
-7.19642e-06
-0.000108382
-1.46516e-05
-0.000109714
-2.24731e-05
-0.000109364
-3.08412e-05
-0.000108746
-3.99039e-05
-0.00010765
-4.97772e-05
-0.000105853
-6.04967e-05
-0.000103044
-7.19652e-05
-9.88358e-05
-8.3897e-05
-9.28266e-05
-9.56584e-05
-8.458e-05
-0.000106084
-7.35933e-05
-0.000113687
-5.97226e-05
-0.000117367
-4.38115e-05
-0.000117083
-2.74349e-05
-0.000113658
-1.18406e-05
-0.000107605
2.33987e-06
-9.95593e-05
1.49654e-05
-9.04008e-05
2.53543e-05
-8.09863e-05
3.3695e-05
-7.16053e-05
4.02491e-05
-6.25979e-05
4.50977e-05
-5.41157e-05
4.85234e-05
5.07731e-05
-4.62887e-05
-7.00884e-06
-0.000101373
-1.42335e-05
-0.000102489
-2.1712e-05
-0.000101885
-2.95765e-05
-0.000100881
-3.79069e-05
-9.93193e-05
-4.67476e-05
-9.70119e-05
-5.6063e-05
-9.37287e-05
-6.56944e-05
-8.92043e-05
-7.53439e-05
-8.31771e-05
-8.4544e-05
-7.53798e-05
-9.25603e-05
-6.55771e-05
-9.84512e-05
-5.38317e-05
-0.000101502
-4.07607e-05
-0.000101637
-2.73e-05
-9.92613e-05
-1.4216e-05
-9.48341e-05
-2.08719e-06
-8.87858e-05
8.91712e-06
-8.17438e-05
1.83123e-05
-7.42018e-05
2.61529e-05
-6.64839e-05
3.25309e-05
-5.8894e-05
3.75076e-05
-5.16132e-05
4.12424e-05
4.39458e-05
-4.47861e-05
-6.68789e-06
-9.46849e-05
-1.35484e-05
-9.56288e-05
-2.05786e-05
-9.48545e-05
-2.7861e-05
-9.35988e-05
-3.54337e-05
-9.17465e-05
-4.32935e-05
-8.91519e-05
-5.13731e-05
-8.56489e-05
-5.95175e-05
-8.10598e-05
-6.74709e-05
-7.52235e-05
-7.48498e-05
-6.8001e-05
-8.11217e-05
-5.93051e-05
-8.57103e-05
-4.9243e-05
-8.82312e-05
-3.82396e-05
-8.86228e-05
-2.69083e-05
-8.70447e-05
-1.57941e-05
-8.3828e-05
-5.3039e-06
-7.92014e-05
4.29045e-06
-7.36895e-05
1.28003e-05
-6.76268e-05
2.00899e-05
-6.12874e-05
2.61914e-05
-5.49203e-05
3.11403e-05
-4.87078e-05
3.50298e-05
3.80295e-05
-4.27915e-05
-6.2822e-06
-8.84026e-05
-1.26926e-05
-8.92182e-05
-1.92128e-05
-8.83342e-05
-2.58804e-05
-8.69309e-05
-3.27077e-05
-8.4919e-05
-3.96649e-05
-8.21944e-05
-4.66715e-05
-7.86421e-05
-5.35819e-05
-7.41493e-05
-6.01842e-05
-6.86212e-05
-6.61945e-05
-6.19906e-05
-7.12496e-05
-5.425e-05
-7.4968e-05
-4.55246e-05
-7.70939e-05
-3.61137e-05
-7.75781e-05
-2.64241e-05
-7.65261e-05
-1.68461e-05
-7.41469e-05
-7.68319e-06
-7.05997e-05
7.43167e-07
-6.6266e-05
8.46652e-06
-6.13732e-05
1.5197e-05
-5.61593e-05
2.09773e-05
-5.08293e-05
2.58102e-05
-4.5549e-05
2.97495e-05
3.29281e-05
-4.04476e-05
-5.82712e-06
-8.25752e-05
-1.17409e-05
-8.33043e-05
-1.77196e-05
-8.23553e-05
-2.37695e-05
-8.08807e-05
-2.98849e-05
-7.88035e-05
-3.6023e-05
-7.60562e-05
-4.21027e-05
-7.25621e-05
-4.79983e-05
-6.82536e-05
-5.35385e-05
-6.3081e-05
-5.85057e-05
-5.70233e-05
-6.26455e-05
-5.01102e-05
-6.5711e-05
-4.24591e-05
-6.75346e-05
-3.42903e-05
-6.80706e-05
-2.58882e-05
-6.738e-05
-1.75369e-05
-6.55815e-05
-9.4817e-06
-6.29039e-05
-1.9345e-06
-5.94474e-05
5.00994e-06
-5.54809e-05
1.12305e-05
-5.11857e-05
1.6682e-05
-4.67272e-05
2.13516e-05
-4.22495e-05
2.52717e-05
2.85458e-05
-3.78672e-05
-5.34434e-06
-7.72307e-05
-1.07443e-05
-7.79045e-05
-1.61729e-05
-7.69262e-05
-2.16208e-05
-7.54325e-05
-2.70688e-05
-7.33554e-05
-3.247e-05
-7.06549e-05
-3.77484e-05
-6.72835e-05
-4.27974e-05
-6.32045e-05
-4.74806e-05
-5.83978e-05
-5.16347e-05
-5.28692e-05
-5.50801e-05
-4.6665e-05
-5.76496e-05
-3.98898e-05
-5.92299e-05
-3.27102e-05
-5.97849e-05
-2.53333e-05
-5.93488e-05
-1.7973e-05
-5.80074e-05
-1.08232e-05
-5.59057e-05
-4.03619e-06
-5.31611e-05
2.26541e-06
-4.99459e-05
8.01532e-06
-4.64062e-05
1.31422e-05
-4.26798e-05
1.76252e-05
-3.88899e-05
2.14817e-05
2.47931e-05
-3.51373e-05
-4.84773e-06
-7.23829e-05
-9.73378e-06
-7.30185e-05
-1.46201e-05
-7.20395e-05
-1.94921e-05
-7.05604e-05
-2.43212e-05
-6.85262e-05
-2.90609e-05
-6.59149e-05
-3.36433e-05
-6.27009e-05
-3.79795e-05
-5.88683e-05
-4.19614e-05
-5.4416e-05
-4.54658e-05
-4.93649e-05
-4.83642e-05
-4.37667e-05
-5.05416e-05
-3.77125e-05
-5.19193e-05
-3.13327e-05
-5.24687e-05
-2.47839e-05
-5.2212e-05
-1.82297e-05
-5.12128e-05
-1.18224e-05
-4.95633e-05
-5.68563e-06
-4.73698e-05
7.19047e-08
-4.47561e-05
5.40163e-06
-4.18375e-05
1.02236e-05
-3.87265e-05
1.4514e-05
-3.55253e-05
1.82805e-05
2.15897e-05
-3.2322e-05
-4.34827e-06
-6.80349e-05
-8.72992e-06
-6.86367e-05
-1.30922e-05
-6.76771e-05
-1.74191e-05
-6.62336e-05
-2.16772e-05
-6.42678e-05
-2.58226e-05
-6.17692e-05
-2.9796e-05
-5.87275e-05
-3.35238e-05
-5.51405e-05
-3.69208e-05
-5.1019e-05
-3.9894e-05
-4.63918e-05
-4.235e-05
-4.13107e-05
-4.4208e-05
-3.58546e-05
-4.54125e-05
-3.01282e-05
-4.59428e-05
-2.42537e-05
-4.58131e-05
-1.83592e-05
-4.50681e-05
-1.25674e-05
-4.37714e-05
-6.98232e-06
-4.20194e-05
-1.68006e-06
-3.98883e-05
3.27048e-06
-3.74821e-05
7.81736e-06
-3.48892e-05
1.19211e-05
-3.21928e-05
1.5584e-05
1.88647e-05
-2.94679e-05
-3.85714e-06
-6.41779e-05
-7.74877e-06
-6.47448e-05
-1.16099e-05
-6.38161e-05
-1.54233e-05
-6.24201e-05
-1.91547e-05
-6.05362e-05
-2.27636e-05
-5.81602e-05
-2.61988e-05
-5.52923e-05
-2.94001e-05
-5.19391e-05
-3.23003e-05
-4.81188e-05
-3.48287e-05
-4.38633e-05
-3.69171e-05
-3.92224e-05
-3.85073e-05
-3.42644e-05
-3.956e-05
-2.90754e-05
-4.00602e-05
-2.37535e-05
-4.00177e-05
-1.84016e-05
-3.94653e-05
-1.31198e-05
-3.84524e-05
-7.99517e-06
-3.70413e-05
-3.09116e-06
-3.53096e-05
1.53883e-06
-3.33306e-05
5.8384e-06
-3.11766e-05
9.76707e-06
-2.89148e-05
1.33222e-05
1.65572e-05
-2.66073e-05
-3.38412e-06
-6.07937e-05
-6.8028e-06
-6.13261e-05
-1.01867e-05
-6.04324e-05
-1.35168e-05
-5.90898e-05
-1.67607e-05
-5.72921e-05
-1.98815e-05
-5.50393e-05
-2.28357e-05
-5.23379e-05
-2.55742e-05
-4.92004e-05
-2.80442e-05
-4.56486e-05
-3.01918e-05
-4.17156e-05
-3.19663e-05
-3.74477e-05
-3.33256e-05
-3.29049e-05
-3.42417e-05
-2.81593e-05
-3.47036e-05
-2.32915e-05
-3.47194e-05
-1.83859e-05
-3.4314e-05
-1.35251e-05
-3.35255e-05
-8.78365e-06
-3.23975e-05
-4.21917e-06
-3.09917e-05
1.33117e-07
-2.93686e-05
4.21539e-06
-2.75883e-05
7.98685e-06
-2.57029e-05
1.14368e-05
1.46158e-05
-2.37615e-05
-2.93336e-06
-5.78603e-05
-5.8984e-06
-5.83612e-05
-8.82822e-06
-5.75025e-05
-1.17031e-05
-5.62147e-05
-1.44935e-05
-5.45016e-05
-1.71665e-05
-5.23661e-05
-1.96857e-05
-4.98186e-05
-2.20113e-05
-4.68746e-05
-2.41017e-05
-4.35579e-05
-2.59158e-05
-3.99013e-05
-2.74158e-05
-3.59476e-05
-2.8571e-05
-3.17496e-05
-2.93612e-05
-2.7369e-05
-2.97791e-05
-2.28735e-05
-2.98313e-05
-1.83336e-05
-2.95373e-05
-1.3819e-05
-2.8926e-05
-9.39482e-06
-2.80315e-05
-5.11362e-06
-2.68967e-05
-1.00161e-06
-2.55757e-05
2.8945e-06
-2.41171e-05
6.52835e-06
-2.25607e-05
9.8804e-06
1.2998e-05
-2.0943e-05
-2.50468e-06
-5.53556e-05
-5.03535e-06
-5.58306e-05
-7.53275e-06
-5.50049e-05
-9.97743e-06
-5.37699e-05
-1.23431e-05
-5.21359e-05
-1.46016e-05
-5.01076e-05
-1.67227e-05
-4.76973e-05
-1.86743e-05
-4.49227e-05
-2.04241e-05
-4.1808e-05
-2.19405e-05
-3.83848e-05
-2.31953e-05
-3.46927e-05
-2.4166e-05
-3.07787e-05
-2.48383e-05
-2.66966e-05
-2.52073e-05
-2.25044e-05
-2.52785e-05
-1.82623e-05
-2.50675e-05
-1.40299e-05
-2.45978e-05
-9.86447e-06
-2.38972e-05
-5.81409e-06
-2.29919e-05
-1.90684e-06
-2.19307e-05
1.83346e-06
-2.07517e-05
5.34926e-06
-1.94858e-05
8.61451e-06
1.16701e-05
-1.81579e-05
-2.09492e-06
-5.32607e-05
-4.20984e-06
-5.37156e-05
-6.29498e-06
-5.29196e-05
-8.33153e-06
-5.17334e-05