/*--------------------------------*- C++ -*----------------------------------*\
| =========                 |                                                 |
| \\      /  F ield         | OpenFOAM: The Open Source CFD Toolbox           |
|  \\    /   O peration     | Version:  2012                                  |
|   \\  /    A nd           | Website:  www.openfoam.com                      |
|    \\/     M anipulation  |                                                 |
\*---------------------------------------------------------------------------*/
FoamFile
{
    version     2.0;
    format      ascii;
    class       volVectorField;
    location    "0.15";
    object      U;
}
// * * * * * * * * * * * * * * * * * * * * * * * * * * * * * * * * * * * * * //

dimensions      [0 1 -1 0 0 0 0];


internalField   nonuniform List<vector> 
2268
(
(0.0216428 -0.0116141 0)
(0.0854578 -0.0184337 0)
(0.164762 -0.0182607 0)
(0.241393 -0.0172949 0)
(0.314128 -0.0171125 0)
(0.386861 -0.0175159 0)
(0.462218 -0.0181958 0)
(0.540822 -0.0189756 0)
(0.622816 -0.0197872 0)
(0.708239 -0.0205829 0)
(0.796841 -0.0213025 0)
(0.888129 -0.0218505 0)
(0.981132 -0.0220165 0)
(1.07368 -0.021446 0)
(1.16181 -0.0197303 0)
(1.23948 -0.0164119 0)
(1.29784 -0.0104443 0)
(1.32519 0.00226336 0)
(1.28732 0.0284043 0)
(1.12067 0.0748619 0)
(0.777457 0.122861 0)
(0.244261 0.120277 0)
(-0.131615 -0.0633903 0)
(0.021716 -0.0349427 0)
(0.0857944 -0.0552155 0)
(0.165178 -0.054787 0)
(0.241686 -0.0519745 0)
(0.3144 -0.0514274 0)
(0.387226 -0.0526352 0)
(0.462706 -0.0546765 0)
(0.541421 -0.0570224 0)
(0.623541 -0.0594759 0)
(0.709163 -0.0618811 0)
(0.798022 -0.0640365 0)
(0.889618 -0.0657013 0)
(0.983141 -0.0663364 0)
(1.07675 -0.0649126 0)
(1.16679 -0.0601017 0)
(1.24749 -0.0503243 0)
(1.31111 -0.0327458 0)
(1.34551 -0.000290783 0)
(1.35153 0.0573745 0)
(1.32488 0.1563 0)
(1.20664 0.281503 0)
(0.807231 0.344213 0)
(0.323633 0.126199 0)
(0.0217746 -0.0584819 0)
(0.0859029 -0.0918547 0)
(0.164931 -0.0912073 0)
(0.240817 -0.0866206 0)
(0.313115 -0.085705 0)
(0.385737 -0.0877196 0)
(0.461076 -0.0911294 0)
(0.539658 -0.0950508 0)
(0.621695 -0.0991673 0)
(0.707339 -0.103211 0)
(0.796367 -0.106848 0)
(0.888383 -0.10974 0)
(0.982805 -0.111058 0)
(1.07808 -0.109102 0)
(1.17094 -0.101647 0)
(1.25631 -0.0860662 0)
(1.32707 -0.0583616 0)
(1.37249 -0.0112693 0)
(1.37652 0.0669342 0)
(1.3199 0.195679 0)
(1.21154 0.382915 0)
(0.963466 0.547776 0)
(0.517581 0.405515 0)
(0.021913 -0.0821612 0)
(0.0860773 -0.128233 0)
(0.164549 -0.127321 0)
(0.239595 -0.121046 0)
(0.311343 -0.119828 0)
(0.383696 -0.122694 0)
(0.458864 -0.127501 0)
(0.53731 -0.133022 0)
(0.619297 -0.138845 0)
(0.705047 -0.144598 0)
(0.794427 -0.149842 0)
(0.887234 -0.154178 0)
(0.983137 -0.156508 0)
(1.08085 -0.154541 0)
(1.17773 -0.145338 0)
(1.26985 -0.125408 0)
(1.35123 -0.0892768 0)
(1.4108 -0.0272531 0)
(1.43461 0.0770945 0)
(1.3889 0.242849 0)
(1.24754 0.476242 0)
(0.97743 0.739903 0)
(0.584028 0.720081 0)
(0.0221443 -0.105953 0)
(0.0863216 -0.164242 0)
(0.164015 -0.162951 0)
(0.238029 -0.155093 0)
(0.309121 -0.153694 0)
(0.381157 -0.157491 0)
(0.45614 -0.163739 0)
(0.534457 -0.170904 0)
(0.616433 -0.178501 0)
(0.702372 -0.186073 0)
(0.792259 -0.193118 0)
(0.886158 -0.199205 0)
(0.983981 -0.202965 0)
(1.08467 -0.201643 0)
(1.18652 -0.191893 0)
(1.28729 -0.169485 0)
(1.38206 -0.127142 0)
(1.46009 -0.0523139 0)
(1.50859 0.075571 0)
(1.49476 0.284294 0)
(1.37547 0.582915 0)
(1.03566 0.935775 0)
(0.644315 1.07476 0)
(0.0225409 -0.13003 0)
(0.0866782 -0.199908 0)
(0.163312 -0.198068 0)
(0.236112 -0.188748 0)
(0.306463 -0.187323 0)
(0.378138 -0.192143 0)
(0.452895 -0.199876 0)
(0.531042 -0.208729 0)
(0.612974 -0.218175 0)
(0.699073 -0.227688 0)
(0.78948 -0.236767 0)
(0.884575 -0.24496 0)
(0.984466 -0.250588 0)
(1.08834 -0.250645 0)
(1.19566 -0.241815 0)
(1.30619 -0.219115 0)
(1.41617 -0.173051 0)
(1.51557 -0.0889721 0)
(1.59615 0.0570358 0)
(1.63195 0.300254 0)
(1.56979 0.682962 0)
(1.18483 1.14273 0)
(0.713911 1.46135 0)
(0.023159 -0.154521 0)
(0.0871043 -0.23524 0)
(0.162338 -0.23271 0)
(0.233752 -0.222086 0)
(0.303263 -0.220797 0)
(0.374477 -0.226728 0)
(0.448892 -0.235984 0)
(0.526736 -0.24656 0)
(0.608487 -0.257925 0)
(0.694611 -0.269502 0)
(0.785433 -0.280854 0)
(0.881647 -0.291506 0)
(0.983533 -0.299427 0)
(1.09069 -0.301657 0)
(1.20394 -0.295396 0)
(1.32484 -0.274757 0)
(1.4513 -0.227308 0)
(1.57478 -0.137811 0)
(1.69363 0.0137572 0)
(1.79388 0.275535 0)
(1.79433 0.747678 0)
(1.37109 1.35338 0)
(0.782299 1.8928 0)
(0.0239144 -0.179288 0)
(0.0874275 -0.270155 0)
(0.160954 -0.266757 0)
(0.230868 -0.255015 0)
(0.29942 -0.254052 0)
(0.370011 -0.261181 0)
(0.44391 -0.271999 0)
(0.521272 -0.284339 0)
(0.602668 -0.297698 0)
(0.688656 -0.311473 0)
(0.779765 -0.325342 0)
(0.876936 -0.338789 0)
(0.980614 -0.349469 0)
(1.09115 -0.35478 0)
(1.21066 -0.352698 0)
(1.34192 -0.336319 0)
(1.48515 -0.291324 0)
(1.63508 -0.207324 0)
(1.78775 -0.0744481 0)
(1.9363 0.175813 0)
(1.96291 0.741813 0)
(1.40713 1.58381 0)
(0.781167 2.37753 0)
(-0.0855203 0.0294015 0)
(-0.189345 0.0165944 0)
(-0.232366 0.00772774 0)
(-0.24721 0.000255833 0)
(-0.234049 -0.00400007 0)
(-0.20847 -0.00608553 0)
(-0.177166 -0.00673862 0)
(-0.145273 -0.00648146 0)
(-0.115917 -0.00588073 0)
(-0.0905904 -0.00504054 0)
(-0.069144 -0.00417787 0)
(-0.051788 -0.00341688 0)
(-0.0380891 -0.00274986 0)
(-0.0275053 -0.00212321 0)
(-0.0193764 -0.00170429 0)
(-0.0131543 -0.00129279 0)
(-0.00847108 -0.00108863 0)
(-0.00477052 -0.00092615 0)
(-0.00157612 -0.000805649 0)
(-0.107179 0.0925381 0)
(-0.211054 0.0476215 0)
(-0.241858 0.01999 0)
(-0.249953 -0.00149533 0)
(-0.232756 -0.0137096 0)
(-0.204036 -0.0197403 0)
(-0.16983 -0.0213857 0)
(-0.135593 -0.0202448 0)
(-0.104858 -0.0179925 0)
(-0.079021 -0.015096 0)
(-0.0577848 -0.0122493 0)
(-0.041126 -0.00972783 0)
(-0.0284182 -0.00755297 0)
(-0.0190974 -0.00567724 0)
(-0.0123682 -0.00428082 0)
(-0.00764103 -0.00311161 0)
(-0.00453031 -0.00239105 0)
(-0.00239011 -0.00187555 0)
(-0.000824791 -0.00171056 0)
(-0.116842 0.163121 0)
(-0.229818 0.0784392 0)
(-0.25568 0.0302327 0)
(-0.259838 -0.00504233 0)
(-0.237961 -0.024679 0)
(-0.206275 -0.0342879 0)
(-0.170433 -0.0366129 0)
(-0.135587 -0.0343303 0)
(-0.104689 -0.0302882 0)
(-0.0788449 -0.0251834 0)
(-0.057731 -0.020264 0)
(-0.0411829 -0.0158764 0)
(-0.028544 -0.0121544 0)
(-0.0192667 -0.00905781 0)
(-0.012548 -0.00661981 0)
(-0.00781 -0.00476224 0)
(-0.0046632 -0.00345962 0)
(-0.00245812 -0.00259233 0)
(-0.000846548 -0.00231964 0)
(-0.138945 0.245096 0)
(-0.269544 0.110041 0)
(-0.279473 0.0376466 0)
(-0.274596 -0.0115595 0)
(-0.245449 -0.0376616 0)
(-0.209278 -0.0501398 0)
(-0.170496 -0.0524896 0)
(-0.134157 -0.0486977 0)
(-0.102659 -0.0425693 0)
(-0.0766589 -0.0352153 0)
(-0.0557615 -0.0282236 0)
(-0.0395264 -0.021969 0)
(-0.0271995 -0.0166877 0)
(-0.0182034 -0.0124385 0)
(-0.01175 -0.00894405 0)
(-0.00723708 -0.00641305 0)
(-0.00427307 -0.00454298 0)
(-0.00222679 -0.00334231 0)
(-0.000768373 -0.00298412 0)
(-0.177747 0.33962 0)
(-0.329288 0.139803 0)
(-0.312461 0.0379358 0)
(-0.294468 -0.0229737 0)
(-0.254896 -0.0536172 0)
(-0.212785 -0.0678906 0)
(-0.17013 -0.0694316 0)
(-0.131763 -0.0638001 0)
(-0.099442 -0.0549675 0)
(-0.073283 -0.0451961 0)
(-0.052652 -0.0360454 0)
(-0.0368152 -0.0279247 0)
(-0.0249867 -0.0210577 0)
(-0.0164078 -0.0156328 0)
(-0.0103453 -0.0111646 0)
(-0.00621581 -0.00792998 0)
(-0.00354984 -0.00551103 0)
(-0.00180609 -0.0039974 0)
(-0.000628944 -0.00355326 0)
(-0.226754 0.475048 0)
(-0.40167 0.165644 0)
(-0.354915 0.0312891 0)
(-0.320829 -0.0403647 0)
(-0.266542 -0.0735249 0)
(-0.216386 -0.0877581 0)
(-0.16908 -0.0876425 0)
(-0.128348 -0.0793766 0)
(-0.0950724 -0.0675125 0)
(-0.068905 -0.055155 0)
(-0.048676 -0.0436756 0)
(-0.0333768 -0.0336302 0)
(-0.0221598 -0.0253287 0)
(-0.0141482 -0.0185502 0)
(-0.00858887 -0.0132397 0)
(-0.00491207 -0.00922642 0)
(-0.00264777 -0.00635495 0)
(-0.00128837 -0.00451985 0)
(-0.000457484 -0.00398747 0)
(-0.317623 0.599089 0)
(-0.506177 0.175402 0)
(-0.40986 0.0194052 0)
(-0.356185 -0.0653441 0)
(-0.281902 -0.0991818 0)
(-0.220399 -0.110645 0)
(-0.167144 -0.10722 0)
(-0.123675 -0.0956531 0)
(-0.0895529 -0.0801864 0)
(-0.0634867 -0.0649683 0)
(-0.0437831 -0.0510675 0)
(-0.029249 -0.0390419 0)
(-0.0187655 -0.0292525 0)
(-0.0114173 -0.0213074 0)
(-0.00649185 -0.015026 0)
(-0.0033634 -0.0103618 0)
(-0.00159224 -0.00703616 0)
(-0.000662944 -0.00487143 0)
(-0.000251917 -0.00425 0)
(-0.339984 0.873259 0)
(-0.690283 0.213041 0)
(-0.480777 -0.0113972 0)
(-0.396968 -0.0984657 0)
(-0.299514 -0.132434 0)
(-0.2245 -0.138589 0)
(-0.164413 -0.129433 0)
(-0.117815 -0.113103 0)
(-0.0826723 -0.0932699 0)
(-0.0569691 -0.0747809 0)
(-0.0379776 -0.0582469 0)
(-0.0243567 -0.044167 0)
(-0.0148229 -0.0328299 0)
(-0.00825676 -0.0237485 0)
(-0.00405146 -0.0165986 0)
(-0.00159448 -0.0112891 0)
(-0.000360309 -0.00747582 0)
(5.91825e-05 -0.00501733 0)
(-1.52616e-05 -0.00433015 0)
(0.0249244 -0.21854 0)
(0.087369 -0.323509 0)
(0.157929 -0.317992 0)
(0.225333 -0.305003 0)
(0.292142 -0.305102 0)
(0.361409 -0.314309 0)
(0.434118 -0.327626 0)
(0.510332 -0.342821 0)
(0.590777 -0.359498 0)
(0.676164 -0.377071 0)
(0.767306 -0.395476 0)
(0.865314 -0.414048 0)
(0.97099 -0.430417 0)
(1.08623 -0.44301 0)
(1.21427 -0.450006 0)
(1.35671 -0.444384 0)
(1.51422 -0.418605 0)
(1.68827 -0.373564 0)
(1.85738 -0.284922 0)
(1.95459 0.0792766 0)
(1.84516 1.13953 0)
(1.43133 2.05169 0)
(0.921312 2.97348 0)
(0.0259275 -0.272354 0)
(0.0866549 -0.393707 0)
(0.152918 -0.384608 0)
(0.2165 -0.37064 0)
(0.280639 -0.372812 0)
(0.347736 -0.385072 0)
(0.418372 -0.401855 0)
(0.492551 -0.421046 0)
(0.571218 -0.442497 0)
(0.655309 -0.465714 0)
(0.745928 -0.491009 0)
(0.844161 -0.517488 0)
(0.951572 -0.543475 0)
(1.07217 -0.56865 0)
(1.20821 -0.590074 0)
(1.35464 -0.605392 0)
(1.50455 -0.62155 0)
(1.66379 -0.598908 0)
(1.81709 -0.403899 0)
(1.85476 0.195711 0)
(1.59857 1.47231 0)
(1.47176 2.38999 0)
(1.02943 3.29847 0)
(0.0267338 -0.326593 0)
(0.0850533 -0.459286 0)
(0.146342 -0.446241 0)
(0.205691 -0.432511 0)
(0.266729 -0.437469 0)
(0.330995 -0.452953 0)
(0.398746 -0.473218 0)
(0.469969 -0.496516 0)
(0.545834 -0.523046 0)
(0.627527 -0.552422 0)
(0.716054 -0.585298 0)
(0.812224 -0.62082 0)
(0.919706 -0.65842 0)
(1.04277 -0.697051 0)
(1.17394 -0.735834 0)
(1.30014 -0.783882 0)
(1.44257 -0.81567 0)
(1.6025 -0.73131 0)
(1.67411 -0.367418 0)
(1.55532 0.633828 0)
(1.28728 1.92424 0)
(1.25474 2.57292 0)
(1.07557 3.32866 0)
(0.0271653 -0.380684 0)
(0.0823546 -0.520124 0)
(0.138197 -0.503144 0)
(0.193072 -0.490791 0)
(0.250554 -0.498959 0)
(0.31126 -0.517618 0)
(0.375279 -0.541274 0)
(0.442571 -0.568688 0)
(0.514577 -0.600454 0)
(0.592711 -0.636168 0)
(0.677142 -0.676874 0)
(0.769302 -0.722278 0)
(0.876326 -0.771248 0)
(0.994098 -0.82142 0)
(1.09953 -0.884076 0)
(1.20977 -0.958114 0)
(1.35482 -0.952872 0)
(1.43133 -0.69707 0)
(1.26473 -0.0798264 0)
(0.825144 0.914271 0)
(0.704921 2.12306 0)
(0.889345 2.7716 0)
(1.00667 3.1497 0)
(0.0271599 -0.433906 0)
(0.0785245 -0.575483 0)
(0.128551 -0.554951 0)
(0.178761 -0.545006 0)
(0.232184 -0.556532 0)
(0.288563 -0.578131 0)
(0.347989 -0.604965 0)
(0.410323 -0.636371 0)
(0.477428 -0.673339 0)
(0.550701 -0.71521 0)
(0.628707 -0.763986 0)
(0.716724 -0.819647 0)
(0.821737 -0.877183 0)
(0.918819 -0.939422 0)
(0.994197 -1.02981 0)
(1.11288 -1.0892 0)
(1.2195 -0.952017 0)
(1.04863 -0.445397 0)
(0.46961 0.345292 0)
(0.0649226 0.956666 0)
(0.071263 1.75221 0)
(0.495946 2.59493 0)
(0.788037 2.92952 0)
(0.0266846 -0.485458 0)
(0.0735912 -0.624805 0)
(0.117537 -0.601497 0)
(0.162922 -0.594775 0)
(0.211747 -0.609518 0)
(0.263044 -0.633677 0)
(0.317045 -0.663374 0)
(0.373395 -0.698532 0)
(0.434688 -0.740458 0)
(0.501458 -0.788068 0)
(0.571094 -0.845526 0)
(0.656741 -0.910325 0)
(0.751384 -0.973711 0)
(0.814735 -1.05423 0)
(0.895231 -1.15748 0)
(1.03081 -1.15118 0)
(0.976285 -0.713133 0)
(0.378102 0.15159 0)
(-0.146274 0.740713 0)
(-0.325277 1.0296 0)
(-0.303978 1.40412 0)
(0.143955 2.08292 0)
(0.544555 2.55942 0)
(0.0257638 -0.53446 0)
(0.0676721 -0.667653 0)
(0.105354 -0.642653 0)
(0.145778 -0.639673 0)
(0.189464 -0.657246 0)
(0.235002 -0.683492 0)
(0.282827 -0.715657 0)
(0.332266 -0.754227 0)
(0.387006 -0.80062 0)
(0.445075 -0.853594 0)
(0.505809 -0.920094 0)
(0.588473 -0.990277 0)
(0.655512 -1.0615 0)
(0.697505 -1.16365 0)
(0.796351 -1.24897 0)
(0.862439 -1.03281 0)
(0.545849 -0.212981 0)
(-0.199903 0.633208 0)
(-0.354401 0.936043 0)
(-0.409612 1.06478 0)
(-0.375821 1.23005 0)
(-0.088401 1.58174 0)
(0.330969 2.06711 0)
(0.0244214 -0.580312 0)
(0.0609498 -0.704011 0)
(0.0923115 -0.678587 0)
(0.127676 -0.679506 0)
(0.165761 -0.699303 0)
(0.20503 -0.727059 0)
(0.246064 -0.761155 0)
(0.287867 -0.802554 0)
(0.335156 -0.852507 0)
(0.381703 -0.910435 0)
(0.434125 -0.983871 0)
(0.504217 -1.0553 0)
(0.530607 -1.14492 0)
(0.592586 -1.26126 0)
(0.703009 -1.28035 0)
(0.612558 -0.734045 0)
(-0.0985545 0.378118 0)
(-0.367493 0.8656 0)
(-0.355277 0.970224 0)
(-0.354327 1.05195 0)
(-0.306292 1.14655 0)
(-0.201208 1.28697 0)
(0.110014 1.61471 0)
(0.0227208 -0.622312 0)
(0.0537447 -0.733745 0)
(0.078902 -0.709223 0)
(0.109228 -0.713825 0)
(0.141423 -0.735094 0)
(0.17411 -0.763697 0)
(0.207819 -0.799024 0)
(0.24121 -0.842268 0)
(0.279049 -0.894285 0)
(0.310589 -0.955683 0)
(0.35299 -1.02995 0)
(0.392229 -1.10579 0)
(0.39269 -1.22772 0)
(0.478398 -1.33278 0)
(0.530567 -1.14506 0)
(0.234218 -0.180957 0)
(-0.365959 0.675377 0)
(-0.29356 0.889253 0)
(-0.281284 0.940648 0)
(-0.257455 1.02245 0)
(-0.214677 1.10508 0)
(-0.190352 1.16355 0)
(-0.0603971 1.33719 0)
(0.0208672 -0.659416 0)
(0.046482 -0.756576 0)
(0.0655583 -0.734245 0)
(0.0909639 -0.742111 0)
(0.117002 -0.764145 0)
(0.142628 -0.792958 0)
(0.168029 -0.82864 0)
(0.191312 -0.872162 0)
(0.216084 -0.923776 0)
(0.229705 -0.984642 0)
(0.257536 -1.05366 0)
(0.261869 -1.1489 0)
(0.290634 -1.30541 0)
(0.374387 -1.3585 0)
(0.308077 -0.905563 0)
(-0.119977 0.205048 0)
(-0.287906 0.767855 0)
(-0.170013 0.833244 0)
(-0.181551 0.917592 0)
(-0.158519 0.995965 0)
(-0.127421 1.07498 0)
(-0.103882 1.12119 0)
(-0.0438763 1.22061 0)
(0.0190033 -0.692445 0)
(0.0390889 -0.773545 0)
(0.0517661 -0.754692 0)
(0.0721086 -0.765173 0)
(0.0912161 -0.78692 0)
(0.108595 -0.814671 0)
(0.124035 -0.848721 0)
(0.135247 -0.889504 0)
(0.145557 -0.93674 0)
(0.146548 -0.992884 0)
(0.168619 -1.06056 0)
(0.184867 -1.19255 0)
(0.281994 -1.35177 0)
(0.33362 -1.26836 0)
(0.218909 -0.553705 0)
(-0.100025 0.393862 0)
(-0.0306297 0.759567 0)
(-0.0536011 0.806582 0)
(-0.0756817 0.917859 0)
(-0.0781463 0.979246 0)
(-0.0574393 1.04249 0)
(-0.0221991 1.08112 0)
(0.0388303 1.13704 0)
(0.0168961 -0.722463 0)
(0.0304744 -0.784997 0)
(0.0359298 -0.770857 0)
(0.0507758 -0.782586 0)
(0.062241 -0.802005 0)
(0.0711629 -0.826376 0)
(0.0781096 -0.856005 0)
(0.0826655 -0.891837 0)
(0.092551 -0.93704 0)
(0.114887 -0.999161 0)
(0.187215 -1.09601 0)
(0.308724 -1.2712 0)
(0.407763 -1.38386 0)
(0.384446 -1.21814 0)
(0.426221 -0.529032 0)
(0.270583 0.467074 0)
(0.239595 0.803683 0)
(0.0647624 0.861971 0)
(0.0105149 0.941868 0)
(-0.0244807 0.9799 0)
(-0.0141052 1.01483 0)
(0.0194558 1.03288 0)
(0.0816355 1.05193 0)
(0.0144564 -0.745772 0)
(0.020061 -0.788537 0)
(0.019288 -0.780459 0)
(0.0297199 -0.792383 0)
(0.0373456 -0.809073 0)
(0.04596 -0.831239 0)
(0.0612958 -0.861333 0)
(0.0887646 -0.90439 0)
(0.144923 -0.972099 0)
(0.267164 -1.08387 0)
(0.532446 -1.2962 0)
(0.734745 -1.42429 0)
(0.597828 -1.35613 0)
(0.375123 -1.19709 0)
(0.350105 -0.811546 0)
(0.53391 0.572334 0)
(0.438876 1.02084 0)
(0.144466 0.998828 0)
(0.0492391 0.996946 0)
(-0.00236868 0.998926 0)
(-0.00240188 0.997496 0)
(0.0244923 0.989172 0)
(0.0792616 0.978801 0)
(0.013698 -0.760836 0)
(0.0116365 -0.782616 0)
(0.0134179 -0.784844 0)
(0.0263688 -0.799931 0)
(0.0467769 -0.82023 0)
(0.084484 -0.853848 0)
(0.164822 -0.91753 0)
(0.286322 -0.996571 0)
(0.441077 -1.13368 0)
(0.597258 -1.34861 0)
(0.749036 -1.4953 0)
(0.777743 -1.41815 0)
(0.735361 -1.04203 0)
(0.382398 -1.03784 0)
(0.28054 -0.801987 0)
(0.354904 0.227538 0)
(0.420997 1.24411 0)
(0.112264 1.17677 0)
(0.0187611 1.07604 0)
(-0.0233674 1.02534 0)
(-0.0239077 0.986109 0)
(0.00179872 0.952275 0)
(0.0497927 0.919554 0)
(0.0174899 -0.77395 0)
(0.0180097 -0.781157 0)
(0.045715 -0.799047 0)
(0.0745005 -0.826587 0)
(0.120776 -0.86734 0)
(0.179249 -0.938184 0)
(0.248702 -1.0269 0)
(0.337439 -1.1369 0)
(0.439581 -1.28542 0)
(0.553548 -1.46033 0)
(0.699532 -1.55771 0)
(0.719896 -1.41157 0)
(0.814062 -0.912866 0)
(0.5469 -0.685004 0)
(0.231729 -0.681764 0)
(0.202408 0.235005 0)
(0.167546 1.41595 0)
(-0.0574137 1.31611 0)
(-0.0731167 1.13934 0)
(-0.0918797 1.04048 0)
(-0.0757952 0.970829 0)
(-0.0425694 0.916371 0)
(0.00441521 0.868085 0)
(0.0106853 -0.790885 0)
(0.0215956 -0.808731 0)
(0.0470316 -0.831499 0)
(0.0703031 -0.866442 0)
(0.099697 -0.918078 0)
(0.135065 -0.990163 0)
(0.173192 -1.08732 0)
(0.219515 -1.20914 0)
(0.279633 -1.37939 0)
(0.372167 -1.58534 0)
(0.488706 -1.67463 0)
(0.490434 -1.4667 0)
(0.545533 -0.915114 0)
(0.535347 -0.485381 0)
(0.0824404 -0.457229 0)
(-0.0223662 0.402031 0)
(-0.238429 1.55348 0)
(-0.291218 1.3628 0)
(-0.213014 1.15084 0)
(-0.192425 1.02662 0)
(-0.148294 0.940706 0)
(-0.101396 0.874259 0)
(-0.0498646 0.817894 0)
(0.00313796 -0.805286 0)
(0.0110615 -0.825033 0)
(0.0207147 -0.849351 0)
(0.0288516 -0.884885 0)
(0.0371287 -0.938014 0)
(0.0452966 -1.01069 0)
(0.0507435 -1.10877 0)
(0.0562391 -1.24231 0)
(0.0756212 -1.44286 0)
(0.110298 -1.67452 0)
(0.125979 -1.73723 0)
(0.053788 -1.44787 0)
(0.0125487 -0.879515 0)
(0.0795114 -0.402119 0)
(-0.290761 -0.145316 0)
(-0.506911 0.784931 0)
(-0.667924 1.55577 0)
(-0.521067 1.29092 0)
(-0.370345 1.09424 0)
(-0.303438 0.974482 0)
(-0.228169 0.888661 0)
(-0.165681 0.821025 0)
(-0.1066 0.764223 0)
(-0.00235672 -0.806358 0)
(-0.00562784 -0.826406 0)
(-0.0105439 -0.848885 0)
(-0.0181127 -0.883209 0)
(-0.0289372 -0.933323 0)
(-0.045542 -1.00148 0)
(-0.0710997 -1.09263 0)
(-0.106732 -1.2252 0)
(-0.147434 -1.42781 0)
(-0.222391 -1.64337 0)
(-0.352079 -1.6647 0)
(-0.494183 -1.32303 0)
(-0.519948 -0.797816 0)
(-0.582576 -0.330731 0)
(-0.852679 0.192026 0)
(-1.06909 1.02462 0)
(-0.950953 1.36146 0)
(-0.689261 1.10807 0)
(-0.505021 0.97543 0)
(-0.399998 0.885525 0)
(-0.301455 0.814335 0)
(-0.226131 0.755614 0)
(-0.159774 0.705 0)
(-0.00679125 -0.795554 0)
(-0.0214677 -0.815791 0)
(-0.0381196 -0.83482 0)
(-0.0585924 -0.865219 0)
(-0.085571 -0.908165 0)
(-0.122212 -0.965605 0)
(-0.173807 -1.04089 0)
(-0.24567 -1.14977 0)
(-0.351749 -1.31274 0)
(-0.539624 -1.47799 0)
(-0.796345 -1.4745 0)
(-1.00042 -1.16418 0)
(-1.08323 -0.626212 0)
(-1.19461 -0.040559 0)
(-1.40155 0.493347 0)
(-1.34817 0.946018 0)
(-1.04232 1.02299 0)
(-0.772734 0.876147 0)
(-0.588122 0.823296 0)
(-0.46549 0.772376 0)
(-0.357512 0.724227 0)
(-0.275305 0.680962 0)
(-0.204638 0.640929 0)
(-0.0108028 -0.77652 0)
(-0.0345297 -0.794835 0)
(-0.0607106 -0.810314 0)
(-0.0916854 -0.834701 0)
(-0.130487 -0.868239 0)
(-0.180944 -0.911502 0)
(-0.249199 -0.96484 0)
(-0.34219 -1.03384 0)
(-0.482308 -1.12968 0)
(-0.715961 -1.22589 0)
(-1.02691 -1.2135 0)
(-1.31908 -0.988617 0)
(-1.51754 -0.552199 0)
(-1.57995 -0.023711 0)
(-1.51109 0.428287 0)
(-1.30161 0.663691 0)
(-0.993897 0.681547 0)
(-0.782222 0.665796 0)
(-0.617844 0.66964 0)
(-0.497631 0.652895 0)
(-0.3922 0.628623 0)
(-0.309617 0.602469 0)
(-0.238623 0.574595 0)
(-0.0142993 -0.750147 0)
(-0.0448659 -0.765921 0)
(-0.0781504 -0.777557 0)
(-0.116595 -0.795273 0)
(-0.162795 -0.818694 0)
(-0.220525 -0.847181 0)
(-0.294948 -0.878845 0)
(-0.390878 -0.911037 0)
(-0.522283 -0.944955 0)
(-0.721592 -0.970348 0)
(-0.988999 -0.928166 0)
(-1.25053 -0.746514 0)
(-1.41469 -0.430186 0)
(-1.43567 -0.0694883 0)
(-1.31761 0.219756 0)
(-1.10469 0.375292 0)
(-0.895298 0.441856 0)
(-0.746271 0.502878 0)
(-0.610528 0.53321 0)
(-0.503228 0.541318 0)
(-0.40745 0.53659 0)
(-0.329293 0.525516 0)
(-0.261352 0.509121 0)
(-0.0167247 -0.717579 0)
(-0.0520667 -0.730845 0)
(-0.0899718 -0.738652 0)
(-0.132696 -0.749987 0)
(-0.182453 -0.764041 0)
(-0.242158 -0.779522 0)
(-0.315558 -0.793878 0)
(-0.404962 -0.802125 0)
(-0.514291 -0.799091 0)
(-0.657119 -0.777332 0)
(-0.838065 -0.714113 0)
(-1.01831 -0.578591 0)
(-1.13036 -0.37006 0)
(-1.13471 -0.137097 0)
(-1.04665 0.0589053 0)
(-0.914804 0.196756 0)
(-0.79526 0.299806 0)
(-0.688989 0.379232 0)
(-0.582159 0.420193 0)
(-0.490966 0.444148 0)
(-0.407717 0.453291 0)
(-0.336662 0.453798 0)
(-0.273927 0.447079 0)
(-0.018139 -0.681198 0)
(-0.0563887 -0.692371 0)
(-0.0968559 -0.696663 0)
(-0.14137 -0.70252 0)
(-0.191741 -0.708749 0)
(-0.250003 -0.71384 0)
(-0.318489 -0.715267 0)
(-0.398302 -0.708915 0)
(-0.489436 -0.689363 0)
(-0.593421 -0.649218 0)
(-0.708607 -0.577329 0)
(-0.817184 -0.462941 0)
(-0.886164 -0.309627 0)
(-0.893956 -0.145221 0)
(-0.850901 -0.00204187 0)
(-0.783339 0.113432 0)
(-0.707865 0.211293 0)
(-0.626549 0.284631 0)
(-0.543665 0.330307 0)
(-0.468123 0.362519 0)
(-0.397445 0.380534 0)
(-0.334598 0.389203 0)
(-0.27812 0.390106 0)
(-0.0188705 -0.642853 0)
(-0.0583086 -0.652269 0)
(-0.0996275 -0.653563 0)
(-0.144141 -0.654966 0)
(-0.193214 -0.655114 0)
(-0.248172 -0.65255 0)
(-0.31015 -0.644977 0)
(-0.379453 -0.629245 0)
(-0.455648 -0.601547 0)
(-0.537419 -0.556274 0)
(-0.619353 -0.486223 0)
(-0.689326 -0.388649 0)
(-0.732775 -0.270932 0)
(-0.742226 -0.148599 0)
(-0.722216 -0.0357597 0)
(-0.6824 0.063113 0)
(-0.629003 0.147372 0)
(-0.56628 0.212507 0)
(-0.501786 0.259777 0)
(-0.439776 0.295128 0)
(-0.380381 0.318253 0)
(-0.325779 0.332353 0)
(-0.275824 0.338982 0)
(-0.0190376 -0.603746 0)
(-0.058265 -0.611662 0)
(-0.0990559 -0.610642 0)
(-0.142273 -0.608617 0)
(-0.188802 -0.604326 0)
(-0.239507 -0.59647 0)
(-0.294796 -0.583154 0)
(-0.354392 -0.561904 0)
(-0.41747 -0.53015 0)
(-0.482467 -0.485138 0)
(-0.544711 -0.42341 0)
(-0.595328 -0.343319 0)
(-0.625881 -0.249603 0)
(-0.634051 -0.152215 0)
(-0.622943 -0.059279 0)
(-0.596278 0.0252048 0)
(-0.55723 0.0981351 0)
(-0.509963 0.157364 0)
(-0.459614 0.203808 0)
(-0.408913 0.239719 0)
(-0.359273 0.265493 0)
(-0.312373 0.283058 0)
(-0.268728 0.293829 0)
(-0.0186519 -0.565489 0)
(-0.0567415 -0.572066 0)
(-0.0960251 -0.569389 0)
(-0.137091 -0.564859 0)
(-0.180398 -0.557487 0)
(-0.22646 -0.546143 0)
(-0.275282 -0.529392 0)
(-0.326313 -0.505542 0)
(-0.37843 -0.472843 0)
(-0.429937 -0.429377 0)
(-0.477695 -0.373381 0)
(-0.516441 -0.305136 0)
(-0.540834 -0.228613 0)
(-0.548833 -0.149855 0)
(-0.542006 -0.0734961 0)
(-0.522946 -0.00232261 0)
(-0.494045 0.0609693 0)
(-0.458182 0.114701 0)
(-0.418577 0.158819 0)
(-0.377269 0.194097 0)
(-0.33594 0.221008 0)
(-0.295982 0.240679 0)
(-0.258178 0.254356 0)
(-0.0178 -0.52852 0)
(-0.0541295 -0.533987 0)
(-0.0912668 -0.530188 0)
(-0.129638 -0.523961 0)
(-0.169427 -0.514592 0)
(-0.210871 -0.501177 0)
(-0.253762 -0.482661 0)
(-0.297493 -0.457872 0)
(-0.341067 -0.425734 0)
(-0.38292 -0.385318 0)
(-0.420496 -0.335933 0)
(-0.450417 -0.277959 0)
(-0.469768 -0.213893 0)
(-0.47737 -0.147735 0)
(-0.473771 -0.083055 0)
(-0.460315 -0.0222227 0)
(-0.438635 0.033006 0)
(-0.410965 0.0814271 0)
(-0.37953 0.122556 0)
(-0.345911 0.15653 0)
(-0.311578 0.183607 0)
(-0.277738 0.204443 0)
(-0.245196 0.220075 0)
(-0.0166566 -0.493485 0)
(-0.0508089 -0.498135 0)
(-0.0854219 -0.493606 0)
(-0.120795 -0.48634 0)
(-0.156994 -0.475801 0)
(-0.194031 -0.461321 0)
(-0.231628 -0.44216 0)
(-0.269167 -0.417564 0)
(-0.305737 -0.386869 0)
(-0.340067 -0.349558 0)
(-0.37036 -0.305481 0)
(-0.394402 -0.255352 0)
(-0.41028 -0.201013 0)
(-0.417171 -0.144974 0)
(-0.415388 -0.0896051 0)
(-0.4058 -0.0367724 0)
(-0.389463 0.0119773 0)
(-0.367975 0.0554443 0)
(-0.342914 0.093411 0)
(-0.31551 0.125669 0)
(-0.287007 0.152274 0)
(-0.258453 0.1736 0)
(-0.230565 0.19046 0)
(-0.0153936 -0.460719 0)
(-0.0470757 -0.464829 0)
(-0.0789608 -0.459847 0)
(-0.111223 -0.452027 0)
(-0.143889 -0.440919 0)
(-0.176825 -0.426076 0)
(-0.209725 -0.406992 0)
(-0.242032 -0.383202 0)
(-0.272968 -0.354345 0)
(-0.301505 -0.320228 0)
(-0.326324 -0.280952 0)
(-0.345974 -0.237159 0)
(-0.359244 -0.190191 0)
(-0.365532 -0.141832 0)
(-0.364913 -0.0938303 0)
(-0.357999 -0.0476119 0)
(-0.345723 -0.00436018 0)
(-0.328977 0.0349102 0)
(-0.308826 0.0698996 0)
(-0.28643 0.100312 0)
(-0.262761 0.126087 0)
(-0.238715 0.147437 0)
(-0.214893 0.164989 0)
(-0.014117 -0.430526 0)
(-0.0431369 -0.434298 0)
(-0.0722033 -0.429073 0)
(-0.101378 -0.421033 0)
(-0.130651 -0.409778 0)
(-0.159821 -0.395033 0)
(-0.18858 -0.376477 0)
(-0.216437 -0.353842 0)
(-0.242745 -0.326957 0)
(-0.266699 -0.295805 0)
(-0.287344 -0.260616 0)
(-0.303689 -0.221988 0)
(-0.314931 -0.180923 0)
(-0.320647 -0.138686 0)
(-0.320842 -0.0965889 0)
(-0.315896 -0.0557967 0)
(-0.306466 -0.017212 0)
(-0.293269 0.0185216 0)
(-0.277098 0.050818 0)
(-0.258787 0.0794231 0)
(-0.239141 0.104204 0)
(-0.218926 0.125286 0)
(-0.198632 0.143156 0)
(-0.0128571 -0.40305 0)
(-0.0391195 -0.406591 0)
(-0.065356 -0.401289 0)
(-0.0915508 -0.393245 0)
(-0.117614 -0.382123 0)
(-0.143349 -0.367766 0)
(-0.16845 -0.349988 0)
(-0.1925 -0.328656 0)
(-0.214967 -0.303727 0)
(-0.235226 -0.275285 0)
(-0.252578 -0.243605 0)
(-0.266335 -0.20921 0)
(-0.275949 -0.172879 0)
(-0.28112 -0.135559 0)
(-0.281829 -0.0982349 0)
(-0.278326 -0.0618216 0)
(-0.271081 -0.027064 0)
(-0.260638 0.00548356 0)
(-0.247598 0.0353206 0)
(-0.232608 0.0621984 0)
(-0.216309 0.0859244 0)
(-0.199347 0.10656 0)
(-0.182107 0.124496 0)
(-0.0116075 -0.378315 0)
(-0.0351095 -0.381658 0)
(-0.0585655 -0.376407 0)
(-0.0819207 -0.3685 0)
(-0.104981 -0.357688 0)
(-0.127587 -0.343888 0)
(-0.149445 -0.327011 0)
(-0.170204 -0.307016 0)
(-0.189434 -0.283937 0)
(-0.206649 -0.257915 0)
(-0.221335 -0.229233 0)
(-0.233005 -0.198346 0)
(-0.241274 -0.165873 0)
(-0.245931 -0.132545 0)
(-0.246958 -0.0991264 0)
(-0.24452 -0.0663471 0)
(-0.238939 -0.0348191 0)
(-0.230662 -0.00499761 0)
(-0.220136 0.0227047 0)
(-0.207849 0.0479973 0)
(-0.194339 0.0706759 0)
(-0.180142 0.0907652 0)
(-0.165548 0.108597 0)
(-0.0103615 -0.35625 0)
(-0.0311757 -0.359392 0)
(-0.051945 -0.354279 0)
(-0.0726036 -0.3466 0)
(-0.0928656 -0.3362 0)
(-0.112614 -0.323044 0)
(-0.131575 -0.307109 0)
(-0.149457 -0.288411 0)
(-0.165913 -0.267035 0)
(-0.180569 -0.243147 0)
(-0.193039 -0.217024 0)
(-0.202975 -0.189057 0)
(-0.210103 -0.159752 0)
(-0.214272 -0.12969 0)
(-0.21547 -0.0994809 0)
(-0.213813 -0.0697136 0)
(-0.209532 -0.0408965 0)
(-0.202957 -0.0134159 0)
(-0.194453 0.0124259 0)
(-0.184403 0.0363004 0)
(-0.173239 0.0579867 0)
(-0.161401 0.0774878 0)
(-0.149104 0.0951037 0)
(-0.00912862 -0.336744 0)
(-0.0273741 -0.339688 0)
(-0.0455755 -0.334756 0)
(-0.0636713 -0.327355 0)
(-0.081325 -0.317416 0)
(-0.0984484 -0.304932 0)
(-0.114799 -0.289921 0)
(-0.130132 -0.272441 0)
(-0.144171 -0.2526 0)
(-0.156625 -0.230576 0)
(-0.167208 -0.206629 0)
(-0.175663 -0.181101 0)
(-0.181793 -0.154412 0)
(-0.185493 -0.127035 0)
(-0.186754 -0.0994653 0)
(-0.185667 -0.0721879 0)
(-0.182403 -0.0456352 0)
(-0.177213 -0.0201404 0)
(-0.170369 0.00406357 0)
(-0.162156 0.0266909 0)
(-0.152972 0.0474695 0)
(-0.143158 0.0663825 0)
(-0.132867 0.0837114 0)
(-0.00792633 -0.319722 0)
(-0.0237376 -0.322481 0)
(-0.0394962 -0.317742 0)
(-0.0551533 -0.310637 0)
(-0.0703675 -0.301164 0)
(-0.0850645 -0.289333 0)
(-0.0990363 -0.275189 0)
(-0.112081 -0.258813 0)
(-0.123977 -0.240327 0)
(-0.134501 -0.219911 0)
(-0.143435 -0.197805 0)
(-0.150592 -0.174309 0)
(-0.15583 -0.14978 0)
(-0.159074 -0.124611 0)
(-0.160321 -0.0992134 0)
(-0.159642 -0.0739918 0)
(-0.157174 -0.0493224 0)
(-0.153098 -0.0255038 0)
(-0.147624 -0.00271598 0)
(-0.140969 0.018829 0)
(-0.133468 0.03881 0)
(-0.125406 0.0571659 0)
(-0.11688 0.0741682 0)
(-0.00676553 -0.305093 0)
(-0.0202684 -0.307698 0)
(-0.0337034 -0.303146 0)
(-0.0470353 -0.296336 0)
(-0.0599557 -0.287309 0)
(-0.0723929 -0.276084 0)
(-0.0841752 -0.262725 0)
(-0.0951371 -0.247324 0)
(-0.105104 -0.23001 0)
(-0.113902 -0.210958 0)
(-0.121368 -0.19039 0)
(-0.127362 -0.168573 0)
(-0.131784 -0.145815 0)
(-0.13458 -0.122451 0)
(-0.135752 -0.0988273 0)
(-0.135356 -0.075289 0)
(-0.133503 -0.0521628 0)
(-0.130337 -0.0297211 0)
(-0.126012 -0.00813183 0)
(-0.120695 0.0124627 0)
(-0.114642 0.0317567 0)
(-0.108112 0.0496081 0)
(-0.101155 0.0662694 0)
(-0.00564509 -0.292603 0)
(-0.0169468 -0.295094 0)
(-0.0281727 -0.290724 0)
(-0.0392842 -0.284201 0)
(-0.050036 -0.275592 0)
(-0.0603518 -0.264925 0)
(-0.0700961 -0.25227 0)
(-0.0791355 -0.237724 0)
(-0.0873342 -0.221418 0)
(-0.0945592 -0.203518 0)
(-0.100689 -0.18423 0)
(-0.105621 -0.163794 0)
(-0.109283 -0.142479 0)
(-0.111638 -0.120578 0)
(-0.11269 -0.0983897 0)
(-0.112486 -0.0762137 0)
(-0.111114 -0.0543369 0)
(-0.108687 -0.0330119 0)
(-0.105337 -0.0124106 0)
(-0.101192 0.0073668 0)
(-0.0964031 0.026104 0)
(-0.0912253 0.0435245 0)
(-0.0856811 0.0598532 0)
(-0.00454318 -0.282131 0)
(-0.0137284 -0.28453 0)
(-0.0228697 -0.280317 0)
(-0.0318637 -0.274054 0)
(-0.0405614 -0.265814 0)
(-0.0488784 -0.255634 0)
(-0.0567125 -0.243586 0)
(-0.0639587 -0.22977 0)
(-0.0705132 -0.214312 0)
(-0.076277 -0.197372 0)
(-0.0811615 -0.179139 0)
(-0.085095 -0.159831 0)
(-0.0880275 -0.139689 0)
(-0.0899364 -0.118969 0)
(-0.0908287 -0.097934 0)
(-0.0907429 -0.076848 0)
(-0.0897477 -0.0559649 0)
(-0.0879382 -0.0355213 0)
(-0.0854222 -0.0157006 0)
(-0.0822852 0.00341416 0)
(-0.0786233 0.021701 0)
(-0.0746788 0.0387742 0)
(-0.070431 0.0547971 0)
(-0.00341511 -0.274179 0)
(-0.0105173 -0.276432 0)
(-0.0176842 -0.272332 0)
(-0.0246479 -0.266274 0)
(-0.0313846 -0.258319 0)
(-0.0378089 -0.248512 0)
(-0.0438477 -0.236928 0)
(-0.0494208 -0.223666 0)
(-0.0544491 -0.208853 0)
(-0.0588587 -0.192641 0)
(-0.0625847 -0.175207 0)
(-0.065577 -0.156753 0)
(-0.0678035 -0.137499 0)
(-0.0692533 -0.117675 0)
(-0.0699386 -0.0975206 0)
(-0.0698948 -0.0772686 0)
(-0.0691792 -0.0571456 0)
(-0.0678694 -0.0373672 0)
(-0.06606 -0.018119 0)
(-0.0638298 0.000509558 0)
(-0.0612177 0.0184447 0)
(-0.0584086 0.0352584 0)
(-0.0553749 0.0510163 0)
(-0.00224431 -0.268896 0)
(-0.00722815 -0.270772 0)
(-0.0124441 -0.266788 0)
(-0.0174045 -0.260908 0)
(-0.0222074 -0.253179 0)