# vtk DataFile Version 2.0
gauge_2
ASCII
DATASET POLYDATA
POINTS 43 double
0.2 0.0359992 0.005
0.2 0.0419991 0.005
0.2 0.047999 0.005
0.2 0.0607609 0.005
0.2 0.0735228 0.005
0.2 0.0862847 0.005
0.2 0.0990467 0.005
0.2 0.111809 0.005
0.2 0.124571 0.005
0.2 0.137332 0.005
0.2 0.150094 0.005
0.2 0.162856 0.005
0.2 0.175618 0.005
0.2 0.18838 0.005
0.2 0.201142 0.005
0.2 0.213904 0.005
0.2 0.226666 0.005
0.2 0.239428 0.005
0.2 0.25219 0.005
0.2 0.264952 0.005
0.2 0.277714 0.005
0.2 0.290476 0.005
0.2 0.303238 0.005
0.2 0.315999 0.005
0.2 0.328761 0.005
0.2 0.341523 0.005
0.2 0.354285 0.005
0.2 0.367047 0.005
0.2 0.379809 0.005
0.2 0.392571 0.005
0.2 0.405333 0.005
0.2 0.418095 0.005
0.2 0.430857 0.005
0.2 0.443619 0.005
0.2 0.456381 0.005
0.2 0.469143 0.005
0.2 0.481905 0.005
0.2 0.494666 0.005
0.2 0.507428 0.005
0.2 0.52019 0.005
0.2 0.532952 0.005
0.2 0.545714 0.005
0.2 0.558476 0.005
POINT_DATA 43
 FIELD attributes 1
alpha.water 1 43 float
1 1 1 1 0.997181 0.698508 0.201658 0.000332809 0.000182228 0.000483372 0.000394246 9.11063e-05 4.93116e-10 1.51019e-10 7.04735e-11 5.86004e-11 2.54635e-11 3.01268e-12 1.30979e-12 7.27302e-14 4.4518e-15 5.57445e-16 8.41355e-17 9.25542e-18 6.08873e-19 3.82342e-20 2.12981e-21 8.68211e-23 1.02362e-23 1.85366e-24 3.69076e-25 7.3888e-26 1.35974e-26 2.23343e-27 3.2155e-28 3.98375e-29 4.1523e-30 3.50629e-31 2.21075e-32 9.17219e-34 2.23173e-35 2.23043e-37 6.81687e-41
