/*--------------------------------*- C++ -*----------------------------------*\
| =========                 |                                                 |
| \\      /  F ield         | OpenFOAM: The Open Source CFD Toolbox           |
|  \\    /   O peration     | Version:  2012                                  |
|   \\  /    A nd           | Website:  www.openfoam.com                      |
|    \\/     M anipulation  |                                                 |
\*---------------------------------------------------------------------------*/
FoamFile
{
    version     2.0;
    format      ascii;
    class       volScalarField;
    location    "0.49";
    object      maxKappa;
}
// * * * * * * * * * * * * * * * * * * * * * * * * * * * * * * * * * * * * * //

dimensions      [0 0 0 0 0 0 0];


internalField   nonuniform List<scalar> 
2268
(
1.11351e-06
2.19399e-06
3.20314e-06
4.16474e-06
5.12914e-06
6.13644e-06
6.97927e-06
7.72775e-06
8.42696e-06
8.96088e-06
9.38637e-06
9.70822e-06
9.94936e-06
9.99124e-06
9.99124e-06
9.80596e-06
9.46545e-06
8.94576e-06
8.24626e-06
7.31116e-06
6.03712e-06
4.49925e-06
2.69444e-06
1.37098e-06
2.31571e-06
3.2852e-06
4.23463e-06
5.19169e-06
6.18041e-06
7.00907e-06
7.76289e-06
8.46546e-06
8.97718e-06
9.42273e-06
9.75961e-06
9.95864e-06
9.99967e-06
9.99967e-06
9.83797e-06
9.51734e-06
9.01094e-06
8.2899e-06
7.32051e-06
6.00879e-06
4.46296e-06
2.775e-06
1.72415e-06
2.53378e-06
3.43492e-06
4.3597e-06
5.30385e-06
6.25852e-06
7.06455e-06
7.83444e-06
8.53127e-06
9.05304e-06
9.51805e-06
9.86255e-06
1.0036e-05
1.00721e-05
1.00721e-05
9.96495e-06
9.69019e-06
9.22514e-06
8.57788e-06
7.71278e-06
6.53998e-06
5.12491e-06
3.59801e-06
2.16034e-06
2.85202e-06
3.66413e-06
4.55055e-06
5.47655e-06
6.38587e-06
7.16145e-06
7.94405e-06
8.62497e-06
9.14683e-06
9.61371e-06
9.92736e-06
1.00875e-05
1.01263e-05
1.01263e-05
1.00375e-05
9.78191e-06
9.33006e-06
8.67333e-06
7.86778e-06
6.84888e-06
5.87402e-06
4.82917e-06
2.60503e-06
3.20641e-06
3.92782e-06
4.77303e-06
5.67912e-06
6.54045e-06
7.29385e-06
8.09376e-06
8.75911e-06
9.29342e-06
9.77644e-06
1.00962e-05
1.02761e-05
1.03316e-05
1.03316e-05
1.02556e-05
1.00401e-05
9.66284e-06
9.12083e-06
8.42979e-06
7.53882e-06
6.66131e-06
5.67883e-06
3.10211e-06
3.6238e-06
4.2608e-06
5.06121e-06
5.9409e-06
6.75287e-06
7.48928e-06
8.28898e-06
8.91327e-06
9.43833e-06
9.92693e-06
1.02133e-05
1.03749e-05
1.04285e-05
1.04285e-05
1.03637e-05
1.0177e-05
9.84454e-06
9.34169e-06
8.76857e-06
8.05767e-06
7.71007e-06
7.45139e-06
3.57976e-06
4.03763e-06
4.6054e-06
5.36375e-06
6.21409e-06
6.98292e-06
7.71589e-06
8.50704e-06
9.09918e-06
9.66356e-06
1.01714e-05
1.04812e-05
1.06782e-05
1.07476e-05
1.07476e-05
1.0677e-05
1.05013e-05
1.02347e-05
9.86889e-06
9.46565e-06
8.94106e-06
8.72783e-06
8.44354e-06
4.10909e-06
4.51068e-06
5.02343e-06
5.74138e-06
6.55299e-06
7.27922e-06
8.00702e-06
8.76108e-06
9.31205e-06
9.90781e-06
1.0393e-05
1.0666e-05
1.08528e-05
1.08994e-05
1.08994e-05
1.08434e-05
1.07076e-05
1.05209e-05
1.02243e-05
9.96467e-06
1.00068e-05
1.09566e-05
1.09566e-05
0.000117401
0.000155564
0.000162741
0.000162741
0.000128818
0.000356514
0.000874731
0.00154065
0.00210572
0.00244462
0.00244462
0.00170519
0.00130738
0.0011643
0.00100844
0.000827614
0.000731759
0.000689708
0.00048616
0.000142807
0.00017895
0.00017895
0.000177308
0.000127988
0.00036688
0.000765874
0.00131276
0.00198272
0.00235168
0.00235168
0.00203621
0.00174984
0.00154309
0.00155035
0.00155035
0.00121858
0.000954101
0.00068612
0.000155878
0.000200223
0.000201652
0.000201652
0.000137331
0.0003899
0.000807841
0.00132489
0.00189141
0.00222845
0.00242866
0.00260749
0.00289769
0.00334309
0.00334309
0.00316471
0.00259636
0.00159487
0.000584107
0.000214674
0.000249209
0.000249209
0.000236662
0.000203919
0.000458312
0.000832592
0.0011981
0.00154116
0.00178986
0.00195363
0.00221039
0.002501
0.00263465
0.00263465
0.0025209
0.00200666
0.00140575
0.000560299
0.000241777
0.000299158
0.000299158
0.000292088
0.000312933
0.000565269
0.000966065
0.0011737
0.00119382
0.00119382
0.00120407
0.00126068
0.00130512
0.00130512
0.00134096
0.00141068
0.00149655
0.00149655
0.000677803
0.000323811
0.000323811
0.000299269
0.000349208
0.00043386
0.000696675
0.00111742
0.00127092
0.00127092
0.00102801
0.000688174
0.000786478
0.000791933
0.000791933
0.000669461
0.000920149
0.0014371
0.0014371
0.000752903
0.000316859
0.000316859
0.000351867
0.000458554
0.000537579
0.000832681
0.00122039
0.00144264
0.00144264
0.00120616
0.000690017
0.000365598
0.000330254
0.000408728
0.000442123
0.000630289
0.00118822
0.00118822
0.000781816
0.000317263
0.000404869
0.000598247
0.000598247
0.000626538
0.000933005
0.00135257
0.00153865
0.00153865
0.00146111
0.00116246
0.000776891
0.000471798
0.000299222
0.000505621
0.000708557
0.00122262
0.00122262
0.00103322
1.52487e-05
1.59274e-05
1.63596e-05
1.74044e-05
1.85634e-05
1.96509e-05
1.99912e-05
2.09225e-05
2.04575e-05
2.01974e-05
1.9434e-05
1.76263e-05
1.60056e-05
1.36374e-05
1.24247e-05
1.16046e-05
1.17552e-05
1.1365e-05
1.16839e-05
1.21286e-05
1.34856e-05
1.64116e-05
1.80092e-05
0.000100367
0.000100638
0.000103284
0.000107901
0.000123217
0.000130188
0.00013422
0.000139515
0.000136354
0.000134851
0.000124986
0.000110484
9.20955e-05
5.34399e-05
3.42364e-05
2.38161e-05
1.59377e-05
1.23676e-05
1.22892e-05
1.21401e-05
1.31638e-05
1.49939e-05
1.80092e-05
0.000149005
0.000143669
0.000148736
0.000158829
0.000192017
0.000205321
0.000218188
0.000227622
0.000236414
0.000242709
0.000243464
0.000243464
0.000241482
0.000223116
0.000185511
0.000127574
6.84027e-05
3.00971e-05
2.51844e-05
1.59403e-05
1.40727e-05
1.58107e-05
1.71941e-05
0.000155121
0.000152157
0.000153417
0.000153417
0.000160699
0.000163981
0.00016856
0.000170331
0.00017015
0.000170137
0.000168351
0.000158333
0.000152013
0.000142215
0.00012414
0.000204612
0.000209321
0.000209321
0.000152242
6.7435e-05
3.19141e-05
2.9241e-05
2.13144e-05
0.00015526
0.000152767
0.000151174
0.000150279
0.00014594
0.000141547
0.000135022
0.000126409
0.000112826
0.000101239
7.90683e-05
7.32272e-05
9.2499e-05
0.000144195
0.000209609
0.000209609
0.000197581
0.00019195
0.000211261
0.000211261
0.000209991
0.000169192
0.000103766
0.000155648
0.000155648
0.000153932
0.000152442
0.000149295
0.000144446
0.000137895
0.000130891
0.000121907
0.000113963
0.000106847
0.000104378
0.000140778
0.000171722
0.000194862
0.000142015
0.000122004
0.000154974
0.000190685
0.00020729
0.00021286
0.000231375
0.000231375
0.00015617
0.00015503
0.000151925
0.000150166
0.000144654
0.000140663
0.000131561
0.000127459
0.000115855
0.000113176
0.000103603
0.000107859
9.51745e-05
0.000138098
0.000148528
0.000134924
0.000145331
0.000180752
0.000218898
0.000238047
0.000238047
0.000249582
0.000229427
0.00015826
0.000157564
0.000155727
0.00015377
0.000150697
0.000146817
0.000141483
0.000136282
0.000130386
0.000125159
0.000121148
0.00012084
0.00011834
0.00011834
0.000121517
0.000115994
0.00011339
0.000128056
0.000168663
0.000202238
0.000244136
0.000270174
0.000270174
0.000161141
0.000160174
0.000158219
0.000156756
0.000152067
0.000149835
0.000142615
0.000140017
0.000131954
0.000128894
0.000121959
0.00012324
0.000116337
0.000118952
0.000117871
0.000114753
0.000110068
0.000105367
0.00011988
0.000135809
0.000171253
0.000222055
0.000248121
0.000165641
0.000164999
0.000163134
0.000161921
0.000158189
0.000155937
0.000151313
0.000147782
0.000142937
0.00013902
0.000133932
0.000134044
0.000128558
0.000130547
0.000125585
0.000122635
0.000118129
0.000113796
0.000114219
0.000109982
0.000117356
0.000141273
0.000171348
0.000170646
0.00017015
0.000168376
0.000167387
0.000163414
0.000162147
0.000156964
0.000154939
0.000149979
0.000147692
0.000142831
0.000143209
0.000138995
0.000140578
0.000137
0.00013633
0.000131021
0.000127825
0.000123343
0.000117999
0.000111332
0.00010595
0.000100899
0.000176956
0.000176525
0.000174957
0.000174242
0.000170851
0.000169926
0.000165693
0.000163889
0.000159986
0.000158124
0.000154087
0.000153912
0.000149735
0.000150326
0.000145719
0.000144818
0.000139161
0.000136564
0.0001311
0.000127839
0.000122843
0.000115746
0.000105143
0.000183893
0.000183573
0.000182162
0.000181672
0.000178666
0.000177895
0.000174329
0.000172523
0.000169347
0.000167462
0.000164021
0.00016311
0.000159437
0.000158965
0.000154759
0.000153779
0.000147951
0.000145919
0.000139159
0.000135962
0.00012558
0.000121061
0.000106261
0.00019196
0.000191763
0.0001906
0.000190287
0.000187703
0.000187029
0.000184121
0.000182427
0.000179862
0.00017808
0.00017515
0.000174118
0.000170734
0.000169894
0.000165854
0.000164571
0.00015931
0.000157679
0.000151194
0.000149114
0.000139344
0.000137311
0.00012641
0.000200579
0.00020049
0.000199395
0.000199227
0.00019695
0.000196318
0.000193943
0.000192334
0.000190361
0.000188626
0.000186356
0.000185097
0.000182383
0.000181378
0.000178108
0.000177068
0.000172719
0.000171765
0.000165982
0.000165129
0.000156553
0.000157032
0.000146681
0.000210413
0.000210402
0.000209353
0.000209291
0.000207356
0.000206808
0.000204954
0.000203522
0.00020204
0.000200453
0.000198695
0.000197593
0.000195477
0.000194561
0.000192133
0.000191216
0.000188241
0.000187721
0.00018366
0.000184227
0.000178058
0.000181816
0.000174694
0.000220681
0.000220729
0.000219771
0.000219781
0.000218176
0.000217687
0.000216311
0.000215025
0.000214043
0.000212579
0.000211446
0.00021049
0.000209092
0.000208424
0.000206946
0.000206458
0.000204904
0.00020491
0.000202969
0.000204508
0.000201479
0.000207474
0.00020376
0.00023215
0.000232268
0.000231339
0.000231398
0.000230073
0.000229665
0.000228686
0.000227581
0.000227082
0.000225945
0.000225412
0.00022483
0.000224095
0.000223892
0.000223391
0.000223453
0.000223418
0.00022412
0.000224569
0.000227117
0.000227922
0.00023559
0.000236613
0.000244197
0.000244372
0.000243433
0.000243495
0.00024243
0.000242105
0.000241523
0.000240617
0.000240646
0.000239827
0.000239987
0.000239826
0.000239863
0.000240316
0.000240774
0.000241615
0.000242929
0.000244505
0.000247123
0.000250634
0.000255
0.000263697
0.000269538
0.000257022
0.000257242
0.000256358
0.000256425
0.000255644
0.00025542
0.000255185
0.000254543
0.000255088
0.000254664
0.000255508
0.000255897
0.000256723
0.000257989
0.000259438
0.000261215
0.000263864
0.00026653
0.000271121
0.000275756
0.000283369
0.000293112
0.000303633
0.000270333
0.00027056
0.00026973
0.000269768
0.000269221
0.000269057
0.00026913
0.000268727
0.000269803
0.00026975
0.000271391
0.000272351
0.000274096
0.000276305
0.000278785
0.000281708
0.000285644
0.000289667
0.000295965
0.00030201
0.000312265
0.000322878
0.000337268
0.000283837
0.000283994
0.00028332
0.00028334
0.000283016
0.000282968
0.000283363
0.000283222
0.000284754
0.000285029
0.000287419
0.000288891
0.000291595
0.000294744
0.00029833
0.000302545
0.000307923
0.000313662
0.000321806
0.000329849
0.000342416
0.000354437
0.000372292
0.000297244
0.000297213
0.000296819
0.000296756
0.000296623
0.000296669
0.000297323
0.000297384
0.000299238
0.00029974
0.000302794
0.000304663
0.000308384
0.000312477
0.000317331
0.000323054
0.000330079
0.000337771
0.000347801
0.000357933
0.000372541
0.000386182
0.000406986
0.000310045
0.000309802
0.000309754
0.0003096
0.000309693
0.000309872
0.000310744
0.000311007
0.000313054
0.000313713
0.000317273
0.00031946
0.000324113
0.000328942
0.000334938
0.000341952
0.000350441
0.000359952
0.000371692
0.000384079
0.000400743
0.000416681
0.000440565
0.000321994
0.000321623
0.000321834
0.00032162
0.00032193
0.000322212
0.000323268
0.00032375
0.000326019
0.000326877
0.000330754
0.000333069
0.000338444
0.000343649
0.000350538
0.000358495
0.000368227
0.000379328
0.000392628
0.000407305
0.000425896
0.000444353
0.000471119
0.000332867
0.00033248
0.00033281
0.000332622
0.000333131
0.000333547
0.000334809
0.000335584
0.000338125
0.000339351
0.000343566
0.000346066
0.000351968
0.000357262
0.000364876
0.000373447
0.000384206
0.00039642
0.000410953
0.000427626
0.000447695
0.00046969
0.000497946
0.000342485
0.000342154
0.00034253
0.00034247
0.000343185
0.000343786
0.000345294
0.000346393
0.000349218
0.000350881
0.000355456
0.000358276
0.000364546
0.000369637
0.000377488
0.000385927
0.000396913
0.000409559
0.000425455
0.000444111
0.000464989
0.000490785
0.000517472
0.000350926
0.000350659
0.000351065
0.000351167
0.000352097
0.000352936
0.000354786
0.000356328
0.000359599
0.000361872
0.000366892
0.000370222
0.000376912
0.000382002
0.000390113
0.000398177
0.000408881
0.000420452
0.00043608
0.000455545
0.000477943
0.000506301
0.000531478
0.000358152
0.000357937
0.00035838
0.000358645
0.000359818
0.000360931
0.000363203
0.000365235
0.000369033
0.000371978
0.000377521
0.000381494
0.000388607
0.000393892
0.00040225
0.000409731
0.000419738
0.000432236
0.000447986
0.00046631
0.000488491
0.000517292
0.000536364
0.000364293
0.00036411
0.0003646
0.000365008
0.000366454
0.000367842
0.000370593
0.000373128
0.000377532
0.000381208
0.000387383
0.000392165
0.000399864
0.000405627
0.000414381
0.000421578
0.000431253
0.000440909
0.000453124
0.000467088
0.000487793
0.000516132
0.000536364
0.000369438
0.000369268
0.000369817
0.000370342
0.000372083
0.000373727
0.000376993
0.000379993
0.000385057
0.000389433
0.000396321
0.000401928
0.000410264
0.00041664
0.000425905
0.000433033
0.000442651
0.000451993
0.000463109
0.000476321
0.000493988
0.000518558
0.000535795
0.000373712
0.000373545
0.000374169
0.000374787
0.000376824
0.000378688
0.000382456
0.000385855
0.000391586
0.000396557
0.00040418
0.000410491
0.000419499
0.00042647
0.00043622
0.000443333
0.000452919
0.000460091
0.000468122
0.000475335
0.000485849
0.000504254
0.000527104
0.000377226
0.000377066
0.000377776
0.00037847
0.000380773
0.000382815
0.000387034
0.000390737
0.000397076
0.000402861
0.000410777
0.000418369
0.000427194
0.000435571
0.000444633
0.000452813
0.000461035
0.000468266
0.00047513
0.000481344
0.000488969
0.000502575
0.000516144
0.000380026
0.000379882
0.000380675
0.000381432
0.000383946
0.000386126
0.000390701
0.000394616
0.000401434
0.000407354
0.000415969
0.000423227
0.000433156
0.000440521
0.000450891
0.000457365
0.000466426
0.000470257
0.000475155
0.00047673
0.000480552
0.000485042
0.000499691
0.000382183
0.000382065
0.000382922
0.000383726
0.000386383
0.000388669
0.000393451
0.000398676
0.000405142
0.000412683
0.0004209
0.000429779
0.00043881
0.000447886
0.000456427
0.000464166
0.000470238
0.000473932
0.000475155
0.00047473
0.000473689
0.000470494
0.000480963
0.000383714
0.000383608
0.000384491
0.000385317
0.000388052
0.000390573
0.000395269
0.000400471
0.00040684
0.000414262
0.000422252
0.000430814
0.000439289
0.000447608
0.000456054
0.000461165
0.000468455
0.00046998
0.000472678
0.000466618
0.000460783
0.000448772
0.000456272
0.00038458
0.000384487
0.000385378
0.000386192
0.000388929
0.00039219
0.000396767
0.000402541
0.000409186
0.000416918
0.000425213
0.000434062
0.000442756
0.000451223
0.000458558
0.000464422
0.000468089
0.000467178
0.000467243
0.000458244
0.000443229
0.000422533
0.000425393
0.000385035
0.000384908
0.000385757
0.000386513
0.000389199
0.00039226
0.000396573
0.00040203
0.000408274
0.000415507
0.000423142
0.000431165
0.000439268
0.000445809
0.000454824
0.0004581
0.000464161
0.000460299
0.000456901
0.000438653
0.000417694
0.000385304
0.000385419
0.000385035
0.000384908
0.000385757
0.000386521
0.000389199
0.000392506
0.000396905
0.000402465
0.000408821
0.000416157
0.000423906
0.000432027
0.000439682
0.000446795
0.000452273
0.000455398
0.000458988
0.000454138
0.000446682
0.000429698
0.000401011
0.000365022
0.000359663
0.000384839
0.00038464
0.000385411
0.000386056
0.00038863
0.000390654
0.000395359
0.000399528
0.000405898
0.000411567
0.00041969
0.000425394
0.000434607
0.000439014
0.000446809
0.00044707
0.000449791
0.000439835
0.000428143
0.000395672
0.000355592
0.000304661
0.000321351
0.000384534
0.000384284
0.000384969
0.00038549
0.000387919
0.000390504
0.000394427
0.000399396
0.00040505
0.000411514
0.000418235
0.00042512
0.000431251
0.000436672
0.000441329
0.000440135
0.000441291
0.000434342
0.000419692
0.000389978
0.000339315
0.000272979
0.000311322
0.000383376
0.000383065
0.000383625
0.000383974
0.000386179
0.000387732
0.000391885
0.000394842
0.000400915
0.000405072
0.000412549
0.000416986
0.00042455
0.000427144
0.000433106
0.000430663
0.000430783
0.00041678
0.000398927
0.000359949
0.000304838
0.000284852
0.000370318
1.69922e-05
1.47328e-05
1.36503e-05
1.92714e-05
1.80936e-05
1.82007e-05
1.87956e-05
1.8236e-05
1.80936e-05
1.82681e-05
1.88651e-05
1.90182e-05
1.7778e-05
1.82681e-05
1.88651e-05
1.90182e-05
4.00188e-05
3.92741e-05
3.95116e-05
3.81285e-05
0.000248359
0.000242761
0.000245151
0.000223149
0.000248359
0.000242761
0.000245151
0.000223149
0.000254501
0.000265977
0.000258889
0.000276524
0.000254501
0.000265977
0.000258889
0.000276524
0.000193426
0.000208587
0.000224438
0.0002537
0.000101143
0.000100042
0.000106472
0.000114337
8.33214e-05
7.2948e-05
6.56131e-05
5.63347e-05
9.74253e-05
8.81834e-05
8.22731e-05
7.05741e-05
0.00012071
0.000114412
0.000112709
0.000106019
0.000146049
0.000141968
0.000143061
0.000140099
0.000179241
0.000177664
0.000182698
0.000183304
0.000212016
0.000212377
0.000220046
0.000222928
0.00024796
0.00025055
0.000260477
0.000265474
0.000282677
0.000287465
0.000298701
0.00030563
0.000318469
0.000325419
0.000337863
0.000346751
0.000353343
0.000361997
0.000375305
0.00038572
0.000389398
0.000399443
0.000413441
0.000425051
0.0004248
0.000435937
0.000450357
0.000462921
0.000459485
0.00047209
0.000487279
0.000500916
0.000491549
0.000505882
0.00052187
0.000537058
0.000520313
0.000536338
0.000553409
0.000570965
0.000542068
0.000559787
0.000578687
0.000599157
0.000557925
0.000577243
0.000598355
0.000622085
0.00056418
0.000585137
0.000609308
0.000637448
0.000564276
0.000586886
0.000615201
0.000649455
0.000564276
0.000586886
0.000615201
0.000655808
0.000555368
0.000579604
0.000613492
0.000665991
0.000544125
0.000571444
0.00061335
0.000676474
0.000526778
0.000560472
0.000617755
0.000683003
0.000509993
0.000555074
0.000617755
0.000683003
0.00048951
0.000545927
0.000609418
0.000663167
0.000465684
0.000528254
0.00058735
0.000631171
0.000430916
0.00049182
0.000546918
0.0005951
0.000423431
0.000488416
0.000546918
0.000615517
0.000400086
0.000468758
0.000540532
0.000656402
0.000477675
0.00057656
0.000675914
0.000796625
0.000477675
0.00057656
0.000675914
0.000796625
0.000313375
0.000398277
0.000398277
0.000385751
0.000420969
0.000689205
0.00129089
0.00153643
0.00153643
0.00145725
0.00126162
0.00100262
0.000832967
0.000686285
0.000630438
0.000668446
0.000976726
0.0010597
0.0009968
9.72226e-05
0.000150302
5.56351e-05
0.00010243
0.000384832
0.000494206
0.00102061
0.00142241
0.00142241
0.00137269
0.00128411
0.00112341
0.000981633
0.000808216
0.000650469
0.000585331
0.000915521
0.0010597
0.000820359
2.78109e-05
2.71674e-05
2.21154e-05
3.83051e-05
0.000239718
0.000356582
0.000681974
0.00122631
0.00125176
0.00125176
0.00118479
0.00106291
0.000946072
0.000802091
0.00068342
0.000573025
0.000764024
0.000957488
0.000551751
2.201e-05
2.201e-05
2.18082e-05
2.43126e-05
0.000110203
0.000252649
0.000496698
0.000990266
0.00107132
0.00106142
0.00104137
0.000984587
0.000885673
0.000742975
0.000588018
0.000390721
0.000645556
0.000845993
0.000420102
3.26388e-05
2.54105e-05
2.02007e-05
1.81951e-05
2.2073e-05
0.000192716
0.000419932
0.000815875
0.00106866
0.00106866
0.00100487
0.000916209
0.000813006
0.000678065
0.000549367
0.000371595
0.000631155
0.000830333
0.000348119
0.000172005
0.00011263
5.54046e-05
3.02915e-05
1.68582e-05
6.25878e-05
0.000308874
0.000481756
0.000755544
0.000892467
0.000941499
0.000941499
0.000858661
0.000722308
0.000567678
0.000409096
0.000627987
0.000830333
0.000236386
0.000305138
0.000308564
0.000308564
0.000189463
4.23838e-05
2.82061e-05
0.000125472
0.000446723
0.00061078
0.000697665
0.000786346
0.000824281
0.000824281
0.00076999
0.000763328
0.000625524
0.000601324
0.000562946
0.000107311
0.000218029
0.000213854
0.000278372
0.000343736
0.000309623
0.000179938
5.32185e-05
5.55473e-05
0.000366242
0.000733161
0.000840167
0.000863832
0.000901356
0.000960975
0.00111087
0.00111087
0.000863833
0.00030102
4.70962e-05
0.000358482
0.000358482
0.000344028
0.000344028
0.00031773
0.000374218
0.000374218
0.000239581
9.65624e-05
0.000114316
0.000316529
0.000540971
0.000623391
0.000609802
0.000632288
0.000516405
0.000218838
4.50482e-05
2.1766e-05
0.000316023
0.000434986
0.000434986
0.00037059
0.000236516
0.000381861
0.000531216
0.000531216
0.00049895
0.00040062
0.000237051
0.000156999
0.000139974
0.000119106
8.84417e-05
7.28615e-05
4.47155e-05
3.16807e-05
1.8155e-05
0.000157827
0.000222341
0.000286439
0.000173993
0.000133019
0.000145222
0.000389698
0.000644454
0.000708554
0.000708554
0.000733929
0.000653038
0.000494002
0.000451325
0.000427166
0.000346739
0.000158973
4.70353e-05
2.36059e-05
6.69329e-05
8.70532e-05
0.000107606
0.000108251
0.000189266
0.000361343
0.000541427
0.000818876
0.00119631
0.00157294
0.00164913
0.00130353
0.000872474
0.000593126
0.000548415
0.000548415
0.000446122
0.00011438
3.32705e-05
6.6779e-05
9.86335e-05
0.00016579
0.000276007
0.000485468
0.000792428
0.00129165
0.00193736
0.00245178
0.00256802
0.00256802
0.00225826
0.00155467
0.00108769
0.000757919
0.00053626
0.000303392
5.14916e-05
5.04434e-05
0.00011853
0.00014446
0.000206401
0.000303854
0.000470826
0.000846929
0.00138688
0.0018013
0.00190362
0.00200847
0.001802
0.00119849
0.000487061
0.000327772
0.000286311
0.000233478
8.33e-05
3.30283e-05
5.08146e-05
0.00014859
0.000162182
0.000225975
0.000334972
0.000514865
0.000780225
0.0011364
0.00144012
0.00158026
0.00123338
0.00101683
0.000844146
0.0004416
0.000102686
5.4153e-05
3.78971e-05
1.57815e-05
2.92136e-05
5.08146e-05
0.000215278
0.000256657
0.000323411
0.000429449
0.000587217
0.000854094
0.00116559
0.00129104
0.00129104
0.000871846
0.000973874
0.000973874
0.000853869
0.000622314
0.000323102
8.49339e-05
2.82784e-05
2.78649e-05
3.86602e-05
0.000247019
0.000291121
0.000357551
0.000453041
0.000584962
0.000783467
0.00106598
0.00129154
0.00129154
0.00108348
0.000789291
0.00105899
0.00105899
0.000889831
0.000626109
0.000408281
0.000105241
5.88357e-05
4.39209e-05
0.000317972
0.000366652
0.000438033
0.000532529
0.000659436
0.000826889
0.00104849
0.0012943
0.00134777
0.00134777
0.000992022
0.000557436
0.00101725
0.00101725
0.000855418
0.000575741
0.000350169
0.000138613
0.000142577
0.000354012
0.000402049
0.00046999
0.000554874
0.00066531
0.000803077
0.000981931
0.00120372
0.00137499
0.00137499
0.00132172
0.00107182
0.000649887
0.000815241
0.000734352
0.000666521
0.000482547
0.000214604
0.000253335
0.000415351
0.000466815
0.000535864
0.000619274
0.000722221
0.000843645
0.000983436
0.00113969
0.0012925
0.00132695
0.00132695
0.0011989
0.000952515
0.000643024
0.000562708
0.000566734
0.000566325
0.000357013
0.000253335
0.000453014
0.000505084
0.00057154
0.000650703
0.000747188
0.000861601
0.000992022
0.00112713
0.00126214
0.00133324
0.00133324
0.00128384
0.00111146
0.00082175
0.000391959
0.000498413
0.000494589
0.000364741
0.000261457
0.000507781
0.000563918
0.000632351
0.000710541
0.000801255
0.000902587
0.00101534
0.00112622
0.00123086
0.00130508
0.00130508
0.00129469
0.00119871
0.00102841
0.000782621
0.000413182
0.000441092
0.000318323
0.000237523
0.000543931
0.000601498
0.000671194
0.00075049
0.000838089
0.000932318
0.00103388
0.00113094
0.00121593
0.00128724
0.00130042
0.00130042
0.00122847
0.00110055
0.000898423
0.000584407
0.000379313
0.000340967
0.000222858
0.000593347
0.00065453
0.000727327
0.000807995
0.000891488
0.000978471
0.00106113
0.00114164
0.00120365
0.00125558
0.00129328
0.00129328
0.00126574
0.00119811
0.00106716
0.000863988
0.00045739
0.000338816
0.000293024
0.000633673
0.00069909
0.000776081
0.00085888
0.00094088
0.00102064
0.00108761
0.00115062
0.00119722
0.00122657
0.00125728
0.00125728
0.00124958
0.00119955
0.00110065
0.000958938
0.000639268
0.000321198
0.000177387
0.000683996
0.00075775
0.000841932
0.000929891
0.00101394
0.00108566
0.00113567
0.00117245
0.00120147
0.00121187
0.00124095
0.00126631
0.00126631
0.00124791
0.0011475
0.000958309
0.00062334
0.000316998
0.000176765
0.000724478
0.000807062
0.000901573
0.00100233
0.00109222
0.00115775
0.00119367
0.00121025
0.00122267
0.00122267
0.00123217
0.00127034
0.00127103
0.00127103
0.00120123
0.00105522
0.000696312
0.000237145
0.000133751
0.000768019
0.000865756
0.000978874
0.001093
0.00118125
0.00123981
0.00126662
0.001272
0.00128062
0.00128525
0.00130111
0.00134035
0.00137328
0.00137328
0.00125439
0.00102364
0.000618847
0.00024407
0.000194727
0.000806744
0.000926303
0.00105778
0.00116858
0.00124181
0.00129275
0.0013212
0.00133727
0.00136349
0.00139142
0.00141485
0.00145674
0.001515
0.001515
0.00148294
0.00124324
0.000618873
0.000239885
0.000230507
0.000852912
0.00100145
0.00113654
0.00122383
0.00127746
0.00132637
0.00137344
0.00142701
0.00149535
0.00156754
0.00162261
0.00168544
0.00176997
0.00188576
0.00165208
0.00129489
0.000631242
0.000465379
0.000329791
0.000898853
0.00105681
0.00115199
0.00118982
0.0012155
0.00126203
0.0013609
0.00150221
0.00164569
0.00175233
0.00182784
0.00196097
0.00222219
0.00225635
0.00225635
0.00145584
0.000661906
0.000618971
0.000355955
0.000929598
0.0010518
0.00107527
0.00107527
0.00105943
0.00114857
0.00133199
0.00156245
0.00183138
0.00202573
0.0021495
0.0023568
0.00256603
0.00256603
0.00190363
0.000808151
0.000663938
0.000663938
0.000438468
0.000934069
0.000975458
0.000975458
0.000922964
0.000844529
0.000909372
0.00126573
0.00163306
0.00197312
0.00220473
0.002342
0.00257013
0.00260684
0.00260684
0.00193525
0.000862658
0.00056603
0.000505679
0.00035766
0.000874219
0.000874219
0.000844724
0.000756721
0.00062796
0.00051118
0.00118475
0.00179112
0.00210741
0.0023193
0.0024581
0.00264185
0.00264185
0.0026054
0.00174328
0.0007862
0.00064889
0.000511259
0.000290241
0.00081298
0.00081298
0.000771122
0.000762814
0.000730688
0.000852427
0.001469
0.00199329
0.00221626
0.0023642
0.00246529
0.0025825
0.0025825
0.00250114
0.00167657
0.000794879
0.000596402
0.00045162
0.000178323
0.000755486
0.000804391
0.000913394
0.00108784
0.00125249
0.00146226
0.00183671
0.00209283
0.00222669
0.00231557
0.00239114
0.00242012
0.00242012
0.0022839
0.0014568
0.000818196
0.00075485
0.000419838
0.000109324
0.000813091
0.00101312
0.00127464
0.00155247
0.00180094
0.00199626
0.00215845
0.00227688
0.00232526
0.00232526
0.00231251
0.00228463
0.00218997
0.00194931
0.00139691
0.000858941
0.00062812
0.000412668
0.000165003
0.000817117
0.0011385
0.0015065
0.0018621
0.00216549
0.00237276
0.00246068
0.00246076
0.00246076
0.00236733
0.00221685
0.0020624
0.00188524
0.0014543
0.000928222
0.00077613
0.000611139
0.00036772
0.000239786
0.00105954
0.00142482
0.00178558
0.00210259
0.00234779
0.00250263
0.00253359
0.00253359
0.00243139
0.00221176
0.00197312
0.00177599
0.00152776
0.000993244
0.000621641
0.000671216
0.000453061
0.000318688
0.000350994
0.0011326
0.00151779
0.00183658
0.00208919
0.00227488
0.00238464
0.00238464
0.0023714
0.00216812
0.00183721
0.00152977
0.00128142
0.000974163
0.000517457
0.00038648
0.00044239
0.000473978
0.00039127
0.000462997
0.00127723
0.00163
0.00189518
0.0020783
0.0021756
0.0021756
0.00216226
0.0019646
0.00160215
0.00125645
0.00105865
0.000916597
0.000757353
0.000395286
0.00022715
0.000326391
0.000473978
0.000507838
0.000630117
0.00138575
0.00164184
0.00174728
0.00174728
0.00174942
0.0017094
0.00156413
0.00127232
0.000982442
0.000791798
0.000716132
0.000648434
0.000468472
0.00020899
0.000261117
0.00032798
0.00043426
0.000634699
0.000634699
)
;

boundaryField
{
    leftWall
    {
        type            calculated;
        value           uniform 0;
    }
    rightWall
    {
        type            calculated;
        value           uniform 0;
    }
    lowerWall
    {
        type            calculated;
        value           uniform 0;
    }
    atmosphere
    {
        type            calculated;
        value           uniform 0;
    }
    defaultFaces
    {
        type            empty;
    }
}


// ************************************************************************* //
