/*--------------------------------*- C++ -*----------------------------------*\
| =========                 |                                                 |
| \\      /  F ield         | OpenFOAM: The Open Source CFD Toolbox           |
|  \\    /   O peration     | Version:  2012                                  |
|   \\  /    A nd           | Website:  www.openfoam.com                      |
|    \\/     M anipulation  |                                                 |
\*---------------------------------------------------------------------------*/
FoamFile
{
    version     2.0;
    format      ascii;
    class       surfaceScalarField;
    location    "0.49";
    object      phi;
}
// * * * * * * * * * * * * * * * * * * * * * * * * * * * * * * * * * * * * * //

dimensions      [0 3 -1 0 0 0 0];
oriented        oriented;


internalField   nonuniform List<scalar> 
4432
(
2.47178e-06
-2.47178e-06
5.01394e-06
-2.54217e-06
7.35001e-06
-2.33607e-06
9.56751e-06
-2.21749e-06
1.17872e-05
-2.21968e-06
1.41073e-05
-2.3201e-06
1.6047e-05
-1.93973e-06
1.77676e-05
-1.72063e-06
1.9375e-05
-1.60731e-06
2.05973e-05
-1.22234e-06
2.1572e-05
-9.74674e-07
2.23021e-05
-7.30146e-07
2.28483e-05
-5.46197e-07
2.29311e-05
-8.27722e-08
2.24919e-05
4.39229e-07
2.16925e-05
7.99385e-07
2.04837e-05
1.20881e-06
1.88607e-05
1.62306e-06
1.67053e-05
2.15537e-06
1.37742e-05
2.93115e-06
1.0258e-05
3.51614e-06
5.94544e-06
4.31261e-06
5.94557e-06
2.46052e-06
-4.93229e-06
5.01038e-06
-5.09202e-06
7.37301e-06
-4.6987e-06
9.60898e-06
-4.45346e-06
1.18302e-05
-4.44092e-06
1.41319e-05
-4.62175e-06
1.60663e-05
-3.87415e-06
1.78114e-05
-3.46573e-06
1.94389e-05
-3.23482e-06
2.06212e-05
-2.40463e-06
2.16479e-05
-2.00134e-06
2.24174e-05
-1.49967e-06
2.2869e-05
-9.97824e-07
2.2949e-05
-1.62791e-07
2.2557e-05
8.3127e-07
2.17918e-05
1.56463e-06
2.05906e-05
2.41e-06
1.88793e-05
3.33432e-06
1.65513e-05
4.48338e-06
1.33619e-05
6.12063e-06
9.40822e-06
7.46982e-06
4.43542e-06
9.28543e-06
1.03811e-05
2.45059e-06
-7.38288e-06
5.01795e-06
-7.65938e-06
7.41488e-06
-7.09562e-06
9.67983e-06
-6.71841e-06
1.19072e-05
-6.66827e-06
1.41751e-05
-6.88966e-06
1.61046e-05
-5.80365e-06
1.79096e-05
-5.27072e-06
1.95467e-05
-4.87192e-06
2.07711e-05
-3.62903e-06
2.18513e-05
-3.08159e-06
2.2646e-05
-2.2943e-06
2.30446e-05
-1.39641e-06
2.31169e-05
-2.3517e-07
2.28517e-05
1.09651e-06
2.21885e-05
2.2278e-06
2.1078e-05
3.52055e-06
1.95194e-05
4.89295e-06
1.74115e-05
6.59126e-06
1.44985e-05
9.03368e-06
1.08129e-05
1.11554e-05
5.64632e-06
1.4452e-05
1.60276e-05
2.44918e-06
-9.83206e-06
5.04743e-06
-1.02576e-05
7.47648e-06
-9.52467e-06
9.77767e-06
-9.0196e-06
1.20218e-05
-8.91235e-06
1.42521e-05
-9.11999e-06
1.61776e-05
-7.72915e-06
1.80466e-05
-7.13969e-06
1.96872e-05
-6.51258e-06
2.09427e-05
-4.8845e-06
2.20449e-05
-4.18379e-06
2.27861e-05
-3.0355e-06
2.31628e-05
-1.77309e-06
2.32392e-05
-3.11602e-07
2.3e-05
1.33571e-06
2.23488e-05
2.87902e-06
2.12066e-05
4.66279e-06
1.95268e-05
6.57279e-06
1.73177e-05
8.80038e-06
1.43341e-05
1.20172e-05
1.06506e-05
1.48389e-05
5.3721e-06
1.97305e-05
2.13997e-05
2.46261e-06
-1.22947e-05
5.07828e-06
-1.28733e-05
7.53622e-06
-1.19826e-05
9.88451e-06
-1.13679e-05
1.21589e-05
-1.11867e-05
1.43596e-05
-1.13207e-05
1.63045e-05
-9.67405e-06
1.82568e-05
-9.092e-06
1.99106e-05
-8.16637e-06
2.12297e-05
-6.20363e-06
2.23896e-05
-5.3436e-06
2.31613e-05
-3.80728e-06
2.35938e-05
-2.2055e-06
2.37142e-05
-4.32042e-07
2.35076e-05
1.54228e-06
2.29417e-05
3.44496e-06
2.19574e-05
5.64714e-06
2.05076e-05
8.02252e-06
1.85427e-05
1.07653e-05
1.5832e-05
1.4728e-05
1.24008e-05
1.82702e-05
6.99942e-06
2.51319e-05
2.83992e-05
2.50479e-06
-1.47995e-05
5.10443e-06
-1.54729e-05
7.60687e-06
-1.44851e-05
1.00148e-05
-1.37758e-05
1.23304e-05
-1.35023e-05
1.45163e-05
-1.35066e-05
1.65007e-05
-1.16585e-05
1.85086e-05
-1.10999e-05
2.01373e-05
-9.79511e-06
2.14817e-05
-7.54799e-06
2.26873e-05
-6.54921e-06
2.34141e-05
-4.53408e-06
2.38195e-05
-2.61095e-06
2.39354e-05
-5.47925e-07
2.37321e-05
1.74558e-06
2.31911e-05
3.986e-06
2.223e-05
6.60821e-06
2.07466e-05
9.50594e-06
1.87533e-05
1.27586e-05
1.5947e-05
1.75343e-05
1.25101e-05
2.17071e-05
6.92238e-06
3.07196e-05
3.53216e-05
2.56928e-06
-1.73687e-05
5.12352e-06
-1.80272e-05
7.66911e-06
-1.70306e-05
1.01482e-05
-1.62549e-05
1.25143e-05
-1.58685e-05
1.47074e-05
-1.56997e-05
1.67618e-05
-1.37129e-05
1.88184e-05
-1.31565e-05
2.04469e-05
-1.14236e-05
2.19248e-05
-9.02582e-06
2.32085e-05
-7.83288e-06
2.40164e-05
-5.34197e-06
2.45146e-05
-3.10917e-06
2.46735e-05
-7.06855e-07
2.44634e-05
1.95573e-06
2.39412e-05
4.50821e-06
2.31135e-05
7.43584e-06
2.19053e-05
1.07142e-05
2.02971e-05
1.43668e-05
1.7968e-05
1.98635e-05
1.50199e-05
2.46552e-05
9.31512e-06
3.64244e-05
4.46367e-05
2.64794e-06
-2.00167e-05
5.17955e-06
-2.05588e-05
7.75785e-06
-1.96089e-05
1.03185e-05
-1.88155e-05
1.27374e-05
-1.82873e-05
1.49485e-05
-1.79108e-05
1.70767e-05
-1.58411e-05
1.91303e-05
-1.521e-05
2.07492e-05
-1.30425e-05
2.23552e-05
-1.06319e-05
2.3641e-05
-9.11868e-06
2.44118e-05
-6.11275e-06
2.49116e-05
-3.60895e-06
2.50215e-05
-8.16774e-07
2.48177e-05
2.15961e-06
2.43451e-05
4.98074e-06
2.36311e-05
8.1499e-06
2.24914e-05
1.18538e-05
2.09549e-05
1.59033e-05
1.85675e-05
2.22509e-05
1.56843e-05
2.75384e-05
9.99953e-06
4.21092e-05
5.46363e-05
-7.93312e-06
9.20032e-06
-1.69934e-05
1.03274e-05
-1.77425e-05
2.01633e-06
-1.37563e-05
-2.71925e-06
-1.33866e-05
8.97208e-07
-3.65526e-05
2.44293e-05
-9.16191e-05
5.6324e-05
-0.000164421
7.40835e-05
-0.000214404
5.12811e-05
-0.000230952
1.82233e-05
-0.000228843
-6.79807e-07
-0.000221334
-6.55761e-06
-0.000203256
-1.72543e-05
-0.000179061
-2.33635e-05
-0.000160409
-1.78413e-05
-0.00015069
-8.98027e-06
-0.000142969
-6.89507e-06
-9.87861e-05
-4.31611e-05
-9.82412e-05
-8.71231e-06
1.91798e-05
-1.85881e-05
2.14702e-05
-1.92341e-05
3.92953e-06
-1.2732e-05
-7.95433e-06
-1.08539e-05
2.85935e-07
-3.10279e-05
4.58675e-05
-7.29277e-05
9.94832e-05
-0.000130976
0.000133421
-0.000180427
0.000102144
-0.000207772
4.71084e-05
-0.000207889
9.46715e-07
-0.000188894
-2.42192e-05
-0.000166352
-3.84559e-05
-0.000156171
-3.21973e-05
-0.000150589
-2.17529e-05
-0.000151188
-6.90086e-06
-0.000141965
-1.48362e-05
-9.08928e-05
-9.27813e-05
-0.000188437
-9.88307e-06
3.033e-05
-2.0895e-05
3.3749e-05
-2.17013e-05
6.00301e-06
-9.88374e-06
-1.8505e-05
-1.82669e-06
-6.50421e-06
-1.69616e-05
6.22679e-05
-5.71959e-05
0.000140978
-0.000121875
0.00019939
-0.000184857
0.000166448
-0.000234044
9.75678e-05
-0.000260776
2.89246e-05
-0.00028073
-3.04241e-06
-0.000300239
-1.76945e-05
-0.000305042
-2.59528e-05
-0.000279878
-4.53258e-05
-0.000232892
-5.21726e-05
-0.000156382
-8.94558e-05
-6.43973e-05
-0.000183257
-0.000252338
-1.11745e-05
4.27715e-05
-2.35609e-05
4.74021e-05
-2.4697e-05
8.40595e-06
-6.38764e-06
-3.55483e-05
9.42422e-06
-2.10494e-05
2.38342e-06
7.05751e-05
-2.72191e-05
0.000171844
-8.59662e-05
0.000259419
-0.000145436
0.000227199
-0.000186482
0.000139857
-0.000208383
5.20928e-05
-0.00023828
2.81111e-05
-0.000269657
1.49386e-05
-0.000285592
-8.691e-06
-0.000269037
-6.05186e-05
-0.000200415
-0.000119442
-0.000114825
-0.0001733
-3.99315e-05
-0.000256807
-0.000291901
-1.19071e-05
5.59455e-05
-2.8933e-05
6.56942e-05
-2.84429e-05
9.18076e-06
4.0433e-07
-6.31358e-05
2.45404e-05
-4.39215e-05
2.48366e-05
7.15448e-05
8.48841e-06
0.000189455
-3.81033e-05
0.000307288
-9.06209e-05
0.000281013
-0.000120872
0.000171367
-0.000129273
6.17578e-05
-0.000136402
3.65034e-05
-0.000140527
2.03218e-05
-0.000139305
-8.64626e-06
-0.000137238
-6.13404e-05
-0.000125373
-0.000130061
-8.90259e-05
-0.000208109
-3.2235e-05
-0.000312041
-0.000323796
-1.22517e-05
6.94638e-05
-2.32974e-05
7.8005e-05
-1.08129e-05
-2.03864e-06
1.72483e-05
-8.99287e-05
3.81506e-05
-6.35671e-05
4.70904e-05
6.3866e-05
4.46672e-05
0.00019314
2.65147e-05
0.000326709
-6.95682e-06
0.000315767
-3.90946e-05
0.000204787
-6.29355e-05
8.68688e-05
-8.24062e-05
5.72388e-05
-8.45508e-05
2.37316e-05
-7.00733e-05
-2.18591e-05
-5.15048e-05
-7.86449e-05
-5.75182e-05
-0.000122779
-5.8174e-05
-0.000206064
-2.32688e-05
-0.000345234
-0.000346659
-1.00328e-05
8.07629e-05
-1.64811e-06
7.08846e-05
2.55539e-05
-2.79651e-05
3.3211e-05
-9.62452e-05
5.12171e-05
-8.02536e-05
6.95262e-05
4.68242e-05
6.67224e-05
0.000197208
6.62436e-05
0.000328442
5.9977e-05
0.000323323
3.55607e-05
0.00023048
1.78541e-06
0.000121914
-2.52361e-05
8.55302e-05
-3.41376e-05
3.38985e-05
-2.45476e-05
-3.01832e-05
-6.73778e-06
-9.51864e-05
-5.6725e-06
-0.000122577
-1.9639e-05
-0.000190829
-1.44774e-05
-0.000348745
-0.000360823
4.66027e-06
7.73664e-05
2.59482e-05
5.08411e-05
4.26324e-05
-4.29691e-05
3.44905e-05
-8.64058e-05
4.66919e-05
-9.08053e-05
8.06051e-05
1.43092e-05
9.00138e-05
0.000189089
9.27674e-05
0.000326953
0.000102888
0.00031446
9.1871e-05
0.000242783
6.08908e-05
0.00015417
3.40573e-05
0.000113633
1.37082e-05
5.55157e-05
9.08294e-06
-2.42916e-05
1.49063e-05
-9.97431e-05
2.1972e-05
-0.000128377
9.89483e-06
-0.000177479
-7.25412e-06
-0.000329924
-0.000367361
5.82533e-06
-2.58418e-05
1.12229e-05
-2.59562e-05
1.68003e-05
-2.51862e-05
2.24412e-05
-2.44562e-05
2.77538e-05
-2.35997e-05
3.25897e-05
-2.27465e-05
3.74082e-05
-2.06595e-05
4.18827e-05
-1.96844e-05
4.56259e-05
-1.67855e-05
4.95748e-05
-1.45807e-05
5.24718e-05
-1.20155e-05
5.45991e-05
-8.24003e-06
5.59656e-05
-4.9755e-06
5.64311e-05
-1.28226e-06
5.59521e-05
2.63863e-06
5.49477e-05
5.98517e-06
5.33984e-05
9.69921e-06
5.25942e-05
1.26581e-05
5.18058e-05
1.66917e-05
5.28371e-05
2.12196e-05
5.41677e-05
2.62079e-05
5.98518e-05
3.64252e-05
5.10579e-05
6.34306e-05
6.15127e-06
-3.20462e-05
1.15926e-05
-3.14497e-05
1.73725e-05
-3.10172e-05
2.33274e-05
-3.04603e-05
2.88689e-05
-2.91874e-05
3.39489e-05
-2.78691e-05
3.91256e-05
-2.58743e-05
4.37517e-05
-2.4343e-05
4.78772e-05
-2.09366e-05
5.18131e-05
-1.85351e-05
5.44175e-05
-1.46309e-05
5.67058e-05
-1.05328e-05
5.78801e-05
-6.14977e-06
5.81152e-05
-1.5159e-06
5.78525e-05
2.90194e-06
5.72706e-05
6.56705e-06
5.63726e-05
1.05972e-05
5.51992e-05
1.38315e-05
5.3405e-05
1.84859e-05
5.38147e-05
2.08099e-05
5.55793e-05
2.44433e-05
6.26073e-05
2.93972e-05
3.98625e-05
7.38031e-05
5.06309e-06
-3.70986e-05
9.12782e-06
-3.55037e-05
1.41107e-05
-3.59893e-05
1.94026e-05
-3.57416e-05
2.4768e-05
-3.45441e-05
3.0184e-05
-3.32696e-05
3.58461e-05
-3.15235e-05
4.08648e-05
-2.93515e-05
4.58529e-05
-2.59221e-05
5.04447e-05
-2.31297e-05
5.44144e-05
-1.86124e-05
5.86798e-05
-1.48174e-05
6.11507e-05
-8.64681e-06
6.30341e-05
-3.43272e-06
6.38672e-05
2.0322e-06
6.36685e-05
6.74067e-06
6.25562e-05
1.17076e-05
6.01949e-05
1.78106e-05
5.8355e-05
2.03259e-05
5.99553e-05
1.92096e-05
6.30328e-05
2.13658e-05
6.93747e-05
2.30554e-05
2.92219e-05
8.00154e-05
1.47666e-06
-3.8562e-05
3.10543e-06
-3.71191e-05
4.58295e-06
-3.74533e-05
6.08697e-06
-3.72321e-05
7.42568e-06
-3.58694e-05
8.85912e-06
-3.46893e-05
9.92436e-06
-3.25749e-05
1.10674e-05
-3.04806e-05
1.14703e-05
-2.6311e-05
1.2127e-05
-2.37724e-05
1.00846e-05
-1.65557e-05
8.0469e-06
-1.27654e-05
-3.88827e-06
3.30298e-06
-6.93142e-06
-3.52433e-07
2.02983e-05
-2.51674e-05
4.43618e-05
-1.72741e-05
5.2548e-05
3.56765e-06
5.39436e-05
1.64224e-05
5.71329e-05
1.71116e-05
6.14249e-05
1.49157e-05
6.49636e-05
1.94926e-05
6.90511e-05
1.8968e-05
2.15015e-05
7.67724e-05
9.92581e-09
-3.85588e-05
8.43806e-07
-3.79399e-05
8.95298e-07
-3.74917e-05
8.33085e-07
-3.71568e-05
8.14279e-07
-3.58376e-05
7.84591e-07
-3.46462e-05
5.1081e-07
-3.22876e-05
6.31501e-07
-3.05875e-05
8.67296e-07
-2.65329e-05
2.00042e-06
-2.48914e-05
4.00034e-06
-1.85413e-05
7.72319e-06
-1.64736e-05
1.21195e-05
-1.07835e-06
1.83859e-05
-6.60357e-06
2.27361e-05
-2.95022e-05
2.73851e-05
-2.19074e-05
3.34944e-05
-2.51781e-06
3.7792e-05
1.21765e-05
4.57757e-05
9.20347e-06
5.39304e-05
6.82319e-06
6.06195e-05
1.28123e-05
6.88157e-05
1.0735e-05
1.26815e-05
7.76303e-05
-1.78742e-07
-3.83669e-05
-9.28584e-08
-3.80126e-05
-2.44918e-07
-3.73264e-05
-4.75787e-07
-3.69126e-05
-8.32285e-07
-3.54678e-05
-1.20543e-06
-3.42597e-05
-1.64873e-06
-3.18307e-05
-1.78207e-06
-3.04405e-05
-1.30554e-06
-2.69955e-05
-1.50734e-07
-2.60321e-05
4.11326e-06
-2.27909e-05
1.07138e-05
-2.30595e-05
2.72905e-05
-1.76401e-05
3.89947e-05
-1.82927e-05
2.87679e-05
-1.926e-05
2.03678e-05
-1.34915e-05
2.52511e-05
-7.38494e-06
3.38145e-05
3.63053e-06
3.82023e-05
4.83762e-06
3.91571e-05
5.89884e-06
4.15863e-05
1.04348e-05
5.13351e-05
1.05096e-06
-1.29794e-06
6.53567e-05
1.89987e-07
-3.85438e-05
4.52777e-07
-3.82623e-05
6.15491e-07
-3.7476e-05
7.5758e-07
-3.70415e-05
9.3659e-07
-3.56336e-05
1.31393e-06
-3.46236e-05
1.7304e-06
-3.22336e-05
2.44806e-06
-3.11444e-05
3.40702e-06
-2.79405e-05
4.3748e-06
-2.69858e-05
5.66318e-06
-2.40649e-05
6.94796e-06
-2.43297e-05
9.48534e-06
-2.01626e-05
1.20836e-05
-2.08757e-05
1.70383e-05
-2.41991e-05
2.37407e-05
-2.0178e-05
3.15125e-05
-1.51405e-05
4.22244e-05
-7.0644e-06
5.09917e-05
-3.91221e-06
5.45374e-05
2.37142e-06
5.37083e-05
1.12835e-05
4.69758e-05
7.80408e-06
1.43379e-06
4.42647e-05
3.03384e-07
-3.88342e-05
5.62039e-07
-3.85079e-05
1.00483e-06
-3.79058e-05
1.44153e-06
-3.74651e-05
1.97357e-06
-3.61524e-05
2.70225e-06
-3.5339e-05
3.64001e-06
-3.31579e-05
4.72445e-06
-3.22152e-05
6.34441e-06
-2.95467e-05
7.77569e-06
-2.8403e-05
9.96989e-06
-2.62449e-05
1.19223e-05
-2.62676e-05
1.54546e-05
-2.36802e-05
1.77024e-05
-2.31084e-05
1.55854e-05
-2.20667e-05
1.49218e-05
-1.94986e-05
1.7094e-05
-1.72964e-05
2.29307e-05
-1.28844e-05
3.23988e-05
-1.33631e-05
4.41539e-05
-9.36581e-06
5.68761e-05
-1.42021e-06
6.29153e-05
1.78442e-06
3.86635e-06
6.05031e-05
7.0393e-07
-3.95253e-05
1.47305e-06
-3.92641e-05
2.2959e-06
-3.87157e-05
3.12627e-06
-3.82825e-05
3.95633e-06
-3.69694e-05
4.91039e-06
-3.62798e-05
5.94903e-06
-3.41832e-05
6.98835e-06
-3.32411e-05
8.18758e-06
-3.07322e-05
9.08815e-06
-2.92897e-05
9.76514e-06
-2.69077e-05
9.91582e-06
-2.64039e-05
1.05515e-05
-2.43011e-05
1.11161e-05
-2.36581e-05
1.24412e-05
-2.33764e-05
1.40744e-05
-2.11161e-05
1.57362e-05
-1.8942e-05
1.83822e-05
-1.55137e-05
1.94623e-05
-1.4426e-05
2.25069e-05
-1.23926e-05
3.12954e-05
-1.01903e-05
4.45535e-05
-1.14547e-05
-8.08416e-06
5.65237e-05
9.14655e-07
-4.04272e-05
1.89954e-06
-4.02362e-05
2.87421e-06
-3.96775e-05
3.88253e-06
-3.92779e-05
4.91983e-06
-3.79937e-05
6.04405e-06
-3.7391e-05
7.4026e-06
-3.55285e-05
8.7721e-06
-3.45972e-05
1.05634e-05
-3.251e-05
1.23051e-05
-3.10176e-05
1.41144e-05
-2.87031e-05
1.54206e-05
-2.76958e-05
1.6716e-05
-2.5582e-05
1.76158e-05
-2.4543e-05
1.72249e-05
-2.29704e-05
1.71928e-05
-2.10683e-05
1.74739e-05
-1.92072e-05
1.83879e-05
-1.64113e-05
1.92419e-05
-1.52631e-05
2.03217e-05
-1.34548e-05
2.08448e-05
-1.06953e-05
2.06201e-05
-1.12112e-05
-1.05177e-05
2.30733e-05
1.21997e-06
-4.16346e-05
2.46345e-06
-4.14671e-05
3.70549e-06
-4.09069e-05
4.96204e-06
-4.05218e-05
6.25212e-06
-3.9271e-05
7.55868e-06
-3.86846e-05
8.98974e-06
-3.69465e-05
1.0337e-05
-3.59313e-05
1.18937e-05
-3.40533e-05
1.34513e-05
-3.25616e-05
1.51198e-05
-3.03577e-05
1.64751e-05
-2.90372e-05
1.7819e-05
-2.69116e-05
1.88361e-05
-2.55455e-05
1.97294e-05
-2.38487e-05
2.05586e-05
-2.18822e-05
2.09731e-05
-1.96059e-05
2.14488e-05
-1.68708e-05
2.06581e-05
-1.44557e-05
1.95989e-05
-1.23783e-05
1.85443e-05
-9.62275e-06
1.63724e-05
-9.02082e-06
-6.7671e-06
1.26408e-05
1.38773e-06
-4.30099e-05
2.77818e-06
-4.28452e-05
4.1882e-06
-4.23045e-05
5.62596e-06
-4.1947e-05
7.14647e-06
-4.07789e-05
8.68328e-06
-4.02087e-05
1.0384e-05
-3.86344e-05
1.20507e-05
-3.7585e-05
1.39103e-05
-3.58996e-05
1.58261e-05
-3.4464e-05
1.79299e-05
-3.2448e-05
1.98511e-05
-3.09445e-05
2.16662e-05
-2.87125e-05
2.31022e-05
-2.6967e-05
2.39704e-05
-2.47021e-05
2.464e-05
-2.25367e-05
2.50203e-05
-1.99706e-05
2.53801e-05
-1.72146e-05
2.54712e-05
-1.45304e-05
2.50794e-05
-1.19694e-05
2.3751e-05
-8.27686e-06
2.10645e-05
-6.31613e-06
-3.4015e-06
1.77176e-05
1.68922e-06
-4.46869e-05
3.39067e-06
-4.45344e-05
5.09709e-06
-4.39986e-05
6.80926e-06
-4.36468e-05
8.54798e-06
-4.25052e-05
1.0241e-05
-4.18892e-05
1.20063e-05
-4.0387e-05
1.36619e-05
-3.92278e-05
1.53801e-05
-3.76049e-05
1.7007e-05
-3.60777e-05
1.87053e-05
-3.41329e-05
2.02301e-05
-3.24557e-05
2.17998e-05
-3.02684e-05
2.31309e-05
-2.82839e-05
2.43228e-05
-2.58795e-05
2.52661e-05
-2.34651e-05
2.58686e-05
-2.05578e-05
2.62535e-05
-1.75838e-05
2.60248e-05
-1.42855e-05
2.52125e-05
-1.11404e-05
2.37015e-05
-6.74875e-06
2.10913e-05
-3.68816e-06
1.07318e-06
1.66349e-05
1.84988e-06
-4.65248e-05
3.71788e-06
-4.63904e-05
5.62116e-06
-4.58899e-05
7.53281e-06
-4.55464e-05
9.50215e-06
-4.44624e-05
1.14368e-05
-4.38116e-05
1.34749e-05
-4.24127e-05
1.54626e-05
-4.1203e-05
1.75096e-05
-3.96392e-05
1.94853e-05
-3.80405e-05
2.14628e-05
-3.60973e-05
2.32915e-05
-3.4271e-05
2.50165e-05
-3.19798e-05
2.65339e-05
-2.97874e-05
2.78184e-05
-2.71498e-05
2.88299e-05
-2.4462e-05
2.96422e-05
-2.13551e-05
3.01958e-05
-1.81221e-05
3.04647e-05
-1.45386e-05
3.02461e-05
-1.09056e-05
2.9661e-05
-6.14688e-06
2.83466e-05
-2.35647e-06
3.24118e-06
2.61965e-05
2.10015e-06
-4.86133e-05
4.2094e-06
-4.84879e-05
6.30469e-06
-4.79734e-05
8.39014e-06
-4.762e-05
1.04953e-05
-4.65556e-05
1.25391e-05
-4.58434e-05
1.46359e-05
-4.44974e-05
1.66688e-05
-4.32236e-05
1.87446e-05
-4.17025e-05
2.07447e-05
-4.0028e-05
2.27863e-05
-3.81261e-05
2.4668e-05
-3.61397e-05
2.65213e-05
-3.38198e-05
2.81735e-05
-3.14259e-05
2.97198e-05
-2.86822e-05
3.10255e-05
-2.57534e-05
3.21174e-05
-2.24324e-05
3.28701e-05
-1.88598e-05
3.32126e-05
-1.48657e-05
3.29584e-05
-1.06356e-05
3.22183e-05
-5.39042e-06
3.05776e-05
-6.9895e-07
6.18895e-06
2.76471e-05
2.31233e-06
-5.09141e-05
4.63228e-06
-5.07964e-05
6.93658e-06
-5.02662e-05
9.23107e-06
-4.99029e-05
1.1562e-05
-4.88749e-05
1.38504e-05
-4.812e-05
1.61958e-05
-4.6831e-05
1.84983e-05
-4.55142e-05
2.08183e-05
-4.40104e-05
2.30649e-05
-4.22622e-05
2.53024e-05
-4.0351e-05
2.74591e-05
-3.82836e-05
2.95562e-05
-3.59039e-05
3.15146e-05
-3.3371e-05
3.33595e-05
-3.05135e-05
3.4991e-05
-2.73711e-05
3.65237e-05
-2.39508e-05
3.77489e-05
-2.00704e-05
3.87964e-05
-1.58982e-05
3.93476e-05
-1.11714e-05
3.9685e-05
-5.71194e-06
3.93186e-05
-3.16266e-07
7.34503e-06
3.81794e-05
2.50916e-06
-5.34121e-05
5.01843e-06
-5.32944e-05
7.5205e-06
-5.2757e-05
9.99724e-06
-5.23684e-05
1.25013e-05
-5.13676e-05
1.49532e-05
-5.05605e-05
1.74474e-05
-4.93136e-05
1.98999e-05
-4.79549e-05
2.23795e-05
-4.64781e-05
2.47921e-05
-4.46629e-05
2.72169e-05
-4.27635e-05
2.95426e-05
-4.05969e-05
3.18458e-05
-3.81945e-05
3.40284e-05
-3.55407e-05
3.61355e-05
-3.26074e-05
3.80755e-05
-2.92976e-05
3.98872e-05
-2.57487e-05
4.14182e-05
-2.15872e-05
4.2772e-05
-1.72374e-05
4.36235e-05
-1.2008e-05
4.43258e-05
-6.39895e-06
4.42573e-05
-2.31911e-07
7.91127e-06
4.37073e-05
2.73713e-06
-5.61384e-05
5.47685e-06
-5.60233e-05
8.19623e-06
-5.54655e-05
1.08853e-05
-5.50465e-05
1.35926e-05
-5.40639e-05
1.62506e-05
-5.32074e-05
1.89301e-05
-5.19818e-05
2.1564e-05
-5.05774e-05
2.42192e-05
-4.91218e-05
2.68483e-05
-4.72803e-05
2.94962e-05
-4.53996e-05
3.21026e-05
-4.31913e-05
3.46815e-05
-4.07611e-05
3.72072e-05
-3.80539e-05
3.96822e-05
-3.50696e-05
4.20643e-05
-3.16666e-05
4.43955e-05
-2.80666e-05
4.65599e-05
-2.37379e-05
4.8672e-05
-1.93354e-05
5.04708e-05
-1.37924e-05
5.22936e-05
-8.20685e-06
5.34868e-05
-1.40994e-06
6.8173e-06
5.45965e-05
2.95814e-06
-5.9086e-05
5.92048e-06
-5.8975e-05
8.85854e-06
-5.8393e-05
1.17634e-05
-5.79407e-05
1.46883e-05
-5.6978e-05
1.75713e-05
-5.60796e-05
2.04789e-05
-5.48785e-05
2.33463e-05
-5.34338e-05
2.62313e-05
-5.19956e-05
2.90746e-05
-5.01123e-05
3.19428e-05
-4.82563e-05
3.47608e-05
-4.59975e-05
3.75775e-05
-4.3566e-05
4.03613e-05
-4.08256e-05
4.3108e-05
-3.78038e-05
4.58002e-05
-3.43462e-05
4.84302e-05
-3.06836e-05
5.09677e-05
-2.62621e-05
5.34451e-05
-2.17993e-05
5.57413e-05
-1.60746e-05
5.80796e-05
-1.05309e-05
5.99728e-05
-3.28849e-06
4.73961e-06
6.20655e-05
3.09018e-06
-6.2166e-05
6.18484e-06
-6.20595e-05
9.27851e-06
-6.14764e-05
1.23465e-05
-6.09984e-05
1.54525e-05
-6.00736e-05
1.85304e-05
-5.9147e-05
2.16344e-05
-5.7972e-05
2.47261e-05
-5.65148e-05
2.78517e-05
-5.51104e-05
3.0964e-05
-5.32136e-05
3.41146e-05
-5.13959e-05
3.72476e-05
-4.91192e-05
4.03933e-05
-4.67001e-05
4.35494e-05
-4.39699e-05
4.66977e-05
-4.09401e-05
4.98512e-05
-3.74876e-05
5.30054e-05
-3.38253e-05
5.61824e-05
-2.94263e-05
5.93915e-05
-2.49953e-05
6.2611e-05
-1.92807e-05
6.59713e-05
-1.38775e-05
6.91495e-05
-6.4527e-06
1.20354e-06
7.27e-05
3.28174e-06
-6.54378e-05
6.56481e-06
-6.53327e-05
9.86016e-06
-6.47618e-05
1.31386e-05
-6.42669e-05
1.64636e-05
-6.33886e-05
1.97758e-05
-6.24491e-05
2.31209e-05
-6.13069e-05
2.6462e-05
-5.98457e-05
2.98449e-05
-5.84828e-05
3.32152e-05
-5.65734e-05
3.66468e-05
-5.48167e-05
4.00637e-05
-5.25252e-05
4.35167e-05
-5.0142e-05
4.69909e-05
-4.74328e-05
5.04585e-05
-4.43963e-05
5.39407e-05
-4.09579e-05
5.74077e-05
-3.72803e-05
6.09277e-05
-3.29341e-05
6.4463e-05
-2.85181e-05
6.81312e-05
-2.2936e-05
7.19853e-05
-1.77184e-05
7.58752e-05
-1.03291e-05
-3.29219e-06
8.03847e-05
3.27406e-06
-6.87024e-05
6.53973e-06
-6.85888e-05
9.85942e-06
-6.80719e-05
1.31908e-05
-6.75887e-05
1.65998e-05
-6.6788e-05
2.00518e-05
-6.58913e-05
2.35892e-05
-6.48346e-05
2.71792e-05
-6.34257e-05
3.08421e-05
-6.21355e-05
3.45342e-05
-6.02554e-05
3.83148e-05
-5.8587e-05
4.21131e-05
-5.63131e-05
4.59887e-05
-5.40069e-05
4.9918e-05
-5.13512e-05
5.38935e-05
-4.83608e-05
5.79278e-05
-4.4981e-05
6.20098e-05
-4.13508e-05
6.62053e-05
-3.71179e-05
7.04864e-05
-3.27872e-05
7.49992e-05
-2.74366e-05
7.97122e-05
-2.24189e-05
8.4667e-05
-1.5271e-05
-8.94984e-06
9.03377e-05
3.31428e-06
-7.20076e-05
6.59656e-06
-7.1862e-05
9.97756e-06
-7.14438e-05
1.33759e-05
-7.09778e-05
1.68741e-05
-7.02769e-05
2.04483e-05
-6.94562e-05
2.4142e-05
-6.85189e-05
2.7934e-05
-6.72082e-05
3.18276e-05
-6.60196e-05
3.5791e-05
-6.4209e-05
3.98833e-05
-6.26695e-05
4.40196e-05
-6.04393e-05
4.82814e-05
-5.82585e-05
5.2609e-05
-5.56685e-05
5.70206e-05
-5.27617e-05
6.15182e-05
-4.94679e-05
6.6089e-05
-4.59105e-05
7.07939e-05
-4.18116e-05
7.5593e-05
-3.75749e-05
8.06323e-05
-3.24641e-05
8.58701e-05
-2.76447e-05
9.14751e-05
-2.08637e-05
-1.53143e-05
9.7852e-05
3.11542e-06
-7.51143e-05
6.19755e-06
-7.49354e-05
9.41042e-06
-7.4648e-05
1.26616e-05
-7.42202e-05
1.60558e-05
-7.36623e-05
1.95829e-05
-7.29745e-05
2.32857e-05
-7.22128e-05
2.71687e-05
-7.10821e-05
3.12246e-05
-7.00662e-05
3.543e-05
-6.84052e-05
3.98375e-05
-6.70675e-05
4.43898e-05
-6.4982e-05
4.91757e-05
-6.30347e-05
5.41059e-05
-6.05888e-05
5.92198e-05
-5.78656e-05
6.44768e-05
-5.47146e-05
6.98662e-05
-5.12895e-05
7.54047e-05
-4.73394e-05
8.1055e-05
-4.32142e-05
8.69577e-05
-3.83558e-05
9.30556e-05
-3.37312e-05
9.96115e-05
-2.74081e-05
-2.25728e-05
0.000106882
2.9555e-06
-7.80616e-05
5.89729e-06
-7.78689e-05
8.95091e-06
-7.76933e-05
1.2053e-05
-7.73139e-05
1.53041e-05
-7.6905e-05
1.86972e-05
-7.63591e-05
2.22882e-05
-7.57951e-05
2.61092e-05
-7.48946e-05
3.0187e-05
-7.41353e-05
3.45172e-05
-7.27266e-05
3.91081e-05
-7.16494e-05
4.39023e-05
-6.97672e-05
4.89983e-05
-6.81215e-05
5.42856e-05
-6.58667e-05
5.98381e-05
-6.34084e-05
6.5593e-05
-6.04597e-05
7.15546e-05
-5.72411e-05
7.77024e-05
-5.34771e-05
8.40141e-05
-4.95156e-05
9.0616e-05
-4.49471e-05
9.74556e-05
-4.05601e-05
0.000104833
-3.47746e-05
-3.06448e-05
0.000112916
2.64795e-06
-8.07016e-05
5.31046e-06
-8.05235e-05
8.05254e-06
-8.04275e-05
1.08666e-05
-8.012e-05
1.38307e-05
-7.98613e-05
1.69497e-05
-7.947e-05
2.0284e-05
-7.91213e-05
2.38837e-05
-7.84861e-05
2.77966e-05
-7.80399e-05
3.20811e-05
-7.70027e-05
3.67598e-05
-7.63196e-05
4.17999e-05
-7.47987e-05
4.72583e-05
-7.35712e-05
5.30059e-05
-7.16054e-05
5.91501e-05
-6.95436e-05
6.56033e-05
-6.69037e-05
7.23939e-05
-6.40224e-05
7.94269e-05
-6.05007e-05
8.66981e-05
-5.67771e-05
9.42661e-05
-5.25051e-05
0.000102061
-4.8345e-05
0.00011043
-4.3133e-05
-3.96923e-05
0.000119488
2.37506e-06
-8.30693e-05
4.7814e-06
-8.29224e-05
7.24209e-06
-8.28807e-05
9.79215e-06
-8.26626e-05
1.24832e-05
-8.25448e-05
1.53297e-05
-8.23089e-05
1.83869e-05
-8.21709e-05
2.17013e-05
-8.17927e-05
2.53199e-05
-8.16508e-05
2.93221e-05
-8.0997e-05
3.37646e-05
-8.07541e-05
3.869e-05
-7.9716e-05
4.41626e-05
-7.90356e-05
5.00648e-05
-7.74993e-05
5.64986e-05
-7.59688e-05
6.33503e-05
-7.37467e-05
7.06543e-05
-7.13176e-05
7.82666e-05
-6.8104e-05
8.62414e-05
-6.47426e-05
9.45385e-05
-6.07929e-05
0.000103076
-5.68726e-05
0.000112229
-5.22769e-05
-4.96006e-05
0.000122147
2.04987e-06
-8.51122e-05
4.13085e-06
-8.49964e-05
6.25432e-06
-8.49972e-05
8.46726e-06
-8.48685e-05
1.081e-05
-8.48805e-05
1.3305e-05
-8.47968e-05
1.60155e-05
-8.48741e-05
1.89877e-05
-8.47577e-05
2.22755e-05
-8.49312e-05
2.59516e-05
-8.46658e-05
3.00545e-05
-8.48495e-05
3.46597e-05
-8.43136e-05
3.98507e-05
-8.42189e-05
4.56027e-05
-8.32434e-05
5.20533e-05
-8.24115e-05
5.90929e-05
-8.07781e-05
6.67712e-05
-7.89877e-05
7.49432e-05
-7.62677e-05
8.36723e-05
-7.34631e-05
9.27626e-05
-6.98745e-05
0.000102172
-6.62728e-05
0.000112268
-6.23646e-05
-6.05246e-05
0.000123201
1.77948e-06
-8.68851e-05
3.58421e-06
-8.67946e-05
5.42585e-06
-8.68322e-05
7.34808e-06
-8.67841e-05
9.39197e-06
-8.69177e-05
1.15798e-05
-8.6978e-05
1.39789e-05
-8.72665e-05
1.66263e-05
-8.73983e-05
1.95788e-05
-8.78769e-05
2.29032e-05
-8.79832e-05
2.66364e-05
-8.85757e-05
3.08571e-05
-8.85272e-05
3.56205e-05
-8.89752e-05
4.09597e-05
-8.85752e-05
4.7032e-05
-8.84764e-05
5.37534e-05
-8.74919e-05
6.12473e-05
-8.6474e-05
6.94824e-05
-8.44949e-05
7.84892e-05
-8.2462e-05
8.79657e-05
-7.93429e-05
9.79153e-05
-7.62141e-05
0.000108524
-7.29652e-05
-7.19315e-05
0.00011994
1.48415e-06
-8.83632e-05
2.98572e-06
-8.82901e-05
4.51914e-06
-8.83596e-05
6.11783e-06
-8.83767e-05
7.82995e-06
-8.86237e-05
9.66731e-06
-8.88091e-05
1.17045e-05
-8.92975e-05
1.39636e-05
-8.96511e-05
1.65095e-05
-9.04164e-05
1.93978e-05
-9.08651e-05
2.26687e-05
-9.184e-05
2.6404e-05
-9.22559e-05
3.06505e-05
-9.3215e-05
3.54455e-05
-9.33634e-05
4.09209e-05
-9.39448e-05
4.70236e-05
-9.35877e-05
5.39421e-05
-9.33854e-05
6.17099e-05
-9.22556e-05
7.03167e-05
-9.10615e-05
7.96568e-05
-8.86756e-05
8.98717e-05
-8.64214e-05
0.000100875
-8.39612e-05
-8.38118e-05
0.000112764
1.26232e-06
-8.96199e-05
2.53491e-06
-8.95571e-05
3.83711e-06
-8.96561e-05
5.19091e-06
-8.97249e-05
6.65199e-06
-9.00791e-05
8.22009e-06
-9.03715e-05
9.9764e-06
-9.1048e-05
1.19239e-05
-9.15928e-05
1.41388e-05
-9.26256e-05
1.66547e-05
-9.33751e-05
1.95246e-05
-9.4704e-05
2.28106e-05
-9.55358e-05
2.65555e-05
-9.69538e-05
3.08078e-05
-9.76096e-05
3.56815e-05
-9.88122e-05
4.1137e-05
-9.90368e-05
4.73769e-05
-9.96187e-05
5.43058e-05
-9.91778e-05
6.19394e-05
-9.86884e-05
7.03739e-05
-9.71032e-05
7.97784e-05
-9.58189e-05
8.99273e-05
-9.4103e-05
-9.48602e-05
0.000100983
1.02661e-06
-9.06414e-05
2.05885e-06
-9.05842e-05
3.11972e-06
-9.07118e-05
4.21914e-06
-9.08191e-05
5.41415e-06
-9.12689e-05
6.69402e-06
-9.16461e-05
8.1392e-06
-9.24879e-05
9.73761e-06
-9.31859e-05
1.15728e-05
-9.44554e-05
1.365e-05
-9.54468e-05
1.6037e-05
-9.70855e-05
1.87602e-05
-9.82534e-05
2.18773e-05
-0.000100065
2.54181e-05
-0.000101145
2.94719e-05
-0.00010286
3.40079e-05
-0.000103567
3.91987e-05
-0.000104804
4.48926e-05
-0.000104866
5.12757e-05
-0.000105065
5.83204e-05
-0.000104142
6.6065e-05
-0.000103557
7.44703e-05
-0.000102502
-0.000104384
8.40007e-05
8.57874e-07
-9.14946e-05
1.72127e-06
-9.14429e-05
2.61372e-06
-9.15997e-05
3.5375e-06
-9.17382e-05
4.54471e-06
-9.22714e-05
5.62079e-06
-9.27175e-05
6.83982e-06
-9.37022e-05
8.17935e-06
-9.45206e-05
9.72388e-06
-9.5995e-05
1.14499e-05
-9.7168e-05
1.3443e-05
-9.90737e-05
1.56836e-05
-0.000100489
1.82527e-05
-0.000102629
2.11352e-05
-0.000104022
2.44067e-05
-0.000106126
2.80243e-05
-0.000107179
3.21094e-05
-0.000108883
3.65073e-05
-0.000109258
4.14338e-05
-0.000109986
4.65973e-05
-0.000109299
5.20944e-05
-0.000109048
5.7776e-05
-0.000108178
-0.000110778
6.41762e-05
6.66914e-07
-9.21573e-05
1.33991e-06
-9.21117e-05
2.03782e-06
-9.22934e-05
2.75932e-06
-9.24555e-05
3.54387e-06
-9.30517e-05
4.37949e-06
-9.35489e-05
5.32236e-06
-9.46408e-05
6.3494e-06
-9.55433e-05
7.52929e-06
-9.71706e-05
8.83037e-06
-9.84647e-05
1.03352e-05
-0.000100574
1.19961e-05
-0.000102145
1.39011e-05
-0.00010453
1.59869e-05
-0.000106103
1.83319e-05
-0.000108467
2.08546e-05
-0.000109697
2.36304e-05
-0.000111654
2.64532e-05
-0.000112076
2.94198e-05
-0.000112948
3.21775e-05
-0.000112052
3.48022e-05
-0.000111668
3.69025e-05
-0.000110272
-0.000113094
3.92233e-05
5.23667e-07
-9.26773e-05
1.05565e-06
-9.264e-05
1.60768e-06
-9.28416e-05
2.1792e-06
-9.30232e-05
2.79601e-06
-9.36647e-05
3.44999e-06
-9.4199e-05
4.17715e-06
-9.53641e-05
4.95868e-06
-9.63209e-05
5.84268e-06
-9.80506e-05
6.80126e-06
-9.94193e-05
7.89636e-06
-0.000101665
9.0712e-06
-0.000103316
1.03979e-05
-0.000105852
1.17801e-05
-0.000107481
1.32906e-05
-0.000109973
1.47951e-05
-0.000111197
1.63158e-05
-0.000113171
1.75916e-05
-0.000113347
1.86167e-05
-0.000113968
1.88631e-05
-0.000112294
1.81485e-05
-0.000110949
1.58215e-05
-0.000107941
-0.000109826
1.25586e-05
3.54915e-07
-9.30289e-05
7.12621e-07
-9.29944e-05
1.07799e-06
-9.32038e-05
1.45239e-06
-9.33943e-05
1.85029e-06
-9.40594e-05
2.26283e-06
-9.46083e-05
2.71366e-06
-9.58116e-05
3.18457e-06
-9.67885e-05
3.70931e-06
-9.8572e-05
4.26001e-06
-9.99666e-05
4.87585e-06
-0.000102278
5.50485e-06
-0.000103942
6.18384e-06
-0.000106528
6.82351e-06
-0.000108117
7.45892e-06
-0.000110605
7.93798e-06
-0.000111673
8.2564e-06
-0.000113485
8.0836e-06
-0.000113171
7.28255e-06
-0.000113164
5.10962e-06
-0.000110117
9.63516e-07
-0.000106799
-6.17851e-06
-0.000100795
-9.97251e-05
-1.62752e-05
2.13558e-07
-9.32397e-05
4.29511e-07
-9.32076e-05
6.49825e-07
-9.34213e-05
8.71614e-07
-9.36133e-05
1.09921e-06
-9.42842e-05
1.3233e-06
-9.48295e-05
1.5581e-06
-9.60435e-05
1.78667e-06
-9.70142e-05
2.02769e-06
-9.88101e-05
2.25424e-06
-0.00010019
2.48205e-06
-0.000102502
2.66241e-06
-0.000104119
2.80298e-06
-0.000106665
2.81714e-06
-0.000108129
2.6991e-06
-0.000110484
2.28874e-06
-0.000111259
1.53375e-06
-0.000112727
5.64909e-08
-0.00011169
-2.4057e-06
-0.000110698
-6.66324e-06
-0.000105856
-1.3698e-05
-9.97605e-05
-2.50314e-05
-8.94579e-05