/*--------------------------------*- C++ -*----------------------------------*\
| =========                 |                                                 |
| \\      /  F ield         | OpenFOAM: The Open Source CFD Toolbox           |
|  \\    /   O peration     | Version:  2012                                  |
|   \\  /    A nd           | Website:  www.openfoam.com                      |
|    \\/     M anipulation  |                                                 |
\*---------------------------------------------------------------------------*/
FoamFile
{
    version     2.0;
    format      ascii;
    class       volScalarField;
    location    "0.49";
    object      rhogh;
}
// * * * * * * * * * * * * * * * * * * * * * * * * * * * * * * * * * * * * * //

dimensions      [1 -1 -2 0 0 0 0];


internalField   nonuniform List<scalar> 
2268
(
-29.4294
-29.4294
-29.4294
-29.4294
-29.4294
-29.4294
-29.4294
-29.4294
-29.4294
-29.4294
-29.4294
-29.4294
-29.4294
-29.4294
-29.4294
-29.4294
-29.4294
-29.4294
-29.4294
-29.4294
-29.4294
-29.4294
-29.4191
-88.2881
-88.2881
-88.2881
-88.2881
-88.2881
-88.2881
-88.2881
-88.2881
-88.2881
-88.2881
-88.2881
-88.2881
-88.2881
-88.2881
-88.2881
-88.2881
-88.2881
-88.2881
-88.2881
-88.2881
-88.2881
-88.2881
-88.256
-147.147
-147.147
-147.147
-147.147
-147.147
-147.147
-147.147
-147.147
-147.147
-147.147
-147.147
-147.147
-147.147
-147.147
-147.147
-147.147
-147.147
-147.147
-147.147
-147.147
-147.147
-147.147
-147.093
-206.006
-206.006
-206.006
-206.006
-206.006
-206.006
-206.006
-206.006
-206.006
-206.006
-206.006
-206.006
-206.006
-206.006
-206.006
-206.006
-206.006
-206.006
-206.006
-206.006
-206.006
-206.006
-205.98
-264.864
-264.864
-264.864
-264.864
-264.864
-264.864
-264.864
-264.864
-264.864
-264.864
-264.864
-264.864
-264.864
-264.864
-264.864
-264.864
-264.864
-264.864
-264.864
-264.864
-264.864
-264.864
-264.864
-323.723
-323.723
-323.723
-323.723
-323.723
-323.723
-323.723
-323.723
-323.723
-323.723
-323.723
-323.723
-323.723
-323.723
-323.723
-323.723
-323.723
-323.723
-323.723
-323.723
-323.723
-323.723
-323.723
-382.582
-382.582
-382.582
-382.582
-382.582
-382.582
-382.582
-382.582
-382.582
-382.582
-382.582
-382.582
-382.582
-382.582
-382.582
-382.582
-382.582
-382.582
-382.582
-382.582
-382.582
-382.582
-382.582
-441.44
-441.44
-441.44
-441.44
-441.44
-441.44
-441.44
-441.44
-441.44
-441.44
-441.44
-441.44
-441.44
-441.44
-441.44
-441.44
-441.44
-441.44
-441.44
-441.44
-441.44
-441.44
-441.44
-1.4094e-18
-2.60915e-17
-7.53452e-16
-3.3264e-14
-1.78824e-12
-7.09667e-11
-6.0446e-10
-1.49667e-09
-1.50026e-09
-0.0886104
-4.45749
-13.6647
-15.5696
-15.5729
-16.1029
-17.5512
-17.9772
-17.9773
-17.9147
-1.34559e-16
-3.0541e-15
-1.83817e-14
-8.39123e-14
-3.31553e-12
-1.544e-10
-1.12276e-09
-1.98758e-06
-0.0219261
-0.215788
-0.21689
-6.57849e-08
-6.57892e-08
-6.57849e-08
-1.93462
-17.3014
-33.9119
-40.5655
-40.5664
-6.38198e-15
-1.20652e-13
-5.77891e-13
-9.2703e-13
-1.00254e-12
-1.57654e-10
-5.69343e-09
-0.000246492
-0.0129825
-0.0256792
-0.00145143
-1.09649e-07
-2.40266e-06
-0.0813488
-0.438462
-2.05087
-8.28345
-40.9481
-96.7979
-1.17169e-13
-1.77705e-12
-6.68017e-12
-8.09841e-12
-2.87597e-12
-2.87598e-12
-7.37082e-08
-0.000261113
-0.00157507
-8.21737e-05
-5.01399e-06
-1.73361e-06
-3.37911e-06
-3.37705e-06
-3.37684e-06
-3.37705e-06
-1.03325
-54.2629
-147.635
-1.3892e-12
-1.09551e-11
-2.07086e-11
-1.60322e-11
-1.77873e-11
-5.9647e-12
-1.5788e-12
-9.24815e-05
-3.49024e-05
-7.79931e-06
-2.06676e-06
-3.58778e-06
-4.63957e-06
-4.63952e-06
-2.7614e-05
-0.00176293
-0.661695
-26.0657
-189.816
-1.02132e-11
-1.02133e-11
-1.67156e-10
-1.3603e-09
-1.13533e-09
-1.83191e-10
-1.9301e-12
-8.63852e-07
-1.07492e-06
-5.34676e-07
-6.11766e-07
-2.57361e-06
-3.51106e-06
-1.97767e-05
-5.55542e-05
-6.56282e-05
-0.0530569
-13.7375
-231.998
-4.84221e-09
-5.23287e-06
-0.000555704
-0.00256969
-0.00113133
-2.28103e-12
-2.28049e-12
-4.57951e-08
-9.73926e-08
-1.12468e-07
-1.29907e-07
-9.58966e-07
-2.38156e-06
-1.35563e-06
-1.09537e-07
-1.09268e-07
-0.000778027
-6.59231
-274.154
-2.00723e-11
-2.00723e-11
-2.45229
-4.3165
-2.05214
-0.219202
-0.00335472
-9.62953e-08
-4.95885e-08
-6.91525e-08
-7.47819e-08
-2.33964e-07
-7.7124e-07
-6.73331e-07
-1.55879e-07
-1.26382e-07
-1.26079e-07
-2.2862
-241.67
-528.397
-528.292
-528.674
-529.01
-529.375
-529.785
-530.493
-531.031
-531.745
-532.351
-532.845
-533.213
-533.394
-533.455
-533.467
-533.467
-533.467
-533.467
-533.467
-533.467
-533.467
-533.467
-533.355
-360.526
-360.699
-368.744
-376.737
-387.52
-398.52
-417.011
-435.035
-462.073
-491.603
-526.564
-565.672
-605.35
-636.839
-653.467
-658.662
-658.662
-658.662
-658.662
-658.662
-658.662
-658.662
-658.414
-8.39754e-36
3.05287e-34
-9.76915e-33
1.56306e-31
-0.951345
-5.44126
-12.6534
-21.0085
-35.1908
-52.9561
-79.4476
-115.738
-169.864
-256.03
-392.806
-562.087
-743.63
-783.856
-783.856
-783.856
-783.856
-783.856
-783.805
-7.47955e-17
-3.40596e-15
-7.73612e-14
-9.19179e-13
-3.72564e-28
-2.3022e-28
-6.55967e-28
2.75983e-27
1.4534e-28
3.55672e-29
7.48911e-26
-4.33492e-24
-3.86879e-25
4.76295e-19
-6.70009
-37.6969
-122.258
-299.288
-560.149
-860.278
-909.051
-909.051
-909.051
-2.70857e-15
-1.47804e-13
-4.53554e-12
-8.41343e-11
-1.07871e-09
-1.1002e-08
-2.06144e-08
-1.97294e-08
-1.0575e-08
-3.84417e-28
-2.06012e-05
-2.3763e-05
-0.000104116
-0.000148659
-3.28675e-21
-1.85691e-22
-0.646527
-8.15735
-53.0291
-159.321
-348.003
-610.954
-948.349
-5.2534e-15
-2.87018e-13
-8.8302e-12
-1.60565e-10
-2.07954e-09
-2.15955e-08
-3.7764e-08
-6.73087e-08
-6.05601e-08
-3.63006e-09
-0.000104881
-0.001256
-0.00226821
-0.00271955
-0.0013406
-3.46141e-05
-8.88653e-06
-0.0133936
-0.221143
-1.59432
-8.7493
-43.2333
-158.701
-6.12239e-15
-3.33702e-13
-1.0142e-11
-1.79818e-10
-2.25998e-09
-2.41728e-08
-3.8225e-08
-1.17025e-07
-2.48027e-07
-2.14425e-09
-0.000113902
-0.00288346
-0.00312745
-0.00312738
-0.00165231
-6.35471e-05
-9.85498e-06
-9.84609e-06
-1.14819e-05
-0.000228425
-0.0105341
-0.00773096
-0.161049
-6.00143e-15
-3.15704e-13
-9.22528e-12
-1.5275e-10
-1.70305e-09
-1.94845e-08
-1.97614e-08
-1.69248e-07
-8.60674e-07
-2.53643e-09
-0.000171995
-0.000333
-0.000943529
-0.000114779
-1.84248e-08
-2.99718e-05
-6.23229e-05
-3.00258e-05
-1.03517e-05
-5.01862e-05
-0.000164479
-0.000626526
-0.000261507
-3.71615e-15
-1.83914e-13
-5.07079e-12
-7.91762e-11
-8.01392e-10
-9.26428e-09
-5.94137e-09
-2.00239e-07
-1.65952e-06
-8.42917e-06
-2.00761e-08
-2.0061e-08
-2.00644e-08
-2.0061e-08
-2.00644e-08
-2.02594e-05
-6.78573e-05
-6.78572e-05
-1.68003e-05
-5.87152e-05
-6.51015e-06
-3.46229e-08
-0.00652703
-1.71229e-15
-8.20885e-14
-2.20004e-12
-3.34768e-11
-3.21048e-10
-3.61981e-09
-1.0972e-09
-2.11533e-07
-1.92816e-06
-8.34574e-06
-2.41551e-06
-2.96419e-07
-1.953e-07
-6.95139e-07
-6.60826e-07
-5.52731e-07
-2.07261e-05
-4.34667e-05
-2.25787e-05
-8.28811e-07
-4.47325e-08
-3.73896e-08
-0.00027201
-6.50901e-16
-3.02277e-14
-7.90531e-13
-1.17433e-11
-1.09665e-10
-1.1755e-09
-6.47885e-10
-1.72191e-07
-8.96665e-07
-1.02682e-06
-6.93143e-07
-3.02051e-07
-2.9524e-07
-9.06043e-07
-1.35565e-06
-8.66572e-07
-2.64428e-07
-2.6458e-07
-1.26158e-06
-1.76188e-06
-8.4053e-07
-5.05606e-08
-2.13732e-09
-2.03365e-16
-9.21013e-15
-2.3666e-13
-3.46062e-12
-3.24302e-11
-3.02981e-10
-6.89129e-10
-5.16927e-08
-2.07254e-07
-1.52445e-07
-1.71774e-07
-1.51592e-07
-1.64932e-07
-2.95177e-07
-7.72575e-07
-8.47761e-07
-5.84702e-07
-3.43001e-07
-3.34571e-07
-3.39049e-07
-3.07257e-07
-2.10586e-07
-9.4374e-08
-5.18373e-17
-2.28211e-15
-5.75811e-14
-8.3173e-13
-7.95326e-12
-6.40944e-11
-4.25551e-10
-1.26402e-08
-2.56015e-08
-4.34447e-08
-4.8406e-08
-4.2819e-08
-4.40799e-08
-6.17067e-08
-1.06311e-07
-2.10649e-07
-3.77048e-07
-4.31915e-07
-4.34381e-07
-3.96837e-07
-3.0075e-07
-1.77936e-07
-1.1005e-07
-1.06837e-17
-4.6345e-16
-1.16123e-14
-1.68128e-13
-1.66584e-12
-1.29976e-11
-1.58798e-10
-1.70168e-09
-4.89761e-09
-8.29603e-09
-8.91496e-09
-8.00451e-09
-8.45412e-09
-1.11762e-08
-1.79636e-08
-3.25967e-08
-5.85214e-08
-8.5154e-08
-8.1652e-08
-7.30829e-08
-6.29549e-08
-4.45919e-08
-3.01542e-08
-1.75457e-18
-7.54248e-17
-1.89343e-15
-2.79122e-14
-2.91049e-13
-2.33916e-12
-4.22822e-11
-1.78836e-10
-5.03477e-10
-8.34952e-10
-9.08484e-10
-9.18753e-10
-1.13656e-09
-1.85539e-09
-3.31761e-09
-5.22607e-09
-6.70953e-09
-7.81255e-09
-8.57508e-09
-8.87512e-09
-8.60714e-09
-7.21276e-09
-5.37491e-09
-2.24866e-19
-9.74285e-18
-2.49591e-16
-3.82823e-15
-4.26462e-14
-3.58081e-13
-7.23187e-12
-2.08948e-11
-3.41861e-11
-3.75835e-11
-4.23584e-11
-6.39e-11
-1.39725e-10
-3.11676e-10
-5.87101e-10
-8.12721e-10
-9.5096e-10
-1.04357e-09
-1.09247e-09
-1.0998e-09
-1.03992e-09
-8.78892e-10
-6.96716e-10
-2.1816e-20
-9.70128e-19
-2.58705e-17
-4.21048e-16
-5.04461e-15
-4.33757e-14
-7.40454e-13
-2.40602e-12
-3.2993e-12
-3.23254e-12
-3.66243e-12
-7.0338e-12
-1.90632e-11
-4.59481e-11
-8.55841e-11
-1.13281e-10
-1.28759e-10
-1.37318e-10
-1.38831e-10
-1.32509e-10
-1.1342e-10
-8.44324e-11
-6.56583e-11
-1.53682e-21
-7.29516e-20
-2.09195e-18
-3.69464e-17
-4.75984e-16
-4.10998e-15
-4.36786e-14
-1.54868e-13
-2.65273e-13
-2.99572e-13
-3.92656e-13
-8.23562e-13
-2.13793e-12
-4.81519e-12
-8.25951e-12
-1.03437e-11
-1.14867e-11
-1.20339e-11
-1.19452e-11
-1.10151e-11
-8.96613e-12
-6.01033e-12
-4.5228e-12
-7.35046e-23
-3.86101e-21
-1.22274e-19
-2.35762e-18
-3.20696e-17
-2.74206e-16
-1.77775e-15
-5.0271e-15
-7.84076e-15
-1.13571e-14
-2.24617e-14
-6.09148e-14
-1.56534e-13
-3.2111e-13
-4.78765e-13
-5.64661e-13
-6.17302e-13
-6.47791e-13
-6.49992e-13
-6.18545e-13
-5.16783e-13
-3.33763e-13
-3.68972e-13
-2.17628e-24
-1.3555e-22
-4.91419e-21
-1.03877e-19
-1.47179e-18
-1.22526e-17
-6.582e-17
-1.55706e-16
-2.74286e-16
-5.28014e-16
-1.38312e-15
-3.89613e-15
-9.08364e-15
-1.44371e-14
-1.69376e-14
-1.84171e-14
-1.98739e-14
-2.14051e-14
-2.23701e-14
-2.2493e-14
-1.90748e-14
-1.95003e-14
-7.16635e-14
-3.6147e-26
-2.59037e-24
-1.04626e-22
-2.34459e-21
-3.37957e-20
-2.72421e-19
-1.16081e-18
-3.23938e-18
-8.35573e-18
-2.38129e-17
-7.08891e-17
-1.89248e-16
-3.63419e-16
-4.34467e-16
-4.42001e-16
-4.51355e-16
-4.77261e-16
-5.30238e-16
-5.7721e-16
-5.64472e-16
-5.97348e-16
-2.69795e-15
-6.05091e-14
-5.24387e-28
-2.54383e-26
-7.59015e-25
-1.48473e-23
-2.39329e-22
-2.62483e-21
-1.57932e-20
-7.11441e-20
-2.84652e-19
-9.93043e-19
-2.84297e-18
-6.75591e-18
-1.13907e-17
-1.30762e-17
-1.32852e-17
-1.28534e-17
-1.22368e-17
-1.19613e-17
-1.1083e-17
-1.13365e-17
-5.34114e-17
-2.07127e-15
-6.52315e-14
-1.87733e-29
-9.43067e-28
-2.83245e-26
-5.42998e-25
-8.36577e-24
-9.04633e-23
-5.57299e-22
-2.53235e-21
-9.74814e-21
-3.17401e-20
-8.11591e-20
-1.72776e-19
-2.82149e-19
-3.30728e-19
-3.38307e-19
-3.17152e-19
-2.54555e-19
-1.44033e-19
-9.88255e-20
-4.38938e-19
-3.3585e-17
-1.92625e-15
-5.96772e-14
-3.27384e-31
-1.69377e-29
-5.00696e-28
-8.92173e-27
-1.14309e-25
-1.03835e-24
-7.35564e-24
-3.98893e-23
-1.68145e-22
-5.49873e-22
-1.35938e-21
-2.87573e-21
-5.19172e-21
-6.64879e-21
-6.96012e-21
-6.63399e-21
-5.17251e-21
-2.77307e-21
-5.54373e-21
-1.78384e-19
-2.2081e-17
-1.31364e-15
-3.8145e-14
-1.13159e-36
-4.05238e-35
-8.0871e-34
-9.58674e-33
-7.58468e-32
-2.86416e-31
-8.2879e-31
-4.70949e-30
-2.86714e-29
-1.29606e-28
-4.22231e-28
-1.11993e-27
-2.34215e-27
-2.79667e-27
-3.23994e-27
-2.47349e-26
-1.10442e-24
-4.19255e-23
-1.34042e-21
-7.91469e-20
-1.01244e-17
-5.82633e-16
-1.59843e-14
-6.65732e-41
-3.2612e-39
-9.33372e-38
-1.76282e-36
-2.6586e-35
-3.67853e-34
-9.26212e-33
-1.43277e-31
-1.05582e-30
-4.98864e-30
-1.62932e-29
-4.30075e-29
-8.64031e-29
-1.00799e-28
-1.72083e-28
-5.60041e-27
-2.93672e-25
-1.21111e-23
-4.44252e-22
-3.11315e-20
-3.65376e-18
-2.02522e-16
-5.38657e-15
-2.95396e-44
-1.43493e-42
-3.87435e-41
-6.56646e-40
-7.95955e-39
-7.16925e-38
-5.01336e-37
-2.81224e-36
-1.25838e-35
-4.85973e-35
-1.62648e-34
-9.10565e-34
-3.88194e-33
-1.36464e-31
-1.42646e-29
-1.23847e-27
-7.0522e-26
-3.21761e-24
-1.37781e-22
-1.07791e-20
-1.13881e-18
-6.15435e-17
-1.63061e-15
-7.18044e-50
-4.6391e-48
-1.6689e-46
-3.87196e-45
-6.53718e-44
-8.49675e-43
-8.78594e-42
-7.58914e-41
-5.32425e-40
-3.27687e-39
-1.90859e-38
-7.5789e-37
-1.27316e-34
-2.13946e-32
-2.59896e-30
-2.47979e-28
-1.51424e-26
-7.77852e-25
-3.91439e-23
-3.20991e-21
-2.99971e-19
-1.60019e-17
-5.09136e-16
-2.00347e-53
-1.43772e-51
-5.67878e-50
-1.46556e-48
-2.77432e-47
-4.16452e-46
-5.09429e-45
-5.40042e-44
-4.74973e-43
-4.59314e-42
-2.87204e-40
-7.21395e-38
-1.52071e-35
-2.92246e-33
-4.00119e-31
-4.26647e-29
-2.91627e-27
-1.85315e-25
-1.24254e-23
-1.10324e-21
-9.83907e-20
-6.00637e-18
-4.0334e-16
-7.20229e-60
-6.62323e-58
-3.66572e-56
-1.47464e-54
-4.6286e-53
-1.17921e-51
-2.42214e-50
-7.25487e-49
-1.47959e-46
-5.79112e-44
-1.9697e-41
-6.4926e-39
-1.71506e-36
-4.08505e-34
-7.3461e-32
-1.07395e-29
-1.26199e-27
-1.52147e-25
-1.86641e-23
-2.38674e-21
-2.84515e-19
-2.37073e-17
-2.26625e-15
-3.74185e-65
-5.83776e-63
-5.06628e-61
-2.97603e-59
-1.31709e-57
-8.24403e-56
-3.14491e-53
-2.50904e-50
-2.00291e-47
-1.41219e-44
-8.6021e-42
-4.16864e-39
-1.73078e-36
-5.70983e-34
-1.70237e-31
-4.19628e-29
-9.31869e-27
-1.56915e-24
-2.25767e-22
-3.12097e-20
-3.76807e-18
-3.08858e-16
-2.44895e-14
-2.16193e-69
-5.08035e-67
-7.51846e-65
-2.70999e-62
-5.56725e-59
-1.14701e-55
-1.92543e-52
-2.40732e-49
-2.5075e-46
-1.97394e-43
-1.27652e-40
-6.21047e-38
-2.57292e-35
-8.29936e-33
-2.40586e-30
-5.78659e-28
-1.25257e-25
-2.07945e-23
-2.99087e-21
-4.12163e-19
-4.76837e-17
-3.80942e-15
-2.65659e-13
-2.39106e-72
-1.56553e-68
-9.71349e-65
-3.98596e-61
-1.129e-57
-2.30186e-54
-3.67114e-51
-4.4419e-48
-4.44736e-45
-3.37035e-42
-2.08641e-39
-9.74924e-37
-3.84623e-34
-1.1854e-31
-3.25624e-29
-7.5047e-27
-1.56266e-24
-2.55357e-22
-3.71825e-20
-5.08776e-18
-5.58866e-16
-4.38158e-14
-2.72703e-12
-2.81338e-71
-3.5593e-67
-2.14607e-63
-8.22283e-60
-2.25107e-56
-4.47444e-53
-6.9302e-50
-8.13156e-47
-7.78748e-44
-5.64389e-41
-3.32482e-38
-1.48508e-35
-5.55913e-33
-1.6344e-30
-4.25378e-28
-9.36383e-26
-1.86901e-23
-3.01165e-21
-4.52402e-19
-6.12093e-17
-6.30107e-15
-4.83914e-13
-2.66443e-11
-6.91922e-70
-8.16454e-66
-4.76257e-62
-1.76808e-58
-4.68726e-55
-9.05185e-52
-1.35256e-48
-1.52664e-45
-1.38419e-42
-9.51306e-40
-5.2978e-37
-2.25258e-34
-7.97352e-32
-2.23529e-29
-5.51666e-27
-1.16037e-24
-2.22398e-22
-3.55959e-20
-5.62031e-18
-7.43258e-16
-7.05728e-14
-5.22295e-12
-2.49203e-10
-1.7373e-68
-1.99663e-64
-1.12779e-60
-4.05653e-57
-1.03954e-53
-1.94099e-50
-2.77436e-47
-2.98457e-44
-2.53973e-41
-1.64568e-38
-8.63028e-36
-3.48608e-33
-1.16451e-30
-3.11608e-28
-7.30981e-26
-1.47966e-23
-2.75104e-21
-4.43143e-19
-7.35512e-17
-9.34825e-15
-8.10426e-13
-5.59338e-11
-2.25448e-09
-4.59756e-67
-5.15903e-63
-2.82927e-59
-9.87984e-56
-2.44548e-52
-4.39246e-49
-5.9603e-46
-6.06921e-43
-4.82442e-40
-2.94059e-37
-1.45043e-34
-5.56014e-32
-1.75004e-29
-4.47496e-27
-1.00143e-24
-1.97612e-22
-3.62029e-20
-5.9436e-18
-1.00496e-15
-1.21064e-13
-9.58365e-12
-4.53534e-10
-1.22415e-08
-1.24774e-65
-1.36912e-61
-7.31074e-58
-2.48507e-54
-5.93744e-51
-1.02212e-47
-1.31172e-44
-1.26174e-41
-9.37102e-39
-5.3636e-36
-2.48597e-33
-9.03446e-31
-2.677e-28
-6.55491e-26
-1.40824e-23
-2.75205e-21
-5.04373e-19
-8.47819e-17
-1.12075e-14
-9.71928e-13
-5.37005e-11
-1.82738e-09
-3.7074e-08
-3.35094e-64
-3.59787e-60
-1.87455e-56
-6.21452e-53
-1.43117e-49
-2.35723e-46
-2.86092e-43
-2.60408e-40
-1.81271e-37
-9.69373e-35
-4.05312e-32
-1.32861e-29
-3.5077e-27
-7.60249e-25
-1.41027e-22
-2.30266e-20
-3.30414e-18
-4.0006e-16
-3.81426e-14
-2.75017e-12
-1.40288e-10
-4.56438e-09
-8.74276e-08
-7.48333e-63
-7.54015e-59
-3.67738e-55
-1.13698e-51
-2.42732e-48
-3.68017e-45
-4.09126e-42
-3.39919e-39
-2.14587e-36
-1.03626e-33
-3.87091e-31
-1.12017e-28
-2.53976e-26
-4.53564e-24
-6.49618e-22
-7.66316e-20
-7.70837e-18
-6.6229e-16
-4.81936e-14
-2.8656e-12
-1.28642e-10
-4.00089e-09
-7.77521e-08
-6.98721e-62
-6.44671e-58
-2.82339e-54
-7.63186e-51
-1.41008e-47
-1.87836e-44
-1.85939e-41
-1.39054e-38
-7.96677e-36
-3.51963e-33
-1.20989e-30
-3.24329e-28
-6.82666e-26
-1.13057e-23
-1.47919e-21
-1.53628e-19
-1.26454e-17
-8.39952e-16
-4.61984e-14
-2.12694e-12
-7.9698e-11
-2.34125e-09
-5.20167e-08
-1.636e-61
-1.38854e-57
-5.59816e-54
-1.4053e-50
-2.43358e-47
-3.05721e-44
-2.87281e-41
-2.05508e-38
-1.13445e-35
-4.87167e-33
-1.64131e-30
-4.3627e-28
-9.21027e-26
-1.555e-23
-2.11192e-21
-2.33383e-19
-2.11139e-17
-1.58202e-15
-9.82691e-14
-5.04604e-12
-2.06589e-10
-6.27557e-09
-1.16318e-07
-533.203
-533.371
-533.371
-516.034
-658.298
-658.299
-658.532
-658.532
-783.747
-783.778
-783.642
-783.591
-909.051
-909.051
-909.038
-908.997
-1032.71
-1034.25
-1034.25
-1034.25
-263.84
-352.332
-442.585
-551.056
-1.92005
-4.94519
-10.5815
-18.2212
-0.000248546
-0.000248724
-0.000801656
-0.000793165
-0.0111404
-0.011149
-0.0104977
-0.00173998
-0.000899464
-0.00106679
-0.000665866
-1.98745e-09
-2.13732e-09
-8.42132e-05
-6.66252e-05
-2.13732e-09
-1.54026e-08
-2.28719e-09
-2.28719e-09
-2.28719e-09
-6.18688e-08
-3.00889e-08
-1.4994e-08
-6.77143e-09
-2.38931e-08
-2.10552e-08
-1.83152e-08
-1.54591e-08
-4.11687e-09
-3.71954e-09
-3.5534e-09
-3.34305e-09
-5.65095e-10
-4.94013e-10
-4.6026e-10
-4.37392e-10
-5.49302e-11
-4.83563e-11
-4.59428e-11
-4.76999e-11
-4.3378e-12
-4.47082e-12
-4.87907e-12
-5.83827e-12
-4.53798e-13
-6.05241e-13
-9.09523e-13
-1.49601e-12
-1.60328e-13
-2.90483e-13
-5.40621e-13
-1.0328e-12
-1.60076e-13
-3.10217e-13
-6.11471e-13
-1.32736e-12
-1.74368e-13
-3.40705e-13
-6.85142e-13
-1.46818e-12
-1.60014e-13
-3.1444e-13
-6.40157e-13
-1.40116e-12
-1.02906e-13
-2.04695e-13
-4.27313e-13
-9.72381e-13
-4.2996e-14
-8.562e-14
-1.83218e-13
-4.57112e-13
-1.44268e-14
-2.90604e-14
-7.21131e-14
-2.60398e-13
-4.49341e-15
-1.13549e-14
-5.3543e-14
-4.73562e-13
-1.93098e-15
-1.09664e-14
-1.69421e-13
-2.19843e-12
-3.78545e-15
-5.9548e-14
-1.07e-12
-1.37483e-11
-3.61408e-14
-5.81819e-13
-9.45399e-12
-1.19519e-10
-4.39181e-13
-6.7894e-12
-1.00526e-10
-1.2201e-09
-5.25797e-12
-7.75909e-11
-1.02687e-09
-1.14949e-08
-5.73762e-11
-7.85922e-10
-8.9451e-09
-9.01642e-08
-5.62431e-10
-6.82839e-09
-6.38529e-08
-5.81868e-07
-4.85042e-09
-4.89575e-08
-3.68895e-07
-3.44712e-06
-3.61729e-08
-2.75233e-07
-1.71504e-06
-2.29861e-05
-1.39047e-07
-7.37918e-07
-5.03912e-06
-9.22954e-05
-3.41745e-07
-1.71001e-06
-1.40049e-05
-0.000161683
-7.8928e-07
-7.74364e-06
-0.000105548
-0.000235646
-8.82236e-07
-2.5906e-05
-0.000321374
-0.000470602
-1.1904e-06
-8.39565e-05
-0.000828033
-0.00124529
-9.2142e-07
-9.21633e-06
-0.000234714
-0.00218314
-47.6418
-44.1699
-183.971
-204.768
-52.7898
-1.21717
-0.00134391
-3.46577e-08
-1.86457e-08
-3.02652e-08
-4.12312e-08
-8.65919e-08
-2.12319e-07
-2.56365e-07
-1.65549e-07
-1.7066e-07
-2.93505e-06
1.13864e-24
-253.698
-577.442
-605.866
-658.66
-631.354
-223.718
-6.36512
-0.00460706
-1.98477e-08
-4.33608e-09
-8.32361e-09
-1.33159e-08
-2.6276e-08
-5.37488e-08
-7.59219e-08
-4.763e-08
-3.37756e-07
-1.64787e-05
3.91816e-24
-376.866
-783.582
-783.818
-783.855
-783.856
-514.341
-34.5224
-0.0454905
-1.87292e-09
-1.87006e-09
-6.36175e-09
-1.53787e-08
-2.94249e-08
-5.60618e-08
-7.73373e-08
-5.66845e-08
-9.18675e-06
-2.28205e-05
1.95376e-24
-568.369
-909.008
-909.039
-909.05
-909.051
-765.37
-117.546
-0.557836
-8.99003e-05
-4.58318e-06
-1.86323e-07
-1.28566e-07
-3.00831e-07
-6.76984e-07
-8.96896e-08
-3.96779e-06
-2.74801e-05
-2.63982e-05
-4.04755e-19
-726.418
-1034.25
-1034.25
-1034.25
-1034.25
-1034.25
-500.113
-15.7106
-0.170059
-6.30058e-06
-1.43122e-07
-3.67168e-07
-1.31552e-06
-1.64621e-06
-6.81445e-07
-1.33329e-06
-3.12614e-05
-3.15602e-13
-1.05259
-881.286
-879.206
-1073.43
-1142.72
-1159.44
-1159.44
-1113.42
-391.088
-9.81286e-08
-9.88417e-08
-1.0886e-07
-3.5565e-07
-1.21875e-06
-1.58779e-06
-7.93023e-07
-8.49378e-07
-2.68553e-06
-3.56086e-13
-150.758
-1056.39
-44.0587
-128.231
-399.35
-1006.8
-1283.45
-1283.45
-1197.07
-571.949
-11.5823
-3.96216e-13
-3.93377e-13
-1.11607e-07
-1.85222e-07
-5.75855e-08
-3.92009e-13
-3.94536e-13
-3.91877e-13
-657.656
-1259.69
-1.68771e-09
-1.68771e-09
-0.0101242
-79.299
-429.149
-1187.93
-1404.77
-1404.77
-1000.03
-464.962
-86.7049
-4.30048e-13
-4.33964e-13
-4.3005e-13
-10.179
-57.0404
-358.076
-1203.51
-1400.46
-0.00795901
-0.00531939
-0.000411328
-0.000407302
-2.99452
-182.751
-677.361
-1288.12
-1480.98
-1480.97
-1230.88
-921.093
-826.883
-877.909
-981.824
-1153.69
-1421.93
-1526.37
-1527.01
-0.0161577
-0.0596358
-0.0486093
-0.00603639
-3.30319e-06
-0.211632
-18.954
-257.136
-728.86
-1159.97
-1384.38
-1525.24
-1583.15
-1615.24
-1651.55
-1651.55
-1651.55
-1651.55
-1651.55
-0.0294882
-0.0641938
-0.0641817
-0.013399
-3.55224e-06
-3.18511e-07
-0.0259377
-3.12185
-24.79
-151.837
-401.623
-651.263
-790.183
-882.746
-999.345
-1266.14
-1622.04
-1757.69
-1776.09
-0.00143774
-0.0167736
-0.0166063
-0.00436612
-3.40846e-07
-3.40846e-07
-3.40846e-07
-0.00217779
-0.254518
-3.49325
-16.6495
-29.7316
-26.65
-26.6508
-33.3274
-171.777
-891.436
-1820.25
-1900.63
-1.0343e-06
-4.30731e-06
-2.83303e-05
-0.00020943
-1.30185e-05
-3.6318e-07
-2.57682e-06
-2.88807e-05
-0.000221638
-0.0595438
-31.4743
-200.404
-305.329
-316.348
-225.998
-300.291
-1269.56
-2000.2
-1959.77
-9.24875e-09
-3.17361e-09
-8.95935e-08
-5.4302e-06
-1.03011e-05
-7.09799e-07
-4.99659e-07
-4.0811e-07
-5.84062e-07
-0.0072151
-7.56449
-435.96
-1551.88
-1864.69
-1690.42
-1578.51
-1965.34
-2140.07
-2049.35
-2.21278e-09
-1.79606e-09
-1.45161e-08
-6.28681e-07
-3.19248e-06
-8.87713e-07
-5.28487e-07
-4.31753e-07
-4.31753e-07
-0.000585092
-3.12591
-335.081
-1636.82
-2194.06
-2239.72
-2239.72
-2261.81
-2264.06
-2191.28
-3.86444e-10
-5.12215e-10
-3.04542e-09
-1.28676e-07
-8.19128e-07
-7.03711e-07
-5.36147e-07
-6.47462e-07
-4.73684e-07
-0.00014321
-2.38541
-49.601
-210.619
-719.575
-1662.88
-2266.31
-2305.89
-2336.92
-2361.02
-6.12158e-11
-1.34311e-10
-8.47055e-10
-2.30061e-08
-2.71214e-07
-5.50667e-07
-4.88902e-07
-7.07589e-07
-4.98259e-07
-0.0126323
-0.681965
-9.75519e-07
-9.74247e-07
-9.75519e-07
-79.2596
-1204.2
-2162.27
-1727.45
-2483.54
-1.77479e-11
-1.02587e-10
-9.16645e-10
-9.52264e-09
-9.67273e-08
-4.10391e-07
-5.45274e-07
-7.7569e-07
-5.22786e-07
-5.23963e-07
-0.436314
-0.263292
-1.02367e-06
-0.00383
-0.00383015
-145.972
-1347.57
-1722.55
-2364.8
-1.82707e-11
-1.8754e-10
-1.97608e-09
-6.28534e-09
-4.10849e-07
-7.78665e-07
-1.0893e-06
-8.1226e-07
-5.48607e-07
-5.4867e-07
-0.0222102
-0.0477703
-0.0104947
-0.00609229
-0.0950991
-45.0132
-929.18
-1677.16
-1150.44
-6.40248e-11
-2.73794e-10
-1.29612e-08
-4.21405e-08
-3.3891e-07
-1.73044e-06
-2.87256e-06
-2.84528e-06
-1.48086e-06
-6.90879e-07
-7.47971e-06
-4.46933e-06
-0.000325512
-1.543e-05
-0.0174237
-21.4783
-457.968
-1083.27
-462.546
-4.68387e-10
-7.06415e-10
-2.83934e-08
-2.15449e-07
-4.42992e-07
-1.02522e-06
-2.97417e-06
-1.83881e-05
-4.07211e-06
-7.20608e-07
-7.20435e-07
-7.20889e-07
-1.19489e-06
-1.60893e-05
-4.92546e-06
-1.7354
-141.417
-821.368
-482.431
-2.58147e-10
-1.77901e-09
-8.48476e-09
-1.81632e-07
-1.03271e-06
-1.50061e-06
-1.65493e-06
-3.3763e-06
-2.01247e-05
-0.000109549
-0.000110652
-3.04453e-05
-3.81228e-06
-9.8061e-06
-5.12856e-06
-1.92426e-06
-45.7758
-608.095
-502.316
-2.26989e-10
-1.75913e-09
-4.71235e-09
-3.4297e-08
-5.98957e-07
-2.79486e-06
-1.86597e-06
-8.45358e-07
-0.000132191
-0.000634443
-0.000634797
-0.000258477
-6.77919e-06
-2.34771e-06
-2.03561e-06
-1.99991e-06
-26.7703
-90.7906
-550.112
-7.66573e-11
-8.7689e-10
-4.00366e-09
-1.02232e-08
-1.12379e-08
-2.90123e-06
-9.50139e-06
-8.90235e-07
-3.85089e-05
-0.00065897
-0.000526178
-7.41039e-05
-2.91932e-06
-2.07568e-06
-8.05602e-06
-2.17295e-06
-0.0013124
-0.00128235
-647.126
-4.22292e-11
-6.18287e-10
-3.10676e-09
-2.53348e-08
-3.48881e-08
-1.81011e-07
-1.10243e-07
-0.00011774
-0.000179298
-0.000255506
-0.00013741
-1.8533e-06
-1.85334e-06
-6.94545e-05
-3.4988e-05
-3.32115e-06
-1.99444e-06
-0.0986169
-756.662
-7.25598e-11
-1.70045e-09
-5.7256e-09
-2.47949e-08
-6.02397e-07
-1.26717e-07
-1.13396e-07
-0.000167652
-0.000188212
-4.67762e-05
-4.67884e-05
-0.0103702
-0.00804991
-0.00134937
-1.5659e-05
-3.91983e-06
-2.06503e-06
-1.08107e-07
-761.018
-2.37997e-10
-5.33542e-09
-1.66016e-08
-1.66011e-08
-3.60872e-06
-6.81791e-06
-3.62235e-06
-8.25035e-05
-6.21148e-05
-4.05477e-05
-0.00916104
-0.0187313
-0.0187093
-0.00183612
-6.33366e-06
-3.30652e-06
-1.80732e-06
-1.11801e-07
-678.565
-6.49667e-10
-8.98322e-09
-3.18207e-08
-2.71315e-08
-2.04931e-08
-3.93895e-05
-6.32556e-05
-4.4803e-05
-4.18876e-05
-4.1888e-05
-0.011319
-0.0193275
-0.0113443
-0.000582836
-1.24321e-05
-1.15496e-07
-1.15496e-07
-1.15496e-07
-549.556
-1.70912e-09
-1.64887e-08
-1.06794e-07
-6.66914e-08
-2.11465e-08
-0.000110414
-0.000135191
-4.27251e-05
-0.000601178
-0.00125779
-0.00402421
-0.0116241
-0.00105312
-2.17912e-05
-2.17997e-05
-0.00169528
-0.00402045
-1.1919e-07
-768.481
-6.98614e-09
-6.30347e-08
-5.52949e-07
-7.15588e-08
-8.87727e-06
-2.25982e-05
-0.000108763
-4.40494e-05
-0.000731386
-0.00152141
-0.000398868
-0.00312144
-0.000321976
-0.00117804
-2.24666e-05
-2.24571e-05
-0.595947
-84.1429
-962.976
-4.04695e-08
-2.96326e-07
-3.69632e-06
-2.4259e-06
-2.86482e-08
-0.019468
-4.53737e-05
-4.53738e-05
-0.000245604
-0.000386837
-6.16661e-05
-5.91813e-05
-6.16661e-05
-0.00180585
-0.00507192
-0.228315
-31.9494
-214.594
-992.18
-2.22707e-07
-1.05067e-06
-2.22216e-05
-8.4193e-06
-2.94948e-08
-0.0928514
-0.533026
-0.125587
-0.00296286
-0.000525579
-0.00027653
-0.0137935
-0.00760859
-0.00185518
-0.0870088
-88.1972
-324.648
-236.68
-372.064
-1.14067e-06
-4.44187e-06
-3.35275e-05
-8.65649e-06
-0.245278
-0.811785
-0.82496
-0.776952
-0.0163311
-0.00245039
-0.00247622
-0.109939
-0.0933481
-0.00190464
-0.0554043
-4.04393
-369.77
-1154.16
-245.695
-6.42017e-06
-2.3597e-05
-2.35997e-05
-0.0101808
-0.613477
-0.847711
-0.847711
-0.847711
-0.300396
-1.70169e-07
-0.010284
-0.117281
-0.117281
-0.00288477
-0.031917
-0.000757534
-1.98156
-1464.69
-879.756
-5.12635e-05
-0.000239607
-0.000281368
-0.0157066
-0.133539
-0.78172
-0.870461
-0.870461
-0.394644
-1.74736e-07
-0.0305861
-0.120429
-0.120429
-0.00228566
-0.00542342
-0.0010277
-1.56827e-07
-1463.92
-2235.78
-0.000236976
-0.000378269
-6.59051e-05
-8.05901e-06
-0.00990036
-0.23939
-0.614301
-0.566584
-0.121124
-1.79302e-07
-0.0760823
-0.123576
-0.123576
-0.00117176
-0.00109666
-0.000947339
-1.60925e-07
-1548.85
-2294.21
-0.000348809
-0.000377341
-5.96605e-07
-8.28227e-06
-0.000159322
-0.00293481
-0.0169029
-0.0187506
-0.00571036
-0.00141333
-0.0586583
-0.107881
-0.0385418
-0.00120134
-0.0034917
-0.0104967
-1.65024e-07
-1211.68
-2352.65
-0.000380292
-0.000360455
-6.11418e-07
-6.11423e-07
-6.11418e-07
-9.5661e-07
-3.53817e-06
-1.92109e-05
-9.59268e-05
-0.000794318
-0.00518243
-0.00844708
-0.00848494
-0.0223414
-0.0350906
-0.0350533
-1.69123e-07
-721.787
-2410.53
-0.000286224
-0.000679867
-0.00293679
-0.00362486
-7.35347e-05
-6.26237e-07
-6.26241e-07
-6.26237e-07
-6.26241e-07
-6.26237e-07
-0.00317615
-0.00330432
-0.018932
-0.0302605
-0.0271076
-0.0102825
-0.000168454
-1.73222e-07
-2440.07
-0.000292994
-0.000799393
-0.00945335
-0.0118614
-0.00539922
-6.4106e-07
-0.00199083
-0.01942
-0.0335055
-0.0412932
-0.0461791
-0.0458221
-0.0210298
-0.00448903
-0.000116314
-0.00202079
-0.00036618
-1.77321e-07
-2237.25
-0.000299716
-0.000507763
-0.0084641
-0.0121209
-0.00580248
-0.0060871
-0.0439448
-0.0578165
-0.0578768
-0.0578165
-0.0388701
-0.0164786
-0.00680179
-1.76816e-06
3.3412e-25
-0.0016693
2.14569e-21
-3.36568
-724.752
-0.00381784
-0.00307693
-0.00198955
-0.00416924
-0.00181754
-0.00183307
-0.0131893
-0.0324092
-0.0460616
-0.0252669
-0.00363556
-3.73084e-05
-8.66176e-05
2.13645e-25
3.66783e-27
4.37297e-29
1.1036e-20
-0.644425
-6.11226
)
;

boundaryField
{
    leftWall
    {
        type            calculated;
        value           nonuniform List<scalar> 
50
(
-29.4294
-88.2881
-147.147
-206.006
-264.864
-323.723
-382.582
-441.44
-528.397
-360.526
-8.39754e-36
-7.47955e-17
-2.70857e-15
-5.2534e-15
-6.12239e-15
-6.00143e-15
-3.71615e-15
-1.71229e-15
-6.50901e-16
-2.03365e-16
-5.18373e-17
-1.06837e-17
-1.75457e-18
-2.24866e-19
-2.1816e-20
-1.53682e-21
-7.35046e-23
-2.17628e-24
-3.6147e-26
-5.24387e-28
-1.87733e-29
-3.27384e-31
-1.13159e-36
-6.65732e-41
-2.95396e-44
-7.18044e-50
-2.00347e-53
-7.20229e-60
-3.74185e-65
-2.16193e-69
-2.39106e-72
-2.81338e-71
-6.91922e-70
-1.7373e-68
-4.59756e-67
-1.24774e-65
-3.35094e-64
-7.48333e-63
-6.98721e-62
-1.636e-61
)
;
    }
    rightWall
    {
        type            calculated;
        value           nonuniform List<scalar> 
50
(
-17.9147
-40.5664
-96.7979
-147.635
-189.816
-231.998
-274.154
-241.67
-253.698
-376.866
-568.369
-726.418
-881.286
-1056.39
-1259.69
-1400.46
-1527.01
-1651.55
-1776.09
-1900.63
-1959.77
-2049.35
-2191.28
-2361.02
-2483.54
-2364.8
-1150.44
-462.546
-482.431
-502.316
-550.112
-647.126
-756.662
-761.018
-678.565
-549.556
-768.481
-962.976
-992.18
-372.064
-245.695
-879.756
-2235.78
-2294.21
-2352.65
-2410.53
-2440.07
-2237.25
-724.752
-6.11226
)
;
    }
    lowerWall
    {
        type            calculated;
        value           nonuniform List<scalar> 
62
(
0
0
0
0
0
0
0
0
0
0
0
0
0
0
0
0
0
0
0
0
0
0
0
-29.4191
-88.256
-147.093
-205.98
-264.864
-323.723
-382.582
-441.44
-470.637
-470.785
-470.785
-455.482
-1.4094e-18
-1.34559e-16
-6.38198e-15
-1.17169e-13
-1.3892e-12
-1.02132e-11
-4.84221e-09
-2.00723e-11
0
0
0
0
0
0
0
0
0
0
0
0
0
0
0
0
0
0
0
)
;
    }
    atmosphere
    {
        type            calculated;
        value           nonuniform List<scalar> 
46
(
-0
-0
-0
-0
-0
-0
-0
-0
-0
-0
-0
-0
-0
-0
-0
-0
-0
-0
-0
-0
-0
-0
-1.17603e-07
-9.31599e-07
-9.31815e-06
-0.000237307
-0.00220726
-0.00386001
-0.00311092
-0.00201153
-0.0042153
-0.00183762
-0.00185332
-0.013335
-0.0327673
-0.0465705
-0.025546
-0.00367573
-3.77206e-05
-8.75745e-05
-0
-0
-0
1.11579e-20
-0.651544
-6.17979
)
;
    }
    defaultFaces
    {
        type            empty;
    }
}


// ************************************************************************* //
