/*--------------------------------*- C++ -*----------------------------------*\
| =========                 |                                                 |
| \\      /  F ield         | OpenFOAM: The Open Source CFD Toolbox           |
|  \\    /   O peration     | Version:  2012                                  |
|   \\  /    A nd           | Website:  www.openfoam.com                      |
|    \\/     M anipulation  |                                                 |
\*---------------------------------------------------------------------------*/
FoamFile
{
    version     2.0;
    format      ascii;
    class       volVectorField;
    location    "0.49";
    object      Uc;
}
// * * * * * * * * * * * * * * * * * * * * * * * * * * * * * * * * * * * * * //

dimensions      [0 1 -1 0 0 0 0];


internalField   nonuniform List<vector> 
2268
(
(0.0141086 -0.00666763 0)
(0.0427277 -0.0068575 0)
(0.0705721 -0.00630155 0)
(0.0965633 -0.00598169 0)
(0.12189 -0.00598761 0)
(0.147803 -0.00625847 0)
(0.172117 -0.00523242 0)
(0.19301 -0.00464141 0)
(0.212006 -0.00433573 0)
(0.228157 -0.00329728 0)
(0.240698 -0.00262919 0)
(0.250428 -0.00196957 0)
(0.257714 -0.00147337 0)
(0.261304 -0.000223278 0)
(0.259269 0.00118482 0)
(0.2522 0.00215635 0)
(0.240737 0.00326076 0)
(0.224573 0.00437822 0)
(0.203006 0.00581412 0)
(0.173973 0.00790679 0)
(0.137173 0.00948481 0)
(0.0924876 0.0116333 0)
(0.0339359 0.0160382 0)
(0.0140443 -0.0199725 0)
(0.042643 -0.0205933 0)
(0.0706829 -0.0189763 0)
(0.0969312 -0.0179949 0)
(0.122373 -0.017967 0)
(0.148189 -0.0187257 0)
(0.172368 -0.015683 0)
(0.19337 -0.0139902 0)
(0.212621 -0.0130617 0)
(0.228659 -0.00978377 0)
(0.241267 -0.00802782 0)
(0.25152 -0.00601493 0)
(0.25849 -0.004165 0)
(0.261524 -0.000662408 0)
(0.259743 0.00342718 0)
(0.253138 0.00637694 0)
(0.241914 0.00976175 0)
(0.22529 0.0133726 0)
(0.202234 0.0179081 0)
(0.170741 0.0244172 0)
(0.129969 0.0296347 0)
(0.0790179 0.0366808 0)
(0.0253169 0.0440413 0)
(0.0139877 -0.0332202 0)
(0.0426296 -0.034397 0)
(0.0709652 -0.0318152 0)
(0.0975747 -0.0301362 0)
(0.123216 -0.0299671 0)
(0.148875 -0.0310521 0)
(0.172833 -0.0261059 0)
(0.194149 -0.0235666 0)
(0.213796 -0.0218679 0)
(0.230129 -0.0162758 0)
(0.243284 -0.0137112 0)
(0.253986 -0.0102342 0)
(0.260796 -0.00645847 0)
(0.263485 -0.0010735 0)
(0.262384 0.00520021 0)
(0.257085 0.0102301 0)
(0.24696 0.0159977 0)
(0.231725 0.0221931 0)
(0.210797 0.0298739 0)
(0.182138 0.0408788 0)
(0.144474 0.0502416 0)
(0.0939474 0.0640319 0)
(0.0322285 0.0712376 0)
(0.0139797 -0.0464374 0)
(0.0427898 -0.0483312 0)
(0.071485 -0.0448333 0)
(0.0984847 -0.0424533 0)
(0.124429 -0.0420288 0)
(0.149968 -0.0431861 0)
(0.173689 -0.0365048 0)
(0.195348 -0.0334771 0)
(0.21538 -0.0307097 0)
(0.231911 -0.0229653 0)
(0.245368 -0.0195984 0)
(0.25589 -0.0143772 0)
(0.262271 -0.00854976 0)
(0.264857 -0.00147492 0)
(0.263928 0.00656093 0)
(0.258846 0.0137757 0)
(0.248609 0.0220746 0)
(0.232501 0.0309289 0)
(0.210304 0.041519 0)
(0.180665 0.0567849 0)
(0.14261 0.0701198 0)
(0.0914557 0.0922076 0)
(0.0306633 0.10096 0)
(0.0140563 -0.059687 0)
(0.0430425 -0.0623958 0)
(0.0720021 -0.058016 0)
(0.0994356 -0.0549953 0)
(0.125821 -0.0542174 0)
(0.151365 -0.0551388 0)
(0.175027 -0.0469452 0)
(0.197272 -0.0437851 0)
(0.217855 -0.0395965 0)
(0.234825 -0.0299103 0)
(0.248974 -0.0257002 0)
(0.259999 -0.0184584 0)
(0.266873 -0.0107323 0)
(0.270028 -0.00200598 0)
(0.269537 0.00776337 0)
(0.265127 0.017059 0)
(0.256279 0.0278111 0)
(0.242385 0.0393709 0)
(0.222895 0.0527785 0)
(0.196207 0.0721453 0)
(0.161149 0.089312 0)
(0.110734 0.121017 0)
(0.0399519 0.134333 0)
(0.0142971 -0.0730865 0)
(0.0434326 -0.0764641 0)
(0.0725547 -0.0713966 0)
(0.100582 -0.0678252 0)
(0.127544 -0.0665989 0)
(0.153238 -0.0669718 0)
(0.177042 -0.0575446 0)
(0.199829 -0.0544677 0)
(0.220586 -0.0484511 0)
(0.237556 -0.0370951 0)
(0.252111 -0.0320809 0)
(0.263141 -0.0225008 0)
(0.269604 -0.0129924 0)
(0.27258 -0.00264347 0)
(0.272081 0.00886902 0)
(0.267832 0.020045 0)
(0.259259 0.0330589 0)
(0.245306 0.0472831 0)
(0.225461 0.0634558 0)
(0.198065 0.0870277 0)
(0.16243 0.107839 0)
(0.110918 0.15066 0)
(0.0395121 0.171887 0)
(0.0146652 -0.0867739 0)
(0.0439097 -0.0903667 0)
(0.0730189 -0.0850137 0)
(0.101699 -0.0810079 0)
(0.129355 -0.0792278 0)
(0.155378 -0.0787841 0)
(0.179623 -0.0684393 0)
(0.203088 -0.0654315 0)
(0.224122 -0.0572377 0)
(0.241853 -0.0447079 0)
(0.257615 -0.0387957 0)
(0.269554 -0.0266407 0)
(0.277009 -0.0154301 0)
(0.28076 -0.00338477 0)
(0.280468 0.00998432 0)
(0.276288 0.0229132 0)
(0.268583 0.0378839 0)
(0.256963 0.0545438 0)
(0.240887 0.0731709 0)
(0.218413 0.100881 0)
(0.188291 0.125062 0)
(0.138902 0.181121 0)
(0.0531696 0.215688 0)
(0.0151141 -0.100847 0)
(0.0446784 -0.104086 0)
(0.0738452 -0.0988354 0)
(0.103178 -0.0946026 0)
(0.1316 -0.0921354 0)
(0.158028 -0.0906645 0)
(0.182796 -0.0797221 0)
(0.206666 -0.0765187 0)
(0.227627 -0.0659975 0)
(0.246035 -0.0530267 0)
(0.262542 -0.0457269 0)
(0.27428 -0.0308992 0)
(0.281533 -0.0181222 0)
(0.285013 -0.00410999 0)
(0.284476 0.0111012 0)
(0.280616 0.0255965 0)
(0.273843 0.0420426 0)
(0.263262 0.0608772 0)
(0.247987 0.0816538 0)
(0.22559 0.113604 0)
(0.195505 0.140792 0)
(0.1466 0.211845 0)
(0.0570762 0.267789 0)
(-0.0452813 0.0223377 0)
(-0.142278 0.025074 0)
(-0.198269 0.00489549 0)
(-0.179792 -0.00660213 0)
(-0.154929 0.00217835 0)
(-0.285048 0.0593124 0)
(-0.73159 0.136751 0)
(-1.46145 0.179869 0)
(-2.16229 0.124507 0)
(-2.54204 0.0442448 0)
(-2.62446 -0.00165052 0)
(-2.56956 -0.0159214 0)
(-2.42351 -0.0418921 0)
(-2.18222 -0.0567248 0)
(-1.93765 -0.0433173 0)
(-1.77571 -0.0218034 0)
(-1.67617 -0.0167407 0)
(-1.37991 -0.104792 0)
(-0.56386 -0.238522 0)
(-0.0497289 0.0689048 0)
(-0.155828 0.077202 0)
(-0.215885 0.0144361 0)
(-0.182459 -0.0259146 0)
(-0.134626 0.00287258 0)
(-0.239056 0.170675 0)
(-0.593367 0.378288 0)
(-1.16386 0.503806 0)
(-1.77745 0.372505 0)
(-2.21579 0.15862 0)
(-2.37254 0.000648033 0)
(-2.26479 -0.0747238 0)
(-2.0277 -0.13526 0)
(-1.84093 -0.134897 0)
(-1.75095 -0.0961317 0)
(-1.72251 -0.0385582 0)
(-1.67328 -0.0527618 0)
(-1.32913 -0.330058 0)
(-0.518806 -0.696033 0)
(-0.0564115 0.120206 0)
(-0.175678 0.134068 0)
(-0.243135 0.0241155 0)
(-0.180284 -0.0642412 0)
(-0.0668418 -0.0150975 0)
(-0.107241 0.262544 0)
(-0.423282 0.583823 0)
(-1.02212 0.808041 0)
(-1.75079 0.652122 0)
(-2.39104 0.351263 0)
(-2.82438 0.0725252 0)
(-3.09085 -0.0661892 0)
(-3.3161 -0.136329 0)
(-3.45488 -0.141184 0)
(-3.33866 -0.162862 0)
(-2.92683 -0.143426 0)
(-2.22193 -0.253213 0)
(-1.26018 -0.670199 0)
(-0.367572 -1.07017 0)
(-0.0637828 0.177485 0)
(-0.198266 0.197029 0)
(-0.27545 0.0349839 0)
(-0.177427 -0.131237 0)
(0.0173325 -0.0668981 0)
(0.0673967 0.322533 0)
(-0.141759 0.759509 0)
(-0.646049 1.11395 0)
(-1.32082 0.955744 0)
(-1.89455 0.576449 0)
(-2.25385 0.196704 0)
(-2.5495 0.0608649 0)
(-2.89924 -0.0066911 0)
(-3.16929 -0.0841126 0)
(-3.16576 -0.256982 0)
(-2.67958 -0.416666 0)
(-1.79936 -0.637952 0)
(-0.883335 -1.06844 0)
(-0.227925 -1.32137 0)
(-0.0679646 0.239677 0)
(-0.233111 0.274589 0)
(-0.327496 0.0426992 0)
(-0.160041 -0.239598 0)
(0.142382 -0.157744 0)
(0.281838 0.345056 0)
(0.190216 0.877206 0)
(-0.169038 1.37592 0)
(-0.734743 1.2339 0)
(-1.20718 0.755629 0)
(-1.4278 0.276421 0)
(-1.51644 0.156879 0)
(-1.58068 0.0856095 0)
(-1.59725 -0.0420936 0)
(-1.57848 -0.295864 0)
(-1.49895 -0.605773 0)
(-1.22376 -0.926034 0)
(-0.692144 -1.38112 0)
(-0.183994 -1.49486 0)
(-0.0699312 0.304484 0)
(-0.20291 0.348891 0)
(-0.194698 0.0173405 0)
(0.0367324 -0.371629 0)
(0.316211 -0.260974 0)
(0.486546 0.328767 0)
(0.523742 0.928912 0)
(0.406298 1.5393 0)
(0.111634 1.44894 0)
(-0.262856 0.913274 0)
(-0.582376 0.360854 0)
(-0.829594 0.227599 0)
(-0.952972 0.106958 0)
(-0.882577 -0.0740647 0)
(-0.693954 -0.339874 0)
(-0.622291 -0.613875 0)
(-0.660358 -1.00558 0)
(-0.464866 -1.59581 0)
(-0.132816 -1.62781 0)
(-0.0572659 0.364739 0)
(-0.0666731 0.361493 0)
(0.136452 -0.0728469 0)
(0.335424 -0.452016 0)
(0.481906 -0.349186 0)
(0.689189 0.268747 0)
(0.777692 0.947735 0)
(0.758955 1.59066 0)
(0.720453 1.55166 0)
(0.545319 1.05679 0)
(0.213168 0.506909 0)
(-0.133854 0.346632 0)
(-0.338899 0.139921 0)
(-0.334969 -0.126355 0)
(-0.178574 -0.422049 0)
(-0.0708365 -0.595706 0)
(-0.144475 -0.963626 0)
(-0.194733 -1.68493 0)
(-0.0826352 -1.71771 0)
(0.0266003 0.383926 0)
(0.174709 0.295541 0)
(0.39145 -0.172223 0)
(0.440208 -0.443463 0)
(0.46338 -0.415318 0)
(0.726597 0.148427 0)
(0.973874 0.937899 0)
(1.04329 1.59125 0)
(1.11678 1.54849 0)
(1.11166 1.14905 0)
(0.871947 0.670311 0)
(0.541953 0.483554 0)
(0.27264 0.217091 0)
(0.130089 -0.132261 0)
(0.136928 -0.473274 0)
(0.210497 -0.609298 0)
(0.181892 -0.894226 0)
(0.0150729 -1.64776 0)
(-0.0414057 -1.76798 0)
(0.0156322 -0.123703 0)
(0.0457488 -0.125474 0)
(0.0752002 -0.120835 0)
(0.105304 -0.116726 0)
(0.134698 -0.11299 0)
(0.161931 -0.109673 0)
(0.187839 -0.0984605 0)
(0.212777 -0.0941279 0)
(0.234829 -0.0804613 0)
(0.255471 -0.0680111 0)
(0.273842 -0.0570097 0)
(0.287324 -0.0387167 0)
(0.2967 -0.0231566 0)
(0.301616 -0.00566214 0)
(0.30158 0.0129433 0)
(0.297599 0.0295806 0)
(0.290746 0.0481481 0)
(0.284431 0.066121 0)
(0.280157 0.0879253 0)
(0.280809 0.117262 0)
(0.287147 0.144981 0)
(0.305971 0.211847 0)
(0.330828 0.28511 0)
(0.0165069 -0.156153 0)
(0.0476155 -0.154853 0)
(0.0777276 -0.151609 0)
(0.109218 -0.148137 0)
(0.140069 -0.142393 0)
(0.168571 -0.136536 0)
(0.196095 -0.125525 0)
(0.222401 -0.118764 0)
(0.245886 -0.101756 0)
(0.267518 -0.0893301 0)
(0.285069 -0.071879 0)
(0.298199 -0.0506398 0)
(0.307491 -0.0300105 0)
(0.311273 -0.00754805 0)
(0.311199 0.0149457 0)
(0.308932 0.0338597 0)
(0.304961 0.0547497 0)
(0.299402 0.0714559 0)
(0.291439 0.0948919 0)
(0.287723 0.113375 0)
(0.293558 0.136632 0)
(0.317153 0.177556 0)
(0.366057 0.245258 0)
(0.0135868 -0.186518 0)
(0.0380812 -0.180607 0)
(0.0623603 -0.18075 0)
(0.0899327 -0.17858 0)
(0.118532 -0.171916 0)
(0.147463 -0.164922 0)
(0.177191 -0.154831 0)
(0.205853 -0.144841 0)
(0.232707 -0.126402 0)
(0.258414 -0.112391 0)
(0.281389 -0.089674 0)
(0.303488 -0.0683823 0)
(0.321565 -0.0399138 0)
(0.333249 -0.0133489 0)
(0.340539 0.0133099 0)
(0.342242 0.0358976 0)
(0.338724 0.0601673 0)
(0.329402 0.0853549 0)
(0.318128 0.104695 0)
(0.317485 0.107953 0)
(0.330038 0.12357 0)
(0.355315 0.141491 0)
(0.400888 0.186356 0)
(0.00396262 -0.204095 0)
(0.012296 -0.1959 0)
(0.0206317 -0.198112 0)
(0.0286327 -0.196847 0)
(0.0362612 -0.189941 0)
(0.0437002 -0.183319 0)
(0.0504054 -0.172906 0)
(0.0563312 -0.161397 0)
(0.0604797 -0.140899 0)
(0.0633234 -0.126519 0)
(0.0596048 -0.0948661 0)
(0.0486557 -0.0744047 0)
(0.0111597 -0.014415 0)
(-0.0290346 -0.0102105 0)
(0.03587 -0.0624073 0)
(0.173515 -0.0284141 0)
(0.260057 0.041205 0)
(0.28577 0.0923437 0)
(0.298073 0.100988 0)
(0.318149 0.0920532 0)
(0.339163 0.110216 0)
(0.359628 0.113358 0)
(0.391317 0.136827 0)
(2.66359e-05 -0.208034 0)
(0.00229098 -0.202472 0)
(0.00466688 -0.202165 0)
(0.00463811 -0.200664 0)
(0.00442069 -0.19343 0)
(0.00429056 -0.187033 0)
(0.0034762 -0.174967 0)
(0.00306538 -0.164731 0)
(0.00402201 -0.142547 0)
(0.0076955 -0.131271 0)
(0.016103 -0.0946742 0)
(0.03146 -0.0788723 0)
(0.0532477 0.00600094 0)
(0.0818612 -0.0187638 0)
(0.110351 -0.147471 0)
(0.1345 -0.105692 0)
(0.16337 0.00283193 0)
(0.191297 0.0771455 0)
(0.224254 0.0709849 0)
(0.267561 0.0586408 0)
(0.307394 0.0871427 0)
(0.347339 0.0801238 0)
(0.392987 0.0922089 0)
(-0.000479654 -0.207508 0)
(-0.000728839 -0.204882 0)
(-0.000906421 -0.201822 0)
(-0.00193401 -0.199803 0)
(-0.0035102 -0.192347 0)
(-0.00546819 -0.185874 0)
(-0.00765913 -0.172959 0)
(-0.00920654 -0.164623 0)
(-0.00828559 -0.144393 0)
(-0.00390791 -0.137366 0)
(0.0106334 -0.111494 0)
(0.0397883 -0.106641 0)
(0.101984 -0.0504932 0)
(0.177876 -0.0671577 0)
(0.181841 -0.131536 0)
(0.131855 -0.0954889 0)
(0.122418 -0.0267127 0)
(0.158502 0.0426394 0)
(0.193257 0.0378759 0)
(0.207593 0.0343177 0)
(0.216675 0.0627092 0)
(0.249354 0.0317926 0)
(0.313142 0.0307072 0)
(0.000509829 -0.207467 0)
(0.00172485 -0.205752 0)
(0.00286669 -0.20178 0)
(0.00368463 -0.199492 0)
(0.0045463 -0.191796 0)
(0.00603926 -0.185813 0)
(0.00816946 -0.172814 0)
(0.0112129 -0.166125 0)
(0.0157121 -0.14819 0)
(0.0208825 -0.143016 0)
(0.0269369 -0.126394 0)
(0.0338419 -0.127833 0)
(0.0440987 -0.101973 0)
(0.0578801 -0.105657 0)
(0.0781483 -0.117231 0)
(0.10943 -0.0908239 0)
(0.148272 -0.0607625 0)
(0.197873 -0.0092629 0)
(0.250145 0.00249629 0)
(0.283187 0.0223091 0)
(0.290477 0.0585852 0)
(0.270185 0.0238865 0)
(0.244843 0.000366436 0)
(0.000814129 -0.208728 0)
(0.00232236 -0.207088 0)
(0.00420469 -0.203343 0)
(0.0065648 -0.200982 0)
(0.00916442 -0.193643 0)
(0.0125475 -0.188724 0)
(0.0170194 -0.176394 0)
(0.022446 -0.170913 0)
(0.0297032 -0.155072 0)
(0.0378912 -0.149411 0)
(0.0476202 -0.135711 0)
(0.0587476 -0.136487 0)
(0.0734659 -0.118266 0)
(0.0889768 -0.118647 0)
(0.0893278 -0.124802 0)
(0.081866 -0.107028 0)
(0.0859142 -0.0874988 0)
(0.107406 -0.053812 0)
(0.148477 -0.0466002 0)
(0.205429 -0.0188674 0)
(0.271113 0.0266063 0)
(0.32146 0.025865 0)
(0.331193 0.0142971 0)
(0.00188899 -0.211375 0)
(0.00584192 -0.20979 0)
(0.010114 -0.206687 0)
(0.0145504 -0.204329 0)
(0.0190061 -0.197246 0)
(0.0237938 -0.193192 0)
(0.0291412 -0.181653 0)
(0.0347174 -0.176569 0)
(0.0407245 -0.162603 0)
(0.0463593 -0.155626 0)
(0.0505927 -0.143379 0)
(0.0528138 -0.142082 0)
(0.0549239 -0.12943 0)
(0.0581449 -0.126153 0)
(0.0632161 -0.122583 0)
(0.0711546 -0.109558 0)
(0.0799967 -0.0977534 0)
(0.0915565 -0.0766041 0)
(0.101556 -0.0749613 0)
(0.112624 -0.0586933 0)
(0.144378 -0.0313193 0)
(0.20354 -0.0260856 0)
(0.27124 -0.0113775 0)
(0.00245447 -0.215672 0)
(0.00755187 -0.214453 0)
(0.0128103 -0.211466 0)
(0.0181317 -0.209219 0)
(0.0236211 -0.202213 0)
(0.0294215 -0.198727 0)
(0.036084 -0.188048 0)
(0.0434047 -0.182994 0)
(0.0518868 -0.170596 0)
(0.0613675 -0.162679 0)
(0.0708967 -0.15001 0)
(0.0792571 -0.145934 0)
(0.0862384 -0.13456 0)
(0.0921292 -0.130023 0)
(0.0934949 -0.125021 0)
(0.0923598 -0.113793 0)
(0.0930278 -0.102908 0)
(0.096235 -0.0861179 0)
(0.10098 -0.0800867 0)
(0.106169 -0.0697233 0)
(0.11047 -0.0563389 0)
(0.111271 -0.0611412 0)
(0.117251 -0.0501787 0)
(0.00327379 -0.221362 0)
(0.00988446 -0.220395 0)
(0.0165543 -0.217377 0)
(0.0232593 -0.21526 0)
(0.0300932 -0.208422 0)
(0.0370612 -0.205214 0)
(0.0444076 -0.195502 0)
(0.0518633 -0.190251 0)
(0.0596561 -0.179555 0)
(0.0680132 -0.171505 0)
(0.0766703 -0.159317 0)
(0.0847848 -0.153038 0)
(0.0920283 -0.141602 0)
(0.0983639 -0.135114 0)
(0.10349 -0.126295 0)
(0.108113 -0.115859 0)
(0.11145 -0.104698 0)
(0.113839 -0.0897785 0)
(0.112994 -0.0801666 0)
(0.10803 -0.0696847 0)
(0.102357 -0.0548079 0)
(0.0936986 -0.0545758 0)
(0.0778567 -0.0466259 0)
(0.00372396 -0.228329 0)
(0.0111792 -0.227433 0)
(0.0186943 -0.224463 0)
(0.0263363 -0.22246 0)
(0.0342747 -0.215935 0)
(0.0424791 -0.212815 0)
(0.051167 -0.20388 0)
(0.0602035 -0.19831 0)
(0.0696663 -0.188698 0)
(0.0797974 -0.180802 0)
(0.090584 -0.169419 0)
(0.101385 -0.161801 0)
(0.111412 -0.150046 0)
(0.120136 -0.141653 0)
(0.126319 -0.130966 0)
(0.130446 -0.11982 0)
(0.133263 -0.106758 0)
(0.135249 -0.0919453 0)
(0.136459 -0.07819 0)
(0.135652 -0.065678 0)
(0.131036 -0.0482843 0)
(0.120262 -0.0413715 0)
(0.104072 -0.0274298 0)
(0.00453302 -0.236563 0)
(0.0136319 -0.235707 0)
(0.0227768 -0.232803 0)
(0.0319506 -0.23089 0)
(0.0412111 -0.224659 0)
(0.0504201 -0.221459 0)
(0.0597004 -0.213161 0)
(0.0688803 -0.207203 0)
(0.0779341 -0.198279 0)
(0.0869107 -0.190287 0)
(0.0958338 -0.179602 0)
(0.104483 -0.171022 0)
(0.112787 -0.159101 0)
(0.120571 -0.14904 0)
(0.127342 -0.136444 0)
(0.133072 -0.12409 0)
(0.13722 -0.109326 0)
(0.139869 -0.0938687 0)
(0.140289 -0.0777311 0)
(0.137495 -0.062339 0)
(0.13126 -0.0405316 0)
(0.120201 -0.0269866 0)
(0.101238 -0.00628067 0)
(0.00496415 -0.246044 0)
(0.0149411 -0.24527 0)
(0.0250613 -0.242475 0)
(0.0352986 -0.240599 0)
(0.0457132 -0.234595 0)
(0.0561897 -0.231178 0)
(0.0668506 -0.223353 0)
(0.0776538 -0.216962 0)
(0.0884808 -0.208366 0)
(0.0992756 -0.199934 0)
(0.109884 -0.189446 0)
(0.120098 -0.179995 0)
(0.129634 -0.167915 0)
(0.138335 -0.156648 0)
(0.145854 -0.143047 0)
(0.152016 -0.129283 0)
(0.156909 -0.11306 0)
(0.160575 -0.0963168 0)
(0.162782 -0.0777532 0)
(0.162917 -0.0594694 0)
(0.160761 -0.034786 0)
(0.155663 -0.0163054 0)
(0.146366 0.011638 0)
(0.00563575 -0.256635 0)
(0.0169316 -0.255934 0)
(0.0282145 -0.253197 0)
(0.0394335 -0.251317 0)
(0.0506789 -0.245521 0)
(0.0618125 -0.241845 0)
(0.0729239 -0.23444 0)
(0.0840061 -0.227741 0)
(0.0950319 -0.21942 0)
(0.105969 -0.21059 0)
(0.116815 -0.200218 0)
(0.127343 -0.189933 0)
(0.137366 -0.177495 0)
(0.146773 -0.165123 0)
(0.155356 -0.150607 0)
(0.16301 -0.135456 0)
(0.169444 -0.118117 0)
(0.174393 -0.0997588 0)
(0.177332 -0.0793181 0)
(0.17757 -0.0581077 0)
(0.174901 -0.0311219 0)
(0.168512 -0.00824201 0)
(0.156246 0.0254378 0)
(0.00620512 -0.268476 0)
(0.0186358 -0.26782 0)
(0.031045 -0.265002 0)
(0.0433858 -0.263069 0)
(0.0557982 -0.257424 0)
(0.0681941 -0.253466 0)
(0.0806287 -0.246359 0)
(0.0931015 -0.239371 0)
(0.105506 -0.231211 0)
(0.11776 -0.221978 0)
(0.129793 -0.211692 0)
(0.141585 -0.200757 0)
(0.153 -0.18808 0)
(0.163883 -0.17479 0)
(0.174089 -0.159681 0)
(0.183418 -0.143304 0)
(0.191909 -0.125119 0)
(0.19931 -0.105014 0)
(0.205409 -0.0829858 0)
(0.209699 -0.0588246 0)
(0.212084 -0.0299487 0)
(0.212006 -0.00273855 0)
(0.207965 0.036508 0)
(0.00673333 -0.281421 0)
(0.0202003 -0.280785 0)
(0.0336482 -0.277906 0)
(0.0470088 -0.275877 0)
(0.0603747 -0.270405 0)
(0.0736741 -0.266191 0)
(0.0869471 -0.25935 0)
(0.100221 -0.252133 0)
(0.113456 -0.244093 0)
(0.126585 -0.234481 0)
(0.139566 -0.224202 0)
(0.152314 -0.21278 0)
(0.164735 -0.199881 0)
(0.176773 -0.18589 0)
(0.188285 -0.170269 0)
(0.199145 -0.152864 0)
(0.209213 -0.134065 0)
(0.218183 -0.112372 0)
(0.225924 -0.0893835 0)
(0.231842 -0.0625266 0)
(0.236012 -0.0326692 0)
(0.237712 -0.00147871 0)
(0.236053 0.0411539 0)
(0.00734508 -0.295513 0)
(0.0220422 -0.294885 0)
(0.0366916 -0.291931 0)
(0.0512051 -0.289752 0)
(0.0656862 -0.284402 0)
(0.080084 -0.279914 0)
(0.0944072 -0.273245 0)
(0.108666 -0.265791 0)
(0.122859 -0.257881 0)
(0.137039 -0.248017 0)
(0.1512 -0.23782 0)
(0.1653 -0.226019 0)
(0.179215 -0.212983 0)
(0.192913 -0.198522 0)
(0.206332 -0.182559 0)
(0.219366 -0.164451 0)
(0.232014 -0.145167 0)
(0.244079 -0.122265 0)
(0.255554 -0.0986553 0)
(0.266049 -0.0695968 0)
(0.275768 -0.0393992 0)
(0.283861 -0.00442891 0)
(0.290041 0.0397304 0)
(0.00793816 -0.310818 0)
(0.0238257 -0.310208 0)
(0.0396594 -0.307134 0)
(0.0553389 -0.304783 0)
(0.070983 -0.299536 0)
(0.0865685 -0.294802 0)
(0.102108 -0.288256 0)
(0.117605 -0.280571 0)
(0.133041 -0.272765 0)
(0.148413 -0.262717 0)
(0.16374 -0.252637 0)
(0.178999 -0.240587 0)
(0.194119 -0.227473 0)
(0.209148 -0.212778 0)
(0.223989 -0.196576 0)
(0.238585 -0.17807 0)
(0.252867 -0.158479 0)
(0.266734 -0.134875 0)
(0.280191 -0.110961 0)
(0.293001 -0.0805665 0)
(0.305438 -0.0505451 0)
(0.316793 -0.012674 0)
(0.327489 0.0311748 0)
(0.00829249 -0.327078 0)
(0.0248895 -0.326491 0)
(0.0414958 -0.323348 0)
(0.0580307 -0.320839 0)
(0.0745986 -0.315747 0)
(0.091193 -0.310824 0)
(0.107782 -0.304415 0)
(0.124408 -0.296587 0)
(0.141092 -0.288919 0)
(0.157831 -0.278722 0)
(0.174638 -0.268812 0)
(0.1915 -0.256578 0)
(0.208349 -0.243493 0)
(0.22526 -0.228736 0)
(0.242177 -0.212412 0)
(0.259089 -0.193772 0)
(0.276015 -0.174013 0)
(0.293005 -0.15022 0)
(0.310142 -0.126229 0)
(0.327393 -0.095371 0)
(0.34505 -0.0658416 0)
(0.362596 -0.0262769 0)
(0.380653 0.0160317 0)
(0.00880653 -0.344212 0)
(0.0264232 -0.343641 0)
(0.0440763 -0.340528 0)
(0.0617171 -0.337904 0)
(0.0794374 -0.33304 0)
(0.0972481 -0.328006 0)
(0.115113 -0.321755 0)
(0.133056 -0.313883 0)
(0.151099 -0.306418 0)
(0.169221 -0.296151 0)
(0.187474 -0.286509 0)
(0.205852 -0.274186 0)
(0.224288 -0.261232 0)
(0.242877 -0.246559 0)
(0.261505 -0.230195 0)
(0.280155 -0.211607 0)
(0.298803 -0.191808 0)
(0.317552 -0.168218 0)
(0.336485 -0.144353 0)
(0.355816 -0.11388 0)
(0.376002 -0.0852301 0)
(0.396783 -0.0452689 0)
(0.419323 -0.00563413 0)
(0.00878593 -0.361844 0)
(0.0263353 -0.361254 0)
(0.044007 -0.35832 0)
(0.061855 -0.355681 0)
(0.0799429 -0.351152 0)
(0.0983544 -0.346199 0)
(0.11711 -0.340267 0)
(0.136237 -0.332525 0)
(0.1557 -0.325368 0)
(0.175437 -0.315146 0)
(0.19549 -0.305907 0)
(0.215828 -0.293592 0)
(0.236421 -0.280942 0)
(0.257365 -0.26647 0)
(0.278578 -0.250213 0)
(0.300072 -0.231821 0)
(0.321852 -0.212108 0)
(0.344065 -0.188966 0)
(0.366812 -0.165371 0)
(0.39041 -0.13588 0)
(0.415167 -0.108271 0)
(0.441111 -0.0690564 0)
(0.469624 -0.0330229 0)
(0.00889386 -0.379566 0)
(0.0265957 -0.378867 0)
(0.0444765 -0.376344 0)
(0.0626689 -0.373784 0)
(0.0811756 -0.369733 0)
(0.100154 -0.3651 0)
(0.119658 -0.359722 0)
(0.139746 -0.352386 0)
(0.16037 -0.345699 0)
(0.181454 -0.335743 0)
(0.203072 -0.32709 0)
(0.225153 -0.31494 0)
(0.247689 -0.302837 0)
(0.270739 -0.288686 0)
(0.29419 -0.272778 0)
(0.318098 -0.254776 0)
(0.342433 -0.235388 0)
(0.367325 -0.212913 0)
(0.392829 -0.189802 0)
(0.41923 -0.161582 0)
(0.446809 -0.135047 0)
(0.475905 -0.0974736 0)
(0.508058 -0.0654527 0)
(0.00836022 -0.396862 0)
(0.0249913 -0.395987 0)
(0.0418839 -0.394083 0)
(0.0592301 -0.391672 0)
(0.0770629 -0.388277 0)
(0.0956362 -0.384207 0)
(0.115038 -0.379624 0)
(0.135394 -0.373039 0)
(0.156698 -0.367092 0)
(0.178867 -0.357727 0)
(0.20198 -0.349966 0)
(0.226023 -0.338325 0)
(0.251083 -0.327189 0)
(0.277156 -0.313604 0)
(0.304109 -0.298418 0)
(0.331939 -0.281033 0)
(0.360509 -0.262197 0)
(0.389834 -0.240485 0)
(0.419859 -0.217929 0)
(0.450861 -0.191037 0)
(0.483065 -0.165562 0)
(0.517021 -0.130213 0)
(0.554124 -0.102201 0)
(0.00793107 -0.413193 0)
(0.0237564 -0.41219 0)
(0.0398451 -0.410941 0)
(0.0563638 -0.408764 0)
(0.0734125 -0.406156 0)
(0.0912424 -0.402828 0)
(0.109984 -0.399252 0)
(0.129874 -0.393773 0)
(0.151071 -0.388984 0)
(0.173633 -0.380704 0)
(0.197573 -0.374189 0)
(0.222758 -0.363487 0)
(0.249299 -0.353795 0)
(0.277162 -0.341114 0)
(0.30625 -0.327137 0)
(0.336594 -0.310683 0)
(0.368035 -0.292762 0)
(0.40053 -0.271953 0)
(0.433966 -0.250139 0)
(0.468619 -0.22471 0)
(0.504689 -0.200401 0)
(0.542841 -0.167738 0)
(0.58433 -0.143555 0)
(0.00710576 -0.428264 0)
(0.0213563 -0.427264 0)
(0.0358595 -0.426531 0)
(0.0507693 -0.424679 0)
(0.0662751 -0.422878 0)
(0.0825991 -0.42035 0)
(0.0999162 -0.417888 0)
(0.118524 -0.413745 0)
(0.138684 -0.410493 0)
(0.160681 -0.403895 0)
(0.184734 -0.399147 0)
(0.210814 -0.389967 0)
(0.238987 -0.382217 0)
(0.269059 -0.370832 0)
(0.30097 -0.358639 0)
(0.334775 -0.343563 0)
(0.370315 -0.327109 0)
(0.40741 -0.307456 0)
(0.445796 -0.286725 0)
(0.485616 -0.262878 0)
(0.526843 -0.239822 0)
(0.570218 -0.210156 0)
(0.616983 -0.189735 0)
(0.00637347 -0.441773 0)
(0.0192043 -0.440896 0)
(0.032265 -0.440524 0)
(0.0457113 -0.439107 0)
(0.0597759 -0.438091 0)
(0.0746359 -0.436399 0)
(0.0904784 -0.435086 0)
(0.107576 -0.432353 0)
(0.126181 -0.430766 0)
(0.146632 -0.426205 0)
(0.169293 -0.423707 0)
(0.194432 -0.416804 0)
(0.222335 -0.411658 0)
(0.252859 -0.402211 0)
(0.285962 -0.39252 0)
(0.321614 -0.379405 0)
(0.359601 -0.36508 0)
(0.399629 -0.346912 0)
(0.441456 -0.3278 0)
(0.485122 -0.305622 0)
(0.530296 -0.283825 0)
(0.577769 -0.257369 0)
(0.628949 -0.240868 0)
(0.0055008 -0.45367 0)
(0.0165859 -0.452962 0)
(0.0278686 -0.452851 0)
(0.0395053 -0.451916 0)
(0.0517304 -0.45163 0)
(0.0647125 -0.450768 0)
(0.0786814 -0.450605 0)
(0.0939308 -0.449271 0)
(0.110729 -0.449356 0)
(0.129417 -0.446876 0)
(0.150292 -0.446716 0)
(0.17366 -0.442471 0)
(0.199948 -0.44038 0)
(0.229314 -0.433604 0)
(0.262059 -0.427231 0)
(0.29826 -0.416831 0)
(0.337756 -0.405449 0)
(0.38029 -0.389443 0)
(0.425644 -0.372811 0)
(0.473462 -0.352476 0)
(0.523105 -0.332185 0)
(0.575449 -0.309246 0)
(0.631882 -0.297063 0)
(0.00477522 -0.463963 0)
(0.0143934 -0.463407 0)
(0.0241784 -0.46351 0)
(0.0342788 -0.463034 0)
(0.0449219 -0.463426 0)
(0.0562776 -0.463363 0)
(0.0685866 -0.46435 0)
(0.082129 -0.464392 0)
(0.0971563 -0.466151 0)
(0.114 -0.465721 0)
(0.132939 -0.467815 0)
(0.154284 -0.466239 0)
(0.178392 -0.467192 0)
(0.205503 -0.463482 0)
(0.236125 -0.460971 0)
(0.270457 -0.453909 0)
(0.308604 -0.446334 0)
(0.350812 -0.433658 0)
(0.397081 -0.420609 0)
(0.446681 -0.402515 0)
(0.498811 -0.384359 0)
(0.55398 -0.365053 0)
(0.613083 -0.357301 0)
(0.00398272 -0.472733 0)
(0.0119949 -0.472292 0)
(0.0201392 -0.472581 0)
(0.0285443 -0.472497 0)
(0.0374288 -0.473524 0)
(0.0469538 -0.474186 0)
(0.0573511 -0.476282 0)
(0.0688801 -0.477592 0)
(0.0817745 -0.480947 0)
(0.0963571 -0.482444 0)
(0.112885 -0.486672 0)
(0.131686 -0.487663 0)
(0.153106 -0.491459 0)
(0.177368 -0.49078 0)
(0.204929 -0.492082 0)
(0.235999 -0.488463 0)
(0.270941 -0.485171 0)
(0.310352 -0.476785 0)
(0.354293 -0.46808 0)
(0.402453 -0.453231 0)
(0.454929 -0.43871 0)
(0.511869 -0.42331 0)
(0.573299 -0.420118 0)
(0.00338743 -0.48011 0)
(0.0101898 -0.479743 0)
(0.0170993 -0.480198 0)
(0.0242266 -0.48043 0)
(0.0317804 -0.482052 0)
(0.0399092 -0.48334 0)
(0.0488302 -0.486483 0)
(0.0587692 -0.488906 0)
(0.0699391 -0.493757 0)
(0.0826343 -0.496989 0)
(0.0970871 -0.503203 0)
(0.113606 -0.506569 0)
(0.132474 -0.512981 0)
(0.153934 -0.51515 0)
(0.178424 -0.519963 0)
(0.206142 -0.519605 0)
(0.237526 -0.520629 0)
(0.272865 -0.516392 0)
(0.311943 -0.511851 0)
(0.355062 -0.501139 0)
(0.402933 -0.491594 0)
(0.455404 -0.480329 0)
(0.512307 -0.481969 0)
(0.0027549 -0.486256 0)
(0.00827982 -0.485932 0)
(0.0138967 -0.486543 0)
(0.0196938 -0.487018 0)
(0.0258509 -0.489187 0)
(0.0324922 -0.490993 0)
(0.0398049 -0.495089 0)
(0.0479723 -0.498441 0)
(0.0571864 -0.504652 0)
(0.0676853 -0.509348 0)
(0.0796651 -0.517353 0)
(0.0933783 -0.522747 0)
(0.10905 -0.53146 0)
(0.126917 -0.53614 0)
(0.147297 -0.544012 0)
(0.170348 -0.546524 0)
(0.196449 -0.55143 0)
(0.225659 -0.550408 0)
(0.258067 -0.549626 0)
(0.294101 -0.542859 0)
(0.333787 -0.537817 0)
(0.377126 -0.530342 0)
(0.425256 -0.537462 0)
(0.0023021 -0.491313 0)
(0.00692112 -0.491019 0)
(0.0116329 -0.491786 0)
(0.0165068 -0.492449 0)
(0.0216885 -0.495101 0)
(0.0272791 -0.497322 0)
(0.033438 -0.502249 0)
(0.0403039 -0.506339 0)
(0.0480432 -0.513741 0)
(0.0568198 -0.519579 0)
(0.0668002 -0.52914 0)
(0.0781613 -0.536108 0)
(0.0910679 -0.546769 0)
(0.105697 -0.553438 0)
(0.122211 -0.563742 0)
(0.140698 -0.568489 0)
(0.161369 -0.576421 0)
(0.184133 -0.5776 0)
(0.209154 -0.580102 0)
(0.236231 -0.575758 0)
(0.264839 -0.573504 0)
(0.294837 -0.568308 0)
(0.327258 -0.580401 0)
(0.00178966 -0.495402 0)
(0.0053853 -0.49514 0)
(0.00906411 -0.496052 0)
(0.0128731 -0.496863 0)
(0.0169146 -0.49991 0)
(0.0212623 -0.502454 0)
(0.0260349 -0.508056 0)
(0.0313211 -0.512698 0)
(0.0372434 -0.521065 0)
(0.0439011 -0.52772 0)
(0.0514308 -0.538551 0)
(0.0599261 -0.546607 0)
(0.069495 -0.558812 0)
(0.0802043 -0.566814 0)
(0.0920942 -0.578866 0)
(0.105157 -0.585025 0)
(0.119375 -0.594901 0)
(0.134399 -0.59705 0)
(0.149935 -0.601366 0)
(0.165296 -0.597097 0)
(0.17974 -0.595383 0)
(0.192419 -0.58927 0)
(0.204283 -0.603895 0)
(0.00140526 -0.498592 0)
(0.00423809 -0.498369 0)
(0.00714704 -0.499402 0)
(0.0101621 -0.50033 0)
(0.013351 -0.503668 0)
(0.0167611 -0.506451 0)
(0.0204674 -0.512539 0)
(0.024516 -0.517555 0)
(0.0289854 -0.52661 0)
(0.03393 -0.533793 0)
(0.039441 -0.545541 0)
(0.0455324 -0.554233 0)
(0.0522452 -0.567506 0)
(0.0595144 -0.576145 0)
(0.067277 -0.589242 0)
(0.0753679 -0.595864 0)
(0.0834858 -0.606466 0)
(0.0909902 -0.608081 0)
(0.0971647 -0.612108 0)
(0.100577 -0.605175 0)
(0.0993207 -0.600509 0)
(0.0911584 -0.588631 0)
(0.0761578 -0.601326 0)
(0.000952412 -0.500943 0)
(0.00286473 -0.50075 0)
(0.0048051 -0.501858 0)
(0.00679025 -0.502862 0)
(0.00886271 -0.506387 0)
(0.0110375 -0.509309 0)
(0.0133544 -0.515697 0)
(0.0158279 -0.520914 0)
(0.0184997 -0.53039 0)
(0.0213856 -0.537844 0)
(0.0245161 -0.550136 0)
(0.0278566 -0.559079 0)
(0.0313666 -0.572895 0)
(0.0349052 -0.581579 0)
(0.0383268 -0.59501 0)
(0.0413175 -0.601194 0)
(0.0434576 -0.611405 0)
(0.0438483 -0.611034 0)
(0.041235 -0.61269 0)
(0.0332543 -0.599955 0)
(0.0162972 -0.587375 0)
(-0.0139944 -0.563065 0)
(-0.0602545 -0.565265 0)
(0.000573083 -0.50246 0)
(0.00172567 -0.502281 0)
(0.00289639 -0.503422 0)
(0.00408277 -0.504454 0)
(0.00528868 -0.508057 0)
(0.00650079 -0.511009 0)
(0.00773223 -0.51753 0)
(0.00897567 -0.522784 0)
(0.0102358 -0.532439 0)
(0.0114906 -0.539924 0)
(0.0127098 -0.552395 0)
(0.0138051 -0.561244 0)
(0.0146663 -0.575088 0)
(0.0150816 -0.583325 0)
(0.0148028 -0.596387 0)
(0.0133848 -0.601361 0)
(0.0102576 -0.610209 0)
(0.00426742 -0.606564 0)
(-0.0063041 -0.603868 0)
(-0.0243365 -0.58259 0)
(-0.0546394 -0.557194 0)
(-0.10393 -0.513207 0)
(-0.17825 -0.493872 0)
(0.000212802 -0.503237 0)
(0.000608157 -0.503033 0)
(0.000942976 -0.504155 0)
(0.001208 -0.505152 0)
(0.00139715 -0.508734 0)
(0.00148762 -0.511614 0)
(0.00147459 -0.518122 0)
(0.00133073 -0.523269 0)
(0.00102437 -0.532884 0)
(0.000499296 -0.540183 0)
(-0.00032911 -0.552499 0)
(-0.00157657 -0.560958 0)
(-0.00339233 -0.574386 0)
(-0.00602445 -0.581769 0)
(-0.00974611 -0.593892 0)
(-0.015057 -0.597061 0)
(-0.0225816 -0.60377 0)
(-0.0335034 -0.595972 0)
(-0.049751 -0.587469 0)
(-0.0745897 -0.555861 0)
(-0.11353 -0.514285 0)
(-0.174713 -0.445032 0)
(-0.265948 -0.395594 0)
(-7.01536e-05 -0.503369 0)
(-0.000260921 -0.503084 0)
(-0.000548427 -0.504129 0)
(-0.000951094 -0.505017 0)
(-0.00149282 -0.508492 0)
(-0.00220024 -0.511213 0)
(-0.00310367 -0.517579 0)
(-0.00425492 -0.522487 0)
(-0.00572857 -0.531853 0)
(-0.00761032 -0.538771 0)
(-0.0100272 -0.550625 0)
(-0.0131199 -0.558445 0)
(-0.0170847 -0.571064 0)
(-0.0222134 -0.577265 0)
(-0.0287975 -0.588011 0)
(-0.0374568 -0.588874 0)
(-0.0489424 -0.592822 0)
(-0.0646214 -0.580154 0)
(-0.0868838 -0.56455 0)
(-0.12005 -0.520446 0)
(-0.171599 -0.458713 0)
(-0.25443 -0.355813 0)
(-0.3839 -0.26293 0)
(-0.000378374 -0.502909 0)
(-0.0011717 -0.502537 0)
(-0.0020635 -0.503473 0)
(-0.00310984 -0.504198 0)
(-0.00435924 -0.507492 0)