/*--------------------------------*- C++ -*----------------------------------*\
| =========                 |                                                 |
| \\      /  F ield         | OpenFOAM: The Open Source CFD Toolbox           |
|  \\    /   O peration     | Version:  2012                                  |
|   \\  /    A nd           | Website:  www.openfoam.com                      |
|    \\/     M anipulation  |                                                 |
\*---------------------------------------------------------------------------*/
FoamFile
{
    version     2.0;
    format      ascii;
    class       volScalarField;
    location    "0.49";
    object      volumeFraction1;
}
// * * * * * * * * * * * * * * * * * * * * * * * * * * * * * * * * * * * * * //

dimensions      [0 0 0 0 0 0 0];


internalField   nonuniform List<scalar> 
2268
(
1
1
1
1
1
1
1
1
1
1
1
1
1
1
1
1
1
1
1
1
1
1
0.99965
1
1
1
1
1
1
1
1
1
1
1
1
1
1
1
1
1
1
1
1
1
1
0.999636
1
1
1
1
1
1
1
1
1
1
1
1
1
1
1
1
1
1
1
1
1
1
0.999636
1
1
1
1
1
1
1
1
1
1
1
1
1
1
1
1
1
1
1
1
1
1
0.999874
1
1
1
1
1
1
1
1
1
1
1
1
1
1
1
1
1
1
1
1
1
1
1
1
1
1
1
1
1
1
1
1
1
1
1
1
1
1
1
1
1
1
1
1
1
1
1
1
1
1
1
1
1
1
1
1
1
1
1
1
1
1
1
1
1
1
1
1
1
0.999999
0.999999
0.999999
0.999999
0.999999
0.999999
1
1
1
1
1
1
1
1
1
1
1
1
1
1
1
1
1
4.78908e-20
8.8658e-19
2.56021e-17
1.1303e-15
6.07638e-14
2.41143e-12
2.05393e-11
5.08563e-11
5.09782e-11
0.00301095
0.151464
0.464321
0.529052
0.52916
0.547172
0.596384
0.610858
0.610863
0.608736
1.52409e-18
3.45924e-17
2.08201e-16
9.50437e-16
3.75535e-14
1.74882e-12
1.2717e-11
2.25124e-08
0.000248348
0.00244413
0.00245662
7.45116e-10
7.45165e-10
7.45116e-10
0.0219126
0.195965
0.384105
0.459468
0.459477
4.33715e-17
8.19945e-16
3.92731e-15
6.30003e-15
6.81318e-15
1.07141e-12
3.86922e-11
1.67514e-06
8.82285e-05
0.000174514
9.8638e-06
7.45165e-10
1.63283e-08
0.000552841
0.00297976
0.0139376
0.0562938
0.27828
0.657832
5.68768e-16
8.62624e-15
3.24271e-14
3.93116e-14
1.39606e-14
1.39607e-14
3.57797e-10
1.26751e-06
7.64577e-06
3.98891e-07
2.43391e-08
8.41535e-09
1.6403e-08
1.6393e-08
1.6392e-08
1.6393e-08
0.00501566
0.263405
0.716656
5.24494e-15
4.13612e-14
7.81857e-14
6.05299e-14
6.71563e-14
2.25198e-14
5.9608e-15
3.49166e-07
1.31774e-07
2.94464e-08
7.8031e-09
1.35457e-08
1.75168e-08
1.75166e-08
1.04257e-07
6.65596e-06
0.00249824
0.0984115
0.716655
3.15492e-14
3.15496e-14
5.16355e-13
4.20205e-12
3.50711e-12
5.65889e-13
5.9622e-15
2.66849e-09
3.3205e-09
1.65165e-09
1.88978e-09
7.95005e-09
1.08459e-08
6.10915e-08
1.7161e-07
2.02729e-07
0.000163896
0.042436
0.716656
1.26567e-11
1.36778e-08
1.45251e-06
6.71672e-06
2.95709e-06
5.9622e-15
5.9608e-15
1.197e-10
2.54567e-10
2.93972e-10
3.39554e-10
2.50656e-09
6.22496e-09
3.54339e-09
2.86309e-10
2.85608e-10
2.03362e-06
0.0172311
0.71659
4.54701e-14
4.547e-14
0.0055552
0.00977822
0.00464874
0.00049656
7.59949e-06
2.18139e-10
1.12333e-10
1.56652e-10
1.69404e-10
5.30001e-10
1.7471e-09
1.5253e-09
3.53115e-10
2.86295e-10
2.85608e-10
0.00517896
0.547459
0.990497
0.9903
0.991016
0.991645
0.992329
0.993098
0.994425
0.995434
0.996772
0.997908
0.998834
0.999523
0.999862
0.999977
1
1
1
1
1
1
1
1
0.999789
0.547361
0.547624
0.559838
0.571974
0.588345
0.605045
0.633119
0.660483
0.701533
0.746367
0.799446
0.85882
0.91906
0.966869
0.992114
1
1
1
1
1
1
1
0.999624
1.07131e-38
-3.89468e-37
1.24629e-35
-1.99406e-34
0.00121367
0.00694166
0.0161425
0.0268015
0.0448944
0.0675584
0.101355
0.147651
0.216703
0.326628
0.50112
0.71708
0.948682
1
1
1
1
1
0.999935
8.22786e-20
3.74672e-18
8.51011e-17
1.01114e-15
4.09839e-31
2.53253e-31
7.21595e-31
-3.03594e-30
-1.59882e-31
-3.91256e-32
-8.23838e-29
4.76862e-27
4.25586e-28
-5.23948e-22
0.00737043
0.0414684
0.13449
0.329231
0.616191
0.946347
1
1
1
2.61889e-18
1.4291e-16
4.38536e-15
8.13485e-14
1.043e-12
1.06377e-11
1.99318e-11
1.90761e-11
1.02248e-11
3.71688e-31
1.9919e-08
2.29762e-08
1.00668e-07
1.43736e-07
3.17792e-24
1.79542e-25
0.00062512
0.00788725
0.0512732
0.154045
0.33648
0.590725
0.916948
4.53098e-18
2.47549e-16
7.61592e-15
1.38485e-13
1.79357e-12
1.86258e-11
3.25709e-11
5.80528e-11
5.22322e-11
3.13088e-12
9.04587e-08
1.08328e-06
1.9563e-06
2.34558e-06
1.15625e-06
2.98542e-08
7.6645e-09
1.15518e-05
0.000190733
0.00137508
0.00754614
0.0372881
0.136878
4.76586e-18
2.59765e-16
7.89485e-15
1.39976e-13
1.75924e-12
1.88168e-11
2.97555e-11
9.10963e-11
1.93072e-10
1.66915e-12
8.86651e-08
2.24457e-06
2.4345e-06
2.43445e-06
1.28621e-06
4.9467e-08
7.67143e-09
7.6645e-09
8.93788e-09
1.77813e-07
8.20007e-06
6.01803e-06
0.000125366
4.25685e-18
2.23931e-16
6.54355e-15
1.08346e-13
1.20798e-12
1.38205e-11
1.40169e-11
1.20049e-10
6.10482e-10
1.7991e-12
1.21997e-07
2.36199e-07
6.69251e-07
8.14138e-08
1.30688e-11
2.12591e-08
4.4206e-08
2.12975e-08
7.34255e-09
3.55974e-08
1.16666e-07
4.44399e-07
1.85488e-07
2.4209e-18
1.19812e-16
3.3034e-15
5.15798e-14
5.22072e-13
6.03527e-12
3.87054e-12
1.30447e-10
1.0811e-09
5.49123e-09
1.30787e-11
1.30688e-11
1.30711e-11
1.30688e-11
1.30711e-11
1.31981e-08
4.4206e-08
4.4206e-08
1.09447e-08
3.82504e-08
4.24107e-09
2.25553e-11
4.25207e-06
1.03136e-18
4.94444e-17
1.32515e-15
2.01641e-14
1.93377e-13
2.18032e-12
6.60879e-13
1.27413e-10
1.16139e-09
5.02689e-09
1.45493e-09
1.78542e-10
1.17635e-10
4.18704e-10
3.98036e-10
3.32927e-10
1.2484e-08
2.61813e-08
1.35998e-08
4.99218e-10
2.69438e-11
2.25209e-11
1.6384e-07
3.64566e-19
1.69304e-17
4.42772e-16
6.57736e-15
6.14231e-14
6.58391e-13
3.62877e-13
9.64435e-11
5.02218e-10
5.75115e-10
3.88226e-10
1.69177e-10
1.65362e-10
5.0747e-10
7.59291e-10
4.85362e-10
1.48105e-10
1.4819e-10
7.06604e-10
9.86822e-10
4.70776e-10
2.83187e-11
1.1971e-12
1.0644e-19
4.82052e-18
1.23867e-16
1.81127e-15
1.69738e-14
1.58579e-13
3.60686e-13
2.70556e-11
1.08476e-10
7.97889e-11
8.99057e-11
7.93422e-11
8.63242e-11
1.54494e-10
4.04361e-10
4.43713e-10
3.0603e-10
1.79525e-10
1.75113e-10
1.77456e-10
1.60817e-10
1.1022e-10
4.93948e-11
2.54629e-20
1.12099e-18
2.82842e-17
4.08552e-16
3.9067e-15
3.14836e-14
2.09034e-13
6.20895e-12
1.25756e-11
2.13403e-11
2.37774e-11
2.1033e-11
2.16523e-11
3.03108e-11
5.22207e-11
1.03472e-10
1.85208e-10
2.1216e-10
2.13371e-10
1.94929e-10
1.47731e-10
8.74036e-11
5.40571e-11
4.94387e-21
2.14461e-19
5.3736e-18
7.78012e-17
7.70867e-16
6.01466e-15
7.34838e-14
7.8745e-13
2.26637e-12
3.83898e-12
4.12539e-12
3.70408e-12
3.91214e-12
5.17178e-12
8.31265e-12
1.50841e-11
2.70808e-11
3.9405e-11
3.77844e-11
3.38191e-11
2.91323e-11
2.06349e-11
1.39538e-11
7.67463e-22
3.29915e-20
8.28202e-19
1.2209e-17
1.27308e-16
1.02317e-15
1.84946e-14
7.82244e-14
2.20226e-13
3.65216e-13
3.97379e-13
4.01871e-13
4.9714e-13
8.11562e-13
1.45115e-12
2.28593e-12
2.93481e-12
3.41728e-12
3.75082e-12
3.88206e-12
3.76484e-12
3.15493e-12
2.35103e-12
9.32517e-23
4.04036e-21
1.03505e-19
1.58756e-18
1.76854e-17
1.48496e-16
2.99905e-15
8.66505e-15
1.41769e-14
1.55859e-14
1.7566e-14
2.64993e-14
5.79438e-14
1.29252e-13
2.43471e-13
3.37035e-13
3.94363e-13
4.32767e-13
4.53046e-13
4.56088e-13
4.31254e-13
3.64476e-13
2.88928e-13
8.60058e-24
3.82455e-22
1.0199e-20
1.65991e-19
1.98875e-18
1.71001e-17
2.9191e-16
9.48531e-16
1.30069e-15
1.27437e-15
1.44385e-15
2.77295e-15
7.51533e-15
1.81142e-14
3.374e-14
4.46589e-14
5.07608e-14
5.41352e-14
5.47314e-14
5.22392e-14
4.47138e-14
3.32859e-14
2.58846e-14
5.77367e-25
2.74071e-23
7.85923e-22
1.38804e-20
1.78822e-19
1.54408e-18
1.64096e-17
5.81824e-17
9.96603e-17
1.12546e-16
1.47517e-16
3.09403e-16
8.03199e-16
1.80902e-15
3.10301e-15
3.88603e-15
4.31543e-15
4.52102e-15
4.48767e-15
4.13824e-15
3.36848e-15
2.25802e-15
1.69917e-15
2.63744e-26
1.38538e-24
4.38733e-23
8.45943e-22
1.1507e-20
9.83884e-20
6.37881e-19
1.80379e-18
2.81336e-18
4.07507e-18
8.05954e-18
2.1857e-17
5.61664e-17
1.15218e-16
1.71787e-16
2.02608e-16
2.21496e-16
2.32436e-16
2.33225e-16
2.21942e-16
1.85429e-16
1.19759e-16
1.32392e-16
7.47307e-28
4.65462e-26
1.68747e-24
3.567e-23
5.05395e-22
4.2074e-21
2.26018e-20
5.34675e-20
9.41864e-20
1.81313e-19
4.74945e-19
1.33788e-18
3.11921e-18
4.95753e-18
5.81616e-18
6.32419e-18
6.82443e-18
7.35024e-18
7.68163e-18
7.72381e-18
6.55005e-18
6.69617e-18
2.46083e-17
1.19008e-29
8.52836e-28
3.44463e-26
7.71917e-25
1.11267e-23
8.969e-23
3.82178e-22
1.06651e-21
2.75099e-21
7.84e-21
2.33391e-20
6.23067e-20
1.1965e-19
1.43041e-19
1.45521e-19
1.48601e-19
1.5713e-19
1.74572e-19
1.90037e-19
1.85843e-19
1.96667e-19
8.88255e-19
1.99216e-17
1.65811e-31
8.04359e-30
2.40001e-28
4.69471e-27
7.56759e-26
8.29973e-25
4.9938e-24
2.24958e-23
9.00071e-23
3.14001e-22
8.98948e-22
2.13622e-21
3.60175e-21
4.13471e-21
4.20079e-21
4.06424e-21
3.86928e-21
3.78218e-21
3.50443e-21
3.5846e-21
1.68887e-20
6.54936e-19
2.06262e-17
5.71009e-33
2.86843e-31
8.61517e-30
1.65158e-28
2.54453e-27
2.75153e-26
1.69508e-25
7.70239e-25
2.96499e-24
9.65407e-24
2.46853e-23
5.25515e-23
8.58184e-23
1.00594e-22
1.02899e-22
9.64648e-23
7.74253e-23
4.38089e-23
3.00587e-23
1.33507e-22
1.02152e-20
5.85888e-19
1.81514e-17
9.59242e-35
4.96279e-33
1.46705e-31
2.61409e-30
3.34928e-29
3.0424e-28
2.15522e-27
1.16877e-26
4.9267e-26
1.61114e-25
3.98301e-25
8.42595e-25
1.52119e-24
1.94811e-24
2.03933e-24
1.94378e-24
1.51556e-24
8.12517e-25
1.62433e-24
5.22668e-23
6.46978e-21
3.84901e-19
1.11766e-17
3.19827e-40
1.14534e-38
2.28569e-37
2.70955e-36
2.14369e-35
8.09512e-35
2.34245e-34
1.33106e-33
8.10353e-33
3.6631e-32
1.19337e-31
3.16531e-31
6.61974e-31
7.90435e-31
9.1572e-31
6.99095e-30
3.12149e-28
1.18496e-26
3.7885e-25
2.23697e-23
2.86152e-21
1.64672e-19
4.51772e-18
1.81729e-44
8.90229e-43
2.54788e-41
4.81206e-40
7.25732e-39
1.00415e-37
2.52833e-36
3.91111e-35
2.88213e-34
1.36178e-33
4.44764e-33
1.174e-32
2.35859e-32
2.75156e-32
4.69744e-32
1.52877e-30
8.01652e-29
3.30604e-27
1.2127e-25
8.49813e-24
9.97388e-22
5.52835e-20
1.4704e-18
7.79713e-48
3.78758e-46
1.02265e-44
1.73325e-43
2.10096e-42
1.89236e-41
1.3233e-40
7.42304e-40
3.32154e-39
1.28275e-38
4.29318e-38
2.40348e-37
1.02466e-36
3.60203e-35
3.7652e-33
3.26901e-31
1.86146e-29
8.49305e-28
3.6368e-26
2.84519e-24
3.00595e-22
1.62447e-20
4.30408e-19
1.83468e-53
1.18534e-51
4.26424e-50
9.8933e-49
1.67032e-47
2.17102e-46
2.24491e-45
1.93911e-44
1.36041e-43
8.37279e-43
4.87666e-42
1.9365e-40
3.25308e-38
5.46655e-36
6.64064e-34
6.33615e-32
3.86906e-30
1.9875e-28
1.00017e-26
8.20168e-25
7.6646e-23
4.08867e-21
1.3009e-19
4.96042e-57
3.55967e-55
1.40602e-53
3.62859e-52
6.86897e-51
1.0311e-49
1.2613e-48
1.3371e-47
1.17599e-46
1.13722e-45
7.11092e-44
1.78611e-41
3.76516e-39
7.23575e-37
9.90661e-35
1.05634e-32
7.22043e-31
4.58823e-29
3.07643e-27
2.73153e-25
2.43607e-23
1.48713e-21
9.98634e-20
1.72961e-63
1.59055e-61
8.80313e-60
3.54132e-58
1.11155e-56
2.83184e-55
5.81671e-54
1.74224e-52
3.55319e-50
1.39072e-47
4.73019e-45
1.55918e-42
4.11867e-40
9.81015e-38
1.76415e-35
2.57907e-33
3.03064e-31
3.65378e-29
4.48213e-27
5.7317e-25
6.83257e-23
5.69325e-21
5.44234e-19
8.72367e-69
1.361e-66
1.18114e-64
6.93826e-63
3.07064e-61
1.922e-59
7.33199e-57
5.84953e-54
4.66956e-51
3.29235e-48
2.00548e-45
9.71869e-43
4.03512e-40
1.33118e-37
3.96887e-35
9.78313e-33
2.17254e-30
3.65828e-28
5.26349e-26
7.27616e-24
8.7848e-22
7.20065e-20
5.70944e-18
4.89733e-73
1.15083e-70
1.70313e-68
6.13884e-66
1.26113e-62
2.59829e-59
4.36161e-56
5.4532e-53
5.68015e-50
4.4715e-47
2.89166e-44
1.40683e-41
5.82835e-39
1.88002e-36
5.44991e-34
1.31082e-31
2.83741e-29
4.7105e-27
6.77511e-25
9.33658e-23
1.08016e-20
8.62935e-19
6.01788e-17
5.267e-76
3.44854e-72
2.13968e-68
8.78025e-65
2.48696e-61
5.07053e-58
8.08677e-55
9.78457e-52
9.79662e-49
7.42419e-46
4.59592e-43
2.14756e-40
8.47244e-38
2.61119e-35
7.17281e-33
1.65313e-30
3.44223e-28
5.62498e-26
8.19052e-24
1.12073e-21
1.23106e-19
9.65171e-18
6.00709e-16
6.03096e-75
7.62997e-71
4.60047e-67
1.76271e-63
4.82557e-60
9.59175e-57
1.48561e-53
1.74314e-50
1.66938e-47
1.20987e-44
7.12734e-42
3.18352e-39
1.1917e-36
3.50362e-34
9.11872e-32
2.0073e-29
4.00654e-27
6.45601e-25
9.69803e-23
1.31213e-20
1.35074e-18
1.03735e-16
5.71168e-15
1.44449e-73
1.70447e-69
9.94256e-66
3.69113e-62
9.78535e-59
1.88971e-55
2.82367e-52
3.18709e-49
2.8897e-46
1.98599e-43
1.10599e-40
4.70259e-38
1.66459e-35
4.6665e-33
1.15168e-30
2.42244e-28
4.64289e-26
7.43117e-24
1.17332e-21
1.55166e-19
1.47331e-17
1.09037e-15
5.20248e-14
3.5345e-72
4.0621e-68
2.29446e-64
8.2529e-61
2.11491e-57
3.94889e-54
5.64436e-51
6.07204e-48
5.16702e-45
3.3481e-42
1.75581e-39
7.09233e-37
2.36917e-34
6.33959e-32
1.48716e-29
3.01032e-27
5.59693e-25
9.01563e-23
1.49638e-20
1.90188e-18
1.64879e-16
1.13796e-14
4.58669e-13
9.1213e-71
1.02352e-66
5.6131e-63
1.9601e-59
4.85169e-56
8.71438e-53
1.18249e-49
1.2041e-46
9.57136e-44
5.83396e-41
2.87756e-38
1.1031e-35
3.47199e-33
8.87805e-31
1.98677e-28
3.9205e-26
7.18244e-24
1.17918e-21
1.99379e-19
2.40183e-17
1.90134e-15
8.99784e-14
2.42865e-12
2.41545e-69
2.65042e-65
1.41526e-61
4.81075e-58
1.1494e-54
1.97867e-51
2.5393e-48
2.44255e-45
1.8141e-42
1.03832e-39
4.81248e-37
1.74895e-34
5.18229e-32
1.26894e-29
2.72615e-27
5.32759e-25
9.76394e-23
1.64126e-20
2.16962e-18
1.88152e-16
1.03957e-14
3.53756e-13
7.177e-12
6.33344e-68
6.80016e-64
3.543e-60
1.17458e-56
2.70499e-53
4.4553e-50
5.40729e-47
4.92186e-44
3.42612e-41
1.83217e-38
7.66061e-36
2.51114e-33
6.62973e-31
1.43691e-28
2.66548e-26
4.35215e-24
6.24499e-22
7.56135e-20
7.20915e-18
5.19796e-16
2.65151e-14
8.62691e-13
1.65243e-11
1.38169e-66
1.39219e-62
6.78977e-59
2.09927e-55
4.48172e-52
6.79494e-49
7.55395e-46
6.27614e-43
3.96206e-40
1.91331e-37
7.1471e-35
2.06825e-32
4.68932e-30
8.37443e-28
1.19943e-25
1.4149e-23
1.42324e-21
1.22283e-19
8.89829e-18
5.29094e-16
2.37519e-14
7.38709e-13
1.43559e-11
1.26095e-65
1.1634e-61
5.09522e-58
1.37728e-54
2.5447e-51
3.38977e-48
3.35554e-45
2.50943e-42
1.43772e-39
6.35168e-37
2.18342e-34
5.85299e-32
1.23197e-29
2.04028e-27
2.66942e-25
2.77244e-23
2.28205e-21
1.51582e-19
8.33718e-18
3.83838e-16
1.43827e-14
4.22512e-13
9.38719e-12
2.88718e-65
2.45047e-61
9.8795e-58
2.48003e-54
4.29472e-51
5.39529e-48
5.06986e-45
3.62676e-42
2.00204e-39
8.5974e-37
2.89655e-34
7.69919e-32
1.62541e-29
2.74422e-27
3.72707e-25
4.11869e-23
3.72612e-21
2.79191e-19
1.73423e-17
8.90513e-16
3.64584e-14
1.1075e-12
2.05275e-11
0.999505
0.999819
0.99982
0.967321
0.999449
0.99945
0.999803
0.999804
0.999861
0.9999
0.999727
0.999662
1
1
0.999986
0.999941
0.998511
1
1
1
0.227558
0.303882
0.381723
0.475278
0.00149463
0.0038495
0.00823694
0.0141839
1.76295e-07
1.76421e-07
5.68619e-07
5.62597e-07
7.25747e-06
7.26306e-06
6.83877e-06
1.13352e-06
5.41775e-07
6.42558e-07
4.01071e-07
1.1971e-12
1.1971e-12
4.71674e-08
3.73164e-08
1.1971e-12
8.06164e-12
1.1971e-12
1.1971e-12
1.1971e-12
3.03904e-11
1.47799e-11
7.36518e-12
3.32617e-12
1.10565e-11
9.74328e-12
8.47534e-12
7.15368e-12
1.80075e-12
1.62696e-12
1.55429e-12
1.46228e-12
2.34345e-13
2.04867e-13
1.9087e-13
1.81386e-13
2.16552e-14
1.90636e-14
1.81121e-14
1.88048e-14
1.62966e-15
1.67964e-15
1.83302e-15
2.19338e-15
1.62829e-16
2.17168e-16
3.26348e-16
5.36789e-16
5.50546e-17
9.97484e-17
1.85643e-16
3.54649e-16
5.27023e-17
1.02134e-16
2.01317e-16
4.37012e-16
5.51351e-17
1.07731e-16
2.16642e-16
4.6424e-16
4.86697e-17
9.56399e-17
1.9471e-16
4.26176e-16
3.01516e-17
5.9976e-17
1.25204e-16
2.8491e-16
1.21522e-17
2.41992e-17
5.17836e-17
1.29196e-16
3.93817e-18
7.93279e-18
1.96851e-17
7.10823e-17
1.18606e-18
2.99719e-18
1.41329e-17
1.24999e-16
4.93388e-19
2.80203e-18
4.32889e-17
5.61724e-16
9.37243e-19
1.47436e-17
2.64923e-16
3.40397e-15
8.67913e-18
1.39722e-16
2.27035e-15
2.87023e-14
1.0239e-16
1.58287e-15
2.34364e-14
2.84452e-13
1.19107e-15
1.75764e-14
2.32612e-13
2.6039e-12
1.26388e-14
1.73122e-13
1.97042e-12
1.98613e-11
1.20567e-13
1.46378e-12
1.3688e-11
1.24734e-10
1.0126e-12
1.02206e-11
7.70123e-11
7.19637e-10
7.35927e-12
5.59954e-11
3.48921e-10
4.67646e-09
2.75861e-11
1.46399e-10
9.99733e-10
1.83109e-08
6.6157e-11
3.31033e-10
2.71115e-09
3.12996e-08
1.49178e-10
1.46359e-09
1.99491e-08
4.45384e-08
1.62893e-10
4.78319e-09
5.93373e-08
8.68903e-08
2.14825e-10
1.51512e-08
1.49431e-07
2.24731e-07
1.6261e-10
1.62648e-09
4.14218e-08
3.85275e-07
0.0893061
0.0827978
0.344859
0.383844
0.0989561
0.00228162
2.5192e-06
6.49669e-11
3.49518e-11
5.6733e-11
7.7289e-11
1.62319e-10
3.97999e-10
4.80563e-10
3.10327e-10
3.19908e-10
5.50184e-09
-2.13442e-27
0.475565
0.876689
0.919845
0.999998
0.958541
0.339655
0.00966372
6.99458e-06
3.01333e-11
6.58316e-12
1.26372e-11
2.02166e-11
3.98931e-11
8.1603e-11
1.15267e-10
7.23134e-11
5.12792e-10
2.50185e-08
-5.94867e-27
0.572169
0.99965
0.999951
0.999998
1
0.656168
0.0440417
5.80342e-05
2.38936e-12
2.38572e-12
8.11596e-12
1.96192e-11
3.75387e-11
7.15206e-11
9.86626e-11
7.2315e-11
1.17199e-08
2.91132e-08
-2.4925e-27
0.725094
0.999954
0.999987
1
1
0.841944
0.129307
0.000613647
9.88947e-08
5.04172e-09
2.04964e-10
1.41429e-10
3.30929e-10
7.44715e-10
9.86629e-11
4.36476e-09
3.02294e-08
2.90393e-08
4.4525e-22
0.799096
1
1
1
1
1
0.483553
0.0151904
0.000164428
6.09196e-09
1.38383e-10
3.55011e-10
1.27196e-09
1.5917e-09
6.58881e-10
1.28914e-09
3.02263e-08
3.05152e-16
0.00101774
0.852105
0.758302
0.925814
0.985575
1
1
0.960305
0.337308
8.46345e-11
8.52496e-11
9.38903e-11
3.06743e-10
1.05116e-09
1.36944e-09
6.83971e-10
7.32577e-10
2.31623e-09
3.07119e-16
0.130027
0.911123
0.0342967
0.0998188
0.310867
0.783726
0.99908
0.99908
0.931841
0.445223
0.00901604
3.08427e-16
3.06217e-16
8.68782e-11
1.44182e-10
4.48263e-11
3.05152e-16
3.07119e-16
3.0505e-16
0.511941
0.98058
1.1971e-12
1.1971e-12
7.18117e-06
0.0562472
0.304398
0.842607
0.996412
0.99641
0.709327
0.329801
0.0615003
3.05035e-16
3.07813e-16
3.05037e-16
0.00722006
0.0404591
0.253985
0.853655
0.993356
5.18495e-06
3.46535e-06
2.67962e-07
2.6534e-07
0.0019508
0.119054
0.441271
0.839151
0.964796
0.964787
0.801862
0.600052
0.538678
0.571919
0.639615
0.75158
0.926323
0.994362
0.994779
9.73227e-06
3.59205e-05
2.92789e-05
3.6359e-06
1.98961e-09
0.000127473
0.0114166
0.154881
0.439015
0.698687
0.833852
0.918698
0.953579
0.972911
0.994779
0.994779
0.994779
0.994779
0.994779
1.65162e-05
3.59546e-05
3.59478e-05
7.50471e-06
1.98959e-09
1.78397e-10
1.45276e-05
0.00174853
0.0138847
0.0850433
0.224947
0.364769
0.442577
0.494421
0.559728
0.709156
0.908498
0.984474
0.994779
7.52503e-07
8.77923e-06
8.69166e-06
2.2852e-06
1.78397e-10
1.78397e-10
1.78397e-10
1.13984e-06
0.000133213
0.00182835
0.00871425
0.0155613
0.0139485
0.0139489
0.0174434
0.089907
0.466572
0.952707
0.994779
5.08057e-10
2.11578e-09
1.3916e-08
1.02873e-07
6.39477e-09
1.78397e-10
1.26575e-09
1.41864e-08
1.0887e-07
2.92484e-05
0.0154604
0.09844
0.14998
0.155392
0.111012
0.147505
0.623617
0.982512
0.962651
4.27986e-12
1.46859e-12
4.14593e-11
2.51282e-09
4.76684e-09
3.28459e-10
2.31217e-10
1.88853e-10
2.70274e-10
3.33878e-06
0.00350047
0.20174
0.718131
0.862885
0.782239
0.730457
0.909462
0.990318
0.948338
9.67889e-13
7.85613e-13
6.34948e-12
2.74991e-10
1.39642e-09
3.88293e-10
2.31165e-10
1.88853e-10
1.88853e-10
2.55925e-07
0.0013673
0.146567
0.715961
0.9597
0.979673
0.979673
0.989337
0.990318
0.958486
1.60258e-13
2.12415e-13
1.26293e-12
5.33619e-11
3.39692e-10
2.91829e-10
2.2234e-10
2.68502e-10
1.96437e-10
5.93892e-08
0.000989226
0.0205695
0.0873437
0.298407
0.689594
0.939839
0.956253
0.969118
0.979113
2.41332e-14
5.29498e-14
3.33936e-13
9.06975e-12
1.06921e-10
2.1709e-10
1.9274e-10
2.78954e-10
1.96429e-10
4.98005e-06
0.000268852
3.8458e-10
3.84079e-10
3.8458e-10
0.0312466
0.474733
0.852434
0.681016
0.979088
6.6677e-15
3.85407e-14
3.44374e-13
3.57755e-12
3.63394e-11
1.5418e-10
2.04854e-10
2.91418e-10
1.96405e-10
1.96847e-10
0.000163919
9.89159e-05
3.8458e-10
1.43889e-06
1.43895e-06
0.0548401
0.506269
0.647142
0.888431
6.55576e-15
6.72916e-14
7.09042e-13
2.25526e-12
1.47418e-10
2.79395e-10
3.90855e-10
2.91449e-10
1.96847e-10
1.9687e-10
7.96931e-06
1.71406e-05
3.76562e-06
2.18599e-06
3.41228e-05
0.0161513
0.333402
0.601786
0.412791
2.19853e-14
9.40174e-14
4.45071e-12
1.44705e-11
1.16377e-10
5.94212e-10
9.864e-10
9.77033e-10
5.0851e-10
2.37239e-10
2.56844e-09
1.53471e-09
1.11777e-07
5.29848e-09
5.98306e-06
0.00737538
0.15726
0.371982
0.158832
1.54209e-13
2.32575e-13
9.34805e-12
7.0933e-11
1.45848e-10
3.37538e-10
9.79195e-10
6.05397e-09
1.34067e-09
2.37248e-10
2.37191e-10
2.37341e-10
3.93399e-10
5.29715e-09
1.62163e-09
0.000571351
0.0465591
0.270422
0.158833
8.16261e-14
5.62524e-13
2.68289e-12
5.74319e-11
3.26544e-10
4.74492e-10
5.23289e-10
1.06759e-09
6.36343e-09
3.46396e-08
3.49882e-08
9.6268e-09
1.20544e-09
3.10069e-09
1.62165e-09
6.08451e-10
0.0144743
0.19228
0.158832
6.9041e-14
5.35057e-13
1.43331e-12
1.04318e-11
1.82179e-10
8.50085e-10
5.67554e-10
2.57124e-10
4.02072e-08
1.92972e-07
1.9308e-07
7.86184e-08
2.06196e-09
7.14079e-10
6.19152e-10
6.08292e-10
0.00814245
0.0276148
0.167322
2.24608e-14
2.56931e-13
1.17308e-12
2.99541e-12
3.29273e-12
8.50068e-10
2.78393e-09
2.60841e-10
1.12832e-08
1.9308e-07
1.54171e-07
2.17126e-08
8.55368e-10
6.0818e-10
2.36043e-09
6.36681e-10
3.84537e-07
3.7573e-07
0.189609
1.19354e-14
1.74749e-13
8.78078e-13
7.16048e-12
9.86058e-12
5.116e-11
3.11586e-11
3.32773e-08
5.0676e-08
7.22148e-08
3.88369e-08
5.23808e-10
5.23818e-10
1.96303e-08
9.88883e-09
9.38673e-10
5.63699e-10
2.78725e-05
0.213859
1.98071e-14
4.64183e-13
1.56295e-12
6.76841e-12
1.6444e-10
3.45907e-11
3.09545e-11
4.57649e-08
5.13772e-08
1.27688e-08
1.27721e-08
2.83082e-06
2.19743e-06
3.68346e-07
4.27454e-09
1.07002e-09
5.63702e-10
2.95104e-11
0.207739
6.28204e-14
1.40831e-12
4.38207e-12
4.38194e-12
9.5254e-10
1.79962e-09
9.56136e-10
2.17772e-08
1.63955e-08
1.07028e-08
2.4181e-06
4.94421e-06
4.93841e-06
4.84652e-07
1.6718e-09
8.72771e-10
4.7705e-10
2.95104e-11
0.17911
1.65997e-13
2.29532e-12
8.13055e-12
6.93241e-12
5.23622e-12
1.00645e-08
1.61625e-08
1.14477e-08
1.07028e-08
1.07029e-08
2.89213e-06
4.93841e-06
2.89859e-06
1.48921e-07
3.17654e-09
2.95104e-11
2.95104e-11
2.95104e-11
0.140418
4.23164e-13
4.08245e-12
2.64414e-11
1.65122e-11
5.23569e-12
2.73376e-08
3.34721e-08
1.05784e-08
1.48846e-07
3.11419e-07
9.96358e-07
2.87802e-06
2.60743e-07
5.3953e-09
5.39742e-09
4.19736e-07
9.95429e-07
2.95104e-11
0.190269
1.6777e-12
1.51376e-11
1.32789e-10
1.71847e-11
2.13185e-09
5.4269e-09
2.61191e-08
1.05783e-08
1.75641e-07
3.65362e-07
9.57872e-08
7.49606e-07
7.73216e-08
2.82903e-07
5.3953e-09
5.39302e-09
0.000143115
0.0202067
0.231256
9.43499e-12
6.90849e-11
8.61752e-10
5.6557e-10
6.67898e-12
4.53874e-06
1.05783e-08
1.05784e-08
5.72597e-08
9.01866e-08
1.43767e-08
1.37974e-08
1.43767e-08
4.21012e-07
1.18246e-06
5.32289e-05
0.00744862
0.0500299
0.231315
5.0449e-11
2.38003e-10
5.03377e-09
1.90719e-09
6.68136e-12
2.10333e-05
0.000120745
2.84488e-05
6.71167e-07
1.19058e-07
6.26413e-08
3.12458e-06
1.72355e-06
4.20247e-07
1.97098e-05
0.019979
0.0735414
0.0536142
0.0842824
2.51266e-10
9.78453e-10
7.38542e-09
1.90685e-09
5.40297e-05
0.000178819
0.000181722
0.000171146
3.5974e-06
5.3977e-07
5.45459e-07
2.42173e-05
2.05626e-05
4.19553e-07
1.22044e-05
0.000890794
0.0814527
0.254237
0.0541216
1.37628e-09
5.05843e-09
5.05901e-09
2.18242e-06
0.00013151
0.000181722
0.000181722
0.000181722
6.43951e-05
3.64786e-11
2.20455e-06
2.51413e-05
2.51413e-05
6.184e-07
6.84196e-06
1.62391e-07
0.000424781
0.313982
0.188591
1.0702e-08
5.00215e-08
5.87397e-08
3.27899e-06
2.78782e-05
0.000163196
0.000181722
0.000181722
8.23878e-05
3.64786e-11
6.38529e-06
2.51413e-05
2.51413e-05
4.77165e-07
1.13222e-06
2.14548e-07
3.27398e-11
0.305615
0.466751
4.82122e-08
7.69579e-08
1.34082e-08
1.63958e-09
2.0142e-06
4.87033e-05
0.000124978
0.00011527
2.46423e-05
3.64786e-11
1.54787e-05
2.51413e-05
2.51413e-05
2.38392e-07
2.23112e-07
1.92734e-07
3.27398e-11
0.315109
0.466751
6.92017e-08
7.48623e-08
1.18363e-10
1.64315e-09
3.16086e-08
5.82249e-07
3.35344e-06
3.72001e-06
1.1329e-06
2.80396e-07
1.16375e-05
2.1403e-05
7.64648e-06
2.3834e-07
6.92732e-07
2.08248e-06
3.27398e-11
0.24039
0.466751
7.36192e-08
6.97791e-08
1.18362e-10
1.18363e-10
1.18362e-10
1.85186e-10
6.8494e-10
3.71897e-09
1.85701e-08
1.53769e-07
1.00325e-06
1.63524e-06
1.64256e-06
4.32498e-06
6.79305e-06
6.78583e-06
3.27398e-11
0.139728
0.466645
5.40978e-08
1.28498e-07
5.55068e-07
6.85118e-07
1.38984e-08
1.18362e-10
1.18363e-10
1.18362e-10
1.18363e-10
1.18362e-10
6.00308e-07
6.24533e-07
3.57825e-06
5.71938e-06
5.12348e-06
1.94345e-06
3.18386e-08
3.27398e-11
0.461186
5.40973e-08
1.47597e-07
1.74543e-06
2.19005e-06
9.96892e-07
1.18363e-10
3.6758e-07
3.58564e-06
6.18633e-06
7.62423e-06
8.52633e-06
8.46043e-06
3.88286e-06
8.28838e-07
2.14759e-08
3.73111e-07
6.761e-08
3.27398e-11
0.413077
5.40881e-08
9.16334e-08
1.52747e-06
2.18739e-06
1.04714e-06
1.09851e-06
7.93049e-06
1.04338e-05
1.04447e-05
1.04338e-05
7.01469e-06
2.9738e-06
1.22748e-06
3.1909e-10
-6.02969e-29
3.0125e-07
-3.87221e-25
0.000607386
0.130792
6.73763e-07
5.43009e-07
3.51111e-07
7.35778e-07
3.20756e-07
3.23496e-07
2.32762e-06
5.7195e-06
8.12884e-06
4.45904e-06
6.41596e-07
6.5841e-09
1.52861e-08
-3.77036e-29
-6.4729e-31
-7.71731e-33
-1.94761e-24
0.000113727
0.00107868
)
;

boundaryField
{
    leftWall
    {
        type            zeroGradient;
    }
    rightWall
    {
        type            zeroGradient;
    }
    lowerWall
    {
        type            zeroGradient;
    }
    atmosphere
    {
        type            inletOutlet;
        inletValue      uniform 0;
        value           nonuniform List<scalar> 
46
(
0
0
0
0
0
0
0
0
0
0
0
0
0
0
0
0
0
0
0
0
0
0
2.05275e-11
1.6261e-10
1.62648e-09
4.14218e-08
3.85275e-07
6.73763e-07
5.43009e-07
3.51111e-07
7.35778e-07
3.20756e-07
3.23496e-07
2.32762e-06
5.7195e-06
8.12884e-06
4.45904e-06
6.41596e-07
6.5841e-09
1.52861e-08
0
0
0
-1.94761e-24
0.000113727
0.00107868
)
;
    }
    defaultFaces
    {
        type            empty;
    }
}


// ************************************************************************* //
