# vtk DataFile Version 2.0
gauge_2
ASCII
DATASET POLYDATA
POINTS 43 double
0.2 0.0359992 0.005
0.2 0.0419991 0.005
0.2 0.047999 0.005
0.2 0.0607609 0.005
0.2 0.0735228 0.005
0.2 0.0862847 0.005
0.2 0.0990467 0.005
0.2 0.111809 0.005
0.2 0.124571 0.005
0.2 0.137332 0.005
0.2 0.150094 0.005
0.2 0.162856 0.005
0.2 0.175618 0.005
0.2 0.18838 0.005
0.2 0.201142 0.005
0.2 0.213904 0.005
0.2 0.226666 0.005
0.2 0.239428 0.005
0.2 0.25219 0.005
0.2 0.264952 0.005
0.2 0.277714 0.005
0.2 0.290476 0.005
0.2 0.303238 0.005
0.2 0.315999 0.005
0.2 0.328761 0.005
0.2 0.341523 0.005
0.2 0.354285 0.005
0.2 0.367047 0.005
0.2 0.379809 0.005
0.2 0.392571 0.005
0.2 0.405333 0.005
0.2 0.418095 0.005
0.2 0.430857 0.005
0.2 0.443619 0.005
0.2 0.456381 0.005
0.2 0.469143 0.005
0.2 0.481905 0.005
0.2 0.494666 0.005
0.2 0.507428 0.005
0.2 0.52019 0.005
0.2 0.532952 0.005
0.2 0.545714 0.005
0.2 0.558476 0.005
POINT_DATA 43
 FIELD attributes 1
alpha.water 1 43 float
1 1 1 1 0.799096 0.31245 0.0133555 3.8107e-05 6.60175e-05 2.85654e-05 1.89178e-10 1.46483e-09 9.61386e-09 8.23454e-09 5.95524e-12 2.21407e-12 4.49624e-13 7.54412e-14 1.49334e-14 7.58919e-16 8.9974e-17 1.6632e-17 3.01589e-18 4.21162e-19 4.8092e-20 5.64402e-21 5.8259e-22 6.39277e-23 1.17951e-23 2.29535e-24 4.22109e-25 6.9992e-26 1.02378e-26 1.34051e-27 1.6033e-28 1.75049e-29 1.69901e-30 1.38469e-31 8.64882e-33 3.70613e-34 9.73657e-36 1.32712e-37 7.98522e-40
