/*--------------------------------*- C++ -*----------------------------------*\
| =========                 |                                                 |
| \\      /  F ield         | OpenFOAM: The Open Source CFD Toolbox           |
|  \\    /   O peration     | Version:  3.0.1                                 |
|   \\  /    A nd           | Web:      www.OpenFOAM.org                      |
|    \\/     M anipulation  |                                                 |
\*---------------------------------------------------------------------------*/
FoamFile
{
    version     2.0;
    format      ascii;
    class       surfaceScalarField;
    location    "0.0001";
    object      phi;
}
// * * * * * * * * * * * * * * * * * * * * * * * * * * * * * * * * * * * * * //

dimensions      [1 0 -1 0 0 0 0];

internalField   nonuniform List<scalar> 
1890
(
8.37004e-17
1.05168e-17
2.42861e-17
-8.78204e-18
-1.17094e-17
-8.45678e-18
5.63785e-17
1.14925e-17
-2.94903e-17
7.37257e-18
3.98986e-17
2.76472e-17
2.08167e-17
2.29851e-17
-4.85723e-17
2.09251e-17
-5.29091e-17
1.88651e-17
-5.29091e-17
1.84314e-17
5.20417e-18
3.00324e-17
-8.41341e-17
1.57209e-17
-5.33427e-17
1.86483e-17
-9.41087e-17
2.55872e-17
1.04083e-17
4.03323e-17
1.38778e-17
3.68629e-17
6.54858e-17
3.41524e-17
2.07299e-16
2.76472e-17
1.92468e-15
4.77049e-17
1.26106e-14
4.88975e-17
7.35093e-14
4.78133e-17
4.08239e-13
5.19333e-17
2.18206e-12
5.39933e-17
1.1225e-11
3.72966e-17
5.55039e-11
3.49113e-17
2.63223e-10
2.26598e-17
1.1949e-09
2.34188e-17
5.17809e-09
3.58871e-17
2.13669e-08
9.37835e-17
8.36756e-08
-1.22515e-17
3.0995e-07
2.85145e-17
1.08135e-06
3.27407e-15
3.53694e-06
2.23367e-14
1.07837e-05
1.24982e-13
3.04408e-05
5.06894e-13
7.88871e-05
1.69811e-12
0.000185664
4.9273e-12
0.000391073
1.2248e-11
0.000719504
2.57887e-11
0.0011129
4.25345e-11
0.00147943
5.10659e-11
0.00174747
4.26765e-11
0.00186674
1.84774e-11
0.00184203
-4.92964e-11
0.00181882
-1.05387e-10
0.00180265
-1.45065e-10
0.00179137
-7.06536e-11
0.00179488
-8.79312e-11
0.00179227
6.22188e-11
0.00179382
-1.03791e-10
0.00173579
4.31379e-11
0.00170824
-1.17173e-11
0.00171949
9.04556e-11
0.00171523
3.56067e-11
0.00171626
6.43697e-11
0.00171252
7.99099e-11
0.00167978
1.14551e-10
0.00177617
1.14627e-10
0.00188123
3.04872e-11
0.00162051
-3.61437e-11
0.000976308
-5.84943e-11
0.000493036
-3.40392e-11
0.000221737
-1.53525e-11
9.05841e-05
-6.05733e-12
3.39749e-05
-2.11684e-12
1.17887e-05
-6.68589e-13
3.80781e-06
-1.87815e-13
1.15087e-06
-4.74203e-14
3.27e-07
-1.03405e-14
8.76836e-08
-2.17328e-15
2.22721e-08
-6.18104e-16
5.37485e-09
-2.42644e-16
1.23614e-09
-5.61617e-17
2.7157e-10
9.75782e-18
5.7137e-11
1.57209e-17
1.15342e-11
-1.0842e-19
2.23876e-12
9.6494e-18
4.18335e-13
3.72966e-17
7.52684e-14
2.9924e-17
1.29588e-14
4.09828e-17
2.04784e-15
2.75387e-17
2.47632e-16
2.9165e-17
7.45931e-17
3.20924e-17
1.73472e-18
3.11166e-17
7.41594e-17
6.17995e-17
1.73472e-17
4.0766e-17
3.85976e-17
4.40186e-17
-9.54098e-18
3.72966e-17
5.33427e-17
2.35272e-17
9.75782e-17
2.75387e-17
2.60209e-17
1.69136e-17
3.46945e-18
8.45678e-18
-3.55618e-17
7.91468e-18
-2.73219e-17
5.42101e-18
-5.20417e-17
1.52873e-17
7.1991e-17
2.42861e-17
-2.60209e-18
5.63785e-18
9.10948e-34
1.35525e-17
-1.99493e-17
1.0842e-18
-1.45283e-17
1.77809e-17
1.12757e-17
2.42861e-17
1.79978e-17
6.63532e-17
2.76472e-17
6.15827e-17
2.50451e-17
2.86229e-17
8.78204e-18
2.9924e-17
1.30104e-17
1.04083e-17
2.88398e-17
-4.55365e-17
2.56956e-17
-4.64039e-17
2.61293e-17
-2.73219e-17
1.4203e-17
-3.25261e-17
3.71881e-17
-7.50268e-17
4.03323e-17
-9.97466e-18
5.0307e-17
-5.07407e-17
3.16587e-17
-4.33681e-19
4.08744e-17
6.93889e-18
6.04985e-17
2.1684e-17
7.4051e-17
2.59775e-16
6.41848e-17
1.93769e-15
5.26922e-17
1.2611e-14
7.44847e-17
7.35167e-14
6.5269e-17
4.08235e-13
6.19079e-17
2.18203e-12
4.97649e-17
1.12249e-11
7.4051e-17
5.55039e-11
5.81132e-17
2.63223e-10
3.77302e-17
1.1949e-09
-4.01155e-17
5.1781e-09
-8.45678e-17
2.13669e-08
5.21501e-17
8.36756e-08
7.98515e-16
3.0995e-07
4.40999e-15
1.08135e-06
1.71411e-14
3.53694e-06
6.38904e-14
1.07837e-05
2.05742e-13
3.04408e-05
6.64347e-13
7.88871e-05
1.90434e-12
0.000185664
4.98998e-12
0.000391073
1.18258e-11
0.000719504
2.53368e-11
0.0011129
4.38536e-11
0.00147943
4.3891e-11
0.00174746
1.51004e-11
0.00186673
-2.90131e-11
0.00184203
-8.85429e-11
0.00181882
-1.21923e-10
0.00180265
-1.03193e-10
0.00179137
-9.35243e-11
0.00179488
-2.09032e-11
0.00179227
-3.3993e-11
0.00179382
3.06307e-11
0.00173579
-1.86881e-11
0.00170824
2.86805e-11
0.00171949
3.69858e-11
0.00171523
3.99866e-11
0.00171626
4.34726e-11
0.00171252
6.49483e-11
0.00167978
1.01371e-10
0.00177617
1.17879e-10
0.00188123
5.14897e-11
0.00162051
-1.56909e-11
0.000976308
-5.1144e-11
0.000493036
-3.21962e-11
0.000221737
-1.3549e-11
9.05841e-05
-5.47379e-12
3.39749e-05
-2.0477e-12
1.17887e-05
-7.02145e-13
3.80781e-06
-2.3255e-13
1.15087e-06
-6.41619e-14
3.27e-07
-1.87232e-14
8.76836e-08
-4.58531e-15
2.22721e-08
-1.02316e-15
5.37486e-09
-8.94467e-17
1.23614e-09
1.15576e-16
2.7157e-10
4.49944e-17
5.7137e-11
3.08998e-17
1.15342e-11
4.33681e-17
2.2388e-12
5.37764e-17
4.18344e-13
5.20417e-17
7.5271e-14
4.02239e-17
1.29449e-14
5.97395e-17
2.05174e-15
6.92805e-17
2.61943e-16
5.97395e-17
7.37257e-17
5.95227e-17
1.21431e-16
4.86807e-17
-3.90313e-18
2.27682e-17
3.1225e-17
3.40439e-17
7.80626e-18
2.12504e-17
-5.20417e-17
2.21177e-17
6.50521e-17
3.06829e-17
5.07407e-17
1.95156e-17
-1.21431e-17
-4.11997e-18
-4.77049e-18
-9.1073e-18
-4.16334e-17
-1.76725e-17
8.23994e-18
-1.05168e-17
-2.34188e-17
-7.69784e-18
1.0842e-17
2.81893e-18
1.86483e-17
6.83047e-18
-3.46945e-17
9.54098e-18
-9.15067e-17
1.04083e-17
3.11166e-17
5.24754e-17
7.80626e-18
6.37511e-17
1.36609e-17
4.98733e-17
-4.22839e-18
6.07153e-18
2.60209e-18
4.68375e-17
1.77809e-17
7.89299e-17
3.57787e-18
-1.30104e-17
-1.22515e-17
-4.68375e-17
3.68629e-18
-9.1073e-17
1.04083e-17
4.90059e-17
3.25261e-17
-1.38778e-17
1.48536e-17
-2.94903e-17
1.00831e-17
-5.9848e-17
9.21572e-18
-2.42861e-17
3.15503e-17
7.89299e-17
6.81963e-17
6.28837e-17
5.13912e-17
-6.50521e-18
4.67291e-17
2.22045e-16
4.91144e-17
1.96978e-15
6.77626e-17
1.26062e-14
7.44847e-17
7.3495e-14
5.63785e-17
4.08229e-13
6.1149e-17
2.18204e-12
6.08237e-17
1.12249e-11
7.20994e-17
5.55038e-11
7.83878e-17
2.63223e-10
1.36067e-16
1.1949e-09
3.30248e-16
5.17809e-09
1.12768e-15
2.13669e-08
4.16984e-15
8.36756e-08
1.55822e-14
3.0995e-07
5.54251e-14
1.08135e-06
1.85722e-13
3.53694e-06
5.73645e-13
1.07837e-05
1.63881e-12
3.04408e-05
4.20689e-12
7.88871e-05
9.69215e-12
0.000185664
1.89874e-11
0.000391073
3.04832e-11
0.000719504
3.15733e-11
0.0011129
1.06119e-11
0.00147943
-5.14799e-11
0.00174746
-1.3721e-10
0.00186673
-2.1048e-10
0.00184203
-1.35578e-10
0.00181882
-8.61973e-11
0.00180265
5.90428e-11
0.00179137
-1.0236e-10
0.00179488
2.20259e-10
0.00179227
-3.30602e-10
0.00179382
5.7786e-10
0.0017358
-1.9561e-10
0.00170824
9.78446e-11
0.00171949
-1.88389e-10
0.00171523
4.33226e-11
0.00171626
-1.67811e-11
0.00171252
-1.11066e-11
0.00167978
1.5968e-12
0.00177617
6.85468e-11
0.00188123
1.3754e-10
0.00162051
1.31634e-10
0.000976308
3.21145e-11
0.000493036
-1.48393e-11
0.000221737
-2.58342e-11
9.05841e-05
-1.75741e-11
3.39749e-05
-9.24364e-12
1.17887e-05
-4.05414e-12
3.80781e-06
-1.58872e-12
1.15087e-06
-5.57311e-13
3.27e-07
-1.80755e-13
8.76835e-08
-5.39528e-14
2.22721e-08
-1.51497e-14
5.37485e-09
-4.00537e-15
1.23614e-09
-1.02034e-15
2.71569e-10
-2.35922e-16
5.7137e-11
-2.43945e-17
1.15342e-11
1.22515e-17
2.23881e-12
2.25514e-17
4.18352e-13
1.91904e-17
7.52987e-14
3.95734e-17
1.29705e-14
2.36356e-17
2.03396e-15
2.21177e-17
2.3679e-16
1.59378e-17
2.55872e-17
1.37694e-17
2.38524e-17
1.14925e-17
4.16334e-17
1.12757e-17
-9.1073e-18
-2.27682e-18
1.04083e-17
6.93889e-18
-4.51028e-17
4.11997e-18
1.86483e-17
3.16587e-17
-3.90313e-17
1.07336e-17
-3.72966e-17
2.3744e-17
-3.42608e-17
4.13081e-17
-5.20417e-18
6.13658e-17
9.97466e-18
6.94974e-17
1.77809e-17
6.245e-17
3.64292e-17
3.03577e-17
3.07913e-17
9.86624e-18
-2.12504e-17
-5.42101e-19
-1.73472e-18
-1.1601e-17
-7.91468e-18
6.245e-17
1.30104e-18
4.33681e-19
1.85399e-17
6.46184e-17
3.07913e-17
4.38018e-17
2.36356e-17
4.77049e-18
1.71304e-17
3.25261e-17
1.74557e-17
5.1608e-17
1.84314e-17
-1.30104e-18
2.22261e-17
-1.47451e-17
2.73219e-17
5.20417e-18
3.50197e-17
-4.77049e-17
2.21177e-17
-2.38524e-17
2.25514e-17
1.82146e-17
3.01408e-17
1.02349e-16
3.29597e-17
1.73472e-17
1.92988e-17
5.50775e-17
2.32019e-17
-3.46945e-18
4.43439e-17
2.89265e-16
6.1149e-17
1.97325e-15
4.39102e-17
1.2601e-14
2.95987e-17
7.34833e-14
2.52619e-17
4.08239e-13
6.93889e-18
2.18207e-12
2.66714e-17
1.1225e-11
1.34441e-17
5.55041e-11
1.61546e-17
2.63224e-10
2.76472e-17
1.1949e-09
1.33574e-16
5.17811e-09
4.79543e-16
2.1367e-08
1.92587e-15
8.36758e-08
7.53965e-15
3.09951e-07
2.7462e-14
1.08136e-06
9.39547e-14
3.53695e-06
2.9657e-13
1.07837e-05
8.66987e-13
3.04408e-05
2.28382e-12
7.88872e-05
5.40971e-12
0.000185664
1.09451e-11
0.000391073
1.82865e-11
0.000719504
2.08447e-11
0.0011129
6.94765e-12
0.00147943
-3.5358e-11
0.00174746
-9.13356e-11
0.00186673
-1.45634e-10
0.00184203
-1.12268e-10
0.00181882
-4.66025e-11
0.00180265
7.58307e-11
0.00179137
-3.68503e-11
0.00179488
1.60259e-10
0.00179227
-2.11585e-10
0.00179382
3.35967e-10
0.00173579
-1.32584e-10
0.00170824
8.36482e-11
0.00171949
-1.05902e-10
0.00171523
2.1319e-11
0.00171626
-3.44217e-11
0.00171252
-3.54968e-11
0.00167978
-2.35652e-11
0.00177617
5.22041e-11
0.00188123
9.67741e-11
0.00162051
8.51106e-11
0.000976308
2.34773e-11
0.000493036
-1.12127e-11
0.000221737
-1.54074e-11
9.05842e-05
-1.00341e-11
3.3975e-05
-5.12179e-12
1.17887e-05
-2.19015e-12
3.80782e-06
-8.37771e-13
1.15087e-06
-2.8759e-13
3.27001e-07
-9.13456e-14
8.76838e-08
-2.6718e-14
2.22721e-08
-7.33593e-15
5.37487e-09
-1.84217e-15
1.23615e-09
-4.28368e-16
2.71571e-10
-5.89806e-17
5.71372e-11
9.97466e-18
1.15343e-11
2.93819e-17
2.23882e-12
9.75782e-18
4.18358e-13
2.08167e-17
7.52983e-14
1.19262e-17
1.29484e-14
2.81893e-17
2.02529e-15
3.89229e-17
2.4156e-16
4.00071e-17
2.64545e-17
4.23923e-17
2.51535e-17
2.76472e-17
-2.94903e-17
2.00577e-17
2.73219e-17
2.87314e-17
9.1073e-18
1.57209e-17
5.29091e-17
-2.38524e-18
-2.9924e-17
-1.88651e-17
1.0842e-17
-1.25767e-17
4.29344e-17
-2.92735e-18
5.0307e-17
-1.0842e-17
2.12504e-17
-1.1601e-17
-3.33934e-17
-1.54338e-53
-1.13191e-16
1.72388e-17
-4.77049e-17
3.67545e-17
-1.9082e-17
2.10335e-17
-7.89299e-17
6.93889e-18
9.1073e-18
9.21572e-18
-2.60209e-18
1.30538e-16
2.07083e-17
5.55112e-17
-1.22515e-17
3.46945e-17
-1.71304e-17
2.94903e-17
-5.63785e-18
-1.12757e-17
-1.39862e-17
2.21177e-17
-1.6263e-18
6.41848e-17
-2.1684e-19
1.64799e-17
-1.8323e-17
1.0842e-17
-2.89482e-17
-2.94903e-17
-3.1225e-17
-4.90059e-17
-2.61293e-17
1.0842e-17
2.49366e-18
3.20924e-17
-2.38524e-18
6.85216e-17
2.97071e-17
3.33934e-17
1.22515e-17
1.17528e-16
1.25767e-17
6.245e-17
-4.11997e-18
2.40259e-16
-1.33357e-17
1.92207e-15
-3.75134e-17
1.25486e-14
-3.5345e-17
7.34677e-14
-1.55041e-17
4.08253e-13
-2.67798e-17
2.18206e-12
-2.50451e-17
1.1225e-11
-2.15756e-17
5.55042e-11
-9.1073e-18
2.63224e-10
-2.92735e-17
1.19491e-09
-2.36356e-17
5.17812e-09
-2.19009e-17
2.1367e-08
-3.20924e-17
8.36759e-08
-2.49366e-17
3.09951e-07
-3.28513e-17
1.08136e-06
3.36117e-18
3.53695e-06
3.05744e-17
1.07837e-05
3.43475e-16
3.04408e-05
1.40686e-15
7.88872e-05
4.44187e-15
0.000185664
1.15605e-14
0.000391073
2.48144e-14
0.000719504
3.99825e-14
0.0011129
3.40542e-14
0.00147943
-2.98813e-14
0.00174746
-2.08327e-13
0.00186673
-3.81736e-13
0.00184203
-4.11146e-13
0.00181882
-1.22023e-13
0.00180265
-1.37665e-13
0.00179137
7.74241e-14
0.00179488
-3.06504e-13
0.00179227
8.70022e-13
0.00179382
-1.61651e-12
0.00173579
8.86403e-13
0.00170824
-3.52133e-13
0.00171949
1.1238e-12
0.00171523
-4.05535e-13
0.00171626
3.85238e-13
0.00171252
1.39591e-13
0.00167979
2.82779e-13
0.00177617
-1.40382e-15
0.00188123
2.63972e-13
0.00162051
5.25703e-13
0.000976308
3.873e-13
0.000493036
-1.52756e-14
0.000221737
-1.11646e-13
9.05842e-05
-1.00802e-13
3.3975e-05
-5.95026e-14
1.17887e-05
-2.91222e-14
3.80782e-06
-1.20943e-14
1.15087e-06
-4.50746e-15
3.27001e-07
-1.46606e-15
8.76839e-08
-4.16225e-16
2.22722e-08
-1.13408e-16
5.37488e-09
-3.44776e-17
1.23615e-09
-1.76725e-17
2.71571e-10
-2.0383e-17
5.71373e-11
-1.01915e-17
1.15343e-11
-1.0842e-19
2.2388e-12
2.07083e-17
4.18391e-13
2.01662e-17
7.53152e-14
1.40946e-17
1.29779e-14
7.15573e-18
2.02876e-15
3.25261e-19
2.29851e-16
-1.24683e-17
-1.73472e-17
-1.88651e-17
-1.73472e-17
-1.0842e-18
2.21177e-17
9.21572e-18
-2.42861e-17
-3.68629e-18
-6.02816e-17
4.66207e-18
-5.63785e-18
2.38524e-18
-2.60209e-17
-8.5652e-18
3.33934e-17
-9.1073e-18
1.95156e-17
-1.96241e-17
3.77302e-17
-2.63461e-17
7.89299e-17
-2.77556e-17
3.1225e-17
-3.56703e-17
-3.16587e-17
-3.14419e-17
-1.11022e-16
-1.02999e-17
-6.72205e-17
2.9924e-17
-7.54605e-17
3.84892e-17
-4.2067e-17
6.39679e-17
7.1991e-17
1.17094e-17
-1.10589e-17
4.42354e-17
1.51788e-18
7.54605e-17
3.68629e-18
5.63785e-18
-6.50521e-18
4.11997e-17
-2.6563e-17
3.90313e-17
-3.83808e-17
-2.60209e-18
-4.26091e-17
-1.30104e-17
-4.71628e-17
-6.93889e-18
-5.06322e-17
-1.0842e-17
-4.51028e-17
5.55112e-17
-2.14672e-17
-3.03577e-18
-1.64799e-17
1.33574e-16
1.84314e-18
1.34441e-17
-1.31188e-17
1.12757e-17
-1.09504e-17
6.46184e-17
-1.43115e-17
2.34188e-17
-3.63208e-17
1.72171e-16
-5.84385e-17
1.92988e-15
-5.82217e-17
1.25889e-14
-7.14489e-17
7.34647e-14
-6.51606e-17
4.08246e-13
-2.90566e-17
2.18207e-12
-6.29921e-17
1.1225e-11
-6.61363e-17
5.55041e-11
-6.09322e-17
2.63224e-10
-7.84962e-17
1.19491e-09
-1.70979e-16
5.17812e-09
-5.22477e-16
2.1367e-08
-1.96924e-15
8.36759e-08
-7.56491e-15
3.09951e-07
-2.75219e-14
1.08136e-06
-9.40622e-14
3.53695e-06
-2.96753e-13
1.07837e-05
-8.67086e-13
3.04408e-05
-2.28302e-12
7.88872e-05
-5.40509e-12
0.000185664
-1.09295e-11
0.000391073
-1.82471e-11
0.000719504
-2.07737e-11
0.0011129
-6.84966e-12
0.00147943
3.52947e-11
0.00174746
9.11455e-11
0.00186673
1.45296e-10
0.00184203
1.11943e-10
0.00181882
4.65712e-11
0.00180265
-7.59178e-11
0.00179137
3.69147e-11
0.00179488
-1.60712e-10
0.00179227
2.1224e-10
0.00179382
-3.37949e-10
0.00173579
1.33272e-10
0.00170824
-8.386e-11
0.00171949
1.07294e-10
0.00171523
-2.1656e-11
0.00171626
3.51115e-11
0.00171252
3.58828e-11
0.00167979
2.39928e-11
0.00177617
-5.20262e-11
0.00188123
-9.62662e-11
0.00162051
-8.43116e-11
0.000976308
-2.31304e-11
0.000493036
1.09895e-11
0.000221737
1.50493e-11
9.05842e-05
9.75667e-12
3.3975e-05
4.96492e-12
1.17887e-05
2.1149e-12
3.80782e-06
8.06652e-13
1.15087e-06
2.75949e-13
3.27001e-07
8.74027e-14
8.76839e-08
2.54767e-14
2.22722e-08
6.94995e-15
5.37488e-09
1.73592e-15
1.23615e-09
3.85651e-16
2.71571e-10
5.19333e-17
5.71373e-11
-1.84314e-17
1.15343e-11
-4.72712e-17
2.23883e-12
-2.75387e-17
4.1836e-13
-4.4127e-17
7.53056e-14
-1.51788e-17
1.29727e-14
-3.03577e-17
2.01748e-15
-4.81386e-17
2.24647e-16
-4.62954e-17
2.86229e-17
-4.96565e-17
3.16587e-17
-4.04407e-17
-2.47198e-17
-4.65123e-17
2.29851e-17
-4.74881e-17
-6.1149e-17
-4.91144e-17
-5.76796e-17
-3.77302e-17
-2.81893e-17
-3.25261e-17
9.97466e-18
-1.63715e-17
-5.20417e-18
-1.94072e-17
3.33934e-17
-1.10589e-17
3.38271e-17
-1.64799e-17
6.1149e-17
-2.84061e-17
6.33174e-17
-2.40693e-17
4.68375e-17
-1.78893e-17
-1.34441e-17
-1.89735e-17
2.34188e-17
-2.81893e-18
4.2067e-17
-8.67362e-18
-1.14925e-17
5.24754e-17
-8.78204e-18
1.99493e-17
-2.2443e-17
3.29597e-17
-1.21431e-17
-6.63532e-17
-2.49366e-17
4.33681e-19
-1.87567e-17
3.90313e-18
-1.47451e-17
-1.34441e-17
4.11997e-18
-2.90566e-17
-3.03577e-18
3.07913e-17
-1.27936e-17
6.76542e-17
-2.7864e-17
9.67108e-17
-4.13081e-17
7.24247e-17
-6.23416e-17
6.63532e-17
-6.49437e-17
2.77556e-17
-6.84132e-17
-2.21177e-17
-6.67869e-17
-3.42608e-17
-7.07984e-17
-5.72459e-17
-8.23994e-17
1.73039e-16
-7.96889e-17
1.916e-15
-6.88468e-17
1.26127e-14
-5.72459e-17
7.35037e-14
-5.51859e-17
4.0822e-13
-8.29415e-17
2.18205e-12
-7.02563e-17
1.1225e-11
-8.42425e-17
5.5504e-11
-8.30499e-17
2.63224e-10
-1.23707e-16
1.1949e-09
-3.32416e-16
5.17811e-09
-1.13126e-15
2.1367e-08
-4.21332e-15
8.36758e-08
-1.57277e-14
3.09951e-07
-5.59352e-14
1.08136e-06
-1.87371e-13
3.53695e-06
-5.786e-13
1.07837e-05
-1.65264e-12
3.04408e-05
-4.2423e-12
7.88872e-05
-9.7736e-12
0.000185664
-1.91524e-11
0.000391073
-3.0766e-11
0.000719504
-3.19817e-11
0.0011129
-1.08305e-11
0.00147943
5.13605e-11
0.00174746
1.37557e-10
0.00186673
2.11232e-10
0.00184203
1.36466e-10
0.00181882
8.64365e-11
0.00180265
-5.86262e-11
0.00179137
1.02255e-10
0.00179488
-2.1989e-10
0.00179227
3.29878e-10
0.00179382
-5.76194e-10
0.00173579
1.95171e-10
0.00170824
-9.75408e-11
0.00171949
1.87121e-10
0.00171523
-4.29896e-11
0.00171626
1.65011e-11
0.00171252
1.10872e-11
0.00167978
-1.79218e-12
0.00177617
-6.84144e-11
0.00188123
-1.37365e-10
0.00162051
-1.31986e-10
0.000976308
-3.28148e-11
0.000493036
1.45452e-11
0.000221737
2.57419e-11
9.05842e-05
1.7572e-11
3.3975e-05
9.26046e-12
1.17887e-05
4.06829e-12
3.80782e-06
1.59624e-12
1.15087e-06
5.60662e-13
3.27001e-07
1.82011e-13
8.76838e-08
5.4377e-14
2.22721e-08
1.52796e-14
5.37487e-09
4.03573e-15
1.23615e-09
1.02186e-15
2.71571e-10
2.39283e-16
5.71372e-11
7.26415e-18
1.15343e-11
-3.13334e-17
2.23884e-12
-5.18249e-17
4.18391e-13
-2.48282e-17
7.52697e-14
-5.83301e-17
1.2912e-14
-4.22839e-17
1.98973e-15
-2.4503e-17
2.21611e-16
-1.57209e-17
5.55112e-17
-1.51788e-17
6.07153e-18
-3.93565e-17
-3.85976e-17
-5.25838e-17
7.37257e-18
-5.14996e-17
-2.94903e-17
-4.59702e-17
-2.42861e-17
-2.87314e-17
2.86229e-17
-2.15756e-17
4.33681e-19
-3.05745e-17
2.38524e-17
-3.05745e-17
5.63785e-18
-2.14672e-17
-1.51788e-17
7.58942e-19
7.15573e-17
5.31259e-18
7.24247e-17
-1.04083e-17
3.29597e-17
-2.22261e-17
2.86229e-17
-1.37694e-17
-6.50521e-18
1.00831e-17
7.80626e-18
1.10589e-17
9.32414e-18
1.82146e-17
-1.61546e-17
5.81132e-17
-7.26415e-18
-6.07153e-18
-2.36356e-17
-6.33174e-17
-3.20924e-17
5.63785e-18
-1.20346e-17
7.80626e-17
-1.84314e-18
-3.20924e-17
-1.82146e-17
-7.11237e-17
-3.72966e-17
-2.9924e-17
-3.55618e-17
3.46945e-18
-1.84314e-17
1.47451e-17
-2.75387e-17
4.46691e-17
-2.64545e-17
7.28584e-17
-5.01986e-17
4.51028e-17
-7.42678e-17
-4.33681e-18
-8.10983e-17
-8.23994e-17
-7.12321e-17
-4.55365e-17
-5.7029e-17
2.00361e-16
-5.26922e-17
1.94116e-15
-5.50775e-17
1.25863e-14
-7.7412e-17
7.34694e-14
-7.01479e-17
4.08208e-13
-7.25331e-17
2.18203e-12
-7.28584e-17
1.12249e-11
-6.63532e-17
5.55038e-11
-5.3668e-17
2.63223e-10
-4.68375e-17
1.1949e-09
2.3744e-17
5.17809e-09
7.54605e-17
2.13669e-08
-1.04734e-16
8.36756e-08
-1.13342e-15
3.0995e-07
-5.27085e-15
1.08135e-06
-1.85911e-14
3.53694e-06
-6.75144e-14
1.07837e-05
-2.33429e-13
3.04408e-05
-7.01608e-13
7.88871e-05
-1.99876e-12
0.000185664
-5.17783e-12
0.000391073
-1.21308e-11
0.000719504
-2.57008e-11
0.0011129
-4.41169e-11
0.00147943
-4.37942e-11
0.00174746
-1.43385e-11
0.00186673
2.97513e-11
0.00184203
8.94557e-11
0.00181882
1.22326e-10
0.00180265
1.03842e-10
0.00179137
9.31564e-11
0.00179488
2.17116e-11
0.00179227
3.26268e-11
0.00179382
-2.89364e-11
0.0017358
1.76553e-11
0.00170824
-2.82384e-11
0.00171949
-3.84136e-11
0.00171523
-3.95316e-11
0.00171626
-4.39132e-11
0.00171252
-6.5119e-11
0.00167978
-1.01917e-10
0.00177617
-1.18231e-10
0.00188123
-5.18954e-11
0.00162051
1.48843e-11
0.000976308
5.07514e-11
0.000493036
3.19763e-11
0.000221737
1.3471e-11
9.05841e-05
5.46485e-12
3.39749e-05
2.05097e-12
1.17887e-05
7.05657e-13
3.80781e-06
2.34244e-13
1.15087e-06
6.55085e-14
3.27e-07
1.93742e-14
8.76835e-08
4.81733e-15
2.22721e-08
9.99851e-16
5.37485e-09
5.4969e-17
1.23614e-09
-1.43006e-16
2.71569e-10
-8.04478e-17
5.7137e-11
-5.07407e-17
1.15343e-11
-4.32597e-17
2.23885e-12
-6.55942e-17
4.18362e-13
-6.29921e-17
7.53e-14
-6.48353e-17
1.2964e-14
-5.91974e-17
2.02052e-15
-3.89229e-17
2.04697e-16
-4.29344e-17
-3.68629e-17
-2.84061e-17
-5.50775e-17
-3.33934e-17
-2.29851e-17
-3.88144e-17
1.86483e-17
-3.69713e-17
3.81639e-17
-4.17418e-17
3.46945e-18
-5.07407e-17
8.67362e-18
-5.28006e-17
-4.33681e-18
-3.54534e-17
5.33427e-17
-1.21431e-17
8.67362e-17
-1.31188e-17
4.77049e-18
-1.4962e-17
1.82146e-17
-4.55365e-18
2.08167e-17
8.78204e-18
8.84709e-17
2.34188e-17
1.14925e-16
2.60209e-18
2.38524e-17
-2.15756e-17
-3.46945e-18
-4.64039e-17
-5.60533e-17
2.86229e-17
-2.30935e-17
-8.23994e-18
-8.5652e-18
-3.77302e-17
-4.66207e-18
1.51788e-17
-8.78204e-18
5.72459e-17
-4.44523e-18
1.04083e-17
-3.44776e-17
-1.0842e-16
-3.56703e-17
-5.42101e-17
-2.36356e-17
3.1225e-17
-5.74627e-18
-1.21431e-17
-8.89046e-18
2.1684e-18
-2.17925e-17
-3.77302e-17
-2.38524e-17
-5.63785e-18
-2.63461e-17
-6.93889e-18
-2.84061e-17
3.46945e-18
-2.9165e-17
-4.94396e-17
-4.35849e-17
-1.86483e-17
-5.80048e-17
1.76508e-16
-8.18573e-17
1.90559e-15
-7.11237e-17
1.26015e-14
-6.35342e-17
7.34781e-14
-7.16658e-17
4.08211e-13
-5.65954e-17
2.18206e-12
-3.48029e-17
1.1225e-11
-2.62377e-17
5.55039e-11
-4.83554e-17
2.63223e-10
-3.25261e-17
1.1949e-09
-3.52366e-17
5.1781e-09
-4.94396e-17
2.13669e-08
-1.40729e-16
8.36756e-08
-2.26924e-16
3.0995e-07
-7.05599e-16
1.08135e-06
-5.40702e-15
3.53694e-06
-3.24625e-14
1.07837e-05
-1.46746e-13
3.04408e-05
-5.52912e-13
7.88871e-05
-1.78483e-12
0.000185664
-5.06838e-12
0.000391073
-1.24242e-11
0.000719504
-2.59378e-11
0.0011129
-4.25528e-11
0.00147943
-5.09579e-11
0.00174746
-4.23634e-11
0.00186673
-1.81585e-11
0.00184203
5.01318e-11
0.00181882
1.05716e-10
0.00180265
1.45963e-10
0.00179137
7.02743e-11
0.00179488
8.89213e-11
0.00179227
-6.3154e-11
0.00179382
1.04604e-10
0.00173579
-4.35744e-11
0.00170824
1.17507e-11
0.00171949
-9.05358e-11
0.00171523
-3.5558e-11
0.00171626
-6.46642e-11
0.00171252
-8.00869e-11
0.00167978
-1.14921e-10
0.00177617
-1.15618e-10
0.00188123
-3.1816e-11
0.00162051
3.55776e-11
0.000976308
5.85368e-11
0.000493036
3.44094e-11
0.000221737
1.5652e-11
9.05841e-05
6.23173e-12
3.39749e-05
2.20081e-12
1.17887e-05
7.04226e-13
3.80781e-06
2.0139e-13
1.15087e-06
5.21799e-14
3.27e-07
1.1885e-14
8.76836e-08
2.59851e-15
2.22721e-08
7.10478e-16
5.37486e-09
2.43945e-16
1.23614e-09
6.38595e-17
2.7157e-10
1.04083e-17
5.7137e-11
-2.81893e-17
1.15343e-11
-1.06252e-17
2.23882e-12
-9.75782e-18
4.18364e-13
-3.3285e-17
7.53126e-14
-2.64545e-17
1.30013e-14
-2.12504e-17
2.04134e-15
-3.90313e-17
2.53703e-16
-4.86807e-17
-3.68629e-17
-6.84132e-17
-7.28584e-17
-5.68122e-17
-2.1684e-17
-3.93565e-17
1.17094e-17
-3.1225e-17
8.67362e-19
-4.19586e-17
-8.67362e-19
-4.35849e-17
7.76289e-17
-3.51282e-17
8.84709e-17
-2.77556e-17
5.9848e-17
-3.37187e-17
8.80372e-17
-2.39609e-17
4.81386e-17
-1.82146e-17
9.02056e-17
-1.11673e-17
6.85216e-17
-1.69136e-17
-2.1684e-18
-3.35018e-17
1.99493e-17
-2.21177e-17
-7.41594e-17
-3.61039e-17
-4.11997e-17
-2.62377e-17
-2.56956e-17
8.93383e-17
2.08167e-17
-4.55365e-17
2.21177e-17
-4.64039e-17
-5.63785e-18
-4.85723e-17
9.97466e-18
2.60209e-18
-4.03323e-17
-2.90566e-17
-5.50775e-17
-2.0383e-17
-7.37257e-18
-4.25007e-17
-9.2374e-17
-9.62772e-17
2.0383e-16
1.92901e-15
1.25967e-14
7.35076e-14
4.08272e-13
2.18207e-12
1.12249e-11
5.55039e-11
2.63223e-10
1.1949e-09
5.17809e-09
2.13669e-08
8.36756e-08
3.0995e-07
1.08135e-06
3.53694e-06
1.07837e-05
3.04408e-05
7.88871e-05
0.000185664
0.000391073
0.000719504
0.0011129
0.00147943
0.00174747
0.00186674
0.00184203
0.00181882
0.00180265
0.00179137
0.00179488
0.00179227
0.00179382
0.00173579
0.00170824
0.00171949
0.00171523
0.00171626
0.00171252
0.00167978
0.00177617
0.00188123
0.00162051
0.000976308
0.000493036
0.000221737
9.05841e-05
3.39749e-05
1.17887e-05
3.80781e-06
1.15087e-06
3.27e-07
8.76836e-08
2.22721e-08
5.37485e-09
1.23614e-09
2.7157e-10
5.7137e-11
1.15342e-11
2.23879e-12
4.18358e-13
7.53217e-14
1.29571e-14
1.9971e-15
2.0383e-16
-3.46945e-18
-1.04083e-17
9.97466e-18
-2.60209e-17
-9.54098e-18
2.55872e-17
1.09721e-16
6.1149e-17
8.41341e-17
1.01481e-16
7.02563e-17
6.67869e-17
4.33681e-18
4.0766e-17
-3.59955e-17
-5.20417e-17
-4.68375e-17
)
;

boundaryField
{
    sides1
    {
        type            calculated;
        value           nonuniform List<scalar> 
20
(
-1.80548e-17
-5.27083e-17
-6.40653e-18
4.9505e-18
-5.82412e-17
4.16425e-17
3.78568e-18
-9.31859e-18
-2.44613e-17
-3.17415e-17
-5.6494e-17
-5.82412e-18
-3.72744e-17
-3.14503e-17
-7.22191e-17
-8.73618e-18
-2.09668e-17
-1.63075e-17
-1.28131e-17
-7.28015e-17
)
;
    }
    sides2
    {
        type            calculated;
        value           uniform 0;
    }
    empty
    {
        type            empty;
        value           nonuniform 0();
    }
}


// ************************************************************************* //
