/*--------------------------------*- C++ -*----------------------------------*\
| =========                 |                                                 |
| \\      /  F ield         | OpenFOAM: The Open Source CFD Toolbox           |
|  \\    /   O peration     | Version:  2012                                  |
|   \\  /    A nd           | Website:  www.openfoam.com                      |
|    \\/     M anipulation  |                                                 |
\*---------------------------------------------------------------------------*/
FoamFile
{
    version     2.0;
    format      ascii;
    class       volScalarField;
    location    "0.007";
    object      minKappa;
}
// * * * * * * * * * * * * * * * * * * * * * * * * * * * * * * * * * * * * * //

dimensions      [0 0 0 0 0 0 0];


internalField   nonuniform List<scalar> 
200
(
0.3220416884
0.3220416884
0.3220416884
0.3220416884
0.3220416884
0.3220416884
0.3220416884
0.3220416884
0.3220416884
0.3220416884
0.3220416884
0.3220416884
0.3220416884
0.3220416884
0.3220416884
0.3220416884
0.3220416884
0.3220416884
0.3220416884
0.3220416884
0.3220416884
0.3220416884
0.3220416884
0.3220416884
0.3220416884
0.3220416884
0.3220416884
0.3220416884
0.3220416884
0.3220416884
0.3220416884
0.3220416884
0.3220416884
0.3220416884
0.3220416884
0.3220416884
0.3220416884
0.3220416884
0.3220416884
0.3220416884
0.3220416884
0.3220416884
0.3220416884
0.3220416884
0.3220416884
0.3220416884
0.3220416884
0.3220416884
0.3220416884
0.3220416884
0.3220416884
0.3220416884
0.3220416884
0.3220416884
0.3220416884
0.3220416884
0.3220416884
0.3220416884
0.3220416884
0.3220416884
0.3220416884
0.3220416884
0.3220416884
0.3220416884
0.3220416884
0.3220416884
0.3220416884
0.3220416884
0.3220416884
0.3220416884
0.3220416884
0.3220416884
0.3220416884
0.3220416884
0.3220416884
0.3220416884
0.3220416884
0.3220416884
0.3220416884
0.3220416884
0.3220416884
0.3220416884
0.3220416884
0.3220416884
0.3220416884
0.3220416884
0.3220416884
0.3220416884
0.3220416884
0.3220416884
0.3220416884
0.3220416884
0.3220416884
0.3220416884
0.3220416884
0.3220416884
0.3220416884
0.3220416884
0.3220416884
0.3220416884
0.3220425647
0.3220644014
0.3223269592
0.3242825392
0.3331615492
0.3548086961
0.3753030919
0.3842008456
0.3810424679
0.370613476
0.3514085382
0.320417084
0.2755613991
0.216842302
0.1537934004
0.1022835133
0.06733683229
0.04522318128
0.03258344913
0.02599832019
0.02275866034
0.02124071251
0.02056078082
0.02026880915
0.02014827843
0.0201003174
0.02008187788
0.02007501351
0.02007253462
0.02007166475
0.02007136769
0.02007126883
0.02007123673
0.02007122654
0.02007122338
0.02007122243
0.02007122214
0.02007122206
0.02007122203
0.02007122203
0.02007122202
0.02007122202
0.02007122202
0.02007122202
0.02007122202
0.02007122202
0.02007122202
0.02007122202
0.02007122202
0.02007122202
0.02007122202
0.02007122202
0.02007122202
0.02007122202
0.02007122202
0.02007122202
0.02007122202
0.02007122202
0.02007122202
0.02007122202
0.02007122202
0.02007122202
0.02007122202
0.02007122202
0.02007122202
0.02007122202
0.02007122202
0.02007122202
0.02007122202
0.02007122202
0.02007122202
0.02007122202
0.02007122202
0.02007122202
0.02007122202
0.02007122202
0.02007122202
0.02007122202
0.02007122202
0.02007122202
0.02007122202
0.02007122202
0.02007122202
0.02007122202
0.02007122202
0.02007122202
0.02007122202
0.02007122202
0.02007122202
0.02007122202
0.02007122202
0.02007122202
0.02007122202
0.02007122202
0.02007122202
0.02007122202
0.02007122202
0.02007122202
0.02007122202
0.02007122202
)
;

boundaryField
{
    sides
    {
        type            calculated;
        value           uniform 0;
    }
    empty1
    {
        type            empty;
    }
    empty2
    {
        type            empty;
    }
}


// ************************************************************************* //
