/*--------------------------------*- C++ -*----------------------------------*\
| =========                 |                                                 |
| \\      /  F ield         | OpenFOAM: The Open Source CFD Toolbox           |
|  \\    /   O peration     | Version:  2012                                  |
|   \\  /    A nd           | Website:  www.openfoam.com                      |
|    \\/     M anipulation  |                                                 |
\*---------------------------------------------------------------------------*/
FoamFile
{
    version     2.0;
    format      ascii;
    class       volScalarField;
    location    "0.007";
    object      rho;
}
// * * * * * * * * * * * * * * * * * * * * * * * * * * * * * * * * * * * * * //

dimensions      [1 -3 0 0 0 0 0];


internalField   nonuniform List<scalar> 
200
(
1.161440186
1.161440186
1.161440186
1.161440186
1.161440186
1.161440186
1.161440186
1.161440186
1.161440186
1.161440186
1.161440186
1.161440186
1.161440186
1.161440186
1.161440186
1.161440186
1.161440186
1.161440186
1.161440186
1.161440186
1.161440186
1.161440186
1.161440186
1.161440186
1.161440186
1.161440186
1.161440186
1.161440186
1.161440186
1.161440186
1.161440186
1.161440186
1.161440186
1.161440186
1.161440186
1.161440186
1.161440186
1.161440186
1.161440186
1.161440186
1.161440186
1.161440186
1.161440186
1.161440186
1.161440186
1.161440186
1.161440186
1.161440186
1.161440186
1.161440186
1.161440186
1.161440186
1.161440186
1.161440186
1.161440186
1.161440186
1.161440186
1.161440186
1.161440186
1.161440186
1.161440186
1.161440186
1.161440186
1.161440186
1.161440186
1.161440186
1.161440186
1.161440186
1.161440186
1.161440186
1.161440186
1.161440186
1.161440186
1.161440186
1.161440186
1.161440186
1.161440186
1.161440186
1.161440186
1.161440186
1.161440186
1.161440186
1.161440186
1.161440186
1.161440186
1.161440186
1.161440186
1.161440186
1.161440186
1.161440186
1.161440186
1.161440186
1.161440186
1.161440186
1.161440186
1.161440186
1.161440186
1.161440186
1.161440186
1.161440186
1.161452542
1.161719575
1.164579276
1.184795323
1.290823878
1.730412076
3.229193367
7.545291119
18.24349051
41.38242715
85.48936284
160.0905197
272.5976066
423.6985
605.1073698
769.7214559
881.6336999
951.1071415
991.0907122
1012.628302
1023.565497
1028.831945
1031.247911
1032.308011
1032.754441
1032.935396
1033.006176
1033.032951
1033.042767
1033.04626
1033.047469
1033.047876
1033.04801
1033.048053
1033.048066
1033.048071
1033.048072
1033.048072
1033.048072
1033.048072
1033.048072
1033.048072
1033.048072
1033.048072
1033.048072
1033.048072
1033.048072
1033.048072
1033.048072
1033.048072
1033.048072
1033.048072
1033.048072
1033.048072
1033.048072
1033.048072
1033.048072
1033.048072
1033.048072
1033.048072
1033.048072
1033.048072
1033.048072
1033.048072
1033.048072
1033.048072
1033.048072
1033.048072
1033.048072
1033.048072
1033.048072
1033.048072
1033.048072
1033.048072
1033.048072
1033.048072
1033.048072
1033.048072
1033.048072
1033.048072
1033.048072
1033.048072
1033.048072
1033.048072
1033.048072
1033.048072
1033.048072
1033.048072
1033.048072
1033.048072
1033.048072
1033.048072
1033.048072
1033.048072
1033.048072
1033.048072
1033.048072
1033.048072
1033.048072
1033.048072
)
;

boundaryField
{
    sides
    {
        type            calculated;
        value           nonuniform List<scalar> 2(1033.048072 1.161440186);
    }
    empty1
    {
        type            empty;
    }
    empty2
    {
        type            empty;
    }
}


// ************************************************************************* //
