/*--------------------------------*- C++ -*----------------------------------*\
| =========                 |                                                 |
| \\      /  F ield         | OpenFOAM: The Open Source CFD Toolbox           |
|  \\    /   O peration     | Version:  2012                                  |
|   \\  /    A nd           | Website:  www.openfoam.com                      |
|    \\/     M anipulation  |                                                 |
\*---------------------------------------------------------------------------*/
FoamFile
{
    version     2.0;
    format      ascii;
    class       volScalarField;
    location    "0.007";
    object      volumeFraction1;
}
// * * * * * * * * * * * * * * * * * * * * * * * * * * * * * * * * * * * * * //

dimensions      [0 0 0 0 0 0 0];


internalField   nonuniform List<scalar> 
200
(
5.58146924e-115
5.581361492e-115
5.581094057e-115
5.570724502e-115
5.621561063e-115
4.95079668e-115
1.133871523e-114
-5.397332185e-114
6.041738892e-113
-6.044765387e-112
6.10997015e-111
-6.169979017e-110
6.231117815e-109
-6.292814227e-108
6.355125688e-107
-6.418053807e-106
6.481605066e-105
-6.545785604e-104
6.610601655e-103
-6.676059511e-102
6.742165527e-101
-6.808926122e-100
6.876347778e-99
-6.944437039e-98
7.013200517e-97
-7.082644887e-96
7.152776892e-95
-7.223603341e-94
7.29513111e-93
-7.367367143e-92
7.440318454e-91
-7.513992126e-90
7.58839531e-89
-7.663535232e-88
7.739419185e-87
-7.816054537e-86
7.893448729e-85
-7.971609274e-84
8.050543762e-83
-8.130259854e-82
8.210765292e-81
-8.292067891e-80
8.374175543e-79
-8.457096222e-78
8.540837978e-77
-8.62540894e-76
8.71081732e-75
-8.797071409e-74
8.884179582e-73
-8.972150296e-72
9.060992092e-71
-9.150713595e-70
9.241323516e-69
-9.332830652e-68
9.425243887e-67
-9.518572194e-66
9.612824633e-65
-9.708010355e-64
9.804138601e-63
-9.901218704e-62
9.99926009e-61
-1.009827228e-59
1.019826488e-58
-1.02992476e-57
1.040123025e-56
-1.050422273e-55
1.060823503e-54
-1.071327726e-53
1.081935961e-52
-1.092649238e-51
1.103468597e-50
-1.11439509e-49
1.125429776e-48
-1.136573727e-47
1.147828024e-46
-1.159193762e-45
1.170672042e-44
-1.18226398e-43
1.1939707e-42
-1.20579334e-41
1.217733047e-40
-1.22979098e-39
1.241968311e-38
-1.25426622e-37
1.266685904e-36
-1.279228566e-35
1.291895425e-34
-1.30468771e-33
1.317606665e-32
-1.330653542e-31
1.343829608e-30
-1.357136144e-29
1.37057444e-28
-1.384145801e-27
1.397851546e-26
-1.411693004e-25
1.425671519e-24
-1.439788449e-23
1.454045165e-22
-1.774656793e-20
1.197389783e-08
2.707559799e-07
3.042087893e-06
2.263343354e-05
0.0001253855685
0.0005513899224
0.002003856933
0.006186581679
0.01655419286
0.03897810643
0.08172208073
0.1540179653
0.2630484376
0.409480118
0.5852832189
0.7448105168
0.8532645276
0.92059115
0.9593391767
0.9802112268
0.9908104483
0.9959141565
0.9982554658
0.999282808
0.9997154419
0.9998908055
0.999959398
0.999985346
0.9999948583
0.9999982437
0.9999994152
0.9999998099
0.9999999396
0.9999999813
0.9999999943
0.9999999983
0.9999999995
0.9999999999
1
1
1
1
1
1
1
1
1
1
1
1
1
1
1
1
1
1
1
1
1
1
1
1
1
1
1
1
1
1
1
1
1
1
1
1
1
1
1
1
1
1
1
1
1
1
1
1
1
1
1
1
1
1
1
1
1
1
1
1
1
1
)
;

boundaryField
{
    sides
    {
        type            zeroGradient;
    }
    empty1
    {
        type            empty;
    }
    empty2
    {
        type            empty;
    }
}


// ************************************************************************* //
