/*--------------------------------*- C++ -*----------------------------------*\
| =========                 |                                                 |
| \\      /  F ield         | OpenFOAM: The Open Source CFD Toolbox           |
|  \\    /   O peration     | Version:  2012                                  |
|   \\  /    A nd           | Website:  www.openfoam.com                      |
|    \\/     M anipulation  |                                                 |
\*---------------------------------------------------------------------------*/
FoamFile
{
    version     2.0;
    format      ascii;
    class       volScalarField;
    location    "0.01";
    object      maxKappa;
}
// * * * * * * * * * * * * * * * * * * * * * * * * * * * * * * * * * * * * * //

dimensions      [0 0 0 0 0 0 0];


internalField   nonuniform List<scalar> 
2268
(
4.4951e-08
8.82653e-08
1.33781e-07
1.82407e-07
2.34206e-07
2.93971e-07
3.56946e-07
4.46212e-07
5.25274e-07
7.14535e-07
8.46271e-07
4.25593e-06
4.2508e-05
4.2508e-05
3.63904e-05
2.19108e-05
1.54065e-05
1.15887e-05
9.24945e-06
7.28533e-06
5.54677e-06
3.82695e-06
2.03479e-06
5.47714e-08
9.31316e-08
1.36913e-07
1.84609e-07
2.35782e-07
2.9485e-07
3.57208e-07
4.44286e-07
5.21737e-07
6.9593e-07
8.08656e-07
3.62947e-06
3.17729e-05
3.17729e-05
2.69897e-05
1.9482e-05
1.48198e-05
1.14264e-05
9.22232e-06
7.33708e-06
5.66113e-06
4.03473e-06
2.48146e-06
6.90362e-08
1.01965e-07
1.42892e-07
1.88889e-07
2.38871e-07
2.96652e-07
3.57877e-07
4.41626e-07
5.17074e-07
6.737e-07
7.7471e-07
3.09912e-06
2.38818e-05
2.38818e-05
2.07693e-05
1.74142e-05
1.41287e-05
1.12229e-05
9.19567e-06
7.44018e-06
5.87891e-06
4.41424e-06
3.14082e-06
8.53246e-08
1.13612e-07
1.51251e-07
1.95021e-07
2.43352e-07
2.99348e-07
3.58955e-07
4.38541e-07
5.11285e-07
6.49849e-07
7.42094e-07
2.75704e-06
1.96126e-05
1.96126e-05
1.73461e-05
1.60084e-05
1.34534e-05
1.10105e-05
9.17956e-06
7.58762e-06
6.18176e-06
4.92416e-06
3.93547e-06
1.02572e-07
1.27095e-07
1.61458e-07
2.02711e-07
2.49051e-07
3.02895e-07
3.60501e-07
4.35642e-07
5.05089e-07
6.27692e-07
7.09485e-07
2.52076e-06
1.69866e-05
1.69866e-05
1.51486e-05
1.48982e-05
1.28511e-05
1.0804e-05
9.17706e-06
7.76765e-06
6.54437e-06
5.51372e-06
4.77729e-06
1.20225e-07
1.41719e-07
1.73033e-07
2.11671e-07
2.55805e-07
3.07247e-07
3.62569e-07
4.33169e-07
4.99002e-07
6.08075e-07
6.80502e-07
2.36101e-06
1.5415e-05
1.5415e-05
1.39969e-05
1.39969e-05
1.23291e-05
1.06109e-05
9.1855e-06
7.96739e-06
6.94947e-06
6.19896e-06
5.82931e-06
1.37901e-07
1.56942e-07
1.85499e-07
2.21541e-07
2.63339e-07
3.12209e-07
3.65017e-07
4.31118e-07
4.93157e-07
5.9078e-07
6.55187e-07
2.23903e-06
1.43478e-05
1.43478e-05
1.32519e-05
1.32519e-05
1.18741e-05
1.04267e-05
9.19346e-06
8.16452e-06
7.35588e-06
6.85451e-06
6.66877e-06
1.5549e-07
1.72523e-07
1.98631e-07
2.32195e-07
2.71646e-07
3.17911e-07
3.68136e-07
4.29943e-07
4.88245e-07
5.76071e-07
6.337e-07
2.13555e-06
1.35322e-05
1.35322e-05
1.26194e-05
1.26194e-05
1.14811e-05
1.02588e-05
9.20107e-06
8.35447e-06
7.77211e-06
8.4557e-06
8.4557e-06
7.67438e-07
1.30042e-06
1.62755e-06
1.78905e-06
1.82889e-06
1.82889e-06
1.79097e-06
1.70371e-06
1.58689e-06
1.45314e-06
1.31025e-06
1.1631e-06
1.01454e-06
8.66228e-07
7.19006e-07
5.73241e-07
4.28999e-07
2.86289e-07
1.46359e-07
9.13219e-07
1.36557e-06
1.66524e-06
1.81251e-06
1.84384e-06
1.84384e-06
1.80086e-06
1.7106e-06
1.5921e-06
1.45745e-06
1.31418e-06
1.16699e-06
1.01866e-06
8.70847e-07
7.24452e-07
5.80016e-07
4.38065e-07
3.00078e-07
1.74525e-07
1.14251e-06
1.49114e-06
1.74e-06
1.85913e-06
1.87351e-06
1.87351e-06
1.82045e-06
1.72429e-06
1.60243e-06
1.46601e-06
1.32197e-06
1.17471e-06
1.02684e-06
8.80006e-07
7.35211e-07
5.93306e-07
4.55579e-07
3.25543e-07
2.16471e-07
1.44808e-06
1.67302e-06
1.84927e-06
1.92749e-06
1.92749e-06
1.91706e-06
1.84925e-06
1.74448e-06
1.6177e-06
1.47871e-06
1.33355e-06
1.18617e-06
1.03898e-06
8.93551e-07
7.51029e-07
6.1264e-07
4.80512e-07
3.59871e-07
2.6531e-07
1.78976e-06
1.90525e-06
1.99367e-06
2.01774e-06
2.01774e-06
1.97425e-06
1.88687e-06
1.77087e-06
1.63773e-06
1.4954e-06
1.3488e-06
1.20128e-06
1.05493e-06
9.11278e-07
7.71578e-07
6.37431e-07
5.1169e-07
4.00613e-07
3.18067e-07
2.2907e-06
2.2907e-06
2.20117e-06
2.16595e-06
2.12459e-06
2.04213e-06
1.93181e-06
1.80266e-06
1.66203e-06
1.5158e-06
1.3675e-06
1.21982e-06
1.07449e-06
9.32901e-07
7.96431e-07
6.66985e-07
5.47929e-07
4.45882e-07
3.73122e-07
2.69103e-06
2.69103e-06
2.54437e-06
2.38051e-06
2.25406e-06
2.12301e-06
1.98446e-06
1.83981e-06
1.6905e-06
1.53978e-06
1.38955e-06
1.24167e-06
1.09745e-06
9.58148e-07
8.25175e-07
7.00654e-07
5.88223e-07
4.94377e-07
4.29588e-07
3.75882e-06
3.75882e-06
2.99392e-06
2.59497e-06
2.38236e-06
2.20531e-06
2.03985e-06
1.87995e-06
1.72192e-06
1.56665e-06
1.41448e-06
1.26648e-06
1.12351e-06
9.86654e-07
8.57343e-07
7.37801e-07
6.31725e-07
5.45184e-07
4.86928e-07
1.96223e-07
2.05363e-07
2.22881e-07
2.49712e-07
2.8552e-07
3.27637e-07
3.73591e-07
4.28856e-07
4.8127e-07
5.56091e-07
6.05738e-07
2.01043e-06
1.60822e-05
1.27845e-05
1.18698e-05
1.18409e-05
1.0939e-05
9.98235e-06
9.16334e-06
8.55556e-06
8.65058e-06
1.05162e-05
1.05552e-05
2.30607e-07
2.3812e-07
2.52731e-07
2.73913e-07
3.05045e-07
3.41798e-07
3.82175e-07
4.29714e-07
4.75243e-07
5.36827e-07
5.98523e-07
1.88725e-06
1.60822e-05
1.19731e-05
1.18698e-05
1.11188e-05
1.0326e-05
9.59584e-06
8.94803e-06
8.43175e-06
8.23247e-06
8.46056e-06
1.05552e-05
2.62068e-07
2.68368e-07
2.80713e-07
2.98635e-07
3.24342e-07
3.56206e-07
3.91393e-07
4.32161e-07
4.71636e-07
5.22749e-07
5.71603e-07
1.78602e-06
1.51182e-05
1.13477e-05
1.10635e-05
1.04343e-05
9.78243e-06
9.19801e-06
8.66388e-06
8.22261e-06
7.95813e-06
7.75769e-06
8.34248e-06
2.90639e-07
2.95985e-07
3.06508e-07
3.21881e-07
3.43064e-07
3.70633e-07
4.01209e-07
4.362e-07
4.70478e-07
5.13237e-07
5.52005e-07
1.70441e-06
1.43193e-05
1.08565e-05
1.0404e-05
9.85498e-06
9.32632e-06
8.80379e-06
8.32892e-06
7.90751e-06
7.62947e-06
7.34028e-06
7.27502e-06
3.16335e-07
3.20908e-07
3.29932e-07
3.43163e-07
3.60605e-07
3.84432e-07
4.1095e-07
4.41001e-07
4.70801e-07
5.06793e-07
5.37995e-07
1.63626e-06
1.36558e-05
1.0438e-05
9.85038e-06
9.35449e-06
8.90594e-06
8.42903e-06
7.9959e-06
7.59373e-06
7.24961e-06
6.88808e-06
6.58569e-06
3.39289e-07
3.43224e-07
3.50998e-07
3.62423e-07
3.77269e-07
3.97425e-07
4.20428e-07
4.46286e-07
4.72239e-07
5.02698e-07
5.28145e-07
1.57745e-06
1.30854e-05
1.00659e-05
9.37043e-06
8.91417e-06
8.51907e-06
8.08112e-06
7.6777e-06
7.28761e-06
6.91348e-06
6.52743e-06
6.14276e-06
3.59657e-07
3.63059e-07
3.69784e-07
3.7968e-07
3.92547e-07
4.09421e-07
4.29395e-07
4.517e-07
4.74349e-07
5.00259e-07
5.2296e-07
1.52479e-06
1.25774e-05
9.72405e-06
8.94848e-06
8.5256e-06
8.16832e-06
7.76631e-06
7.38658e-06
7.0118e-06
6.63352e-06
6.25079e-06
5.85528e-06
3.77613e-07
3.80567e-07
3.86409e-07
3.95013e-07
4.06201e-07
4.20381e-07
4.37763e-07
4.57065e-07
4.76878e-07
4.99022e-07
5.19294e-07
1.47589e-06
1.21079e-05
9.39966e-06
8.57319e-06
8.18178e-06
7.85423e-06
7.48565e-06
7.12808e-06
6.76825e-06
6.39976e-06
6.02504e-06
5.64055e-06
3.93367e-07
3.95945e-07
4.01045e-07
4.08561e-07
4.18334e-07
4.30257e-07
4.45433e-07
4.62204e-07
4.79588e-07
4.98614e-07
5.16737e-07
1.42873e-06
1.16577e-05
9.08908e-06
8.24045e-06
7.88082e-06
7.57856e-06
7.24365e-06
6.90598e-06
6.5606e-06
6.2037e-06
5.84009e-06
5.46958e-06
4.07022e-07
4.09286e-07
4.13766e-07
4.2037e-07
4.28956e-07
4.39339e-07
4.52479e-07
4.67121e-07
4.82421e-07
4.98839e-07
5.15023e-07
1.38227e-06
1.12135e-05
8.77301e-06
7.9374e-06
7.61423e-06
7.33785e-06
7.03163e-06
6.71539e-06
6.38531e-06
6.04062e-06
5.68852e-06
5.33155e-06
4.18953e-07
4.20959e-07
4.24928e-07
4.3078e-07
4.38388e-07
4.47594e-07
4.58652e-07
4.71529e-07
4.8508e-07
4.99367e-07
5.1388e-07
1.33456e-06
1.07618e-05
8.47627e-06
7.67561e-06
7.39368e-06
7.14353e-06
6.87525e-06
6.5725e-06
6.25103e-06
5.91318e-06
5.56856e-06
5.22133e-06
4.28761e-07
4.30554e-07
4.34103e-07
4.39338e-07
4.46147e-07
4.54392e-07
4.64686e-07
4.76091e-07
4.88111e-07
5.00542e-07
5.13356e-07
1.28835e-06
1.03075e-05
8.12564e-06
7.41555e-06
7.19238e-06
6.9764e-06
6.72491e-06
6.44634e-06
6.13886e-06
5.80897e-06
5.47101e-06
5.13114e-06
4.37976e-07
4.39603e-07
4.42824e-07
4.47579e-07
4.53767e-07
4.61265e-07
4.69881e-07
4.79445e-07
4.89953e-07
5.01105e-07
5.12855e-07
1.23906e-06
9.84234e-06
7.87866e-06
7.22445e-06
7.0855e-06
6.93425e-06
6.70208e-06
6.41296e-06
6.09196e-06
5.75018e-06
5.4054e-06
5.0634e-06
4.43234e-07
4.44728e-07
4.47688e-07
4.52844e-07
4.59365e-07
4.6704e-07
4.75685e-07
4.85027e-07
4.94748e-07
5.04389e-07
5.13785e-07
1.21219e-06
9.46886e-06
7.46329e-06
6.98789e-06
7.0616e-06
6.91131e-06
6.61394e-06
6.34578e-06
6.03572e-06
5.6929e-06
5.34616e-06
5.00264e-06
4.53017e-07
4.54424e-07
4.57215e-07
4.61348e-07
4.66747e-07
4.73338e-07
4.80944e-07
4.89485e-07
4.98502e-07
5.0776e-07
5.16375e-07
1.17446e-06
9.92336e-06
7.54389e-06
7.17552e-06
7.17552e-06
7.13227e-06
6.84877e-06
6.49391e-06
6.10701e-06
5.70996e-06
5.32856e-06
4.96462e-06
4.60899e-07
4.62955e-07
4.66349e-07
4.71026e-07
4.76915e-07
4.83889e-07
4.91805e-07
5.0036e-07
5.08952e-07
5.16987e-07
5.19624e-07
1.37253e-06
1.03198e-05
7.90162e-06
7.9379e-06
7.88418e-06
7.50304e-06
6.96597e-06
6.49425e-06
6.10333e-06
5.68589e-06
5.28973e-06
4.9144e-06
4.73199e-07
4.74535e-07
4.77191e-07
4.81151e-07
4.86362e-07
4.92847e-07
5.00436e-07
5.09575e-07
5.19322e-07
5.3302e-07
5.44163e-07
1.25532e-06
1.86117e-05
9.31744e-06
9.34821e-06
8.87323e-06
8.2761e-06
7.54541e-06
6.88401e-06
6.2885e-06
5.75781e-06
5.29271e-06
4.88123e-06
5.12686e-07
5.14804e-07
5.18319e-07
5.23198e-07
5.29443e-07
5.36986e-07
5.4604e-07
5.56307e-07
5.69453e-07
5.8293e-07
6.07272e-07
3.18675e-06
2.82204e-05
1.67072e-05
1.37677e-05
1.07935e-05
8.98484e-06
7.80818e-06
7.01565e-06
6.34882e-06
5.75224e-06
5.25001e-06
4.81721e-06
2.48254e-06
2.49619e-06
2.52328e-06
2.56617e-06
2.62062e-06
2.70226e-06
2.78228e-06
2.93142e-06
3.04112e-06
3.32072e-06
4.12968e-06
1.33727e-05
3.29687e-05
2.85315e-05
2.00875e-05
1.52372e-05
1.11013e-05
8.79962e-06
7.40876e-06
6.45004e-06
5.74709e-06
5.18527e-06
4.73263e-06
1.11217e-05
1.11957e-05
1.13239e-05
1.1501e-05
1.17548e-05
1.20507e-05
1.24908e-05
1.29811e-05
1.37289e-05
1.57402e-05
2.88304e-05
3.96414e-05
3.96414e-05
3.67605e-05
2.83938e-05
1.83871e-05
1.26057e-05
9.48528e-06
7.70019e-06
6.50207e-06
5.69792e-06
5.08656e-06
4.61797e-06
9.06389e-06
9.10767e-06
9.19143e-06
9.33282e-06
9.48627e-06
9.78152e-06
9.91413e-06
1.05778e-05
1.03588e-05
1.20099e-05
1.18206e-05
2.6656e-05
3.32209e-05
2.78623e-05
1.81132e-05
1.2663e-05
9.64435e-06
8.00677e-06
6.8554e-06
6.0081e-06
5.35997e-06
4.83927e-06
4.42009e-06
8.17974e-06
8.22605e-06
8.31272e-06
8.42471e-06
8.62107e-06
8.80704e-06
9.23729e-06
9.53128e-06
1.04939e-05
1.11418e-05
1.3253e-05
1.48901e-05
2.07735e-05
1.7079e-05
1.26348e-05
1.03117e-05
8.76686e-06
7.51179e-06
6.49789e-06
5.71779e-06
5.10397e-06
4.61457e-06
4.22054e-06
7.57975e-06
7.60817e-06
7.65954e-06
7.75659e-06
7.84374e-06
8.07748e-06
8.1127e-06
8.73234e-06
8.4453e-06
1.00974e-05
9.24852e-06
1.28245e-05
1.31982e-05
1.18076e-05
1.03493e-05
8.65594e-06
7.56428e-06
6.54089e-06
5.78712e-06
5.187e-06
4.70051e-06
4.30094e-06
3.96681e-06
6.87344e-06
6.89468e-06
6.93236e-06
7.00486e-06
7.06551e-06
7.23839e-06
7.33266e-06
7.68564e-06
7.85539e-06
8.47109e-06
8.39237e-06
9.4048e-06
1.0429e-05
9.19012e-06
8.52512e-06
7.26397e-06
6.58586e-06
5.80946e-06
5.24939e-06
4.76273e-06
4.3519e-06
4.00873e-06
3.71899e-06
6.49039e-06
6.50523e-06
6.53144e-06
6.58257e-06
6.62538e-06
6.74894e-06
6.75979e-06
7.07005e-06
6.92033e-06
7.60052e-06
7.20876e-06
8.04999e-06
7.95104e-06
7.43225e-06
7.0501e-06
6.26146e-06
5.78548e-06
5.19774e-06
4.76008e-06
4.35299e-06
4.01682e-06
3.72683e-06
3.48171e-06
5.99491e-06
6.00359e-06
6.01848e-06
6.04806e-06
6.06975e-06
6.13989e-06
6.1324e-06
6.30381e-06
6.18237e-06
6.53829e-06
6.28239e-06
6.66272e-06
6.68049e-06
6.26479e-06
5.99422e-06
5.42486e-06
5.06543e-06
4.62142e-06
4.28062e-06
3.95637e-06
3.68365e-06
3.44401e-06
3.23929e-06
5.58055e-06
5.58409e-06
5.58965e-06
5.60244e-06
5.60866e-06
5.64272e-06
5.62814e-06
5.71832e-06
5.63205e-06
5.81202e-06
5.62467e-06
5.76833e-06
5.60255e-06
5.35098e-06
5.11616e-06
4.73241e-06
4.45067e-06
4.11688e-06
3.84604e-06
3.58712e-06
3.36532e-06
3.16869e-06
2.99964e-06
5.17127e-06
5.17025e-06
5.16726e-06
5.16503e-06
5.15526e-06
5.15694e-06
5.12589e-06
5.14708e-06
5.06399e-06
5.11706e-06
4.97082e-06
4.9869e-06
4.85127e-06
4.64365e-06
4.44208e-06
4.1543e-06
3.92245e-06
3.66415e-06
3.4462e-06
3.23978e-06
3.06079e-06
2.9018e-06
2.76475e-06
4.80203e-06
4.79733e-06
4.78738e-06
4.77361e-06
4.75144e-06
4.73104e-06
4.68828e-06
4.66871e-06
4.58743e-06
4.57156e-06
4.44039e-06
4.38638e-06
4.23086e-06
4.05852e-06
3.87641e-06
3.65578e-06
3.46284e-06
3.25983e-06
3.08294e-06
2.91781e-06
2.77384e-06
2.64669e-06
2.53758e-06
4.46071e-06
4.45293e-06
4.43703e-06
4.41369e-06
4.38042e-06
4.3423e-06
4.28667e-06
4.23677e-06
4.14901e-06
4.08827e-06
3.96387e-06
3.87327e-06
3.72851e-06
3.57242e-06
3.40853e-06
3.2273e-06
3.0624e-06
2.89756e-06
2.75206e-06
2.61918e-06
2.50402e-06
2.4039e-06
2.31926e-06
4.15274e-06
4.14247e-06
4.12176e-06
4.09096e-06
4.04885e-06
3.998e-06
3.93217e-06
3.86306e-06
3.76905e-06
3.68276e-06
3.55903e-06
3.44797e-06
3.30464e-06
3.15831e-06
3.00711e-06
2.85167e-06
2.70812e-06
2.57076e-06
2.44972e-06
2.34221e-06
2.25078e-06
2.17357e-06
2.11034e-06
3.8751e-06
3.86279e-06
3.83814e-06
3.80132e-06
3.75187e-06
3.69112e-06
3.6163e-06
3.53331e-06
3.43221e-06
3.32942e-06
3.20405e-06
3.08175e-06
2.94197e-06
2.80139e-06
2.6598e-06
2.52062e-06
2.39256e-06
2.27467e-06
2.17248e-06
2.085e-06
2.01327e-06
1.95572e-06
1.91144e-06
3.62896e-06
3.61501e-06
3.58714e-06
3.54553e-06
3.49014e-06
3.42183e-06
3.33967e-06
3.24688e-06
3.13946e-06
3.026e-06
2.89764e-06
2.76815e-06
2.62899e-06
2.49102e-06
2.35526e-06
2.22603e-06
2.1087e-06
2.00444e-06
1.91656e-06
1.84486e-06
1.78952e-06
1.74891e-06
1.72154e-06
3.40977e-06
3.39448e-06
3.36399e-06
3.31852e-06
3.25828e-06
3.18398e-06
3.09568e-06
2.99545e-06
2.88227e-06
2.76112e-06
2.6292e-06
2.49452e-06
2.35483e-06
2.21749e-06
2.0848e-06
1.96122e-06
1.85095e-06
1.75619e-06
1.67931e-06
1.6205e-06
1.57936e-06
1.55403e-06
1.54236e-06
3.22243e-06
3.20603e-06
3.17337e-06
3.12472e-06
3.06045e-06
2.98129e-06
2.88778e-06
2.78156e-06
2.66309e-06
2.53574e-06
2.39961e-06
2.26004e-06
2.11784e-06
1.97872e-06
1.84585e-06
1.72379e-06
1.61656e-06
1.52705e-06
1.45753e-06
1.40847e-06
1.37912e-06
1.36727e-06
1.37002e-06
3.05385e-06
3.03656e-06
3.00215e-06
2.95092e-06
2.88338e-06
2.80027e-06
2.70246e-06
2.59141e-06
2.4683e-06
2.33581e-06
2.19543e-06
2.05127e-06
1.90566e-06
1.76346e-06
1.62855e-06
1.50566e-06
1.39919e-06
1.31281e-06
1.24918e-06
1.20907e-06
1.19144e-06
1.19342e-06
1.21113e-06
2.92338e-06
2.90533e-06
2.86941e-06
2.81598e-06
2.74561e-06
2.65907e-06
2.55738e-06
2.44196e-06
2.31432e-06
2.1768e-06
2.03198e-06
1.88198e-06
1.73094e-06
1.5831e-06
1.44262e-06
1.31451e-06
1.20382e-06
1.11528e-06
1.05264e-06
1.01751e-06
1.00884e-06
1.02297e-06
1.05466e-06
2.79582e-06
2.7772e-06
2.74015e-06
2.68504e-06
2.61249e-06
2.52332e-06
2.4186e-06
2.29974e-06
2.16839e-06
2.02671e-06
1.87701e-06
1.72242e-06
1.56614e-06
1.41236e-06
1.26559e-06
1.13127e-06
1.01543e-06
9.24407e-07
8.63779e-07
8.36317e-07
8.40476e-07
8.70689e-07
9.19517e-07
2.72171e-06
2.70665e-06
2.67767e-06
2.6297e-06
2.56326e-06
2.47909e-06
2.37814e-06
2.26164e-06
2.13108e-06
1.98823e-06
1.8352e-06
1.67438e-06
1.50856e-06
1.34091e-06
1.17518e-06
1.01587e-06
8.6868e-07
7.56894e-07
6.88083e-07
6.59708e-07
6.71665e-07
7.16079e-07
7.81646e-07
2.62783e-06
2.60842e-06
2.56981e-06
2.51239e-06
2.4368e-06
2.34388e-06
2.23471e-06
2.11065e-06
1.97328e-06
1.82453e-06
1.66657e-06
1.50193e-06
1.33344e-06
1.16446e-06
9.98925e-07
8.41923e-07
7.00504e-07
5.8521e-07
5.10783e-07
4.9011e-07
5.21147e-07
5.99205e-07
6.73959e-07
2.66501e-06
2.66501e-06
2.63451e-06
2.58402e-06
2.51409e-06
2.42547e-06
2.31914e-06
2.19634e-06
2.05851e-06
1.90736e-06
1.7448e-06
1.57295e-06
1.39412e-06
1.21082e-06
1.02576e-06
8.41976e-07
6.63281e-07
4.95679e-07
3.53239e-07
3.26329e-07
3.80552e-07
4.79037e-07
5.91582e-07
2.4921e-06
2.47281e-06
2.43443e-06
2.37736e-06
2.30221e-06
2.2098e-06
2.10116e-06
1.97757e-06
1.84049e-06
1.69162e-06
1.53283e-06
1.36617e-06
1.19383e-06
1.01812e-06
8.41478e-07
6.66547e-07
4.96538e-07
3.36538e-07
1.99383e-07
1.60786e-07
2.7328e-07
4.01418e-07
4.98271e-07
9.50548e-06
8.20608e-06
7.70811e-06
7.44711e-06
9.50548e-06
8.20608e-06
7.70811e-06
7.44711e-06
7.91751e-06
7.248e-06
6.79172e-06
6.45387e-06
6.83126e-06
6.44112e-06
6.07298e-06
5.73063e-06
6.20894e-06
5.91082e-06
5.60699e-06
5.31344e-06
5.7852e-06
5.53436e-06
5.27572e-06
5.02191e-06
5.49026e-06
5.26917e-06
5.04385e-06
4.82185e-06
5.27253e-06
5.07211e-06
4.87032e-06
4.67161e-06
5.10595e-06
4.92134e-06
4.73717e-06
4.55609e-06
4.97477e-06
4.80225e-06
4.63125e-06
4.46344e-06
4.86943e-06
4.70611e-06
4.54501e-06
4.38725e-06
4.78312e-06
4.62659e-06
4.47279e-06
4.32256e-06
4.71175e-06
4.55964e-06
4.41084e-06
4.26597e-06
4.65016e-06
4.50063e-06
4.35503e-06
4.21386e-06
4.59602e-06
4.44692e-06
4.3027e-06
4.16362e-06
4.54298e-06
4.39308e-06
4.24915e-06
4.11126e-06
4.48715e-06
4.3353e-06
4.19088e-06
4.05352e-06
4.42211e-06
4.26808e-06
4.12313e-06
3.98636e-06
4.33781e-06
4.18351e-06
4.0397e-06
3.90486e-06
4.23245e-06
4.07971e-06
3.93868e-06
3.80721e-06
4.09411e-06
3.94847e-06
3.81427e-06
3.68938e-06
3.92839e-06
3.79363e-06
3.66919e-06
3.55331e-06
3.7412e-06
3.61947e-06
3.5067e-06
3.40152e-06
3.53636e-06
3.4295e-06
3.32997e-06
3.23685e-06
3.32359e-06
3.23131e-06
3.14503e-06
3.06411e-06
3.10564e-06
3.02779e-06
2.95472e-06
2.88603e-06
2.88848e-06
2.82398e-06
2.76334e-06
2.70629e-06
2.67434e-06
2.62219e-06
2.57319e-06
2.52712e-06
2.46581e-06
2.42485e-06
2.38652e-06
2.35063e-06
2.26423e-06
2.23341e-06
2.20484e-06
2.17835e-06
2.07031e-06
2.04867e-06
2.02903e-06
2.0112e-06
1.885e-06
1.87176e-06
1.86034e-06
1.85056e-06
1.70747e-06
1.70195e-06
1.69816e-06
1.69587e-06
1.53998e-06
1.54182e-06
1.5453e-06
1.55019e-06
1.37857e-06
1.38734e-06
1.39772e-06
1.40941e-06
1.23094e-06
1.24683e-06
1.26423e-06
1.28278e-06
1.08523e-06
1.10795e-06
1.13207e-06
1.15718e-06
9.62408e-07
9.9267e-07
1.024e-06
1.05597e-06
8.36764e-07
8.74486e-07
9.12895e-07
9.51525e-07
7.41855e-07
7.86783e-07
8.31688e-07
8.76172e-07
6.74822e-07
7.28073e-07
7.80295e-07
8.31242e-07
5.86665e-07
6.4213e-07
6.95954e-07
7.48034e-07
6.22787e-06
5.97752e-06
3.9335e-06
3.1267e-06
2.64986e-06
2.36547e-06
2.14177e-06
1.9526e-06
1.77862e-06
1.61526e-06
1.45963e-06
1.31128e-06
1.17027e-06
1.03732e-06
9.13721e-07
8.01664e-07
7.04622e-07
6.27726e-07
5.77463e-07
6.22787e-06
5.28877e-06
3.97532e-06
3.31653e-06
2.84702e-06
2.5239e-06
2.26621e-06
2.05165e-06
1.86165e-06
1.68918e-06
1.52962e-06
1.38116e-06
1.24302e-06
1.1154e-06
9.99286e-07
8.96532e-07
8.0997e-07
7.43388e-07
7.01032e-07
5.34967e-06
5.03912e-06
4.1316e-06
3.49565e-06
3.0194e-06
2.66653e-06
2.38422e-06
2.15086e-06
1.94869e-06
1.76927e-06
1.60694e-06
1.45893e-06
1.32382e-06
1.20131e-06
1.09198e-06
9.97205e-07
9.19082e-07
8.60264e-07
8.23513e-07
4.9381e-06
4.8989e-06
4.15388e-06
3.57876e-06
3.12838e-06
2.77443e-06
2.48531e-06
2.24354e-06
2.03511e-06
1.85198e-06
1.68861e-06
1.54187e-06
1.40998e-06
1.29229e-06
1.18898e-06
1.10093e-06
1.02957e-06
9.76687e-07
9.44055e-07
4.76664e-06
4.76664e-06
4.14748e-06
3.63122e-06
3.20911e-06
2.86292e-06
2.57436e-06
2.33013e-06
2.11946e-06
1.9352e-06
1.77229e-06
1.62755e-06
1.49904e-06
1.38586e-06
1.28783e-06
1.20542e-06
1.13951e-06
1.09123e-06
1.06171e-06
4.66973e-06
4.66973e-06
4.12854e-06
3.66126e-06
3.2668e-06
2.93388e-06
2.65136e-06
2.4094e-06
2.19988e-06
2.01681e-06
1.85576e-06
1.71373e-06
1.58879e-06
1.47985e-06
1.38651e-06
1.30887e-06
1.2474e-06
1.20277e-06
1.17566e-06
4.58294e-06
4.58294e-06
4.10235e-06
3.67714e-06
3.3091e-06
2.99172e-06
2.71821e-06
2.4815e-06
2.27553e-06
2.09539e-06
1.93732e-06
1.79861e-06
1.67738e-06
1.5725e-06
1.48336e-06
1.40984e-06
1.35207e-06
1.31041e-06
1.28523e-06
4.5118e-06
4.5118e-06
4.07624e-06
3.68517e-06
3.34067e-06
3.03907e-06
2.776e-06
2.54637e-06
2.34557e-06
2.16966e-06
2.01546e-06
1.88055e-06
1.76319e-06
1.66222e-06
1.57695e-06
1.50704e-06
1.45244e-06
1.41326e-06
1.38966e-06
4.45019e-06
4.45019e-06
4.04996e-06
3.68724e-06
3.36381e-06
3.07755e-06
2.82553e-06
2.60402e-06
2.40948e-06
2.2387e-06
2.08901e-06
1.9583e-06
1.84495e-06
1.74781e-06
1.66615e-06
1.59951e-06
1.54769e-06
1.51064e-06
1.48838e-06
4.39689e-06
4.39689e-06
4.02444e-06
3.68509e-06
3.38016e-06
3.10828e-06
2.86731e-06
2.6544e-06
2.46675e-06
2.30171e-06
2.15701e-06
2.03078e-06
1.92154e-06
1.8282e-06
1.74997e-06
1.68636e-06
1.63705e-06
1.60188e-06
1.5808e-06
4.34925e-06
4.34925e-06
3.99889e-06
3.67901e-06
3.39032e-06
3.13176e-06
2.90155e-06
2.69741e-06
2.517e-06
2.35809e-06
2.2187e-06
2.09717e-06
1.99214e-06
1.90257e-06
1.82768e-06
1.76693e-06
1.71994e-06
1.6865e-06
1.66648e-06
4.3051e-06
4.3051e-06
3.97247e-06
3.66888e-06
3.39448e-06
3.14816e-06
2.9283e-06
2.73289e-06
2.55989e-06
2.40734e-06
2.27348e-06
2.15681e-06
2.05608e-06
1.97028e-06
1.89867e-06
1.84067e-06
1.79589e-06
1.76407e-06
1.74503e-06
4.26255e-06
4.26255e-06
3.94406e-06
3.6542e-06
3.39243e-06
3.1574e-06
2.94744e-06
2.76064e-06
2.59512e-06
2.44907e-06
2.3209e-06
2.20922e-06
2.11285e-06
2.03085e-06
1.96249e-06
1.90719e-06
1.86455e-06
1.83428e-06
1.81618e-06
4.21876e-06
4.21876e-06
3.91199e-06
3.63403e-06
3.38366e-06
3.15919e-06
2.95876e-06
2.78045e-06
2.62242e-06
2.48299e-06
2.36063e-06
2.25404e-06
2.16211e-06
2.08395e-06
2.01884e-06
1.96623e-06
1.92569e-06
1.89692e-06
1.87974e-06
4.17236e-06
4.17236e-06
3.87507e-06
3.60752e-06
3.36763e-06
3.15316e-06
2.96199e-06
2.79209e-06
2.64161e-06
2.50888e-06
2.39244e-06
2.29105e-06
2.20365e-06
2.12939e-06
2.06756e-06
2.01762e-06
1.97917e-06
1.95191e-06
1.93563e-06
4.1192e-06
4.1192e-06
3.83088e-06
3.57325e-06
3.34348e-06
3.13881e-06
2.95684e-06
2.79538e-06
2.65253e-06
2.52662e-06
2.41624e-06
2.32016e-06
2.23738e-06
2.16707e-06
2.10857e-06
2.06135e-06
2.025e-06
1.99923e-06
1.98385e-06
4.05846e-06
4.05846e-06
3.77839e-06
3.53038e-06
3.31063e-06
3.11578e-06
2.94308e-06
2.79019e-06
2.65512e-06
2.53619e-06
2.432e-06
2.34137e-06
2.26332e-06
2.19705e-06
2.14194e-06
2.09746e-06
2.06324e-06
2.03899e-06
2.02451e-06
3.98541e-06
3.98541e-06
3.71498e-06
3.47745e-06
3.26828e-06
3.08364e-06
2.92053e-06
2.77646e-06
2.6494e-06
2.53765e-06
2.43983e-06
2.35479e-06
2.28159e-06
2.21947e-06
2.16781e-06
2.12613e-06
2.09407e-06
2.07136e-06
2.0578e-06
3.899e-06
3.899e-06
3.63978e-06
3.41388e-06
3.21609e-06
3.04226e-06
2.88918e-06
2.75429e-06
2.63552e-06
2.53118e-06
2.43993e-06
2.36064e-06
2.29243e-06
2.23455e-06
2.18643e-06
2.14762e-06
2.11776e-06
2.09661e-06
2.08399e-06
3.79751e-06
3.79751e-06
3.5518e-06
3.33914e-06
3.15385e-06
2.99162e-06
2.84916e-06
2.72388e-06
2.61373e-06
2.51708e-06
2.4326e-06
2.35924e-06
2.29614e-06
2.24262e-06
2.19813e-06
2.16224e-06
2.13465e-06
2.11509e-06
2.10343e-06
3.67909e-06
3.67909e-06
3.45044e-06
3.25317e-06
3.08173e-06
2.932e-06
2.80078e-06
2.68558e-06
2.58442e-06
2.49572e-06
2.41825e-06
2.35099e-06
2.29315e-06
2.24409e-06
2.20331e-06
2.17042e-06
2.14513e-06
2.12721e-06
2.11651e-06
3.54749e-06
3.54749e-06
3.33755e-06
3.15703e-06
3.00047e-06
2.86402e-06
2.74464e-06
2.63995e-06
2.54811e-06
2.46764e-06
2.39737e-06
2.33638e-06
2.28393e-06
2.23945e-06
2.20246e-06
2.17263e-06
2.14968e-06
2.13342e-06
2.12371e-06
3.4021e-06
3.4021e-06
3.21355e-06
3.05145e-06
2.91087e-06
2.78846e-06
2.68144e-06
2.58767e-06
2.50545e-06
2.43343e-06
2.37055e-06
2.31598e-06
2.26904e-06
2.22921e-06
2.1961e-06
2.16937e-06
2.14881e-06
2.13424e-06
2.12554e-06
3.24785e-06
3.24785e-06
3.08132e-06
2.93828e-06
2.81426e-06
2.70637e-06
2.6121e-06
2.52954e-06
2.45718e-06
2.3938e-06
2.33847e-06
2.29042e-06
2.24908e-06
2.21399e-06
2.1848e-06
2.16123e-06
2.14308e-06
2.13022e-06
2.12254e-06
3.08604e-06
3.08604e-06
2.94236e-06
2.81895e-06
2.71192e-06
2.61887e-06
2.53761e-06
2.46647e-06
2.40413e-06
2.34953e-06
2.30183e-06
2.2604e-06
2.22472e-06
2.19442e-06
2.16918e-06
2.14879e-06
2.13309e-06
2.12195e-06
2.1153e-06
2.92027e-06
2.92027e-06
2.79917e-06
2.69532e-06
2.60535e-06
2.52723e-06
2.45906e-06
2.39944e-06
2.34719e-06
2.30142e-06
2.26141e-06
2.22663e-06
2.19665e-06
2.17115e-06
2.14989e-06
2.13269e-06
2.11944e-06
2.11002e-06
2.1044e-06
2.75253e-06
2.75253e-06
2.65357e-06
2.56901e-06
2.49594e-06
2.43267e-06
2.37757e-06
2.32944e-06
2.28727e-06
2.25032e-06
2.218e-06
2.18986e-06
2.16556e-06
2.14485e-06
2.12756e-06
2.11355e-06
2.10273e-06
2.09504e-06
2.09045e-06
2.58517e-06
2.58517e-06
2.50749e-06
2.44166e-06
2.38514e-06
2.33649e-06
2.29429e-06
2.25752e-06
2.22535e-06
2.19714e-06
2.17244e-06
2.15088e-06
2.13221e-06
2.11625e-06
2.10289e-06
2.09203e-06
2.08363e-06
2.07765e-06
2.07407e-06
2.41976e-06
2.41976e-06
2.36239e-06
2.31462e-06
2.27416e-06
2.23977e-06
2.2102e-06
2.18458e-06
2.16223e-06
2.14262e-06
2.12541e-06
2.11032e-06
2.09719e-06
2.08591e-06
2.07641e-06
2.06865e-06
2.06262e-06
2.05831e-06
2.05573e-06
2.25809e-06
2.25809e-06
2.22002e-06
2.18955e-06
2.1646e-06
2.14403e-06
2.12674e-06
2.11199e-06
2.09921e-06
2.08799e-06
2.07809e-06
2.06932e-06
2.0616e-06
2.05487e-06
2.04914e-06
2.0444e-06
2.04068e-06
2.03801e-06
2.03639e-06
2.10048e-06
2.10048e-06
2.08068e-06
2.06671e-06
2.05664e-06
2.04938e-06
2.04394e-06
2.03969e-06
2.03615e-06
2.03305e-06
2.03022e-06
2.02756e-06
2.02506e-06
2.02274e-06
2.02064e-06
2.01882e-06
2.01734e-06
2.01623e-06
2.01556e-06
1.95017e-06
1.95017e-06
1.94963e-06
1.95385e-06
1.95939e-06
1.96534e-06
1.97118e-06
1.97654e-06
1.98123e-06
1.98517e-06
1.98837e-06
1.99087e-06
1.99277e-06
1.99415e-06
1.99512e-06
1.99577e-06
1.99617e-06
1.99639e-06
1.99639e-06
1.80294e-06
1.81698e-06
1.8338e-06
1.85156e-06
1.86922e-06
1.88598e-06
1.90138e-06
1.91515e-06
1.92722e-06
1.93757e-06
1.94631e-06
1.95354e-06
1.95942e-06
1.96409e-06
1.9677e-06
1.97036e-06
1.97219e-06
1.97325e-06
1.97325e-06
1.67078e-06
1.70092e-06
1.73231e-06
1.76316e-06
1.79248e-06
1.81956e-06
1.84405e-06
1.86581e-06
1.88483e-06
1.90123e-06
1.91516e-06
1.92683e-06
1.93644e-06
1.94419e-06
1.95025e-06
1.9548e-06
1.95795e-06
1.9598e-06
1.9598e-06
1.53224e-06
1.57714e-06
1.6219e-06
1.66476e-06
1.70476e-06
1.74129e-06
1.7741e-06
1.80315e-06
1.82854e-06
1.85046e-06
1.86916e-06
1.88488e-06
1.8979e-06
1.90846e-06
1.91678e-06
1.92305e-06
1.92742e-06
1.92999e-06
1.92999e-06
1.43113e-06
1.49141e-06
1.5497e-06
1.60441e-06
1.65474e-06
1.70026e-06
1.74089e-06
1.77673e-06
1.80799e-06
1.83497e-06
1.858e-06
1.87741e-06
1.89352e-06
1.90662e-06
1.91696e-06
1.92478e-06
1.93024e-06
1.93346e-06
1.93346e-06
1.2928e-06
1.36599e-06
1.43576e-06
1.5006e-06
1.55982e-06
1.61314e-06
1.66058e-06
1.70235e-06
1.73876e-06
1.7702e-06
1.79706e-06
1.81973e-06
1.83857e-06
1.85393e-06
1.86608e-06
1.87527e-06
1.8817e-06
1.8855e-06
1.8855e-06
1.24551e-06
1.3329e-06
1.4144e-06
1.48904e-06
1.5565e-06
1.61678e-06
1.67015e-06
1.71698e-06
1.75772e-06
1.79286e-06
1.82287e-06
1.8482e-06
1.86926e-06
1.88644e-06
1.90004e-06
1.91034e-06
1.91755e-06
1.92182e-06
1.92182e-06
1.09822e-06
1.19671e-06
1.28779e-06
1.37071e-06
1.44531e-06
1.51179e-06
1.57051e-06
1.62198e-06
1.66674e-06
1.70533e-06
1.73829e-06
1.76613e-06
1.7893e-06
1.8082e-06
1.82319e-06
1.83454e-06
1.84249e-06
1.8472e-06
1.8472e-06
1.10884e-06
1.21596e-06
1.31345e-06
1.40127e-06
1.47973e-06
1.54929e-06
1.61055e-06
1.66412e-06
1.71064e-06
1.75073e-06
1.78495e-06
1.81385e-06
1.8379e-06
1.85753e-06
1.87309e-06
1.88489e-06
1.89315e-06
1.89804e-06
1.89804e-06
1.03111e-06
1.15045e-06
1.2583e-06
1.355e-06
1.4411e-06
1.51727e-06
1.58425e-06
1.64276e-06
1.69353e-06
1.73726e-06
1.77459e-06
1.80611e-06
1.83235e-06
1.85377e-06
1.87075e-06
1.88364e-06
1.89266e-06
1.89801e-06
1.89801e-06
9.27944e-07
1.03547e-06
1.13214e-06
1.21853e-06
1.29528e-06
1.36309e-06
1.42265e-06
1.47465e-06
1.51975e-06
1.55859e-06
1.59174e-06
1.61974e-06
1.64304e-06
1.66206e-06
1.67714e-06
1.68857e-06
1.69658e-06
1.7013e-06
1.7013e-06
)
;

boundaryField
{
    leftWall
    {
        type            calculated;
        value           uniform 0;
    }
    rightWall
    {
        type            calculated;
        value           uniform 0;
    }
    lowerWall
    {
        type            calculated;
        value           uniform 0;
    }
    atmosphere
    {
        type            calculated;
        value           uniform 0;
    }
    defaultFaces
    {
        type            empty;
    }
}


// ************************************************************************* //
