/*--------------------------------*- C++ -*----------------------------------*\
| =========                 |                                                 |
| \\      /  F ield         | OpenFOAM: The Open Source CFD Toolbox           |
|  \\    /   O peration     | Version:  2012                                  |
|   \\  /    A nd           | Website:  www.openfoam.com                      |
|    \\/     M anipulation  |                                                 |
\*---------------------------------------------------------------------------*/
FoamFile
{
    version     2.0;
    format      ascii;
    class       volScalarField;
    location    "0.01";
    object      minKappa;
}
// * * * * * * * * * * * * * * * * * * * * * * * * * * * * * * * * * * * * * //

dimensions      [0 0 0 0 0 0 0];


internalField   nonuniform List<scalar> 
2268
(
1.45168e-08
3.26114e-08
5.31161e-08
7.48138e-08
9.86388e-08
1.2348e-07
1.54802e-07
1.82715e-07
2.38152e-07
2.56687e-07
4.09955e-07
3.72221e-07
4.25593e-06
1.94332e-05
1.12998e-05
8.27111e-06
6.01883e-06
4.86111e-06
3.87059e-06
3.04115e-06
2.25636e-06
1.45935e-06
6.75074e-07
1.45168e-08
3.26114e-08
5.31161e-08
7.48138e-08
9.86388e-08
1.2348e-07
1.54802e-07
1.82715e-07
2.35882e-07
2.55077e-07
3.92255e-07
3.56085e-07
3.62947e-06
1.31769e-05
9.64577e-06
7.79643e-06
5.88842e-06
4.81806e-06
3.87059e-06
3.04115e-06
2.25636e-06
1.45935e-06
6.75074e-07
2.19446e-08
3.6566e-08
5.56357e-08
7.65994e-08
9.99159e-08
1.24407e-07
1.55141e-07
1.82814e-07
2.32955e-07
2.5306e-07
3.72484e-07
3.44385e-07
3.09912e-06
9.61542e-06
8.5019e-06
7.29631e-06
5.74177e-06
4.76764e-06
3.88792e-06
3.09682e-06
2.35754e-06
1.63564e-06
1.02143e-06
3.0629e-08
4.23206e-08
5.95598e-08
7.94512e-08
1.01984e-07
1.25916e-07
1.55757e-07
1.83023e-07
2.29799e-07
2.50548e-07
3.53243e-07
3.32791e-07
2.75704e-06
7.64231e-06
7.76746e-06
6.8404e-06
5.59301e-06
4.718e-06
3.91785e-06
3.18513e-06
2.51517e-06
1.89828e-06
1.44587e-06
3.96176e-08
4.91803e-08
6.45758e-08
8.32092e-08
1.04758e-07
1.27952e-07
1.5667e-07
1.83348e-07
2.26779e-07
2.4776e-07
3.3628e-07
3.20638e-07
2.52076e-06
6.48445e-06
7.20413e-06
6.4524e-06
5.44899e-06
4.67278e-06
3.95842e-06
3.29916e-06
2.71554e-06
2.21745e-06
1.89999e-06
4.86328e-08
5.66582e-08
7.03809e-08
8.76974e-08
1.08137e-07
1.30456e-07
1.57897e-07
1.83827e-07
2.24019e-07
2.44877e-07
3.21713e-07
3.09538e-07
2.36101e-06
5.80182e-06
6.75105e-06
6.12694e-06
5.31221e-06
4.63091e-06
4.0062e-06
3.4307e-06
2.94671e-06
2.58864e-06
2.42365e-06
5.75502e-08
6.44368e-08
7.67077e-08
9.27313e-08
1.12002e-07
1.33344e-07
1.59411e-07
1.84446e-07
2.21676e-07
2.42133e-07
3.09326e-07
2.99801e-07
2.23903e-06
5.35415e-06
6.37331e-06
5.85332e-06
5.18473e-06
4.59169e-06
4.0556e-06
3.56874e-06
3.19212e-06
2.97681e-06
2.92925e-06
6.6318e-08
7.23347e-08
8.33666e-08
9.81694e-08
1.16262e-07
1.36569e-07
1.61224e-07
1.85262e-07
2.21676e-07
2.42133e-07
3.09326e-07
2.99801e-07
2.13555e-06
5.35415e-06
6.37331e-06
5.85332e-06
5.18473e-06
4.59169e-06
4.10197e-06
3.70515e-06
3.44437e-06
3.45291e-06
3.69392e-06
2.32882e-07
4.82019e-07
6.52031e-07
7.48661e-07
7.83382e-07
7.78938e-07
7.48967e-07
7.0342e-07
6.48861e-07
5.8924e-07
5.27132e-07
4.64032e-07
4.00842e-07
3.38062e-07
2.75943e-07
2.14617e-07
1.54204e-07
9.52166e-08
4.12762e-08
2.32882e-07
4.82019e-07
6.52031e-07
7.48661e-07
7.83382e-07
7.78938e-07
7.48967e-07
7.0342e-07
6.48861e-07
5.8924e-07
5.27132e-07
4.64032e-07
4.00842e-07
3.38062e-07
2.75943e-07
2.14617e-07
1.54204e-07
9.52166e-08
4.12762e-08
3.40843e-07
5.33598e-07
6.81577e-07
7.66948e-07
7.94902e-07
7.86401e-07
7.54041e-07
7.07101e-07
6.51786e-07
5.9179e-07
5.29565e-07
4.66532e-07
4.03571e-07
3.41192e-07
2.79705e-07
2.19389e-07
1.60737e-07
1.0538e-07
6.09357e-08
4.85846e-07
6.16102e-07
7.29851e-07
7.96956e-07
8.13809e-07
7.9864e-07
7.62386e-07
7.13164e-07
6.56614e-07
5.96005e-07
5.3359e-07
4.70668e-07
4.08077e-07
3.46342e-07
2.85858e-07
2.27112e-07
1.71069e-07
1.20481e-07
8.44504e-08
6.51509e-07
7.25753e-07
7.96349e-07
8.38365e-07
8.39873e-07
8.15429e-07
7.73849e-07
7.2151e-07
6.63281e-07
6.01839e-07
5.39166e-07
4.76393e-07
4.14299e-07
3.5342e-07
2.94248e-07
2.3749e-07
1.84558e-07
1.38924e-07
1.09222e-07
8.68501e-07
8.67169e-07
8.79593e-07
8.89835e-07
8.72248e-07
8.36258e-07
7.8814e-07
7.31965e-07
6.71677e-07
6.09217e-07
5.46229e-07
4.83641e-07
4.22153e-07
3.62304e-07
3.04677e-07
2.50178e-07
2.00546e-07
1.59521e-07
1.34484e-07
1.0827e-06
1.03634e-06
9.82292e-07
9.51694e-07
9.10923e-07
8.60865e-07
8.05047e-07
7.44385e-07
6.81705e-07
6.18065e-07
5.54714e-07
4.92338e-07
4.31541e-07
3.72852e-07
3.16926e-07
2.6482e-07
2.18457e-07
1.81493e-07
1.59948e-07
1.48506e-06
1.25841e-06
1.09745e-06
1.01905e-06
9.53231e-07
8.87975e-07
8.23896e-07
7.58412e-07
6.93154e-07
6.28246e-07
5.64514e-07
5.02382e-07
4.42346e-07
3.8491e-07
3.30776e-07
2.81092e-07
2.37829e-07
2.0436e-07
1.85489e-07
1.17061e-07
1.25425e-07
1.41056e-07
1.62459e-07
1.88958e-07
2.19041e-07
2.55371e-07
2.91246e-07
3.43623e-07
3.74622e-07
4.67276e-07
4.56006e-07
2.01043e-06
7.97114e-06
9.48775e-06
8.79319e-06
7.91799e-06
7.11254e-06
6.4677e-06
5.9741e-06
5.77129e-06
6.09757e-06
7.37129e-06
1.96223e-07
2.05363e-07
2.22881e-07
2.4758e-07
2.73913e-07
3.05045e-07
3.41798e-07
3.82175e-07
4.29714e-07
4.75243e-07
5.36827e-07
5.72631e-07
1.88725e-06
9.68356e-06
1.06011e-05
1.0326e-05
9.59584e-06
8.94803e-06
8.43175e-06
8.11893e-06
7.95566e-06
7.75769e-06
6.40378e-06
2.30607e-07
2.3812e-07
2.52731e-07
2.73717e-07
2.974e-07
3.24342e-07
3.56206e-07
3.91393e-07
4.32161e-07
4.71636e-07
5.22749e-07
5.58605e-07
1.78602e-06
9.31663e-06
1.00327e-05
9.78243e-06
9.19801e-06
8.66388e-06
8.22261e-06
7.90173e-06
7.62947e-06
7.34028e-06
5.39346e-06
2.62068e-07
2.68368e-07
2.80713e-07
2.98635e-07
3.19769e-07
3.43064e-07
3.70633e-07
4.01209e-07
4.362e-07
4.70478e-07
5.13237e-07
5.45474e-07
1.70441e-06
9.0249e-06
9.5831e-06
9.30047e-06
8.80379e-06
8.32892e-06
7.90751e-06
7.54425e-06
7.21363e-06
6.88808e-06
4.82192e-06
2.90639e-07
2.95985e-07
3.06508e-07
3.21881e-07
3.4047e-07
3.60605e-07
3.84432e-07
4.1095e-07
4.41001e-07
4.70801e-07
5.06793e-07
5.35386e-07
1.63626e-06
8.76205e-06
9.1936e-06
8.8666e-06
8.42903e-06
7.9959e-06
7.59373e-06
7.2167e-06
6.85064e-06
6.48009e-06
4.45062e-06
3.16335e-07
3.20908e-07
3.29932e-07
3.43163e-07
3.59398e-07
3.7682e-07
3.97425e-07
4.20428e-07
4.46286e-07
4.72239e-07
5.02698e-07
5.28145e-07
1.57745e-06
8.51511e-06
8.8453e-06
8.47776e-06
8.08112e-06
7.67692e-06
7.28761e-06
6.90417e-06
6.52068e-06
6.12431e-06
4.19236e-06
3.39289e-07
3.43224e-07
3.50998e-07
3.62423e-07
3.76478e-07
3.91577e-07
4.09421e-07
4.29395e-07
4.517e-07
4.74349e-07
5.00259e-07
5.2296e-07
1.52479e-06
8.27776e-06
8.50363e-06
8.13124e-06
7.76631e-06
7.38658e-06
7.0118e-06
6.63352e-06
6.25079e-06
5.85528e-06
4.00531e-06
3.59657e-07
3.63059e-07
3.69784e-07
3.7968e-07
3.91769e-07
4.04888e-07
4.20381e-07
4.37763e-07
4.57065e-07
4.76878e-07
4.99022e-07
5.19294e-07
1.47589e-06
8.05169e-06
8.16657e-06
7.82336e-06
7.48565e-06
7.12808e-06
6.76825e-06
6.39976e-06
6.02504e-06
5.64055e-06
3.86293e-06
3.77613e-07
3.80567e-07
3.86409e-07
3.95013e-07
4.05318e-07
4.16758e-07
4.30257e-07
4.45433e-07
4.62204e-07
4.79588e-07
4.98614e-07
5.16737e-07
1.42873e-06
7.82635e-06
7.87324e-06
7.55768e-06
7.24365e-06
6.90598e-06
6.5606e-06
6.2037e-06
5.84009e-06
5.46958e-06
3.75188e-06
3.93367e-07
3.95945e-07
4.01045e-07
4.08561e-07
4.1732e-07
4.27347e-07
4.39169e-07
4.52479e-07
4.67121e-07
4.82421e-07
4.98839e-07
5.15023e-07
1.38227e-06
7.6198e-06
7.59989e-06
7.31874e-06
7.03163e-06
6.71539e-06
6.38531e-06
6.04062e-06
5.68852e-06
5.33155e-06
3.66314e-06
4.07022e-07
4.09286e-07
4.13766e-07
4.2037e-07
4.27635e-07
4.3648e-07
4.46901e-07
4.58652e-07
4.71529e-07
4.8508e-07
4.99367e-07
5.1388e-07
1.33456e-06
7.37923e-06
7.3934e-06
7.14353e-06
6.87525e-06
6.5725e-06
6.25103e-06
5.91318e-06
5.56856e-06
5.22133e-06
3.59162e-06
4.18953e-07
4.20959e-07
4.24928e-07
4.30751e-07
4.37062e-07
4.44945e-07
4.54225e-07
4.64686e-07
4.76091e-07
4.88111e-07
5.00542e-07
5.13356e-07
1.28835e-06
7.19709e-06
7.14092e-06
6.95373e-06
6.72491e-06
6.44634e-06
6.13886e-06
5.80897e-06
5.47101e-06
5.13114e-06
3.53234e-06
4.28761e-07
4.30554e-07
4.34065e-07
4.38199e-07
4.4387e-07
4.50964e-07
4.5932e-07
4.68763e-07
4.79047e-07
4.89953e-07
5.01105e-07
5.12855e-07
1.23906e-06
6.86538e-06
6.98789e-06
6.93425e-06
6.70208e-06
6.41296e-06
6.09196e-06
5.75018e-06
5.4054e-06
5.0634e-06
3.48447e-06
4.37976e-07
4.39603e-07
4.42824e-07
4.47579e-07
4.52844e-07
4.59365e-07
4.6704e-07
4.75685e-07
4.85027e-07
4.94748e-07
5.04389e-07
5.13785e-07
1.21219e-06
6.64745e-06
6.64745e-06
6.77037e-06
6.6084e-06
6.34578e-06
6.03572e-06
5.6929e-06
5.34616e-06
5.00264e-06
3.44089e-06
4.41884e-07
4.41884e-07
4.44003e-07
4.47496e-07
4.52303e-07
4.58343e-07
4.65494e-07
4.73642e-07
4.82555e-07
4.92145e-07
5.01891e-07
5.12384e-07
1.17446e-06
6.54393e-06
6.94155e-06
7.0616e-06
6.84877e-06
6.49391e-06
6.10701e-06
5.70996e-06
5.32856e-06
4.96462e-06
3.40574e-06
4.472e-07
4.48517e-07
4.51131e-07
4.55013e-07
4.601e-07
4.66353e-07
4.73604e-07
4.8194e-07
4.90772e-07
5.00813e-07
5.10152e-07
5.19624e-07
1.37253e-06
6.35132e-06
6.35132e-06
6.86964e-06
6.8513e-06
6.49425e-06
6.10333e-06
5.68589e-06
5.28973e-06
4.9144e-06
3.36479e-06
4.30219e-07
4.30219e-07
4.32074e-07
4.35143e-07
4.39388e-07
4.44782e-07
4.51243e-07
4.58835e-07
4.6736e-07
4.77545e-07
4.88788e-07
5.06008e-07
1.25532e-06
7.81132e-06
7.9379e-06
7.88418e-06
7.50304e-06
6.88401e-06
6.2885e-06
5.75781e-06
5.29271e-06
4.88123e-06
3.32658e-06
4.73199e-07
4.74535e-07
4.77191e-07
4.81151e-07
4.86362e-07
4.92847e-07
5.00436e-07
5.09575e-07
5.19322e-07
5.3302e-07
5.44163e-07
5.74762e-07
3.18675e-06
9.10693e-06
9.10693e-06
8.58069e-06
7.80818e-06
7.01565e-06
6.34882e-06
5.75224e-06
5.25001e-06
4.81721e-06
3.2724e-06
4.88311e-07
4.89814e-07
4.92808e-07
4.97283e-07
5.03193e-07
5.10584e-07
5.19259e-07
5.29733e-07
5.40767e-07
5.56223e-07
5.73227e-07
7.26484e-07
7.87715e-06
1.54263e-05
1.37677e-05
1.07935e-05
8.79962e-06
7.40876e-06
6.45004e-06
5.74709e-06
5.18527e-06
4.73263e-06
3.20413e-06
2.48254e-06
2.49619e-06
2.52328e-06
2.56617e-06
2.62062e-06
2.70226e-06
2.78228e-06
2.93142e-06
3.04112e-06
3.32072e-06
4.12968e-06
1.33727e-05
3.29687e-05
2.78623e-05
1.81132e-05
1.26057e-05
9.48528e-06
7.70019e-06
6.50207e-06
5.69792e-06
5.08656e-06
4.61797e-06
3.11782e-06
6.96111e-06
6.96111e-06
7.01385e-06
7.10937e-06
7.22551e-06
7.41771e-06
7.54742e-06
7.85104e-06
7.85104e-06
7.97049e-06
7.97049e-06
9.47245e-06
1.99546e-05
1.7079e-05
1.22344e-05
9.58859e-06
8.00677e-06
6.8554e-06
6.0081e-06
5.35997e-06
4.83927e-06
4.42009e-06
2.99635e-06
7.57975e-06
7.60817e-06
7.65954e-06
7.75659e-06
7.84374e-06
8.07748e-06
8.1127e-06
8.73234e-06
8.4453e-06
1.00974e-05
8.57705e-06
1.28245e-05
1.31982e-05
1.18076e-05
1.03117e-05
8.65594e-06
7.51179e-06
6.49789e-06
5.71779e-06
5.10397e-06
4.61457e-06
4.22054e-06
2.86665e-06
6.87344e-06
6.89468e-06
6.93236e-06
7.00486e-06
7.06551e-06
7.22e-06
7.2457e-06
7.52216e-06
7.42043e-06
7.95362e-06
7.78476e-06
8.70682e-06
1.0429e-05
9.19012e-06
8.52512e-06
7.26397e-06
6.5198e-06
5.76616e-06
5.187e-06
4.70051e-06
4.30094e-06
3.96681e-06
2.71199e-06
6.49039e-06
6.50523e-06
6.53144e-06
6.58257e-06
6.62538e-06
6.74894e-06
6.75979e-06
7.07005e-06
6.92033e-06
7.60052e-06
7.20876e-06
8.04999e-06
7.95104e-06
7.43225e-06
7.0501e-06
6.26146e-06
5.78548e-06
5.19774e-06
4.76008e-06
4.3519e-06
4.00873e-06
3.71791e-06
2.55466e-06
5.99491e-06
6.00359e-06
6.01848e-06
6.04806e-06
6.06975e-06
6.13989e-06
6.1324e-06
6.30381e-06
6.18237e-06
6.53829e-06
6.28239e-06
6.66272e-06
6.68049e-06
6.26479e-06
5.99422e-06
5.42486e-06
5.06543e-06
4.62142e-06
4.28062e-06
3.95637e-06
3.68365e-06
3.44401e-06
2.38871e-06
5.58055e-06
5.58409e-06
5.58965e-06
5.60244e-06
5.60866e-06
5.64272e-06
5.62814e-06
5.71832e-06
5.63205e-06
5.81202e-06
5.62467e-06
5.76833e-06
5.60255e-06
5.35098e-06
5.11616e-06
4.73241e-06
4.45067e-06
4.11688e-06
3.84604e-06
3.58712e-06
3.36532e-06
3.16869e-06
2.22382e-06
5.17127e-06
5.17025e-06
5.16726e-06
5.16503e-06
5.15526e-06
5.15694e-06
5.12589e-06
5.14708e-06
5.06399e-06
5.11706e-06
4.97082e-06
4.9869e-06
4.85127e-06
4.64365e-06
4.44208e-06
4.1543e-06
3.92245e-06
3.66415e-06
3.4462e-06
3.23978e-06
3.06079e-06
2.9018e-06
2.05996e-06
4.80203e-06
4.79733e-06
4.78738e-06
4.77361e-06
4.75144e-06
4.73104e-06
4.68828e-06
4.66871e-06
4.58743e-06
4.57156e-06
4.44039e-06
4.38638e-06
4.23086e-06
4.05852e-06
3.87641e-06
3.65578e-06
3.46284e-06
3.25983e-06
3.08294e-06
2.91781e-06
2.77384e-06
2.64669e-06
1.90033e-06
4.46071e-06
4.45293e-06
4.43703e-06
4.41369e-06
4.38042e-06
4.3423e-06
4.28667e-06
4.23677e-06
4.14901e-06
4.08827e-06
3.96387e-06
3.87327e-06
3.72851e-06
3.57242e-06
3.40853e-06
3.2273e-06
3.0624e-06
2.89756e-06
2.75206e-06
2.61918e-06
2.50402e-06
2.4039e-06
1.74569e-06
4.15274e-06
4.14247e-06
4.12176e-06
4.09096e-06
4.04885e-06
3.998e-06
3.93217e-06
3.86306e-06
3.76905e-06
3.68276e-06
3.55903e-06
3.44797e-06
3.30464e-06
3.15831e-06
3.00711e-06
2.85167e-06
2.70812e-06
2.57076e-06
2.44972e-06
2.34221e-06
2.25078e-06
2.17357e-06
1.59714e-06
3.8751e-06
3.86279e-06
3.83814e-06
3.80132e-06
3.75187e-06
3.69112e-06
3.6163e-06
3.53331e-06
3.43221e-06
3.32942e-06
3.20405e-06
3.08175e-06
2.94197e-06
2.80139e-06
2.6598e-06
2.52062e-06
2.39256e-06
2.27467e-06
2.17248e-06
2.085e-06
2.01327e-06
1.95572e-06
1.45456e-06
3.62896e-06
3.61501e-06
3.58714e-06
3.54553e-06
3.49014e-06
3.42183e-06
3.33967e-06
3.24688e-06
3.13946e-06
3.026e-06
2.89764e-06
2.76815e-06
2.62899e-06
2.49102e-06
2.35526e-06
2.22603e-06
2.1087e-06
2.00444e-06
1.91656e-06
1.84486e-06
1.78952e-06
1.74891e-06
1.31928e-06
3.40977e-06
3.39448e-06
3.36399e-06
3.31852e-06
3.25828e-06
3.18398e-06
3.09568e-06
2.99545e-06
2.88227e-06
2.76112e-06
2.6292e-06
2.49452e-06
2.35483e-06
2.21749e-06
2.0848e-06
1.96122e-06
1.85095e-06
1.75619e-06
1.67931e-06
1.6205e-06
1.57936e-06
1.55403e-06
1.18867e-06
3.22243e-06
3.20603e-06
3.17337e-06
3.12472e-06
3.06045e-06
2.98129e-06
2.88778e-06
2.78156e-06
2.66309e-06
2.53574e-06
2.39961e-06
2.26004e-06
2.11784e-06
1.97872e-06
1.84585e-06
1.72379e-06
1.61656e-06
1.52705e-06
1.45753e-06
1.40847e-06
1.37912e-06
1.36727e-06
1.06843e-06
3.05385e-06
3.03656e-06
3.00215e-06
2.95092e-06
2.88338e-06
2.80027e-06
2.70246e-06
2.59141e-06
2.4683e-06
2.33581e-06
2.19543e-06
2.05127e-06
1.90566e-06
1.76346e-06
1.62855e-06
1.50566e-06
1.39919e-06
1.31281e-06
1.24918e-06
1.20907e-06
1.19144e-06
1.19342e-06
9.47067e-07
2.92338e-06
2.90533e-06
2.86941e-06
2.81406e-06
2.73756e-06
2.6458e-06
2.53995e-06
2.42146e-06
2.29226e-06
2.15455e-06
2.01113e-06
1.86528e-06
1.72069e-06
1.58175e-06
1.44262e-06
1.31451e-06
1.20382e-06
1.11528e-06
1.05264e-06
1.01751e-06
1.00884e-06
1.02297e-06
8.46876e-07
2.79582e-06
2.7772e-06
2.74015e-06
2.68504e-06
2.61249e-06
2.52332e-06
2.4186e-06
2.29974e-06
2.16839e-06
2.02671e-06
1.87701e-06
1.72242e-06
1.56614e-06
1.41236e-06
1.26559e-06
1.13127e-06
1.01543e-06
9.24407e-07
8.63779e-07
8.36317e-07
8.40476e-07
8.70689e-07
7.28547e-07
2.68986e-06
2.66187e-06
2.61553e-06
2.55135e-06
2.47007e-06
2.37267e-06
2.26041e-06
2.13481e-06
1.99779e-06
1.85156e-06
1.69882e-06
1.54271e-06
1.38691e-06
1.2358e-06
1.09456e-06
9.69337e-07
8.59711e-07
7.56894e-07
6.88083e-07
6.59708e-07
6.71665e-07
7.16079e-07
6.61165e-07
2.62783e-06
2.60842e-06
2.56981e-06
2.51239e-06
2.4368e-06
2.34388e-06
2.23471e-06
2.11065e-06
1.97328e-06
1.82453e-06
1.66657e-06
1.50193e-06
1.33344e-06
1.16446e-06
9.98925e-07
8.41923e-07
7.00504e-07
5.8521e-07
5.10783e-07
4.9011e-07
5.21147e-07
5.87967e-07
5.3874e-07
2.50281e-06
2.47406e-06
2.42647e-06
2.36057e-06
2.27707e-06
2.17694e-06
2.06138e-06
1.93184e-06
1.79002e-06
1.6379e-06
1.47775e-06
1.31215e-06
1.14406e-06
9.76993e-07
8.15434e-07
6.65737e-07
5.37911e-07
4.47526e-07
3.53239e-07
3.26329e-07
3.80552e-07
4.79037e-07
5.16123e-07
2.4921e-06
2.47281e-06
2.43443e-06
2.37736e-06
2.30221e-06
2.2098e-06
2.10116e-06
1.97757e-06
1.84049e-06
1.69162e-06
1.53283e-06
1.36617e-06
1.19383e-06
1.01812e-06
8.41478e-07
6.63281e-07
4.95679e-07
3.36538e-07
1.99383e-07
1.60786e-07
2.52401e-07
3.49401e-07
4.3333e-07
2.2745e-06
2.24762e-06
2.20314e-06
2.14151e-06
2.06341e-06
1.96971e-06
1.86146e-06
1.73994e-06
1.60659e-06
1.46305e-06
1.31111e-06
1.15267e-06
9.89701e-07
8.24225e-07
6.58245e-07
4.93778e-07
3.33076e-07
1.8095e-07
9.42362e-08
9.42362e-08
1.44068e-07
2.7328e-07
3.84555e-07
4.47472e-06
3.95702e-06
3.79088e-06
3.79088e-06
3.85046e-06
3.52345e-06
3.3328e-06
3.3328e-06
3.27852e-06
3.07632e-06
2.89362e-06
2.89362e-06
2.96085e-06
2.80654e-06
2.65521e-06
2.65521e-06
2.73686e-06
2.60815e-06
2.47862e-06
2.47862e-06
2.58479e-06
2.47395e-06
2.36255e-06
2.36255e-06
2.47364e-06
2.37457e-06
2.27566e-06
2.27566e-06
2.38986e-06
2.29981e-06
2.21042e-06
2.21042e-06
2.32451e-06
2.24116e-06
2.15882e-06
2.15882e-06
2.27227e-06
2.19409e-06
2.11712e-06
2.11712e-06
2.22984e-06
2.15547e-06
2.08251e-06
2.08251e-06
2.19435e-06
2.12279e-06
2.0528e-06
2.0528e-06
2.16486e-06
2.09491e-06
2.02681e-06
2.02681e-06
2.13769e-06
2.06885e-06
2.0021e-06
2.0021e-06
2.11419e-06
2.04509e-06
1.97862e-06
1.97862e-06
2.08747e-06
2.0184e-06
1.95234e-06
1.95234e-06
2.06081e-06
1.99056e-06
1.9241e-06
1.9241e-06
2.02528e-06
1.95493e-06
1.88891e-06
1.88891e-06
1.98137e-06
1.91153e-06
1.84653e-06
1.84653e-06
1.92688e-06
1.85858e-06
1.79546e-06
1.79546e-06
1.85456e-06
1.79128e-06
1.73259e-06
1.73259e-06
1.77611e-06
1.71752e-06
1.66323e-06
1.66323e-06
1.68462e-06
1.63296e-06
1.58478e-06
1.58478e-06
1.59044e-06
1.54507e-06
1.50268e-06
1.50268e-06
1.49137e-06
1.45279e-06
1.41658e-06
1.41658e-06
1.39225e-06
1.35989e-06
1.32946e-06
1.32946e-06
1.29343e-06
1.26697e-06
1.24208e-06
1.24208e-06
1.19669e-06
1.1756e-06
1.15581e-06
1.15581e-06
1.10261e-06
1.08642e-06
1.07133e-06
1.07133e-06
1.01191e-06
1.00018e-06
9.89395e-07
9.89395e-07
9.24584e-07
9.16909e-07
9.10082e-07
9.10082e-07
8.41611e-07
8.37696e-07
8.3456e-07
8.3456e-07
7.61286e-07
7.60827e-07
7.60827e-07
7.61107e-07
6.87584e-07
6.87584e-07
6.90548e-07
6.94207e-07
6.12774e-07
6.12774e-07
6.18816e-07
6.25534e-07
5.52124e-07
5.52124e-07
5.61733e-07
5.71919e-07
4.7897e-07
4.7897e-07
4.91386e-07
5.04352e-07
4.4019e-07
4.4019e-07
4.56735e-07
4.73534e-07
3.64339e-07
3.64339e-07
3.83588e-07
4.03011e-07
3.54338e-07
3.54338e-07
3.77325e-07
3.9993e-07
3.05225e-07
3.05225e-07
3.31826e-07
3.57727e-07
2.72488e-07
2.72488e-07
2.97269e-07
3.21159e-07
3.52268e-06
2.42094e-06
1.96119e-06
1.71684e-06
1.56598e-06
1.43564e-06
1.32109e-06
1.21047e-06
1.10409e-06
1.00048e-06
9.00197e-07
8.03463e-07
7.10853e-07
6.23084e-07
5.41276e-07
4.67258e-07
4.04021e-07
3.56248e-07
3.29931e-07
5.15879e-06
3.96654e-06
3.1897e-06
2.64036e-06
2.33332e-06
2.09062e-06
1.89772e-06
1.72529e-06
1.56838e-06
1.42141e-06
1.28318e-06
1.15286e-06
1.03061e-06
9.17101e-07
8.13718e-07
7.22742e-07
6.47596e-07
5.92925e-07
5.63793e-07
4.48817e-06
3.99573e-06
3.33976e-06
2.82407e-06
2.48393e-06
2.21238e-06
1.9953e-06
1.80708e-06
1.64045e-06
1.48867e-06
1.3492e-06
1.22043e-06
1.10196e-06
9.94116e-07
8.97978e-07
8.15393e-07
7.48973e-07
7.01932e-07
6.77396e-07
4.16648e-06
4.02844e-06
3.44271e-06
2.9583e-06
2.60422e-06
2.31873e-06
2.08716e-06
1.88882e-06
1.71564e-06
1.56077e-06
1.42094e-06
1.29408e-06
1.17936e-06
1.07675e-06
9.86962e-07
9.11331e-07
8.51713e-07
8.10263e-07
7.88934e-07
3.92347e-06
3.98671e-06
3.48268e-06
3.0409e-06
2.69321e-06
2.4074e-06
2.17049e-06
1.96765e-06
1.79128e-06
1.63524e-06
1.49606e-06
1.3715e-06
1.26046e-06
1.16261e-06
1.07829e-06
1.00838e-06
9.54092e-07
9.16843e-07
8.97852e-07
3.76653e-06
3.94111e-06
3.50135e-06
3.09678e-06
2.7625e-06
2.48231e-06
2.24578e-06
2.04241e-06
1.86558e-06
1.71005e-06
1.57246e-06
1.45058e-06
1.34314e-06
1.24961e-06
1.17e-06
1.10479e-06
1.05475e-06
1.02073e-06
1.0035e-06
3.64574e-06
3.89681e-06
3.50285e-06
3.13359e-06
2.81609e-06
2.5452e-06
2.313e-06
2.11211e-06
1.93706e-06
1.78348e-06
1.64833e-06
1.52947e-06
1.4256e-06
1.33601e-06
1.26049e-06
1.19923e-06
1.15262e-06
1.12116e-06
1.1053e-06
3.55419e-06
3.85664e-06
3.49553e-06
3.15827e-06
2.85818e-06
2.59823e-06
2.37269e-06
2.1763e-06
2.00465e-06
1.85416e-06
1.72212e-06
1.60659e-06
1.50626e-06
1.42034e-06
1.34846e-06
1.29056e-06
1.24679e-06
1.21741e-06
1.20265e-06
3.48053e-06
3.81992e-06
3.48528e-06
3.17465e-06
2.89123e-06
2.64279e-06
2.42519e-06
2.23461e-06
2.06751e-06
1.92094e-06
1.79256e-06
1.68061e-06
1.58382e-06
1.50137e-06
1.43278e-06
1.37783e-06
1.33649e-06
1.30885e-06
1.29499e-06
3.42022e-06
3.78609e-06
3.47283e-06
3.18475e-06
2.91679e-06
2.67979e-06
2.47076e-06
2.28676e-06
2.12496e-06
1.98293e-06
1.85862e-06
1.75045e-06
1.65723e-06
1.57812e-06
1.51257e-06
1.46027e-06
1.42107e-06
1.39492e-06
1.38184e-06
3.36933e-06
3.75384e-06
3.45798e-06
3.18969e-06
2.93577e-06
2.7098e-06
2.50949e-06
2.33249e-06
2.17649e-06
2.0394e-06
1.91946e-06
1.81524e-06
1.72561e-06
1.64975e-06
1.58708e-06
1.53722e-06
1.49995e-06
1.47514e-06
1.46275e-06
3.32487e-06
3.72187e-06
3.44027e-06
3.18502e-06
2.94856e-06
2.73305e-06
2.54138e-06
2.37157e-06
2.22164e-06
2.08979e-06
1.97443e-06
1.87427e-06
1.78827e-06
1.71562e-06
1.65572e-06
1.60817e-06
1.57269e-06
1.54912e-06
1.53735e-06
3.28496e-06
3.68855e-06
3.41881e-06
3.17488e-06
2.95521e-06
2.74956e-06
2.56635e-06
2.40378e-06
2.26008e-06
2.13364e-06
2.02303e-06
1.92704e-06
1.8447e-06
1.77523e-06
1.71805e-06
1.67273e-06
1.63896e-06
1.61654e-06
1.60536e-06
3.24625e-06
3.65229e-06
3.3926e-06
3.15881e-06
2.9491e-06
2.7592e-06
2.58423e-06
2.42889e-06
2.29152e-06
2.17062e-06
2.06487e-06
1.97314e-06
1.89452e-06
1.82825e-06
1.77376e-06
1.73061e-06
1.6985e-06
1.6772e-06
1.66658e-06
3.20814e-06
3.61108e-06
3.36038e-06
3.136e-06
2.93552e-06
2.75684e-06
2.59484e-06
2.44671e-06
2.31574e-06
2.20049e-06
2.09971e-06
2.01233e-06
1.93747e-06
1.87443e-06
1.82263e-06
1.78164e-06
1.75116e-06
1.73095e-06
1.72088e-06
3.16542e-06
3.56306e-06
3.32089e-06
3.10566e-06
2.91426e-06
2.74425e-06
2.59342e-06
2.45708e-06
2.33259e-06
2.2231e-06
2.12739e-06
2.04445e-06
1.97343e-06
1.91365e-06
1.86457e-06
1.82575e-06
1.79689e-06
1.77777e-06
1.76824e-06
3.11847e-06
3.50621e-06
3.27286e-06
3.067e-06
2.88487e-06
2.72371e-06
2.5811e-06
2.45507e-06
2.342e-06
2.23839e-06
2.14787e-06
2.06947e-06
2.00238e-06
1.94592e-06
1.89958e-06
1.86296e-06
1.83573e-06
1.8177e-06
1.80872e-06
3.061e-06
3.43856e-06
3.21512e-06
3.01933e-06
2.84699e-06
2.69506e-06
2.56097e-06
2.4427e-06
2.33858e-06
2.24639e-06
2.16121e-06
2.08746e-06
2.02437e-06
1.97131e-06
1.92777e-06
1.89337e-06
1.86781e-06
1.85088e-06
1.84245e-06
2.99234e-06
3.35907e-06
3.14703e-06
2.96233e-06
2.80049e-06
2.65831e-06
2.53314e-06
2.42294e-06
2.32605e-06
2.24113e-06
2.16708e-06
2.09857e-06
2.03959e-06
1.99e-06
1.94933e-06
1.91719e-06
1.89331e-06
1.8775e-06
1.86963e-06
2.91047e-06
3.26671e-06
3.06816e-06
2.89586e-06
2.74543e-06
2.61363e-06
2.49785e-06
2.39607e-06
2.30669e-06
2.2284e-06
2.16018e-06
2.1012e-06
2.04828e-06
2.00225e-06
1.9645e-06
1.93468e-06
1.91253e-06
1.89786e-06
1.89055e-06
2.81195e-06
3.16212e-06
2.97896e-06
2.82034e-06
2.68222e-06
2.56144e-06
2.45551e-06
2.36251e-06
2.2809e-06
2.20947e-06
2.14724e-06
2.09345e-06
2.04747e-06
2.00839e-06
1.97364e-06
1.94618e-06
1.92578e-06
1.91228e-06
1.90555e-06
2.70286e-06
3.04648e-06
2.88033e-06
2.73651e-06
2.61151e-06
2.50232e-06
2.40668e-06
2.32278e-06
2.2492e-06
2.18482e-06
2.12875e-06
2.08027e-06
2.03884e-06
2.004e-06
1.97542e-06
1.95208e-06
1.93348e-06
1.92116e-06
1.91502e-06
2.58069e-06
2.92149e-06
2.77356e-06
2.64542e-06
2.53417e-06
2.43705e-06
2.35205e-06
2.27753e-06
2.2122e-06
2.15504e-06
2.10525e-06
2.0622e-06
2.02539e-06
1.99442e-06
1.96901e-06
1.94893e-06
1.934e-06
1.92411e-06
1.91918e-06
2.45213e-06
2.78942e-06
2.6603e-06
2.54835e-06
2.45127e-06
2.36655e-06
2.29245e-06
2.2275e-06
2.17058e-06
2.12077e-06
2.07736e-06
2.03981e-06
2.00769e-06
1.98065e-06
1.95844e-06
1.94088e-06
1.92782e-06
1.91917e-06
1.91486e-06
2.31737e-06
2.6523e-06
2.5422e-06
2.44668e-06
2.36395e-06
2.29181e-06
2.22876e-06
2.17351e-06
2.12508e-06
2.08269e-06
2.04573e-06
2.01374e-06
1.98633e-06
1.96324e-06
1.94427e-06
1.92924e-06
1.91807e-06
1.91065e-06
1.90696e-06
2.18042e-06
2.51228e-06
2.42096e-06
2.34181e-06
2.27343e-06
2.21389e-06
2.16191e-06
2.11639e-06
2.07649e-06
2.04154e-06
2.01105e-06
1.98461e-06
1.96193e-06
1.9428e-06
1.92706e-06
1.91457e-06
1.90527e-06
1.8991e-06
1.89603e-06
2.04266e-06
2.37119e-06
2.29818e-06
2.23512e-06
2.18091e-06
2.13385e-06
2.09288e-06
2.05703e-06
2.02562e-06
1.99808e-06
1.97402e-06
1.95311e-06
1.93514e-06
1.91994e-06
1.9074e-06
1.89744e-06
1.89001e-06
1.88507e-06
1.88261e-06
1.90617e-06
2.23067e-06
2.17528e-06
2.12788e-06
2.08753e-06
2.05273e-06
2.02259e-06
1.99628e-06
1.97324e-06
1.95303e-06
1.93531e-06
1.91987e-06
1.90654e-06
1.89522e-06
1.88585e-06
1.87838e-06
1.87279e-06
1.86907e-06
1.86721e-06
1.77209e-06
2.0922e-06
2.05368e-06
2.02139e-06
1.99449e-06
1.97165e-06
1.95209e-06
1.93512e-06
1.92029e-06
1.90724e-06
1.89574e-06
1.88565e-06
1.87687e-06
1.86936e-06
1.86309e-06
1.85805e-06
1.85427e-06
1.85173e-06
1.85047e-06
1.64172e-06
1.95673e-06
1.93429e-06
1.91651e-06
1.90259e-06
1.89132e-06
1.88202e-06
1.87411e-06
1.86724e-06
1.86116e-06
1.85571e-06
1.85082e-06
1.84645e-06
1.84263e-06
1.83937e-06
1.83669e-06
1.83465e-06
1.83327e-06
1.83258e-06
1.51523e-06
1.82592e-06
1.8188e-06
1.81494e-06
1.8135e-06
1.81336e-06
1.81395e-06
1.81479e-06
1.81559e-06
1.81622e-06
1.81659e-06
1.8167e-06
1.81659e-06
1.81631e-06
1.81594e-06
1.81554e-06
1.81518e-06
1.81491e-06
1.81476e-06
1.39469e-06
1.69934e-06
1.70681e-06
1.71622e-06
1.72668e-06
1.73719e-06
1.74722e-06
1.75639e-06
1.76452e-06
1.77154e-06
1.77745e-06
1.78233e-06
1.78626e-06
1.78936e-06
1.79173e-06
1.79349e-06
1.79473e-06
1.79551e-06
1.79589e-06
1.2772e-06
1.58066e-06
1.60214e-06
1.62426e-06
1.64611e-06
1.66676e-06
1.68576e-06
1.70284e-06
1.7179e-06
1.73095e-06
1.7421e-06
1.75146e-06
1.75919e-06
1.76546e-06
1.77042e-06
1.77421e-06
1.77694e-06
1.77871e-06
1.77958e-06
1.17063e-06
1.46553e-06
1.50028e-06
1.53441e-06
1.56696e-06
1.59711e-06
1.6245e-06
1.64895e-06
1.67046e-06
1.68912e-06
1.70512e-06
1.71864e-06
1.7299e-06
1.7391e-06
1.74646e-06
1.75212e-06
1.75623e-06
1.75892e-06
1.76024e-06
1.06058e-06
1.36432e-06
1.41194e-06
1.45754e-06
1.5002e-06
1.53925e-06
1.57443e-06
1.60569e-06
1.63313e-06
1.65694e-06
1.67736e-06
1.69468e-06
1.70914e-06
1.72102e-06
1.73055e-06
1.73791e-06
1.74329e-06
1.7468e-06
1.74853e-06
9.7632e-07
1.26279e-06
1.32243e-06
1.37863e-06
1.43058e-06
1.47774e-06
1.51999e-06
1.55741e-06
1.5902e-06
1.61864e-06
1.64305e-06
1.66377e-06
1.68111e-06
1.69538e-06
1.70685e-06
1.71574e-06
1.72223e-06
1.72649e-06
1.72859e-06
8.67646e-07
1.18543e-06
1.25637e-06
1.32228e-06
1.38255e-06
1.43688e-06
1.48532e-06
1.52808e-06
1.56547e-06
1.59788e-06
1.6257e-06
1.64933e-06
1.66912e-06
1.68543e-06
1.69855e-06
1.70873e-06
1.71618e-06
1.72106e-06
1.72347e-06
8.21872e-07
1.10363e-06
1.18501e-06
1.25977e-06
1.32755e-06
1.38829e-06
1.44222e-06
1.48969e-06
1.53115e-06
1.56704e-06
1.59785e-06
1.62401e-06
1.64594e-06
1.66402e-06
1.67858e-06
1.68989e-06
1.69817e-06
1.7036e-06
1.70628e-06
7.07893e-07
1.04675e-06
1.13608e-06
1.21736e-06
1.29055e-06
1.35583e-06
1.41362e-06
1.46438e-06
1.50865e-06
1.54695e-06
1.57982e-06
1.60773e-06
1.63114e-06
1.65045e-06
1.666e-06
1.67809e-06
1.68695e-06
1.69276e-06
1.69563e-06
7.07193e-07
1.02165e-06
1.11933e-06
1.20743e-06
1.28626e-06
1.35583e-06
1.41362e-06
1.46438e-06
1.50865e-06
1.54695e-06
1.57982e-06
1.60773e-06
1.63114e-06
1.65045e-06
1.666e-06
1.67809e-06
1.68695e-06
1.69276e-06
1.69563e-06
6.41492e-07
9.40089e-07
1.03759e-06
1.12513e-06
1.20322e-06
1.27246e-06
1.33348e-06
1.38693e-06
1.43346e-06
1.47367e-06
1.50815e-06
1.53743e-06
1.56199e-06
1.58225e-06
1.59857e-06
1.61126e-06
1.62057e-06
1.62667e-06
1.62968e-06
5.76624e-07
9.27944e-07
1.03547e-06
1.12513e-06
1.20322e-06
1.27246e-06
1.33348e-06
1.38693e-06
1.43346e-06
1.47367e-06
1.50815e-06
1.53743e-06
1.56199e-06
1.58225e-06
1.59857e-06
1.61126e-06
1.62057e-06
1.62667e-06
1.62968e-06
)
;

boundaryField
{
    leftWall
    {
        type            calculated;
        value           uniform 0;
    }
    rightWall
    {
        type            calculated;
        value           uniform 0;
    }
    lowerWall
    {
        type            calculated;
        value           uniform 0;
    }
    atmosphere
    {
        type            calculated;
        value           uniform 0;
    }
    defaultFaces
    {
        type            empty;
    }
}


// ************************************************************************* //
