/*--------------------------------*- C++ -*----------------------------------*\
| =========                 |                                                 |
| \\      /  F ield         | OpenFOAM: The Open Source CFD Toolbox           |
|  \\    /   O peration     | Version:  2012                                  |
|   \\  /    A nd           | Website:  www.openfoam.com                      |
|    \\/     M anipulation  |                                                 |
\*---------------------------------------------------------------------------*/
FoamFile
{
    version     2.0;
    format      ascii;
    class       surfaceScalarField;
    location    "0.01";
    object      phi;
}
// * * * * * * * * * * * * * * * * * * * * * * * * * * * * * * * * * * * * * //

dimensions      [0 3 -1 0 0 0 0];
oriented        oriented;


internalField   nonuniform List<scalar> 
4432
(
7.19586e-07
-7.19588e-07
1.45219e-06
-7.32604e-07
2.21186e-06
-7.5968e-07
3.01583e-06
-8.03965e-07
3.88454e-06
-8.68716e-07
4.85169e-06
-9.67158e-07
5.95162e-06
-1.09993e-06
7.29204e-06
-1.34042e-06
8.90825e-06
-1.61621e-06
1.13776e-05
-2.46932e-06
1.45845e-05
-3.20699e-06
2.23021e-05
-7.71752e-06
3.23952e-05
-1.00813e-05
2.89057e-05
3.4908e-06
1.82207e-05
1.06869e-05
1.30124e-05
5.21005e-06
9.94118e-06
3.07311e-06
7.88607e-06
2.05707e-06
6.23342e-06
1.65468e-06
4.74387e-06
1.49165e-06
3.26224e-06
1.48376e-06
1.69429e-06
1.57008e-06
1.69642e-06
7.1661e-07
-1.4362e-06
1.44595e-06
-1.46195e-06
2.20173e-06
-1.51547e-06
3.00059e-06
-1.60283e-06
3.86219e-06
-1.73032e-06
4.81778e-06
-1.92276e-06
5.89948e-06
-2.18163e-06
7.19648e-06
-2.63743e-06
8.74153e-06
-3.16126e-06
1.09132e-05
-4.64097e-06
1.35214e-05
-5.81523e-06
1.83956e-05
-1.25917e-05
2.31328e-05
-1.48053e-05
2.15579e-05
5.0675e-06
1.57883e-05
1.64584e-05
1.22372e-05
8.76289e-06
9.66932e-06
5.6429e-06
7.77263e-06
3.95576e-06
6.19104e-06
3.23836e-06
4.73839e-06
2.94643e-06
3.27791e-06
2.94638e-06
1.7135e-06
3.13664e-06
3.41204e-06
7.10726e-07
-2.14693e-06
1.43363e-06
-2.18486e-06
2.18176e-06
-2.2636e-06
2.97068e-06
-2.39175e-06
3.81859e-06
-2.57822e-06
4.75283e-06
-2.85701e-06
5.80174e-06
-3.23053e-06
7.03172e-06
-3.86742e-06
8.47252e-06
-4.60206e-06
1.03164e-05
-6.48488e-06
1.24243e-05
-7.92315e-06
1.50676e-05
-1.5235e-05
1.70429e-05
-1.67671e-05
1.58574e-05
6.25526e-06
1.35258e-05
1.87917e-05
1.12843e-05
1.10063e-05
9.26259e-06
7.66649e-06
7.58277e-06
5.6376e-06
6.11644e-06
4.70676e-06
4.73214e-06
4.33284e-06
3.31399e-06
4.36665e-06
1.75652e-06
4.69623e-06
5.17068e-06
7.02066e-07
-2.849e-06
1.41553e-06
-2.89832e-06
2.1525e-06
-3.00057e-06
2.92708e-06
-3.16633e-06
3.75548e-06
-3.40662e-06
4.66022e-06
-3.76176e-06
5.66463e-06
-4.23494e-06
6.81146e-06
-5.01425e-06
8.12508e-06
-5.91568e-06
9.65152e-06
-8.01133e-06
1.13372e-05
-9.60882e-06
1.26729e-05
-1.65707e-05
1.36192e-05
-1.76993e-05
1.24511e-05
7.42591e-06
1.18317e-05
1.94129e-05
1.03487e-05
1.24912e-05
8.79222e-06
9.22487e-06
7.34724e-06
7.08459e-06
6.02294e-06
6.03313e-06
4.73198e-06
5.6259e-06
3.37587e-06
5.72487e-06
1.82728e-06
6.24695e-06
7.00008e-06
6.90812e-07
-3.53982e-06
1.39204e-06
-3.59955e-06
2.11467e-06
-3.7232e-06
2.87109e-06
-3.92275e-06
3.67518e-06
-4.21071e-06
4.54447e-06
-4.63105e-06
5.49689e-06
-5.18737e-06
6.55546e-06
-6.07282e-06
7.73683e-06
-7.09706e-06
8.99735e-06
-9.27185e-06
1.03348e-05
-1.09463e-05
1.09548e-05
-1.71906e-05
1.13643e-05
-1.80921e-05
1.03047e-05
8.48821e-06
1.04695e-05
1.925e-05
9.4906e-06
1.3472e-05
8.30663e-06
1.04108e-05
7.09093e-06
8.30233e-06
5.92388e-06
7.20226e-06
4.75069e-06
6.8012e-06
3.48547e-06
6.99221e-06
1.95059e-06
7.78397e-06
8.9528e-06
6.77204e-07
-4.21702e-06
1.36372e-06
-4.28608e-06
2.06925e-06
-4.42873e-06
2.80431e-06
-4.65782e-06
3.58035e-06
-4.98676e-06
4.41008e-06
-5.46079e-06
5.30618e-06
-6.08347e-06
6.27598e-06
-7.04263e-06
7.32831e-06
-8.14939e-06
8.37449e-06
-1.0318e-05
9.43471e-06
-1.20065e-05
9.73825e-06
-1.74942e-05
9.90736e-06
-1.82412e-05
8.95041e-06
9.44802e-06
9.36802e-06
1.88343e-05
8.72838e-06
1.41137e-05
7.83356e-06
1.13077e-05
6.82999e-06
9.30798e-06
5.82509e-06
8.20927e-06
4.78492e-06
7.84349e-06
3.62966e-06
8.14962e-06
2.10853e-06
9.30725e-06
1.10635e-05
6.61468e-07
-4.87849e-06
1.33105e-06
-4.95566e-06
2.01707e-06
-5.11475e-06
2.72817e-06
-5.36892e-06
3.47332e-06
-5.73191e-06
4.26093e-06
-6.2484e-06
5.09886e-06
-6.9214e-06
5.98315e-06
-7.92692e-06
6.91595e-06
-9.08219e-06
7.79138e-06
-1.11935e-05
8.63653e-06
-1.28517e-05
8.80054e-06
-1.76582e-05
8.826e-06
-1.82436e-05
7.98306e-06
1.02939e-05
8.46351e-06
1.83559e-05
8.0587e-06
1.45206e-05
7.38889e-06
1.19796e-05
6.57948e-06
1.01195e-05
5.74611e-06
9.04479e-06
4.8783e-06
8.71346e-06
3.91681e-06
9.11329e-06
2.43402e-06
1.07922e-05
1.34997e-05
6.43951e-07
-5.52245e-06
1.29479e-06
-5.6065e-06
1.95944e-06
-5.7794e-06
2.64472e-06
-6.05421e-06
3.35728e-06
-6.44448e-06
4.10174e-06
-6.99286e-06
4.88189e-06
-7.70155e-06
5.68565e-06
-8.73068e-06
6.51027e-06
-9.90682e-06
7.24663e-06
-1.19298e-05
7.92464e-06
-1.35297e-05
8.0273e-06
-1.77609e-05
7.94112e-06
-1.81321e-05
7.23191e-06
1.10061e-05
7.70988e-06
1.78801e-05
7.46868e-06
1.47639e-05
6.97463e-06
1.24758e-05
6.33425e-06
1.07621e-05
5.65803e-06
9.72317e-06
4.94857e-06
9.42509e-06
4.1562e-06
9.90784e-06
2.69897e-06
1.22516e-05
1.62008e-05
5.87507e-07
-5.85011e-07
1.00697e-06
-4.16996e-07
1.263e-06
-2.53562e-07
1.38676e-06
-1.21252e-07
1.41712e-06
-2.78274e-08
1.38716e-06
3.24919e-08
1.3192e-06
7.04948e-08
1.22855e-06
9.31437e-08
1.12484e-06
1.06197e-07
1.01415e-06
1.13202e-07
9.00197e-07
1.16522e-07
7.85119e-07
1.17614e-07
6.70241e-07
1.17405e-07
5.56169e-07
1.16575e-07
4.43214e-07
1.15526e-07
3.31298e-07
1.14487e-07
2.203e-07
1.13535e-07
1.09956e-07
1.12823e-07
1.12546e-07
6.10314e-07
-1.19287e-06
1.03492e-06
-8.39135e-07
1.28644e-06
-5.02566e-07
1.40387e-06
-2.36153e-07
1.42853e-06
-4.99327e-08
1.39437e-06
6.91643e-08
1.32355e-06
1.4381e-07
1.23107e-06
1.88102e-07
1.12622e-06
2.13584e-07
1.01482e-06
2.27144e-07
9.00441e-07
2.3347e-07
7.8511e-07
2.3543e-07
6.70109e-07
2.34939e-07
5.55991e-07
2.33234e-07
4.43034e-07
2.31081e-07
3.31131e-07
2.28894e-07
2.20177e-07
2.26972e-07
1.09907e-07
2.25656e-07
2.24999e-07
6.59013e-07
-1.84941e-06
1.09336e-06
-1.27099e-06
1.33427e-06
-7.40943e-07
1.43822e-06
-3.37565e-07
1.45114e-06
-6.03134e-08
1.40857e-06
1.14244e-07
1.3321e-06
2.2279e-07
1.23601e-06
2.86702e-07
1.1289e-06
3.23248e-07
1.01611e-06
3.42467e-07
9.00886e-07
3.51222e-07
7.85079e-07
3.53708e-07
6.69838e-07
3.52718e-07
5.55626e-07
3.49984e-07
4.42653e-07
3.46592e-07
3.30793e-07
3.4319e-07
2.19944e-07
3.40321e-07
1.09788e-07
3.38348e-07
3.3728e-07
7.35111e-07
-2.58203e-06
1.18323e-06
-1.71659e-06
1.40625e-06
-9.61429e-07
1.48915e-06
-4.17939e-07
1.48429e-06
-5.29242e-08
1.42921e-06
1.7183e-07
1.34446e-06
3.10064e-07
1.24309e-06
3.90587e-07
1.1327e-06
4.36192e-07
1.01789e-06
4.59781e-07
9.01465e-07
4.70154e-07
7.84982e-07
4.72667e-07
6.69397e-07
4.7085e-07
5.55047e-07
4.66865e-07
4.42059e-07
4.62084e-07
3.30288e-07
4.57407e-07
2.19595e-07
4.53566e-07
1.096e-07
4.50839e-07
4.49367e-07
8.54619e-07
-3.43415e-06
1.31811e-06
-2.17758e-06
1.50721e-06
-1.14802e-06
1.5576e-06
-4.65834e-07
1.52763e-06
-2.04382e-08
1.45569e-06
2.46262e-07
1.36012e-06
4.08161e-07
1.25197e-06
5.01261e-07
1.13739e-06
5.53312e-07
1.02002e-06
5.79633e-07
9.02086e-07
5.90605e-07
7.84759e-07
5.92506e-07
6.68745e-07
5.89439e-07
5.54227e-07
5.83915e-07
4.41241e-07
5.77579e-07
3.29611e-07
5.71571e-07
2.19111e-07
5.66647e-07
1.09339e-07
5.63088e-07
5.6126e-07
1.00505e-06
-4.43671e-06
1.48655e-06
-2.6566e-06
1.63014e-06
-1.28914e-06
1.63942e-06
-4.72642e-07
1.57867e-06
4.28039e-08
1.48655e-06
3.40878e-07
1.37821e-06
5.19028e-07
1.2621e-06
6.19887e-07
1.14263e-06
6.75305e-07
1.0223e-06
7.02449e-07
9.0262e-07
7.12824e-07
7.84326e-07
7.13347e-07
6.67824e-07
7.08523e-07
5.53132e-07
7.01136e-07
4.40186e-07
6.93066e-07
3.28742e-07
6.85602e-07
2.18478e-07
6.79449e-07
1.09015e-07
6.75063e-07
6.72879e-07
1.2693e-06
-5.70355e-06
1.75351e-06
-3.13837e-06
1.79789e-06
-1.33107e-06
1.74045e-06
-4.12745e-07
1.63831e-06
1.47429e-07
1.5213e-06
4.60379e-07
1.39813e-06
6.44726e-07
1.27303e-06
7.47487e-07
1.14812e-06
8.02716e-07
1.02453e-06
8.28532e-07
9.02938e-07
8.36956e-07
7.83596e-07
8.35224e-07
6.6658e-07
8.28074e-07
5.51732e-07
8.18475e-07
4.38873e-07
8.08457e-07
3.27654e-07
7.99359e-07
2.17697e-07
7.91886e-07
1.08628e-07
7.8668e-07
7.84046e-07
1.53856e-06
-7.23967e-06
2.00156e-06
-3.59892e-06
1.95964e-06
-1.2867e-06
1.83983e-06
-2.90468e-07
1.69763e-06
2.92109e-07
1.55606e-06
6.04445e-07
1.41797e-06
7.8532e-07
1.28374e-06
8.84181e-07
1.15328e-06
9.35655e-07
1.02636e-06
9.57938e-07
9.02828e-07
9.62996e-07
7.82433e-07
9.58107e-07
6.64928e-07
9.48044e-07
5.49976e-07
9.35871e-07
4.37262e-07
9.23678e-07
3.26326e-07
9.12752e-07
2.16767e-07
9.0392e-07
1.08161e-07
8.97833e-07
8.94665e-07
1.306e-06
-6.82845e-06
2.62251e-06
-6.92301e-06
3.95964e-06
-7.11653e-06
5.32613e-06
-7.4207e-06
6.72894e-06
-7.8473e-06
8.16782e-06
-8.43175e-06
9.63958e-06
-9.17332e-06
1.11043e-05
-1.01954e-05
1.25442e-05
-1.13467e-05
1.3756e-05
-1.31416e-05
1.47931e-05
-1.45668e-05
1.49163e-05
-1.7884e-05
1.49976e-05
-1.81533e-05
1.37189e-05
1.22911e-05
1.43822e-05
1.72215e-05
1.41952e-05
1.49556e-05
1.35882e-05
1.30874e-05
1.27518e-05
1.16031e-05
1.19266e-05
1.0553e-05
1.14049e-05
9.95136e-06
1.15092e-05
9.80819e-06
1.3619e-05
1.01465e-05
1.1199e-05
1.86255e-05
1.20794e-06
-8.0364e-06
2.42127e-06
-8.13634e-06
3.64463e-06
-8.3399e-06
4.88055e-06
-8.65662e-06
6.12896e-06
-9.09571e-06
7.38181e-06
-9.6846e-06
8.62782e-06
-1.04193e-05
9.82444e-06
-1.13921e-05
1.09493e-05
-1.24716e-05
1.185e-05
-1.40423e-05
1.25696e-05
-1.52864e-05
1.26466e-05
-1.7961e-05
1.25809e-05
-1.80219e-05
1.16936e-05
1.31847e-05
1.22826e-05
1.66373e-05
1.23462e-05
1.48968e-05
1.20954e-05
1.33429e-05
1.16629e-05
1.20401e-05
1.12166e-05
1.10039e-05
1.09446e-05
1.0228e-05
1.10554e-05
9.70198e-06
1.21572e-05
9.04932e-06
8.57717e-06
1.47836e-05
1.1053e-06
-9.14171e-06
2.21183e-06
-9.24287e-06
3.31992e-06
-9.448e-06
4.42765e-06
-9.76435e-06
5.53027e-06
-1.01983e-05
6.61575e-06
-1.07701e-05
7.66922e-06
-1.14728e-05
8.65149e-06
-1.23743e-05
9.54118e-06
-1.33613e-05
1.0227e-05
-1.47281e-05
1.07463e-05
-1.58058e-05
1.07972e-05
-1.80119e-05
1.06542e-05
-1.781e-05
1.00997e-05
1.37453e-05
1.06283e-05
1.61134e-05
1.08223e-05
1.47076e-05
1.07908e-05
1.33791e-05
1.06257e-05
1.22098e-05
1.04436e-05
1.11905e-05
1.03596e-05
1.03167e-05
1.05023e-05
9.56393e-06
1.08789e-05
8.67735e-06
7.82159e-06
1.1639e-05
1.00169e-06
-1.01434e-05
2.00146e-06
-1.02426e-05
2.99654e-06
-1.04431e-05
3.98206e-06
-1.07499e-05
4.95057e-06
-1.11669e-05
5.88864e-06
-1.17082e-05
6.78072e-06
-1.23649e-05
7.59339e-06
-1.3187e-05
8.30843e-06
-1.40764e-05
8.84502e-06
-1.52647e-05
9.23618e-06
-1.61969e-05
9.27092e-06
-1.80466e-05
9.09103e-06
-1.756e-05
8.78098e-06
1.40612e-05
9.26068e-06
1.56385e-05
9.51744e-06
1.44555e-05
9.60516e-06
1.3296e-05
9.58325e-06
1.22363e-05
9.52366e-06
1.12547e-05
9.49127e-06
1.03537e-05
9.55406e-06
9.50576e-06
9.67302e-06
8.56298e-06
7.59365e-06
9.90552e-06
9.00508e-07
-1.10439e-05
1.79692e-06
-1.11391e-05
2.6844e-06
-1.13306e-05
3.5563e-06
-1.16218e-05
4.4039e-06
-1.20145e-05
5.21375e-06
-1.2518e-05
5.97113e-06
-1.31223e-05
6.6484e-06
-1.38643e-05
7.23089e-06
-1.46588e-05
7.65936e-06
-1.56932e-05
7.96316e-06
-1.65007e-05
7.98766e-06
-1.80711e-05
7.77256e-06
-1.72748e-05
7.6446e-06
1.41948e-05
8.09091e-06
1.5197e-05
8.37671e-06
1.41744e-05
8.53075e-06
1.31466e-05
8.59117e-06
1.21805e-05
8.60117e-06
1.12494e-05
8.59658e-06
1.03629e-05
8.60864e-06
9.49827e-06
8.59266e-06
8.58351e-06
7.64588e-06
8.54496e-06
8.03793e-07
-1.18477e-05
1.60214e-06
-1.19374e-05
2.38897e-06
-1.21174e-05
3.1568e-06
-1.23896e-05
3.89651e-06
-1.27542e-05
4.5955e-06
-1.3217e-05
5.2405e-06
-1.37673e-05
5.809e-06
-1.44328e-05
6.28958e-06
-1.51394e-05
6.63796e-06
-1.60416e-05
6.88025e-06
-1.6743e-05
6.89796e-06
-1.80888e-05
6.6452e-06
-1.69531e-05
6.6496e-06
1.41958e-05
7.06865e-06
1.47826e-05
7.36268e-06
1.38851e-05
7.54826e-06
1.29656e-05
7.6497e-06
1.20836e-05
7.69244e-06
1.12112e-05
7.69741e-06
1.03625e-05
7.67928e-06
9.52093e-06
7.61111e-06
8.65619e-06
7.77953e-06
7.48195e-06
7.12882e-07
-1.25606e-05
1.41961e-06
-1.26441e-05
2.11357e-06
-1.28114e-05
2.78704e-06
-1.30631e-05
3.43113e-06
-1.33983e-05
4.0344e-06
-1.38203e-05
4.58524e-06
-1.43181e-05
5.0654e-06
-1.49129e-05
5.46607e-06
-1.55401e-05
5.75343e-06
-1.63289e-05
5.95063e-06
-1.69402e-05
5.96368e-06
-1.81019e-05
5.66948e-06
-1.65918e-05
5.76811e-06
1.41024e-05
6.16319e-06
1.43922e-05
6.45415e-06
1.35987e-05
6.65122e-06
1.27731e-05
6.77097e-06
1.19684e-05
6.82894e-06
1.11577e-05
6.83862e-06
1.03573e-05
6.8069e-06
9.55711e-06
6.71923e-06
8.74832e-06
7.93771e-06
6.56549e-06
6.28404e-07
-1.3189e-05
1.25046e-06
-1.32662e-05
1.85946e-06
-1.34204e-05
2.44791e-06
-1.36515e-05
3.00748e-06
-1.39578e-05
3.52803e-06
-1.43408e-05
3.99958e-06
-1.47897e-05
4.40727e-06
-1.53206e-05
4.74433e-06
-1.58771e-05
4.98423e-06
-1.65688e-05
5.14746e-06
-1.71035e-05
5.15724e-06
-1.81117e-05
4.81685e-06
-1.61868e-05
4.9825e-06
1.39418e-05
5.35611e-06
1.40231e-05
5.63659e-06
1.33227e-05
5.832e-06
1.25821e-05
5.95523e-06
1.18496e-05
6.01678e-06
1.11006e-05
6.02724e-06
1.03512e-05
5.99102e-06
9.59772e-06
5.9021e-06
8.84164e-06
8.08957e-06
5.75466e-06
5.50481e-07
-1.37395e-05
1.09478e-06
-1.38105e-05
1.62646e-06
-1.3952e-05
2.13853e-06
-1.41636e-05
2.62343e-06
-1.44427e-05
3.07231e-06
-1.47897e-05
3.47672e-06
-1.51941e-05
3.82444e-06
-1.56683e-05
4.11027e-06
-1.6163e-05
4.31274e-06
-1.67713e-05
4.44996e-06
-1.72407e-05
4.4574e-06
-1.81191e-05
4.06725e-06
-1.57349e-05
4.28404e-06
1.37297e-05
4.63922e-06
1.36723e-05
4.90457e-06
1.30617e-05
5.088e-06
1.2403e-05
5.20344e-06
1.17384e-05
5.25965e-06
1.10487e-05
5.26718e-06
1.0348e-05
5.22992e-06
9.63933e-06
5.1468e-06
8.9291e-06
8.22549e-06
5.01526e-06
4.78987e-07
-1.42185e-05
9.52212e-07
-1.42837e-05
1.41375e-06
-1.44136e-05
1.85726e-06
-1.46071e-05
2.27609e-06
-1.48616e-05
2.66263e-06
-1.51762e-05
3.00977e-06
-1.55412e-05
3.3074e-06
-1.5966e-05
3.55148e-06
-1.64071e-05
3.72401e-06
-1.69438e-05
3.84108e-06
-1.73577e-05
3.84683e-06
-1.81249e-05
3.40382e-06
-1.52334e-05
3.66046e-06
1.34777e-05
4.00033e-06
1.33367e-05
4.24593e-06
1.28203e-05
4.40903e-06
1.22442e-05
4.50818e-06
1.16435e-05
4.55202e-06
1.10091e-05
4.55311e-06
1.03512e-05
4.51541e-06
9.68133e-06
4.44077e-06
9.00801e-06
8.34213e-06
4.32841e-06
4.13185e-07
-1.46316e-05
8.21225e-07
-1.46918e-05
1.21887e-06
-1.48112e-05
1.6006e-06
-1.49888e-05
1.96072e-06
-1.52217e-05
2.29284e-06
-1.55083e-05
2.59112e-06
-1.58395e-05
2.84716e-06
-1.6222e-05
3.05783e-06
-1.66177e-05
3.20733e-06
-1.70933e-05
3.30997e-06
-1.74604e-05
3.31452e-06
-1.81294e-05
2.82627e-06
-1.46902e-05
3.13522e-06
1.31731e-05
3.46683e-06
1.30093e-05
3.68416e-06
1.26071e-05
3.81015e-06
1.21223e-05
3.87718e-06
1.15806e-05
3.89576e-06
1.09947e-05
3.88261e-06
1.03686e-05
3.84098e-06
9.72716e-06
3.77388e-06
9.0793e-06
8.4398e-06
3.68037e-06
3.53103e-07
-1.49847e-05
7.01743e-07
-1.50404e-05
1.04141e-06
-1.51509e-05
1.36744e-06
-1.53149e-05
1.6751e-06
-1.55294e-05
1.95916e-06
-1.57924e-05
2.21493e-06
-1.60953e-05
2.4354e-06
-1.64425e-05
2.61823e-06
-1.68006e-05
2.74887e-06
-1.7224e-05
2.84051e-06
-1.7552e-05
2.84421e-06
-1.81331e-05
2.32883e-06
-1.41235e-05
2.67331e-06
1.28328e-05
2.9935e-06
1.26932e-05
3.16765e-06
1.24371e-05
3.24521e-06
1.20489e-05
3.27307e-06
1.15569e-05
3.2623e-06
1.10095e-05
3.23405e-06
1.0401e-05
3.18942e-06
9.77589e-06
3.13149e-06
9.14132e-06
8.51741e-06
3.05791e-06
2.96368e-07
-1.52811e-05
5.89132e-07
-1.53332e-05
8.74678e-07
-1.54364e-05
1.14933e-06
-1.55895e-05
1.40943e-06
-1.57895e-05
1.65106e-06
-1.6034e-05
1.8709e-06
-1.63151e-05
2.06366e-06
-1.66352e-05
2.22806e-06
-1.6965e-05
2.35018e-06
-1.73461e-05
2.4421e-06
-1.76439e-05
2.44542e-06
-1.81364e-05
1.99015e-06
-1.36204e-05
2.45065e-06
1.23764e-05
2.75088e-06
1.2397e-05
2.83974e-06
1.23522e-05
2.81175e-06
1.20808e-05
2.75532e-06
1.16173e-05
2.68275e-06
1.10861e-05
2.62021e-06
1.04675e-05
2.56267e-06
9.83744e-06
2.50984e-06
9.19814e-06
8.57646e-06
2.45475e-06
2.45447e-07
-1.55266e-05
4.87956e-07
-1.55757e-05
7.24594e-07
-1.56731e-05
9.52444e-07
-1.58174e-05
1.16879e-06
-1.60058e-05
1.37091e-06
-1.62361e-05
1.55651e-06
-1.65007e-05
1.72169e-06
-1.68004e-05
1.86551e-06
-1.71088e-05
1.97506e-06
-1.74556e-05
2.0612e-06
-1.77301e-05
2.06471e-06
-1.81399e-05
1.82814e-06
-1.33396e-05
2.27006e-06
1.19384e-05
2.48676e-06
1.21841e-05
2.42487e-06
1.24179e-05
2.28228e-06
1.22272e-05
2.15337e-06
1.17501e-05
2.04046e-06
1.12028e-05
1.96541e-06
1.05464e-05
1.9133e-06
9.89345e-06
1.87943e-06
9.2359e-06
8.60732e-06
1.85247e-06
1.94677e-07
-1.57212e-05
3.87289e-07
-1.57683e-05
5.75888e-07
-1.58617e-05
7.58767e-07
-1.60002e-05
9.34498e-07
-1.61815e-05
1.10222e-06
-1.64039e-05
1.26183e-06
-1.66603e-05
1.41444e-06
-1.6953e-05
1.56211e-06
-1.72565e-05
1.70155e-06
-1.75951e-05
1.83986e-06
-1.78684e-05
1.85085e-06
-1.81509e-05
2.49836e-06
-1.39442e-05
3.09622e-06
1.13443e-05
2.9452e-06
1.23388e-05
2.52989e-06
1.28368e-05
2.07235e-06
1.26884e-05
1.73276e-06
1.20934e-05
1.49281e-06
1.14466e-05
1.35583e-06
1.06872e-05
1.28537e-06
9.96766e-06
1.26074e-06
9.2643e-06
8.61252e-06
1.25934e-06
1.49227e-07
-1.58705e-05
2.96979e-07
-1.5916e-05
4.41844e-07
-1.60065e-05
5.82597e-07
-1.6141e-05
7.182e-07
-1.63171e-05
8.48088e-07
-1.65338e-05
9.71722e-07
-1.67839e-05
1.08926e-06
-1.70706e-05
1.19975e-06
-1.73669e-05
1.29958e-06
-1.76949e-05
1.38559e-06
-1.79544e-05
1.41481e-06
-1.81802e-05
3.08391e-06
-1.55721e-05
3.68212e-06
1.07497e-05
2.78828e-06
1.32361e-05
1.91228e-06
1.37164e-05
1.24787e-06
1.33564e-05
8.57316e-07
1.24875e-05
6.39083e-07
1.16684e-05
5.54398e-07
1.07756e-05
5.45045e-07
9.98064e-06
5.81285e-07
9.23171e-06
8.55974e-06
6.37732e-07
1.004e-07
-1.59709e-05
2.00016e-07
-1.60156e-05
2.98203e-07
-1.61047e-05
3.948e-07
-1.62376e-05
4.90236e-07
-1.64126e-05
5.87527e-07
-1.6631e-05
6.906e-07
-1.6887e-05
8.19941e-07
-1.71999e-05
9.8573e-07
-1.75327e-05
1.32541e-06
-1.80346e-05
1.7864e-06
-1.84154e-05
3.24763e-06
-1.9629e-05
9.66953e-06
-2.19229e-05
8.45955e-06
1.19638e-05
4.86309e-06
1.68358e-05
2.62094e-06
1.59619e-05
1.20972e-06
1.47711e-05
4.02143e-07
1.32986e-05
1.52898e-08
1.20588e-05
-1.35045e-07
1.09294e-05
-1.38377e-07
9.98751e-06
-6.87807e-08
9.16563e-06
8.45975e-06
3.47751e-08
6.30842e-08
-1.6034e-05
1.25622e-07
-1.60782e-05
1.87094e-07
-1.61662e-05
2.47049e-07
-1.62975e-05
3.04981e-07
-1.64705e-05
3.60077e-07
-1.66861e-05
4.10741e-07
-1.69377e-05
4.50093e-07
-1.72393e-05
4.69141e-07
-1.75518e-05
4.05762e-07
-1.79712e-05
2.4161e-07
-1.82512e-05
-5.98263e-07
-1.87508e-05
8.03266e-06
-3.03466e-05
7.9777e-06
1.20222e-05
3.03143e-06
2.17856e-05
9.8671e-08
1.8898e-05
-1.03945e-06
1.59125e-05
-1.39768e-06
1.36602e-05
-1.4154e-06
1.20799e-05
-1.26982e-06
1.07872e-05
-1.06151e-06
9.78262e-06
-8.37649e-07
8.94512e-06
8.24585e-06
-6.20309e-07
-6.68269e-10
-1.60422e-05
-1.35982e-09
-1.60865e-05
-2.1026e-09
-1.61746e-05
-2.89875e-09
-1.6306e-05
-3.80036e-09
-1.64791e-05
-4.69336e-09
-1.66951e-05
-5.80791e-09
-1.69468e-05
-6.16586e-09
-1.72495e-05
-3.5016e-09
-1.75656e-05
1.10985e-07
-1.80977e-05
2.13917e-06
-2.02952e-05
2.71584e-05
-4.38559e-05
4.00223e-05
-4.28162e-05
1.92409e-05
3.28454e-05
5.18556e-06
3.58437e-05
1.19693e-07
2.39669e-05
-1.65501e-06
1.76903e-05
-2.35325e-06
1.43617e-05
-2.31414e-06
1.2044e-05
-2.12229e-06
1.05986e-05
-1.81681e-06
9.48039e-06
-1.50916e-06
8.64075e-06
7.95298e-06
-1.21308e-06
-8.93469e-07
-1.51516e-05
-1.80898e-06
-1.51738e-05
-2.77361e-06
-1.52128e-05
-3.80988e-06
-1.52727e-05
-4.96561e-06
-1.53264e-05
-6.26443e-06
-1.53992e-05
-7.79703e-06
-1.54172e-05
-9.6253e-06
-1.54243e-05
-1.18103e-05
-1.53836e-05
-1.47991e-05
-1.51122e-05
-1.81344e-05
-1.69634e-05
-2.44074e-05
-3.75925e-05
-4.12477e-05
-2.59729e-05
-3.28635e-05
2.44652e-05
-1.79855e-05
2.0969e-05
-1.14033e-05
1.73879e-05
-7.81298e-06
1.41032e-05
-5.77044e-06
1.23222e-05
-4.45608e-06
1.07328e-05
-3.52923e-06
9.67485e-06
-2.83245e-06
8.78669e-06
-2.28213e-06
8.09366e-06
7.50831e-06
-1.83425e-06
-8.76171e-07
-1.42736e-05
-1.76562e-06
-1.42825e-05
-2.68467e-06
-1.42919e-05
-3.63274e-06
-1.43228e-05
-4.64602e-06
-1.43112e-05
-5.6341e-06
-1.44092e-05
-6.8022e-06
-1.4247e-05
-7.56709e-06
-1.46573e-05
-9.08415e-06
-1.38644e-05
-8.60273e-06
-1.55913e-05
-1.27325e-05
-1.28311e-05
-3.2114e-05
-1.82086e-05
-4.63448e-05
-1.17387e-05
-2.84258e-05
6.54892e-06
-1.80569e-05
1.0603e-05
-1.21198e-05
1.14536e-05
-8.87958e-06
1.08659e-05
-6.73408e-06
1.01796e-05
-5.3198e-06
9.32148e-06
-4.27521e-06
8.63322e-06
-3.47908e-06
7.99351e-06
-2.84366e-06
7.46128e-06
6.99305e-06
-2.32516e-06
-9.03177e-07
-1.33686e-05
-1.82468e-06
-1.33592e-05
-2.78442e-06
-1.33304e-05
-3.80475e-06
-1.33006e-05
-4.91168e-06
-1.32024e-05
-6.14632e-06
-1.31726e-05
-7.52356e-06
-1.28679e-05
-9.18075e-06
-1.29982e-05
-1.09553e-05
-1.20877e-05
-1.34491e-05
-1.30953e-05
-1.58175e-05
-1.04605e-05
-1.93462e-05
-1.46776e-05
-2.47688e-05
-6.31353e-06
-2.08613e-05
2.64391e-06
-1.64162e-05
6.16067e-06
-1.26685e-05
7.70849e-06
-9.87693e-06
8.0771e-06
-7.75848e-06
8.06397e-06
-6.20148e-06
7.76726e-06
-5.00539e-06
7.43997e-06
-4.0826e-06
7.07363e-06
-3.34886e-06
6.73036e-06
6.4034e-06
-2.75637e-06
-8.80288e-07
-1.24865e-05
-1.77277e-06
-1.24649e-05
-2.68869e-06
-1.24126e-05
-3.64066e-06
-1.23468e-05
-4.63666e-06
-1.22045e-05
-5.6952e-06
-1.21122e-05
-6.81766e-06
-1.17435e-05
-8.07667e-06
-1.17372e-05
-9.42446e-06
-1.07379e-05
-1.14082e-05
-1.11094e-05
-1.32796e-05
-8.5868e-06
-1.87806e-05
-9.17433e-06
-2.05134e-05
-4.5782e-06
-1.76813e-05
-1.8575e-07
-1.47423e-05
3.22421e-06
-1.18712e-05
4.83989e-06
-9.6497e-06
5.85824e-06
-7.83224e-06
6.24921e-06
-6.42658e-06
6.36425e-06
-5.29852e-06
6.31465e-06
-4.39602e-06
6.17396e-06
-3.65906e-06
5.99623e-06
5.79902e-06
-3.05197e-06
-8.61952e-07
-1.16228e-05
-1.73671e-06
-1.15884e-05
-2.63584e-06
-1.15117e-05
-3.57737e-06
-1.14034e-05
-4.56637e-06
-1.12137e-05
-5.64601e-06
-1.10307e-05
-6.7745e-06
-1.06131e-05
-8.09656e-06
-1.04132e-05
-9.36205e-06
-9.47038e-06
-1.10314e-05
-9.43801e-06
-1.22753e-05
-7.34081e-06
-1.39253e-05
-7.52219e-06
-1.49346e-05
-3.56658e-06
-1.40864e-05
-1.03157e-06
-1.25382e-05
1.67842e-06
-1.08018e-05
3.10583e-06
-9.16183e-06
4.22077e-06
-7.70639e-06
4.79635e-06
-6.47609e-06
5.13652e-06
-5.44082e-06
5.28196e-06
-4.57937e-06
5.31513e-06
-3.85871e-06
5.27834e-06
5.19752e-06
-3.25436e-06
-8.21885e-07
-1.07992e-05
-1.65232e-06
-1.07562e-05
-2.49799e-06
-1.06643e-05
-3.37025e-06
-1.05294e-05
-4.26694e-06
-1.03152e-05
-5.21719e-06
-1.00787e-05
-6.17809e-06
-9.6504e-06
-7.26476e-06
-9.32467e-06
-8.27369e-06
-8.45957e-06
-9.63175e-06
-8.07798e-06
-1.056e-05
-6.41053e-06
-1.22769e-05
-5.8032e-06
-1.25672e-05
-3.27417e-06
-1.20775e-05
-1.51903e-06
-1.09883e-05
5.91514e-07
-9.74068e-06
1.86055e-06
-8.48277e-06
2.96518e-06
-7.31724e-06
3.63317e-06
-6.28131e-06
4.10311e-06
-5.37665e-06
4.3798e-06
-4.59707e-06
4.53799e-06
-3.9271e-06
4.61077e-06
4.62527e-06
-3.35247e-06
-7.78124e-07
-1.00194e-05
-1.56306e-06
-9.96958e-06
-2.36013e-06
-9.86552e-06
-3.1785e-06
-9.70932e-06
-4.01601e-06
-9.47599e-06
-4.89492e-06
-9.19803e-06
-5.77663e-06
-8.76694e-06
-6.73858e-06
-8.36094e-06
-7.61168e-06
-7.5847e-06
-8.62625e-06
-7.06154e-06
-9.31495e-06
-5.7199e-06
-1.01058e-05
-5.01036e-06
-1.03224e-05
-3.05559e-06
-1.01257e-05
-1.71362e-06
-9.46937e-06
-6.27887e-08
-8.65214e-06
1.04557e-06
-7.73268e-06
2.04796e-06
-6.82919e-06
2.7319e-06
-5.97777e-06
3.25402e-06
-5.20386e-06
3.60829e-06
-4.51342e-06
3.85004e-06
-3.90429e-06
4.00405e-06
4.09388e-06
-3.37046e-06
-7.25642e-07
-9.29213e-06
-1.45526e-06
-9.23837e-06
-2.1915e-06
-9.12766e-06
-2.93916e-06
-8.96004e-06
-3.69441e-06
-8.7191e-06
-4.46927e-06
-8.42151e-06
-5.23357e-06
-8.00095e-06
-6.03548e-06
-7.55734e-06
-6.75733e-06
-6.86116e-06
-7.5578e-06
-6.25931e-06
-8.10347e-06
-5.17242e-06
-8.74731e-06
-4.36465e-06
-8.86532e-06
-2.93568e-06
-8.75439e-06
-1.82258e-06
-8.29488e-06
-5.20329e-07
-7.70365e-06
4.56367e-07
-7.00644e-06
1.35285e-06
-6.29527e-06
2.02287e-06
-5.59923e-06
2.56012e-06
-4.94616e-06
2.95742e-06
-4.34645e-06
3.25256e-06
-3.80427e-06
3.46415e-06
3.61097e-06
-3.31912e-06
-6.705e-07
-8.62011e-06
-1.34312e-06
-8.56425e-06
-2.019e-06
-8.45026e-06
-2.70033e-06
-8.27717e-06
-3.38331e-06
-8.03453e-06
-4.07336e-06
-7.72988e-06
-4.74795e-06
-7.32478e-06
-5.43076e-06
-6.87292e-06
-6.0427e-06
-6.24756e-06
-6.66069e-06
-5.63962e-06
-7.09469e-06
-4.73673e-06
-7.49533e-06
-3.96227e-06
-7.6e-06
-2.82923e-06
-7.54231e-06
-1.87837e-06
-7.24035e-06
-8.20345e-07
-6.82231e-06
4.01831e-08
-6.30209e-06
8.34613e-07
-5.74762e-06
1.47047e-06
-5.18432e-06
1.99885e-06
-4.63899e-06
2.41416e-06
-4.12452e-06
2.74014e-06
-3.64863e-06
2.99037e-06
3.17884e-06
-3.21437e-06
-6.13094e-07
-8.00559e-06
-1.2266e-06
-7.94933e-06
-1.84015e-06
-7.83525e-06
-2.45369e-06
-7.66214e-06
-3.06311e-06
-7.42361e-06
-3.66901e-06
-7.12248e-06
-4.25488e-06
-6.73742e-06
-4.83047e-06
-6.29579e-06
-5.34523e-06
-5.73122e-06
-5.8394e-06
-5.14382e-06
-6.1971e-06
-4.3774e-06
-6.5068e-06
-3.65088e-06
-6.59836e-06
-2.73602e-06
-6.566e-06
-1.909e-06
-6.35526e-06
-1.02927e-06
-6.04626e-06
-2.6703e-07
-5.64985e-06
4.40019e-07
-5.21299e-06
1.03553e-06
-4.75661e-06
1.54442e-06
-4.30319e-06
1.96265e-06
-3.86543e-06
2.30431e-06
-3.45213e-06
2.57899e-06
2.79677e-06
-3.06814e-06
-5.55701e-07
-7.44856e-06
-1.11061e-06
-7.39306e-06
-1.66342e-06
-7.28105e-06
-2.21268e-06
-7.11149e-06
-2.75429e-06
-6.88059e-06
-3.28618e-06
-6.58916e-06
-3.79611e-06
-6.22604e-06
-4.2854e-06
-5.80504e-06
-4.72181e-06
-5.29334e-06
-5.12079e-06
-4.74333e-06
-5.41684e-06
-4.07979e-06
-5.64824e-06
-3.41786e-06
-5.73315e-06
-2.64948e-06
-5.71786e-06
-1.9227e-06
-5.57302e-06
-1.17248e-06
-5.34458e-06
-4.93742e-07
-5.04225e-06
1.39382e-07
-4.69798e-06
6.92931e-07
-4.32896e-06
1.1772e-06
-3.9535e-06
1.58895e-06
-3.58338e-06
1.93598e-06
-3.22735e-06
2.22476e-06
2.46227e-06
-2.89107e-06
-4.99202e-07
-6.94808e-06
-9.96757e-07
-6.8942e-06
-1.49068e-06
-6.78584e-06
-1.97863e-06
-6.62226e-06
-2.45653e-06
-6.40138e-06
-2.92092e-06
-6.12343e-06
-3.36254e-06
-5.78304e-06
-3.77874e-06
-5.38742e-06
-4.14896e-06
-4.9217e-06
-4.47747e-06
-4.41343e-06
-4.72643e-06
-3.82944e-06
-4.91305e-06
-3.2298e-06
-4.99176e-06
-2.56924e-06
-4.98789e-06
-1.9251e-06
-4.8866e-06
-1.27227e-06
-4.71503e-06
-6.63718e-07
-4.48195e-06
-9.20793e-08
-4.20907e-06
4.21626e-07
-3.91031e-06
8.80008e-07
-3.59997e-06
1.28024e-06
-3.28847e-06
1.62614e-06
-2.98377e-06
1.92182e-06
2.17188e-06
-2.69164e-06
-4.44546e-07
-6.50235e-06
-8.86937e-07
-6.4506e-06
-1.32476e-06
-6.34678e-06
-1.75527e-06
-6.19052e-06
-2.17453e-06
-5.98089e-06
-2.57861e-06
-5.71812e-06
-2.96028e-06
-5.40012e-06
-3.31528e-06
-5.03114e-06
-3.63009e-06
-4.60559e-06
-3.90346e-06
-4.1387e-06
-4.11369e-06
-3.61791e-06
-4.26657e-06
-3.07563e-06
-4.33901e-06
-2.49542e-06
-4.34326e-06
-1.91949e-06
-4.27283e-06
-1.3413e-06
-4.14366e-06
-7.91482e-07
-3.96326e-06
-2.71016e-07
-3.7465e-06
2.06401e-07
-3.50459e-06
6.39519e-07
-3.24866e-06
1.02577e-06
-2.9876e-06
1.36652e-06
-2.72844e-06
1.66421e-06
1.92165e-06
-2.47656e-06
-3.92083e-07
-6.10917e-06
-7.81757e-07
-6.0598e-06
-1.16643e-06
-5.96095e-06
-1.54322e-06
-5.81259e-06
-1.90842e-06
-5.61451e-06
-2.25811e-06
-5.36726e-06
-2.58653e-06
-5.07056e-06
-2.88912e-06
-4.72742e-06
-3.15674e-06
-4.33686e-06
-3.38616e-06
-3.90811e-06
-3.56455e-06
-3.43832e-06
-3.69294e-06
-2.94607e-06
-3.7591e-06
-2.42808e-06
-3.7689e-06
-1.90843e-06
-3.72015e-06
-1.38878e-06
-3.6225e-06
-8.87843e-07
-3.48225e-06
-4.09986e-07
-3.30981e-06
3.52786e-08
-3.11392e-06
4.45012e-07
-2.90334e-06
8.16586e-07
-2.68546e-06
1.14997e-06
-2.4664e-06
1.44642e-06
1.70755e-06
-2.25091e-06
-3.42251e-07
-5.76587e-06
-6.82019e-07
-5.71896e-06
-1.01673e-06
-5.62521e-06
-1.34353e-06
-5.48477e-06
-1.65904e-06
-5.29797e-06
-1.95961e-06
-5.06565e-06
-2.24056e-06
-4.78856e-06
-2.49766e-06
-4.46927e-06
-2.72449e-06
-4.10903e-06
-2.91748e-06
-3.71413e-06
-3.06872e-06
-3.28603e-06
-3.17732e-06
-2.83638e-06
-3.23693e-06
-2.36745e-06
-3.2502e-06
-1.89401e-06
-3.21693e-06
-1.42092e-06
-3.14316e-06
-9.60435e-07
-3.03395e-06
-5.17997e-07
-2.89685e-06
-1.00751e-07
-2.73858e-06
2.87917e-07
-2.566e-06
6.45254e-07
-2.38511e-06
9.70389e-07
-2.20122e-06
1.26367e-06
1.52594e-06
-2.0184e-06
-2.94721e-07
-5.47019e-06
-5.87066e-07
-5.42563e-06
-8.74579e-07
-5.33669e-06
-1.15463e-06
-5.20379e-06
-1.42423e-06
-5.02751e-06
-1.68009e-06
-4.80892e-06
-1.91842e-06
-4.54936e-06
-2.1355e-06
-4.25128e-06
-2.32668e-06
-3.91695e-06
-2.48871e-06
-3.55122e-06
-2.61651e-06
-3.1573e-06
-2.70866e-06
-2.74329e-06
-2.76164e-06
-2.31349e-06
-2.77679e-06
-1.87787e-06
-2.75457e-06
-1.44209e-06
-2.69902e-06
-1.01493e-06
-2.61412e-06
-6.01814e-07
-2.5053e-06
-2.08485e-07
-2.37799e-06
1.61575e-07
-2.23741e-06
5.05685e-07
-2.08839e-06
8.22451e-07
-1.93537e-06
1.11161e-06
1.37344e-06
-1.78185e-06
-2.49962e-07
-5.21939e-06
-4.97742e-07
-5.17701e-06
-7.41068e-07
-5.09251e-06
-9.7756e-07
-4.96646e-06
-1.20462e-06
-4.79964e-06
-1.41945e-06
-4.59331e-06
-1.61896e-06
-4.34908e-06
-1.80009e-06
-4.06937e-06
-1.95934e-06
-3.75687e-06
-2.09402e-06
-3.41574e-06
-2.20077e-06
-3.04971e-06
-2.27821e-06
-2.66502e-06
-2.3243e-06
-2.26644e-06
-2.3398e-06
-1.86147e-06
-2.32536e-06
-1.45557e-06
-2.28377e-06
-1.05557e-06
-2.21814e-06
-6.66509e-07
-2.13237e-06
-2.9319e-07
-2.03075e-06
6.08875e-08
-1.91736e-06
3.9319e-07
-1.79593e-06
7.02045e-07
-1.67014e-06
9.86752e-07
1.24716e-06
-1.54291e-06
-2.07045e-07
-5.01158e-06
-4.12214e-07
-4.97115e-06
-6.13512e-07
-4.89055e-06
-8.08875e-07
-4.77042e-06
-9.96151e-07
-4.61171e-06
-1.17298e-06
-4.41579e-06
-1.33693e-06
-4.18448e-06
-1.48552e-06
-3.92015e-06
-1.61607e-06
-3.62563e-06
-1.72646e-06
-3.30465e-06
-1.8144e-06
-2.96108e-06
-1.87863e-06
-2.60006e-06
-1.91802e-06
-2.2263e-06
-1.93288e-06
-1.8458e-06
-1.92396e-06
-1.4637e-06
-1.89322e-06
-1.08553e-06
-1.843e-06
-7.15929e-07
-1.77623e-06
-3.59116e-07
-1.69617e-06
-1.84076e-08
-1.60607e-06
3.03711e-07
-1.50876e-06
6.05495e-07
-1.40715e-06