/*--------------------------------*- C++ -*----------------------------------*\
| =========                 |                                                 |
| \\      /  F ield         | OpenFOAM: The Open Source CFD Toolbox           |
|  \\    /   O peration     | Version:  2012                                  |
|   \\  /    A nd           | Website:  www.openfoam.com                      |
|    \\/     M anipulation  |                                                 |
\*---------------------------------------------------------------------------*/
FoamFile
{
    version     2.0;
    format      ascii;
    class       volScalarField;
    location    "0.01";
    object      rhogh;
}
// * * * * * * * * * * * * * * * * * * * * * * * * * * * * * * * * * * * * * //

dimensions      [1 -1 -2 0 0 0 0];


internalField   nonuniform List<scalar> 
2268
(
-29.4294
-29.4294
-29.4294
-29.4294
-29.4294
-29.4294
-29.4294
-29.4294
-29.4294
-29.4294
-29.4294
-29.4294
-3.59762
-0.00798015
-2.03721e-08
-2.9553e-14
-1.9982e-16
-1.08892e-18
-3.43272e-21
-8.13723e-24
-1.36018e-26
-1.32787e-29
-6.45895e-33
-88.2881
-88.2881
-88.2881
-88.2881
-88.2881
-88.2881
-88.2881
-88.2881
-88.2881
-88.2881
-88.2881
-88.2881
-8.01766
-0.00974569
-9.4143e-09
-2.71427e-14
-1.7524e-16
-9.28448e-19
-2.94961e-21
-7.42562e-24
-1.34483e-26
-1.49473e-29
-8.38523e-33
-147.147
-147.147
-147.147
-147.147
-147.147
-147.147
-147.147
-147.147
-147.147
-147.147
-147.147
-147.147
-10.3131
-0.00652607
-1.71232e-09
-1.08615e-14
-7.18446e-17
-4.084e-19
-1.52817e-21
-4.5662e-24
-9.73187e-27
-1.29223e-29
-8.32492e-33
-206.006
-206.006
-206.006
-206.006
-206.006
-206.006
-206.006
-206.006
-206.006
-206.006
-206.006
-206.006
-12.131
-0.00498244
-5.2004e-10
-6.07217e-15
-4.36303e-17
-2.69957e-19
-1.14911e-21
-3.75212e-24
-8.56703e-27
-1.22095e-29
-8.39736e-33
-264.864
-264.864
-264.864
-264.864
-264.864
-264.864
-264.864
-264.864
-264.864
-264.864
-264.864
-264.864
-13.6266
-0.00407099
-2.33693e-10
-4.40445e-15
-3.34454e-17
-2.13061e-19
-9.48933e-22
-3.18226e-24
-7.47192e-27
-1.11647e-29
-8.23835e-33
-323.723
-323.723
-323.723
-323.723
-323.723
-323.723
-323.723
-323.723
-323.723
-323.723
-323.723
-323.723
-14.9398
-0.00349892
-1.32686e-10
-3.62441e-15
-2.80392e-17
-1.77342e-19
-7.93897e-22
-2.6721e-24
-6.38105e-27
-9.97711e-30
-7.9551e-33
-382.582
-382.582
-382.582
-382.582
-382.582
-382.582
-382.582
-382.582
-382.582
-382.582
-382.582
-382.582
-16.0385
-0.00304777
-8.39595e-11
-3.15675e-15
-2.43346e-17
-1.50065e-19
-6.63474e-22
-2.22594e-24
-5.43735e-27
-9.17114e-30
-8.40514e-33
-441.44
-441.44
-441.44
-441.44
-441.44
-441.44
-441.44
-441.44
-441.44
-441.44
-441.44
-441.44
-16.9179
-0.00264726
-5.60935e-11
-2.83385e-15
-2.14523e-17
-1.27615e-19
-5.51225e-22
-1.82956e-24
-4.53255e-27
-8.09021e-30
-8.18699e-33
-4.97046e-75
-1.05919e-78
-8.41747e-83
-5.16968e-87
-2.57208e-91
-1.10174e-95
-4.08579e-100
-1.30177e-104
-3.43224e-109
-7.35187e-114
-1.26763e-118
-1.72312e-123
-1.79324e-128
-1.35799e-133
-7.50984e-139
-2.78778e-144
-1.1794e-149
-5.58006e-155
-5.49262e-161
-4.63117e-70
-1.13579e-73
-1.03898e-77
-7.35664e-82
-4.11098e-86
-1.99915e-90
-8.42088e-95
-2.98415e-99
-8.86836e-104
-2.14399e-108
-4.12151e-113
-6.31126e-118
-7.49426e-123
-6.55149e-128
-4.12732e-133
-1.82318e-138
-4.93058e-144
-1.49998e-149
-3.32658e-155
-1.02674e-65
-2.98102e-69
-3.14401e-73
-2.5689e-77
-1.65842e-81
-9.13329e-86
-4.3761e-90
-1.76349e-94
-5.83284e-99
-1.589e-103
-3.44741e-108
-5.88251e-113
-7.85976e-118
-7.83475e-123
-5.69103e-128
-2.86054e-133
-9.19847e-139
-1.65633e-144
-3.99668e-150
-1.08454e-61
-3.72605e-65
-4.65766e-69
-4.39515e-73
-3.2746e-77
-2.09997e-81
-1.13825e-85
-5.21158e-90
-1.95843e-94
-5.93337e-99
-1.44891e-103
-2.78765e-108
-4.14517e-113
-4.64538e-118
-3.84335e-123
-2.22298e-128
-8.13468e-134
-1.74018e-139
-1.71102e-145
-6.62093e-58
-2.70628e-61
-4.00701e-65
-4.48592e-69
-3.85961e-73
-2.87592e-77
-1.8075e-81
-9.33467e-86
-3.97444e-90
-1.36536e-94
-3.70362e-99
-8.00146e-104
-1.33917e-108
-1.66928e-113
-1.5497e-118
-1.01887e-123
-4.28778e-129
-1.0434e-134
-1.11393e-140
-2.49569e-54
-1.22978e-57
-2.17271e-61
-2.87608e-65
-2.96307e-69
-2.563e-73
-1.85926e-77
-1.10778e-81
-5.30512e-86
-2.04987e-90
-6.29488e-95
-1.50902e-99
-2.7984e-104
-3.92452e-109
-4.04722e-114
-2.97844e-119
-1.42537e-124
-3.98111e-130
-4.83284e-136
-6.16781e-51
-3.56588e-54
-7.71991e-58
-1.22294e-61
-1.51599e-65
-1.55848e-69
-1.2999e-73
-8.84286e-78
-4.85712e-82
-2.10443e-86
-7.26817e-91
-1.96303e-95
-4.02637e-100
-6.30878e-105
-7.29221e-110
-5.85628e-115
-3.13471e-120
-9.9298e-126
-1.37776e-131
-1.00832e-47
-6.43345e-51
-1.6757e-54
-3.24224e-58
-4.85187e-62
-5.85138e-66
-5.71436e-70
-4.43894e-74
-2.76206e-78
-1.36621e-82
-5.28286e-87
-1.59983e-91
-3.69215e-96
-6.41706e-101
-8.24865e-106
-7.40435e-111
-4.4025e-116
-1.55542e-121
-2.41161e-127
-533.467
-533.467
-533.467
-533.467
-533.467
-533.467
-533.467
-533.467
-533.467
-533.467
-533.467
-533.467
-17.9108
-0.00217796
-3.48039e-11
-2.56264e-15
-1.82886e-17
-1.01138e-19
-4.16341e-22
-1.36674e-24
-3.64208e-27
-8.37076e-30
-1.97844e-32
-658.662
-658.662
-658.662
-658.662
-658.662
-658.662
-658.662
-658.662
-658.662
-658.662
-658.662
-658.662
-18.7632
-0.00162284
-1.95021e-11
-2.28838e-15
-1.47381e-17
-7.27139e-20
-2.7256e-22
-8.3288e-25
-2.10111e-27
-4.57725e-30
-9.55789e-33
-783.856
-783.856
-783.856
-783.856
-783.856
-783.856
-783.856
-783.856
-783.856
-783.856
-783.856
-783.856
-19.077
-0.00119289
-1.20459e-11
-2.08282e-15
-1.18004e-17
-5.12317e-20
-1.71921e-22
-4.79981e-25
-1.12235e-27
-2.26768e-30
-4.12916e-33
-909.051
-909.051
-909.051
-909.051
-909.051
-909.051
-909.051
-909.051
-909.051
-909.051
-909.051
-909.051
-19.0072
-0.00087006
-7.94584e-12
-1.89187e-15
-9.26763e-18
-3.49809e-20
-1.03227e-22
-2.5663e-25
-5.36475e-28
-9.61823e-31
-1.52003e-33
-1034.25
-1034.25
-1034.25
-1034.25
-1034.25
-1034.25
-1034.25
-1034.25
-1034.25
-1034.25
-1034.25
-1034.25
-18.6418
-0.000627934
-5.41232e-12
-1.68928e-15
-7.06636e-18
-2.29728e-20
-5.8919e-23
-1.28671e-25
-2.36984e-28
-3.72581e-31
-5.0991e-34
-1159.44
-1159.44
-1159.44
-1159.44
-1159.44
-1159.44
-1159.44
-1159.44
-1159.44
-1159.44
-1159.44
-1159.44
-18.0576
-0.000448516
-3.73474e-12
-1.46869e-15
-5.1923e-18
-1.44073e-20
-3.17769e-23
-6.02231e-26
-9.64564e-29
-1.31604e-31
-1.55614e-34
-1284.63
-1284.63
-1284.63
-1284.63
-1284.63
-1284.63
-1284.63
-1284.63
-1284.63
-1284.63
-1284.63
-1284.63
-17.3091
-0.000316653
-2.57637e-12
-1.23332e-15
-3.65144e-18
-8.57463e-21
-1.61303e-23
-2.62991e-26
-3.63303e-29
-4.27865e-32
-4.3639e-35
-1409.83
-1409.83
-1409.83
-1409.83
-1409.83
-1409.83
-1409.83
-1409.83
-1409.83
-1409.83
-1409.83
-1409.83
-16.4411
-0.000220644
-1.76163e-12
-9.92795e-16
-2.44143e-18
-4.81323e-21
-7.67091e-24
-1.06828e-26
-1.26454e-29
-1.28025e-32
-1.12453e-35
-1535.02
-1535.02
-1535.02
-1535.02
-1535.02
-1535.02
-1535.02
-1535.02
-1535.02
-1535.02
-1535.02
-1535.02
-15.489
-0.000151481
-1.18806e-12
-7.61654e-16
-1.54645e-18
-2.54321e-21
-3.41811e-24
-4.0433e-27
-4.08042e-30
-3.53934e-33
-2.67135e-36
-1660.22
-1660.22
-1660.22
-1660.22
-1660.22
-1660.22
-1660.22
-1660.22
-1660.22
-1660.22
-1660.22
-1660.22
-14.4802
-0.000102194
-7.86393e-13
-5.52352e-16
-9.21982e-19
-1.25854e-21
-1.42201e-24
-1.42186e-27
-1.21767e-30
-9.01361e-34
-5.8247e-37
-1785.41
-1785.41
-1785.41
-1785.41
-1785.41
-1785.41
-1785.41
-1785.41
-1785.41
-1785.41
-1785.41
-1785.41
-13.4453
-6.79434e-05
-5.17253e-13
-3.85511e-16
-5.33185e-19
-6.0627e-22
-5.76619e-25
-4.85709e-28
-3.51155e-31
-2.20403e-34
-1.21074e-37
-1910.61
-1910.61
-1910.61
-1910.61
-1910.61
-1910.61
-1910.61
-1910.61
-1910.61
-1910.61
-1910.61
-1910.61
-12.3891
-4.44668e-05
-3.36503e-13
-2.55622e-16
-2.93391e-19
-2.7708e-22
-2.20421e-25
-1.54772e-28
-9.33319e-32
-4.90063e-35
-2.25706e-38
-2035.8
-2035.8
-2035.8
-2035.8
-2035.8
-2035.8
-2035.8
-2035.8
-2035.8
-2035.8
-2035.8
-2035.8
-11.3965
-3.04641e-05
-2.49578e-13
-1.97967e-16
-2.01236e-19
-1.64078e-22
-1.10801e-25
-6.4627e-29
-3.20314e-32
-1.37589e-35
-5.17797e-39
-2161
-2161
-2161
-2161
-2161
-2161
-2161
-2161
-2161
-2161
-2161
-2161
-10.3115
-2.21123e-05
-2.03247e-13
-1.60204e-16
-1.38496e-19
-9.17373e-23
-4.88063e-26
-2.18316e-29
-8.21197e-33
-2.67291e-36
-7.65777e-40
-2286.19
-2286.19
-2286.19
-2286.19
-2286.19
-2286.19
-2286.19
-2286.19
-2286.19
-2286.19
-2286.19
-2286.19
-9.83836
-2.60655e-05
-3.65656e-13
-3.38246e-16
-3.11166e-19
-1.91341e-22
-8.36859e-26
-2.80266e-29
-7.45625e-33
-1.67362e-36
-3.31021e-40
-2411.38
-2411.38
-2411.38
-2411.38
-2411.38
-2411.38
-2411.38
-2411.38
-2411.38
-2411.38
-2411.38
-2411.38
-8.38179
-2.42554e-05
-5.28843e-13
-4.87351e-16
-3.33622e-19
-1.21389e-22
-2.58938e-26
-3.70946e-30
-4.16713e-34
-4.2114e-38
-4.18507e-42
-2536.58
-2536.58
-2536.58
-2536.58
-2536.58
-2536.58
-2536.58
-2536.58
-2536.58
-2536.58
-2536.58
-2536.58
-19.4329
-0.000353224
-7.39618e-12
-4.08887e-15
-4.75533e-18
-2.03097e-21
-2.36642e-25
-1.361e-30
-1.03445e-36
-6.533e-41
-5.24668e-45
-2661.76
-2661.76
-2661.76
-2661.76
-2661.76
-2661.76
-2661.76
-2661.76
-2661.76
-2661.75
-2661.75
-2658.41
-9.42043
-0.000159412
-9.70802e-11
-3.58499e-14
-8.72041e-19
-1.59814e-23
-1.54045e-27
-8.19341e-33
-4.38485e-39
-1.06167e-43
-6.30887e-48
-2684.78
-2684.49
-2683.93
-2683.08
-2681.96
-2680.57
-2678.93
-2676.95
-2674.83
-2671.3
-2658.06
-2466.64
-203.956
-0.196375
-4.86211e-08
-5.07934e-14
-1.87938e-18
-8.81823e-24
-1.37841e-29
-1.55677e-34
-1.25969e-39
-1.22259e-44
-1.25353e-49
-2.14236e-33
2.91606e-33
2.04441e-33
3.64343e-35
2.2484e-36
1.2941e-41
-1.7405e-35
9.44709e-38
-2.21743e-35
-4.4421e-34
-5.84613e-31
1.19343e-28
-2.46422e-20
-0.00721555
-1.16536e-25
-8.00511e-16
-3.06007e-20
-2.46302e-25
-2.03628e-31
-2.28633e-36
-1.94181e-41
-1.86652e-46
-1.46826e-51
-2.0798e-15
-2.0319e-15
-1.94341e-15
-1.83028e-15
-1.71937e-15
-1.65041e-15
-1.68208e-15
-1.8943e-15
-2.45189e-15
-2.03553e-14
-7.4525e-12
-2.03729e-09
-1.71227e-07
-4.23149e-06
-4.15213e-36
-4.68222e-18
-1.68096e-22
-2.0095e-27
-1.59229e-33
-1.63846e-38
-1.31657e-43
-1.14586e-48
-8.42116e-54
-1.23205e-53
5.55605e-72
5.47803e-65
-3.38861e-82
-3.91954e-61
-8.53141e-45
-7.81888e-26
-5.90063e-23
-3.11033e-20
-1.16348e-17
-2.94099e-15
-5.04489e-13
-5.39229e-11
-1.5408e-09
2.34799e-42
-1.4847e-20
-7.92773e-25
-9.58548e-30
-7.84993e-36
-7.48197e-41
-5.66777e-46
-4.51136e-51
-3.1676e-56
-7.01053e-51
-1.04196e-46
-6.86062e-43
-2.67697e-39
-6.82224e-36
-1.20575e-32
-1.53667e-29
-1.43018e-26
-9.78851e-24
-4.95738e-21
-1.74437e-18
-4.42347e-16
-6.28508e-14
-3.14896e-12
-1.44923e-42
-2.92998e-23
-2.20946e-27
-2.86423e-32
-2.53063e-38
-2.31271e-43
-1.6664e-48
-1.24317e-53
-8.51166e-59
-6.38916e-56
-7.00254e-52
-3.35073e-48
-9.3091e-45
-1.68001e-41
-2.08787e-38
-1.84141e-35
-1.18083e-32
-5.46363e-30
-1.86681e-27
-4.49339e-25
-7.72182e-23
-8.73614e-21
-2.72445e-19
-1.68954e-28
-3.34722e-26
-3.74056e-30
-5.50465e-35
-5.44436e-41
-4.94204e-46
-3.48628e-51
-2.49255e-56
-1.68807e-61
-4.87335e-61
-5.47681e-57
-2.70372e-53
-7.80524e-50
-1.47573e-46
-1.94163e-43
-1.83642e-40
-1.28067e-37
-6.55687e-35
-2.51557e-32
-6.87309e-30
-1.36082e-27
-1.72305e-25
-6.20623e-24
-1.97832e-31
-2.18444e-29
-3.86327e-33
-6.9148e-38
-7.98428e-44
-7.45098e-49
-5.28111e-54
-3.71443e-59
-2.52336e-64
-3.62484e-66
-4.31893e-62
-2.26311e-58
-6.94466e-55
-1.39859e-51
-1.96411e-48
-1.98929e-45
-1.49098e-42
-8.27194e-40
-3.46866e-37
-1.06539e-34
-2.40813e-32
-3.74526e-30
-1.65598e-28
-4.56938e-35
-7.83996e-33
-2.41402e-36
-5.65425e-41
-8.01477e-47
-7.98959e-52
-5.84414e-57
-4.1529e-62
-2.87291e-67
-1.44347e-71
-1.85206e-67
-1.04671e-63
-3.47329e-60
-7.59484e-57
-1.16406e-53
-1.29643e-50
-1.07673e-47
-6.69642e-45
-3.17489e-42
-1.11712e-39
-2.91185e-37
-5.24959e-35
-2.70426e-33
-3.67866e-39
-1.44183e-36
-9.07626e-40
-3.02112e-44
-5.53776e-50
-6.11822e-55
-4.7683e-60
-3.51486e-65
-2.50591e-70
-3.49753e-77
-4.78874e-73
-2.89761e-69
-1.03304e-65
-2.43665e-62
-4.04619e-59
-4.90933e-56
-4.46464e-53
-3.0671e-50
-1.61614e-47
-6.41252e-45
-1.89737e-42
-3.96108e-40
-2.34984e-38
-2.16857e-43
-1.05134e-40
-1.96389e-43
-1.04304e-47
-2.63812e-53
-3.36164e-58
-2.87404e-63
-2.25352e-68
-1.68252e-73
-5.90516e-83
-8.71832e-79
-5.71169e-75
-2.21402e-71
-5.70531e-68
-1.04034e-64
-1.39474e-61
-1.40995e-58
-1.08563e-55
-6.44974e-53
-2.91285e-50
-9.84839e-48
-2.36459e-45
-1.6125e-43
-1.41058e-48
-6.5737e-46
-2.31018e-47
-2.28349e-51
-8.62788e-57
-1.32525e-61
-1.28343e-66
-1.09767e-71
-8.72309e-77
-8.79529e-89
-1.37252e-84
-9.55533e-81
-3.95646e-77
-1.09478e-73
-2.15573e-70
-3.13902e-67
-3.4646e-64
-2.93319e-61
-1.92414e-58
-9.66162e-56
-3.6437e-53
-9.76052e-51
-7.33044e-49
-8.35448e-58
-1.46259e-54
-1.26644e-51
-3.07653e-55
-1.92758e-60
-3.74699e-65
-4.25472e-70
-4.06915e-75
-3.50393e-80
-1.46655e-94
-2.37814e-90
-1.72201e-86
-7.42358e-83
-2.14101e-79
-4.40244e-76
-6.70157e-73
-7.73173e-70
-6.84892e-67
-4.67579e-64
-2.42578e-61
-9.34073e-59
-2.42287e-56
-1.54721e-54
-9.63072e-63
-1.86844e-59
-1.94989e-56
-2.41503e-59
-2.90301e-64
-7.58121e-69
-1.04662e-73
-1.1486e-78
-1.09369e-83
-3.50694e-100
-6.28781e-96
-5.03203e-92
-2.39697e-88
-7.63754e-85
-1.73513e-81
-2.91734e-78
-3.71277e-75
-3.62234e-72
-2.70744e-69
-1.52267e-66
-6.24017e-64
-1.61003e-61
-7.69402e-60
-1.03785e-68
-1.15168e-66
-6.63436e-67
-1.00119e-63
-2.88612e-68
-1.09161e-72
-1.9117e-77
-2.47769e-82
-2.66311e-87
-7.265e-106
-1.47089e-101
-1.32887e-97
-7.1456e-94
-2.57046e-90
-6.59455e-87
-1.25221e-83
-1.79864e-80
-1.97847e-77
-1.65988e-74
-1.03881e-71
-4.65412e-69
-1.21853e-66
-2.96231e-65
-5.24547e-74
-6.55266e-72
-9.05075e-72
-1.76374e-68
-1.83808e-72
-1.11081e-76
-2.59217e-81
-4.09404e-86
-5.08065e-91
-1.00944e-111
-2.34824e-107
-2.43839e-103
-1.50795e-99
-6.24378e-96
-1.8458e-92
-4.04385e-89
-6.70926e-86
-8.53572e-83
-8.28581e-80
-5.9955e-77
-3.09706e-74
-9.18581e-72
-1.71766e-70
-1.36549e-79
-1.84244e-77
-2.05997e-77
-4.50773e-74
-7.15666e-77
-7.91487e-81
-2.60839e-85
-5.1964e-90
-7.62558e-95
-5.48601e-118
-1.46555e-113
-1.75106e-109
-1.24857e-105
-5.973e-102
-2.0441e-98
-5.19474e-95
-1.0016e-91
-1.48338e-88
-1.6785e-85
-1.41676e-82
-8.53171e-80
-2.93599e-77
-5.36959e-76
-4.82722e-85
-7.59258e-83
-2.43786e-84
-5.16012e-85
-1.57642e-81
-3.902e-85
-1.94727e-89
-5.08374e-94
-9.04813e-99
-2.66014e-124
-8.44636e-120
-1.19892e-115
-1.01543e-111
-5.77015e-108
-2.3464e-104
-7.08876e-101
-1.62547e-97
-2.86452e-94
-3.857e-91
-3.87088e-88
-2.76739e-85
-1.11772e-82
-1.45006e-81
-1.14697e-90
-2.1112e-88
-1.58626e-89
-4.11931e-90
-1.69374e-86
-1.31209e-89
-1.07906e-93
-3.8516e-98
-8.54064e-103
-8.34998e-132
-2.6103e-127
-3.61567e-123
-2.96071e-119
-1.60747e-115
-6.13035e-112
-1.69761e-108
-3.43768e-105
-5.01462e-102
-5.09446e-99
-2.97007e-96
-1.67106e-94
5.26315e-94
-3.34428e-94
-1.73409e-96
-3.73585e-94
-7.92525e-95
-1.07677e-95
-5.8992e-92
-2.95805e-94
-4.44399e-98
-2.27279e-102
-6.45947e-107
5.56636e-156
1.11891e-151
9.91186e-148
5.17003e-144
1.78198e-140
4.29817e-137
7.50818e-134
9.55147e-131
8.68151e-128
5.44665e-125
1.85373e-122
8.81587e-128
-1.19612e-108
-1.55901e-105
-1.45635e-102
-3.62088e-100
-3.10762e-100
-5.18681e-103
-6.58898e-101
-4.37908e-99
-1.36232e-102
-1.05119e-106
-3.94546e-111
-2.40056e-161
-1.13145e-156
-2.26769e-152
-2.46224e-148
-1.65237e-144
-1.37069e-140
-1.16875e-136
-7.64311e-133
-3.91488e-129
-1.58667e-125
-5.13787e-122
-1.31817e-118
-2.60555e-115
-3.85621e-112
-3.52235e-109
-6.33841e-107
-9.36159e-106
-2.04945e-108
-2.78211e-108
-4.16156e-104
-3.11661e-107
-3.83848e-111
-1.96331e-115
-2.15392e-169
-1.48958e-164
-4.43244e-160
-7.57593e-156
-8.07336e-152
-5.48824e-148
-2.68731e-144
-2.31099e-140
-1.70866e-136
-9.97716e-133
-4.64892e-129
-1.71243e-125
-4.8307e-122
-1.01422e-118
-1.27139e-115
-1.10473e-113
-2.13503e-111
-6.04949e-114
-8.66877e-114
-2.47325e-109
-5.32837e-112
-1.1143e-115
-8.0296e-120
-3.19907e-179
-3.59276e-174
-1.77625e-169
-5.14486e-165
-9.86851e-161
-1.34663e-156
-1.3525e-152
-1.02613e-148
-6.07895e-145
-3.27217e-141
-2.55541e-137
-1.58897e-133
-7.66589e-130
-2.81891e-126
-6.80315e-123
-6.13279e-120
-3.85585e-117
-1.42839e-119
-1.25543e-119
-8.92245e-115
-6.79818e-117
-2.58774e-120
-2.72333e-124
-1.37437e-194
-5.90433e-189
-1.10235e-183
-1.204e-178
-8.74852e-174
-4.57841e-169
-1.79707e-164
-5.47411e-160
-1.32639e-155
-2.57008e-151
-4.04436e-147
-5.15912e-143
-1.03613e-138
-1.65557e-134
-1.89411e-130
-1.12682e-126
-5.13339e-123
-2.36371e-125
-2.99682e-126
-1.83205e-120
-6.38039e-122
-4.81259e-125
-7.70968e-129
-7.53635e-35
-3.48779e-37
-1.30047e-39
-3.93107e-42
-2.83601e-35
-1.07505e-37
-3.35157e-40
-8.52769e-43
-9.41525e-36
-2.82592e-38
-7.15938e-41
-1.49323e-43
-2.87833e-36
-7.21823e-39
-1.53845e-41
-2.72309e-44
-8.124e-37
-1.71917e-39
-3.11016e-42
-4.70937e-45
-2.12048e-37
-3.84969e-40
-6.00351e-43
-7.89065e-46
-5.11121e-38
-8.01038e-41
-1.08363e-43
-1.24379e-46
-1.13585e-38
-1.54338e-41
-1.81876e-44
-1.83e-47
-2.32702e-39
-2.74258e-42
-2.81595e-45
-2.48326e-48
-4.36536e-40
-4.45132e-43
-3.97081e-46
-3.05892e-49
-7.75243e-41
-6.78746e-44
-5.21842e-47
-3.48201e-50
-1.21824e-41
-9.03175e-45
-5.90168e-48
-3.36377e-51
-2.29354e-42
-1.40028e-45
-7.56109e-49
-3.57884e-52
-2.6097e-43
-1.23488e-46
-5.20792e-50
-1.94332e-53
-7.91575e-44
-2.66137e-47
-8.0981e-51
-2.21731e-54
-5.84911e-46
-1.2748e-49
-2.75109e-53
-5.78174e-57
-6.57733e-49
-1.3207e-52
-2.60694e-56
-4.99815e-60
-6.65009e-52
-1.1415e-55
-1.94515e-59
-3.2109e-63
-2.21752e-54
-1.2577e-58
-1.44849e-62
-1.97153e-66
-1.8724e-56
-4.04939e-61
-1.55135e-65
-1.30904e-69
-9.77268e-59
-1.72972e-63
-3.33761e-68
-1.1982e-72
-3.46906e-61
-5.7658e-66
-8.96064e-71
-1.7144e-75
-8.95083e-64
-1.43889e-68
-2.07066e-73
-2.99607e-78
-1.72405e-66
-2.71356e-71
-3.77129e-76
-4.9001e-81
-2.53817e-69
-3.9445e-74
-5.3862e-79
-6.7057e-84
-2.88257e-72
-4.45823e-77
-6.04266e-82
-7.40401e-87
-2.53809e-75
-3.93539e-80
-5.33672e-85
-6.52011e-90
-1.74243e-78
-2.72832e-83
-3.7276e-88
-4.57848e-93
-9.34198e-82
-1.4883e-86
-2.06243e-91
-2.56468e-96
-3.92423e-85
-6.40604e-90
-9.0643e-95
-1.14824e-99
-1.29616e-88
-2.18401e-93
-3.17665e-98
-4.12516e-103
-3.37621e-92
-5.91504e-97
-8.9045e-102
-1.19276e-106
-6.98113e-96
-1.28034e-100
-2.00876e-105
-2.79096e-110
-1.15114e-99
-2.22698e-104
-3.66707e-109
-5.31872e-114
-1.52177e-103
-3.1298e-108
-5.44769e-113
-8.30181e-118
-1.6237e-107
-3.5786e-112
-6.63173e-117
-1.06876e-121
-1.40897e-111
-3.35471e-116
-6.66684e-121
-1.14363e-125
-1.00256e-115
-2.59982e-120
-5.58073e-125
-1.02555e-129
-5.90319e-120
-1.68092e-124
-3.92539e-129
-7.7767e-134
-2.90283e-124
-9.15135e-129
-2.34149e-133
-5.0321e-138
-1.20367e-128
-4.23615e-133
-1.19599e-137
-2.80945e-142
-4.24261e-133
-1.68152e-137
-5.28136e-142
-2.7445e-146
-5.86496e-45
-3.52395e-48
-1.28804e-51
-3.29806e-55
-6.32572e-59
-9.26078e-63
-1.05722e-66
-9.55446e-71
-6.75909e-75
-3.75625e-79
-1.63903e-83
-5.50313e-88
-1.4149e-92
-2.73464e-97
-3.84593e-102
-3.80585e-107
-2.49944e-112
-9.66307e-118
-1.66015e-123
-1.06759e-45
-5.96457e-49
-2.2003e-52
-5.83867e-56
-1.15979e-59
-1.74384e-63
-2.03736e-67
-1.86651e-71
-1.32829e-75
-7.41856e-80
-3.22975e-84
-1.07798e-88
-2.75335e-93
-5.27654e-98
-7.34498e-103
-7.23396e-108
-4.72826e-113
-1.81449e-118
-3.11189e-124
-1.53112e-46
-7.92203e-50
-2.9163e-53
-7.85321e-57
-1.58689e-60
-2.4206e-64
-2.85773e-68
-2.63006e-72
-1.87383e-76
-1.04457e-80
-4.52307e-85
-1.49785e-89
-3.79013e-94
-7.18393e-99
-9.88995e-104
-9.62831e-109
-6.21505e-114
-2.36014e-119
-4.00707e-125
-2.39666e-47
-1.12228e-50
-3.88688e-54
-1.0121e-57
-2.00693e-61
-3.02686e-65
-3.54569e-69
-3.23638e-73
-2.28476e-77
-1.26043e-81
-5.39162e-86
-1.76135e-90
-4.3927e-95
-8.19925e-100
-1.11131e-104
-1.06501e-109
-6.76891e-115
-2.53324e-120
-4.23835e-126
-3.58387e-48
-1.51312e-51
-4.87415e-55
-1.2074e-58
-2.30938e-62
-3.38947e-66
-3.8821e-70
-3.47064e-74
-2.40195e-78
-1.29882e-82
-5.44345e-87
-1.7419e-91
-4.2537e-96
-7.77292e-101
-1.03167e-105
-9.6821e-111
-6.0283e-116
-2.21266e-121
-3.632e-127
-5.26204e-49
-1.99518e-52
-5.90056e-56
-1.36786e-59
-2.4811e-63
-3.48756e-67
-3.84965e-71
-3.32844e-75
-2.23289e-79
-1.1716e-83
-4.76698e-88
-1.48164e-92
-3.51476e-97
-6.24044e-102
-8.05301e-107
-7.35032e-112
-4.45339e-117
-1.59293e-122
-2.54985e-128
-7.30363e-50
-2.48256e-53
-6.697e-57
-1.43817e-60
-2.44456e-64
-3.25028e-68
-3.41538e-72
-2.82296e-76
-1.81605e-80
-9.15427e-85
-3.58267e-89
-1.0722e-93
-2.4505e-98
-4.19448e-103
-5.2232e-108
-4.60276e-113
-2.6951e-118
-9.33055e-124
-1.44757e-129
-9.4854e-51
-2.88221e-54
-7.04541e-58
-1.38832e-61
-2.18733e-65
-2.71935e-69
-2.68889e-73
-2.10094e-77
-1.28231e-81
-6.14705e-86
-2.2917e-90
-6.54273e-95
-1.4278e-99
-2.33575e-104
-2.78305e-109
-2.34845e-114
-1.31856e-119
-4.38518e-125
-6.54656e-131
-1.13463e-51
-3.06943e-55
-6.75484e-59
-1.21083e-62
-1.75074e-66
-2.01371e-70
-1.85335e-74
-1.35419e-78
-7.75962e-83
-3.50134e-87
-1.23109e-91
-3.32034e-96
-6.85291e-101
-1.06142e-105
-1.1989e-110
-9.60158e-116
-5.12387e-121
-1.62364e-126
-2.31386e-132
-1.22684e-52
-2.93712e-56
-5.77547e-60
-9.33309e-64
-1.22627e-67
-1.29152e-71
-1.09481e-75
-7.40256e-80
-3.94124e-84
-1.65695e-88
-5.43928e-93
-1.37204e-97
-2.65151e-102
-3.8493e-107
-4.08061e-112
-3.071e-117
-1.54256e-122
-4.61445e-128
-6.22505e-134
-1.21454e-53
-2.54742e-57
-4.42759e-61
-6.37594e-65
-7.52204e-69
-7.16711e-73
-5.52852e-77
-3.41804e-81
-1.67098e-85
-6.46843e-90
-1.95907e-94
-4.5663e-99
-8.16112e-104
-1.09648e-108
-1.07693e-113
-7.51677e-119
-3.50879e-124
-9.7862e-130
-1.23595e-135
-1.00616e-54
-1.82393e-58
-2.76575e-62
-3.50462e-66
-3.66799e-70
-3.12617e-74
-2.17094e-78
-1.21483e-82
-5.40045e-87
-1.90661e-91
-5.27651e-96
-1.1252e-100
-1.84021e-105
-2.26232e-110
-2.03388e-115
-1.29984e-120
-5.5662e-126
-1.42944e-131
-1.67021e-137
-8.92703e-56
-1.36273e-59
-1.75969e-63
-1.91883e-67
-1.7456e-71
-1.30564e-75
-8.01849e-80
-3.99245e-84
-1.58636e-88
-5.01726e-93
-1.24426e-97
-2.37376e-102
-3.46282e-107
-3.78329e-112
-3.01111e-117
-1.69953e-122
-6.42802e-128
-1.46423e-133
-1.52839e-139
-3.85621e-57
-4.76536e-61
-5.07216e-65
-4.63491e-69
-3.58674e-73
-2.31434e-77
-1.23983e-81
-5.43134e-86
-1.91166e-90
-5.3739e-95
-1.18523e-99
-2.00818e-104
-2.59206e-109
-2.49306e-114
-1.73842e-119
-8.56639e-125
-2.82972e-130
-5.67059e-136
-5.27608e-142
-3.28597e-58
-3.13795e-62
-2.66604e-66
-2.00226e-70
-1.30729e-74
-7.27908e-79
-3.42288e-83
-1.33244e-87
-4.19471e-92
-1.05295e-96
-2.05413e-101
-3.01988e-106
-3.28407e-111
-2.55852e-116
-1.37569e-121
-4.97054e-127
-1.15658e-132
-1.61289e-138
-1.08402e-144
-6.89774e-61
-5.57274e-65
-4.14418e-69
-2.76071e-73
-1.60391e-77
-7.99769e-82
-3.34967e-86
-1.14916e-90
-3.17442e-95
-6.8849e-100
-1.13694e-104
-1.40077e-109
-1.2533e-114
-7.90619e-120
-3.47259e-125
-1.05291e-130
-2.19611e-136
-3.03657e-142
-5.01325e-148
-5.31114e-64
-3.9548e-68
-2.717e-72
-1.6641e-76
-8.92018e-81
-4.10987e-85
-1.59779e-89
-5.20037e-94
-1.40092e-98
-3.04486e-103
-5.14576e-108
-6.29505e-113
-4.9276e-118
-2.18142e-123
-5.6013e-129
-1.43466e-134
-4.37592e-140
-1.91248e-145
-5.44261e-151
-2.87674e-67
-1.78345e-71
-1.07536e-75
-6.20976e-80
-3.16416e-84
-1.40194e-88
-5.3814e-93
-1.76891e-97
-4.78546e-102
-1.00511e-106
-1.50094e-111
-1.38729e-116
-6.83376e-122
-1.79226e-127
-6.94393e-133
-5.52293e-138
-4.07823e-143
-4.26643e-148
-2.10103e-153
-1.47441e-70
-7.59698e-75
-3.90453e-79
-1.96427e-83
-8.85449e-88
-3.79404e-92
-1.46324e-96
-4.66401e-101
-1.14616e-105
-1.98546e-110
-2.11376e-115
-1.20541e-120
-4.68841e-126
-6.22513e-131
-1.3697e-135
-2.39379e-140
-4.69081e-145
-7.65483e-150
-5.15303e-155
-7.698e-74
-3.28918e-78
-1.47275e-82
-6.59227e-87
-2.67336e-91
-1.02971e-95
-3.39809e-100
-8.65846e-105
-1.69309e-109
-2.04772e-114
-1.37878e-119
-9.21264e-125
-2.34436e-129
-7.02344e-134
-1.63796e-138
-2.76081e-143
-8.03283e-148
-1.25471e-152
-7.79788e-158
-4.58679e-77
-1.56665e-81
-6.06156e-86
-2.38466e-90
-8.36672e-95
-2.67e-99
-6.84744e-104
-1.25674e-108
-1.58013e-113
-1.19336e-118
-1.24578e-123
-4.5311e-128
-1.66672e-132
-4.82472e-137
-1.0454e-141
-3.20289e-146
-7.98942e-151
-1.11219e-155
-6.3318e-161
-3.37484e-80
-8.09635e-85
-2.58039e-89
-8.44029e-94
-2.353e-98
-5.70908e-103
-1.04336e-107
-1.24328e-112
-1.11242e-117
-1.83959e-122
-7.04562e-127
-2.79775e-131
-8.9826e-136
-2.23987e-140
-6.5576e-145
-2.40114e-149
-5.40369e-154
-6.88481e-159
-3.05799e-164
-3.13669e-83
-4.23702e-88
-1.01318e-92
-2.53303e-97
-5.26732e-102
-9.12089e-107
-1.13549e-111
-1.22237e-116
-3.05111e-121
-1.21527e-125
-4.53721e-130
-1.55462e-134
-4.27851e-139
-9.2842e-144
-5.31585e-148
-1.51887e-152
-3.14782e-157
-2.95144e-162
-1.01261e-167
-3.58271e-86
-2.47263e-91
-3.49824e-96
-6.11217e-101
-9.18471e-106
-1.24712e-110
-1.93438e-115
-5.57277e-120
-2.18109e-124
-7.87506e-129
-2.5514e-133
-7.48886e-138
-1.75825e-142
-6.75735e-147
-3.39369e-151
-9.19484e-156
-1.40241e-160
-9.93118e-166
-2.8522e-171
-4.24021e-89
-1.87631e-94
-1.41769e-99
-1.62874e-104
-2.13284e-109
-4.15555e-114
-1.19507e-118
-4.05727e-123
-1.40629e-127
-4.38057e-132
-1.23114e-136
-3.09026e-141
-1.18483e-145
-4.70423e-150
-1.74604e-154
-4.19707e-159
-4.7776e-164
-2.76749e-169
-7.15249e-175
-4.45949e-92
-1.68529e-97
-9.27962e-103
-8.51615e-108
-1.24065e-112
-2.89063e-117
-8.21609e-122
-2.52621e-126
-7.62026e-131
-2.04862e-135
-5.0508e-140
-1.29145e-144
-7.24443e-149
-3.18164e-153
-7.63944e-158
-1.47292e-162
-1.32665e-167
-6.6856e-173
-1.32065e-178
-3.8852e-95
-1.41937e-100
-7.24525e-106
-6.16135e-111
-8.56588e-116
-1.83812e-120
-4.73185e-125
-1.31202e-129
-3.46548e-134
-8.07085e-139
-1.7482e-143
-1.03905e-147
-3.66846e-152
-1.40656e-156
-2.99369e-161
-4.20016e-166
-3.06421e-171
-1.22009e-176
-2.16292e-182
-2.74213e-98
-1.00167e-103
-5.02806e-109
-3.98683e-114
-4.98842e-119
-9.61422e-124
-2.24346e-128
-5.62645e-133
-1.3054e-137
-2.63709e-142
-1.02461e-146
-5.82209e-151
-1.64444e-155
-4.72236e-160
-9.53415e-165
-9.05646e-170
-5.38931e-175
-1.9909e-180
-3.25312e-186
-1.5598e-101
-5.78018e-107
-2.89366e-112
-2.14399e-117
-2.39811e-122
-4.14446e-127
-8.74268e-132
-1.9571e-136
-3.98106e-141
-1.34707e-145
-5.35871e-150
-2.40361e-154
-7.53783e-159
-1.2696e-163
-2.00911e-168
-1.55383e-173
-8.97531e-179
-2.99492e-184
-3.92942e-190
-7.16049e-105
-2.72412e-110
-1.37301e-115
-9.57055e-121
-9.51689e-126
-1.45954e-130
-2.75483e-135
-5.49064e-140
-1.27286e-144
-6.10692e-149
-2.87218e-153
-7.46345e-158
-1.87078e-162
-3.10167e-167
-3.29829e-172
-2.59446e-177
-1.33643e-182
-3.48555e-188
-4.17215e-194
-2.66272e-108
-1.05225e-113
-5.38895e-119
-3.55924e-124
-3.12289e-129
-4.16555e-134
-6.8844e-139
-1.21508e-143
-6.72202e-148
-2.18384e-152
-8.35046e-157
-1.97735e-161
-3.3109e-166
-5.4122e-171
-5.06897e-176
-3.62161e-181
-1.42737e-186
-3.30743e-192
-3.91065e-198
-8.04681e-112
-3.34274e-117
-1.75483e-122
-1.10956e-127
-8.64337e-133
-9.77187e-138
-1.35328e-142
-4.04063e-147
-1.99523e-151
-6.70217e-156
-1.60821e-160
-3.90374e-165
-5.29581e-170
-7.00274e-175
-6.71895e-180
-3.80249e-185
-1.3017e-190
-2.91189e-196
-3.03852e-202
-1.9885e-115
-8.78994e-121
-4.76583e-126
-2.92663e-131
-2.04505e-136
-1.87262e-141
-4.11479e-146
-1.61454e-150
-4.13355e-155
-1.3653e-159
-2.66437e-164
-4.89208e-169
-8.56594e-174
-8.32376e-179
-7.03278e-184
-3.35056e-189
-1.07516e-194
-2.23628e-200
-2.28529e-206
-4.04131e-119
-1.92371e-124
-1.08759e-129
-6.60636e-135
-4.25636e-140
-5.28715e-145
-1.06688e-149
-3.5852e-154
-9.23653e-159
-1.98233e-163
-4.4657e-168
-5.84753e-173
-8.7159e-178
-8.59189e-183
-5.61857e-188
-2.41022e-193
-7.63144e-199
-1.6042e-204
-1.38545e-210
-6.79362e-123
-3.52399e-128
-2.1002e-133
-1.29167e-138
-8.16615e-144
-1.85534e-148
-3.43675e-153
-6.45565e-158
-1.62398e-162
-2.91634e-167
-5.13336e-172
-8.41235e-177
-7.53444e-182
-7.48151e-187
-3.95483e-192
-1.65024e-197
-5.18636e-203
-9.07493e-209
-5.8089e-215
-9.51229e-127
-5.44036e-132
-3.45961e-137
-2.20287e-142
-2.93426e-147
-6.25093e-152
-1.06933e-156
-1.511e-161
-2.21609e-166
-4.25647e-171
-5.52233e-176
-7.63264e-181
-6.8152e-186
-5.75035e-191
-2.91255e-196
-1.19213e-201
-3.17002e-207
-4.23035e-213
-2.27872e-219
-1.11785e-130
-7.13067e-136
-4.8924e-141
-6.489e-146
-1.4323e-150
-2.11996e-155
-3.30058e-160
-4.32909e-165
-4.29273e-170
-5.25688e-175
-6.69793e-180
-6.07909e-185
-6.55714e-190
-4.31018e-195
-2.19055e-200
-7.98466e-206
-1.70754e-211
-1.95284e-217
-7.62826e-224
-1.11151e-134
-7.99692e-140
-9.43081e-145
-1.7448e-149
-4.53021e-154
-7.58856e-159
-1.0308e-163
-1.20786e-168
-1.19871e-173
-9.60215e-179
-8.46703e-184
-7.08851e-189
-6.0193e-194
-3.23692e-199
-1.38213e-204
-4.20775e-210
-7.77528e-216
-6.59655e-222
-2.1286e-228
-9.43368e-139
-7.77076e-144
-2.41609e-148
-4.42596e-153
-1.14952e-157
-2.45255e-162
-3.19397e-167
-3.3598e-172
-3.1901e-177
-2.44342e-182
-1.51461e-187
-1.25324e-192
-7.49397e-198
-2.84761e-203
-9.08753e-209
-2.16034e-214
-2.82833e-220
-1.91264e-226
-5.66449e-233
-6.91135e-143
-1.61475e-147
-4.77402e-152
-1.31323e-156
-2.63197e-161
-6.03267e-166
-9.37673e-171
-8.97194e-176
-8.06307e-181
-6.5267e-186
-3.38906e-191
-2.57451e-196
-1.27112e-201
-3.3201e-207
-7.3369e-213
-1.14324e-218
-1.1251e-224
-6.63225e-231
-1.57822e-237
-8.89265e-147
-3.54366e-151
-8.46074e-156
-2.71593e-160
-5.95535e-165
-1.29903e-169
-2.26535e-174
-2.25585e-179
-1.89244e-184
-1.5782e-189
-7.71931e-195
-5.36961e-200
-2.51498e-205
-5.14694e-211
-8.08575e-217
-8.90901e-223
-6.91939e-229
-2.99335e-235
-4.9371e-242
-1.22034e-150
-5.04284e-155
-1.61748e-159
-4.59684e-164
-1.41668e-168
-2.59222e-173
-4.594e-178
-5.22211e-183
-4.05337e-188
-3.42971e-193
-1.66472e-198
-1.07106e-203
-4.93641e-209
-8.83555e-215
-1.20241e-220
-1.17856e-226
-7.36905e-233
-2.30751e-239
-2.59553e-246
)
;

boundaryField
{
    leftWall
    {
        type            calculated;
        value           nonuniform List<scalar> 
50
(
-29.4294
-88.2881
-147.147
-206.006
-264.864
-323.723
-382.582
-441.44
-533.467
-658.662
-783.856
-909.051
-1034.25
-1159.44
-1284.63
-1409.83
-1535.02
-1660.22
-1785.41
-1910.61
-2035.8
-2161
-2286.19
-2411.38
-2536.58
-2661.76
-2684.78
-2.14236e-33
-2.0798e-15
-1.23205e-53
-7.01053e-51
-6.38916e-56
-4.87335e-61
-3.62484e-66
-1.44347e-71
-3.49753e-77
-5.90516e-83
-8.79529e-89
-1.46655e-94
-3.50694e-100
-7.265e-106
-1.00944e-111
-5.48601e-118