/*--------------------------------*- C++ -*----------------------------------*\
| =========                 |                                                 |
| \\      /  F ield         | OpenFOAM: The Open Source CFD Toolbox           |
|  \\    /   O peration     | Version:  2012                                  |
|   \\  /    A nd           | Website:  www.openfoam.com                      |
|    \\/     M anipulation  |                                                 |
\*---------------------------------------------------------------------------*/
FoamFile
{
    version     2.0;
    format      ascii;
    class       volVectorField;
    location    "0.01";
    object      Uc;
}
// * * * * * * * * * * * * * * * * * * * * * * * * * * * * * * * * * * * * * //

dimensions      [0 1 -1 0 0 0 0];


internalField   nonuniform List<vector> 
2268
(
(0.00410731 -0.00194109 0)
(0.0123962 -0.0019762 0)
(0.020914 -0.00204924 0)
(0.0298391 -0.0021687 0)
(0.0393865 -0.00234337 0)
(0.0498654 -0.00260891 0)
(0.0616641 -0.00296706 0)
(0.0755933 -0.0036158 0)
(0.0924694 -0.00435973 0)
(0.115789 -0.006661 0)
(0.148189 -0.00865087 0)
(0.210545 -0.020818 0)
(0.312206 -0.0271942 0)
(0.349899 0.00941644 0)
(0.268992 0.028828 0)
(0.178275 0.0140541 0)
(0.131017 0.00828972 0)
(0.101756 0.00554897 0)
(0.0805924 0.00446352 0)
(0.0626571 0.00402372 0)
(0.045698 0.00400245 0)
(0.0282913 0.00423531 0)
(0.00967083 0.00457611 0)
(0.00409033 -0.00581525 0)
(0.0123437 -0.00591982 0)
(0.0208206 -0.00613721 0)
(0.0296943 -0.00649233 0)
(0.039172 -0.0070109 0)
(0.0495443 -0.00779556 0)
(0.0611729 -0.00885201 0)
(0.0747503 -0.0107303 0)
(0.0909724 -0.0128872 0)
(0.112187 -0.01918 0)
(0.13947 -0.0243375 0)
(0.182179 -0.0547843 0)
(0.23704 -0.0671317 0)
(0.25509 0.023086 0)
(0.213168 0.0732245 0)
(0.159967 0.0376921 0)
(0.12504 0.0235115 0)
(0.0995567 0.0162197 0)
(0.0797031 0.013199 0)
(0.0623839 0.0119717 0)
(0.0457561 0.0119503 0)
(0.0284904 0.0126964 0)
(0.00978044 0.0137801 0)
(0.00405674 -0.00966552 0)
(0.0122397 -0.00983727 0)
(0.0206362 -0.010194 0)
(0.0294095 -0.0107754 0)
(0.0387524 -0.0116223 0)
(0.0489247 -0.0128934 0)
(0.0602443 -0.0145993 0)
(0.0732519 -0.0175469 0)
(0.0884964 -0.0209416 0)
(0.107245 -0.030012 0)
(0.129802 -0.0370593 0)
(0.156921 -0.0750626 0)
(0.183283 -0.0851669 0)
(0.187791 0.0305432 0)
(0.167716 0.0950872 0)
(0.141613 0.0533274 0)
(0.117279 0.0359021 0)
(0.0961514 0.0258781 0)
(0.0781935 0.021432 0)
(0.0619225 0.0196359 0)
(0.0459264 0.0197269 0)
(0.0289419 0.0211292 0)
(0.010026 0.0231519 0)
(0.00400731 -0.0134765 0)
(0.012087 -0.0137119 0)
(0.0203659 -0.0142001 0)
(0.0289936 -0.014993 0)
(0.0381433 -0.0161442 0)
(0.0480359 -0.0178542 0)
(0.0589331 -0.0201381 0)
(0.0712121 -0.0239583 0)
(0.085256 -0.0283717 0)
(0.101467 -0.0391036 0)
(0.119801 -0.0472926 0)
(0.137047 -0.0857958 0)
(0.150073 -0.0929732 0)
(0.148807 0.036905 0)
(0.138604 0.103057 0)
(0.126603 0.0633845 0)
(0.109254 0.0455645 0)
(0.0921222 0.0343182 0)
(0.0763155 0.0289709 0)
(0.0613879 0.0268637 0)
(0.0462787 0.0272219 0)
(0.029699 0.0295193 0)
(0.0104299 0.0328307 0)
(0.00394307 -0.0172339 0)
(0.0118887 -0.017528 0)
(0.020016 -0.0181374 0)
(0.0284582 -0.0191228 0)
(0.0373653 -0.0205478 0)
(0.0469168 -0.0226397 0)
(0.0573149 -0.0254167 0)
(0.0687935 -0.0299074 0)
(0.0815788 -0.0351019 0)
(0.0955168 -0.0466214 0)
(0.110346 -0.0554475 0)
(0.121519 -0.0910713 0)
(0.127395 -0.0965473 0)
(0.123684 0.0429284 0)
(0.118577 0.104294 0)
(0.11393 0.0700359 0)
(0.101585 0.0529674 0)
(0.0878875 0.0415063 0)
(0.0742871 0.0357025 0)
(0.0609292 0.0335221 0)
(0.047011 0.0343044 0)
(0.0310284 0.0378485 0)
(0.0111337 0.043033 0)
(0.00386541 -0.0209241 0)
(0.0116494 -0.0212715 0)
(0.019595 -0.0219899 0)
(0.0278177 -0.0231461 0)
(0.0364429 -0.0248102 0)
(0.0456085 -0.0272228 0)
(0.0554593 -0.0304031 0)
(0.0661097 -0.035379 0)
(0.0776518 -0.0411273 0)
(0.0896298 -0.0528438 0)
(0.101653 -0.0619153 0)
(0.109437 -0.0935625 0)
(0.112135 -0.0980091 0)
(0.107638 0.048383 0)
(0.104559 0.102733 0)
(0.103292 0.0744125 0)
(0.0945337 0.0585857 0)
(0.0836978 0.0475039 0)
(0.0722337 0.0415727 0)
(0.0605607 0.0395041 0)
(0.0480295 0.0408452 0)
(0.0327529 0.0461036 0)
(0.0120353 0.053994 0)
(0.00377558 -0.0245352 0)
(0.0113731 -0.0249296 0)
(0.0191107 -0.0257436 0)
(0.0270853 -0.0270472 0)
(0.0353974 -0.0289137 0)
(0.0441462 -0.0315856 0)
(0.0534246 -0.0350807 0)
(0.0632548 -0.0403804 0)
(0.0736266 -0.0464823 0)
(0.0839478 -0.0580273 0)
(0.0937686 -0.0670551 0)
(0.0995288 -0.0948237 0)
(0.10061 -0.0984179 0)
(0.0959442 0.0532539 0)
(0.0938752 0.100321 0)
(0.0943069 0.077241 0)
(0.0881731 0.0628175 0)
(0.0797299 0.0524058 0)
(0.0703531 0.0465429 0)
(0.0606429 0.0446624 0)
(0.0502015 0.0465668 0)
(0.0362498 0.0542184 0)
(0.0138931 0.0662592 0)
(0.0036756 -0.0280566 0)
(0.0110661 -0.0284915 0)
(0.0185747 -0.029387 0)
(0.02628 -0.0308139 0)
(0.0342587 -0.0328459 0)
(0.0425752 -0.0357183 0)
(0.0512775 -0.0394455 0)
(0.0603183 -0.0449339 0)
(0.0696129 -0.051223 0)
(0.0785228 -0.0623752 0)
(0.0865959 -0.0711639 0)
(0.0910519 -0.0955431 0)
(0.091146 -0.0981236 0)
(0.086606 0.0574567 0)
(0.085286 0.0977467 0)
(0.0866375 0.0789951 0)
(0.0824408 0.0659685 0)
(0.0759656 0.0563281 0)
(0.0684506 0.0506266 0)
(0.0605413 0.0489288 0)
(0.051969 0.0513096 0)
(0.0391285 0.0621609 0)
(0.0154054 0.0801171 0)
(0.00335342 -0.00142036 0)
(0.00910107 -0.00101243 0)
(0.0129567 -0.000615628 0)
(0.0151245 -0.00029439 0)
(0.0160042 -6.75628e-05 0)
(0.0160065 7.88878e-05 0)
(0.0154476 0.000171156 0)
(0.0145422 0.000226146 0)
(0.0134329 0.000257839 0)
(0.0122092 0.000274846 0)
(0.0109269 0.000282906 0)
(0.00961959 0.000285557 0)
(0.00830703 0.000285052 0)
(0.00700021 0.000283035 0)
(0.00570436 0.000280487 0)
(0.00442082 0.000277965 0)
(0.00314846 0.000275655 0)
(0.00188506 0.000273926 0)
(0.000627614 0.000273254 0)
(0.0034836 -0.00431655 0)
(0.00939083 -0.00304979 0)
(0.0132501 -0.00183582 0)
(0.015356 -0.000867752 0)
(0.016167 -0.000188796 0)
(0.0161128 0.000246813 0)
(0.0155136 0.000520316 0)
(0.0145815 0.000682843 0)
(0.0134552 0.000776406 0)
(0.0122209 0.000826335 0)
(0.0109321 0.000849754 0)
(0.00962093 0.000857162 0)
(0.00830623 0.000855465 0)
(0.00699844 0.00084931 0)
(0.00570232 0.000841535 0)
(0.00441884 0.000833701 0)
(0.0031468 0.000826726 0)
(0.00188408 0.000821802 0)
(0.000627339 0.000819536 0)
(0.00376157 -0.00738642 0)
(0.0100023 -0.00512322 0)
(0.0138566 -0.00301915 0)
(0.015825 -0.00139295 0)
(0.0164921 -0.000267669 0)
(0.0163229 0.000445301 0)
(0.0156435 0.000890078 0)
(0.0146585 0.00115279 0)
(0.0134986 0.00130339 0)
(0.0122435 0.00138297 0)
(0.010942 0.00141959 0)
(0.00962329 0.00143038 0)
(0.0083045 0.00142679 0)
(0.00699481 0.00141601 0)
(0.00569806 0.00140255 0)
(0.00441474 0.00138898 0)
(0.00314354 0.00137734 0)
(0.00188207 0.00136936 0)
(0.000626658 0.00136517 0)
(0.00419593 -0.0107592 0)
(0.0109497 -0.00725361 0)
(0.0147805 -0.00413323 0)
(0.0165266 -0.00183431 0)
(0.016972 -0.000274932 0)
(0.0166299 0.000694564 0)
(0.0158318 0.00129373 0)
(0.0147694 0.00164441 0)
(0.0135607 0.00184386 0)
(0.0122753 0.0019478 0)
(0.0109555 0.00199424 0)
(0.00962605 0.00200637 0)
(0.00830143 0.00199956 0)
(0.00698899 0.00198325 0)
(0.00569137 0.0019634 0)
(0.00440847 0.00194379 0)
(0.00313867 0.0019275 0)
(0.00187901 0.00191608 0)
(0.000625582 0.00190992 0)
(0.00487807 -0.0146068 0)
(0.0124017 -0.00945475 0)
(0.0161266 -0.00512158 0)
(0.0174936 -0.00214574 0)
(0.0176101 -0.000178118 0)
(0.0170284 0.0010151 0)
(0.0160724 0.0017438 0)
(0.0149095 0.00216534 0)
(0.0136382 0.00240244 0)
(0.0123143 0.00252362 0)
(0.0109712 0.00257544 0)
(0.00962832 0.00258616 0)
(0.00829644 0.0025743 0)
(0.00698058 0.00255121 0)
(0.00568202 0.00252422 0)
(0.00439994 0.00249828 0)
(0.00313205 0.002477 0)
(0.00187476 0.00246174 0)
(0.000624094 0.00245373 0)
(0.0057367 -0.0191099 0)
(0.0142218 -0.011737 0)
(0.0177897 -0.00591724 0)
(0.0186622 -0.00227855 0)
(0.0183684 5.43024e-05 0)
(0.0174959 0.00142553 0)
(0.0163517 0.00225114 0)
(0.0150706 0.00272206 0)
(0.0137259 0.00298299 0)
(0.0123572 0.0031128 0)
(0.0109872 0.00316463 0)
(0.00962889 0.00317051 0)
(0.0082887 0.00315135 0)
(0.00696908 0.00312001 0)
(0.00566975 0.00308503 0)
(0.00438895 0.00305232 0)
(0.00312347 0.00302542 0)
(0.00186929 0.00300614 0)
(0.000622246 0.00299639 0)
(0.00724502 -0.0246198 0)
(0.0172538 -0.0140698 0)
(0.020271 -0.00636167 0)
(0.0201964 -0.00214965 0)
(0.0192856 0.00046187 0)
(0.0180347 0.00194539 0)
(0.0166638 0.00282551 0)
(0.0152466 0.00331988 0)
(0.0138196 0.00358852 0)
(0.0124012 0.00371711 0)
(0.0110018 0.00376275 0)
(0.00962654 0.00375981 0)
(0.00827744 0.00373074 0)
(0.00695399 0.0036895 0)
(0.00565426 0.00364558 0)
(0.00437525 0.00360537 0)
(0.0031128 0.00357229 0)
(0.00186263 0.003549 0)
(0.000620036 0.0035373 0)
(0.00878193 -0.0314251 0)
(0.0202066 -0.0163576 0)
(0.0226101 -0.00635575 0)
(0.0216869 -0.00170735 0)
(0.0201914 0.00106716 0)
(0.0185717 0.00258531 0)
(0.0169754 0.00347204 0)
(0.0154211 0.00396157 0)
(0.0139103 0.00422063 0)
(0.0124411 0.00433741 0)
(0.0110116 0.00437015 0)
(0.00961928 0.00435407 0)
(0.00826137 0.00431228 0)
(0.00693453 0.00425942 0)
(0.00563504 0.00420549 0)
(0.00435847 0.00415687 0)
(0.00309991 0.00411729 0)
(0.00185465 0.00408987 0)
(0.000617372 0.00407578 0)
(0.00350466 -0.0333166 0)
(0.0105421 -0.0337984 0)
(0.0176632 -0.0347868 0)
(0.0249183 -0.0363486 0)
(0.0323497 -0.0385521 0)
(0.0399754 -0.0416079 0)
(0.0477861 -0.04552 0)
(0.0556662 -0.0510533 0)
(0.0634608 -0.0573315 0)
(0.0705765 -0.0676303 0)
(0.0766115 -0.0757905 0)
(0.079725 -0.0961522 0)
(0.0802736 -0.0978798 0)
(0.0770606 0.0628441 0)
(0.0754093 0.0946866 0)
(0.0766875 0.0801686 0)
(0.0745567 0.0689569 0)
(0.0706832 0.06033 0)
(0.0662243 0.054695 0)
(0.0626099 0.0522681 0)
(0.0614898 0.0531841 0)
(0.0674312 0.060419 0)
(0.0865278 0.073911 0)
(0.00324151 -0.040098 0)
(0.00973897 -0.0406227 0)
(0.0162778 -0.0416938 0)
(0.0228773 -0.0433686 0)
(0.029544 -0.0457039 0)
(0.0362561 -0.0488689 0)
(0.0429618 -0.0528513 0)
(0.0495166 -0.0582323 0)
(0.0557463 -0.06425 0)
(0.0611819 -0.0733287 0)
(0.0655299 -0.0805293 0)
(0.0676676 -0.096692 0)
(0.0676979 -0.0975826 0)
(0.0651404 0.068721 0)
(0.0643398 0.0913341 0)
(0.0660912 0.0805269 0)
(0.0655888 0.071296 0)
(0.0637553 0.0637776 0)
(0.0613972 0.0581497 0)
(0.0594696 0.054434 0)
(0.0590369 0.0526288 0)
(0.062291 0.0517807 0)
(0.0722956 0.0533462 0)
(0.00296607 -0.046338 0)
(0.00890149 -0.0468805 0)
(0.0148444 -0.0479829 0)
(0.0207906 -0.0496907 0)
(0.026722 -0.0520458 0)
(0.0325938 -0.0551766 0)
(0.0383336 -0.0590541 0)
(0.0437965 -0.0641099 0)
(0.0488199 -0.0696844 0)
(0.0530478 -0.0776083 0)
(0.0562818 -0.0838714 0)
(0.0578119 -0.097037 0)
(0.0575647 -0.0966567 0)
(0.0556929 0.0726437 0)
(0.0556235 0.0883452 0)
(0.0575626 0.0798578 0)
(0.0579985 0.0720828 0)
(0.057471 0.0654143 0)
(0.0565394 0.0598695 0)
(0.0558252 0.0554195 0)
(0.0559826 0.0519699 0)
(0.0573761 0.0478178 0)
(0.0604266 0.0442357 0)
(0.00268802 -0.0520216 0)
(0.00805893 -0.0525622 0)
(0.0134121 -0.0536563 0)
(0.018727 -0.0553372 0)
(0.0239707 -0.0576327 0)
(0.029087 -0.0606351 0)
(0.0339982 -0.0643023 0)
(0.0385729 -0.0689518 0)
(0.0426724 -0.0740132 0)
(0.0460312 -0.0809058 0)
(0.0485208 -0.0863273 0)
(0.0496637 -0.0972679 0)
(0.0492742 -0.0954108 0)
(0.0479595 0.0750081 0)
(0.0484147 0.085651 0)
(0.050391 0.0786676 0)
(0.0513154 0.0719564 0)
(0.051492 0.0659436 0)
(0.0512733 0.0605463 0)
(0.0510265 0.0557585 0)
(0.0511081 0.0514405 0)
(0.0515958 0.0465059 0)
(0.0525389 0.0415827 0)
(0.00241651 -0.0571528 0)
(0.00723854 -0.0576772 0)
(0.0120256 -0.0587345 0)
(0.0167469 -0.0603476 0)
(0.0213612 -0.0625317 0)
(0.0258089 -0.0653502 0)
(0.0300146 -0.0687517 0)
(0.0338644 -0.0729709 0)
(0.037245 -0.0775133 0)
(0.0399579 -0.0835091 0)
(0.041923 -0.088202 0)
(0.0428039 -0.0974277 0)
(0.0422925 -0.0939671 0)
(0.0413719 0.0762205 0)
(0.0422262 0.0831788 0)
(0.0441908 0.0772295 0)
(0.0453711 0.0713293 0)
(0.0459466 0.0658645 0)
(0.0461356 0.0607049 0)
(0.0461501 0.0558832 0)
(0.0461701 0.0512634 0)
(0.0461596 0.0462527 0)
(0.0459887 0.0411087 0)
(0.00215697 -0.0617502 0)
(0.0064563 -0.0622488 0)
(0.0107101 -0.063251 0)
(0.014882 -0.0647708 0)
(0.0189275 -0.0668135 0)
(0.0227883 -0.0694203 0)
(0.0263949 -0.0725346 0)
(0.0296513 -0.0763314 0)
(0.0324665 -0.0803809 0)
(0.034691 -0.0856046 0)
(0.0362761 -0.0896751 0)
(0.0369738 -0.0975416 0)
(0.036343 -0.09233 0)
(0.0356765 0.0765836 0)
(0.0368128 0.0808701 0)
(0.0387264 0.0756906 0)
(0.0400134 0.070438 0)
(0.0407836 0.0654526 0)
(0.0411706 0.0605874 0)
(0.0412986 0.0559069 0)
(0.0412633 0.0513044 0)
(0.0410317 0.0465042 0)
(0.0405021 0.0416101 0)
(0.00191301 -0.0658415 0)
(0.00572254 -0.0663088 0)
(0.00948128 -0.0672454 0)
(0.0131508 -0.0686587 0)
(0.0166864 -0.0705463 0)
(0.0200337 -0.0729332 0)
(0.0231308 -0.0757604 0)
(0.0258975 -0.0791601 0)
(0.0282612 -0.0827581 0)
(0.0301075 -0.0873196 0)
(0.0314078 -0.0908607 0)
(0.031972 -0.0976245 0)
(0.0312175 -0.0904875 0)
(0.0306927 0.0763344 0)
(0.0320176 0.0786993 0)
(0.0338586 0.0741375 0)
(0.0351682 0.0694304 0)
(0.0360184 0.0648804 0)
(0.0364953 0.0603402 0)
(0.0366768 0.0558917 0)
(0.0366177 0.0514631 0)
(0.0362973 0.0469488 0)
(0.0356495 0.0423973 0)
(0.00168632 -0.0694596 0)
(0.00504192 -0.0698932 0)
(0.00834545 -0.0707602 0)
(0.0115588 -0.0720628 0)
(0.0146395 -0.0737932 0)
(0.017538 -0.0759647 0)
(0.0202003 -0.0785183 0)
(0.0225597 -0.0815551 0)
(0.0245583 -0.0847481 0)
(0.0261065 -0.0887418 0)
(0.0271883 -0.0918329 0)
(0.0276526 -0.0976861 0)
(0.0267654 -0.0884203 0)
(0.0262965 0.0756492 0)
(0.0277436 0.0766505 0)
(0.0294989 0.0726204 0)
(0.0307759 0.0683958 0)
(0.031631 0.064249 0)
(0.0321268 0.0600418 0)
(0.0323201 0.0558614 0)
(0.0322509 0.0516702 0)
(0.0319151 0.047449 0)
(0.0312808 0.0432337 0)
(0.00147721 -0.0726396 0)
(0.00441505 -0.0730394 0)
(0.00730244 -0.0738372 0)
(0.0101033 -0.0750314 0)
(0.0127787 -0.0766107 0)
(0.0152845 -0.0785797 0)
(0.0175743 -0.0808813 0)
(0.0195926 -0.0835928 0)
(0.0212927 -0.0864284 0)
(0.0226031 -0.0899351 0)
(0.0235146 -0.0926434 0)
(0.0239029 -0.0977326 0)
(0.0228759 -0.0861088 0)
(0.0224106 0.074644 0)
(0.0239455 0.0747086 0)
(0.0256107 0.0711718 0)
(0.026815 0.0673975 0)
(0.027617 0.0636287 0)
(0.0280776 0.0597476 0)
(0.0282487 0.0558364 0)
(0.0281689 0.051892 0)
(0.0278459 0.0479366 0)
(0.0272699 0.0440099 0)
(0.00128536 -0.0754166 0)
(0.00384062 -0.0757842 0)
(0.00634904 -0.0765164 0)
(0.00877772 -0.0776091 0)
(0.0110918 -0.0790485 0)
(0.013253 -0.0808332 0)
(0.0152219 -0.0829086 0)
(0.0169521 -0.0853336 0)
(0.0184058 -0.0878578 0)
(0.0195237 -0.0909467 0)
(0.0203009 -0.0933294 0)
(0.0206305 -0.0977682 0)
(0.0194571 -0.0835372 0)
(0.018957 0.0733921 0)
(0.0205577 0.072857 0)
(0.0221288 0.0698167 0)
(0.0232255 0.0664859 0)
(0.0239293 0.0630729 0)
(0.024313 0.0595008 0)
(0.0244336 0.0558364 0)
(0.0243353 0.0521176 0)
(0.0240339 0.0483854 0)
(0.0235321 0.0446912 0)
(0.00110878 -0.0778233 0)
(0.00331253 -0.0781614 0)
(0.00547458 -0.078834 0)
(0.00756603 -0.0798352 0)
(0.00955679 -0.0811498 0)
(0.0114144 -0.0827718 0)
(0.0131061 -0.0846496 0)
(0.0145936 -0.0868271 0)
(0.015846 -0.0890846 0)
(0.0168125 -0.0918153 0)
(0.0174891 -0.093922 0)
(0.0177768 -0.097796 0)
(0.0164788 -0.0807191 0)
(0.0159977 0.0718905 0)
(0.0177166 0.0710685 0)
(0.0191897 0.0685907 0)
(0.020111 0.0657287 0)
(0.0206289 0.0626473 0)
(0.0208586 0.0593551 0)
(0.0208732 0.0558918 0)
(0.0207262 0.0523545 0)
(0.0204344 0.0487906 0)
(0.0200034 0.0452693 0)
(0.00094755 -0.0798903 0)
(0.00283067 -0.0802026 0)
(0.00467774 -0.0808229 0)
(0.00646412 -0.0817444 0)
(0.00816463 -0.0829511 0)
(0.00975251 -0.0844339 0)
(0.0112011 -0.0861442 0)
(0.0124791 -0.0881125 0)
(0.0135614 -0.0901461 0)
(0.0144026 -0.092571 0)
(0.0149991 -0.0944461 0)
(0.0152549 -0.0978183 0)
(0.0138818 -0.077725 0)
(0.0134232 0.070151 0)
(0.0152069 0.0693326 0)
(0.0165334 0.0675569 0)
(0.0172089 0.0652019 0)
(0.0174918 0.0624136 0)
(0.0175376 0.0593564 0)
(0.0174329 0.0560259 0)
(0.0172373 0.0526096 0)
(0.0169621 0.0491502 0)
(0.0166092 0.0457421 0)
(0.000795301 -0.0816423 0)
(0.00237623 -0.0819328 0)
(0.00392813 -0.0825094 0)
(0.00543141 -0.0833647 0)
(0.00686642 -0.0844827 0)
(0.00821282 -0.085852 0)
(0.00945116 -0.0874271 0)
(0.0105584 -0.0892272 0)
(0.0115168 -0.0910827 0)
(0.0122857 -0.0932528 0)
(0.01286 -0.0949413 0)
(0.0131156 -0.0978373 0)
(0.0119028 -0.0748392 0)
(0.0119169 0.0680021 0)
(0.0139583 0.0676809 0)
(0.0150024 0.0668691 0)
(0.0151657 0.0650898 0)
(0.0149392 0.0625124 0)
(0.014593 0.0596029 0)
(0.0142305 0.0562927 0)
(0.0139082 0.052907 0)
(0.0136121 0.0494708 0)
(0.0133225 0.0461108 0)
(0.000658656 -0.0831038 0)
(0.00196808 -0.0833767 0)
(0.00325387 -0.083918 0)
(0.00450032 -0.0847202 0)
(0.00569233 -0.0857679 0)
(0.00681528 -0.087049 0)
(0.00785571 -0.0885208 0)
(0.00879703 -0.0901928 0)
(0.00962623 -0.0919141 0)
(0.0103061 -0.0938778 0)
(0.0108313 -0.0954216 0)
(0.0110719 -0.0978557 0)
(0.0104465 -0.0727247 0)
(0.0109975 0.0655895 0)
(0.0127649 0.0663076 0)
(0.0131803 0.0668173 0)
(0.0126316 0.0655709 0)
(0.0119031 0.0630335 0)
(0.0112541 0.0601244 0)
(0.0107497 0.0566852 0)
(0.0104085 0.0532242 0)
(0.0101778 0.0497259 0)
(0.0100145 0.0463533 0)
(0.000522415 -0.0842911 0)
(0.0015617 -0.0845504 0)
(0.00258468 -0.0850651 0)
(0.00358154 -0.0858281 0)
(0.00454387 -0.0868256 0)
(0.00546553 -0.0880466 0)
(0.00634393 -0.089452 0)
(0.00718176 -0.09105 0)
(0.00798754 -0.0927004 0)
(0.008758 -0.0945494 0)
(0.00950335 -0.096027 0)
(0.009904 -0.0978948 0)
(0.0116711 -0.0735981 0)
(0.015013 0.0628054 0)
(0.0162121 0.0661505 0)
(0.0146924 0.0681247 0)
(0.0123501 0.0672101 0)
(0.010211 0.0643178 0)
(0.00865582 0.0610968 0)
(0.00764431 0.0572779 0)
(0.00708763 0.0535754 0)
(0.00683245 0.0499044 0)
(0.0067626 0.0464506 0)
(0.00040045 -0.0852187 0)
(0.00119739 -0.0854685 0)
(0.00198263 -0.0859646 0)
(0.00274908 -0.0867011 0)
(0.00349068 -0.0876654 0)
(0.00420313 -0.0888494 0)
(0.00488345 -0.090216 0)
(0.00553064 -0.0917787 0)
(0.00614256 -0.0933968 0)
(0.00670696 -0.0951948 0)
(0.00720565 -0.0966321 0)
(0.00751487 -0.0980033 0)
(0.0120723 -0.0796203 0)
(0.0181566 0.0595988 0)
(0.0173633 0.0689883 0)
(0.0126139 0.0716274 0)
(0.00848026 0.0702562 0)
(0.00564927 0.0663071 0)
(0.00401558 0.0623528 0)
(0.0032027 0.0578959 0)
(0.00295035 0.0538106 0)
(0.0030225 0.0498931 0)
(0.00327123 0.0463222 0)
(0.000269424 -0.0858921 0)
(0.000806167 -0.0861358 0)
(0.00133697 -0.0866202 0)
(0.00185967 -0.0873413 0)
(0.00237499 -0.0882886 0)
(0.00289217 -0.0894622 0)
(0.00342985 -0.0908276 0)
(0.00405353 -0.0924447 0)
(0.00484551 -0.094142 0)
(0.00620193 -0.0963804 0)
(0.00835051 -0.0981077 0)
(0.0135088 -0.10199 0)
(0.0346631 -0.101143 0)
(0.0486493 0.0612698 0)
(0.0357512 0.0811191 0)
(0.0200833 0.0800574 0)
(0.0102796 0.075874 0)
(0.00432543 0.0695583 0)
(0.00112018 0.0640043 0)
(-0.000321363 0.0585493 0)
(-0.000733726 0.0538642 0)
(-0.000555906 0.0496269 0)
(-9.12538e-05 0.0459101 0)
(0.000169286 -0.0863331 0)
(0.000506391 -0.0865732 0)
(0.000839171 -0.0870509 0)
(0.00116502 -0.0877637 0)
(0.00148137 -0.0887023 0)
(0.00178468 -0.0898733 0)
(0.00206849 -0.0912423 0)
(0.00231004 -0.0928997 0)
(0.00246676 -0.0946407 0)
(0.0023478 -0.0971258 0)
(0.00173722 -0.0989084 0)
(-0.000957077 -0.10353 0)
(0.0199502 -0.140997 0)
(0.0429637 0.0647023 0)
(0.0295429 0.104181 0)
(0.00839961 0.0940347 0)
(-0.00252457 0.082769 0)
(-0.00654001 0.0727216 0)
(-0.00754889 0.0651143 0)
(-0.00720578 0.0585807 0)
(-0.00625611 0.05333 0)
(-0.00509639 0.0488538 0)
(-0.00391243 0.0450634 0)
(-1.7933e-06 -0.0865256 0)
(-5.44236e-06 -0.0867643 0)
(-9.29137e-06 -0.0872393 0)
(-1.34211e-05 -0.0879483 0)
(-1.7977e-05 -0.0888819 0)
(-2.27928e-05 -0.090046 0)
(-2.81801e-05 -0.0914035 0)
(-3.21315e-05 -0.0930337 0)
(-2.59426e-05 -0.0947293 0)
(0.000288431 -0.0972961 0)
(0.00603828 -0.103979 0)
(0.0786199 -0.168882 0)
(0.180279 -0.197357 0)
(0.159033 0.12103 0)
(0.0655483 0.155455 0)
(0.0142366 0.115628 0)
(-0.00412002 0.0906438 0)
(-0.0107561 0.0755892 0)
(-0.0125249 0.0650745 0)
(-0.0119051 0.0576883 0)
(-0.0105705 0.0519621 0)
(-0.00892523 0.047438 0)
(-0.00730512 0.0436964 0)
(-0.00239762 -0.0841456 0)
(-0.007252 -0.0843249 0)
(-0.0122973 -0.0846676 0)
(-0.0176668 -0.0851838 0)
(-0.023549 -0.0857956 0)
(-0.0301358 -0.0865746 0)
(-0.0377339 -0.0873018 0)
(-0.0467527 -0.0881379 0)
(-0.0575224 -0.0888805 0)
(-0.0714063 -0.0895839 0)
(-0.0883769 -0.100505 0)
(-0.114161 -0.219707 0)
(-0.176185 -0.185559 0)
(-0.198877 0.154596 0)
(-0.136453 0.153252 0)
(-0.0788645 0.111555 0)
(-0.0515667 0.085763 0)
(-0.036451 0.07198 0)
(-0.0274428 0.0614406 0)
(-0.0214286 0.0546877 0)
(-0.0170715 0.0492755 0)
(-0.0137249 0.0451411 0)
(-0.0110463 0.0417069 0)
(-0.0023512 -0.0793746 0)
(-0.00708922 -0.0794586 0)
(-0.0119423 -0.0795892 0)
(-0.0169527 -0.0798339 0)
(-0.022216 -0.0799475 0)
(-0.0275866 -0.0804083 0)
(-0.0333727 -0.0800193 0)
(-0.0385599 -0.0811454 0)
(-0.0446835 -0.0788964 0)
(-0.0474627 -0.0828227 0)
(-0.0572529 -0.0803709 0)
(-0.120345 -0.150524 0)
(-0.210544 -0.101727 0)
(-0.200647 0.0836607 0)
(-0.124736 0.0851655 0)
(-0.080979 0.0777999 0)
(-0.0563516 0.067354 0)
(-0.0418992 0.0606989 0)
(-0.0323465 0.0540965 0)
(-0.0257482 0.0493861 0)
(-0.0208086 0.0452647 0)
(-0.016967 0.0419595 0)
(-0.0138705 0.0391175 0)
(-0.00242367 -0.0745649 0)
(-0.0073202 -0.0745636 0)
(-0.0123685 -0.0745113 0)
(-0.017682 -0.0745141 0)
(-0.0233905 -0.0742179 0)
(-0.0296741 -0.074402 0)
(-0.0366831 -0.0731425 0)
(-0.0448259 -0.074601 0)
(-0.054035 -0.0700058 0)
(-0.0654893 -0.0773822 0)
(-0.078537 -0.0628292 0)
(-0.0943617 -0.0887107 0)
(-0.118383 -0.0486959 0)
(-0.122448 0.0247977 0)
(-0.100034 0.04522 0)
(-0.0780487 0.0516897 0)
(-0.0605004 0.0510987 0)
(-0.0473245 0.0492122 0)
(-0.0374615 0.046097 0)
(-0.0300736 0.0433575 0)
(-0.0243876 0.0406437 0)
(-0.0199423 0.038282 0)
(-0.0163834 0.036137 0)
(-0.00236225 -0.0697443 0)
(-0.00711947 -0.0696606 0)
(-0.0119723 -0.0694419 0)
(-0.0169848 -0.0691839 0)
(-0.0222121 -0.0685352 0)
(-0.0277255 -0.068206 0)
(-0.0335782 -0.0663892 0)
(-0.0399689 -0.0667239 0)
(-0.0469642 -0.0615721 0)
(-0.0559043 -0.0652924 0)
(-0.0662495 -0.0513801 0)
(-0.0860335 -0.0643408 0)
(-0.105445 -0.0293805 0)
(-0.102495 0.0066309 0)
(-0.0870087 0.0253157 0)
(-0.0714172 0.0338493 0)
(-0.0577512 0.0375906 0)
(-0.0469127 0.0386099 0)
(-0.0382635 0.0381198 0)
(-0.0314643 0.0371031 0)
(-0.0260152 0.0357354 0)
(-0.0216158 0.03433 0)
(-0.018009 0.0329161 0)
(-0.00231304 -0.0650349 0)
(-0.00697348 -0.0648838 0)
(-0.0117337 -0.064536 0)
(-0.0166731 -0.0640662 0)
(-0.0218537 -0.0631707 0)
(-0.0274049 -0.0624281 0)
(-0.0333304 -0.060307 0)
(-0.0399064 -0.0597508 0)
(-0.0468501 -0.0545118 0)
(-0.0547258 -0.0554268 0)
(-0.0625435 -0.0429648 0)
(-0.0703091 -0.0450389 0)
(-0.0774452 -0.0219706 0)
(-0.0778777 -0.00328374 0)
(-0.0714472 0.0132249 0)
(-0.0626329 0.0214336 0)
(-0.0535722 0.0271882 0)
(-0.0452658 0.0297954 0)
(-0.0380586 0.0310234 0)
(-0.031979 0.0312819 0)
(-0.0268891 0.0309919 0)
(-0.0226435 0.0304132 0)
(-0.0190879 0.0296632 0)
(-0.00220553 -0.0604833 0)
(-0.00663952 -0.0602745 0)
(-0.0111373 -0.0598198 0)
(-0.0157474 -0.0591639 0)
(-0.0204943 -0.0580743 0)
(-0.0254506 -0.0569427 0)
(-0.0305792 -0.0546609 0)
(-0.0360738 -0.053243 0)
(-0.0416974 -0.0483661 0)
(-0.0480492 -0.0472495 0)
(-0.0541845 -0.0370943 0)
(-0.0612827 -0.0359453 0)
(-0.0666689 -0.018453 0)
(-0.0661338 -0.00688027 0)
(-0.061897 0.00612316 0)
(-0.0556262 0.0133968 0)
(-0.0489025 0.0193841 0)
(-0.0423993 0.0227387 0)
(-0.0364917 0.0249239 0)
(-0.0312841 0.0260626 0)
(-0.0267644 0.0265788 0)
(-0.0228746 0.0266759 0)
(-0.0195347 0.026497 0)
(-0.00208809 -0.0561581 0)
(-0.00628257 -0.0559079 0)
(-0.0105279 -0.0553792 0)
(-0.0148629 -0.054594 0)
(-0.0193064 -0.0533869 0)
(-0.0239124 -0.051999 0)
(-0.028637 -0.0496809 0)
(-0.0335845 -0.047707 0)
(-0.0385088 -0.0432795 0)
(-0.0435744 -0.0408389 0)
(-0.0481451 -0.0327219 0)
(-0.0521155 -0.0291696 0)
(-0.0548189 -0.0170746 0)
(-0.0548724 -0.00872009 0)
(-0.0525834 0.00142624 0)
(-0.048629 0.00783927 0)
(-0.0439686 0.013523 0)
(-0.0390767 0.0171698 0)
(-0.0343674 0.0198459 0)
(-0.0300058 0.0215479 0)
(-0.0260763 0.0226268 0)
(-0.0225889 0.0232385 0)
(-0.0195217 0.0235199 0)
(-0.00194726 -0.0520929 0)
(-0.00585244 -0.0518135 0)
(-0.00978607 -0.0512342 0)
(-0.0137681 -0.0503607 0)
(-0.0178011 -0.0490813 0)
(-0.0219072 -0.0475288 0)
(-0.0260375 -0.0452315 0)
(-0.0302405 -0.0429396 0)
(-0.0343294 -0.0389678 0)
(-0.0384146 -0.0359331 0)
(-0.0420269 -0.0293821 0)
(-0.045219 -0.0252891 0)
(-0.0472634 -0.0161615 0)
(-0.0472824 -0.0095389 0)
(-0.0457516 -0.00157296 0)
(-0.042932 0.00405149 0)
(-0.0394745 0.0091737 0)
(-0.0356951 0.012826 0)
(-0.0319188 0.0156837 0)
(-0.0282985 0.017711 0)
(-0.0249367 0.0191593 0)
(-0.0218724 0.0201455 0)
(-0.0191156 0.0207839 0)
(-0.00179928 -0.0483183 0)
(-0.00540355 -0.0480226 0)
(-0.00902225 -0.0474165 0)
(-0.0126643 -0.0464974 0)
(-0.0163254 -0.045193 0)
(-0.0200099 -0.0435685 0)
(-0.0236719 -0.0413412 0)
(-0.0273145 -0.0389257 0)
(-0.030789 -0.0353608 0)
(-0.0340895 -0.0320974 0)
(-0.0369125 -0.02673 0)
(-0.0391523 -0.0224619 0)
(-0.0405083 -0.0155508 0)
(-0.0406343 -0.00998331 0)
(-0.0396692 -0.00361647 0)
(-0.0377371 0.00133945 0)
(-0.0352193 0.00590069 0)
(-0.0323353 0.0094233 0)
(-0.0293358 0.0122978 0)
(-0.0263608 0.0144899 0)
(-0.0235168 0.0161654 0)
(-0.0208592 0.0174111 0)
(-0.0184168 0.0183155 0)
(-0.00164523 -0.0448479 0)
(-0.0049368 -0.0445454 0)
(-0.00822961 -0.0439302 0)
(-0.0115225 -0.0429963 0)
(-0.0148043 -0.0416984 0)
(-0.0180656 -0.0400643 0)
(-0.0212637 -0.0379328 0)
(-0.0243805 -0.0355227 0)
(-0.0273064 -0.0323128 0)
(-0.0300139 -0.0290884 0)
(-0.0322999 -0.0245854 0)
(-0.0340909 -0.0205365 0)
(-0.0351676 -0.0150123 0)
(-0.0353265 -0.0102164 0)
(-0.0346741 -0.00498934 0)
(-0.0332794 -0.000611921 0)
(-0.0313865 0.00343833 0)
(-0.0291504 0.00675994 0)
(-0.0267534 0.00955796 0)
(-0.0243119 0.0118065 0)
(-0.0219204 0.0136074 0)
(-0.0196366 0.0150234 0)
(-0.0174971 0.0161192 0)
(-0.00149122 -0.0416876 0)
(-0.00447154 -0.0413861 0)
(-0.00744408 -0.0407763 0)
(-0.0104015 -0.0398519 0)
(-0.0133289 -0.0385856 0)
(-0.0162096 -0.0369872 0)
(-0.0190053 -0.034969 0)
(-0.0216867 -0.0326421 0)
(-0.0241708 -0.0297388 0)
(-0.0264126 -0.0266706 0)
(-0.0282777 -0.0228133 0)
(-0.0296931 -0.019068 0)
(-0.0305419 -0.0145274 0)
(-0.0307287 -0.010336 0)
(-0.030299 -0.00593922 0)
(-0.0292973 -0.00205219 0)
(-0.027873 0.00156294 0)
(-0.0261378 0.00466252 0)
(-0.0242237 0.00734157 0)
(-0.0222259 0.00958045 0)
(-0.0202252 0.0114382 0)
(-0.0182766 0.0129581 0)
(-0.0164188 0.0141863 0)
(-0.00133961 -0.038835 0)
(-0.0040144 -0.0385399 0)
(-0.00667501 -0.0379455 0)
(-0.00930986 -0.0370468 0)
(-0.0119017 -0.0358282 0)
(-0.0144304 -0.0342923 0)
(-0.0168616 -0.0323945 0)
(-0.0191636 -0.0301917 0)
(-0.0212739 -0.0275551 0)
(-0.023149 -0.0247004 0)
(-0.0246986 -0.0213352 0)
(-0.0258675 -0.0179321 0)
(-0.0265795 -0.0140775 0)
(-0.0267804 -0.0103795 0)
(-0.0264981 -0.00659472 0)
(-0.0257659 -0.00312225 0)
(-0.02468 0.0001276 0)
(-0.0233223 0.00300652 0)
(-0.0217883 0.00554932 0)
(-0.0201538 0.00773965 0)
(-0.0184851 0.00960883 0)
(-0.0168315 0.0111854 0)
(-0.0152299 0.0125006 0)
(-0.00119294 -0.0362826 0)
(-0.00357303 -0.0359976 0)
(-0.00593509 -0.0354253 0)
(-0.00826524 -0.0345625 0)
(-0.0105456 -0.0334012 0)
(-0.012755 -0.0319426 0)
(-0.0148636 -0.0301666 0)
(-0.0168404 -0.0281041 0)
(-0.0186378 -0.0256999 0)
(-0.0202162 -0.0230694 0)
(-0.021514 -0.0200893 0)
(-0.0224884 -0.0170089 0)
(-0.023093 -0.0136619 0)
(-0.0232988 -0.0103708 0)
(-0.0231212 -0.00705011 0)
(-0.0225856 -0.00392541 0)
(-0.0217549 -0.000979452 0)
(-0.0206891 0.0016941 0)
(-0.0194583 0.00409893 0)
(-0.0181223 0.00622048 0)
(-0.016735 0.00807269 0)
(-0.015339 0.00967332 0)
(-0.0139676 0.0110423 0)
(-0.00105215 -0.0340196 0)
(-0.00314999 -0.0337468 0)
(-0.00522796 -0.0332002 0)
(-0.00727134 -0.0323784 0)
(-0.00926246 -0.0312786 0)
(-0.0111809 -0.0299029 0)
(-0.0130006 -0.0282447 0)
(-0.0146939 -0.0263238 0)
(-0.016224 -0.0241223 0)
(-0.0175578 -0.0217063 0)
(-0.0186522 -0.0190342 0)
(-0.0194754 -0.0162436 0)
(-0.0199975 -0.0132812 0)
(-0.0202013 -0.0103258 0)
(-0.0200968 -0.0073644 0)
(-0.019704 -0.00452999 0)
(-0.0190656 -0.00183701 0)
(-0.0182265 0.000651931 0)
(-0.017238 0.00292553 0)
(-0.0161473 0.00496976 0)
(-0.0149975 0.00678824 0)
(-0.013825 0.00839093 0)
(-0.0126589 0.00978977 0)
(-0.000918428 -0.032033 0)
(-0.00274862 -0.0317732 0)
(-0.00455858 -0.0312537 0)
(-0.00633374 -0.0304747 0)
(-0.00805739 -0.0294365 0)
(-0.00971065 -0.0281428 0)
(-0.0112711 -0.026595 0)
(-0.012715 -0.0248081 0)
(-0.0140136 -0.0227828 0)
(-0.0151402 -0.020561 0)
(-0.0160639 -0.018139 0)
(-0.0167612 -0.0155982 0)
(-0.0172126 -0.012936 0)
(-0.0174082 -0.0102571 0)
(-0.0173545 -0.00757918 0)
(-0.0170673 -0.00498574 0)
(-0.0165763 -0.00250324 0)
(-0.0159153 -0.000176612 0)
(-0.0151226 0.00197708 0)
(-0.0142348 0.00394332 0)
(-0.0132863 0.00571969 0)
(-0.0123074 0.00731049 0)
(-0.0113233 0.00872235 0)
(-0.000790881 -0.0303093 0)
(-0.00236627 -0.0300626 0)
(-0.00392232 -0.0295698 0)
(-0.00544537 -0.0288324 0)
(-0.00692035 -0.027853 0)
(-0.00833042 -0.0266367 0)
(-0.00965657 -0.0251891 0)
(-0.0108787 -0.0235237 0)
(-0.0119743 -0.0216501 0)
(-0.0129221 -0.0195983 0)
(-0.0136998 -0.0173809 0)
(-0.0142901 -0.0150512 0)
(-0.0146795 -0.0126268 0)
(-0.0148624 -0.0101747 0)
(-0.0148434 -0.00772299 0)
(-0.0146347 -0.00532857 0)
(-0.0142578 -0.0030207 0)
(-0.0137379 -0.000834167 0)
(-0.0131043 0.0012125 0)
(-0.0123854 0.00310466 0)
(-0.0116083 0.00483619 0)
(-0.0107977 0.00640735 0)
(-0.00997515 0.00782111 0)
(-0.000670771 -0.0288352 0)
(-0.00200646 -0.0286006 0)
(-0.00332434 -0.0281328 0)
(-0.00461193 -0.0274343 0)
(-0.00585587 -0.0265088 0)
(-0.00704167 -0.0253626 0)
(-0.00815354 -0.0240036 0)
(-0.009175 -0.022445 0)
(-0.0100884 -0.0207002 0)
(-0.0108772 -0.0187934 0)
(-0.0115251 -0.0167435 0)
(-0.0120193 -0.0145889 0)
(-0.0123508 -0.0123544 0)
(-0.0125161 -0.0100869 0)
(-0.0125189 -0.00781647 0)
(-0.0123686 -0.00558518 0)
(-0.0120809 -0.00342131 0)