/*--------------------------------*- C++ -*----------------------------------*\
| =========                 |                                                 |
| \\      /  F ield         | OpenFOAM: The Open Source CFD Toolbox           |
|  \\    /   O peration     | Version:  2012                                  |
|   \\  /    A nd           | Website:  www.openfoam.com                      |
|    \\/     M anipulation  |                                                 |
\*---------------------------------------------------------------------------*/
FoamFile
{
    version     2.0;
    format      ascii;
    class       volScalarField;
    location    "0.75";
    object      alpha.water;
}
// * * * * * * * * * * * * * * * * * * * * * * * * * * * * * * * * * * * * * //

dimensions      [0 0 0 0 0 0 0];


internalField   nonuniform List<scalar> 
2268
(
1
1
1
1
1
1
1
1
1
1
1
1
1
1
1
0.999743
0.972848
0.951543
0.973077
0.997339
0.997345
0.997211
0.997085
1
1
1
1
1
1
1
1
1
1
1
1
1
1
1
0.999997
0.98826
0.951595
0.945993
0.960812
0.967032
0.968972
0.997196
1
1
1
1
1
1
1
1
1
1
1
1
1
1
1
1
0.99999
0.987515
0.945781
0.939313
0.939297
0.943555
0.99952
1
1
1
1
1
1
1
1
1
1
1
1
1
1
1
1
1
0.999999
0.99517
0.978875
0.949225
1
0.999897
1
1
1
1
1
1
1
1
1
1
1
1
1
1
1
1
1
1
1
1
1
1
1
1
1
1
1
1
1
1
1
1
1
1
1
1
1
1
1
1
1
1
1
1
1
0.999988
1
1
1
1
1
1
1
1
1
1
1
1
1
1
1
1
1
1
1
1
1
1
0.999972
1
1
0.985011
0.966699
0.943719
0.927126
0.944241
0.997114
1
1
1
1
1
1
1
1
1
1
1
1
1
1
0.999984
0.969922
0.999761
0.999846
0.999853
0.956104
0.881191
0.858601
0.660685
0.660903
0.888362
0.888365
0.888359
0.888299
0.887772
0.885355
0.883124
0.885844
0.886217
0.815989
0.970027
0.999855
0.999871
0.999922
0.999924
0.999924
0.999924
0.725926
0.694984
0.888363
0.888359
0.759327
0.633354
0.566969
0.520405
0.530675
0.711806
0.886749
0.886749
0.970185
0.999722
0.999705
0.999853
0.999873
0.999924
0.96222
0.883797
0.883866
0.791206
0.189134
0.0763811
0.0797054
0.0949379
0.13778
0.108304
0.0871803
0.428701
0.886749
0.982281
0.999648
0.833553
0.927278
0.998333
0.999739
0.912044
0.92366
0.80153
0.186735
0.0285212
0.0418722
0.0540021
0.342868
0.716142
0.688626
0.0988383
0.069823
0.415226
0.99516
0.915103
0.682353
0.825444
0.997057
0.994053
0.942752
0.92175
0.486638
0.0226871
0.0210716
0.0285585
0.110514
0.770487
0.790334
0.790376
0.166954
0.0693817
0.0696404
0.995068
0.681054
0.681566
0.907916
0.99389
0.993735
0.99307
0.747401
0.0224726
0.0126692
0.0169795
0.0232895
0.378983
0.789913
0.790421
0.790334
0.625946
0.0751565
0.156419
0.763215
0.679016
0.813683
0.968092
0.991528
0.99307
0.971777
0.480945
0.0111131
0.00820041
0.0127007
0.0457928
0.744982
0.790063
0.789918
0.789339
0.784816
0.108795
0.493067
0.664384
0.844189
0.966653
0.621136
0.904429
0.991592
0.889285
0.190235
0.00506786
0.00644764
0.00820306
0.0361718
0.790299
0.790645
0.788717
0.784819
0.779821
0.115585
0.493108
0.395819
0.383159
0.375671
0.386228
0.445594
0.58931
0.766156
0.905241
0.977654
1
1
1
1
1
0.999999
1
1
0.999999
0.999999
0.999998
0.999996
0.999991
0.99998
0.0316215
0.0291473
0.0494838
0.076738
0.109897
0.163986
0.254731
0.365632
0.488542
0.630426
0.771125
0.862193
0.902854
0.93142
0.967386
0.983391
0.988462
0.990225
0.99763
0.999924
0.997001
0.98682
0.984644
0.000193495
1.87469e-05
1.13891e-05
1.75189e-05
1.92264e-05
1.71444e-05
0.00129403
0.00961803
0.0245826
0.0698272
0.161845
0.262946
0.333329
0.388544
0.473443
0.551079
0.605139
0.663025
0.693142
0.642164
0.492235
0.385645
0.369133
1.87297e-05
2.30572e-06
1.41035e-06
1.73551e-06
1.51754e-06
3.06343e-06
1.11249e-05
1.08462e-06
4.55751e-06
2.89815e-05
0.00529573
0.0560084
0.0914964
0.108592
0.159962
0.290217
0.37384
0.300108
0.0753949
0.00113883
0.00109316
0.00107694
0.00105931
2.30328e-06
5.04944e-07
1.88706e-07
1.56504e-07
9.58523e-08
6.5149e-08
5.71695e-08
5.21591e-08
4.25279e-07
4.5575e-06
2.89819e-05
0.000748568
0.00178412
0.00157307
0.00251876
0.00477113
0.0595044
0.147001
0.0887352
0.00188859
0.00113883
0.00109316
0.00107694
5.04748e-07
2.33345e-07
5.16301e-08
2.32249e-08
7.68469e-09
3.69795e-09
2.87613e-09
7.51474e-09
3.50868e-08
4.25285e-07
4.64002e-05
9.0564e-05
0.000137888
0.000341775
0.00122941
0.00707992
0.195339
0.389393
0.395919
0.184587
0.00144395
0.00116532
0.00334124
3.56575e-07
3.5359e-07
3.31214e-08
1.00787e-08
1.37119e-09
4.09089e-10
2.00179e-10
4.94532e-09
7.24223e-09
2.28576e-07
5.41175e-06
8.52308e-06
2.50167e-05
0.000121037
0.000617348
0.00301733
0.103235
0.395919
0.397732
0.384535
0.0187842
0.0016233
0.00281254
8.54519e-08
2.711e-07
5.78774e-08
6.42478e-09
4.9119e-10
1.62852e-10
3.80225e-11
1.25561e-08
2.7743e-08
3.49785e-08
7.85609e-08
5.83647e-07
4.09878e-06
2.86699e-05
0.000165582
0.000846477
0.0125593
0.234898
0.40055
0.409626
0.279201
0.00352795
0.00985381
8.04158e-09
3.65439e-08
3.5574e-08
9.93846e-09
1.40239e-09
8.46581e-11
2.67897e-11
1.38102e-08
1.76583e-07
1.92154e-07
3.18889e-07
3.39284e-07
7.01908e-07
4.66448e-06
3.41528e-05
0.000174477
0.00119467
0.07089
0.378508
0.411983
0.420578
0.331883
0.0966425
1.03984e-09
9.26051e-10
2.76707e-09
3.83003e-09
1.33404e-09
1.09067e-10
2.40377e-11
1.06693e-08
2.02063e-07
3.99662e-07
4.00022e-07
2.52015e-07
1.56234e-07
7.3658e-07
5.98456e-06
3.64087e-05
8.19515e-05
0.00032765
0.0394152
0.342906
0.4309
0.432451
0.432417
2.17211e-10
1.57804e-10
8.34259e-11
3.57442e-10
4.0276e-10
7.1861e-11
2.32799e-11
6.04434e-09
8.70654e-08
1.35583e-07
1.43832e-07
8.58426e-08
7.20156e-08
8.80392e-08
5.89775e-07
1.1526e-05
5.38538e-05
1.68012e-05
8.00559e-05
0.000412846
0.0906828
0.36952
0.432451
7.40473e-11
6.3563e-11
4.20053e-11
3.56984e-11
4.87721e-11
2.46039e-11
2.328e-11
2.38518e-09
7.83818e-10
8.6985e-10
1.28822e-09
5.16514e-09
5.38912e-08
1.26034e-08
9.07262e-08
5.667e-07
2.5183e-06
7.72932e-06
1.6736e-05
7.3315e-05
6.59332e-06
8.34036e-06
0.102343
2.86971e-11
1.7273e-11
1.11061e-11
6.28041e-12
7.43929e-12
1.20968e-11
2.48183e-11
5.30295e-10
1.23649e-10
1.9174e-10
4.59549e-10
2.74836e-10
1.08425e-08
3.38684e-09
9.73033e-09
4.69053e-08
2.88308e-07
7.40397e-05
0.000378629
7.07713e-05
8.54725e-06
5.65671e-06
8.54733e-06
7.08678e-12
2.62005e-12
1.5819e-12
1.04587e-12
2.32134e-12
7.89663e-12
2.16007e-11
1.05809e-10
8.6961e-11
1.26883e-10
4.05696e-10
1.76562e-10
2.50315e-10
2.00594e-09
1.44036e-09
5.75075e-09
3.64688e-08
2.90666e-07
0.000842694
0.00206146
6.63628e-06
2.52022e-06
7.21887e-05
1.18121e-12
2.95541e-13
1.84607e-13
1.70809e-13
9.68102e-13
4.54688e-12
1.28158e-11
2.88831e-11
5.67368e-11
9.748e-11
2.99939e-10
1.6293e-10
1.54052e-10
9.96599e-10
3.42576e-10
6.65166e-10
4.65905e-09
3.63688e-08
0.000775853
0.00258439
0.000451928
2.52087e-06
2.52826e-06
1.71528e-13
3.33978e-14
2.11457e-14
3.08744e-14
3.65747e-13
1.84104e-12
4.871e-12
1.05926e-11
3.56977e-11
7.15215e-11
1.71896e-10
1.32907e-10
1.40817e-10
3.4048e-10
1.76195e-10
1.46167e-10
6.32862e-10
3.64043e-09
0.000573651
0.00258439
0.00216949
2.52826e-06
2.52017e-06
2.38616e-14
3.805e-15
2.39489e-15
6.06228e-15
9.99625e-14
4.72455e-13
1.29023e-12
4.13512e-12
2.11477e-11
5.15572e-11
9.14549e-11
1.00328e-10
1.12628e-10
1.43121e-10
1.23262e-10
8.21408e-11
7.88903e-11
6.25213e-10
3.01224e-05
0.00229346
0.00270632
0.00194018
2.90924e-06
3.22577e-15
4.30622e-16
2.63288e-16
1.1489e-15
1.87106e-14
8.3483e-14
2.72706e-13
1.41477e-12
1.04183e-11
3.38127e-11
5.5194e-11
7.16824e-11
7.87496e-11
8.17988e-11
7.89151e-11
7.41281e-11
2.00622e-11
-2.7416e-10
1.60599e-08
0.000136168
0.00268718
0.00269058
0.00260741
4.19299e-16
4.82173e-17
2.79143e-17
1.88637e-16
2.72479e-15
1.26326e-14
5.38508e-14
3.82126e-13
3.65161e-12
1.71028e-11
3.24911e-11
4.50936e-11
4.63292e-11
4.49221e-11
4.44865e-11
5.97715e-11
9.92981e-12
-1.47371e-11
2.07831e-09
5.60345e-07
0.000272694
0.00105987
0.00174054
5.21205e-17
5.32378e-18
2.85742e-18
2.63161e-17
3.61548e-16
1.8793e-15
1.11618e-14
8.43074e-14
8.26795e-13
5.59328e-12
1.45358e-11
2.18524e-11
2.11546e-11
1.90176e-11
1.96841e-11
3.80202e-11
8.99289e-12
6.74488e-12
-1.35587e-09
6.19183e-08
1.51349e-06
2.26414e-06
2.9917e-05
6.19407e-18
5.76811e-19
2.82744e-19
3.27035e-18
4.56938e-17
2.7446e-16
2.4082e-15
1.75066e-14
1.30711e-13
1.06036e-12
3.94537e-12
7.00878e-12
6.74846e-12
5.50786e-12
5.83404e-12
1.69695e-11
8.55539e-12
-9.65566e-13
-1.69793e-12
5.28576e-09
8.8008e-08
9.68465e-08
3.7777e-08
7.04037e-19
6.09774e-20
2.70398e-20
3.78159e-19
5.41319e-18
3.79508e-17
4.89035e-16
3.65028e-15
1.89874e-14
1.29129e-13
5.92764e-13
1.34337e-12
1.38023e-12
1.08591e-12
1.10292e-12
4.73658e-12
4.66222e-12
8.57076e-13
-1.20745e-11
4.02649e-10
3.9104e-09
3.13682e-09
8.2964e-09
7.62678e-20
6.22826e-21
2.49046e-21
4.12136e-20
5.96384e-19
4.87817e-18
8.45782e-17
7.04435e-16
3.05242e-15
1.42768e-14
5.99002e-14
1.61437e-13
1.91872e-13
1.58663e-13
1.45555e-13
6.3009e-13
1.30584e-12
5.29356e-13
7.18644e-13
3.3006e-11
1.44883e-10
9.92251e-11
5.81771e-10
7.71939e-21
5.95593e-22
2.16654e-22
4.23364e-21
6.14398e-20
5.80385e-19
1.19571e-17
1.13203e-16
5.04342e-16
1.79991e-15
5.90494e-15
1.57133e-14
2.13394e-14
1.92293e-14
1.59872e-14
4.12476e-14
1.61205e-13
2.21991e-13
2.42295e-13
2.15933e-12
8.40276e-12
6.20934e-12
3.14514e-11
6.45223e-22
4.36766e-23
1.66413e-23
4.10776e-22
5.96186e-21
6.3813e-20
1.41634e-18
1.46285e-17
7.4083e-17
2.40719e-16
6.48448e-16
1.54254e-15
2.19515e-15
2.08518e-15
1.63741e-15
2.17353e-15
9.95693e-15
6.91961e-14
1.44051e-13
1.65818e-13
3.90903e-13
1.83178e-12
4.04062e-12
1.23565e-23
1.01228e-24
6.04723e-25
3.78688e-23
5.47509e-22
6.48208e-21
1.48097e-19
1.58578e-18
8.96329e-18
2.97239e-17
7.22887e-17
1.54976e-16
2.17331e-16
2.09283e-16
1.5844e-16
1.51765e-16
4.64157e-16
1.25363e-14
4.78996e-14
7.26612e-14
1.63851e-13
3.63683e-13
5.82238e-13
-1.23998e-23
-4.85671e-24
0
3.18155e-24
4.77141e-23
6.11181e-22
1.42025e-20
1.53715e-19
9.06766e-19
3.16109e-18
7.43745e-18
1.49354e-17
2.02683e-17
1.94645e-17
1.43328e-17
1.21646e-17
2.06483e-17
6.81541e-16
4.28927e-15
9.42495e-15
2.10745e-14
3.13742e-14
4.4422e-14
-5.63812e-23
-6.71205e-24
-4.21919e-25
1.28396e-25
3.97802e-24
5.39959e-23
1.2715e-21
1.38272e-20
8.16075e-20
2.91962e-19
6.83361e-19
1.32447e-18
1.73895e-18
1.65771e-18
1.18854e-18
9.50015e-19
1.10476e-18
7.75887e-18
8.22302e-17
2.87084e-16
7.5336e-16
1.44333e-15
3.5676e-15
-4.83848e-23
-4.73194e-24
-3.86404e-25
0
3.2511e-25
4.51139e-24
1.07232e-22
1.16879e-21
6.84679e-21
2.44723e-20
5.68689e-20
1.07659e-19
1.36595e-19
1.28839e-19
9.08293e-20
6.71448e-20
6.83427e-20
9.85928e-20
1.34912e-18
7.14513e-18
2.72152e-17
1.42381e-16
1.04127e-15
-3.04987e-23
-2.66433e-24
-2.31612e-25
-4.66385e-28
2.31664e-26
3.58488e-25
8.57617e-24
9.34064e-23
5.44039e-22
1.92404e-21
4.39862e-21
8.13975e-21
9.91633e-21
9.22245e-21
6.42628e-21
4.26821e-21
4.1942e-21
6.86791e-21
6.15934e-20
3.0739e-19
3.3419e-18
4.46242e-17
4.66848e-16
-1.63084e-23
-1.31592e-24
-1.15258e-25
-5.18033e-27
5.68323e-28
2.73848e-26
6.54094e-25
7.10016e-24
4.10896e-23
1.4355e-22
3.21204e-22
5.80228e-22
6.73101e-22
6.15589e-22
4.21612e-22
2.51111e-22
2.4133e-22
4.85083e-22
3.01316e-21
2.16356e-20
7.66584e-19
1.54212e-17
1.7125e-16
-7.76462e-24
-5.91186e-25
-5.07864e-26
-3.33013e-27
2.07752e-44
2.07187e-27
4.78064e-26
5.16244e-25
2.96127e-24
1.02006e-23
2.22892e-23
3.92607e-23
4.30789e-23
3.86674e-23
2.57781e-23
1.39754e-23
1.30083e-23
2.80661e-23
1.4164e-22
1.93444e-21
1.50604e-19
3.6773e-18
4.26138e-17
-3.36508e-24
-2.45794e-25
-2.03773e-26
-1.54804e-27
-5.4921e-30
1.38804e-28
3.36357e-27
3.60992e-26
2.04765e-25
6.93452e-25
1.47682e-24
2.52779e-24
2.61981e-24
2.29971e-24
1.47642e-24
7.42651e-25
6.61273e-25
1.49372e-24
7.37569e-24
1.54658e-22
1.70267e-20
5.32787e-19
7.1781e-18
-1.34296e-24
-9.53806e-26
-7.55705e-27
-6.10185e-28
-2.38772e-29
5.44386e-30
2.29827e-28
2.44234e-27
1.36707e-26
4.53744e-26
9.3969e-26
1.54802e-25
1.53212e-25
1.29907e-25
7.95543e-26
3.75497e-26
3.22933e-26
7.81455e-26
4.32332e-25
9.50867e-24
1.07626e-21
5.3805e-20
9.23937e-19
-4.96759e-25
-3.46833e-26
-2.61285e-27
-2.14297e-28
-1.22365e-29
-1.64786e-48
1.55671e-29
1.60985e-28
8.87279e-28
2.87714e-27
5.77794e-27
9.04213e-27
8.69302e-27
6.98501e-27
4.05241e-27
1.80336e-27
1.53936e-27
4.21677e-27
2.99121e-26
6.14192e-25
6.64643e-23
5.52924e-21
1.15025e-19
-1.70974e-25
-1.18367e-26
-8.4656e-28
-6.85315e-29
-4.53324e-30
2.55622e-48
1.03536e-30
1.04105e-29
5.63919e-29
1.78042e-28
3.45468e-28
5.10026e-28
4.75583e-28
3.60476e-28
1.96097e-28
8.24263e-29
7.28763e-29
2.52623e-28
2.75008e-27
6.72931e-26
7.84255e-24
7.83158e-22
1.6373e-20
-5.48948e-26
-3.7918e-27
-2.57741e-28
-2.01874e-29
-1.41501e-30
-2.88415e-32
6.26488e-32
6.65356e-31
3.5347e-30
1.08258e-29
2.021e-29
2.8003e-29
2.51729e-29
1.79329e-29
9.04674e-30
3.60686e-30
3.50469e-30
1.79686e-29
3.30233e-28
1.09728e-26
1.39191e-24
1.30123e-22
2.34229e-21
-1.64763e-26
-1.13989e-27
-7.37944e-29
-5.51423e-30
-3.91125e-31
-1.35097e-32
3.27039e-33
4.2452e-32
2.19869e-31
6.5069e-31
1.16332e-30
1.50575e-30
1.29759e-30
8.63719e-31
3.99933e-31
1.53037e-31
1.74424e-31
1.45882e-30
4.16102e-29
1.81893e-27
2.30716e-25
1.77324e-23
2.55382e-22
-4.63328e-27
-3.21603e-28
-1.98643e-29
-1.40243e-30
-9.79478e-32
-4.087e-33
6.04358e-35
2.72572e-33
1.36387e-32
3.88466e-32
6.62023e-32
7.97712e-32
6.55246e-32
4.05026e-32
1.70654e-32
6.39349e-33
9.03101e-33
1.16981e-31
4.29843e-30
2.2348e-28
2.49197e-26
1.46509e-24
1.69476e-23
-1.22409e-27
-8.5151e-29
-5.01889e-30
-3.32737e-31
-2.24962e-32
-1.0051e-33
1.2383e-51
1.75414e-34
8.46503e-34
2.31329e-33
3.74593e-33
4.19681e-33
3.26381e-33
1.86332e-33
7.106e-34
2.65084e-34
4.79346e-34
8.18096e-33
3.15706e-31
1.67683e-29
1.4477e-27
6.46736e-26
6.40094e-25
-3.04967e-28
-2.12611e-29
-1.19476e-30
-7.40378e-32
-4.79557e-33
-2.15932e-34
-3.90048e-53
1.12626e-35
5.30442e-35
1.34755e-34
1.92199e-34
1.91203e-34
1.46527e-34
7.60117e-35
2.06859e-35
5.94664e-36
1.8564e-35
4.9263e-34
1.71661e-32
7.92522e-31
5.12312e-29
1.86563e-27
1.61888e-26
-7.19295e-29
-4.94778e-30
-2.61474e-31
-1.51488e-32
-9.33103e-34
-4.01494e-35
-1.21752e-37
3.65823e-37
1.7125e-36
6.5542e-36
1.78491e-35
2.31823e-35
1.23645e-35
6.74977e-36
5.65051e-36
5.65051e-36
5.65051e-36
1.47285e-35
4.43835e-34
1.69715e-32
8.79301e-31
2.73784e-29
1.93147e-28
0.999753
0.999533
0.999331
0.999017
0.983801
0.975657
0.949747
0.903001
0.36671
0.343094
0.272706
0.171116
0.00104508
0.0010371
0.00103382
0.00103312
0.00105932
0.00104312
0.00103513
0.00103382
0.00336319
0.00189154
0.0010524
0.00103513
0.0551485
0.0818318
0.0732914
0.0715161
0.0150965
0.0506424
0.292131
0.412861
0.0978813
0.0591207
0.0907593
0.362495
0.432417
0.202955
0.143136
0.379675
0.417624
0.393755
0.33934
0.124056
0.123323
5.46434e-05
7.19035e-05
7.53927e-05
1.35675e-05
3.03674e-05
6.12943e-05
0.000278585
0.000189322
0.000189355
0.000196955
0.000214402
5.20107e-06
1.14565e-05
1.3757e-05
1.61717e-05
3.18652e-06
3.96114e-05
5.71246e-05
0.000103155
3.20292e-06
5.67778e-06
0.000421721
0.00109391
0.002473
0.00199904
0.00198966
0.00196251
0.00245459
0.00207708
0.000945339
7.9907e-05
5.22811e-05
8.05128e-06
5.17714e-08
1.69062e-08
2.21276e-07
6.60897e-08
-1.49455e-09
-4.18967e-11
5.1563e-09
1.28339e-10
-7.80028e-11
-2.44227e-12
3.70654e-10
1.09481e-10
2.74087e-11
1.02412e-11
2.43726e-11
1.48212e-11
1.18787e-11
1.08637e-11
4.84777e-12
4.96936e-12
5.16517e-12
5.15615e-12
7.65455e-13
8.73313e-13
1.00119e-12
1.10817e-12
5.82899e-14
7.1527e-14
9.62846e-14
1.2415e-13
6.93984e-15
1.11745e-14
1.93395e-14
2.87993e-14
2.68345e-15
4.85402e-15
8.86297e-15
1.34237e-14
1.24511e-15
2.26346e-15
4.06424e-15
5.99771e-15
4.48485e-16
8.00795e-16
1.42119e-15
2.02666e-15
1.10583e-16
1.95626e-16
3.54015e-16
5.00968e-16
1.90015e-17
3.37254e-17
6.24963e-17
9.11789e-17
2.5433e-18
4.52606e-18
8.43755e-18
1.31877e-17
3.25842e-19
5.69408e-19
1.09081e-18
1.92195e-18
4.54493e-20
7.58986e-20
1.63497e-19
3.40658e-19
5.99146e-21
9.68383e-21
3.12966e-20
7.82727e-20
5.83338e-22
1.03479e-21
5.34555e-21
1.46151e-20
3.57547e-23
8.4084e-23
5.22162e-22
2.39194e-21
1.3256e-24
4.45396e-24
3.74459e-23
6.57934e-22
3.26796e-26
1.47924e-25
1.91435e-24
9.96979e-23
5.06231e-28
2.2753e-27
3.53555e-26
2.40017e-24
0.976657
0.975434
0.971824
0.312265
0.468931
0.984278
0.745519
0.0274021
0.00306256
0.00492145
0.00644858
0.284419
0.790629
0.790164
0.785535
0.694914
0.461688
0.148841
0.49306
0.780105
0.608228
0.445226
0.290464
0.835468
0.97115
0.617479
0.00307024
0.00226708
0.00306777
0.0553604
0.718946
0.790164
0.78707
0.488187
0.123957
0.076404
0.14472
0.492643
0.029827
0.00113117
0.007981
0.131521
0.706455
0.963614
0.630188
0.00227242
0.00191728
0.00197822
0.181304
0.778546
0.786906
0.544393
0.0292381
0.0195638
0.0194184
0.083645
0.392635
0.00103382
0.00103382
0.00113142
0.00879231
0.432656
0.954794
0.671961
0.00294111
0.00162381
0.00144778
0.21107
0.775011
0.773345
0.3584
0.0210775
0.0192954
0.0210775
0.0237415
0.444483
0.00103308
0.00103847
0.00108677
0.00154331
0.182893
0.838418
0.720863
0.00162381
0.00144778
0.00144699
0.105985
0.602015
0.518718
0.437832
0.0233046
0.0210775
0.0237415
0.0456992
0.707769
0.00103698
0.00108592
0.00141331
0.00159855
0.0601702
0.599655
0.723734
0.123394
0.00144699
0.00144699
0.0216135
0.0641703
0.0417515
0.392885
0.350071
0.287218
0.427596
0.601202
0.851517
0.058165
0.0243446
0.0026949
0.003556
0.00459583
0.174175
0.723734
0.632862
0.00322476
0.00144699
0.00825742
0.013919
0.0151881
0.125405
0.714584
0.816555
0.88489
0.891247
0.891029
0.415184
0.389549
0.20249
0.0592212
0.00894223
0.0113467
0.396083
0.752672
0.0136073
0.00148109
0.00243352
0.0276949
0.0219094
0.0166517
0.225681
0.356235
0.526299
0.873944
0.891284
0.414743
0.415416
0.413057
0.409314
0.202119
0.260341
0.619535
0.754279
0.440181
0.00206468
0.0033645
0.0587623
0.0269853
0.000210485
2.85444e-05
0.000210485
0.00180699
0.335061
0.890818
0.414743
0.32115
0.295656
0.316643
0.479439
0.672538
0.754243
0.754045
0.754045
0.132958
0.255596
0.278306
0.0261508
2.85444e-05
1.08271e-05
2.2547e-05
0.000216014
0.0321356
0.827025
0.0251302
0.000126942
0.000126496
6.68668e-05
0.0747379
0.27504
0.523264
0.729577
0.744273
0.709002
0.599083
0.272889
0.00400168
1.08271e-05
5.50845e-06
8.05211e-07
4.81427e-05
0.0197033
0.198263
8.16739e-05
0.00012908
9.51968e-05
1.11864e-05
2.41213e-05
0.000122685
0.0274187
0.206788
0.389076
0.393166
0.213283
0.0684287
0.00363161
4.82971e-06
1.6342e-06
2.01002e-07
-1.41482e-07
0.000261728
0.000750852
0.000297767
0.000300871
0.000191627
2.40278e-07
1.09966e-06
5.29117e-06
0.000146936
0.000220885
0.0043279
0.00810641
8.90726e-05
5.68295e-05
0.00162051
5.50443e-06
2.70827e-06
4.6759e-08
2.78245e-08
0.000602062
0.0300827
8.80442e-05
4.11738e-06
2.40278e-07
3.1163e-08
-1.97317e-08
-2.13085e-07
9.01102e-07
6.48125e-05
3.94325e-06
2.87289e-05
1.74306e-06
4.74518e-07
2.13143e-06
1.09881e-05
3.40319e-06
2.63433e-08
1.25119e-08
0.000252944
0.052341
1.51464e-05
3.39102e-06
3.18071e-08
1.554e-08
9.63162e-09
2.48163e-09
-1.79883e-09
-1.47687e-09
1.5196e-06
-1.10822e-08
-2.32338e-08
8.24608e-10
2.2219e-09
5.79482e-07
4.98308e-08
1.0384e-07
9.0114e-09
2.45744e-07
0.0524636
0.000248562
0.000238098
4.89073e-05
2.52629e-08
2.47845e-09
1.31822e-09
1.24441e-09
1.14483e-09
1.16825e-09
1.40635e-09
1.51555e-09
1.61499e-09
1.67029e-09
2.2219e-09
6.36625e-09
8.98843e-09
9.00852e-09
9.00852e-09
0.0478162
0.00127794
0.00080479
0.000170221
3.52493e-07
5.641e-08
5.67088e-09
1.14957e-09
1.13312e-09
3.39923e-09
3.48431e-09
2.74576e-09
1.70274e-09
7.68896e-09
1.05786e-07
8.97954e-08
1.56046e-08
8.99169e-09
7.17901e-05
0.0104132
0.00126726
0.000272429
0.000116262
4.19887e-06
2.24817e-06
2.28232e-08
1.08677e-09
1.04439e-09
9.83766e-10
9.83729e-10
9.83752e-10
1.94047e-09
1.97285e-07
2.90333e-07
2.88744e-07
5.44273e-08
9.76656e-09
3.40583e-05
0.042399
1.83288e-07
2.38942e-08
3.38724e-09
9.23469e-06
4.83616e-06
1.74718e-08
7.4296e-09
1.2749e-09
9.84477e-10
9.83766e-10
9.83752e-10
4.90285e-08
2.90333e-07
2.90333e-07
2.90333e-07
7.2812e-08
1.88732e-08
5.68157e-08
0.0826127
2.39242e-09
3.24715e-10
7.30878e-10
9.22056e-10
8.83365e-10
3.14115e-08
3.55118e-08
3.78186e-09
9.91921e-10
9.84477e-10
9.83954e-10
3.72122e-08
2.84049e-07
2.90333e-07
1.55921e-07
6.76424e-08
2.01812e-06
8.44541e-08
0.0827722
3.09084e-11
2.46337e-11
5.82939e-10
1.06131e-09
8.32632e-10
7.91252e-10
8.1575e-10
9.45183e-10
1.47003e-09
1.14233e-09
9.87546e-10
1.03689e-09
8.43464e-08
2.3553e-07
1.35168e-08
1.87223e-08
3.57675e-05
1.53576e-07
0.0828043
1.3357e-11
1.49166e-11
1.51469e-09
2.32945e-09
1.83582e-09
7.76094e-10
7.82649e-10
1.14559e-09
1.70511e-09
1.34861e-09
1.03689e-09
1.20575e-09
3.59613e-09
6.55651e-09
8.87846e-09
6.39321e-06
4.20906e-05
4.83436e-07
0.0830365
1.3051e-11
1.47137e-11
1.47241e-11
9.39964e-11
4.17505e-10
7.69946e-10
8.19198e-10
1.14185e-09
1.48365e-09
1.39709e-09
1.6964e-09
3.28902e-09
7.20832e-09
1.8611e-08
1.19507e-08
3.68476e-05
4.2185e-05
2.09805e-06
0.0831173
9.10786e-12
1.16462e-11
3.54869e-11
1.92035e-10
6.27957e-10
7.75743e-10
7.46833e-10
7.69608e-10
7.02337e-10
1.14649e-09
1.77368e-07
8.73033e-07
5.12223e-07
4.70824e-08
1.55605e-08
4.40843e-05
2.53803e-05
5.89196e-07
0.0830851
5.08182e-12
8.73333e-12
4.54015e-11
2.94838e-10
7.07209e-10
7.75824e-10
4.60504e-10
3.97941e-10
5.43453e-10
1.89069e-07
1.74861e-06
2.00198e-06
1.44093e-06
4.15407e-08
2.27296e-08
4.41402e-05
5.90499e-07
5.89256e-07
0.0829739
1.35835e-12
7.51582e-12
5.98493e-11
3.44306e-10
6.97923e-10
6.78183e-10
5.8801e-11
6.47417e-11
6.66232e-08
1.92332e-06
2.03838e-06
2.02421e-06
1.17829e-06
3.94225e-08
1.64664e-07
4.414e-05
6.10107e-07
5.89256e-07
0.0827539
4.36238e-13
8.6045e-12
6.73456e-11
2.58374e-10
5.25126e-10
3.44352e-10
1.58184e-11
2.26397e-11
1.73845e-06
2.06775e-06
2.05254e-06
1.2731e-06
1.04834e-07
3.4399e-08
1.39546e-06
2.9412e-05
5.57249e-07
6.07857e-07
0.0820547
3.54618e-13
8.28704e-12
4.7473e-11
1.75459e-10
2.56628e-10
1.2369e-10
1.36173e-11
8.00356e-07
2.10947e-06
2.08992e-06
5.61017e-07
3.39555e-08
3.38502e-08
3.41958e-08
1.06635e-07
4.67605e-08
5.70956e-08
5.92607e-07
0.0573799
2.56618e-13
4.69666e-12
2.58168e-11
1.12238e-10
1.55832e-10
6.94591e-11
1.25802e-11
1.95153e-06
2.10947e-06
4.88947e-07
3.51836e-08
3.38502e-08
3.38503e-08
3.38502e-08
3.3861e-08
3.48293e-08
2.73215e-06
0.000377809
0.000108024
1.38764e-13
2.68135e-12
2.00878e-11
8.94584e-11
1.00135e-10
4.49598e-11
1.19947e-11
4.94191e-07
2.10947e-06
1.24981e-07
4.28579e-08
3.51836e-08
3.38503e-08
3.1887e-07
1.14072e-06
4.58758e-08
3.62461e-05
0.00048837
0.000108233
8.40587e-14
2.04477e-12
1.77318e-11
5.49178e-11
5.62219e-11
2.98689e-11
1.17529e-11
1.17529e-11
1.09391e-06
4.44588e-07
1.6594e-06
2.4181e-06
1.1577e-07
9.75396e-07
2.27215e-06
5.42203e-08
4.4201e-05
0.000490019
0.000108106
4.82585e-14
1.22967e-12
8.55968e-12
1.9619e-11
2.11763e-11
1.56492e-11
1.18202e-11
1.17529e-11
1.17523e-11
1.44353e-06
3.60241e-06
1.3211e-05
1.32169e-05
1.31475e-05
2.58093e-06
5.67741e-08
8.49324e-06
0.000484976
0.000114829
1.54101e-14
3.2333e-13
1.54002e-12
3.66758e-12
8.18863e-12
9.8145e-12
1.32153e-11
1.1752e-11
2.34454e-08
1.45622e-06
2.19733e-06
1.29313e-05
1.3211e-05
1.30827e-05
2.62007e-06
1.04987e-08
8.76729e-09
0.000231603
5.65033e-05
1.87193e-15
2.80749e-14
1.19405e-13
7.86485e-13
4.44154e-12
6.89759e-12
3.20013e-11
1.1804e-11
2.64365e-08
4.7606e-08
2.40464e-07
1.39559e-06
6.045e-06
5.14784e-07
3.46429e-09
7.97679e-09
8.21474e-09
7.93817e-09
1.56899e-07
1.55973e-16
2.04965e-15
1.94969e-14
3.79178e-13
2.21725e-12
3.40191e-12
4.2627e-11
5.34651e-11
7.02037e-13
7.12906e-13
5.48264e-08
3.85739e-10
2.87416e-10
2.80154e-10
2.87415e-10
2.35883e-08
8.28988e-09
7.25951e-09
7.2705e-09
3.79384e-17
4.42499e-16
7.09561e-15
1.49797e-13
4.65117e-13
1.05369e-12
2.19752e-11
4.44488e-11
1.86901e-11
9.26355e-13
3.09575e-15
4.19673e-09
3.86523e-09
1.48524e-10
9.75675e-08
7.58066e-07
3.87818e-07
5.49266e-08
6.50777e-09
1.3002e-17
1.12405e-16
1.76045e-15
1.6668e-14
4.55449e-14
6.08023e-13
1.02381e-12
5.50084e-12
3.27993e-12
5.70976e-13
-1.22273e-37
-3.5379e-14
-9.39916e-33
2.23125e-13
8.46081e-07
1.01665e-06
1.01583e-06
3.94751e-07
3.86178e-09
3.65772e-18
1.9976e-17
1.85211e-16
4.39851e-16
4.70186e-15
4.07958e-13
2.64304e-13
6.22007e-14
1.15122e-32
-3.39973e-14
-4.67254e-14
-4.78355e-14
2.61088e-34
1.80339e-09
9.9938e-07
1.01576e-06
1.01661e-06
4.6847e-07
4.41352e-10
6.04905e-19
2.07113e-18
8.37016e-18
6.17977e-18
3.24813e-16
2.28817e-14
1.77032e-14
3.31531e-15
-1.45548e-14
-3.01626e-14
-3.07312e-14
-2.70214e-14
-1.30544e-34
2.16103e-07
9.499e-07
4.38872e-07
4.6209e-07
6.87011e-08
2.45745e-12
4.4589e-20
1.1156e-19
2.06963e-19
-2.15358e-19
4.09377e-18
9.65609e-17
5.85921e-17
6.82022e-18
-6.92245e-15
-1.13127e-14
-9.60669e-15
-7.17062e-15
-1.60711e-18
3.93752e-06
4.66741e-07
1.01018e-11
5.98187e-14
7.23777e-15
2.25329e-12
1.25793e-21
2.49444e-21
4.06179e-21
-4.63848e-19
-1.34072e-19
-4.87528e-22
4.16478e-21
-1.88482e-19
-9.19487e-16
-1.01882e-15
-5.83167e-16
-2.81589e-16
7.26202e-08
4.38688e-06
3.58683e-07
3.65208e-12
7.19882e-15
3.89462e-17
4.64985e-13
8.67306e-24
1.21357e-23
1.35628e-23
-1.83504e-19
-2.37809e-20
-1.60142e-21
-4.82257e-22
-2.36062e-22
-7.39359e-23
-1.64809e-23
-2.85679e-24
-4.77876e-25
8.14934e-08
2.3466e-06
3.19255e-08
-6.04075e-27
-1.17902e-29
5.76825e-33
8.7831e-38
)
;

boundaryField
{
    leftWall
    {
        type            zeroGradient;
    }
    rightWall
    {
        type            zeroGradient;
    }
    lowerWall
    {
        type            zeroGradient;
    }
    atmosphere
    {
        type            inletOutlet;
        inletValue      uniform 0;
        value           nonuniform List<scalar> 
46
(
-7.19295e-29
-4.94778e-30
-2.61474e-31
-1.51488e-32
-9.33103e-34
-4.01494e-35
-1.21752e-37
3.65823e-37
1.7125e-36
6.5542e-36
1.78491e-35
2.31823e-35
1.23645e-35
6.74977e-36
5.65051e-36
5.65051e-36
5.65051e-36
1.47285e-35
4.43835e-34
1.69715e-32
8.79301e-31
2.73784e-29
1.93147e-28
5.06231e-28
2.2753e-27
3.53555e-26
0
0
0
0
0
0
0
0
0
0
0
0
0
0
0
0
0
0
0
0
)
;
    }
    defaultFaces
    {
        type            empty;
    }
}


// ************************************************************************* //
