/*--------------------------------*- C++ -*----------------------------------*\
| =========                 |                                                 |
| \\      /  F ield         | OpenFOAM: The Open Source CFD Toolbox           |
|  \\    /   O peration     | Version:  2012                                  |
|   \\  /    A nd           | Website:  www.openfoam.com                      |
|    \\/     M anipulation  |                                                 |
\*---------------------------------------------------------------------------*/
FoamFile
{
    version     2.0;
    format      ascii;
    class       surfaceScalarField;
    location    "0.75";
    object      alphaPhi0.water;
}
// * * * * * * * * * * * * * * * * * * * * * * * * * * * * * * * * * * * * * //

dimensions      [0 3 -1 0 0 0 0];
oriented        oriented;


internalField   nonuniform List<scalar> 
4432
(
-4.07361e-06
4.07361e-06
-8.48692e-06
4.41331e-06
-1.20502e-05
3.56329e-06
-1.51032e-05
3.05294e-06
-1.73602e-05
2.25705e-06
-1.76019e-05
2.4168e-07
-1.56016e-05
-2.00033e-06
-1.27259e-05
-2.87566e-06
-1.05916e-05
-2.13428e-06
-9.6667e-06
-9.24914e-07
-9.74134e-06
7.46403e-08
-1.05457e-05
8.0433e-07
-1.1846e-05
1.30034e-06
-1.35014e-05
1.65541e-06
-1.54144e-05
1.91301e-06
-1.68526e-05
1.48588e-06
-1.70533e-05
7.58224e-07
-1.91955e-05
2.28645e-06
-2.49689e-05
4.78338e-06
-2.80266e-05
3.06758e-06
-2.36948e-05
-4.32156e-06
-1.24816e-05
-1.11926e-05
-1.24757e-05
-5.60353e-06
9.67714e-06
-1.00801e-05
8.88987e-06
-1.32868e-05
6.77001e-06
-1.61395e-05
5.90558e-06
-1.82032e-05
4.32081e-06
-1.83658e-05
4.04307e-07
-1.62852e-05
-4.08094e-06
-1.31363e-05
-6.02457e-06
-1.07198e-05
-4.55076e-06
-9.61338e-06
-2.03138e-06
-9.4274e-06
-1.11337e-07
-9.7583e-06
1.13522e-06
-1.03998e-05
1.94184e-06
-1.13543e-05
2.60996e-06
-1.28037e-05
3.36239e-06
-1.52251e-05
3.9075e-06
-1.84081e-05
4.47728e-06
-2.21728e-05
6.18236e-06
-2.36878e-05
6.67929e-06
-2.16825e-05
7.85364e-07
-1.61642e-05
-9.49514e-06
-8.67359e-06
-1.85712e-05
-2.12627e-05
-4.89775e-06
1.45749e-05
-8.73564e-06
1.27278e-05
-1.1943e-05
9.97733e-06
-1.52716e-05
9.23419e-06
-1.79559e-05
7.00509e-06
-1.84774e-05
9.25852e-07
-1.66406e-05
-5.91775e-06
-1.37192e-05
-8.94593e-06
-1.13364e-05
-6.93357e-06
-1.01594e-05
-3.20844e-06
-9.94198e-06
-3.28711e-07
-1.01311e-05
1.32437e-06
-1.03098e-05
2.12053e-06
-1.02589e-05
2.55901e-06
-1.00489e-05
3.15246e-06
-1.03454e-05
4.20393e-06
-1.17149e-05
5.85051e-06
-1.26829e-05
7.74165e-06
-1.19415e-05
6.31819e-06
-9.69852e-06
-1.54942e-06
-6.52289e-06
-1.27599e-05
-2.97988e-06
-2.30705e-05
-2.4334e-05
-3.54496e-06
1.81198e-05
-6.7132e-06
1.5896e-05
-9.74539e-06
1.30095e-05
-1.2782e-05
1.22708e-05
-1.50366e-05
9.25974e-06
-1.56203e-05
1.50956e-06
-1.45927e-05
-6.94539e-06
-1.30463e-05
-1.04923e-05
-1.17335e-05
-8.2464e-06
-1.09405e-05
-4.00149e-06
-1.08124e-05
-4.56734e-07
-1.10764e-05
1.58837e-06
-1.12899e-05
2.33397e-06
-1.10751e-05
2.34422e-06
-1.02296e-05
2.30701e-06
-8.86827e-06
2.84256e-06
-7.14136e-06
4.1236e-06
-4.81898e-06
5.41929e-06
-1.82093e-06
3.50067e-06
7.74807e-07
-4.22206e-06
1.55903e-06
-1.43098e-05
1.49123e-06
-2.30027e-05
-2.28481e-05
-1.76962e-06
1.98895e-05
-3.77704e-06
1.79034e-05
-5.94712e-06
1.51796e-05
-7.80117e-06
1.41248e-05
-8.79581e-06
1.02544e-05
-9.08662e-06
1.80037e-06
-9.47171e-06
-6.5603e-06
-1.03915e-05
-9.57254e-06
-1.13236e-05
-7.31432e-06
-1.16853e-05
-3.63976e-06
-1.18574e-05
-2.84635e-07
-1.21313e-05
1.86223e-06
-1.23135e-05
2.51618e-06
-1.2052e-05
2.08272e-06
-1.11523e-05
1.4073e-06
-9.53685e-06
1.22714e-06
-6.89477e-06
1.48152e-06
-3.03181e-06
1.55634e-06
1.27244e-06
-8.03589e-07
4.37025e-06
-7.31987e-06
4.55224e-06
-1.44918e-05
3.05221e-06
-2.15026e-05
-1.97959e-05
4.03528e-07
1.94859e-05
2.04903e-07
1.81021e-05
-5.73115e-07
1.59576e-05
-9.79012e-07
1.45307e-05
-4.45104e-07
9.72047e-06
-3.02591e-07
1.65786e-06
-2.7174e-06
-4.14549e-06
-6.65957e-06
-5.63038e-06
-1.01863e-05
-3.7876e-06
-1.21524e-05
-1.67368e-06
-1.29271e-05
4.90093e-07
-1.32815e-05
2.21665e-06
-1.33631e-05
2.59779e-06
-1.2916e-05
1.63564e-06
-1.18433e-05
3.3455e-07
-1.02801e-05
-3.36088e-07
-8.03486e-06
-7.63688e-07
-4.77944e-06
-1.69908e-06
-9.28081e-07
-4.65495e-06
2.18585e-06
-1.04338e-05
3.03538e-06
-1.53413e-05
2.56811e-06
-2.10354e-05
-1.72275e-05
2.31511e-06
1.71708e-05
4.03299e-06
1.63842e-05
5.71005e-06
1.42805e-05
7.71052e-06
1.25303e-05
9.01435e-06
8.41664e-06
7.49899e-06
3.17322e-06
2.37474e-06
9.78759e-07
-3.98082e-06
7.25183e-07
-9.16706e-06
1.39865e-06
-1.2359e-05
1.51831e-06
-1.38946e-05
2.02567e-06
-1.44995e-05
2.82151e-06
-1.45067e-05
2.60504e-06
-1.38005e-05
9.29425e-07
-1.23919e-05
-1.07412e-06
-1.06526e-05
-2.07538e-06
-8.62947e-06
-2.78677e-06
-6.06321e-06
-4.26533e-06
-3.06889e-06
-7.64927e-06
-3.73089e-07
-1.31296e-05
1.12242e-06
-1.68368e-05
1.82463e-06
-2.17376e-05
-1.54035e-05
4.30899e-06
1.28618e-05
9.08139e-06
1.16118e-05
1.28513e-05
8.14014e-06
1.50779e-05
7.53806e-06
1.38465e-05
6.77825e-06
8.81338e-06
6.20195e-06
1.81883e-06
6.92771e-06
-4.77153e-06
7.11758e-06
-9.2947e-06
5.92182e-06
-1.21909e-05
4.41449e-06
-1.4157e-05
3.99178e-06
-1.53336e-05
3.99814e-06
-1.56433e-05
2.91475e-06
-1.48914e-05
1.77448e-07
-1.31165e-05
-2.84897e-06
-1.11337e-05
-4.05815e-06
-9.09512e-06
-4.82538e-06
-6.75569e-06
-6.60477e-06
-3.97547e-06
-1.04295e-05
-1.29972e-06
-1.58053e-05
1.02324e-06
-1.91597e-05
2.27811e-06
-2.29924e-05
-1.31247e-05
-1.99972e-05
1.94002e-05
-4.38733e-05
2.38821e-05
-4.4522e-05
6.52964e-07
-3.11665e-05
-1.33474e-05
-1.33359e-05
-1.69491e-05
1.01434e-05
-2.67525e-05
2.25741e-05
-1.79333e-05
1.56926e-05
6.29776e-06
-8.00581e-07
1.59651e-05
-4.1776e-05
4.09779e-05
-8.18551e-05
4.0081e-05
-0.000103667
2.18149e-05
-0.000111523
7.87194e-06
-0.000106079
-5.26467e-06
-8.13995e-05
-2.40582e-05
-4.97275e-05
-3.11079e-05
-2.73429e-05
-2.18748e-05
-1.96798e-06
-2.47042e-05
-2.13862e-06
-2.69232e-05
4.572e-05
-3.85812e-05
3.55438e-05
-3.13191e-05
-6.60604e-06
-1.82976e-05
-2.63649e-05
-2.35048e-06
-3.2893e-05
1.75127e-05
-4.66125e-05
2.96999e-05
-3.01173e-05
5.10191e-06
2.81373e-05
-4.46109e-05
6.77339e-05
-9.3569e-05
8.99385e-05
-0.00010838
5.48951e-05
-0.000107501
1.53953e-05
-0.000101255
7.9744e-06
-8.14323e-05
-4.56328e-06
-5.38265e-05
-2.75728e-05
-3.34859e-05
-2.9594e-05
-3.53952e-05
-3.88923e-06
-2.23089e-05
-3.69218e-05
-2.35789e-05
-2.04818e-05
6.56021e-05
-2.47702e-05
3.98458e-05
-1.51815e-05
-1.60986e-05
-3.29892e-06
-3.82397e-05
7.08758e-06
-4.32576e-05
1.80559e-05
-5.75775e-05
8.38564e-06
-2.16168e-05
-3.24481e-05
7.07295e-05
-7.6833e-05
0.000113618
-6.07681e-05
7.34096e-05
-2.79593e-05
1.39286e-05
-3.25146e-05
7.45336e-06
-3.33673e-05
-3.29418e-06
-2.90142e-05
-2.37186e-05
-7.22085e-06
-8.43601e-05
6.58685e-06
-5.83057e-05
1.13677e-06
-3.29563e-06
-2.09336e-05
-4.61838e-07
-4.36439e-05
-9.30803e-06
7.59754e-05
-5.52284e-06
3.60763e-05
2.5695e-06
-1.76744e-05
1.25087e-05
-4.3385e-05
1.37437e-05
-4.41899e-05
8.74071e-06
-5.27125e-05
-1.83737e-05
4.80627e-06
-6.02917e-05
0.000111538
-5.64515e-05
0.000110406
-1.76164e-05
2.78493e-05
-1.86267e-05
1.07262e-05
-1.97409e-05
2.01483e-06
-2.28114e-05
-9.24176e-06
-2.9969e-05
-0.000128082
4.66459e-06
-0.000206934
2.83533e-05
-0.000168616
9.78732e-06
-1.31843e-06
-1.10933e-06
4.94766e-06
-4.03519e-06
1.67318e-06
7.44424e-05
1.20511e-05
1.79988e-05
1.5341e-05
-2.41693e-05
2.82492e-05
-4.5255e-05
1.79781e-05
-3.33805e-05
-6.5577e-06
-2.81996e-05
-4.8893e-05
4.58115e-05
-8.03664e-05
0.000141701
-2.41241e-05
5.16537e-05
-1.14804e-05
1.25813e-05
-9.79474e-06
5.58778e-06
-9.60611e-06
-2.36983e-06
-3.85434e-05
-1.326e-05
-1.00479e-06
-0.000241999
1.3999e-05
-0.000221594
2.19043e-05
-0.000176203
1.18765e-05
-2.34987e-05
-7.70934e-07
1.20731e-05
-1.05034e-05
1.03909e-05
6.41946e-05
1.8013e-05
6.35725e-06
2.86721e-05
-3.846e-05
4.06929e-05
-5.45665e-05
1.96524e-05
-1.20054e-05
-1.93762e-05
1.08291e-05
-6.63687e-05
9.27958e-05
-3.18673e-05
0.000104629
-9.25717e-06
2.63345e-05
-6.44712e-06
7.98044e-06
-6.45185e-06
2.65035e-06
-6.79829e-06
-6.98612e-06
-1.15728e-05
-0.000144468
9.79452e-06
-0.000262937
1.43306e-05
-0.000225833
1.75806e-05
-0.000179109
1.75808e-05
-8.38222e-05
-2.01961e-06
2.30004e-05
-3.85087e-05
1.48073e-05
3.44741e-05
2.56059e-05
-7.69268e-06
4.95441e-05
-5.68382e-05
4.39112e-05
-4.5289e-05
1.82339e-05
1.37701e-05
-2.64272e-05
5.54821e-05
-6.54518e-05
0.000131663
-1.72839e-05
5.38611e-05
-5.16733e-06
1.2898e-05
-3.10147e-06
4.51328e-06
-3.42633e-06
7.864e-07
-1.53412e-05
-9.37657e-06
3.3916e-06
-0.000263269
8.94681e-06
-0.000268839
1.15302e-05
-0.00022799
1.59539e-05
-0.000182949
2.15939e-05
-8.78735e-05
-2.82083e-06
3.4982e-05
-4.12941e-05
1.83499e-05
1.16568e-05
3.73322e-05
-2.20854e-05
4.37736e-05
-6.25611e-05
2.35393e-05
-2.28072e-05
1.01971e-05
2.73214e-05
-2.85438e-05
9.42784e-05
-4.27166e-05
0.000148916
-9.10102e-06
2.24883e-05
-2.6117e-06
5.9049e-06
-1.86847e-06
2.51221e-06
-1.95517e-06
-5.18882e-07
-1.10014e-05
-1.26247e-05
3.64639e-06
-0.000277338
4.33621e-06
-0.00027024
7.04611e-06
-0.000230136
1.08408e-05
-0.000185156
3.76076e-06
-8.37115e-05
-5.63522e-06
3.606e-05
-4.69234e-05
8.18647e-08
-3.18478e-07
-1.73121e-06
-4.88241e-07
-3.7107e-06
-3.98199e-07
-5.61224e-06
-1.93063e-07
-8.88728e-06
3.56439e-07
-1.48823e-05
1.87467e-06
-2.1705e-05
3.97388e-06
-2.61587e-05
4.72621e-06
-2.76355e-05
4.44849e-06
-2.82734e-05
5.05241e-06
-3.0275e-05
5.99337e-06
-3.26033e-05
6.3265e-06
-3.34163e-05
3.72766e-06
-3.04711e-05
-2.7677e-06
-2.54829e-05
-7.83712e-06
-2.16171e-05
-7.92384e-06
-1.85635e-05
-7.87893e-06
-1.44311e-05
-1.07371e-05
-8.09586e-06
-1.67646e-05
-6.70457e-07
-2.32304e-05
6.40915e-06
-2.62386e-05
1.01385e-05
-2.67201e-05
-2.09104e-05
1.79241e-05
-3.08259e-06
-3.50083e-08
-3.87623e-06
8.75328e-09
-5.31968e-06
-4.60963e-08
-6.84248e-06
-1.15794e-07
-9.13946e-06
-1.54477e-07
-1.37907e-05
-2.59877e-07
-2.01912e-05
-1.60895e-07
-2.62292e-05
4.44493e-09
-2.99739e-05
-1.39351e-06
-3.17069e-05
-2.75623e-06
-3.23545e-05
-9.94259e-07
-3.1645e-05
1.08689e-06
-2.95084e-05
-3.92847e-08
-2.7237e-05
-5.2442e-06
-2.33076e-05
-1.08876e-05
-2.00937e-05
-1.01885e-05
-1.92117e-05
-8.03262e-06
-1.73575e-05
-1.24054e-05
-1.15436e-05
-2.32179e-05
-3.51618e-06
-3.12446e-05
1.93904e-06
-2.96257e-05
4.78808e-06
-2.49007e-05
-1.99339e-05
8.04147e-06
-5.08914e-08
-7.09632e-10
-4.559e-08
1.35165e-09
-9.3577e-08
-6.97069e-10
-2.1111e-07
-1.1159e-09
-3.6788e-07
-9.37909e-11
-6.26083e-07
-4.54508e-09
-1.51465e-06
-1.7848e-09
-3.66837e-06
-1.10844e-07
-7.95075e-06
-5.52543e-07
-1.68183e-05
-1.85254e-06
-2.79298e-05
-3.42541e-06
-3.9068e-05
-6.37716e-07
-4.74489e-05
-1.28556e-09
-5.58319e-05
-4.37672e-06
-6.20944e-05
-1.16684e-05
-6.25366e-05
-1.68024e-05
-6.37414e-05
-1.56706e-05
-6.31708e-05
-1.69021e-05
-5.15348e-05
-1.35164e-05
-2.68748e-05
-3.81845e-06
-6.58145e-06
-2.47617e-07
5.46374e-06
-1.36411e-07
-1.47876e-07
1.49582e-05
-2.96457e-09
1.57194e-10
-2.24817e-09
3.15651e-10
-3.41008e-09
5.94962e-11
-5.03976e-09
3.96704e-11
-5.47023e-09
6.78095e-11
-1.11887e-08
-1.8809e-11
-1.71801e-08
-8.38087e-11
-1.27191e-07
-2.74892e-10
-6.71944e-07
-7.54865e-09
-2.47766e-06
-4.43435e-08
-1.01341e-05
-1.83544e-07
-2.35459e-05
-8.34613e-07
-2.90899e-05
-1.07976e-06
-3.27689e-05
-1.25822e-06
-5.65442e-05
-2.49187e-06
-9.40658e-05
-6.59734e-06
-0.000107935
-1.06423e-05
-5.23787e-05
-1.65771e-05
-1.75257e-06
-1.41949e-05
-5.40435e-08
-5.00355e-06
1.08248e-07
-4.07059e-07
2.38237e-07
-2.66667e-07
-2.38524e-07
3.28486e-07
-3.28652e-10
1.6684e-10
-2.1622e-10
1.13485e-10
-2.06134e-10
1.5322e-11
-2.09153e-10
8.95354e-12
-1.63054e-10
4.62369e-12
-1.96817e-10
1.40703e-12
-2.81719e-10
7.28702e-13
-5.35875e-10
-2.13286e-12
-8.15373e-09
-5.18745e-11
-5.0774e-08
-2.12849e-09
-1.89127e-07
-1.03372e-08
-5.44413e-07
-1.63561e-08
-6.98598e-07
-5.39318e-09
-1.25594e-06
1.21508e-09
-3.50823e-06
-1.7279e-07
-7.61397e-06
-2.71687e-06
-2.03285e-05
-1.95348e-05
-4.12476e-05
-3.96787e-05
-1.04684e-05
-4.11603e-05
-6.53136e-07
-8.79572e-06
-3.36928e-07
-6.94081e-07
-2.82473e-07
-3.18277e-07
-2.6022e-07
-2.61041e-07
-2.45344e-11
1.00017e-10
-2.03805e-11
6.02173e-11
-1.07782e-11
6.2639e-12
-6.50167e-12
8.15287e-13
-3.23133e-12
5.15875e-14
-2.51258e-12
4.47655e-14
-1.79446e-12
4.80593e-14
-3.54237e-12
5.21815e-13
-6.35366e-11
5.90017e-13
-2.30495e-09
-8.16352e-12
-1.14764e-08
6.74825e-11
-2.06862e-08
-8.34295e-10
-6.19256e-08
1.63587e-09
-2.09288e-07
2.99608e-08
-7.24285e-07
-7.60496e-08
-5.98404e-06
-1.86478e-06
-0.000103036
-2.33396e-05
-9.09922e-05
-4.98837e-05
-7.14847e-05
-5.18978e-05
-6.85374e-06
-3.23072e-05
-1.47572e-06
-5.95303e-06
-1.40435e-06
-3.94815e-07
-5.71009e-07
-2.11258e-06
2.91949e-11
3.29132e-11
5.85762e-13
5.4542e-11
2.47095e-14
6.84964e-12
1.23148e-13
-2.61248e-14
6.07335e-14
1.01105e-13
3.00516e-14
1.9551e-14
1.81591e-14
4.94398e-14
-7.1542e-14
3.76414e-13
6.07112e-13
1.31059e-12
-1.67941e-10
7.11212e-13
-2.65271e-11
-4.03151e-11
3.98191e-09
1.75562e-10
-5.83616e-09
2.76742e-09
-4.1519e-08
1.99509e-08
-3.59886e-07
1.80364e-08
-2.33429e-06
-9.4926e-07
-7.45241e-05
-9.86595e-06
-0.000104388
-5.74435e-05
-8.82319e-05
-6.16346e-05
-5.16316e-05
-4.38593e-05
-3.25308e-06
-8.25495e-06
-3.50793e-06
-2.53426e-07
-2.13732e-07
-4.36552e-06
1.44407e-11
4.84566e-12
4.9685e-12
1.78909e-11
-5.76351e-13
9.1913e-12
5.22363e-14
8.85318e-13
1.82034e-14
9.53911e-14
1.21653e-14
1.10704e-14
3.80908e-14
2.19916e-14
-1.04824e-14
1.1925e-12
2.98191e-14
1.07538e-11
-2.36456e-12
9.99893e-12
-3.56324e-11
-1.28414e-11
-6.61627e-11
1.07157e-11
9.07936e-10
3.04002e-10
6.7144e-09
2.9787e-09
-4.34124e-08
1.36483e-08
-1.02575e-06
-1.97142e-07
-1.66879e-05
-2.93986e-06
-0.000107954
-3.82602e-05
-9.53629e-05
-6.49362e-05
-7.48383e-05
-5.66633e-05
-1.28119e-05
-3.18828e-05
-4.19709e-06
-9.34623e-06
-9.95779e-07
-4.69848e-06
2.33465e-12
5.36161e-13
2.56462e-12
4.65893e-13
1.14825e-12
1.77978e-12
4.29994e-14
1.15872e-12
7.64279e-15
1.80554e-13
5.2683e-15
1.21908e-14
2.14607e-14
4.73382e-15
-5.33085e-14
1.3924e-12
-9.3839e-13
2.36016e-11
-2.09684e-12
4.77517e-11
1.10975e-12
1.73125e-11
4.97107e-12
-3.32311e-12
1.0001e-10
1.54919e-11
1.15048e-09
1.97779e-10
1.67508e-09
1.5286e-09
-2.01279e-07
4.15883e-09
-2.72121e-06
-4.90691e-07
-5.88705e-05
-5.43618e-06
-0.000108426
-4.36827e-05
-9.94745e-05
-5.72757e-05
-6.9322e-05
-5.42457e-05
-2.98015e-05
-3.53029e-05
-3.09171e-05
-1.52563e-05
2.49557e-13
7.59194e-14
2.982e-13
9.4701e-14
2.36363e-13
2.17563e-14
1.81227e-13
1.61284e-13
2.04282e-14
1.36038e-13
4.3951e-15
1.40566e-14
6.27524e-15
3.4014e-15
1.44191e-13
9.90441e-13
-1.06201e-12
1.59356e-11
-4.91486e-12
2.22922e-11
-5.00715e-12
1.9909e-11
-7.21886e-13
1.37006e-12
3.80976e-12
-6.9343e-12
8.5303e-12
7.40674e-12
7.50117e-10
-1.1005e-10
8.85208e-09
-3.75346e-09
-4.66213e-07
-1.64065e-08
-5.48932e-06
-3.99302e-07
-4.90901e-05
-2.89261e-06
-8.96898e-05
-1.88208e-05
-9.46532e-05
-4.19072e-05
-7.57468e-05
-4.64726e-05
-4.33385e-05
-5.55833e-05
8.02548e-15
1.95598e-14
3.96062e-14
2.46586e-14
1.866e-14
1.45709e-14
2.13712e-14
1.27905e-14
1.2434e-14
1.91815e-14
1.95885e-15
6.19696e-15
2.29726e-15
3.21744e-15
2.17979e-13
4.68467e-13
-4.23835e-13
4.1838e-13
-1.55558e-12
1.29442e-13
-1.55129e-12
1.84942e-13
-8.55439e-13
-1.83292e-12
2.2494e-13
-3.77885e-13
-5.40523e-12
1.08091e-12
-1.66123e-10
-1.30051e-12
-2.97224e-09
-1.74817e-10
-9.72379e-09
-2.62711e-10
-3.97329e-07
-8.70062e-09
-3.18209e-06
-1.02879e-07
-2.12819e-05
-7.00207e-07
-5.59948e-05
-3.95084e-06
-8.29176e-05
-2.00712e-05
-3.77724e-05
-8.07468e-05
3.50248e-16
8.56583e-15
3.22615e-15
6.90152e-15
2.22218e-15
4.26093e-15
1.93475e-15
2.31802e-15
1.54852e-15
2.30157e-15
6.15123e-16
2.09529e-15
3.9828e-16
3.16289e-15
3.85488e-14
1.31686e-13
3.32124e-14
2.52552e-14
-1.18787e-14
3.41908e-14
-2.98877e-14
6.65736e-14
-9.79248e-14
4.51477e-14
-2.38433e-14
1.44889e-12
-1.51514e-13
2.99341e-14
-7.54727e-12
1.88382e-12
-9.39223e-11
-1.75196e-12
-4.51857e-10
1.35994e-10
-5.6326e-09
-7.30702e-12
-8.75416e-08
-1.796e-08
-7.19138e-07
-6.31853e-08
-4.66271e-06
-4.92834e-09
-2.47342e-05
-2.23411e-09
-2.34339e-08
-4.69806e-05
8.70283e-17
2.4866e-15
3.12183e-16
1.20012e-15
2.55799e-16
6.8298e-16
2.29932e-16
3.98378e-16
2.42574e-16
5.22049e-16
3.10674e-16
1.27506e-15
8.40615e-16
3.4429e-15
1.07303e-14
2.69958e-14
7.29843e-15
1.54804e-14
9.48428e-15
1.85565e-14
1.27892e-14
5.04046e-14
1.95772e-14
3.223e-14
1.51661e-13
7.06356e-14
2.40711e-13
-4.8473e-15
1.57297e-12
4.60217e-13
2.14748e-14
3.35685e-12
-2.5016e-11
1.31754e-10
-2.3453e-08
6.11119e-09
-2.99273e-08
-1.08038e-09
-2.47842e-09
-3.22775e-08
-3.574e-09
-6.42022e-09
-5.65015e-09
-1.62595e-09
-1.30435e-08
-1.86277e-08
2.77411e-17
4.54441e-16
2.9252e-17
1.37235e-16
2.86561e-17
8.22438e-17
2.98727e-17
6.14041e-17
7.46334e-17
1.90641e-16
2.4374e-16
8.38864e-16
6.94507e-16
2.64946e-15
2.67716e-15
6.59609e-15
2.53777e-15
9.81124e-15
4.51722e-15
1.58176e-14
8.63983e-15
4.80822e-14
6.41011e-15
2.6117e-14
3.50855e-14
3.08558e-14
1.06686e-13
1.64761e-13
4.21999e-13
9.44421e-14
3.68927e-12
1.03029e-12
7.13137e-11
6.1196e-11
2.56959e-09
3.58005e-09
-1.59853e-07
4.16908e-08
-1.06097e-07
-3.34943e-10
-7.65921e-09
-1.72272e-09
-9.42976e-09
-3.69585e-11
-4.18386e-10
-7.28729e-08
5.53235e-18
6.91879e-17
2.98551e-18
1.54233e-17
3.49559e-18
9.61962e-18
4.18789e-18
9.86094e-18
3.21038e-17
7.8303e-17
1.45896e-16
4.20249e-16
4.09402e-16
1.17836e-15
1.05043e-15
2.14586e-15
1.90984e-15
6.10298e-15
3.56974e-15
1.17137e-14
7.90111e-15
3.34198e-14
4.64488e-15
2.18977e-14
9.48453e-15
2.37687e-14
4.06679e-14
9.01252e-14
7.98326e-14
3.59984e-14
1.00805e-12
2.09014e-13
5.23645e-11
9.63147e-12
1.08289e-09
2.54652e-09
-1.3153e-07
6.51121e-08
-1.91011e-07
1.08265e-07
-8.44763e-10
6.78903e-08
-1.24931e-09
1.73431e-10
6.71517e-11
-1.92682e-09
8.95105e-19
9.87687e-18
3.24546e-19
1.74331e-18
4.65238e-19
1.10407e-18
7.42241e-19
1.74995e-18
1.23295e-17
2.56412e-17
6.05923e-17
1.29881e-16
1.6449e-16
3.37498e-16
4.28718e-16
8.31454e-16
1.43524e-15
3.72283e-15
2.98545e-15
8.33711e-15
5.50552e-15
1.72688e-14
4.52642e-15
1.68416e-14
6.08136e-15
1.92178e-14
1.42964e-14
3.06338e-14
1.48446e-14
2.46879e-14
1.96951e-13
4.43166e-14
8.48286e-12
1.31501e-12
2.1307e-09
4.23463e-10
-1.22733e-07
5.53324e-08
-2.0086e-07
2.35511e-07
-3.30538e-10
1.30083e-07
-5.93818e-10
2.4473e-10
4.88665e-10
-1.21787e-09
1.36637e-19
1.36302e-18
3.6158e-20
1.94207e-19
5.30837e-20
1.22645e-19
1.70648e-19
3.24501e-19
3.47999e-18
5.54801e-18
1.67497e-17
2.5142e-17
5.02901e-17
7.34606e-17
1.90089e-16
3.08603e-16
9.91967e-16
2.03635e-15
2.33951e-15
5.76698e-15
3.64871e-15
9.36006e-15
4.20514e-15
1.21382e-14
5.36234e-15
1.40805e-14
7.30422e-15
1.53589e-14
7.12762e-15
1.58967e-14
3.90147e-14
1.50063e-14
1.20572e-12
1.45366e-13
3.76257e-10
4.83888e-11
2.61574e-08
6.67141e-09
-9.57117e-08
1.71935e-07
-1.3412e-07
2.55735e-07
-3.4259e-10
1.60561e-07
6.01274e-10
-3.50713e-10
2.01939e-20
1.80401e-19
4.0351e-21
2.12493e-20
5.9665e-21
1.30817e-20
3.58736e-20
5.59207e-20
7.05784e-19
8.5668e-19
3.39432e-18
3.82072e-18
1.24641e-17
1.41127e-17
7.39245e-17
9.21412e-17
5.61051e-16
8.39606e-16
1.65578e-15
3.35418e-15
2.64694e-15
5.61497e-15
3.46161e-15
8.00042e-15
4.11928e-15
8.84526e-15
4.76989e-15
8.77114e-15
5.11163e-15
9.10558e-15
1.0001e-14
1.08848e-14
1.37897e-13
1.63694e-14
4.29898e-11
5.61567e-12
5.74903e-09
9.59871e-10
9.24015e-08
1.35783e-08
6.97795e-08
1.88113e-07
3.52697e-08
2.36098e-07
8.10743e-08
5.35115e-08
2.84032e-21
2.27603e-20
4.43787e-22
2.28444e-21
6.54513e-22
1.34121e-21
6.45875e-21
8.26579e-21
1.15555e-19
1.15314e-19
5.92339e-19
5.56563e-19
2.78854e-18
2.72817e-18
2.22637e-17
2.1153e-17
2.24149e-16
2.23934e-16
9.54314e-16
1.34143e-15
1.74069e-15
2.94298e-15
2.29362e-15
4.33834e-15
2.60654e-15
4.39524e-15
2.90363e-15
4.19756e-15
3.33405e-15
4.40518e-15
5.50479e-15
7.4957e-15
1.83016e-14
2.73284e-15
5.08781e-12
5.29471e-13
8.69311e-10
9.52216e-11
1.29488e-08
1.33713e-09
1.23474e-07
6.56401e-09
2.88296e-07
3.763e-09
1.51603e-08
3.07126e-07
3.75986e-22
2.73676e-21
4.74721e-23
2.40782e-22
6.95701e-23
1.32369e-22
9.94508e-22
1.06619e-21
1.70366e-20
1.48071e-20
9.77862e-20
8.043e-20
6.20581e-19
5.58247e-19
5.35523e-18
4.20434e-18
5.79254e-17
3.83312e-17
3.67625e-16
3.10096e-16
8.71821e-16
1.00604e-15
1.16124e-15
1.63705e-15
1.26627e-15
1.57674e-15
1.34847e-15
1.37311e-15
1.66609e-15
1.49079e-15
3.59822e-15
3.72055e-15
4.24748e-15
1.24991e-15
4.94649e-13
3.83217e-14
8.95338e-11
6.83526e-12
1.32418e-09
8.55783e-11
7.2341e-09
5.1032e-10
1.07912e-08
2.24835e-10
-6.13775e-10
1.71237e-08
4.68576e-23
3.14041e-22
4.89844e-24
2.47918e-23
7.12553e-24
1.25821e-23
1.35808e-22
1.26099e-22
2.33337e-21
1.79527e-21
1.53759e-20
1.11321e-20
1.38976e-19
1.13831e-19
1.16197e-18
8.30569e-19
1.04143e-17
5.27372e-18
8.33124e-17
4.19606e-17
2.74271e-16
1.84478e-16
3.98385e-16
3.70485e-16
4.3091e-16
3.67477e-16
4.20936e-16
2.90406e-16
5.4083e-16
3.09916e-16
1.6691e-15
1.16557e-15
1.26738e-15
9.14369e-16
3.83202e-14
2.37058e-15
6.57015e-12
3.3463e-13
8.66712e-11
3.80192e-12
5.74478e-10
1.69337e-11
8.01939e-10
1.74895e-12
-1.51118e-11
2.03027e-10
5.51921e-24
3.43914e-23
4.85488e-25
2.48092e-24
7.00631e-25
1.151e-24
1.69504e-23
1.39908e-23
2.95749e-22
2.02331e-22
2.25579e-21
1.43842e-21
2.92059e-20
2.07049e-20
2.43005e-19
1.61133e-19
1.6108e-18
7.57109e-19
1.22056e-17
4.46167e-18
5.03393e-17
2.01058e-17
8.60316e-17
4.98714e-17
9.81998e-17
5.46291e-17
8.98335e-17
4.33687e-17
1.07238e-16
4.21402e-17
4.79439e-16
2.03246e-16
5.17348e-16
3.08444e-16
2.70853e-15
8.65366e-17
3.23609e-13
1.08583e-14
3.87317e-12
1.58011e-13
2.01693e-11
4.91144e-13
2.24301e-11
-2.3583e-13
-1.86316e-13
3.69292e-12
6.15328e-25
3.5749e-24
4.60645e-26
2.38412e-25
6.59145e-26
1.00831e-25
1.95778e-24
1.45937e-24
3.45976e-23
2.1226e-23
3.04691e-22
1.72271e-22
5.29645e-21
3.11155e-21
4.69915e-20
2.7415e-20
2.51096e-19
1.17881e-19
1.49421e-18
4.99929e-19
6.27277e-18
1.88315e-18
1.29868e-17
4.91363e-18
1.51283e-17
6.11734e-18
1.35875e-17
5.19748e-18
1.52168e-17
4.49813e-18
9.71942e-17
1.63921e-17
1.42523e-16
4.64888e-17
1.29204e-16
3.04024e-17
1.05083e-14
3.81189e-16
1.54681e-13
6.44839e-15
6.31061e-13
1.42353e-14
4.28641e-13
-1.2454e-14
-2.13247e-15
1.11255e-13
6.44489e-26
3.41827e-25
4.14397e-27
2.08703e-26
5.88034e-27
8.29215e-27
2.10259e-25
1.43204e-25
3.74768e-24
2.08715e-24
3.77485e-23
1.9111e-23
7.96069e-22
3.86258e-22
7.79925e-21
3.77729e-21
3.94051e-20
1.76312e-20
1.8141e-19
6.11726e-20
6.80434e-19
1.87772e-19
1.52754e-18
4.57734e-19
1.84508e-18
6.08996e-19
1.70707e-18
5.48033e-19
1.78622e-18
4.34961e-19
8.78544e-18
9.1294e-19
2.21781e-17
3.2776e-18
2.90564e-17
9.3207e-18
3.73714e-16
2.05169e-17
6.41375e-15
2.16258e-16
2.0479e-14
3.53745e-16
8.53926e-15
1.50808e-18
4.2606e-17
4.6967e-15
6.02292e-27
2.68577e-26
3.40203e-28
1.45619e-27
4.83725e-28
5.85182e-28
2.10956e-26
1.32715e-26
3.77717e-25
1.93383e-25
4.28728e-24
1.96328e-24
1.00597e-22
4.16181e-23
1.07032e-21
4.27461e-22
5.69058e-21
2.24961e-21
2.22221e-20
7.39357e-21
7.1879e-20
1.94606e-20
1.60296e-19
4.31501e-20
1.9799e-19
5.76735e-20
1.91116e-19
5.27975e-20
1.85364e-19
3.96291e-20
5.65136e-19
5.40988e-20
2.27592e-18
1.63928e-19
1.13239e-17
2.0485e-18
3.48608e-17
4.93816e-18
2.47937e-16
8.08744e-18
6.06914e-16
1.53289e-17
5.0342e-16
1.83771e-17
7.33343e-18
6.028e-16
4.15375e-28
2.0813e-26
2.20854e-29
1.13367e-27
3.14696e-29
8.93266e-29
1.99279e-27
1.15519e-27
3.55716e-26
1.69417e-26
4.46853e-25
1.87122e-25
1.10997e-23
4.07102e-24
1.23728e-22
4.23845e-23
7.04858e-22
2.37891e-22
2.58757e-21
8.01214e-22
7.38744e-21
1.93964e-21
1.57312e-20
3.96644e-21
1.9491e-20
5.17313e-21
1.91596e-20
4.70751e-21
1.73044e-20
3.36943e-21
3.4859e-20
3.56448e-21
1.37496e-19
7.85161e-21
2.18721e-18
2.01656e-19
7.38544e-18
8.79599e-19
1.69894e-17
1.26987e-18
3.77004e-17
2.01711e-18
5.50188e-17
1.61582e-18
8.93705e-19
7.98487e-17
-4.64327e-29
-1.30901e-27
-3.43487e-29
-4.46109e-28
2.80024e-29
2.69754e-29
1.73373e-28
8.42727e-29
3.14378e-27
1.40875e-27
4.2917e-26
1.66463e-26
1.10264e-24
3.69259e-25
1.25612e-23
3.85957e-24
7.43871e-23
2.18705e-23
2.70583e-22
7.55449e-23
7.13499e-22
1.76671e-22
1.43919e-21
3.41543e-22
1.76692e-21
4.31146e-22
1.73217e-21
3.87091e-22
1.45488e-21
2.65565e-22
2.15883e-21
2.36977e-22
6.73291e-21
3.70057e-22
1.43857e-19
5.3023e-21
6.78344e-19
3.04369e-20
1.48512e-18
6.02172e-20
3.00438e-18
9.40546e-20
3.99204e-18
8.07387e-20
5.03834e-20
5.36355e-18
-2.04113e-28
-5.74789e-27
-4.5824e-29
-5.95004e-28
-4.31149e-30
-3.64138e-29
1.61996e-29
1.05276e-29
2.6387e-28
1.12267e-28
3.82427e-27
1.39325e-27
1.00408e-25
3.13412e-26
1.15516e-24
3.28184e-25
6.91545e-24
1.84503e-24
2.50792e-23
6.36994e-24
6.31057e-23
1.45929e-23
1.21229e-22
2.71273e-23
1.46603e-22
3.30746e-23
1.41488e-22
2.91927e-23
1.13428e-22
1.92994e-23
1.28274e-22
1.50594e-23
3.07146e-22
1.81747e-23
4.21338e-21
1.14651e-22
2.22092e-20
5.26747e-22
5.57987e-20
1.19461e-21
1.1822e-19
2.1567e-21
1.96394e-19
3.90909e-21
9.02025e-21
4.60699e-19
-1.69166e-28
-4.76352e-27
-3.10128e-29
-4.05004e-28
-3.78172e-30
-3.20994e-29
3.28714e-30
3.45871e-30
2.12122e-29
8.48646e-30
3.18375e-28
1.10433e-28
8.47601e-27
2.50629e-27
9.78457e-26
2.62156e-26
5.84999e-25
1.46241e-25
2.09755e-24
4.97792e-25
5.09714e-24
1.11277e-24
9.36771e-24
1.99959e-24
1.1121e-23
2.3447e-24
1.04664e-23
2.02702e-24
7.58365e-24
1.303e-24
7.7412e-24
8.91172e-25
1.38408e-23
9.15721e-25
1.28636e-22
3.68301e-24
6.29252e-22
1.49906e-23
1.71134e-21
3.47753e-23
4.77788e-21
1.26335e-22
2.07894e-20
8.69453e-22
4.29657e-21
1.37281e-19
-1.03122e-28
-2.89949e-27
-1.66746e-29
-2.20373e-28
-2.15793e-30
-1.85321e-29
-5.8334e-33
-3.82307e-32
1.57136e-30
5.20956e-31
2.49516e-29
8.33801e-30
6.68849e-28
1.9001e-28
7.71176e-27
1.97929e-27
4.58346e-26
1.09559e-26
1.61577e-25
3.66876e-26
3.79849e-25
7.97045e-26
6.67587e-25
1.38498e-25
7.75903e-25
1.55169e-25
7.06721e-25
1.30986e-25
4.7277e-25
8.19818e-26
4.44725e-25
4.93362e-26
6.21471e-25
4.53815e-26
4.34113e-24
1.38424e-25
2.07661e-23
5.33242e-25
6.3813e-23
1.54755e-24
4.86563e-22
2.41676e-23
6.08024e-21
3.44768e-22
2.04515e-21
5.59623e-20
-5.3537e-29
-1.49689e-27
-7.82813e-30
-1.05335e-28
-1.0157e-30
-8.89212e-30
-6.1184e-32
-4.09111e-31
1.44626e-31
8.04665e-32
1.86767e-30
6.07248e-31
4.96593e-29
1.37319e-29
5.69928e-28
1.42139e-28
3.35666e-27
7.79017e-28
1.16043e-26
2.56475e-27
2.63883e-26
5.40972e-27
4.41949e-26
9.09235e-27
5.02073e-26
9.67274e-27
4.40169e-26
7.95717e-27
2.76776e-26
4.82813e-27
2.39007e-26
2.59112e-27
2.73156e-26
2.18074e-27
1.52789e-25
5.44396e-27
7.29638e-25
1.93012e-26
3.34404e-24
1.0788e-25
9.8232e-23
5.91429e-24
1.89918e-21
1.05882e-22
6.17495e-22
1.83207e-20
-2.48743e-29
-6.87814e-28
-3.33224e-30
-4.58839e-29
-4.20542e-31
-3.78389e-30
-3.68956e-32
-2.53673e-31
2.44965e-32
1.90745e-32
1.34421e-31
4.23805e-32
3.48626e-30
9.50823e-31
3.9737e-29
9.7657e-30
2.31252e-28
5.28731e-29
7.8244e-28
1.70839e-28
1.72087e-27
3.49697e-28
2.73147e-27
5.68366e-28
3.03564e-27
5.71932e-28
2.55166e-27
4.57675e-28
1.5157e-27
2.67515e-28
1.15985e-27
1.30261e-28
1.21879e-27
1.01495e-28
5.54991e-27
2.1798e-28
2.65251e-26
7.49725e-28
2.4387e-25
8.94092e-27
1.74534e-23
8.77702e-25
4.09256e-22
1.74159e-23
1.12307e-22
4.09185e-21
-1.0558e-29
-2.87531e-28
-1.31033e-30
-1.85378e-29
-1.57537e-31
-1.46932e-30
-1.59712e-32
-1.13919e-31
-7.1231e-35
-4.02695e-34
9.02395e-33
2.52654e-33
2.32555e-31
6.34455e-32
2.62646e-30
6.45674e-31
1.50663e-29
3.44703e-30
4.9784e-29
1.09067e-29
1.05829e-28
2.16464e-29
1.57996e-28
3.39107e-29
1.72592e-28
3.23339e-29
1.38445e-28
2.5052e-29
7.76187e-29
1.40083e-29
5.25397e-29
6.28314e-30
5.42355e-29
4.58611e-30
2.11334e-28
9.24692e-30
1.04801e-27
3.46042e-29
1.73567e-26
5.97704e-28
1.81831e-24
5.96217e-26
5.42607e-23
1.66668e-24
1.40119e-23
6.25627e-22
-4.12722e-30
-1.10622e-28
-4.79977e-31
-7.00674e-30
-5.41634e-32
-5.28773e-31
-5.81043e-33
-4.34659e-32
-2.85324e-34
-1.69278e-33
7.69286e-34
3.04608e-34
1.48433e-32
4.12222e-33
1.65176e-31
4.13464e-32
9.31991e-31
2.17305e-31
3.00054e-30
6.71832e-31
6.15306e-30
1.29106e-30
8.59324e-30
1.93502e-30
9.26841e-30
1.76485e-30
7.02659e-30
1.30966e-30
3.71296e-30
6.9632e-31
2.28787e-30
2.90323e-31
2.32345e-30
2.03079e-31
8.54119e-30
4.1978e-31
4.76436e-29
1.95229e-30
9.7989e-28
3.26815e-29
1.08315e-25
2.73883e-27
5.02127e-24
1.37875e-25
1.542e-24
7.30108e-23
-1.48998e-30
-3.94292e-29
-1.64168e-31
-2.48772e-30
-1.72059e-32
-1.77985e-31
-1.86223e-33
-1.48142e-32
-1.33091e-34
-8.40755e-34
1.16835e-34
5.46827e-35
9.14371e-34
2.63516e-34
9.9088e-33
2.5828e-33
5.48884e-32
1.33435e-32
1.71715e-31
4.02165e-32
3.38513e-31
7.46883e-32
4.55429e-31
1.06271e-31
4.59852e-31
9.34404e-32
3.3242e-31
6.57206e-32
1.6561e-31
3.30281e-32
9.54143e-32
1.28694e-32
9.59302e-32
8.91085e-33
3.72318e-31
2.1158e-32
2.63757e-30
1.46747e-31
5.53448e-29
2.59845e-30
5.97389e-27
2.19278e-28
4.56636e-25
1.60204e-26
1.98622e-25
8.0352e-24
-4.96443e-31
-1.30743e-29
-5.24058e-32
-8.3097e-31
-5.06228e-33
-5.63526e-32
-5.35622e-34
-4.61171e-33
-4.41613e-35
-3.02742e-34
8.56043e-36
1.96098e-36
5.39629e-35
1.62875e-35
5.68205e-34
1.586e-34
3.08322e-33
8.04353e-34
9.34214e-33
2.35744e-33
1.76317e-32
4.22036e-33
2.29123e-32
5.67621e-33
2.15583e-32
4.79728e-33
1.47105e-32
3.19146e-33
6.85801e-33
1.50285e-33
3.81455e-33
5.49684e-34
3.83162e-33
3.94525e-34
1.83055e-32
1.27198e-33
1.96327e-31
1.57132e-32
4.87685e-30
3.84154e-31
5.70082e-28
3.69276e-29
5.4464e-26
2.68239e-27
3.00554e-26
9.66235e-25
-1.52126e-31
-4.04564e-30
-1.55655e-32
-2.61139e-31
-1.3791e-33
-1.68359e-32
-1.39337e-34
-1.32715e-33
-1.20933e-35
-9.21719e-35
-2.93752e-37
-1.8467e-36
3.21923e-36
9.32168e-37
3.12441e-35
9.65794e-36
1.65432e-34
4.79791e-35
4.83583e-34
1.36365e-34
8.69335e-34
2.34612e-34
1.08836e-33
2.96976e-34
9.52975e-34
2.40545e-34
6.07814e-34
1.50743e-34
2.62832e-34
6.59579e-35
1.4773e-34
2.28056e-35
1.49605e-34
1.80401e-35
1.06301e-33
9.38837e-35
1.9134e-32
2.048e-33
6.37493e-31
7.05139e-32
8.12583e-29
7.23558e-30
7.35904e-27
4.36903e-28
3.96238e-27
1.1109e-25
-4.27141e-32
-1.17156e-30
-4.27203e-33
-7.71869e-32
-3.46625e-34
-4.75027e-33
-3.28558e-35
-3.55562e-34
-2.85795e-36
-2.49499e-35
-1.16929e-37