/*--------------------------------*- C++ -*----------------------------------*\
| =========                 |                                                 |
| \\      /  F ield         | OpenFOAM: The Open Source CFD Toolbox           |
|  \\    /   O peration     | Version:  2012                                  |
|   \\  /    A nd           | Website:  www.openfoam.com                      |
|    \\/     M anipulation  |                                                 |
\*---------------------------------------------------------------------------*/
FoamFile
{
    version     2.0;
    format      ascii;
    class       volScalarField;
    location    "0.62";
    object      maxKappa;
}
// * * * * * * * * * * * * * * * * * * * * * * * * * * * * * * * * * * * * * //

dimensions      [0 0 0 0 0 0 0];


internalField   nonuniform List<scalar> 
2268
(
4.85551e-07
9.88831e-07
1.41752e-06
1.72075e-06
1.94323e-06
2.23134e-06
2.43999e-06
2.44315e-06
2.44315e-06
2.39699e-06
2.27111e-06
2.04169e-06
1.75713e-06
1.49122e-06
1.27434e-06
1.06823e-06
8.55138e-07
6.63871e-07
5.35087e-07
4.59999e-07
4.53535e-07
5.85423e-07
5.85423e-07
5.7432e-07
1.02809e-06
1.44043e-06
1.74901e-06
1.97944e-06
2.2607e-06
2.45597e-06
2.45699e-06
2.45699e-06
2.43291e-06
2.30507e-06
2.05503e-06
1.78325e-06
1.51164e-06
1.27048e-06
1.05599e-06
8.49673e-07
6.74913e-07
5.45096e-07
4.26437e-07
3.21467e-07
2.0024e-07
2.24519e-07
7.78559e-07
1.15949e-06
1.52346e-06
1.82447e-06
2.06591e-06
2.32935e-06
2.47943e-06
2.47943e-06
2.46883e-06
2.43336e-06
2.2964e-06
2.06817e-06
1.82616e-06
1.56776e-06
1.31199e-06
1.07316e-06
8.55748e-07
6.91943e-07
5.96563e-07
5.24708e-07
4.54196e-07
3.31363e-07
2.478e-07
9.36391e-07
1.28396e-06
1.59778e-06
1.89276e-06
2.15319e-06
2.40542e-06
2.53116e-06
2.54744e-06
2.54744e-06
2.52664e-06
2.38944e-06
2.15265e-06
1.87112e-06
1.56273e-06
1.26605e-06
1.03173e-06
8.37375e-07
6.88631e-07
5.76984e-07
4.9464e-07
4.48641e-07
4.04142e-07
3.45103e-07
1.20009e-06
1.49691e-06
1.74545e-06
2.01918e-06
2.29977e-06
2.5266e-06
2.59262e-06
2.59753e-06
2.59753e-06
2.54656e-06
2.38575e-06
2.18265e-06
1.94073e-06
1.6578e-06
1.36567e-06
1.09339e-06
8.45797e-07
6.798e-07
5.87971e-07
5.29593e-07
4.73713e-07
4.13938e-07
3.72162e-07
1.38986e-06
1.65158e-06
1.85385e-06
2.11428e-06
2.41914e-06
2.6362e-06
2.70147e-06
2.76594e-06
2.76594e-06
2.74279e-06
2.55886e-06
2.30627e-06
1.99493e-06
1.62834e-06
1.29474e-06
1.05559e-06
8.2866e-07
6.59694e-07
5.59563e-07
5.30356e-07
5.2293e-07
5.53371e-07
5.53371e-07
1.68814e-06
1.89539e-06
2.05914e-06
2.31144e-06
2.63356e-06
2.81124e-06
2.83201e-06
2.86516e-06
2.86516e-06
2.76533e-06
2.55539e-06
2.35769e-06
2.1249e-06
1.81775e-06
1.47446e-06
1.15101e-06
8.16105e-07
5.93448e-07
5.23256e-07
5.23256e-07
4.90413e-07
6.66147e-07
6.66147e-07
3.66745e-06
3.82498e-06
3.71241e-06
3.75173e-06
3.95557e-06
4.07677e-06
3.7606e-06
3.6167e-06
3.18828e-06
3.06223e-06
2.85153e-06
2.56284e-06
2.18047e-06
1.75861e-06
1.39923e-06
1.16943e-06
8.71e-07
5.96054e-07
5.44454e-07
5.81396e-07
5.93431e-07
9.52321e-07
1.00112e-06
0.000686856
0.00078521
0.00078521
0.000774548
0.000677516
0.000434022
0.000473896
0.000473896
0.000481401
0.000517608
0.00055429
0.000576553
0.000576553
0.000563574
0.000550446
0.000546977
0.000526123
0.000461737
0.000324115
0.000720013
0.00124017
0.00124017
0.00110164
0.000529545
0.000256354
0.000464733
0.000464733
0.000446954
0.000502318
0.000669742
0.000781953
0.000781953
0.000757432
0.000662721
0.000617443
0.000577681
0.000412412
0.000275145
0.000730559
0.000819821
0.0012299
0.0012299
0.000710758
0.000222799
6.97421e-05
0.000307128
0.000345934
0.000404964
0.000718328
0.00126497
0.00163683
0.00168552
0.00168552
0.00168266
0.00161399
0.000949427
0.000301908
0.00119281
0.00185621
0.00185621
0.00157172
0.000748793
0.000541053
6.94056e-05
0.000142737
0.000548707
0.00102332
0.00138164
0.00138164
0.00116357
0.000599239
0.0015199
0.00207508
0.00207508
0.00138395
0.000403869
0.00114136
0.00188412
0.00188412
0.00152707
0.000782241
0.000629524
0.000169769
4.66317e-05
6.71687e-05
0.000121317
0.000615454
0.0015291
0.00217599
0.00217599
0.00170766
0.00158398
0.00158398
0.00156177
0.000490043
0.00121041
0.00137791
0.00137791
0.00092776
0.00081304
0.00044223
0.000102981
5.50003e-05
9.41272e-05
0.000122016
0.000149178
0.000390531
0.00158844
0.00196786
0.00196786
0.00152371
0.0014914
0.0014914
0.000566393
0.00127626
0.00127626
0.00122636
0.00112513
0.00112513
0.000467283
7.10034e-05
8.25152e-05
0.000436951
0.000772653
0.000836571
0.000981245
0.00155107
0.00187915
0.00187915
0.00185074
0.00112435
0.00112435
0.000657731
0.00174811
0.00174811
0.00168898
0.00118508
0.000833683
0.00023758
5.70597e-05
0.00024895
0.000922779
0.00135172
0.00158083
0.00167991
0.00171721
0.00171721
0.00176122
0.00176122
0.00108544
0.00109071
0.000751926
4.25731e-05
4.64268e-05
5.02712e-05
5.70235e-05
4.2505e-05
3.09691e-05
2.56846e-05
2.53487e-05
2.39206e-05
1.88914e-05
9.91318e-06
6.17531e-06
4.80752e-06
2.98776e-06
1.83707e-06
1.49424e-06
8.62039e-07
4.86895e-07
8.16284e-07
1.1247e-06
1.58207e-06
1.9765e-06
2.3372e-06
6.29333e-05
7.18838e-05
8.36859e-05
8.36859e-05
7.97802e-05
6.08908e-05
6.10612e-05
7.87283e-05
0.000110066
0.00013043
0.000106255
7.48038e-05
4.29807e-05
2.08036e-05
6.78599e-06
5.0542e-06
1.85735e-06
1.03919e-06
9.34536e-07
1.13626e-06
1.57478e-06
2.36815e-06
2.74312e-06
3.52546e-05
3.89406e-05
5.15694e-05
8.19109e-05
9.35736e-05
9.42762e-05
0.000110367
0.000144764
0.000184888
0.000198456
0.000198456
0.000159314
0.000214702
0.000177092
0.000121424
7.94024e-05
6.73923e-05
1.77594e-05
4.74479e-06
2.37766e-06
5.76826e-06
5.7007e-06
5.40869e-06
3.67507e-05
3.67507e-05
3.31216e-05
4.48725e-05
6.42043e-05
7.15094e-05
0.000107925
0.000135751
0.000157862
0.000173169
0.000176856
0.00024759
0.000320899
0.000320899
0.00026228
0.000229656
0.000292464
0.000234548
0.000164883
0.00014801
9.45869e-05
3.3256e-05
1.15674e-05
2.47059e-05
2.83381e-05
4.31744e-05
5.83182e-05
6.73387e-05
7.05401e-05
8.32392e-05
9.12712e-05
0.0001009
0.000103237
0.000130956
0.000188204
0.000259091
0.000242174
0.000258695
0.000339823
0.000385448
0.000385448
0.000353812
0.000429324
0.000464277
0.000425523
0.000415718
1.02538e-05
1.57841e-05
2.62638e-05
3.84852e-05
5.72931e-05
7.98966e-05
0.000101236
0.000115572
0.000115572
0.000112419
0.000114805
0.000144495
0.000153245
0.000145885
0.000190165
0.000253456
0.000307419
0.00033447
0.00045588
0.000615752
0.000735766
0.000787411
0.000862861
9.76588e-06
1.91327e-05
2.77175e-05
3.60662e-05
4.51031e-05
5.55847e-05
7.31685e-05
8.13693e-05
9.25783e-05
8.86082e-05
0.000110793
0.000122304
0.000122304
0.000103795
0.000141699
0.000190927
0.000148336
0.00020515
0.00033343
0.000431414
0.000601413
0.000792101
0.000862861
1.34491e-05
1.98124e-05
2.76139e-05
3.8225e-05
5.04718e-05
6.31996e-05
7.47778e-05
8.35851e-05
8.86908e-05
9.16658e-05
0.000101999
0.000119572
0.000117634
0.000145905
0.000176474
0.0001819
0.000192653
0.000242182
0.000303961
0.000342969
0.000417513
0.000562165
0.000755638
1.9022e-05
2.05338e-05
2.66513e-05
2.99604e-05
3.97343e-05
4.65803e-05
5.94899e-05
6.63403e-05
7.71384e-05
8.4396e-05
9.95002e-05
0.000113094
0.000120241
0.000134148
0.000161348
0.000184054
0.000221824
0.000294187
0.000369129
0.000443732
0.000538558
0.000664958
0.000777868
2.49633e-05
2.84631e-05
3.32442e-05
3.9952e-05
4.76716e-05
5.59709e-05
6.45326e-05
7.25466e-05
8.06676e-05
8.91925e-05
0.000100477
0.000113202
0.000126968
0.000146119
0.000170325
0.000195167
0.000224956
0.000274492
0.000339894
0.000418963
0.000537722
0.0007095
0.000829372
2.65386e-05
2.74279e-05
3.10134e-05
3.35604e-05
4.01235e-05
4.54844e-05
5.49893e-05
6.23351e-05
7.20944e-05
8.4643e-05
9.81352e-05
0.000113242
0.000128683
0.000147313
0.000173203
0.000204134
0.000243341
0.000298841
0.000366338
0.000450232
0.000566763
0.000738292
0.000830054
3.1572e-05
3.37611e-05
3.68507e-05
4.12284e-05
4.66944e-05
5.26945e-05
5.99392e-05
6.78049e-05
7.64007e-05
8.66067e-05
9.83904e-05
0.00011245
0.000128656
0.000148402
0.000172882
0.000203485
0.000241682
0.000292246
0.000357035
0.000439791
0.000551768
0.000713536
0.000830054
2.98864e-05
3.06009e-05
3.31104e-05
3.564e-05
4.09226e-05
4.61613e-05
5.36512e-05
6.25225e-05
7.27357e-05
8.48295e-05
9.8306e-05
0.000114157
0.000132227
0.000153714
0.000180073
0.000212016
0.000251589
0.000302703
0.000365893
0.000444916
0.000545758
0.000678906
0.000786179
3.33648e-05
3.48961e-05
3.73561e-05
4.06762e-05
4.54787e-05
5.06694e-05
5.74905e-05
6.55345e-05
7.45021e-05
8.55533e-05
9.81696e-05
0.000113131
0.000130704
0.000151665
0.000177217
0.000208262
0.000245975
0.000292495
0.000350267
0.000421913
0.000511909
0.000624932
0.000724053
3.01846e-05
3.09456e-05
3.33496e-05
3.61744e-05
4.05808e-05
4.62746e-05
5.3782e-05
6.24266e-05
7.24788e-05
8.44591e-05
9.81784e-05
0.000114388
0.00013319
0.000155345
0.000181753
0.000213212
0.000251274
0.000296941
0.000351294
0.000415926
0.000492015
0.000582938
0.000662176
3.0992e-05
3.24967e-05
3.5172e-05
3.8353e-05
4.33183e-05
4.85359e-05
5.5564e-05
6.3647e-05
7.30332e-05
8.44042e-05
9.74511e-05
0.000112818
0.000130891
0.000152242
0.000177619
0.000207649
0.000243527
0.000286013
0.000336718
0.000396812
0.000466025
0.000546486
0.000613012
2.7133e-05
2.8024e-05
3.05971e-05
3.414e-05
3.88641e-05
4.4872e-05
5.2647e-05
6.13292e-05
7.16313e-05
8.35419e-05
9.75682e-05
0.000113812
0.000132858
0.000155003
0.000180934
0.000211318
0.000246828
0.00028823
0.000335675
0.000390694
0.000451733
0.000521211
0.000575925
2.50824e-05
2.6977e-05
3.04311e-05
3.42994e-05
3.98908e-05
4.57774e-05
5.34137e-05
6.18858e-05
7.18837e-05
8.33786e-05
9.68482e-05
0.000112387
0.000130919
0.000152305
0.000177405
0.000206709
0.000240708
0.000280445
0.000325698
0.000377665
0.000434408
0.000497052
0.000546019
2.03851e-05
2.16305e-05
2.48693e-05
2.94589e-05
3.47856e-05
4.16314e-05
4.99838e-05
5.92731e-05
7.01982e-05
8.24602e-05
9.69063e-05
0.000113149
0.000132447
0.000154374
0.000179978
0.000209575
0.000243291
0.000282273
0.000325761
0.000375307
0.000429244
0.000488564
0.00052666
1.7003e-05
1.91708e-05
2.30662e-05
2.75046e-05
3.33929e-05
4.00049e-05
4.81213e-05
5.73623e-05
6.81949e-05
8.06239e-05
9.50698e-05
0.000111604
0.000131073
0.000153092
0.000178776
0.000208099
0.000241541
0.000279885
0.000322178
0.000369653
0.000420868
0.000476358
0.000514531
1.19967e-05
1.36178e-05
1.69792e-05
2.18656e-05
2.64348e-05
3.3776e-05
4.14916e-05
5.11319e-05
6.23583e-05
7.54339e-05
9.05795e-05
0.000108005
0.000128317
0.000151366
0.000178215
0.000208313
0.00024279
0.000281551
0.000324318
0.000371779
0.000422855
0.000477747
0.000508987
9.41957e-06
1.07593e-05
1.3234e-05
1.66231e-05
2.09767e-05
2.71086e-05
3.37389e-05
4.27249e-05
5.3562e-05
6.68013e-05
8.22899e-05
0.000100644
0.000121849
0.000146354
0.00017456
0.000206151
0.000242424
0.00028214
0.000326236
0.000374313
0.0004254
0.000479489
0.000513461
5.25046e-06
6.60501e-06
8.10662e-06
1.1255e-05
1.41549e-05
1.93936e-05
2.46075e-05
3.26694e-05
4.16247e-05
5.33483e-05
6.79368e-05
8.59195e-05
0.000107176
0.000132465
0.00016171
0.000195062
0.000233636
0.000275659
0.000323282
0.000374521
0.000428781
0.000485883
0.000523363
6.14608e-06
6.14608e-06
6.02818e-06
6.70035e-06
7.44993e-06
1.00282e-05
1.3103e-05
1.93938e-05
2.73787e-05
3.78288e-05
5.15521e-05
6.90024e-05
9.11803e-05
0.000117961
0.000148857
0.000184767
0.000225685
0.00027062
0.00032212
0.000376642
0.000434792
0.000495836
0.000528646
6.11363e-06
7.39224e-06
8.78924e-06
1.01662e-05
1.17434e-05
1.22878e-05
1.41847e-05
1.49993e-05
2.06024e-05
2.98255e-05
4.20543e-05
5.76213e-05
7.71671e-05
0.000101261
0.000129969
0.000164536
0.000204639
0.000250584
0.000304163
0.000361029
0.00042396
0.000491056
0.000532912
1.09116e-05
1.25181e-05
1.44127e-05
1.70262e-05
2.00366e-05
2.20953e-05
2.49375e-05
2.63414e-05
3.00796e-05
3.28863e-05
4.14396e-05
5.0307e-05
6.69252e-05
8.95137e-05
0.000119022
0.000154772
0.000196096
0.000244312
0.000299258
0.000357983
0.000425417
0.00049797
0.000533157
1.56667e-05
1.78781e-05
2.12059e-05
2.49695e-05
2.93291e-05
3.29712e-05
3.76766e-05
4.10788e-05
4.6697e-05
5.10599e-05
5.96503e-05
6.98064e-05
8.54448e-05
0.000105036
0.000129177
0.000159203
0.000195238
0.000239072
0.000289845
0.000346902
0.000414785
0.000487973
0.000539398
2.27534e-05
2.55e-05
2.92132e-05
3.35518e-05
3.84173e-05
4.32067e-05
4.9259e-05
5.42143e-05
6.15077e-05
6.76842e-05
7.7824e-05
8.75484e-05
0.000103286
0.000119842
0.000144454
0.000170433
0.000206255
0.000251348
0.000303961
0.000363878
0.000434049
0.000508738
0.000556257
3.18036e-05
3.42516e-05
3.81711e-05
4.31211e-05
4.90005e-05
5.48328e-05
6.21741e-05
6.87845e-05
7.80489e-05
8.64469e-05
9.90935e-05
0.000111354
0.000129469
0.000151499
0.000177833
0.000208142
0.00024285
0.000284013
0.000331504
0.000387457
0.000452986
0.00052277
0.000585158
4.18238e-05
4.42859e-05
4.84593e-05
5.39542e-05
5.99689e-05
6.67488e-05
7.44523e-05
8.24808e-05
9.3456e-05
0.00010403
0.00011929
0.000134299
0.000155662
0.000177441
0.000207212
0.000238822
0.000280064
0.000322784
0.000375605
0.000428637
0.00049608
0.00056788
0.000623719
5.36619e-05
5.62118e-05
6.02201e-05
6.58281e-05
7.23522e-05
7.99135e-05
8.90474e-05
9.87425e-05
0.000111532
0.000124624
0.000142748
0.000161257
0.000186869
0.000213747
0.000248383
0.000288452
0.000332975
0.000381273
0.000433348
0.000488961
0.00055002
0.00061411
0.000679826
6.62033e-05
6.87407e-05
7.27467e-05
7.89648e-05
8.62584e-05
9.4876e-05
0.000104616
0.000116165
0.0001294
0.00014534
0.00016631
0.000189206
0.00021949
0.000251658
0.000293174
0.000336952
0.000392157
0.000449923
0.00051581
0.000579263
0.000645312
0.000717228
0.000790255
8.00786e-05
8.27161e-05
8.68248e-05
9.31284e-05
0.00010036
0.00010984
0.000120754
0.000134105
0.000150364
0.000169433
0.000193753
0.000221384
0.000256702
0.000296724
0.000346184
0.000402331
0.000468421
0.000540936
0.000622624
0.000704013
0.000784255
0.00087153
0.00095235
9.43566e-05
9.702e-05
0.000101405
0.000108663
0.00011761
0.000128388
0.000141116
0.000156423
0.000174574
0.000196739
0.000223333
0.000255779
0.000295105
0.000343722
0.00040371
0.000473526
0.000558185
0.000654565
0.00075333
0.000839016
0.000932818
0.00103581
0.00112557
0.000109031
0.000111816
0.000116223
0.000123308
0.000131494
0.000143024
0.000156174
0.000173599
0.000194149
0.000220117
0.000251433
0.000290032
0.000340014
0.000400752
0.000473952
0.000562724
0.000668727
0.000778535
0.00087282
0.000958585
0.00107067
0.00118552
0.001284
0.000123691
0.000126578
0.000131995
0.000140604
0.00015166
0.000165273
0.000181837
0.000201892
0.000225969
0.000255195
0.00029066
0.000334473
0.000388745
0.000456507
0.00054061
0.000643729
0.000764379
0.000876952
0.000953911
0.00106372
0.00119191
0.00131739
0.00142763
0.000137367
0.000140428
0.000145301
0.000153256
0.000162524
0.000175914
0.000191223
0.000212245
0.000237282
0.000270691
0.000312233
0.000365489
0.000435142
0.000524035
0.000632015
0.000756423
0.000877915
0.000963536
0.00104563
0.00117146
0.00130861
0.00143178
0.00155241
0.000150454
0.000153673
0.000160851
0.000170783
0.000183804
0.000200212
0.000220862
0.000246704
0.000278989
0.000319305
0.000368804
0.000429218
0.000502997
0.000596287
0.000714471
0.000840452
0.000932159
0.000992197
0.00109962
0.00125362
0.00140419
0.00154146
0.00165248
0.000161343
0.000164729
0.000170182
0.000179146
0.000189769
0.000205228
0.000223083
0.000247983
0.000277727
0.000318076
0.000368218
0.000434231
0.000518523
0.000631614
0.00076496
0.000890816
0.000976177
0.00103868
0.00115732
0.00131785
0.00147545
0.00162094
0.00172829
0.000171027
0.000175822
0.000184009
0.000195165
0.000210035
0.000229091
0.000253601
0.000284924
0.000325047
0.000376473
0.00044173
0.000523711
0.000621211
0.000732998
0.000852363
0.000977987
0.00105967
0.00103307
0.00117081
0.00135209
0.00152497
0.00168312
0.00178079
0.000177764
0.00018146
0.000187639
0.00019781
0.000210135
0.000228011
0.000249079
0.000278581
0.000314462
0.000364219
0.000427564
0.00051542
0.000631724
0.0007918
0.000987497
0.00113866
0.00114834
0.00108499
0.00120041
0.00138082
0.00155511
0.00171767
0.00181861
0.000184438
0.000189878
0.000198864
0.000211306
0.000228078
0.000249869
0.000278364
0.000315561
0.00036493
0.000431129
0.000521393
0.000644618
0.000812605
0.00101258
0.00117465
0.00120056
0.00120056
0.0010795
0.00119015
0.00138784
0.00157782
0.00175039
0.00181861
3.72566e-06
4.57679e-06
8.7129e-06
0.000146688
4.74142e-06
5.1643e-06
6.58543e-06
2.48364e-05
6.11831e-06
6.75462e-06
8.12422e-06
8.31966e-06
1.21325e-05
1.59753e-05
1.94432e-05
2.16924e-05
0.000404993
0.000378315
0.000333926
0.000301595
0.000936712
0.000949186
0.00091647
0.000866432
0.000936712
0.00106665
0.00117456
0.00126774
0.000932218
0.00106665
0.00117456
0.00126774
0.000965344
0.00107222
0.00110849
0.00124952
0.0010511
0.00113584
0.00110049
0.00116182
0.00105365
0.00114739
0.00108492
0.000996865
0.00105365
0.00114739
0.00115419
0.000872875
0.000985372
0.00111152
0.00115419
0.00111521
0.000869579
0.000990639
0.0011174
0.00111521
0.00075809
0.000839704
0.000933401
0.00102816
0.000680342
0.00073511
0.00078066
0.000856181
0.000630041
0.000672756
0.000707919
0.000748993
0.000591635
0.00062551
0.000656102
0.000687746
0.00056957
0.000597828
0.000626328
0.00065405
0.000556551
0.000582334
0.000609893
0.000635571
0.000551101
0.000576592
0.000603585
0.000628082
0.000556949
0.000582993
0.000610803
0.000635914
0.000570035
0.000597488
0.000627144
0.000653503
0.00057993
0.000609799
0.000642406
0.000671097
0.000589427
0.000622651
0.00065887
0.000691088
0.000592783
0.00062881
0.000667952
0.000703899
0.000599975
0.000638256
0.000678883
0.000718154
0.00061571
0.000655767
0.000697067
0.000739553
0.000643703
0.00068652
0.000728101
0.000773806
0.000678871
0.000720747
0.000758498
0.000803147
0.000728857
0.000765113
0.000795659
0.000833917
0.000835137
0.000863137
0.000886925
0.000914269
0.000996441
0.00101773
0.00103873
0.00105534
0.00117425
0.00119411
0.00121549
0.00122667
0.00133951
0.00136277
0.00138602
0.00139897
0.00149146
0.00152153
0.00154882
0.00156809
0.00162521
0.00166244
0.00169434
0.00171975
0.00173408
0.00177747
0.00181417
0.00184565
0.00181811
0.00186647
0.00190748
0.0019437
0.00187704
0.00192896
0.00197315
0.00201229
0.00191999
0.00197534
0.00202224
0.00206365
0.00191999
0.00197534
0.00202224
0.00206365
0.000979272
0.00118585
0.00111358
0.000772104
0.000404171
8.00039e-05
9.72849e-05
0.000710751
0.00113978
0.00129522
0.00144683
0.00147898
0.00147898
0.00176982
0.0017841
0.0017841
0.000867018
0.00138701
0.000721262
0.000273059
0.000521774
0.000279257
7.55598e-05
5.75507e-05
7.21407e-05
0.000524661
0.000876296
0.000916374
0.00100327
0.00106731
0.00100729
0.0013076
0.00180239
0.00180239
0.00144586
0.000805733
0.00138701
0.000681799
2.36672e-05
3.26725e-05
2.53779e-05
2.28279e-05
2.89212e-05
9.64275e-05
0.000762662
0.000967615
0.000967615
0.000967226
0.000746112
0.00145408
0.00187453
0.00187453
0.00159962
0.00101469
0.000783174
0.00136745
0.000643371
2.52208e-05
2.5106e-05
2.07276e-05
1.67228e-05
3.33769e-05
0.000314559
0.00108187
0.00108187
0.00102815
0.000978213
0.00168464
0.00198605
0.00198605
0.00180576
0.00115207
0.000590454
0.000759422
0.00131165
0.000607549
0.000187959
0.000166691
0.000135697
9.35115e-05
6.98026e-05
0.000524519
0.000965629
0.000980998
0.00119932
0.00169939
0.00195155
0.00195854
0.00195854
0.00141754
0.000705316
0.000332604
0.00073838
0.00123719
0.000514593
0.000696506
0.000537365
0.000445344
0.000279656
0.000153649
0.000577388
0.000925138
0.0010779
0.00138659
0.00169737
0.00182478
0.00182478
0.00157321
0.000947977
0.000418936
0.000284533
0.000748976
0.00113467
0.000390072
0.00127219
0.00107048
0.000813026
0.000561299
0.000284722
0.000672805
0.00104272
0.00114985
0.0013355
0.00146382
0.00146516
0.00151917
0.000992193
0.000403114
0.000323359
0.000384375
0.000730736
0.000979163
0.000275592
0.00153161
0.00153161
0.00113775
0.000702769
0.000440954
0.000563219
0.00105778
0.00111374
0.00111374
0.00122078
0.00121043
0.000964812
0.000641028
0.000577805
0.00050146
0.000456108
0.000647415
0.000753747
0.00017695
0.0016249
0.0016249
0.00156191
0.00117087
0.000668949
0.000438246
0.000797113
0.00112764
0.00116555
0.00116555
0.000765873
0.000520497
0.000518965
0.000507284
0.00042549
0.000542085
0.000590134
0.000552341
0.000115886
0.00148674
0.00148674
0.00142421
0.00130206
0.000993571
0.000587653
0.000324064
0.000767829
0.00102486
0.000642122
0.000301758
0.000386618
0.000434734
0.000473091
0.000605085
0.000687627
0.000687627
0.000455131
8.39201e-05
0.0014903
0.00149966
0.00122507
0.00107572
0.000990271
0.0007682
0.000329622
0.000238398
0.000516204
0.000200403
0.000191194
0.000265679
0.000264522
0.000272762
0.000372361
0.000476062
0.000448974
0.000329933
0.000106049
0.00144485
0.00167626
0.00167626
0.00129892
0.000865606
0.000527034
0.00038602
0.000297452
0.000226519
0.00021676
0.000255344
0.00044831
0.000453007
0.000384822
0.000290686
0.000354214
0.000348284
0.000311518
8.7371e-05
0.000838581
0.00138904
0.00147253
0.00147253
0.00133228
0.00102989
0.000567804
0.000415818
0.000371143
0.000357645
0.000373891
0.000555507
0.000555507
0.000501595
0.000379572
0.000246408
0.000233657
0.000132417
2.19312e-05
0.00092464
0.000680269
0.00105355
0.00115747
0.00113602
0.00108635
0.00107399
0.00100761
0.000919801
0.000834211
0.000715677
0.000446859
0.000295581
0.000204416
0.000107016
6.07869e-05
4.04752e-05
2.62008e-05
1.14841e-05
0.00092464
0.00091764
0.000665625
0.000683959
0.000782177
0.0010296
0.00123197
0.00127646
0.00127646
0.00116723
0.00102384
0.000961355
0.000956033
0.000787718
0.000644647
0.000341805
6.437e-05
2.47216e-05
1.01847e-05
0.000868552
0.000851597
0.00066248
0.000347127
0.000616696
0.00100809
0.00129361
0.00141808
0.00141808
0.00139974
0.0012887
0.00116022
0.0010389
0.000903376
0.000813004
0.000751463
0.000114883
3.19149e-05
1.70586e-05
0.000843532
0.000843532
0.000789765
0.000675379
0.000619682
0.000620618
0.000790229
0.00097633
0.00106113
0.0010806
0.00104342
0.00105955
0.00105955
0.00102535
0.000960712
0.000960712
0.00052058
7.08634e-05
2.1899e-05
0.000790964
0.00079665
0.00079665
0.000831285
0.000851787
0.000796482
0.00065004
0.000388978
0.000660421
0.000816046
0.000877913
0.000978257
0.00105707
0.00105707
0.00109434
0.0011059
0.00085691
0.000192983
6.48789e-05
0.000790842
0.000837485
0.000878346
0.000960279
0.00101573
0.00101573
0.000972956
0.000850832
0.000722296
0.000625131
0.00064919
0.000804248
0.00109122
0.00129339
0.00135721
0.00135721
0.00126455
0.000864665
0.000504919
0.000768111
0.000823659
0.00088106
0.000970593
0.00106702
0.00109772
0.00109772
0.00104138
0.000908893
0.000709109
0.000515585
0.000441967
0.000770583
0.001266
0.0015671
0.00160217
0.00160217
0.00131779
0.00102275
0.0007752
0.000838059
0.00089527
0.000965036
0.00103946
0.00108043
0.00108043
0.00105564
0.000952366
0.000770046
0.000550323
0.000307915
0.00031036
0.000737812
0.00111513
0.00138334
0.00164895
0.00164895
0.00154558
0.000776073
0.000841789
0.000901049
0.000963557
0.00101942
0.00104601
0.00104601
0.00102467
0.000940159
0.000790103
0.000602639
0.000388473
0.00022725
0.000549445
0.00116951
0.00170516
0.00179846
0.00179846
0.00149117
0.000793315
0.000858924
0.000915806
0.000969737
0.00101717
0.00103377
0.00103377
0.00101065
0.000944839
0.000827659
0.000691108
0.000541419
0.00043544
0.000548359
0.00121597
0.00167455
0.00167455
0.00151631
0.00130583
0.000819195
0.000885371
0.000942549
0.00098995
0.00102845
0.00103836
0.00103836
0.00101126
0.00095437
0.000857501
0.00075877
0.000648584
0.000622353
0.000589024
0.00122277
0.00148867
0.00145035
0.00145035
0.00132909
0.000845864
0.00091838
0.000980011
0.00102771
0.00106369
0.00107675
0.00107675
0.00105848
0.00101725
0.000942902
0.00087641
0.000794355
0.000818268
0.000696998
0.00127506
0.00158361
0.00158361
0.00148508
0.0013569
0.000884158
0.000964617
0.0010325
0.00108255
0.00111636
0.00112984
0.00112984
0.00111746
0.00109101
0.00104044
0.00100104
0.00095336
0.00099651
0.00087225
0.00127017
0.00154162
0.00160016
0.00160016
0.00147279
0.000900125
0.000997834
0.00108325
0.00114767
0.00118856
0.00120927
0.00120927
0.00120502
0.00118887
0.00115393
0.00113347
0.00113021
0.00113827
0.00107081
0.000979194
0.00147636
0.00155326
0.00155326
0.00116535
0.000942589
0.00105037
0.00114573
0.00122367
0.00127469
0.0013013
0.00130172
0.00130172
0.00129526
0.00127393
0.00126416
0.00127414
0.00127414
0.00122783
0.000882481
0.00143542
0.00161211
0.00161211
0.00120601
0.000967859
0.00108572
0.00119616
0.00129473
0.0013695
0.00141611
0.0014272
0.0014272
0.00142385
0.00140576
0.00139426
0.0014091
0.0014091
0.00138701
0.000871015
0.00135438
0.00159003
0.00159003
0.00117273
0.00102915
0.00115697
0.00127951
0.00138581
0.00146845
0.00152965
0.00155347
0.00155617
0.00155617
0.00154165
0.00152589
0.00152111
0.00152111
0.00149969
0.00104219
0.00125501
0.00163007
0.00163007
0.0011695
0.00103088
0.00117014
0.00131352
0.00146109
0.00158475
0.00166606
0.00170317
0.00170771
0.00170771
0.00168749
0.00165867
0.00164349
0.00163804
0.00161969
0.00124426
0.00109357
0.00168468
0.00168468
0.00120218
0.00106705
0.00118029
0.00131863
0.00148787
0.00166885
0.00180889
0.00186076
0.00186225
0.00186225
0.00183685
0.00179388
0.00176289
0.00174348
0.00172674
0.00143756
0.000975071
0.00168212
0.00168212
0.00121753
0.00114206
0.00120107
0.0012797
0.00141381
0.00162398
0.00188149
0.00203607
0.00204677
0.00204677
0.00200202
0.00193748
0.001888
0.00185294
0.00182801
0.00160267
0.000988985
0.00160812
0.00166001
0.00129888
0.00132405
0.00133991
0.00134605
0.00141111
0.00158089
0.00182667
0.00208782
0.00220166
0.00220166
0.00215584
0.00206403
0.00198557
0.00193136
0.00189585
0.0017069
0.00116487
0.00146989
0.0016563
0.00145773
0.0014869
0.0014869
0.00143992
0.00135258
0.00151886
0.00180063
0.0020538
0.0022771
0.00231694
0.00231694
0.00221618
0.00210254
0.00202147
0.00197098
0.00181134
0.0013459
0.00131045
0.00158921
0.00138378
0.00167933
0.00167933
0.00161799
0.00150341
0.00141644
0.0015692
0.00190034
0.00218706
0.00232528
0.00232528
0.00229072
0.00217605
0.00206597
0.00199473
0.00185441
0.00145441
0.00111986
0.00146514
0.00122988
0.00185247
0.00185247
0.00179744
0.00166769
0.00148834
0.00120984
0.00161044
0.00206946
0.00229017
0.00231276
0.00231276
0.00223754
0.0021269
0.00203363
0.0018926
0.00152854
0.000961885
0.00130479
0.00109397
0.00203067
0.00203067
0.00199634
0.0018886
0.00167053
0.00120565
0.00109251
0.00177698
0.00212048
0.00222478
0.00222478
0.00220052
0.00213033
0.00204853
0.0019247
0.00159314
0.000948138
0.00113037
0.000941837
0.00215903
0.00215903
0.00213837
0.00203327
0.00177
0.00125604
0.000649504
0.00148623
0.00194448
0.00213209
0.00216261
0.00216261
0.00213119
0.00207356
0.0019702
0.00167255
0.001028
0.000945283
0.000781492
0.00227199
0.00227199
0.00226687
0.00216998
0.0019198
0.00145819
0.000803011
0.00105404
0.00163793
0.00192735
0.00203223
0.00205649
0.00205649
0.00204118
0.00197725
0.0017268
0.00113941
0.000806912
0.0006132
0.00233039
0.00233225
0.00233225
0.00223448
0.00197374
0.00149946
0.000888971
0.000876756
0.00149035
0.00183293
0.00199053
0.0020546
0.00206382
0.00206382
0.00202884
0.00180933
0.00120347
0.00106721
0.000925645
0.00240098
0.00241414
0.00241414
0.00232524
0.00207437
0.00163008
0.00107937
0.000506459
0.00114146
0.0015559
0.00179246
0.0019336
0.00200894
0.00200894
0.0020072
0.00186204
0.00114139
0.00125329
0.00125329
)
;

boundaryField
{
    leftWall
    {
        type            calculated;
        value           uniform 0;
    }
    rightWall
    {
        type            calculated;
        value           uniform 0;
    }
    lowerWall
    {
        type            calculated;
        value           uniform 0;
    }
    atmosphere
    {
        type            calculated;
        value           uniform 0;
    }
    defaultFaces
    {
        type            empty;
    }
}


// ************************************************************************* //
