/*--------------------------------*- C++ -*----------------------------------*\
| =========                 |                                                 |
| \\      /  F ield         | OpenFOAM: The Open Source CFD Toolbox           |
|  \\    /   O peration     | Version:  2012                                  |
|   \\  /    A nd           | Website:  www.openfoam.com                      |
|    \\/     M anipulation  |                                                 |
\*---------------------------------------------------------------------------*/
FoamFile
{
    version     2.0;
    format      ascii;
    class       volScalarField;
    location    "0.62";
    object      minKappa;
}
// * * * * * * * * * * * * * * * * * * * * * * * * * * * * * * * * * * * * * //

dimensions      [0 0 0 0 0 0 0];


internalField   nonuniform List<scalar> 
2268
(
1.32559e-07
3.6833e-07
5.84866e-07
7.65805e-07
8.74019e-07
9.79857e-07
1.14312e-06
1.17076e-06
1.1451e-06
1.13756e-06
1.02518e-06
9.10949e-07
7.62252e-07
6.56908e-07
5.45777e-07
4.58128e-07
3.47562e-07
2.85143e-07
2.25347e-07
1.93579e-07
1.67935e-07
1.41035e-07
2.24519e-07
1.32559e-07
3.6833e-07
5.84866e-07
7.65805e-07
8.74019e-07
9.79857e-07
1.14312e-06
1.17076e-06
1.1451e-06
1.13756e-06
1.02518e-06
9.10949e-07
7.62252e-07
6.56908e-07
5.45777e-07
4.56448e-07
3.47562e-07
2.85143e-07
2.25347e-07
1.93579e-07
1.60168e-07
9.10641e-08
1.14762e-07
2.17107e-07
4.22253e-07
6.11589e-07
7.89148e-07
8.9969e-07
1.01216e-06
1.15714e-06
1.17538e-06
1.15261e-06
1.14723e-06
1.02746e-06
9.21184e-07
7.84635e-07
6.70692e-07
5.43413e-07
4.51349e-07
3.48813e-07
2.96442e-07
2.43101e-07
2.06405e-07
1.60168e-07
9.10641e-08
1.14762e-07
3.09131e-07
5.0134e-07
6.5342e-07
8.21676e-07
9.35098e-07
1.05887e-06
1.17882e-06
1.18923e-06
1.18151e-06
1.16263e-06
1.05194e-06
9.42845e-07
8.04504e-07
6.74967e-07
5.43413e-07
4.51349e-07
3.43782e-07
3.02931e-07
2.47621e-07
2.30765e-07
1.95911e-07
1.51684e-07
1.28945e-07
4.09397e-07
6.00283e-07
7.13938e-07
8.66067e-07
9.82727e-07
1.12176e-06
1.20914e-06
1.2124e-06
1.21917e-06
1.17848e-06
1.07831e-06
9.70566e-07
8.30923e-07
6.91098e-07
5.52645e-07
4.51677e-07
3.35318e-07
2.97719e-07
2.44599e-07
2.36426e-07
1.99473e-07
1.87146e-07
1.52167e-07
5.20702e-07
7.0328e-07
7.84668e-07
9.16351e-07
1.03713e-06
1.19305e-06
1.24693e-06
1.25511e-06
1.27973e-06
1.22007e-06
1.11678e-06
1.0047e-06
8.55302e-07
6.97726e-07
5.59577e-07
4.5602e-07
3.15148e-07
2.77079e-07
2.27207e-07
2.56326e-07
2.06216e-07
2.30035e-07
2.07365e-07
6.47197e-07
8.07387e-07
8.68839e-07
9.80398e-07
1.11119e-06
1.27673e-06
1.29776e-06
1.31742e-06
1.34391e-06
1.25929e-06
1.15773e-06
1.04646e-06
9.00568e-07
7.28043e-07
5.8067e-07
4.62157e-07
3.08349e-07
2.538e-07
2.10656e-07
2.70725e-07
2.06216e-07
2.65951e-07
3.10384e-07
8.4294e-07
9.74559e-07
1.01369e-06
1.10257e-06
1.2428e-06
1.39686e-06
1.38744e-06
1.4248e-06
1.42931e-06
1.32486e-06
1.23048e-06
1.09497e-06
9.39743e-07
7.50431e-07
6.07657e-07
4.88962e-07
3.08349e-07
2.538e-07
2.10656e-07
2.93939e-07
2.12592e-07
2.92894e-07
4.71981e-07
0.000269377
0.000314888
0.000365528
0.000293203
0.00020631
0.000124286
0.000177009
0.000176812
0.000185943
0.000198896
0.000226157
0.000251462
0.000259405
0.000243326
0.00023345
0.000227653
0.000213881
0.000155754
0.0001027
0.000269377
0.000269868
0.000365528
0.000293203
0.000154651
6.04241e-05
4.93069e-05
0.000153359
0.000159046
0.000136406
0.000221931
0.000251462
0.000259405
0.000243326
0.00023345
0.000227653
0.000213881
0.000152418
0.000100039
0.000378721
0.000269868
0.000614315
0.000319796
0.000154651
3.91993e-05
1.28163e-05
5.5286e-05
0.000146638
0.000136406
0.000221931
0.000349894
0.000472566
0.000440541
0.000392872
0.000377901
0.000348783
0.000152418
0.000100039
0.000462979
0.000308913
0.000831821
0.000301768
0.000304313
4.63846e-05
1.28163e-05
1.83002e-05
4.10406e-05
7.52307e-05
0.000264291
0.000534408
0.00050227
0.000440541
0.000464116
0.000789747
0.000731423
0.000301409
0.000113503
0.000429819
0.000637165
0.000655904
0.000301768
0.000286222
0.000155766
2.12595e-05
1.72931e-05
2.72333e-05
3.5568e-05
7.22648e-05
0.000147164
0.000594594
0.000568029
0.000464116
0.000511633
0.000670402
0.000478796
0.000132387
0.000429819
0.000762475
0.000335034
0.000392856
0.000286222
0.000102981
1.82015e-05
1.72931e-05
2.72333e-05
3.5568e-05
7.22648e-05
0.000128804
0.000390531
0.000812564
0.000732989
0.000511633
0.000401128
0.000566393
0.000148264
0.000433668
0.000776129
0.000335034
0.000495041
0.000325054
6.04792e-05
1.82015e-05
1.9269e-05
4.746e-05
9.78983e-05
9.57756e-05
0.000128804
0.000540257
0.000766717
0.000823969
0.000533387
0.000222477
0.000657731
0.000165802
0.000525195
0.000797739
0.000441668
0.000495041
0.00023758
4.48387e-05
1.82205e-05
2.5064e-05
0.000176931
0.000401866
0.000469845
0.000514253
0.000606188
0.000766717
0.000823969
0.000711735
0.000222477
0.000735998
0.000209755
3.66745e-06
3.82498e-06
3.71241e-06
3.75173e-06
3.95557e-06
4.07677e-06
3.7606e-06
3.6167e-06
3.18828e-06
2.5995e-06
2.19622e-06
1.84219e-06
1.5953e-06
1.26069e-06
1.01402e-06
8.15158e-07
4.52929e-07
2.41571e-07
3.62434e-07
5.70638e-07
5.45327e-07
7.98899e-07
1.00112e-06
3.52546e-05
3.89406e-05
5.02712e-05
5.70235e-05
4.2505e-05
2.94137e-05
2.36544e-05
2.53487e-05
2.39206e-05
1.88914e-05
9.91318e-06
6.17531e-06
4.80752e-06
2.94784e-06
1.82211e-06
1.45232e-06
6.15245e-07
2.41571e-07
2.58888e-07
4.90428e-07
7.26527e-07
1.43409e-06
1.72584e-06
1.08834e-05
1.08834e-05
1.81585e-05
4.48725e-05
6.42043e-05
6.08908e-05
6.10612e-05
7.87283e-05
0.000110066
0.00013043
0.000106255
7.48038e-05
4.29807e-05
2.08036e-05
6.78599e-06
5.0542e-06
1.85735e-06
1.03919e-06
9.34536e-07
1.13626e-06
1.57478e-06
2.36815e-06
2.74312e-06
2.47059e-05
2.25124e-05
2.69974e-05
2.66172e-05
2.66172e-05
4.13122e-05
7.15094e-05
9.12712e-05
0.0001009
0.000103237
0.000130407
0.000154258
0.000214702
0.000177092
0.000121424
7.94024e-05
6.73923e-05
1.77594e-05
4.74479e-06
2.37766e-06
5.76826e-06
5.7007e-06
4.90873e-06
1.02517e-05
1.56469e-05
2.62638e-05
3.74158e-05
4.79661e-05
6.12602e-05
6.3984e-05
5.54208e-05
5.54208e-05
5.68693e-05
7.21272e-05
0.000130956
0.000153245
0.000145885
0.000190165
0.000229656
0.000292464
0.000234548
0.000164883
0.00014801
9.45869e-05
3.3256e-05
8.84747e-06
8.23402e-06
1.02538e-05
1.34906e-05
2.12365e-05
3.69566e-05
5.55847e-05
7.31685e-05
8.13693e-05
8.90439e-05
8.11457e-05
0.000102515
0.00010806
9.29006e-05
8.19826e-05
0.000110241
0.000182456
0.000148336
0.00020515
0.00033343
0.000429324
0.000464277
0.000425523
0.000415718
8.23402e-06
9.76588e-06
1.91327e-05
2.77175e-05
3.60662e-05
4.28623e-05
4.81751e-05
5.24847e-05
5.74524e-05
6.78091e-05
8.33445e-05
0.000110793
9.91195e-05
8.19826e-05
9.83178e-05
0.000119833
0.00010528
0.00010528
0.000201058
0.000304448
0.000410651
0.000562165
0.000755638
8.87623e-06
1.34491e-05
1.98124e-05
2.76139e-05
3.8225e-05
4.65803e-05
5.94899e-05
6.60439e-05
7.57337e-05
8.15847e-05
9.16658e-05
0.000101999
0.000110147
0.000103795
0.000141699
0.00017092
0.000127798
0.000171807
0.000242182
0.00027426
0.000310708
0.000388394
0.000516187
1.2694e-05
1.43898e-05
1.84791e-05
2.30762e-05
2.89107e-05
3.53938e-05
4.23183e-05
5.0399e-05
5.91467e-05
7.11643e-05
8.4396e-05
9.95002e-05
0.000113094
0.000120241
0.000134148
0.000161348
0.000181354
0.000221824
0.000294187
0.000342969
0.000415637
0.000516549
0.000620367
1.9022e-05
2.05338e-05
2.66513e-05
2.99604e-05
3.92592e-05
4.4236e-05
5.45621e-05
6.09626e-05
7.141e-05
8.06676e-05
8.91925e-05
0.000100477
0.000113202
0.000126968
0.000146119
0.000170325
0.000195167
0.000224956
0.000274492
0.000339894
0.000418963
0.000537722
0.000704787
2.21195e-05
2.21195e-05
2.43818e-05
2.73938e-05
3.18692e-05
3.74972e-05
4.39874e-05
5.21919e-05
6.1196e-05
7.20882e-05
8.4643e-05
9.81352e-05
0.000113242
0.000128683
0.000147313
0.000173203
0.000204134
0.000243341
0.000298841
0.000366338
0.000450232
0.000566763
0.000731413
2.65386e-05
2.74279e-05
3.10134e-05
3.35604e-05
3.99122e-05
4.47101e-05
5.24658e-05
5.99392e-05
6.78049e-05
7.64007e-05
8.66067e-05
9.83904e-05
0.00011245
0.000128656
0.000148402
0.000172882
0.000203485
0.000241682
0.000292246
0.000357035
0.000439791
0.000551768
0.000709755
2.68152e-05
2.68152e-05
2.84915e-05
3.10455e-05
3.47562e-05
3.99479e-05
4.58755e-05
5.36512e-05
6.25225e-05
7.27357e-05
8.48295e-05
9.8306e-05
0.000114157
0.000132227
0.000153714
0.000180073
0.000212016
0.000251589
0.000302703
0.000365893
0.000444916
0.000545758
0.000643718
2.98864e-05
3.06009e-05
3.31104e-05
3.564e-05
4.01763e-05
4.54787e-05
5.06694e-05
5.74905e-05
6.55345e-05
7.45021e-05
8.55533e-05
9.81696e-05
0.000113131
0.000130704
0.000151665
0.000177217
0.000208262
0.000245975
0.000292495
0.000350267
0.000421913
0.000511909
0.000564771
2.74546e-05
2.74546e-05
2.90724e-05
3.1815e-05
3.53442e-05
4.05808e-05
4.62746e-05
5.3782e-05
6.24266e-05
7.24788e-05
8.44591e-05
9.81784e-05
0.000114388
0.00013319
0.000155345
0.000181753
0.000213212
0.000251274
0.000296941
0.000351294
0.000415926
0.000492015
0.00050249
2.7133e-05
2.8024e-05
3.05971e-05
3.414e-05
3.77596e-05
4.33183e-05
4.85359e-05
5.5564e-05
6.3647e-05
7.30332e-05
8.44042e-05
9.74511e-05
0.000112818
0.000130891
0.000152242
0.000177619
0.000207649
0.000243527
0.000286013
0.000336718
0.000396812
0.000466025
0.000463523
2.38838e-05
2.38838e-05
2.58256e-05
2.92349e-05
3.31801e-05
3.88641e-05
4.4872e-05
5.2647e-05
6.13292e-05
7.16313e-05
8.35419e-05
9.75682e-05
0.000113812
0.000132858
0.000155003
0.000180934
0.000211318
0.000246828
0.00028823
0.000335675
0.000390694
0.000451733
0.000434507
2.03851e-05
2.16305e-05
2.48693e-05
2.94589e-05
3.36288e-05
3.98908e-05
4.57774e-05
5.34137e-05
6.18858e-05
7.18837e-05
8.33786e-05
9.68482e-05
0.000112387
0.000130919
0.000152305
0.000177405
0.000206709
0.000240708
0.000280445
0.000325698
0.000377665
0.000434408
0.000410902
1.62662e-05
1.6718e-05
1.92843e-05
2.3618e-05
2.84639e-05
3.47856e-05
4.16314e-05
4.99838e-05
5.92731e-05
7.01982e-05
8.24602e-05
9.69063e-05
0.000113149
0.000132447
0.000154374
0.000179978
0.000209575
0.000243291
0.000282273
0.000325761
0.000375307
0.000429244
0.000403194
1.19967e-05
1.36178e-05
1.69792e-05
2.18656e-05
2.63639e-05
3.33929e-05
3.99238e-05
4.81213e-05
5.73623e-05
6.81949e-05
8.06239e-05
9.50698e-05
0.000111604
0.000131073
0.000153092
0.000178776
0.000208099
0.000241541
0.000279885
0.000322178
0.000369653
0.000420868
0.000392022
8.189e-06
8.47955e-06
1.12682e-05
1.55778e-05
2.04752e-05
2.64348e-05
3.31093e-05
4.14916e-05
5.11319e-05
6.23583e-05
7.54339e-05
9.05795e-05
0.000108005
0.000128317
0.000151366
0.000178215
0.000208313
0.00024279
0.000281551
0.000324318
0.000371779
0.000422855
0.000393071
5.25046e-06
6.60501e-06
8.10662e-06
1.1255e-05
1.41549e-05
1.93936e-05
2.46075e-05
3.26694e-05
4.16247e-05
5.33483e-05
6.68013e-05
8.22899e-05
0.000100644
0.000121849
0.000146354
0.00017456
0.000206151
0.000242424
0.00028214
0.000326236
0.000374313
0.0004254
0.000393712
2.37462e-06
2.37462e-06
3.87615e-06
6.02731e-06
7.44993e-06
1.00282e-05
1.3103e-05
1.93938e-05
2.73787e-05
3.78288e-05
5.15521e-05
6.75684e-05
8.59195e-05
0.000107176
0.000132465
0.00016171
0.000195062
0.000233636
0.000275659
0.000323282
0.000374521
0.000428781
0.000400766
3.73343e-06
4.79649e-06
4.86111e-06
5.30476e-06
4.9899e-06
4.9899e-06
5.83044e-06
9.08845e-06
1.53479e-05
2.39533e-05
3.57531e-05
5.05409e-05
6.90024e-05
9.11803e-05
0.000117961
0.000148857
0.000184767
0.000225685
0.00027062
0.00032212
0.000376642
0.000434792
0.000411156
2.52438e-06
2.52438e-06
3.5794e-06
4.44417e-06
5.37757e-06
5.76288e-06
7.48581e-06
9.77548e-06
1.41419e-05
2.06024e-05
2.98255e-05
4.20543e-05
5.76213e-05
7.71671e-05
0.000101261
0.000129969
0.000164536
0.000204639
0.000250584
0.000304163
0.000361029
0.00042396
0.000412839
6.11363e-06
7.39224e-06
8.78924e-06
1.01662e-05
1.17434e-05
1.22878e-05
1.41847e-05
1.49993e-05
1.92127e-05
2.12441e-05
2.55514e-05
3.37408e-05
4.6837e-05
6.5384e-05
8.95137e-05
0.000119022
0.000154772
0.000196096
0.000244312
0.000299258
0.000357983
0.000425417
0.000422507
9.9143e-06
1.0654e-05
1.33818e-05
1.6722e-05
2.00366e-05
2.20953e-05
2.49375e-05
2.63414e-05
3.00796e-05
3.28863e-05
4.14396e-05
5.0307e-05
6.69252e-05
8.4662e-05
0.000105036
0.000129177
0.000159203
0.000195238
0.000239072
0.000289845
0.000346902
0.000414785
0.000416534
1.56667e-05
1.78781e-05
2.12059e-05
2.49695e-05
2.93291e-05
3.29712e-05
3.76766e-05
4.10788e-05
4.6697e-05
5.10599e-05
5.96503e-05
6.77103e-05
7.93363e-05
9.30316e-05
0.000111515
0.00013557
0.000166808
0.000205081
0.000251348
0.000303961
0.000363878
0.000434049
0.000432896
2.27534e-05
2.48768e-05
2.80604e-05
3.24124e-05
3.76865e-05
4.32067e-05
4.9259e-05
5.42143e-05
6.15077e-05
6.76842e-05
7.7824e-05
8.75484e-05
0.000103286
0.000119842
0.000144454
0.000170433
0.000206255
0.00024285
0.000284013
0.000331504
0.000387457
0.000452986
0.000440476
3.18036e-05
3.42516e-05
3.81711e-05
4.31211e-05
4.90005e-05
5.48328e-05
6.21741e-05
6.87845e-05
7.80489e-05
8.64469e-05
9.90935e-05
0.000111354
0.00012905
0.000147082
0.000168956
0.000195467
0.000228005
0.000267208
0.000314212
0.000367681
0.000428092
0.00049608
0.0004748
4.18238e-05
4.42859e-05
4.80236e-05
5.2656e-05
5.85002e-05
6.521e-05
7.31882e-05
8.21632e-05
9.29579e-05
0.00010403
0.00011929
0.000134299
0.000155662
0.000177441
0.000207212
0.000238822
0.000280064
0.000322784
0.000375605
0.000428637
0.000488961
0.000547274
0.000494299
5.36619e-05
5.62118e-05
6.02201e-05
6.58281e-05
7.23522e-05
7.99135e-05
8.90474e-05
9.87425e-05
0.000111532
0.000124624
0.000142748
0.000161257
0.000186863
0.00021316
0.000245121
0.000281331
0.000323
0.000370476
0.000424346
0.000484036
0.000545709
0.000612739
0.000552252
6.62033e-05
6.87407e-05
7.26752e-05
7.7641e-05
8.38382e-05
9.15036e-05
0.000100997
0.000112384
0.000126498
0.000143443
0.000164371
0.000189206
0.00021949
0.000251658
0.000293174
0.000336952
0.000392157
0.000449923
0.00051581
0.000579263
0.000645312
0.000717228
0.000652997
8.00786e-05
8.27161e-05
8.68248e-05
9.31284e-05
0.00010036
0.00010984
0.000120754
0.000134105
0.000150364
0.000169433
0.000193753
0.000221384
0.000255779
0.000294893
0.000342082
0.000397878
0.000462606
0.000536444
0.000620502
0.000704013
0.000784255
0.00087153
0.000790036
9.43566e-05
9.702e-05
0.000101152
0.000106353
0.000112926
0.000121471
0.000132392
0.000146218
0.000163903
0.000186043
0.000213714
0.000247665
0.000289513
0.000340014
0.000400752
0.000473526
0.000558185
0.000654565
0.00075333
0.000839016
0.000932818
0.00103581
0.000912472
0.000109031
0.000111816
0.000116223
0.000123308
0.000131494
0.000143024
0.000156174
0.000173599
0.000194149
0.000220117
0.000251433
0.000290032
0.000334473
0.000388745
0.000456507
0.00054061
0.000641064
0.000750389
0.000853179
0.00095065
0.00106372
0.00118552
0.00102957
0.000123691
0.000126578
0.000130885
0.000136269
0.000143464
0.000152978
0.00016511
0.000180587
0.00020054
0.000226356
0.00026053
0.000305215
0.000362929
0.000435142
0.000524035
0.000632015
0.000756423
0.000876952
0.000953911
0.00104563
0.00117146
0.00130861
0.00113152
0.000137367
0.000140428
0.000145301
0.000153256
0.000162524
0.000175914
0.000191223
0.000212245
0.000237282
0.000270691
0.000312233
0.000365489
0.000429218
0.000502997
0.000596287
0.000714471
0.000840452
0.000931084
0.000992197
0.00109962
0.00125362
0.00140419
0.00122155
0.000150454
0.000153673
0.000157525
0.000163681
0.000172016
0.0001831
0.000197194
0.00021523
0.000238279
0.000267897
0.000306497
0.000356785
0.000424283
0.000514197
0.000631614
0.00076496
0.000890816
0.000974727
0.00103868
0.00115732
0.00131785
0.00147545
0.00128707
0.000161343
0.000164729
0.000170182
0.000179146
0.000189769
0.000205228
0.000223083
0.000247983
0.000277727
0.000318076
0.000368218
0.000434231
0.000518523
0.000621211
0.000732998
0.000852363
0.000950873
0.00098875
0.00103307
0.00117081
0.00135209
0.00152497
0.00134104
0.000171027
0.00017314
0.000177527
0.000184817
0.000194773
0.000208071
0.000225059
0.000246925
0.000274844
0.000310775
0.000357244
0.000417626
0.00049783
0.000605263
0.000759467
0.000941902
0.00105967
0.00103017
0.00108137
0.00120041
0.00138082
0.00155511
0.00137054
0.000177764
0.00018146
0.000187639
0.00019781
0.000210135
0.000228011
0.000249079
0.000278364
0.000314462
0.000364219
0.000427564
0.00051542
0.000631724
0.0007918
0.000987497
0.00113866
0.0010795
0.00103223
0.00104229
0.00119015
0.00138784
0.00157782
0.00140212
2.21116e-06
2.21116e-06
2.64259e-06
8.7129e-06
1.69187e-06
1.69187e-06
1.96637e-06
2.41687e-06
2.96514e-06
2.96514e-06
3.55755e-06
3.9745e-06
3.15449e-06
3.15449e-06
3.43727e-06
3.75605e-06
1.21325e-05
1.59753e-05
1.94432e-05
2.16924e-05
0.000340804
0.00029724
0.000251659
0.000251659
0.000543733
0.000543733
0.000577853
0.000584993
0.000393731
0.000393731
0.000472722
0.000559323
0.000449698
0.000449698
0.000502142
0.000545595
0.00050755
0.00050755
0.000514652
0.000514652
0.000521317
0.000517496
0.000453231
0.000453231
0.000515929
0.000515929
0.000414331
0.000414331
0.000472954
0.000472954
0.000534452
0.000541693
0.000404
0.000404
0.000459301
0.000510806
0.000348433
0.000348433
0.000375639
0.000412609
0.000317671
0.000317671
0.000337595
0.000357427
0.000295115
0.000295115
0.000311767
0.000327706
0.00027717
0.00027717
0.000290783
0.000304044
0.00027156
0.00027156
0.000284587
0.000297714
0.000263616
0.000263616
0.000275622
0.000287486
0.000264652
0.000264652
0.000276983
0.000289059
0.000264992
0.000264992
0.000277287
0.000289372
0.000270257
0.000270257
0.000283223
0.000295962
0.0002778
0.0002778
0.000291614
0.000305145
0.000280515
0.000280515
0.000295987
0.000311194
0.000288178
0.000288178
0.000305218
0.000322084
0.000285131
0.000285131
0.000303248
0.000321487
0.000296193
0.000296193
0.000314988
0.000334104
0.000301
0.000301
0.000320269
0.000340328
0.000324122
0.000324122
0.00034435
0.000365109
0.000334121
0.000334121
0.000351161
0.00036892
0.00036925
0.00036925
0.000383437
0.000397841
0.000431151
0.000431151
0.00044126
0.000450695
0.000518899
0.000518899
0.00052881
0.0005369
0.000598376
0.000598376
0.000608317
0.000615705
0.000676358
0.000676358
0.000688804
0.000698923
0.000744741
0.000744741
0.000759838
0.000772164
0.000805706
0.000805706
0.000823732
0.000838951
0.000850164
0.000850164
0.000870441
0.000887894
0.00088724
0.00088724
0.000909641
0.000929123
0.000907358
0.000907358
0.000930809
0.000951124
0.000929629
0.000929629
0.000954935
0.000976773
0.000146688
0.000521774
0.000279257
7.55598e-05
5.75507e-05
3.72766e-05
2.93442e-05
9.72849e-05
0.000523115
0.000813941
0.000976876
0.00100729
0.00102583
0.001104
0.00124891
0.000867018
0.000205456
0.000721262
0.00038386
1.51004e-05
3.26725e-05
2.53779e-05
1.94723e-05
2.5025e-05
3.15422e-05
6.95671e-05
0.000524661
0.000830868
0.000825637
0.000558338
0.000780648
0.000780648
0.0013076
0.00138224
0.000641237
0.000193869
0.000681799
0.000456091
7.80036e-06
1.36378e-05
1.46964e-05
1.58355e-05
1.99486e-05
2.89212e-05
9.64275e-05
0.000762662
0.000879772
0.000523916
0.000523916
0.00066324
0.00118438
0.00159445
0.000893839
0.00050106
0.000193869
0.000643371
0.000425458
7.05168e-06
1.32174e-05
1.46964e-05
1.49185e-05
1.64542e-05
3.33769e-05
0.000314559
0.000919136
0.000687987
0.000612913
0.000746112
0.00137752
0.00173458
0.00115207
0.000513315
0.00032163
0.000203239
0.000607549
0.000370569
2.52208e-05
2.5106e-05
2.07276e-05
1.49185e-05
1.64542e-05
6.98026e-05
0.000524519
0.000903202
0.000766389
0.0009405
0.00148288
0.00179669
0.00140185
0.000705316
0.000277134
0.000195511
0.000230517
0.000514593
0.000278428
0.000187959
0.000166691
0.000135697
9.35115e-05
4.09112e-05
0.000153649
0.000577388
0.000903202
0.000899479
0.00138659
0.00145898
0.00151917
0.000803478
0.000403114
0.000189548
0.000189548
0.000284533
0.000390072
0.000186562
0.000696506
0.000537365
0.000445344
0.000262616
0.000128623
0.000271153
0.000672805
0.000959904
0.000984974
0.00122078
0.00119797
0.000964812
0.000384556
0.000251481
0.000203764
0.000192027
0.000384375
0.000275592
0.000113271
0.0010749
0.00107048
0.000702769
0.0004393
0.000284722
0.000354771
0.000563219
0.00103088
0.000984974
0.0010537
0.000735048
0.000520497
0.000513193
0.000358079
0.000323359
0.000263428
0.000456108
0.00017695
6.47829e-05
0.000975348
0.00136016
0.0010554
0.000634044
0.000406123
0.000354771
0.000324064
0.000694572
0.00100245
0.000613936
0.000288797
0.000382242
0.000434734
0.000402054
0.000389538
0.000339048
0.000542085
0.000115886
4.62207e-05
0.00090631
0.00140019
0.00106364
0.000943131
0.000576479
0.000308915
0.000218082
0.000238398
0.000516204
0.000200403
0.000188749
0.000217776
0.000239803
0.000256364
0.000324068
0.000476062
0.000448974
8.39201e-05
3.62185e-05
0.000771736
0.00122507
0.00106364
0.000961001
0.000667172
0.000329622
0.000204489
0.000159984
0.000146952
0.000146541
0.000162873
0.000191194
0.000199043
0.000230182
0.000249326
0.000354214
0.000329933
0.000106049
3.62185e-05
0.000602422
0.00128115
0.00111723
0.000865606
0.000527034
0.00038602
0.000255078
0.000194777
0.000146952
0.000146541
0.000162873
0.000255344
0.000264522
0.000232098
0.000249326
0.000237731
0.000233657
8.7371e-05
8.9424e-06
0.000686668
0.000680269
0.00105355
0.00104774
0.00075469
0.000470393
0.000346856
0.000271157
0.000226519
0.00021676
0.000232206
0.000334193
0.000246681
0.000167957
7.76804e-05
5.55138e-05
4.04752e-05
2.19312e-05
4.07709e-06
0.000667177
0.000503079
0.000525312
0.000683959
0.000782177
0.000826609
0.00056514
0.000415818
0.000371143
0.000357645
0.000368511
0.000263953
0.000168397
7.42947e-05
4.36708e-05
3.4347e-05
2.25756e-05
1.14841e-05
4.07709e-06
0.00072832
0.000503079
0.000421966
0.00022147
0.000466141
0.000761816
0.00101511
0.00100005
0.000919801
0.000834211
0.000715677
0.000434022
0.000295581
0.000204416
0.000107016
6.07869e-05
2.47216e-05
1.01847e-05
4.94562e-06
0.000626997
0.00066248
0.00034139
0.00022147
0.000274361
0.000616696
0.000790229
0.00097633
0.00106113
0.0010806
0.000984392
0.000935663
0.000802122
0.00070102
0.000610617
0.000114883
3.19149e-05
1.67709e-05
8.69066e-06
0.000573468
0.000741696
0.000573065
0.000347127
0.000413057
0.000526462
0.000480688
0.000382329
0.000659489
0.000816046
0.000846305
0.00089058
0.000920488
0.000821492
0.000798474
0.00052058
7.01678e-05
2.1899e-05
1.33214e-05
0.000529279
0.000735863
0.000685878
0.000643276
0.000619682
0.000578476
0.000294747
0.000294747
0.000315558
0.000616713
0.00064919
0.000709414
0.000901379
0.000930508
0.000909256
0.00085691
0.000192983
3.61154e-05
2.1132e-05
0.000520448
0.000729135
0.000743528
0.00076953
0.000851787
0.000789427
0.00065004
0.000388978
0.000550979
0.000528763
0.000470669
0.000441967
0.000671639
0.0010195
0.00109434
0.0011059
0.000810978
0.000183023
6.48789e-05
0.000502147
0.000725025
0.000774889
0.000818041
0.000924343
0.000955668
0.000918607
0.000793777
0.000678996
0.000515585
0.000383968
0.000225325
0.000300531
0.00067888
0.00111513
0.00129331
0.00116173
0.000778116
0.000504919
0.000504834
0.000725025
0.000779943
0.000828873
0.000910661
0.000954819
0.000972417
0.000911095
0.000770046
0.000550323
0.000307915
0.000153316
0.000114519
0.00031036
0.000737812
0.001094
0.00138334
0.00126586
0.00102275
0.000505158
0.000731057
0.000790677
0.000836623
0.0009068
0.000938812
0.000946149
0.000898752
0.000790103
0.000602639
0.000388473
0.000192024
0.000114519
0.00020763
0.000549445
0.00116951
0.00149306
0.00139956
0.00108804
0.000516951
0.000739869
0.000801197
0.000845133
0.0009068
0.000938812
0.000937341
0.000895136
0.00080989
0.000656244
0.000515592
0.000326267
0.00022725
0.000303903
0.000548359
0.00121597
0.00133163
0.00130583
0.00108804
0.000533625
0.000759442
0.000821508
0.000862804
0.000913354
0.000940678
0.000937341
0.000895136
0.00082588
0.000700786
0.000611997
0.000465007
0.00043544
0.000363804
0.000589024
0.00122277
0.00130011
0.00132909
0.00110822
0.000546662
0.00078487
0.000850455
0.000892515
0.000936564
0.000959858
0.000957132
0.000918432
0.000867727
0.00076277
0.000717216
0.000588203
0.000622353
0.000456282
0.000696998
0.00127506
0.00130011
0.00134136
0.00115956
0.000567739
0.000817854
0.000889813
0.000935198
0.000978249
0.000998151
0.00100187
0.000969852
0.000939849
0.000855936
0.000842944
0.000733078
0.000818268
0.00059219
0.00065061
0.00127017
0.00136175
0.00141742
0.000928197
0.000569538
0.000848649
0.000931702
0.000987567
0.00103523
0.0010548
0.00106556
0.00103895
0.00102604
0.000960508
0.000970694
0.000886042
0.00099651
0.00075709
0.000496741
0.000979194
0.00138976
0.00116535
0.000869816
0.000592748
0.00088261
0.000976081
0.00104658
0.00110488
0.00112927
0.00114689
0.00112473
0.0011252
0.00107253
0.00109654
0.00103412
0.00113827
0.000784591
0.000415283
0.000882481
0.00141398
0.00120601
0.000868419
0.000605505
0.0009182
0.00102053
0.00110552
0.00118023
0.00121874
0.00124543
0.00122778
0.00123505
0.00119056
0.00121436
0.00117305
0.00125142
0.000871015
0.000415283
0.000782384
0.00135438
0.00117273
0.0008438
0.000647555
0.000961033
0.00107393
0.00117386
0.00126003
0.00131563
0.00135628
0.00134548
0.00135382
0.00131412
0.00132749
0.00129995
0.00134781
0.00104219
0.000500238
0.000656334
0.00125501
0.0011695
0.000805989
0.000649953
0.000993314
0.00111743
0.00123716
0.00134903
0.00142319
0.00147629
0.00147609
0.00148046
0.00144244
0.00143822
0.0014189
0.00143569
0.00124426
0.000724779
0.000449129
0.00109357
0.00120218
0.000768046
0.000691953
0.00100666
0.00111502
0.00124082
0.00139436
0.00154181
0.0016121
0.00161945
0.00161445
0.00157546
0.00154733
0.00153184
0.00152351
0.00143756
0.000806951
0.000446736
0.000975071
0.00121753
0.000755079
0.00077078
0.00104067
0.00111502
0.00122041
0.00134261
0.00156428
0.00175242
0.00178113
0.00175964
0.00171445
0.00165994
0.00163967
0.00160936
0.00160058
0.000988985
0.000446736
0.000954269
0.00129888
0.000755079
0.00091162
0.00113958
0.00115777
0.00120968
0.00129016
0.0014886
0.00175283
0.00193662
0.00191088
0.00185095
0.0017668
0.00173331
0.00168494
0.00167742
0.00116487
0.000617512
0.000916346
0.00145773
0.000874473
0.00104223
0.00127911
0.00123067
0.00120968
0.00127143
0.00139195
0.00166708
0.00193633
0.00205283
0.00199143
0.00187652
0.00181608
0.0017533
0.0017374
0.0013459
0.000826043
0.000726694
0.00131045
0.000941398
0.00118441
0.0014252
0.00133098
0.00124694
0.00127143
0.00109996
0.00135885
0.00182552
0.00205424
0.00209267
0.0019784
0.00188481
0.00180513
0.00177442
0.00145441
0.000936423
0.000574379
0.00111986
0.000829843
0.00130838
0.00158649
0.00148884
0.00137311
0.00120984
0.000873778
0.000863984
0.00158047
0.00193151
0.00205823
0.00203498
0.00194194
0.00184165
0.0017935
0.00152854
0.000920834
0.00050557
0.000961885
0.000741321
0.00142429
0.00175106
0.00166458
0.00154452
0.00120565
0.000778581
0.000335526
0.00109251
0.00173167
0.00194766
0.00198037
0.00195376
0.00187218
0.00181042
0.00159314
0.000948138
0.00050557
0.000848821
0.000640849
0.00150912
0.00189769
0.00182584
0.00170468
0.00125604
0.000530122
0.000251876
0.000649504
0.00145435
0.00177862
0.00188024
0.00190123
0.00187412
0.00182829
0.00167255
0.001028
0.00052161
0.000734816
0.000563978
0.00158134
0.00201281
0.00195503
0.00183048
0.00145819
0.000803011
0.000251876
0.000534679
0.00105404
0.00161334
0.00177629
0.00185016
0.00185571
0.00183585
0.00172392
0.00113941
0.000616218
0.0006132
0.000563978
0.00161943
0.00209465
0.00204848
0.00191925
0.00149946
0.000888971
0.000458324
0.00029314
0.000876756
0.00141824
0.00163609
0.00177363
0.00182068
0.00184482
0.00177257
0.00120347
0.000602167
0.000806912
0.000585465
0.00166449
0.00215581
0.00211946
0.00198773
0.00163008
0.00107937
0.0004707
0.00029314
0.000506459
0.00114146
0.0015559
0.00177363
0.00182068
0.00185083
0.0017906
0.00114139
0.000602167
0.000897764
0.000904768
)
;

boundaryField
{
    leftWall
    {
        type            calculated;
        value           uniform 0;
    }
    rightWall
    {
        type            calculated;
        value           uniform 0;
    }
    lowerWall
    {
        type            calculated;
        value           uniform 0;
    }
    atmosphere
    {
        type            calculated;
        value           uniform 0;
    }
    defaultFaces
    {
        type            empty;
    }
}


// ************************************************************************* //
