/*--------------------------------*- C++ -*----------------------------------*\
| =========                 |                                                 |
| \\      /  F ield         | OpenFOAM: The Open Source CFD Toolbox           |
|  \\    /   O peration     | Version:  2012                                  |
|   \\  /    A nd           | Website:  www.openfoam.com                      |
|    \\/     M anipulation  |                                                 |
\*---------------------------------------------------------------------------*/
FoamFile
{
    version     2.0;
    format      ascii;
    class       volScalarField;
    location    "0.62";
    object      pcorr;
}
// * * * * * * * * * * * * * * * * * * * * * * * * * * * * * * * * * * * * * //

dimensions      [1 -1 -2 0 0 0 0];


internalField   nonuniform List<scalar> 
2268
(
101287
101287
101286
101285
101284
101282
101279
101274
101269
101261
101251
101238
101221
101200
101173
101140
101101
101055
101002
100946
100890
100844
100816
101287
101287
101286
101285
101284
101282
101279
101275
101269
101262
101252
101239
101222
101201
101175
101142
101102
101056
101003
100946
100889
100839
100810
101287
101287
101287
101286
101284
101282
101279
101275
101270
101263
101253
101241
101224
101203
101177
101145
101106
101059
101005
100946
100885
100831
100797
101288
101287
101287
101286
101285
101283
101280
101276
101271
101265
101255
101243
101227
101207
101181
101149
101110
101063
101008
100946
100879
100818
100777
101288
101288
101287
101286
101285
101283
101281
101278
101273
101267
101258
101247
101231
101212
101187
101156
101117
101070
101013
100947
100873
100800
100747
101288
101288
101288
101287
101286
101284
101282
101279
101275
101269
101262
101251
101236
101218
101194
101163
101125
101078
101020
100949
100867
100778
100706
101288
101288
101288
101287
101287
101285
101284
101281
101278
101273
101266
101256
101242
101225
101202
101173
101136
101089
101029
100954
100861
100752
100649
101289
101289
101289
101288
101287
101286
101285
101283
101280
101276
101270
101261
101249
101233
101212
101184
101148
101102
101042
100964
100860
100725
100568
98297.9
98385.6
98392.1
98375.9
98331.9
98220.8
98001.1
97858.4
97846.3
97897.5
97993.6
98105.7
98150
98173.5
98184.3
98190.2
98183.3
98136.5
98013.4
98355.6
98399.4
98404.5
98396.8
98359.9
98243.9
98015.2
97869.6
97876.4
97930.8
98033.3
98153.8
98185.7
98204
98214
98217.2
98204.3
98147
98028.2
98393.2
98402.2
98407.2
98408.2
98402.6
98305.2
98068.6
97901.1
97890.4
97943.3
98078.9
98193.9
98210.9
98226.3
98235.3
98237.1
98228.3
98172.6
98057.4
98394.5
98404.4
98408
98408.9
98408.2
98375.5
98145.8
97969.7
97905.8
97964.3
98176.6
98196.8
98212.1
98227.5
98236
98237.9
98235.2
98207.9
98100.6
98395.8
98406
98408.7
98409.5
98409.2
98406.3
98205.4
98053.4
98002
98048.5
98174.8
98196.6
98212.7
98229.9
98237.3
98238.9
98238.2
98225.7
98148.4
98399.8
98408.2
98409.6
98410.2
98410
98408.3
98241.5
98121.9
98095.8
98150.5
98210.6
98217
98221.4
98234.2
98239.1
98240.2
98239.9
98234.8
98190.1
98424.6
98413.6
98410.9
98411
98409.9
98393
98266.9
98174.1
98170.4
98222
98248.1
98248.5
98239.2
98239.1
98241.3
98241.7
98241.2
98238.1
98216.6
98442
98423.1
98413
98412.1
98411.1
98396.3
98284.8
98209.7
98225.5
98258.7
98260.2
98258.1
98252.6
98244.4
98243.7
98243.3
98242.5
98239.9
98229.6
101289
101289
101289
101289
101289
101288
101287
101286
101285
101283
101278
101272
101262
101248
101229
101205
101172
101128
101069
100987
100869
100689
100388
101289
101289
101289
101289
101289
101289
101288
101288
101288
101287
101286
101284
101280
101272
101259
101240
101215
101179
101129
101055
100943
100765
100479
101289
101289
101289
101289
101289
101289
101288
101288
101288
101287
101287
101286
101285
101284
101281
101274
101263
101244
101212
101163
101082
100950
100749
101290
101289
101289
101289
101289
101289
101288
101288
101288
101287
101287
101286
101285
101284
101283
101281
101280
101278
101276
101271
101249
101196
101112
101290
101290
101290
101289
101289
101289
101289
101288
101288
101287
101286
101286
101285
101284
101283
101281
101280
101278
101277
101274
101271
101267
101263
101290
101290
101290
101290
101289
101289
101289
101288
101288
101287
101287
101286
101285
101284
101283
101281
101280
101278
101276
101274
101271
101268
101264
101290
101290
101290
101290
101290
101289
101289
101288
101288
101287
101287
101286
101285
101284
101283
101282
101280
101278
101276
101274
101272
101268
101265
101290
101290
101290
101290
101290
101290
101289
101289
101288
101288
101287
101286
101285
101284
101283
101282
101280
101279
101277
101275
101272
101270
101266
101291
101291
101291
101290
101290
101290
101290
101289
101289
101288
101287
101287
101286
101285
101284
101282
101281
101280
101278
101276
101274
101271
101269
101291
101291
101291
101291
101291
101290
101290
101290
101289
101289
101288
101287
101286
101285
101284
101283
101282
101280
101279
101277
101275
101273
101271
101292
101292
101292
101291
101291
101291
101290
101290
101290
101289
101288
101288
101287
101286
101285
101284
101283
101281
101280
101279
101277
101275
101274
101292
101292
101292
101292
101292
101291
101291
101291
101290
101290
101289
101288
101288
101287
101286
101285
101284
101283
101281
101280
101279
101277
101276
101293
101293
101293
101292
101292
101292
101292
101291
101291
101290
101290
101289
101288
101288
101287
101286
101285
101284
101283
101282
101281
101279
101278
101293
101293
101293
101293
101293
101293
101292
101292
101292
101291
101291
101290
101289
101289
101288
101287
101286
101285
101284
101283
101282
101281
101281
101294
101294
101294
101294
101294
101293
101293
101293
101292
101292
101291
101291
101290
101290
101289
101288
101287
101286
101286
101285
101284
101283
101282
101295
101295
101295
101295
101294
101294
101294
101294
101293
101293
101292
101292
101291
101291
101290
101289
101288
101288
101287
101286
101285
101285
101284
101296
101296
101296
101295
101295
101295
101295
101294
101294
101294
101293
101293
101292
101292
101291
101290
101290
101289
101288
101288
101287
101286
101286
101297
101296
101296
101296
101296
101296
101296
101295
101295
101295
101294
101294
101293
101293
101292
101292
101291
101290
101290
101289
101289
101288
101287
101297
101297
101297
101297
101297
101297
101297
101296
101296
101296
101295
101295
101294
101294
101293
101293
101292
101292
101291
101291
101290
101290
101289
101298
101298
101298
101298
101298
101298
101298
101297
101297
101297
101296
101296
101296
101295
101295
101294
101294
101293
101293
101292
101292
101291
101291
101299
101299
101299
101299
101299
101299
101299
101298
101298
101298
101297
101297
101297
101296
101296
101295
101295
101294
101294
101293
101293
101293
101292
101300
101300
101300
101300
101300
101300
101300
101299
101299
101299
101299
101298
101298
101297
101297
101297
101296
101296
101295
101295
101294
101294
101294
101301
101301
101301
101301
101301
101301
101301
101300
101300
101300
101300
101299
101299
101299
101298
101298
101298
101297
101297
101296
101296
101296
101295
101302
101302
101302
101302
101302
101302
101302
101302
101301
101301
101301
101301
101300
101300
101300
101299
101299
101299
101298
101298
101297
101297
101297
101303
101303
101303
101303
101303
101303
101303
101303
101303
101302
101302
101302
101302
101301
101301
101301
101300
101300
101300
101299
101299
101299
101298
101305
101305
101304
101304
101304
101304
101304
101304
101304
101304
101303
101303
101303
101303
101302
101302
101302
101301
101301
101301
101300
101300
101300
101306
101306
101306
101306
101305
101305
101305
101305
101305
101305
101305
101304
101304
101304
101304
101303
101303
101303
101302
101302
101302
101302
101301
101307
101307
101307
101307
101307
101307
101306
101306
101306
101306
101306
101306
101305
101305
101305
101305
101304
101304
101304
101304
101303
101303
101303
101308
101308
101308
101308
101308
101308
101308
101307
101307
101307
101307
101307
101307
101306
101306
101306
101306
101306
101305
101305
101305
101305
101304
101309
101309
101309
101309
101309
101309
101309
101309
101309
101308
101308
101308
101308
101308
101308
101307
101307
101307
101307
101307
101306
101306
101306
101310
101310
101310
101310
101310
101310
101310
101310
101310
101310
101310
101309
101309
101309
101309
101309
101309
101308
101308
101308
101308
101308
101307
101312
101312
101312
101312
101311
101311
101311
101311
101311
101311
101311
101311
101311
101310
101310
101310
101310
101310
101310
101309
101309
101309
101309
101313
101313
101313
101313
101313
101313
101313
101313
101312
101312
101312
101312
101312
101312
101312
101312
101311
101311
101311
101311
101311
101311
101310
101314
101314
101314
101314
101314
101314
101314
101314
101314
101314
101314
101313
101313
101313
101313
101313
101313
101313
101313
101312
101312
101312
101312
101315
101315
101315
101315
101315
101315
101315
101315
101315
101315
101315
101315
101315
101315
101314
101314
101314
101314
101314
101314
101314
101314
101313
101317
101317
101317
101317
101317
101316
101316
101316
101316
101316
101316
101316
101316
101316
101316
101316
101316
101316
101315
101315
101315
101315
101315
101318
101318
101318
101318
101318
101318
101318
101318
101318
101318
101318
101317
101317
101317
101317
101317
101317
101317
101317
101317
101317
101317
101317
101319
101319
101319
101319
101319
101319
101319
101319
101319
101319
101319
101319
101319
101319
101319
101319
101319
101318
101318
101318
101318
101318
101318
101320
101320
101320
101320
101320
101320
101320
101320
101320
101320
101320
101320
101320
101320
101320
101320
101320
101320
101320
101320
101320
101320
101320
101322
101322
101322
101322
101322
101322
101322
101322
101322
101322
101322
101322
101322
101322
101321
101321
101321
101321
101321
101321
101321
101321
101321
101323
101323
101323
101323
101323
101323
101323
101323
101323
101323
101323
101323
101323
101323
101323
101323
101323
101323
101323
101323
101323
101323
101323
101324
101324
101324
101324
101324
101324
101324
101324
101324
101324
101324
101324
101324
101324
101324
101324
101324
101324
101324
101324
101324
101324
101324
99920.4
99572.4
99157.1
98736.4
100138
99880.1
99582.9
99244.6
100529
100367
100185
99986.9
101012
100942
100863
100766
101259
101257
101255
101252
101261
101259
101256
101254
101262
101260
101257
101254
101264
101262
101259
101257
101266
101265
101263
101261
101270
101268
101267
101267
101273
101272
101271
101271
101275
101275
101275
101275
101278
101278
101277
101277
101280
101280
101280
101280
101282
101282
101282
101281
101284
101284
101283
101283
101285
101285
101285
101285
101287
101287
101287
101286
101289
101288
101288
101288
101290
101290
101290
101290
101292
101292
101291
101291
101293
101293
101293
101293
101295
101295
101294
101294
101296
101296
101296
101296
101298
101298
101298
101297
101299
101299
101299
101299
101301
101301
101301
101301
101303
101302
101302
101302
101304
101304
101304
101304
101306
101306
101305
101305
101307
101307
101307
101307
101309
101309
101309
101308
101310
101310
101310
101310
101312
101312
101312
101312
101313
101313
101313
101313
101315
101315
101315
101315
101316
101316
101316
101316
101318
101318
101318
101318
101320
101320
101320
101319
101321
101321
101321
101321
101323
101323
101323
101323
101324
101324
101324
101324
98485.7
98440.1
98420.7
98414.7
98440.8
98437.5
98302.8
98243.8
98265.1
98263.9
98262.5
98260.3
98256.9
98251.4
98247.4
98245.9
98244.7
98242.2
98236.1
98700
98485.5
98489.4
98947.7
98734.3
98607.4
98286.4
98270.4
98268.7
98266.7
98264.5
98261.8
98258.7
98255.1
98251.6
98249.4
98247.7
98245
98236.8
99644.7
99396.8
99298.2
99254.2
99010.3
98983.3
98277.6
98274.2
98271.5
98269
98266.4
98263.6
98260.6
98257.5
98254.6
98252.3
98250.6
98247.9
98239
100582
100367
100111
99722.6
99108.8
98384.4
98281.2
98277
98274.2
98271.3
98268.5
98265.6
98262.6
98259.7
98257.1
98254.9
98253.1
98250.5
98242.1
101237
101168
100894
100290
99318.8
98286.4
98283.6
98280.2
98276.9
98273.7
98270.6
98267.6
98264.6
98261.8
98259.2
98257
98255.3
98252.7
98244.2
101250
101235
101183
100800
99657.3
98290.6
98286.4
98283.1
98279.6
98276.1
98272.7
98269.5
98266.4
98263.6
98261
98258.9
98257.2
98254.8
98241.8
101249
101238
101222
101142
100060
98297.6
98290.3
98286.1
98282.1
98278.4
98274.8
98271.3
98268.1
98265.1
98262.5
98260.4
98258.7
98256.7
98237.4
101251
101238
101221
101193
100617
98314.3
98294.7
98288.8
98284.5
98280.6
98276.7
98273
98269.5
98266.3
98263.6
98261.4
98259.8
98258.1
98242.1
101257
101239
101216
101177
101048
99459.8
98297.5
98290.2
98286.7
98282.6
98278.4
98274.5
98270.6
98267.3
98264.4
98262
98260.2
98258.3
98257.5
101265
101259
101219
101159
100862
100087
98816
98293.2
98289.5
98286.2
98281.1
98276.9
98272.5
98268.9
98265.1
98262.4
98259.4
98237.2
98292.6
101271
101272
101241
101145
100899
100404
99602.5
98737.9
98295.2
98301.1
98326.3
98416.9
98484.9
98416.6
98331.4
98305.2
98322.1
98364.1
98402
101275
101277
101278
101276
101124
100783
100324
99776.1
99354.1
99218.2
99151.8
99150.7
99083.2
98960
98801
98650.6
98594.3
98582.4
98598.8
101277
101278
101279
101278
101278
101274
101137
100813
100597
100470
100253
100007
99780.3
99596.8
99415.5
99160.8
98970.6
98897.3
98969.1
101279
101280
101279
101279
101278
101277
101275
101271
101268
101265
101264
101214
100875
100666
100423
100001
99664.4
99500.9
99496.8
101281
101281
101281
101280
101279
101278
101277
101275
101273
101271
101270
101267
101265
101263
101259
100881
100414
100136
100036
101283
101282
101282
101281
101281
101280
101278
101277
101275
101274
101272
101271
101270
101269
101267
101261
100970
100634
100495
101284
101284
101283
101283
101282
101281
101280
101279
101277
101276
101275
101274
101273
101273
101272
101271
101202
100973
100846
101286
101285
101285
101284
101284
101283
101282
101281
101280
101279
101278
101277
101276
101276
101276
101276
101270
101189
101095
101288
101287
101286
101286
101285
101284
101284
101283
101282
101281
101280
101280
101279
101279
101279
101280
101282
101280
101226
101289
101289
101288
101287
101287
101286
101285
101285
101284
101283
101283
101282
101282
101281
101282
101282
101283
101282
101280
101291
101290
101290
101289
101289
101288
101287
101287
101286
101285
101285
101284
101284
101284
101284
101284
101284
101284
101285
101292
101292
101291
101291
101290
101290
101289
101289
101288
101288
101287
101287
101286
101286
101286
101285
101286
101289
101291
101294
101293
101293
101293
101292
101292
101291
101291
101290
101290
101289
101289
101289
101288
101288
101288
101293
101290
101294
101296
101295
101295
101294
101294
101293
101293
101293
101292
101292
101291
101291
101291
101291
101291
101291
101285
101289
101306
101297
101297
101296
101296
101296
101295
101295
101294
101294
101294
101294
101293
101293
101293
101293
101294
101296
101274
101320
101299
101298
101298
101298
101297
101297
101297
101296
101296
101296
101296
101296
101296
101296
101296
101298
101299
101299
101345
101300
101300
101300
101299
101299
101299
101298
101298
101298
101298
101298
101298
101298
101298
101299
101300
101300
101300
101301
101302
101302
101301
101301
101301
101300
101300
101300
101300
101300
101300
101300
101300
101300
101300
101301
101301
101301
101301
101304
101303
101303
101303
101302
101302
101302
101302
101302
101302
101301
101301
101302
101302
101302
101302
101302
101302
101302
101305
101305
101305
101304
101304
101304
101304
101304
101303
101303
101303
101303
101303
101303
101304
101304
101304
101303
101303
101307
101306
101306
101306
101306
101306
101305
101305
101305
101305
101305
101305
101305
101305
101305
101305
101305
101305
101304
101308
101308
101308
101308
101307
101307
101307
101307
101307
101307
101307
101307
101307
101307
101307
101307
101306
101306
101305
101310
101310
101310
101309
101309
101309
101309
101309
101309
101309
101309
101308
101308
101308
101308
101308
101308
101307
101304
101311
101311
101311
101311
101311
101311
101311
101310
101310
101310
101310
101310
101310
101310
101310
101310
101310
101309
101308
101313
101313
101313
101313
101312
101312
101312
101312
101312
101312
101312
101312
101312
101312
101312
101312
101311
101311
101312
101315
101315
101314
101314
101314
101314
101314
101314
101314
101314
101314
101314
101314
101314
101313
101313
101313
101313
101313
101316
101316
101316
101316
101316
101316
101316
101316
101316
101316
101315
101315
101315
101315
101315
101315
101315
101315
101315
101318
101318
101318
101318
101318
101318
101318
101317
101317
101317
101317
101317
101317
101317
101317
101317
101317
101317
101316
101319
101319
101319
101319
101319
101319
101319
101319
101319
101319
101319
101319
101319
101319
101319
101319
101319
101319
101318
101321
101321
101321
101321
101321
101321
101321
101321
101321
101321
101321
101321
101321
101321
101321
101321
101321
101321
101322
101323
101323
101323
101323
101323
101323
101323
101323
101322
101322
101322
101322
101322
101322
101322
101322
101322
101323
101323
101324
101324
101324
101324
101324
101324
101324
101324
101324
101324
101324
101324
101324
101324
101324
101324
101324
101324
101324
)
;

boundaryField
{
    leftWall
    {
        type            zeroGradient;
    }
    rightWall
    {
        type            zeroGradient;
    }
    lowerWall
    {
        type            zeroGradient;
    }
    atmosphere
    {
        type            fixedValue;
        value           uniform 101325;
    }
    defaultFaces
    {
        type            empty;
    }
}


// ************************************************************************* //
