/*--------------------------------*- C++ -*----------------------------------*\
| =========                 |                                                 |
| \\      /  F ield         | OpenFOAM: The Open Source CFD Toolbox           |
|  \\    /   O peration     | Version:  2012                                  |
|   \\  /    A nd           | Website:  www.openfoam.com                      |
|    \\/     M anipulation  |                                                 |
\*---------------------------------------------------------------------------*/
FoamFile
{
    version     2.0;
    format      ascii;
    class       volScalarField;
    location    "0.62";
    object      rho;
}
// * * * * * * * * * * * * * * * * * * * * * * * * * * * * * * * * * * * * * //

dimensions      [1 -3 0 0 0 0 0];


internalField   nonuniform List<scalar> 
2268
(
1000.05
1000.05
1000.05
1000.05
1000.05
1000.05
1000.05
1000.05
1000.05
1000.05
1000.05
1000.05
1000.05
1000.05
1000.05
1000.05
1000.05
1000.05
1000.05
1000.05
1000.05
1000.05
999.842
1000.05
1000.05
1000.05
1000.05
1000.05
1000.05
1000.05
1000.05
1000.05
1000.05
1000.05
1000.05
1000.05
1000.05
1000.05
1000.05
1000.05
1000.05
1000.05
1000.05
1000.05
1000.05
999.767
1000.05
1000.05
1000.05
1000.05
1000.05
1000.05
1000.05
1000.05
1000.05
1000.05
1000.05
1000.05
1000.05
1000.05
1000.05
1000.05
1000.05
1000.05
1000.05
1000.05
1000.05
1000.05
999.766
1000.05
1000.05
1000.05
1000.05
1000.05
1000.05
1000.05
1000.05
1000.05
1000.05
1000.05
1000.05
1000.05
1000.05
1000.05
1000.05
1000.05
1000.05
1000.05
1000.05
1000.05
1000.05
999.766
1000.05
1000.05
1000.05
1000.05
1000.05
1000.05
1000.05
1000.05
1000.05
1000.05
1000.05
1000.05
1000.05
1000.05
1000.05
1000.05
1000.05
1000.05
1000.05
1000.05
1000.05
1000.05
999.925
1000.05
1000.05
1000.05
1000.05
1000.05
1000.05
1000.05
1000.05
1000.05
1000.05
1000.05
1000.05
1000.05
1000.05
1000.05
1000.05
1000.05
1000.05
1000.05
1000.05
1000.05
1000.05
1000.05
1000.05
1000.05
1000.05
1000.05
1000.05
1000.05
1000.05
1000.05
1000.05
1000.05
1000.05
1000.05
1000.05
1000.05
1000.05
1000.05
1000.05
1000.05
1000.05
1000.05
1000.05
1000.05
1000.05
987.262
988.289
991.741
993.975
995.673
996.88
998.344
999.267
999.911
1000.05
1000.05
1000.05
1000.05
1000.05
1000.05
1000.05
1000.05
1000.05
1000.05
1000.05
1000.05
1000.05
1000.05
648.252
648.241
662.179
675.875
719.01
835.202
736.765
739.528
750.764
750.882
750.886
750.884
755.594
773.663
779.171
779.838
784.004
783.787
772.43
605.28
123.279
140.791
375.077
736.661
835.212
523.785
523.836
675.757
721.939
666.292
587.021
579.109
637.132
682.861
697.11
710.047
784.34
801.481
329.729
7.89696
7.89726
53.4019
440.506
845.498
934.956
582.239
71.9397
71.9368
253.352
129.637
103.554
117.961
124.462
128.037
200.978
596.747
829.558
327.514
8.22562
1.29655
1.29606
16.8452
531.187
946.368
929.902
762.832
539.314
267.776
1.82346
1.81647
2.12754
1.29894
1.49526
17.2715
325.055
829.557
473.328
11.3528
1.29654
1.29627
1.29706
403.804
945.374
996.103
991.57
991.569
851.404
433.79
76.2006
6.96428
1.29894
1.31398
5.76215
141.326
829.557
473.329
21.718
1.70177
1.2963
1.29668
693.198
983.098
996.872
981.593
960.854
960.856
929.928
350.599
10.5869
1.29634
1.29575
1.76659
63.994
829.556
380.188
32.9476
2.24611
1.29592
62.305
829.906
996.52
996.873
830.448
499.327
509.349
523.564
295.519
14.2979
1.29695
1.29262
1.30885
30.3323
799.366
50.2614
20.1264
6.28884
1.296
344.702
941.973
997.834
945.529
448.309
120.771
44.9805
39.0329
50.5918
17.0327
1.30175
1.29269
1.29269
16.3599
736.943
514.352
524.16
551.103
591.056
634.697
682.745
747.873
814.258
884.039
949.887
987.611
1000.05
1000.05
1000.05
1000.05
1000.05
1000.05
1000.05
1000.05
1000.05
1000.05
1000.05
1000.05
1.29333
1.29334
1.29334
1.6453
16.2926
36.8287
68.1951
110.292
177.237
272.431
409.736
588.482
775.388
937.503
1000.05
1000.05
1000.05
1000.05
1000.05
1000.05
1000.05
1000.05
1000.05
1.29326
1.29327
1.29327
1.29327
1.29327
1.29328
1.2933
1.29333
1.31181
2.79452
10.715
39.1091
111.983
240.794
452.869
656.555
809.655
980.548
999.432
999.509
999.636
1000.03
1000.05
1.29323
1.29323
1.29323
1.29323
1.29323
1.29324
1.29324
1.29326
1.29328
1.29329
1.29326
1.29397
1.90313
8.5766
28.3834
90.2889
148.572
279.062
472.786
625.923
787.726
919.695
970.182
1.29322
1.29322
1.29322
1.29322
1.29322
1.29322
1.29322
1.29322
1.29323
1.29323
1.29324
1.29325
1.29333
1.29324
1.29325
1.47791
1.2933
1.29329
1.74556
8.66439
49.8224
141.85
220.848
1.29321
1.29321
1.29321
1.29321
1.29321
1.29321
1.29321
1.29321
1.29321
1.29321
1.29341
1.29431
1.29423
1.29532
1.29487
1.29373
1.29329
1.29322
1.29325
1.29327
1.29327
1.29329
1.29332
1.29321
1.29321
1.29321
1.29321
1.29321
1.29321
1.29321
1.29321
1.29321
1.29321
1.29323
1.29452
1.29531
1.29531
1.29406
1.29325
1.29323
1.29322
1.29323
1.29388
1.29415
1.2934
1.29328
1.29321
1.29321
1.29321
1.29321
1.29321
1.29321
1.29321
1.29321
1.29321
1.29321
1.29325
1.29335
1.29367
1.29331
1.29322
1.29323
1.29324
1.29323
1.29322
1.29347
1.29372
1.29334
1.29326
1.29321
1.29321
1.29321
1.29321
1.29321
1.29321
1.29321
1.29321
1.29321
1.29321
1.29321
1.29321
1.29321
1.29321
1.29321
1.29321
1.29324
1.29324
1.29323
1.29321
1.29321
1.29322
1.29373
1.2932
1.2932
1.2932
1.2932
1.2932
1.29321
1.2932
1.29321
1.29321
1.29321
1.29321
1.29321
1.29321
1.29321
1.29321
1.29321
1.29321
1.29323
1.29322
1.29321
1.2932
1.2932
1.29393
1.2932
1.2932
1.2932
1.2932
1.2932
1.2932
1.2932
1.2932
1.2932
1.2932
1.2932
1.2932
1.2932
1.2932
1.2932
1.2932
1.2932
1.2932
1.2932
1.2932
1.2932
1.2932
1.29348
1.2932
1.2932
1.2932
1.2932
1.2932
1.2932
1.2932
1.2932
1.2932
1.2932
1.2932
1.2932
1.2932
1.2932
1.2932
1.2932
1.2932
1.2932
1.2932
1.2932
1.2932
1.2932
1.29322
1.2932
1.2932
1.2932
1.2932
1.2932
1.2932
1.2932
1.2932
1.2932
1.2932
1.2932
1.2932
1.2932
1.2932
1.2932
1.2932
1.2932
1.2932
1.2932
1.2932
1.29319
1.29319
1.29319
1.2932
1.2932
1.2932
1.2932
1.2932
1.2932
1.2932
1.2932
1.2932
1.2932
1.2932
1.2932
1.2932
1.2932
1.2932
1.2932
1.2932
1.2932
1.29319
1.29319
1.29319
1.29319
1.29319
1.29319
1.29319
1.29319
1.29319
1.29319
1.29319
1.29319
1.29319
1.29319
1.29319
1.29319
1.29319
1.29319
1.29319
1.29319
1.29319
1.29319
1.29319
1.29319
1.29319
1.29319
1.29319
1.29319
1.29319
1.29319
1.29319
1.29319
1.29319
1.29319
1.29319
1.29319
1.29319
1.29319
1.29319
1.29319
1.29319
1.29319
1.29319
1.29319
1.29319
1.29319
1.29319
1.29319
1.29319
1.29319
1.29318
1.29319
1.29319
1.29319
1.29319
1.29319
1.29319
1.29319
1.29319
1.29319
1.29319
1.29319
1.29319
1.29319
1.29319
1.29319
1.29319
1.29319
1.29319
1.29319
1.29319
1.29319
1.29318
1.29318
1.29318
1.29318
1.29318
1.29318
1.29318
1.29318
1.29318
1.29319
1.29319
1.29319
1.29319
1.29319
1.29319
1.29319
1.29319
1.29319
1.29319
1.29319
1.29319
1.29319
1.29319
1.29318
1.29318
1.29318
1.29318
1.29318
1.29318
1.29318
1.29318
1.29318
1.29318
1.29318
1.29318
1.29318
1.29318
1.29318
1.29318
1.29318
1.29318
1.29318
1.29318
1.29318
1.29318
1.29318
1.29318
1.29318
1.29316
1.29317
1.29317
1.29317
1.29317
1.29317
1.29317
1.29317
1.29317
1.29317
1.29317
1.29318
1.29318
1.29318
1.29318
1.29318
1.29318
1.29318
1.29318
1.29318
1.29318
1.29318
1.29318
1.29315
1.29315
1.29315
1.29315
1.29315
1.29315
1.29315
1.29316
1.29316
1.29316
1.29316
1.29317
1.29317
1.29317
1.29317
1.29317
1.29318
1.29318
1.29318
1.29318
1.29318
1.29318
1.29318
1.29313
1.29313
1.29313
1.29313
1.29313
1.29313
1.29314
1.29314
1.29314
1.29314
1.29314
1.29315
1.29315
1.29315
1.29316
1.29316
1.29316
1.29317
1.29317
1.29317
1.29317
1.29318
1.29318
1.29311
1.29311
1.29311
1.29312
1.29312
1.29312
1.29312
1.29312
1.29312
1.29312
1.29312
1.29313
1.29313
1.29313
1.29314
1.29314
1.29315
1.29315
1.29316
1.29316
1.29316
1.29317
1.29317
1.2931
1.2931
1.2931
1.2931
1.2931
1.2931
1.29311
1.29311
1.29311
1.29311
1.29311
1.29311
1.29311
1.29311
1.29312
1.29312
1.29312
1.29313
1.29313
1.29314
1.29314
1.29315
1.29316
1.29309
1.29309
1.29309
1.29309
1.29309
1.29309
1.2931
1.2931
1.2931
1.2931
1.2931
1.2931
1.2931
1.2931
1.2931
1.2931
1.29311
1.29311
1.29311
1.29311
1.29312
1.29312
1.29313
1.29309
1.29309
1.29309
1.29309
1.29309
1.29309
1.29309
1.29309
1.29309
1.29309
1.29309
1.29309
1.29309
1.29309
1.2931
1.2931
1.2931
1.2931
1.2931
1.2931
1.2931
1.29311
1.29311
1.29308
1.29308
1.29308
1.29308
1.29308
1.29308
1.29308
1.29309
1.29309
1.29309
1.29309
1.29309
1.29309
1.29309
1.29309
1.29309
1.29309
1.29309
1.2931
1.2931
1.2931
1.2931
1.2931
1.29308
1.29308
1.29308
1.29308
1.29308
1.29308
1.29308
1.29308
1.29308
1.29308
1.29308
1.29309
1.29309
1.29309
1.29309
1.29309
1.29309
1.29309
1.2931
1.2931
1.2931
1.2931
1.2931
1.29308
1.29308
1.29308
1.29308
1.29308
1.29308
1.29308
1.29308
1.29308
1.29308
1.29308
1.29308
1.29309
1.29309
1.29309
1.29309
1.29309
1.2931
1.2931
1.2931
1.29311
1.29311
1.29311
1.29308
1.29308
1.29308
1.29308
1.29308
1.29308
1.29308
1.29308
1.29308
1.29308
1.29309
1.29309
1.29309
1.29309
1.29309
1.2931
1.2931
1.2931
1.29311
1.29311
1.29312
1.29313
1.29313
1.29308
1.29308
1.29308
1.29308
1.29308
1.29308
1.29308
1.29308
1.29309
1.29309
1.29309
1.29309
1.29309
1.2931
1.2931
1.2931
1.29311
1.29311
1.29312
1.29313
1.29314
1.29314
1.29314
1.29309
1.29309
1.29309
1.29309
1.29309
1.29309
1.29309
1.29309
1.29309
1.29309
1.29309
1.2931
1.2931
1.2931
1.2931
1.29311
1.29311
1.29312
1.29314
1.29315
1.2932
1.2938
1.29478
1.29309
1.29309
1.29309
1.29309
1.29309
1.29309
1.29309
1.29309
1.29309
1.29309
1.2931
1.2931
1.2931
1.2931
1.29311
1.29311
1.29312
1.29314
1.29315
1.2933
1.29555
1.29806
1.29796
1.29309
1.29309
1.29309
1.29309
1.29309
1.29309
1.29309
1.29309
1.2931
1.2931
1.2931
1.2931
1.2931
1.2931
1.29311
1.29312
1.29314
1.29315
1.29334
1.29636
1.2987
1.2987
1.29497
1.29309
1.29309
1.29309
1.29309
1.29309
1.29309
1.29309
1.2931
1.2931
1.2931
1.2931
1.2931
1.2931
1.29311
1.29311
1.29313
1.29314
1.29321
1.29606
1.29866
1.29835
1.29414
1.29308
1.2931
1.2931
1.2931
1.2931
1.2931
1.2931
1.2931
1.2931
1.2931
1.2931
1.2931
1.2931
1.2931
1.29311
1.29312
1.29313
1.29313
1.29378
1.29803
1.29842
1.29361
1.29305
1.29308
1.2931
1.2931
1.2931
1.2931
1.2931
1.2931
1.2931
1.2931
1.2931
1.2931
1.2931
1.2931
1.29311
1.29311
1.29312
1.29313
1.29311
1.29433
1.29616
1.29346
1.29301
1.29306
1.29308
1.2931
1.2931
1.2931
1.2931
1.2931
1.2931
1.2931
1.2931
1.2931
1.2931
1.2931
1.29311
1.29311
1.29312
1.29312
1.29312
1.29328
1.29339
1.29295
1.29295
1.29301
1.29305
1.29307
1.29311
1.29311
1.29311
1.29311
1.29311
1.29311
1.29311
1.29311
1.29311
1.29311
1.29311
1.29311
1.29311
1.29312
1.29312
1.29313
1.29315
1.29301
1.29292
1.29294
1.29301
1.29305
1.29307
1.29311
1.29311
1.29311
1.29311
1.29312
1.29312
1.29312
1.29312
1.29312
1.29312
1.29312
1.29312
1.29312
1.29313
1.29313
1.29312
1.29303
1.29291
1.29289
1.29294
1.293
1.29304
1.29306
1.29313
1.29313
1.29313
1.29313
1.29313
1.29313
1.29313
1.29313
1.29313
1.29313
1.29313
1.29313
1.29314
1.29314
1.29313
1.29306
1.29293
1.29286
1.29285
1.29293
1.29299
1.29303
1.29305
1.29314
1.29314
1.29314
1.29314
1.29314
1.29315
1.29315
1.29315
1.29315
1.29316
1.29316
1.29317
1.29317
1.29317
1.29314
1.29302
1.2929
1.29284
1.29283
1.29292
1.29298
1.29302
1.29305
1000.05
1000
996.884
703.116
1000.05
1000.04
1000.05
976.136
1000.05
1000.05
1000.05
999.881
998.138
997.556
1000.05
1000.05
317.192
348.482
401.078
413.303
1.29334
1.29333
1.29333
1.29332
1.29329
1.29329
1.29518
1.29868
1.29324
1.29324
1.29573
1.39009
1.29547
1.29419
1.29368
1.29514
1.29546
1.29485
1.29366
1.29371
1.29509
1.2943
1.29364
1.29359
1.29332
1.29328
1.29372
1.29411
1.29319
1.29318
1.29428
1.29779
1.29318
1.29318
1.29364
1.29441
1.29318
1.29318
1.29323
1.29416
1.29318
1.29318
1.29319
1.29321
1.29318
1.29318
1.29318
1.29318
1.29318
1.29318
1.29318
1.29318
1.29318
1.29318
1.29318
1.29318
1.29318
1.29318
1.29318
1.29318
1.29318
1.29318
1.29318
1.29318
1.29318
1.29318
1.29318
1.29318
1.29317
1.29317
1.29317
1.29317
1.29316
1.29316
1.29316
1.29316
1.29314
1.29314
1.29314
1.29315
1.29311
1.29311
1.29312
1.29312
1.2931
1.2931
1.29311
1.29311
1.2931
1.2931
1.2931
1.2931
1.29311
1.29311
1.29311
1.29312
1.29313
1.29314
1.29314
1.29314
1.29328
1.29332
1.29327
1.29319
1.29431
1.29355
1.29327
1.29319
1.29387
1.29319
1.29315
1.29322
1.29309
1.2931
1.2931
1.29314
1.29309
1.2931
1.29311
1.2931
1.29309
1.2931
1.2931
1.2931
1.29309
1.29309
1.29309
1.29309
1.29308
1.29308
1.29308
1.29308
1.29308
1.29308
1.29308
1.29308
1.29307
1.29307
1.29307
1.29307
1.29306
1.29306
1.29306
1.29306
1.29305
1.29306
1.29306
1.29306
96.8588
20.1286
29.8737
177.635
734.106
992.029
997.811
586.385
69.8436
3.11156
1.64602
1.64845
2.67278
4.79063
1.40517
1.29273
1.29269
11.4092
727.125
723.214
714.576
890.186
1000.05
1000.05
1000.05
738.703
98.1591
1.29293
1.29297
1.29288
1.48861
1.34471
1.32635
1.31279
1.29273
1.29265
17.8629
743.776
997.46
998.779
1000.05
1000.05
1000.05
1000.05
273.585
1.29355
1.2937
1.2927
1.30923
1.37159
1.29262
1.29282
1.29287
1.2927
1.2926
19.2784
749.304
1000.05
999.345
996.613
993.642
1000.05
915.108
41.5094
1.40577
1.29493
1.30618
1.31115
1.29267
1.2927
1.29273
1.29275
1.29268
1.29247
18.1472
751.694
583.167
659.649
736.731
763.932
954.232
652.819
1.29213
1.29306
1.30941
1.32296
1.31067
1.29265
1.29274
1.29277
1.29272
1.29267
1.29227
21.7948
789.358
6.8978
27.9294
131.006
383.801
804.749
464.633
1.29268
1.2928
1.31099
1.32284
1.30375
1.2927
1.29277
1.29276
1.29271
1.29265
1.29209
49.2869
852.106
1.29867
1.50045
10.48
233.016
641.682
385.571
1.29267
1.29278
1.29732
1.30307
1.29433
1.29273
1.2928
1.29276
1.29273
1.29266
1.29197
148.856
904.482
1.52352
1.5004
2.06084
67.2576
419.392
463.936
1.29168
1.29259
1.29261
1.29259
1.29272
1.29272
1.29274
1.29272
1.29267
1.29281
1.29191
330.238
948.073
4.06049
9.04489
3.14345
8.04466
240.633
491.299
266.083
1.29255
1.29269
1.29263
1.29275
1.31094
1.54246
1.37233
1.30343
1.37853
1.29192
492.055
970.295
1.59599
56.291
156.341
163.824
163.83
416.397
629.201
178.635
1.29229
5.00402
17.6547
54.9212
111.474
70.5921
40.972
32.8898
128.146
624.217
970.295
1.46608
60.345
343.653
363.356
301.627
389.664
690.006
678.681
435.026
427.777
459.319
446.049
496.761
496.761
443.17
310.34
427.314
634.454
881.021
1.37482
8.23705
98.3859
363.348
566.314
692.506
707.89
707.891
707.891
707.891
707.891
341.443
247.054
247.054
340.084
327.932
264.495
264.494
733.477
1.35655
1.2931
1.29312
1.29314
119.335
446.587
651.642
707.292
707.532
707.891
672.445
362.352
364.278
424.974
566.737
672.582
638.628
654.851
951.552
1.32615
1.32276
1.29337
1.29549
1.29316
1.29315
49.9311
205.917
259.709
271.679
391.482
679.252
792.243
875.394
974.668
990.019
990.019
972.505
981.794
1.294
1.2941
1.29322
1.30168
1.29928
1.29314
1.29311
1.29308
1.29306
1.29303
1.29297
7.62792
99.2768
180.212
365.434
816.471
990.019
990.019
979.553
1.29317
1.29317
1.29315
1.29987
1.30574
1.29645
1.29311
1.29402
1.29401
1.29353
1.29308
1.29304
1.29298
1.29287
1.29269
268.861
990.017
990.012
969.231
1.29318
1.29317
1.29316
1.2934
1.30579
1.31833
1.31268
1.31108
1.31339
1.29327
1.29321
1.29321
1.29566
1.29968
2.0712
65.2244
715.368
990.012
982.263
1.29318
1.29317
1.29317
1.29316
1.29357
1.3168
1.33519
1.33519
1.33518
1.29565
1.29359
1.29322
1.29535
1.30088
1.46256
10.0408
282.184
934.768
973.689
1.29318
1.29317
1.29317
1.29317
1.29314
1.29644
1.30504
1.33324
1.32052
1.29642
1.29316
1.29326
1.29355
1.31131
1.39139
5.47059
35.8745
296.757
575.026
1.29318
1.29317
1.29317
1.29317
1.29316
1.29316
1.29342
1.29709
1.29451
1.29335
1.29316
1.29316
1.29551
1.35374
1.35901
1.29642
1.2964
1.29635
53.8098
1.29318
1.29317
1.29317
1.29317
1.29317
1.29316
1.29315
1.29314
1.29314
1.29315
1.29316
1.29316
1.29431
1.2992
1.29677
1.29673
1.3614
3.65147
26.8984
1.29317
1.29317
1.29317
1.29317
1.29317
1.29317
1.29316
1.29316
1.29316
1.29316
1.29316
1.29316
1.29326
1.29543
1.36702
2.50004
4.89341
48.8304
83.9736
1.29317
1.29317
1.29317
1.29317
1.29317
1.29317
1.29317
1.29316
1.29316
1.29316
1.29316
1.29316
1.29317
1.29446
1.66128
28.0491
94.6042
226.628
116.107
1.29317
1.29317
1.29317
1.29317
1.29317
1.29317
1.29317
1.29316
1.29316
1.29316
1.29316
1.29316
1.29316
1.294
1.88818
50.6096
235.425
235.37
76.8071
1.29315
1.29316
1.29316
1.29317
1.29317
1.29317
1.29316
1.29316
1.29316
1.29316
1.29316
1.29316
1.29316
1.29382
2.25384
43.9616
162.535
232.043
76.8071
1.29313
1.29314
1.29315
1.29316
1.29316
1.29316
1.29316
1.29316
1.29316
1.29316
1.29316
1.29316
1.29315
1.29315
2.64714
6.79681
1.29378
47.7958
180.621
1.29311
1.29312
1.29312
1.29314
1.29315
1.29316
1.29316
1.29316
1.29316
1.29316
1.29316
1.29315
1.29315
1.29314
2.57844
1.29368
1.29351
1.29391
390.506
1.2931
1.29311
1.29311
1.29311
1.29313
1.29314
1.29315
1.29316
1.29316
1.29316
1.29315
1.29315
1.29315
1.29314
2.25627
1.32898
1.29345
2.30879
401.245
1.29311
1.29311
1.29311
1.29311
1.29311
1.29312
1.29314
1.29315
1.29315
1.29315
1.29315
1.29315
1.29314
1.29314
1.74771
1.34126
1.29353
1.29293
400.796
1.29313
1.29313
1.29313
1.29312
1.29311
1.29311
1.29312
1.29313
1.29315
1.29315
1.29315
1.29315
1.29314
1.29314
1.61686
1.3385
1.29279
1.29274
396.978
1.29314
1.29314
1.29314
1.29314
1.29313
1.29312
1.29312
1.29312
1.29313
1.29314
1.29314
1.29315
1.29315
1.29314
1.55562
1.346
1.29278
1.29264
398.034
1.29318
1.29313
1.29318
1.29322
1.29319
1.29314
1.29312
1.29312
1.29312
1.29314
1.29314
1.29314
1.29315
1.29314
1.46886
1.35337
1.29316
1.2926
398.038
1.29322
1.29316
1.29312
1.29386
1.29367
1.29312
1.29312
1.29312
1.29312
1.29313
1.29314
1.29314
1.29315
1.29313
1.36934
1.34434
1.29413
1.2926
334.907
1.29319
1.2932
1.29312
1.29385
1.30754
1.29897
1.2931
1.29311
1.29311
1.29312
1.29313
1.29314
1.29314
1.29313
1.29982
1.30515
1.29443
1.29264
90.7939
1.29311
1.29319
1.29311
1.29311
1.37377
1.48295
1.38884
1.29394
1.29311
1.29312
1.29313
1.29314
1.29314
1.29313
1.29315
1.29344
1.29324
1.2927
56.9122
1.2931
1.29311
1.2931
1.29915
1.48294
1.48296
1.48299
1.33923
1.29391
1.29311
1.29312
1.29313
1.29313
1.29313
1.29313
1.29312
1.29406
1.29274
111.461
1.29309
1.29309
1.29314
1.31186
1.4423
1.48295
1.48297
1.42293
1.30247
1.29312
1.29312
1.29313
1.29313
1.29313
1.29313
1.29312
1.29481
1.29278
120.597
1.29308
1.29309
1.2936
1.30339
1.30828
1.4123
1.48299
1.48299
1.31979
1.2931
1.29311
1.29313
1.29313
1.29313
1.29313
1.29366
1.29606
1.29283
120.58
1.29307
1.29309
1.29316
1.29307
1.29361
1.30809
1.35379
1.38343
1.30968
1.29311
1.29311
1.29312
1.29313
1.29313
1.29313
1.30446
1.29764
1.29288
91.2937
1.29306
1.29306
1.29305
1.2931
1.3044
1.31311
1.30009
1.29333
1.29743
1.29344
1.29311
1.29312
1.29313
1.29313
1.2998
1.30687
1.29827
1.29294
32.03
1.29306
1.29306
1.29305
1.29309
1.30063
1.31302
1.30142
1.29309
1.29314
1.29326
1.29312
1.29312
1.29312
1.29414
1.30687
1.30687
1.2985
1.29312
1.29296
1.29305
1.29305
1.29304
1.29304
1.29303
1.29303
1.29452
1.29308
1.2931
1.29312
1.29312
1.29311
1.29312
1.29401
1.30001
1.30484
1.2961
1.29304
1.75567
)
;

boundaryField
{
    leftWall
    {
        type            calculated;
        value           nonuniform List<scalar> 
50
(
1000.05
1000.05
1000.05
1000.05
1000.05
1000.05
1000.05
987.262
514.352
1.29333
1.29326
1.29323
1.29322
1.29321
1.29321
1.29321
1.29321
1.2932
1.2932
1.2932
1.2932
1.2932
1.29319
1.29319
1.29319
1.29318
1.29318
1.29316
1.29315
1.29313
1.29311
1.2931
1.29309
1.29309
1.29308
1.29308
1.29308
1.29308
1.29308
1.29309
1.29309
1.29309
1.29309
1.2931
1.2931
1.2931
1.29311
1.29311
1.29313
1.29314
)
;
    }
    rightWall
    {
        type            calculated;
        value           nonuniform List<scalar> 
50
(
772.43
801.481
829.558
829.557
829.557
829.556
799.366
736.943
727.125
743.776
749.304
751.694
789.358
852.106
904.482
948.073
970.295
970.295
881.021
733.477
951.552
981.794
979.553
969.231
982.263
973.689
575.026
53.8098
26.8984
83.9736
116.107
76.8071
76.8071
180.621
390.506
401.245
400.796
396.978
398.034
398.038
334.907
90.7939
56.9122
111.461
120.597
120.58
91.2937
32.03
1.29296
1.75567
)
;
    }
    lowerWall
    {
        type            calculated;
        value           nonuniform List<scalar> 
62
(
1000.05
1000.05
1000.05
1000.05
1000.05
1000.05
1000.05
1000.05
1000.05
1000.05
1000.05
1000.05
1000.05
1000.05
1000.05
1000.05
1000.05
1000.05
1000.05
1000.05
1000.05
1000.05
999.842
999.842
999.767
999.766
999.766
999.925
1000.05
1000.05
1000.05
1000.05
1000
996.884
703.116
648.252
605.28
329.729
327.514
473.328
473.329
380.188
50.2614
648.252
648.241
662.179
675.875
719.01
835.202
736.765
739.528
750.764
750.883
750.886
750.884
755.595
773.663
779.171
779.839
784.004
783.787
772.43
)
;
    }
    atmosphere
    {
        type            calculated;
        value           nonuniform List<scalar> 
46
(
1.29323
1.29323
1.29324
1.29324
1.29324
1.29324
1.29324
1.29324
1.29325
1.29325
1.29325
1.29326
1.29326
1.29326
1.29322
1.29311
1.29299
1.29293
1.29292
1.29301
1.29308
1.29312
1.29314
1.29315
1.29315
1.29315
1.29315
1.29315
1.29315
1.29314
1.29314
1.29314
1.29313
1.29314
1.29318
1.2932
1.29322
1.29322
1.29321
1.29322
1.2941
1.3001
1.30493
1.29619
1.29312
1.75576
)
;
    }
    defaultFaces
    {
        type            empty;
    }
}


// ************************************************************************* //
