/*--------------------------------*- C++ -*----------------------------------*\
| =========                 |                                                 |
| \\      /  F ield         | OpenFOAM: The Open Source CFD Toolbox           |
|  \\    /   O peration     | Version:  2012                                  |
|   \\  /    A nd           | Website:  www.openfoam.com                      |
|    \\/     M anipulation  |                                                 |
\*---------------------------------------------------------------------------*/
FoamFile
{
    version     2.0;
    format      ascii;
    class       volScalarField;
    location    "0.62";
    object      rhogh;
}
// * * * * * * * * * * * * * * * * * * * * * * * * * * * * * * * * * * * * * //

dimensions      [1 -1 -2 0 0 0 0];


internalField   nonuniform List<scalar> 
2268
(
-29.4294
-29.4294
-29.4294
-29.4294
-29.4294
-29.4294
-29.4294
-29.4294
-29.4294
-29.4294
-29.4294
-29.4294
-29.4294
-29.4294
-29.4294
-29.4294
-29.4294
-29.4294
-29.4294
-29.4294
-29.4294
-29.4294
-29.4231
-88.2881
-88.2881
-88.2881
-88.2881
-88.2881
-88.2881
-88.2881
-88.2881
-88.2881
-88.2881
-88.2881
-88.2881
-88.2881
-88.2881
-88.2881
-88.2881
-88.2881
-88.2881
-88.2881
-88.2881
-88.2881
-88.2881
-88.2627
-147.147
-147.147
-147.147
-147.147
-147.147
-147.147
-147.147
-147.147
-147.147
-147.147
-147.147
-147.147
-147.147
-147.147
-147.147
-147.147
-147.147
-147.147
-147.147
-147.147
-147.147
-147.147
-147.104
-206.006
-206.006
-206.006
-206.006
-206.006
-206.006
-206.006
-206.006
-206.006
-206.006
-206.006
-206.006
-206.006
-206.006
-206.006
-206.006
-206.006
-206.006
-206.006
-206.006
-206.006
-206.006
-205.946
-264.864
-264.864
-264.864
-264.864
-264.864
-264.864
-264.864
-264.864
-264.864
-264.864
-264.864
-264.864
-264.864
-264.864
-264.864
-264.864
-264.864
-264.864
-264.864
-264.864
-264.864
-264.864
-264.83
-323.723
-323.723
-323.723
-323.723
-323.723
-323.723
-323.723
-323.723
-323.723
-323.723
-323.723
-323.723
-323.723
-323.723
-323.723
-323.723
-323.723
-323.723
-323.723
-323.723
-323.723
-323.723
-323.723
-382.58
-382.58
-382.581
-382.581
-382.581
-382.582
-382.582
-382.582
-382.582
-382.582
-382.582
-382.582
-382.582
-382.582
-382.582
-382.582
-382.582
-382.582
-382.582
-382.582
-382.582
-382.582
-382.582
-435.787
-436.241
-437.766
-438.754
-439.504
-440.038
-440.685
-441.093
-441.377
-441.44
-441.44
-441.44
-441.44
-441.44
-441.44
-441.44
-441.44
-441.44
-441.44
-441.44
-441.44
-441.44
-441.44
-19.0631
-19.0629
-19.4735
-19.8771
-21.1481
-24.5718
-21.6712
-21.7527
-22.0838
-22.0873
-22.0874
-22.0874
-22.2262
-22.7586
-22.9209
-22.9405
-23.0633
-23.0568
-22.7221
-53.3907
-10.7831
-12.331
-33.0414
-65.0047
-73.7164
-46.1866
-46.1911
-59.6208
-63.7033
-58.7843
-51.7769
-51.0776
-56.2067
-60.249
-61.5086
-62.6522
-69.2194
-70.7345
-48.3879
-0.972579
-0.972509
-7.67677
-64.7086
-124.376
-137.556
-85.5899
-10.4073
-10.4073
-37.1354
-18.9088
-15.0662
-17.1888
-18.1465
-18.6733
-29.4195
-87.7276
-122.027
-67.286
-1.4294
4.71453e-19
-1.82107e-18
-3.20709
-109.296
-194.932
-191.536
-157.076
-110.972
-54.9649
-0.109383
-0.108107
-0.17231
-0.0013639
-0.0419216
-3.296
-66.7794
-170.838
-125.18
-2.66714
-1.11604e-19
-2.96695e-05
-4.85666e-17
-106.743
-250.363
-263.816
-262.614
-262.614
-225.443
-114.695
-19.8652
-1.50422
-0.00175593
-0.0057701
-1.18551
-37.136
-219.65
-152.998
-6.61954
-0.131464
-9.84939e-05
2.20046e-17
-224.263
-318.227
-322.692
-317.74
-311.017
-311.018
-300.994
-113.219
-3.01267
-0.00130231
-0.00105079
-0.153748
-20.3234
-268.46
-145.137
-12.1247
-0.363986
-2.88418e-16
-23.3697
-317.405
-381.228
-381.363
-317.613
-190.775
-194.614
-200.06
-112.706
-4.98196
-0.00177049
-5.73323e-08
-0.00624719
-11.1244
-305.707
-21.6415
-8.32319
-2.20676
-4.73945e-16
-151.782
-415.769
-440.459
-417.341
-197.576
-52.8082
-19.3096
-16.6809
-21.79
-6.95719
-0.00415833
-6.61695e-08
-1.14094e-13
-6.66016
-325.149
-274.04
-279.278
-293.67
-315.009
-338.319
-363.983
-398.77
-434.228
-471.5
-506.671
-526.821
-533.467
-533.467
-533.467
-533.467
-533.467
-533.467
-533.467
-533.467
-533.467
-533.467
-533.467
-533.467
-9.71222e-37
-7.33539e-35
-9.79814e-21
-0.232116
-9.89172
-23.4348
-44.1203
-71.8823
-116.031
-178.81
-269.359
-387.238
-510.499
-617.411
-658.662
-658.662
-658.662
-658.661
-658.662
-658.662
-658.662
-658.662
-658.662
-1.0687e-16
-4.52966e-15
-8.9675e-14
-3.46533e-28
6.14328e-29
-6.65773e-28
-1.18394e-28
-8.00518e-22
-0.0144957
-1.17818
-7.3944
-29.6789
-86.8723
-187.967
-354.409
-514.268
-634.426
-768.548
-783.368
-783.428
-783.529
-783.834
-783.856
-4.72551e-15
-2.30043e-13
-7.39299e-12
-1.35851e-10
-1.56985e-09
-7.10128e-09
-8.59429e-09
-1.53311e-08
-4.60038e-07
-5.589e-06
-2.2953e-06
-0.000624637
-0.555043
-6.62911
-24.6568
-81.0018
-134.05
-252.819
-429.143
-568.525
-715.794
-835.91
-881.862
-2.02387e-14
-1.03012e-12
-2.69977e-11
-4.18932e-10
-4.06953e-09
-1.96067e-08
-3.22948e-08
-4.1741e-08
-4.1741e-08
-1.65438e-07
-1.11312e-05
-1.55388e-05
-6.6694e-05
-1.97521e-18
-2.2628e-19
-0.191175
-1.23809e-09
-1.23809e-09
-0.468314
-7.63295
-50.2532
-145.55
-227.355
-1.27932e-14
-7.45101e-13
-2.19893e-11
-3.87763e-10
-4.28051e-09
-2.46436e-08
-5.07301e-08
-9.94164e-08
-1.0055e-07
-5.33286e-07
-0.000233456
-0.00127444
-0.00116269
-0.00243933
-0.00192485
-0.000571977
-6.12665e-05
-1.38796e-09
-1.38796e-09
-1.38796e-09
-1.38796e-09
-1.38796e-09
-1.38796e-09
-1.12109e-14
-5.77894e-13
-1.46478e-11
-2.33442e-10
-2.83997e-09
-1.74033e-08
-2.81144e-08
-1.40238e-07
-4.31864e-07
-4.39907e-07
-3.19513e-05
-0.00168952
-0.00270272
-0.00270272
-0.00108606
-5.29161e-05
-2.18507e-05
-8.20424e-06
-1.85365e-05
-0.000853197
-0.0011928
-0.000195551
-1.53783e-09
-5.26376e-15
-2.66908e-13
-6.94704e-12
-1.12532e-10
-1.39876e-09
-9.31697e-09
-1.9473e-08
-1.95691e-07
-1.11045e-06
-8.03495e-06
-6.34711e-05
-0.000201062
-0.000654825
-0.00014846
-1.14872e-05
-2.33453e-05
-4.10775e-05
-3.39693e-05
-2.34243e-05
-0.000365653
-0.000723312
-0.000182384
-5.03521e-05
-2.03531e-15
-9.48371e-14
-2.38319e-12
-3.53812e-11
-4.32244e-10
-3.43679e-09
-5.0623e-09
-1.28015e-07
-1.35347e-06
-5.59871e-06
-8.09705e-06
-7.80861e-07
-7.70951e-07
-3.41296e-07
-3.41297e-07
-5.19957e-06
-4.45499e-05
-5.06151e-05
-4.30157e-05
-1.06562e-05
-3.81652e-06
-1.42186e-05
-0.000790023
-7.51532e-16
-3.41321e-14
-8.54237e-13
-1.24778e-11
-1.37198e-10
-1.21549e-09
-4.29677e-09
-1.19704e-07
-9.766e-07
-3.57762e-06
-2.11429e-06
-5.71561e-07
-2.16767e-07
-3.95808e-07
-6.40916e-07
-1.31017e-06
-1.30276e-05
-3.42405e-05
-2.68818e-05
-2.88797e-06
-7.72979e-07
-3.26384e-06
-0.00120655
-2.16378e-16
-9.18738e-15
-2.25214e-13
-3.14985e-12
-3.09697e-11
-3.0483e-10
-1.00813e-09
-4.53662e-08
-2.65197e-07
-4.06703e-07
-3.90536e-07
-3.09959e-07
-2.33112e-07
-4.23917e-07
-7.69171e-07
-8.54245e-07
-1.18006e-06
-3.05922e-06
-3.14631e-06
-1.47987e-06
-8.31258e-07
-3.42634e-06
-0.000503864
-5.69984e-17
-2.34332e-15
-5.65968e-14
-7.82727e-13
-7.55884e-12
-6.51505e-11
-4.07927e-10
-1.11486e-08
-5.21326e-08
-6.50267e-08
-8.39048e-08
-9.05169e-08
-1.12998e-07
-1.8187e-07
-4.33171e-07
-6.17706e-07
-5.58998e-07
-5.78602e-07
-5.83456e-07
-6.42539e-07
-8.18013e-07
-3.31784e-06
-5.3606e-05
-1.17509e-17
-4.53412e-16
-1.07041e-14
-1.45212e-13
-1.40095e-12
-1.11201e-11
-9.38086e-11
-1.80464e-09
-6.65914e-09
-1.29305e-08
-2.01966e-08
-2.28297e-08
-2.75831e-08
-3.89052e-08
-8.59865e-08
-1.92562e-07
-3.04023e-07
-3.68842e-07
-3.85756e-07
-4.31559e-07
-5.2674e-07
-1.18113e-06
-2.28263e-06
-2.04393e-18
-7.7112e-17
-1.8085e-15
-2.4645e-14
-2.45048e-13
-1.93546e-12
-2.40241e-11
-2.33398e-10
-8.71533e-10
-2.0926e-09
-3.54116e-09
-4.20742e-09
-5.2772e-09
-7.32436e-09
-1.45935e-08
-3.39925e-08
-7.74155e-08
-1.46019e-07
-2.39854e-07
-2.86969e-07
-3.17747e-07
-3.47687e-07
-4.52489e-07
-2.78235e-19
-1.01081e-17
-2.35559e-16
-3.23963e-15
-3.34494e-14
-2.66582e-13
-4.27803e-12
-2.42171e-11
-8.361e-11
-2.11146e-10
-3.83822e-10
-5.10296e-10
-7.17587e-10
-1.10726e-09
-2.27593e-09
-5.35829e-09
-1.39453e-08
-3.21486e-08
-6.97394e-08
-1.06544e-07
-1.35642e-07
-1.44146e-07
-1.56223e-07
-2.97951e-20
-1.07737e-18
-2.54995e-17
-3.62322e-16
-3.93788e-15
-3.24518e-14
-5.53529e-13
-2.46692e-12
-6.98691e-12
-1.46322e-11
-2.65001e-11
-4.07469e-11
-7.01272e-11
-1.35166e-10
-3.22256e-10
-7.91875e-10
-2.11463e-09
-5.26912e-09
-1.32757e-08
-2.44038e-08
-3.84188e-08
-4.9527e-08
-5.72224e-08
-2.41204e-21
-8.75157e-20
-2.12846e-18
-3.16615e-17
-3.62604e-16
-3.0639e-15
-4.53287e-14
-2.08245e-13
-5.51192e-13
-9.64758e-13
-1.58842e-12
-2.69623e-12
-5.71891e-12
-1.40503e-11
-3.94033e-11
-1.03548e-10
-2.79454e-10
-7.08538e-10
-1.91607e-09
-4.10451e-09
-7.77689e-09
-1.22663e-08
-1.70762e-08
-1.40979e-22
-5.32816e-21
-1.37304e-19
-2.18247e-18
-2.63837e-17
-2.2567e-16
-2.43064e-15
-1.15742e-14
-3.17197e-14
-5.81367e-14
-9.45897e-14
-1.74137e-13
-4.27061e-13
-1.24304e-12
-3.90313e-12
-1.10511e-11
-3.09926e-11
-8.00072e-11
-2.24129e-10
-5.396e-10
-1.20035e-09
-2.2685e-09
-3.7579e-09
-5.67007e-24
-2.3053e-22
-6.44523e-21
-1.10307e-19
-1.39137e-18
-1.19445e-17
-9.16924e-17
-4.13241e-16
-1.11257e-15
-2.29074e-15
-4.14796e-15
-9.12565e-15
-2.56418e-14
-8.46082e-14
-2.87111e-13
-8.82336e-13
-2.66418e-12
-7.25351e-12
-2.13011e-11
-5.65489e-11
-1.4509e-10
-3.22705e-10
-6.38535e-10
-1.45211e-25
-6.69438e-24
-2.08844e-22
-3.87264e-21
-5.05723e-20
-4.32398e-19
-2.67726e-18
-1.09315e-17
-2.83274e-17
-6.58426e-17
-1.37923e-16
-3.73051e-16
-1.16212e-15
-4.18388e-15
-1.49152e-14
-5.00337e-14
-1.66775e-13
-4.97431e-13
-1.59289e-12
-4.6738e-12
-1.37741e-11
-3.56775e-11
-8.4163e-11
-2.25197e-27
-1.16178e-25
-3.96318e-24
-7.85308e-23
-1.05296e-21
-9.0999e-21
-4.93008e-20
-1.99323e-19
-5.37709e-19
-1.49786e-18
-3.76713e-18
-1.18938e-17
-3.82641e-17
-1.43783e-16
-5.17461e-16
-1.90898e-15
-7.14001e-15
-2.41486e-14
-8.85914e-14
-2.93097e-13
-1.0066e-12
-3.03756e-12
-8.57533e-12
-2.73209e-29
-1.21738e-27
-3.71762e-26
-7.37784e-25
-1.04907e-23
-1.03304e-22
-5.78556e-22
-2.65783e-21
-8.57398e-21
-3.00777e-20
-8.81053e-20
-2.93581e-19
-8.89753e-19
-3.27677e-18
-1.13166e-17
-4.60028e-17
-1.93138e-16
-7.69059e-16
-3.39519e-15
-1.30534e-14
-5.39772e-14
-1.9246e-13
-6.60924e-13
-5.73247e-31
-2.33853e-29
-6.11886e-28
-1.07161e-26
-1.457e-25
-1.46619e-24
-8.59599e-24
-4.15104e-23
-1.50815e-22
-5.61873e-22
-1.63922e-21
-5.13245e-21
-1.3592e-20
-4.52318e-20
-1.37943e-19
-6.13703e-19
-2.84276e-18
-1.41017e-17
-7.91025e-17
-3.70261e-16
-1.96245e-15
-8.54309e-15
-3.70254e-14
-8.52991e-33
-3.63422e-31
-9.16077e-30
-1.50254e-28
-1.77165e-27
-1.58184e-26
-9.62356e-26
-4.96291e-25
-1.8772e-24
-6.82242e-24
-1.81323e-23
-5.02337e-23
-1.11221e-22
-3.01643e-22
-6.94115e-22
-3.08552e-21
-1.57224e-20
-1.33186e-19
-1.46892e-18
-1.14266e-17
-5.5637e-17
-2.35798e-16
-1.35326e-15
-3.1063e-35
-1.3962e-33
-3.2345e-32
-5.37727e-31
-5.54368e-30
-4.61077e-29
-2.31808e-28
-1.13094e-27
-2.97414e-27
-1.02357e-26
-1.46485e-26
-3.97841e-26
-6.27437e-26
-1.89895e-24
-1.42577e-22
-7.04681e-21
-3.37707e-19
-9.07516e-18
-2.47833e-16
-3.58629e-15
-2.60334e-14
-4.77868e-14
-2.49353e-14
-7.34423e-38
-3.39634e-36
-7.11816e-35
-1.14407e-33
-9.71707e-33
-6.87262e-32
-2.38368e-31
-8.14572e-31
-7.17607e-31
-2.45109e-30
-2.7089e-28
-2.83415e-26
-2.98837e-24
-2.16176e-22
-1.48531e-20
-7.00011e-19
-3.00887e-17
-8.44737e-16
-2.21067e-14
-3.43713e-13
-2.99129e-12
-6.52957e-12
-5.4405e-12
-1.73728e-40
-8.07672e-39
-1.52026e-37
-2.25219e-36
-1.5032e-35
-8.41412e-35
-2.93369e-34
-2.23327e-32
-3.51939e-30
-4.49619e-28
-4.91788e-26
-4.05544e-24
-3.19087e-22
-1.8917e-20
-1.0535e-18
-4.35418e-17
-1.61179e-15
-4.25664e-14
-9.97471e-13
-1.43464e-11
-1.15787e-10
-2.25687e-10
-2.0985e-10
-4.341e-43
-2.01568e-41
-3.69674e-40
-8.9789e-39
-1.0694e-36
-2.07222e-34
-3.49631e-32
-5.2123e-30
-6.88134e-28
-7.52117e-26
-6.86741e-24
-4.93524e-22
-2.97253e-20
-1.39025e-18
-5.97383e-17
-2.03617e-15
-6.2238e-14
-1.44931e-12
-2.90822e-11
-3.50354e-10
-2.3276e-09
-3.57254e-09
-3.30989e-09
-8.01549e-45
-3.36325e-42
-1.825e-39
-6.34887e-37
-1.57044e-34
-2.96765e-32
-4.5767e-30
-6.32277e-28
-7.67612e-26
-7.59883e-24
-6.13905e-22
-3.90859e-20
-2.03905e-18
-8.36613e-17
-2.84213e-15
-7.65666e-14
-1.87696e-12
-3.68069e-11
-6.07268e-10
-5.59287e-09
-2.6562e-08
-2.93079e-08
-2.50442e-08
-7.67536e-43
-8.19079e-40
-4.14242e-37
-1.31843e-34
-2.96686e-32
-5.04292e-30
-6.78406e-28
-7.56878e-26
-7.41981e-24
-6.15955e-22
-4.22687e-20
-2.32097e-18
-1.0368e-16
-3.68228e-15
-1.06818e-13
-2.47106e-12
-4.75262e-11
-7.49721e-10
-9.58527e-09
-6.08068e-08
-1.62409e-07
-1.27101e-07
-8.9831e-08
-6.51946e-41
-6.70948e-38
-3.27189e-35
-1.00348e-32
-2.17016e-30
-3.5243e-28
-4.47559e-26
-4.60498e-24
-3.99405e-22
-3.0114e-20
-1.86411e-18
-9.11984e-17
-3.58148e-15
-1.1163e-13
-2.82624e-12
-5.76908e-11
-9.68618e-10
-1.27218e-08
-1.17558e-07
-4.9475e-07
-1.21828e-06
-8.86943e-06
-7.91864e-06
-9.06648e-39
-8.50624e-36
-3.77935e-33
-1.05408e-30
-2.06496e-28
-3.01644e-26
-3.40768e-24
-3.05637e-22
-2.22377e-20
-1.34459e-18
-6.88875e-17
-2.85895e-15
-9.55221e-14
-2.55353e-12
-5.56883e-11
-9.9627e-10
-1.46163e-08
-1.70324e-07
-1.36343e-06
-1.43393e-05
-0.000227467
-0.00293177
-0.00733383
-3.17538e-37
-2.97672e-34
-1.31952e-31
-3.65788e-29
-7.07832e-27
-1.01156e-24
-1.10392e-22
-9.40002e-21
-6.34391e-19
-3.4376e-17
-1.51959e-15
-5.53873e-14
-1.61495e-12
-3.75183e-11
-7.15932e-10
-1.16601e-08
-1.50917e-07
-2.06708e-06
-3.63126e-05
-0.000720641
-0.0110371
-0.0225825
-0.0221603
-2.15976e-35
-1.81641e-32
-7.20087e-30
-1.77799e-27
-3.05228e-25
-3.85283e-23
-3.69454e-21
-2.74424e-19
-1.59962e-17
-7.37066e-16
-2.69949e-14
-7.88246e-13
-1.85021e-11
-3.44288e-10
-5.09279e-09
-5.99272e-08
-6.65186e-07
-2.97029e-05
-0.000950121
-0.0152203
-0.0263416
-0.0263416
-0.00884389
-1.96687e-34
-1.75115e-31
-7.32038e-29
-1.89153e-26
-3.35762e-24
-4.30871e-22
-4.11026e-20
-2.9559e-18
-1.61502e-16
-6.71493e-15
-2.12504e-13
-5.08433e-12
-9.11237e-11
-1.20702e-09
-1.157e-08
-7.85497e-08
-1.30799e-06
-0.000359064
-0.0142402
-0.0269512
-0.0255338
-0.0052545
-9.77093e-07
-5.37205e-33
-4.1344e-30
-1.48813e-27
-3.303e-25
-5.02616e-23
-5.50427e-21
-4.45824e-19
-2.70395e-17
-1.23454e-15
-4.23141e-14
-1.08309e-12
-2.04217e-11
-2.78156e-10
-2.64401e-09
-1.68211e-08
-7.57132e-08
-8.23521e-06
-0.0033884
-0.0245879
-0.0266728
-0.00298263
-1.52159e-07
-1.00263e-06
-6.97429e-33
-6.30281e-30
-2.64435e-27
-6.75131e-25
-1.16205e-22
-1.41711e-20
-1.25452e-18
-8.1403e-17
-3.87428e-15
-1.34114e-13
-3.32878e-12
-5.80206e-11
-6.9373e-10
-5.49004e-09
-2.72425e-08
-7.75003e-08
-7.82987e-06
-0.0065528
-0.0160304
-0.00247358
-4.63874e-08
-1.56015e-07
-8.18721e-07
-8.07034e-32
-6.41207e-29
-2.36442e-26
-5.31475e-24
-8.06094e-22
-8.64403e-20
-6.70498e-18
-3.79016e-16
-1.5599e-14
-4.65078e-13
-1.01935e-11
-1.65183e-10
-2.04537e-09
-2.13671e-08
-2.14702e-07
-1.13268e-05
-0.00106147
-0.00209872
-1.67689e-08
-1.67688e-08
-4.75322e-08
-2.01996e-07
-8.20759e-07
-2.0191e-32
-1.08693e-29
-5.04165e-27
-1.44964e-24
-2.85037e-22
-4.01058e-20
-4.1308e-18
-3.1571e-16
-1.80721e-14
-7.81016e-13
-2.56518e-11
-6.45618e-10
-1.23959e-08
-1.79804e-07
-3.23535e-06
-0.000143608
-0.000690708
-0.000367365
-1.71752e-08
-6.81896e-08
-7.81061e-08
-2.04444e-07
-8.98283e-07
-7.04553e-32
-6.82844e-29
-3.10382e-26
-8.64005e-24
-1.63317e-21
-2.20412e-19
-2.18497e-17
-1.61569e-15
-8.99516e-14
-3.77803e-12
-1.19124e-10
-2.7861e-09
-4.73782e-08
-5.83656e-07
-7.88663e-06
-0.000115056
-0.000202629
-3.7056e-05
-1.76645e-08
-2.56524e-07
-4.65785e-08
-1.2636e-07
-5.03015e-07
-5.51604e-33
-5.14622e-30
-2.64748e-27
-8.6163e-25
-1.97259e-22
-3.35862e-20
-4.34742e-18
-4.30962e-16
-3.23913e-14
-1.8208e-12
-7.50807e-11
-2.22795e-09
-4.63028e-08
-6.66558e-07
-6.64258e-06
-2.0204e-05
-3.98179e-06
-3.98201e-06
-4.73557e-06
-3.35091e-07
-4.76059e-09
-3.24103e-08
-1.1249e-07
-5.44661e-33
-6.37905e-30
-3.56865e-27
-1.24598e-24
-3.01259e-22
-5.29753e-20
-6.92997e-18
-6.79165e-16
-4.96597e-14
-2.67698e-12
-1.04272e-10
-2.86188e-09
-5.34858e-08
-6.68646e-07
-6.7233e-06
-6.91505e-05
-0.000178405
-0.000111786
-1.44092e-33
-3.50761e-28
-4.69244e-10
-1.22602e-09
-1.42173e-09
-533.467
-533.441
-531.774
-374.863
-658.662
-658.654
-658.662
-642.888
-783.856
-783.856
-783.856
-783.721
-907.308
-906.777
-909.051
-909.051
-327.122
-359.524
-413.988
-426.648
-1.38796e-09
-1.38796e-09
-1.38796e-09
-1.38796e-09
-1.40671e-07
-1.40081e-05
-0.00245128
-0.00694848
-3.15792e-08
-3.15773e-08
-0.00350948
-0.136715
-0.0034671
-0.00148717
-0.000724422
-0.00301133
-0.00375261
-0.00273699
-0.000783496
-0.000928224
-0.00338635
-0.00198389
-0.000842586
-0.000842579
-0.000241523
-0.000184711
-0.00106407
-0.00189941
-8.19612e-07
-2.06461e-08
-0.0022636
-0.00948894
-2.21297e-07
-2.18399e-08
-0.0010094
-0.00268894
-9.58089e-08
-2.31854e-08
-0.00010894
-0.00224771
-3.96045e-08
-2.43704e-08
-3.14511e-05
-7.23331e-05
-1.68108e-08
-5.01212e-08
-9.26986e-07
-3.52785e-07
-4.77932e-09
-1.90977e-08
-6.26219e-08
-5.36935e-08
-9.31802e-10
-2.51533e-09
-6.25282e-09
-9.57058e-09
-1.35336e-10
-2.74458e-10
-6.0966e-10
-1.15377e-09
-1.50095e-11
-2.63999e-11
-5.35239e-11
-1.0667e-10
-1.25709e-12
-2.13964e-12
-4.09996e-12
-8.27208e-12
-7.6943e-14
-1.35411e-13
-2.58795e-13
-5.30073e-13
-3.1179e-15
-6.00864e-15
-1.20295e-14
-2.6284e-14
-1.00001e-14
-2.74461e-15
-1.52412e-15
-1.55841e-15
-4.03067e-12
-2.83649e-12
-2.01573e-12
-1.32695e-12
-1.8092e-10
-1.76723e-10
-2.09568e-10
-2.98997e-10
-3.00837e-09
-4.1194e-09
-7.91145e-09
-1.69558e-08
-2.89735e-08
-6.39877e-08
-2.51683e-07
-5.65692e-07
-1.3987e-06
-3.98161e-06
-2.90251e-05
-2.60701e-05
-0.00061465
-0.000757688
-0.000549216
-0.000219731
-0.00524302
-0.00188941
-0.000681266
-0.000303967
-0.00351796
-0.000386446
-0.000196833
-0.000481961
-6.38641e-06
-8.34606e-06
-8.34679e-06
-0.00015115
-6.55791e-06
-1.68217e-05
-1.98463e-05
-8.80111e-07
-4.14979e-06
-3.28599e-06
-2.54838e-06
-3.24703e-06
-1.64093e-06
-3.03527e-06
-6.69782e-06
-1.24408e-05
-2.4685e-06
-5.19663e-06
-9.59953e-06
-1.49801e-05
-2.63705e-06
-5.2386e-06
-8.67994e-06
-1.13575e-05
-1.27124e-06
-2.06629e-06
-2.62094e-06
-2.69544e-06
-1.87351e-07
-1.4453e-07
-2.6535e-08
4.89682e-25
-2.15999e-10
9.54606e-26
2.82497e-25
6.88834e-25
-51.0425
-10.0593
-15.2641
-94.1879
-391.416
-529.181
-532.269
-312.515
-36.615
-0.971468
-0.18862
-0.18996
-0.737408
-1.86862
-0.0601617
-2.08861e-07
-1.37849e-13
-5.40434
-387.688
-476.091
-470.394
-586.206
-658.662
-658.662
-658.662
-486.307
-63.8815
-4.67419e-06
-4.67419e-06
-4.67419e-06
-0.129222
-0.0344348
-0.0223809
-0.0132397
-1.702e-13
-1.70236e-13
-10.9288
-489.652
-781.821
-782.856
-783.854
-783.854
-783.856
-783.856
-213.703
-0.00078597
-0.000785953
-5.56263e-06
-0.0130319
-0.0620353
-5.00081e-08
-0.000159271
-9.08885e-05
-5.62978e-07
-2.02517e-13
-14.1172
-587.061
-909.051
-908.405
-905.919
-903.215
-909.05
-831.735
-36.6047
-0.102995
-0.00216774
-0.0124481
-0.0169561
-6.82354e-05
-5.79949e-08
-2.83999e-07
-2.96706e-07
-6.28648e-07
-2.34951e-13
-15.3424
-682.999
-602.547
-681.746
-761.566
-789.734
-986.796
-674.675
-2.8036e-13
-0.00053032
-0.017507
-0.0315372
-0.018763
-6.5982e-08
-6.59823e-08
-1.78765e-07
-2.82961e-07
-3.62855e-07
-2.67149e-13
-21.2327
-816.064
-6.50613
-30.9212
-150.581
-444.045
-932.715
-537.882
-3.1507e-13
-0.000316808
-0.0214397
-0.0351976
-0.0129569
-7.39694e-08
-2.6411e-07
-6.2653e-07
-4.51666e-07
-1.82205e-06
-2.99586e-13
-55.718
-987.691
-0.00693542
-0.266474
-11.8163
-298.048
-823.687
-494.27
-3.48213e-13
-0.000307745
-0.0061312
-0.0135103
-0.00216383
-8.19561e-08
-6.57154e-07
-9.82164e-07
-6.51452e-07
-6.66849e-05
-3.31698e-13
-189.803
-1161.71
-0.325071
-0.292448
-1.08354
-93.1138
-590.179
-653.058
-3.83081e-13
-8.10543e-07
-1.74568e-05
-7.24646e-06
-3.90154e-05
-8.99436e-08
-1.64605e-06
-1.72249e-05
-1.30905e-05
-0.000425329
-3.64283e-13
-464.334
-1336.45
-4.25319
-11.9139
-2.84375
-10.3767
-367.849
-753.104
-406.964
-3.37188e-07
-3.37248e-07
-3.37188e-07
-0.00014895
-0.028019
-0.384301
-0.122929
-0.0171053
-0.132656
-3.96414e-13
-754.268
-1489.29
-0.503481
-91.4219
-257.732
-270.171
-270.182
-690.018
-1043.76
-294.793
-3.64688e-07
-6.16961
-27.2
-89.1467
-183.154
-115.197
-65.9599
-52.5248
-210.868
-1035.47
-1610.75
-0.309278
-105.563
-612.013
-647.234
-536.885
-694.263
-1231.16
-1210.92
-775.355
-762.398
-818.782
-795.061
-885.715
-885.714
-789.914
-552.464
-761.57
-1131.86
-1572.63
-0.156384
-13.2837
-185.736
-692.603
-1080.87
-1322.28
-1351.7
-1351.71
-1351.71
-1351.71
-1351.71
-650.698
-470.135
-470.136
-648.099
-624.855
-503.5
-503.5
-1400.65
-0.129354
-7.81908e-07
-7.81908e-07
-7.81908e-07
-240.607
-907.656
-1325.62
-1439.06
-1439.55
-1440.28
-1368.03
-735.958
-739.883
-863.602
-1152.56
-1368.31
-1299.1
-1332.17
-1936.94
-0.0714434
-0.0641731
-0.000612518
-0.00510257
-8.29993e-07
-8.29993e-07
-105.237
-442.74
-559.129
-585.027
-844.242
-1466.88
-1711.36
-1891.27
-2106.07
-2139.28
-2139.29
-2101.39
-2121.49
-0.00191702
-0.00220236
-0.000209934
-0.0196092
-0.0140475
-8.78078e-07
-8.78078e-07
-8.78078e-07
-8.78078e-07
-8.78078e-07
-8.78078e-07
-14.501
-224.288
-409.551
-833.529
-1865.97
-2263.22
-2263.22
-2239.26
-4.71496e-06
-8.13308e-07
-5.14494e-08
-0.0162757
-0.0304335
-0.00803016
-9.26162e-07
-0.00220977
-0.00217168
-0.00101917
-9.26162e-07
-9.26162e-07
-9.26162e-07
-9.26162e-07
-9.26162e-07
-646.011
-2387.15
-2387.14
-2336.97
-8.3239e-08
-9.87425e-08
-5.41212e-08
-0.00066981
-0.0321757
-0.0639799
-0.0496469
-0.0456065
-0.0514661
-0.000336501
-0.000169654
-0.000176281
-0.00645445
-0.016863
-1.97679
-162.369
-1813.56
-2511.08
-2491.4
-3.62883e-08
-7.37329e-08
-5.67916e-08
-5.67924e-08
-0.00117999
-0.0630866
-0.112103
-0.112103
-0.112103
-0.00671948
-0.00116984
-0.000184981
-0.00586397
-0.0207226
-0.451934
-23.3143
-748.597
-2487.78
-2591.51
-9.71192e-09
-2.63823e-08
-5.9134e-08
-2.62774e-07
-8.8165e-08
-0.00923843
-0.0332653
-0.111956
-0.0764666
-0.00917727
-4.39547e-05
-0.000284027
-0.00108995
-0.0507382
-0.27433
-11.6573
-96.4972
-824.469
-1600.96
-1.69758e-09
-6.7457e-09
-3.49056e-08
-1.72886e-07
-9.21308e-08
-3.96795e-05
-0.000852686
-0.0115589
-0.0040325
-0.000638103
-4.59291e-05
-1.54121e-07
-0.00682474
-0.176649
-0.192052
-0.00960907
-0.00969021
-0.00960907
-153.127
-2.19562e-10
-1.31363e-09
-1.03982e-08
-5.52641e-08
-9.60884e-08
-1.40474e-07
-6.60678e-06
-5.65195e-06
-1.01042e-06
-1.51207e-07
-1.51203e-07
-1.5139e-07
-0.00346991
-0.018344
-0.0110063
-0.0110076
-0.207796
-7.17219
-77.8682
-2.2319e-11
-1.95516e-10
-2.28423e-09
-1.4383e-08
-5.30535e-08
-1.03742e-07
-2.33563e-07
-1.82967e-07
-1.45778e-07
-1.57439e-07
-2.67238e-07
-1.57634e-07
-0.000284906
-0.00717232
-0.233921
-3.82189
-11.4005
-150.526
-261.806
-1.85805e-12
-2.30319e-11
-3.80817e-10
-3.01133e-09
-1.52204e-08
-6.28313e-08
-1.43837e-07
-1.51425e-07
-1.51465e-07
-1.82808e-07
-4.21562e-07
-1.6387e-07
-2.30593e-05
-0.0043136
-1.21188
-88.0765
-307.164
-741.763
-377.947
-1.39459e-13
-2.53344e-12
-5.25109e-11
-5.31096e-10
-3.62358e-09
-1.93059e-08
-5.03376e-08
-8.67446e-08
-1.25907e-07
-2.09144e-07
-6.45105e-07
-1.03779e-06
-1.49194e-07
-0.00289862
-2.0334
-168.523
-800.069
-799.881
-258.045
-1.19728e-14
-3.88398e-13
-7.58426e-12
-9.19363e-11
-8.02307e-10
-4.92627e-09
-1.64969e-08
-3.98512e-08
-8.87539e-08
-2.47385e-07
-8.76971e-07
-1.12639e-06
-1.547e-07
-0.00236586
-3.40336
-151.154
-571.204
-817.437
-267.511
-1.83629e-13
-1.13971e-13
-1.28033e-12
-1.77276e-11
-1.85696e-10
-1.32909e-09
-6.08491e-09
-2.13075e-08
-6.75661e-08
-2.77588e-07
-9.08001e-07
-7.39006e-07
-1.64777e-07
-1.60174e-07
-4.96629
-20.1863
-0.00186104
-170.565
-657.755
-1.81996e-10
-2.26628e-11
-3.50556e-12
-5.25914e-12
-4.4803e-11
-4.11975e-10
-2.61226e-09
-1.26231e-08
-5.3144e-08
-2.42399e-07
-9.1765e-07
-5.4179e-07
-1.69485e-07
-1.65613e-07
-4.87536
-0.00192464
-0.0019291
-0.00192464
-1476.37
-1.43168e-08
-5.75534e-09
-8.99448e-10
-1.56881e-10
-6.28855e-11
-1.49058e-10
-1.11473e-09
-7.62987e-09
-4.08853e-08
-2.04408e-07
-8.48739e-07
-5.62047e-07
-1.73941e-07
-1.71121e-07
-3.77403
-0.140765
-0.00241468
-3.97971
-1567.24
-4.14394e-07
-2.10357e-07
-7.1349e-08
-1.69615e-08
-4.00555e-09
-9.16381e-10
-9.06799e-10
-3.84664e-09
-2.80392e-08
-1.6883e-07
-6.99495e-07
-4.90364e-07
-1.76595e-07
-1.76558e-07
-1.83818
-0.195097
-0.00306226
-6.04611e-23
-1615.56
-6.65467e-06
-2.57292e-06
-1.64108e-06
-4.87228e-07
-1.3607e-07
-3.90063e-08
-9.93343e-09
-6.13312e-09
-1.98521e-08
-1.46855e-07
-4.55855e-07
-2.37925e-07
-9.9462e-06
-1.82069e-07
-1.34963
-0.189668
-0.000138815
7.13568e-25
-1649.72
-2.67241e-05
-5.26574e-06
-3.55011e-05
-1.50098e-05
-5.08621e-09
-5.08482e-09
-5.08621e-09
-5.08482e-09
-1.69496e-08
-1.27061e-07
-1.86355e-07
-1.81092e-07
-3.95495e-05
-1.87504e-07
-1.12723
-0.227555
-5.17181e-05
3.82447e-25
-1703.86
-0.000241737
-9.35687e-06
-0.000236792
-0.00041487
-0.000271509
-7.09366e-05
-5.21681e-06
-8.37721e-07
-1.81334e-07
-1.46578e-07
-1.40124e-07
-1.65346e-06
-4.44557e-05
-1.93017e-07
-0.776669
-0.266643
-0.00149731
3.73322e-24
-1753.6
-0.000482308
-0.00018697
-4.09825e-05
-0.00338526
-0.00253018
-1.99353e-05
-1.99276e-05
-1.05916e-05
-2.16324e-06
-4.46784e-07
-1.44097e-07
-4.51275e-06
-4.56995e-05
-1.9845e-07
-0.34636
-0.233047
-0.00555098
-1.29518e-22
-1516.39
-0.000402712
-0.000406121
-4.20733e-05
-0.00349206
-0.0674464
-0.027411
-4.47392e-07
-4.47406e-07
-7.36426e-07
-4.59359e-07
-1.48071e-07
-1.07177e-05
-3.24079e-05
-2.03965e-07
-0.0312518
-0.0563303
-0.00683119
3.50499e-22
-418.03
-9.01609e-07
-0.000402136
-5.06516e-05
-5.06448e-05
-0.386965
-0.910625
-0.459237
-0.00405628
-4.02115e-07
-4.02045e-07
-1.52045e-07
-1.22486e-05
-2.07358e-05
-5.60612e-06
-7.31053e-05
-0.00158027
-0.00113313
-1.83246e-22
-266.752
-5.10767e-06
-0.00011105
-5.19684e-05
-0.0298631
-0.934425
-0.934544
-0.934701
-0.227149
-0.00401245
-1.15957e-05
-2.08838e-07
-9.14424e-06
-1.19536e-05
-5.95784e-06
-1.61686e-06
-1.61687e-06
-0.00504458
-1.3899e-21
-542.177
-1.80746e-05
-2.19682e-05
-0.000335507
-0.094831
-0.753169
-0.958386
-0.958508
-0.655411
-0.0473589
-5.66635e-05
-4.0852e-07
-3.65974e-06
-5.70955e-06
-4.32392e-06
-1.65805e-06
-1.65805e-06
-0.00890647
-9.85113e-22
-602.096
-2.3587e-05
-0.000121096
-0.00276327
-0.053479
-0.0787624
-0.616808
-0.982452
-0.982389
-0.138151
-1.77625e-05
-6.65884e-07
-2.17596e-06
-3.06115e-06
-1.86663e-06
-1.69923e-06
-0.002789
-0.015568
5.53181e-22
-616.964
-1.66963e-05
-0.000157257
-0.000554549
-0.000108295
-0.00299196
-0.0797069
-0.321783
-0.47874
-0.0879453
-5.71838e-05
-1.24908e-06
-2.73469e-06
-2.41322e-06
-1.74041e-06
-1.74042e-06
-0.0600915
-0.0242757
1.59582e-21
-476.774
-2.02934e-06
-1.12748e-22
-2.27222e-22
-0.000326179
-0.061602
-0.108856
-0.038187
-0.00145049
-0.023626
-0.001882
-4.43247e-06
-3.86006e-06
-1.82159e-06
-1.7816e-06
-0.0361743
-0.0745524
-0.0282703
1.89624e-20
-166.681
-1.33595e-27
-1.29491e-09
-7.14295e-08
-0.000266478
-0.0420978
-0.110857
-0.0464113
-0.000123746
-0.000295035
-0.000854212
-4.40983e-05
-4.94964e-06
-1.82278e-06
-0.00560323
-0.0762757
-0.0762757
-0.0300955
-0.000668923
-0.000665886
1.56475e-24
5.9371e-24
2.12494e-23
7.18962e-23
3.25019e-22
4.32056e-22
-0.00843696
-0.000126542
-0.000148632
-0.000169966
-8.37315e-05
-1.75181e-05
-1.86396e-06
-0.00499094
-0.0390163
-0.0664077
-0.0169331
-0.000103008
-2.62595
)
;

boundaryField
{
    leftWall
    {
        type            calculated;
        value           nonuniform List<scalar> 
50
(
-29.4294
-88.2881
-147.147
-206.006
-264.864
-323.723
-382.58
-435.787
-274.04
-9.71222e-37
-1.0687e-16
-4.72551e-15
-2.02387e-14
-1.27932e-14
-1.12109e-14
-5.26376e-15
-2.03531e-15
-7.51532e-16
-2.16378e-16
-5.69984e-17
-1.17509e-17
-2.04393e-18
-2.78235e-19
-2.97951e-20
-2.41204e-21
-1.40979e-22
-5.67007e-24
-1.45211e-25
-2.25197e-27
-2.73209e-29
-5.73247e-31
-8.52991e-33
-3.1063e-35
-7.34423e-38
-1.73728e-40
-4.341e-43
-8.01549e-45
-7.67536e-43
-6.51946e-41
-9.06648e-39
-3.17538e-37
-2.15976e-35
-1.96687e-34
-5.37205e-33
-6.97429e-33
-8.07034e-32
-2.0191e-32
-7.04553e-32
-5.51604e-33
-5.44661e-33
)
;
    }
    rightWall
    {
        type            calculated;
        value           nonuniform List<scalar> 
50
(
-22.7221
-70.7345
-122.027
-170.838
-219.65
-268.46
-305.707
-325.149
-387.688
-489.652
-587.061
-682.999
-816.064
-987.691
-1161.71
-1336.45
-1489.29
-1610.75
-1572.63
-1400.65
-1936.94
-2121.49
-2239.26
-2336.97
-2491.4
-2591.51
-1600.96
-153.127
-77.8682
-261.806
-377.947
-258.045
-267.511
-657.755
-1476.37
-1567.24
-1615.56
-1649.72
-1703.86
-1753.6
-1516.39
-418.03
-266.752
-542.177
-602.096
-616.964
-476.774
-166.681
-0.000665886
-2.62595
)
;
    }
    lowerWall
    {
        type            calculated;
        value           nonuniform List<scalar> 
62
(
0
0
0
0
0
0
0
0
0
0
0
0
0
0
0
0
0
0
0
0
0
0
0
-29.4231
-88.2627
-147.104
-205.946
-264.83
-323.723
-382.582
-441.44
-470.87
-470.846
-469.375
-330.877
-19.0631
-53.3907
-48.3879
-67.286
-125.18
-152.998
-145.137
-21.6415
0
0
0
0
0
0
0
0
0
0
0
0
0
0
0
0
0
0
0
)
;
    }
    atmosphere
    {
        type            calculated;
        value           nonuniform List<scalar> 
46
(
-5.50678e-33
-6.44952e-30
-3.60807e-27
-1.25974e-24
-3.04587e-22
-5.35606e-20
-7.00653e-18
-6.86668e-16
-5.02083e-14
-2.70655e-12
-1.05424e-10
-2.8935e-09
-5.40767e-08
-6.76033e-07
-6.79757e-06
-6.99144e-05
-0.000180376
-0.000113021
-0
-0
-0
-0
-0
-0
-0
-0
-0
-0
-0
-0
-0
-0
-0
-0
-0.00012794
-0.000150274
-0.000171843
-8.46564e-05
-1.77116e-05
-1.88456e-06
-0.00504608
-0.0394474
-0.0671413
-0.0171201
-0
-2.65496
)
;
    }
    defaultFaces
    {
        type            empty;
    }
}


// ************************************************************************* //
