/*--------------------------------*- C++ -*----------------------------------*\
| =========                 |                                                 |
| \\      /  F ield         | OpenFOAM: The Open Source CFD Toolbox           |
|  \\    /   O peration     | Version:  2012                                  |
|   \\  /    A nd           | Website:  www.openfoam.com                      |
|    \\/     M anipulation  |                                                 |
\*---------------------------------------------------------------------------*/
FoamFile
{
    version     2.0;
    format      ascii;
    class       volVectorField;
    location    "0.62";
    object      U;
}
// * * * * * * * * * * * * * * * * * * * * * * * * * * * * * * * * * * * * * //

dimensions      [0 1 -1 0 0 0 0];


internalField   nonuniform List<vector> 
2268
(
(0.00388671 -0.0029709 0)
(0.0163248 -0.00328406 0)
(0.0270755 -0.00283208 0)
(0.0356055 -0.00220002 0)
(0.0406367 -0.0018368 0)
(0.0454895 -0.00225685 0)
(0.0534303 -0.00185234 0)
(0.0547975 -0.00083442 0)
(0.0536025 -0.000178087 0)
(0.0527538 0.000404454 0)
(0.0479962 0.00142007 0)
(0.0425144 0.00227288 0)
(0.0353257 0.00214847 0)
(0.030734 0.00160428 0)
(0.0257423 0.00114301 0)
(0.0216262 0.000417429 0)
(0.0163117 0.000181538 0)
(0.0130974 -0.00110026 0)
(0.0105126 -0.001346 0)
(0.00948818 -0.00249928 0)
(0.00944381 -0.00285498 0)
(0.00897515 -0.00496626 0)
(0.0136597 0.00769794 0)
(0.00371002 -0.0065795 0)
(0.0162044 -0.00767307 0)
(0.0269667 -0.0062783 0)
(0.0359805 -0.00420419 0)
(0.0412834 -0.00283052 0)
(0.0462957 -0.0037811 0)
(0.0538011 -0.00254066 0)
(0.0551089 0.000761388 0)
(0.053894 0.00115361 0)
(0.0539993 0.00224393 0)
(0.0481115 0.00343147 0)
(0.0427908 0.00370294 0)
(0.0360103 0.00343905 0)
(0.0307624 0.00290141 0)
(0.0252727 0.00319057 0)
(0.0210045 0.0039991 0)
(0.0158486 0.0038883 0)
(0.0130927 0.00378022 0)
(0.0100939 0.00309779 0)
(0.0078333 0.00292783 0)
(0.00499758 0.00313771 0)
(-0.000679082 0.00290541 0)
(-0.00436186 0.00299713 0)
(0.00334149 -0.0123873 0)
(0.0163593 -0.0142796 0)
(0.0271199 -0.0121869 0)
(0.036786 -0.00897564 0)
(0.0425601 -0.00672783 0)
(0.047883 -0.00819058 0)
(0.0544444 -0.00604147 0)
(0.0552303 -0.000902112 0)
(0.0543071 0.000329745 0)
(0.0535731 0.00311732 0)
(0.0477608 0.00672028 0)
(0.0427999 0.0079733 0)
(0.0366621 0.00784788 0)
(0.0313723 0.00665359 0)
(0.0254962 0.00578414 0)
(0.0209191 0.00484359 0)
(0.0160097 0.00398163 0)
(0.014115 0.00159076 0)
(0.012203 0.00123532 0)
(0.0110155 -0.000109598 0)
(0.00904675 0.00127893 0)
(0.00554147 -0.000521492 0)
(0.000566274 0.00538122 0)
(0.00316379 -0.0158812 0)
(0.0168999 -0.0189011 0)
(0.027315 -0.0159194 0)
(0.0375642 -0.0114806 0)
(0.0439737 -0.00805102 0)
(0.0499659 -0.00936143 0)
(0.0555768 -0.00597432 0)
(0.0564081 0.000864738 0)
(0.056585 0.00197568 0)
(0.0552328 0.00535486 0)
(0.049804 0.00854436 0)
(0.044087 0.00894026 0)
(0.0369924 0.00886391 0)
(0.0302188 0.00815679 0)
(0.0234986 0.00816039 0)
(0.0191282 0.0084295 0)
(0.0146064 0.00712487 0)
(0.0132094 0.00548596 0)
(0.0103326 0.00456881 0)
(0.00975078 0.00428211 0)
(0.00728115 0.00571588 0)
(0.00544615 0.00675261 0)
(-0.00310877 0.00583907 0)
(0.0039924 -0.0218827 0)
(0.0173339 -0.0257063 0)
(0.0277724 -0.0219743 0)
(0.0384972 -0.0168743 0)
(0.0458535 -0.0126276 0)
(0.0527276 -0.0137203 0)
(0.0568953 -0.00914541 0)
(0.057395 -0.00143477 0)
(0.0578376 0.000839275 0)
(0.0547925 0.00628198 0)
(0.0492714 0.0119836 0)
(0.043961 0.0140094 0)
(0.0372843 0.0144137 0)
(0.030965 0.0130043 0)
(0.0246459 0.0110531 0)
(0.0195169 0.00902686 0)
(0.0144832 0.00685861 0)
(0.0136709 0.00360374 0)
(0.0115659 0.00300764 0)
(0.0114686 0.00134865 0)
(0.00880995 0.00347673 0)
(0.00769491 0.00446266 0)
(0.00384068 0.00656534 0)
(0.00606887 -0.025943 0)
(0.0178769 -0.030119 0)
(0.0281587 -0.0258963 0)
(0.0391992 -0.0199865 0)
(0.0475845 -0.0147308 0)
(0.0556683 -0.0145096 0)
(0.0588885 -0.00810703 0)
(0.0604224 0.000495476 0)
(0.0622188 0.00327665 0)
(0.0586423 0.00943921 0)
(0.0523842 0.0136893 0)
(0.0459256 0.0145953 0)
(0.0374236 0.0150286 0)
(0.0286347 0.0141104 0)
(0.0215987 0.0136045 0)
(0.016753 0.0131719 0)
(0.0118705 0.00989986 0)
(0.0120552 0.00674525 0)
(0.00948353 0.005601 0)
(0.0112933 0.00540026 0)
(0.00734451 0.00750464 0)
(0.0090965 0.00886529 0)
(0.00355738 0.0113047 0)
(0.00776765 -0.0332225 0)
(0.0188323 -0.0361674 0)
(0.0290967 -0.0320873 0)
(0.0403383 -0.0260989 0)
(0.0505212 -0.0204749 0)
(0.0593279 -0.0191413 0)
(0.0613297 -0.0114945 0)
(0.063186 -0.00310282 0)
(0.063849 0.00159871 0)
(0.0578199 0.0108715 0)
(0.0515024 0.0179867 0)
(0.0454091 0.0210729 0)
(0.0380124 0.0226008 0)
(0.030147 0.0204551 0)
(0.0237074 0.0166871 0)
(0.0173891 0.013606 0)
(0.0107522 0.00916983 0)
(0.0112442 0.00473374 0)
(0.00969605 0.00352707 0)
(0.0126788 0.00237556 0)
(0.00752252 0.00468163 0)
(0.0105045 0.00633586 0)
(0.0119243 0.0125199 0)
(0.00903093 -0.0384864 0)
(0.0201789 -0.0401666 0)
(0.0309296 -0.0360184 0)
(0.0423505 -0.0300486 0)
(0.0543108 -0.023633 0)
(0.0634746 -0.0195049 0)
(0.0658276 -0.00981494 0)
(0.0698684 -0.000570996 0)
(0.0699552 0.00592229 0)
(0.0637349 0.0153304 0)
(0.0577452 0.0195744 0)
(0.0484065 0.0209442 0)
(0.0379662 0.0222512 0)
(0.0268835 0.0208553 0)
(0.0200022 0.0196792 0)
(0.014064 0.0192347 0)
(0.00743536 0.0128182 0)
(0.00920438 0.00710628 0)
(0.00807316 0.00493128 0)
(0.013319 0.0062145 0)
(0.0069597 0.00864613 0)
(0.0137984 0.00644998 0)
(0.0154906 0.0221428 0)
(-1.28042 0.417802 0)
(-1.65988 -0.00439991 0)
(-1.84209 -0.0419563 0)
(-1.735 -0.0828685 0)
(-1.65289 -0.0690259 0)
(-1.53625 -0.0871347 0)
(-1.37609 -0.0695434 0)
(-1.30445 0.0451499 0)
(-1.37265 0.110921 0)
(-1.46458 0.0906959 0)
(-1.59133 0.051235 0)
(-1.68484 0.0151597 0)
(-1.75226 0.0158256 0)
(-1.78512 0.0059906 0)
(-1.7975 -0.00128673 0)
(-1.78771 -0.0156849 0)
(-1.70561 -0.0457431 0)
(-1.36605 -0.122934 0)
(-0.726282 -0.251754 0)
(-1.06695 0.824601 0)
(-1.00005 0.243755 0)
(-1.3266 0.0698082 0)
(-1.10995 0.0023991 0)
(-1.02524 -0.0160798 0)
(-0.881667 -0.0288766 0)
(-0.738681 -0.0258817 0)
(-0.804399 -0.0432894 0)
(-1.0688 -0.0442944 0)
(-1.22991 0.000860289 0)
(-1.35766 0.0401171 0)
(-1.44007 0.052967 0)
(-1.49683 0.0267781 0)
(-1.52521 0.0129151 0)
(-1.5275 0.00222862 0)
(-1.49524 -0.0246257 0)
(-1.43821 -0.133295 0)
(-1.02468 -0.292615 0)
(-0.5727 -0.643694 0)
(-1.00156 1.27791 0)
(0.0195845 0.120286 0)
(-1.26073 -0.00778352 0)
(-0.822632 -0.207799 0)
(-0.707345 -0.166532 0)
(-0.260945 -0.207513 0)
(0.128022 -0.116821 0)
(0.416068 0.182044 0)
(0.163563 0.316249 0)
(-0.102653 0.237113 0)
(-0.579313 0.149785 0)
(-0.901321 0.0749598 0)
(-1.45506 0.0507223 0)
(-1.5929 0.0186257 0)
(-1.57749 -0.0146539 0)
(-1.60152 -0.0564295 0)
(-1.56336 -0.243982 0)
(-0.878066 -0.491509 0)
(-0.323542 -0.928348 0)
(-0.972945 1.22439 0)
(0.981102 0.49673 0)
(-2.61548 0.326861 0)
(-0.591404 -0.208913 0)
(-0.787404 -0.265848 0)
(-0.052341 -0.379933 0)
(0.172268 -0.307999 0)
(0.559984 -0.049719 0)
(0.959684 0.119833 0)
(1.45412 0.280171 0)
(1.31511 0.360579 0)
(1.32445 0.445001 0)
(0.552986 0.410231 0)
(0.284239 0.0871259 0)
(-0.906692 0.0209439 0)
(-2.13161 -0.0253691 0)
(-1.55035 -0.449022 0)
(-0.790944 -0.819168 0)
(-0.174783 -1.15997 0)
(-0.964737 1.21285 0)
(0.981409 1.03248 0)
(-2.31885 0.23834 0)
(0.581372 -0.601368 0)
(-0.618144 -0.471446 0)
(0.305473 -0.633082 0)
(0.371566 -0.383258 0)
(0.677737 -0.155963 0)
(0.965262 -0.0375083 0)
(1.2727 0.111393 0)
(1.42344 0.216713 0)
(1.5887 0.316379 0)
(1.76438 0.396627 0)
(1.89585 0.565557 0)
(0.921142 0.964255 0)
(-1.52045 0.221225 0)
(-1.32092 -0.772599 0)
(-0.651423 -1.09266 0)
(-0.073421 -1.34072 0)
(-0.943955 1.18662 0)
(1.00694 1.25848 0)
(-0.793491 0.0329046 0)
(0.941982 -0.504902 0)
(0.355828 -0.495984 0)
(0.475541 -0.705298 0)
(0.513667 -0.468126 0)
(0.753634 -0.299485 0)
(1.06267 -0.137965 0)
(1.19535 0.0800929 0)
(1.34022 0.217336 0)
(1.47325 0.317717 0)
(1.54587 0.3698 0)
(1.59406 0.481308 0)
(1.66124 1.46971 0)
(-0.260143 0.888892 0)
(-0.893454 -0.815242 0)
(-0.511213 -1.35358 0)
(-0.00818926 -1.47555 0)
(-0.880407 1.16739 0)
(1.02409 1.1135 0)
(0.598976 -0.0911453 0)
(1.19237 -0.654741 0)
(0.774152 -0.443652 0)
(0.56602 -0.646485 0)
(0.594045 -0.505359 0)
(0.782367 -0.389788 0)
(1.00019 -0.223055 0)
(1.16073 -0.00452807 0)
(1.3131 0.102203 0)
(1.42895 0.23014 0)
(1.47578 0.341818 0)
(1.46937 0.493646 0)
(1.30576 1.71691 0)
(1.02176 1.31358 0)
(-0.148057 -0.610774 0)
(-0.327728 -1.47817 0)
(0.022731 -1.56932 0)
(-0.721615 1.12269 0)
(1.52708 0.736838 0)
(1.13455 -0.275703 0)
(1.0052 -0.273949 0)
(0.735142 -0.391896 0)
(0.592175 -0.622771 0)
(0.620913 -0.560181 0)
(0.775138 -0.471946 0)
(0.950265 -0.30119 0)
(1.13843 -0.0557572 0)
(1.29098 0.0999931 0)
(1.4197 0.245291 0)
(1.44155 0.352348 0)
(1.37324 0.580738 0)
(0.830312 1.6348 0)
(1.02788 1.47217 0)
(0.398437 -0.199515 0)
(-0.13314 -1.42782 0)
(0.0356043 -1.61162 0)
(0.0103863 -0.0519937 0)
(0.0218134 -0.05025 0)
(0.0338588 -0.0464443 0)
(0.0461058 -0.0413538 0)
(0.0599117 -0.0345362 0)
(0.069523 -0.027708 0)
(0.0738264 -0.0174532 0)
(0.079911 -0.00784104 0)
(0.0774899 0.00347692 0)
(0.0690046 0.0172597 0)
(0.0611096 0.0284215 0)
(0.0491066 0.0358005 0)
(0.0406691 0.0387527 0)
(0.0315615 0.0334535 0)
(0.0257465 0.0244683 0)
(0.0167632 0.019678 0)
(0.00599606 0.0108522 0)
(0.00711821 0.00293064 0)
(0.0139056 -6.15043e-05 0)
(0.0222904 0.0010087 0)
(0.0274964 0.00227679 0)
(0.0426078 0.000143805 0)
(0.0230809 0.0282928 0)
(-0.0194328 -0.0643436 0)
(-0.0495986 -0.0585618 0)
(-0.0688295 -0.0543455 0)
(-0.0832115 -0.0509981 0)
(-0.0392432 -0.043302 0)
(-0.0139355 -0.0304545 0)
(0.0154542 -0.0174571 0)
(0.0382702 -0.00159537 0)
(0.0513948 0.0177481 0)
(0.0587216 0.0310139 0)
(0.0614683 0.0362684 0)
(0.0543904 0.0360015 0)
(0.0526262 0.0339198 0)
(0.0450596 0.0312998 0)
(0.0305236 0.0329397 0)
(0.0100245 0.0388319 0)
(-0.00693836 0.0233228 0)
(-0.00293739 0.000402875 0)
(0.00176058 -0.00833799 0)
(0.0118074 -0.00598668 0)
(0.0168657 -0.00874435 0)
(0.0430128 0.0119215 0)
(0.0175725 0.0355614 0)
(-0.00349588 0.0125399 0)
(-0.011387 -0.00337228 0)
(-0.0199225 -0.0219733 0)
(-0.025538 -0.0707261 0)
(-0.0417011 -0.104144 0)
(-0.0596986 -0.0825557 0)
(-0.0898272 -0.0698737 0)
(-0.131631 -0.0437533 0)
(-0.190426 -0.0177552 0)
(-0.206248 0.00712798 0)
(-0.164605 0.0332767 0)
(-0.12474 0.0448078 0)
(-0.0787352 0.0481773 0)
(-0.0541686 0.0556221 0)
(-0.0342366 0.0596992 0)
(-0.0213012 0.0572793 0)
(0.00581624 0.0240804 0)
(0.035116 -0.00585236 0)
(0.0289904 -0.0146771 0)
(0.0337212 -0.0144434 0)
(0.0411495 -0.0288751 0)
(0.0598602 -0.00134588 0)
(0.0801011 0.0145728 0)
(0.00432542 -0.0444989 0)
(0.010855 -0.0378301 0)
(0.00994769 -0.033374 0)
(0.00397458 -0.0266353 0)
(-0.0326306 -0.00939737 0)
(-0.0584717 0.0157365 0)
(-0.0857406 0.0571664 0)
(-0.106906 0.0963033 0)
(-0.136105 0.0963021 0)
(-0.167616 0.00760838 0)
(-0.19296 -0.0484815 0)
(-0.199434 -0.0505806 0)
(-0.332605 -0.0375432 0)
(-0.281035 -0.0132653 0)
(-0.211082 7.17479e-05 0)
(-0.164968 -0.00149821 0)
(-0.196622 -0.0332373 0)
(-0.126433 -0.0228928 0)
(-0.0474977 -0.00671152 0)
(0.0114923 -0.0182346 0)
(0.0756619 -0.0343687 0)
(0.109794 -0.0276826 0)
(0.118296 -0.0250419 0)
(-0.00937075 -0.00669643 0)
(-0.0206265 -0.0127989 0)
(-0.0359467 -0.0187677 0)
(-0.0483654 -0.0324062 0)
(-0.0644342 -0.0387782 0)
(-0.0723598 -0.0313478 0)
(-0.0799787 -0.0203671 0)
(-0.0636652 0.00497144 0)
(-0.0466085 0.0422842 0)
(-0.0290637 0.0605504 0)
(-0.0683072 0.0700485 0)
(-0.0843097 0.183317 0)
(-0.185546 0.134 0)
(-0.229946 -0.0670036 0)
(-0.267369 -0.0563681 0)
(-0.302455 0.0419189 0)
(-0.459109 -0.0140768 0)
(-0.394305 -0.154546 0)
(-0.30309 -0.152306 0)
(-0.309394 -0.138134 0)
(-0.188182 -0.127681 0)
(-0.0761953 -0.044228 0)
(0.0137571 -0.017635 0)
(-0.00311197 -0.0113942 0)
(-0.00785056 -0.00859932 0)
(-0.0190542 -0.00248686 0)
(-0.0291613 0.00344265 0)
(-0.0528715 0.0157979 0)
(-0.0691907 0.0311863 0)
(-0.0947242 0.049565 0)
(-0.107851 0.0626568 0)
(-0.125051 0.0623357 0)
(-0.112959 0.0324092 0)
(-0.135443 0.00268396 0)
(-0.10818 0.0668011 0)
(-0.05493 0.106568 0)
(-0.0628778 0.0677575 0)
(-0.142489 0.071568 0)
(-0.172828 0.191334 0)
(-0.233616 0.0559665 0)
(-0.266549 -0.18341 0)
(-0.431612 -0.0969714 0)
(-0.586946 -0.13365 0)
(-0.763394 -0.269625 0)
(-0.846502 -0.231042 0)
(-0.90213 -0.219421 0)
(-0.00664554 0.00195057 0)
(-0.0153953 0.000740047 0)
(-0.0283407 0.0008705 0)
(-0.0350422 -0.000859085 0)
(-0.0474334 0.00146547 0)
(-0.0498111 0.00890585 0)
(-0.0565499 0.0188602 0)
(-0.0501852 0.0337187 0)
(-0.0523223 0.0479569 0)
(-0.0486499 0.0686665 0)
(-0.0820419 0.0679484 0)
(-0.10603 0.101672 0)
(-0.0963869 0.0910209 0)
(-0.0911145 0.022469 0)
(-0.118929 0.0546545 0)
(-0.113579 0.135501 0)
(-0.0538053 0.0811715 0)
(-0.134059 0.0511878 0)
(-0.265747 0.172333 0)
(-0.324615 0.197877 0)
(-0.54258 0.137669 0)
(-0.775905 0.0894193 0)
(-1.03527 -0.0270063 0)
(-0.00455406 0.0124667 0)
(-0.00950861 0.0146807 0)
(-0.0204501 0.0188752 0)
(-0.0263601 0.0235362 0)
(-0.0413828 0.0316629 0)
(-0.048643 0.0405958 0)
(-0.0635771 0.0505602 0)
(-0.0680983 0.0586129 0)
(-0.0810584 0.0609033 0)
(-0.0795913 0.0630368 0)
(-0.0906556 0.0590641 0)
(-0.0958483 0.0804931 0)
(-0.0890938 0.0902321 0)
(-0.110972 0.0890816 0)
(-0.167651 0.0927463 0)
(-0.171782 0.124703 0)
(-0.17824 0.0752799 0)
(-0.246172 0.0256494 0)
(-0.293029 0.0912985 0)
(-0.288001 0.141597 0)
(-0.345647 0.181161 0)
(-0.423574 0.263847 0)
(-0.60982 0.312843 0)
(-0.00542289 0.0146417 0)
(-0.00840028 0.0151255 0)
(-0.0184912 0.0167791 0)
(-0.0206562 0.0186321 0)
(-0.0302208 0.0235571 0)
(-0.030432 0.0298801 0)
(-0.0380384 0.0385531 0)
(-0.0351212 0.0500399 0)
(-0.0436975 0.0599334 0)
(-0.0436293 0.0771464 0)
(-0.0603936 0.0852158 0)
(-0.0720865 0.0999021 0)
(-0.0830842 0.107111 0)
(-0.0951064 0.102126 0)
(-0.120281 0.116418 0)
(-0.13826 0.147021 0)
(-0.154133 0.156089 0)
(-0.233403 0.169258 0)
(-0.319091 0.21572 0)
(-0.384519 0.252587 0)
(-0.482155 0.27739 0)
(-0.577756 0.354044 0)
(-0.716512 0.450186 0)
(-0.00424183 0.0273472 0)
(-0.00661734 0.0286732 0)
(-0.0155282 0.0321253 0)
(-0.0184903 0.0358802 0)
(-0.0287061 0.0421879 0)
(-0.0315841 0.0486756 0)
(-0.0423855 0.0557304 0)
(-0.0433478 0.0643788 0)
(-0.0543747 0.0696426 0)
(-0.0536499 0.0798407 0)
(-0.0630776 0.0874942 0)
(-0.0659181 0.102673 0)
(-0.0771183 0.113209 0)
(-0.0884725 0.125458 0)
(-0.119526 0.135685 0)
(-0.136982 0.157753 0)
(-0.165243 0.170864 0)
(-0.202414 0.189307 0)
(-0.254 0.242463 0)
(-0.300122 0.303691 0)
(-0.379062 0.373766 0)
(-0.490481 0.498374 0)
(-0.627735 0.68092 0)
(-0.00340774 0.0246355 0)
(-0.00401962 0.02541 0)
(-0.0107286 0.0280652 0)
(-0.0107312 0.0308 0)
(-0.0171728 0.0364408 0)
(-0.0159098 0.0426171 0)
(-0.0223675 0.0503905 0)
(-0.0197357 0.0611528 0)
(-0.0276802 0.07049 0)
(-0.0266268 0.0851084 0)
(-0.036537 0.0978542 0)
(-0.0385606 0.113683 0)
(-0.0492674 0.129995 0)
(-0.0561687 0.144867 0)
(-0.0752104 0.16535 0)
(-0.0933211 0.19328 0)
(-0.120549 0.221812 0)
(-0.15961 0.259192 0)
(-0.213539 0.313784 0)
(-0.25891 0.379007 0)
(-0.326744 0.469202 0)
(-0.402668 0.604178 0)
(-0.484427 0.834412 0)
(-0.00286539 0.035409 0)
(-0.00332871 0.0365415 0)
(-0.00926763 0.0394596 0)
(-0.00961955 0.04269 0)
(-0.0161434 0.0479016 0)
(-0.015718 0.0540241 0)
(-0.0230702 0.0599926 0)
(-0.0212101 0.0696808 0)
(-0.0292229 0.0769056 0)
(-0.0267684 0.0885439 0)
(-0.0346551 0.0997719 0)
(-0.0324454 0.114969 0)
(-0.0419863 0.131232 0)
(-0.0419201 0.15082 0)
(-0.0588406 0.173247 0)
(-0.0643553 0.202577 0)
(-0.0864203 0.237782 0)
(-0.101901 0.282136 0)
(-0.136718 0.342462 0)
(-0.162658 0.417748 0)
(-0.209969 0.517242 0)
(-0.248315 0.659543 0)
(-0.288128 0.882869 0)
(-0.00174797 0.0302109 0)
(-0.000149307 0.0310748 0)
(-0.00342347 0.0339238 0)
(-0.00142012 0.0368899 0)
(-0.00469253 0.0423247 0)
(-0.0017752 0.0487605 0)
(-0.00575654 0.055847 0)
(-0.00188266 0.0665527 0)
(-0.00692141 0.076121 0)
(-0.00351265 0.089873 0)
(-0.00986282 0.103631 0)
(-0.00757417 0.120532 0)
(-0.0153203 0.13952 0)
(-0.0143442 0.161471 0)
(-0.0251317 0.187841 0)
(-0.0270012 0.220766 0)
(-0.0415352 0.259293 0)
(-0.0460607 0.309548 0)
(-0.0642955 0.374068 0)
(-0.0668663 0.452636 0)
(-0.0829 0.554206 0)
(-0.0765121 0.684018 0)
(-0.0627701 0.86268 0)
(-0.00140985 0.0377264 0)
(0.00015352 0.0385649 0)
(-0.00265566 0.0411703 0)
(-0.000836293 0.0441843 0)
(-0.00402593 0.0486842 0)
(-0.00105292 0.0551676 0)
(-0.00498018 0.0605189 0)
(-0.000266476 0.0707801 0)
(-0.00470593 0.0789826 0)
(0.00151283 0.0912809 0)
(-0.00337714 0.104345 0)
(0.00383543 0.12009 0)
(-0.00204904 0.138608 0)
(0.00541335 0.160255 0)
(-0.00209408 0.18656 0)
(0.00513068 0.218733 0)
(-0.00255516 0.257571 0)
(0.00510206 0.305014 0)
(0.000243947 0.363995 0)
(0.0171276 0.436882 0)
(0.0265061 0.527253 0)
(0.0677249 0.639599 0)
(0.125166 0.776671 0)
(-0.000221584 0.0309393 0)
(0.00323857 0.0316945 0)
(0.00294131 0.0345155 0)
(0.00649918 0.0375756 0)
(0.00605205 0.0422825 0)
(0.0104948 0.0490014 0)
(0.00953685 0.0549159 0)
(0.0151597 0.0655568 0)
(0.0136824 0.0742627 0)
(0.0209008 0.0878301 0)
(0.018547 0.101233 0)
(0.0275263 0.118514 0)
(0.0246602 0.137812 0)
(0.0353758 0.160839 0)
(0.0325065 0.187896 0)
(0.0451808 0.220517 0)
(0.0445225 0.258862 0)
(0.0616045 0.306049 0)
(0.0666317 0.361063 0)
(0.0950579 0.426102 0)
(0.11618 0.50183 0)
(0.170778 0.586445 0)
(0.235175 0.684111 0)
(0.000169777 0.0350417 0)
(0.00355994 0.0356718 0)
(0.0039862 0.0382771 0)
(0.00771864 0.0412532 0)
(0.00788497 0.0450763 0)
(0.012879 0.0517495 0)
(0.0127294 0.0562743 0)
(0.0196015 0.0665812 0)
(0.0192422 0.0737164 0)
(0.0286099 0.08626 0)
(0.028044 0.0982768 0)
(0.0404453 0.113756 0)
(0.0399794 0.131409 0)
(0.0557244 0.152205 0)
(0.0563505 0.177476 0)
(0.0759135 0.206653 0)
(0.0805187 0.241877 0)
(0.105956 0.283088 0)
(0.120005 0.331097 0)
(0.157467 0.387581 0)
(0.189939 0.451454 0)
(0.24925 0.520269 0)
(0.317224 0.594896 0)
(0.00124076 0.0266768 0)
(0.00602928 0.027268 0)
(0.00867279 0.0299158 0)
(0.0136587 0.033012 0)
(0.0161718 0.036774 0)
(0.0220554 0.0434528 0)
(0.0247196 0.0479163 0)
(0.0320213 0.0583029 0)
(0.0348857 0.0650109 0)
(0.0446568 0.0782416 0)
(0.0475481 0.0891413 0)
(0.0612482 0.105723 0)
(0.064521 0.12221 0)
(0.0829759 0.143508 0)
(0.0877531 0.167247 0)
(0.112047 0.195255 0)
(0.121451 0.228095 0)
(0.153146 0.265393 0)
(0.172239 0.30836 0)
(0.214595 0.355277 0)
(0.251246 0.408092 0)
(0.311745 0.459083 0)
(0.37653 0.515682 0)
(0.00148769 0.0280965 0)
(0.00647512 0.0285121 0)
(0.00963103 0.0310089 0)
(0.0150419 0.0339579 0)
(0.0182531 0.0370693 0)
(0.0248308 0.0433204 0)
(0.0285906 0.0467351 0)
(0.0368394 0.0564455 0)
(0.0413713 0.0615593 0)
(0.0523451 0.0735559 0)
(0.0577319 0.0822269 0)
(0.0728988 0.0967049 0)
(0.0796197 0.110292 0)
(0.10058 0.128925 0)
(0.109517 0.149064 0)
(0.137459 0.17302 0)
(0.151534 0.20141 0)
(0.187681 0.232535 0)
(0.211532 0.270059 0)
(0.258039 0.308878 0)
(0.296741 0.354237 0)
(0.356994 0.395148 0)
(0.413707 0.442456 0)
(0.00221953 0.0181192 0)
(0.00763223 0.018472 0)
(0.0121954 0.0208163 0)
(0.0182434 0.0236903 0)
(0.0231731 0.0265115 0)
(0.0303337 0.0323724 0)
(0.0364675 0.0354716 0)
(0.0450276 0.0447369 0)
(0.0528587 0.049074 0)
(0.0640419 0.0610408 0)
(0.0734634 0.0681183 0)
(0.0888569 0.0829131 0)
(0.100184 0.0939674 0)
(0.121601 0.112567 0)
(0.135508 0.129655 0)
(0.164941 0.152039 0)
(0.184062 0.176923 0)
(0.221986 0.204075 0)
(0.250399 0.236729 0)
(0.297826 0.268762 0)
(0.339687 0.307398 0)
(0.398934 0.34099 0)
(0.454697 0.382464 0)
(0.00229225 0.0186211 0)
(0.00700896 0.0188722 0)
(0.0113984 0.0208031 0)
(0.0173855 0.0232645 0)
(0.0224057 0.0254066 0)
(0.0298756 0.0302476 0)
(0.0366811 0.0324916 0)
(0.0459821 0.0402118 0)
(0.0554064 0.0430181 0)
(0.0675198 0.0530578 0)
(0.0797893 0.0579057 0)
(0.0960989 0.0700719 0)
(0.111897 0.0780503 0)
(0.133974 0.0937172 0)
(0.153704 0.106214 0)
(0.184068 0.124658 0)
(0.208658 0.144795 0)
(0.248247 0.166479 0)
(0.281075 0.194502 0)
(0.329074 0.219942 0)
(0.372762 0.253196 0)
(0.429759 0.280549 0)
(0.483037 0.317213 0)
(0.00258546 0.00813801 0)
(0.00656924 0.00864523 0)
(0.0112493 0.00979818 0)
(0.0169467 0.0119159 0)
(0.0224173 0.0134092 0)
(0.0296859 0.0172838 0)
(0.0374133 0.0187623 0)
(0.0467265 0.0251536 0)
(0.0579682 0.0269149 0)
(0.070172 0.0357524 0)
(0.0854065 0.0388648 0)
(0.101879 0.0498403 0)
(0.121738 0.0553193 0)
(0.143916 0.0697175 0)
(0.169094 0.0786366 0)
(0.199523 0.0959376 0)
(0.229717 0.111643 0)
(0.270593 0.130375 0)
(0.307534 0.154613 0)
(0.357556 0.175645 0)
(0.403869 0.205194 0)
(0.461762 0.22913 0)
(0.515376 0.263679 0)
(0.00175025 0.00994366 0)
(0.00418378 0.010659 0)
(0.00734188 0.0109233 0)
(0.0116815 0.0125042 0)
(0.0158934 0.0131788 0)
(0.0224453 0.0156097 0)
(0.0294414 0.0159661 0)
(0.0388666 0.0199594 0)
(0.0501853 0.0200767 0)
(0.0634138 0.025873 0)
(0.0800198 0.0266723 0)
(0.0982297 0.0339627 0)
(0.120991 0.0364295 0)
(0.145185 0.0465794 0)
(0.175207 0.0509302 0)
(0.207329 0.0642713 0)
(0.243846 0.0739404 0)
(0.286688 0.0888996 0)
(0.328615 0.107683 0)
(0.381637 0.12382 0)
(0.430963 0.149099 0)
(0.489966 0.169259 0)
(0.544195 0.200934 0)
(0.00116383 0.00144048 0)
(0.00277593 0.00226095 0)
(0.00505154 0.00155898 0)
(0.00811692 0.00252649 0)
(0.0114061 0.00191266 0)
(0.0165512 0.00284547 0)
(0.0224499 0.00159838 0)
(0.0304573 0.00346309 0)
(0.0406415 0.00159332 0)
(0.0526879 0.00491595 0)
(0.0686093 0.0032171 0)
(0.0864018 0.00781687 0)
(0.109588 0.00744351 0)
(0.134641 0.0144143 0)
(0.167024 0.015436 0)
(0.200669 0.0261975 0)
(0.242133 0.031069 0)
(0.287317 0.0444493 0)
(0.335369 0.0583397 0)
(0.393356 0.0719762 0)
(0.447809 0.0954988 0)
(0.511704 0.114381 0)
(0.570541 0.145835 0)
(-0.000499869 0.0066255 0)
(-0.000798093 0.00737201 0)
(-0.0014036 0.00621822 0)
(-0.000623811 0.00671787 0)
(0.000149691 0.00538602 0)
(0.00322519 0.00509089 0)
(0.00679737 0.00269153 0)
(0.0132927 0.00223635 0)
(0.0215745 -0.00155482 0)
(0.0331239 -0.0016919 0)
(0.0481907 -0.006505 0)
(0.0666695 -0.00668784 0)
(0.0901602 -0.0113773 0)
(0.117285 -0.010606 0)
(0.151455 -0.0148331 0)
(0.188202 -0.0106398 0)
(0.234073 -0.0126819 0)
(0.282202 -0.00417327 0)
(0.337375 0.00148274 0)
(0.400112 0.0114174 0)
(0.461378 0.0305685 0)
(0.531632 0.0464396 0)
(0.597711 0.0754778 0)
(-0.00125163 0.00189903 0)
(-0.0026392 0.00229942 0)
(-0.00465439 0.000558497 0)
(-0.00547809 7.00503e-05 0)
(-0.00626671 -0.00276471 0)
(-0.00525682 -0.00475422 0)
(-0.00373729 -0.0093144 0)
(0.000317485 -0.0123212 0)
(0.00594655 -0.0191212 0)
(0.0147031 -0.0227705 0)
(0.0267054 -0.0312746 0)
(0.0422991 -0.0352853 0)
(0.0627439 -0.0441939 0)
(0.087482 -0.0480601 0)
(0.119132 -0.0565981 0)
(0.155192 -0.0575889 0)
(0.201047 -0.0641892 0)
(0.250305 -0.0599455 0)
(0.310374 -0.0609863 0)
(0.37645 -0.053128 0)
(0.445118 -0.0374162 0)
(0.524013 -0.0231623 0)
(0.600622 0.00581259 0)
(-0.0027601 0.0113067 0)
(-0.00664367 0.0115477 0)
(-0.0117177 0.00985983 0)
(-0.0151417 0.00908224 0)
(-0.0189566 0.005971 0)
(-0.0206157 0.00328081 0)
(-0.0221452 -0.00209166 0)
(-0.0207283 -0.00677931 0)
(-0.0181878 -0.0151935 0)
(-0.0119334 -0.0218538 0)
(-0.00279158 -0.0334347 0)
(0.0109955 -0.0422242 0)
(0.0299116 -0.0560301 0)
(0.0544826 -0.0666325 0)
(0.0856503 -0.0822326 0)
(0.122734 -0.0923776 0)
(0.169143 -0.107819 0)
(0.220792 -0.113483 0)
(0.284774 -0.125107 0)
(0.353218 -0.12345 0)
(0.429864 -0.117688 0)
(0.517401 -0.109429 0)
(0.606232 -0.0851705 0)
(-0.00338603 0.0103857 0)
(-0.00862251 0.0103203 0)
(-0.0151073 0.00814747 0)
(-0.0201142 0.00634101 0)
(-0.0256597 0.00179189 0)
(-0.0292931 -0.00257558 0)
(-0.0329833 -0.0101391 0)
(-0.0339701 -0.0173349 0)
(-0.0341835 -0.0288901 0)
(-0.0308503 -0.0392786 0)
(-0.0253055 -0.0552443 0)
(-0.0154145 -0.0691726 0)
(-0.00131474 -0.0888094 0)
(0.0184114 -0.105041 0)
(0.044446 -0.126044 0)
(0.0771988 -0.142308 0)
(0.11928 -0.163505 0)
(0.16887 -0.176694 0)
(0.231802 -0.194817 0)
(0.300801 -0.199162 0)
(0.383073 -0.203136 0)
(0.475959 -0.200459 0)
(0.574342 -0.178889 0)
(-0.00469763 0.0242807 0)
(-0.0124559 0.0242243 0)
(-0.021643 0.0223284 0)
(-0.0292136 0.0205806 0)
(-0.0377173 0.0161347 0)
(-0.0441453 0.0115328 0)
(-0.0511105 0.00356234 0)
(-0.0551488 -0.00468797 0)
(-0.0590124 -0.0173776 0)
(-0.0591328 -0.0298989 0)
(-0.0576196 -0.0480105 0)
(-0.0514277 -0.0654615 0)
(-0.041389 -0.089121 0)
(-0.0251556 -0.111775 0)
(-0.00177239 -0.140524 0)
(0.0303651 -0.166857 0)
(0.0720721 -0.199411 0)
(0.122831 -0.226006 0)
(0.186553 -0.257531 0)
(0.259007 -0.275013 0)
(0.347783 -0.293932 0)
(0.446588 -0.301299 0)
(0.555899 -0.289521 0)
(-0.00524132 0.0265394 0)
(-0.0142177 0.0262537 0)
(-0.0246459 0.0239078 0)
(-0.0335867 0.0213799 0)
(-0.0436634 0.0157141 0)
(-0.0517905 0.00974499 0)
(-0.0608619 -0.000169765 0)
(-0.067205 -0.0105494 0)
(-0.0740373 -0.0259751 0)
(-0.0771712 -0.0418345 0)
(-0.0795249 -0.0640821 0)
(-0.0771781 -0.0866404 0)
(-0.0721003 -0.116322 0)
(-0.0610873 -0.145991 0)
(-0.0449181 -0.182923 0)
(-0.0206319 -0.217504 0)
(0.0127068 -0.257344 0)
(0.0571409 -0.29239 0)
(0.115647 -0.332384 0)
(0.186634 -0.361384 0)
(0.276931 -0.392294 0)
(0.377839 -0.409292 0)
(0.496621 -0.404287 0)
(-0.00636768 0.0448818 0)
(-0.0175877 0.0447674 0)
(-0.0304 0.0428497 0)
(-0.0417414 0.0407375 0)
(-0.0545829 0.035504 0)
(-0.0656116 0.0298703 0)
(-0.0780732 0.0201506 0)
(-0.0879813 0.00961592 0)
(-0.0989648 -0.0062601 0)
(-0.10644 -0.0233204 0)
(-0.11415 -0.046906 0)
(-0.117162 -0.0718456 0)
(-0.118605 -0.104194 0)
(-0.113538 -0.137993 0)
(-0.103856 -0.18012 0)
(-0.0850274 -0.223731 0)
(-0.055641 -0.276796 0)
(-0.0131616 -0.328707 0)
(0.0436364 -0.387369 0)
(0.114627 -0.43665 0)
(0.206404 -0.486285 0)
(0.310554 -0.521971 0)
(0.438315 -0.536895 0)
(-0.00674637 0.0493995 0)
(-0.0189071 0.0491858 0)
(-0.0325939 0.0469668 0)
(-0.0450632 0.0444497 0)
(-0.0591258 0.0384794 0)
(-0.071807 0.0320959 0)
(-0.0862695 0.02107 0)
(-0.0987718 0.00916711 0)
(-0.113182 -0.00867752 0)
(-0.124713 -0.0278639 0)
(-0.13767 -0.0545657 0)
(-0.146087 -0.0834683 0)
(-0.154599 -0.121256 0)
(-0.15639 -0.162145 0)
(-0.155919 -0.212915 0)
(-0.146015 -0.267244 0)
(-0.130519 -0.330753 0)
(-0.103129 -0.393063 0)
(-0.0636523 -0.46164 0)
(-0.00933287 -0.525285 0)
(0.0624876 -0.589885 0)
(0.150193 -0.64172 0)
(0.277398 -0.673951 0)
(-0.00777402 0.0718623 0)
(-0.0220595 0.0719427 0)
(-0.0378914 0.0703409 0)
(-0.0527371 0.0686058 0)
(-0.069396 0.0636007 0)
(-0.0851442 0.0583681 0)
(-0.103017 0.0484942 0)
(-0.119669 0.0378993 0)
(-0.138711 0.0210806 0)
(-0.155808 0.00253399 0)
(-0.175144 -0.0241494 0)
(-0.191439 -0.0535745 0)
(-0.209368 -0.0925489 0)
(-0.222014 -0.135359 0)
(-0.234165 -0.189239 0)
(-0.236941 -0.247903 0)
(-0.235726 -0.318764 0)
(-0.219162 -0.394827 0)
(-0.19669 -0.481044 0)
(-0.170753 -0.562768 0)
(-0.136845 -0.646397 0)
(-0.0645587 -0.738263 0)
(0.0584868 -0.81903 0)
(-0.00779388 0.0780167 0)
(-0.0223165 0.0780869 0)
(-0.0383652 0.0764307 0)
(-0.0538347 0.0747368 0)
(-0.0713239 0.0696734 0)
(-0.0886876 0.0644903 0)
(-0.108588 0.0543763 0)
(-0.128529 0.0436156 0)
(-0.151504 0.0262325 0)
(-0.174375 0.00731009 0)
(-0.200668 -0.0201767 0)
(-0.226259 -0.050529 0)
(-0.254607 -0.0919466 0)
(-0.280451 -0.138727 0)
(-0.307487 -0.19937 0)
(-0.329762 -0.267212 0)
(-0.352585 -0.350029 0)
(-0.375499 -0.433513 0)
(-0.410777 -0.511206 0)
(-0.439173 -0.585959 0)
(-0.411315 -0.697677 0)
(-0.30905 -0.83719 0)
(-0.160615 -0.964676 0)
(-0.00873404 0.103508 0)
(-0.0252464 0.104052 0)
(-0.0433364 0.103404 0)
(-0.0611306 0.103121 0)
(-0.0810424 0.100027 0)
(-0.10124 0.0972265 0)
(-0.124275 0.0899576 0)
(-0.148107 0.0824568 0)
(-0.175546 0.0686053 0)
(-0.204227 0.053375 0)
(-0.237427 0.0294739 0)
(-0.272004 0.00203908 0)
(-0.311448 -0.0366006 0)
(-0.352506 -0.0807814 0)
(-0.398465 -0.138177 0)
(-0.446339 -0.201085 0)
(-0.501421 -0.271379 0)
(-0.56744 -0.334894 0)
(-0.639277 -0.416459 0)
(-0.665943 -0.561726 0)
(-0.586867 -0.776519 0)
(-0.449865 -0.99088 0)
(-0.284603 -1.15659 0)
(-0.00813458 0.110609 0)
(-0.0235861 0.111304 0)
(-0.0406112 0.110935 0)
(-0.0577437 0.111063 0)
(-0.0773636 0.108414 0)
(-0.0981935 0.106345 0)
(-0.122669 0.0998901 0)
(-0.149583 0.0935162 0)
(-0.181417 0.0810504 0)
(-0.21675 0.0678553 0)
(-0.257952 0.0463926 0)
(-0.304104 0.0222368 0)
(-0.357776 -0.0125273 0)
(-0.417338 -0.0529405 0)
(-0.485726 -0.106515 0)
(-0.564857 -0.165434 0)
(-0.662238 -0.229815 0)
(-0.777278 -0.296689 0)
(-0.857753 -0.41313 0)
(-0.814381 -0.638726 0)
(-0.689114 -0.915592 0)
(-0.56341 -1.14057 0)
(-0.427232 -1.31111 0)
(-0.0089247 0.137006 0)
(-0.02618 0.138313 0)
(-0.0450076 0.139356 0)
(-0.0641292 0.141695 0)
(-0.0857425 0.142328 0)
(-0.10884 0.144434 0)
(-0.135665 0.143308 0)
(-0.165416 0.143203 0)
(-0.200454 0.137847 0)
(-0.240078 0.131967 0)
(-0.286522 0.118997 0)
(-0.339713 0.103902 0)
(-0.403049 0.0788993 0)
(-0.477183 0.04922 0)
(-0.566037 0.011761 0)
(-0.672382 -0.022306 0)
(-0.79489 -0.0561204 0)
(-0.913608 -0.136603 0)
(-0.958558 -0.377921 0)
(-0.876878 -0.731109 0)
(-0.785259 -1.02882 0)
(-0.696601 -1.25455 0)
(-0.59157 -1.4382 0)
(-0.0074355 0.14409 0)
(-0.0217765 0.145764 0)
(-0.0377446 0.147265 0)
(-0.0543866 0.150169 0)
(-0.073764 0.151501 0)
(-0.0950709 0.154611 0)
(-0.120656 0.154829 0)
(-0.15012 0.156626 0)
(-0.186549 0.15415 0)
(-0.230279 0.15232 0)
(-0.285755 0.144707 0)
(-0.352691 0.137432 0)
(-0.435281 0.124147 0)
(-0.533119 0.109104 0)
(-0.650664 0.0885104 0)
(-0.789675 0.0626633 0)
(-0.942566 0.0111479 0)
(-1.06264 -0.134398 0)
(-1.04285 -0.451765 0)
(-0.962907 -0.813452 0)
(-0.912224 -1.09695 0)
(-0.835628 -1.33476 0)
(-0.752813 -1.53346 0)
(-0.00803244 0.168255 0)
(-0.023752 0.170672 0)
(-0.0408948 0.174032 0)
(-0.058775 0.179838 0)
(-0.0794388 0.185199 0)
(-0.102377 0.193618 0)
(-0.129819 0.200782 0)
(-0.161658 0.211637 0)
(-0.200633 0.220737 0)
(-0.247132 0.233926 0)
(-0.304778 0.244437 0)
(-0.374563 0.256141 0)
(-0.45963 0.262392 0)
(-0.562931 0.26707 0)
(-0.692111 0.27148 0)
(-0.852218 0.272222 0)
(-1.00934 0.220522 0)
(-1.10253 -0.0336735 0)
(-1.07313 -0.476382 0)
(-1.03896 -0.86121 0)
(-0.996454 -1.1573 0)
(-0.932145 -1.41485 0)