/*--------------------------------*- C++ -*----------------------------------*\
| =========                 |                                                 |
| \\      /  F ield         | OpenFOAM: The Open Source CFD Toolbox           |
|  \\    /   O peration     | Version:  2012                                  |
|   \\  /    A nd           | Website:  www.openfoam.com                      |
|    \\/     M anipulation  |                                                 |
\*---------------------------------------------------------------------------*/
FoamFile
{
    version     2.0;
    format      ascii;
    class       volScalarField;
    location    "0.003";
    object      volumeFraction1;
}
// * * * * * * * * * * * * * * * * * * * * * * * * * * * * * * * * * * * * * //

dimensions      [0 0 0 0 0 0 0];


internalField   nonuniform List<scalar> 
200
(
5.58146924e-115
5.299311219e-115
6.757127659e-115
-1.151260418e-114
1.6677077e-113
-1.642161718e-112
1.661683462e-111
-1.677901947e-110
1.694532317e-109
-1.711310492e-108
1.728255865e-107
-1.745368967e-106
1.762651526e-105
-1.780105215e-104
1.79773173e-103
-1.815532783e-102
1.8335101e-101
-1.851665428e-100
1.870000529e-99
-1.888517183e-98
1.907217188e-97
-1.92610236e-96
1.945174532e-95
-1.964435556e-94
1.983887301e-93
-2.003531656e-92
2.023370529e-91
-2.043405846e-90
2.063639551e-89
-2.08407361e-88
2.104710005e-87
-2.125550741e-86
2.146597841e-85
-2.167853349e-84
2.189319327e-83
-2.210997861e-82
2.232891054e-81
-2.255001033e-80
2.277329943e-79
-2.299879954e-78
2.322653253e-77
-2.345652052e-76
2.368878585e-75
-2.392335106e-74
2.416023891e-73
-2.439947242e-72
2.464107481e-71
-2.488506954e-70
2.513148029e-69
-2.538033098e-68
2.563164578e-67
-2.588544909e-66
2.614176555e-65
-2.640062004e-64
2.66620377e-63
-2.69260439e-62
2.719266428e-61
-2.746192471e-60
2.773385136e-59
-2.80084706e-58
2.828580912e-57
-2.856589382e-56
2.884875192e-55
-2.913441085e-54
2.942289837e-53
-2.971424248e-52
3.000847146e-51
-3.030561389e-50
3.06056986e-49
-3.090875474e-48
3.121481173e-47
-3.152389928e-46
3.183604739e-45
-3.215128639e-44
3.246964686e-43
-3.279115972e-42
3.311585619e-41
-3.344376779e-40
3.377492635e-39
-3.410936403e-38
3.444711329e-37
-3.478820693e-36
3.513267807e-35
-3.548056014e-34
3.583188692e-33
-3.618669252e-32
3.654501139e-31
-3.690687831e-30
3.727232843e-29
-3.764139721e-28
3.801412049e-27
-3.839053447e-26
3.877067567e-25
-3.915458102e-24
3.954228777e-23
-3.993383358e-22
4.032925646e-21
-4.07285948e-20
4.113188736e-19
-2.807904246e-17
0.0004324863358
0.00445654384
0.02278304983
0.07698266075
0.1933296274
0.3843861844
0.6296056698
0.8188433077
0.919968346
0.9676166984
0.9878648189
0.995750266
0.9985988295
0.9995623648
0.9998698396
0.9999629738
0.9999898876
0.9999973396
0.9999993239
0.9999998336
0.9999999602
0.9999999908
0.9999999979
0.9999999995
0.9999999999
1
1
1
1
1
1
1
1
1
1
1
1
1
1
1
1
1
1
1
1
1
1
1
1
1
1
1
1
1
1
1
1
1
1
1
1
1
1
1
1
1
1
1
1
1
1
1
1
1
1
1
1
1
1
1
1
1
1
1
1
1
1
1
1
1
1
1
1
1
1
1
1
1
1
1
)
;

boundaryField
{
    sides
    {
        type            zeroGradient;
    }
    empty1
    {
        type            empty;
    }
    empty2
    {
        type            empty;
    }
}


// ************************************************************************* //
