# vtk DataFile Version 2.0
gauge_2
ASCII
DATASET POLYDATA
POINTS 43 double
0.2 0.0359992 0.005
0.2 0.0419991 0.005
0.2 0.047999 0.005
0.2 0.0607609 0.005
0.2 0.0735228 0.005
0.2 0.0862847 0.005
0.2 0.0990467 0.005
0.2 0.111809 0.005
0.2 0.124571 0.005
0.2 0.137332 0.005
0.2 0.150094 0.005
0.2 0.162856 0.005
0.2 0.175618 0.005
0.2 0.18838 0.005
0.2 0.201142 0.005
0.2 0.213904 0.005
0.2 0.226666 0.005
0.2 0.239428 0.005
0.2 0.25219 0.005
0.2 0.264952 0.005
0.2 0.277714 0.005
0.2 0.290476 0.005
0.2 0.303238 0.005
0.2 0.315999 0.005
0.2 0.328761 0.005
0.2 0.341523 0.005
0.2 0.354285 0.005
0.2 0.367047 0.005
0.2 0.379809 0.005
0.2 0.392571 0.005
0.2 0.405333 0.005
0.2 0.418095 0.005
0.2 0.430857 0.005
0.2 0.443619 0.005
0.2 0.456381 0.005
0.2 0.469143 0.005
0.2 0.481905 0.005
0.2 0.494666 0.005
0.2 0.507428 0.005
0.2 0.52019 0.005
0.2 0.532952 0.005
0.2 0.545714 0.005
0.2 0.558476 0.005
POINT_DATA 43
 FIELD attributes 1
alpha.water 1 43 float
1 1 1 1 0.771841 0.284394 0.0125536 2.56315e-05 3.96199e-05 1.45134e-05 1.48636e-09 1.28305e-08 2.36579e-08 1.21141e-08 3.69263e-12 1.2191e-12 2.52845e-13 4.4821e-14 8.52293e-15 4.86566e-16 6.731e-17 1.36319e-17 2.7179e-18 4.39565e-19 5.94796e-20 7.77307e-21 9.47073e-22 1.26704e-22 2.40751e-23 4.73019e-24 8.60172e-25 1.38313e-25 1.93588e-26 2.41422e-27 2.78745e-28 3.01151e-29 2.96595e-30 2.51272e-31 1.67454e-32 7.90022e-34 2.39282e-35 4.26741e-37 4.59839e-39
