/*--------------------------------*- C++ -*----------------------------------*\
| =========                 |                                                 |
| \\      /  F ield         | OpenFOAM: The Open Source CFD Toolbox           |
|  \\    /   O peration     | Version:  3.0.1                                 |
|   \\  /    A nd           | Web:      www.OpenFOAM.org                      |
|    \\/     M anipulation  |                                                 |
\*---------------------------------------------------------------------------*/
FoamFile
{
    version     2.0;
    format      ascii;
    class       surfaceScalarField;
    location    "0.00025";
    object      phi;
}
// * * * * * * * * * * * * * * * * * * * * * * * * * * * * * * * * * * * * * //

dimensions      [1 0 -1 0 0 0 0];

internalField   nonuniform List<scalar> 
1890
(
-3.46945e-18
-1.73472e-18
3.46945e-18
-5.20417e-18
3.46945e-18
-1.73472e-18
1.04083e-17
0
6.93889e-18
1.04083e-17
6.93889e-18
1.73472e-18
1.38778e-17
5.20417e-18
0
1.21431e-17
3.81639e-17
1.04083e-17
2.77556e-17
-3.46945e-18
2.77556e-17
6.93889e-18
6.59195e-17
8.67362e-18
1.55431e-15
1.04083e-17
3.88439e-14
-1.83881e-16
9.90218e-13
-4.59181e-15
2.51969e-11
-1.1237e-13
6.40383e-10
-2.64641e-12
1.60778e-08
-5.9277e-11
3.79094e-07
-1.19817e-09
7.34237e-06
-1.92795e-08
8.44598e-05
-1.78145e-07
0.000372257
-4.93467e-07
0.000766814
-2.20956e-07
0.00110431
4.61678e-07
0.0013513
1.15712e-06
0.00151947
1.19956e-06
0.00162671
5.57141e-07
0.00168988
-8.08926e-08
0.00172389
-4.07991e-07
0.00174063
-5.84383e-07
0.00174826
-6.60738e-07
0.00175123
-2.67715e-07
0.00175235
-3.50213e-07
0.00175291
-3.77199e-07
0.00175331
-3.54188e-07
0.00175373
-3.29672e-07
0.00175416
-2.88662e-07
0.00175457
-2.29623e-07
0.00175492
-1.79961e-07
0.00175519
-1.38238e-07
0.0017554
-1.16026e-07
0.00175558
-7.02889e-08
0.00175581
-3.12374e-08
0.00175617
-2.9839e-08
0.00175663
-1.05071e-08
0.00175711
-1.97506e-08
0.00175751
-7.59737e-08
0.00175715
-1.41077e-08
0.00175472
-7.00165e-08
0.00174797
-8.22289e-09
0.00173561
-4.22539e-08
0.00171907
-5.13883e-08
0.00170251
-4.24861e-08
0.00169004
-2.98589e-08
0.00168296
2.4545e-09
0.00167995
4.21013e-09
0.00167887
8.8067e-08
0.00167835
9.01197e-08
0.00167806
2.25478e-08
0.00167789
1.11141e-07
0.00167784
5.64959e-08
0.0016776
1.31737e-07
0.00167728
1.19023e-07
0.00167684
1.83847e-07
0.00167629
2.37216e-07
0.00167568
3.09832e-07
0.00167516
4.11561e-07
0.00167476
5.46113e-07
0.00167445
6.83695e-07
0.00167391
7.007e-07
0.00167243
5.75452e-07
0.00166788
1.06194e-06
0.00165797
5.25596e-07
0.00163672
-4.35717e-07
0.00159106
-1.3467e-06
0.00149642
-1.65998e-06
0.00131289
-1.29199e-06
0.000987506
-4.42242e-07
0.000514157
4.1553e-07
0.000117624
8.21803e-07
9.44702e-06
2.82448e-07
4.47052e-07
2.74015e-08
1.74851e-08
1.52725e-09
6.46181e-10
6.86604e-11
2.36629e-11
2.81276e-12
8.65703e-13
1.09963e-13
3.11036e-14
4.1139e-15
5.88071e-16
6.33174e-17
-3.22659e-16
-5.46438e-17
-5.51642e-16
-2.60209e-17
-5.79398e-16
-1.56125e-17
-5.11743e-16
-1.04083e-17
-2.498e-16
-1.73472e-18
-5.20417e-17
-1.12757e-17
-1.04083e-17
-8.67362e-19
-2.60209e-17
-1.73472e-18
-8.67362e-18
0
-6.93889e-18
-8.67362e-19
0
-8.67362e-18
-7.80626e-18
6.93889e-18
-5.20417e-18
6.93889e-18
-3.46945e-18
6.93889e-18
-1.73472e-18
3.1225e-17
1.73472e-18
1.73472e-17
1.73472e-18
1.04083e-17
6.93889e-18
3.81639e-17
1.04083e-17
1.38778e-17
8.67362e-18
2.42861e-17
1.21431e-17
1.04083e-17
1.04083e-17
1.04083e-17
6.93889e-18
4.85723e-17
8.67362e-18
1.48492e-15
3.1225e-17
3.64014e-14
2.51535e-16
9.29392e-13
6.06459e-15
2.37139e-11
1.52921e-13
6.05306e-10
3.79043e-12
1.52905e-08
9.06464e-11
3.63275e-07
1.99498e-09
7.09423e-06
3.57549e-08
8.23826e-05
3.78685e-07
0.000366679
1.39962e-06
0.000759652
2.05732e-06
0.00109697
2.21749e-06
0.00134437
2.22658e-06
0.00151388
1.34575e-06
0.0016227
-1.78075e-07
0.00168729
-1.46284e-06
0.00172264
-2.20502e-06
0.00174034
-2.34487e-06
0.00174843
-2.1009e-06
0.00175202
-1.75538e-06
0.00175362
-1.41491e-06
0.00175445
-1.06353e-06
0.00175501
-7.33921e-07
0.00175546
-5.44513e-07
0.00175583
-3.90922e-07
0.00175614
-2.90239e-07
0.00175637
-2.04655e-07
0.00175651
-1.49977e-07
0.00175658
-1.15984e-07
0.0017567
-1.12419e-07
0.00175681
-3.54915e-09
0.0017571
-2.12e-08
0.00175751
-2.11806e-08
0.00175795
-2.16826e-08
0.00175824
-7.86473e-08
0.00175786
-2.52882e-08
0.00175534
-5.45312e-08
0.00174861
-6.38948e-08
0.00173626
-8.31024e-08
0.00171971
-9.00714e-08
0.00170316
-7.80139e-08
0.0016907
-5.2831e-08
0.00168366
-1.39189e-08
0.00168068
1.52091e-08
0.00167974
8.3295e-08
0.00167936
8.48512e-08
0.00167909
5.34099e-08
0.00167908
1.09111e-07
0.0016791
7.25298e-08
0.00167904
1.27433e-07
0.00167882
1.52051e-07
0.00167854
2.20991e-07
0.00167817
3.2853e-07
0.00167779
5.53782e-07
0.00167742
8.724e-07
0.0016771
1.30283e-06
0.0016766
1.83311e-06
0.00167521
2.49282e-06
0.00167221
2.81989e-06
0.00166674
2.77537e-06
0.00165572
2.11531e-06
0.00163329
4.86139e-07
0.00158599
-5.94924e-07
0.00148943
-1.20286e-06
0.00130413
-1.42938e-06
0.000977986
-2.16559e-06
0.00050593
-2.20558e-06
0.000114424
-1.76747e-06
9.09223e-06
-5.00461e-07
4.26532e-07
-4.42818e-08
1.65518e-08
-2.28581e-09
6.07876e-10
-9.66195e-11
2.21648e-11
-3.77676e-12
8.08799e-13
-1.42932e-13
2.90462e-14
-5.39672e-15
5.86337e-16
-3.02709e-16
-3.1572e-16
-6.50521e-17
-5.11743e-16
-6.93889e-17
-5.44703e-16
-5.37764e-17
-4.85723e-16
-3.29597e-17
-2.35922e-16
-1.73472e-17
-5.20417e-17
2.60209e-18
-3.64292e-17
-8.67362e-19
-2.25514e-17
-3.46945e-18
-1.04083e-17
-1.21431e-17
-1.73472e-18
-6.93889e-18
5.20417e-18
-8.67362e-19
0
3.46945e-18
-3.46945e-18
6.93889e-18
-6.93889e-18
2.77556e-17
-6.93889e-18
3.1225e-17
-1.73472e-18
3.46945e-17
-1.73472e-18
2.77556e-17
0
3.1225e-17
0
-3.46945e-18
0
-1.04083e-17
8.67362e-18
2.77556e-17
1.04083e-17
3.81639e-17
1.38778e-17
5.89806e-17
-6.93889e-18
1.57166e-15
-1.38778e-17
3.97078e-14
1.73472e-18
1.01294e-12
2.91434e-16
2.5813e-11
6.68215e-15
6.57063e-10
1.86627e-13
1.65179e-08
5.53718e-12
3.89599e-07
1.65543e-10
7.53239e-06
4.21083e-09
8.60583e-05
6.15273e-08
0.000375857
3.47284e-07
0.00077007
1.00223e-06
0.00110622
1.68852e-06
0.00135145
2.809e-06
0.00151844
2.73467e-06
0.00162623
5.61939e-07
0.00169196
-3.08283e-06
0.0017284
-4.32538e-06
0.00174648
-3.90398e-06
0.00175451
-3.09393e-06
0.00175763
-2.32148e-06
0.00175861
-1.70631e-06
0.00175881
-1.19354e-06
0.00175879
-7.63779e-07
0.00175878
-5.24395e-07
0.00175879
-3.56231e-07
0.0017588
-2.45902e-07
0.00175878
-1.68115e-07
0.00175874
-1.21847e-07
0.00175864
-5.86006e-08
0.00175854
-6.27089e-08
0.00175857
2.42648e-08
0.00175874
3.11943e-08
0.00175904
2.9715e-08
0.0017594
2.651e-08
0.0017596
-8.095e-09
0.00175915
1.23701e-08
0.00175659
-2.57353e-08
0.00174981
-5.1214e-08
0.00173743
-9.32382e-08
0.00172088
-1.05911e-07
0.00170434
-1.08202e-07
0.0016919
-9.51367e-08
0.00168491
-7.33626e-08
0.00168203
-4.93291e-08
0.00168122
-1.31934e-08
0.00168097
-1.62353e-08
0.00168087
-2.14084e-08
0.001681
2.80262e-08
0.0016812
4.6135e-09
0.00168131
7.03552e-08
0.00168136
9.90441e-08
0.00168142
1.67808e-07
0.00168155
3.2196e-07
0.00168185
6.32492e-07
0.00168235
1.12866e-06
0.00168272
1.7195e-06
0.00168283
2.1205e-06
0.00168166
3.17141e-06
0.00167815
3.74808e-06
0.00167103
4.21637e-06
0.00165832
3.60939e-06
0.00163641
-3.82292e-07
0.00159048
-1.60227e-06
0.00149587
-2.07174e-06
0.00131314
-3.01279e-06
0.000989378
-1.35162e-06
0.000517742
-8.42738e-07
0.000119544
-3.4598e-07
9.66523e-06
-6.73087e-08
4.58122e-07
-4.3029e-09
1.79144e-08
-1.51647e-10
6.61429e-10
-4.58806e-12
2.4196e-11
-1.43382e-13
8.84445e-13
-5.08621e-15
3.18565e-14
-3.70363e-16
7.70217e-16
-1.44849e-16
-2.5327e-16
-1.249e-16
-4.51028e-16
-1.05818e-16
-4.71845e-16
-8.06646e-17
-4.05925e-16
-4.94396e-17
-1.78677e-16
-2.77556e-17
-6.93889e-17
-1.82146e-17
-4.33681e-17
-1.21431e-17
-2.42861e-17
-3.46945e-18
-1.9082e-17
-8.67362e-19
1.04083e-17
0
1.04083e-17
-9.54098e-18
-6.93889e-18
6.93889e-18
-5.20417e-18
1.73472e-17
-1.73472e-18
3.1225e-17
-1.04083e-17
3.81639e-17
1.73472e-18
3.46945e-17
1.21431e-17
2.77556e-17
1.73472e-17
3.1225e-17
1.21431e-17
2.42861e-17
-3.46945e-18
1.38778e-17
1.73472e-18
0
0
6.93889e-18
0
5.55112e-17
1.73472e-18
1.56125e-15
-6.93889e-18
4.01311e-14
-1.05818e-16
1.02386e-12
-2.60209e-15
2.60965e-11
-6.70922e-14
6.64535e-10
-1.63962e-12
1.67164e-08
-3.77696e-11
3.9456e-07
-7.77439e-10
7.6301e-06
-1.27501e-08
8.69572e-05
-1.17596e-07
0.000378059
-2.95249e-07
0.000772178
8.6163e-08
0.00110711
6.4222e-07
0.00135157
1.46368e-06
0.00152053
1.57559e-06
0.00163138
-4.58129e-07
0.00169918
-4.74214e-06
0.00173496
-4.28373e-06
0.00175245
-3.75043e-06
0.00175996
-2.89204e-06
0.00176237
-2.09316e-06
0.00176236
-1.37698e-06
0.00176198
-8.74472e-07
0.00176127
-4.94745e-07
0.00176075
-2.34146e-07
0.0017604
-8.82793e-08
0.00176017
-2.68343e-08
0.00175998
-2.87317e-09
0.00175981
8.9754e-09
0.00175961
6.82284e-08
0.00175944
3.7268e-08
0.00175938
1.07596e-07
0.0017595
1.05079e-07
0.00175976
1.06063e-07
0.00176008
9.32623e-08
0.00176025
6.90197e-08
0.00175977
6.19816e-08
0.00175719
1.01318e-08
0.00175039
-2.19771e-08
0.00173799
-8.17817e-08
0.00172144
-1.07673e-07
0.0017049
-1.32548e-07
0.00169248
-1.479e-07
0.00168552
-1.48122e-07
0.00168269
-1.46441e-07
0.0016819
-1.3361e-07
0.0016817
-1.3023e-07
0.00168168
-1.36426e-07
0.00168189
-8.84354e-08
0.00168217
-1.04108e-07
0.00168238
-5.51628e-08
0.0016826
-3.91474e-08
0.00168297
-1.00968e-10
0.00168355
1.49488e-07
0.0016845
4.00147e-07
0.00168574
8.62273e-07
0.00168669
9.26186e-07
0.00168739
1.43508e-06
0.00168671
3.23062e-06
0.00168351
3.47133e-06
0.00167671
4.02377e-06
0.00166367
3.6845e-06
0.00163842
1.54289e-06
0.00159099
-5.12763e-07
0.00149541
-1.16461e-06
0.00131268
-9.94553e-07
0.000990825
-3.4487e-07
0.00052013
1.15611e-07
0.000120713
4.72352e-07
9.78446e-06
1.73116e-07
4.63626e-07
1.70287e-08
1.81167e-08
9.46454e-10
6.68509e-10
4.23265e-11
2.44482e-11
1.70439e-12
8.93698e-13
6.46323e-14
3.22763e-14
2.16233e-15
8.55219e-16
-5.55112e-17
-1.78677e-16
-1.17961e-16
-3.50414e-16
-1.03216e-16
-3.62557e-16
-7.63278e-17
-2.81025e-16
-4.42354e-17
-1.11022e-16
-2.08167e-17
-3.81639e-17
-3.46945e-18
-1.9082e-17
-4.33681e-18
-3.81639e-17
-9.54098e-18
-2.08167e-17
-1.73472e-18
-3.46945e-18
-6.07153e-18
1.04083e-17
-1.73472e-18
-1.30104e-17
6.93889e-18
-1.56125e-17
2.08167e-17
1.73472e-18
5.20417e-17
5.20417e-18
7.28584e-17
1.73472e-18
1.38778e-17
-1.73472e-18
1.73472e-17
5.20417e-18
1.73472e-17
6.93889e-18
2.08167e-17
5.20417e-18
1.04083e-17
-1.73472e-18
-3.46945e-18
-6.93889e-18
-6.93889e-18
-3.46945e-18
6.59195e-17
3.46945e-18
1.49533e-15
1.73472e-18
3.86809e-14
2.02963e-16
9.86256e-13
5.31519e-15
2.51482e-11
1.32802e-13
6.41473e-10
3.24963e-12
1.61866e-08
7.72252e-11
3.83678e-07
1.69673e-09
7.45394e-06
3.02498e-08
8.54551e-05
3.03748e-07
0.000374075
9.29846e-07
0.000767282
6.87195e-07
0.00110236
-5.07695e-07
0.00134788
-2.0174e-06
0.00151969
-3.05245e-06
0.00163307
-3.46929e-06
0.00169884
-2.87178e-06
0.00173494
-2.98545e-06
0.00175237
-2.33761e-06
0.00175977
-1.77487e-06
0.00176186
-1.25658e-06
0.00176175
-8.2092e-07
0.00176079
-5.65672e-07
0.00175987
-3.45324e-07
0.00175924
-1.80279e-07
0.00175894
-6.80091e-08
0.00175881
-3.73622e-08
0.00175873
-3.30623e-08
0.00175865
-1.65966e-08
0.00175851
9.00542e-08
0.00175842
3.63966e-08
0.00175841
1.02816e-07
0.00175859
8.8686e-08
0.0017589
1.03989e-07
0.00175926
8.90008e-08
0.00175945
1.01098e-07
0.001759
6.30285e-08
0.00175645
1.13469e-08
0.00174965
-1.12212e-08
0.00173726
-7.3432e-08
0.0017207
-1.00345e-07
0.00170415
-1.34664e-07
0.00169173
-1.72359e-07
0.00168474
-1.89224e-07
0.0016819
-2.19268e-07
0.00168106
-1.78411e-07
0.00168083
-1.81421e-07
0.00168075
-1.58546e-07
0.00168092
-1.25281e-07
0.00168111
-8.37991e-08
0.00168125
-5.95332e-08
0.00168141
-2.39955e-08
0.00168182
-2.06552e-09
0.00168266
1.36513e-07
0.00168393
3.25385e-07
0.00168551
5.8501e-07
0.00168708
9.33185e-07
0.00168746
1.08619e-06
0.00168605
1.60452e-06
0.00168322
2.00293e-06
0.00167691
2.95489e-06
0.00166494
2.75517e-06
0.00163885
4.60162e-06
0.00158904
3.55536e-06
0.00149102
2.69311e-06
0.00130697
1.67475e-06
0.000984261
5.13275e-07
0.000514563
-8.73006e-07
0.000118543
-1.23912e-06
9.54672e-06
-4.10897e-07
4.50134e-07
-3.80703e-08
1.75094e-08
-1.9675e-09
6.43943e-10
-8.30278e-11
2.35069e-11
-3.25542e-12
8.58947e-13
-1.24383e-13
3.11504e-14
-4.83467e-15
9.00321e-16
-2.90566e-16
-1.23165e-16
-9.36751e-17
-2.11636e-16
-7.71952e-17
-2.32453e-16
-5.20417e-17
-1.64799e-16
-2.34188e-17
-7.80626e-17
-1.56125e-17
-4.33681e-17
-6.07153e-18
-2.60209e-17
2.60209e-18
-2.42861e-17
-2.60209e-18
-2.25514e-17
-1.73472e-18
-5.20417e-18
-4.33681e-18
-1.56125e-17
-1.21431e-17
-6.07153e-18
1.73472e-17
1.21431e-17
3.1225e-17
0
3.81639e-17
5.20417e-18
6.245e-17
0
1.73472e-17
0
2.08167e-17
-1.73472e-18
1.73472e-17
0
-6.93889e-18
5.20417e-18
3.46945e-18
3.46945e-18
-6.93889e-18
-6.93889e-18
0
-1.21431e-17
7.63278e-17
-1.04083e-17
1.67574e-15
0
4.19179e-14
4.68375e-17
1.06693e-12
1.18308e-15
2.71318e-11
2.60486e-14
6.89336e-10
5.28879e-13
1.7298e-08
9.65496e-12
4.0703e-07
1.39426e-10
7.8341e-06
8.23494e-10
8.84914e-05
-2.53914e-08
0.000381015
-3.85291e-07
0.000774619
-1.50165e-06
0.00110946
-3.22216e-06
0.00135501
-5.1071e-06
0.00152457
-5.3994e-06
0.00163404
-3.53494e-06
0.00169792
-1.88647e-07
0.00173318
-7.49798e-07
0.00175044
-7.28982e-07
0.00175743
-5.91129e-07
0.00175919
-3.83135e-07
0.00175905
-3.13262e-07
0.0017579
-2.72916e-07
0.00175688
-2.14258e-07
0.00175623
-1.6522e-07
0.00175597
-7.29605e-08
0.00175595
-4.60032e-08
0.00175597
-8.96384e-08
0.00175591
-2.82643e-08
0.00175585
4.36966e-08
0.00175583
-3.68409e-08
0.0017559
2.37481e-08
0.00175615
-3.62434e-09
0.00175653
1.67895e-08
0.00175694
1.9533e-08
0.00175723
2.48162e-08
0.00175683
6.39764e-09
0.00175432
-2.81737e-08
0.00174755
-3.55903e-08
0.00173516
-6.93282e-08
0.0017186
-8.513e-08
0.00170204
-1.11654e-07
0.00168957
-1.38233e-07
0.00168253
-1.59697e-07
0.00167964
-2.36697e-07
0.00167867
-7.318e-08
0.00167836
-1.36535e-07
0.00167822
-1.1448e-07
0.00167827
-6.61923e-08
0.00167838
-2.59127e-08
0.00167844
7.37025e-10
0.00167853
1.65073e-08
0.00167897
2.12486e-08
0.00168001
6.15245e-08
0.00168154
1.00041e-07
0.00168311
1.2685e-07
0.00168435
1.19312e-07
0.0016846
6.10413e-08
0.00168347
7.93978e-08
0.00168119
1.89496e-07
0.00167649
6.56064e-07
0.00166641
6.86201e-07
0.00164451
2.72198e-06
0.00159608
4.45924e-06
0.0014985
4.80103e-06
0.00131479
3.76792e-06
0.000993232
2.35333e-06
0.000523857
1.21816e-06
0.000122855
3.02249e-07
1.0056e-05
3.83075e-09
4.78867e-07
-2.92769e-09
1.87727e-08
-2.36975e-10
6.94471e-10
-1.29241e-11
2.54589e-11
-6.10043e-13
9.33214e-13
-2.68561e-14
3.39607e-14
-1.21691e-15
1.05471e-15
-1.38778e-16
-3.64292e-17
-5.0307e-17
-1.249e-16
-5.37764e-17
-1.2837e-16
-4.68375e-17
-1.00614e-16
-2.68882e-17
-4.51028e-17
-5.20417e-18
-3.1225e-17
-8.67362e-19
-3.81639e-17
-6.07153e-18
-3.46945e-17
-2.60209e-18
-1.73472e-17
2.60209e-18
-1.21431e-17
0
1.38778e-17
-5.20417e-18
-1.73472e-18
6.93889e-18
1.21431e-17
2.77556e-17
1.56125e-17
4.85723e-17
8.67362e-18
4.85723e-17
-3.46945e-18
3.81639e-17
1.73472e-18
2.77556e-17
-3.46945e-18
2.08167e-17
1.73472e-18
-2.42861e-17
-8.67362e-18
-5.20417e-17
-1.73472e-18
-1.38778e-17
3.46945e-18
1.38778e-17
3.46945e-18
5.89806e-17
-1.73472e-18
1.71391e-15
-5.20417e-18
4.34236e-14
-2.15106e-16
1.10262e-12
-5.41407e-15
2.7964e-11
-1.395e-13
7.08216e-10
-3.58669e-12
1.77072e-08
-9.07591e-11
4.15104e-07
-2.1691e-09
7.96006e-06
-4.33707e-08
8.94549e-05
-5.11135e-07
0.000383114
-2.16978e-06
0.00077699
-3.86738e-06
0.00111202
-4.80315e-06
0.0013578
-5.52058e-06
0.00152629
-4.49196e-06
0.00163441
-2.29726e-06
0.00169836
9.6616e-07
0.00173295
1.29773e-06
0.00174949
1.20337e-06
0.00175582
9.72652e-07
0.00175722
7.19901e-07
0.00175693
3.80146e-07
0.0017556
1.76277e-07
0.0017544
2.85086e-08
0.00175363
-5.97045e-08
0.00175328
-2.06416e-08
0.00175319
-6.13976e-08
0.00175312
-1.03136e-07
0.00175301
1.78692e-08
0.00175304
-1.24446e-07
0.00175298
-1.0321e-07
0.00175305
-7.18136e-08
0.00175327
-9.25814e-08
0.00175366
-9.33174e-08
0.00175408
-6.90436e-08
0.0017544
-8.5259e-08
0.00175403
-6.64301e-08
0.00175153
-7.54428e-08
0.00174478
-7.04589e-08
0.0017324
-6.59932e-08
0.00171585
-6.57091e-08
0.00169928
-6.89498e-08
0.0016868
-7.49086e-08
0.00167973
-7.83626e-08
0.00167673
-1.26134e-07
0.00167579
9.2005e-09
0.00167541
-1.87449e-08
0.00167523
-2.36939e-08
0.00167526
3.62689e-08
0.00167538
6.02402e-08
0.00167547
7.77654e-08
0.00167558
9.21199e-08
0.00167605
6.86545e-08
0.0016771
2.08087e-08
0.00167861
-1.18371e-07
0.00168014
-3.41686e-07
0.00168128
-6.90865e-07
0.00168146
-9.62914e-07
0.00168099
-1.53736e-06
0.0016795
-1.88161e-06
0.00167645
-2.45292e-06
0.00166741
-1.05789e-06
0.00164625
8.35262e-07
0.0015997
3.08556e-06
0.00150379
4.42575e-06
0.00132031
4.46441e-06
0.000997895
4.37705e-06
0.000527518
4.13593e-06
0.000124424
2.65191e-06
1.02409e-05
6.54462e-07
4.89529e-07
5.19904e-08
1.9264e-08
2.401e-09
7.15254e-10
9.33891e-11
2.63042e-11
3.4528e-12
9.66881e-13
1.26043e-13
3.53901e-14
4.51202e-15
1.15706e-15
9.62772e-17
3.46945e-18
-3.1225e-17
-6.59195e-17
-2.51535e-17
-7.28584e-17
-1.73472e-17
-4.16334e-17
-3.46945e-18
-2.60209e-17
2.60209e-18
-2.08167e-17
-8.67362e-19
-1.21431e-17
-9.54098e-18
-5.20417e-17
8.67362e-19
-4.16334e-17
-6.93889e-18
-2.08167e-17
3.46945e-18
-3.46945e-18
-3.46945e-18
-3.46945e-18
0
1.38778e-17
-6.93889e-18
5.20417e-18
1.38778e-17
-3.46945e-18
5.20417e-17
1.73472e-18
4.85723e-17
-1.73472e-18
4.85723e-17
0
6.93889e-18
-1.73472e-18
-2.08167e-17
-5.20417e-18
-1.04083e-17
-3.46945e-18
-2.08167e-17
-3.46945e-18
-3.46945e-18
5.20417e-18
5.55112e-17
8.67362e-18
1.58901e-15
-1.73472e-18
3.98223e-14
-2.67147e-16
1.01011e-12
-6.81052e-15
2.56019e-11
-1.70952e-13
6.48298e-10
-4.24945e-12
1.62232e-08
-1.03612e-10
3.81415e-07
-2.3745e-09
7.36703e-06
-4.57116e-08
8.44744e-05
-5.26516e-07
0.00037155
-2.18522e-06
0.000765198
-3.55121e-06
0.00110265
-3.89896e-06
0.0013501
-3.8061e-06
0.00151947
-2.97093e-06
0.00162853
-1.48312e-06
0.001694
4.89732e-07
0.001729
1.40419e-06
0.00174574
1.10962e-06
0.00175261
8.21126e-07
0.0017545
5.90086e-07
0.00175443
3.837e-07
0.00175352
1.68969e-07
0.00175264
8.85134e-08
0.00175202
2.55514e-08
0.0017517
8.90378e-08
0.00175157
1.07964e-09
0.00175145
-3.34205e-08
0.0017514
-5.32245e-09
0.00175129
-8.59329e-08
0.00175119
-6.74044e-08
0.00175119
-7.14289e-08
0.00175135
-9.31229e-08
0.00175165
-9.76705e-08
0.00175201
-8.3701e-08
0.00175227
-1.1727e-07
0.00175186
-9.48813e-08
0.00174933
-8.73157e-08
0.00174256
-7.47886e-08
0.00173018
-5.03517e-08
0.00171363
-4.07181e-08
0.0016971
-3.01494e-08
0.00168464
-2.29681e-08
0.0016776
-1.31672e-08
0.00167461
-1.74237e-08
0.00167375
1.45222e-08
0.00167343
2.24858e-08
0.00167325
3.07936e-08
0.00167335
5.51355e-08
0.00167354
7.1308e-08
0.00167369
7.66691e-08
0.00167386
7.74432e-08
0.00167424
3.84082e-08
0.00167501
-1.34673e-08
0.00167615
-1.81771e-07
0.00167737
-4.70035e-07
0.00167822
-8.46386e-07
0.00167855
-1.11229e-06
0.00167778
-1.56576e-06
0.0016759
-1.85515e-06
0.00167169
-2.24067e-06
0.00166258
-1.35077e-06
0.00164141
2.58676e-07
0.00159486
2.08085e-06
0.00149858
3.3242e-06
0.00131318
4.10705e-06
0.000986662
4.32877e-06
0.000513493
4.32187e-06
0.000117621
2.93212e-06
9.47258e-06
7.11069e-07
4.49453e-07
5.69796e-08
1.76315e-08
2.73016e-09
6.53857e-10
1.10234e-10
2.40381e-11
4.20869e-12
8.83628e-13
1.5801e-13
3.24185e-14
5.83821e-15
1.10328e-15
1.99493e-16
6.93889e-18
-1.82146e-17
-5.0307e-17
-8.67362e-18
-1.38778e-17
-2.60209e-18
-1.9082e-17
-3.46945e-18
-2.25514e-17
3.46945e-18
-4.16334e-17
-5.20417e-18
-3.64292e-17
-2.60209e-18
-2.60209e-17
-5.20417e-18
-8.67362e-18
-1.30104e-17
-1.73472e-17
-1.04083e-17
-6.93889e-18
-1.38778e-17
-6.93889e-18
-3.46945e-18
-1.73472e-18
1.38778e-17
8.67362e-18
1.04083e-17
6.93889e-18
3.1225e-17
8.67362e-18
4.16334e-17
5.20417e-18
2.42861e-17
0
1.04083e-17
8.67362e-18
1.04083e-17
3.46945e-18
-3.46945e-18
0
0
3.46945e-18
-6.93889e-18
5.20417e-18
5.55112e-17
1.56125e-17
1.4537e-15
1.73472e-18
3.54543e-14
5.72459e-17
8.99662e-13
1.23512e-15
2.28345e-11
2.85761e-14
5.79595e-10
6.27805e-13
1.45624e-08
1.23095e-11
3.44747e-07
1.91346e-10
6.73864e-06
1.34115e-09
7.92229e-05
-1.12218e-08
0.000359131
-2.18129e-07
0.000752054
-6.73039e-07
0.00109161
-1.19546e-06
0.00134167
-1.63075e-06
0.00151305
-1.79288e-06
0.00162316
-1.25728e-06
0.0016889
-2.78802e-07
0.00172483
2.58042e-07
0.00174243
1.06957e-07
0.00174999
-1.47339e-08
0.00175249
-6.56754e-08
0.00175263
-7.08974e-08
0.00175234
-5.41324e-08
0.00175168
-3.54297e-08
0.00175116
-1.31909e-07
0.00175094
2.22832e-08
0.00175083
2.71494e-08
0.00175072
3.18454e-08
0.00175065
8.84331e-09
0.00175048
4.10363e-08
0.00175037
5.13678e-10
0.00175035
1.46217e-09
0.00175047
-2.46177e-08
0.00175073
-2.70323e-08
0.00175105
-3.33031e-08
0.00175125
-6.9053e-08
0.00175077
-4.20694e-08
0.0017482
-4.57222e-08
0.0017414
-4.34444e-08
0.00172902
-2.25126e-08
0.00171249
-1.76082e-08
0.00169598
-1.14081e-08
0.00168356
-6.64072e-09
0.00167657
-1.19508e-09
0.00167366
9.57445e-10
0.00167281
-8.98827e-09
0.00167253
-5.05082e-09
0.00167238
2.35497e-09
0.00167249
5.94023e-09
0.0016727
1.2754e-08
0.00167286
1.23047e-08
0.00167304
-4.95359e-09
0.00167329
-1.60548e-08
0.00167375
-5.33568e-08
0.00167449
-5.24718e-08
0.00167536
-1.11271e-07
0.00167595
-1.3936e-07
0.00167609
-1.01071e-07
0.00167548
-6.9795e-07
0.00167347
-6.83686e-07
0.00166893
-7.72513e-07
0.00165904
-2.84642e-07
0.00163703
7.91699e-07
0.00158926
1.92769e-06
0.00149113
2.51263e-06
0.00130292
2.53253e-06
0.000972285
1.65899e-06
0.000497228
9.20232e-07
0.000110161
2.86847e-07
8.637e-06
2.0201e-09
4.04864e-07
-2.95805e-09
1.57694e-08
-2.69223e-10
5.8229e-10
-1.49964e-11
2.13481e-11
-6.88881e-13
7.83358e-13
-2.87496e-14
2.86837e-14
-1.14578e-15
1.03563e-15
-5.37764e-17
5.20417e-18
-8.67362e-18
-3.81639e-17
-7.80626e-18
-2.42861e-17
-1.73472e-18
-2.60209e-17
-4.33681e-18
-4.51028e-17
-6.93889e-18
-3.64292e-17
-3.46945e-18
-3.1225e-17
8.67362e-19
-1.56125e-17
3.46945e-18
-3.29597e-17
0
-8.67362e-18
9.54098e-18
5.20417e-18
5.20417e-18
3.46945e-18
0
1.73472e-17
6.93889e-18
1.04083e-17
3.46945e-17
3.1225e-17
1.73472e-17
-3.46945e-18
6.93889e-18
-1.38778e-17
-3.46945e-18
6.93889e-17
1.49533e-15
3.64257e-14
9.23497e-13
2.34034e-11
5.92714e-10
1.48458e-08
3.50186e-07
6.82319e-06
8.00107e-05
0.000361668
0.000755914
0.00109618
0.00134641
0.00151735
0.00162657
0.00169144
0.00172673
0.00174373
0.00175075
0.0017528
0.0017528
0.0017523
0.00175162
0.00175104
0.00175068
0.00175051
0.00175039
0.00175023
0.00175014
0.00175003
0.00175003
0.00175016
0.00175044
0.00175075
0.00175093
0.00175045
0.00174787
0.00174105
0.00172867
0.00171216
0.00169566
0.00168326
0.00167628
0.0016734
0.00167254
0.00167224
0.00167208
0.00167216
0.00167236
0.00167253
0.00167268
0.00167291
0.00167321
0.00167384
0.00167471
0.0016756
0.00167632
0.00167589
0.00167433
0.00167027
0.00166083
0.00163958
0.00159287
0.00149585
0.00130818
0.000977171
0.000500787
0.000111333
8.75508e-06
4.11791e-07
1.60999e-08
5.96398e-10
2.19146e-11
8.053e-13
2.95701e-14
1.09808e-15
2.60209e-17
-2.42861e-17
-2.25514e-17
-1.9082e-17
-4.51028e-17
-2.77556e-17
-2.42861e-17
-1.73472e-17
-1.73472e-17
3.46945e-18
-1.21431e-17
)
;

boundaryField
{
    sides1
    {
        type            calculated;
        value           nonuniform List<scalar> 
20
(
-1.73472e-18
3.46945e-18
0
-1.73472e-18
-8.67362e-18
5.20417e-18
-1.21431e-17
-6.93889e-18
-3.46945e-18
6.93889e-18
-1.38778e-17
-1.38778e-17
0
-1.04083e-17
-1.04083e-17
-6.93889e-18
0
3.46945e-18
-6.93889e-18
-3.46945e-18
)
;
    }
    sides2
    {
        type            calculated;
        value           uniform 0;
    }
    empty
    {
        type            empty;
        value           nonuniform 0();
    }
}


// ************************************************************************* //
