/*--------------------------------*- C++ -*----------------------------------*\
| =========                 |                                                 |
| \\      /  F ield         | OpenFOAM: The Open Source CFD Toolbox           |
|  \\    /   O peration     | Version:  3.0.1                                 |
|   \\  /    A nd           | Web:      www.OpenFOAM.org                      |
|    \\/     M anipulation  |                                                 |
\*---------------------------------------------------------------------------*/
FoamFile
{
    version     2.0;
    format      ascii;
    class       volScalarField;
    location    "0.00025";
    object      T;
}
// * * * * * * * * * * * * * * * * * * * * * * * * * * * * * * * * * * * * * //

dimensions      [0 0 0 1 0 0 0];

internalField   nonuniform List<scalar> 
1000
(
289
289
289
289
289
289
289
289
289
289
289
289
289
289
289
289
289
289
289
288.991
288.871
288.249
287.041
285.742
284.661
283.864
283.323
282.982
282.785
282.681
282.631
282.609
282.601
282.595
282.59
282.586
282.585
282.585
282.588
282.592
282.593
282.588
282.57
282.536
282.506
282.495
282.521
282.676
283.182
284.342
286.334
288.954
291.614
293.686
294.906
295.429
295.581
295.605
295.598
295.573
295.54
295.519
295.512
295.513
295.515
295.517
295.517
295.515
295.511
295.505
295.499
295.489
295.466
295.407
295.271
294.983
294.423
293.428
291.903
290.188
289.202
289.012
289
289
289
289
289
289
289
289
289
289
289
289
289
289
289
289
289
289
289
289
289
289
289
289
289
289
289
289
289
289
289
289
289
289
289
289
289
288.992
288.872
288.251
287.041
285.738
284.657
283.862
283.323
282.986
282.791
282.687
282.636
282.613
282.602
282.595
282.589
282.584
282.583
282.583
282.586
282.59
282.592
282.587
282.569
282.536
282.506
282.495
282.521
282.675
283.181
284.341
286.332
288.953
291.613
293.685
294.905
295.429
295.582
295.606
295.598
295.573
295.541
295.52
295.513
295.514
295.516
295.518
295.517
295.514
295.507
295.499
295.491
295.482
295.461
295.405
295.271
294.986
294.429
293.435
291.905
290.184
289.2
289.012
289
289
289
289
289
289
289
289
289
289
289
289
289
289
289
289
289
289
289
289
289
289
289
289
289
289
289
289
289
289
289
289
289
289
289
289
289
288.991
288.868
288.24
287.03
285.734
284.659
283.868
283.331
282.998
282.805
282.699
282.644
282.616
282.602
282.593
282.586
282.581
282.579
282.58
282.584
282.588
282.59
282.586
282.568
282.535
282.505
282.494
282.52
282.674
283.18
284.339
286.329
288.949
291.61
293.684
294.904
295.429
295.582
295.606
295.599
295.574
295.542
295.521
295.514
295.515
295.517
295.519
295.517
295.512
295.504
295.494
295.486
295.478
295.457
295.401
295.264
294.976
294.42
293.43
291.913
290.199
289.206
289.012
289
289
289
289
289
289
289
289
289
289
289
289
289
289
289
289
289
289
289
289
289
289
289
289
289
289
289
289
289
289
289
289
289
289
289
289
289
288.991
288.866
288.232
287.018
285.725
284.658
283.871
283.336
283.005
282.813
282.706
282.649
282.619
282.603
282.592
282.584
282.579
282.577
282.578
282.582
282.587
282.589
282.585
282.567
282.534
282.504
282.493
282.519
282.673
283.179
284.338
286.327
288.948
291.609
293.683
294.904
295.429
295.582
295.607
295.599
295.575
295.543
295.522
295.515
295.516
295.518
295.518
295.516
295.51
295.501
295.492
295.485
295.478
295.459
295.399
295.255
294.964
294.413
293.436
291.926
290.21
289.209
289.013
289
289
289
289
289
289
289
289
289
289
289
289
289
289
289
289
289
289
289
289
289
289
289
289
289
289
289
289
289
289
289
289
289
289
289
289
289
288.991
288.867
288.232
287.015
285.72
284.658
283.871
283.333
282.998
282.806
282.702
282.648
282.621
282.606
282.594
282.585
282.579
282.577
282.578
282.581
282.586
282.588
282.584
282.566
282.533
282.504
282.493
282.519
282.673
283.179
284.338
286.328
288.949
291.61
293.684
294.905
295.43
295.583
295.607
295.6
295.575
295.543
295.522
295.516
295.516
295.517
295.516
295.513
295.505
295.496
295.491
295.489
295.485
295.465
295.401
295.25
294.958
294.415
293.444
291.931
290.209
289.207
289.012
289
289
289
289
289
289
289
289
289
289
289
289
289
289
289
289
289
289
289
289
289
289
289
289
289
289
289
289
289
289
289
289
289
289
289
289
289
288.991
288.864
288.227
287.015
285.728
284.666
283.879
283.335
282.994
282.8
282.698
282.648
282.622
282.608
282.596
282.586
282.579
282.577
282.577
282.581
282.585
282.588
282.583
282.566
282.533
282.504
282.493
282.519
282.674
283.18
284.34
286.331
288.952
291.613
293.687
294.907
295.431
295.584
295.608
295.601
295.576
295.544
295.524
295.518
295.517
295.517
295.515
295.511
295.504
295.497
295.493
295.493
295.49
295.471
295.405
295.251
294.955
294.405
293.432
291.929
290.217
289.212
289.013
289
289
289
289
289
289
289
289
289
289
289
289
289
289
289
289
289
289
289
289
289
289
289
289
289
289
289
289
289
289
289
289
289
289
289
289
289
288.991
288.864
288.227
287.021
285.737
284.671
283.88
283.337
282.993
282.794
282.691
282.642
282.619
282.605
282.594
282.585
282.579
282.576
282.577
282.58
282.585
282.587
282.583
282.565
282.533
282.504
282.493
282.519
282.674
283.181
284.343
286.336
288.958
291.618
293.69
294.909
295.433
295.585
295.609
295.601
295.576
295.545
295.525
295.519
295.518
295.518
295.516
295.513
295.507
295.501
295.497
295.496
295.493
295.471
295.405
295.256
294.959
294.403
293.424
291.925
290.219
289.213
289.013
289
289
289
289
289
289
289
289
289
289
289
289
289
289
289
289
289
289
289
289
289
289
289
289
289
289
289
289
289
289
289
289
289
289
289
289
289
288.991
288.871
288.249
287.047
285.752
284.674
283.877
283.331
282.986
282.787
282.683
282.634
282.612
282.599
282.59
282.582
282.577
282.575
282.576
282.58
282.585
282.587
282.583
282.565
282.533
282.504
282.493
282.519
282.674
283.183
284.346
286.34
288.963
291.622
293.693
294.911
295.434
295.586
295.609
295.602
295.577
295.546
295.526
295.52
295.52
295.521
295.52
295.517
295.512
295.506
295.501
295.497
295.49
295.47
295.409
295.267
294.974
294.413
293.42
291.899
290.187
289.202
289.012
289
289
289
289
289
289
289
289
289
289
289
289
289
289
289
289
289
289
289
289
289
289
289
289
289
289
289
289
289
289
289
289
289
289
289
289
289
288.992
288.878
288.272
287.072
285.768
284.679
283.875
283.325
282.979
282.779
282.674
282.624
282.603
282.592
282.585
282.579
282.575
282.574
282.576
282.58
282.585
282.587
282.583
282.565
282.533
282.504
282.493
282.519
282.675
283.184
284.348
286.343
288.965
291.624
293.694
294.912
295.434
295.586
295.61
295.602
295.577
295.546
295.526
295.52
295.521
295.523
295.524
295.522
295.518
295.513
295.508
295.504
295.496
295.474
295.416
295.279
294.988
294.421
293.413
291.87
290.153
289.19
289.011
289
289
289
289
289
289
289
289
289
289
289
289
289
289
289
289
289
289
289
289
289
289
289
289
289
289
289
289
289
289
289
289
289
289
289
289
289
288.992
288.879
288.275
287.078
285.776
284.685
283.878
283.326
282.978
282.776
282.669
282.618
282.597
282.588
282.581
282.577
282.575
282.574
282.576
282.58
282.586
282.588
282.583
282.565
282.533
282.504
282.493
282.519
282.675
283.184
284.348
286.343
288.966
291.625
293.694
294.912
295.434
295.586
295.609
295.602
295.577
295.546
295.526
295.52
295.52
295.523
295.526
295.525
295.524
295.52
295.515
295.51
295.501
295.479
295.419
295.28
294.985
294.414
293.4
291.859
290.149
289.19
289.011
289
289
289
289
289
289
289
289
289
289
289
289
289
289
289
289
289
289
)
;

boundaryField
{
    sides1
    {
        type            zeroGradient;
    }
    sides2
    {
        type            slip;
    }
    empty
    {
        type            empty;
    }
}


// ************************************************************************* //
