/*--------------------------------*- C++ -*----------------------------------*\
| =========                 |                                                 |
| \\      /  F ield         | OpenFOAM: The Open Source CFD Toolbox           |
|  \\    /   O peration     | Version:  3.0.1                                 |
|   \\  /    A nd           | Web:      www.OpenFOAM.org                      |
|    \\/     M anipulation  |                                                 |
\*---------------------------------------------------------------------------*/
FoamFile
{
    version     2.0;
    format      ascii;
    class       volVectorField;
    location    "0.00025";
    object      U;
}
// * * * * * * * * * * * * * * * * * * * * * * * * * * * * * * * * * * * * * //

dimensions      [0 1 -1 0 0 0 0];

internalField   nonuniform List<vector> 
1000
(
(9.55849e-14 -1.52506e-13 0)
(1.82296e-14 -1.32419e-13 0)
(-6.3613e-14 -7.25673e-14 0)
(-4.74504e-14 -7.3588e-14 0)
(1.62875e-14 -5.24907e-15 0)
(1.32459e-13 2.12775e-14 0)
(1.35788e-13 3.25685e-14 0)
(1.78116e-13 1.65562e-13 0)
(3.31854e-13 2.16955e-13 0)
(3.63716e-13 2.36356e-13 0)
(1.24372e-13 3.1062e-13 0)
(8.76972e-14 3.25925e-13 0)
(3.71303e-12 3.81908e-13 0)
(8.22722e-11 -1.73139e-13 0)
(2.10892e-09 -1.09657e-11 0)
(5.37987e-08 -2.84238e-10 0)
(1.37264e-06 -6.72868e-09 0)
(3.53611e-05 -1.52083e-07 0)
(0.000945667 -3.16953e-06 0)
(0.0250324 -5.57058e-05 0)
(0.413591 -0.000631009 0)
(2.51794 -0.00254027 0)
(6.28615 -0.00280732 0)
(9.98031 0.00117212 0)
(12.9475 0.00758262 0)
(15.1175 0.0104762 0)
(16.5957 0.00644421 0)
(17.5278 0.00233341 0)
(18.0667 2.2417e-05 0)
(18.351 -0.00204223 0)
(18.4885 -0.00419752 0)
(18.5487 -0.00406421 0)
(18.5723 -0.00484934 0)
(18.5822 -0.00557352 0)
(18.5878 -0.00607845 0)
(18.5921 -0.0064888 0)
(18.5965 -0.00668738 0)
(18.6009 -0.00625432 0)
(18.6051 -0.00570855 0)
(18.609 -0.00526204 0)
(18.6125 -0.00488076 0)
(18.6156 -0.00359013 0)
(18.618 -0.00299936 0)
(18.6203 -0.00267983 0)
(18.6218 -0.00186079 0)
(18.6237 -0.00193683 0)
(18.6254 -0.00284469 0)
(18.6262 -0.00116371 0)
(18.627 -0.00238376 0)
(18.6273 -9.99767e-05 0)
(18.6277 -0.000780121 0)
(18.6293 -0.00069478 0)
(18.6304 -0.000293492 0)
(18.6298 7.32404e-05 0)
(18.6282 0.000972415 0)
(18.6263 0.00104255 0)
(18.6243 0.0033153 0)
(18.6218 0.00366741 0)
(18.6193 0.00201576 0)
(18.6164 0.00452429 0)
(18.613 0.00312639 0)
(18.6092 0.00518538 0)
(18.6049 0.00450062 0)
(18.6004 0.00575321 0)
(18.595 0.00618142 0)
(18.5893 0.00653725 0)
(18.5839 0.00644693 0)
(18.5793 0.00724875 0)
(18.5756 0.00671767 0)
(18.5712 0.005611 0)
(18.56 0.00582099 0)
(18.5269 0.00862651 0)
(18.4481 0.002911 0)
(18.2817 -0.00780097 0)
(17.9285 -0.0187705 0)
(17.196 -0.020075 0)
(15.7629 -0.0110016 0)
(13.1781 -0.000435497 0)
(9.05528 0.00584844 0)
(3.90156 0.0049342 0)
(0.637531 0.00114807 0)
(0.0347973 8.91566e-05 0)
(0.00117418 4.51921e-06 0)
(4.05684e-05 1.97012e-07 0)
(1.46731e-06 7.99762e-09 0)
(5.35793e-08 3.10192e-10 0)
(1.95122e-09 1.09005e-11 0)
(6.33925e-11 -2.42329e-13 0)
(-2.24364e-12 -3.91077e-13 0)
(-5.81115e-12 -1.52613e-13 0)
(-6.75247e-12 -5.79482e-14 0)
(-6.38684e-12 -3.61677e-14 0)
(-4.61907e-12 -4.23217e-14 0)
(-1.6713e-12 1.7108e-14 0)
(-3.20965e-13 -1.40711e-14 0)
(-2.6763e-13 -9.2341e-14 0)
(-1.84513e-13 -1.23526e-13 0)
(-7.3309e-14 -1.26294e-13 0)
(-8.9562e-14 -1.51294e-13 0)
(-8.667e-14 -8.69068e-14 0)
(1.03259e-13 -1.72226e-13 0)
(1.16937e-13 -1.81039e-13 0)
(1.64628e-14 -9.21245e-14 0)
(1.43452e-13 -2.00955e-15 0)
(2.02471e-13 8.4555e-14 0)
(1.3102e-13 1.5196e-13 0)
(1.61065e-13 2.82632e-13 0)
(2.79669e-13 3.43035e-13 0)
(1.96442e-13 3.45218e-13 0)
(2.933e-13 2.48307e-13 0)
(1.53608e-13 3.12781e-13 0)
(1.33058e-13 3.60255e-13 0)
(3.9238e-12 4.06811e-13 0)
(7.76379e-11 5.19869e-13 0)
(1.9951e-09 3.97719e-12 0)
(5.09333e-08 9.15491e-11 0)
(1.30301e-06 2.59513e-09 0)
(3.36954e-05 7.21072e-08 0)
(0.000905861 1.91335e-06 0)
(0.0241228 4.43935e-05 0)
(0.401683 0.000676278 0)
(2.47155 0.0041869 0)
(6.21772 0.0111239 0)
(9.90575 0.0197439 0)
(12.8738 0.028927 0)
(15.0526 0.0243542 0)
(16.5471 0.00745297 0)
(17.4936 -0.00723751 0)
(18.0465 -0.0187016 0)
(18.3429 -0.0236408 0)
(18.4877 -0.0242764 0)
(18.5539 -0.0253943 0)
(18.5832 -0.0237013 0)
(18.5971 -0.0198719 0)
(18.605 -0.0162351 0)
(18.6105 -0.0122292 0)
(18.6148 -0.00856147 0)
(18.6184 -0.00537808 0)
(18.6215 -0.003226 0)
(18.624 -0.00115136 0)
(18.626 -0.000281358 0)
(18.6279 0.000569772 0)
(18.6295 0.0013194 0)
(18.6307 0.00140318 0)
(18.6316 0.00140657 0)
(18.6329 0.00124885 0)
(18.6338 -0.000371764 0)
(18.634 0.00071008 0)
(18.6341 -0.000164596 0)
(18.634 -0.000334975 0)
(18.6346 -0.000831975 0)
(18.6362 -0.00115985 0)
(18.6374 -0.00135907 0)
(18.6369 -0.00137847 0)
(18.6357 -0.00086986 0)
(18.6342 -0.00113514 0)
(18.633 0.000504574 0)
(18.632 0.000217151 0)
(18.6305 -0.00131969 0)
(18.6286 0.00045785 0)
(18.6265 -0.000655826 0)
(18.6239 0.000696557 0)
(18.6212 0.00144769 0)
(18.618 0.00336497 0)
(18.6147 0.00594779 0)
(18.6113 0.00984887 0)
(18.6081 0.016119 0)
(18.6051 0.0232427 0)
(18.6013 0.0342561 0)
(18.5914 0.044498 0)
(18.5673 0.0487259 0)
(18.5186 0.0393209 0)
(18.4286 0.0235009 0)
(18.2489 7.73563e-05 0)
(17.8804 -0.0225475 0)
(17.1286 -0.0332539 0)
(15.6751 -0.0301383 0)
(13.0757 -0.0223534 0)
(8.95187 -0.0128099 0)
(3.82382 -0.00512021 0)
(0.616997 -0.0008284 0)
(0.0333793 -5.04099e-05 0)
(0.00111945 -2.02124e-06 0)
(3.84758e-05 -7.18105e-08 0)
(1.38642e-06 -2.45966e-09 0)
(5.05032e-08 -8.55669e-11 0)
(1.8372e-09 -4.52656e-12 0)
(5.99868e-11 -1.81053e-12 0)
(-1.84977e-12 -1.19996e-12 0)
(-5.40794e-12 -9.27393e-13 0)
(-6.45302e-12 -7.18721e-13 0)
(-6.04633e-12 -4.09655e-13 0)
(-4.4086e-12 -2.09559e-13 0)
(-1.49151e-12 4.8754e-14 0)
(-4.70042e-13 -3.15905e-14 0)
(-3.54648e-13 -5.75548e-14 0)
(-2.27985e-13 -5.55122e-14 0)
(-1.1589e-13 -1.21673e-13 0)
(2.21952e-14 -1.01418e-13 0)
(7.46197e-14 -5.44026e-14 0)
(-3.10604e-14 -1.80648e-13 0)
(1.5037e-13 -2.06746e-13 0)
(2.4913e-13 -2.10913e-13 0)
(2.45062e-13 -1.29255e-14 0)
(3.81543e-13 4.38211e-14 0)
(4.01244e-13 9.87489e-14 0)
(4.08739e-13 1.74178e-13 0)
(2.4285e-13 2.15055e-13 0)
(2.14816e-14 2.32354e-13 0)
(1.89676e-13 3.02767e-13 0)
(2.38294e-13 2.35601e-13 0)
(2.96915e-13 2.04054e-13 0)
(3.96724e-12 9.72204e-14 0)
(8.39102e-11 1.1978e-12 0)
(2.15579e-09 2.93635e-11 0)
(5.5019e-08 7.25614e-10 0)
(1.40621e-06 1.83947e-08 0)
(3.62927e-05 4.60623e-07 0)
(0.000972725 1.12024e-05 0)
(0.0257545 0.00024415 0)
(0.422752 0.00352812 0)
(2.54859 0.0199883 0)
(6.32118 0.0463719 0)
(10.0053 0.0664814 0)
(12.9568 0.0711738 0)
(15.1106 0.05747 0)
(16.5871 -0.000149844 0)
(17.5351 -0.0605605 0)
(18.1004 -0.0767218 0)
(18.4046 -0.0751253 0)
(18.5516 -0.0665566 0)
(18.615 -0.0544875 0)
(18.639 -0.0416762 0)
(18.6467 -0.0307983 0)
(18.6485 -0.0222312 0)
(18.6487 -0.0162446 0)
(18.6486 -0.0115401 0)
(18.6486 -0.00895442 0)
(18.6487 -0.00640867 0)
(18.6488 -0.00527887 0)
(18.6488 -0.00435734 0)
(18.6487 -0.00476233 0)
(18.6487 -0.000753191 0)
(18.6487 -0.00161391 0)
(18.6486 -0.00166636 0)
(18.6487 -0.00159266 0)
(18.6485 -0.00237828 0)
(18.6482 -0.00120529 0)
(18.6476 -0.0013973 0)
(18.647 -0.00144205 0)
(18.6472 -0.00150468 0)
(18.6487 -0.00134165 0)
(18.65 -0.000901236 0)
(18.6499 -0.000213545 0)
(18.6492 0.000597246 0)
(18.6487 0.00190706 0)
(18.6486 0.003079 0)
(18.649 0.00320568 0)
(18.6492 0.0033277 0)
(18.649 0.00381076 0)
(18.6486 0.00354345 0)
(18.6481 0.00481764 0)
(18.6477 0.00576582 0)
(18.6477 0.00778259 0)
(18.6492 0.0110482 0)
(18.6525 0.0162666 0)
(18.6579 0.0239826 0)
(18.6637 0.0372246 0)
(18.6678 0.049607 0)
(18.6628 0.0694887 0)
(18.6366 0.0845116 0)
(18.5777 0.0956196 0)
(18.468 0.0901776 0)
(18.2785 0.0309241 0)
(17.9234 -0.0344921 0)
(17.1924 -0.0545085 0)
(15.7616 -0.0647555 0)
(13.1889 -0.0690082 0)
(9.08426 -0.0571482 0)
(3.93838 -0.0280134 0)
(0.649915 -0.00505931 0)
(0.0357048 -0.000322977 0)
(0.00120439 -1.3662e-05 0)
(4.15355e-05 -5.25119e-07 0)
(1.50037e-06 -1.97124e-08 0)
(5.47358e-08 -7.35849e-10 0)
(1.99179e-09 -3.05555e-11 0)
(6.66646e-11 -3.82292e-12 0)
(-1.14614e-12 -2.40875e-12 0)
(-4.68492e-12 -2.14475e-12 0)
(-5.63383e-12 -1.55073e-12 0)
(-5.07247e-12 -1.04193e-12 0)
(-3.49645e-12 -4.40754e-13 0)
(-1.41348e-12 -1.3705e-13 0)
(-3.91965e-13 -1.13632e-13 0)
(-3.12308e-13 -5.48305e-14 0)
(-2.91292e-13 -4.84401e-14 0)
(-1.59903e-13 -3.01076e-14 0)
(3.34348e-14 -4.92429e-14 0)
(-3.61189e-15 -7.5519e-14 0)
(8.18772e-14 -9.12698e-14 0)
(1.25844e-13 -6.18871e-14 0)
(3.15833e-13 -4.29327e-14 0)
(4.85023e-13 5.65146e-14 0)
(4.58321e-13 1.39412e-13 0)
(2.59596e-13 1.02675e-13 0)
(2.94449e-13 2.02166e-14 0)
(3.27423e-13 2.14776e-14 0)
(3.25252e-13 1.15014e-13 0)
(2.40681e-13 1.30842e-13 0)
(8.72703e-16 6.03998e-14 0)
(-9.79332e-14 1.36338e-14 0)
(3.60599e-12 -2.42635e-13 0)
(8.54127e-11 -3.2844e-13 0)
(2.18321e-09 -5.32283e-12 0)
(5.5688e-08 -1.43622e-10 0)
(1.42357e-06 -3.49215e-09 0)
(3.67566e-05 -7.89703e-08 0)
(0.000986167 -1.55607e-06 0)
(0.0261228 -2.31919e-05 0)
(0.427553 -0.000164337 0)
(2.56585 0.000401148 0)
(6.34296 0.00575565 0)
(10.0202 0.0217561 0)
(12.9622 0.0496278 0)
(15.1172 0.0552797 0)
(16.6324 0.0259459 0)
(17.6002 -0.0469211 0)
(18.1705 -0.087288 0)
(18.4696 -0.0778911 0)
(18.6111 -0.0606739 0)
(18.6685 -0.0438912 0)
(18.6844 -0.0309655 0)
(18.6834 -0.0204192 0)
(18.678 -0.0134681 0)
(18.6721 -0.00801183 0)
(18.6676 -0.00480842 0)
(18.6645 -0.00291246 0)
(18.6623 -0.00185483 0)
(18.6609 -0.00123239 0)
(18.6598 5.39646e-05 0)
(18.6586 -0.000153361 0)
(18.6577 0.0011158 0)
(18.6571 0.00136367 0)
(18.6566 0.00132486 0)
(18.6561 0.00120647 0)
(18.6555 0.000467965 0)
(18.655 0.000773297 0)
(18.6541 -0.000127873 0)
(18.6533 -0.000669825 0)
(18.6533 -0.0017523 0)
(18.6546 -0.00218554 0)
(18.656 -0.00244227 0)
(18.6561 -0.00243203 0)
(18.6558 -0.0022441 0)
(18.6558 -0.00183704 0)
(18.6559 -0.00113278 0)
(18.6567 -0.0012386 0)
(18.6579 -0.00148017 0)
(18.6584 -0.000363819 0)
(18.6589 -0.000995166 0)
(18.6594 0.00037524 0)
(18.6605 0.000835089 0)
(18.6631 0.0022 0)
(18.6689 0.00499775 0)
(18.6785 0.0108682 0)
(18.6917 0.0208648 0)
(18.705 0.0353851 0)
(18.716 0.0458452 0)
(18.7165 0.0699205 0)
(18.6948 0.0788932 0)
(18.6377 0.0905048 0)
(18.5289 0.0718251 0)
(18.3247 -0.0407764 0)
(17.9317 -0.0340815 0)
(17.194 -0.0460235 0)
(15.7577 -0.0322683 0)
(13.192 -0.0153693 0)
(9.10317 -0.00391598 0)
(3.96018 0.000506522 0)
(0.656794 0.000380846 0)
(0.0361945 3.93052e-05 0)
(0.00122007 2.26817e-06 0)
(4.20348e-05 1.03666e-07 0)
(1.51801e-06 4.20698e-09 0)
(5.53813e-08 1.55156e-10 0)
(2.01717e-09 1.78297e-12 0)
(6.85685e-11 -2.90457e-12 0)
(-8.14371e-13 -2.97876e-12 0)
(-3.54969e-12 -2.84437e-12 0)
(-4.2822e-12 -2.00423e-12 0)
(-3.90393e-12 -1.30185e-12 0)
(-2.36691e-12 -7.10414e-13 0)
(-9.47321e-13 -3.00656e-13 0)
(-3.93615e-13 -1.36204e-13 0)
(-3.49232e-13 -1.52625e-13 0)
(-2.38311e-13 -1.40394e-13 0)
(-8.8614e-14 -1.22225e-13 0)
(-6.68549e-14 -1.11597e-13 0)
(-6.31353e-14 -1.77256e-13 0)
(2.56117e-14 4.68208e-15 0)
(1.39969e-13 3.32286e-14 0)
(4.58163e-13 1.01508e-13 0)
(7.0146e-13 1.61335e-13 0)
(4.20332e-13 1.35803e-13 0)
(1.22763e-13 1.17956e-13 0)
(1.75135e-13 1.3185e-13 0)
(3.01337e-13 9.75173e-14 0)
(3.04599e-13 -1.40746e-14 0)
(7.86067e-14 -4.75945e-14 0)
(-4.34167e-14 -1.03932e-13 0)
(2.94038e-14 -3.59352e-14 0)
(3.18809e-12 3.91135e-14 0)
(8.26902e-11 2.12923e-13 2.03627e-32)
(2.11715e-09 6.11173e-12 0)
(5.39135e-08 1.48103e-10 0)
(1.37889e-06 3.62865e-09 0)
(3.56551e-05 8.95336e-08 0)
(0.000959072 2.17253e-06 0)
(0.0254838 4.63972e-05 0)
(0.41902 0.000622579 0)
(2.53282 0.00311398 0)
(6.29577 0.00560136 0)
(9.97105 0.00381457 0)
(12.9185 -0.00127121 0)
(15.0932 -0.0115346 0)
(16.6412 -0.052063 0)
(17.6107 -0.112678 0)
(18.1675 -0.0976731 0)
(18.4682 -0.0664434 0)
(18.6096 -0.0453944 0)
(18.6653 -0.0295296 2.02636e-32)
(18.6787 -0.0169854 0)
(18.6735 -0.00701421 0)
(18.6645 -0.00326252 0)
(18.6569 -0.00133753 0)
(18.6522 -0.000613352 -2.04992e-32)
(18.6499 -3.97738e-05 0)
(18.6488 0.000191281 0)
(18.6485 0.0012982 2.08017e-32)
(18.648 0.00189277 0)
(18.6476 0.00131627 0)
(18.6474 0.00308234 0)
(18.6473 0.00275981 -2.01203e-32)
(18.6472 0.00294373 0)
(18.6473 0.00269799 0)
(18.6471 0.00283916 0)
(18.6467 0.00191104 0)
(18.6461 0.000554676 0)
(18.6454 -0.000169703 0)
(18.6454 -0.00197578 0)
(18.6466 -0.00285532 0)
(18.6479 -0.00369334 0)
(18.6478 -0.00446322 0)
(18.6472 -0.00483831 0)
(18.647 -0.00524144 -1.06513e-32)
(18.6469 -0.00495255 1.04588e-32)
(18.6472 -0.0046593 0)
(18.6476 -0.00449705 0)
(18.6477 -0.00347008 -1.04501e-32)
(18.6474 -0.00281843 0)
(18.647 -0.00225847 0)
(18.6474 -0.00133971 0)
(18.6498 -0.000490023 0)
(18.6574 0.000887552 0)
(18.6705 0.00444133 0)
(18.6876 0.0109042 0)
(18.7059 0.0206922 0)
(18.719 0.0257053 0)
(18.7126 0.0398849 0)
(18.6883 0.0503683 0)
(18.6356 0.073682 1.06765e-32)
(18.5363 0.0881638 0)
(18.3361 0.115021 0)
(17.9205 0.029736 0)
(17.1568 0.0103244 0)
(15.7009 0.00262896 0)
(13.1241 -0.00369214 0)
(9.03342 -0.00659121 0)
(3.90768 -0.00421307 0)
(0.642947 -0.000888026 0)
(0.0352502 -6.22078e-05 0)
(0.00118427 -2.68794e-06 0)
(4.0689e-05 -1.03153e-07 0)
(1.46709e-06 -3.91954e-09 0)
(5.35004e-08 -1.54357e-10 0)
(1.95348e-09 -9.53198e-12 0)
(6.68534e-11 -3.05886e-12 0)
(-2.57753e-13 -2.6764e-12 0)
(-2.5206e-12 -2.25675e-12 0)
(-2.84897e-12 -1.57275e-12 0)
(-2.6353e-12 -7.26354e-13 -1.03375e-32)
(-1.47689e-12 -3.41288e-13 0)
(-5.7963e-13 -1.22343e-13 -1.07196e-32)
(-4.12365e-13 -4.13678e-14 0)
(-3.37561e-13 -9.15674e-14 0)
(-2.86635e-13 -1.21919e-13 0)
(-1.01942e-13 -1.88782e-13 0)
(-9.11636e-14 -1.49694e-13 0)
(-1.59142e-13 -8.09503e-14 0)
(7.3049e-14 -5.17957e-14 0)
(2.66333e-13 -2.88832e-14 0)
(5.0733e-13 1.84464e-14 0)
(5.38922e-13 2.98979e-14 0)
(3.91571e-13 -5.13573e-14 0)
(2.22233e-13 2.53648e-14 0)
(2.17926e-13 5.43411e-14 0)
(1.48585e-13 7.67286e-14 0)
(2.13483e-14 -4.19107e-14 0)
(5.63749e-14 -1.81938e-13 0)
(-1.48789e-14 -1.84209e-13 0)
(3.67793e-14 -1.74278e-13 0)
(3.8634e-12 -7.07865e-14 0)
(8.92764e-11 1.53218e-12 -2.07305e-32)
(2.27826e-09 3.85937e-11 0)
(5.79779e-08 9.45933e-10 0)
(1.47883e-06 2.22257e-08 0)
(3.81052e-05 5.0543e-07 0)
(0.0010205 1.08208e-05 0)
(0.0269368 0.00019956 0)
(0.436988 0.0022518 0)
(2.59425 0.00807136 0)
(6.37194 0.0062491 0)
(10.0447 -0.0110535 0)
(12.9909 -0.0566933 0)
(15.1593 -0.0980706 0)
(16.661 -0.0792507 0)
(17.6132 -0.0471552 0)
(18.1512 -0.040296 0)
(18.449 -0.0361139 0)
(18.5873 -0.0281228 0)
(18.6394 -0.0214855 -2.04796e-32)
(18.6504 -0.014381 0)
(18.6436 -0.00863697 0)
(18.6331 -0.00464635 0)
(18.6249 -0.00245042 0)
(18.6205 -0.00134454 2.03661e-32)
(18.6189 -0.000575625 0)
(18.619 -0.000274214 0)
(18.6193 -0.00135458 -2.08995e-32)
(18.6194 0.00299273 0)
(18.6199 0.000688172 0)
(18.6204 0.00125245 0)
(18.6211 0.000792914 2.0698e-32)
(18.6217 0.00109135 0)
(18.6225 0.000554037 0)
(18.6231 0.000936585 0)
(18.6233 0.000248366 0)
(18.6233 -0.000630481 0)
(18.623 -0.000996208 0)
(18.6231 -0.00196695 0)
(18.6242 -0.00244021 0)
(18.6251 -0.0029753 0)
(18.6245 -0.00342466 0)
(18.6231 -0.00370976 0)
(18.6221 -0.00428646 1.0876e-32)
(18.6213 -0.00262272 -1.0758e-32)
(18.6203 -0.00329357 0)
(18.6197 -0.00212371 0)
(18.619 -0.00235841 1.07787e-32)
(18.6176 -0.00121634 0)
(18.6161 -0.00111182 0)
(18.6155 -0.000718701 0)
(18.6181 0.00039277 0)
(18.627 0.00131751 0)
(18.6426 0.00402344 0)
(18.6611 0.00730579 0)
(18.6777 0.0131517 0)
(18.6886 0.0178835 0)
(18.6848 0.0273585 0)
(18.6643 0.0334353 0)
(18.6198 0.0550594 -1.08532e-32)
(18.5416 0.0368882 0)
(18.3723 0.079781 0)
(17.9996 0.106493 0)
(17.2394 0.08252 0)
(15.7877 0.0369792 0)
(13.2191 0.00281045 0)
(9.13906 -0.0172613 0)
(4.00194 -0.0159158 0)
(0.671671 -0.00391636 0)
(0.0373832 -0.000304521 0)
(0.00126468 -1.48334e-05 0)
(4.36479e-05 -6.33863e-07 0)
(1.57966e-06 -2.57374e-08 0)
(5.77713e-08 -1.01794e-09 0)
(2.11376e-09 -4.27867e-11 0)
(7.36645e-11 -4.18265e-12 0)
(4.85074e-13 -1.85687e-12 0)
(-1.47027e-12 -1.60706e-12 0)
(-1.57973e-12 -1.30254e-12 0)
(-1.50533e-12 -6.50974e-13 1.04151e-32)
(-9.33644e-13 -3.14753e-13 0)
(-3.44739e-13 -8.7998e-14 1.03813e-32)
(-3.69563e-13 -2.27808e-15 0)
(-4.94798e-13 -4.44677e-14 0)
(-3.22418e-13 -1.98409e-14 0)
(-1.54024e-13 -8.27446e-14 0)
(-4.22162e-14 -9.65945e-14 0)
(7.84997e-14 -5.33111e-14 0)
(-3.1451e-14 4.86558e-14 0)
(2.6498e-13 -4.42584e-14 0)
(5.52218e-13 -7.11038e-14 0)
(4.71794e-13 -1.76767e-13 0)
(3.928e-13 -1.37069e-13 0)
(3.95337e-13 -1.08586e-13 0)
(3.48836e-13 2.82086e-14 0)
(1.23e-13 -1.61128e-15 0)
(-1.91598e-13 3.26693e-15 0)
(-1.69681e-13 -5.12014e-14 0)
(5.03725e-15 -1.36443e-13 0)
(-8.49037e-14 -1.63928e-13 0)
(3.88711e-12 -2.45747e-13 0)
(9.26038e-11 -5.94794e-13 0)
(2.35591e-09 -1.0085e-11 0)
(5.9859e-08 -2.66531e-10 0)
(1.52257e-06 -7.20017e-09 0)
(3.91065e-05 -1.92501e-07 0)
(0.00104367 -5.00147e-06 0)
(0.0274432 -0.00011655 0)
(0.442897 -0.00183013 0)
(2.61354 -0.0119404 0)
(6.39554 -0.0363712 0)
(10.0696 -0.0775679 0)
(13.0185 -0.112488 0)
(15.1849 -0.108172 0)
(16.6696 -0.0681178 0)
(17.6142 0.00348617 0)
(18.154 0.011102 0)
(18.4438 0.0124995 0)
(18.5744 0.00939026 0)
(18.6214 0.00458714 0)
(18.6291 -0.00206394 0)
(18.6204 -0.00556747 0)
(18.608 -0.00715463 0)
(18.5983 -0.00759944 0)
(18.5925 -0.00571981 0)
(18.5903 -0.00465952 0)
(18.5896 -0.00617153 0)
(18.5889 -0.00266382 0)
(18.5892 -0.00145758 0)
(18.59 -0.00268527 0)
(18.5902 -0.000381124 0)
(18.5908 -0.00094882 0)
(18.5913 -0.000238959 0)
(18.5922 0.000386907 0)
(18.5931 0.000112901 0)
(18.5935 2.3077e-05 0)
(18.5937 -0.000719643 0)
(18.5935 -0.000968458 0)
(18.5937 -0.00173695 0)
(18.5946 -0.00210375 0)
(18.5953 -0.00268104 0)
(18.5943 -0.00308525 0)
(18.5925 -0.00354998 0)
(18.5905 -0.00628798 0)
(18.5891 -0.000578855 0)
(18.588 -0.00267495 0)
(18.5868 -0.00297648 0)
(18.5855 -0.000403629 0)
(18.5842 0.00036925 0)
(18.5829 0.00166638 0)
(18.5826 0.00253875 0)
(18.5855 0.00302412 0)
(18.5945 0.00369982 0)
(18.6099 0.00314703 0)
(18.628 0.0017117 0)
(18.6436 -0.00415745 0)
(18.653 -0.0113153 0)
(18.6522 -0.0229177 0)
(18.6384 -0.0302717 0)
(18.6095 -0.0468308 0)
(18.5486 -0.00335361 0)
(18.3897 0.0438543 0)
(18.0315 0.0949572 0)
(17.287 0.110614 0)
(15.8464 0.0961681 0)
(13.2751 0.0662729 0)
(9.18731 0.0390373 0)
(4.0383 0.0158434 0)
(0.682244 0.00253999 0)
(0.0381877 0.000150318 0)
(0.00129692 5.94635e-06 0)
(4.49133e-05 2.1364e-07 0)
(1.63057e-06 7.51263e-09 0)
(5.97925e-08 2.60705e-10 0)
(2.19198e-09 7.31775e-12 0)
(7.86144e-11 -9.79675e-13 0)
(8.89693e-13 -8.10997e-13 0)
(-8.74716e-13 -7.34432e-13 0)
(-9.76994e-13 -5.73229e-13 0)
(-7.343e-13 -3.1742e-13 0)
(-3.76301e-13 -9.7881e-14 0)
(-2.14851e-13 2.17375e-14 0)
(-3.34651e-13 -6.76051e-14 0)
(-3.56867e-13 -3.57963e-14 0)
(-3.73169e-13 3.51216e-15 0)
(-2.91132e-13 1.71577e-14 0)
(-1.18935e-13 2.34306e-14 0)
(-8.83877e-14 -5.06366e-14 0)
(-8.76766e-14 1.6642e-13 0)
(1.31295e-13 1.34597e-13 0)
(2.99641e-13 1.45695e-13 0)
(3.604e-13 -6.74217e-14 0)
(4.53819e-13 -5.91687e-14 0)
(5.45547e-13 -6.01418e-14 0)
(3.96193e-13 -1.04505e-13 0)
(1.01919e-13 -1.49109e-13 0)
(-5.94577e-14 -4.11795e-14 0)
(-1.96859e-13 -1.61345e-14 0)
(-1.43415e-13 -2.96195e-14 0)
(2.18941e-13 6.92036e-15 0)
(3.65913e-12 6.43815e-15 0)
(8.4849e-11 -2.99504e-12 0)
(2.16374e-09 -7.77334e-11 0)
(5.49174e-08 -1.9769e-09 0)
(1.39577e-06 -4.9949e-08 0)
(3.58228e-05 -1.24582e-06 0)
(0.000954775 -3.00926e-05 0)
(0.0251839 -0.000646133 0)
(0.414389 -0.00899655 0)
(2.51511 -0.0478727 0)
(6.27319 -0.10033 0)
(9.96268 -0.126589 0)
(12.9322 -0.122971 0)
(15.1113 -0.0989657 0)
(16.6048 -0.0487696 0)
(17.5596 0.019797 0)
(18.1146 0.0506341 0)
(18.4046 0.0420592 0)
(18.5388 0.0320772 0)
(18.5904 0.0237695 0)
(18.6021 0.016077 0)
(18.597 0.00983911 0)
(18.5882 0.00597984 0)
(18.5806 0.00320338 0)
(18.5757 0.00219285 0)
(18.5734 0.000623097 0)
(18.5721 2.57346e-05 0)
(18.5716 0.00199237 0)
(18.5716 -0.00352462 0)
(18.5713 -0.00200917 0)
(18.571 -0.00247681 0)
(18.5708 -0.00284692 0)
(18.5706 -0.00328144 0)
(18.5706 -0.0030326 0)
(18.5707 -0.00312175 0)
(18.5708 -0.00268068 0)
(18.5705 -0.00251888 0)
(18.57 -0.0023663 0)
(18.5701 -0.0017807 0)
(18.5709 -0.00153929 0)
(18.5716 -0.00113786 0)
(18.5706 -0.000909914 0)
(18.5689 -0.00051236 0)
(18.567 -0.000500053 0)
(18.566 0.000941166 0)
(18.5656 0.00127413 0)
(18.5648 0.00143675 0)
(18.5639 0.0021641 0)
(18.5632 0.00242087 0)
(18.5628 0.00220812 0)
(18.5633 0.00216948 0)
(18.5658 0.00148573 0)
(18.5726 -0.000539487 0)
(18.5844 -0.00526325 0)
(18.5986 -0.0133165 0)
(18.611 -0.0238929 0)
(18.619 -0.0304466 0)
(18.6159 -0.0465516 0)
(18.5994 -0.0540425 0)
(18.5663 -0.0656743 0)
(18.4938 -0.0545688 0)
(18.3322 -0.00369496 0)
(17.9739 0.060761 0)
(17.2281 0.107525 0)
(15.7774 0.140688 0)
(13.1771 0.158775 0)
(9.0481 0.138349 0)
(3.89932 0.0718136 0)
(0.63855 0.0135611 0)
(0.0349829 0.000893495 0)
(0.0011848 3.81777e-05 0)
(4.10845e-05 1.46907e-06 0)
(1.49192e-06 5.50698e-08 0)
(5.47187e-08 2.03977e-09 0)
(2.00695e-09 7.36065e-11 0)
(7.26579e-11 1.70656e-12 0)
(1.55979e-12 -6.40727e-13 0)
(-6.177e-13 -4.35725e-13 0)
(-6.09856e-13 -2.58266e-13 0)
(-3.65524e-13 -1.43722e-13 0)
(-2.31389e-13 -7.3549e-14 0)
(-3.79642e-13 -1.13915e-13 0)
(-4.75297e-13 -1.36662e-13 0)
(-3.52205e-13 -9.6945e-14 0)
(-2.34501e-13 -3.37765e-14 0)
(-2.01478e-13 -5.52423e-14 0)
(-1.48392e-13 -7.69761e-14 0)
(-8.11246e-14 -4.46964e-14 0)
(3.07576e-14 1.27348e-13 0)
(1.39665e-13 1.61562e-13 0)
(1.4142e-13 1.36416e-13 0)
(1.8789e-13 6.40819e-14 0)
(3.76907e-13 1.60053e-14 0)
(3.48691e-13 -7.04037e-14 0)
(2.35695e-13 -1.35732e-13 0)
(2.29619e-13 -1.38968e-13 0)
(6.2271e-14 -1.14461e-13 0)
(-6.85555e-14 -1.08841e-13 0)
(-3.51823e-14 -2.69579e-14 0)
(1.99747e-13 -5.61819e-14 0)
(3.41327e-12 -1.09145e-13 0)
(7.57462e-11 -5.80135e-13 0)
(1.9353e-09 -1.27962e-11 0)
(4.91416e-08 -3.23862e-10 0)
(1.25025e-06 -8.22525e-09 0)
(3.21339e-05 -2.08318e-07 0)
(0.000857745 -5.16257e-06 0)
(0.0227791 -0.000114619 0)
(0.384047 -0.00168366 0)
(2.40924 -0.00994763 0)
(6.13967 -0.0251169 0)
(9.84112 -0.0406257 0)
(12.8334 -0.0505114 0)
(15.0349 -0.0472443 0)
(16.5442 -0.0282868 0)
(17.5048 -0.00343916 0)
(18.0676 0.0109722 0)
(18.3668 0.00904454 0)
(18.5087 0.00638698 0)
(18.5664 0.00436486 0)
(18.583 0.00290497 0)
(18.5824 0.00136945 0)
(18.577 0.00101173 0)
(18.5708 0.000621788 0)
(18.5673 0.00208534 0)
(18.5653 0.0016204 0)
(18.5641 0.00132806 0)
(18.5635 0.00123433 0)
(18.5631 0.000954434 0)
(18.5625 0.000577464 0)
(18.5621 0.000237006 0)
(18.5616 -0.0005585 0)
(18.5611 -0.000620638 0)
(18.5605 -0.000677544 0)
(18.5601 -0.0015484 0)
(18.5597 -0.00145349 0)
(18.5587 -0.0013822 0)
(18.5579 -0.00128992 0)
(18.5578 -0.00096811 0)
(18.5586 -0.000827364 0)
(18.5594 -0.000614973 0)
(18.5586 -0.000445614 0)
(18.5572 -0.000303343 0)
(18.556 -0.000438149 0)
(18.5556 -0.000190313 0)
(18.5554 -0.00015296 0)
(18.5551 -0.000156524 0)
(18.5544 2.76135e-05 0)
(18.5538 0.000183728 0)
(18.5536 0.000131379 0)
(18.5542 7.78874e-05 0)
(18.5562 -0.000305893 0)
(18.5603 -0.00182324 0)
(18.5679 -0.00545591 0)
(18.5777 -0.010741 0)
(18.5864 -0.017342 0)
(18.5918 -0.0217838 0)
(18.5886 -0.0242965 0)
(18.5709 -0.0264387 0)
(18.5355 -0.0288338 0)
(18.457 -0.0141593 0)
(18.2869 0.0165915 0)
(17.9183 0.0457574 0)
(17.1557 0.0625565 0)
(15.6804 0.0676709 0)
(13.0451 0.0596275 0)
(8.87757 0.0383101 0)
(3.73984 0.0155394 0)
(0.590403 0.00255877 0)
(0.031498 0.000158073 0)
(0.00106004 6.51526e-06 0)
(3.67073e-05 2.43959e-07 0)
(1.33051e-06 8.99269e-09 0)
(4.87264e-08 3.29747e-10 0)
(1.78641e-09 1.13777e-11 0)
(6.44235e-11 -2.04114e-13 0)
(2.49641e-12 -6.5418e-13 0)
(-5.27262e-13 -3.0256e-13 0)
(-5.19042e-13 -1.16126e-13 0)
(-3.81595e-13 -1.12007e-13 0)
(-3.67945e-13 -9.83745e-14 0)
(-3.5991e-13 -1.84193e-13 0)
(-3.50768e-13 -8.62504e-14 0)
(-1.59427e-13 -2.33678e-14 0)
(-1.92475e-13 9.68852e-15 0)
(-2.83183e-13 2.99122e-14 0)
(-8.1506e-14 5.37099e-14 0)
(-1.90698e-14 8.32456e-14 0)
(7.06672e-14 7.78877e-14 0)
(8.34008e-14 8.1832e-14 0)
(1.00704e-13 2.61424e-15 0)
(1.31294e-13 4.67677e-14 0)
(2.89859e-13 -4.1371e-14 0)
(3.55656e-13 -5.69184e-14 0)
(2.67538e-13 -4.56994e-14 0)
(1.73438e-13 -1.00655e-13 0)
(4.85471e-14 -1.66133e-13 0)
(-1.50319e-13 -1.57247e-13 0)
(-2.61012e-13 -1.42426e-13 0)
(3.34031e-13 -3.56666e-13 0)
(3.32307e-12 -3.53372e-13 0)
(7.76739e-11 -1.01328e-13 0)
(1.9783e-09 2.73497e-12 0)
(5.01866e-08 6.65798e-11 0)
(1.2752e-06 1.47282e-09 0)
(3.27105e-05 2.88917e-08 0)
(0.00087069 4.3669e-07 0)
(0.0230687 2.85957e-06 0)
(0.388393 -4.57886e-05 0)
(2.4296 -0.000906298 0)
(6.17501 -0.00396661 0)
(9.8852 -0.00903907 0)
(12.8816 -0.0149696 0)
(15.0817 -0.0186765 0)
(16.5842 -0.0152784 0)
(17.5358 -0.00454279 0)
(18.0912 0.0011508 0)
(18.3841 -0.0043312 0)
(18.5201 -0.00904044 0)
(18.5725 -0.0111656 0)
(18.586 -0.010896 0)
(18.5833 -0.00950998 0)
(18.577 -0.00790651 0)
(18.5705 -0.00585396 0)
(18.5657 -0.00385927 0)
(18.5625 -0.00284575 0)
(18.561 -0.00183634 0)
(18.5599 -0.00198413 0)
(18.5593 -0.000146904 0)
(18.5589 -0.000794927 0)
(18.5586 -0.000438911 0)
(18.5583 -0.000834022 0)
(18.5579 -0.000710364 0)
(18.5574 -0.000824654 0)
(18.5568 -0.00154787 0)
(18.5562 -0.000836568 0)
(18.5552 -0.000964561 0)
(18.5543 -0.000964736 0)
(18.5541 -0.000515313 0)
(18.5551 -0.00041091 0)
(18.5559 -0.00025283 0)
(18.5552 -0.000126091 0)
(18.5539 -1.75491e-05 0)
(18.553 0.000100405 0)
(18.5526 -0.000128096 0)
(18.5523 -2.44101e-05 0)
(18.5518 0.000292642 0)
(18.5509 0.000531595 0)
(18.55 0.00100728 0)
(18.5498 0.00145633 0)
(18.5503 0.00157837 0)
(18.5519 0.00246978 0)
(18.5548 0.00241847 0)
(18.5604 0.00486028 0)
(18.5697 0.0060509 0)
(18.5801 0.00712135 0)
(18.5896 0.00698011 0)
(18.5917 0.00184977 0)
(18.5785 6.11804e-05 0)
(18.548 -0.00511542 0)
(18.4749 -0.000188953 0)
(18.3112 0.0168315 0)
(17.953 0.0306302 0)
(17.2026 0.0332348 0)
(15.7371 0.0264074 0)
(13.1035 0.0153051 0)
(8.92885 0.00653307 0)
(3.77281 0.00139717 0)
(0.597702 3.0707e-05 0)
(0.0319394 -7.22708e-06 0)
(0.00107756 -7.00641e-07 0)
(3.74215e-05 -3.95306e-08 0)
(1.3591e-06 -1.81213e-09 0)
(4.9837e-08 -7.59674e-11 0)
(1.82856e-09 -3.40013e-12 0)
(6.64322e-11 -5.01938e-13 0)
(2.76451e-12 -2.37675e-13 0)
(-2.46566e-13 -1.16478e-13 0)
(-3.86022e-13 -6.65003e-14 0)
(-3.31953e-13 -3.84061e-14 0)
(-3.3299e-13 5.63112e-14 0)
(-4.08422e-13 7.03969e-14 0)
(-2.58722e-13 5.84915e-14 0)
(-1.4903e-13 6.67299e-14 0)
(-1.66234e-13 1.61911e-14 0)
(-8.588e-14 6.24172e-14 0)
(6.74625e-14 1.21744e-13 0)
(5.54249e-14 1.50902e-13 0)
)
;

boundaryField
{
    sides1
    {
        type            zeroGradient;
    }
    sides2
    {
        type            slip;
    }
    empty
    {
        type            empty;
    }
}


// ************************************************************************* //
