/*--------------------------------*- C++ -*----------------------------------*\
| =========                 |                                                 |
| \\      /  F ield         | OpenFOAM: The Open Source CFD Toolbox           |
|  \\    /   O peration     | Version:  2012                                  |
|   \\  /    A nd           | Website:  www.openfoam.com                      |
|    \\/     M anipulation  |                                                 |
\*---------------------------------------------------------------------------*/
FoamFile
{
    version     2.0;
    format      ascii;
    class       volScalarField;
    location    "0.92";
    object      minKappa;
}
// * * * * * * * * * * * * * * * * * * * * * * * * * * * * * * * * * * * * * //

dimensions      [0 0 0 0 0 0 0];


internalField   nonuniform List<scalar> 
2268
(
1.98348e-07
4.53027e-07
7.28685e-07
9.97541e-07
1.25701e-06
1.50233e-06
1.75264e-06
1.96368e-06
2.16596e-06
2.27973e-06
2.31144e-06
2.22467e-06
2.0759e-06
1.77774e-06
1.4182e-06
9.2056e-07
4.03591e-07
5.37206e-07
1.09606e-06
1.51953e-06
1.69645e-06
1.13827e-06
8.51016e-07
1.98348e-07
4.53027e-07
7.28685e-07
9.97541e-07
1.25701e-06
1.50233e-06
1.75264e-06
1.96368e-06
2.16596e-06
2.27973e-06
2.31144e-06
2.22467e-06
2.0759e-06
1.77774e-06
1.4182e-06
9.2056e-07
4.03591e-07
5.37206e-07
1.09606e-06
1.51953e-06
1.69645e-06
1.13827e-06
8.51016e-07
3.08155e-07
5.17305e-07
7.66935e-07
1.02188e-06
1.27676e-06
1.52609e-06
1.78258e-06
1.99623e-06
2.19522e-06
2.30514e-06
2.34279e-06
2.2615e-06
2.12261e-06
1.82735e-06
1.4943e-06
1.03945e-06
6.72307e-07
7.91115e-07
1.25795e-06
1.66113e-06
1.85145e-06
1.33126e-06
1.05339e-06
4.3517e-07
5.95271e-07
8.15037e-07
1.05441e-06
1.30541e-06
1.55736e-06
1.81455e-06
2.03445e-06
2.23713e-06
2.35244e-06
2.40451e-06
2.32878e-06
2.20361e-06
1.92e-06
1.62789e-06
1.23307e-06
9.88139e-07
1.09942e-06
1.47603e-06
1.89893e-06
2.13321e-06
1.7196e-06
1.46283e-06
5.66734e-07
6.99335e-07
8.89913e-07
1.10964e-06
1.35258e-06
1.60955e-06
1.87137e-06
2.09128e-06
2.29784e-06
2.41999e-06
2.48609e-06
2.42107e-06
2.31267e-06
2.04765e-06
1.80394e-06
1.4734e-06
1.33559e-06
1.4704e-06
1.79835e-06
2.28833e-06
2.54101e-06
2.23287e-06
2.02679e-06
7.09709e-07
8.10015e-07
9.76103e-07
1.176e-06
1.41803e-06
1.67591e-06
1.93123e-06
2.15254e-06
2.3738e-06
2.51807e-06
2.59885e-06
2.54209e-06
2.45425e-06
2.22022e-06
2.0228e-06
1.76522e-06
1.71603e-06
1.87955e-06
2.18603e-06
2.74234e-06
2.92505e-06
2.75222e-06
2.78457e-06
8.46435e-07
9.25349e-07
1.05867e-06
1.23853e-06
1.47401e-06
1.74665e-06
2.01087e-06
2.22903e-06
2.46633e-06
2.6362e-06
2.72735e-06
2.69528e-06
2.63376e-06
2.42789e-06
2.27009e-06
2.08937e-06
2.13526e-06
2.33e-06
2.58523e-06
3.01674e-06
2.90022e-06
3.31347e-06
3.56359e-06
9.92379e-07
1.0666e-06
1.17639e-06
1.32414e-06
1.57159e-06
1.85078e-06
2.09468e-06
2.30765e-06
2.57826e-06
2.78664e-06
2.88941e-06
2.87415e-06
2.83565e-06
2.64911e-06
2.55626e-06
2.48185e-06
2.61431e-06
2.80407e-06
3.00707e-06
3.21374e-06
2.90022e-06
3.64172e-06
4.64014e-06
4.38267e-05
0.000224378
0.00052972
0.000661904
0.000345654
0.000199531
0.000125823
5.15215e-05
1.33657e-05
4.09442e-06
7.89256e-06
1.76919e-05
1.33339e-05
1.61105e-05
2.75704e-05
2.52457e-05
2.51986e-05
1.41011e-05
5.36613e-06
4.38267e-05
0.000174803
0.000414833
0.000650818
0.000345654
0.000199531
0.000125823
5.15215e-05
1.26825e-05
4.09442e-06
5.14692e-06
1.57168e-05
1.33339e-05
1.61105e-05
2.75704e-05
2.52457e-05
2.51986e-05
1.41011e-05
5.36613e-06
5.07163e-05
0.000215321
0.000363923
0.000327734
0.000198772
0.000156947
0.000267491
5.75704e-05
1.26825e-05
6.35846e-06
5.14692e-06
7.69275e-06
2.22252e-05
2.19494e-05
4.5161e-05
4.83896e-05
8.40211e-05
2.65445e-05
5.88719e-06
4.94431e-05
0.000189811
0.000258998
0.000122723
5.49227e-05
5.18452e-05
0.000106383
1.87284e-05
1.34108e-05
8.56399e-06
6.26451e-06
7.69275e-06
3.26093e-05
3.11679e-05
4.28894e-05
8.88865e-05
6.66998e-05
1.8486e-05
4.48974e-06
4.80953e-05
0.000153312
0.000165789
9.46035e-05
4.03363e-05
4.92818e-05
2.73986e-05
1.42781e-05
1.36816e-05
1.02022e-05
7.77148e-06
9.03585e-06
3.51266e-05
4.01541e-05
4.28894e-05
7.62887e-05
2.33096e-05
6.97892e-06
2.99761e-06
4.80953e-05
0.00014893
0.000112687
9.46035e-05
4.03363e-05
4.92818e-05
2.02766e-05
1.34851e-05
1.38353e-05
1.23304e-05
2.01294e-05
4.95658e-05
3.51266e-05
9.34446e-05
4.53302e-05
2.77164e-05
9.08713e-06
4.16433e-06
1.70477e-06
5.23798e-05
0.0001386
7.97428e-05
9.98724e-05
5.0025e-05
9.81849e-05
2.02766e-05
1.29301e-05
1.44276e-05
2.82309e-05
0.000110915
0.000123916
0.000101147
9.34446e-05
8.92262e-05
2.24681e-05
4.74032e-06
4.16433e-06
1.70477e-06
7.02077e-05
0.000130875
7.97428e-05
9.98724e-05
7.4765e-05
0.000132474
3.2343e-05
1.29301e-05
1.85516e-05
0.000112596
0.000200859
0.000222865
0.000219178
0.000143534
0.000129349
2.24681e-05
4.74032e-06
4.6274e-06
1.78338e-06
1.82501e-06
1.90145e-06
1.98392e-06
2.20337e-06
2.61547e-06
3.08159e-06
3.44212e-06
3.73154e-06
4.189e-06
4.56556e-06
4.74381e-06
4.77269e-06
4.77933e-06
4.58625e-06
4.63365e-06
4.83965e-06
6.45747e-06
8.69964e-06
1.16564e-05
1.11508e-05
3.80676e-06
9.41605e-06
9.09163e-06
3.20361e-06
3.18125e-06
3.11389e-06
3.35163e-06
4.06706e-06
4.5647e-06
4.5647e-06
5.49577e-06
7.28353e-06
8.17714e-06
8.85659e-06
9.40899e-06
9.9296e-06
1.11936e-05
1.61526e-05
2.82966e-05
7.88637e-05
0.000116706
0.000185338
0.000118424
7.74988e-05
1.70959e-05
1.1992e-05
4.28615e-06
3.98228e-06
3.72742e-06
4.14795e-06
6.9987e-06
1.00596e-05
1.04202e-05
2.3777e-05
2.69049e-05
2.77138e-05
3.35223e-05
4.0191e-05
4.61196e-05
7.12507e-05
0.000116111
0.000162744
0.000201269
0.000195022
0.000213685
0.000247647
6.99271e-05
2.17614e-05
3.73005e-05
6.29397e-06
5.8792e-06
7.00835e-06
1.9706e-05
8.43139e-05
0.000133643
0.000107846
7.83083e-05
0.000165478
0.000142418
0.000110644
0.000109338
0.000147032
0.000168232
0.000378143
0.000265661
0.000208481
0.000208956
0.000280909
8.13508e-05
2.6094e-05
2.17614e-05
3.85045e-05
9.85906e-06
1.13129e-05
2.91877e-05
0.000160863
0.000434254
0.000527637
0.000516588
0.000418337
0.000374923
0.000334831
0.000154672
0.000109338
0.000285428
0.00049944
0.000651606
0.00053775
0.000303858
0.000273145
0.000152813
5.4241e-05
4.09436e-05
2.76206e-05
5.46935e-05
2.06609e-05
2.72438e-05
7.75999e-05
0.000477246
0.000936595
0.00116609
0.00109915
0.000961058
0.000846145
0.000615032
0.000295911
0.000631619
0.00115752
0.00117663
0.000825436
0.000847102
0.000578154
0.000387421
0.000185604
7.04243e-05
5.45269e-05
5.60347e-05
6.63369e-05
7.55135e-05
6.53089e-05
0.000219117
0.000874587
0.00135355
0.00131348
0.00124603
0.00122217
0.00120201
0.0011859
0.000781789
0.00156044
0.00116208
0.000928292
0.000830656
0.000823035
0.000815969
0.00057068
0.000400395
0.000101403
6.47965e-05
6.35712e-05
9.23242e-05
0.000257919
0.000247874
0.000571853
0.00104498
0.00127892
0.000932662
0.00103694
0.00114877
0.00120758
0.00142186
0.00153311
0.000976026
0.000900992
0.000817983
0.000808329
0.000808329
0.000812211
0.000801274
0.000679132
0.000198581
7.03015e-05
6.35712e-05
7.7696e-05
0.000717729
0.000696512
0.00113291
0.00124653
0.000879858
0.000540528
0.000617907
0.000759891
0.000946781
0.00115559
0.00119052
0.000980719
0.000918291
0.000830604
0.00080179
0.00080179
0.000807878
0.000709667
0.000823299
0.000591719
0.00018415
7.47785e-05
0.000122959
0.00118497
0.00109621
0.00128293
0.0011946
0.000700945
0.000460607
0.000473577
0.000452244
0.000607534
0.000607742
0.00067113
0.000526655
0.000657429
0.00078789
0.000804116
0.000828134
0.000715156
0.000665226
0.000632095
0.000642174
0.000570017
0.000320513
0.000122959
0.00113626
0.00120622
0.00145009
0.00114301
0.000654962
0.000421103
0.000405627
0.000299096
0.000381506
0.000325757
0.000306764
0.000110687
0.000271269
0.000463414
0.00059727
0.000673598
0.000709038
0.00061788
0.000563156
0.000583069
0.000571893
0.000450676
0.000320319
0.00113626
0.0013029
0.00155703
0.00107315
0.000594747
0.00035583
0.000313974
0.000201715
0.000278479
0.000188812
0.000127259
0.000110687
0.000174842
0.000303725
0.00038967
0.000503496
0.000566216
0.000554294
0.000524578
0.000551757
0.000611192
0.000577924
0.000365258
0.00119255
0.00143217
0.00160024
0.00105962
0.000548744
0.000283651
0.000255321
0.000152237
0.000205594
0.000143095
0.00017997
0.000114679
0.000232144
0.000322754
0.000395563
0.000434289
0.000470322
0.000484527
0.000491852
0.000511245
0.000555383
0.000579904
0.00032978
0.00125551
0.00152789
0.00163249
0.00102743
0.000504082
0.000227643
0.000214037
0.000142933
0.000181535
0.000143095
0.000150766
0.000148551
0.000182369
0.000250964
0.000310911
0.000375114
0.000424071
0.000453506
0.000475694
0.000504098
0.000551897
0.000605434
0.000422287
0.00131553
0.00164381
0.00169654
0.00100318
0.000470469
0.000203916
0.000204105
0.000142933
0.000184883
0.000146109
0.00017761
0.000159053
0.000217594
0.000269839
0.000313493
0.000353823
0.00038509
0.000416246
0.000443783
0.000473874
0.000514968
0.000568771
0.000468184
0.00141602
0.0016902
0.00176265
0.00096756
0.00045049
0.000203916
0.000206108
0.000158239
0.000192606
0.000164188
0.000185737
0.00018322
0.000206489
0.000243327
0.00028322
0.000331139
0.000371981
0.000410267
0.000445463
0.00048033
0.000521258
0.000564951
0.000491102
0.00144431
0.00191447
0.00174547
0.000914267
0.000438327
0.000220446
0.000231228
0.000185272
0.000212435
0.000183234
0.000206704
0.000196576
0.000229047
0.000256897
0.000284403
0.000316673
0.000348602
0.000382716
0.000415929
0.000447862
0.000479786
0.000514695
0.000441197
0.00176497
0.00217353
0.00170882
0.000860963
0.000424904
0.000254153
0.000250468
0.00021455
0.000216754
0.000199287
0.000211576
0.000211665
0.000228237
0.000252829
0.000281026
0.000316664
0.000349811
0.00038356
0.000417218
0.000449794
0.000480542
0.000508648
0.000411667
0.00212895
0.00239506
0.00169062
0.000815531
0.000408898
0.000280497
0.000258133
0.000226469
0.000207948
0.00019154
0.000205936
0.000209337
0.000230838
0.000255372
0.000281492
0.000313194
0.000345074
0.000376888
0.000407418
0.000437146
0.000465889
0.000494954
0.000402115
0.00242505
0.00246639
0.00167925
0.000750349
0.00033645
0.000279973
0.000250718
0.000213477
0.000173483
0.000168942
0.000186768
0.00019837
0.000218323
0.000245102
0.000273565
0.000305683
0.000337729
0.000370252
0.000401121
0.00043094
0.000460312
0.000489673
0.000399222
0.00263984
0.0025171
0.00167091
0.000645489
0.000169159
0.000256607
0.000220001
0.000175969
0.000120791
0.000130678
0.000160112
0.000183544
0.000211811
0.00024386
0.000276578
0.000311042
0.00034385
0.000375378
0.000405487
0.000435701
0.000467275
0.000501244
0.00041523
0.00277331
0.00251055
0.00166967
0.000571824
0.000169159
0.000181178
0.000187926
0.000129235
5.44373e-05
8.79132e-05
0.000125599
0.000158642
0.0001977
0.000237431
0.000274714
0.000311848
0.000346996
0.000382806
0.000420012
0.000460743
0.000503998
0.000545721
0.000455537
0.00274185
0.00243218
0.0016433
0.000700895
0.000204077
0.000251742
0.000158197
6.66532e-05
4.25987e-05
4.25987e-05
0.000101022
0.000153741
0.000200558
0.000244699
0.000284443
0.000323702
0.000361844
0.000402462
0.000447925
0.0004992
0.000548715
0.000592962
0.000489567
0.00264756
0.00230977
0.00160607
0.000817185
0.000424894
0.00031132
0.000183831
9.79002e-05
4.4958e-05
7.10524e-05
0.000110372
0.000164972
0.000212314
0.000258514
0.0002999
0.000342044
0.000385616
0.000436568
0.000492492
0.000546771
0.000589537
0.000622029
0.000504348
0.00255332
0.00228532
0.00157639
0.000900618
0.000574564
0.000386949
0.000252927
0.000159036
0.000115989
0.000108273
0.000167364
0.000202661
0.000247081
0.000290249
0.000331775
0.000377299
0.000428582
0.000488332
0.000543942
0.000587293
0.000615491
0.000637166
0.000510386
0.00251461
0.00209731
0.00145712
0.000942178
0.000657698
0.00046905
0.000347522
0.000242826
0.000209766
0.00018648
0.000226438
0.000247712
0.000294764
0.000328121
0.000371852
0.000422221
0.000480862
0.000539516
0.000581248
0.000603352
0.000615628
0.000633045
0.000493316
0.00212994
0.00181508
0.00133555
0.000962525
0.00071905
0.000549631
0.000437178
0.000338944
0.000303883
0.000272982
0.000294779
0.00030674
0.000347388
0.000376851
0.000430884
0.000483542
0.000543364
0.000586218
0.000605167
0.000609524
0.000617894
0.000626381
0.000468965
0.0017072
0.00154991
0.00124368
0.000966932
0.000770256
0.000628441
0.00052936
0.000435336
0.000395957
0.000361624
0.00036998
0.000375156
0.000407682
0.00043721
0.000494198
0.000546581
0.00059047
0.000603111
0.000601886
0.000601886
0.000606339
0.000594319
0.000428772
0.00143797
0.00137651
0.00116619
0.00096705
0.000810272
0.000690339
0.000600786
0.000523482
0.000482051
0.000447716
0.000446953
0.000448198
0.000475694
0.000507781
0.000564802
0.00060502
0.000620897
0.000606219
0.000601681
0.000590579
0.000578362
0.000549418
0.000383249
0.00128938
0.00124657
0.00110537
0.000968173
0.000849185
0.000754497
0.000679245
0.000604388
0.000562858
0.000530324
0.000524335
0.000524474
0.000550315
0.000585532
0.000633333
0.000642787
0.000614213
0.000597863
0.000584389
0.000563477
0.000535125
0.000496784
0.000340605
0.00120577
0.00117049
0.00107122
0.000971131
0.000878057
0.000799759
0.000735508
0.000677692
0.000638694
0.000609039
0.000600911
0.000602544
0.000629973
0.000663147
0.00069043
0.00065016
0.000616718
0.00059024
0.000560677
0.000525952
0.000487066
0.000447144
0.000300057
0.00116133
0.00112565
0.00105778
0.000986486
0.000916907
0.000855849
0.000797242
0.000745081
0.000710046
0.000684144
0.000676813
0.000681544
0.000709673
0.000732633
0.000695815
0.000642934
0.000602998
0.000563579
0.000523416
0.000482307
0.000441154
0.00040083
0.000272518
0.0011379
0.0011051
0.00105454
0.000999306
0.000943851
0.00089408
0.000850469
0.000808137
0.000777755
0.00075625
0.000751851
0.000761116
0.000785417
0.000767345
0.000699608
0.000641294
0.000588539
0.000535541
0.000484315
0.000436477
0.000393762
0.000357104
0.00024121
0.00112649
0.00110213
0.00106737
0.00102794
0.00098688
0.000943714
0.000901993
0.000867355
0.000842037
0.00082586
0.000825883
0.000837968
0.000841234
0.000766712
0.000688989
0.000621475
0.000556027
0.000495496
0.000441818
0.000396191
0.000353774
0.00032211
0.000228294
0.00112905
0.00110935
0.00108128
0.00104941
0.0010166
0.000985392
0.000952395
0.000924509
0.000904856
0.000894581
0.000899661
0.000908672
0.000856626
0.000764565
0.000681356
0.000602258
0.000526577
0.000457991
0.000398297
0.000349107
0.000312848
0.000291054
0.000207801
0.00114185
0.00113235
0.00111094
0.00108576
0.00105664
0.00102867
0.0010024
0.000980613
0.000966856
0.0009619
0.000968167
0.000944394
0.000850735
0.000749238
0.000655472
0.00056531
0.000483976
0.000414551
0.000359196
0.000314379
0.000283704
0.000270062
0.000210557
0.00115591
0.00115088
0.00113597
0.00111698
0.001095
0.00107335
0.00105315
0.00103724
0.001029
0.00102877
0.00103238
0.000954671
0.000843717
0.000736048
0.000633595
0.0005368
0.000450201
0.000375666
0.000315888
0.000275782
0.000257819
0.000257819
0.000201925
0.00118281
0.00117972
0.00116897
0.00115473
0.00113822
0.00112157
0.00110635
0.00109551
0.00109075
0.0010908
0.00104887
0.000942263
0.000820674
0.000704622
0.000593746
0.000492674
0.00040551
0.00033631
0.000288275
0.000252473
0.000244111
0.000254969
0.000217045
0.00121309
0.0012113
0.00120418
0.0011944
0.00118275
0.00117099
0.00116088
0.00115472
0.00115229
0.00114707
0.00106015
0.000932785
0.000804164
0.000682018
0.00056695
0.000463084
0.000372683
0.000299449
0.000250232
0.000231082
0.000231082
0.000237718
0.000215978
0.00125703
0.00125549
0.0012502
0.00124291
0.00123479
0.00122663
0.00121994
0.00121513
0.00121027
0.00115606
0.00103792
0.000899581
0.000766244
0.000639641
0.00052209
0.000417718
0.000331814
0.000271666
0.000236
0.000222371
0.000237646
0.000255586
0.000237392
0.00129798
0.00129687
0.00129342
0.00128904
0.00128484
0.00128045
0.00127752
0.00127424
0.00126105
0.00117142
0.00103426
0.000889378
0.000750468
0.000618052
0.000496611
0.000390327
0.000303423
0.000242587
0.000214947
0.000214947
0.000219856
0.000245718
0.000238114
0.00135662
0.00135606
0.00135412
0.00135178
0.00134983
0.00134746
0.00134479
0.00133674
0.00127196
0.00114287
0.000989649
0.000839273
0.000697727
0.00056712
0.000450846
0.000352864
0.00027807
0.0002333
0.000221066
0.000217953
0.000238909
0.00027306
0.000263232
4.00386e-06
4.00386e-06
1.93658e-05
3.32436e-05
8.94843e-06
8.94843e-06
2.33241e-05
3.01956e-05
5.34305e-05
3.41886e-05
3.41886e-05
3.70094e-05
4.52372e-05
4.04211e-05
4.04211e-05
4.47724e-05
4.41459e-05
4.41459e-05
4.77975e-05
5.24419e-05
4.59073e-05
4.59073e-05
4.85961e-05
7.46419e-05
0.000149388
0.000160514
0.000180097
0.000281239
0.000305063
0.000346391
0.00036261
0.00036261
0.000143117
0.000221013
0.00030629
0.000329309
0.000158746
0.000158746
0.000225542
0.000275629
0.000210775
0.000210775
0.000219524
0.000225856
0.000200946
0.000152987
0.000103048
0.000102282
0.00018471
0.000163869
0.000143434
0.000143434
0.000237534
0.000205709
0.000182395
0.000182395
0.000295098
0.00029236
0.00029236
0.000306074
0.000323266
0.000323266
0.00033198
0.000347032
0.000294582
0.000294582
0.000308403
0.000323774
0.000268014
0.000268014
0.00027176
0.000275438
0.000262421
0.000262421
0.000265701
0.000268061
0.000260848
0.000260848
0.000264756
0.000267741
0.000272827
0.000272827
0.000278882
0.000284561
0.000299732
0.000299732
0.000307192
0.000314485
0.000322473
0.000322473
0.000330716
0.000338569
0.000331412
0.000331412
0.000338512
0.000344923
0.000332947
0.000332947
0.000337301
0.000340608
0.000318497
0.000318497
0.000318245
0.000318245
0.000298265
0.000293929
0.000288225
0.000288225
0.000268196
0.000260164
0.000251558
0.000251558
0.00023673
0.000227404
0.000218153
0.000218153
0.000209519
0.000200741
0.000192309
0.000192309
0.000184098
0.000176316
0.000169226
0.000169226
0.000168015
0.00016212
0.000157257
0.000157257
0.000149753
0.000146129
0.000143829
0.000143829
0.000143977
0.000142934
0.000142934
0.000143205
0.000133655
0.000133655
0.000135452
0.000138489
0.000137839
0.000137839
0.000141746
0.000146576
0.000134776
0.000134776
0.000140798
0.000147494
0.000145753
0.000145753
0.000152726
0.000160139
0.000146505
0.000146505
0.000154707
0.000163128
0.000160787
0.000160787
0.000169329
0.000177961
0.000161961
0.000161961
0.000171084
0.000180206
0.000178453
0.000178453
0.000187835
0.000197156
9.94197e-05
0.000130875
0.00013036
0.000174806
0.000159852
6.77947e-05
4.02603e-05
1.95131e-05
5.60601e-05
0.000282309
0.000414994
0.000408377
0.000265581
0.000230884
0.000197678
6.66176e-05
1.11997e-05
9.49894e-06
1.07015e-05
7.34722e-05
0.000114551
0.000148957
6.39843e-05
7.45868e-05
5.32912e-05
3.26236e-05
3.113e-05
0.000137866
0.000568527
0.000512393
0.000312007
0.000192179
0.000161214
0.000120591
9.58758e-05
4.36502e-05
4.77743e-05
7.63925e-05
7.54818e-05
0.000181391
0.000114075
5.98504e-05
5.35806e-05
3.57762e-05
2.80089e-05
6.77407e-05
0.000327967
0.000405948
0.000383439
0.000385887
0.000213551
0.000168744
0.000134506
0.000103958
0.000135635
0.000175491
0.000119169
9.38753e-05
0.000296033
8.39774e-05
5.64588e-05
3.99941e-05
2.78928e-05
1.79332e-05
3.82617e-05
9.69738e-05
0.000161815
0.000289764
0.00042013
0.000400196
0.000358803
0.000283631
0.00023781
0.000320322
0.000258412
0.000119169
0.000138593
0.000311052
0.00017363
9.86456e-05
9.63872e-05
4.69452e-05
1.79332e-05
1.88e-05
2.53987e-05
0.000113673
0.00034934
0.000468406
0.000485429
0.000404296
0.000362765
0.000278092
0.000425421
0.000388371
0.000307353
0.000336337
0.000445863
0.000330467
0.000602058
0.000571982
0.000296407
9.97551e-05
4.08765e-05
8.92509e-05
0.000238432
0.000313493
0.000406753
0.000429053
0.000345555
0.000284537
0.000280818
0.000265179
0.000417515
0.000531202
0.000587059
0.000583907
0.000687921
0.000559115
0.000805447
0.000667294
0.000311904
0.000254996
0.00023063
0.000203225
0.000203225
0.000217252
0.000315995
0.000370039
0.000387626
0.000363381
0.000175636
0.000292582
0.000591494
0.000588709
0.000438107
0.000437496
0.000271168
0.000622083
0.000905034
0.00051339
0.000243896
0.000170136
0.000244071
0.000293915
0.000322802
0.000337821
0.000244477
0.000325801
0.000305537
0.000134995
0.000303846
0.000503608
0.000501231
0.000305187
0.000333692
0.000271168
0.000536346
0.000765298
0.00055455
0.000222992
0.000157475
0.000157475
0.000316963
0.000448453
0.00027399
0.000244477
0.000300018
0.000322089
0.000130294
0.000186405
0.000440868
0.000366106
0.000305187
0.000308603
0.000311781
0.000518824
0.000477922
0.000667302
0.000481141
0.0003755
0.000410686
0.000549492
0.000662342
0.000550942
0.000385257
0.000553128
0.000260918
0.000130294
0.000287978
0.000436694
0.000267404
0.000333007
0.000340581
0.000293978
0.000270527
0.000312632
0.000612152
0.000837732
0.00082641
0.00076603
0.000756352
0.000760013
0.000706978
0.000510151
0.000372472
0.000259337
0.00026244
0.000315592
0.000443451
0.000102282
0.000169711
0.000253932
0.000146676
0.000114008
0.000262073
0.00061885
0.000827554
0.000713063
0.000636543
0.000596613
0.000589175
0.000545992
0.000394119
0.000301561
0.000259337
0.000321431
0.000342898
0.000438312
0.000148806
0.000203116
0.000156289
9.49685e-05
9.49685e-05
0.000490486
0.000820464
0.000637891
0.000547818
0.000576415
0.000556005
0.000532336
0.000481158
0.000397609
0.000301561
0.000323164
0.000347562
0.000355383
0.000406448
0.000279235
0.000203116
0.000234963
0.000122712
0.000364788
0.000843732
0.00075616
0.000395223
0.000520624
0.000576415
0.000556005
0.000532336
0.000481158
0.000402282
0.000344402
0.000363481
0.000358171
0.000329363
0.000364626
0.00046234
0.000374121
0.000372098
0.000390442
0.000707407
0.000742116
0.000503254
0.000333335
0.000436284
0.00062038
0.000599428
0.000558281
0.000498477
0.000433013
0.000385314
0.000382023
0.000336547
0.000284608
0.000315263
0.000620801
0.000653371
0.000618078
0.000692703
0.000641711
0.000530282
0.000212574
0.000333335
0.000573404
0.000687562
0.000653181
0.000602405
0.000535113
0.00047204
0.000409938
0.000367802
0.000295317
0.000233088
0.000264094
0.000578039
0.000753136
0.000735415
0.00066303
0.000456152
0.000271422
0.00018034
0.000346017
0.000638134
0.000720836
0.00068441
0.000633034
0.000561968
0.000489735
0.000407162
0.000332992
0.000246493
0.000185377
0.000212724
0.000468771
0.000609301
0.000583479
0.000515788
0.000310997
0.000246462
0.00018034
0.00044331
0.000632328
0.000704431
0.000689566
0.000644886
0.000572708
0.000481977
0.000378827
0.000288939
0.000200895
0.000140865
0.000160294
0.000451519
0.000575902
0.000541517
0.000452719
0.000362513
0.000246462
0.000300909
0.000477867
0.000632328
0.000704431
0.000692661
0.000653193
0.000572708
0.000458868
0.000345188
0.000244834
0.000163851
0.000105316
0.000111518
0.000451768
0.000575902
0.000541517
0.000497542
0.000426629
0.000390344
0.000409008
0.000567347
0.000658795
0.00073718
0.000737161
0.000688989
0.000590192
0.00045952
0.000320223
0.00021376
0.000135031
8.70587e-05
6.57296e-05
0.000485529
0.000614014
0.000606247
0.000591697
0.000556717
0.000555487
0.000554895
0.000665615
0.000741538
0.000816163
0.000821907
0.000760645
0.00063526
0.00047224
0.000306137
0.000188894
0.000118354
6.86327e-05
3.59402e-05
0.00053864
0.000690954
0.00069725
0.000687872
0.000661071
0.000675225
0.000682414
0.00076941
0.000838389
0.000908218
0.000920218
0.000860076
0.000705503
0.000514124
0.000307194
0.00016885
0.000107511
6.55524e-05
3.59402e-05
0.000579372
0.000754141
0.00075134
0.000739754
0.00072418
0.000749021
0.000770153
0.000853884
0.000926995
0.00099912
0.0010227
0.000976465
0.000799958
0.000560085
0.00031571
0.000154313
9.97475e-05
9.43361e-05
4.61916e-05
0.000586684
0.000748582
0.000731701
0.000745317
0.00075309
0.000789793
0.000826184
0.000914166
0.000998213
0.00107754
0.00111592
0.001087
0.000908776
0.000642181
0.000348002
0.000157435
9.97475e-05
0.00011957
7.9027e-05
0.000573753
0.000689841
0.000678679
0.000704032
0.000725105
0.000785985
0.000855156
0.000951804
0.00104999
0.00114194
0.00119659
0.00118502
0.00102736
0.000726302
0.000382974
0.000168311
0.000104056
0.000146212
0.000113113
0.000529556
0.00060397
0.000603061
0.000638249
0.000675168
0.0007486
0.000833868
0.000957004
0.00108202
0.0011902
0.00125963
0.00126513
0.00114091
0.000838312
0.000445258
0.000191436
0.000113259
0.000171141
0.000151041
0.000471954
0.000515564
0.000526701
0.000574023
0.000630501
0.000714728
0.000808416
0.000935061
0.00107567
0.00122072
0.00130753
0.00133031
0.00124263
0.000946752
0.000510943
0.000215797
0.000122251
0.000193757
0.000193002
0.000407564
0.000440014
0.000459129
0.000518009
0.000593729
0.000690555
0.000790699
0.000916624
0.00105484
0.00121766
0.00134137
0.00138128
0.00132421
0.00106788
0.000603979
0.000254533
0.000132061
0.000219482
0.000237757
0.000351463
0.000383656
0.000405761
0.000471405
0.000560463
0.000671084
0.000778342
0.00090433
0.00103961
0.00119811
0.00135953
0.0014202
0.00138746
0.00117795
0.000698794
0.000297181
0.000144082
0.000249569
0.000287233
0.00030991
0.000344933
0.00036996
0.000436903
0.000531
0.000654116
0.000768606
0.000895544
0.00103009
0.00117869
0.00135455
0.00144992
0.00143433
0.00127924
0.000803308
0.000347595
0.000156225
0.000281391
0.000343086
0.000273986
0.000327871
0.000356085
0.000419988
0.000511045
0.000641439
0.000761834
0.000889701
0.00102597
0.00116476
0.00134221
0.00147167
0.00146808
0.00135381
0.00089992
0.000396981
0.000165903
0.000314457
0.000406514
0.000257895
0.000324764
0.000356085
0.000418443
0.000501702
0.000633365
0.000758081
0.000885964
0.00102498
0.00115725
0.00132841
0.0014871
0.00149386
0.0014076
0.000990117
0.000444592
0.000172032
0.000347935
0.000478259
0.000240072
0.000324764
0.000358417
0.000418443
0.000501702
0.00062387
0.000758081
0.00088585
0.00102498
0.00115672
0.00131828
0.00149681
0.00151398
0.00144915
0.00107691
0.000499057
0.000179072
0.000385792
0.000558262
0.000242976
0.000331799
0.000370002
0.000427864
0.000503342
0.000632745
0.000759018
0.00088585
0.00102655
0.00115672
0.00131296
0.00150329
0.00153136
0.00148164
0.0011515
0.000548991
0.000188656
0.00042732
0.00064775
0.000239165
0.000345725
0.000386579
0.000442986
0.000512497
0.000636504
0.000763554
0.000889313
0.00102958
0.00116082
0.00131296
0.00150803
0.00154692
0.0015072
0.00121706
0.000604334
0.000206384
0.000476669
0.000746541
0.000255152
0.000363822
0.000406548
0.000461118
0.000526421
0.000644793
0.000772031
0.000897422
0.00103519
0.00116867
0.00131414
0.00151312
0.00156236
0.00152866
0.00127157
0.000640375
0.00022418
0.000525215
0.000855158
0.000259214
0.000384181
0.000428103
0.000481364
0.000543602
0.000656087
0.000782679
0.000908734
0.00104296
0.00117857
0.00131976
0.00151929
0.00157806
0.00154797
0.00131702
0.000681127
0.000248673
0.000584536
0.000972141
0.000281267
0.000405456
0.000450453
0.00050286
0.000563026
0.000670453
0.000795889
0.00092292
0.00105405
0.00119069
0.00132932
0.00152787
0.0015948
0.00156664
0.00136212
0.000705363
0.00026735
0.000634699
0.00109808
0.000287722
0.000426175
0.000471863
0.000524056
0.000583321
0.000686895
0.000810276
0.000938423
0.00106697
0.00120379
0.00134111
0.00153787
0.0016118
0.00158481
0.00140332
0.000752018
0.000286295
0.000695299
0.00122817
0.000312741
0.000447961
0.000494276
0.000546163
0.000604626
0.000705641
0.000826904
0.000955431
0.00108213
0.00121849
0.00135517
0.00154994
0.00162931
0.00160275
0.00143814
0.000761334
0.000298124
0.000745376
0.00136785
0.000317219
0.000467515
0.000514296
0.000566065
0.000623976
0.000724025
0.000843245
0.000971684
0.00109719
0.00123272
0.00136921
0.00156198
0.00164536
0.0016189
0.00147626
0.000813901
0.000288922
0.000812627
0.00148075
0.000345847
0.000489703
0.000537115
0.000589247
0.000646473
0.000745608
0.000862753
0.000990493
0.00111493
0.00124919
0.00138586
0.00157632
0.00166376
0.0016364
0.00151349
0.000779938
0.000288922
0.000828419
0.00164045
)
;

boundaryField
{
    leftWall
    {
        type            calculated;
        value           uniform 0;
    }
    rightWall
    {
        type            calculated;
        value           uniform 0;
    }
    lowerWall
    {
        type            calculated;
        value           uniform 0;
    }
    atmosphere
    {
        type            calculated;
        value           uniform 0;
    }
    defaultFaces
    {
        type            empty;
    }
}


// ************************************************************************* //
