/*--------------------------------*- C++ -*----------------------------------*\
| =========                 |                                                 |
| \\      /  F ield         | OpenFOAM: The Open Source CFD Toolbox           |
|  \\    /   O peration     | Version:  2012                                  |
|   \\  /    A nd           | Website:  www.openfoam.com                      |
|    \\/     M anipulation  |                                                 |
\*---------------------------------------------------------------------------*/
FoamFile
{
    version     2.0;
    format      ascii;
    class       volScalarField;
    location    "0.92";
    object      p_rgh;
}
// * * * * * * * * * * * * * * * * * * * * * * * * * * * * * * * * * * * * * //

dimensions      [1 -1 -2 0 0 0 0];


internalField   nonuniform List<scalar> 
2268
(
102395
102388
102373
102354
102330
102307
102280
102258
102232
102212
102186
102166
102141
102119
102093
102072
102049
102030
102015
102006
102007
102009
102017
102397
102389
102374
102355
102330
102307
102280
102258
102232
102212
102187
102166
102141
102119
102093
102071
102048
102029
102014
102005
102005
102007
102016
102400
102392
102376
102356
102331
102307
102279
102257
102231
102212
102187
102167
102141
102118
102092
102069
102045
102025
102010
102000
102004
102007
102017
102404
102396
102379
102358
102332
102307
102279
102257
102231
102212
102187
102167
102141
102118
102091
102067
102042
102021
102005
101996
102000
102004
102015
102411
102402
102383
102361
102332
102306
102277
102255
102229
102211
102187
102167
102141
102117
102089
102063
102035
102012
101995
101986
101995
102000
102016
102419
102409
102389
102364
102334
102307
102277
102254
102229
102211
102187
102168
102141
102117
102087
102060
102031
102005
101986
101976
101985
101996
102014
102429
102419
102395
102369
102334
102305
102273
102251
102225
102211
102187
102169
102142
102116
102084
102054
102018
101988
101965
101958
101972
101984
102007
102443
102430
102404
102373
102337
102307
102271
102249
102226
102211
102189
102170
102143
102116
102082
102050
102013
101977
101949
101933
101953
101983
102014
101904
101781
101703
101690
101738
101818
101910
102203
102282
102163
102037
101982
101965
101805
101766
101790
101799
101911
102011
101949
101752
101695
101687
101700
101733
101813
102137
102223
102139
102022
101989
101950
101776
101729
101759
101764
101883
101983
101881
101700
101694
101678
101683
101757
101814
102097
102174
102091
101982
101924
101858
101765
101737
101719
101707
101842
101979
101958
101719
101693
101680
101747
101805
101785
102085
102118
102052
101940
101895
101806
101754
101786
101710
101708
101880
101975
101981
101775
101695
101684
101827
101856
101897
102099
102079
101998
101883
101763
101708
101695
101800
101769
101805
101940
101983
101999
101745
101693
101722
101705
101794
101994
102083
102050
101964
101710
101606
101598
101559
101738
101879
101967
101962
101978
102022
101752
101822
101736
101646
101671
102020
102092
102034
101818
101568
101564
101520
101505
101611
101968
102017
101982
101973
101997
101811
101910
101676
101645
101665
101951
102109
102006
101687
101555
101566
101570
101505
101522
101910
101991
101976
101936
102465
102451
102416
102381
102332
102298
102263
102240
102214
102211
102187
102174
102144
102116
102076
102029
101936
101806
101686
101678
101752
101873
101965
102518
102496
102450
102396
102342
102304
102251
102205
102191
102189
102177
102155
102124
102072
101946
101738
101508
101399
101372
101375
101469
101643
102012
102578
102550
102478
102411
102242
101942
101764
101733
101796
101979
102015
102006
101925
101660
101419
101366
101367
101367
101369
101387
101581
101741
101776
102680
102642
102527
102133
101698
101648
101611
101540
101489
101531
101705
101760
101497
101365
101366
101366
101365
101366
101400
101749
102054
101986
101812
102797
102735
102506
101932
101606
101513
101459
101413
101370
101380
101365
101383
101361
101368
101365
101365
101366
101366
101573
102207
102176
102053
102091
102902
102820
102346
101637
101439
101471
101528
101589
101486
101359
101343
101351
101356
101360
101370
101382
101367
101359
101639
102331
102360
102312
102324
102724
102640
101834
101362
101347
101427
101569
101562
101555
101393
101341
101343
101350
101391
101535
101619
101479
101361
101429
102107
102529
102522
102425
102304
102229
101409
101331
101333
101333
101337
101411
101450
101373
101342
101341
101348
101515
101684
101686
101677
101376
101367
101881
102625
102728
102551
101550
101475
101343
101330
101330
101327
101328
101327
101329
101325
101345
101374
101394
101532
101716
101687
101476
101371
101364
101506
102028
102404
102556
101342
101329
101330
101329
101329
101327
101328
101327
101327
101328
101330
101331
101330
101332
101326
101327
101326
101327
101358
101426
101417
101448
101736
101493
101326
101329
101328
101328
101327
101328
101327
101328
101327
101328
101326
101326
101326
101326
101326
101326
101327
101326
101326
101326
101326
101332
101670
101327
101328
101327
101328
101327
101327
101327
101327
101327
101327
101326
101326
101326
101326
101326
101326
101327
101326
101326
101326
101326
101327
101692
101326
101328
101326
101328
101326
101327
101327
101327
101327
101327
101326
101326
101326
101326
101326
101326
101326
101326
101326
101326
101326
101327
101714
101326
101328
101326
101327
101326
101327
101326
101327
101326
101327
101326
101326
101326
101326
101326
101326
101326
101326
101326
101326
101326
101327
101457
101326
101328
101326
101327
101326
101327
101326
101327
101326
101327
101326
101326
101326
101326
101326
101326
101326
101326
101326
101327
101327
101327
101326
101325
101327
101326
101327
101326
101327
101326
101326
101326
101326
101326
101326
101326
101326
101326
101326
101326
101326
101326
101326
101326
101327
101325
101325
101326
101325
101326
101326
101326
101326
101326
101326
101326
101326
101326
101326
101326
101326
101326
101326
101326
101326
101327
101327
101327
101325
101325
101325
101325
101326
101325
101326
101325
101326
101326
101326
101326
101326
101326
101326
101326
101326
101326
101326
101326
101326
101326
101327
101325
101324
101324
101324
101325
101325
101325
101325
101326
101326
101326
101326
101326
101326
101326
101326
101326
101326
101326
101326
101327
101327
101327
101324
101324
101323
101323
101324
101324
101325
101325
101326
101326
101326
101326
101326
101326
101326
101326
101326
101326
101326
101326
101326
101326
101327
101324
101323
101323
101322
101323
101324
101325
101325
101325
101326
101326
101326
101326
101326
101326
101326
101326
101326
101326
101326
101326
101326
101327
101324
101323
101323
101322
101323
101324
101325
101325
101325
101326
101326
101326
101326
101326
101326
101326
101326
101326
101326
101326
101326
101326
101326
101324
101323
101323
101322
101323
101324
101325
101325
101326
101326
101326
101326
101326
101326
101326
101326
101326
101326
101326
101326
101326
101326
101326
101324
101324
101323
101323
101324
101324
101325
101325
101326
101326
101326
101326
101326
101326
101326
101326
101326
101326
101326
101326
101326
101326
101326
101325
101325
101325
101324
101324
101325
101325
101326
101326
101326
101326
101326
101326
101326
101326
101326
101326
101326
101326
101326
101326
101326
101326
101326
101326
101326
101325
101325
101326
101326
101326
101326
101326
101326
101326
101326
101326
101326
101326
101326
101326
101326
101326
101326
101326
101326
101327
101327
101326
101326
101326
101326
101326
101326
101326
101326
101326
101326
101326
101326
101326
101326
101326
101326
101326
101326
101326
101326
101326
101327
101327
101326
101326
101326
101326
101326
101326
101326
101326
101326
101326
101326
101326
101326
101326
101326
101326
101326
101326
101326
101326
101326
101327
101327
101327
101327
101327
101326
101326
101326
101326
101326
101326
101326
101326
101326
101326
101326
101326
101326
101326
101326
101326
101326
101326
101327
101327
101327
101327
101327
101327
101326
101326
101326
101326
101326
101326
101326
101326
101326
101326
101326
101326
101326
101326
101326
101326
101326
101327
101327
101327
101327
101327
101327
101326
101326
101326
101326
101326
101326
101326
101326
101326
101326
101326
101326
101326
101326
101326
101326
101326
101327
101327
101327
101327
101327
101326
101326
101326
101326
101326
101326
101326
101326
101326
101326
101326
101326
101326
101326
101326
101326
101326
101326
101327
101326
101326
101326
101326
101326
101326
101326
101326
101326
101326
101326
101326
101326
101326
101326
101326
101326
101326
101326
101326
101326
101326
101326
101326
101326
101326
101326
101326
101326
101326
101326
101326
101326
101326
101326
101326
101326
101326
101326
101326
101326
101326
101326
101326
101326
101326
101326
101326
101326
101326
101326
101326
101326
101326
101326
101326
101326
101326
101326
101326
101326
101326
101326
101326
101325
101325
101325
101325
101326
101326
101326
101326
101326
101326
101326
101326
101326
101326
101326
101326
101326
101326
101326
101326
101325
101325
101325
101325
101325
101325
101325
101326
101326
101326
101326
101326
101326
101326
101326
101326
101326
101326
101326
101326
101326
101325
101325
101325
101325
101325
101325
101325
101325
101325
101326
101326
101326
101326
101326
101326
101326
101326
101326
101326
101326
101326
101325
101325
101325
101325
101325
101325
101325
101325
101325
101325
101325
101326
101326
101326
101326
101326
101326
101326
101326
101326
101325
101325
101325
101325
101325
101325
101325
101325
101325
101325
101325
101325
101325
101325
101326
101326
101326
101326
101326
101326
101326
101325
101325
101325
101325
101325
101325
101325
101325
101325
101325
101325
101325
101325
101325
101325
101325
101325
101325
101325
101325
101325
101325
101325
101325
101325
101325
101325
101325
101325
101325
101325
101325
101325
101325
101325
101325
101325
101325
101325
101325
101325
101325
101325
101325
101325
101325
101325
101325
101325
101325
101325
101325
101325
101325
101325
101325
101325
101325
101325
101325
101325
101325
101944
101868
101857
101790
102029
101881
101909
102018
101819
101887
102096
102126
101886
102102
102167
102204
102162
102188
102239
102233
102373
102383
102401
102114
102074
102022
101963
101747
101575
101532
101507
101522
102027
101587
101472
101457
102043
101846
101578
101495
101477
101569
101524
101501
101355
101424
101456
101452
101327
101329
101332
101338
101326
101327
101327
101328
101327
101327
101327
101328
101327
101327
101327
101327
101327
101327
101327
101327
101327
101327
101327
101327
101327
101327
101327
101327
101327
101327
101327
101327
101327
101327
101327
101327
101326
101326
101327
101327
101326
101326
101326
101326
101326
101326
101326
101326
101326
101326
101326
101326
101326
101326
101326
101326
101326
101326
101326
101326
101326
101326
101326
101326
101326
101326
101326
101326
101326
101326
101326
101326
101326
101326
101326
101326
101326
101326
101326
101326
101326
101326
101326
101326
101326
101326
101326
101326
101325
101325
101325
101325
101325
101325
101325
101325
101325
101325
101325
101325
101325
101325
101325
101325
101325
101325
101325
101325
101325
101325
101325
101325
101325
101325
101325
101325
101325
101325
101325
101325
102025
102034
101768
101654
101648
101653
101945
102119
101916
101571
101551
101633
101738
101701
101688
101932
102006
101963
101866
102119
102091
101731
101759
101654
101731
102135
102118
101629
101537
101541
101674
101904
101931
101942
101930
101812
101619
101509
102210
101877
101799
102233
102266
102239
102227
101809
101488
101492
101684
101646
101625
101566
101538
101520
101401
101332
101333
102154
101802
102126
102283
102284
102312
102295
101870
101476
101471
101519
101525
101443
101414
101354
101332
101332
101332
101332
102003
101742
101936
101724
101648
101949
102148
102149
102036
101834
101423
101334
101333
101333
101332
101332
101332
101332
101332
101773
101503
101411
101328
101332
101376
101524
101730
101570
101525
101497
101357
101331
101331
101332
101332
101331
101331
101331
101500
101312
101318
101324
101358
101358
101329
101329
101329
101329
101329
101354
101359
101356
101337
101331
101330
101331
101331
101512
101382
101317
101314
101379
101390
101338
101328
101329
101330
101329
101369
101397
101396
101344
101330
101330
101330
101330
101453
101527
101467
101340
101385
101368
101331
101328
101328
101329
101329
101328
101334
101334
101331
101330
101330
101330
101330
101346
101546
101547
101430
101391
101329
101328
101328
101329
101328
101329
101328
101328
101328
101328
101329
101329
101330
101330
101354
101355
101373
101343
101352
101329
101329
101328
101328
101328
101328
101328
101328
101329
101329
101329
101329
101329
101329
101415
101353
101329
101330
101330
101332
101328
101328
101328
101328
101328
101328
101329
101329
101329
101329
101329
101329
101329
101351
101361
101352
101351
101328
101331
101328
101328
101328
101328
101328
101328
101328
101329
101329
101329
101329
101329
101329
101333
101346
101348
101337
101327
101328
101327
101327
101328
101328
101328
101328
101328
101328
101329
101329
101329
101329
101329
101327
101328
101327
101327
101327
101327
101327
101327
101327
101328
101328
101328
101328
101328
101328
101329
101329
101329
101329
101327
101327
101327
101327
101327
101327
101327
101327
101328
101328
101328
101328
101328
101328
101328
101328
101329
101329
101329
101327
101327
101327
101327
101328
101328
101328
101327
101328
101328
101328
101328
101328
101328
101328
101328
101328
101328
101328
101327
101327
101327
101327
101328
101328
101328
101328
101328
101328
101328
101328
101328
101328
101328
101328
101328
101328
101328
101327
101327
101327
101327
101328
101328
101328
101328
101328
101328
101328
101328
101328
101328
101328
101328
101328
101328
101328
101327
101327
101327
101327
101327
101328
101328
101328
101328
101328
101328
101328
101328
101328
101328
101328
101328
101328
101328
101327
101327
101327
101327
101327
101327
101328
101328
101328
101328
101328
101328
101328
101328
101328
101328
101328
101328
101328
101327
101327
101327
101327
101327
101327
101327
101328
101328
101328
101328
101328
101328
101328
101328
101328
101328
101328
101328
101327
101327
101327
101327
101327
101327
101327
101327
101327
101327
101328
101328
101328
101328
101328
101328
101328
101328
101328
101326
101326
101327
101327
101327
101327
101327
101327
101327
101327
101327
101327
101328
101328
101328
101328
101328
101328
101328
101326
101326
101326
101326
101327
101327
101327
101327
101327
101327
101327
101327
101327
101327
101327
101328
101328
101328
101328
101326
101326
101326
101326
101326
101326
101327
101327
101327
101327
101327
101327
101327
101327
101327
101328
101328
101328
101328
101326
101326
101326
101326
101326
101326
101326
101326
101327
101327
101327
101327
101327
101327
101327
101327
101327
101328
101328
101326
101326
101326
101326
101326
101326
101326
101326
101326
101327
101327
101327
101327
101327
101327
101327
101327
101327
101328
101326
101326
101326
101326
101326
101326
101326
101326
101326
101326
101327
101327
101327
101327
101327
101327
101327
101327
101327
101326
101326
101326
101326
101326
101326
101326
101326
101326
101326
101326
101327
101327
101327
101327
101327
101327
101327
101327
101326
101326
101326
101326
101326
101326
101326
101326
101326
101326
101326
101327
101327
101327
101327
101327
101327
101327
101327
101326
101326
101326
101326
101326
101326
101326
101326
101326
101326
101326
101326
101327
101327
101327
101327
101327
101327
101327
101326
101326
101326
101326
101326
101326
101326
101326
101326
101326
101326
101326
101327
101327
101327
101327
101327
101327
101327
101325
101325
101325
101325
101326
101326
101326
101326
101326
101326
101326
101326
101326
101327
101327
101327
101327
101327
101327
101325
101325
101325
101325
101325
101325
101326
101326
101326
101326
101326
101326
101326
101326
101327
101327
101327
101327
101327
101325
101325
101325
101325
101325
101325
101325
101325
101326
101326
101326
101326
101326
101326
101327
101327
101327
101327
101327
101325
101325
101325
101325
101325
101325
101325
101325
101326
101326
101326
101326
101326
101326
101326
101326
101327
101327
101327
101325
101325
101325
101325
101325
101325
101325
101325
101325
101325
101326
101326
101326
101326
101326
101326
101327
101326
101326
101325
101325
101325
101325
101325
101325
101325
101325
101325
101325
101325
101326
101326
101326
101326
101326
101326
101326
101326
101325
101325
101325
101325
101325
101325
101325
101325
101325
101325
101325
101325
101325
101326
101326
101326
101326
101326
101326
101325
101325
101325
101325
101325
101325
101325
101325
101325
101325
101325
101325
101325
101325
101325
101325
101326
101325
101325
101325
101325
101325
101325
101325
101325
101325
101325
101325
101325
101325
101325
101325
101325
101325
101325
101325
101325
101325
)
;

boundaryField
{
    leftWall
    {
        type            zeroGradient;
    }
    rightWall
    {
        type            zeroGradient;
    }
    lowerWall
    {
        type            zeroGradient;
    }
    atmosphere
    {
        type            fixedValue;
        value           uniform 101325;
    }
    defaultFaces
    {
        type            empty;
    }
}


// ************************************************************************* //
