/*--------------------------------*- C++ -*----------------------------------*\
| =========                 |                                                 |
| \\      /  F ield         | OpenFOAM: The Open Source CFD Toolbox           |
|  \\    /   O peration     | Version:  2012                                  |
|   \\  /    A nd           | Website:  www.openfoam.com                      |
|    \\/     M anipulation  |                                                 |
\*---------------------------------------------------------------------------*/
FoamFile
{
    version     2.0;
    format      ascii;
    class       volScalarField;
    location    "0.92";
    object      rho;
}
// * * * * * * * * * * * * * * * * * * * * * * * * * * * * * * * * * * * * * //

dimensions      [1 -3 0 0 0 0 0];


internalField   nonuniform List<scalar> 
2268
(
1000.05
1000.05
1000.05
1000.05
1000.05
1000.05
1000.05
1000.05
1000.05
1000.05
1000.05
1000.05
1000.05
1000.05
1000.05
1000.05
1000.05
1000.05
1000.05
1000.05
1000.05
1000.05
999.949
1000.05
1000.05
1000.05
1000.05
1000.05
1000.05
1000.05
1000.05
1000.05
1000.05
1000.05
1000.05
1000.05
1000.05
1000.05
1000.05
1000.05
1000.05
1000.05
1000.05
1000.05
1000.05
999.813
1000.05
1000.05
1000.05
1000.05
1000.05
1000.05
1000.05
1000.05
1000.05
1000.05
1000.05
1000.05
1000.05
1000.05
1000.05
1000.05
1000.05
1000.05
1000.05
1000.05
1000.05
1000.05
999.805
1000.05
1000.05
1000.05
1000.05
1000.05
1000.05
1000.05
1000.05
1000.05
1000.05
1000.05
1000.05
1000.05
1000.05
1000.05
1000.05
1000.05
1000.05
1000.05
1000.05
1000.05
1000.05
999.805
1000.05
1000.05
1000.05
1000.05
1000.05
1000.05
1000.05
1000.05
1000.05
1000.05
1000.05
1000.05
1000.05
1000.05
1000.05
1000.05
1000.05
1000.05
1000.05
1000.05
1000.05
1000.05
999.805
1000.05
1000.05
1000.05
1000.05
1000.05
1000.05
1000.05
1000.05
1000.05
1000.05
1000.05
1000.05
1000.05
1000.05
1000.05
1000.05
1000.05
1000.05
1000.05
1000.05
1000.05
1000.05
999.956
1000.05
1000.05
1000.05
1000.05
1000.05
1000.05
1000.05
1000.05
1000.05
1000.05
1000.05
1000.05
1000.05
1000.05
1000.05
1000.05
1000.05
1000.05
1000.03
999.961
1000.05
1000.04
1000.05
1000.05
1000.05
1000.05
1000.05
1000.05
1000.05
1000.05
1000.05
1000.05
1000.05
1000.05
1000.05
1000.05
1000.05
1000.05
1000.04
999.684
997.112
988.472
979.439
995.963
1000.05
1000.05
808.019
150.188
2.5916
233.621
707.109
842.229
889.026
929.17
944.777
925.316
832.493
810.664
923.131
957.843
957.843
970.417
974.374
976.363
976.364
808.018
158.721
2.59153
32.0043
59.6589
116.111
314.67
761.068
977.35
977.335
959.723
929.522
935.237
761.217
614.112
726.023
694.254
830.989
982.279
791.01
79.1351
2.59157
3.33162
12.3841
29.6876
38.4292
664.195
977.348
977.348
976.194
898.111
935.236
931.927
662.399
277.018
210.579
598.116
982.281
819.574
155.315
2.59155
2.59142
282.625
421.2
182.301
908.439
977.365
977.348
977.348
973.514
780.643
924.775
872.459
262.097
210.58
808.803
982.281
900.746
370.689
2.59151
30.1467
574.945
587.176
601.892
977.378
977.363
977.365
963.501
708.789
638.397
780.625
872.457
399.286
522.897
949.274
991.061
911.331
244.879
2.59142
174.437
180.642
388.956
889.13
977.363
977.365
958.585
515.857
203.049
276.562
307.346
732.199
750.166
949.46
991.06
991.06
911.284
227.412
364.14
228.848
16.0123
51.772
854.515
977.365
972.642
671.689
141.035
111.152
111.201
150.747
334.065
883.652
960.644
954.887
983.285
714.511
373.215
549.746
75.8067
16.0123
45.9895
653.944
977.347
926.045
352.405
104.256
105.46
197.714
150.743
155.635
727.893
875.994
950.487
902.852
1000.05
1000.05
1000.05
1000.05
1000.05
1000.05
1000.05
1000.05
1000.05
1000.05
1000.05
999.925
999.82
999.505
997.621
985.449
898.114
718.865
532.512
508.617
601.063
836.587
997.104
1000.05
1000.05
1000.05
1000.05
1000.05
1000.05
1000.05
952.837
955.548
969.243
966.15
957.891
952.039
928.996
794.613
517.754
200.744
45.7424
2.20442
7.49193
145.909
411.792
965.389
1000.05
1000.05
1000.05
1000.05
899.763
558.157
357.303
349.433
468.891
661.561
744.763
738.112
663.894
349.293
65.8652
1.29357
1.29353
1.29347
2.37382
24.453
294.301
559.373
613.582
1000.05
1000.05
985.062
672.839
238.992
181.683
187.078
117.381
96.078
172.623
368.37
424.544
145.867
1.29353
1.29351
1.29344
1.29339
1.42966
39.0027
450.369
891.593
919.405
720.348
1000.05
992.514
917.429
449.308
183.615
86.5965
26.7361
18.3681
16.2487
16.0178
22.9609
30.7809
4.41853
3.42927
1.29339
1.29739
1.29362
2.7712
205.576
865.458
945.08
945.087
942.886
969.637
980.092
732.268
193.026
33.8313
33.8557
96.7567
166.424
104.454
9.11469
1.29331
1.39387
1.65172
3.00608
6.24304
16.6386
3.60001
4.5554
247.478
871.376
945.087
945.096
945.104
878.119
894.32
358.167
17.7388
3.78155
66.3297
166.424
166.233
166.297
38.8393
1.29323
1.29461
2.17638
25.9047
142.793
206.873
104.183
12.4291
70.9117
625.408
945.08
945.088
835.153
594.927
588.854
53.542
1.29314
2.54353
5.28386
7.43113
58.5984
86.1044
29.111
1.29323
1.29316
6.48537
124.463
246.148
246.148
241.026
22.2575
21.2247
375.288
896.678
945.08
801.541
128.296
89.3547
9.66908
1.29313
1.3198
1.29623
1.29319
1.29318
1.29318
1.37385
9.00749
27.5945
44.5746
129.664
245.43
227.277
95.7173
28.4632
19.9467
112.342
444.517
675.805
788.287
3.19185
1.80633
1.8987
1.29314
1.29318
1.29319
1.29321
1.2932
1.29321
1.37868
2.78227
4.52823
3.70003
5.1052
1.29323
1.4418
1.29323
1.29321
19.9465
59.0535
54.1289
72.1867
248.164
91.8207
1.29295
1.2964
1.29609
1.2932
1.29321
1.29323
1.29321
1.29323
1.29347
1.29516
1.29391
1.29319
1.2932
1.2932
1.29321
1.29321
1.29321
1.2932
1.29321
1.2932
1.29319
5.42496
179.519
1.29296
1.29429
1.29741
1.29321
1.29321
1.29323
1.29322
1.29322
1.29321
1.29337
1.29415
1.29422
1.29352
1.2932
1.2932
1.2932
1.29321
1.29321
1.29321
1.2932
1.29336
1.50896
179.615
1.29295
1.29372
1.29696
1.29321
1.29322
1.29323
1.29322
1.29322
1.29321
1.29322
1.29355
1.29422
1.29381
1.2932
1.2932
1.2932
1.29321
1.29322
1.29323
1.29322
1.29332
1.31249
179.599
1.29294
1.29314
1.29349
1.29321
1.29321
1.29322
1.29321
1.29321
1.29321
1.29321
1.2932
1.2932
1.29321
1.2932
1.2932
1.2932
1.2932
1.29321
1.29322
1.29321
1.29318
1.29315
57.4132
1.29295
1.29304
1.29318
1.29345
1.29321
1.29322
1.2932
1.29321
1.2932
1.29321
1.2932
1.2932
1.2932
1.2932
1.2932
1.2932
1.2932
1.2932
1.2932
1.2932
1.29319
1.29316
1.55074
1.2935
1.29305
1.29319
1.29349
1.2932
1.29321
1.29319
1.2932
1.29319
1.2932
1.2932
1.29319
1.29319
1.29319
1.29319
1.2932
1.2932
1.2932
1.2932
1.29319
1.29319
1.29317
1.29299
1.29355
1.29308
1.29318
1.29328
1.29319
1.2932
1.29319
1.29319
1.29319
1.29319
1.29319
1.29319
1.29319
1.29319
1.29319
1.29319
1.29319
1.29319
1.29319
1.29319
1.29319
1.29319
1.29296
1.2931
1.29311
1.29542
1.29319
1.29318
1.29319
1.29318
1.29319
1.29318
1.29319
1.29319
1.29319
1.29319
1.29319
1.29319
1.29319
1.29319
1.29319
1.29319
1.29319
1.29319
1.29319
1.29297
1.29321
1.29524
1.29598
1.29317
1.29317
1.29318
1.29318
1.29318
1.29318
1.29319
1.29318
1.29319
1.29319
1.29319
1.29319
1.29319
1.29319
1.29319
1.29319
1.29318
1.29318
1.29318
1.29297
1.29359
1.29604
1.29588
1.29315
1.29316
1.29317
1.29317
1.29318
1.29318
1.29318
1.29318
1.29318
1.29318
1.29319
1.29319
1.29319
1.29318
1.29318
1.29317
1.29317
1.29316
1.29316
1.29297
1.29351
1.29606
1.29359
1.29313
1.29315
1.29317
1.29317
1.29318
1.29318
1.29318
1.29318
1.29318
1.29318
1.29318
1.29318
1.29318
1.29318
1.29317
1.29315
1.29315
1.29315
1.29315
1.29298
1.29321
1.29346
1.29318
1.29321
1.29314
1.29316
1.29317
1.29317
1.29317
1.29318
1.29318
1.29318
1.29318
1.29318
1.29318
1.29317
1.29316
1.29314
1.29314
1.29317
1.29316
1.29312
1.29298
1.29304
1.29309
1.29359
1.29385
1.29314
1.29316
1.29317
1.29317
1.29317
1.29318
1.29318
1.29318
1.29318
1.29318
1.29317
1.29315
1.29314
1.29313
1.29317
1.29317
1.29312
1.29305
1.29298
1.29304
1.31589
1.31509
1.29373
1.29314
1.29316
1.29317
1.29317
1.29317
1.29317
1.29317
1.29318
1.29317
1.29317
1.29315
1.29313
1.29313
1.29317
1.29316
1.29311
1.29304
1.29302
1.30183
1.41169
1.44079
1.33679
1.29312
1.29315
1.29316
1.29317
1.29317
1.29317
1.29317
1.29317
1.29317
1.29316
1.29315
1.29313
1.29312
1.29315
1.29315
1.29311
1.29304
1.29302
1.293
1.47118
1.47826
1.45015
1.31086
1.29316
1.29316
1.29317
1.29317
1.29317
1.29317
1.29317
1.29317
1.29316
1.29315
1.29313
1.29314
1.29318
1.29316
1.29307
1.29304
1.29302
1.29301
1.29299
1.46827
1.45506
1.33476
1.29494
1.29317
1.29317
1.29317
1.29317
1.29317
1.29317
1.29317
1.29316
1.29315
1.29313
1.29312
1.29317
1.29317
1.29312
1.29304
1.29302
1.29301
1.293
1.29299
1.32553
1.31368
1.29493
1.29328
1.29317
1.29317
1.29317
1.29317
1.29317
1.29317
1.29316
1.29316
1.29314
1.29312
1.2931
1.29315
1.29312
1.29305
1.29303
1.29302
1.29301
1.293
1.29299
1.29312
1.29314
1.29316
1.29317
1.29317
1.29317
1.29317
1.29317
1.29317
1.29316
1.29316
1.29314
1.29312
1.29313
1.2932
1.29309
1.29305
1.29304
1.29302
1.29302
1.29301
1.293
1.29299
1.29315
1.29316
1.29316
1.29317
1.29317
1.29317
1.29317
1.29316
1.29316
1.29316
1.29315
1.29313
1.29315
1.29328
1.29326
1.29306
1.29304
1.29303
1.29302
1.29302
1.29301
1.29301
1.293
1.29316
1.29316
1.29317
1.29317
1.29316
1.29316
1.29316
1.29316
1.29316
1.29315
1.29313
1.29312
1.29321
1.29327
1.2932
1.29305
1.29304
1.29303
1.29303
1.29302
1.29302
1.29302
1.29302
1.29316
1.29316
1.29316
1.29316
1.29316
1.29316
1.29316
1.29315
1.29315
1.29314
1.29312
1.2931
1.29317
1.29325
1.29308
1.29304
1.29304
1.29303
1.29303
1.29303
1.29304
1.29303
1.29303
1.29316
1.29316
1.29316
1.29316
1.29316
1.29315
1.29315
1.29315
1.29314
1.29312
1.2931
1.29309
1.29314
1.29309
1.29305
1.29304
1.29304
1.29304
1.29304
1.29305
1.29305
1.29305
1.29305
1.29315
1.29315
1.29315
1.29315
1.29315
1.29315
1.29314
1.29314
1.29312
1.29311
1.29311
1.29322
1.29312
1.29305
1.29304
1.29304
1.29304
1.29305
1.29305
1.29306
1.29306
1.29306
1.29306
1.29315
1.29315
1.29315
1.29315
1.29314
1.29314
1.29313
1.29312
1.29311
1.29311
1.29334
1.29344
1.29309
1.29305
1.29304
1.29304
1.29305
1.29306
1.29306
1.29307
1.29307
1.29307
1.29307
1.29314
1.29314
1.29314
1.29314
1.29314
1.29313
1.29312
1.29311
1.2931
1.29322
1.29348
1.29343
1.29305
1.29304
1.29304
1.29305
1.29306
1.29306
1.29307
1.29307
1.29308
1.29308
1.29308
1.29313
1.29313
1.29313
1.29313
1.29313
1.29312
1.29311
1.29309
1.29309
1.2933
1.29347
1.29321
1.29305
1.29304
1.29305
1.29306
1.29306
1.29307
1.29308
1.29308
1.29309
1.29309
1.29309
1.29312
1.29312
1.29312
1.29312
1.29312
1.29311
1.29309
1.29308
1.29308
1.29318
1.29344
1.29305
1.29304
1.29305
1.29305
1.29306
1.29307
1.29308
1.29309
1.29309
1.2931
1.2931
1.2931
1.29311
1.29311
1.29311
1.29311
1.2931
1.29309
1.29308
1.29307
1.29307
1.29306
1.29312
1.29305
1.29304
1.29305
1.29306
1.29307
1.29308
1.29309
1.29309
1.2931
1.2931
1.2931
1.2931
1.29311
1.29311
1.2931
1.2931
1.29309
1.29308
1.29308
1.29311
1.29357
1.29348
1.29305
1.29304
1.29305
1.29305
1.29307
1.29308
1.29309
1.29309
1.2931
1.2931
1.2931
1.29311
1.29311
1.29309
1.29309
1.29309
1.29308
1.29307
1.29307
1.29306
1.29339
1.29378
1.29374
1.29304
1.29304
1.29305
1.29306
1.29307
1.29309
1.29309
1.2931
1.2931
1.29311
1.29311
1.29311
1.29311
1.29308
1.29308
1.29308
1.29307
1.29307
1.29307
1.29322
1.29378
1.29378
1.2932
1.29304
1.29305
1.29306
1.29307
1.29309
1.29309
1.2931
1.2931
1.2931
1.2931
1.2931
1.29311
1.2931
999.336
851.832
728.73
793.581
915.869
694.838
728.731
925.936
613.582
700.091
931.532
945.163
725.091
931.538
945.163
945.177
945.127
945.135
945.149
919.048
945.113
945.127
937.161
693.557
555.332
522.439
486.725
329.376
136.481
118.495
118.492
138.13
437.148
154.105
82.3122
77.8548
430.835
308.58
148.702
99.3439
82.7486
129.584
105.537
94.0172
15.6919
50.5603
66.8224
63.0212
1.51712
2.37372
3.85012
6.74723
1.29313
1.29312
1.32295
1.76527
1.29314
1.29329
1.47287
1.76076
1.29315
1.29419
1.31825
1.45852
1.29318
1.29318
1.29413
1.31244
1.29319
1.2932
1.2933
1.29338
1.29318
1.29319
1.29319
1.29319
1.29317
1.29317
1.29317
1.29317
1.29313
1.29313
1.29313
1.29313
1.29308
1.29308
1.29308
1.29307
1.29304
1.29303
1.29302
1.29301
1.29301
1.293
1.29299
1.29299
1.29299
1.29299
1.29298
1.29297
1.29298
1.29298
1.29297
1.29297
1.29298
1.29297
1.29297
1.29297
1.29298
1.29298
1.29297
1.29297
1.29299
1.29298
1.29298
1.29298
1.293
1.293
1.293
1.293
1.29302
1.29302
1.29301
1.29301
1.29303
1.29303
1.29303
1.29303
1.29305
1.29305
1.29305
1.29305
1.29306
1.29306
1.29306
1.29306
1.29307
1.29307
1.29307
1.29307
1.29308
1.29308
1.29308
1.29308
1.29309
1.29309
1.29309
1.29309
1.2931
1.2931
1.2931
1.2931
1.2931
1.2931
1.2931
1.2931
1.29311
1.2931
1.2931
1.2931
1.29311
1.29311
1.2931
1.2931
1.2931
1.2931
1.2931
1.2931
722.296
747.581
221.669
36.7393
16.0123
31.5329
580.016
977.348
704.387
173.567
104.21
280.07
547.616
516.881
397.904
701.224
897.343
897.178
785.983
925.642
742.932
92.0309
208.677
37.7117
160.86
805.268
870.768
245.375
85.0656
107.351
330.088
719.303
793.268
793.268
765.114
649.979
399.035
247.028
894.518
357.82
244.96
887.786
881.705
874.756
923.701
441.017
54.9661
70.551
332.453
332.951
326.515
266.598
240.928
223.645
84.8858
1.45439
1.45444
769.91
357.806
692.269
916.134
916.133
927.767
927.748
487.375
54.9379
54.9659
125.415
203.702
117.172
86.5409
24.7738
1.46936
1.46929
1.47091
1.45446
618.362
359.469
554.688
370.792
283.242
548.868
739.57
739.57
620.169
436.044
86.3564
1.30256
1.30276
1.30285
1.54905
1.71839
1.97482
1.62218
1.34024
387.635
159.852
70.0932
1.35942
1.35955
27.2223
157.426
330.391
198.719
162.278
138.482
19.36
1.41263
1.30261
1.3028
1.63832
1.89686
1.34603
1.36283
143.216
1.88707
1.8873
5.75491
24.2846
20.4224
1.34019
1.34021
1.34021
1.34017
1.93298
21.3024
25.7987
19.6907
6.02615
1.38426
1.32239
1.37362
1.41744
147.065
54.5244
1.88702
7.01006
44.2045
44.2227
7.64022
1.40416
1.37448
2.01651
1.55103
29.5972
48.4813
48.5511
11.7765
1.33469
1.32238
1.40758
1.38571
80.9148
147.399
102.761
23.4608
44.222
26.8926
3.40508
1.30614
1.33634
1.29675
1.29439
1.29439
5.60449
5.56543
2.6279
1.2946
1.29469
1.37992
1.29324
13.0615
132.011
132.009
63.9594
39.4027
1.30594
1.30613
1.30719
1.33633
1.30463
1.29439
1.29453
1.29452
1.30461
1.32315
1.29591
1.29322
1.29323
1.29324
13.0622
16.7474
26.4165
8.75341
13.9178
1.31517
1.31567
1.33153
1.31577
1.2944
1.2944
1.29485
1.29461
1.29442
1.29451
1.29322
1.29323
1.29323
1.29323
45.9699
15.5244
2.58013
2.57954
2.82898
3.22288
1.30723
1.32325
1.32324
1.30404
1.29435
1.29436
1.29319
1.29321
1.29322
1.29329
1.29323
1.29322
1.29323
13.0924
18.1903
14.31
12.4779
1.72603
2.8629
1.29388
1.31335
1.31556
1.29347
1.29577
1.29451
1.29318
1.2932
1.29329
1.29331
1.29323
1.29322
1.29325
4.48572
10.1382
11.2194
6.0226
1.29318
1.50055
1.29386
1.29382
1.29312
1.29314
1.29338
1.29321
1.29322
1.29332
1.29333
1.29323
1.29321
1.29322
1.29346
1.79214
1.80228
1.79511
1.39636
1.29318
1.29665
1.29662
1.29383
1.29415
1.29439
1.29343
1.29322
1.29337
1.2934
1.29333
1.2932
1.29321
1.29328
1.29351
1.59132
1.54082
1.29328
1.29327
1.29324
1.296
1.29788
1.29455
1.29497
1.29497
1.29347
1.29321
1.29324
1.29334
1.29329
1.2932
1.2932
1.29342
1.2935
1.40679
1.50736
1.35885
1.2932
1.2932
1.29385
1.2954
1.2953
1.29432
1.29312
1.29312
1.29312
1.29313
1.29315
1.29317
1.29319
1.2932
1.29343
1.29346
1.29507
1.31974
1.34567
1.33503
1.29944
1.2934
1.29615
1.29382
1.2931
1.29305
1.29304
1.29305
1.29307
1.2931
1.29313
1.29316
1.29319
1.29324
1.29321
1.29319
1.29318
1.29333
1.29359
1.29317
1.29315
1.29312
1.29304
1.293
1.29297
1.29297
1.29298
1.29305
1.29311
1.2931
1.29314
1.29317
1.29319
1.2932
1.29317
1.29316
1.29315
1.29312
1.29307
1.29303
1.29299
1.29296
1.29294
1.29292
1.29292
1.29294
1.29325
1.29352
1.29324
1.29313
1.29316
1.29319
1.2932
1.29312
1.29309
1.29305
1.29301
1.29298
1.29296
1.29294
1.29292
1.2929
1.29289
1.29289
1.29291
1.29328
1.29353
1.29359
1.29317
1.29316
1.29319
1.2932
1.29305
1.29302
1.29299
1.29296
1.29294
1.29293
1.29292
1.2929
1.29289
1.29288
1.29289
1.29296
1.29301
1.29338
1.29358
1.29332
1.29316
1.29319
1.2932
1.293
1.29297
1.29296
1.29294
1.29293
1.29292
1.29291
1.2929
1.29288
1.29287
1.29288
1.29297
1.29297
1.29302
1.29355
1.29344
1.29316
1.29322
1.29323
1.29297
1.29296
1.29295
1.29294
1.29293
1.29292
1.29291
1.2929
1.29288
1.29286
1.29285
1.29293
1.29314
1.293
1.29352
1.29351
1.29316
1.29324
1.29334
1.29296
1.29295
1.29294
1.29294
1.29293
1.29293
1.29292
1.29291
1.29289
1.29286
1.29284
1.29282
1.29327
1.29373
1.29314
1.29348
1.2932
1.29331
1.29335
1.29296
1.29295
1.29295
1.29295
1.29295
1.29294
1.29293
1.29292
1.2929
1.29288
1.29284
1.29281
1.2932
1.29407
1.29301
1.29344
1.29322
1.2933
1.29333
1.29296
1.29296
1.29296
1.29296
1.29296
1.29296
1.29295
1.29294
1.29292
1.29289
1.29285
1.29281
1.29295
1.29398
1.29297
1.29314
1.2932
1.29325
1.29327
1.29297
1.29297
1.29297
1.29297
1.29297
1.29297
1.29296
1.29295
1.29293
1.2929
1.29287
1.29282
1.29279
1.29328
1.297
1.29311
1.29311
1.29315
1.29331
1.29298
1.29298
1.29298
1.29298
1.29298
1.29298
1.29297
1.29296
1.29294
1.29291
1.29288
1.29283
1.29278
1.29331
1.30142
1.29395
1.29305
1.29313
1.29395
1.29299
1.29299
1.29299
1.29299
1.29299
1.29299
1.29298
1.29297
1.29295
1.29293
1.29289
1.29284
1.29279
1.29314
1.30137
1.2953
1.29299
1.29311
1.29419
1.29301
1.29301
1.29301
1.29301
1.293
1.293
1.29299
1.29298
1.29296
1.29294
1.2929
1.29286
1.2928
1.29281
1.29436
1.29557
1.29301
1.29309
1.29418
1.29303
1.29302
1.29302
1.29302
1.29301
1.29301
1.293
1.29299
1.29297
1.29295
1.29291
1.29287
1.29281
1.29274
1.29273
1.29773
1.29363
1.29306
1.29418
1.29304
1.29304
1.29303
1.29303
1.29302
1.29302
1.29301
1.293
1.29298
1.29295
1.29292
1.29288
1.29281
1.29275
1.29272
1.32257
1.29703
1.29308
1.29399
1.29306
1.29305
1.29305
1.29304
1.29303
1.29303
1.29302
1.293
1.29299
1.29296
1.29293
1.29288
1.29282
1.29275
1.29271
1.33128
1.30616
1.2931
1.29325
1.29307
1.29306
1.29306
1.29305
1.29304
1.29303
1.29302
1.29301
1.29299
1.29297
1.29293
1.29289
1.29283
1.29275
1.2927
1.33126
1.31784
1.29352
1.29312
1.29308
1.29307
1.29307
1.29306
1.29305
1.29304
1.29303
1.29301
1.293
1.29297
1.29294
1.29289
1.29283
1.29276
1.2927
1.31787
1.32539
1.29507
1.2931
1.29309
1.29308
1.29307
1.29306
1.29305
1.29304
1.29303
1.29302
1.293
1.29297
1.29294
1.29289
1.29283
1.29276
1.29269
1.29269
1.33247
1.29733
1.29309
1.29309
1.29309
1.29308
1.29307
1.29306
1.29305
1.29303
1.29302
1.293
1.29297
1.29294
1.2929
1.29283
1.29276
1.29269
1.29267
1.33407
1.30014
1.29308
1.2931
1.29309
1.29308
1.29307
1.29306
1.29305
1.29303
1.29302
1.293
1.29298
1.29294
1.2929
1.29283
1.29276
1.29268
1.29266
1.33404
1.30343
1.29306
1.2931
1.29309
1.29308
1.29307
1.29306
1.29305
1.29303
1.29302
1.293
1.29297
1.29294
1.29289
1.29283
1.29275
1.29268
1.29265
1.33402
1.3085
1.29306
1.2931
1.29309
1.29308
1.29307
1.29306
1.29305
1.29303
1.29302
1.293
1.29297
1.29294
1.29289
1.29283
1.29275
1.29268
1.29264
1.33397
1.31676
1.29313
1.29309
1.29309
1.29308
1.29306
1.29305
1.29304
1.29303
1.29301
1.29299
1.29297
1.29294
1.29289
1.29282
1.29275
1.29267
1.29263
1.31692
1.31548
1.29343
)
;

boundaryField
{
    leftWall
    {
        type            calculated;
        value           nonuniform List<scalar> 
50
(
1000.05
1000.05
1000.05
1000.05
1000.05
1000.05
1000.05
1000.05
1000.05
1000.05
1000.05
1000.05
1000.05
969.637
878.119
594.927
128.296
3.19185
91.8207
179.519
179.615
179.599
57.4132
1.55074
1.29299
1.29296
1.29297
1.29297
1.29297
1.29298
1.29298
1.29298
1.30183
1.47118
1.46827
1.32553
1.29312
1.29315
1.29316
1.29316
1.29316
1.29315
1.29315
1.29314
1.29313
1.29312
1.29311
1.29311
1.29309
1.29308
)
;
    }
    rightWall
    {
        type            calculated;
        value           nonuniform List<scalar> 
50
(
976.364
982.279
982.281
982.281
991.061
991.06
983.285
902.852
785.983
247.028
1.45444
1.45446
1.34024
1.36283
1.41744
1.38571
1.29324
1.29324
1.29323
1.29323
1.29325
1.29346
1.29351
1.2935
1.29346
1.29321
1.2932
1.2932
1.2932
1.2932
1.29323
1.29334
1.29335
1.29333
1.29327
1.29331
1.29395
1.29419
1.29418
1.29418
1.29399
1.29325
1.29312
1.2931
1.29309
1.29308
1.29306
1.29306
1.29313
1.29343
)
;
    }
    lowerWall
    {
        type            calculated;
        value           nonuniform List<scalar> 
62
(
1000.05
1000.05
1000.05
1000.05
1000.05
1000.05
1000.05
1000.05
1000.05
1000.05
1000.05
1000.05
1000.05
1000.05
1000.05
1000.05
1000.05
1000.05
1000.05
1000.05
1000.05
1000.05
999.949
999.949
999.813
999.805
999.805
999.805
999.956
1000.05
1000.05
999.336
851.832
728.73
793.581
808.019
808.018
791.01
819.574
900.746
911.331
911.284
714.511
808.019
150.188
2.5916
233.622
707.109
842.229
889.026
929.17
944.777
925.316
832.493
810.664
923.131
957.843
957.843
970.417
974.374
976.363
976.364
)
;
    }
    atmosphere
    {
        type            calculated;
        value           nonuniform List<scalar> 
46
(
1.29317
1.29317
1.29317
1.29316
1.29316
1.29315
1.29331
1.29387
1.29387
1.29329
1.29314
1.29314
1.29315
1.29317
1.29318
1.29319
1.29319
1.29319
1.2932
1.2932
1.2932
1.2932
1.2932
1.2932
1.2932
1.29319
1.29319
1.29319
1.29318
1.29317
1.29316
1.29315
1.29314
1.29312
1.29311
1.29309
1.29306
1.29303
1.29298
1.29292
1.29284
1.29276
1.29272
1.29273
1.31557
1.29352
)
;
    }
    defaultFaces
    {
        type            empty;
    }
}


// ************************************************************************* //
