/*--------------------------------*- C++ -*----------------------------------*\
| =========                 |                                                 |
| \\      /  F ield         | OpenFOAM: The Open Source CFD Toolbox           |
|  \\    /   O peration     | Version:  3.0.1                                 |
|   \\  /    A nd           | Web:      www.OpenFOAM.org                      |
|    \\/     M anipulation  |                                                 |
\*---------------------------------------------------------------------------*/
FoamFile
{
    version     2.0;
    format      ascii;
    class       volVectorField;
    location    "0.07";
    object      U;
}
// * * * * * * * * * * * * * * * * * * * * * * * * * * * * * * * * * * * * * //

dimensions      [0 1 -1 0 0 0 0];

internalField   nonuniform List<vector> 
50
(
(89.6245 -0.00155569 0)
(93.2149 -0.0015556 0)
(96.1066 -0.00155564 0)
(98.9147 -0.00155816 -9.91959e-15)
(102.123 -0.00155728 -1.01739e-14)
(105.513 -0.00154383 -1.05104e-14)
(109.122 -0.00156091 0)
(113.009 -0.00158398 0)
(117.193 -0.00151201 -1.15591e-14)
(121.713 -0.00153885 -1.19574e-14)
(126.613 -0.00166191 0)
(131.947 -0.00144705 -1.28397e-14)
(137.778 -0.00152684 0)
(144.186 -0.0017922 0)
(151.266 -0.0012208 -1.44249e-14)
(159.141 -0.00169613 0)
(167.969 -0.00181744 -1.57024e-14)
(177.957 -0.000938326 0)
(189.388 -0.00224684 0)
(202.663 -0.00263513 0)
(218.387 0.00191075 0)
(237.551 0.0255151 0)
(261.992 -0.102859 0)
(295.786 -0.239767 0)
(350.499 1.70907 0)
(451.094 -1.07391 0)
(522.814 -7.69917 0)
(562.291 3.46904 0)
(588.61 4.8226 0)
(609.045 3.1027 0)
(626.68 2.59251 0)
(641.566 -2.63759 0)
(654.288 -3.38928 0)
(665.448 -2.94362 9.31618e-15)
(676.268 -2.74938 0)
(684.54 0.992352 7.88117e-15)
(697.467 2.07535 0)
(696.62 1.98129 0)
(434.606 -3.25147 9.88639e-15)
(236.847 17.4629 0)
(218.593 -8.4459 1.20974e-14)
(207.109 -10.5685 1.13805e-14)
(197.473 -5.21392 0)
(189.908 3.41988 0)
(180.96 6.64938 1.02025e-14)
(173.255 3.85458 0)
(167.4 -1.19193 9.60323e-15)
(161.829 -3.22064 0)
(158.625 -0.789609 0)
(151.684 0.0686217 0)
)
;

boundaryField
{
    inlet
    {
        type            zeroGradient;
    }
    outlet
    {
        type            zeroGradient;
    }
    upperWall
    {
        type            slip;
    }
    lowerWall
    {
        type            slip;
    }
    frontAndBack
    {
        type            empty;
    }
}


// ************************************************************************* //
