/*--------------------------------*- C++ -*----------------------------------*\
| =========                 |                                                 |
| \\      /  F ield         | OpenFOAM: The Open Source CFD Toolbox           |
|  \\    /   O peration     | Version:  3.0.1                                 |
|   \\  /    A nd           | Web:      www.OpenFOAM.org                      |
|    \\/     M anipulation  |                                                 |
\*---------------------------------------------------------------------------*/
FoamFile
{
    version     2.0;
    format      ascii;
    class       surfaceScalarField;
    location    "0.0001";
    object      phi;
}
// * * * * * * * * * * * * * * * * * * * * * * * * * * * * * * * * * * * * * //

dimensions      [1 0 -1 0 0 0 0];

internalField   nonuniform List<scalar> 
1890
(
1.10263e-16
-1.38358e-16
4.49944e-18
-1.66032e-16
8.64109e-17
-1.32693e-16
3.21466e-17
-1.63823e-16
-3.27429e-17
-1.72957e-16
-1.50433e-16
-1.96295e-16
-4.81386e-17
-1.67143e-16
0
-1.72253e-16
1.07336e-16
-1.5191e-16
1.52168e-16
-1.64988e-16
-1.38236e-17
-2.11663e-16
9.30245e-17
-1.46245e-16
6.19079e-17
-1.93489e-16
-3.52366e-17
-1.94872e-16
-1.32273e-16
-1.95712e-16
9.40545e-17
-1.4367e-16
1.33953e-16
-1.74475e-16
3.37078e-16
-1.56749e-16
2.38253e-15
-1.83311e-16
1.46894e-14
-1.79435e-16
8.89069e-14
-1.73676e-16
4.78059e-13
-1.97975e-16
2.62513e-12
-1.26621e-16
1.30496e-11
-9.13034e-17
6.57429e-11
-7.00801e-17
3.01368e-10
-4.7339e-17
1.38359e-09
-7.83607e-17
5.80666e-09
-5.28955e-17
2.407e-08
-1.99615e-16
9.16349e-08
-2.86609e-16
3.39124e-07
-9.0581e-16
1.1573e-06
-2.76396e-15
3.77001e-06
-7.80871e-15
1.13453e-05
-2.2258e-14
3.19041e-05
-5.40919e-14
8.23083e-05
-1.23848e-13
0.00019187
-2.26503e-13
0.000380545
-3.36243e-13
0.000662218
-2.99698e-13
0.00101351
-1.34835e-13
0.00137261
3.22517e-13
0.00167193
6.78567e-13
0.00188465
9.97548e-13
0.00199122
8.26361e-13
0.00192531
6.16365e-13
0.00185957
2.35469e-13
0.0018073
2.57413e-13
0.00176086
2.77367e-13
0.00178731
3.00532e-13
0.00180592
2.65187e-13
0.00175517
1.74939e-13
0.00171624
2.81951e-13
0.00171649
1.398e-13
0.0017199
2.43872e-13
0.0017303
8.34988e-14
0.00172227
1.17982e-13
0.0017199
2.20031e-13
0.0017788
3.24736e-13
0.00188998
1.87802e-13
0.00168138
-1.60046e-13
0.000933194
-1.90348e-13
0.000444
-1.83557e-15
0.000194541
3.23903e-14
7.91459e-05
2.3243e-14
3.02561e-05
1.20973e-14
1.06294e-05
4.82486e-15
3.54694e-06
1.78336e-15
1.08522e-06
5.91419e-16
3.20321e-07
1.03507e-16
8.65106e-08
5.13573e-17
2.28911e-08
-7.76085e-17
5.52563e-09
-6.64345e-17
1.32526e-09
-1.54445e-16
2.88983e-10
-8.038e-17
6.33909e-11
-1.69339e-16
1.26001e-11
-1.08915e-16
2.54671e-12
-2.391e-16
4.6507e-13
-1.10257e-16
8.73205e-14
-2.43451e-16
1.48486e-14
-1.47601e-16
2.63854e-15
-2.45382e-16
4.95507e-16
-1.44951e-16
7.46744e-17
-1.80892e-16
-3.93023e-17
-2.52043e-16
-5.99293e-17
-2.86826e-16
4.09286e-17
-3.32904e-16
-1.54634e-16
-2.79101e-16
-3.00541e-16
-2.8419e-16
1.69108e-16
-1.99608e-16
-6.10406e-17
-2.64559e-16
-1.19127e-16
-2.29993e-16
-4.08202e-17
-1.13956e-16
9.62229e-18
-7.36241e-17
2.11853e-16
-9.19132e-17
2.58447e-16
-6.65497e-17
7.03105e-17
-9.26519e-17
-6.66784e-18
-1.02328e-16
-1.21702e-17
-3.73101e-17
9.51387e-18
2.18873e-17
2.23989e-16
6.06611e-17
1.37097e-16
9.5464e-17
1.22732e-16
-1.2902e-17
1.07322e-16
-2.79724e-17
1.0777e-16
-8.13694e-17
9.07884e-17
-5.74627e-18
1.05141e-16
-9.81203e-18
9.0951e-17
7.74662e-17
1.11009e-16
1.64257e-17
8.45407e-17
6.79253e-17
7.37935e-17
5.14996e-17
4.23652e-17
1.72768e-16
5.97802e-17
1.66533e-16
-3.56431e-18
6.77084e-17
-4.06847e-17
4.10371e-17
-1.01644e-17
4.44523e-18
-2.53974e-17
2.6563e-18
-3.92617e-17
2.68936e-16
-5.78693e-18
2.49974e-15
-2.1169e-17
1.47824e-14
-1.00289e-17
8.89334e-14
-6.03359e-17
4.78228e-13
-3.11573e-17
2.62528e-12
-9.72936e-17
1.30498e-11
5.2245e-17
6.57429e-11
-5.04018e-17
3.01368e-10
-2.31748e-17
1.38359e-09
-4.3341e-17
5.80666e-09
-2.66714e-17
2.407e-08
-4.28666e-17
9.16349e-08
-1.69176e-16
3.39124e-07
-4.28436e-16
1.1573e-06
-1.32902e-15
3.77001e-06
-3.77897e-15
1.13453e-05
-1.09512e-14
3.19041e-05
-2.69578e-14
8.23083e-05
-6.42144e-14
0.00019187
-1.23146e-13
0.000380545
-2.01238e-13
0.000662218
-2.30101e-13
0.00101351
-1.83573e-13
0.00137261
6.36069e-14
0.00167193
2.50479e-13
0.00188465
4.88061e-13
0.00199122
4.72202e-13
0.00192531
4.73775e-13
0.00185957
2.2767e-13
0.0018073
2.41832e-13
0.00176086
1.8955e-13
0.00178731
2.74728e-13
0.00180592
2.36612e-13
0.00175517
2.05005e-13
0.00171624
2.28415e-13
0.00171649
1.34336e-13
0.0017199
1.37916e-13
0.0017303
7.68658e-14
0.00172227
6.44489e-14
0.0017199
1.15606e-13
0.0017788
1.11774e-13
0.00188998
2.63817e-14
0.00168138
-1.43987e-13
0.000933194
-9.29592e-14
0.000444
-1.42111e-15
0.000194541
1.79049e-14
7.91459e-05
1.14277e-14
3.02561e-05
5.98692e-15
1.06294e-05
2.2978e-15
3.54694e-06
7.90268e-16
1.08522e-06
2.04277e-16
3.20321e-07
-2.89821e-17
8.65106e-08
-4.77456e-17
2.28911e-08
-1.13977e-16
5.52563e-09
-5.40881e-17
1.32526e-09
-1.38398e-16
2.88983e-10
-1.61058e-16
6.33908e-11
-2.18304e-16
1.26e-11
-1.33079e-16
2.54675e-12
-3.02662e-16
4.65104e-13
-2.23562e-16
8.73279e-14
-2.89855e-16
1.49298e-14
-2.94185e-16
2.85741e-15
-2.80937e-16
5.45706e-16
-2.98413e-16
-2.15702e-16
-3.33087e-16
-3.95924e-16
-3.26426e-16
-3.512e-16
-3.10116e-16
1.00289e-17
-2.88249e-16
-1.40377e-16
-2.6935e-16
-1.08827e-16
-2.86399e-16
2.18684e-16
-1.65781e-16
2.93494e-16
-2.09414e-16
2.80131e-16
-1.4321e-16
-1.25524e-16
-1.26892e-16
-1.76888e-16
-5.23602e-17
2.29498e-16
4.38153e-17
2.83763e-16
4.70476e-17
2.20988e-16
-4.43845e-18
5.03449e-16
5.79642e-17
1.02276e-15
-1.42979e-18
1.47891e-15
-2.71254e-17
-2.03783e-16
1.12757e-17
9.55995e-17
-3.6646e-17
9.72665e-17
-4.73796e-17
8.55164e-17
-4.48318e-17
1.02349e-16
-1.45283e-16
8.93518e-17
-1.27719e-16
1.14451e-16
4.11997e-18
1.25103e-16
-1.7293e-17
1.21132e-16
-1.3932e-17
1.07783e-16
1.10209e-16
9.48677e-17
3.61581e-17
4.61328e-17
-1.70979e-16
1.29969e-17
-1.93096e-16
7.52165e-18
-2.30935e-17
3.97496e-17
7.99057e-17
3.69713e-17
1.14112e-16
-1.63172e-17
2.28062e-16
6.65429e-18
3.31332e-16
2.75116e-17
2.33082e-15
-3.78522e-17
1.46467e-14
-4.07524e-17
8.89421e-14
-1.15739e-16
4.78344e-13
-1.01021e-16
2.62551e-12
-2.01797e-16
1.30498e-11
-1.30619e-16
6.57429e-11
-2.90471e-16
3.01368e-10
-2.77434e-16
1.38359e-09
-3.03156e-16
5.80666e-09
-3.30478e-16
2.407e-08
-2.81527e-16
9.16349e-08
-3.87589e-16
3.39124e-07
-3.6253e-16
1.1573e-06
-6.73845e-16
3.77001e-06
-1.29826e-15
1.13453e-05
-3.33278e-15
3.19041e-05
-8.04384e-15
8.23083e-05
-2.08888e-14
0.00019187
-4.41299e-14
0.000380545
-8.51285e-14
0.000662218
-1.2423e-13
0.00101351
-1.58602e-13
0.00137261
-1.2283e-13
0.00167193
-7.61642e-14
0.00188465
5.58928e-14
0.00199122
1.17418e-13
0.00192531
2.46059e-13
0.00185957
1.90998e-13
0.0018073
2.42198e-13
0.00176086
1.56593e-13
0.00178731
2.51773e-13
0.00180592
1.86757e-13
0.00175517
2.20835e-13
0.00171624
1.58846e-13
0.00171649
1.44924e-13
0.0017199
7.16031e-14
0.0017303
7.01632e-14
0.00172227
-6.55038e-15
0.0017199
-2.74587e-14
0.0017788
-8.7007e-14
0.00188998
-1.06092e-13
0.00168138
-9.18952e-14
0.000933194
-3.26119e-14
0.000444
-4.47885e-15
0.000194541
4.8815e-15
7.91459e-05
2.47612e-15
3.02561e-05
1.64204e-15
1.06294e-05
4.40342e-16
3.54694e-06
8.7211e-18
1.08522e-06
-2.15966e-16
3.20321e-07
-2.72087e-16
8.65106e-08
-3.21757e-16
2.28911e-08
-3.67091e-16
5.52563e-09
-3.21344e-16
1.32526e-09
-3.78664e-16
2.88983e-10
-3.52271e-16
6.33906e-11
-3.01496e-16
1.25998e-11
-2.86026e-16
2.54659e-12
-2.51548e-16
4.65018e-13
-2.42041e-16
8.71793e-14
-2.73334e-16
1.48383e-14
-3.47392e-16
2.67389e-15
-2.97261e-16
3.18728e-16
-3.91444e-16
-2.27439e-16
-3.72661e-16
-2.32561e-16
-2.91779e-16
5.8818e-18
-2.94591e-16
1.90467e-16
-2.26015e-16
1.72659e-17
-2.64349e-16
7.21808e-17
-2.60886e-16
5.30175e-17
-1.71331e-16
1.5393e-16
-2.36492e-16
4.99221e-16
-2.08756e-16
5.40665e-16
-1.90623e-16
3.953e-16
-2.38802e-16
2.79887e-16
-1.71453e-16
6.38866e-17
-2.26856e-16
-3.00053e-17
-1.94282e-16
-3.71339e-18
-1.37077e-16
6.73561e-17
-8.42357e-17
9.37564e-17
-7.13812e-17
-5.25635e-17
2.36898e-17
0
3.30682e-18
2.22261e-18
7.48099e-18
0
-2.48824e-17
6.77626e-20
-1.1601e-17
3.2255e-18
-3.25261e-19
8.47033e-18
-2.37982e-17
2.46792e-17
-7.16116e-17
1.96241e-17
-1.43169e-16
1.73066e-17
-1.77647e-16
1.34306e-17
-1.7125e-16
-1.23464e-17
-6.06611e-17
9.6765e-18
1.41488e-16
1.79978e-17
-1.06794e-17
5.14996e-18
-1.87188e-16
-4.33681e-18
-4.71628e-17
3.1347e-17
6.09322e-17
1.73743e-17
1.99385e-16
4.57262e-17
2.30583e-15
2.84468e-17
1.4545e-14
-8.38901e-18
8.87122e-14
-3.3529e-17
4.78149e-13
-8.12203e-17
2.62536e-12
-8.24671e-17
1.30495e-11
-1.53116e-16
6.57427e-11
-2.13249e-16
3.01367e-10
-2.23671e-16
1.38359e-09
-2.65128e-16
5.80666e-09
-2.80429e-16
2.407e-08
-2.46697e-16
9.16349e-08
-2.77989e-16
3.39124e-07
-2.28116e-16
1.1573e-06
-3.14595e-16
3.77001e-06
-4.88433e-16
1.13453e-05
-1.26875e-15
3.19041e-05
-3.15707e-15
8.23083e-05
-8.43326e-15
0.00019187
-1.83272e-14
0.000380545
-3.6972e-14
0.000662218
-5.6436e-14
0.00101351
-7.61398e-14
0.00137261
-6.46456e-14
0.00167193
-3.20729e-14
0.00188465
6.33323e-14
0.00199122
1.29968e-13
0.00192531
2.60258e-13
0.00185957
2.92826e-13
0.0018073
3.63178e-13
0.00176086
3.29108e-13
0.00178731
3.53753e-13
0.00180592
2.9861e-13
0.00175517
2.70327e-13
0.00171624
1.84481e-13
0.00171649
1.51885e-13
0.0017199
8.70218e-14
0.0017303
5.11021e-14
0.00172227
-2.77617e-14
0.0017199
-7.94154e-14
0.0017788
-1.35551e-13
0.00188998
-1.33814e-13
0.00168138
-9.9845e-14
0.000933194
-4.3177e-14
0.000444
-1.39353e-14
0.000194541
-2.80092e-15
7.91459e-05
-8.65397e-16
3.02561e-05
-2.05324e-17
1.06294e-05
-1.27835e-16
3.54694e-06
-1.34482e-16
1.08522e-06
-1.99764e-16
3.20321e-07
-2.21177e-16
8.65106e-08
-2.58562e-16
2.28911e-08
-2.79514e-16
5.52563e-09
-2.12517e-16
1.32526e-09
-2.40232e-16
2.88984e-10
-1.81529e-16
6.33908e-11
-1.7949e-16
1.25999e-11
-1.46876e-16
2.54667e-12
-1.33086e-16
4.64905e-13
-1.8134e-16
8.71436e-14
-1.80222e-16
1.4967e-14
-1.94716e-16
2.7417e-15
-2.4915e-16
5.22802e-16
-2.19707e-16
-4.68917e-18
-2.5331e-16
-2.24159e-16
-1.79551e-16
-4.37205e-16
-1.83e-16
-2.25406e-16
-2.57159e-17
4.16605e-17
-2.26734e-17
3.9942e-16
1.08956e-16
4.7114e-16
2.57837e-17
7.52111e-16
3.78251e-17
5.70616e-16
-7.98786e-17
2.56576e-16
-1.59513e-16
2.91867e-16
-2.0734e-16
2.60886e-16
-1.67997e-16
2.28523e-16
-2.29492e-16
5.41451e-16
-1.25964e-16
3.43475e-16
-2.72501e-16
2.55926e-16
-1.17541e-16
2.26246e-16
-8.5923e-17
6.89485e-17
1.7022e-17
-3.28692e-36
-4.22839e-18
-1.26039e-18
-6.72205e-18
0
1.73472e-18
-2.88669e-18
-3.84892e-18
0
-4.49944e-18
-4.06576e-20
-9.16151e-18
0
-5.89264e-17
1.47723e-18
-1.76508e-16
1.50433e-17
-2.04209e-16
5.61481e-17
-1.00126e-16
8.95415e-17
-1.616e-16
9.48541e-17
-1.43819e-16
1.09803e-16
2.60209e-18
1.06631e-16
3.04119e-17
8.98533e-17
2.05727e-16
1.33479e-16
2.90783e-16
1.21702e-16
1.63281e-16
6.14472e-17
2.09278e-15
9.42578e-17
1.43967e-14
6.46184e-17
8.86432e-14
3.5616e-17
4.78008e-13
2.04237e-17
2.62504e-12
6.05798e-18
1.30493e-11
-4.35985e-17
6.57426e-11
-1.9868e-17
3.01367e-10
-4.21755e-17
1.38359e-09
4.2826e-18
5.80666e-09
-5.83436e-17
2.407e-08
-1.82824e-17
9.16349e-08
-6.32225e-17
3.39124e-07
-4.16876e-17
1.1573e-06
-3.41522e-18
3.77001e-06
-4.2189e-17
1.13453e-05
-1.58307e-16
3.19041e-05
-4.71452e-16
8.23083e-05
-1.22974e-15
0.00019187
-2.49517e-15
0.000380545
-4.13153e-15
0.000662218
-3.20499e-15
0.00101351
4.22784e-15
0.00137261
3.04589e-14
0.00167193
8.01041e-14
0.00188465
1.69675e-13
0.00199122
2.75071e-13
0.00192531
4.31081e-13
0.00185957
5.44713e-13
0.0018073
6.21474e-13
0.00176086
6.1057e-13
0.00178731
5.25228e-13
0.00180592
4.63338e-13
0.00175517
3.60291e-13
0.00171624
2.36078e-13
0.00171649
1.80856e-13
0.0017199
1.19423e-13
0.0017303
4.47723e-14
0.00172227
-3.86708e-14
0.0017199
-1.19255e-13
0.0017788
-1.88048e-13
0.00188998
-2.0656e-13
0.00168138
-1.6732e-13
0.000933194
-9.79477e-14
0.000444
-4.05983e-14
0.000194541
-1.68467e-14
7.91459e-05
-6.33071e-15
3.02561e-05
-2.3686e-15
1.06294e-05
-7.88086e-16
3.54694e-06
-2.42502e-16
1.08522e-06
-6.81489e-17
3.20321e-07
1.33492e-18
8.65106e-08
1.51314e-17
2.28911e-08
-1.21973e-18
5.52563e-09
7.15167e-17
1.32526e-09
-2.65833e-17
2.88984e-10
2.89211e-17
6.33909e-11
-5.40678e-17
1.26e-11
-1.45961e-17
2.54659e-12
4.96226e-17
4.64764e-13
-4.29073e-17
8.69349e-14
9.75104e-17
1.45547e-14
1.71704e-16
2.28829e-15
1.17954e-16
2.8276e-16
2.08404e-16
2.2256e-16
2.00706e-16
1.99032e-16
2.53276e-16
6.82397e-16
2.54096e-16
6.02681e-16
2.37223e-16
4.30754e-16
1.82309e-16
-7.22621e-17
1.77701e-16
-2.73463e-16
1.80242e-16
-3.92156e-16
2.03661e-16
1.37124e-16
2.43674e-16
3.81422e-16
1.22698e-16
4.47396e-16
8.4622e-17
4.03296e-16
2.66646e-17
2.14482e-16
-1.08441e-16
3.08076e-16
-5.40475e-17
8.11471e-16
-7.17539e-17
1.1769e-15
-1.88333e-16
1.19316e-15
-1.67591e-16
-2.45145e-16
1.7022e-17
-5.99022e-18
-4.22839e-18
-1.3146e-17
-6.72205e-18
-9.17506e-18
2.71051e-19
-1.30917e-17
-3.84892e-18
-4.06576e-20
-4.33681e-18
-5.28549e-19
1.8633e-35
0
-3.1055e-35
0
1.22515e-17
9.48677e-20
0
3.21195e-18
-1.66967e-17
1.5992e-17
-2.71051e-19
1.79029e-17
1.33899e-17
3.42743e-17
-3.84892e-18
2.5167e-17
5.85469e-18
4.48995e-17
-8.67362e-18
1.62901e-17
1.13841e-18
2.56007e-17
1.36881e-16
1.53144e-18
2.06866e-15
7.41323e-18
1.42483e-14
1.27665e-17
8.85189e-14
3.63208e-17
4.77967e-13
8.89181e-17
2.62503e-12
8.08544e-17
1.30492e-11
1.09897e-16
6.57426e-11
1.71968e-16
3.01367e-10
1.52086e-16
1.38359e-09
2.18074e-16
5.80666e-09
1.74868e-16
2.407e-08
1.9994e-16
9.16349e-08
1.8136e-16
3.39124e-07
1.75126e-16
1.1573e-06
1.89464e-16
3.77001e-06
2.11148e-16
1.13453e-05
3.67003e-16
3.19041e-05
8.77445e-16
8.23083e-05
2.7589e-15
0.00019187
7.93621e-15
0.000380545
2.2114e-14
0.000662218
5.28496e-14
0.00101351
1.14436e-13
0.00137261
2.19514e-13
0.00167193
3.80927e-13
0.00188465
5.92692e-13
0.00199122
8.30095e-13
0.00192531
1.06534e-12
0.00185957
1.18448e-12
0.0018073
1.16291e-12
0.00176086
9.44694e-13
0.00178731
6.62237e-13
0.00180592
4.64299e-13
0.00175517
3.67892e-13
0.00171624
2.0212e-13
0.00171649
1.39128e-13
0.0017199
6.94882e-14
0.0017303
-2.13416e-14
0.00172227
-1.11883e-13
0.0017199
-2.61772e-13
0.0017788
-3.99573e-13
0.00188998
-5.36081e-13
0.00168138
-5.29962e-13
0.000933194
-3.70705e-13
0.000444
-1.65056e-13
0.000194541
-7.41833e-14
7.91459e-05
-2.88612e-14
3.02561e-05
-1.14449e-14
1.06294e-05
-3.79452e-15
3.54694e-06
-1.15534e-15
1.08522e-06
-1.48014e-16
3.20321e-07
1.23131e-16
8.65106e-08
1.96925e-16
2.28911e-08
2.43763e-16
5.52563e-09
2.57688e-16
1.32526e-09
2.57132e-16
2.88984e-10
2.54218e-16
6.3391e-11
1.99276e-16
1.26e-11
2.12016e-16
2.54652e-12
2.02089e-16
4.65078e-13
1.65483e-16
8.72919e-14
1.94763e-16
1.47798e-14
1.94072e-16
2.92689e-15
2.49109e-16
8.21879e-16
3.14534e-16
2.51454e-16
2.36973e-16
1.91335e-16
3.27517e-16
1.20916e-16
2.71715e-16
2.08763e-16
3.1576e-16
3.07913e-16
1.71162e-16
1.89058e-16
2.04291e-16
2.61455e-16
1.87913e-16
2.43539e-16
2.11318e-16
-2.29715e-16
1.4697e-16
-2.2527e-16
2.10518e-16
-2.5327e-16
1.19059e-16
-1.92446e-18
1.32225e-16
2.84874e-16
9.61145e-17
1.57779e-16
6.17656e-17
2.07083e-16
5.8818e-17
3.11274e-16
-5.69884e-17
3.26264e-16
1.02051e-17
-6.24907e-17
-1.31188e-17
-7.99328e-17
-8.72783e-18
-7.88757e-17
6.9931e-18
-8.04478e-17
2.39067e-17
-1.45486e-16
1.33899e-17
-1.109e-16
0
-1.27949e-16
8.28134e-36
-1.07214e-16
0
-1.2677e-16
8.89046e-18
-9.97602e-17
5.42101e-20
-1.00899e-16
-1.56667e-17
-1.15508e-16
-2.71051e-19
-1.12906e-16
0
-1.21498e-16
0
-1.76562e-16
2.0383e-17
-1.24344e-16
-1.24683e-18
-8.04342e-17
-9.43256e-18
-6.42796e-17
1.27611e-16
-5.47793e-17
2.10953e-15
-3.03441e-17
1.43687e-14
-8.38901e-18
8.86217e-14
1.02701e-16
4.77915e-13
1.13868e-16
2.62508e-12
1.96891e-16
1.30494e-11
1.91226e-16
6.57427e-11
2.54259e-16
3.01367e-10
2.75171e-16
1.38359e-09
2.74506e-16
5.80666e-09
3.29896e-16
2.407e-08
2.7906e-16
9.16349e-08
3.53138e-16
3.39124e-07
2.34947e-16
1.1573e-06
3.33528e-16
3.77001e-06
4.77672e-16
1.13453e-05
1.05899e-15
3.19041e-05
2.67802e-15
8.23083e-05
8.27761e-15
0.00019187
2.29853e-14
0.000380545
6.05116e-14
0.000662218
1.37365e-13
0.00101351
2.81729e-13
0.00137261
5.0955e-13
0.00167193
8.31963e-13
0.00188465
1.20632e-12
0.00199122
1.5902e-12
0.00192531
1.84076e-12
0.00185957
1.83731e-12
0.0018073
1.52291e-12
0.00176086
9.89252e-13
0.00178731
5.97354e-13
0.00180592
3.01152e-13
0.00175517
2.67639e-13
0.00171624
1.12483e-13
0.00171649
4.98832e-14
0.0017199
-1.46851e-14
0.0017303
-1.18062e-13
0.00172227
-2.0089e-13
0.0017199
-3.71365e-13
0.0017788
-5.65025e-13
0.00188998
-9.12391e-13
0.00168138
-1.05278e-12
0.000933194
-8.31747e-13
0.000444
-3.87665e-13
0.000194541
-1.78665e-13
7.91459e-05
-7.14166e-14
3.02561e-05
-2.89946e-14
1.06294e-05
-1.0036e-14
3.54694e-06
-3.44042e-15
1.08522e-06
-8.93898e-16
3.20321e-07
-7.65243e-17
8.65106e-08
1.76129e-16
2.28911e-08
2.84861e-16
5.52563e-09
2.91576e-16
1.32526e-09
3.61913e-16
2.88983e-10
3.52576e-16
6.33909e-11
3.2005e-16
1.26001e-11
3.18932e-16
2.54666e-12
3.11647e-16
4.65242e-13
3.31129e-16
8.75027e-14
2.75658e-16
1.49979e-14
2.18975e-16
2.64399e-15
2.71505e-16
5.11662e-16
2.36519e-16
3.00487e-16
2.73327e-16
-5.86282e-17
2.31179e-16
-5.73272e-17
3.25159e-16
-1.41299e-16
3.0855e-16
1.40702e-16
2.48689e-16
2.78721e-16
2.84847e-16
1.61546e-16
2.77983e-16
-7.39968e-18
1.96837e-16
-1.25063e-16
2.09617e-16
-1.78622e-17
1.77484e-16
-1.77104e-16
2.02861e-16
-1.99114e-16
1.42945e-16
1.52059e-17
2.27018e-16
1.28749e-17
2.41228e-16
2.5598e-16
2.29031e-16
8.42534e-16
2.78511e-16
8.56764e-16
2.02136e-16
2.36295e-16
1.76725e-17
-1.48807e-16
-1.18178e-17
-1.50379e-16
-7.42678e-18
-1.54865e-16
1.01032e-33
-1.78839e-16
1.89735e-18
-1.61993e-16
-5.96311e-19
-1.71995e-16
4.87891e-19
-1.47641e-16
-1.73472e-18
-1.75803e-16
-1.17094e-17
-1.30348e-16
-9.70361e-18
-1.28329e-16
-3.16587e-17
-1.14993e-16
-1.03053e-16
-1.35485e-16
-1.75315e-16
-1.05195e-16
-6.72205e-18
-8.74002e-17
8.13152e-17
-7.4444e-17
1.14221e-16
-4.43168e-17
9.48135e-17
-5.81674e-17
2.0486e-16
-5.19875e-17
2.29027e-15
-1.66018e-17
1.46908e-14
-5.46167e-18
8.90041e-14
4.81115e-17
4.78324e-13
1.35119e-17
2.6254e-12
5.22043e-17
1.30495e-11
4.50486e-17
6.57428e-11
2.03559e-17
3.01368e-10
1.41719e-16
1.38359e-09
-9.37835e-18
5.80666e-09
1.57684e-16
2.407e-08
1.42708e-17
9.16349e-08
1.92758e-16
3.39124e-07
1.52954e-16
1.1573e-06
3.05664e-16
3.77001e-06
6.60333e-16
1.13453e-05
2.27483e-15
3.19041e-05
7.15435e-15
8.23083e-05
2.23606e-14
0.00019187
6.32039e-14
0.000380545
1.61024e-13
0.000662218
3.57591e-13
0.00101351
6.94186e-13
0.00137261
1.18378e-12
0.00167193
1.7365e-12
0.00188465
2.21479e-12
0.00199122
2.50134e-12
0.00192531
2.36662e-12
0.00185957
1.56307e-12
0.0018073
6.84693e-13
0.00176086
-2.96354e-13
0.00178731
-1.82847e-13
0.00180592
-5.96054e-13
0.00175517
-1.25905e-13
0.00171624
-1.77654e-13
0.00171649
-7.44331e-14
0.0017199
-1.0685e-13
0.0017303
-2.50383e-13
0.00172227
-9.44574e-14
0.0017199
-1.27369e-13
0.0017788
-1.86407e-13
0.00188998
-1.13126e-12
0.00168138
-2.32632e-12
0.000933194
-2.2837e-12
0.000444
-1.17311e-12
0.000194541
-5.51249e-13
7.91459e-05
-2.30459e-13
3.02561e-05
-9.58658e-14
1.06294e-05
-3.52904e-14
3.54694e-06
-1.29666e-14
1.08522e-06
-4.14352e-15
3.20321e-07
-1.26713e-15
8.65106e-08
-2.50823e-16
2.28911e-08
4.05763e-17
5.52563e-09
7.17606e-17
1.32526e-09
1.34082e-16
2.88983e-10
1.10894e-16
6.33909e-11
2.40666e-16
1.25999e-11
1.62996e-16
2.54638e-12
2.23359e-16
4.64799e-13
2.56671e-16
8.70758e-14
2.53805e-16
1.49449e-14
2.2199e-16
2.85229e-15
1.73601e-16
5.53892e-16
1.38222e-16
4.20562e-16
2.40076e-16
2.92355e-16
1.72964e-16
1.04138e-16
1.76928e-16
-6.74916e-17
1.75878e-16
2.91596e-16
2.02292e-16
1.69271e-16
1.08339e-16
-2.37142e-16
7.90654e-17
-2.16651e-16
6.08102e-17
-5.92245e-17
1.42945e-16
-1.78948e-16
2.35814e-17
-1.37423e-17
1.46842e-16
7.61381e-17
3.70323e-17
2.92518e-16
1.51097e-16
-6.57569e-17
7.70258e-17
9.69006e-17
1.54357e-16
2.93087e-16
1.83738e-16
1.10995e-16
4.42354e-17
1.33398e-16
-7.58942e-18
7.3658e-17
-2.17166e-16
7.4173e-17
-3.80501e-16
4.16063e-17
-3.48029e-17
2.04575e-16
8.81998e-17
1.41109e-16
2.59124e-17
1.76752e-16
1.13841e-17
1.55488e-16
2.17057e-16
1.76955e-16
6.63532e-17
1.3993e-16
-1.10101e-16
1.35281e-16
-2.11962e-17
2.40625e-16
-8.2833e-17
1.5931e-16
4.99817e-17
2.50735e-16
4.0457e-16
2.59206e-16
4.58455e-16
2.04277e-16
9.32414e-17
1.18219e-16
7.28042e-17
1.60801e-16
3.29706e-16
1.53781e-16
2.4606e-15
1.53713e-16
1.47446e-14
1.73852e-16
8.88517e-14
1.57548e-16
4.7815e-13
1.93327e-16
2.62525e-12
1.01725e-16
1.30497e-11
1.95007e-16
6.57429e-11
4.06169e-17
3.01367e-10
4.92905e-17
1.38359e-09
5.76118e-17
5.80666e-09
4.70137e-17
2.407e-08
8.57875e-17
9.16349e-08
7.37122e-17
3.39124e-07
1.84897e-16
1.1573e-06
4.69582e-16
3.77001e-06
1.34445e-15
1.13453e-05
4.48629e-15
3.19041e-05
1.41728e-14
8.23083e-05
4.32095e-14
0.00019187
1.20869e-13
0.000380545
2.99839e-13
0.000662218
6.51179e-13
0.00101351
1.22471e-12
0.00137261
2.0102e-12
0.00167193
2.77552e-12
0.00188465
3.25999e-12
0.00199122
3.22296e-12
0.00192531
2.35059e-12
0.00185957
9.46516e-13
0.0018073
-3.08669e-13
0.00176086
-1.69526e-12
0.00178731
-8.31394e-13
0.00180592
-1.34273e-12
0.00175517
-4.53358e-13
0.00171624
-3.93776e-13
0.00171649
-1.72192e-13
0.0017199
-1.88322e-13
0.0017303
-3.7313e-13
0.00172227
2.38898e-14
0.0017199
9.71841e-14
0.0017788
2.58062e-13
0.00188998
-9.54646e-13
0.00168138
-3.00198e-12
0.000933194
-4.08513e-12
0.000444
-2.24597e-12
0.000194541
-1.06796e-12
7.91459e-05
-4.53829e-13
3.02561e-05
-1.90765e-13
1.06294e-05
-7.15384e-14
3.54694e-06
-2.66736e-14
1.08522e-06
-8.70664e-15
3.20321e-07
-2.87113e-15
8.65106e-08
-7.96509e-16
2.28911e-08
-2.58257e-16
5.52563e-09
-1.31053e-17
1.32526e-09
8.93315e-17
2.88983e-10
4.46556e-17
6.33909e-11
1.37416e-16
1.26001e-11
9.23808e-17
2.54677e-12
2.08865e-16
4.65057e-13
1.38324e-16
8.71619e-14
2.52287e-16
1.47718e-14
1.84707e-16
2.79456e-15
2.70319e-16
8.2627e-16
1.83142e-16
4.4249e-16
1.82261e-16
1.77348e-16
7.16793e-17
1.00966e-16
6.83589e-17
-2.76309e-16
3.15096e-18
-9.00701e-17
1.23768e-16
-9.31872e-17
4.22026e-17
7.99599e-17
7.22553e-17
6.87384e-17
5.89942e-17
-2.78017e-16
-1.39794e-17
-2.87503e-16
5.11608e-17
-3.04552e-16
3.50265e-17
1.1498e-16
2.00286e-16
3.08618e-16
7.85233e-17
2.70617e-16
9.12492e-17
3.78495e-16
1.01068e-16
5.97233e-16
3.42743e-17
9.90879e-16
2.02814e-17
-1.28031e-16
-4.36391e-17
4.90601e-17
2.69804e-16
7.66531e-17
9.75782e-18
2.84603e-17
1.91362e-17
8.78204e-18
1.18015e-16
1.96349e-16
-1.50162e-17
1.53686e-16
3.78929e-17
-1.34549e-16
-1.24087e-16
1.09233e-16
1.57101e-16
3.01462e-16
2.36828e-15
1.47217e-14
8.88774e-14
4.7817e-13
2.62524e-12
1.30493e-11
6.57427e-11
3.01368e-10
1.38359e-09
5.80666e-09
2.407e-08
9.16349e-08
3.39124e-07
1.1573e-06
3.77001e-06
1.13453e-05
3.19041e-05
8.23083e-05
0.00019187
0.000380545
0.000662218
0.00101351
0.00137261
0.00167193
0.00188465
0.00199122
0.00192531
0.00185957
0.0018073
0.00176086
0.00178731
0.00180592
0.00175517
0.00171624
0.00171649
0.0017199
0.0017303
0.00172227
0.0017199
0.0017788
0.00188998
0.00168138
0.000933194
0.000444
0.000194541
7.91459e-05
3.02561e-05
1.06294e-05
3.54694e-06
1.08522e-06
3.20321e-07
8.65106e-08
2.28911e-08
5.52563e-09
1.32526e-09
2.88984e-10
6.3391e-11
1.26002e-11
2.5467e-12
4.65012e-13
8.71967e-14
1.48347e-14
2.61718e-15
3.83943e-16
4.24194e-17
-3.59413e-17
3.65647e-17
2.40964e-17
-2.3473e-17
-4.3856e-17
-1.46367e-16
-2.29146e-16
-1.00587e-16
1.26689e-16
1.72117e-16
-4.24194e-17
1.42139e-16
1.18124e-16
-8.0502e-18
-1.05439e-17
1.05439e-17
)
;

boundaryField
{
    sides1
    {
        type            calculated;
        value           nonuniform List<scalar> 
20
(
2.51311e-17
1.38492e-15
5.8183e-17
1.35353e-16
1.14977e-15
2.65842e-16
5.21113e-16
5.55039e-17
1.08774e-15
2.90041e-17
-1.3279e-16
-2.51602e-17
-2.92953e-17
-2.25976e-17
-3.02854e-17
-3.02854e-17
1.00757e-17
-3.19744e-17
-1.33372e-17
-1.28131e-17
)
;
    }
    sides2
    {
        type            calculated;
        value           uniform 0;
    }
    empty
    {
        type            empty;
        value           nonuniform 0();
    }
}


// ************************************************************************* //
