/*--------------------------------*- C++ -*----------------------------------*\
| =========                 |                                                 |
| \\      /  F ield         | OpenFOAM: The Open Source CFD Toolbox           |
|  \\    /   O peration     | Version:  2012                                  |
|   \\  /    A nd           | Website:  www.openfoam.com                      |
|    \\/     M anipulation  |                                                 |
\*---------------------------------------------------------------------------*/
FoamFile
{
    version     2.0;
    format      ascii;
    class       volScalarField;
    location    "0.79";
    object      maxKappa;
}
// * * * * * * * * * * * * * * * * * * * * * * * * * * * * * * * * * * * * * //

dimensions      [0 0 0 0 0 0 0];


internalField   nonuniform List<scalar> 
2268
(
2.89278e-06
5.53195e-06
8.20666e-06
1.08183e-05
1.31436e-05
1.5135e-05
1.69108e-05
1.84027e-05
1.94815e-05
2.01425e-05
2.0354e-05
2.0354e-05
2.00459e-05
1.92752e-05
1.80686e-05
1.65202e-05
1.46024e-05
1.22042e-05
9.43431e-06
6.29369e-06
3.16252e-06
2.10346e-06
2.10346e-06
3.59886e-06
5.89728e-06
8.45037e-06
1.09758e-05
1.32534e-05
1.52403e-05
1.70165e-05
1.84887e-05
1.95519e-05
2.02247e-05
2.04392e-05
2.04392e-05
2.01199e-05
1.93544e-05
1.81706e-05
1.66394e-05
1.47589e-05
1.24166e-05
9.73708e-06
6.72866e-06
3.74653e-06
2.03353e-06
2.03353e-06
4.43204e-06
6.43116e-06
8.8383e-06
1.12805e-05
1.35338e-05
1.55267e-05
1.72975e-05
1.87511e-05
1.98054e-05
2.04678e-05
2.06748e-05
2.06748e-05
2.03737e-05
1.96173e-05
1.8433e-05
1.68811e-05
1.49723e-05
1.2655e-05
1.00156e-05
7.21891e-06
4.38785e-06
3.27989e-06
3.27989e-06
5.65333e-06
7.29572e-06
9.48765e-06
1.17423e-05
1.38644e-05
1.58156e-05
1.75722e-05
1.9003e-05
2.00593e-05
2.07549e-05
2.09671e-05
2.09671e-05
2.06619e-05
1.99023e-05
1.87505e-05
1.72847e-05
1.55708e-05
1.34683e-05
1.10649e-05
8.45599e-06
5.76326e-06
4.73599e-06
4.73599e-06
6.69722e-06
8.14582e-06
1.02089e-05
1.23651e-05
1.44453e-05
1.63998e-05
1.81321e-05
1.95115e-05
2.05363e-05
2.12149e-05
2.14396e-05
2.14396e-05
2.11838e-05
2.04335e-05
1.92629e-05
1.77715e-05
1.60304e-05
1.40188e-05
1.1729e-05
9.54698e-06
7.453e-06
6.82833e-06
6.82833e-06
8.12407e-06
9.33174e-06
1.11748e-05
1.3097e-05
1.49802e-05
1.68473e-05
1.85565e-05
1.99421e-05
2.103e-05
2.17643e-05
2.19667e-05
2.19667e-05
2.16575e-05
2.0862e-05
1.97438e-05
1.84137e-05
1.70082e-05
1.53501e-05
1.34845e-05
1.16667e-05
9.94681e-06
9.98534e-06
9.98534e-06
9.2821e-06
1.04004e-05
1.21399e-05
1.39807e-05
1.58395e-05
1.76926e-05
1.93119e-05
2.06045e-05
2.16519e-05
2.23947e-05
2.26843e-05
2.26843e-05
2.24642e-05
2.16925e-05
2.05595e-05
1.92009e-05
1.77451e-05
1.61817e-05
1.45601e-05
1.35368e-05
1.27231e-05
1.21365e-05
1.21365e-05
1.12527e-05
1.18028e-05
1.3312e-05
1.4928e-05
1.66733e-05
1.85637e-05
2.02232e-05
2.15067e-05
2.25586e-05
2.32733e-05
2.34577e-05
2.34577e-05
2.31121e-05
2.22406e-05
2.11711e-05
2.00474e-05
1.89635e-05
1.78089e-05
1.68949e-05
1.66646e-05
1.63251e-05
1.83264e-05
2.63785e-05
0.000183921
0.000283293
0.000337072
0.000356948
0.00044723
0.000590038
0.000590038
0.00062333
0.000668088
0.000707645
0.000739992
0.000776634
0.000871063
0.000915823
0.000915823
0.000862363
0.000678117
0.000430224
0.000211527
0.00017613
0.000248545
0.000301026
0.000391916
0.000539894
0.000539894
0.00050226
0.000537129
0.000607002
0.000934691
0.00169768
0.00215928
0.00246484
0.00257945
0.00257945
0.00209962
0.000934945
0.000141695
5.34935e-05
0.000199957
0.000269975
0.000548028
0.000548028
0.000438359
0.000579144
0.000678824
0.000888792
0.00160731
0.00254862
0.00352415
0.00449209
0.00487804
0.00487804
0.00411592
0.00274776
0.00148391
0.000300463
6.15111e-05
0.000224192
0.000496885
0.00113203
0.00113203
0.000592645
9.16965e-05
0.00077802
0.00194465
0.00282177
0.00337512
0.00379464
0.00379464
0.00284888
0.0012731
0.00127812
0.00127812
0.000965781
0.000446583
7.9454e-05
0.00028385
0.00084051
0.00150695
0.00150695
0.00100099
9.56489e-05
0.000135684
0.000864395
0.00142531
0.00179632
0.00179632
0.0012559
0.00139074
0.00139074
0.00106161
0.000620122
0.000160975
8.75996e-05
5.93294e-05
0.000335717
0.000999838
0.0012917
0.0012917
0.00114975
0.000305825
5.21427e-05
0.000235
0.00091272
0.00106388
0.00106388
0.00103318
0.000797983
0.000400301
0.000124267
9.2785e-05
8.50549e-05
6.63851e-05
4.4117e-05
0.00029381
0.000908044
0.000927574
0.000927574
0.000756322
0.000519584
0.000117716
7.42082e-05
0.000122701
0.000334826
0.000334826
0.000199185
0.000143608
0.000216995
0.000466338
0.000466338
0.000336993
0.000108287
4.41365e-05
0.000262531
0.000635687
0.001028
0.001028
0.00072458
0.000576747
0.000533583
0.000252789
7.31831e-05
5.39802e-05
4.72413e-05
0.000149297
0.000601414
0.00117449
0.00129545
0.00129545
0.000805251
0.000176797
8.28571e-05
0.00013638
0.000132365
0.000120077
9.02332e-05
5.00461e-05
4.29708e-05
3.86016e-05
3.41123e-05
3.09251e-05
2.87854e-05
2.71429e-05
2.56227e-05
2.47804e-05
2.3712e-05
2.2938e-05
2.21105e-05
2.26558e-05
2.1908e-05
2.22308e-05
2.53551e-05
7.93307e-05
0.000243908
0.000179901
0.000401428
0.000411117
0.000416638
0.000422978
0.000418405
0.000373369
0.000310263
0.000244704
0.00018795
0.000126722
0.000110543
9.72877e-05
7.84658e-05
6.21141e-05
5.29635e-05
4.85586e-05
4.86233e-05
3.83299e-05
3.00052e-05
5.21565e-05
0.000253784
0.000517532
0.000299417
0.000486263
0.000508281
0.000539554
0.00059847
0.000732821
0.000919784
0.0011996
0.00139111
0.00165125
0.00173225
0.00164294
0.00144016
0.00113442
0.000843536
0.000642792
0.000433653
0.00023955
0.000115771
5.95428e-05
7.76776e-05
0.000408423
0.000673068
0.000438802
0.00059646
0.000651727
0.000751218
0.000927474
0.00119807
0.00178284
0.00274445
0.00327149
0.00397355
0.00378994
0.00316211
0.00286444
0.00236668
0.00184036
0.00151566
0.00123996
0.000708197
0.00040705
0.000262652
0.000190438
0.000431275
0.000744659
0.000744659
0.000836161
0.000914213
0.00107554
0.00137152
0.00197889
0.00292188
0.00393612
0.00459354
0.0046175
0.0046175
0.0036236
0.00204926
0.00167465
0.0018551
0.00215845
0.00223416
0.00212726
0.0019134
0.00167671
0.00117717
0.0009638
0.00058984
0.000628391
0.00105828
0.0011433
0.00137114
0.00179247
0.00244462
0.0032852
0.00377883
0.00414803
0.00410851
0.00390729
0.00297863
0.00211754
0.00222705
0.00312324
0.00285734
0.00273401
0.00272362
0.00278257
0.0027685
0.00247101
0.00216624
0.00152735
0.000942215
0.00122329
0.00128603
0.00146203
0.00180248
0.00226678
0.00280196
0.00311321
0.00334369
0.00303848
0.00344069
0.00336917
0.00334003
0.00328062
0.0032808
0.0032808
0.00314728
0.00303807
0.00303597
0.00301883
0.00302931
0.00329611
0.00313885
0.00264564
0.00136025
0.00143094
0.00159544
0.00185889
0.00223607
0.0025465
0.00270903
0.00272217
0.00216941
0.00248147
0.00274207
0.00279615
0.00271237
0.00302679
0.00280947
0.00218913
0.00247043
0.00281333
0.00289061
0.00328309
0.00394412
0.00406304
0.00411167
0.00144326
0.00148446
0.00159994
0.00177454
0.00203327
0.00234615
0.00257242
0.00257242
0.00234042
0.00157199
0.00211608
0.0025158
0.00260014
0.00280153
0.00266805
0.00187236
0.0015525
0.00164855
0.00236679
0.00258548
0.00301711
0.00370424
0.00411167
0.00150024
0.00155687
0.00165175
0.00178506
0.0019534
0.00216132
0.00238744
0.00254656
0.00236988
0.00192695
0.00126795
0.00166513
0.00219011
0.00238382
0.00227347
0.00212157
0.00207179
0.00172929
0.00161746
0.00177289
0.00225876
0.00265645
0.00332872
0.00151208
0.00154721
0.0016113
0.00170619
0.0018291
0.00198046
0.00217167
0.00234676
0.00226594
0.00204772
0.00159846
0.00101191
0.000942049
0.00126037
0.00150063
0.00169645
0.00183032
0.00201896
0.00201896
0.00156959
0.00147363
0.00143874
0.0021921
0.00152314
0.00155389
0.00160174
0.00166584
0.00173933
0.00184062
0.00196948
0.00210635
0.00212664
0.00192173
0.00166226
0.00129902
0.000925046
0.000653363
0.000656685
0.000729233
0.000997878
0.00142935
0.00167222
0.00174913
0.00196004
0.00196004
0.00139821
0.00150297
0.00151972
0.00155226
0.00159899
0.00166115
0.00172489
0.00179902
0.0018704
0.00191635
0.00178293
0.00162649
0.00139843
0.00111707
0.000825226
0.000569168
0.000406552
0.000308183
0.000553595
0.000782686
0.00109642
0.00139435
0.00146415
0.00131816
0.00148132
0.00149092
0.00151078
0.00153871
0.0015774
0.00161267
0.00165153
0.00167867
0.00169696
0.00163238
0.00147632
0.00131414
0.00111768
0.000922858
0.000756543
0.000610759
0.000476098
0.00039767
0.000397138
0.00051569
0.000694296
0.000783935
0.000839238
0.00145123
0.00145661
0.00146845
0.0014813
0.00149959
0.00150924
0.00152007
0.00151356
0.00150069
0.00144468
0.00134221
0.00119993
0.0010558
0.000891844
0.000731506
0.000597184
0.000494618
0.000449312
0.000404375
0.000410674
0.00043816
0.000437353
0.000465821
0.00141477
0.00141654
0.00142115
0.00142295
0.00142633
0.00141982
0.00140985
0.00138441
0.0013463
0.0012808
0.00119065
0.00107031
0.000931815
0.000811057
0.000696598
0.00059821
0.000516845
0.000463586
0.00043913
0.000466855
0.000469176
0.000469176
0.000465821
0.00138071
0.00137939
0.00137772
0.00137046
0.00136206
0.00134338
0.00131855
0.00127975
0.0012275
0.00115591
0.00106478
0.000960584
0.000851586
0.000738415
0.000627917
0.000533471
0.000458832
0.000419215
0.000384793
0.000392746
0.000415937
0.000416182
0.000440329
0.00134633
0.00134296
0.00133714
0.00132434
0.00130778
0.00128159
0.00124646
0.00120059
0.00113982
0.0010662
0.000978229
0.000885743
0.000786112
0.000686782
0.000591234
0.000505598
0.000432404
0.000377044
0.000338345
0.000323947
0.000335606
0.000348108
0.000386121
0.00131746
0.00131206
0.00130266
0.00128564
0.00126312
0.00123187
0.00119005
0.00113936
0.00107728
0.00100602
0.000924507
0.000833842
0.000736981
0.000638693
0.000542281
0.000451864
0.000370451
0.000315564
0.000273536
0.000264373
0.000274457
0.000294763
0.000332403
0.00129342
0.0012869
0.00127525
0.00125547
0.00122882
0.00119451
0.00115102
0.00110051
0.00104025
0.000970152
0.00089174
0.000805851
0.000714794
0.000620968
0.00052712
0.000436471
0.000351143
0.000275977
0.000211594
0.000184186
0.000198341
0.000234571
0.000290315
0.00127542
0.00126851
0.0012556
0.00123428
0.00120768
0.00117411
0.00113087
0.00107917
0.00101798
0.000947254
0.000868425
0.000781951
0.000690998
0.000597393
0.00050384
0.000411352
0.000319713
0.000231579
0.000146608
0.000110143
0.000147175
0.00022856
0.00026511
0.0012648
0.00125705
0.00124359
0.00122506
0.00119866
0.00116436
0.00112078
0.00106994
0.00101078
0.000943887
0.000870018
0.000789054
0.000703559
0.000612893
0.000519443
0.000424929
0.000330728
0.000239055
0.000148606
7.08691e-05
0.000118667
0.000205514
0.000280235
0.00126563
0.00125729
0.00124351
0.00122502
0.00119887
0.00116532
0.00112266
0.00107237
0.00101312
0.000946123
0.000872098
0.000791143
0.000706637
0.000619134
0.000531581
0.000443692
0.000355286
0.00027008
0.000208089
0.000183587
0.000210234
0.000270938
0.000344741
0.00127663
0.00126908
0.00125579
0.00123425
0.00120738
0.00117454
0.00113363
0.00108623
0.00103104
0.00096955
0.000901899
0.000828172
0.000750395
0.000667841
0.000582307
0.000498171
0.000427583
0.000371631
0.0003336
0.000324941
0.000346777
0.000395956
0.00045494
0.00129577
0.00128878
0.00127614
0.00125578
0.00122872
0.00119549
0.0011554
0.00110933
0.00105525
0.00099502
0.000928813
0.000862976
0.000791029
0.000723171
0.000653801
0.000595893
0.00054274
0.000510335
0.000490746
0.000502763
0.000530455
0.000578189
0.000624654
0.00132336
0.00131704
0.00130517
0.00128641
0.00126134
0.00123041
0.0011924
0.00115018
0.00109988
0.00104854
0.000989955
0.000933638
0.000873085
0.000818868
0.000764464
0.000724393
0.000689505
0.000677688
0.000680996
0.000710345
0.000736242
0.000775616
0.000803662
0.00135959
0.00135402
0.001343
0.00132623
0.00130384
0.00127618
0.00124278
0.00120544
0.00116216
0.00111796
0.00106895
0.00102289
0.000974401
0.000934209
0.000897799
0.000875836
0.000863686
0.000878787
0.000896313
0.000912363
0.000920781
0.000936118
0.000948016
0.00140532
0.00140063
0.00139059
0.00137598
0.00135634
0.00133233
0.00130414
0.00127281
0.00123777
0.00120247
0.00116501
0.00113126
0.0010972
0.00107133
0.00105204
0.00105142
0.00106567
0.00108324
0.00107179
0.00106256
0.00104433
0.00104074
0.00104882
0.0014601
0.00145644
0.00144789
0.00143609
0.0014201
0.0014008
0.00137866
0.00135419
0.00132788
0.00130171
0.00127519
0.00125212
0.00123159
0.00122283
0.00122651
0.00124748
0.00125299
0.00122129
0.00118221
0.00114678
0.00111135
0.0011037
0.00112182
0.001525
0.00152223
0.00151519
0.00150609
0.0014938
0.00147959
0.00146385
0.00144693
0.00142964
0.0014131
0.00139768
0.00138674
0.00138295
0.00139471
0.00141792
0.0014195
0.00136372
0.0013008
0.0012376
0.00118943
0.00114457
0.00114506
0.00117853
0.00159976
0.00159807
0.00159326
0.00158743
0.00157936
0.00157041
0.0015607
0.0015504
0.00154055
0.0015318
0.0015262
0.00152777
0.00154157
0.00156845
0.00157051
0.00149783
0.00143555
0.0013584
0.00128396
0.00120696
0.00115947
0.00117676
0.00122399
0.00168326
0.0016825
0.00167972
0.00167699
0.00167307
0.00166939
0.00166565
0.00166229
0.00166019
0.00166058
0.00166627
0.00168255
0.00171052
0.00171914
0.00163924
0.0015537
0.00145195
0.00135969
0.00126228
0.00119079
0.00116618
0.00120865
0.0012524
0.00177864
0.00177857
0.0017778
0.00177776
0.00177735
0.00177773
0.00177846
0.00178042
0.00178501
0.00179425
0.00181065
0.00183758
0.00185538
0.00178644
0.00171216
0.00158634
0.00147028
0.00134684
0.00123634
0.00116739
0.00116154
0.00121747
0.00127166
0.00187871
0.00188001
0.00188202
0.00188487
0.00188774
0.00189202
0.00189712
0.00190421
0.00191562
0.00193371
0.00195849
0.00198165
0.00193344
0.0018372
0.00169497
0.00155497
0.00141827
0.00128365
0.00118561
0.00113618
0.00115955
0.00123179
0.00128225
0.00199499
0.00199678
0.00199925
0.00200268
0.00200782
0.0020148
0.00202245
0.00203312
0.00205027
0.00207309
0.00209753
0.00207828
0.00199389
0.00185609
0.00169097
0.00153379
0.00136875
0.00122363
0.00112525
0.00109707
0.00113581
0.00122451
0.00129832
0.00211084
0.00211329
0.00211704
0.00212301
0.00213105
0.00214056
0.00215214
0.00216818
0.00219105
0.00221455
0.0022189
0.00212496
0.00200247
0.00181305
0.00163199
0.0014502
0.00127808
0.00114797
0.00107126
0.00107005
0.00114369
0.00124901
0.00131405
0.00224585
0.00224835
0.00225229
0.00225847
0.00226579
0.00227658
0.00229019
0.00230917
0.00232979
0.00234115
0.00228502
0.00218838
0.00200036
0.00179075
0.00158858
0.00138406
0.0012046
0.00107155
0.00101373
0.00102895
0.00112083
0.0012414
0.00133873
0.00237447
0.00237725
0.00238201
0.0023892
0.00239818
0.00241165
0.00242932
0.0024515
0.00246715
0.002448
0.00233636
0.00217092
0.0019381
0.00170698
0.00148237
0.00127757
0.00111508
0.00100559
0.000971277
0.00104197
0.00115245
0.0012867
0.00136546
0.00252828
0.00253122
0.00253614
0.00254268
0.00255022
0.00256259
0.00257968
0.00259539
0.00259088
0.00251002
0.00239845
0.00216892
0.00190909
0.0016624
0.00142565
0.00121514
0.00104606
0.000934784
0.000925305
0.00100916
0.00113629
0.00128365
0.00140131
0.00266677
0.00266984
0.00267502
0.00268153
0.00269075
0.00270581
0.00272382
0.0027353
0.00270354
0.00257345
0.00237025
0.00208819
0.00180989
0.00154744
0.0013103
0.00111229
0.000968201
0.000888176
0.000937736
0.00104782
0.00118991
0.00134813
0.00143673
0.00284103
0.00284501
0.00285139
0.00285938
0.00286918
0.00288042
0.00288907
0.00287632
0.00278004
0.0026507
0.00238602
0.00207668
0.00178425
0.00151077
0.00126743
0.00106282
0.00091081
0.000841636
0.000904138
0.00102768
0.00117992
0.00134609
0.00148111
0.00299561
0.00299867
0.00300237
0.00300517
0.0030058
0.0030058
0.00300074
0.00297279
0.00287072
0.0026333
0.00229774
0.00196159
0.00165754
0.00138577
0.00115364
0.000968636
0.000846521
0.000840715
0.000943538
0.00108775
0.0012537
0.00142915
0.00148111
0.000180841
0.000121249
0.000161554
0.000150234
0.000180841
0.000186264
0.000326576
0.000443756
0.000365857
0.000489149
0.000946608
0.00114256
0.000684721
0.000821259
0.000946608
0.00114256
0.000684721
0.000821259
0.000588034
0.000579859
0.000544458
0.000481814
0.000270667
0.000350623
0.00204533
0.0018901
0.0014529
0.00151618
0.0041485
0.0041043
0.00388431
0.00370639
0.0041485
0.0041043
0.00410445
0.00399036
0.00374902
0.00385864
0.00410445
0.00399036
0.00212465
0.00213012
0.00234332
0.00224395
0.000876511
0.00084198
0.000831206
0.00108742
0.00111259
0.00084198
0.000909257
0.00127411
0.000846339
0.000822247
0.000909257
0.00103048
0.000468506
0.000477099
0.000494334
0.000556138
0.000468506
0.000477099
0.000494334
0.000468986
0.000432298
0.000432419
0.000430794
0.000421127
0.000401438
0.000414146
0.000422056
0.00042089
0.000359186
0.000375636
0.000389938
0.000398596
0.0003301
0.000356823
0.000377361
0.000400268
0.000320909
0.000358075
0.000391109
0.000423419
0.000340716
0.000377846
0.000414782
0.0004493
0.000399343
0.000434204
0.000469797
0.000503466
0.000502276
0.00053124
0.000564265
0.00059266
0.000662136
0.000685673
0.000712776
0.000737202
0.000829836
0.000847099
0.000868309
0.000890665
0.000966096
0.00098231
0.00100303
0.00102748
0.00106917
0.00108944
0.00111466
0.00114246
0.00115297
0.00117854
0.00120965
0.00124137
0.00122156
0.00125242
0.00128794
0.00132259
0.00127681
0.00131206
0.00135014
0.00138706
0.00131274
0.00135303
0.0013937
0.00143439
0.0013411
0.00138675
0.00143164
0.00147642
0.00136178
0.00141318
0.00146315
0.00151272
0.00138631
0.00144353
0.00149825
0.00155294
0.00141034
0.00147261
0.0015322
0.00159151
0.00144286
0.00150928
0.00157308
0.00163634
0.0014758
0.00154621
0.00161317
0.00168012
0.00151691
0.00159095
0.00166061
0.0017308
0.00155628
0.0016332
0.00170482
0.00177746
0.00160409
0.00168382
0.00175729
0.0018323
0.00160409
0.00168382
0.00175729
0.0018323
0.000430278
0.000824819
0.000860828
0.000860828
0.000727326
0.000970622
0.00183408
0.0014833
0.00109514
0.000587561
0.000454954
0.000517384
0.00102068
0.0010786
0.0010786
0.000679975
0.000265623
0.000135966
0.000442914
0.00133824
0.00113666
0.000608203
0.000824569
0.00166689
0.00390275
0.004526
0.00311851
0.00294712
0.0022058
0.00175027
0.00101991
0.000667126
0.00094597
0.000877424
0.000402443
0.000360537
0.00077688
0.000806853
0.00133824
0.000913742
0.000536806
0.00166242
0.00544064
0.00724176
0.00724176
0.00570038
0.00431323
0.00261729
0.000422136
0.000163268
0.00015885
0.000188895
0.000727138
0.000885152
0.000734538
0.00100999
0.00100999
0.00128729
0.000802049
0.00120526
0.00570378
0.00680034
0.00680034
0.00436227
0.00271263
0.00264566
0.0017848
0.00112239
0.000185134
0.0001293
0.000225435
0.00108145
0.00110478
0.00110478
0.000807734
0.000197685
0.000525777
0.000948293
0.00522922
0.00686776
0.00657267
0.00272853
0.00173135
0.00164063
0.00177552
0.00149963
0.00104024
0.000451594
0.000579235
0.000259202
0.000259102
0.000981514
0.000910254
0.000820739
0.000136997
0.000302177
0.00299
0.00602242
0.00686776
0.0040795
0.00158779
0.000802262
0.000797102
0.00154405
0.00157012
0.00157012
0.00121536
0.00121536
0.00125273
0.00028502
0.000213389
0.000215631
0.00017558
0.000154357
0.00181943
0.00478416
0.00572995
0.00547884
0.00296706
0.0014881
0.000812575
0.000578696
0.000855295
0.0014181
0.000586642
0.000913618
0.00151276
0.00162868
0.00162868
0.000885239
0.00054245
0.000690443
0.00116113
0.00416402
0.00574192
0.00574192
0.00445341
0.001847
0.00126128
0.000754242
0.000516136
0.000604299
0.000657906
0.000844485
0.000963231
0.00130944
0.0017341
0.00216987
0.00223633
0.00207845
0.00215795
0.00231229
0.00499415
0.00499415
0.0045638
0.00240679
0.00139899
0.00136768
0.000580825
0.000828045
0.00100345
0.000944933
0.00131598
0.00205186
0.00204567
0.00237337
0.00285306
0.00286341
0.00286341
0.00257988
0.00292999
0.00396838
0.00305367
0.00208669
0.00143393
0.00129474
0.00061374
0.000789617
0.00107459
0.00131188
0.00151909
0.00241335
0.00282874
0.00282874
0.00254364
0.00270473
0.00318452
0.00372527
0.00392737
0.00392737
0.00218063
0.0014976
0.00114696
0.00112182
0.000281815
0.000390983
0.000781674
0.00122177
0.00184654
0.00237114
0.00275453
0.00275453
0.00234855
0.00171954
0.00233026
0.00297261
0.00363674
0.00406268
0.00406268
0.000664301
0.000576428
0.000640554
0.000615824
0.000431427
0.000775484
0.001468
0.00203184
0.00247873
0.00247873
0.0024648
0.00210495
0.00146602
0.00145898
0.00195075
0.00245478
0.0030439
0.00351213
0.00351213
0.00153587
0.00153587
0.00133593
0.00099104
0.000708248
0.00136124
0.00247314
0.00249109
0.00249109
0.00216095
0.00210433
0.00166022
0.00111971
0.00169255
0.00215061
0.00250849
0.00286757
0.00339379
0.00339379
0.000922508
0.000848872
0.000847701
0.000741594
0.00116947
0.00170256
0.00200828
0.00217476
0.00207081
0.00193063
0.00152654
0.00111357
0.00140132
0.00188938
0.00221598
0.00249437
0.00278527
0.00333585
0.00345829
0.000577487
0.000577487
0.000557574
0.000638451
0.000785365
0.00108902
0.00140547
0.00147515
0.00123451
0.00103136
0.000774985
0.00112903
0.0017022
0.00209144
0.00231519
0.00249972
0.00271649
0.00353666
0.00381532
0.000433289
0.00038948
0.000320566
0.000342669
0.000495637
0.000775819
0.000987875
0.000980286
0.000876084
0.00084403
0.0010223
0.00153097
0.00194286
0.00218827
0.00229904
0.00237645
0.00249017
0.00329804
0.00381532
0.000469735
0.000469735
0.000389194
0.000321835
0.000433592
0.000622297
0.000887337
0.00109314
0.00121249
0.00127289
0.00152344
0.00188019
0.00211201
0.00221855
0.00221855
0.00221197
0.00223706
0.00307035
0.00361911
0.000420798
0.000426373
0.00044764
0.00052017
0.000704494
0.000921964
0.00115267
0.00136268
0.00152245
0.00172065
0.00197802
0.00217935
0.00223318
0.00223318
0.00219865
0.00205516
0.00194306
0.00300918
0.0035646
0.000511788
0.00054494
0.000605301
0.00073744
0.000929011
0.00120762
0.00149665
0.00176012
0.00196301
0.00211709
0.00223721
0.00228248
0.00228248
0.00220089
0.00203922
0.0017932
0.00159543
0.00273611
0.00357443
0.000489039
0.000558453
0.000647884
0.00077624
0.000965984
0.0012068
0.00148612
0.00176166
0.00198497
0.00213673
0.00221643
0.00221643
0.00218958
0.00203118
0.00182144
0.00153136
0.00135363
0.00277177
0.00357443
0.000574434
0.000661931
0.00076561
0.000906416
0.00107652
0.0012867
0.00150975
0.00172752
0.00191627
0.00204496
0.00207601
0.00207601
0.0020077
0.00184447
0.00164606
0.00137548
0.00111633
0.00233757
0.00332489
0.000582873
0.000686425
0.000804999
0.000948812
0.00112117
0.00131534
0.00153073
0.00171956
0.00188864
0.00199264
0.00199264
0.00198939
0.00191583
0.00175793
0.00157139
0.00133351
0.00112459
0.00212
0.00308154
0.000657642
0.000765294
0.000888656
0.00103322
0.00119137
0.00137615
0.00155766
0.00173053
0.00188252
0.0019681
0.0019681
0.00196749
0.00188786
0.00173028
0.00154445
0.00132033
0.00112986
0.00181735
0.00266944
0.000702502
0.000808515
0.00093103
0.00106356
0.00120695
0.00136836
0.00153192
0.00169613
0.00183224
0.00191177
0.00193091
0.00193091
0.00186415
0.00171531
0.00152862
0.00130337
0.00109848
0.00144023
0.00211098
0.000843363
0.000945292
0.0010642
0.00117627
0.00128184
0.00140358
0.00152312
0.00165131
0.00175236
0.00181969
0.00185392
0.00185392
0.00182377
0.00170796
0.00153288
0.00131665
0.00109211
0.0010978
0.00155468
0.00100202
0.00110374
0.00121988
0.00130961
0.00138264
0.00147341
0.00156015
0.00164632
0.00170607
0.00174087
0.00175507
0.00175507
0.00174946
0.00168812
0.00154852
0.00134928
0.00112155
0.00086673
0.00106114
0.00117086
0.00127497
0.00138506
0.00144339
0.00149951
0.00159448
0.00167822
0.00174329
0.00175405
0.00175405
0.00173536
0.00169181
0.00165291
0.00163032
0.00155612
0.00138926
0.00117892
0.000928016
0.000642568
0.00131101
0.00141421
0.0015051
0.00154195
0.00161682
0.00175291
0.00186322
0.0019261
0.0019261
0.00190805
0.00183532
0.00172371
0.00161135
0.00157569
0.00157443
0.00147454
0.0013067
0.00109083
0.00061896
0.00143618
0.0015319
0.00161067
0.00164695
0.00174991
0.00192967
0.00208116
0.00216144
0.00216144
0.00212495
0.00200946
0.00183394
0.00164002
0.00158224
0.00158224
0.00157304
0.00146943
0.00130669
0.000853716
0.00153659
0.00162565
0.00169807
0.0017451
0.00187965
0.00210273
0.00230566
0.00241289
0.00241289
0.00236931
0.00222634
0.00199743
0.00173073
0.00160841
0.00169884
0.00169884
0.00167777
0.0015699
0.00117583
0.00161534
0.00170301
0.00178274
0.00184991
0.00200754
0.00226356
0.00251704
0.00265663
0.00265663
0.0026205
0.00246877
0.00219465
0.00186093
0.00165017
0.0018262
0.00190047
0.00190047
0.00185162
0.00152131
0.00168522
0.00177937
0.00186895
0.00195667
0.00213256
0.0024101
0.00270743
0.00288333
0.00288333
0.00287155
0.00273191
0.00242159
0.00201201
0.00171934
0.00197386
0.00213926
0.00214533
0.00214533
0.00186534
0.00173678
0.00183957
0.00194041
0.0020503
0.00224921
0.00254582
0.00288
0.00309872
0.00312554
0.00312554
0.00301334
0.00268469
0.00219909
0.00181155
0.00214633
0.00240524
0.00245944
0.00245944
0.00220703
0.00180116
0.00191468
0.00202681
0.00215436
0.00237475
0.00268484
0.00304246
0.00330271
0.00337929
0.00337929
0.00330453
0.00296566
0.00240088
0.00190121
0.00232861
0.00268208
0.00278748
0.00278748
0.00256935
0.00184454
0.00197069
0.00209661
0.00224063
0.0024843
0.00281361
0.00319068
0.00349519
0.00363128
0.00363128
0.00360548
0.00327101
0.00262985
0.00201431
0.0025156
0.00296888
0.00311701
0.00311701
0.0029183
0.00191827
0.00205435
0.00219062
0.00234443
0.00260342
0.00294873
0.00333853
0.00368079
0.00387378
0.00389706
0.00389706
0.00356632
0.00284965
0.00213102
0.00270295
0.00325135
0.00345119
0.00345119
0.00328217
0.00195918
0.00210717
0.00225738
0.00242284
0.00269846
0.00306462
0.0034691
0.003851
0.00410053
0.00417987
0.00417987
0.00387882
0.00307759
0.00220948
0.00288732
0.00352934
0.00375082
0.00375082
0.00358743
0.00204388
0.00219904
0.00235761
0.0025296
0.00281098
0.003188
0.0036001
0.00400734
0.004298
0.00442928
0.00442928
0.00416116
0.0032196
0.00214057
0.00304418
0.00379052
0.00405784
0.00405784
0.00390466
0.00207826
0.00224207
0.00241155
0.00259347
0.00288214
0.00327474
0.00369969
0.00413305
0.00446275
0.0046521
0.0046521
0.0044242
0.00335627
0.00202842
0.0031746
0.00399213
0.00427756
0.00427756
0.00412431
0.00217597
0.00234449
0.00251805
0.00270431
0.00299081
0.00338458
0.00380913
0.00425049
0.00459806
0.0048208
0.0048208
0.0046014
0.00336617
0.00188864
0.00325909
0.00415502
0.0044966
0.0044966
0.00436247
0.00219617
0.00237028
0.00254879
0.00274188
0.00303081
0.00343097
0.0038609
0.00431115
0.00467543
0.00492024
0.00492024
0.0047115
0.00339246
0.00170292
0.00332334
0.00424022
0.00458637
0.00458637
0.00446755
0.00231134
0.00249093
0.00267123
0.00286841
0.00315293
0.00354662
0.00397
0.00440928
0.00476953
0.00500518
0.00500518
0.00479026
0.00331766
0.00162299
0.00327095
0.0042695
0.00471828
0.00471828
0.00464167
)
;

boundaryField
{
    leftWall
    {
        type            calculated;
        value           uniform 0;
    }
    rightWall
    {
        type            calculated;
        value           uniform 0;
    }
    lowerWall
    {
        type            calculated;
        value           uniform 0;
    }
    atmosphere
    {
        type            calculated;
        value           uniform 0;
    }
    defaultFaces
    {
        type            empty;
    }
}


// ************************************************************************* //
