/*--------------------------------*- C++ -*----------------------------------*\
| =========                 |                                                 |
| \\      /  F ield         | OpenFOAM: The Open Source CFD Toolbox           |
|  \\    /   O peration     | Version:  2012                                  |
|   \\  /    A nd           | Website:  www.openfoam.com                      |
|    \\/     M anipulation  |                                                 |
\*---------------------------------------------------------------------------*/
FoamFile
{
    version     2.0;
    format      ascii;
    class       surfaceScalarField;
    location    "0.79";
    object      phi;
}
// * * * * * * * * * * * * * * * * * * * * * * * * * * * * * * * * * * * * * //

dimensions      [0 3 -1 0 0 0 0];
oriented        oriented;


internalField   nonuniform List<scalar> 
4432
(
-3.35983e-06
3.35983e-06
-6.55695e-06
3.19712e-06
-9.7562e-06
3.19925e-06
-1.28753e-05
3.11908e-06
-1.5653e-05
2.77768e-06
-1.80286e-05
2.37564e-06
-2.01492e-05
2.12059e-06
-2.1927e-05
1.7778e-06
-2.32179e-05
1.29089e-06
-2.40029e-05
7.85019e-07
-2.42598e-05
2.56926e-07
-2.38883e-05
-3.71523e-07
-2.29715e-05
-9.16793e-07
-2.15312e-05
-1.44032e-06
-1.96826e-05
-1.84862e-06
-1.7397e-05
-2.28554e-06
-1.4525e-05
-2.87204e-06
-1.1219e-05
-3.30602e-06
-7.42577e-06
-3.79321e-06
-3.65237e-06
-3.7734e-06
-8.26791e-07
-2.82557e-06
1.9766e-06
-2.80339e-06
1.9766e-06
-3.38381e-06
6.74364e-06
-6.59331e-06
6.40662e-06
-9.78837e-06
6.3943e-06
-1.28943e-05
6.22503e-06
-1.56795e-05
5.56286e-06
-1.80865e-05
4.78265e-06
-2.02302e-05
4.26426e-06
-2.20044e-05
3.55202e-06
-2.32911e-05
2.57763e-06
-2.40986e-05
1.59249e-06
-2.43599e-05
5.18217e-07
-2.397e-05
-7.6145e-07
-2.30473e-05
-1.8395e-06
-2.16154e-05
-2.8722e-06
-1.97634e-05
-3.70066e-06
-1.7477e-05
-4.57191e-06
-1.46122e-05
-5.73679e-06
-1.13035e-05
-6.61477e-06
-7.54657e-06
-7.55013e-06
-3.82428e-06
-7.49569e-06
-9.73272e-07
-5.67658e-06
1.34895e-06
-5.12561e-06
3.32555e-06
-3.44682e-06
1.01904e-05
-6.67189e-06
9.6317e-06
-9.86572e-06
9.58813e-06
-1.2988e-05
9.3473e-06
-1.58371e-05
8.412e-06
-1.83093e-05
7.25477e-06
-2.04851e-05
6.44011e-06
-2.22693e-05
5.33616e-06
-2.3571e-05
3.87936e-06
-2.43796e-05
2.40115e-06
-2.46405e-05
7.79031e-07
-2.42668e-05
-1.13507e-06
-2.33423e-05
-2.76407e-06
-2.18893e-05
-4.32515e-06
-1.9979e-05
-5.61101e-06
-1.75974e-05
-6.9535e-06
-1.46366e-05
-8.69761e-06
-1.11743e-05
-1.00771e-05
-7.24524e-06
-1.14792e-05
-3.0556e-06
-1.16853e-05
5.10018e-07
-9.24219e-06
2.83363e-06
-7.44921e-06
6.15918e-06
-3.48397e-06
1.36744e-05
-6.73224e-06
1.288e-05
-9.94791e-06
1.28038e-05
-1.30536e-05
1.2453e-05
-1.5915e-05
1.12733e-05
-1.8448e-05
9.78781e-06
-2.06795e-05
8.67156e-06
-2.24958e-05
7.15249e-06
-2.38421e-05
5.22567e-06
-2.47154e-05
3.2744e-06
-2.49841e-05
1.04781e-06
-2.45907e-05
-1.52852e-06
-2.36255e-05
-3.7293e-06
-2.21526e-05
-5.79804e-06
-2.02685e-05
-7.49506e-06
-1.79873e-05
-9.23473e-06
-1.51123e-05
-1.15726e-05
-1.16394e-05
-1.35499e-05
-7.56848e-06
-1.55501e-05
-2.93399e-06
-1.63198e-05
1.34919e-06
-1.35254e-05
3.69681e-06
-9.79683e-06
9.85599e-06
-3.55318e-06
1.72276e-05
-6.88137e-06
1.62082e-05
-1.01565e-05
1.60789e-05
-1.33154e-05
1.56119e-05
-1.62692e-05
1.42272e-05
-1.89085e-05
1.24271e-05
-2.11889e-05
1.09519e-05
-2.30067e-05
8.97035e-06
-2.43639e-05
6.5828e-06
-2.52439e-05
4.15439e-06
-2.55482e-05
1.35216e-06
-2.52014e-05
-1.87535e-06
-2.42259e-05
-4.70483e-06
-2.2697e-05
-7.32689e-06
-2.07329e-05
-9.45921e-06
-1.83223e-05
-1.16453e-05
-1.53204e-05
-1.45745e-05
-1.15881e-05
-1.72822e-05
-7.18198e-06
-1.99563e-05
-1.69177e-06
-2.181e-05
4.00644e-06
-1.92236e-05
6.34916e-06
-1.21395e-05
1.62051e-05
-3.57691e-06
2.08045e-05
-7.01596e-06
1.96472e-05
-1.03144e-05
1.93774e-05
-1.34379e-05
1.87354e-05
-1.63807e-05
1.717e-05
-1.90952e-05
1.51417e-05
-2.148e-05
1.33367e-05
-2.34042e-05
1.08945e-05
-2.49025e-05
8.08116e-06
-2.58891e-05
5.14096e-06
-2.61677e-05
1.63077e-06
-2.57341e-05
-2.3089e-06
-2.46363e-05
-5.80267e-06
-2.30699e-05
-8.89329e-06
-2.11699e-05
-1.13592e-05
-1.89604e-05
-1.38549e-05
-1.61199e-05
-1.7415e-05
-1.24971e-05
-2.0905e-05
-7.87444e-06
-2.45789e-05
-1.53043e-06
-2.8154e-05
5.4903e-06
-2.62443e-05
8.19578e-06
-1.4845e-05
2.44009e-05
-3.62907e-06
2.44336e-05
-7.27275e-06
2.32909e-05
-1.06948e-05
2.27995e-05
-1.38986e-05
2.19391e-05
-1.69448e-05
2.02163e-05
-1.97533e-05
1.79501e-05
-2.21358e-05
1.57192e-05
-2.40384e-05
1.27971e-05
-2.55613e-05
9.6041e-06
-2.66058e-05
6.18547e-06
-2.70269e-05
2.05184e-06
-2.66743e-05
-2.66152e-06
-2.55837e-05
-6.8933e-06
-2.39717e-05
-1.05052e-05
-2.20134e-05
-1.33174e-05
-1.9658e-05
-1.62103e-05
-1.66458e-05
-2.04273e-05
-1.27904e-05
-2.47603e-05
-7.87222e-06
-2.94971e-05
-7.00899e-07
-3.53254e-05
7.23661e-06
-3.41818e-05
9.99429e-06
-1.76027e-05
3.43952e-05
-3.61275e-06
2.80463e-05
-7.37262e-06
2.70508e-05
-1.08601e-05
2.62869e-05
-1.40652e-05
2.51442e-05
-1.72409e-05
2.3392e-05
-2.03509e-05
2.106e-05
-2.29685e-05
1.83368e-05
-2.49741e-05
1.48027e-05
-2.65759e-05
1.12059e-05
-2.76377e-05
7.24729e-06
-2.79322e-05
2.34635e-06
-2.74041e-05
-3.18969e-06
-2.60876e-05
-8.20974e-06
-2.44152e-05
-1.21776e-05
-2.25636e-05
-1.51691e-05
-2.03826e-05
-1.83912e-05
-1.75407e-05
-2.32692e-05
-1.41989e-05
-2.81022e-05
-9.90753e-06
-3.37884e-05
-3.22087e-06
-4.2012e-05
5.54215e-06
-4.29448e-05
9.15467e-06
-2.12153e-05
4.35499e-05
-6.80129e-05
6.79891e-05
-0.000108167
4.01129e-05
-0.000129088
2.09067e-05
-0.000131557
2.47119e-06
-0.000124279
-7.23653e-06
-0.000119397
-4.86543e-06
-0.000127934
8.54475e-06
-0.00014188
1.39592e-05
-0.000152044
1.01888e-05
-0.000161058
9.03604e-06
-0.000168457
7.40364e-06
-0.000173248
4.81437e-06
-0.00017544
2.22178e-06
-0.000174512
-9.22049e-07
-0.000166519
-7.93601e-06
-0.000142815
-2.36457e-05
-9.82418e-05
-4.44644e-05
-4.77074e-05
-5.0485e-05
-4.76615e-05
-5.67196e-05
0.00012469
-9.29818e-05
7.63419e-05
-0.000110471
3.83894e-05
-0.000110653
2.65467e-06
-0.000104742
-1.30838e-05
-0.000103155
-6.41945e-06
-0.000110649
1.60384e-05
-0.000121834
2.51605e-05
-0.000131205
1.9583e-05
-0.000139515
1.73744e-05
-0.000147478
1.53567e-05
-0.000155879
1.33015e-05
-0.000163197
9.63989e-06
-0.000164059
-5.15491e-08
-0.000146486
-2.53817e-05
-0.000109069
-6.09456e-05
-6.75571e-05
-8.58898e-05
-3.54861e-05
-8.25534e-05
-8.31454e-05
-5.00468e-05
0.000174755
-7.92418e-05
0.000105523
-9.20882e-05
5.12353e-05
-8.2651e-05
-6.77244e-06
-6.65612e-05
-2.91246e-05
-6.62148e-05
-6.75912e-06
-8.74683e-05
3.73331e-05
-0.000111105
4.88051e-05
-0.000126009
3.46305e-05
-0.000141064
3.25115e-05
-0.000172704
4.70198e-05
-0.000211315
5.20777e-05
-0.000225375
2.38518e-05
-0.000186653
-3.87733e-05
-0.000119047
-9.27188e-05
-6.58368e-05
-0.0001141
-3.2864e-05
-0.00011874
-1.76282e-05
-9.77829e-05
-0.000100772
-3.63748e-05
0.000211139
-6.21294e-05
0.000131256
-7.4714e-05
6.38429e-05
-6.22522e-05
-1.92119e-05
-3.87201e-05
-5.26235e-05
-2.08875e-05
-2.45912e-05
-4.23909e-05
5.88001e-05
-8.79583e-05
9.45604e-05
-0.00012817
7.49748e-05
-0.000154238
5.87343e-05
-0.0001742
6.70195e-05
-0.000134003
1.20193e-05
-2.65094e-05
-8.34876e-05
3.43747e-05
-9.96977e-05
4.09582e-05
-9.91984e-05
3.18777e-05
-0.000104994
1.77409e-05
-0.000104528
3.77197e-06
-8.37619e-05
-9.69988e-05
-2.47811e-05
0.000235938
-3.97799e-05
0.000146266
-7.09668e-05
9.50555e-05
-5.20285e-05
-3.81227e-05
-1.80579e-05
-8.6605e-05
7.47045e-07
-4.3397e-05
1.10659e-05
4.84823e-05
7.25812e-07
0.000104735
-4.74694e-05
0.000123245
-8.35087e-05
9.48717e-05
-3.1173e-05
1.47273e-05
3.84047e-05
-5.74364e-05
6.03063e-05
-0.00010525
6.6961e-05
-0.000106241
6.74654e-05
-9.95534e-05
5.87481e-05
-9.62956e-05
4.1357e-05
-8.71392e-05
1.9083e-05
-6.14845e-05
-7.79142e-05
-1.08596e-05
0.000246805
2.77646e-06
0.000132646
-3.04408e-05
0.000128264
-3.00495e-05
-3.85202e-05
6.1483e-06
-0.00012277
1.632e-05
-5.35833e-05
2.30729e-05
4.17285e-05
3.10064e-05
9.67932e-05
3.74757e-05
0.000116741
4.21332e-05
9.03064e-05
5.04278e-05
6.47038e-06
5.75974e-05
-6.44051e-05
6.31694e-05
-0.000110728
6.92161e-05
-0.000112283
7.20578e-05
-0.000102394
6.63289e-05
-9.0567e-05
5.19851e-05
-7.27946e-05
2.73647e-05
-3.68621e-05
-5.05481e-05
-6.29243e-06
0.000253106
9.88934e-06
0.000116402
1.94973e-05
0.000118654
2.7735e-05
-4.67696e-05
3.02534e-05
-0.000125238
3.26237e-05
-5.60221e-05
3.40727e-05
4.02799e-05
3.49483e-05
9.59173e-05
3.75597e-05
0.000114129
4.19688e-05
8.58391e-05
4.68277e-05
1.62959e-06
5.20363e-05
-6.95882e-05
6.05465e-05
-0.000119229
7.02551e-05
-0.000121987
7.42255e-05
-0.000106334
6.8135e-05
-8.44997e-05
5.17415e-05
-5.63944e-05
2.48406e-05
-9.96067e-06
-2.57043e-05
-3.81068e-06
0.00025691
-5.91074e-06
0.000118453
1.30252e-05
9.96919e-05
4.46233e-05
-7.84004e-05
4.01562e-05
-0.000120827
4.31176e-05
-5.91009e-05
4.15374e-05
4.18702e-05
3.54638e-05
0.000101973
3.12234e-05
0.000118368
3.19631e-05
8.50978e-05
3.50746e-05
-1.48158e-06
4.15367e-05
-7.60463e-05
5.4906e-05
-0.000132529
6.83062e-05
-0.00013535
6.78482e-05
-0.000105719
5.33228e-05
-6.99773e-05
3.64796e-05
-3.95068e-05
1.81023e-05
8.4332e-06
-7.55057e-06
-7.96046e-06
3.60048e-05
-1.61757e-05
3.52638e-05
-2.35984e-05
3.37077e-05
-3.02493e-05
3.17937e-05
-3.66294e-05
2.9772e-05
-4.28885e-05
2.73191e-05
-4.83727e-05
2.3821e-05
-5.31774e-05
1.96073e-05
-5.75794e-05
1.56078e-05
-6.12865e-05
1.09545e-05
-6.35513e-05
4.61107e-06
-6.2373e-05
-4.36796e-06
-5.90335e-05
-1.15492e-05
-5.51676e-05
-1.60435e-05
-5.11739e-05
-1.91628e-05
-4.65991e-05
-2.2966e-05
-4.09106e-05
-2.89578e-05
-3.43416e-05
-3.46711e-05
-2.57888e-05
-4.23412e-05
-1.0985e-05
-5.68158e-05
1.16271e-05
-6.55578e-05
4.05271e-05
-5.0145e-05
8.35239e-06
7.57433e-05
-1.02481e-05
4.63915e-05
-2.00984e-05
4.52499e-05
-2.86903e-05
4.24267e-05
-3.64906e-05
3.97055e-05
-4.37475e-05
3.71173e-05
-5.01784e-05
3.37817e-05
-5.53728e-05
2.90194e-05
-5.95437e-05
2.37691e-05
-6.33997e-05
1.94619e-05
-6.50302e-05
1.25758e-05
-6.30377e-05
2.62021e-06
-6.01193e-05
-7.28773e-06
-5.72274e-05
-1.44408e-05
-5.42196e-05
-1.90516e-05
-5.10065e-05
-2.23757e-05
-4.78228e-05
-2.61498e-05
-4.40496e-05
-3.27309e-05
-4.05631e-05
-3.81577e-05
-3.51309e-05
-4.77734e-05
-2.88771e-05
-6.30695e-05
-1.77134e-05
-7.67348e-05
-3.86037e-06
-6.39843e-05
-1.41972e-05
1.86999e-05
-1.2009e-05
5.84511e-05
-2.40662e-05
5.73639e-05
-3.50929e-05
5.352e-05
-4.57671e-05
5.04608e-05
-5.56944e-05
4.71485e-05
-6.50955e-05
4.33522e-05
-7.3521e-05
3.76173e-05
-8.17312e-05
3.2091e-05
-9.00499e-05
2.77513e-05
-0.000102111
2.46793e-05
-0.000111417
1.16267e-05
-0.00010251
-1.61756e-05
-8.46468e-05
-3.22919e-05
-6.88963e-05
-3.47272e-05
-6.00485e-05
-3.11906e-05
-5.5661e-05
-3.05089e-05
-5.34159e-05
-3.49497e-05
-5.27996e-05
-3.87657e-05
-5.64796e-05
-4.40923e-05
-6.50974e-05
-5.44521e-05
-7.73869e-05
-6.44935e-05
-8.89774e-05
-5.222e-05
-1.38626e-06
-0.000101783
-1.77817e-05
7.62437e-05
-3.64115e-05
7.6005e-05
-5.59153e-05
7.30348e-05
-7.62739e-05
7.08322e-05
-0.000103376
7.42658e-05
-0.000153967
9.39843e-05
-0.00021675
0.000100479
-0.000291701
0.000107234
-0.000361884
9.8487e-05
-0.000373745
3.61437e-05
-0.000340154
-2.1679e-05
-0.000295305
-6.07088e-05
-0.000250783
-7.64244e-05
-0.000208143
-7.7258e-05
-0.000172646
-6.65146e-05
-0.000143407
-5.96077e-05
-0.000120505
-5.78403e-05
-0.000105413
-5.38677e-05
-9.83491e-05
-5.11612e-05
-0.000100287
-5.25188e-05
-0.000113266
-5.16012e-05
-0.000128806
-3.66316e-05
1.36275e-06
-0.000131506
-3.13586e-05
0.000107614
-6.48446e-05
0.000109502
-0.00010502
0.000113221
-0.000155197
0.00012102
-0.000228275
0.000147355
-0.000316514
0.00018225
-0.00038946
0.000173508
-0.000464034
0.00018185
-0.000483699
0.00011824
-0.000422404
-2.43212e-05
-0.000361331
-8.17898e-05
-0.000322578
-9.92901e-05
-0.000290262
-0.000108789
-0.000260205
-0.000107595
-0.000236642
-9.04467e-05
-0.000220315
-7.61152e-05
-0.00019818
-8.00915e-05
-0.000170446
-8.17e-05
-0.000143139
-7.86218e-05
-0.000119288
-7.65373e-05
-0.0001032
-6.78503e-05
-9.43486e-05
-4.55577e-05
-5.18646e-06
-8.79098e-05
-2.91097e-05
0.000136735
-6.1051e-05
0.000141455
-9.95708e-05
0.000151752
-0.000152534
0.000173994
-0.000222302
0.000217135
-0.00029638
0.000256347
-0.000365758
0.000242901
-0.00041506
0.000231225
-0.000394766
9.7964e-05
-0.00035945
-5.89144e-05
-0.00034543
-9.49862e-05
-0.0003346
-0.000110496
-0.000327457
-0.00011682
-0.000324838
-0.000110931
-0.00033429
-8.0988e-05
-0.000333304
-7.70821e-05
-0.00032739
-8.59998e-05
-0.000315616
-9.34736e-05
-0.000262373
-0.000131863
-0.000179385
-0.000159501
-0.000128682
-0.000118401
-9.19109e-05
-8.23405e-05
-3.38928e-05
-6.32485e-05
-2.19453e-05
0.000158692
-4.49392e-05
0.000164461
-6.98089e-05
0.000176634
-9.82208e-05
0.000202419
-0.000126031
0.00024496
-0.000168976
0.000299313
-0.000239691
0.000313646
-0.000297864
0.000289407
-0.000339185
0.000139319
-0.000354967
-4.30881e-05
-0.000348796
-0.000101057
-0.000340324
-0.000119021
-0.000337078
-0.000120238
-0.000340871
-0.000107141
-0.000331234
-9.0335e-05
-0.000318728
-8.92676e-05
-0.000318478
-8.60802e-05
-0.000326393
-8.54987e-05
-0.000343121
-0.000115101
-0.000349231
-0.000153371
-0.000298346
-0.000169272
-0.000207372
-0.000173306
-0.0001318
-0.000109455
-1.78356e-05
0.00017654
-3.53475e-05
0.000181985
-5.14374e-05
0.000192736
-6.38634e-05
0.000214858
-6.6136e-05
0.000247246
-6.56822e-05
0.000298878
-8.30261e-05
0.000331009
-0.000119311
0.000325708
-0.000194767
0.000214787
-0.000267014
2.9165e-05
-0.000298459
-6.9599e-05
-0.00030053
-0.000116942
-0.000299989
-0.00012077
-0.000307208
-9.95605e-05
-0.000301253
-9.5214e-05
-0.000296604
-9.38551e-05
-0.000291168
-9.18065e-05
-0.000287995
-8.85496e-05
-0.000327261
-7.57805e-05
-0.000404889
-7.57331e-05
-0.000468831
-0.000105315
-0.0004817
-0.000160417
-0.00017299
-0.000440489
-1.10552e-05
0.000187608
-2.15934e-05
0.000192536
-3.08061e-05
0.000201962
-3.48887e-05
0.000218953
-2.93823e-05
0.000241754
-6.10485e-06
0.000275614
1.47193e-05
0.000310202
1.18467e-05
0.000328592
-4.97065e-05
0.000276353
-0.000169083
0.000148547
-0.000265626
2.69577e-05
-0.000308372
-7.41855e-05
-0.000306872
-0.000122257
-0.000287852
-0.000118325
-0.000276816
-0.000105062
-0.000269256
-0.000101603
-0.000264089
-9.7095e-05
-0.000263223
-8.97038e-05
-0.000264565
-7.52956e-05
-0.000280418
-5.95573e-05
-0.000352661
-3.30273e-05
-0.000467287
-4.57605e-05
-4.87857e-05
-0.000591483
-6.41529e-06
0.000194036
-1.19894e-05
0.000198123
-1.57452e-05
0.000205731
-1.54389e-05
0.00021866
-9.10764e-06
0.000235436
9.9261e-06
0.000256595
3.97758e-05
0.000280368
7.03305e-05
0.000298053
6.90776e-05
0.000277618
1.54169e-05
0.000202217
-6.77604e-05
0.000110146
-0.000149492
7.55461e-06
-0.000203311
-6.8425e-05
-0.000235097
-8.6528e-05
-0.000253162
-8.69865e-05
-0.000253863
-0.000100462
-0.00024254
-0.000107854
-0.000240965
-9.16261e-05
-0.000246839
-6.96416e-05
-0.000252619
-5.45173e-05
-0.000242538
-4.29658e-05
-0.000262832
-2.52138e-05
-1.71754e-06
-0.000309846
-2.21983e-06
0.000196269
-3.30434e-06
0.00019922
-2.37843e-06
0.000204818
2.59789e-06
0.000213697
1.28612e-05
0.000225186
3.13782e-05
0.00023809
5.97324e-05
0.000252027
9.46915e-05
0.000263107
0.000119633
0.00025269
0.0001189
0.000202958
9.41639e-05
0.000134891
4.40235e-05
5.77037e-05
-2.03128e-05
-4.08015e-06
-7.37524e-05
-3.30797e-05
-0.000112257
-4.84711e-05
-0.000151603
-6.11048e-05
-0.000211681
-4.77725e-05
-0.000247316
-5.57558e-05
-0.000233533
-8.23635e-05
-0.000223033
-6.50867e-05
-0.000216816
-4.94435e-05
-0.000208081
-3.49037e-05
-3.44379e-05
-0.000175056
9.12344e-07
0.000195369
2.59937e-06
0.000197546
5.74059e-06
0.000201689
1.18592e-05
0.00020759
2.20779e-05
0.00021498
3.83179e-05
0.000221863
6.23564e-05
0.000228002
9.48548e-05
0.000230621
0.000123999
0.000223559
0.000137757
0.000189211
0.000134
0.000138659
0.000112948
7.87646e-05
8.20394e-05
2.68382e-05
5.47799e-05
-5.81072e-06
2.66306e-05
-2.03125e-05
-1.57625e-05
-1.87028e-05
-7.15591e-05
8.03379e-06
-0.000119936
-7.36893e-06
-0.000165589
-3.67021e-05
-0.000202483
-2.81896e-05
-0.000204139
-4.77455e-05
-0.000187308
-5.07148e-05
-5.53092e-05
-0.000166072
2.76231e-06
0.000192619
6.52311e-06
0.000193797
1.20283e-05
0.000196196
2.02262e-05
0.000199404
3.17364e-05
0.000203482
4.74108e-05
0.0002062
6.7822e-05
0.000207603
9.35678e-05
0.000204886
0.000120906
0.000196233
0.000138159
0.000171969
0.000140869
0.000135959
0.000127998
9.16452e-05
0.000102679
5.2167e-05
7.32553e-05
2.36216e-05
4.56067e-05
7.34544e-06
2.87351e-05
-1.82243e-06
3.23538e-05
4.42422e-06
1.60705e-05
8.92312e-06
-3.58294e-05
1.52052e-05
-8.98868e-05
2.58774e-05
-0.000131986
-5.63773e-06
-0.000157597
-2.5095e-05
-4.4739e-05
-0.000168167
3.94075e-06
0.00018869
8.45384e-06
0.000189296
1.40798e-05
0.000190582
2.17272e-05
0.000191769
3.21134e-05
0.000193108
4.5775e-05
0.00019255
6.27649e-05
0.000190624
8.31529e-05
0.000184509
0.000105027
0.000174371
0.000121955
0.000155051
0.000129062
0.000128863
0.000124957
9.57602e-05
0.000112238
6.48966e-05
9.62793e-05
3.95892e-05
7.88715e-05
2.47626e-05
6.0998e-05
1.60599e-05
4.81759e-05
1.72553e-05
4.36087e-05
1.34987e-05
5.05714e-05
8.25137e-06
6.09807e-05
1.54766e-05
5.38389e-05
1.51265e-06
3.80811e-05
-9.32919e-06
-2.27182e-05
1.60698e-05
4.75987e-06
0.000183941
1.00164e-05
0.000184051
1.62372e-05
0.000184373
2.39542e-05
0.000184063
3.35529e-05
0.000183521
4.51059e-05
0.000181008
5.87184e-05
0.000177023
7.36359e-05
0.000169602
8.926e-05
0.000158757
0.000102251
0.00014207
0.000109527
0.000121597
0.000108223
9.7074e-05
9.95861e-05
7.3543e-05
8.65323e-05
5.26522e-05
7.32309e-05
3.80731e-05
6.1353e-05
2.79467e-05
5.56692e-05
2.29477e-05
5.0197e-05
1.89797e-05
4.44243e-05
1.40321e-05
4.68456e-05
1.3064e-05
4.80651e-05
3.00985e-07
4.88805e-05
-1.01363e-05
-2.17813e-05
4.79516e-05
4.41011e-06
0.000179542
9.21228e-06
0.00017926
1.48062e-05
0.00017879
2.15105e-05
0.00017737
2.95781e-05
0.000175464
3.88806e-05
0.000171716
4.9424e-05
0.000166491
6.05529e-05
0.000158484
7.15759e-05
0.000147745
8.04352e-05
0.00013322
8.6006e-05
0.000116036
8.70696e-05
9.602e-05
8.34852e-05
7.71369e-05
7.65078e-05
5.96388e-05
6.83835e-05
4.62065e-05
6.08014e-05
3.55376e-05
5.61406e-05
2.76174e-05
5.46241e-05
2.05048e-05
5.62153e-05
1.24494e-05
6.04005e-05
8.8872e-06
6.1223e-05
-5.13108e-07
5.90069e-05
-7.91221e-06
-1.68203e-05
5.40542e-05
4.50453e-06
0.000175049
9.26794e-06
0.000174507
1.45314e-05
0.000173537
2.04458e-05
0.000171466
2.72261e-05
0.000168695
3.46734e-05
0.00016428
4.28426e-05
0.000158332
5.1008e-05
0.000150329
5.88144e-05
0.000139949
6.48864e-05
0.000127158
6.83832e-05
0.000112549
6.83093e-05
9.61033e-05
6.52575e-05
8.01979e-05
6.00725e-05
6.48329e-05
5.47399e-05
5.1548e-05
5.00567e-05
4.02295e-05
4.68205e-05
3.08623e-05
4.44714e-05
2.28625e-05
4.25627e-05
1.43663e-05
4.37329e-05
7.72534e-06
4.51695e-05
-1.94159e-06
4.7753e-05
-1.04875e-05
-1.8191e-05
4.91318e-05
3.7315e-06
0.000171328
7.6983e-06
0.000170551
1.20629e-05
0.000169183
1.68545e-05
0.000166685
2.22105e-05
0.000163349
2.78825e-05
0.000158618
3.38939e-05
0.000152331
3.97462e-05
0.000144486
4.51173e-05
0.000134587
4.93101e-05
0.000122975
5.1942e-05
0.000109927
5.24933e-05
9.55612e-05
5.135e-05
8.13503e-05
4.87144e-05
6.74774e-05
4.54556e-05
5.48156e-05
4.24112e-05
4.32826e-05
4.03946e-05
3.28875e-05
3.96111e-05
2.36544e-05
4.00207e-05
1.39651e-05
4.11957e-05
6.55864e-06
4.18279e-05
-2.56555e-06
4.21633e-05
-1.08148e-05
-1.88908e-05
4.28713e-05
3.15199e-06
0.000168186
6.42392e-06
0.000167289
9.93118e-06
0.000165686
1.36927e-05
0.000162933
1.78135e-05
0.000159238
2.20615e-05
0.000154379
2.64543e-05
0.000147948
3.05574e-05
0.000140393
3.41811e-05
0.000130973
3.68125e-05
0.000120353
3.82886e-05
0.00010846
3.81357e-05
9.57231e-05
3.67568e-05
8.27381e-05
3.44319e-05
6.98111e-05
3.18488e-05
5.74073e-05
2.94831e-05
4.56568e-05
2.7708e-05
3.46709e-05
2.67997e-05
2.4571e-05
2.65699e-05
1.42032e-05
2.79191e-05
5.21758e-06
2.95724e-05
-4.2108e-06
3.20023e-05
-1.32366e-05
-2.20661e-05
3.51856e-05
2.32958e-06
0.000165866
4.68596e-06
0.000164942
7.15637e-06
0.000163225
9.7329e-06
0.000160366
1.25038e-05
0.000156477
1.53426e-05
0.00015155
1.82407e-05
0.000145059
2.08696e-05
0.000137773
2.31575e-05
0.000128694
2.47122e-05
0.000118807
2.55517e-05
0.000107629
2.5462e-05
9.58215e-05
2.46474e-05
8.35614e-05
2.32783e-05
7.11887e-05
2.16544e-05
5.90396e-05
2.01075e-05
4.72121e-05
1.91248e-05
3.56618e-05
1.87649e-05
2.49391e-05
1.93117e-05
1.36645e-05
2.08419e-05
3.6955e-06
2.28203e-05
-6.18117e-06
2.51002e-05
-1.55086e-05
-2.50459e-05
2.80879e-05
1.39822e-06
0.000164477
2.88786e-06
0.000163462
4.42137e-06
0.000161701
5.98312e-06
0.000158814
7.61639e-06
0.000154853
9.26184e-06
0.000149914
1.08644e-05
0.000143465
1.21927e-05
0.000136454
1.32161e-05
0.00012768
1.36079e-05
0.000118424
1.3513e-05
0.000107733
1.27414e-05
9.66017e-05
1.14963e-05
8.48149e-05
9.9655e-06
7.27278e-05
8.4089e-06
6.06044e-05
7.1281e-06
4.85011e-05
6.37413e-06
3.64239e-05
6.35956e-06
2.49617e-05
7.0542e-06
1.29778e-05
9.10545e-06
1.65214e-06
1.2047e-05
-9.11488e-06
1.61616e-05
-1.96153e-05
-3.0005e-05
2.11286e-05
4.08152e-07
0.000164078
9.19668e-07
0.000162959
1.44641e-06
0.000161183
1.98349e-06
0.000158286
2.49889e-06
0.000154346
2.96571e-06
0.000149456
3.31903e-06
0.000143121
3.49659e-06
0.000136285
3.49282e-06
0.000127692
3.0996e-06
0.000118825
2.46011e-06
0.000108381
1.43137e-06
9.76387e-05
2.07002e-07
8.60475e-05
-1.16689e-06
7.41099e-05
-2.48373e-06
6.19293e-05
-3.55031e-06
4.95757e-05
-4.06317e-06
3.69447e-05
-3.92247e-06
2.48289e-05
-2.93147e-06
1.19946e-05
-9.45511e-07
-3.26046e-07
2.03154e-06
-1.20842e-05
6.26369e-06
-2.38397e-05
-3.52225e-05
1.1489e-05
-5.00868e-07
0.000164587
-1.03169e-06
0.000163499
-1.52967e-06
0.00016169
-2.01595e-06
0.000158781
-2.53949e-06
0.000154878
-3.14986e-06
0.000150075
-3.92625e-06
0.000143905
-4.84993e-06
0.000137217
-5.95873e-06
0.000128809
-7.32349e-06
0.000120198
-8.88048e-06
0.000109946
-1.06755e-05
9.94418e-05
-1.25459e-05
8.79258e-05
-1.44548e-05
7.60266e-05
-1.60481e-05
6.35304e-05
-1.72781e-05
5.08134e-05
-1.79044e-05
3.75786e-05
-1.76847e-05
2.46167e-05
-1.6659e-05
1.09765e-05
-1.4598e-05
-2.3795e-06
-1.14894e-05
-1.51852e-05
-6.75991e-06
-2.85618e-05
-4.09289e-05
-1.04629e-06
-1.42471e-06
0.00016602
-2.9346e-06
0.000165017
-4.4692e-06
0.000163233
-6.038e-06
0.000160357
-7.65368e-06
0.000156502
-9.33663e-06
0.000151766
-1.11571e-05
0.000145734
-1.30377e-05
0.000139105
-1.50687e-05
0.000130848
-1.71886e-05
0.000122326
-1.946e-05
0.000112225
-2.18112e-05
0.000101801
-2.41286e-05
9.02508e-05
-2.6444e-05
7.83497e-05
-2.84819e-05
6.55759e-05
-3.02333e-05
5.25723e-05
-3.14137e-05
3.87667e-05
-3.19461e-05
2.51567e-05
-3.17623e-05
1.08002e-05
-3.0794e-05
-3.34054e-06
-2.85846e-05
-1.73874e-05
-2.52188e-05
-3.19204e-05
-4.47781e-05
-2.13623e-05
-2.47609e-06
0.000168504
-4.99282e-06
0.000167541
-7.53077e-06
0.000165778
-1.01234e-05
0.000162958
-1.27859e-05
0.000159172
-1.55302e-05
0.000154518
-1.84407e-05
0.000148652
-2.14258e-05
0.000142098
-2.46055e-05
0.000134035
-2.78324e-05
0.000125561
-3.12241e-05
0.000115624
-3.46833e-05
0.000105267
-3.80995e-05
9.36743e-05
-4.13741e-05
8.16317e-05
-4.43473e-05
6.85566e-05
-4.71406e-05
5.5373e-05
-4.9492e-05
4.11254e-05
-5.12662e-05
2.6938e-05
-5.22916e-05
1.18325e-05
-5.25075e-05
-3.11767e-06
-5.2003e-05
-1.78849e-05
-5.0927e-05
-3.29894e-05
-4.66429e-05
-4.90552e-05
-3.57537e-06
0.000172087
-7.19156e-06
0.000171165
-1.08161e-05
0.00016941
-1.45078e-05
0.000166657
-1.82592e-05
0.000162931
-2.20485e-05
0.000158314
-2.59496e-05
0.000152561
-2.98883e-05
0.000146044
-3.40202e-05
0.000138175
-3.81858e-05
0.000129733
-4.24894e-05
0.000119935
-4.6838e-05
0.000109623
-5.12768e-05
9.81203e-05
-5.58127e-05
8.6175e-05
-6.03442e-05
7.3095e-05
-6.46474e-05
5.96831e-05
-6.873e-05
4.52147e-05
-7.22557e-05
3.04703e-05
-7.56886e-05
1.52723e-05
-7.89689e-05
1.69552e-07
-8.10068e-05
-1.584e-05
-8.11407e-05
-3.28484e-05
-4.95963e-05
-7.81802e-05
-4.69887e-06
0.000176793
-9.43502e-06
0.000175908
-1.41598e-05
0.000174142
-1.89578e-05
0.000171462
-2.3847e-05
0.000167827
-2.88307e-05
0.000163305
-3.39911e-05
0.000157728
-3.92567e-05
0.000151317
-4.47722e-05
0.000143697
-5.04119e-05
0.00013538
-5.62838e-05
0.000125814
-6.22679e-05
0.000115614
-6.82294e-05
0.000104088
-7.40656e-05
9.20177e-05
-7.99659e-05
7.90018e-05
-8.57991e-05
6.55226e-05
-9.15531e-05
5.09753e-05
-9.77807e-05
3.67047e-05
-0.000103827
2.1325e-05
-0.000107493
3.84223e-06
-0.00010822
-1.51065e-05
-0.000105479
-3.55824e-05
-5.61922e-05
-9.88772e-05
-5.92986e-06
0.00018273
-1.19008e-05
0.000181886
-1.78498e-05
0.000180098
-2.38474e-05
0.000177467
-2.9882e-05
0.000173869
-3.59715e-05
0.000169401
-4.21955e-05
0.000163959
-4.85342e-05
0.000157662
-5.50994e-05
0.000150269
-6.18211e-05
0.000142108
-6.88029e-05
0.000132802
-7.60377e-05
0.000122856
-8.36439e-05
0.000111701
-9.1521e-05
9.99008e-05
-9.94623e-05
8.69493e-05
-0.000107745
7.38116e-05
-0.000116996
6.02334e-05
-0.000125156
4.48713e-05
-0.000129279
2.5454e-05
-0.000129661
4.23086e-06
-0.00012661
-1.81517e-05
-0.000120044
-4.21424e-05
-6.57263e-05
-0.000110504
-7.11941e-06
0.000189855
-1.42882e-05
0.000189061
-2.14808e-05
0.000187297
-2.87808e-05
0.000184773
-3.62031e-05
0.000181297
-4.37826e-05
0.000176987
-5.15751e-05
0.000171757
-5.95715e-05
0.000165665
-6.78542e-05
0.000158558
-7.63532e-05
0.000150614
-8.50527e-05
0.000141508
-9.37404e-05
0.000131549
-0.000102411
0.000120378
-0.000111471
0.000108967
-0.000121541
9.70254e-05
-0.000132403
8.46793e-05
-0.000141458
6.92948e-05
-0.000145432
4.88515e-05
-0.000145804
2.58315e-05
-0.000142857
1.29033e-06
-0.000136244
-2.47591e-05
-0.000127449
-5.09316e-05
-7.65176e-05
-0.000116652
-8.41234e-06
0.000198274
-1.68449e-05
0.0001975
-2.52739e-05
0.000195732
-3.37509e-05
0.000193256
-4.22875e-05
0.00018984
-5.09458e-05
0.000185651
-5.9766e-05
0.000180583
-6.87877e-05
0.000174692
-7.80819e-05
0.000167858
-8.76863e-05
0.000160224
-9.77116e-05
0.000151539
-0.000108233
0.000142077
-0.000119432
0.000131582
-0.00013131
0.000120851
-0.000143697
0.000109419
-0.000153572
9.45601e-05
-0.00015724
7.29684e-05
-0.000157364
4.89806e-05
-0.000154801
2.3275e-05
-0.000148358
-5.14739e-06
-0.000139793
-3.33191e-05
-0.000130085
-6.06336e-05
-8.67253e-05
-0.000119872
-9.73719e-06
0.000208016
-1.95236e-05
0.000207291
-2.94142e-05
0.000205628
-3.94455e-05
0.000203293
-4.964e-05
0.00020004
-6.00209e-05
0.000196038
-7.05743e-05
0.000191142
-8.1264e-05
0.000185387
-9.20668e-05
0.000178666
-0.000102938
0.0001711
-0.000114048
0.000162654
-0.000125833
0.000153867
-0.000138832
0.000144586
-0.00015259
0.000134615
-0.000163315
0.00012015
-0.000166751
9.80007e-05
-0.00016655
7.27728e-05
-0.000163925
4.63616e-05
-0.000157281
1.66355e-05
-0.000149273
-1.31494e-05
-0.000140672
-4.19156e-05
-0.000131433
-6.98677e-05
-9.62829e-05
-0.00012187
-1.0822e-05
0.000218844
-2.16574e-05
0.000218132
-3.25418e-05
0.000216517
-4.35126e-05
0.000214269
-5.46066e-05
0.000211139
-6.58791e-05
0.000207315
-7.73441e-05
0.000202613
-8.90532e-05
0.000197102
-0.000101011
0.000190629
-0.000113258
0.000183352
-0.000125848
0.000175249
-0.000139213
0.000167237
-0.000153618
0.000158997
-0.000165874
0.000146877
-0.000170289
0.00012457
-0.000170056
9.77729e-05
-0.000168247
7.09688e-05
-0.000162465
4.05847e-05
-0.000155212
9.38735e-06
-0.000147455
-2.09018e-05
-0.00013901
-5.03556e-05
-0.000130189
-7.86838e-05
-0.00010548
-0.000120988
-1.24445e-05
0.000231293
-2.48958e-05
0.000230588
-3.74321e-05
0.000229058
-5.00516e-05
0.000226893
-6.27738e-05
0.000223866
-7.55959e-05
0.000220142
-8.85129e-05
0.000215534
-0.000101587
0.000210181
-0.000114975
0.000204021
-0.000128846
0.000197229
-0.00014329
0.000189697
-0.000157966
0.000181919
-0.000170711
0.000171746
-0.000175764
0.000151934
-0.000174901
0.000123711
-0.000172844
9.57209e-05
-0.000167346
6.5475e-05
-0.0001597
3.29433e-05
-0.00015181
1.50183e-06
-0.000143431
-2.92763e-05
-0.000134647
-5.91351e-05
-0.000125666
-8.76608e-05
-0.00011462
-0.000116522
-1.29974e-05
0.000244295
-2.60687e-05
0.000243664
-3.92949e-05
0.000242289
-5.2613e-05
0.000240216
-6.60123e-05
0.000237269
-7.94995e-05
0.000233634
-9.30866e-05
0.000229126
-0.000106856
0.000223955
-0.000121035
0.000218204
-0.000135939
0.000212137
-0.000151684
0.000205447
-0.00016672
0.000196958
-0.000174616
0.000179647
-0.000174148
0.00015147
-0.000172432
0.000121999
-0.000168676
9.19696e-05
-0.000161678
5.8481e-05
-0.000154104
2.53733e-05
-0.00014582
-6.7782e-06
-0.000137215
-3.78774e-05
-0.00012848
-6.78667e-05
-0.000119626
-9.65108e-05
-0.000123488
-0.000110754
-1.51433e-05
0.000259442
-3.02695e-05
0.000258794
-4.53073e-05
0.000257331
-6.02141e-05
0.000255126
-7.51349e-05
0.000252194
-9.00859e-05
0.000248589
-0.000104992
0.000244036
-0.000119933
0.000238899
-0.00013514
0.000233415
-0.000150543
0.000227545
-0.000165599
0.000220508
-0.000175644
0.000207007
-0.000176728
0.000180735
-0.000174136
0.000148882
-0.000170149
0.000118015
-0.000162927
8.47519e-05
-0.000154544
5.01015e-05
-0.000146178
1.70103e-05
-0.00013756
-1.53919e-05
-0.000128812
-4.66224e-05
-0.000120024
-7.66511e-05
-0.000111237
-0.000105295
-0.000132345
-0.000102377
-1.51673e-05
0.000274613
-3.03418e-05
0.000273972
-4.55322e-05
0.000272525
-6.08226e-05
0.000270421
-7.62046e-05
0.00026758
-9.16197e-05
0.000264008
-0.000107174
0.000259594
-0.000123018
0.000254747
-0.000139151
0.000249552
-0.000155259
0.000243656
-0.000168902
0.000234154
-0.000173844
0.000211952
-0.000171812
0.000178707
-0.000168786
0.000145859
-0.000163137
0.00011237
-0.000155221
7.6839e-05
-0.000147145
4.20282e-05
-0.000138637
8.50594e-06
-0.000130044
-2.39823e-05
-0.000121415
-5.52485e-05
-0.000112785
-8.52786e-05
-0.000104252
-0.000113825
-0.00014091
-9.56832e-05
-1.74478e-05
0.000292064
-3.48415e-05
0.000291369
-5.21571e-05
0.000289844
-6.93232e-05
0.00028759
-8.62255e-05
0.000284485
-0.000103067
0.000280853
-0.000119973
0.000276503
-0.000136951
0.000271729
-0.000153396
0.000266
-0.000167854
0.000258118
-0.000175094
0.000241396
-0.000174074
0.000210936
-0.000169804
0.00017444
-0.000163761
0.000139819
-0.000155195
0.000103807
-0.000146085
6.77317e-05
-0.000137423
3.33692e-05
-0.000128644