/*--------------------------------*- C++ -*----------------------------------*\
| =========                 |                                                 |
| \\      /  F ield         | OpenFOAM: The Open Source CFD Toolbox           |
|  \\    /   O peration     | Version:  2012                                  |
|   \\  /    A nd           | Website:  www.openfoam.com                      |
|    \\/     M anipulation  |                                                 |
\*---------------------------------------------------------------------------*/
FoamFile
{
    version     2.0;
    format      ascii;
    class       volScalarField;
    location    "0.79";
    object      rho2;
}
// * * * * * * * * * * * * * * * * * * * * * * * * * * * * * * * * * * * * * //

dimensions      [1 -3 0 0 0 0 0];


internalField   nonuniform List<scalar> 
2268
(
1.3019
1.30195
1.30207
1.30225
1.30246
1.30274
1.30302
1.30337
1.30367
1.30405
1.3043
1.30462
1.30477
1.30493
1.305
1.30501
1.30505
1.3049
1.30489
1.30459
1.30452
1.30417
1.30419
1.30112
1.30118
1.3013
1.30147
1.30169
1.30197
1.30226
1.30261
1.30292
1.3033
1.30356
1.30386
1.30402
1.30417
1.30424
1.30426
1.30429
1.30415
1.30412
1.30383
1.30373
1.30338
1.30338
1.30033
1.30039
1.30051
1.30069
1.30091
1.3012
1.30149
1.30186
1.30217
1.30257
1.30283
1.30317
1.30331
1.30348
1.30354
1.30354
1.30358
1.30342
1.30341
1.30308
1.30302
1.30258
1.30266
1.29951
1.29957
1.2997
1.29988
1.30011
1.3004
1.3007
1.30108
1.30141
1.30182
1.30211
1.30241
1.30256
1.30271
1.30276
1.30278
1.30279
1.30267
1.30261
1.30232
1.30216
1.30173
1.30173
1.29867
1.29874
1.29887
1.29907
1.29931
1.29961
1.29992
1.30033
1.30065
1.30113
1.30139
1.3018
1.30189
1.30208
1.30209
1.3021
1.30212
1.30195
1.30194
1.30154
1.30146
1.30083
1.301
1.29782
1.29789
1.29802
1.29822
1.29847
1.29879
1.29911
1.29954
1.2999
1.30038
1.3007
1.30103
1.30116
1.3013
1.3013
1.30133
1.3013
1.3012
1.30109
1.30078
1.30051
1.2999
1.2999
1.29693
1.29701
1.29715
1.29737
1.29763
1.29797
1.29831
1.29877
1.29913
1.29971
1.3
1.30052
1.30052
1.30073
1.30066
1.30068
1.30067
1.3005
1.30047
1.29999
1.29975
1.29871
1.29897
1.29606
1.29614
1.29629
1.2965
1.29677
1.29712
1.29747
1.29797
1.29838
1.29899
1.29936
1.29972
1.29982
1.29993
1.29987
1.2999
1.29983
1.29974
1.29957
1.29921
1.29867
1.29758
1.29767
1.31357
1.30617
1.30132
1.30021
1.30189
1.30502
1.30466
1.30424
1.30334
1.30299
1.30265
1.30251
1.30298
1.30357
1.30397
1.30596
1.31067
1.31623
1.31732
1.31238
1.30474
1.30005
1.29953
1.30105
1.30426
1.3044
1.30342
1.30258
1.3022
1.30219
1.30206
1.30229
1.30308
1.30397
1.30547
1.31018
1.31505
1.3157
1.30817
1.30191
1.29827
1.29856
1.3008
1.30491
1.30385
1.30304
1.30202
1.30185
1.3019
1.30184
1.30239
1.30267
1.30245
1.30422
1.30774
1.31302
1.31345
1.30551
1.29976
1.29696
1.29745
1.2992
1.30379
1.30452
1.30222
1.30129
1.30123
1.30144
1.30133
1.30137
1.30204
1.30296
1.30465
1.30885
1.31206
1.31215
1.30218
1.29762
1.29653
1.29707
1.29833
1.30274
1.30278
1.30205
1.30149
1.30132
1.3012
1.30115
1.30187
1.30254
1.30281
1.3045
1.30702
1.31063
1.31026
1.30068
1.29711
1.29643
1.29694
1.2974
1.30105
1.30183
1.30173
1.3016
1.30143
1.30149
1.30146
1.30197
1.3029
1.30325
1.30428
1.30647
1.30917
1.30915
1.29892
1.29712
1.29644
1.29696
1.29718
1.29943
1.29894
1.29984
1.30109
1.30214
1.30218
1.30319
1.30364
1.30263
1.3017
1.30254
1.30354
1.30709
1.30692
1.29816
1.29674
1.29641
1.29685
1.29683
1.29773
1.29694
1.29869
1.30063
1.3044
1.30655
1.3062
1.30438
1.30256
1.3016
1.30219
1.30304
1.30535
1.30521
1.29468
1.29477
1.29492
1.29515
1.29544
1.29584
1.29621
1.29676
1.29717
1.29795
1.2983
1.29919
1.29886
1.29917
1.29885
1.29894
1.29891
1.29871
1.29874
1.298
1.29744
1.29543
1.29567
1.29355
1.29357
1.29362
1.29371
1.29387
1.29415
1.29452
1.29512
1.29558
1.29672
1.29719
1.29736
1.29758
1.29739
1.29728
1.29726
1.29714
1.29711
1.29672
1.29638
1.29479
1.29366
1.29267
1.29337
1.29338
1.29337
1.29338
1.29341
1.29346
1.29357
1.29391
1.29433
1.29521
1.29649
1.29838
1.29696
1.29699
1.2959
1.2961
1.296
1.29594
1.29608
1.29538
1.2946
1.29301
1.29314
1.29335
1.29335
1.29334
1.29335
1.29337
1.29339
1.29345
1.29367
1.29373
1.29555
1.29594
1.29607
1.29587
1.2954
1.29495
1.2948
1.29466
1.29463
1.29443
1.29412
1.29362
1.29367
1.29334
1.29332
1.29332
1.29332
1.29333
1.29336
1.29336
1.29331
1.29328
1.29322
1.29356
1.29478
1.29547
1.2943
1.29396
1.29327
1.29332
1.29337
1.29346
1.29359
1.29366
1.29359
1.29344
1.29327
1.29329
1.29329
1.29329
1.29331
1.29333
1.29333
1.29325
1.29309
1.29302
1.29298
1.29334
1.29345
1.29341
1.29316
1.29311
1.29312
1.2931
1.29315
1.29316
1.29319
1.29317
1.29329
1.29332
1.29327
1.29327
1.29327
1.29329
1.29331
1.2933
1.29321
1.29308
1.293
1.29302
1.29308
1.2931
1.29307
1.29284
1.29296
1.29301
1.29306
1.29315
1.29324
1.29327
1.29326
1.29325
1.2932
1.29325
1.29325
1.29326
1.29326
1.29328
1.29328
1.29323
1.29311
1.29303
1.29306
1.2931
1.29311
1.29307
1.29293
1.29288
1.29269
1.29272
1.29293
1.29314
1.29324
1.29323
1.29323
1.29323
1.29325
1.29325
1.29325
1.29325
1.29326
1.29326
1.29324
1.29315
1.29307
1.29306
1.2931
1.29311
1.29312
1.29308
1.29309
1.29321
1.29282
1.29274
1.2929
1.29318
1.29322
1.29326
1.29323
1.29324
1.29324
1.29324
1.29324
1.29324
1.29325
1.29324
1.2932
1.29311
1.29307
1.29308
1.2931
1.29314
1.29315
1.29315
1.29313
1.29325
1.2932
1.29271
1.29258
1.29301
1.29311
1.29322
1.29323
1.29323
1.29323
1.29323
1.29323
1.29323
1.29323
1.29322
1.29317
1.29312
1.2931
1.29311
1.29312
1.29315
1.29318
1.29319
1.29318
1.29312
1.29316
1.29335
1.2933
1.29274
1.29299
1.29323
1.29323
1.29323
1.29323
1.29322
1.29322
1.29323
1.29322
1.2932
1.29318
1.29315
1.29314
1.29315
1.29317
1.29319
1.2932
1.29321
1.29321
1.29319
1.29316
1.29313
1.29313
1.29342
1.29322
1.29322
1.29322
1.29322
1.29322
1.29322
1.29322
1.29322
1.29321
1.2932
1.29319
1.29318
1.29319
1.2932
1.2932
1.29321
1.29321
1.29321
1.29322
1.29321
1.29319
1.29319
1.29318
1.29322
1.29322
1.29322
1.29322
1.29322
1.29322
1.29321
1.29321
1.29321
1.29321
1.29321
1.2932
1.2932
1.29321
1.29321
1.29321
1.29321
1.29322
1.29322
1.29322
1.29321
1.29321
1.29321
1.29322
1.29322
1.29322
1.29322
1.29321
1.29321
1.29321
1.29321
1.29321
1.29321
1.29321
1.29321
1.29321
1.29321
1.29321
1.29321
1.29321
1.29321
1.29322
1.29322
1.29322
1.29322
1.29322
1.29322
1.29321
1.29321
1.29321
1.29321
1.29321
1.29321
1.29321
1.29321
1.29321
1.29321
1.29321
1.29321
1.29321
1.29321
1.29321
1.29321
1.29321
1.29321
1.29322
1.29322
1.29322
1.29322
1.29321
1.29321
1.29321
1.29321
1.29321
1.29321
1.29321
1.29321
1.29321
1.29321
1.29321
1.29321
1.29321
1.29321
1.29321
1.29321
1.29321
1.29321
1.29321
1.29322
1.29322
1.29322
1.29322
1.29321
1.29321
1.29321
1.29321
1.29321
1.29321
1.29321
1.29321
1.29321
1.29321
1.29321
1.29321
1.29321
1.29321
1.29321
1.29321
1.29321
1.29321
1.29321
1.29321
1.29321
1.29322
1.29322
1.29321
1.29321
1.29321
1.29321
1.29321
1.29321
1.29321
1.29321
1.29321
1.29321
1.29321
1.29321
1.29321
1.29321
1.29321
1.29321
1.29321
1.29321
1.29321
1.29321
1.29321
1.29322
1.29322
1.2932
1.2932
1.2932
1.2932
1.2932
1.2932
1.2932
1.2932
1.2932
1.2932
1.2932
1.2932
1.29321
1.29321
1.29321
1.29321
1.29321
1.29321
1.29321
1.29321
1.29321
1.29321
1.29321
1.2932
1.2932
1.2932
1.2932
1.2932
1.2932
1.2932
1.2932
1.2932
1.2932
1.2932
1.2932
1.2932
1.2932
1.2932
1.29321
1.29321
1.29321
1.29321
1.29321
1.29321
1.29321
1.29321
1.2932
1.2932
1.2932
1.2932
1.2932
1.2932
1.2932
1.2932
1.2932
1.2932
1.2932
1.2932
1.2932
1.2932
1.2932
1.2932
1.2932
1.2932
1.2932
1.2932
1.2932
1.2932
1.2932
1.29319
1.29319
1.29319
1.29319
1.29319
1.29319
1.29319
1.29319
1.29319
1.29319
1.2932
1.2932
1.2932
1.2932
1.2932
1.2932
1.2932
1.2932
1.29319
1.29319
1.29318
1.29317
1.29316
1.29319
1.29319
1.29319
1.29319
1.29319
1.29319
1.29319
1.29319
1.29319
1.29319
1.29319
1.29319
1.29319
1.29319
1.29319
1.29318
1.29318
1.29317
1.29316
1.29315
1.29314
1.29314
1.29315
1.29318
1.29318
1.29318
1.29318
1.29318
1.29318
1.29318
1.29318
1.29318
1.29318
1.29318
1.29318
1.29318
1.29317
1.29317
1.29316
1.29315
1.29314
1.29313
1.29313
1.29314
1.29314
1.29314
1.29317
1.29317
1.29317
1.29317
1.29317
1.29317
1.29317
1.29317
1.29317
1.29317
1.29317
1.29316
1.29316
1.29315
1.29314
1.29313
1.29313
1.29312
1.29313
1.29314
1.29314
1.29314
1.29313
1.29316
1.29316
1.29316
1.29316
1.29316
1.29316
1.29316
1.29315
1.29315
1.29315
1.29315
1.29314
1.29313
1.29312
1.29312
1.29312
1.29313
1.29313
1.29314
1.29314
1.29313
1.29312
1.29311
1.29314
1.29314
1.29314
1.29314
1.29314
1.29314
1.29314
1.29314
1.29313
1.29313
1.29312
1.29312
1.29312
1.29311
1.29312
1.29312
1.29313
1.29313
1.29313
1.29312
1.2931
1.29309
1.29309
1.29313
1.29313
1.29313
1.29313
1.29312
1.29312
1.29312
1.29312
1.29312
1.29311
1.29311
1.29311
1.29311
1.29311
1.29312
1.29313
1.29312
1.29312
1.29311
1.2931
1.29309
1.29308
1.29308
1.29311
1.29311
1.29311
1.29311
1.29311
1.29311
1.29311
1.29311
1.2931
1.2931
1.2931
1.29311
1.29311
1.29312
1.29312
1.29312
1.29311
1.2931
1.29309
1.29308
1.29308
1.29307
1.29307
1.2931
1.2931
1.2931
1.2931
1.2931
1.2931
1.2931
1.2931
1.2931
1.2931
1.2931
1.29311
1.29311
1.29312
1.29311
1.29311
1.2931
1.29309
1.29308
1.29308
1.29307
1.29307
1.29307
1.29309
1.29309
1.29309
1.29309
1.29309
1.29309
1.29309
1.29309
1.29309
1.2931
1.2931
1.29311
1.29311
1.29311
1.2931
1.29309
1.29309
1.29308
1.29308
1.29307
1.29307
1.29307
1.29306
1.29309
1.29309
1.29309
1.29309
1.29309
1.29309
1.29309
1.29309
1.29309
1.2931
1.2931
1.29311
1.2931
1.2931
1.29309
1.29309
1.29308
1.29308
1.29307
1.29307
1.29307
1.29307
1.29307
1.29308
1.29308
1.29308
1.29308
1.29308
1.29308
1.29308
1.29309
1.29309
1.2931
1.2931
1.2931
1.29309
1.29309
1.29308
1.29308
1.29308
1.29307
1.29307
1.29307
1.29307
1.29307
1.29306
1.29308
1.29308
1.29308
1.29308
1.29308
1.29308
1.29308
1.29308
1.29309
1.2931
1.29309
1.29309
1.29308
1.29308
1.29308
1.29308
1.29307
1.29307
1.29307
1.29307
1.29307
1.29307
1.29307
1.29307
1.29307
1.29307
1.29307
1.29307
1.29308
1.29308
1.29309
1.29309
1.29309
1.29309
1.29308
1.29307
1.29307
1.29307
1.29307
1.29307
1.29307
1.29307
1.29307
1.29307
1.29307
1.29307
1.29307
1.29307
1.29307
1.29307
1.29307
1.29307
1.29308
1.29308
1.29309
1.29308
1.29307
1.29307
1.29307
1.29307
1.29307
1.29307
1.29307
1.29307
1.29307
1.29307
1.29307
1.29307
1.29307
1.29307
1.29307
1.29307
1.29307
1.29307
1.29307
1.29308
1.29308
1.29308
1.29307
1.29307
1.29306
1.29306
1.29306
1.29307
1.29307
1.29307
1.29307
1.29307
1.29307
1.29307
1.29307
1.29307
1.29306
1.29306
1.29306
1.29306
1.29306
1.29307
1.29308
1.29308
1.29307
1.29306
1.29306
1.29306
1.29306
1.29306
1.29307
1.29307
1.29307
1.29308
1.29308
1.29308
1.29308
1.29307
1.29307
1.29306
1.29306
1.29306
1.29306
1.29307
1.29307
1.29308
1.29307
1.29306
1.29305
1.29305
1.29305
1.29305
1.29306
1.29306
1.29307
1.29307
1.29308
1.29308
1.29308
1.29307
1.29307
1.29307
1.29305
1.29305
1.29305
1.29305
1.29306
1.29306
1.29307
1.29306
1.29305
1.29304
1.29304
1.29304
1.29305
1.29306
1.29307
1.29307
1.29308
1.29308
1.29308
1.29308
1.29308
1.29307
1.29307
1.29306
1.29306
1.29306
1.29307
1.29307
1.29307
1.29307
1.29305
1.29304
1.29303
1.29303
1.29304
1.29305
1.29306
1.29307
1.29307
1.29308
1.29308
1.29308
1.29308
1.29307
1.29307
1.29307
1.29369
1.29385
1.29444
1.29419
1.29268
1.29189
1.29246
1.29136
1.29173
1.2916
1.29196
1.29341
1.29355
1.29372
1.29376
1.29438
1.29323
1.29322
1.29346
1.29375
1.29322
1.29315
1.29312
1.29316
1.29319
1.29316
1.29312
1.29305
1.29319
1.29317
1.29314
1.2931
1.2932
1.29318
1.29317
1.29314
1.29317
1.29323
1.2933
1.29331
1.29282
1.29283
1.29292
1.29299
1.29356
1.29352
1.29348
1.29332
1.29317
1.29317
1.29317
1.29319
1.29321
1.2932
1.29321
1.29321
1.29322
1.29322
1.29322
1.29322
1.29322
1.29322
1.29322
1.29322
1.29322
1.29322
1.29322
1.29323
1.29322
1.29322
1.29322
1.29322
1.29322
1.29322
1.29322
1.29322
1.29321
1.29322
1.29322
1.29322
1.29321
1.29321
1.29321
1.29321
1.29319
1.29319
1.29319
1.29319
1.29316
1.29316
1.29316
1.29316
1.29315
1.29315
1.29315
1.29315
1.29314
1.29314
1.29314
1.29314
1.29313
1.29312
1.29312
1.29311
1.2931
1.2931
1.29309
1.29309
1.29308
1.29308
1.29308
1.29307
1.29307
1.29307
1.29307
1.29307
1.29307
1.29306
1.29306
1.29306
1.29306
1.29306
1.29306
1.29305
1.29306
1.29306
1.29306
1.29305
1.29306
1.29306
1.29306
1.29305
1.29306
1.29306
1.29306
1.29305
1.29306
1.29306
1.29306
1.29305
1.29306
1.29306
1.29306
1.29306
1.29307
1.29306
1.29306
1.29306
1.29307
1.29306
1.29306
1.29306
1.29307
1.29307
1.29306
1.29306
1.29307
1.29306
1.29306
1.29306
1.29307
1.29307
1.29307
1.29306
1.29306
1.29306
1.29306
1.29305
1.2971
1.29615
1.2965
1.29612
1.29586
1.29536
1.29486
1.29608
1.29865
1.3048
1.30959
1.30729
1.30478
1.30162
1.30018
1.30071
1.30036
1.30349
1.30379
1.29516
1.29531
1.29632
1.29516
1.29495
1.29461
1.29514
1.29621
1.29878
1.30747
1.3088
1.30711
1.30372
1.30123
1.30035
1.30083
1.30116
1.30227
1.30343
1.2924
1.29561
1.29454
1.29533
1.2943
1.29477
1.2946
1.29506
1.29533
1.29942
1.30217
1.30113
1.30136
1.29944
1.29963
1.29844
1.2998
1.29971
1.30209
1.29419
1.29296
1.29372
1.29367
1.2944
1.2939
1.29463
1.29643
1.29486
1.29557
1.29727
1.29919
1.29844
1.29878
1.29877
1.29897
1.29768
1.29839
1.29986
1.29431
1.29311
1.29313
1.29276
1.29385
1.2944
1.29444
1.29414
1.29459
1.29399
1.29437
1.29567
1.29621
1.29615
1.2975
1.29753
1.29882
1.29811
1.29881
1.29311
1.2931
1.2929
1.29287
1.2928
1.29321
1.29387
1.29409
1.29505
1.29388
1.29501
1.29371
1.29373
1.29443
1.2951
1.29669
1.2971
1.29754
1.29663
1.29303
1.29302
1.293
1.29292
1.29314
1.2931
1.29314
1.29371
1.2935
1.29403
1.29353
1.29342
1.29332
1.29328
1.29355
1.29416
1.29476
1.2949
1.29426
1.29306
1.29308
1.29299
1.29307
1.29324
1.29314
1.29288
1.29372
1.29325
1.29387
1.29319
1.29324
1.29326
1.2932
1.29319
1.29328
1.29345
1.29369
1.29357
1.29311
1.29315
1.29311
1.29316
1.29328
1.29312
1.29303
1.29347
1.29333
1.29328
1.29324
1.29324
1.29323
1.29318
1.29319
1.29322
1.29326
1.29333
1.29346
1.2933
1.2933
1.29326
1.29332
1.29325
1.29315
1.29307
1.29319
1.29323
1.29327
1.29322
1.29318
1.29317
1.29316
1.29318
1.29319
1.29324
1.29332
1.29335
1.29303
1.29322
1.29323
1.29314
1.29282
1.29319
1.29317
1.29317
1.29327
1.29323
1.29321
1.29317
1.29318
1.29319
1.29322
1.29322
1.29322
1.29321
1.29318
1.2935
1.29343
1.29341
1.29327
1.29319
1.29317
1.29318
1.29324
1.29326
1.29325
1.29322
1.2932
1.2932
1.29321
1.29322
1.29322
1.29323
1.2932
1.29307
1.29321
1.29322
1.29322
1.29321
1.29317
1.29315
1.29319
1.29323
1.29324
1.29322
1.29322
1.29321
1.29321
1.29321
1.29322
1.29322
1.29323
1.2932
1.293
1.29321
1.29321
1.2932
1.29316
1.29312
1.29312
1.29317
1.29318
1.29316
1.29315
1.29317
1.29318
1.2932
1.29321
1.29322
1.29322
1.29323
1.29321
1.29294
1.29322
1.29323
1.29323
1.29318
1.29312
1.2931
1.29311
1.29312
1.29309
1.29307
1.29312
1.29316
1.29319
1.29321
1.29322
1.29323
1.29324
1.29321
1.29288
1.29322
1.29322
1.29322
1.29319
1.29315
1.2931
1.29307
1.29307
1.29306
1.29305
1.29309
1.29315
1.29319
1.29321
1.29323
1.29323
1.29324
1.29322
1.29286
1.29323
1.29323
1.29323
1.29322
1.2932
1.29316
1.29311
1.29308
1.29308
1.29309
1.29313
1.29317
1.2932
1.29322
1.29323
1.29323
1.29324
1.29322
1.29292
1.29322
1.29322
1.29322
1.29322
1.29322
1.2932
1.29318
1.29314
1.29315
1.29316
1.29318
1.29319
1.29321
1.29322
1.29323
1.29323
1.29324
1.29322
1.29308
1.29322
1.29323
1.29323
1.29323
1.29323
1.29323
1.29322
1.29321
1.2932
1.2932
1.29321
1.29321
1.29322
1.29323
1.29324
1.29323
1.29324
1.29323
1.29324
1.29322
1.29322
1.29322
1.29322
1.29322
1.29323
1.29323
1.29322
1.29322
1.29322
1.29322
1.29322
1.29323
1.29323
1.29324
1.29323
1.29324
1.29322
1.29337
1.29321
1.29321
1.29321
1.29322
1.29322
1.29322
1.29322
1.29322
1.29322
1.29322
1.29322
1.29322
1.29323
1.29323
1.29323
1.29323
1.29323
1.29321
1.29337
1.29318
1.29318
1.29318
1.29319
1.29319
1.29319
1.29319
1.2932
1.2932
1.2932
1.29321
1.29321
1.29322
1.29322
1.29323
1.29323
1.29323
1.29322
1.29329
1.29316
1.29316
1.29316
1.29316
1.29316
1.29316
1.29317
1.29317
1.29317
1.29317
1.29318
1.29319
1.2932
1.29321
1.29322
1.29322
1.29323
1.29322
1.29326
1.29315
1.29315
1.29314
1.29314
1.29314
1.29314
1.29314
1.29314
1.29315
1.29315
1.29316
1.29317
1.29318
1.29319
1.29321
1.29322
1.29323
1.29322
1.29324
1.29314
1.29313
1.29312
1.29311
1.2931
1.2931
1.2931
1.29311
1.29311
1.29312
1.29314
1.29315
1.29316
1.29318
1.29319
1.29321
1.29322
1.29322
1.29323
1.2931
1.29309
1.29309
1.29308
1.29307
1.29307
1.29306
1.29306
1.29307
1.29308
1.2931
1.29313
1.29315
1.29316
1.29318
1.2932
1.29322
1.29322
1.29322
1.29308
1.29307
1.29307
1.29306
1.29305
1.29304
1.29303
1.29303
1.29303
1.29304
1.29306
1.29309
1.29313
1.29315
1.29317
1.29319
1.29321
1.29321
1.29322
1.29307
1.29306
1.29305
1.29304
1.29303
1.29302
1.29301
1.293
1.293
1.29301
1.29303
1.29305
1.29309
1.29313
1.29316
1.29318
1.29321
1.29321
1.29321
1.29306
1.29305
1.29304
1.29303
1.29302
1.29301
1.293
1.29298
1.29298
1.29298
1.29299
1.29301
1.29305
1.2931
1.29314
1.29317
1.2932
1.29321
1.2932
1.29305
1.29304
1.29303
1.29302
1.29301
1.29299
1.29298
1.29297
1.29296
1.29296
1.29297
1.29299
1.29302
1.29306
1.29313
1.29316
1.29319
1.2932
1.2932
1.29305
1.29304
1.29303
1.29301
1.293
1.29299
1.29297
1.29296
1.29294
1.29294
1.29295
1.29296
1.29299
1.29303
1.2931
1.29314
1.29318
1.29319
1.29319
1.29305
1.29304
1.29302
1.29301
1.29299
1.29298
1.29297
1.29295
1.29293
1.29292
1.29293
1.29294
1.29296
1.293
1.29307
1.29313
1.29317
1.29319
1.29318
1.29305
1.29304
1.29302
1.29301
1.29299
1.29298
1.29296
1.29294
1.29292
1.29291
1.29291
1.29292
1.29294
1.29297
1.29304
1.29311
1.29316
1.29318
1.29317
1.29305
1.29304
1.29302
1.29301
1.29299
1.29297
1.29295
1.29294
1.29291
1.29289
1.29289
1.2929
1.29292
1.29295
1.29301
1.29309
1.29315
1.29317
1.29317
1.29305
1.29304
1.29302
1.29301
1.29299
1.29297
1.29295
1.29293
1.29291
1.29288
1.29287
1.29288
1.2929
1.29293
1.29298
1.29306
1.29313
1.29316
1.29316
1.29305
1.29304
1.29302
1.29301
1.29299
1.29297
1.29295
1.29292
1.2929
1.29287
1.29286
1.29286
1.29288
1.29291
1.29297
1.29304
1.29312
1.29316
1.29315
1.29305
1.29304
1.29303
1.29301
1.29299
1.29297
1.29295
1.29292
1.29289
1.29286
1.29284
1.29284
1.29287
1.2929
1.29295
1.29302
1.29311
1.29314
1.29314
1.29305
1.29304
1.29303
1.29301
1.29299
1.29297
1.29294
1.29292
1.29288
1.29285
1.29282
1.29282
1.29285
1.29289
1.29294
1.29301
1.2931
1.29314
1.29313
1.29306
1.29304
1.29303
1.29301
1.29299
1.29297
1.29294
1.29291
1.29288
1.29284
1.29281
1.2928
1.29284
1.29289
1.29294
1.293
1.29309
1.29313
1.29312
1.29305
1.29304
1.29303
1.29301
1.29299
1.29296
1.29294
1.29291
1.29287
1.29283
1.2928
1.29279
1.29283
1.29289
1.29294
1.293
1.29308
1.29312
1.29311
1.29306
1.29305
1.29303
1.29301
1.29299
1.29297
1.29294
1.29291
1.29287
1.29283
1.29279
1.29278
1.29282
1.2929
1.29295
1.29301
1.29308
1.29312
1.2931
1.29305
1.29304
1.29302
1.293
1.29298
1.29296
1.29293
1.2929
1.29286
1.29282
1.29278
1.29277
1.29281
1.29289
1.29295
1.29301
1.29308
1.29311
1.2931
)
;

boundaryField
{
    leftWall
    {
        type            calculated;
        value           nonuniform List<scalar> 
50
(
1.3019
1.30112
1.30033
1.29951
1.29867
1.29782
1.29693
1.29606
1.29468
1.29355
1.29337
1.29335
1.29332
1.29329
1.29327
1.29325
1.29325
1.29324
1.29323
1.29323
1.29322
1.29322
1.29322
1.29322
1.29321
1.29321
1.29321
1.2932
1.2932
1.2932
1.29319
1.29319
1.29318
1.29317
1.29316
1.29314
1.29313
1.29311
1.2931
1.29309
1.29309
1.29308
1.29308
1.29307
1.29307
1.29307
1.29306
1.29306
1.29305
1.29306
)
;
    }
    rightWall
    {
        type            calculated;
        value           nonuniform List<scalar> 
50
(
1.31732
1.3157
1.31345
1.31215
1.31026
1.30915
1.30692
1.30521
1.30379
1.30343
1.30209
1.29986
1.29881
1.29663
1.29426
1.29357
1.29346
1.29335
1.29318
1.29307
1.293
1.29294
1.29288
1.29286
1.29292
1.29308
1.29324
1.29337
1.29337
1.29329
1.29326
1.29324
1.29323
1.29322
1.29322
1.29321
1.2932
1.2932
1.29319
1.29318
1.29317
1.29317
1.29316
1.29315
1.29314
1.29313
1.29312
1.29311
1.2931
1.2931
)
;
    }
    lowerWall
    {
        type            calculated;
        value           nonuniform List<scalar> 
62
(
1.30227
1.30233
1.30245
1.30262
1.30284
1.30311
1.3034
1.30374
1.30405
1.30442
1.30468
1.30499
1.30514
1.3053
1.30538
1.30539
1.30543
1.30528
1.30527
1.30497
1.3049
1.30454
1.30456
1.30419
1.30338
1.30266
1.30173
1.301
1.2999
1.29897
1.29767
1.29426
1.29444
1.2951
1.2949
1.31357
1.31238
1.30817
1.30551
1.30218
1.30068
1.29892
1.29816
1.31391
1.30652
1.30167
1.30056
1.30223
1.30532
1.30497
1.30455
1.30365
1.30331
1.30297
1.30282
1.30329
1.30387
1.30427
1.30626
1.31098
1.31655
1.31764
)
;
    }
    atmosphere
    {
        type            calculated;
        value           nonuniform List<scalar> 
46
(
1.29314
1.29314
1.29315
1.29315
1.29315
1.29316
1.29315
1.29314
1.29313
1.29312
1.29312
1.29313
1.29314
1.29315
1.29316
1.29317
1.29317
1.29317
1.29317
1.29317
1.29317
1.29316
1.29316
1.29316
1.29316
1.29315
1.29315
1.29314
1.29313
1.29312
1.2931
1.29308
1.29305
1.29303
1.29299
1.29296
1.29292
1.29288
1.29287
1.2929
1.29299
1.29305
1.29311
1.29317
1.2932
1.29319
)
;
    }
    defaultFaces
    {
        type            empty;
    }
}


// ************************************************************************* //
