/*--------------------------------*- C++ -*----------------------------------*\
| =========                 |                                                 |
| \\      /  F ield         | OpenFOAM: The Open Source CFD Toolbox           |
|  \\    /   O peration     | Version:  2012                                  |
|   \\  /    A nd           | Website:  www.openfoam.com                      |
|    \\/     M anipulation  |                                                 |
\*---------------------------------------------------------------------------*/
FoamFile
{
    version     2.0;
    format      ascii;
    class       volScalarField;
    location    "0.79";
    object      rhogh;
}
// * * * * * * * * * * * * * * * * * * * * * * * * * * * * * * * * * * * * * //

dimensions      [1 -1 -2 0 0 0 0];


internalField   nonuniform List<scalar> 
2268
(
-29.4294
-29.4294
-29.4294
-29.4294
-29.4294
-29.4294
-29.4294
-29.4294
-29.4294
-29.4294
-29.4294
-29.4294
-29.4294
-29.4294
-29.4294
-29.4294
-29.4294
-29.4294
-29.4294
-29.4294
-29.4294
-29.4286
-29.4229
-88.2881
-88.2881
-88.2881
-88.2881
-88.2881
-88.2881
-88.2881
-88.2881
-88.2881
-88.2881
-88.2881
-88.2881
-88.2881
-88.2881
-88.2881
-88.2881
-88.2881
-88.2881
-88.2881
-88.2881
-88.2881
-88.2812
-88.2626
-147.147
-147.147
-147.147
-147.147
-147.147
-147.147
-147.147
-147.147
-147.147
-147.147
-147.147
-147.147
-147.147
-147.147
-147.147
-147.147
-147.147
-147.147
-147.147
-147.147
-147.147
-147.143
-147.104
-206.006
-206.006
-206.006
-206.006
-206.006
-206.006
-206.006
-206.006
-206.006
-206.006
-206.006
-206.006
-206.006
-206.006
-206.006
-206.006
-206.006
-206.006
-206.006
-206.006
-206.006
-206.006
-205.953
-264.864
-264.864
-264.864
-264.864
-264.864
-264.864
-264.864
-264.864
-264.864
-264.864
-264.864
-264.864
-264.864
-264.864
-264.864
-264.864
-264.864
-264.864
-264.864
-264.864
-264.864
-264.864
-264.859
-323.723
-323.723
-323.723
-323.723
-323.723
-323.723
-323.723
-323.723
-323.723
-323.723
-323.723
-323.723
-323.723
-323.723
-323.723
-323.723
-323.723
-323.723
-323.723
-323.723
-323.723
-323.723
-323.723
-382.582
-382.582
-382.582
-382.582
-382.582
-382.582
-382.582
-382.582
-382.582
-382.582
-382.582
-382.582
-382.582
-382.582
-382.582
-382.582
-382.582
-382.582
-382.581
-382.572
-382.57
-382.579
-382.582
-441.44
-441.44
-441.44
-441.44
-441.44
-441.44
-441.44
-441.44
-441.44
-441.44
-441.44
-441.44
-441.44
-441.44
-441.44
-441.44
-441.44
-441.44
-441.44
-441.392
-439.983
-437.396
-441.44
-27.1251
-27.134
-27.134
-27.134
-26.5265
-23.9339
-23.9456
-24.6924
-24.6925
-24.6924
-24.6922
-24.692
-24.1933
-23.5937
-23.4537
-23.8026
-24.5296
-24.8939
-24.841
-81.3752
-81.402
-81.4019
-79.639
-72.8369
-68.8455
-73.4049
-74.0776
-74.0781
-70.2563
-50.6616
-38.3819
-31.8618
-28.0696
-26.7656
-39.6982
-70.9806
-87.4045
-87.4045
-135.667
-135.67
-120.176
-105.055
-121.395
-100.786
-86.4303
-103.847
-84.3367
-41.0848
-18.4395
-9.09983
-5.02423
-2.9174
-2.33924
-2.65584
-55.3301
-138.426
-145.826
-189.934
-176.256
-82.7094
-63.3687
-167.822
-201.259
-130.312
-20.488
-5.38425
-1.19418
-0.372339
-0.199196
-0.19919
-0.855413
-4.76505
-29.6879
-82.241
-161.709
-203.951
-244.084
-185.257
-0.303592
-10.4787
-110.763
-258.764
-257.59
-106.353
-0.155542
-0.155542
-0.155542
-0.7342
-19.2112
-73.4151
-144.686
-206.899
-258.171
-248.344
-261.487
-296.436
-132.838
-0.371108
-0.371057
-60.4421
-294.311
-320.451
-307.876
-159.568
-29.6488
-17.2102
-76.7704
-217.731
-287.382
-320.907
-320.907
-320.907
-320.907
-320.826
-351.251
-173.962
-1.96722
-4.13987
-148.457
-278.909
-366.091
-376.343
-375.012
-281.512
-273.228
-349.644
-366.52
-366.517
-297.935
-305.327
-333.428
-373.872
-366.91
-406.441
-277.647
-0.0174001
-69.3683
-258.76
-218.636
-244.603
-411.439
-439.606
-439.606
-439.909
-430.656
-353.503
-226.532
-113.778
-132.558
-237.075
-401.91
-262.167
-463.721
-473.92
-492.267
-513.132
-531.371
-533.467
-533.467
-533.467
-533.467
-533.467
-533.467
-533.467
-533.467
-533.467
-533.467
-533.467
-533.467
-533.466
-533.466
-533.309
-517.03
-383.174
-409.484
-116.155
-135.815
-173.729
-230.5
-311.628
-426.422
-519.743
-582.411
-619.683
-640.698
-650.767
-655.074
-656.318
-656.539
-656.204
-655.695
-652.261
-653.596
-657.405
-657.182
-553.353
-261.695
-261.832
-1.03958
-1.666
-3.36941
-7.54559
-17.5898
-48.0884
-112.617
-198.907
-290.667
-363.779
-402.548
-422.568
-457.003
-506.844
-538.257
-575.38
-634.031
-722.902
-771.887
-777.418
-584.621
-311.544
-541.154
-4.09164e-05
-0.000192893
-0.00196317
-0.0203064
-0.172802
-1.22033
-6.82076
-34.0506
-86.1997
-103.881
-103.879
-109.809
-194.991
-261.91
-312.933
-477.365
-689.718
-809.808
-864.968
-878.921
-740.422
-391.731
-392.199
-4.81667e-08
-2.56994e-06
-6.27195e-05
-0.000538315
-0.00152906
-0.05754
-7.93854
-15.1304
-6.03029
-6.79086
-186.029
-529.744
-529.443
-515.735
-302.372
-228.07
-250.596
-329.182
-437.802
-524.171
-592.436
-592.442
-458.189
-7.75133e-09
-1.6467e-07
-1.37573e-06
-4.12891e-06
-0.000100632
-0.558903
-2.73069
-1.25362
-0.0894315
-9.58275
-315.893
-582.543
-536.894
-130.318
-3.90018e-05
-3.90018e-05
-3.90018e-05
-3.90018e-05
-3.90018e-05
-3.90018e-05
-21.9568
-185.046
-289.683
-2.49049e-09
-4.75529e-08
-2.2058e-07
-6.13316e-07
-0.00737247
-0.144815
-0.0863335
-0.0028356
-0.0191611
-5.35445
-24.9422
-50.4679
-51.1216
-26.605
-27.0094
-42.0079
-19.2277
-1.81694
-0.206868
-4.32132e-05
-4.32132e-05
-4.32132e-05
-4.32132e-05
-9.57968e-10
-1.90199e-08
-1.10073e-07
-4.69674e-06
-0.00158026
-0.0054531
-9.05287e-06
-0.00017831
-0.0107768
-0.00350218
-2.02501e-05
-2.02338e-05
-2.02501e-05
-0.577018
-229.861
-564.072
-470.508
-150.526
-26.7912
-4.74245e-05
-0.00209223
-0.00687196
-0.0142742
-3.68936e-10
-8.86376e-09
-1.13279e-07
-8.57563e-06
-0.00018328
-7.43244e-06
-1.79059e-06
-1.81085e-06
-0.00415199
-0.0149294
-0.0104422
-2.20483e-05
-0.00221292
-1.7169
-166.156
-675.463
-787.052
-786.26
-386.235
-7.29899
-0.00227798
-0.09245
-0.012041
-1.39197e-10
-3.6488e-09
-6.56966e-08
-2.18658e-06
-3.54369e-06
-1.64235e-06
-4.42273e-06
-1.84363e-06
-0.000301438
-0.00235306
-0.00557451
-0.000451145
-0.0274981
-0.101801
-2.99224e-06
-2.99224e-06
-334.801
-672.615
-691.538
-665.539
-93.1621
-27.3856
-0.675603
-4.97685e-11
-1.30829e-09
-1.82056e-08
-2.91136e-07
-5.3713e-07
-1.66321e-06
-1.0072e-05
-2.43417e-05
-3.55197e-05
-9.60523e-05
-0.000103108
-9.45254e-05
-0.000346561
-3.6864e-06
-3.68642e-06
-3.38025e-06
-3.21789e-06
-3.21788e-06
-187.036
-737.088
-842.273
-790.327
-126.504
-1.70635e-11
-4.66495e-10
-6.03914e-09
-6.03821e-08
-2.42423e-07
-9.72476e-07
-8.68944e-06
-1.68571e-05
-0.000157302
-0.000190563
-0.00011034
-0.00084207
-0.00148234
-0.000445229
-2.24342e-05
-1.46225e-05
-8.90614e-05
-0.000346909
-0.000269807
-0.0002698
-2.13587
-33.4249
-803.771
-5.73817e-12
-1.66541e-10
-2.23374e-09
-1.92499e-08
-1.01347e-07
-4.02232e-07
-3.68776e-06
-5.86477e-07
-5.49842e-05
-0.00072915
-0.00258423
-0.0027384
-0.00273586
-0.00142561
-6.96979e-06
-3.64093e-06
-4.00307e-06
-4.84738e-05
-0.000336281
-0.00137627
-7.81897e-07
-7.81897e-07
-7.81897e-07
-1.84545e-12
-5.73016e-11
-8.33059e-10
-7.54252e-09
-4.61725e-08
-2.05444e-07
-1.08177e-06
-4.76123e-07
-4.7612e-07
-0.000526546
-0.00209881
-0.0029041
-0.00274238
-0.000737574
-1.54607e-05
-3.86473e-06
-4.07186e-06
-7.42565e-06
-1.8424e-05
-0.000286063
-0.000914432
-0.00075798
-0.00509287
-5.61413e-13
-1.86438e-11
-2.96036e-10
-2.9731e-09
-2.11035e-08
-1.15071e-07
-4.90553e-07
-4.87e-07
-5.93656e-06
-6.93841e-05
-0.000237886
-0.000851132
-0.000428102
-8.4003e-05
-1.7476e-05
-5.06113e-06
-5.35934e-06
-6.51892e-06
-4.53633e-06
-7.08424e-06
-2.31594e-05
-4.18e-05
-0.000224043
-1.61159e-13
-5.70424e-12
-9.8399e-11
-1.09829e-09
-8.95461e-09
-5.88662e-08
-3.05611e-07
-8.45764e-07
-3.4078e-06
-2.29615e-06
-2.48592e-06
-2.83434e-06
-2.01902e-06
-2.33161e-06
-4.99783e-06
-3.77718e-06
-4.72527e-06
-4.81466e-06
-3.44767e-06
-1.94845e-06
-1.15293e-06
-8.75254e-07
-3.29916e-07
-4.37642e-14
-1.6339e-12
-3.02023e-11
-3.68382e-10
-3.36175e-09
-2.53485e-08
-1.6005e-07
-7.82079e-07
-1.20533e-06
-7.96442e-07
-3.83167e-07
-1.85505e-07
-2.03318e-07
-4.82927e-07
-9.91737e-07
-1.48515e-06
-2.37153e-06
-2.13243e-06
-1.57388e-06
-1.24881e-06
-1.00861e-06
-7.8882e-07
-6.15572e-07
-1.12729e-14
-4.40907e-13
-8.63355e-12
-1.13197e-10
-1.1288e-09
-9.39143e-09
-6.61959e-08
-3.90983e-07
-5.01106e-07
-4.06846e-07
-2.53468e-07
-1.61532e-07
-1.57591e-07
-2.21296e-07
-3.30349e-07
-5.50313e-07
-7.6692e-07
-7.02971e-07
-5.87376e-07
-5.48612e-07
-5.08135e-07
-4.30769e-07
-3.98736e-07
-2.77407e-15
-1.1266e-13
-2.30859e-12
-3.20155e-11
-3.41471e-10
-3.04384e-09
-2.2636e-08
-1.18519e-07
-1.86717e-07
-1.64463e-07
-1.17772e-07
-1.03511e-07
-8.38267e-08
-9.16079e-08
-1.21188e-07
-1.92777e-07
-2.33054e-07
-2.13684e-07
-1.87413e-07
-1.73128e-07
-1.54409e-07
-1.32885e-07
-1.24285e-07
-6.56722e-16
-2.7499e-14
-5.83698e-13
-8.44705e-12
-9.47673e-11
-8.87529e-10
-6.77079e-09
-3.41839e-08
-6.04365e-08
-5.61263e-08
-4.31801e-08
-3.84136e-08
-3.08867e-08
-3.22934e-08
-4.06261e-08
-5.8586e-08
-6.355e-08
-5.67524e-08
-4.83825e-08
-4.11354e-08
-3.36897e-08
-2.67858e-08
-2.19097e-08
-1.50931e-16
-6.47509e-15
-1.41051e-13
-2.10443e-12
-2.44847e-11
-2.37473e-10
-1.83279e-09
-9.32957e-09
-1.73284e-08
-1.68536e-08
-1.32652e-08
-1.16657e-08
-9.52605e-09
-9.81011e-09
-1.18625e-08
-1.5286e-08
-1.49096e-08
-1.24975e-08
-9.65662e-09
-7.02801e-09
-4.80212e-09
-3.21313e-09
-2.86983e-09
-3.41865e-17
-1.49261e-15
-3.30961e-14
-5.03669e-13
-6.00633e-12
-5.96452e-11
-4.6216e-10
-2.39753e-09
-4.51613e-09
-4.55753e-09
-3.55774e-09
-3.10229e-09
-2.5555e-09
-2.60024e-09
-2.99023e-09
-3.39813e-09
-2.94263e-09
-2.1961e-09
-1.41422e-09
-7.25877e-10
-4.24816e-10
-1.50159e-09
-7.51594e-09
-8.04877e-18
-3.55165e-16
-7.95831e-15
-1.22529e-13
-1.48386e-12
-1.48475e-11
-1.13494e-10
-5.85343e-10
-1.08823e-09
-1.12057e-09
-8.62821e-10
-7.41514e-10
-6.11267e-10
-6.08709e-10
-6.48869e-10
-6.4228e-10
-4.76773e-10
-2.75558e-10
-1.42812e-10
-1.46678e-10
-2.77244e-09
-2.97453e-08
-1.25439e-07
-2.00823e-18
-8.90625e-17
-2.00857e-15
-3.11831e-14
-3.80375e-13
-3.76016e-12
-2.77155e-11
-1.37117e-10
-2.46334e-10
-2.542e-10
-1.93384e-10
-1.62448e-10
-1.32399e-10
-1.26529e-10
-1.19268e-10
-9.98762e-11
-6.04129e-11
-6.0413e-11
-3.03481e-10
-7.19349e-09
-8.87306e-08
-5.00556e-07
-2.90857e-06
-5.2908e-19
-2.34738e-17
-5.30773e-16
-8.27436e-15
-1.00512e-13
-9.63289e-13
-6.73549e-12
-3.10503e-11
-5.30608e-11
-5.40873e-11
-4.04816e-11
-3.24403e-11
-2.53267e-11
-2.08122e-11
-2.08122e-11
-2.53515e-11
-2.09508e-10
-3.34161e-09
-5.15625e-08
-6.78063e-07
-5.87963e-06
-3.07797e-05
-0.000137335
-1.46123e-19
-6.48097e-18
-1.4665e-16
-2.28394e-15
-2.72568e-14
-2.49105e-13
-1.6381e-12
-6.86883e-12
-1.10156e-11
-1.08742e-11
-7.75265e-12
-5.98293e-12
-5.98294e-12
-2.31038e-11
-1.72761e-10
-1.38722e-09
-5.32923e-09
-7.92684e-09
-7.92691e-09
-0.000108344
-0.000475417
-0.000639501
-0.000622213
-4.27686e-20
-1.89046e-18
-4.27309e-17
-6.57454e-16
-7.56151e-15
-6.46606e-14
-3.95552e-13
-1.40274e-12
-1.92648e-12
-1.94835e-12
-2.08111e-12
-5.49459e-12
-2.20633e-11
-1.07725e-10
-3.45819e-10
-5.50979e-10
-5.2082e-10
-5.20816e-10
-0.00070341
-0.0013758
-0.00137589
-0.000816873
-1.98782e-05
-1.09653e-20
-5.15689e-19
-1.087e-17
-1.62269e-16
-1.8047e-15
-1.48274e-14
-8.95641e-14
-4.12814e-13
-2.14123e-12
-1.86234e-11
-1.94848e-10
-1.69995e-09
-7.1265e-09
-9.22788e-09
-5.13422e-09
-5.69188e-10
-0.000295355
-0.00251896
-0.00254861
-0.00138981
-5.17532e-08
-5.17514e-08
-5.17532e-08
-6.98325e-21
-2.56996e-19
-8.86733e-18
-2.24566e-16
-5.02319e-15
-9.95523e-14
-1.67524e-12
-2.3227e-11
-2.60349e-10
-2.30188e-09
-1.53159e-08
-4.2926e-08
-4.49112e-08
-5.29809e-09
-5.29833e-09
-0.00163563
-0.00429907
-0.00378312
-0.000598404
-1.13153e-07
-1.13153e-07
-2.24805e-07
-2.8589e-07
-3.22329e-20
-2.96047e-18
-1.38717e-16
-4.20021e-15
-9.13895e-14
-1.5064e-12
-1.93611e-11
-1.97052e-10
-1.60647e-09
-1.0626e-08
-4.2383e-08
-6.17635e-08
-1.47092e-07
-2.56777e-05
-0.00314845
-0.00522218
-0.00493178
-9.25358e-08
-6.17823e-06
-2.38234e-07
-2.77789e-07
-2.41757e-07
-1.51331e-07
-7.98389e-19
-6.63096e-17
-2.64453e-15
-6.69143e-14
-1.19684e-12
-1.59047e-11
-1.6014e-10
-1.21666e-09
-6.79288e-09
-2.60636e-08
-4.46994e-08
-4.43751e-08
-4.43967e-08
-0.00222877
-0.00685948
-0.00491622
-8.32756e-05
-9.53183e-08
-1.73844e-07
-2.02709e-07
-1.05481e-07
-4.08083e-08
-1.88043e-08
-9.17037e-18
-6.58523e-16
-2.27204e-14
-5.00648e-13
-7.91302e-12
-9.52534e-11
-8.97083e-10
-6.51574e-09
-3.26005e-08
-5.6785e-08
-4.56703e-08
-4.56925e-08
-0.000907618
-0.00647238
-0.00705941
-0.00100605
-5.27529e-08
-9.81002e-08
-1.16229e-07
-3.47416e-08
-1.16467e-08
-5.06326e-09
-2.49138e-09
-8.98143e-17
-5.58728e-15
-1.65384e-13
-3.09591e-12
-4.15106e-11
-4.33382e-10
-3.79005e-09
-2.93318e-08
-1.99843e-07
-9.59148e-07
-1.49934e-05
-0.000746856
-0.0059382
-0.00665583
-0.00276457
-3.32877e-08
-5.42488e-08
-6.61713e-08
-1.59042e-08
-4.44272e-09
-1.77594e-09
-7.93708e-10
-3.63498e-10
-5.55764e-16
-3.27789e-14
-9.15496e-13
-1.58864e-11
-1.89377e-10
-1.62201e-09
-1.02793e-08
-5.04364e-08
-2.13115e-07
-3.73368e-06
-0.000377414
-0.00434677
-0.00610234
-0.00388225
-1.57738e-08
-3.42055e-08
-4.42149e-08
-1.33707e-08
-1.99631e-09
-6.97758e-10
-2.80534e-10
-1.14376e-10
-4.59379e-11
-3.245e-15
-1.79115e-13
-4.79733e-12
-8.30102e-11
-1.04248e-09
-1.00469e-08
-7.36394e-08
-2.01224e-07
-2.01231e-07
-1.17986e-05
-0.00196381
-0.00779154
-0.00523201
-3.2439e-09
-1.61972e-08
-2.85718e-08
-1.42637e-08
-1.69837e-09
-2.98948e-10
-1.05292e-10
-3.91675e-11
-1.41372e-11
-4.88743e-12
-1.184e-14
-6.08375e-13
-1.51851e-11
-2.45285e-10
-2.87391e-09
-2.61047e-08
-1.91413e-07
-1.00346e-06
-6.39416e-06
-6.82813e-05
-0.00478581
-0.00800598
-0.00217881
-3.31517e-09
-1.02827e-08
-1.20467e-08
-2.2937e-09
-1.8804e-10
-4.05656e-11
-1.33974e-11
-4.50668e-12
-1.43196e-12
-4.25112e-13
-4.24061e-14
-1.94384e-12
-4.25521e-11
-5.90278e-10
-5.76473e-09
-4.1158e-08
-2.04827e-07
-8.84328e-07
-5.25983e-05
-0.00307706
-0.0079396
-0.00523453
-1.48391e-09
-4.30048e-09
-6.68477e-09
-2.61098e-09
-3.06748e-10
-1.95136e-11
-4.59684e-12
-1.39543e-12
-4.23539e-13
-1.19077e-13
-3.08066e-14
-1.17853e-13
-4.97053e-12
-9.79458e-11
-1.18843e-09
-9.72609e-09
-5.24725e-08
-1.45203e-07
-6.94222e-07
-0.00025219
-0.00576077
-0.00814033
-0.00130634
-1.52076e-09
-2.65533e-09
-3.03221e-09
-5.40226e-10
-3.63273e-11
-1.85991e-12
-3.8692e-13
-1.06833e-13
-2.92376e-14
-7.3243e-15
-1.71024e-15
-3.37297e-13
-1.33443e-11
-2.50386e-10
-3.13439e-09
-3.38098e-08
-3.35766e-07
-2.39126e-06
-4.62328e-06
-9.39249e-06
-0.00301549
-0.00821405
-1.55762e-09
-1.55409e-09
-1.8518e-09
-1.00008e-09
-1.30954e-10
-7.29012e-12
-1.98095e-13
-2.37798e-14
-5.79988e-15
-1.42551e-15
-3.23468e-16
-7.14635e-17
-7.95502e-13
-3.00297e-11
-5.27291e-10
-5.81122e-09
-4.64165e-08
-3.02435e-07
-8.75081e-07
-8.75077e-07
-0.000656864
-0.00726959
-0.00118858
-1.59086e-09
-1.59087e-09
-1.59088e-09
-4.95692e-10
-6.50693e-11
-3.47739e-12
-2.24469e-14
-8.66167e-16
-1.72121e-16
-3.61562e-17
-7.34027e-18
-1.67732e-18
-1.87359e-12
-6.83095e-11
-1.14524e-09
-1.15885e-08
-7.76836e-08
-3.92934e-07
-5.84774e-06
-0.000532525
-0.00709793
-0.00744682
-2.53345e-05
-1.63134e-09
-1.76844e-09
-1.84416e-09
-4.2838e-10
-5.04638e-11
-9.14854e-13
-1.74018e-15
-1.51712e-17
-1.98827e-18
-2.86553e-19
-4.30944e-20
-1.22821e-20
-5.71493e-12
-1.95462e-10
-3.05945e-09
-2.86136e-08
-1.74788e-07
-2.06136e-06
-0.000334832
-0.00571491
-0.00975231
-0.0051091
-3.16052e-09
-3.16064e-09
-5.09185e-09
-2.42882e-09
-4.38252e-10
-3.07005e-11
-3.25042e-14
1.79251e-41
-3.4263e-22
-4.48992e-25
-5.64988e-27
-3.48349e-27
-4.29085e-27
-376.202
-393.538
-440.391
-475.553
-464.489
-543.776
-568.414
-573.375
-613.729
-601.225
-386.368
-331.493
-424.064
-275.71
-246.367
-246.387
-266.567
-291.712
-614.822
-637.079
-298.798
-244.809
-222.711
-355.698
-4.32132e-05
-0.112358
-0.952323
-4.79062
-0.0247051
-0.0238649
-0.0208049
-0.0408181
-0.00418368
-0.00331946
-0.00244762
-0.00244982
-0.358358
-0.51799
-0.144116
-0.0248869
-195.05
-250.969
-139.213
-83.073
-1174.77
-1174.89
-1147.03
-720.174
-7.81897e-07
-7.81897e-07
-7.81897e-07
-16.5478
-0.00772651
-0.00772563
-3.37037e-05
-8.29981e-07
-0.000620548
-0.000445201
-0.000252911
-0.00215067
-3.29919e-07
-3.29916e-07
-3.2982e-07
-3.29823e-07
-5.62216e-07
-5.51014e-07
-4.6422e-07
-3.46947e-07
-3.95118e-07
-3.98421e-07
-4.03935e-07
-3.95234e-07
-1.21372e-07
-1.21234e-07
-1.21939e-07
-1.20941e-07
-1.98098e-08
-1.9091e-08
-1.91457e-08
-1.95389e-08
-3.2021e-09
-4.20658e-09
-6.80438e-09
-1.18961e-08
-1.97113e-08
-3.89028e-08
-8.10724e-08
-1.59725e-07
-2.79712e-07
-5.35582e-07
-1.38279e-06
-3.73372e-06
-7.84489e-06
-2.07817e-05
-6.57714e-05
-0.000148345
-0.000264681
-0.000386567
-0.000480749
-0.000480512
-0.000615115
-0.000606337
-0.000455583
-0.000202712
-5.15752e-08
-5.14619e-08
-5.15752e-08
-5.14619e-08
-8.63801e-08
-1.79993e-07
-2.83884e-07
-3.5793e-07
-3.27922e-07
-3.27383e-07
-3.22463e-07
-3.03948e-07
-9.32126e-08
-7.5375e-08
-6.14369e-08
-5.10469e-08
-1.11246e-08
-8.57344e-09
-6.85349e-09
-5.63575e-09
-1.54493e-09
-1.20833e-09
-9.65017e-10
-7.91846e-10
-2.09428e-10
-1.5926e-10
-1.25036e-10
-1.02169e-10
-2.41065e-11
-1.78297e-11
-1.38236e-11
-1.13491e-11
-2.32062e-12
-1.68306e-12
-1.30662e-12
-1.09643e-12
-1.85182e-13
-1.34828e-13
-1.0766e-13
-9.41695e-14
-1.2719e-14
-9.49327e-15
-7.90625e-15
-7.23729e-15
-7.13685e-16
-5.5927e-16
-4.90779e-16
-4.69543e-16
-3.12173e-17
-2.55886e-17
-2.35209e-17
-2.33255e-17
-8.62442e-19
-7.62738e-19
-7.40892e-19
-8.45437e-19
-9.67735e-21
-1.06032e-20
-1.17238e-20
-1.35247e-20
-4.42505e-27
-4.25611e-27
-3.98801e-27
-3.69934e-27
-491.172
-157.227
-0.0214746
-168.468
-312.725
-145.023
-57.6224
-151.761
-367.178
-489.268
-465.337
-354.411
-221.275
-120.705
-120.794
-120.987
-281.713
-488.063
-104.774
-377.44
-74.9395
-299.935
-299.946
-149.22
-4.5679
-5.67508
-58.2116
-137.121
-165.118
-177.809
-391.021
-477.233
-364.907
-229.488
-484.816
-484.555
-293.852
-73.16
-281.343
-288.943
-356.958
-242.488
-0.0287234
-0.24956
-0.500612
-1.9009
-37.2937
-423.046
-757.843
-776.099
-776.099
-776.099
-478.85
-242.742
-305.635
-67.5337
-268.65
-326.264
-369.645
-311.794
-5.68949
-0.033311
-1.29251
-6.48966
-6.5594
-4.14467
-134.314
-651.921
-900.054
-900.054
-896.784
-565.681
-53.4525
-53.5502
-78.2936
-888.088
-637.098
-277.511
-2.09608
-0.404871
-2.23887
-101.612
-323.541
-315.986
-0.99719
-10.3884
-345.297
-940.63
-920.792
-1002.42
-996.644
-571.39
-226.134
-346.499
-1023.27
-459.14
-15.7392
-0.0244347
-0.0246478
-2.81732
-164.293
-735.131
-732.461
-15.1896
-1.10594
-170.254
-372.616
-272.829
-689.866
-1120.79
-1120.8
-1094.71
-1097.54
-1147.13
-13.777
-1.10242
-0.0273093
-0.0445101
-0.737653
-118.587
-839.468
-895.188
-532.005
-1.25051
-184.81
-28.0307
-0.012459
-89.7627
-594.421
-1061.25
-1141.03
-1095.78
-926.133
-0.0661337
-0.0977905
-0.0735867
-0.0751621
-0.0189188
-89.1234
-886.408
-982.429
-888.123
-197.308
-160.355
-4.73367
-0.0136732
-0.0136732
-0.0136732
-160.666
-281.958
-197.779
-89.6033
-0.00251226
-0.00697701
-0.0213709
-0.0207783
-0.0205952
-119.305
-924.888
-778.111
-386.313
-345.958
-8.81516
-0.00568434
-0.0272223
-0.0629551
-0.061671
-0.0391904
-0.0391895
-0.0391904
-0.0391895
-0.00821868
-2.82066e-19
1.07358e-20
-2.85756e-19
-17.4186
-366.855
-505.935
-0.000692474
-0.000692416
-0.000692478
-0.000692416
-0.00614748
-0.0585849
-0.308932
-0.568521
-0.796094
-2.43962
-10.5609
-13.5107
-84.8334
-60.7494
-43.0524
-17.6046
-442.93
-667.796
-90.9687
-0.00074463
-0.000744697
-0.0218333
-0.114149
-0.100548
-0.000291294
-0.0097311
-0.366683
-1.24438
-2.69533
-8.44159
-9.55713
-1294.2
-1294.26
-973.365
-483.487
-224.874
-66.2234
-0.198671
-0.504486
-1.36883
-1.36864
-0.480616
-0.00031172
-0.000311733
-2.10065e-05
-2.10064e-05
-2.10065e-05
-2.10064e-05
-2.10065e-05
-2.10455e-05
-47.439
-68.2386
-7.73264
-7.81897e-07
-7.81897e-07
-7.81897e-07
-1.86496
-2.44763
-2.22615
-1.75242e-05
-0.0340103
-0.000792784
-0.00147881
-0.0012374
-0.000415173
-2.23415e-05
-7.63795e-05
-2.24246e-05
-2.24244e-05
-8.29981e-07
-8.29981e-07
-8.29981e-07
-3.08191e-05
-6.42106e-06
-0.194088
-1.44545
-1.4536
-0.10406
-1.85964e-05
-0.0010436
-0.0149925
-0.0476291
-0.0359393
-0.00226765
-2.37153e-05
-0.000354182
-0.0592794
-0.000357964
-0.00231046
-0.000682195
-0.00159207
-0.00121372
-0.000504275
-0.0469089
-0.178302
-0.0493435
-0.0169629
-1.96795e-05
-0.00364041
-0.0576052
-0.0722236
-0.0701329
-0.00367557
-2.50895e-05
-1.79246e-08
-0.272827
-3.2784
-3.50871e-07
-3.50871e-07
-0.000968841
-0.0020055
-0.000878965
-0.00190552
-0.00334929
-0.00275534
-0.00107456
-2.07511e-05
-0.0027175
-0.0761786
-0.0761802
-0.0281475
-0.000979369
-2.49309e-05
-1.89169e-08
-0.173529
-155.487
-3.42286e-07
-4.71684e-07
-4.71688e-07
-0.000631305
-3.2042e-07
-0.00483331
-0.00742803
-0.00622743
-0.00123737
-2.18349e-05
-0.0354681
-0.0801353
-0.0630429
-0.00438217
-0.000142704
-1.77392e-05
-1.98877e-08
-0.114979
-266.561
-3.59179e-07
-4.82394e-07
-6.07344e-07
-2.01898e-06
-3.37211e-07
-0.00104844
-0.00779226
-0.00430122
-0.00042119
-0.0247252
-0.0494829
-0.049479
-0.0089863
-0.000108055
-7.4039e-08
-3.28867e-06
-2.08811e-08
-0.312061
-279.715
-1.13609e-07
-1.38371e-07
-2.12311e-07
-4.55021e-08
-4.28077e-06
-4.98073e-05
-0.000581031
-0.000220578
-0.000440995
-0.000505512
-0.00187944
-4.04697e-08
-4.0065e-08
-4.04697e-08
-7.7519e-08
-8.37617e-08
-2.18508e-08
-0.102187
-292.874
-2.12492e-08
-2.91502e-08
-7.1596e-08
-4.75467e-08
-3.76386e-06
-7.18389e-06
-9.63002e-06
-2.30423e-05
-1.28953e-06
-2.57962e-08
-2.5587e-08
-9.58739e-08
-1.93181e-07
-2.80933e-07
-1.82772e-07
-4.25059e-06
-2.28454e-08
-0.289132
-141.67
-2.80828e-08
-6.9586e-08
-2.03035e-07
-4.51624e-07
-6.94702e-07
-5.12824e-07
-2.07616e-07
-2.07616e-07
-3.81761e-07
-5.75259e-07
-5.31895e-07
-4.06127e-07
-3.48629e-07
-2.94853e-07
-2.13311e-08
-0.000122089
-2.3814e-08
-0.301493
-0.00536287
-3.59352e-07
-9.80188e-07
-3.14034e-06
-7.82849e-06
-1.07195e-05
-7.93204e-06
-4.72129e-06
-2.20118e-06
-1.09557e-06
-6.08489e-07
-3.7433e-07
-2.58398e-07
-2.15336e-07
-1.39081e-07
-2.22103e-08
-0.000534616
-2.48096e-08
-0.149429
-0.00558255
-9.62575e-06
-4.04798e-05
-7.01914e-05
-6.51322e-05
-3.93287e-05
-2.02668e-05
-1.53429e-05
-1.18736e-05
-5.38182e-06
-2.34439e-06
-1.24112e-06
-6.9034e-07
-3.78967e-07
-1.263e-07
-5.12904e-08
-0.000654349
-9.87908e-05
-0.0109406
-0.00204639
-0.000254364
-0.000284796
-0.000217605
-8.44283e-05
-2.602e-05
-1.71601e-05
-1.73838e-05
-1.94068e-05
-2.14597e-05
-7.47042e-06
-2.81953e-06
-1.52032e-06
-9.67214e-07
-3.36797e-07
-2.39688e-08
-0.00063012
-0.00138835
-2.22156e-05
-2.22262e-05
-0.000477875
-0.000275551
-5.13269e-05
-1.78357e-06
-1.90748e-06
-3.30378e-06
-3.79589e-06
-7.29406e-06
-0.000117811
-0.000205398
-0.000163625
-3.72201e-05
-6.67578e-06
-1.2681e-06
-2.48481e-08
-0.000363154
-0.00185331
-0.000716899
-2.98737e-05
-5.05147e-05
-5.41357e-08
-5.39693e-08
-5.41357e-08
-5.39693e-08
-4.27351e-07
-9.23417e-08
-5.99256e-08
-0.000111317
-0.00164648
-0.00214245
-0.0012138
-0.000126842
-7.50249e-06
-2.57273e-08
-0.000256113
-0.0019166
-0.00191889
-0.000733707
-5.15752e-08
-2.85195e-07
-3.47603e-07
-2.02605e-07
-1.01158e-07
-1.01719e-06
-6.4758e-07
-6.19098e-08
-2.56732e-05
-0.00176475
-0.00260939
-0.00261253
-0.00124859
-5.74277e-05
-1.76553e-06
-2.66065e-08
-0.00127681
-0.00170297
-0.00448148
-4.19912e-07
-4.27273e-07
-3.05146e-07
-1.46066e-07
-1.64927e-07
-1.25398e-06
-9.0348e-07
-2.57136e-07
-4.764e-10
-4.71972e-10
-0.00117541
-0.00269562
-0.002628
-0.000575526
-8.53849e-06
-2.74858e-08
-0.00201185
-0.00229336
-0.0169463
-2.4769e-07
-1.8613e-07
-5.67959e-08
-4.16234e-08
-1.68172e-07
-8.64522e-07
-5.97753e-07
-4.18672e-07
-1.70837e-07
-5.70111e-09
-5.70028e-09
-0.00113519
-0.00271111
-0.0013625
-1.21601e-05
-2.8365e-08
-0.00131759
-0.044276
-0.0276508
-3.68175e-08
-2.03537e-08
-1.12268e-08
-1.13561e-08
-4.51202e-08
-1.58487e-07
-1.38292e-07
-3.37583e-07
-2.26423e-07
-5.87697e-09
-8.98519e-05
-6.68108e-05
-0.00080715
-0.000972321
-0.000112319
-2.92442e-08
-0.0114301
-0.0710864
-0.0415198
-4.25537e-09
-2.868e-09
-2.21364e-09
-2.19233e-09
-3.79219e-09
-8.70008e-09
-4.02922e-08
-1.36994e-07
-8.79428e-08
-7.97271e-09
-0.000270042
-0.000139231
-0.000139232
-0.000175933
-4.55013e-05
-3.01234e-08
-0.0147102
-0.0731931
-0.0430617
-6.1167e-10
-4.5161e-10
-4.01678e-10
-4.90832e-10
-9.98505e-10
-2.38728e-09
-8.03783e-09
-2.69805e-08
-1.72947e-08
-4.01343e-10
-0.000203734
-0.000264686
-0.000574173
-0.0010264
-0.000295766
-3.10027e-08
-0.0038582
-0.0753609
-0.0295659
-8.08046e-11
-6.47662e-11
-6.48719e-11
-9.71598e-11
-1.96488e-10
-3.993e-10
-1.10027e-09
-3.98342e-09
-3.04085e-09
-4.12724e-10
-2.86464e-11
-0.00340159
-0.00231594
-0.00248538
-0.000812998
-3.18819e-08
-0.00101943
-0.0221402
-0.0060734
-9.30674e-12
-8.01243e-12
-1.01637e-11
-1.66737e-11
-3.1624e-11
-5.37432e-11
-1.30208e-10
-5.83694e-10
-5.19198e-10
-3.57703e-10
-2.94365e-11
-0.00975615
-0.00896838
-0.00594854
-0.0014804
-4.51949e-05
-0.000228991
-4.10003e-05
-7.64509e-05
-9.60053e-13
-9.19581e-13
-1.43914e-12
-2.41902e-12
-4.30195e-12
-6.15275e-12
-1.33607e-11
-7.87486e-11
-7.27225e-11
-4.51544e-11
-6.90813e-13
-0.00675066
-0.0518398
-0.0317848
-0.00583984
-7.7069e-05
-7.54821e-06
-5.84927e-07
-6.71052e-07
-8.75498e-14
-1.03007e-13
-1.75993e-13
-3.01007e-13
-5.07772e-13
-6.28969e-13
-1.23013e-12
-9.01412e-12
-7.96022e-12
-5.02148e-12
-7.08881e-13
2.33876e-31
-0.254883
-0.185568
-0.0178256
-0.000138226
-1.43459e-06
-5.17756e-07
-5.17756e-07
-7.04775e-15
-1.0195e-14
-1.76134e-14
-3.08231e-14
-5.11133e-14
-5.75325e-14
-1.02845e-13
-8.27156e-13
-6.74223e-13
-3.96385e-13
-7.50593e-14
-3.84548e-34
-0.302506
-0.459352
-0.0835979
-0.000403466
-7.02634e-07
-5.30943e-07
-5.30943e-07
-5.18033e-16
-8.10134e-16
-1.43069e-15
-2.58573e-15
-4.35441e-15
-4.69143e-15
-7.94798e-15
-6.07602e-14
-4.3888e-14
-1.98086e-14
-2.54416e-15
-7.57345e-34
-0.187936
-0.774677
-0.20002
-0.00047084
-5.4577e-07
-5.44131e-07
-5.44131e-07
-2.95249e-17
-4.60006e-17
-8.53613e-17
-1.61501e-16
-2.89392e-16
-3.12434e-16
-5.01779e-16
-3.2546e-15
-2.0949e-15
-7.54625e-16
-1.33429e-16
6.01254e-36
-0.249382
-0.793428
-0.270607
-0.00103294
-5.57318e-07
-5.57318e-07
-0.0219066
-1.09666e-18
-1.80611e-18
-3.61824e-18
-7.26904e-18
-1.37566e-17
-1.50646e-17
-2.27652e-17
-1.181e-16
-6.36899e-17
-1.63857e-17
-2.48555e-18
-3.96713e-37
-0.319457
-0.812227
-0.467083
-0.00468434
-5.70506e-07
-5.70506e-07
-0.0506377
-1.92215e-20
-3.5547e-20
-7.81265e-20
-1.66782e-19
-3.37725e-19
-3.78978e-19
-5.13718e-19
-2.05874e-18
-8.9491e-19
-1.72466e-19
-2.22154e-20
1.3797e-39
-0.119018
-0.830977
-0.527853
-0.0055319
-5.83693e-07
-0.0184609
-0.0518188
-3.26155e-27
-2.65383e-27
-1.87484e-27
-7.79858e-28
-1.37231e-28
-6.69798e-32
-9.45866e-52
8.95861e-55
3.37723e-35
4.26031e-35
6.09072e-35
1.29784e-34
6.15641e-36
-0.404647
-0.267496
-0.00333119
-0.000565679
-0.0469581
-0.0328558
)
;

boundaryField
{
    leftWall
    {
        type            calculated;
        value           nonuniform List<scalar> 
50
(
-29.4294
-88.2881
-147.147
-206.006
-264.864
-323.723
-382.582
-441.44
-463.721
-116.155
-1.03958
-4.09164e-05
-4.81667e-08
-7.75133e-09
-2.49049e-09
-9.57968e-10
-3.68936e-10
-1.39197e-10
-4.97685e-11
-1.70635e-11
-5.73817e-12
-1.84545e-12
-5.61413e-13
-1.61159e-13
-4.37642e-14
-1.12729e-14
-2.77407e-15
-6.56722e-16
-1.50931e-16
-3.41865e-17
-8.04877e-18
-2.00823e-18
-5.2908e-19
-1.46123e-19
-4.27686e-20
-1.09653e-20
-6.98325e-21
-3.22329e-20
-7.98389e-19
-9.17037e-18
-8.98143e-17
-5.55764e-16
-3.245e-15
-1.184e-14
-4.24061e-14
-1.17853e-13
-3.37297e-13
-7.95502e-13
-1.87359e-12
-5.71493e-12
)
;
    }
    rightWall
    {
        type            calculated;
        value           nonuniform List<scalar> 
50
(
-24.841
-87.4045
-145.826
-203.951
-261.487
-320.826
-366.91
-262.167
-104.774
-73.16
-268.65
-888.088
-1023.27
-1147.13
-926.133
-89.6033
-0.0391895
-13.5107
-9.55713
-2.10455e-05
-2.24244e-05
-0.000357964
-3.2784
-155.487
-266.561
-279.715
-292.874
-141.67
-0.00536287
-0.00558255
-0.00204639
-2.22262e-05
-2.98737e-05
-0.000733707
-0.00448148
-0.0169463
-0.0276508
-0.0415198
-0.0430617
-0.0295659
-0.0060734
-7.64509e-05
-6.71052e-07
-5.17756e-07
-5.30943e-07
-5.44131e-07
-0.0219066
-0.0506377
-0.0518188
-0.0328558
)
;
    }
    lowerWall
    {
        type            calculated;
        value           nonuniform List<scalar> 
62
(
0
0
0
0
0
0
0
0
0
0
0
0
0
0
0
0
0
0
0
0
0
0
0
-29.4229
-88.2626
-147.104
-205.953
-264.859
-323.723
-382.582
-441.44
-332.058
-347.36
-388.716
-419.752
-27.1251
-81.3752
-135.667
-189.934
-244.084
-296.436
-351.251
-406.441
0
0
0
0
0
0
0
0
0
0
0
0
0
0
0
0
0
0
0
)
;
    }
    atmosphere
    {
        type            calculated;
        value           nonuniform List<scalar> 
46
(
-5.77806e-12
-1.97622e-10
-3.09325e-09
-2.89297e-08
-1.76718e-07
-2.08413e-06
-0.000338531
-0.00577805
-0.00986004
-0.00516554
-3.19543e-09
-3.19555e-09
-5.1481e-09
-2.45565e-09
-4.43094e-10
-3.10396e-11
-0
-0
-0
-0
-0
-0
-0
-0
-0
-0
-0
-0
-0
-0
-0
-0
-0
-0
-0
-0
-0
-0
-0
-0
-0.409117
-0.270451
-0.00336799
-0.000571928
-0.0474769
-0.0332188
)
;
    }
    defaultFaces
    {
        type            empty;
    }
}


// ************************************************************************* //
