/*--------------------------------*- C++ -*----------------------------------*\
| =========                 |                                                 |
| \\      /  F ield         | OpenFOAM: The Open Source CFD Toolbox           |
|  \\    /   O peration     | Version:  2012                                  |
|   \\  /    A nd           | Website:  www.openfoam.com                      |
|    \\/     M anipulation  |                                                 |
\*---------------------------------------------------------------------------*/
FoamFile
{
    version     2.0;
    format      ascii;
    class       volScalarField;
    location    "0.67";
    object      maxKappa;
}
// * * * * * * * * * * * * * * * * * * * * * * * * * * * * * * * * * * * * * //

dimensions      [0 0 0 0 0 0 0];


internalField   nonuniform List<scalar> 
2268
(
8.23226e-08
1.34538e-07
1.34538e-07
1.32709e-07
2.52224e-07
4.29312e-07
6.5496e-07
1.07226e-06
1.50119e-06
1.95295e-06
2.43375e-06
2.89886e-06
3.24088e-06
3.44578e-06
3.55447e-06
3.60583e-06
3.60583e-06
3.56864e-06
3.37611e-06
3.04184e-06
2.45221e-06
1.76567e-06
8.87144e-07
7.19412e-08
1.2e-07
1.68999e-07
2.19527e-07
3.20553e-07
4.56123e-07
7.05837e-07
1.12116e-06
1.50997e-06
1.95761e-06
2.45441e-06
2.90229e-06
3.2458e-06
3.47205e-06
3.59123e-06
3.6386e-06
3.6386e-06
3.58774e-06
3.40161e-06
3.11967e-06
2.64632e-06
2.18845e-06
1.47134e-06
1.32948e-07
1.75821e-07
1.82669e-07
2.03457e-07
2.56039e-07
3.95062e-07
7.12747e-07
1.1712e-06
1.59183e-06
2.06779e-06
2.55324e-06
2.96513e-06
3.27805e-06
3.50428e-06
3.63263e-06
3.68267e-06
3.68267e-06
3.61624e-06
3.41342e-06
3.12432e-06
2.6571e-06
2.23278e-06
1.54257e-06
1.30685e-07
1.72883e-07
2.30593e-07
3.6705e-07
4.29687e-07
5.34476e-07
8.73825e-07
1.28079e-06
1.63467e-06
2.09036e-06
2.56764e-06
3.00526e-06
3.36694e-06
3.62905e-06
3.75146e-06
3.77896e-06
3.77896e-06
3.70148e-06
3.52631e-06
3.28195e-06
2.86838e-06
2.53399e-06
2.10362e-06
1.93004e-07
2.62497e-07
2.62497e-07
3.51158e-07
3.73227e-07
4.73988e-07
8.72433e-07
1.33738e-06
1.77134e-06
2.29429e-06
2.76581e-06
3.16261e-06
3.46786e-06
3.68818e-06
3.80315e-06
3.8635e-06
3.8635e-06
3.80353e-06
3.65342e-06
3.45737e-06
3.14967e-06
2.93989e-06
2.44771e-06
2.08069e-07
2.54675e-07
2.87026e-07
4.85043e-07
6.13772e-07
7.66783e-07
1.14804e-06
1.51043e-06
1.84055e-06
2.32233e-06
2.79549e-06
3.25104e-06
3.64379e-06
3.89683e-06
3.98237e-06
4.01523e-06
4.01523e-06
3.94762e-06
3.8119e-06
3.63514e-06
3.42324e-06
3.42324e-06
3.09829e-06
3.42034e-07
3.61184e-07
3.61184e-07
4.89393e-07
6.08768e-07
7.43221e-07
1.10842e-06
1.54506e-06
2.0434e-06
2.64103e-06
3.115e-06
3.50615e-06
3.79766e-06
3.9727e-06
4.04564e-06
4.15289e-06
4.15289e-06
4.13556e-06
4.04911e-06
3.92132e-06
4.13628e-06
4.13628e-06
3.63328e-06
1.61506e-06
1.57976e-06
1.29294e-06
1.15126e-06
1.24884e-06
1.30061e-06
1.51449e-06
1.85507e-06
2.21874e-06
2.67151e-06
3.12198e-06
3.64209e-06
4.06392e-06
4.24765e-06
4.25229e-06
4.32191e-06
4.32191e-06
4.3064e-06
4.20657e-06
4.10591e-06
4.81751e-06
4.81751e-06
4.61592e-06
0.000348414
0.000478189
0.000713863
0.000795776
0.000795776
0.000766708
0.000605243
0.000367259
0.000370067
0.000422902
0.000452296
0.000468485
0.00047334
0.00047334
0.000464949
0.0004442
0.000421857
0.000375185
0.000270731
0.000297369
0.000323992
0.000338896
0.000368044
0.000472198
0.000472198
0.000356156
0.000259837
0.000352519
0.000464908
0.000542527
0.00062804
0.00067624
0.00067624
0.000661819
0.000561724
0.000444821
0.000313963
0.000244805
0.000425854
0.000649307
0.000649307
0.000599948
0.000421682
0.000243491
9.48917e-05
0.00026753
0.000598108
0.000786688
0.00103951
0.00133565
0.00170095
0.00172857
0.00172857
0.00159389
0.00139305
0.000884126
0.000335202
0.000372405
0.000905909
0.00139652
0.00139652
0.00136737
0.000841954
0.000189985
7.19645e-05
0.000492989
0.000783991
0.000805991
0.000805991
0.000533001
0.000935816
0.00164069
0.00200597
0.00200597
0.00157997
0.000797867
0.000535808
0.00122771
0.00122771
0.000989944
0.000802266
0.000802266
0.000284533
4.19974e-05
6.75386e-05
0.000228535
0.000549036
0.00103725
0.00151303
0.0015685
0.0015685
0.000980827
0.00100969
0.00100969
0.000918962
0.00114121
0.0012961
0.0012961
0.00118733
0.000761025
0.000498752
0.00013782
4.07252e-05
5.20084e-05
6.32169e-05
7.30474e-05
0.000112886
0.000307288
0.000680476
0.00126539
0.00184732
0.00184732
0.00140147
0.000647063
0.00121079
0.00147463
0.00147463
0.00120149
0.000748529
0.000451565
8.98979e-05
4.41382e-05
6.60621e-05
9.87866e-05
9.87866e-05
7.9172e-05
8.32616e-05
8.7649e-05
0.000131954
0.000638976
0.00100164
0.00100164
0.000665878
0.00115943
0.00141322
0.00141322
0.000914255
0.000697319
0.000252055
6.3913e-05
7.96668e-05
0.000371389
0.000627477
0.000669168
0.000669168
0.000613122
0.00057461
0.000451272
0.000355555
0.000573016
0.000853698
0.000853698
2.40568e-05
6.06982e-05
8.71733e-05
0.000146161
0.000144863
8.27759e-05
4.96962e-05
3.46458e-05
2.59732e-05
1.21873e-05
9.23217e-06
8.01088e-06
6.19845e-06
4.39527e-06
4.32432e-06
4.50445e-06
5.0107e-06
4.80533e-06
4.84819e-06
4.76338e-06
5.87878e-06
8.2316e-06
1.12725e-05
9.10471e-05
0.000149119
0.000243344
0.00033388
0.00033388
0.000272204
0.000161341
0.000143563
0.000125986
0.000125295
0.000119465
9.43827e-05
6.52473e-05
2.39353e-05
1.28552e-05
8.91219e-06
6.72097e-06
5.14966e-06
5.09341e-06
5.58861e-06
6.69874e-06
9.55603e-06
1.12725e-05
0.00014109
0.000158582
0.000178561
0.000223606
0.00023362
0.000195091
0.000183234
0.000202005
0.000210859
0.000250267
0.000302948
0.000315538
0.000307804
0.000263798
0.000186228
0.000129928
0.000107174
4.53745e-05
1.75195e-05
6.80383e-06
5.9231e-06
5.7673e-06
9.62891e-06
8.84476e-05
9.11348e-05
0.000112888
0.00010702
0.000108248
0.000159024
0.000199318
0.000235713
0.000279677
0.000339576
0.000405898
0.000444082
0.00045436
0.0004833
0.000517629
0.000530211
0.000539788
0.000450012
0.000346537
0.000212678
0.000201051
8.11336e-05
4.06025e-05
0.000125276
0.000125906
0.000125906
0.000122514
0.000137301
0.000160479
0.000187945
0.000230439
0.000284899
0.000324187
0.000375758
0.000449178
0.000526043
0.000627532
0.000730538
0.00080571
0.000901726
0.000999308
0.00114691
0.00123961
0.00147468
0.00134696
0.00105889
0.00011335
0.00011441
0.000119952
0.000121719
0.000139653
0.000179935
0.000213138
0.0002398
0.000270529
0.000310089
0.000352167
0.000398009
0.000459776
0.000578919
0.00074791
0.000913597
0.00113662
0.00146487
0.00183459
0.00220128
0.00252402
0.00258784
0.00237588
0.00013825
0.000140534
0.000143472
0.00015036
0.00016468
0.000186133
0.000210261
0.000238868
0.000273187
0.000310131
0.000344143
0.000371874
0.000413761
0.000499546
0.000629234
0.000833946
0.00119318
0.0016833
0.00214425
0.00248974
0.00263557
0.00274708
0.00274708
0.000148303
0.000150171
0.000156315
0.000162108
0.000177113
0.000200421
0.000225499
0.000252201
0.000283349
0.000318974
0.000358759
0.000399299
0.000457435
0.000546809
0.000658574
0.000812464
0.00103605
0.00130168
0.00166918
0.00192954
0.00207285
0.0022183
0.00247578
0.00016678
0.000168423
0.000173851
0.000179626
0.000192564
0.000208115
0.000227679
0.000250717
0.000278787
0.000310757
0.000347401
0.000387742
0.000438209
0.000510122
0.000600069
0.000724255
0.000906124
0.00109369
0.00124826
0.00124988
0.00114891
0.00149084
0.00190156
0.000179181
0.000180932
0.000186626
0.000192756
0.000205382
0.000222384
0.000242625
0.000265655
0.000293014
0.000324165
0.000359712
0.000399826
0.000448465
0.000511444
0.000587419
0.000676022
0.00079346
0.000940374
0.00103668
0.00097439
0.00080624
0.00102281
0.00146141
0.000193369
0.00019503
0.000200195
0.000205768
0.000216117
0.000227995
0.000244335
0.000263596
0.000287329
0.000315234
0.000347118
0.000383746
0.000426503
0.0004795
0.000546461
0.000626488
0.000725897
0.000833863
0.000918268
0.000947584
0.000945505
0.000763117
0.00108926
0.000204088
0.000205763
0.000210441
0.000215647
0.000226245
0.000239279
0.000255545
0.000274242
0.000296242
0.000321993
0.000351397
0.000385167
0.00042487
0.000471174
0.000526069
0.000587281
0.000661123
0.00074566
0.000840801
0.00094111
0.000974948
0.00100531
0.000735082
0.000214513
0.000215919
0.000219957
0.000224674
0.000232287
0.000241766
0.000254907
0.000270354
0.000288795
0.000310644
0.000335955
0.000365542
0.000400223
0.000440625
0.00048922
0.000544918
0.000610736
0.000682725
0.000761517
0.000857442
0.000974022
0.00100531
0.00100437
0.000222606
0.000223797
0.000227235
0.000231911
0.000240322
0.000250158
0.000262624
0.000277084
0.000293814
0.000313487
0.000336175
0.000362265
0.000392798
0.000427455
0.000468146
0.000513791
0.000567849
0.000629528
0.00069804
0.000777556
0.00088382
0.000998007
0.000999167
0.000229807
0.000230802
0.000233757
0.000237614
0.000242492
0.000250366
0.000258959
0.00027036
0.000283718
0.000299676
0.000318295
0.00034045
0.000365688
0.000396951
0.000431221
0.000473554
0.00051848
0.000574473
0.000630938
0.000699794
0.000772683
0.000877562
0.000960992
0.0002354
0.000236144
0.000238553
0.000242599
0.000248704
0.000255402
0.000264172
0.000274259
0.000285895
0.000299674
0.000315585
0.000333791
0.000355119
0.000379813
0.000409077
0.00044351
0.000483394
0.000529958
0.000581212
0.000636689
0.000696456
0.000767014
0.000846695
0.000240257
0.000240768
0.000242726
0.000245558
0.000247895
0.000253954
0.000257745
0.000267564
0.000273841
0.000287604
0.00029778
0.000315536
0.000330449
0.000354373
0.000376443
0.000408963
0.000441269
0.000483791
0.000528673
0.000580409
0.000633764
0.000692178
0.000752178
0.000244199
0.00024442
0.000246347
0.00024874
0.000252645
0.000256302
0.000261423
0.000266854
0.000273213
0.000280695
0.000289219
0.000300655
0.000312814
0.000331093
0.00034971
0.000376631
0.000406308
0.000443226
0.000485406
0.000532157
0.000580758
0.000632838
0.000686292
0.000247972
0.000247951
0.00024897
0.000250471
0.000250626
0.000254103
0.00025443
0.000261866
0.000262345
0.000271523
0.000274062
0.000285259
0.000291981
0.000307563
0.000322017
0.00034468
0.000370524
0.000403698
0.000442229
0.000486818
0.000535828
0.000587925
0.000642791
0.000252029
0.000251864
0.000252217
0.00025289
0.000253713
0.000254289
0.000255638
0.000257858
0.000257047
0.000261874
0.000260868
0.000268289
0.000271082
0.000282484
0.00029332
0.000312083
0.000335206
0.000366041
0.000405464
0.000451445
0.000500583
0.000554455
0.000604349
0.000256726
0.000256598
0.000256152
0.000256111
0.000254211
0.000253866
0.000250597
0.000253016
0.000248465
0.000251185
0.000246875
0.000250166
0.000248898
0.000256104
0.000263017
0.000278581
0.000299651
0.000329106
0.00036716
0.000416309
0.000470239
0.000529428
0.000576134
0.000263244
0.000263235
0.000261931
0.000261186
0.000258248
0.000256384
0.000253559
0.000250352
0.000245528
0.000240774
0.000233419
0.000231271
0.00022502
0.000227308
0.00022955
0.000242076
0.000261453
0.000292111
0.000335939
0.00038831
0.00044632
0.000509107
0.000555336
0.000271779
0.000271857
0.000269844
0.000268556
0.000264767
0.000261136
0.00025406
0.000247974
0.0002367
0.00023133
0.00021857
0.000211564
0.000199177
0.000194974
0.000190893
0.000199356
0.000217168
0.000248227
0.000293892
0.000353643
0.000420301
0.000491802
0.000539174
0.000283225
0.000283316
0.000281001
0.00027946
0.000275241
0.000270817
0.000263067
0.000255867
0.000246395
0.000234851
0.000219919
0.000202191
0.000181676
0.000162876
0.000148464
0.000149388
0.000164638
0.00019904
0.000256419
0.000324085
0.00039883
0.000478355
0.000527692
0.000297806
0.000297844
0.000295583
0.000293952
0.000289656
0.000284946
0.000277094
0.000268414
0.000254825
0.000240908
0.00021933
0.000197968
0.00016846
0.00013901
0.000108321
9.19463e-05
9.90586e-05
0.000138557
0.000202905
0.000279491
0.00036266
0.000451271
0.000511259
0.000315545
0.000315625
0.000313767
0.00031238
0.000308563
0.000304261
0.000297091
0.000288793
0.000276193
0.000262477
0.000242579
0.000221235
0.000194284
0.000161852
0.000123384
8.8215e-05
6.08885e-05
0.000106426
0.000182086
0.000262582
0.000350611
0.000445744
0.000498391
0.000336873
0.000337042
0.000335655
0.000334592
0.00033141
0.000327775
0.000321648
0.00031435
0.000303498
0.000291377
0.000274103
0.000256085
0.000232032
0.000208415
0.000180117
0.000158561
0.000146004
0.000160076
0.000201271
0.000268422
0.000352797
0.000447243
0.000518128
0.000361123
0.000361514
0.000360812
0.00036043
0.000358324
0.000355864
0.000351324
0.000345676
0.000337278
0.000327577
0.000314256
0.000300278
0.00028287
0.000266844
0.000250027
0.000240345
0.0002384
0.000254772
0.000288904
0.000339768
0.000403676
0.000492703
0.000561606
0.000389164
0.000389769
0.000389662
0.000389905
0.000388766
0.000387443
0.00038448
0.000380689
0.000375006
0.000368305
0.000359713
0.00035096
0.000341383
0.000333864
0.000328561
0.000329712
0.00033897
0.000363342
0.000401107
0.000450935
0.00050442
0.00057584
0.000642743
0.000419441
0.0004204
0.000421105
0.000422366
0.000422643
0.000423054
0.000422276
0.000421069
0.000418767
0.000415891
0.000412607
0.000409516
0.00040793
0.000409098
0.00041608
0.000431415
0.000459279
0.000499934
0.00054697
0.000592635
0.000645021
0.000710545
0.000773623
0.000453581
0.000454874
0.000456277
0.000458458
0.000459988
0.000462018
0.000463281
0.000464725
0.000465904
0.000467355
0.00047
0.000474276
0.000483043
0.000496399
0.000519205
0.000553285
0.000604806
0.000663532
0.000705005
0.000745561
0.000797322
0.000861159
0.000925344
0.000489034
0.000490756
0.000493035
0.000496528
0.000499849
0.000504325
0.000508635
0.000513969
0.000519857
0.000527173
0.000537166
0.000550464
0.000570407
0.000598061
0.00064175
0.000703107
0.000769867
0.000810609
0.000830512
0.000877575
0.000936595
0.00100749
0.00107547
0.000528156
0.000530361
0.000533593
0.000538571
0.000543804
0.000550736
0.000557811
0.000566695
0.000576923
0.000590143
0.00060753
0.000630695
0.000663829
0.000711112
0.000778549
0.000857241
0.000906802
0.000906733
0.000929541
0.000989782
0.00106009
0.0011395
0.00121716
0.000567597
0.000570263
0.000574417
0.000580879
0.000588118
0.000597925
0.000608802
0.000623056
0.000639976
0.000661524
0.000688759
0.000724771
0.000775074
0.000842959
0.000924874
0.000985351
0.000976312
0.00096785
0.00101734
0.00108507
0.00116829
0.00125696
0.00134785
0.000609514
0.000612883
0.000618466
0.000627242
0.000637542
0.00065124
0.000666453
0.000685722
0.000707587
0.000735145
0.000769951
0.000817429
0.000882592
0.00096449
0.00104431
0.00105813
0.00101485
0.00102662
0.0010876
0.00116691
0.00125856
0.0013565
0.00146038
0.000651194
0.00065511
0.000661779
0.000672135
0.00068441
0.000700819
0.000719458
0.000743463
0.000771508
0.000808305
0.000854672
0.000916372
0.000994683
0.00107959
0.00112815
0.00107655
0.00103617
0.00107529
0.0011477
0.00123948
0.00134277
0.00145292
0.00155832
0.000692362
0.000697126
0.000705711
0.00071921
0.000735522
0.000757033
0.00078178
0.000813322
0.00085004
0.000896648
0.0009529
0.00102652
0.00111239
0.00118657
0.00117611
0.00111615
0.001059
0.00111335
0.00119499
0.00129826
0.00141291
0.00153611
0.00164101
0.000732927
0.000738429
0.000748303
0.000763629
0.00078248
0.000807452
0.000838643
0.000875482
0.000918564
0.000970639
0.00103805
0.00112657
0.00121357
0.00126145
0.00119995
0.00111651
0.0010627
0.00112618
0.00122277
0.00133986
0.00146815
0.00160503
0.0017088
0.000768756
0.000775405
0.000787508
0.000805632
0.000828211
0.000858615
0.00089463
0.00094038
0.00099379
0.00106077
0.00113965
0.00123062
0.00129857
0.00129671
0.00122766
0.00111151
0.00107468
0.00114556
0.00125136
0.00137626
0.00151403
0.00165991
0.00176545
0.000802394
0.000809445
0.000822509
0.000845566
0.00087729
0.000916943
0.000965232
0.00102218
0.0010876
0.00116215
0.0012415
0.00130671
0.00136567
0.0013336
0.00121193
0.00106613
0.00104553
0.00113565
0.00126065
0.00140086
0.0015516
0.00170873
0.00180558
0.000829855
0.000837699
0.000852015
0.000874987
0.000905272
0.00094633
0.000996068
0.00105904
0.00113312
0.00122166
0.00132071
0.00141566
0.00146151
0.0013739
0.00125987
0.00109272
0.00105316
0.00114559
0.00127249
0.00141658
0.00157151
0.00173329
0.00184584
0.000847699
0.000860875
0.000882895
0.000914151
0.0009559
0.00100915
0.00107546
0.00115611
0.00125129
0.00135739
0.00145658
0.00151177
0.00151177
0.00144697
0.00121985
0.000997303
0.00101478
0.0011385
0.00128799
0.00144784
0.00161456
0.00178502
0.00184584
1.08049e-05
1.66071e-05
0.000153155
0.000562802
1.18857e-05
2.26294e-05
0.000152022
0.000536112
1.18857e-05
1.4755e-05
6.22259e-05
0.000281543
2.1957e-05
2.37821e-05
2.1767e-05
3.34928e-05
0.000741694
0.000589017
0.000418851
0.000344641
0.00194649
0.00178685
0.00149327
0.00128313
0.00194649
0.00184964
0.00177184
0.00185493
0.00188562
0.00184964
0.00177184
0.00185493
0.00163948
0.00154505
0.00140177
0.00124801
0.00161153
0.00151283
0.00146516
0.00136772
0.00136265
0.00139652
0.00146516
0.00139282
0.00103042
0.00125277
0.00137311
0.00139282
0.00088866
0.000900236
0.000871472
0.00111952
0.000945405
0.000947886
0.000877197
0.000774182
0.000945405
0.000947886
0.000877197
0.000800366
0.000864759
0.00086823
0.000841334
0.000800366
0.000783006
0.000799891
0.000802688
0.000787533
0.000710871
0.000731389
0.000742273
0.000749952
0.00067137
0.000693429
0.000710509
0.000722769
0.000639918
0.000664267
0.000688374
0.00070744
0.000617486
0.000644717
0.000672186
0.000697805
0.000602551
0.000632991
0.000663874
0.000694229
0.00059209
0.000625847
0.00066442
0.000702242
0.000587607
0.000625447
0.00066442
0.000706434
0.000578311
0.000620402
0.000665734
0.000711863
0.000571718
0.000619573
0.000669331
0.000717639
0.000588685
0.000635268
0.000684168
0.00073283
0.000621552
0.000664101
0.000709927
0.000755663
0.000690915
0.000727248
0.000766787
0.000804122
0.00081454
0.000842719
0.000874715
0.000900739
0.000965671
0.00098886
0.00101726
0.00103772
0.00112058
0.00114562
0.00117473
0.00119795
0.00127046
0.00130124
0.00133327
0.00136272
0.00141018
0.00144837
0.00148569
0.00152297
0.00153387
0.00158047
0.00162565
0.00167097
0.00164487
0.00169955
0.00175298
0.00180453
0.00173974
0.00180102
0.0018617
0.00191796
0.00181754
0.00188444
0.00195131
0.00201191
0.00188267
0.0019544
0.00202651
0.00209106
0.0019299
0.00200543
0.00208198
0.00215008
0.00197549
0.0020536
0.00213333
0.00220417
0.00197549
0.0020536
0.00213333
0.00220417
0.00102307
0.00103369
0.000970218
0.000658123
0.000343195
6.90104e-05
0.000130809
0.000629425
0.000992933
0.00122018
0.00137091
0.00149253
0.00157744
0.00163588
0.00163588
0.00149949
0.00134746
0.000954489
0.000604701
0.000930716
0.00087079
0.000500454
9.5471e-05
5.61063e-05
0.000103054
0.00078239
0.000869968
0.000869968
0.000879035
0.00104559
0.00117626
0.00129523
0.00138253
0.00141984
0.00166139
0.00179256
0.00157564
0.000561276
0.000582742
0.000285364
5.56524e-05
2.71387e-05
7.59894e-05
0.000633541
0.000903914
0.000903914
0.000804761
0.00100355
0.00099165
0.000956474
0.00107279
0.00127325
0.00150154
0.00169033
0.00238198
0.0020122
0.000781301
4.98472e-05
2.35621e-05
1.86405e-05
5.78881e-05
0.00020999
0.000852269
0.000993682
0.00124892
0.00150424
0.00177825
0.00191611
0.00198489
0.00216949
0.00247976
0.00285509
0.0031676
0.0031676
0.00175277
0.000444802
0.000212274
0.000185027
0.000132229
0.000298475
0.000661519
0.000965535
0.00150049
0.00183161
0.00192077
0.00192077
0.00191105
0.00197993
0.00210579
0.0022213
0.0022213
0.00236755
0.0020815
0.00131124
0.00049458
0.000968543
0.000598095
0.000414445
0.000822996
0.00114331
0.00160369
0.00184038
0.0019051
0.00199648
0.00199648
0.00193354
0.00185628
0.00178992
0.00156262
0.00155599
0.00118855
0.000731342
0.00109153
0.000471709
0.00148237
0.000963135
0.000817842
0.00122943
0.00154218
0.00177326
0.00182178
0.00182178
0.00181367
0.00152495
0.0013436
0.00137646
0.00135223
0.00115749
0.000795951
0.000623552
0.000976194
0.00108052
0.000442873
0.00148237
0.00143051
0.00134136
0.00156812
0.00158679
0.00162009
0.00162009
0.00157099
0.00112539
0.00089268
0.000681161
0.000614859
0.00073052
0.000682607
0.000638074
0.000651674
0.00076686
0.000946674
0.000357385
0.00110861
0.00119427
0.00128752
0.00145961
0.00150259
0.00150259
0.00135025
0.000892728
0.000574708
0.000591103
0.000577449
0.000398324
0.000506241
0.000694197
0.000782058
0.000782058
0.000632425
0.000730223
0.000280396
0.00104389
0.000756124
0.000680551
0.00081634
0.00107108
0.00118892
0.000736825
0.000398006
0.000400511
0.000352676
0.000422007
0.000380561
0.000392628
0.000435609
0.000527756
0.000559085
0.000594802
0.000594802
0.000254371
0.00139355
0.00119977
0.000593882
0.000458862
0.000410434
0.000529376
0.000329921
0.000267044
0.000238821
0.00028183
0.000316425
0.000380561
0.00037603
0.000228831
0.000178667
0.000190364
0.000331156
0.00040924
0.000221287
0.00152139
0.00152139
0.00133425
0.000740157
0.000478003
0.000401428
0.000358848
0.000351118
0.000430757
0.00056691
0.000655453
0.000474164
0.000268985
0.000246848
0.000130307
5.98715e-05
6.31761e-05
0.000178359
0.000102535
0.00139567
0.00139567
0.0013946
0.0012791
0.00119399
0.000889562
0.000821419
0.00088919
0.000931641
0.000931641
0.000925177
0.000752543
0.000829067
0.000869956
0.000815945
0.000172159
6.39152e-05
4.55895e-05
3.31782e-05
0.000713664
0.000869011
0.000928198
0.000916902
0.000868087
0.000997796
0.00111044
0.00114401
0.00114401
0.00106017
0.000989404
0.000975505
0.00107496
0.00119873
0.00134155
0.000824669
0.000129123
5.3796e-05
3.88787e-05
0.000735343
0.000720775
0.000455765
0.000461582
0.000804121
0.00113816
0.00130892
0.00135685
0.00135685
0.00131115
0.00123755
0.00124439
0.00146316
0.00168852
0.00186105
0.00143648
0.000472828
9.47723e-05
6.15657e-05
0.000744784
0.000690086
0.000435324
0.000384066
0.000689631
0.000937197
0.00105661
0.00112695
0.00117387
0.00119335
0.001255
0.00147649
0.00185899
0.00228698
0.00228698
0.00219824
0.00150348
0.000647368
0.000386476
0.000808631
0.000808631
0.000717974
0.000697624
0.000754931
0.000690975
0.000636078
0.000763166
0.000897379
0.000963957
0.00110711
0.00140042
0.00181719
0.00240653
0.00252067
0.00252067
0.00219729
0.0016531
0.00111483
0.00081842
0.00081842
0.000856412
0.00095837
0.00100291
0.000992805
0.000877336
0.000635352
0.000562116
0.000603498
0.000643581
0.000835063
0.00121681
0.00205256
0.0022622
0.00222659
0.00208868
0.00198793
0.00159381
0.000847826
0.000896486
0.000971875
0.00110635
0.0012322
0.00123953
0.00123953
0.00113261
0.000932579
0.000646289
0.000526085
0.000449158
0.000889002
0.00182345
0.00227378
0.00227378
0.00200662
0.00182219
0.00159598
0.000841157
0.000908823
0.000994247
0.00112007
0.00126727
0.00133925
0.00133925
0.00131933
0.00122919
0.00106403
0.000902356
0.000799746
0.000879164
0.0014406
0.00204594
0.00198924
0.00197948
0.00195207
0.00181189
0.000859472
0.000939582
0.00102893
0.00113735
0.00126726
0.00136217
0.00138346
0.00138346
0.00134157
0.00124524
0.00114015
0.00104567
0.00100398
0.00109268
0.00165849
0.00190343
0.00190343
0.00198943
0.00150064
0.000860579
0.000944516
0.00103242
0.00112948
0.00123627
0.00132608
0.00136475
0.00136475
0.00135134
0.00129846
0.00122737
0.00115498
0.00106787
0.000938688
0.00130601
0.00176896
0.00197482
0.00206148
0.00159841
0.00088371
0.000975834
0.0010678
0.00116096
0.0012518
0.00133308
0.00137715
0.00137715
0.00137697
0.00134656
0.00129546
0.00123227
0.00113558
0.00100036
0.00110251
0.00159723
0.00195047
0.00211064
0.00162136
0.00090494
0.0010039
0.00109975
0.00118974
0.00126918
0.00133911
0.00138249
0.00138696
0.00138696
0.00136194
0.00132005
0.00126828
0.00118562
0.00106612
0.000945802
0.00138581
0.00195796
0.00211064
0.00166528
0.000922584
0.0010352
0.00114332
0.00124127
0.00132213
0.00138372
0.00142338
0.0014334
0.0014334
0.00141019
0.00136397
0.0013085
0.00123278
0.00113931
0.00096618
0.00116603
0.00177119
0.00189586
0.0016224
0.000946307
0.00107072
0.00118873
0.00129542
0.00138285
0.00144352
0.00147881
0.0014868
0.0014868
0.00146577
0.00141909
0.0013644
0.00129318
0.00121384
0.0010725
0.00104828
0.00167835
0.00180053
0.00175609
0.000954266
0.00108741
0.00121595
0.00133546
0.00144087
0.00151735
0.00155871
0.00156986
0.00156986
0.00155189
0.00150212
0.00144489
0.00137358
0.00130674
0.00119202
0.000956116
0.00150754
0.00172884
0.00167874
0.00098899
0.00112882
0.0012671
0.00139839
0.00151243
0.00159884
0.00165106
0.00166388
0.00166388
0.00164685
0.00159766
0.00153919
0.00146876
0.00139838
0.00128984
0.00104752
0.00138728
0.00174916
0.00164509
0.00100001
0.00114027
0.00128366
0.00142445
0.00155593
0.00166884
0.00174475
0.00177203
0.00177203
0.00176213
0.00171152
0.00164716
0.00157074
0.00149663
0.00137947
0.0011272
0.00113697
0.00174916
0.00172969
0.00106378
0.00118378
0.001308
0.00144274
0.0015838
0.00172099
0.00182979
0.00188108
0.00188232
0.00188232
0.00183519
0.00176749
0.0016886
0.00161127
0.00150908
0.0013029
0.00103989
0.00186006
0.00186006
0.00116631
0.00125301
0.0013339
0.00143002
0.00154613
0.00168911
0.00185039
0.00197121
0.0020122
0.0020122
0.00197581
0.00190042
0.00181434
0.00172668
0.00162084
0.00142868
0.00105521
0.00147763
0.00175544
0.00134159
0.00140294
0.00143866
0.00148155
0.00155197
0.00166404
0.00181492
0.001983
0.00209362
0.00209619
0.00209619
0.00202831
0.00193413
0.00183207
0.00171453
0.00151121
0.00112264
0.00111672
0.0015265
0.00151257
0.00156053
0.00156872
0.00156872
0.00155967
0.00158803
0.00171664
0.00193738
0.00214762
0.00222199
0.00222199
0.00217527
0.00208153
0.00197032
0.00185044
0.00165418
0.00129426
0.000894722
0.00137128
0.00171505
0.00177764
0.00178539
0.00178539
0.00174133
0.00164777
0.00165314
0.00183827
0.00210421
0.00227761
0.00227998
0.00227998
0.00219289
0.00207536
0.00195358
0.00176926
0.00145431
0.000715982
0.0012905
0.00189948
0.00197565
0.00198328
0.00198328
0.00190033
0.00172327
0.00155841
0.00174108
0.00204547
0.00231537
0.00240216
0.00240216
0.00233858
0.0022206
0.00209871
0.00191804
0.00161544
0.000821999
0.00122855
0.00208078
0.00216998
0.00218824
0.00218824
0.00208556
0.00187939
0.00165666
0.00158712
0.00196001
0.00224105
0.00241903
0.00241903
0.00241534
0.00230547
0.00219644
0.00203384
0.00178239
0.00111154
0.00119666
0.0022256
0.00232231
0.00234781
0.00234781
0.00223422
0.00200905
0.00175993
0.00145714
0.00173775
0.00217776
0.00243765
0.0024992
0.0024992
0.00242161
0.00231923
0.00217017
0.00196502
0.00136883
0.00108989
0.00235841
0.00246619
0.00250688
0.00250688
0.00240208
0.00219109
0.00195831
0.00159498
0.00137216
0.00193701
0.00232674
0.00246784
0.00246784
0.00243649
0.00237029
0.0022561
0.00209009
0.0016001
0.000994635
0.00245605
0.00256956
0.00261719
0.00261719
0.00251592
0.00231508
0.0020901
0.00165992
0.000992977
0.00175363
0.00223989
0.00244484
0.00245547
0.00245547
0.00241059
0.00231731
0.00213673
0.00167876
0.000935184
0.00255188
0.00267205
0.00272759
0.00272759
0.00263967
0.00245256
0.00223861
0.00181673
0.000977786
0.00143259
0.00202039
0.00229977
0.00237813
0.00238067
0.00238067
0.00233807
0.00219181
0.00179682
0.000894136
0.00260353
0.00272645
0.00278382
0.00278382
0.00270163
0.0025168
0.00230532
0.00186181
0.000924903
0.00131
0.00190702
0.00223597
0.00235969
0.00238338
0.00238338
0.00235073
0.00221791
0.00187142
0.001111
0.00268848
0.00281727
0.00288006
0.00288006
0.00280511
0.00262987
0.00241989
0.00201117
0.00116352
0.00100862
0.00166313
0.00204369
0.00224326
0.00232794
0.00233686
0.00233686
0.0022506
0.00192939
0.00148757
)
;

boundaryField
{
    leftWall
    {
        type            calculated;
        value           uniform 0;
    }
    rightWall
    {
        type            calculated;
        value           uniform 0;
    }
    lowerWall
    {
        type            calculated;
        value           uniform 0;
    }
    atmosphere
    {
        type            calculated;
        value           uniform 0;
    }
    defaultFaces
    {
        type            empty;
    }
}


// ************************************************************************* //
