/*--------------------------------*- C++ -*----------------------------------*\
| =========                 |                                                 |
| \\      /  F ield         | OpenFOAM: The Open Source CFD Toolbox           |
|  \\    /   O peration     | Version:  2012                                  |
|   \\  /    A nd           | Website:  www.openfoam.com                      |
|    \\/     M anipulation  |                                                 |
\*---------------------------------------------------------------------------*/
FoamFile
{
    version     2.0;
    format      ascii;
    class       volScalarField;
    location    "0.67";
    object      p_rgh;
}
// * * * * * * * * * * * * * * * * * * * * * * * * * * * * * * * * * * * * * //

dimensions      [1 -1 -2 0 0 0 0];


internalField   nonuniform List<scalar> 
2268
(
101873
101876
101882
101890
101901
101915
101932
101951
101972
101995
102018
102045
102068
102096
102117
102146
102164
102193
102206
102234
102241
102261
102261
101873
101876
101881
101890
101901
101915
101932
101951
101972
101995
102018
102044
102068
102096
102117
102146
102164
102193
102207
102234
102242
102262
102262
101871
101874
101880
101888
101900
101914
101930
101950
101971
101994
102018
102044
102068
102096
102117
102146
102164
102194
102207
102236
102243
102266
102264
101870
101872
101878
101887
101898
101912
101929
101948
101970
101993
102017
102044
102068
102096
102118
102147
102165
102194
102209
102238
102246
102269
102267
101867
101870
101875
101884
101895
101909
101926
101946
101968
101992
102016
102043
102068
102096
102118
102147
102166
102196
102210
102242
102248
102276
102271
101864
101867
101872
101881
101893
101907
101924
101944
101966
101991
102015
102042
102067
102096
102119
102148
102167
102197
102213
102244
102253
102283
102276
101860
101863
101868
101877
101888
101902
101920
101940
101963
101989
102014
102042
102067
102097
102120
102149
102168
102199
102213
102250
102255
102296
102279
101837
101841
101853
101868
101883
101899
101917
101937
101960
101986
102012
102041
102067
102097
102121
102150
102169
102200
102217
102252
102263
102303
102288
102938
102147
102064
101990
102052
102163
102520
102675
102463
102261
102117
102002
101965
101944
101967
102004
102099
102534
103146
102818
102028
102031
101983
102041
102160
102609
102683
102445
102230
102094
101992
101953
101934
101949
101967
102040
102412
102946
102281
101899
101955
101928
102023
102144
102538
102692
102462
102163
102022
101923
101876
101858
101874
101876
101923
102220
102857
102205
101826
101871
101834
101893
102056
102543
102713
102388
102178
102023
101887
101861
101850
101861
101849
101862
101966
102622
102139
101833
101867
101830
101867
101942
102461
102648
102546
102317
102139
102000
101920
101853
101860
101853
101858
101882
102425
102073
101840
101867
101830
101867
102017
102499
102550
102397
102254
102169
102129
102110
102072
102010
101894
101861
101850
102329
102051
101841
101867
101831
101867
102142
102417
102453
102368
102202
102146
102122
102123
102128
102161
102142
102021
101861
102396
102103
101840
101867
101830
102002
102219
102392
102347
102160
101956
101921
101940
101971
101994
102057
102131
102167
102012
102629
101571
101581
101601
101634
101681
101729
101788
101853
101918
101978
102011
102040
102067
102098
102123
102152
102170
102204
102216
102263
102263
102344
102280
101330
101330
101330
101330
101335
101354
101383
101430
101506
101611
101752
101878
101991
102091
102129
102154
102175
102203
102227
102262
102296
102352
102428
101330
101330
101330
101330
101330
101330
101330
101331
101333
101341
101367
101434
101532
101680
101856
101980
102053
102168
102212
102259
102277
102361
102380
101330
101330
101330
101330
101330
101330
101330
101330
101330
101331
101331
101334
101342
101361
101404
101455
101480
101550
101680
101830
101952
102218
102365
101330
101330
101330
101330
101330
101330
101330
101330
101330
101331
101331
101331
101331
101331
101331
101331
101331
101331
101331
101331
101347
101468
101621
101330
101330
101330
101330
101330
101330
101330
101330
101330
101330
101331
101331
101331
101331
101331
101331
101332
101332
101332
101332
101331
101338
101375
101330
101330
101330
101330
101330
101330
101330
101330
101330
101330
101330
101331
101331
101331
101331
101331
101331
101331
101330
101330
101329
101332
101413
101330
101330
101330
101330
101330
101330
101330
101330
101330
101330
101330
101330
101331
101331
101331
101331
101331
101331
101330
101329
101328
101328
101363
101330
101330
101330
101330
101330
101330
101330
101330
101330
101330
101330
101330
101330
101330
101330
101330
101330
101330
101329
101329
101328
101327
101328
101330
101330
101330
101330
101330
101330
101330
101330
101330
101330
101330
101330
101330
101330
101330
101330
101330
101330
101330
101329
101328
101328
101328
101330
101330
101330
101330
101330
101330
101330
101330
101330
101330
101330
101330
101330
101330
101330
101330
101330
101330
101329
101329
101329
101328
101328
101330
101330
101330
101330
101330
101330
101330
101330
101330
101330
101330
101330
101330
101330
101330
101330
101330
101330
101329
101329
101329
101328
101328
101330
101330
101330
101330
101330
101330
101330
101330
101330
101330
101330
101330
101330
101330
101330
101330
101330
101330
101329
101329
101329
101329
101328
101330
101330
101330
101330
101330
101330
101330
101330
101330
101330
101330
101330
101330
101330
101330
101330
101330
101330
101329
101329
101329
101329
101328
101330
101330
101330
101330
101330
101330
101330
101330
101330
101330
101330
101330
101330
101330
101330
101330
101330
101330
101329
101329
101329
101329
101329
101330
101330
101330
101330
101330
101330
101330
101330
101330
101330
101330
101330
101330
101330
101330
101330
101330
101329
101329
101329
101329
101329
101329
101329
101329
101329
101329
101329
101329
101330
101330
101330
101330
101330
101330
101330
101330
101330
101330
101330
101329
101329
101329
101329
101329
101329
101329
101329
101329
101329
101329
101329
101329
101329
101329
101329
101329
101329
101329
101329
101329
101329
101329
101329
101329
101329
101329
101329
101329
101329
101329
101329
101329
101329
101329
101329
101329
101329
101329
101329
101329
101329
101329
101329
101329
101329
101329
101329
101329
101329
101329
101329
101329
101329
101329
101329
101329
101329
101329
101329
101329
101329
101329
101329
101329
101329
101329
101329
101329
101329
101329
101329
101329
101329
101329
101329
101329
101329
101329
101329
101329
101329
101329
101329
101329
101329
101329
101329
101329
101329
101329
101329
101329
101329
101329
101329
101329
101329
101329
101329
101329
101329
101329
101329
101329
101329
101329
101329
101329
101329
101329
101329
101329
101329
101329
101329
101329
101329
101329
101329
101329
101329
101329
101329
101329
101329
101329
101329
101329
101329
101329
101329
101329
101329
101329
101329
101329
101329
101329
101329
101329
101329
101329
101329
101329
101329
101329
101329
101329
101329
101329
101329
101329
101329
101329
101329
101329
101329
101329
101329
101329
101329
101329
101329
101329
101329
101329
101329
101329
101329
101329
101329
101329
101329
101329
101329
101329
101329
101329
101329
101329
101329
101329
101329
101329
101329
101329
101329
101329
101329
101329
101329
101329
101329
101329
101329
101329
101329
101329
101329
101329
101329
101329
101329
101329
101329
101329
101329
101329
101329
101329
101329
101329
101328
101328
101328
101328
101328
101328
101328
101329
101329
101329
101329
101329
101329
101329
101329
101329
101329
101329
101329
101329
101329
101329
101329
101328
101328
101328
101328
101328
101328
101328
101328
101328
101329
101329
101329
101329
101329
101329
101329
101329
101329
101329
101329
101329
101329
101329
101328
101328
101328
101328
101328
101328
101328
101328
101328
101328
101328
101329
101329
101329
101329
101329
101329
101329
101329
101329
101329
101329
101329
101328
101328
101328
101328
101328
101328
101328
101328
101328
101328
101328
101328
101329
101329
101329
101329
101329
101329
101329
101329
101329
101329
101329
101328
101328
101328
101328
101328
101328
101328
101328
101328
101328
101328
101328
101328
101328
101329
101329
101329
101329
101329
101329
101329
101329
101329
101328
101328
101328
101328
101328
101328
101328
101328
101328
101328
101328
101328
101328
101328
101328
101328
101329
101329
101329
101329
101329
101329
101329
101327
101327
101327
101327
101327
101328
101328
101328
101328
101328
101328
101328
101328
101328
101328
101328
101328
101328
101328
101329
101329
101329
101329
101327
101327
101327
101327
101327
101327
101327
101327
101327
101328
101328
101328
101328
101328
101328
101328
101328
101328
101328
101328
101328
101328
101328
101327
101327
101327
101327
101327
101327
101327
101327
101327
101327
101327
101327
101328
101328
101328
101328
101328
101328
101328
101328
101328
101328
101328
101327
101327
101327
101327
101327
101327
101327
101327
101327
101327
101327
101327
101327
101327
101327
101327
101327
101327
101327
101328
101328
101328
101328
101326
101326
101327
101327
101327
101327
101327
101327
101327
101327
101327
101327
101327
101327
101327
101327
101327
101327
101327
101327
101327
101327
101327
101326
101326
101326
101326
101326
101326
101326
101327
101327
101327
101327
101327
101327
101327
101327
101327
101327
101327
101327
101327
101327
101327
101327
101326
101326
101326
101326
101326
101326
101326
101326
101326
101326
101326
101326
101326
101326
101326
101326
101326
101326
101326
101326
101326
101326
101326
101326
101326
101326
101326
101326
101326
101326
101326
101326
101326
101326
101326
101326
101326
101326
101326
101326
101326
101326
101326
101326
101326
101326
101325
101325
101325
101325
101325
101325
101325
101325
101325
101325
101326
101326
101326
101326
101326
101326
101326
101326
101326
101326
101326
101326
101326
101325
101325
101325
101325
101325
101325
101325
101325
101325
101326
101326
101326
101325
101325
101325
101325
101325
101325
101325
101325
101325
101325
101325
102435
102315
102246
101934
102475
102564
102344
102187
102488
102489
102563
102370
102457
102495
102548
102596
101905
101993
102205
102285
101420
101446
101557
101674
101570
101509
101510
101518
101738
101772
101803
101560
101338
101608
101881
102107
101328
101328
101351
101676
101328
101329
101329
101329
101328
101328
101328
101328
101328
101328
101328
101328
101328
101328
101328
101328
101329
101329
101329
101329
101329
101329
101329
101329
101329
101329
101329
101329
101329
101329
101329
101329
101329
101329
101329
101329
101329
101329
101329
101329
101329
101329
101329
101329
101329
101329
101329
101329
101329
101329
101329
101329
101329
101329
101329
101329
101329
101329
101329
101329
101329
101329
101329
101329
101329
101329
101329
101329
101329
101329
101329
101329
101329
101329
101329
101329
101329
101329
101329
101329
101329
101329
101329
101329
101329
101329
101329
101329
101329
101329
101329
101329
101328
101328
101328
101328
101328
101328
101328
101328
101328
101328
101328
101328
101327
101327
101327
101327
101327
101327
101327
101327
101326
101326
101326
101326
101326
101326
101326
101326
101326
101326
101326
101326
101325
101325
101325
101325
102034
101819
101868
101974
102239
102306
102319
102039
101795
101690
101679
101678
101681
101682
101706
101787
102041
102136
102775
101909
101863
102113
102482
102480
102381
102008
101667
101662
101662
101662
101662
101662
101662
101663
101666
101688
101816
102353
102318
102347
102649
102575
102536
102161
101706
101661
101663
101662
101662
101661
101661
101659
101660
101661
101664
101709
102255
102650
102695
102731
102645
102535
101720
101662
101662
101662
101662
101662
101662
101662
101661
101662
101664
101665
101678
102358
102571
102603
102627
102432
101940
101661
101663
101661
101662
101662
101662
101662
101662
101662
101663
101661
101662
101733
102490
101948
102092
102433
102000
101660
101660
101661
101661
101661
101662
101662
101662
101663
101663
101662
101662
101659
101755
102600
101659
102235
102281
101687
101658
101661
101660
101661
101661
101661
101662
101662
101663
101663
101663
101663
101662
101781
102708
101659
101886
102009
101658
101660
101659
101659
101660
101660
101662
101663
101662
101663
101663
101663
101662
101660
101797
102803
102174
102055
101945
101897
101691
101661
101659
101661
101690
101787
101689
101666
101677
101685
101703
101685
101661
101827
102892
102128
102497
102610
102495
102188
101707
101658
101766
102281
102584
102286
101925
102042
102244
102449
102325
101817
101910
102883
101449
102254
102688
102753
102801
102743
102601
102684
102812
102783
102761
102226
102683
103023
103222
103233
102909
102409
102795
101328
101333
101945
102550
102759
102789
102800
102769
102618
102424
102179
102569
103014
103113
103359
103382
103412
103186
103197
101328
101329
101329
101353
101740
101970
101965
101677
101477
101427
101588
101906
101780
101740
102344
103407
103485
103509
103513
101329
101329
101330
101330
101330
101330
101329
101330
101329
101330
101330
101330
101330
101332
101420
102706
103544
103589
103612
101329
101329
101330
101330
101330
101329
101329
101329
101329
101329
101329
101330
101330
101332
101338
101902
103489
103675
103696
101329
101329
101330
101330
101330
101329
101329
101329
101329
101329
101329
101330
101329
101332
101351
101434
102226
103207
103463
101329
101329
101329
101329
101329
101329
101328
101328
101328
101329
101329
101329
101327
101330
101368
101470
101629
101696
101826
101329
101329
101329
101329
101329
101329
101328
101328
101328
101329
101328
101328
101326
101326
101392
101676
101658
101450
101431
101329
101329
101329
101329
101329
101329
101328
101328
101328
101328
101328
101327
101327
101325
101345
101662
101831
101794
101423
101329
101329
101329
101329
101329
101329
101328
101328
101328
101328
101328
101328
101327
101326
101330
101327
101610
101680
101707
101329
101329
101329
101329
101329
101329
101328
101328
101328
101328
101328
101328
101327
101327
101329
101328
101328
101403
102551
101329
101329
101329
101329
101329
101329
101329
101328
101328
101328
101328
101328
101328
101327
101329
101327
101328
101399
102595
101329
101329
101329
101329
101329
101329
101329
101328
101328
101328
101328
101328
101328
101328
101329
101328
101328
101368
102644
101329
101329
101329
101329
101329
101329
101329
101328
101328
101328
101328
101328
101328
101328
101329
101329
101328
101331
102693
101329
101329
101329
101329
101329
101329
101329
101328
101328
101328
101328
101328
101328
101328
101329
101329
101328
101328
102654
101329
101329
101329
101329
101329
101329
101329
101328
101328
101328
101328
101328
101328
101328
101329
101330
101328
101328
102304
101329
101329
101329
101329
101329
101329
101329
101328
101328
101328
101328
101328
101328
101328
101329
101329
101329
101328
102332
101329
101329
101329
101329
101329
101329
101328
101328
101328
101328
101328
101328
101328
101328
101329
101329
101329
101337
102361
101329
101329
101329
101329
101329
101328
101328
101328
101328
101328
101328
101328
101328
101328
101329
101329
101329
101350
102001
101329
101329
101329
101329
101328
101328
101328
101328
101328
101328
101328
101328
101328
101328
101328
101328
101329
101343
101329
101329
101329
101329
101328
101328
101328
101328
101328
101328
101327
101328
101328
101328
101328
101328
101328
101329
101328
101331
101329
101329
101328
101328
101328
101328
101327
101327
101327
101327
101327
101327
101328
101327
101328
101328
101330
101327
101583
101329
101328
101328
101328
101328
101327
101327
101327
101327
101327
101327
101327
101327
101327
101328
101327
101329
101327
101825
101328
101328
101328
101327
101327
101327
101326
101326
101326
101326
101326
101326
101327
101327
101328
101327
101329
101327
101839
101328
101328
101327
101327
101327
101326
101326
101326
101326
101325
101326
101326
101327
101326
101327
101327
101328
101327
101852
101327
101327
101327
101327
101326
101326
101325
101325
101325
101325
101325
101325
101326
101326
101327
101326
101327
101326
101525
101327
101327
101327
101326
101326
101325
101325
101324
101325
101325
101325
101325
101326
101326
101326
101326
101326
101326
101325
101327
101326
101326
101326
101325
101325
101324
101324
101324
101324
101324
101325
101325
101325
101326
101326
101326
101326
101326
101326
101326
101326
101326
101325
101325
101324
101324
101324
101324
101324
101324
101325
101325
101326
101326
101326
101326
101326
101326
101326
101325
101325
101325
101325
101324
101324
101324
101324
101324
101324
101325
101325
101325
101326
101326
101326
101326
101326
101326
101325
101325
101325
101325
101325
101324
101324
101325
101325
101325
101325
101325
101325
101325
101325
101325
101325
101325
101325
101325
101325
101325
101324
101324
101324
101324
101325
101325
101325
101325
101325
101325
101325
101326
101326
101326
)
;

boundaryField
{
    leftWall
    {
        type            zeroGradient;
    }
    rightWall
    {
        type            zeroGradient;
    }
    lowerWall
    {
        type            zeroGradient;
    }
    atmosphere
    {
        type            fixedValue;
        value           uniform 101325;
    }
    defaultFaces
    {
        type            empty;
    }
}


// ************************************************************************* //
