/*--------------------------------*- C++ -*----------------------------------*\
| =========                 |                                                 |
| \\      /  F ield         | OpenFOAM: The Open Source CFD Toolbox           |
|  \\    /   O peration     | Version:  2012                                  |
|   \\  /    A nd           | Website:  www.openfoam.com                      |
|    \\/     M anipulation  |                                                 |
\*---------------------------------------------------------------------------*/
FoamFile
{
    version     2.0;
    format      ascii;
    class       volScalarField;
    location    "0.67";
    object      rho;
}
// * * * * * * * * * * * * * * * * * * * * * * * * * * * * * * * * * * * * * //

dimensions      [1 -3 0 0 0 0 0];


internalField   nonuniform List<scalar> 
2268
(
1000.05
1000.05
1000.05
1000.05
1000.05
1000.05
1000.05
1000.05
1000.05
1000.05
1000.05
1000.05
1000.05
1000.05
1000.05
1000.05
1000.05
1000.05
1000.05
1000.05
1000.05
1000.05
999.843
1000.05
1000.05
1000.05
1000.05
1000.05
1000.05
1000.05
1000.05
1000.05
1000.05
1000.05
1000.05
1000.05
1000.05
1000.05
1000.05
1000.05
1000.05
1000.05
1000.05
1000.05
1000.04
999.766
1000.05
1000.05
1000.05
1000.05
1000.05
1000.05
1000.05
1000.05
1000.05
1000.05
1000.05
1000.05
1000.05
1000.05
1000.05
1000.05
1000.05
1000.05
1000.05
1000.05
1000.05
1000.04
999.766
1000.05
1000.05
1000.05
1000.05
1000.05
1000.05
1000.05
1000.05
1000.05
1000.05
1000.05
1000.05
1000.05
1000.05
1000.05
1000.05
1000.05
1000.05
1000.05
1000.05
1000.05
1000.04
999.766
1000.05
1000.05
1000.05
1000.05
1000.05
1000.05
1000.05
1000.05
1000.05
1000.05
1000.05
1000.05
1000.05
1000.05
1000.05
1000.05
1000.05
1000.05
1000.05
1000.05
1000.05
1000.05
999.969
1000.05
1000.05
1000.05
1000.05
1000.05
1000.05
1000.05
1000.05
1000.05
1000.05
1000.05
1000.05
1000.05
1000.05
1000.05
1000.05
1000.05
1000.05
1000.05
1000.05
1000.05
1000.05
1000.05
1000.02
1000.02
1000.04
1000.05
1000.05
1000.05
1000.05
1000.05
1000.05
1000.05
1000.05
1000.05
1000.05
1000.05
1000.05
1000.05
1000.05
1000.05
1000.05
1000.05
1000.05
1000.05
1000.05
954.396
958.009
972.21
987.27
995.45
999.055
1000.05
1000.05
1000.05
1000.05
1000.05
1000.05
1000.05
1000.05
1000.05
1000.05
1000.05
1000.05
1000.05
1000.05
1000.05
1000.05
1000.05
811.55
811.548
733.519
665.215
665.217
665.216
753.065
832.234
832.227
832.236
832.241
832.259
832.258
832.261
832.262
832.335
832.301
832.336
832.304
811.55
811.547
811.545
811.54
708.984
706.877
793.696
832.214
820.387
779.247
757.82
721.639
692.222
679.097
692.302
751.169
796.04
832.302
832.337
762.962
356.178
445.362
533.149
710.67
839.747
915.63
668.192
194.867
194.874
234.338
263.926
127.453
90.5031
79.4889
128.949
264.707
574.791
822.151
769.939
17.6185
11.313
14.656
87.2222
398.966
915.622
985.146
686.95
416.568
252.22
6.81472
1.88542
1.88479
1.88482
1.88484
3.54964
197.866
590.541
769.941
25.0707
1.29919
1.29853
1.29902
180.01
841.282
997.091
993.715
933.973
796.307
556.324
288.778
48.097
1.8853
1.88487
2.59034
112.596
576.65
374.902
28.6794
1.29884
1.29847
1.29881
566.502
973.572
997.091
997.43
997.429
997.43
990.543
925.957
774.173
510.603
156.123
26.8865
136.458
657.16
328.757
26.3785
1.29853
1.29858
1.29902
772.207
991.311
997.091
994.138
958.884
978.122
993.155
993.141
993.155
993.141
861.292
387.348
136.469
641.734
457.535
26.96
1.70633
1.29883
330.814
931.266
993.229
993.23
822.413
575.12
538.415
592.905
662.824
700.563
817.236
861.279
783.168
177.747
529.885
405.676
421.096
454.958
510.397
587.768
660.807
749.517
840.621
923.004
990.183
1000.05
1000.05
1000.05
1000.05
1000.05
1000.05
1000.05
1000.05
1000.05
1000.05
1000.05
1000.05
1000.05
1.29337
1.29338
1.29337
1.52089
8.35881
34.4821
74.219
139.881
244.307
388.267
577.946
737.157
873.947
983.053
1000.05
1000.05
1000.05
1000.02
1000.05
1000.05
1000.05
1000.05
1000.05
1.29331
1.29331
1.29331
1.29331
1.2933
1.29332
1.29335
1.50787
3.8246
13.3329
43.6694
122.048
236.505
408.288
613.367
751.5
831.25
951.869
985.911
996.992
997.262
1000.05
1000.05
1.29327
1.29327
1.29327
1.29327
1.29327
1.29327
1.29332
1.29387
1.30144
1.38024
1.95875
4.64155
12.658
32.0902
76.6402
128.116
153.797
225.942
359.575
514.129
638.969
880.777
980.305
1.29325
1.29325
1.29325
1.29325
1.29325
1.29326
1.29326
1.29327
1.29328
1.29332
1.29364
1.29473
1.29552
1.29332
1.29333
1.29334
1.29334
1.29336
1.29336
1.29336
17.2559
123.387
232.471
1.29325
1.29325
1.29325
1.29325
1.29325
1.29325
1.29325
1.29325
1.29325
1.29327
1.29346
1.2936
1.29453
1.29443
1.29329
1.2933
1.29331
1.29333
1.29334
1.29885
1.4018
4.05066
27.6
1.29324
1.29324
1.29324
1.29324
1.29324
1.29325
1.29325
1.29325
1.29325
1.29325
1.29388
1.29534
1.29534
1.29497
1.29326
1.29328
1.29338
1.29338
1.29324
1.29321
1.29312
1.43572
54.6656
1.29324
1.29324
1.29324
1.29324
1.29324
1.29324
1.29324
1.29324
1.29324
1.29325
1.29362
1.29464
1.29475
1.29367
1.29325
1.29326
1.29339
1.29363
1.29341
1.29318
1.29312
1.31533
25.85
1.29324
1.29324
1.29324
1.29324
1.29324
1.29324
1.29324
1.29324
1.29324
1.29325
1.29328
1.2933
1.29333
1.29326
1.29325
1.29326
1.29331
1.29361
1.29361
1.29336
1.29317
1.29827
1.4255
1.29324
1.29324
1.29324
1.29324
1.29324
1.29324
1.29324
1.29324
1.29324
1.29324
1.29324
1.29324
1.29324
1.29324
1.29325
1.29326
1.29328
1.2934
1.29361
1.29355
1.29321
1.2956
1.2982
1.29324
1.29324
1.29324
1.29324
1.29324
1.29324
1.29324
1.29324
1.29324
1.29324
1.29324
1.29324
1.29324
1.29324
1.29324
1.29325
1.29326
1.29325
1.29331
1.29333
1.29332
1.29627
1.30774
1.29323
1.29323
1.29323
1.29323
1.29323
1.29323
1.29323
1.29323
1.29324
1.29324
1.29324
1.29324
1.29324
1.29324
1.29324
1.29324
1.29324
1.29324
1.29323
1.29323
1.29331
1.29413
1.30279
1.29323
1.29323
1.29323
1.29323
1.29323
1.29323
1.29323
1.29323
1.29323
1.29323
1.29323
1.29323
1.29323
1.29323
1.29323
1.29323
1.29323
1.29323
1.29323
1.29323
1.29323
1.29358
1.29466
1.29323
1.29323
1.29323
1.29323
1.29323
1.29323
1.29323
1.29323
1.29323
1.29323
1.29323
1.29323
1.29323
1.29323
1.29323
1.29323
1.29323
1.29323
1.29323
1.29322
1.29322
1.29327
1.29356
1.29323
1.29323
1.29323
1.29323
1.29323
1.29323
1.29323
1.29323
1.29323
1.29323
1.29323
1.29323
1.29323
1.29323
1.29323
1.29323
1.29323
1.29323
1.29322
1.29322
1.29322
1.29322
1.29322
1.29322
1.29322
1.29322
1.29322
1.29322
1.29322
1.29322
1.29322
1.29322
1.29322
1.29322
1.29322
1.29322
1.29322
1.29322
1.29322
1.29322
1.29322
1.29322
1.29322
1.29322
1.29322
1.29322
1.29322
1.29322
1.29322
1.29322
1.29322
1.29322
1.29322
1.29322
1.29322
1.29322
1.29322
1.29322
1.29322
1.29322
1.29322
1.29322
1.29322
1.29322
1.29322
1.29322
1.29322
1.29322
1.29322
1.29321
1.29321
1.29321
1.29321
1.29321
1.29322
1.29322
1.29322
1.29322
1.29322
1.29322
1.29322
1.29322
1.29322
1.29322
1.29322
1.29322
1.29322
1.29322
1.29322
1.29322
1.29322
1.29322
1.29321
1.29321
1.29321
1.29321
1.29321
1.29321
1.29321
1.29321
1.29321
1.29321
1.29321
1.29321
1.29321
1.29322
1.29322
1.29322
1.29322
1.29322
1.29322
1.29322
1.29322
1.29322
1.29322
1.2932
1.2932
1.2932
1.2932
1.2932
1.2932
1.2932
1.2932
1.2932
1.29321
1.29321
1.29321
1.29321
1.29321
1.29321
1.29321
1.29321
1.29321
1.29321
1.29321
1.29321
1.29321
1.29321
1.29318
1.29318
1.29318
1.29319
1.29319
1.29319
1.29319
1.29319
1.29319
1.2932
1.2932
1.2932
1.2932
1.2932
1.2932
1.29321
1.29321
1.29321
1.29321
1.29321
1.29321
1.29321
1.29321
1.29317
1.29317
1.29317
1.29317
1.29317
1.29317
1.29317
1.29317
1.29318
1.29318
1.29318
1.29318
1.29319
1.29319
1.29319
1.2932
1.2932
1.2932
1.2932
1.2932
1.29321
1.29321
1.29321
1.29315
1.29315
1.29315
1.29315
1.29315
1.29315
1.29315
1.29315
1.29316
1.29316
1.29316
1.29316
1.29317
1.29317
1.29317
1.29318
1.29318
1.29318
1.29319
1.29319
1.29319
1.2932
1.2932
1.29313
1.29313
1.29313
1.29313
1.29313
1.29313
1.29314
1.29314
1.29314
1.29314
1.29314
1.29314
1.29314
1.29315
1.29315
1.29315
1.29315
1.29316
1.29316
1.29316
1.29317
1.29317
1.29317
1.29312
1.29312
1.29312
1.29312
1.29312
1.29312
1.29312
1.29312
1.29312
1.29313
1.29313
1.29313
1.29313
1.29313
1.29313
1.29313
1.29313
1.29313
1.29314
1.29314
1.29314
1.29314
1.29314
1.29311
1.29311
1.29311
1.29311
1.29311
1.29311
1.29311
1.29311
1.29312
1.29312
1.29312
1.29312
1.29312
1.29312
1.29312
1.29312
1.29312
1.29312
1.29313
1.29313
1.29313
1.29313
1.29313
1.29311
1.29311
1.29311
1.29311
1.29311
1.29311
1.29311
1.29311
1.29311
1.29311
1.29311
1.29311
1.29311
1.29311
1.29312
1.29312
1.29312
1.29312
1.29312
1.29313
1.29313
1.29313
1.29314
1.2931
1.2931
1.2931
1.2931
1.2931
1.2931
1.2931
1.2931
1.29311
1.29311
1.29311
1.29311
1.29311
1.29311
1.29311
1.29312
1.29312
1.29312
1.29313
1.29314
1.29314
1.29315
1.29315
1.2931
1.2931
1.2931
1.2931
1.2931
1.2931
1.2931
1.2931
1.2931
1.2931
1.2931
1.29311
1.29311
1.29311
1.29312
1.29312
1.29313
1.29314
1.29315
1.29315
1.29316
1.29317
1.29351
1.2931
1.2931
1.2931
1.2931
1.2931
1.2931
1.2931
1.2931
1.2931
1.2931
1.2931
1.29311
1.29311
1.29312
1.29312
1.29313
1.29314
1.29315
1.29319
1.29361
1.29473
1.29492
1.29475
1.29309
1.29309
1.29309
1.29309
1.2931
1.2931
1.2931
1.2931
1.2931
1.2931
1.29311
1.29311
1.29312
1.29312
1.29313
1.29314
1.29315
1.29326
1.29455
1.29637
1.29637
1.29611
1.29368
1.29309
1.29309
1.29309
1.2931
1.2931
1.2931
1.2931
1.2931
1.2931
1.29311
1.29311
1.29311
1.29312
1.29313
1.29314
1.29315
1.29331
1.29532
1.29672
1.29672
1.29467
1.29312
1.29312
1.2931
1.2931
1.2931
1.2931
1.2931
1.2931
1.2931
1.2931
1.29311
1.29311
1.29311
1.29311
1.29312
1.29313
1.29314
1.29335
1.29564
1.2966
1.29607
1.29334
1.29311
1.29311
1.29312
1.2931
1.2931
1.2931
1.2931
1.2931
1.2931
1.2931
1.2931
1.29311
1.29311
1.29311
1.29312
1.29313
1.29313
1.29322
1.29528
1.29659
1.29593
1.29307
1.2931
1.2931
1.29311
1.29311
1.2931
1.2931
1.2931
1.2931
1.2931
1.2931
1.2931
1.2931
1.29311
1.29311
1.29311
1.29312
1.29313
1.29313
1.29407
1.29648
1.29632
1.29313
1.29308
1.29309
1.2931
1.2931
1.2931
1.2931
1.2931
1.2931
1.2931
1.2931
1.2931
1.2931
1.2931
1.2931
1.29311
1.29311
1.29312
1.29312
1.29311
1.29454
1.29645
1.29371
1.29305
1.29307
1.29308
1.29309
1.29309
1.29309
1.2931
1.2931
1.2931
1.2931
1.2931
1.2931
1.2931
1.2931
1.2931
1.29311
1.29311
1.29311
1.29311
1.29331
1.29428
1.29362
1.29301
1.29304
1.29306
1.29307
1.29308
1.29308
1.29308
1.2931
1.2931
1.2931
1.2931
1.2931
1.2931
1.2931
1.2931
1.2931
1.29311
1.29311
1.29311
1.29311
1.29337
1.29344
1.29298
1.29299
1.29303
1.29306
1.29307
1.29307
1.29307
1.29307
1.2931
1.2931
1.2931
1.2931
1.2931
1.2931
1.2931
1.2931
1.2931
1.29311
1.29311
1.2931
1.29312
1.29323
1.29302
1.29295
1.29298
1.29302
1.29305
1.29306
1.29306
1.29307
1.29306
1.29311
1.29311
1.29311
1.29311
1.29311
1.29311
1.29311
1.29311
1.29311
1.29311
1.29311
1.2931
1.29312
1.29307
1.29294
1.29293
1.29296
1.29301
1.29304
1.29305
1.29306
1.29306
1.29306
1.29312
1.29312
1.29312
1.29312
1.29312
1.29312
1.29312
1.29312
1.29311
1.29311
1.29311
1.2931
1.29307
1.29297
1.2929
1.2929
1.29294
1.293
1.29303
1.29304
1.29305
1.29305
1.29305
1.29315
1.29315
1.29315
1.29315
1.29315
1.29315
1.29315
1.29315
1.29315
1.29314
1.29313
1.2931
1.29301
1.2929
1.29285
1.29285
1.29293
1.29299
1.29302
1.29303
1.29304
1.29304
1.29304
1000.05
982.494
605.32
356.527
1000.05
990.983
654.908
219.019
1000.05
999.681
972.498
746.792
1000.05
1000.05
1000.05
1000.05
445.225
528.248
680.179
739.884
65.6525
81.0683
134.534
200.1
131.732
64.0713
49.8394
49.8344
289.903
288.773
276.811
85.8948
7.61408
178.4
350.631
460.593
1.29536
1.29537
14.5927
207.234
1.30313
1.29537
1.29534
1.29533
1.31119
1.30211
1.29536
1.29534
1.29834
1.30967
1.31711
1.30845
1.29359
1.29491
1.29723
1.30556
1.29322
1.29323
1.29333
1.29378
1.29322
1.29322
1.29322
1.29322
1.29322
1.29322
1.29322
1.29322
1.29322
1.29322
1.29322
1.29322
1.29322
1.29322
1.29322
1.29322
1.29321
1.29321
1.29321
1.29321
1.29321
1.29321
1.29321
1.29321
1.29321
1.29321
1.29321
1.29321
1.2932
1.2932
1.2932
1.2932
1.29318
1.29318
1.29318
1.29319
1.29315
1.29315
1.29315
1.29315
1.29313
1.29314
1.29314
1.29314
1.29314
1.29314
1.29314
1.29314
1.29315
1.29317
1.2932
1.29323
1.2936
1.29365
1.29359
1.29341
1.29438
1.29372
1.29329
1.29318
1.2932
1.29313
1.29313
1.29313
1.29312
1.29312
1.29312
1.29312
1.29312
1.29311
1.29311
1.29311
1.2931
1.2931
1.2931
1.29309
1.29309
1.29309
1.29309
1.29308
1.29308
1.29308
1.29308
1.29307
1.29307
1.29307
1.29307
1.29306
1.29307
1.29306
1.29306
1.29306
1.29306
1.29306
1.29305
1.29305
1.29305
1.29305
1.29305
1.29304
1.29305
1.29305
1.29304
1.29304
1.29304
1.29303
1.29303
1.29303
395.524
7.25456
7.24997
304.76
804.493
999.101
980.957
597.943
221.269
47.6197
29.1305
29.6439
34.7615
39.5816
73.7169
200.59
370.249
140.406
653.034
72.5481
37.3618
401.798
985.497
1000.05
1000.05
491.705
7.02652
1.29653
1.29641
1.29679
1.3025
1.31552
1.33781
1.49308
3.07407
16.4087
71.6446
765.166
469.154
723.867
993.992
1000.01
1000.05
633.62
53.7024
1.32307
1.30099
1.29797
1.30998
1.33906
1.30021
1.29694
1.29992
1.33462
1.42735
14.0294
765.402
995.035
999.132
999.132
961.26
919.511
64.4172
1.30068
1.32736
1.30672
1.29677
1.29742
1.29645
1.29618
1.29613
1.29613
1.29649
1.29816
1.29816
763.355
883.736
842.496
805.594
680.123
259.662
1.29883
1.30065
1.30251
1.29653
1.29636
1.29636
1.2963
1.2962
1.29607
1.29595
1.29583
1.52257
45.0625
797.546
284.082
377.914
607.433
291.75
1.29619
1.29871
1.30599
1.29638
1.29638
1.29639
1.29639
1.29635
1.29629
1.29618
1.29606
1.29596
1.29585
81.1147
807.835
113.643
486.327
486.304
21.6003
1.2959
1.30191
1.30603
1.29768
1.29641
1.29642
1.29643
1.29639
1.29634
1.29629
1.29624
1.29618
1.29593
92.7946
807.836
101.017
258.855
249.754
1.3028
1.30263
1.29994
1.3044
1.29766
1.32809
1.49787
1.31124
1.2971
1.30277
1.30868
1.33089
1.30706
1.29602
96.8489
806.805
460.59
334.621
238.371
162.847
22.9261
1.29983
1.33738
2.20571
20.7976
85.0605
19.4391
4.43119
11.2582
16.7418
28.648
17.0375
1.29615
115.732
801.269
460.688
641.568
641.566
546.702
330.056
31.9878
1.33705
67.7716
392.721
583.863
397.963
167.885
239.958
365.457
491.101
417.922
102.174
177.192
750.12
66.9592
508.743
708.065
708.065
708.065
635.991
549.88
609.125
697.759
697.745
697.589
361.341
629.056
814.285
914.535
928.971
742.954
457.817
683.576
1.29434
3.57226
313.391
621.181
708.065
708.065
708.065
707.102
642.639
544.48
411.792
589.291
825.145
873.855
976.251
990.16
990.161
870.237
867.499
1.29434
1.29433
1.29434
12.3989
196.925
306.651
304.45
166.957
71.5389
47.3548
124.568
275.672
215.775
194.446
468.794
970.922
990.16
990.16
990.16
1.30557
1.30413
1.29434
1.29318
1.29317
1.29317
1.29316
1.29314
1.29312
1.29312
1.29312
1.29307
1.29294
1.29285
40.4676
621.562
990.16
990.16
990.16
1.2948
1.29883
1.2983
1.29632
1.29315
1.29314
1.29315
1.29317
1.29318
1.29317
1.29315
1.29312
1.29415
1.33389
4.34283
238.677
906.044
989.361
990.16
1.29331
1.29336
1.29322
1.29689
1.29469
1.29482
1.30212
1.30522
1.29507
1.29319
1.29318
1.29318
1.29587
1.62888
8.39333
37.9809
343.404
741.712
842.247
1.29322
1.29322
1.29322
1.29422
1.30063
1.30063
1.32294
1.33523
1.31973
1.29319
1.29318
1.29315
1.2972
1.97295
16.1332
44.5949
85.5759
117.448
167.93
1.29322
1.29322
1.29322
1.29321
1.29734
1.29411
1.33154
1.33523
1.33523
1.29943
1.29319
1.29315
1.29909
1.40971
25.0811
132.859
102.808
23.7137
13.917
1.29322
1.29322
1.29321
1.29321
1.29324
1.2932
1.29718
1.30773
1.33523
1.31101
1.29323
1.29324
1.30106
1.3287
7.78046
121.421
168.462
153.365
13.9169
1.29321
1.29321
1.29321
1.29321
1.29321
1.29321
1.29321
1.2946
1.29547
1.29445
1.29319
1.29396
1.3008
1.29492
2.39441
1.29713
96.1075
120.862
123.973
1.29321
1.29321
1.29321
1.29321
1.29321
1.2932
1.2932
1.29319
1.29318
1.29318
1.29317
1.29317
1.29542
1.29318
1.84229
1.29701
1.29695
25.5675
401.357
1.29321
1.29321
1.29321
1.29321
1.29321
1.2932
1.2932
1.2932
1.29319
1.29318
1.29318
1.29318
1.29319
1.29318
1.58787
1.31535
1.30172
24.0288
401.357
1.2932
1.29321
1.29321
1.29321
1.29321
1.2932
1.2932
1.2932
1.2932
1.29319
1.29319
1.29319
1.29319
1.29319
1.54927
1.39121
1.30208
13.3176
401.357
1.29319
1.2932
1.2932
1.2932
1.2932
1.2932
1.2932
1.2932
1.2932
1.29319
1.29319
1.29319
1.29319
1.29319
1.62566
1.53754
1.30535
2.17575
401.357
1.29316
1.29317
1.29318
1.29319
1.29319
1.29319
1.2932
1.2932
1.2932
1.29319
1.29319
1.29319
1.29319
1.29319
1.62396
1.6493
1.31065
1.29275
376.069
1.29314
1.29314
1.29314
1.29315
1.29316
1.29318
1.29319
1.29319
1.29319
1.29319
1.29319
1.29319
1.29319
1.29319
1.62907
1.65268
1.33314
1.29275
267.646
1.29314
1.29314
1.29314
1.29314
1.29314
1.29315
1.29316
1.29318
1.29318
1.29319
1.29319
1.29319
1.29319
1.29319
1.56507
1.63309
1.34193
1.29277
266.163
1.2932
1.29316
1.29315
1.29315
1.29314
1.29314
1.29314
1.29315
1.29317
1.29318
1.29319
1.29319
1.29319
1.29318
1.39225
1.52071
1.34516
3.22888
266.166
1.29323
1.29318
1.29316
1.29316
1.29315
1.29315
1.29314
1.29314
1.29315
1.29316
1.29318
1.29318
1.29319
1.29318
1.31583
1.44469
1.32936
6.62928
165.752
1.29318
1.29319
1.29318
1.29316
1.29316
1.29315
1.29315
1.29314
1.29314
1.29315
1.29316
1.29317
1.29318
1.29318
1.30062
1.40373
1.32968
5.09716
1.9563
1.29313
1.29315
1.2932
1.29316
1.29315
1.29316
1.29316
1.29314
1.29314
1.29314
1.29315
1.29316
1.29318
1.29317
1.29397
1.36066
1.33517
1.4413
1.98675
1.29312
1.29312
1.29318
1.29314
1.29314
1.29331
1.29332
1.2932
1.29315
1.29314
1.29314
1.29315
1.29317
1.29317
1.29318
1.3372
1.32792
1.29303
58.3723
1.29311
1.2931
1.29314
1.29347
1.29313
1.29332
1.29465
1.29429
1.29362
1.29313
1.29314
1.29314
1.29316
1.29316
1.29318
1.33723
1.33772
1.29303
110.54
1.29309
1.29308
1.29308
1.2942
1.29448
1.29329
1.29956
1.29999
1.29311
1.29312
1.29313
1.29313
1.29315
1.29316
1.29317
1.33879
1.33893
1.29304
110.54
1.29308
1.29307
1.29306
1.29378
1.29628
1.29327
1.29926
1.35319
1.34888
1.30529
1.29375
1.29313
1.29314
1.29315
1.29316
1.32126
1.3167
1.29304
110.51
1.29307
1.29306
1.29305
1.29304
1.29626
1.295
1.29305
1.30494
1.48091
1.36931
1.29515
1.29312
1.29313
1.29314
1.29316
1.29407
1.29352
1.29304
41.4921
1.29306
1.29305
1.29304
1.29303
1.29345
1.29453
1.29303
1.32284
1.48323
1.43873
1.30873
1.29313
1.29312
1.29313
1.29317
1.29318
1.29315
1.29304
1.29299
1.29305
1.29304
1.29303
1.29302
1.29301
1.29302
1.293
1.33398
1.48321
1.47589
1.31922
1.29312
1.29312
1.29313
1.29318
1.29316
1.29314
1.3144
1.29898
1.29304
1.29303
1.29302
1.29301
1.293
1.29299
1.29298
1.29898
1.47762
1.48293
1.33493
1.29315
1.29311
1.29313
1.29317
1.29315
1.29314
1.3196
1.30115
1.29304
1.29303
1.29302
1.293
1.29299
1.29298
1.29304
1.29306
1.4646
1.48295
1.35601
1.29314
1.29311
1.29312
1.29315
1.29314
1.29314
1.30952
1.29448
1.29303
1.29302
1.29301
1.293
1.29298
1.29297
1.29297
1.2933
1.35146
1.48293
1.35288
1.29314
1.29311
1.29312
1.29313
1.29313
1.29313
1.29342
1.29323
1.29302
1.29301
1.293
1.29299
1.29298
1.29296
1.29296
1.29296
1.29299
1.33347
1.31735
1.29414
1.29311
1.29312
1.29313
1.29315
1.29321
1.29322
1.30673
)
;

boundaryField
{
    leftWall
    {
        type            calculated;
        value           nonuniform List<scalar> 
50
(
1000.05
1000.05
1000.05
1000.05
1000.05
1000.05
1000.02
954.396
405.676
1.29337
1.29331
1.29327
1.29325
1.29325
1.29324
1.29324
1.29324
1.29324
1.29324
1.29323
1.29323
1.29323
1.29323
1.29322
1.29322
1.29321
1.29321
1.2932
1.29318
1.29317
1.29315
1.29313
1.29312
1.29311
1.29311
1.2931
1.2931
1.2931
1.29309
1.29309
1.2931
1.2931
1.2931
1.2931
1.2931
1.2931
1.2931
1.29311
1.29312
1.29315
)
;
    }
    rightWall
    {
        type            calculated;
        value           nonuniform List<scalar> 
50
(
832.304
832.337
822.151
590.541
576.65
657.16
641.734
529.885
653.034
765.166
765.402
763.355
797.546
807.835
807.836
806.805
801.269
750.12
683.576
867.499
990.16
990.16
990.16
842.247
167.93
13.917
13.9169
123.973
401.357
401.357
401.357
401.357
376.069
267.646
266.163
266.166
165.752
1.9563
1.98675
58.3723
110.54
110.54
110.51
41.4921
1.29299
1.29898
1.30115
1.29448
1.29323
1.30673
)
;
    }
    lowerWall
    {
        type            calculated;
        value           nonuniform List<scalar> 
62
(
1000.05
1000.05
1000.05
1000.05
1000.05
1000.05
1000.05
1000.05
1000.05
1000.05
1000.05
1000.05
1000.05
1000.05
1000.05
1000.05
1000.05
1000.05
1000.05
1000.05
1000.05
1000.05
999.843
999.843
999.766
999.766
999.766
999.969
1000.05
1000.05
1000.05
1000.05
982.494
605.32
356.528
811.55
811.55
762.962
769.939
769.941
374.902
328.757
457.535
811.55
811.548
733.519
665.215
665.217
665.216
753.065
832.234
832.227
832.237
832.241
832.259
832.259
832.261
832.262
832.335
832.301
832.336
832.304
)
;
    }
    atmosphere
    {
        type            calculated;
        value           nonuniform List<scalar> 
46
(
1.29324
1.29324
1.29324
1.29324
1.29324
1.29324
1.29324
1.29324
1.29323
1.29323
1.29322
1.29319
1.2931
1.29299
1.29295
1.29294
1.29302
1.29308
1.29311
1.29313
1.29314
1.29314
1.29314
1.29313
1.29313
1.29313
1.29312
1.29312
1.29311
1.2931
1.29309
1.29307
1.29306
1.29306
1.29307
1.29309
1.33358
1.31745
1.29424
1.2932
1.29322
1.29323
1.29324
1.2933
1.29331
1.30681
)
;
    }
    defaultFaces
    {
        type            empty;
    }
}


// ************************************************************************* //
