/*--------------------------------*- C++ -*----------------------------------*\
| =========                 |                                                 |
| \\      /  F ield         | OpenFOAM: The Open Source CFD Toolbox           |
|  \\    /   O peration     | Version:  2012                                  |
|   \\  /    A nd           | Website:  www.openfoam.com                      |
|    \\/     M anipulation  |                                                 |
\*---------------------------------------------------------------------------*/
FoamFile
{
    version     2.0;
    format      ascii;
    class       volScalarField;
    location    "0.67";
    object      rhogh;
}
// * * * * * * * * * * * * * * * * * * * * * * * * * * * * * * * * * * * * * //

dimensions      [1 -1 -2 0 0 0 0];


internalField   nonuniform List<scalar> 
2268
(
-29.4294
-29.4294
-29.4294
-29.4294
-29.4294
-29.4294
-29.4294
-29.4294
-29.4294
-29.4294
-29.4294
-29.4294
-29.4294
-29.4294
-29.4294
-29.4294
-29.4294
-29.4294
-29.4294
-29.4294
-29.4294
-29.4293
-29.4231
-88.2881
-88.2881
-88.2881
-88.2881
-88.2881
-88.2881
-88.2881
-88.2881
-88.2881
-88.2881
-88.2881
-88.2881
-88.2881
-88.2881
-88.2881
-88.2881
-88.2881
-88.2881
-88.2881
-88.2881
-88.2881
-88.2867
-88.2626
-147.147
-147.147
-147.147
-147.147
-147.147
-147.147
-147.147
-147.147
-147.147
-147.147
-147.147
-147.147
-147.147
-147.147
-147.147
-147.147
-147.147
-147.147
-147.147
-147.147
-147.147
-147.145
-147.104
-206.006
-206.006
-206.006
-206.006
-206.006
-206.006
-206.006
-206.006
-206.006
-206.006
-206.006
-206.006
-206.006
-206.006
-206.006
-206.006
-206.006
-206.006
-206.006
-206.006
-206.006
-206.003
-205.946
-264.864
-264.864
-264.864
-264.864
-264.864
-264.864
-264.864
-264.864
-264.864
-264.864
-264.864
-264.864
-264.864
-264.864
-264.864
-264.864
-264.864
-264.864
-264.864
-264.864
-264.864
-264.863
-264.842
-323.723
-323.723
-323.723
-323.723
-323.723
-323.723
-323.723
-323.723
-323.723
-323.723
-323.723
-323.723
-323.723
-323.723
-323.723
-323.723
-323.723
-323.723
-323.723
-323.723
-323.723
-323.723
-323.723
-382.567
-382.568
-382.576
-382.582
-382.582
-382.582
-382.582
-382.582
-382.582
-382.582
-382.582
-382.582
-382.582
-382.582
-382.582
-382.582
-382.582
-382.582
-382.582
-382.582
-382.582
-382.582
-382.582
-421.26
-422.857
-429.134
-435.79
-439.406
-440.999
-441.44
-441.44
-441.44
-441.44
-441.44
-441.44
-441.44
-441.44
-441.44
-441.44
-441.44
-441.44
-441.44
-441.44
-441.44
-441.44
-441.44
-23.8748
-23.8748
-21.5756
-19.563
-19.563
-19.563
-22.1515
-24.4843
-24.4841
-24.4844
-24.4846
-24.4851
-24.4851
-24.4852
-24.4852
-24.4873
-24.4863
-24.4873
-24.4863
-71.6245
-71.6244
-71.6242
-71.6238
-62.558
-62.3717
-70.0462
-73.4512
-72.4057
-68.7691
-66.875
-63.6767
-61.0763
-59.9161
-61.0834
-66.2871
-70.2536
-73.459
-73.462
-112.216
-52.2844
-65.4239
-78.3575
-104.512
-123.529
-134.708
-98.253
-28.5175
-28.519
-34.3334
-38.6929
-18.5863
-13.1425
-11.5198
-18.8068
-38.808
-84.4925
-120.936
-158.541
-3.36615
-2.06541
-2.75504
-17.7226
-82.0234
-188.59
-202.931
-141.424
-85.6539
-51.7554
-1.13757
-0.120979
-0.120979
-0.120979
-0.120979
-0.464289
-40.5442
-121.538
-203.839
-6.30421
-2.24493e-18
-3.73027e-05
1.72169e-17
-47.393
-222.759
-264.079
-263.183
-247.34
-210.832
-147.19
-76.2377
-12.4106
-0.155545
-0.155545
-0.342557
-29.5154
-152.579
-121.094
-8.87484
-4.5266e-23
-0.000130983
1.26977e-25
-183.197
-315.139
-322.762
-322.872
-322.872
-322.872
-320.64
-299.706
-250.509
-165.079
-50.1826
-8.29367
-43.8089
-212.582
-125.435
-9.60714
3.40864e-23
-0.000187099
-6.46473e-17
-295.303
-379.233
-381.447
-380.316
-366.811
-374.181
-379.939
-379.934
-379.939
-379.934
-329.428
-147.879
-51.7783
-245.324
-201.652
-11.3422
-0.180171
-0.000215822
-145.642
-411.037
-438.424
-438.424
-362.925
-253.624
-237.401
-261.485
-292.388
-309.069
-360.637
-380.103
-345.579
-77.9879
-233.629
-215.992
-224.229
-242.315
-271.927
-313.253
-352.265
-399.648
-448.309
-492.312
-528.195
-533.467
-533.467
-533.467
-533.467
-533.467
-533.467
-533.467
-533.467
-533.467
-533.467
-533.467
-533.467
-533.467
3.60459e-36
1.96622e-32
4.08519e-20
-0.150052
-4.65951
-21.8872
-48.0929
-91.3956
-160.262
-255.201
-380.29
-485.286
-575.497
-647.45
-658.662
-658.662
-658.662
-658.637
-658.66
-658.662
-658.662
-658.662
-658.662
-1.31775e-15
-1.20409e-12
-6.64573e-10
-1.05658e-07
-5.08125e-28
-6.31834e-28
1.92219e-20
-0.168345
-1.98658
-9.44898
-33.2579
-94.7719
-184.601
-319.421
-480.373
-588.784
-651.374
-746.04
-772.756
-781.453
-781.666
-783.856
-783.856
-4.0522e-15
-1.97831e-13
-1.14213e-11
-1.06206e-10
-1.86392e-09
-5.78842e-08
-2.11269e-05
-0.000502895
-0.00738759
-0.0791091
-0.605651
-3.04746
-10.3439
-28.0306
-68.579
-115.431
-138.806
-204.47
-326.1
-466.772
-580.399
-800.487
-891.076
-1.30073e-13
-5.7182e-12
-1.15818e-10
-1.3262e-09
-8.86618e-09
-5.47067e-08
-8.55239e-07
-1.14711e-06
-3.96068e-06
-4.5677e-05
-0.000365128
-0.00147401
-0.00229138
-5.75271e-23
1.49059e-22
1.24478e-21
3.19518e-21
3.12208e-21
6.39116e-26
-7.28153e-18
-16.5297
-126.431
-239.391
-4.90237e-14
-2.18967e-12
-5.88695e-11
-9.37358e-10
-8.32418e-09
-3.65855e-08
-8.36575e-08
-1.03931e-07
-2.95178e-07
-2.11253e-05
-0.00023573
-0.000377252
-0.00146419
-0.00134485
2.84426e-24
1.87342e-23
8.06121e-24
3.08766e-25
-3.00138e-07
-0.00641475
-0.12599
-3.20098
-30.5388
-6.07415e-14
-2.95442e-12
-6.78648e-11
-9.1315e-10
-7.17538e-09
-2.95021e-08
-6.79753e-08
-1.71138e-07
-2.35986e-07
-3.63936e-06
-0.000804207
-0.0026774
-0.00267726
-0.00220597
1.02502e-23
-1.26722e-05
-0.000126185
-0.000119717
-5.36565e-07
-4.66542e-05
-6.92128e-08
-0.183387
-68.6491
-2.48844e-14
-1.26171e-12
-3.03958e-11
-4.37596e-10
-3.88761e-09
-1.96756e-08
-7.55631e-08
-3.66088e-07
-9.26969e-07
-8.62784e-06
-0.000520989
-0.00196897
-0.002122
-0.000588272
-2.52309e-24
-6.62829e-06
-0.000183425
-0.000514331
-0.000225027
-7.5958e-08
-7.62686e-08
-0.0313933
-34.6641
-1.04625e-14
-5.06045e-13
-1.18805e-11
-1.72164e-10
-1.62463e-09
-1.00225e-08
-6.17028e-08
-4.49225e-07
-2.39729e-06
-1.43787e-05
-5.04676e-05
-8.20106e-05
-0.000134587
-2.17494e-05
-1.13434e-05
-1.65628e-05
-0.000105153
-0.00056078
-0.000560004
-0.000207157
-8.59143e-06
-0.00790179
-0.20344
-3.14261e-15
-1.51844e-13
-3.66078e-12
-5.54545e-11
-5.97794e-10
-5.03407e-09
-4.53789e-08
-4.2906e-07
-2.67966e-06
-7.04496e-06
-2.11811e-06
-4.26768e-07
-5.1717e-07
-7.75926e-07
-5.23643e-06
-2.54751e-05
-6.2575e-05
-0.000257381
-0.000606517
-0.000517922
-1.71446e-05
-0.00406602
-0.00840489
-1.00696e-15
-4.69436e-14
-1.10068e-12
-1.63703e-11
-1.87729e-10
-1.98581e-09
-2.37334e-08
-2.70036e-07
-1.30995e-06
-1.78779e-06
-7.64575e-07
-3.03151e-07
-2.53089e-07
-5.8104e-07
-2.36151e-06
-1.92488e-05
-4.0191e-05
-3.17326e-05
-0.000145127
-0.000170698
-0.000173531
-0.0055234
-0.0260715
-2.59132e-16
-1.17711e-14
-2.74116e-13
-4.00017e-12
-4.61349e-11
-5.23104e-10
-6.64751e-09
-7.54088e-08
-3.09916e-07
-4.32399e-07
-3.21969e-07
-2.51906e-07
-2.53017e-07
-5.2293e-07
-1.21751e-06
-4.63077e-06
-8.91796e-06
-6.58338e-06
-2.91574e-06
-6.32632e-07
-0.000155388
-0.00176062
-0.018417
-6.09889e-17
-2.67586e-15
-6.16578e-14
-8.80933e-13
-9.91362e-12
-1.11962e-10
-1.43349e-09
-1.62832e-08
-6.39707e-08
-9.8186e-08
-1.02716e-07
-1.14988e-07
-1.63628e-07
-3.37692e-07
-6.31543e-07
-1.15279e-06
-1.92634e-06
-2.60387e-06
-1.49005e-06
-6.74086e-07
-1.15127e-05
-0.000742619
-0.00299587
-1.21191e-17
-5.14812e-16
-1.18752e-14
-1.68109e-13
-1.84409e-12
-2.01477e-11
-2.54486e-10
-2.89289e-09
-1.14789e-08
-2.0399e-08
-2.68907e-08
-3.30522e-08
-5.07278e-08
-1.06054e-07
-2.33632e-07
-4.11058e-07
-6.67771e-07
-1.03525e-06
-1.0929e-06
-7.2384e-07
-3.14268e-07
-0.000115964
-0.000748328
-2.12669e-18
-8.76845e-17
-2.03117e-15
-2.87814e-14
-3.12877e-13
-3.34351e-12
-4.19049e-11
-4.48357e-10
-1.79315e-09
-3.7227e-09
-5.80206e-09
-7.76566e-09
-1.21008e-08
-2.48188e-08
-6.21361e-08
-1.26087e-07
-2.25809e-07
-3.78836e-07
-5.24034e-07
-6.11977e-07
-3.3247e-07
-8.0764e-06
-1.44404e-05
-3.1824e-19
-1.27476e-17
-2.981e-16
-4.26144e-15
-4.63636e-14
-4.85839e-13
-6.25212e-12
-6.0071e-11
-2.40966e-10
-5.71889e-10
-1.00783e-09
-1.46242e-09
-2.3418e-09
-4.74351e-09
-1.26332e-08
-2.98201e-08
-6.15453e-08
-1.17055e-07
-1.93262e-07
-3.10436e-07
-3.122e-07
-1.0108e-06
-6.78083e-07
-4.13656e-20
-1.61995e-18
-3.8362e-17
-5.57147e-16
-6.13694e-15
-6.35242e-14
-8.54652e-13
-7.13596e-12
-2.80397e-11
-7.33515e-11
-1.40638e-10
-2.21038e-10
-3.69756e-10
-7.58342e-10
-2.07796e-09
-5.52121e-09
-1.30927e-08
-2.84197e-08
-5.49692e-08
-9.41072e-08
-1.52382e-07
-3.01941e-07
-2.6246e-07
-4.60643e-21
-1.77197e-19
-4.26564e-18
-6.32273e-17
-7.08165e-16
-7.17415e-15
-1.0082e-13
-7.48765e-13
-2.82764e-12
-7.84469e-12
-1.58446e-11
-2.68712e-11
-4.74003e-11
-1.01057e-10
-2.82392e-10
-8.14819e-10
-2.17159e-09
-5.28837e-09
-1.17009e-08
-2.2123e-08
-3.79848e-08
-7.01921e-08
-8.21233e-08
-4.4463e-22
-1.69579e-20
-4.15936e-19
-6.31309e-18
-7.21273e-17
-7.1862e-16
-1.01887e-14
-6.94901e-14
-2.49016e-13
-7.07973e-13
-1.4648e-12
-2.66141e-12
-4.96072e-12
-1.12104e-11
-3.20511e-11
-9.7529e-11
-2.83667e-10
-7.54826e-10
-1.86343e-09
-3.87793e-09
-7.13584e-09
-1.25821e-08
-1.83863e-08
-3.72744e-23
-1.42291e-21
-3.55941e-20
-5.53685e-19
-6.44412e-18
-6.34263e-17
-8.72405e-16
-5.62857e-15
-1.9072e-14
-5.42253e-14
-1.12242e-13
-2.16236e-13
-4.23655e-13
-1.02427e-12
-3.00338e-12
-9.44409e-12
-2.90827e-11
-8.22078e-11
-2.20741e-10
-4.97712e-10
-9.90531e-10
-1.76766e-09
-2.89625e-09
-2.73785e-24
-1.05635e-22
-2.69257e-21
-4.28828e-20
-5.06449e-19
-4.95382e-18
-6.37109e-17
-3.94458e-16
-1.26402e-15
-3.5399e-15
-7.1918e-15
-1.45102e-14
-2.9563e-14
-7.64622e-14
-2.28461e-13
-7.31303e-13
-2.31496e-12
-6.75248e-12
-1.92094e-11
-4.59214e-11
-9.87215e-11
-1.83238e-10
-3.29998e-10
-1.7927e-25
-7.0617e-24
-1.82803e-22
-2.97043e-21
-3.53633e-20
-3.44275e-19
-4.02445e-18
-2.39216e-17
-7.24152e-17
-1.97682e-16
-3.87401e-16
-8.06437e-16
-1.67733e-15
-4.58132e-15
-1.3657e-14
-4.37363e-14
-1.37505e-13
-4.00695e-13
-1.17002e-12
-2.88154e-12
-6.61832e-12
-1.28333e-11
-2.5508e-11
-1.06085e-26
-4.2924e-25
-1.12328e-23
-1.85208e-22
-2.20457e-21
-2.1229e-20
-2.22495e-19
-1.26086e-18
-3.59184e-18
-9.45015e-18
-1.75331e-17
-3.69452e-17
-7.64212e-17
-2.14926e-16
-6.15828e-16
-1.91941e-15
-5.70464e-15
-1.58578e-14
-4.51891e-14
-1.08032e-13
-2.58185e-13
-5.12757e-13
-1.14534e-12
-5.79381e-28
-2.41796e-26
-6.36559e-25
-1.05784e-23
-1.24837e-22
-1.17818e-21
-1.09852e-20
-5.858e-20
-1.55982e-19
-3.9022e-19
-6.73369e-19
-1.4001e-18
-2.76579e-18
-7.66027e-18
-1.97567e-17
-5.63507e-17
-1.41549e-16
-3.93392e-16
-6.68043e-15
-9.7991e-14
-4.80929e-13
-1.7194e-12
-2.43019e-12
-2.97404e-29
-1.28092e-27
-3.37664e-26
-5.61184e-25
-6.5088e-24
-5.94691e-23
-4.92492e-22
-2.43939e-21
-6.01157e-21
-1.40538e-20
-2.20902e-20
-4.37195e-20
-7.79049e-20
-1.94607e-19
-4.13299e-19
-2.51735e-18
-1.80455e-15
-1.20734e-13
-2.34934e-12
-1.32206e-11
-4.20745e-11
-1.02382e-10
-1.48796e-10
-1.45933e-30
-6.47473e-29
-1.70209e-27
-2.80757e-26
-3.17571e-25
-2.77724e-24
-2.04438e-23
-9.29636e-23
-2.1009e-22
-4.37983e-22
-6.24635e-22
-1.52916e-21
-2.43391e-20
-1.45212e-18
-1.08635e-16
-8.39095e-15
-6.09702e-13
-1.36407e-11
-1.29769e-10
-4.50557e-10
-1.09055e-09
-2.07899e-09
-3.19852e-09
-6.96649e-32
-3.17324e-30
-8.28402e-29
-1.34599e-27
-1.47186e-26
-1.20631e-25
-7.78359e-25
-3.42466e-24
-1.79412e-23
-5.60261e-22
-2.45054e-20
-1.0813e-18
-4.62671e-17
-1.8827e-15
-7.02239e-14
-2.27525e-12
-5.12278e-11
-5.81777e-10
-3.24038e-09
-7.39115e-09
-1.40479e-08
-2.24947e-08
-4.28901e-08
-3.14533e-33
-1.49391e-31
-3.80583e-30
-6.52615e-29
-1.1782e-27
-4.87761e-26
-2.84978e-24
-1.56646e-22
-7.46024e-21
-3.07398e-19
-1.12297e-17
-3.71186e-16
-1.12565e-14
-3.08741e-13
-7.40767e-12
-1.49963e-10
-1.97386e-09
-1.41708e-08
-4.52801e-08
-7.40015e-08
-1.2718e-07
-2.25183e-07
-5.41186e-06
-5.97442e-34
-7.46153e-32
-1.34495e-29
-1.74772e-27
-1.68741e-25
-1.25484e-23
-7.44933e-22
-3.6235e-20
-1.47568e-18
-5.12132e-17
-1.54285e-15
-4.08683e-14
-9.59764e-13
-1.97151e-11
-3.42865e-10
-4.84652e-09
-4.50337e-08
-2.3168e-07
-8.35619e-07
-9.12502e-06
-3.50685e-05
-7.73652e-05
-0.00146544
-4.4288e-32
-1.70573e-29
-3.17585e-27
-3.78768e-25
-3.24535e-23
-2.12137e-21
-1.09804e-19
-4.61226e-18
-1.60174e-16
-4.66362e-15
-1.15378e-13
-2.44725e-12
-4.48043e-11
-7.02916e-10
-9.27176e-09
-1.0122e-07
-8.64311e-07
-9.63451e-06
-0.000149981
-0.00191539
-0.006638
-0.00746263
-0.00672163
-6.10334e-30
-2.12413e-27
-3.55397e-25
-3.79415e-23
-2.89764e-21
-1.68113e-19
-7.68699e-18
-2.83734e-16
-8.59943e-15
-2.16566e-13
-4.57737e-12
-8.1671e-11
-1.23439e-09
-1.57101e-08
-1.67368e-07
-1.68425e-06
-2.64196e-05
-0.000466937
-0.00606567
-0.0139879
-0.0139885
-0.0128446
-0.00238561
-4.98061e-28
-1.58968e-25
-2.43354e-23
-2.36999e-21
-1.64395e-19
-8.61531e-18
-3.53272e-16
-1.1582e-14
-3.07897e-13
-6.68989e-12
-1.19369e-10
-1.74706e-09
-2.08862e-08
-2.03067e-07
-1.89951e-06
-3.4026e-05
-0.000723126
-0.00972481
-0.016013
-0.0160134
-0.00692679
-5.83753e-08
-5.83732e-08
-2.13742e-26
-6.2774e-24
-8.76623e-22
-7.70926e-20
-4.77004e-18
-2.19842e-16
-7.80316e-15
-2.17546e-13
-4.8198e-12
-8.5176e-11
-1.19836e-09
-1.32758e-08
-1.13531e-07
-7.89611e-07
-2.03677e-05
-0.000950672
-0.0115378
-0.01601
-0.0136292
-0.00114321
-2.32377e-07
-5.11327e-07
-2.60858e-06
-2.90491e-25
-7.53988e-23
-9.27494e-21
-7.15848e-19
-3.87217e-17
-1.55364e-15
-4.77779e-14
-1.14662e-12
-2.16793e-11
-3.23628e-10
-3.74028e-09
-3.25343e-08
-2.15122e-07
-3.51041e-06
-0.000416703
-0.0101855
-0.0164526
-0.0134118
-1.88309e-07
-1.88306e-07
-7.24064e-07
-1.96201e-06
-3.51154e-06
-1.59687e-24
-3.85866e-22
-4.37793e-20
-3.07929e-18
-1.49482e-16
-5.28117e-15
-1.39784e-13
-2.81125e-12
-4.31238e-11
-5.01008e-10
-4.39827e-09
-2.98487e-08
-1.93868e-07
-2.92716e-05
-0.0046567
-0.0164201
-0.0157179
-0.000407103
-1.9336e-07
-3.83463e-07
-1.14664e-06
-1.38336e-06
-1.13485e-06
-6.64752e-24
-1.44565e-21
-1.47025e-19
-9.22501e-18
-3.97723e-16
-1.24297e-14
-2.8976e-13
-5.10337e-12
-6.80863e-11
-6.83974e-10
-5.14116e-09
-2.90376e-08
-1.29292e-07
-1.31901e-05
-0.00727979
-0.0168337
-0.00338632
-6.81042e-08
-2.04903e-07
-4.26093e-07
-4.18346e-07
-3.21657e-07
-2.45555e-07
-1.40376e-23
-3.13522e-21
-3.28266e-19
-2.12465e-17
-9.4605e-16
-3.06234e-14
-7.4459e-13
-1.38562e-11
-1.99191e-10
-2.21692e-09
-1.92867e-08
-1.41358e-07
-7.03786e-06
-0.00120605
-0.00636739
-0.00313508
-2.10778e-08
-6.9839e-08
-1.31625e-07
-1.2427e-07
-9.34837e-08
-6.6156e-08
-5.27391e-08
-7.63641e-23
-1.68166e-20
-1.75647e-18
-1.16031e-16
-5.3064e-15
-1.74677e-13
-4.24871e-12
-7.74543e-11
-1.06507e-09
-1.09585e-08
-8.20853e-08
-5.9853e-07
-6.21072e-05
-0.00169366
-0.00232126
-2.86462e-06
-2.16012e-08
-4.29731e-08
-3.8276e-08
-2.34863e-08
-1.58982e-08
-1.07981e-08
-9.54902e-09
-9.44863e-23
-2.53807e-20
-3.20257e-18
-2.46008e-16
-1.28056e-14
-4.74661e-13
-1.28052e-11
-2.53726e-10
-3.72364e-09
-4.09935e-08
-3.50652e-07
-5.34862e-06
-0.000264382
-0.00121269
-0.000299003
-1.71753e-08
-3.20711e-08
-4.29398e-08
-9.63219e-09
-3.34185e-09
-1.91788e-09
-1.33891e-09
-1.59789e-09
-2.66464e-22
-7.44927e-20
-9.58374e-18
-7.43538e-16
-3.82896e-14
-1.36103e-12
-3.43709e-11
-6.50522e-10
-9.34124e-09
-9.80334e-08
-8.01399e-07
-1.59828e-05
-0.000341106
-0.00052464
-2.49735e-05
-1.75816e-08
-8.76309e-08
-3.8837e-08
-2.37012e-09
-3.20998e-10
-1.57371e-10
-1.19142e-10
-2.42683e-10
-1.49149e-22
-4.63803e-20
-6.6824e-18
-5.91294e-16
-3.57902e-14
-1.5717e-12
-5.0695e-11
-1.14538e-09
-1.82927e-08
-2.19134e-07
-2.51012e-06
-4.65419e-05
-0.00021945
-0.00011771
-4.32969e-08
-4.32818e-08
-2.65649e-07
-1.53351e-08
-2.43185e-10
-1.49844e-11
-7.17215e-12
-7.26336e-12
-2.40557e-11
-3.42291e-23
-1.37475e-20
-2.67344e-18
-3.18413e-16
-2.52214e-14
-1.36969e-12
-5.18351e-11
-1.39424e-09
-2.63452e-08
-3.50481e-07
-3.73506e-06
-3.15237e-05
-5.27843e-05
-2.27907e-05
-9.52135e-06
-3.11816e-06
-1.935e-07
3.75383e-34
-1.34764e-14
-1.59072e-14
-1.45345e-15
-1.01905e-16
7.96348e-28
-533.463
-524.088
-322.627
-189.739
-658.66
-652.679
-431.043
-143.581
-783.856
-783.563
-762.229
-585.088
-909.051
-909.051
-909.051
-909.051
-459.703
-545.676
-703.005
-764.832
-74.713
-92.6088
-154.675
-230.789
-167.773
-80.7456
-62.4397
-62.4332
-407.395
-405.799
-388.913
-119.42
-9.71481
-272.2
-536.907
-705.91
-0.00364656
-0.00364687
-22.1076
-342.33
-0.0177978
-0.00392154
-0.00388627
-0.00388711
-0.0344988
-0.0171117
-0.00420122
-0.00415932
-0.0105234
-0.033632
-0.0488132
-0.0311522
-0.000837275
-0.00371036
-0.00874579
-0.0267732
-1.57416e-05
-4.00235e-05
-0.000266317
-0.00130369
-2.59397e-07
-4.18994e-06
-5.49816e-06
-1.42476e-07
-2.13345e-07
-7.3703e-07
-5.74286e-07
-1.49865e-07
-9.03554e-08
-1.29036e-07
-9.38157e-08
-1.7059e-07
-2.1057e-08
-2.45454e-08
-1.8341e-08
-1.08252e-07
-3.68102e-09
-4.23859e-09
-4.09937e-09
-2.12932e-08
-4.50733e-10
-5.35633e-10
-6.25765e-10
-2.24307e-09
-3.70146e-11
-4.64824e-11
-6.01393e-11
-1.61785e-10
-1.76712e-12
-2.36457e-12
-3.29867e-12
-7.29545e-12
-3.23013e-12
-4.1741e-12
-7.12181e-12
-1.22792e-11
-2.17658e-10
-3.21824e-10
-7.16639e-10
-1.4255e-09
-5.40754e-09
-9.17433e-09
-2.66537e-08
-5.18478e-08
-7.67233e-08
-2.50651e-07
-1.23966e-06
-2.66163e-06
-7.58833e-06
-7.39835e-05
-0.000194196
-0.000312747
-0.00182099
-0.00202488
-0.0017584
-0.00103837
-0.005167
-0.00244502
-0.000632803
-0.00014454
-0.000296199
-1.54011e-07
-1.52173e-07
-1.54011e-07
-5.83753e-08
-5.14838e-07
-3.57256e-06
-4.82698e-06
-4.24071e-06
-5.74478e-06
-7.24573e-06
-7.92433e-06
-4.22645e-06
-4.32621e-06
-4.44333e-06
-5.56694e-06
-9.93424e-07
-1.01007e-06
-1.21965e-06
-1.72107e-06
-2.31687e-07
-2.87004e-07
-4.0064e-07
-6.0015e-07
-6.09321e-08
-1.00429e-07
-1.72606e-07
-3.12729e-07
-1.72372e-08
-3.73911e-08
-7.83349e-08
-1.66353e-07
-4.62869e-09
-1.13213e-08
-2.5503e-08
-5.57695e-08
-8.23229e-10
-1.90879e-09
-4.33587e-09
-7.89441e-09
-6.51507e-11
-7.6668e-11
-6.96843e-11
-3.8026e-11
3.04222e-27
3.55273e-27
4.01378e-27
4.38142e-27
-210.568
-3.18145
-3.17867
-162.088
-429.012
-532.958
-523.267
-318.687
-117.494
-24.7423
-14.8666
-15.1408
-17.8742
-20.4488
-38.6815
-106.448
-197.068
-74.3003
-348.111
-46.9876
-23.783
-264.122
-649.062
-658.662
-658.662
-323.415
-3.7786
-4.67419e-06
-4.67419e-06
-0.000251933
-0.00397901
-0.0124923
-0.0271693
-0.129504
-1.17205
-9.96581
-46.3924
-503.757
-367.188
-567.096
-779.099
-783.824
-783.856
-496.267
-41.1296
-0.0209509
-0.00367474
-0.00130738
-0.0106998
-0.0335252
-0.00303864
-0.000467205
-0.00276358
-0.0298907
-0.10251
-9.99306
-599.694
-904.483
-908.212
-908.212
-873.741
-835.742
-57.451
-0.00396552
-0.0282822
-0.00946006
-0.000395313
-0.00100157
-0.000179808
-2.77054e-08
-8.12782e-06
-6.15719e-05
-0.000448845
-0.00196295
-0.00196196
-693.611
-913.794
-871.089
-832.875
-702.946
-267.545
-0.00261121
-0.00451253
-0.00640586
-0.000176017
-3.1591e-08
-3.15067e-08
-3.1521e-08
-3.1522e-08
-2.723e-08
-4.81875e-08
-2.8738e-05
-0.234896
-45.3213
-824.542
-328.281
-437.207
-703.652
-337.182
-3.11032e-13
-0.00292871
-0.0112401
-2.78804e-05
-7.3969e-08
-1.47297e-07
-2.44374e-07
-2.0226e-07
-7.31109e-08
-1.37045e-08
-1.37524e-08
-7.54485e-07
-2.9009e-13
-92.66
-936.297
-144.505
-623.862
-623.833
-26.116
-3.44471e-13
-0.00727171
-0.0124593
-0.00166853
-8.19561e-08
-5.58639e-07
-8.0571e-07
-3.62962e-06
-9.14352e-06
-1.21593e-05
-1.28342e-05
-1.49671e-05
-3.21238e-13
-117.688
-1037.4
-140.766
-363.566
-350.718
-0.00940288
-0.00938393
-0.00522151
-0.0114125
-0.00183303
-0.0447376
-0.284329
-0.0208891
-0.00095765
-0.00905504
-0.017498
-0.0488976
-0.0153398
-3.52737e-13
-134.88
-1137.04
-705.905
-512.298
-364.368
-248.292
-33.2438
-0.00568505
-0.0631812
-1.3977
-29.9716
-128.739
-27.8837
-4.81752
-15.3104
-23.7385
-42.0376
-24.1931
-3.8395e-13
-175.881
-1229.5
-763.642
-1064.32
-1064.31
-906.62
-546.492
-51.0183
-0.0683371
-110.5
-650.658
-968.391
-659.373
-276.917
-396.723
-605.339
-814.194
-692.551
-167.687
-292.388
-1244.76
-117.386
-907.132
-1263.44
-1263.44
-1263.44
-1134.6
-980.667
-1086.58
-1245.02
-1245
-1244.72
-643.629
-1122.2
-1453.33
-1632.54
-1658.34
-1325.81
-816.091
-1219.67
-0.00223877
-4.35986
-597.037
-1185.83
-1352.04
-1352.04
-1352.04
-1350.2
-1226.88
-1039.1
-785.274
-1124.83
-1576.01
-1669.19
-1865.07
-1891.68
-1891.68
-1662.27
-1657.03
-0.00238523
-0.00234494
-0.00234536
-22.6371
-398.762
-622.418
-617.933
-337.678
-143.184
-93.889
-251.274
-559.274
-437.184
-393.71
-952.919
-1976.42
-2015.64
-2015.64
-2015.64
-0.0267944
-0.0236979
-0.00248955
-8.29993e-07
-8.29993e-07
-8.29993e-07
-8.29993e-07
-8.29993e-07
-8.29993e-07
-8.29993e-07
-8.29993e-07
-8.29993e-07
-8.29993e-07
-8.29993e-07
-84.7615
-1342.06
-2139.59
-2139.59
-2139.59
-0.00363298
-0.012878
-0.0116688
-0.00720866
-8.78078e-07
-8.78078e-07
-8.78078e-07
-2.58574e-05
-3.34969e-05
-8.78179e-07
-2.93514e-06
-5.84745e-05
-0.00266415
-0.0937878
-6.98144
-543.379
-2071
-2261.71
-2263.54
-0.000221901
-0.000341212
-2.65787e-05
-0.00895803
-0.00365711
-0.00398634
-0.0215801
-0.0290625
-0.00456029
-9.26162e-07
-1.59255e-05
-0.000170586
-0.00687236
-0.8109
-17.1428
-88.5782
-825.983
-1787.65
-2030.38
-1.00245e-05
-1.20119e-05
-1.37516e-06
-0.00259405
-0.0189417
-0.0189416
-0.075615
-0.10683
-0.0674508
-9.74247e-07
-2.26704e-05
-0.000113388
-0.0105671
-1.72671
-37.6898
-109.974
-214.053
-295
-423.211
-2.48232e-06
-3.03382e-06
-1.44307e-06
-1.45688e-07
-0.0110673
-0.00249504
-0.102255
-0.112103
-0.112103
-0.0166574
-2.37901e-05
-7.16666e-05
-0.0160106
-0.310732
-63.3967
-350.634
-270.544
-59.7503
-33.6415
-8.71696e-07
-1.04472e-06
-7.8104e-07
-1.52549e-07
-0.000112321
-6.60368e-05
-0.0111932
-0.0406354
-0.117375
-0.0497945
-0.000136755
-0.000177604
-0.0221083
-0.0992086
-18.1022
-335.207
-466.47
-424.343
-35.2238
-1.64243e-07
-2.1269e-07
-1.81202e-07
-9.4209e-08
-1.33087e-08
-5.48791e-05
-6.89305e-05
-0.00416122
-0.00671006
-0.00372361
-5.2481e-05
-0.00228195
-0.0222275
-0.00509242
-3.21081
-0.0109766
-276.457
-348.635
-357.706
-1.87151e-08
-2.84459e-08
-2.82404e-08
-2.54532e-08
-1.38742e-08
-2.01121e-06
-4.00729e-06
-1.08163e-05
-1.16992e-05
-1.0514e-05
-1.80056e-06
-1.80052e-06
-0.00681125
-6.74875e-08
-1.66984
-0.0114194
-0.0114485
-73.8209
-1216.64
-1.3005e-09
-2.41707e-09
-3.34326e-09
-5.84727e-09
-1.2189e-08
-9.49002e-08
-3.55159e-07
-2.7942e-07
-2.19136e-07
-1.93544e-07
-1.505e-07
-6.18945e-06
-1.34573e-05
-6.98151e-08
-0.93307
-0.0702002
-0.0276647
-71.9923
-1266.79
-5.06549e-11
-1.32668e-10
-2.97597e-10
-1.02266e-09
-4.14255e-09
-1.43211e-08
-4.86775e-08
-8.59141e-08
-1.32987e-07
-1.53352e-07
-1.56458e-07
-9.05416e-07
-4.49296e-07
-7.3051e-08
-0.842963
-0.322728
-0.0301925
-39.583
-1316.94
-3.11133e-11
-1.89008e-11
-2.39938e-11
-1.25193e-10
-7.11586e-10
-2.87779e-09
-1.01646e-08
-2.69691e-08
-5.88057e-08
-1.01223e-07
-1.37282e-07
-2.11122e-07
-2.2384e-07
-8.63784e-08
-1.13609
-0.835065
-0.0425235
-3.01716
-1367.09
-4.42848e-09
-3.74131e-09
-1.32876e-09
-2.22214e-10
-1.66795e-10
-5.10586e-10
-2.35942e-09
-8.40737e-09
-2.34696e-08
-5.24016e-08
-9.89022e-08
-1.97521e-07
-1.91164e-07
-7.76057e-08
-1.17175
-1.2616
-0.0627307
-8.74672e-21
-1327.65
-1.64301e-07
-1.63731e-07
-8.58581e-08
-2.02647e-08
-3.08772e-09
-7.22042e-10
-7.13835e-10
-2.29468e-09
-8.52356e-09
-2.44065e-08
-7.17416e-08
-1.99065e-07
-1.89905e-07
-8.03489e-08
-1.23194
-1.31863
-0.147163
-1.69384e-20
-976.949
-7.32241e-06
-3.827e-06
-1.36748e-06
-4.50087e-07
-1.14255e-07
-2.29101e-08
-4.0335e-09
-2.00979e-09
-3.14524e-09
-1.08107e-08
-4.4415e-08
-1.91184e-07
-1.88717e-07
-8.2566e-08
-1.03128
-1.28936
-0.185351
1.97737e-17
-1004.71
-0.000203682
-3.7443e-05
-7.81884e-06
-3.2953e-06
-1.29083e-06
-3.72129e-07
-9.20047e-08
-1.95591e-08
-5.72583e-09
-6.69745e-09
-2.65547e-08
-1.71813e-07
-1.79353e-07
-8.52989e-08
-0.388163
-0.891587
-0.204006
-7.58664
-1037.93
-0.000327213
-0.000106776
-2.68119e-05
-1.68378e-05
-8.27168e-06
-3.04528e-06
-8.71092e-07
-2.35452e-07
-5.58207e-08
-1.56637e-08
-2.06792e-08
-1.41719e-07
-1.59785e-07
-8.80229e-08
-0.0915754
-0.612712
-0.146572
-21.58
-665.061
-0.000144561
-0.000188331
-0.000149589
-7.25351e-05
-4.85265e-05
-2.18348e-05
-6.25734e-06
-1.95588e-06
-6.7283e-07
-1.88324e-07
-6.20991e-08
-1.31707e-07
-1.35388e-07
-9.01815e-08
-0.0310086
-0.460963
-0.15239
-15.8608
-2.76543
-1.52173e-07
-8.61574e-05
-0.000279789
-0.000108967
-9.04407e-05
-0.000113483
-7.6945e-05
-7.20427e-06
-5.08621e-09
-5.08482e-09
-1.02324e-08
-9.16266e-08
-9.29055e-08
-9.28997e-08
-0.00339424
-0.289827
-0.180488
-0.636799
-2.98
-4.47395e-06
-1.32189e-05
-0.000306389
-0.000118718
-9.30826e-05
-0.000834523
-0.000840652
-0.000278969
-4.80048e-05
-2.54664e-05
-4.58813e-06
-8.34932e-07
-2.25124e-07
-1.02299e-07
-1.02308e-07
-0.194607
-0.153619
7.87042e-20
-252.29
-8.08391e-06
-8.08455e-06
-0.000212097
-0.00173017
-0.000158632
-0.00101976
-0.00701456
-0.00535891
-0.00224007
-2.30793e-05
-1.7899e-06
-7.8422e-07
-3.55401e-07
-1.25412e-07
-1.05189e-07
-0.200292
-0.202508
1.01219e-20
-496.562
-7.8909e-06
-9.19966e-06
-5.87893e-06
-0.005288
-0.00655875
-0.000998743
-0.0302666
-0.0322144
-4.02644e-07
-4.02642e-07
-4.02644e-07
-5.07014e-07
-4.0482e-07
-1.92964e-07
-1.08528e-07
-0.213124
-0.213787
5.17536e-21
-510.259
-4.36752e-06
-1.07151e-05
-6.02375e-06
-0.0034565
-0.0154867
-0.00102508
-0.0297031
-0.288297
-0.267536
-0.0584587
-0.00305196
-7.00609e-06
-5.14219e-07
-3.05157e-07
-1.11462e-07
-0.134807
-0.112898
-1.4723e-20
-523.807
-1.35611e-06
-5.28389e-06
-7.8361e-06
-7.17306e-06
-0.015861
-0.00967744
-1.10345e-07
-0.058488
-0.924398
-0.375098
-0.0100615
-2.56322e-05
-4.65861e-07
-3.13117e-07
-3.5935e-06
-0.00450949
-0.00181245
-1.94378e-22
-197.835
-7.26855e-07
-2.69518e-06
-1.32261e-05
-7.35729e-06
-0.00219008
-0.00766279
-1.13126e-07
-0.150369
-0.959744
-0.735109
-0.0789121
-9.26844e-05
-3.29092e-07
-3.21111e-07
-0.00010026
-0.000178754
-5.9814e-05
-8.77517e-22
-8.87883e-22
-4.24033e-07
-9.61705e-07
-3.83861e-06
-7.53846e-06
-1.54745e-07
-0.000119945
-1.15966e-07
-0.211781
-0.983557
-0.945605
-0.135167
-0.000108429
-3.30391e-07
-3.3041e-07
-0.000193327
-0.000104459
-1.47917e-05
-0.110408
-0.0310423
-1.1309e-07
-1.61604e-07
-2.9316e-08
-4.18924e-08
-1.5848e-07
-1.18777e-07
-1.18745e-07
-0.0315515
-0.977784
-1.00584
-0.221702
-0.00030139
-4.07541e-07
-3.38398e-07
-0.000198122
-7.81573e-05
-1.5158e-05
-0.140524
-0.0431806
-1.00884e-08
-8.9318e-09
-1.09934e-09
-1.46886e-08
-3.3474e-07
-1.53758e-05
-0.000379981
-0.000380099
-0.930348
-1.02977
-0.341281
-0.000241069
-6.95674e-07
-3.46431e-07
-8.58856e-05
-2.50259e-05
-1.78159e-06
-0.0890723
-0.00785311
-1.2796e-11
-4.16399e-11
-1.04099e-09
-1.18686e-08
-6.48042e-08
-5.82682e-08
-1.2976e-07
-0.00179693
-0.324206
-1.05344
-0.331808
-0.000274924
-1.15101e-06
-2.14419e-06
-1.01192e-05
-3.18794e-06
-1.82278e-06
-0.00177891
-0.000912065
4.59945e-27
5.16455e-27
4.76244e-27
2.90583e-27
1.36643e-28
-5.57358e-10
-5.21432e-08
1.60596e-105
1.17839e-103
-0.229443
-0.13778
-0.005957
-4.51351e-06
-3.1533e-06
-1.86396e-06
-4.01536e-05
-0.000397916
-0.000490362
-0.0771753
)
;

boundaryField
{
    leftWall
    {
        type            calculated;
        value           nonuniform List<scalar> 
50
(
-29.4294
-88.2881
-147.147
-206.006
-264.864
-323.723
-382.567
-421.26
-215.992
3.60459e-36
-1.31775e-15
-4.0522e-15
-1.30073e-13
-4.90237e-14
-6.07415e-14
-2.48844e-14
-1.04625e-14
-3.14261e-15
-1.00696e-15
-2.59132e-16
-6.09889e-17
-1.21191e-17
-2.12669e-18
-3.1824e-19
-4.13656e-20
-4.60643e-21
-4.4463e-22
-3.72744e-23
-2.73785e-24
-1.7927e-25
-1.06085e-26
-5.79381e-28
-2.97404e-29
-1.45933e-30
-6.96649e-32
-3.14533e-33
-5.97442e-34
-4.4288e-32
-6.10334e-30
-4.98061e-28
-2.13742e-26
-2.90491e-25
-1.59687e-24
-6.64752e-24
-1.40376e-23
-7.63641e-23
-9.44863e-23
-2.66464e-22
-1.49149e-22
-3.42291e-23
)
;
    }
    rightWall
    {
        type            calculated;
        value           nonuniform List<scalar> 
50
(
-24.4863
-73.462
-120.936
-121.538
-152.579
-212.582
-245.324
-233.629
-348.111
-503.757
-599.694
-693.611
-824.542
-936.297
-1037.4
-1137.04
-1229.5
-1244.76
-1219.67
-1657.03
-2015.64
-2139.59
-2263.54
-2030.38
-423.211
-33.6415
-35.2238
-357.706
-1216.64
-1266.79
-1316.94
-1367.09
-1327.65
-976.949
-1004.71
-1037.93
-665.061
-2.76543
-2.98
-252.29
-496.562
-510.259
-523.807
-197.835
-8.87883e-22
-0.0310423
-0.0431806
-0.00785311
-0.000912065
-0.0771753
)
;
    }
    lowerWall
    {
        type            calculated;
        value           nonuniform List<scalar> 
62
(
0
0
0
0
0
0
0
0
0
0
0
0
0
0
0
0
0
0
0
0
0
0
0
-29.4231
-88.2626
-147.104
-205.946
-264.842
-323.723
-382.582
-441.44
-470.866
-462.591
-284.77
-167.475
-23.8748
-71.6245
-112.216
-158.541
-203.839
-121.094
-125.435
-201.652
0
0
0
0
0
0
0
0
0
0
0
0
0
0
0
0
0
0
0
)
;
    }
    atmosphere
    {
        type            calculated;
        value           nonuniform List<scalar> 
46
(
-3.46073e-23
-1.38994e-20
-2.70297e-18
-3.2193e-16
-2.55e-14
-1.38483e-12
-5.24077e-11
-1.40965e-09
-2.66362e-08
-3.54352e-07
-3.77632e-06
-3.18719e-05
-5.33674e-05
-2.30425e-05
-9.62654e-06
-3.15261e-06
-0
-0
-0
-0
-0
-0
-0
-0
-0
-0
-0
-0
-0
-0
-0
-0
-0
-0
-0
-0
-0.231978
-0.139302
-0.00602281
-4.56337e-06
-3.18814e-06
-1.88455e-06
-4.05972e-05
-0.000402311
-0.000495779
-0.0780279
)
;
    }
    defaultFaces
    {
        type            empty;
    }
}


// ************************************************************************* //
