/*--------------------------------*- C++ -*----------------------------------*\
| =========                 |                                                 |
| \\      /  F ield         | OpenFOAM: The Open Source CFD Toolbox           |
|  \\    /   O peration     | Version:  2012                                  |
|   \\  /    A nd           | Website:  www.openfoam.com                      |
|    \\/     M anipulation  |                                                 |
\*---------------------------------------------------------------------------*/
FoamFile
{
    version     2.0;
    format      ascii;
    class       volVectorField;
    location    "0.67";
    object      U;
}
// * * * * * * * * * * * * * * * * * * * * * * * * * * * * * * * * * * * * * //

dimensions      [0 1 -1 0 0 0 0];


internalField   nonuniform List<vector> 
2268
(
(-0.000829552 -0.000805566 0)
(0.0018502 -0.00115522 0)
(0.00316748 -0.000825534 0)
(0.00208548 -0.000300707 0)
(-0.00262148 -5.37383e-05 0)
(-0.00758589 -0.000521469 0)
(-0.00979565 -0.000343734 0)
(-0.0167409 0.000615109 0)
(-0.0266942 0.00118818 0)
(-0.0340986 0.00173309 0)
(-0.0449742 0.00237892 0)
(-0.0535578 0.00290485 0)
(-0.063853 0.00232989 0)
(-0.0674875 0.00146725 0)
(-0.0722009 0.000632766 0)
(-0.0719102 -0.000137541 0)
(-0.0742822 -0.000764818 0)
(-0.0703776 -0.00187566 0)
(-0.0664227 -0.00275084 0)
(-0.0567191 -0.00384625 0)
(-0.0422803 -0.00497982 0)
(-0.0280639 -0.00736027 0)
(0.00553601 0.00417818 0)
(-0.0010282 0.000324155 0)
(0.00168674 -0.00073164 0)
(0.00294045 0.000716576 0)
(0.0023211 0.00304044 0)
(-0.00208029 0.00462906 0)
(-0.00688559 0.00391553 0)
(-0.00947983 0.00467843 0)
(-0.0164726 0.00736767 0)
(-0.0264944 0.00702549 0)
(-0.0330994 0.00689084 0)
(-0.0450432 0.00683826 0)
(-0.0536185 0.00598702 0)
(-0.0635738 0.00429698 0)
(-0.0678365 0.00241936 0)
(-0.0728766 0.00153135 0)
(-0.0727045 0.00102997 0)
(-0.0748134 0.000151778 0)
(-0.070622 -0.00196845 0)
(-0.0671726 -0.00355563 0)
(-0.0587121 -0.00772423 0)
(-0.0473333 -0.0084075 0)
(-0.0376281 -0.0153692 0)
(-0.0118215 -0.0147722 0)
(-0.00133761 -0.0011204 0)
(0.00201885 -0.0030351 0)
(0.00329338 -0.00113364 0)
(0.00333734 0.00206171 0)
(-0.000599194 0.00428414 0)
(-0.00528193 0.00295968 0)
(-0.00904424 0.00417707 0)
(-0.0168471 0.00864247 0)
(-0.0270761 0.00905295 0)
(-0.0344266 0.0104875 0)
(-0.0462929 0.0120957 0)
(-0.0544423 0.011632 0)
(-0.0639043 0.00908913 0)
(-0.0681112 0.00580959 0)
(-0.0736595 0.00300202 0)
(-0.0735593 0.000694946 0)
(-0.0757315 -0.00165519 0)
(-0.0706484 -0.00559025 0)
(-0.0670183 -0.00826074 0)
(-0.0576234 -0.0133407 0)
(-0.046267 -0.0148172 0)
(-0.03423 -0.0242292 0)
(-0.0073313 -0.0191616 0)
(-0.00149492 7.22162e-06 0)
(0.00244733 -0.00291139 0)
(0.00320397 0.000105905 0)
(0.00370611 0.00489923 0)
(0.000459377 0.00872592 0)
(-0.00353195 0.00793171 0)
(-0.00807375 0.0101717 0)
(-0.015837 0.015899 0)
(-0.0251772 0.0153476 0)
(-0.0331495 0.0159538 0)
(-0.0451004 0.0163182 0)
(-0.0542935 0.0142799 0)
(-0.0648117 0.0108011 0)
(-0.0704609 0.00696798 0)
(-0.0762185 0.00418533 0)
(-0.0757439 0.0019088 0)
(-0.0774408 -0.00109383 0)
(-0.0723574 -0.00624526 0)
(-0.0696987 -0.00951964 0)
(-0.0601539 -0.0177514 0)
(-0.0500003 -0.0192478 0)
(-0.035522 -0.0339758 0)
(-0.0107973 -0.034335 0)
(-0.000405978 -0.00157775 0)
(0.0032641 -0.00526616 0)
(0.0040887 -0.00174763 0)
(0.00509474 0.00333288 0)
(0.00275295 0.00766964 0)
(-0.00064939 0.00695252 0)
(-0.00710599 0.00995853 0)
(-0.0160179 0.0166957 0)
(-0.0258683 0.0172362 0)
(-0.0355408 0.0198971 0)
(-0.0473832 0.0221093 0)
(-0.0560731 0.020922 0)
(-0.066288 0.0167686 0)
(-0.07136 0.0111522 0)
(-0.0771094 0.00555804 0)
(-0.0768784 0.00120127 0)
(-0.0796931 -0.00318078 0)
(-0.0738692 -0.00933054 0)
(-0.0723388 -0.0139397 0)
(-0.0625001 -0.0227364 0)
(-0.0552313 -0.0263462 0)
(-0.0391161 -0.0428232 0)
(-0.00378369 -0.0410167 0)
(0.00174629 -0.00133648 0)
(0.00369988 -0.00502048 0)
(0.00402156 -0.000736904 0)
(0.00509716 0.00556716 0)
(0.00385246 0.0114879 0)
(0.00175608 0.0126458 0)
(-0.00544758 0.0174913 0)
(-0.0134774 0.0247986 0)
(-0.0220216 0.0245946 0)
(-0.0324074 0.0260968 0)
(-0.0456441 0.0260335 0)
(-0.0562008 0.0231799 0)
(-0.0686816 0.0180635 0)
(-0.0757706 0.0120196 0)
(-0.0809861 0.0068772 0)
(-0.0801293 0.00302013 0)
(-0.0825764 -0.00236341 0)
(-0.0768078 -0.0099132 0)
(-0.0757047 -0.0146386 0)
(-0.0652336 -0.0261453 0)
(-0.0607868 -0.0299678 0)
(-0.0400629 -0.058641 0)
(-0.00373627 -0.0544672 0)
(0.00368326 -0.00415972 0)
(0.00533546 -0.00635576 0)
(0.00584864 -0.00243721 0)
(0.00712793 0.00336972 0)
(0.00765557 0.00918422 0)
(0.00589864 0.0112742 0)
(-0.0033314 0.0170858 0)
(-0.0126141 0.0244701 0)
(-0.0234032 0.0261731 0)
(-0.0362433 0.0310653 0)
(-0.0490579 0.0333873 0)
(-0.0589198 0.0317983 0)
(-0.0705414 0.0260606 0)
(-0.0769329 0.0169242 0)
(-0.0819415 0.00766576 0)
(-0.0817079 0.00189278 0)
(-0.086521 -0.00469403 0)
(-0.080035 -0.0126419 0)
(-0.0808587 -0.0193531 0)
(-0.0697282 -0.0298421 0)
(-0.0728284 -0.0381498 0)
(-0.0493457 -0.069808 0)
(0.00326965 -0.0617317 0)
(0.00503265 -0.00559751 0)
(0.00684691 -0.0060297 0)
(0.00787968 -0.0015556 0)
(0.00887856 0.0047684 0)
(0.0108359 0.012146 0)
(0.00949508 0.017936 0)
(0.000470143 0.0263439 0)
(-0.00692944 0.034359 0)
(-0.0181978 0.0357965 0)
(-0.0319656 0.0381823 0)
(-0.0455443 0.0367373 0)
(-0.0593681 0.0332835 0)
(-0.0750281 0.0266 0)
(-0.0833803 0.0173475 0)
(-0.0865641 0.00922164 0)
(-0.0852039 0.00506455 0)
(-0.0898274 -0.00297604 0)
(-0.0837502 -0.012819 0)
(-0.0836607 -0.0191699 0)
(-0.0727716 -0.0303743 0)
(-0.0784447 -0.0390255 0)
(-0.0501094 -0.0953416 0)
(-0.0237989 -0.0757906 0)
(-0.939413 0.342313 0)
(-1.37101 0.0713814 0)
(-1.63065 0.00675129 0)
(-1.66304 -0.023776 0)
(-1.66223 -0.0350783 0)
(-1.54125 -0.0399542 0)
(-1.32963 -0.0256416 0)
(-1.18405 0.0780377 0)
(-1.24863 0.111678 0)
(-1.51365 0.0492417 0)
(-1.64972 0.00781525 0)
(-1.73524 -0.00509977 0)
(-1.77131 -0.00715294 0)
(-1.77166 -0.0149309 0)
(-1.70862 -0.0177675 0)
(-1.61689 -0.0182987 0)
(-1.54065 -0.040878 0)
(-1.26411 -0.0917369 0)
(-0.71877 -0.241221 0)
(-0.772569 0.64072 0)
(-0.995182 0.225575 0)
(-1.1801 0.114964 0)
(-1.12117 0.0376165 0)
(-1.15201 -0.0176051 0)
(-1.06544 -0.0995633 0)
(-0.901971 -0.123813 0)
(-0.834645 -0.113801 0)
(-1.06971 0.0276941 0)
(-1.27272 0.120823 0)
(-1.39023 0.0859468 0)
(-1.4579 0.0571971 0)
(-1.49245 0.0224798 0)
(-1.49534 -0.0114956 0)
(-1.42799 -0.0484605 0)
(-1.33815 -0.0542475 0)
(-1.26706 -0.108915 0)
(-0.937785 -0.257485 0)
(-0.606298 -0.607733 0)
(-0.714614 1.07608 0)
(-0.658807 0.250913 0)
(-0.89893 0.0581601 0)
(-0.808976 -0.0354953 0)
(-0.801917 -0.0595085 0)
(-0.636538 -0.144863 0)
(-0.321003 -0.132175 0)
(0.0737464 0.150243 0)
(-0.402817 0.314418 0)
(-0.570831 0.188228 0)
(-0.901223 0.0864394 0)
(-1.18475 0.0373668 0)
(-1.4072 0.00720516 0)
(-1.47483 -0.0440427 0)
(-1.3793 -0.084903 0)
(-1.30199 -0.0873407 0)
(-1.2901 -0.211023 0)
(-0.88902 -0.370645 0)
(-0.425682 -0.893121 0)
(-0.698984 1.23913 0)
(0.223288 0.301594 0)
(-1.00686 0.173014 0)
(-1.13179 -0.00291143 0)
(-1.04727 -0.0933568 0)
(-0.517804 -0.300415 0)
(-0.104716 -0.42141 0)
(0.248213 -0.0811079 0)
(0.627849 0.268124 0)
(0.867136 0.332629 0)
(0.758944 0.346934 0)
(0.509309 0.304697 0)
(0.117693 0.227398 0)
(-0.544234 0.0644334 0)
(-0.968146 -0.120543 0)
(-1.69763 -0.144395 0)
(-1.5053 -0.309014 0)
(-0.955787 -0.630002 0)
(-0.322061 -1.17329 0)
(-0.696386 1.24397 0)
(0.726118 0.468237 0)
(-1.24841 0.55899 0)
(-0.502841 0.0109447 0)
(-0.876151 -0.362913 0)
(0.100839 -0.548113 0)
(0.172852 -0.462703 0)
(0.366238 -0.162131 0)
(0.643743 0.0748746 0)
(0.97541 0.136579 0)
(1.14964 0.224785 0)
(1.27797 0.264459 0)
(1.35935 0.290248 0)
(1.34095 0.301362 0)
(1.12313 0.314297 0)
(0.253825 0.3492 0)
(-0.219279 -0.445709 0)
(-0.773392 -0.875395 0)
(-0.213912 -1.44297 0)
(-0.67319 1.21983 0)
(0.832092 0.652815 0)
(-1.21379 0.424809 0)
(0.942685 0.170436 0)
(-0.267054 -0.397779 0)
(0.361918 -0.727353 0)
(0.342518 -0.534619 0)
(0.538864 -0.282009 0)
(0.77437 -0.000752168 0)
(1.00923 0.114221 0)
(1.1398 0.217974 0)
(1.23841 0.246128 0)
(1.30612 0.280068 0)
(1.35524 0.277142 0)
(1.4143 0.295165 0)
(1.42733 0.32497 0)
(1.61474 0.049667 0)
(-0.268705 -0.616684 0)
(-0.173186 -1.60157 0)
(-0.656757 1.16133 0)
(0.771993 0.818106 0)
(-1.5435 0.157689 0)
(0.721702 0.0150988 0)
(0.520787 -0.45341 0)
(0.473489 -0.703146 0)
(0.454767 -0.543171 0)
(0.602711 -0.345539 0)
(0.779245 -0.118927 0)
(0.991053 -0.0162796 0)
(1.11078 0.128041 0)
(1.19673 0.193347 0)
(1.25764 0.239903 0)
(1.31743 0.252175 0)
(1.39068 0.281042 0)
(1.39915 0.319653 0)
(1.44373 0.295554 0)
(0.639049 -0.104758 0)
(-0.151392 -1.63526 0)
(-0.672078 1.16372 0)
(0.710485 1.15056 0)
(-0.896365 0.172027 0)
(0.588226 -0.375553 0)
(0.564011 -0.460564 0)
(0.495013 -0.666075 0)
(0.500582 -0.588072 0)
(0.647738 -0.42053 0)
(0.80947 -0.170649 0)
(0.967449 -0.0292291 0)
(1.05886 0.128907 0)
(1.13537 0.183278 0)
(1.20183 0.228336 0)
(1.27025 0.220947 0)
(1.3573 0.260036 0)
(1.35972 0.302815 0)
(1.3692 0.349899 0)
(0.941636 0.0911165 0)
(-0.101537 -1.39284 0)
(0.00699469 -0.012249 0)
(0.00971378 -0.00878081 0)
(0.0133972 -0.0046093 0)
(0.0160212 0.000196071 0)
(0.0180712 0.00681343 0)
(0.0163924 0.0149198 0)
(0.0107138 0.0237523 0)
(0.00502328 0.0325003 0)
(-0.00840548 0.0391973 0)
(-0.0254385 0.0472986 0)
(-0.0439788 0.0518395 0)
(-0.0629062 0.0527788 0)
(-0.0775702 0.043581 0)
(-0.0845027 0.025146 0)
(-0.0867765 0.00818466 0)
(-0.0862533 0.0024458 0)
(-0.0961123 -0.0066787 0)
(-0.0891251 -0.017172 0)
(-0.087862 -0.0275513 0)
(-0.0742735 -0.0334298 0)
(-0.0975148 -0.0544384 0)
(-0.0735069 -0.095365 0)
(-0.183088 -0.10956 0)
(-0.0366921 -0.0190546 0)
(-0.124516 -0.0107673 0)
(-0.186719 -0.0058689 0)
(-0.306713 0.0015842 0)
(-0.293832 0.0136609 0)
(-0.171815 0.0264858 0)
(-0.104385 0.0387296 0)
(-0.0696423 0.0541926 0)
(-0.0556637 0.0650783 0)
(-0.0561105 0.0705003 0)
(-0.0620076 0.0688631 0)
(-0.0677761 0.0599123 0)
(-0.0694488 0.0422332 0)
(-0.0716474 0.0236853 0)
(-0.0813922 0.0115192 0)
(-0.0907668 0.0151431 0)
(-0.105733 0.00163096 0)
(-0.101029 -0.0200568 0)
(-0.0989444 -0.0302216 0)
(-0.0990114 -0.0207525 0)
(-0.121295 -0.031938 0)
(-0.145597 -0.0130186 0)
(-0.240844 -0.0148248 0)
(-0.0138442 0.147388 0)
(-0.0385278 0.141723 0)
(-0.0629099 0.173582 0)
(-0.0891736 0.111526 0)
(-0.0967178 -0.12757 0)
(-0.122962 -0.176488 0)
(-0.148532 -0.0785356 0)
(-0.184546 -0.0157449 0)
(-0.151116 0.026481 0)
(-0.158342 0.0541208 0)
(-0.182509 0.0637111 0)
(-0.181903 0.0603099 0)
(-0.180557 0.0475369 0)
(-0.166488 0.0371867 0)
(-0.135433 0.0274375 0)
(-0.0992445 0.0268922 0)
(-0.0744818 0.00366925 0)
(-0.0527655 -0.0240639 0)
(-0.0680875 -0.0296712 0)
(-0.0648396 -0.010962 0)
(-0.094241 -0.00809195 0)
(-0.0826131 0.0253986 0)
(-0.131799 0.0652504 0)
(0.00159949 0.0359073 0)
(0.0140507 0.0403212 0)
(0.0176684 0.0469935 0)
(0.0717254 0.0349209 0)
(0.0457513 0.0462577 0)
(-0.0850401 0.0784734 0)
(-0.162826 0.100189 0)
(-0.218517 0.0560426 0)
(-0.263802 0.0370876 0)
(-0.289996 0.100749 0)
(-0.328858 0.0920089 0)
(-0.365304 0.0573912 0)
(-0.388995 0.0266894 0)
(-0.378009 -0.0218592 0)
(-0.322033 -0.0559439 0)
(-0.280431 -0.0462264 0)
(-0.279554 -0.0448425 0)
(-0.202114 -0.0267458 0)
(-0.119476 -0.0176834 0)
(-0.0547614 0.00456427 0)
(-0.0404896 -0.0130287 0)
(-0.01963 0.0226072 0)
(-0.0579997 0.0212431 0)
(-0.0148953 0.130202 0)
(-0.0394702 0.12471 0)
(-0.0661633 0.114669 0)
(-0.0902135 0.0835479 0)
(-0.129009 0.0331626 0)
(-0.15071 0.0311264 0)
(-0.172143 0.0581141 0)
(-0.186647 0.0856647 0)
(-0.257294 0.101545 0)
(-0.295352 0.121425 0)
(-0.329591 0.14178 0)
(-0.409165 0.122047 0)
(-0.508239 0.059878 0)
(-0.588256 -0.0305891 0)
(-0.721608 -0.0722617 0)
(-0.805068 -0.0188199 0)
(-0.826789 -0.0796734 0)
(-0.71514 -0.190008 0)
(-0.622793 -0.185359 0)
(-0.444874 -0.0976011 0)
(-0.414067 -0.0433222 0)
(-0.243056 0.0425769 0)
(-0.230806 0.126451 0)
(-0.00567407 0.0915391 0)
(-0.0080056 0.0927352 0)
(-0.0221216 0.0981829 0)
(-0.0293702 0.0977991 0)
(-0.0661784 0.106016 0)
(-0.114638 0.121426 0)
(-0.159602 0.135329 0)
(-0.189931 0.14085 0)
(-0.222227 0.144468 0)
(-0.247521 0.170866 0)
(-0.280914 0.205108 0)
(-0.309236 0.235554 0)
(-0.391414 0.208775 0)
(-0.477336 0.193579 0)
(-0.676128 0.168233 0)
(-0.867528 0.0662697 0)
(-1.038 -0.119644 0)
(-1.32036 -0.223319 0)
(-1.71739 -0.257195 0)
(-2.10715 -0.19326 0)
(-2.38542 -0.191106 0)
(-2.12124 -0.158758 0)
(-1.67977 -0.186882 0)
(-0.0127905 0.1435 0)
(-0.0336481 0.140945 0)
(-0.0598315 0.136314 0)
(-0.080013 0.128135 0)
(-0.110317 0.120398 0)
(-0.130812 0.125132 0)
(-0.157971 0.135593 0)
(-0.176997 0.149218 0)
(-0.213986 0.161434 0)
(-0.242807 0.181802 0)
(-0.27787 0.205004 0)
(-0.291757 0.233917 0)
(-0.332645 0.227074 0)
(-0.386392 0.252699 0)
(-0.491461 0.314493 0)
(-0.652207 0.336591 0)
(-0.946164 0.362448 0)
(-1.41262 0.471637 0)
(-1.96244 0.584114 0)
(-2.40599 0.530562 0)
(-2.7819 -0.0422851 0)
(-2.58533 -0.670058 0)
(-2.3583 -0.779744 0)
(-0.0084547 0.138573 0)
(-0.0171847 0.140331 0)
(-0.0362595 0.144714 0)
(-0.0492285 0.148291 0)
(-0.0768381 0.156471 0)
(-0.099828 0.168627 0)
(-0.130391 0.181011 0)
(-0.152351 0.196228 0)
(-0.183905 0.20976 0)
(-0.208862 0.233941 0)
(-0.24554 0.254276 0)
(-0.27021 0.29019 0)
(-0.313113 0.306042 0)
(-0.378092 0.35504 0)
(-0.443456 0.441203 0)
(-0.53491 0.529919 0)
(-0.684676 0.656016 0)
(-0.917272 0.807674 0)
(-1.20351 0.772558 0)
(-1.43319 0.603857 0)
(-1.52821 0.034231 0)
(-1.68766 -0.57842 0)
(-1.70488 -0.750943 0)
(-0.0116761 0.169277 0)
(-0.0265737 0.16894 0)
(-0.049705 0.168826 0)
(-0.064005 0.169285 0)
(-0.0885675 0.172107 0)
(-0.103197 0.179492 0)
(-0.127083 0.189408 0)
(-0.141337 0.203747 0)
(-0.168236 0.219173 0)
(-0.185141 0.244516 0)
(-0.21587 0.266799 0)
(-0.236046 0.302091 0)
(-0.267019 0.333995 0)
(-0.305181 0.382144 0)
(-0.339986 0.467654 0)
(-0.358991 0.574372 0)
(-0.398105 0.737533 0)
(-0.393888 0.981698 0)
(-0.455617 1.08071 0)
(-0.585492 0.871402 0)
(-0.83545 0.209679 0)
(-1.20786 -0.46943 0)
(-1.46775 -0.752268 0)
(-0.00891716 0.177052 0)
(-0.0166904 0.178579 0)
(-0.0356312 0.18223 0)
(-0.0461554 0.187101 0)
(-0.0681504 0.195521 0)
(-0.0814689 0.206838 0)
(-0.104521 0.218963 0)
(-0.117862 0.236951 0)
(-0.142564 0.253474 0)
(-0.15647 0.281293 0)
(-0.182442 0.305691 0)
(-0.200796 0.341629 0)
(-0.22675 0.377003 0)
(-0.251812 0.429722 0)
(-0.278447 0.499365 0)
(-0.282545 0.593186 0)
(-0.288143 0.700117 0)
(-0.229677 0.872856 0)
(-0.121491 0.981234 0)
(-0.0833741 0.978147 0)
(-0.242035 0.661224 0)
(-0.807926 0.0684517 0)
(-1.22157 -0.520371 0)
(-0.0096396 0.195257 0)
(-0.0199245 0.196047 0)
(-0.0392406 0.198748 0)
(-0.0494355 0.202361 0)
(-0.0688334 0.208101 0)
(-0.0780809 0.216545 0)
(-0.0970121 0.226572 0)
(-0.105049 0.2426 0)
(-0.12416 0.258488 0)
(-0.131399 0.285197 0)
(-0.14881 0.311403 0)
(-0.156717 0.346954 0)
(-0.173398 0.38446 0)
(-0.181594 0.433665 0)
(-0.19441 0.495865 0)
(-0.183552 0.581927 0)
(-0.172184 0.678401 0)
(-0.120035 0.809104 0)
(-0.0349471 0.924591 0)
(0.0479613 0.992981 0)
(0.0134173 0.941135 0)
(-0.294229 0.501192 0)
(-0.900516 -0.223132 0)
(-0.00780069 0.20666 0)
(-0.0142085 0.208219 0)
(-0.0302616 0.211776 0)
(-0.0370829 0.216652 0)
(-0.0536169 0.224143 0)
(-0.0604507 0.23483 0)
(-0.0773408 0.245857 0)
(-0.0828458 0.2638 0)
(-0.0992735 0.279751 0)
(-0.102879 0.305666 0)
(-0.115435 0.331156 0)
(-0.115629 0.366184 0)
(-0.12403 0.402644 0)
(-0.120509 0.451212 0)
(-0.122757 0.503373 0)
(-0.10456 0.572315 0)
(-0.0806792 0.64096 0)
(-0.0277438 0.735518 0)
(0.051268 0.818495 0)
(0.15334 0.92523 0)
(0.229165 1.00466 0)
(0.200745 0.987978 0)
(-0.257612 0.446135 0)
(-0.00757829 0.217677 0)
(-0.0141971 0.21894 0)
(-0.028994 0.222029 0)
(-0.0350686 0.226173 0)
(-0.0495556 0.231933 0)
(-0.0541499 0.240815 0)
(-0.0678987 0.249506 0)
(-0.0701421 0.265187 0)
(-0.0820494 0.279073 0)
(-0.0815403 0.302057 0)
(-0.0891707 0.324541 0)
(-0.0835186 0.356128 0)
(-0.0847625 0.389295 0)
(-0.0709205 0.432508 0)
(-0.0615258 0.478907 0)
(-0.0318687 0.538883 0)
(-0.00233671 0.599151 0)
(0.0532795 0.675334 0)
(0.11642 0.74079 0)
(0.209958 0.815952 0)
(0.316963 0.896637 0)
(0.452817 0.988619 0)
(0.458244 0.90403 0)
(-0.00622534 0.228431 0)
(-0.010322 0.229618 0)
(-0.0225235 0.232656 0)
(-0.0261388 0.237167 0)
(-0.0380177 0.243208 0)
(-0.0402215 0.253013 0)
(-0.0513267 0.261751 0)
(-0.0507622 0.277651 0)
(-0.0595416 0.290941 0)
(-0.0551997 0.312392 0)
(-0.0591714 0.332877 0)
(-0.048792 0.361377 0)
(-0.0453192 0.389989 0)
(-0.0250683 0.427729 0)
(-0.0104695 0.464882 0)
(0.0254052 0.512859 0)
(0.0598564 0.557309 0)
(0.119554 0.615147 0)
(0.18772 0.663677 0)
(0.275883 0.719162 0)
(0.387976 0.763608 0)
(0.530471 0.839815 0)
(0.716471 0.792196 0)
(-0.00562314 0.234587 0)
(-0.00943486 0.235611 0)
(-0.0203761 0.238195 0)
(-0.0236348 0.242053 0)
(-0.0339172 0.246394 0)
(-0.0351431 0.254582 0)
(-0.043954 0.260502 0)
(-0.0417298 0.273971 0)
(-0.0477293 0.284037 0)
(-0.0405988 0.302343 0)
(-0.0418261 0.318634 0)
(-0.0274408 0.342875 0)
(-0.0208996 0.36583 0)
(0.00439569 0.397897 0)
(0.0234989 0.428168 0)
(0.0636523 0.468291 0)
(0.100861 0.504204 0)
(0.15963 0.547083 0)
(0.222389 0.583684 0)
(0.304713 0.616504 0)
(0.395872 0.641092 0)
(0.51141 0.660748 0)
(0.663033 0.658668 0)
(-0.00455405 0.243472 0)
(-0.00682175 0.244346 0)
(-0.0154772 0.246845 0)
(-0.0170023 0.250646 0)
(-0.0247363 0.254666 0)
(-0.0241637 0.262876 0)
(-0.0303176 0.268163 0)
(-0.0262863 0.281091 0)
(-0.0294917 0.289454 0)
(-0.0197998 0.306001 0)
(-0.0182113 0.319218 0)
(-0.000603881 0.339888 0)
(0.00854744 0.357666 0)
(0.0363562 0.38279 0)
(0.0575968 0.405366 0)
(0.0984876 0.434754 0)
(0.138039 0.461321 0)
(0.195355 0.491939 0)
(0.257632 0.518637 0)
(0.333938 0.54217 0)
(0.416691 0.556826 0)
(0.509347 0.567029 0)
(0.614587 0.556503 0)
(-0.00392511 0.246265 0)
(-0.00622621 0.24684 0)
(-0.0136336 0.248673 0)
(-0.0151997 0.251634 0)
(-0.0216767 0.253879 0)
(-0.0211428 0.260555 0)
(-0.0256052 0.263026 0)
(-0.0213441 0.273647 0)
(-0.0223118 0.278024 0)
(-0.0121151 0.291648 0)
(-0.00778061 0.299901 0)
(0.0110566 0.316649 0)
(0.0238944 0.329165 0)
(0.0530413 0.349125 0)
(0.0776829 0.36604 0)
(0.118696 0.387862 0)
(0.159231 0.407144 0)
(0.213921 0.427463 0)
(0.272475 0.444928 0)
(0.342717 0.457806 0)
(0.415794 0.465699 0)
(0.496224 0.463834 0)
(0.580813 0.454049 0)
(-0.00323567 0.253614 0)
(-0.00474155 0.254033 0)
(-0.0106227 0.255805 0)
(-0.0113 0.25863 0)
(-0.0159137 0.260547 0)
(-0.0145143 0.266647 0)
(-0.0164271 0.268174 0)
(-0.0115581 0.277505 0)
(-0.0094333 0.279858 0)
(0.000945215 0.291032 0)
(0.00859206 0.295525 0)
(0.0267656 0.307715 0)
(0.0424107 0.315091 0)
(0.0706086 0.328484 0)
(0.0973863 0.339116 0)
(0.137474 0.352498 0)
(0.178741 0.365484 0)
(0.231708 0.377444 0)
(0.288125 0.389159 0)
(0.353352 0.39677 0)
(0.420714 0.4025 0)
(0.491493 0.399308 0)
(0.564125 0.400029 0)
(-0.00291563 0.254485 0)
(-0.00494056 0.25447 0)
(-0.0102597 0.255468 0)
(-0.0113009 0.257169 0)
(-0.0151552 0.257343 0)
(-0.0140448 0.261345 0)
(-0.0147509 0.260352 0)
(-0.0105109 0.266983 0)
(-0.00658936 0.265835 0)
(0.00284305 0.274003 0)
(0.0133434 0.274364 0)
(0.0304949 0.283145 0)
(0.0494609 0.28547 0)
(0.0765665 0.294321 0)
(0.105963 0.299168 0)
(0.144877 0.306517 0)
(0.186778 0.312835 0)
(0.238288 0.318006 0)
(0.292989 0.323263 0)
(0.355801 0.325186 0)
(0.420449 0.327761 0)
(0.488577 0.320505 0)
(0.558208 0.326026 0)
(-0.0027592 0.261483 0)
(-0.00548691 0.26138 0)
(-0.0106668 0.262185 0)
(-0.0119809 0.263513 0)
(-0.0153776 0.263287 0)
(-0.0144044 0.266182 0)
(-0.0140437 0.264566 0)
(-0.00982243 0.269213 0)
(-0.00368787 0.2663 0)
(0.0055148 0.270871 0)
(0.0185856 0.267515 0)
(0.0347165 0.271306 0)
(0.0563801 0.268533 0)
(0.0820425 0.271612 0)
(0.113368 0.270204 0)
(0.151143 0.271143 0)
(0.193409 0.271361 0)
(0.243376 0.270381 0)
(0.296921 0.270846 0)
(0.356945 0.268059 0)
(0.419519 0.268842 0)
(0.483989 0.260019 0)
(0.549835 0.26705 0)
(-0.00275858 0.262935 0)
(-0.00697552 0.262573 0)
(-0.012452 0.26214 0)
(-0.0147878 0.262038 0)
(-0.0185518 0.25991 0)
(-0.0185187 0.26012 0)
(-0.0183433 0.255873 0)
(-0.0147902 0.256691 0)
(-0.00851316 0.250564 0)
(-2.06749e-06 0.251771 0)
(0.0135082 0.245191 0)
(0.0287997 0.245369 0)
(0.0511745 0.238099 0)
(0.0760306 0.237304 0)
(0.108577 0.229925 0)
(0.14578 0.226376 0)
(0.188911 0.2204 0)
(0.239005 0.214305 0)
(0.293273 0.209512 0)
(0.353977 0.202326 0)
(0.417723 0.200643 0)
(0.484892 0.189937 0)
(0.553087 0.198158 0)
(-0.00352195 0.271264 0)
(-0.00983588 0.271124 0)
(-0.0169497 0.270073 0)
(-0.0211226 0.269672 0)
(-0.0263455 0.267127 0)
(-0.0277818 0.266051 0)
(-0.0286358 0.260954 0)
(-0.0263008 0.259462 0)
(-0.0207289 0.251579 0)
(-0.0130114 0.248898 0)
(0.000885937 0.23865 0)
(0.0167656 0.233563 0)
(0.0400536 0.221061 0)
(0.0654028 0.213993 0)
(0.099354 0.200008 0)
(0.136662 0.190434 0)
(0.181208 0.17751 0)
(0.231628 0.165436 0)
(0.287153 0.155127 0)
(0.348309 0.142783 0)
(0.413981 0.137106 0)
(0.482415 0.123667 0)
(0.552953 0.128655 0)
(-0.00454486 0.27649 0)
(-0.0130886 0.276183 0)
(-0.0220508 0.273589 0)
(-0.0284665 0.271542 0)
(-0.0354292 0.266639 0)
(-0.038838 0.262393 0)
(-0.0416865 0.254346 0)
(-0.0412998 0.248637 0)
(-0.0378023 0.23711 0)
(-0.0319971 0.229901 0)
(-0.0204112 0.21517 0)
(-0.00664542 0.20593 0)
(0.0146772 0.189181 0)
(0.0386242 0.17774 0)
(0.0717077 0.158335 0)
(0.108225 0.144251 0)
(0.153654 0.125034 0)
(0.204979 0.108038 0)
(0.262876 0.0923985 0)
(0.327676 0.0750968 0)
(0.398339 0.0661189 0)
(0.473145 0.0505462 0)
(0.550889 0.055345 0)
(-0.00618662 0.289006 0)
(-0.0173694 0.288745 0)
(-0.0293486 0.285587 0)
(-0.0389467 0.283185 0)
(-0.0490855 0.277702 0)
(-0.0559118 0.272495 0)
(-0.0623008 0.263685 0)
(-0.0650779 0.255817 0)
(-0.0650805 0.242566 0)
(-0.0616929 0.231759 0)
(-0.0527211 0.213508 0)
(-0.0406862 0.198629 0)
(-0.0206614 0.17581 0)
(0.00271834 0.156927 0)
(0.0359005 0.130159 0)
(0.07269 0.108265 0)
(0.11997 0.0802524 0)
(0.172226 0.0557909 0)
(0.233091 0.0317304 0)
(0.301071 0.00666754 0)
(0.376819 -0.0092148 0)
(0.456761 -0.0297106 0)
(0.542732 -0.0308217 0)
(-0.00798485 0.300264 0)
(-0.0221156 0.299549 0)
(-0.0374358 0.295353 0)
(-0.050463 0.291406 0)
(-0.0638476 0.283699 0)
(-0.0741878 0.275602 0)
(-0.0838903 0.26346 0)
(-0.090008 0.251234 0)
(-0.0938439 0.233502 0)
(-0.0942191 0.217189 0)
(-0.089877 0.193787 0)
(-0.0823182 0.173426 0)
(-0.0674992 0.145312 0)
(-0.0492315 0.120732 0)
(-0.0208459 0.087856 0)
(0.0115144 0.0597357 0)
(0.0564289 0.0248931 0)
(0.106954 -0.00553712 0)
(0.169694 -0.0371378 0)
(0.24093 -0.0691668 0)
(0.321584 -0.0903007 0)
(0.408715 -0.115933 0)
(0.505562 -0.120383 0)
(-0.00968834 0.319304 0)
(-0.026936 0.318396 0)
(-0.0457455 0.314157 0)
(-0.0624067 0.309816 0)
(-0.0796311 0.301702 0)
(-0.0942612 0.292799 0)
(-0.10851 0.279854 0)
(-0.119493 0.266094 0)
(-0.12853 0.247181 0)
(-0.133836 0.228167 0)
(-0.134569 0.202002 0)
(-0.131025 0.176589 0)
(-0.119543 0.142966 0)
(-0.103589 0.110425 0)
(-0.0771462 0.0693572 0)
(-0.0469708 0.030914 0)
(-0.00337092 -0.0155617 0)
(0.0447278 -0.0578173 0)
(0.108271 -0.102951 0)
(0.179587 -0.145858 0)
(0.263371 -0.177959 0)
(0.355999 -0.214584 0)
(0.463022 -0.230381 0)
(-0.0115363 0.33713 0)
(-0.0325109 0.33584 0)
(-0.0550868 0.331045 0)
(-0.0755915 0.325468 0)
(-0.0966609 0.315708 0)
(-0.115272 0.304553 0)
(-0.133578 0.288728 0)
(-0.148754 0.271175 0)
(-0.16227 0.247713 0)
(-0.172061 0.222959 0)
(-0.178192 0.190633 0)
(-0.180482 0.157966 0)
(-0.17649 0.117376 0)
(-0.168085 0.0778516 0)
(-0.149752 0.0306738 0)
(-0.126373 -0.0145375 0)
(-0.0877396 -0.0675049 0)
(-0.0437991 -0.117695 0)
(0.0188566 -0.172853 0)
(0.0884887 -0.224853 0)
(0.174766 -0.267629 0)
(0.273663 -0.316322 0)
(0.389701 -0.340471 0)
(-0.0130482 0.363659 0)
(-0.0371501 0.36226 0)
(-0.0629834 0.357571 0)
(-0.0870171 0.351711 0)
(-0.111981 0.34175 0)
(-0.134931 0.330063 0)
(-0.158021 0.313751 0)
(-0.178432 0.295171 0)
(-0.197761 0.270951 0)
(-0.213587 0.244529 0)
(-0.226304 0.210925 0)
(-0.234634 0.175343 0)
(-0.236892 0.131001 0)
(-0.233589 0.0840026 0)
(-0.219948 0.027805 0)
(-0.200128 -0.031034 0)
(-0.16604 -0.098317 0)
(-0.126134 -0.164654 0)
(-0.0659716 -0.235837 0)
(0.000739196 -0.302387 0)
(0.0879659 -0.364221 0)
(0.186821 -0.430624 0)
(0.306364 -0.470183 0)
(-0.0149342 0.387572 0)
(-0.0429863 0.386019 0)
(-0.0726795 0.381149 0)
(-0.100686 0.374674 0)
(-0.129689 0.363824 0)
(-0.156694 0.35074 0)
(-0.184099 0.332358 0)
(-0.208743 0.310962 0)
(-0.232971 0.282873 0)
(-0.253446 0.251398 0)
(-0.271952 0.211486 0)
(-0.285963 0.168264 0)
(-0.295806 0.115909 0)
(-0.300728 0.0604913 0)
(-0.298199 -0.00334612 0)
(-0.289216 -0.0689394 0)
(-0.267478 -0.142209 0)
(-0.237576 -0.21831 0)
(-0.191192 -0.300681 0)
(-0.141305 -0.379357 0)
(-0.0646877 -0.454579 0)
(0.0284213 -0.535457 0)
(0.147476 -0.590188 0)
(-0.0161391 0.422038 0)
(-0.0467179 0.420468 0)
(-0.0791279 0.415745 0)
(-0.110165 0.409176 0)
(-0.142764 0.398251 0)
(-0.17387 0.38493 0)
(-0.206223 0.366315 0)
(-0.236435 0.344517 0)
(-0.267267 0.316195 0)
(-0.294969 0.284011 0)
(-0.321957 0.244018 0)
(-0.344694 0.199737 0)
(-0.364117 0.146368 0)
(-0.377754 0.0869034 0)
(-0.384618 0.0167389 0)
(-0.383504 -0.0614437 0)
(-0.373247 -0.149848 0)
(-0.360206 -0.240961 0)
(-0.34429 -0.332285 0)
(-0.317269 -0.429341 0)
(-0.250548 -0.535119 0)
(-0.156097 -0.644154 0)
(-0.0367958 -0.729046 0)
(-0.0179953 0.450607 0)
(-0.052456 0.449198 0)
(-0.0887034 0.444794 0)
(-0.123733 0.438501 0)
(-0.160483 0.427737 0)
(-0.195913 0.414383 0)
(-0.232988 0.395114 0)
(-0.268077 0.37215 0)
(-0.304564 0.341533 0)
(-0.338045 0.306155 0)
(-0.372098 0.261201 0)
(-0.401952 0.21035 0)
(-0.431239 0.148721 0)
(-0.456153 0.0807232 0)
(-0.480201 0.00193884 0)
(-0.502398 -0.0807019 0)
(-0.527725 -0.166009 0)
(-0.554092 -0.247529 0)
(-0.56254 -0.34439 0)
(-0.513936 -0.473488 0)
(-0.427365 -0.616474 0)
(-0.319252 -0.749861 0)
(-0.19672 -0.859103 0)
(-0.0188359 0.493184 0)
(-0.0550789 0.491873 0)
(-0.093275 0.487714 0)
(-0.130597 0.481611 0)
(-0.170269 0.4711 0)
(-0.20928 0.458056 0)
(-0.251061 0.439139 0)
(-0.29197 0.416714 0)
(-0.335764 0.386835 0)
(-0.378054 0.352177 0)
(-0.422856 0.308617 0)
(-0.465778 0.259543 0)
(-0.510506 0.201333 0)
(-0.552636 0.136615 0)
(-0.596076 0.0638233 0)
(-0.641665 -0.0130868 0)
(-0.698043 -0.097486 0)
(-0.745115 -0.205637 0)
(-0.714022 -0.372257 0)
(-0.63475 -0.564978 0)
(-0.538951 -0.730936 0)
(-0.436922 -0.87622 0)
(-0.322613 -0.99708 0)
(-0.0204409 0.524485 0)
(-0.0600373 0.523631 0)
(-0.101723 0.52034 0)
(-0.142897 0.515558 0)
(-0.186981 0.506551 0)
(-0.231019 0.495343 0)
(-0.278524 0.478019 0)
(-0.325781 0.457082 0)
(-0.376699 0.427849 0)
(-0.427074 0.3935 0)
(-0.48125 0.34912 0)
(-0.534806 0.298236 0)
(-0.592952 0.235642 0)
(-0.653991 0.166455 0)
(-0.729577 0.090773 0)
(-0.819823 0.0214681 0)
(-0.893071 -0.0626613 0)
(-0.879957 -0.231555 0)
(-0.798578 -0.455702 0)
(-0.729603 -0.649525 0)
(-0.651021 -0.815331 0)
(-0.56792 -0.967257 0)
(-0.465931 -1.10086 0)
(-0.0210014 0.574791 0)
(-0.0618022 0.574269 0)
(-0.10478 0.571653 0)
(-0.147513 0.567877 0)
(-0.193384 0.560186 0)
(-0.239732 0.55048 0)
(-0.290168 0.534756 0)
(-0.341964 0.515696 0)
(-0.399192 0.488955 0)
(-0.458788 0.457547 0)
(-0.52446 0.417192 0)
(-0.593351 0.372133 0)
(-0.67029 0.321479 0)
(-0.756559 0.274304 0)
(-0.853709 0.231179 0)
(-0.94984 0.151782 0)
(-0.985427 -0.0364527 0)
(-0.924845 -0.300307 0)
(-0.87005 -0.523144 0)
(-0.818244 -0.713197 0)
(-0.750166 -0.893509 0)
(-0.668364 -1.06227 0)
(-0.569035 -1.21804 0)
(-0.0216548 0.60675 0)
(-0.0639758 0.606916 0)
(-0.108812 0.605636 0)
(-0.154217 0.603856 0)
(-0.203908 0.598612 0)
(-0.255759 0.592121 0)
(-0.3134 0.580398 0)
(-0.374222 0.566406 0)
(-0.441737 0.545035 0)
(-0.512482 0.519309 0)
(-0.590947 0.484152 0)
(-0.67518 0.444754 0)
(-0.77287 0.399428 0)
(-0.88255 0.350705 0)
(-1.00006 0.284176 0)
(-1.07247 0.153817 0)
(-1.0353 -0.0889841 0)
(-0.981286 -0.347324 0)
(-0.949155 -0.563305 0)
(-0.88873 -0.76998 0)
(-0.823816 -0.965864 0)
(-0.740979 -1.1492 0)
(-0.651143 -1.31682 0)
(-0.0223492 0.662314 0)
(-0.0661405 0.663283 0)
(-0.112453 0.663687 0)
(-0.159487 0.664661 0)
(-0.210306 0.663286 0)
(-0.262934 0.661396 0)
(-0.320645 0.654461 0)
(-0.38163 0.645202 0)
(-0.449373 0.628188 0)
(-0.522674 0.607781 0)
(-0.606272 0.580816 0)
(-0.700293 0.555298 0)
(-0.809803 0.529911 0)
(-0.931323 0.503017 0)
(-1.0504 0.422931 0)
(-1.0963 0.187453 0)
(-1.05042 -0.127189 0)
(-1.02578 -0.386472 0)
(-0.980707 -0.616234 0)
(-0.923467 -0.838852 0)
(-0.85829 -1.04221 0)
(-0.783631 -1.23599 0)
(-0.699579 -1.41691 0)
(-0.0209014 0.693772 0)
(-0.0621184 0.695602 0)
(-0.106101 0.697674 0)
(-0.152182 0.700562 0)
(-0.203929 0.70112 0)
(-0.260136 0.701786 0)
(-0.324103 0.698705 0)
(-0.394769 0.695092 0)
(-0.475557 0.686336 0)
(-0.566008 0.676867 0)
(-0.668119 0.662419 0)
(-0.780199 0.649427 0)
(-0.905753 0.631393 0)
(-1.03212 0.59225 0)
(-1.12789 0.449534 0)
(-1.11471 0.152531 0)
(-1.07558 -0.159302 0)
(-1.05332 -0.418559 0)
(-0.999461 -0.665826 0)
(-0.950274 -0.893253 0)
(-0.885618 -1.10609 0)
(-0.819347 -1.30855 0)
(-0.740145 -1.50195 0)
(-0.0219848 0.748361 0)
(-0.0655491 0.751488 0)
(-0.111912 0.756699 0)
(-0.159836 0.765386 0)
(-0.212511 0.774013 0)
(-0.269444 0.784264 0)
(-0.334005 0.791506 0)
(-0.404828 0.798996 0)
(-0.485023 0.801229 0)
(-0.573757 0.802315 0)
(-0.676688 0.796297 0)
(-0.79475 0.794907 0)
(-0.927732 0.782915 0)
(-1.0554 0.72768 0)
(-1.12527 0.50592 0)
(-1.09933 0.136349 0)
(-1.07341 -0.188877 0)
(-1.04032 -0.462636 0)
(-0.988431 -0.719623 0)
(-0.942343 -0.953603 0)
(-0.880503 -1.17414 0)
(-0.822402 -1.38293 0)
(-0.750003 -1.58535 0)
(-0.0177761 0.778521 0)
(-0.0528949 0.782766 0)
(-0.0916815 0.78926 0)
(-0.133391 0.79852 0)
(-0.180846 0.808174 0)
(-0.234324 0.820878 0)
(-0.297891 0.831932 0)
(-0.373008 0.844335 0)
(-0.462348 0.853984 0)
(-0.567324 0.867943 0)
(-0.686859 0.883197 0)
(-0.82878 0.901211 0)
(-0.967642 0.891592 0)
(-1.08989 0.790914 0)
(-1.12548 0.491036 0)
(-1.09862 0.10179 0)
(-1.07976 -0.220458 0)
(-1.03576 -0.503228 0)
(-0.989396 -0.764409 0)
(-0.939903 -1.00079 0)
(-0.885009 -1.22548 0)