/*--------------------------------*- C++ -*----------------------------------*\
| =========                 |                                                 |
| \\      /  F ield         | OpenFOAM: The Open Source CFD Toolbox           |
|  \\    /   O peration     | Version:  2012                                  |
|   \\  /    A nd           | Website:  www.openfoam.com                      |
|    \\/     M anipulation  |                                                 |
\*---------------------------------------------------------------------------*/
FoamFile
{
    version     2.0;
    format      ascii;
    class       volVectorField;
    location    "0.67";
    object      Uc;
}
// * * * * * * * * * * * * * * * * * * * * * * * * * * * * * * * * * * * * * //

dimensions      [0 1 -1 0 0 0 0];


internalField   nonuniform List<vector> 
2268
(
(0.000251088 -0.000118662 0)
(0.00149649 -0.000469906 0)
(0.00254408 -2.5177e-05 0)
(0.00114251 0.000687551 0)
(-0.00274013 0.00114736 0)
(-0.00697372 0.00085341 0)
(-0.0110871 0.00109057 0)
(-0.0176382 0.00200541 0)
(-0.026254 0.00206638 0)
(-0.0352237 0.00217264 0)
(-0.0447396 0.00232452 0)
(-0.054414 0.00224752 0)
(-0.0627373 0.001686 0)
(-0.0684349 0.00100664 0)
(-0.0717941 0.000580919 0)
(-0.0735905 0.00026807 0)
(-0.0739295 -0.000107863 0)
(-0.0717595 -0.000917628 0)
(-0.066535 -0.00155142 0)
(-0.057125 -0.00289566 0)
(-0.0437875 -0.00340752 0)
(-0.0242883 -0.00580764 0)
(-0.00599968 -0.00283532 0)
(0.000160695 -0.000313266 0)
(0.00130868 -0.0014064 0)
(0.00244921 -0.000122776 0)
(0.00133976 0.00197184 0)
(-0.00223434 0.00338706 0)
(-0.00640773 0.00258679 0)
(-0.010685 0.00332259 0)
(-0.0173727 0.00602988 0)
(-0.0258344 0.00611262 0)
(-0.0346882 0.00654965 0)
(-0.0445357 0.00709854 0)
(-0.0543876 0.00670144 0)
(-0.0626953 0.00509174 0)
(-0.0687035 0.00313301 0)
(-0.0724131 0.00179524 0)
(-0.0742868 0.000788228 0)
(-0.0744556 -0.00038799 0)
(-0.0722112 -0.00272366 0)
(-0.0674918 -0.00444481 0)
(-0.0596124 -0.00817306 0)
(-0.0492619 -0.00932482 0)
(-0.0347326 -0.0159719 0)
(-0.012757 -0.0116994 0)
(0.000166637 -0.000467959 0)
(0.00148634 -0.00241791 0)
(0.00296403 -0.000348606 0)
(0.0023082 0.00303193 0)
(-0.000836312 0.00550214 0)
(-0.00512346 0.0044701 0)
(-0.010156 0.00583902 0)
(-0.0175916 0.010188 0)
(-0.026545 0.0101847 0)
(-0.0358028 0.011037 0)
(-0.0456904 0.0119379 0)
(-0.0551858 0.0110055 0)
(-0.0631257 0.00846619 0)
(-0.069109 0.0054257 0)
(-0.0730778 0.00313131 0)
(-0.0751323 0.00130862 0)
(-0.0751375 -0.000826113 0)
(-0.0724312 -0.00462517 0)
(-0.0671944 -0.00724854 0)
(-0.0588429 -0.0130399 0)
(-0.0477285 -0.0146021 0)
(-0.031773 -0.0251015 0)
(-0.0108367 -0.0228494 0)
(0.000234807 -0.000657677 0)
(0.00163992 -0.00351592 0)
(0.00312041 -0.000648609 0)
(0.00273748 0.00382284 0)
(0.000226261 0.00738409 0)
(-0.00373647 0.00648698 0)
(-0.00897463 0.00867598 0)
(-0.0163618 0.0143563 0)
(-0.0250149 0.0143371 0)
(-0.0343815 0.0156864 0)
(-0.0447262 0.0168502 0)
(-0.0550271 0.0154488 0)
(-0.0641148 0.0120699 0)
(-0.0711352 0.00796747 0)
(-0.0754754 0.00451631 0)
(-0.0772814 0.00174812 0)
(-0.0769649 -0.00141273 0)
(-0.0744065 -0.00652658 0)
(-0.0696571 -0.0100665 0)
(-0.0618323 -0.0178667 0)
(-0.050742 -0.020269 0)
(-0.0344284 -0.0346847 0)
(-0.012125 -0.0337007 0)
(0.000711783 -0.00110503 0)
(0.00254315 -0.0045981 0)
(0.00411656 -0.00100968 0)
(0.00422996 0.00431128 0)
(0.00244581 0.00892561 0)
(-0.00147339 0.00867041 0)
(-0.00780732 0.0119614 0)
(-0.0163736 0.0186103 0)
(-0.0259925 0.0187183 0)
(-0.0363073 0.0206065 0)
(-0.0468945 0.0218223 0)
(-0.0568392 0.0200446 0)
(-0.0655033 0.0158634 0)
(-0.0721549 0.0106352 0)
(-0.0764086 0.00590997 0)
(-0.0786157 0.00225107 0)
(-0.0787507 -0.0020014 0)
(-0.0764071 -0.00825453 0)
(-0.0720223 -0.0126553 0)
(-0.0651306 -0.0222328 0)
(-0.0551136 -0.025878 0)
(-0.0361079 -0.0457673 0)
(-0.0114178 -0.0448267 0)
(0.00135937 -0.00208384 0)
(0.00328397 -0.00539433 0)
(0.00419545 -0.00138778 0)
(0.0044934 0.00449499 0)
(0.00360339 0.0100057 0)
(0.000426586 0.0109438 0)
(-0.00573162 0.0155917 0)
(-0.0137146 0.0228011 0)
(-0.022636 0.0232894 0)
(-0.0333278 0.0259629 0)
(-0.0452545 0.0271058 0)
(-0.0570449 0.025033 0)
(-0.0678097 0.0200571 0)
(-0.0759011 0.013409 0)
(-0.0802327 0.00719357 0)
(-0.0819068 0.00280171 0)
(-0.0817269 -0.00257323 0)
(-0.0794612 -0.00986101 0)
(-0.075207 -0.0151315 0)
(-0.068921 -0.0259842 0)
(-0.0591732 -0.0314672 0)
(-0.0384418 -0.0589574 0)
(-0.0119019 -0.0558473 0)
(0.00225332 -0.00379116 0)
(0.00504485 -0.00591581 0)
(0.00602906 -0.00176219 0)
(0.00692153 0.00430682 0)
(0.00705556 0.0105511 0)
(0.00398733 0.0133498 0)
(-0.00340997 0.019592 0)
(-0.0130851 0.0271459 0)
(-0.0240538 0.0283445 0)
(-0.0364251 0.0318073 0)
(-0.0485763 0.0326405 0)
(-0.0596962 0.0303255 0)
(-0.0696804 0.0245704 0)
(-0.0771516 0.0162505 0)
(-0.0813599 0.00838804 0)
(-0.0838828 0.00359075 0)
(-0.0848806 -0.00297572 0)
(-0.0833548 -0.0112504 0)
(-0.0798023 -0.0174315 0)
(-0.0756762 -0.0286048 0)
(-0.0691026 -0.03656 0)
(-0.0450753 -0.0750172 0)
(-0.0128655 -0.0675522 0)
(0.00296904 -0.00625867 0)
(0.00664783 -0.00650508 0)
(0.00786436 -0.00221206 0)
(0.00910516 0.00374912 0)
(0.00999001 0.0106276 0)
(0.00754141 0.0158806 0)
(0.000824694 0.0237314 0)
(-0.0079737 0.031737 0)
(-0.0189397 0.0341196 0)
(-0.0320837 0.0380906 0)
(-0.0458357 0.0385989 0)
(-0.060133 0.0363791 0)
(-0.0736128 0.0296057 0)
(-0.0826137 0.0189997 0)
(-0.0861088 0.00927935 0)
(-0.0875658 0.00458035 0)
(-0.0882951 -0.00314911 0)
(-0.0867343 -0.0125357 0)
(-0.0829538 -0.0196117 0)
(-0.0795224 -0.0299962 0)
(-0.0734053 -0.0411661 0)
(-0.0547222 -0.0905956 0)
(-0.0205514 -0.0833447 0)
(-0.575675 0.244786 0)
(-1.32707 0.0749352 0)
(-1.57479 0.0308951 0)
(-1.65502 0.00398932 0)
(-1.63211 -0.0126649 0)
(-1.51774 -0.0346025 0)
(-1.34439 -0.0378236 0)
(-1.23383 -0.00850154 0)
(-1.29656 0.0355622 0)
(-1.48029 0.0429505 0)
(-1.63628 0.023804 0)
(-1.72247 0.0133179 0)
(-1.76226 0.00412279 0)
(-1.75577 -0.0063378 0)
(-1.70147 -0.0161836 0)
(-1.62054 -0.0176419 0)
(-1.49085 -0.0368112 0)
(-1.19835 -0.0866562 0)
(-0.496679 -0.211071 0)
(-0.439776 0.676676 0)
(-0.984705 0.19485 0)
(-1.12013 0.0749009 0)
(-1.14373 0.00541676 0)
(-1.12247 -0.0310669 0)
(-1.04565 -0.0949772 0)
(-0.924334 -0.100471 0)
(-0.907284 0.00109791 0)
(-1.0596 0.118228 0)
(-1.25019 0.120351 0)
(-1.3769 0.0676742 0)
(-1.44914 0.0380693 0)
(-1.4844 0.0127176 0)
(-1.47775 -0.0189657 0)
(-1.42235 -0.0485944 0)
(-1.34257 -0.0520428 0)
(-1.2028 -0.115468 0)
(-0.938624 -0.242998 0)
(-0.386919 -0.58651 0)
(-0.3414 1.00973 0)
(-0.732032 0.261799 0)
(-0.817213 0.10407 0)
(-0.829603 -0.00648785 0)
(-0.762405 -0.0549248 0)
(-0.598381 -0.171679 0)
(-0.299571 -0.201062 0)
(-0.140868 0.0280665 0)
(-0.319715 0.234124 0)
(-0.605995 0.210078 0)
(-0.886764 0.154302 0)
(-1.1682 0.104952 0)
(-1.36817 0.0493031 0)
(-1.43427 -0.0263102 0)
(-1.38381 -0.0821782 0)
(-1.3171 -0.0768387 0)
(-1.19303 -0.199175 0)
(-0.875802 -0.403487 0)
(-0.330173 -0.891201 0)
(-0.101174 1.19903 0)
(-0.317896 0.334321 0)
(-0.738148 0.251091 0)
(-1.07205 -0.00198576 0)
(-0.942154 -0.13926 0)
(-0.546521 -0.322349 0)
(-0.117831 -0.358454 0)
(0.257458 -0.040946 0)
(0.594877 0.23801 0)
(0.782639 0.252217 0)
(0.737741 0.255755 0)
(0.492646 0.233051 0)
(0.0675382 0.192677 0)
(-0.493426 0.102636 0)
(-1.03528 0.00356484 0)
(-1.43803 -0.0140427 0)
(-1.43182 -0.311567 0)
(-0.954502 -0.623485 0)
(-0.323421 -1.16901 0)
(0.0151059 1.23638 0)
(-0.175188 0.473666 0)
(-0.512645 0.439261 0)
(-0.74212 0.0542797 0)
(-0.605928 -0.296666 0)
(-0.116181 -0.529771 0)
(0.206662 -0.468253 0)
(0.390068 -0.168463 0)
(0.658739 0.108474 0)
(0.936826 0.185566 0)
(1.13798 0.259126 0)
(1.26576 0.283977 0)
(1.33493 0.298192 0)
(1.27987 0.264745 0)
(0.970247 0.209305 0)
(0.36728 0.213263 0)
(-0.235846 -0.279284 0)
(-0.488653 -0.744677 0)
(-0.251579 -1.41315 0)
(0.0473241 1.2111 0)
(-0.109905 0.65096 0)
(-0.112397 0.411569 0)
(0.0862235 0.0991654 0)
(0.124298 -0.40451 0)
(0.260294 -0.676881 0)
(0.399858 -0.515579 0)
(0.551988 -0.26363 0)
(0.775977 -0.00589393 0)
(0.983813 0.0933928 0)
(1.13156 0.20343 0)
(1.22992 0.244611 0)
(1.30044 0.280211 0)
(1.35678 0.285536 0)
(1.40259 0.304833 0)
(1.46921 0.35085 0)
(1.10515 0.000621273 0)
(0.232674 -0.539431 0)
(-0.1138 -1.56754 0)
(0.0357016 1.17771 0)
(-0.223106 0.866205 0)
(-0.357237 0.259462 0)
(0.124886 -0.0342588 0)
(0.493266 -0.439822 0)
(0.504292 -0.700883 0)
(0.501008 -0.548471 0)
(0.613346 -0.34319 0)
(0.790108 -0.096774 0)
(0.968996 0.0198733 0)
(1.10227 0.157542 0)
(1.18999 0.211419 0)
(1.25668 0.255181 0)
(1.31985 0.260164 0)
(1.37308 0.289153 0)
(1.40622 0.326626 0)
(1.23662 0.256552 0)
(0.644974 -0.166661 0)
(0.11795 -1.56409 0)
(0.0141336 1.15804 0)
(-0.0972907 1.0478 0)
(-0.116636 0.148209 0)
(0.237313 -0.274466 0)
(0.507297 -0.466869 0)
(0.516797 -0.679932 0)
(0.541883 -0.578294 0)
(0.655417 -0.409411 0)
(0.810794 -0.171514 0)
(0.951939 -0.040384 0)
(1.05521 0.118875 0)
(1.1327 0.181393 0)
(1.20205 0.228647 0)
(1.27437 0.230174 0)
(1.33474 0.27162 0)
(1.35934 0.320258 0)
(1.26076 0.37883 0)
(0.786107 0.168964 0)
(0.206449 -1.424 0)
(0.00417664 -0.0118518 0)
(0.00995326 -0.00843765 0)
(0.0131313 -0.00402154 0)
(0.0158744 0.00223877 0)
(0.0171261 0.0104757 0)
(0.0153713 0.0189701 0)
(0.0106789 0.0285512 0)
(0.00303522 0.0387713 0)
(-0.00939223 0.0447661 0)
(-0.0259431 0.0502948 0)
(-0.0442605 0.0513069 0)
(-0.0620911 0.0483516 0)
(-0.0759872 0.0379722 0)
(-0.0837895 0.02273 0)
(-0.0866725 0.0100989 0)
(-0.0896097 0.00740188 0)
(-0.0929554 -0.00226274 0)
(-0.0919749 -0.0151452 0)
(-0.0868351 -0.0239554 0)
(-0.0863354 -0.0277764 0)
(-0.0901313 -0.0424609 0)
(-0.113384 -0.0747566 0)
(-0.1509 -0.0776201 0)
(-0.0404967 0.0246903 0)
(-0.119033 0.0282283 0)
(-0.202011 0.0396208 0)
(-0.274319 0.0286371 0)
(-0.267674 -0.0237229 0)
(-0.185937 -0.027057 0)
(-0.112653 0.00582566 0)
(-0.0749026 0.031459 0)
(-0.0593378 0.0491701 0)
(-0.0575651 0.0609862 0)
(-0.0621093 0.0637718 0)
(-0.0669295 0.0587402 0)
(-0.0698239 0.0444942 0)
(-0.0738615 0.0281193 0)
(-0.0817227 0.0155108 0)
(-0.0927075 0.0159846 0)
(-0.101602 0.00145875 0)
(-0.102852 -0.0185952 0)
(-0.101256 -0.0272766 0)
(-0.107338 -0.0188445 0)
(-0.126287 -0.0285283 0)
(-0.170675 -0.020696 0)
(-0.249097 -0.0151368 0)
(-0.013399 0.0789151 0)
(-0.0393791 0.0791615 0)
(-0.0649341 0.0978986 0)
(-0.0867931 0.0651538 0)
(-0.104727 -0.0487212 0)
(-0.126813 -0.0618176 0)
(-0.155235 -0.00427447 0)
(-0.170869 0.0196111 0)
(-0.163866 0.0386729 0)
(-0.163898 0.0701358 0)
(-0.176918 0.072728 0)
(-0.182062 0.0602613 0)
(-0.177615 0.0418277 0)
(-0.162474 0.0199357 0)
(-0.13439 0.00353273 0)
(-0.102347 0.00685033 0)
(-0.0756188 -0.00730708 0)
(-0.0626761 -0.0215686 0)
(-0.0645859 -0.0239837 0)
(-0.0748927 -0.00566106 0)
(-0.0876738 -0.00981326 0)
(-0.104088 0.02171 0)
(-0.12544 0.0427521 0)
(0.00358387 0.0888285 0)
(0.0107965 0.0882073 0)
(0.0285217 0.0968174 0)
(0.0493016 0.0674138 0)
(0.0160198 0.000595426 0)
(-0.0760285 0.00368823 0)
(-0.162224 0.0455394 0)
(-0.221839 0.0455573 0)
(-0.26587 0.0500979 0)
(-0.300402 0.0936725 0)
(-0.334443 0.0968438 0)
(-0.366376 0.073904 0)
(-0.382553 0.0405263 0)
(-0.367746 -0.0083501 0)
(-0.326113 -0.0378618 0)
(-0.290858 -0.0191647 0)
(-0.260586 -0.0384519 0)
(-0.20099 -0.0632737 0)
(-0.124094 -0.0576678 0)
(-0.0676555 -0.0183807 0)
(-0.0406467 -0.011399 0)
(-0.0387206 0.037879 0)
(-0.0620672 0.0715323 0)
(-0.0139517 0.0992977 0)
(-0.041123 0.0978955 0)
(-0.0673934 0.0958136 0)
(-0.0965834 0.0769662 0)
(-0.128315 0.0564897 0)
(-0.155075 0.0673165 0)
(-0.175745 0.0894286 0)
(-0.207094 0.0932033 0)
(-0.256825 0.0968007 0)
(-0.303532 0.128736 0)
(-0.351996 0.144837 0)
(-0.427396 0.133969 0)
(-0.519127 0.089157 0)
(-0.618976 0.0287756 0)
(-0.72842 -0.00653058 0)
(-0.811134 -0.00254788 0)
(-0.817554 -0.0788761 0)
(-0.7452 -0.155377 0)
(-0.628684 -0.159943 0)
(-0.505759 -0.0963619 0)
(-0.392708 -0.0740072 0)
(-0.291998 -0.00234984 0)
(-0.198112 0.0408653 0)
(-0.00380676 0.117196 0)
(-0.0121187 0.11576 0)
(-0.0223832 0.114769 0)
(-0.0395397 0.104693 0)
(-0.0728114 0.0941992 0)
(-0.118373 0.102401 0)
(-0.16153 0.118599 0)
(-0.197131 0.131429 0)
(-0.228417 0.140111 0)
(-0.258974 0.163192 0)
(-0.290741 0.19113 0)
(-0.335741 0.20881 0)
(-0.407325 0.178592 0)
(-0.522345 0.155437 0)
(-0.693022 0.148502 0)
(-0.883234 0.116884 0)
(-1.08951 0.0156056 0)
(-1.37474 -0.0357512 0)
(-1.74593 -0.0234346 0)
(-2.11458 0.0142937 0)
(-2.3024 -0.109168 0)
(-2.15638 -0.214537 0)
(-1.75834 -0.240687 0)
(-0.0120061 0.133138 0)
(-0.0361884 0.132575 0)
(-0.060365 0.132669 0)
(-0.085422 0.129322 0)
(-0.111651 0.129477 0)
(-0.137188 0.138687 0)
(-0.16166 0.15039 0)
(-0.188321 0.162321 0)
(-0.220012 0.172622 0)
(-0.253791 0.195451 0)
(-0.283545 0.220811 0)
(-0.311116 0.252181 0)
(-0.350228 0.2466 0)
(-0.415334 0.2686 0)
(-0.523356 0.3156 0)
(-0.705628 0.324328 0)
(-1.01186 0.323457 0)
(-1.45784 0.391552 0)
(-1.96564 0.432979 0)
(-2.42007 0.385369 0)
(-2.67636 -0.0336268 0)
(-2.63704 -0.475493 0)
(-2.39993 -0.615154 0)
(-0.00681683 0.152106 0)
(-0.0209928 0.152259 0)
(-0.0367927 0.153263 0)
(-0.0557968 0.153112 0)
(-0.0795024 0.155976 0)
(-0.106475 0.165065 0)
(-0.133994 0.176369 0)
(-0.161594 0.190981 0)
(-0.190267 0.204739 0)
(-0.221104 0.228386 0)
(-0.253216 0.250164 0)
(-0.286956 0.284561 0)
(-0.332366 0.299287 0)
(-0.393546 0.342964 0)
(-0.467014 0.423782 0)
(-0.568468 0.501465 0)
(-0.726561 0.613189 0)
(-0.954172 0.779058 0)
(-1.21365 0.816902 0)
(-1.42562 0.671429 0)
(-1.57153 0.0847291 0)
(-1.67031 -0.533327 0)
(-1.71344 -0.746938 0)
(-0.00996823 0.169025 0)
(-0.029859 0.169677 0)
(-0.0495603 0.171624 0)
(-0.069484 0.173974 0)
(-0.0898901 0.179548 0)
(-0.110236 0.189152 0)
(-0.130387 0.200294 0)
(-0.151251 0.215869 0)
(-0.173608 0.231244 0)
(-0.197659 0.257153 0)
(-0.223572 0.279825 0)
(-0.250427 0.315912 0)
(-0.281913 0.345338 0)
(-0.318863 0.395662 0)
(-0.352053 0.478408 0)
(-0.38163 0.578668 0)
(-0.406586 0.720107 0)
(-0.430764 0.925372 0)
(-0.494527 0.995667 0)
(-0.637881 0.849993 0)
(-0.886152 0.302539 0)
(-1.19794 -0.338133 0)
(-1.4173 -0.675041 0)
(-0.00680575 0.185932 0)
(-0.0206984 0.186821 0)
(-0.0355662 0.189321 0)
(-0.0519021 0.192818 0)
(-0.0697339 0.199234 0)
(-0.0885545 0.208931 0)
(-0.107688 0.220098 0)
(-0.127295 0.236842 0)
(-0.147499 0.253151 0)
(-0.168237 0.280366 0)
(-0.190433 0.305072 0)
(-0.213813 0.341263 0)
(-0.238875 0.376934 0)
(-0.265843 0.428424 0)
(-0.287715 0.501104 0)
(-0.299176 0.597338 0)
(-0.289638 0.717054 0)
(-0.235759 0.898694 0)
(-0.158076 1.00849 0)
(-0.151468 0.974778 0)
(-0.363086 0.640192 0)
(-0.788088 0.0649937 0)
(-1.16303 -0.480565 0)
(-0.00778744 0.200646 0)
(-0.0233749 0.20183 0)
(-0.0389608 0.205014 0)
(-0.0545557 0.209313 0)
(-0.0699621 0.216242 0)
(-0.0850332 0.226083 0)
(-0.0997253 0.23704 0)
(-0.114192 0.254245 0)
(-0.128546 0.27058 0)
(-0.142314 0.297719 0)
(-0.155862 0.323747 0)
(-0.169418 0.359816 0)
(-0.182898 0.397226 0)
(-0.195457 0.44797 0)
(-0.202313 0.510544 0)
(-0.198249 0.595445 0)
(-0.177904 0.689025 0)
(-0.128298 0.822819 0)
(-0.0526237 0.930334 0)
(0.00127702 0.992242 0)
(-0.0717349 0.908985 0)
(-0.385384 0.538841 0)
(-0.854625 -0.105702 0)
(-0.0058878 0.214437 0)
(-0.0177818 0.215753 0)
(-0.0298981 0.219027 0)
(-0.0422485 0.223481 0)
(-0.0547405 0.230209 0)
(-0.0673443 0.240027 0)
(-0.0797287 0.250406 0)
(-0.0916952 0.267544 0)
(-0.103092 0.28326 0)
(-0.113081 0.309015 0)
(-0.121259 0.334387 0)
(-0.127571 0.369248 0)
(-0.131908 0.405807 0)
(-0.133774 0.453995 0)
(-0.130401 0.508127 0)
(-0.116764 0.580179 0)
(-0.0878377 0.654878 0)
(-0.036211 0.755323 0)
(0.0416796 0.843587 0)
(0.131407 0.93474 0)
(0.187609 0.983519 0)
(0.0784912 0.889416 0)
(-0.322064 0.418188 0)
(-0.00581726 0.226247 0)
(-0.0173623 0.227592 0)
(-0.0286889 0.230841 0)
(-0.0398081 0.235347 0)
(-0.0504965 0.241732 0)
(-0.0606399 0.251458 0)
(-0.070032 0.260955 0)
(-0.0783918 0.277518 0)
(-0.0856194 0.292099 0)
(-0.0911069 0.315828 0)
(-0.0942464 0.339046 0)
(-0.094503 0.371288 0)
(-0.0911148 0.40482 0)
(-0.0829747 0.448778 0)
(-0.0682202 0.495226 0)
(-0.0443343 0.555469 0)
(-0.00895592 0.61506 0)
(0.0416422 0.692498 0)
(0.110029 0.75949 0)
(0.19939 0.838938 0)
(0.310166 0.911598 0)
(0.406838 0.973978 0)
(0.358028 0.785468 0)
(-0.00449451 0.236655 0)
(-0.0134242 0.237851 0)
(-0.0221742 0.240849 0)
(-0.0307294 0.245202 0)
(-0.03886 0.250881 0)
(-0.0464542 0.260227 0)
(-0.0531727 0.268469 0)
(-0.0586301 0.283983 0)
(-0.0625661 0.296948 0)
(-0.0643669 0.318398 0)
(-0.0634508 0.338805 0)
(-0.0591621 0.367572 0)
(-0.0505262 0.396547 0)
(-0.0366086 0.434978 0)
(-0.0159616 0.473543 0)
(0.013634 0.523497 0)
(0.0542222 0.570777 0)
(0.109345 0.630621 0)
(0.180133 0.681581 0)
(0.269156 0.737651 0)
(0.382903 0.787312 0)
(0.528929 0.854426 0)
(0.67267 0.809723 0)
(-0.00410627 0.245343 0)
(-0.0122424 0.246402 0)
(-0.0201684 0.249146 0)
(-0.027793 0.253255 0)
(-0.0347527 0.258083 0)
(-0.0408402 0.266865 0)
(-0.0457039 0.273561 0)
(-0.0490065 0.287784 0)
(-0.0503791 0.298572 0)
(-0.0493351 0.317625 0)
(-0.0452748 0.334667 0)
(-0.0374471 0.359624 0)
(-0.0249286 0.383326 0)
(-0.00649733 0.415778 0)
(0.0188143 0.446643 0)
(0.0524742 0.486913 0)
(0.0953299 0.523587 0)
(0.149428 0.568128 0)
(0.215793 0.606317 0)
(0.295418 0.643501 0)
(0.39044 0.671719 0)
(0.50912 0.70405 0)
(0.63471 0.689485 0)
(-0.00316835 0.252697 0)
(-0.00939294 0.253567 0)
(-0.0153193 0.255988 0)
(-0.020831 0.2597 0)
(-0.0255902 0.263501 0)
(-0.0294329 0.271512 0)
(-0.0320154 0.276484 0)
(-0.0329982 0.289255 0)
(-0.0318227 0.297386 0)
(-0.0280332 0.31404 0)
(-0.0210517 0.327242 0)
(-0.0101881 0.348351 0)
(0.00514521 0.366695 0)
(0.0260896 0.392924 0)
(0.0533719 0.416727 0)
(0.0885719 0.44771 0)
(0.132516 0.475639 0)
(0.186355 0.50768 0)
(0.250702 0.535479 0)
(0.325034 0.559688 0)
(0.408663 0.576061 0)
(0.50207 0.586629 0)
(0.603009 0.579311 0)
(-0.00284493 0.258782 0)
(-0.00842351 0.259427 0)
(-0.0137079 0.261478 0)
(-0.0185731 0.264722 0)
(-0.0226831 0.267476 0)
(-0.025763 0.274578 0)
(-0.0274051 0.277747 0)
(-0.027242 0.288899 0)
(-0.0247121 0.294102 0)
(-0.0193677 0.308229 0)
(-0.0105185 0.317228 0)
(0.00263103 0.334316 0)
(0.020518 0.347426 0)
(0.0439689 0.367657 0)
(0.0733772 0.385101 0)
(0.109799 0.407437 0)
(0.153647 0.42776 0)
(0.205542 0.449374 0)
(0.265853 0.46858 0)
(0.333832 0.483639 0)
(0.408014 0.493583 0)
(0.487718 0.495202 0)
(0.567923 0.48876 0)
(-0.00228296 0.263975 0)
(-0.00670148 0.264361 0)
(-0.0107631 0.266018 0)
(-0.0142975 0.268705 0)
(-0.0169954 0.270416 0)
(-0.0184976 0.276324 0)
(-0.0184529 0.277687 0)
(-0.0165284 0.286942 0)
(-0.0122042 0.289252 0)
(-0.00511616 0.300665 0)
(0.00532103 0.305489 0)
(0.0197255 0.318443 0)
(0.0386696 0.326364 0)
(0.0629361 0.340843 0)
(0.0930008 0.352224 0)
(0.129718 0.366887 0)
(0.173324 0.380495 0)
(0.22402 0.39361 0)
(0.281616 0.405921 0)
(0.345111 0.41424 0)
(0.412771 0.420504 0)
(0.483229 0.417442 0)
(0.551361 0.417517 0)
(-0.00223444 0.268554 0)
(-0.00657318 0.268661 0)
(-0.0105381 0.269862 0)
(-0.0138876 0.271857 0)
(-0.0163311 0.272509 0)
(-0.0174462 0.276939 0)
(-0.0169853 0.276642 0)
(-0.0145808 0.283715 0)
(-0.00970646 0.283313 0)
(-0.00188222 0.291695 0)
(0.00954154 0.292567 0)
(0.025028 0.301402 0)
(0.0451551 0.304215 0)
(0.0704077 0.313301 0)
(0.101261 0.318617 0)
(0.138245 0.326498 0)
(0.181543 0.333619 0)
(0.23127 0.339634 0)
(0.287053 0.346022 0)
(0.348243 0.348901 0)
(0.413278 0.352554 0)
(0.48096 0.346631 0)
(0.548477 0.352074 0)
(-0.00231331 0.273163 0)
(-0.00685445 0.273053 0)
(-0.0109574 0.273654 0)
(-0.0142583 0.274824 0)
(-0.0165389 0.274366 0)
(-0.0173025 0.277047 0)
(-0.0163082 0.275148 0)
(-0.0130506 0.279594 0)
(-0.00709164 0.276621 0)
(0.00185971 0.281601 0)
(0.0143 0.278751 0)
(0.0306391 0.283307 0)
(0.0515419 0.281148 0)
(0.0772708 0.285203 0)
(0.108485 0.284408 0)
(0.145504 0.286405 0)
(0.188349 0.287206 0)
(0.237122 0.287122 0)
(0.291268 0.288123 0)
(0.350259 0.286086 0)
(0.412651 0.287373 0)
(0.477038 0.279151 0)
(0.541686 0.286797 0)
(-0.00266747 0.278205 0)
(-0.00799009 0.277997 0)
(-0.0128347 0.277776 0)
(-0.0167779 0.278056 0)
(-0.0196977 0.276433 0)
(-0.0210334 0.277162 0)
(-0.0204959 0.273566 0)
(-0.0175454 0.275009 0)
(-0.0118145 0.269529 0)
(-0.00302449 0.270935 0)
(0.00929337 0.264607 0)
(0.0255408 0.264772 0)
(0.0464268 0.257755 0)
(0.0722715 0.256834 0)
(0.103787 0.249802 0)
(0.14107 0.246405 0)
(0.184265 0.240802 0)
(0.233518 0.235075 0)
(0.288243 0.230819 0)
(0.348056 0.224055 0)
(0.411886 0.222614 0)
(0.478501 0.212317 0)
(0.546803 0.220081 0)
(-0.00355657 0.284496 0)
(-0.0106853 0.284291 0)
(-0.0172982 0.283068 0)
(-0.022901 0.282429 0)
(-0.027343 0.27953 0)
(-0.0300001 0.278149 0)
(-0.0306152 0.272728 0)
(-0.0286705 0.270998 0)
(-0.0237607 0.262916 0)
(-0.0154082 0.260388 0)
(-0.00291116 0.250282 0)
(0.0139918 0.245848 0)
(0.0356392 0.233999 0)
(0.0623431 0.227844 0)
(0.0947412 0.214623 0)
(0.132807 0.205921 0)
(0.176843 0.193679 0)
(0.226942 0.182409 0)
(0.282508 0.172701 0)
(0.343348 0.160974 0)
(0.40858 0.156046 0)
(0.476896 0.143336 0)
(0.547332 0.149689 0)
(-0.00460969 0.292738 0)
(-0.0137959 0.292515 0)
(-0.0224191 0.290226 0)
(-0.030005 0.288595 0)
(-0.0363375 0.284261 0)
(-0.0408816 0.280723 0)
(-0.0434413 0.273412 0)
(-0.0434552 0.268441 0)
(-0.0405128 0.257649 0)
(-0.0341802 0.250963 0)
(-0.0238119 0.236792 0)
(-0.00900341 0.227531 0)
(0.0108129 0.210708 0)
(0.0361359 0.19891 0)
(0.0675796 0.179456 0)
(0.105276 0.165007 0)
(0.149805 0.145644 0)
(0.201185 0.128513 0)
(0.259089 0.112613 0)
(0.323601 0.0951361 0)
(0.393839 0.0857901 0)
(0.468395 0.0700579 0)
(0.546251 0.0739876 0)
(-0.00607511 0.30351 0)
(-0.0181255 0.303153 0)
(-0.0296816 0.299935 0)
(-0.0403761 0.297325 0)
(-0.0499149 0.291549 0)
(-0.057816 0.286009 0)
(-0.0637606 0.276739 0)
(-0.0670842 0.268534 0)
(-0.0672572 0.254837 0)
(-0.0636304 0.24383 0)
(-0.0555774 0.225476 0)
(-0.0425831 0.210968 0)
(-0.0239615 0.188701 0)
(0.000804343 0.170636 0)
(0.0322466 0.144586 0)
(0.0705875 0.123513 0)
(0.116363 0.0964361 0)
(0.169425 0.0728075 0)
(0.229857 0.0494402 0)
(0.297979 0.0250588 0)
(0.372847 0.0100819 0)
(0.4533 -0.0099726 0)
(0.538611 -0.00991976 0)
(-0.0076966 0.317383 0)
(-0.0229263 0.316763 0)
(-0.0377181 0.312872 0)
(-0.0517444 0.309299 0)
(-0.0646127 0.30216 0)
(-0.0758799 0.294728 0)
(-0.0851647 0.28339 0)
(-0.091916 0.272071 0)
(-0.0957518 0.255392 0)
(-0.0960946 0.240037 0)
(-0.0923893 0.217512 0)
(-0.0840664 0.197567 0)
(-0.0704206 0.169731 0)
(-0.0506886 0.144942 0)
(-0.0240073 0.11192 0)
(0.0103472 0.0831722 0)
(0.0534147 0.0475397 0)
(0.105503 0.0160736 0)
(0.167267 -0.016588 0)
(0.238719 -0.0491446 0)
(0.318656 -0.0712538 0)
(0.406655 -0.0978935 0)
(0.502343 -0.103866 0)
(-0.0093134 0.334511 0)
(-0.0277981 0.333583 0)
(-0.0459944 0.329269 0)
(-0.0636423 0.324798 0)
(-0.0803833 0.316482 0)
(-0.0958643 0.307352 0)
(-0.109683 0.294049 0)
(-0.121277 0.279912 0)
(-0.130136 0.260372 0)
(-0.135488 0.240841 0)
(-0.136532 0.214094 0)
(-0.132295 0.188422 0)
(-0.121876 0.154749 0)
(-0.104599 0.122785 0)
(-0.0799964 0.0825891 0)
(-0.0475328 0.0454008 0)
(-0.00625788 0.000593607 0)
(0.0444995 -0.040297 0)
(0.10609 -0.0841487 0)
(0.178572 -0.126202 0)
(0.261472 -0.157815 0)
(0.355549 -0.19429 0)
(0.460307 -0.208891 0)
(-0.0111558 0.355114 0)
(-0.033343 0.353918 0)
(-0.0552891 0.34934 0)
(-0.0767351 0.34408 0)
(-0.0973285 0.334784 0)
(-0.116749 0.324189 0)
(-0.134615 0.309117 0)
(-0.150413 0.292435 0)
(-0.163656 0.270124 0)
(-0.173694 0.246616 0)
(-0.179995 0.215759 0)
(-0.181875 0.184446 0)
(-0.178528 0.144947 0)
(-0.168908 0.105609 0)
(-0.151929 0.0580269 0)
(-0.126116 0.0114424 0)
(-0.0900521 -0.0431291 0)
(-0.0428258 -0.0950073 0)
(0.0168693 -0.151295 0)
(0.0889135 -0.204273 0)
(0.174211 -0.248756 0)
(0.274309 -0.298474 0)
(0.387757 -0.323987 0)
(-0.0126807 0.379101 0)
(-0.037977 0.377714 0)
(-0.0631908 0.373002 0)
(-0.0881645 0.367132 0)
(-0.112647 0.357095 0)
(-0.136383 0.345312 0)
(-0.159009 0.328749 0)
(-0.180051 0.309888 0)
(-0.198995 0.28508 0)
(-0.215129 0.258023 0)
(-0.227719 0.223395 0)
(-0.23581 0.186886 0)
(-0.238353 0.141755 0)
(-0.234002 0.0948115 0)
(-0.22152 0.0392665 0)
(-0.199783 -0.017539 0)
(-0.167879 -0.0824135 0)
(-0.124424 -0.14682 0)
(-0.0677034 -0.216447 0)
(0.00250319 -0.282056 0)
(0.0875347 -0.342133 0)
(0.188725 -0.407375 0)
(0.30555 -0.446499 0)
(-0.0145992 0.406547 0)
(-0.0437546 0.405052 0)
(-0.0728559 0.400311 0)
(-0.101767 0.394037 0)
(-0.130253 0.383484 0)
(-0.158082 0.370806 0)
(-0.184915 0.353022 0)
(-0.210354 0.332389 0)
(-0.233947 0.305389 0)
(-0.255057 0.275202 0)
(-0.273105 0.237066 0)
(-0.287359 0.195727 0)
(-0.297157 0.145372 0)
(-0.301577 0.0913146 0)
(-0.299404 0.028085 0)
(-0.288939 -0.0386747 0)
(-0.268413 -0.113928 0)
(-0.236478 -0.191035 0)
(-0.193353 -0.272545 0)
(-0.137664 -0.352455 0)
(-0.063568 -0.431635 0)
(0.0319953 -0.515595 0)
(0.149465 -0.573737 0)
(-0.0158217 0.43715 0)
(-0.0474997 0.435646 0)
(-0.0793264 0.431009 0)
(-0.111309 0.424597 0)
(-0.143353 0.413816 0)
(-0.175347 0.400654 0)
(-0.20705 0.382062 0)
(-0.238141 0.360221 0)
(-0.268214 0.331551 0)
(-0.296691 0.298932 0)
(-0.32295 0.257922 0)
(-0.346068 0.212485 0)
(-0.365 0.157544 0)
(-0.378506 0.0972123 0)
(-0.385164 0.0267442 0)
(-0.38384 -0.049135 0)
(-0.375229 -0.132705 0)
(-0.362221 -0.217385 0)
(-0.344245 -0.307564 0)
(-0.310049 -0.407734 0)
(-0.24629 -0.514874 0)
(-0.152484 -0.622659 0)
(-0.0320178 -0.705798 0)
(-0.0177095 0.470877 0)
(-0.0531945 0.469474 0)
(-0.0888877 0.465095 0)
(-0.124842 0.458845 0)
(-0.161021 0.44819 0)
(-0.197374 0.435027 0)
(-0.233719 0.416134 0)
(-0.269823 0.393738 0)
(-0.30537 0.36404 0)
(-0.339897 0.329819 0)
(-0.372897 0.286648 0)
(-0.403788 0.238095 0)
(-0.432238 0.179609 0)
(-0.458131 0.114799 0)
(-0.482016 0.0399048 0)
(-0.505541 -0.0399329 0)
(-0.530398 -0.125529 0)
(-0.552041 -0.215831 0)
(-0.550706 -0.328478 0)
(-0.506866 -0.465213 0)
(-0.424367 -0.604371 0)
(-0.317961 -0.734375 0)
(-0.193597 -0.840146 0)
(-0.018565 0.507361 0)
(-0.0558285 0.506159 0)
(-0.0934945 0.502192 0)
(-0.131793 0.496429 0)
(-0.170881 0.486305 0)
(-0.210913 0.473736 0)
(-0.251942 0.455241 0)
(-0.293942 0.433183 0)
(-0.33678 0.40343 0)
(-0.380211 0.368835 0)
(-0.424038 0.324902 0)
(-0.468001 0.275126 0)
(-0.511727 0.215172 0)
(-0.554932 0.148736 0)
(-0.598651 0.0739661 0)
(-0.64647 -0.00223516 0)
(-0.697857 -0.0865375 0)
(-0.727724 -0.202996 0)
(-0.704139 -0.366319 0)
(-0.63276 -0.543153 0)
(-0.539518 -0.703054 0)
(-0.435923 -0.846752 0)
(-0.321616 -0.967645 0)
(-0.0201971 0.546343 0)
(-0.0607934 0.545479 0)
(-0.101986 0.54218 0)
(-0.144168 0.537379 0)
(-0.187663 0.528405 0)
(-0.232724 0.517212 0)
(-0.27944 0.500006 0)
(-0.327809 0.479297 0)
(-0.377802 0.450671 0)
(-0.429385 0.417142 0)
(-0.482564 0.374148 0)
(-0.537527 0.32536 0)
(-0.595343 0.26705 0)
(-0.659369 0.204687 0)
(-0.735047 0.138076 0)
(-0.817443 0.064594 0)
(-0.873369 -0.0454485 0)
(-0.864789 -0.222649 0)
(-0.803595 -0.431856 0)
(-0.729112 -0.624208 0)
(-0.651774 -0.793433 0)
(-0.565026 -0.947672 0)
(-0.463732 -1.08341 0)
(-0.0207697 0.587541 0)
(-0.0625534 0.587125 0)
(-0.105064 0.584707 0)
(-0.148777 0.581228 0)
(-0.194115 0.573885 0)
(-0.241494 0.564688 0)
(-0.29137 0.54966 0)
(-0.344305 0.53151 0)
(-0.400876 0.505613 0)
(-0.461508 0.475035 0)
(-0.526559 0.435137 0)
(-0.59675 0.390213 0)
(-0.674086 0.338089 0)
(-0.760825 0.285236 0)
(-0.855034 0.228343 0)
(-0.936344 0.138932 0)
(-0.963021 -0.0367166 0)
(-0.927949 -0.275233 0)
(-0.872511 -0.496484 0)
(-0.815841 -0.691383 0)
(-0.748394 -0.871761 0)
(-0.665589 -1.03975 0)
(-0.566479 -1.19275 0)
(-0.0214688 0.630015 0)
(-0.0647869 0.630227 0)
(-0.109257 0.62907 0)
(-0.15571 0.627533 0)
(-0.204984 0.622716 0)
(-0.257855 0.616662 0)
(-0.314948 0.605246 0)
(-0.376753 0.591296 0)
(-0.443498 0.569817 0)
(-0.515461 0.544151 0)
(-0.593516 0.509905 0)
(-0.679762 0.472731 0)
(-0.777154 0.431244 0)
(-0.885816 0.38854 0)
(-0.990188 0.324698 0)
(-1.04647 0.180923 0)
(-1.0325 -0.0659067 0)
(-0.988264 -0.325744 0)
(-0.943546 -0.546625 0)
(-0.88906 -0.752944 0)
(-0.820784 -0.946601 0)
(-0.74062 -1.1287 0)
(-0.648007 -1.2965 0)
(-0.0221754 0.673901 0)
(-0.066929 0.6749 0)
(-0.112895 0.675333 0)
(-0.160797 0.676145 0)
(-0.21122 0.674349 0)
(-0.264763 0.672026 0)
(-0.322111 0.664947 0)
(-0.384056 0.656019 0)
(-0.451577 0.640089 0)
(-0.526157 0.621217 0)
(-0.609848 0.595458 0)
(-0.705207 0.569761 0)
(-0.813902 0.541407 0)
(-0.931837 0.506197 0)
(-1.03332 0.414006 0)
(-1.07449 0.189606 0)
(-1.05698 -0.106221 0)
(-1.02198 -0.365061 0)
(-0.978897 -0.595534 0)
(-0.92275 -0.815216 0)
(-0.857152 -1.01888 0)
(-0.782488 -1.21204 0)
(-0.696579 -1.3926 0)
(-0.0207997 0.717112 0)
(-0.0629442 0.719064 0)
(-0.106847 0.721531 0)
(-0.153907 0.725428 0)
(-0.205434 0.727572 0)
(-0.26255 0.730063 0)
(-0.326324 0.728689 0)
(-0.397929 0.726549 0)
(-0.478661 0.71861 0)
(-0.569693 0.709197 0)
(-0.671427 0.693896 0)
(-0.784468 0.680839 0)
(-0.90685 0.662645 0)
(-1.02544 0.622756 0)
(-1.10162 0.476065 0)
(-1.1092 0.17657 0)
(-1.0809 -0.139223 0)
(-1.04646 -0.401847 0)
(-1.0017 -0.647015 0)
(-0.947465 -0.874671 0)
(-0.886252 -1.08688 0)
(-0.817127 -1.28857 0)
(-0.738997 -1.48095 0)
(-0.0219211 0.760066 0)
(-0.0663605 0.763166 0)
(-0.112487 0.767949 0)
(-0.161281 0.775384 0)
(-0.213901 0.782326 0)
(-0.271743 0.790887 0)
(-0.336022 0.796608 0)
(-0.407686 0.802667 0)
(-0.487723 0.804122 0)
(-0.577939 0.805903 0)
(-0.681127 0.803205 0)
(-0.799236 0.803913 0)
(-0.927109 0.791165 0)
(-1.04178 0.728748 0)
(-1.10206 0.507264 0)
(-1.10013 0.151067 0)
(-1.07256 -0.169871 0)
(-1.03643 -0.442118 0)
(-0.990785 -0.697598 0)
(-0.93925 -0.930394 0)
(-0.882296 -1.14992 0)
(-0.819655 -1.35796 0)
(-0.750643 -1.55946 0)
(-0.017697 0.799898 0)
(-0.0539013 0.804413 0)
(-0.0925585 0.811943 0)
(-0.13503 0.823147 0)
(-0.182603 0.835295 0)
(-0.237152 0.850912 0)
(-0.301128 0.865525 0)
(-0.376972 0.882044 0)
(-0.466704 0.895417 0)
(-0.57148 0.910637 0)
(-0.692975 0.924347 0)
(-0.828603 0.937858 0)
(-0.96402 0.921916 0)
(-1.06885 0.818674 0)
(-1.11047 0.519773 0)
(-1.10126 0.127376 0)
(-1.07419 -0.201097 0)
(-1.03583 -0.485755 0)
(-0.98933 -0.746568 0)