/*--------------------------------*- C++ -*----------------------------------*\
| =========                 |                                                 |
| \\      /  F ield         | OpenFOAM: The Open Source CFD Toolbox           |
|  \\    /   O peration     | Version:  2012                                  |
|   \\  /    A nd           | Website:  www.openfoam.com                      |
|    \\/     M anipulation  |                                                 |
\*---------------------------------------------------------------------------*/
FoamFile
{
    version     2.0;
    format      ascii;
    class       volScalarField;
    location    "0.6";
    object      minKappa;
}
// * * * * * * * * * * * * * * * * * * * * * * * * * * * * * * * * * * * * * //

dimensions      [0 0 0 0 0 0 0];


internalField   nonuniform List<scalar> 
160
(
1.205475287e-05
1.205475287e-05
1.855854498e-05
3.508943926e-05
5.011863153e-05
6.459447808e-05
7.743373029e-05
9.378996261e-05
0.000107579766
0.0001262407585
0.0001417746698
0.0001627019476
0.0001805050351
0.0002032568753
0.0002238734653
0.0002470437407
0.0002738864762
0.0002876834262
0.0003361175699
0.0003685275722
0.0003679974755
0.0003679974755
0.0003789457056
0.0003789457056
0.000323760417
0.000323760417
0.0003479461528
0.0005017882642
0.0005017882642
0.0005548264362
0.0005548264362
0.0005651962729
0.0005651962729
0.0005589994654
0.0005589994654
0.0005609058689
0.0005609058689
0.000570750418
0.0007728695359
0.0007742847683
0.0008509371504
0.0008499040617
0.0008499040617
0.0008440088267
0.0008244727914
0.0007792015193
0.000718662992
0.0006253713011
0.0005112322132
0.0003934406787
0.000294545924
0.0002183218683
0.000161451047
0.0001219296946
9.480466723e-05
8.223363093e-05
7.904213374e-05
7.904213374e-05
7.958257304e-05
8.559055275e-05
0.0001007012619
0.0001344461036
0.0001901123454
0.0002722859513
0.0003820169073
0.0005177342398
0.000651954022
0.0007690604883
0.000860513669
0.0009281204681
0.000981938686
0.001018787832
0.00105003297
0.001063035281
0.001074812302
0.001074812302
0.001062163117
0.001045929921
0.0009845265639
0.0009142595503
0.0008439853152
0.0007852218999
0.0007650716627
0.0007403396468
0.000729803922
0.0007137253469
0.0007029610519
0.000689609256
0.0006783957324
0.0006663095027
0.000654364644
0.0006425411131
0.0006308564652
0.0006200967192
0.0006115144748
0.0006044048574
0.0005931828191
0.0005833804174
0.0005717591551
0.0005566560624
0.000548617096
0.0005399139428
0.0005291063066
0.0005284725097
0.0005180451944
0.0005016276209
0.000493036534
0.0004814761749
0.0004731343901
0.0004618629346
0.0004584177066
0.0004447888803
0.0004390453818
0.0004287464293
0.0004251291691
0.0004155559384
0.0003985090424
0.0003915319215
0.0003807332746
0.0003772910857
0.0003626263153
0.0003566966091
0.0003460388322
0.0003366978158
0.0003282974122
0.000316520792
0.0003093521427
0.00030567473
0.0002959157332
0.0002828574071
0.0002735014302
0.0002631005772
0.000254823885
0.0002444231871
0.0002392942083
0.0002262656524
0.0002200913543
0.0002097773245
0.0002014162071
0.0001910226783
0.0001794960976
0.000170544188
0.0001610975943
0.0001524799822
0.0001426008295
0.0001332351583
0.0001224992108
0.0001169210792
0.0001032471174
9.565343372e-05
8.594190445e-05
7.905663478e-05
6.684622875e-05
5.774660701e-05
4.794067821e-05
3.799471033e-05
2.937477237e-05
1.632258597e-05
1.230626391e-05
1.230626391e-05
)
;

boundaryField
{
    sides
    {
        type            calculated;
        value           uniform 0;
    }
    empty1
    {
        type            empty;
    }
    empty2
    {
        type            empty;
    }
}


// ************************************************************************* //
