/*--------------------------------*- C++ -*----------------------------------*\
| =========                 |                                                 |
| \\      /  F ield         | OpenFOAM: The Open Source CFD Toolbox           |
|  \\    /   O peration     | Version:  2012                                  |
|   \\  /    A nd           | Website:  www.openfoam.com                      |
|    \\/     M anipulation  |                                                 |
\*---------------------------------------------------------------------------*/
FoamFile
{
    version     2.0;
    format      ascii;
    class       volScalarField;
    location    "0.6";
    object      rho;
}
// * * * * * * * * * * * * * * * * * * * * * * * * * * * * * * * * * * * * * //

dimensions      [1 -3 0 0 0 0 0];


internalField   nonuniform List<scalar> 
160
(
2.608807768
2.608911119
2.609087965
2.609618729
2.609994653
2.611322706
2.61199966
2.614145148
2.61520004
2.618462914
2.620026636
2.624776656
2.626996737
2.633622599
2.636631358
2.645524731
2.649300587
2.661238543
2.664654491
2.680145469
2.68544019
2.702954354
2.709024999
2.727395221
2.734093646
2.740678236
2.755799031
2.762891213
2.786166026
2.797473422
2.828485039
2.85149151
2.90166729
2.958970355
3.058532076
3.452015274
3.412122299
3.501929271
3.884506865
5.027792267
8.183357956
15.45346864
28.0975553
49.43757334
82.16414734
130.4555216
199.5422848
296.3397503
420.9058589
565.5675778
694.8102003
795.1741044
870.9438475
924.6926922
960.740191
982.5689758
992.1242811
993.4875248
990.7967634
980.3577811
956.2059723
911.9170779
841.7065428
742.4366979
615.7973864
470.4507536
342.159865
240.6669827
166.3572989
112.1076312
71.86485685
44.41328872
26.76654161
16.04528698
9.889029479
6.353286019
4.249511069
2.880379169
1.996926163
1.486341777
1.245491868
1.149941908
1.115159825
1.102465524
1.09676342
1.09456228
1.093239119
1.09304396
1.092806086
1.093043264
1.09305888
1.093277926
1.093302119
1.093347114
1.09332458
1.093294373
1.093240607
1.093194037
1.093073585
1.092981417
1.092773878
1.092643642
1.09237349
1.092263071
1.092045983
1.091890272
1.091770441
1.091436406
1.091277102
1.090919394
1.090832341
1.090425383
1.090276635
1.089941562
1.089817445
1.08967171
1.089423918
1.089300231
1.088997122
1.088928378
1.088574785
1.088409309
1.088119347
1.088002279
1.087749058
1.08763122
1.087414959
1.087326552
1.087186382
1.087100905
1.087037815
1.086873325
1.086799132
1.086636601
1.086599429
1.086450234
1.086393508
1.086272736
1.08623711
1.086190419
1.086116749
1.086076288
1.085988985
1.085949997
1.085874769
1.085839846
1.085777868
1.085775595
1.085728137
1.085689057
1.08562385
1.085613285
1.085586704
1.085582782
1.08556746
1.085551973
1.085549509
1.085531047
1.085545642
1.085563598
)
;

boundaryField
{
    sides
    {
        type            calculated;
        value           nonuniform List<scalar> 2(1.085563598 2.608807768);
    }
    empty1
    {
        type            empty;
    }
    empty2
    {
        type            empty;
    }
}


// ************************************************************************* //
