/*--------------------------------*- C++ -*----------------------------------*\
| =========                 |                                                 |
| \\      /  F ield         | OpenFOAM: The Open Source CFD Toolbox           |
|  \\    /   O peration     | Version:  2012                                  |
|   \\  /    A nd           | Website:  www.openfoam.com                      |
|    \\/     M anipulation  |                                                 |
\*---------------------------------------------------------------------------*/
FoamFile
{
    version     2.0;
    format      ascii;
    class       volScalarField;
    location    "0.6";
    object      rho1;
}
// * * * * * * * * * * * * * * * * * * * * * * * * * * * * * * * * * * * * * //

dimensions      [1 -3 0 0 0 0 0];


internalField   nonuniform List<scalar> 
160
(
1033.107979
1033.107983
1033.107991
1033.108013
1033.108028
1033.108083
1033.108111
1033.1082
1033.108244
1033.108379
1033.108444
1033.10864
1033.108732
1033.109006
1033.109131
1033.109499
1033.109655
1033.110149
1033.110291
1033.110932
1033.111151
1033.111876
1033.112126
1033.112884
1033.113117
1033.113412
1033.114042
1033.114325
1033.115244
1033.115587
1033.116578
1033.116871
1033.11778
1033.1181
1033.118915
1033.119167
1033.119491
1033.120073
1033.120378
1033.121328
1033.121666
1033.122406
1033.12302
1033.123312
1033.124284
1033.124502
1033.125455
1033.12534
1033.123739
1033.122915
1033.11939
1033.117027
1033.112218
1033.108563
1033.103176
1033.098623
1033.093096
1033.08796
1033.082595
1033.076974
1033.07202
1033.066174
1033.061957
1033.056689
1033.053629
1033.04983
1033.048145
1033.045883
1033.045333
1033.044127
1033.043972
1033.044074
1033.044036
1033.044195
1033.044266
1033.044447
1033.044538
1033.04471
1033.044789
1033.044911
1033.04496
1033.045031
1033.045057
1033.045106
1033.045123
1033.045161
1033.045175
1033.045203
1033.045212
1033.045232
1033.045237
1033.045249
1033.045251
1033.045253
1033.045253
1033.045252
1033.045249
1033.045248
1033.045243
1033.045239
1033.04523
1033.045225
1033.045214
1033.045209
1033.0452
1033.045194
1033.045189
1033.045175
1033.045168
1033.045153
1033.04515
1033.045133
1033.045127
1033.045113
1033.045108
1033.045102
1033.045092
1033.045086
1033.045074
1033.045071
1033.045056
1033.04505
1033.045038
1033.045033
1033.045022
1033.045017
1033.045008
1033.045005
1033.044999
1033.044995
1033.044993
1033.044986
1033.044983
1033.044976
1033.044975
1033.044968
1033.044966
1033.044961
1033.04496
1033.044958
1033.044955
1033.044953
1033.044949
1033.044948
1033.044945
1033.044943
1033.044941
1033.044941
1033.044939
1033.044937
1033.044934
1033.044934
1033.044933
1033.044933
1033.044932
1033.044931
1033.044931
1033.04493
1033.044931
1033.044932
)
;

boundaryField
{
    sides
    {
        type            calculated;
        value           nonuniform List<scalar> 2(1033.044932 1033.107979);
    }
    empty1
    {
        type            empty;
    }
    empty2
    {
        type            empty;
    }
}


// ************************************************************************* //
