/*--------------------------------*- C++ -*----------------------------------*\
| =========                 |                                                 |
| \\      /  F ield         | OpenFOAM: The Open Source CFD Toolbox           |
|  \\    /   O peration     | Version:  2012                                  |
|   \\  /    A nd           | Website:  www.openfoam.com                      |
|    \\/     M anipulation  |                                                 |
\*---------------------------------------------------------------------------*/
FoamFile
{
    version     2.0;
    format      ascii;
    class       volScalarField;
    location    "0.6";
    object      rho2;
}
// * * * * * * * * * * * * * * * * * * * * * * * * * * * * * * * * * * * * * //

dimensions      [1 -3 0 0 0 0 0];


internalField   nonuniform List<scalar> 
160
(
2.608807768
2.608911119
2.609087965
2.609618729
2.609994653
2.611322706
2.61199966
2.614145148
2.61520004
2.618462914
2.620026636
2.624776656
2.626996736
2.633622598
2.636631354
2.645524719
2.649300545
2.661238415
2.664654114
2.680144408
2.685437174
2.702946449
2.709002146
2.727309812
2.732935719
2.740073917
2.755283801
2.762112127
2.784338819
2.792612871
2.816545171
2.823632225
2.845600794
2.853325854
2.873012536
2.879109173
2.886945999
2.901007451
2.908355411
2.931308666
2.939479124
2.957365212
2.972209381
2.979262212
3.002732833
3.007998829
3.031015886
3.028260886
2.989564178
2.969663957
2.884507047
2.827395446
2.711228798
2.622900741
2.492760832
2.382763774
2.249215079
2.125130038
1.995519209
1.859723697
1.740026442
1.598774553
1.496907169
1.369614314
1.295680557
1.203903608
1.163200274
1.108539407
1.095259262
1.066114807
1.062375425
1.064828072
1.063933653
1.067753154
1.069473838
1.073855251
1.076056274
1.080201005
1.082115784
1.08506134
1.08623555
1.087955881
1.088589739
1.089762191
1.090195625
1.091110468
1.091430395
1.092118037
1.092340293
1.092814498
1.092947884
1.093224915
1.093276761
1.093334795
1.093318417
1.093291229
1.093238997
1.093193225
1.093073179
1.092981216
1.09277378
1.092643595
1.092373468
1.092263061
1.092045979
1.09189027
1.091770441
1.091436406
1.091277102
1.090919394
1.090832341
1.090425383
1.090276635
1.089941562
1.089817445
1.08967171
1.089423918
1.089300231
1.088997122
1.088928378
1.088574785
1.088409309
1.088119347
1.088002279
1.087749058
1.08763122
1.087414959
1.087326552
1.087186382
1.087100905
1.087037815
1.086873325
1.086799132
1.086636601
1.086599429
1.086450234
1.086393508
1.086272736
1.08623711
1.086190419
1.086116749
1.086076288
1.085988985
1.085949997
1.085874769
1.085839846
1.085777868
1.085775595
1.085728137
1.085689057
1.08562385
1.085613285
1.085586704
1.085582782
1.08556746
1.085551973
1.085549509
1.085531047
1.085545642
1.085563598
)
;

boundaryField
{
    sides
    {
        type            calculated;
        value           nonuniform List<scalar> 2(1.085563598 2.608807768);
    }
    empty1
    {
        type            empty;
    }
    empty2
    {
        type            empty;
    }
}


// ************************************************************************* //
