/*--------------------------------*- C++ -*----------------------------------*\
| =========                 |                                                 |
| \\      /  F ield         | OpenFOAM: The Open Source CFD Toolbox           |
|  \\    /   O peration     | Version:  2012                                  |
|   \\  /    A nd           | Website:  www.openfoam.com                      |
|    \\/     M anipulation  |                                                 |
\*---------------------------------------------------------------------------*/
FoamFile
{
    version     2.0;
    format      ascii;
    class       volScalarField;
    location    "0.6";
    object      T;
}
// * * * * * * * * * * * * * * * * * * * * * * * * * * * * * * * * * * * * * //

dimensions      [0 0 0 1 0 0 0];


internalField   nonuniform List<scalar> 
160
(
361.7150147
361.7120584
361.7082776
361.6070494
361.5889326
361.3543124
361.3236212
360.945232
360.8973819
360.3243982
360.2534542
359.4242186
359.323398
358.1752045
358.0384401
356.5138122
356.3349618
354.4188265
354.201721
351.8300739
351.5722424
348.8648216
348.5580167
345.5681107
345.2219535
344.7593066
342.1771005
341.8272766
338.4337419
338.0725182
334.689723
334.3420903
331.1324657
330.8227358
327.852356
327.5841528
327.2619178
324.8809021
324.6893696
321.2459156
321.0722505
317.7588428
316.8019634
316.6560086
311.3263908
311.1809062
305.8748436
305.734716
300.6817432
300.5496616
295.8479363
295.7253521
291.4073538
291.2944107
287.343854
287.239777
283.6109417
283.5143142
280.1433409
280.0523258
276.8647119
276.777206
273.6926414
273.6063615
270.5660657
270.4788275
270.378514
268.2124941
268.1357895
265.4573625
265.3800617
262.7310668
262.6540544
260.126241
260.0513373
257.8101282
257.7397799
255.9995845
255.9366951
254.9085997
254.8548275
254.3334766
254.2873177
253.92426
253.8856976
253.6013799
253.5710555
253.3563807
253.3341273
253.183232
253.1683491
253.0747913
253.0664272
253.0425902
253.0400039
253.0400541
253.0417603
253.0440339
253.0732213
253.0781864
253.1295679
253.1372847
253.2054777
253.2143502
253.2667858
253.2859527
253.2962034
253.3858905
253.3975019
253.4986093
253.5104881
253.6059148
253.6174771
253.7081604
253.7196786
253.7342807
253.8022075
253.8123614
253.8980258
253.9085896
253.9941294
254.0038296
254.0832989
254.0922394
254.1620926
254.1698229
254.2274053
254.2338528
254.2683686
254.27838
254.2836812
254.3273824
254.3327937
254.3754708
254.3802939
254.4167229
254.4205438
254.4465377
254.4492674
254.4531192
254.4707853
254.4735118
254.4946565
254.4970227
254.5153304
254.5175157
254.5399864
254.5432942
254.546083
254.5486926
254.5619541
254.5627606
254.568634
254.5696996
254.5702452
254.574387
254.574765
254.5766873
254.5765431
254.5764066
)
;

boundaryField
{
    sides
    {
        type            zeroGradient;
    }
    empty1
    {
        type            empty;
    }
    empty2
    {
        type            empty;
    }
}


// ************************************************************************* //
