/*--------------------------------*- C++ -*----------------------------------*\
| =========                 |                                                 |
| \\      /  F ield         | OpenFOAM: The Open Source CFD Toolbox           |
|  \\    /   O peration     | Version:  2012                                  |
|   \\  /    A nd           | Website:  www.openfoam.com                      |
|    \\/     M anipulation  |                                                 |
\*---------------------------------------------------------------------------*/
FoamFile
{
    version     2.0;
    format      ascii;
    class       volScalarField;
    location    "0.81";
    object      maxKappa;
}
// * * * * * * * * * * * * * * * * * * * * * * * * * * * * * * * * * * * * * //

dimensions      [0 0 0 0 0 0 0];


internalField   nonuniform List<scalar> 
2268
(
3.24396e-06
6.20624e-06
9.14994e-06
1.1908e-05
1.42756e-05
1.62203e-05
1.77827e-05
1.88519e-05
1.93755e-05
1.94274e-05
1.94274e-05
1.90663e-05
1.82685e-05
1.71731e-05
1.57803e-05
1.41483e-05
1.21437e-05
9.71625e-06
6.96326e-06
3.96238e-06
1.45739e-06
2.05893e-06
2.05893e-06
3.99646e-06
6.59271e-06
9.40598e-06
1.2085e-05
1.4416e-05
1.6353e-05
1.79002e-05
1.8937e-05
1.94495e-05
1.95098e-05
1.95098e-05
1.91345e-05
1.83302e-05
1.725e-05
1.5887e-05
1.42773e-05
1.23164e-05
9.94328e-06
7.30174e-06
4.44306e-06
2.173e-06
2.04505e-06
2.04505e-06
5.00207e-06
7.24131e-06
9.87641e-06
1.2461e-05
1.47568e-05
1.66838e-05
1.82158e-05
1.92421e-05
1.97427e-05
1.97555e-05
1.97555e-05
1.93319e-05
1.85209e-05
1.74469e-05
1.60926e-05
1.44925e-05
1.25483e-05
1.02578e-05
7.72043e-06
5.19774e-06
3.27064e-06
3.00506e-06
3.00506e-06
6.30421e-06
8.16336e-06
1.05597e-05
1.2969e-05
1.51643e-05
1.70597e-05
1.85672e-05
1.95363e-05
1.99934e-05
2.00038e-05
2.00038e-05
1.95691e-05
1.8759e-05
1.76927e-05
1.64064e-05
1.49215e-05
1.31754e-05
1.10802e-05
8.79373e-06
6.46155e-06
4.68707e-06
4.66427e-06
4.66427e-06
7.58159e-06
9.2171e-06
1.14538e-05
1.37437e-05
1.58741e-05
1.77359e-05
1.91955e-05
2.01311e-05
2.05508e-05
2.05508e-05
2.04678e-05
1.99617e-05
1.91409e-05
1.80795e-05
1.68147e-05
1.53782e-05
1.36916e-05
1.17767e-05
9.7029e-06
7.89728e-06
6.73664e-06
6.5791e-06
6.5791e-06
9.11129e-06
1.04698e-05
1.2459e-05
1.45335e-05
1.65325e-05
1.8371e-05
1.98259e-05
2.06842e-05
2.10248e-05
2.10248e-05
2.09151e-05
2.03707e-05
1.94956e-05
1.8415e-05
1.72737e-05
1.60433e-05
1.46773e-05
1.30858e-05
1.14121e-05
9.98275e-06
9.09569e-06
9.63566e-06
9.63566e-06
1.05448e-05
1.18122e-05
1.36997e-05
1.56676e-05
1.75653e-05
1.92969e-05
2.0653e-05
2.1507e-05
2.18271e-05
2.18271e-05
2.15796e-05
2.09378e-05
2.00458e-05
1.9013e-05
1.79528e-05
1.68183e-05
1.55048e-05
1.41099e-05
1.28477e-05
1.22646e-05
1.19022e-05
1.18374e-05
1.18374e-05
1.22708e-05
1.33232e-05
1.49756e-05
1.67951e-05
1.87248e-05
2.06017e-05
2.196e-05
2.25534e-05
2.25938e-05
2.25938e-05
2.22597e-05
2.15495e-05
2.04997e-05
1.94027e-05
1.85138e-05
1.76655e-05
1.67076e-05
1.57048e-05
1.51038e-05
1.51038e-05
1.58616e-05
2.26159e-05
2.2864e-05
0.000158526
0.00024565
0.00031214
0.000479459
0.000669325
0.000669325
0.000560512
0.000609908
0.00064164
0.000686644
0.000810858
0.000877253
0.000877253
0.000862381
0.000714145
0.00047805
0.000279528
0.000131686
6.36079e-05
0.000151919
0.000219129
0.000322095
0.000626045
0.000626045
0.000518099
0.000478577
0.000614572
0.0012877
0.00200193
0.00254102
0.00289089
0.00289089
0.00270753
0.00207965
0.0013382
0.000572222
9.32736e-05
3.37754e-05
0.000176857
0.000212524
0.000328576
0.000528065
0.000592183
0.000592183
0.00070172
0.00162534
0.0028253
0.00359328
0.00382686
0.00382686
0.00249846
0.00102858
0.000829016
0.000757175
0.000496282
0.000160686
3.47881e-05
0.000187095
0.000286917
0.000577155
0.000577155
0.000287635
0.000352934
0.00143931
0.00224234
0.00277895
0.00277895
0.00249295
0.00160998
0.00112703
0.000825905
0.000648674
0.000447091
0.00016435
9.63377e-05
4.43136e-05
0.000241425
0.000692495
0.00130415
0.00130415
0.000810387
0.000116412
0.000580001
0.000950699
0.00108074
0.00120771
0.00120771
0.00107528
0.000537929
0.000203232
8.42965e-05
6.73701e-05
5.93022e-05
4.51481e-05
2.85373e-05
0.000272252
0.000665753
0.00118489
0.00118489
0.00100177
0.000176701
0.000136886
0.000831607
0.000915989
0.000915989
0.000855858
0.000381066
0.000175967
0.000190996
0.000295233
0.000295233
0.000182633
6.14639e-05
2.7249e-05
0.000309803
0.00097045
0.00097045
0.00086872
0.000627072
0.000430063
7.56187e-05
0.000321701
0.000530166
0.000530166
0.000165436
0.000242196
0.000561907
0.00087363
0.00087363
0.000860706
0.000586717
0.000200702
3.87191e-05
0.000276323
0.000758153
0.000873523
0.000873523
0.000642205
0.00052103
0.000176376
0.00010385
0.000104431
6.59404e-05
0.000121469
0.000497703
0.000888796
0.000888796
0.000768403
0.000372506
0.00016184
6.80615e-05
0.000146882
5.68736e-05
4.81856e-05
4.26359e-05
4.1796e-05
3.91674e-05
3.52831e-05
3.1927e-05
2.9256e-05
2.75461e-05
2.65112e-05
2.584e-05
2.50042e-05
2.29531e-05
2.1168e-05
2.12821e-05
2.23697e-05
2.20373e-05
2.07806e-05
2.13473e-05
2.74003e-05
0.000122236
0.000171562
0.000123851
0.000392319
0.000392985
0.000386524
0.000375904
0.000335963
0.000272907
0.000197825
0.00014164
0.000126237
0.000120568
0.000116033
0.000112514
8.6872e-05
6.61324e-05
6.44484e-05
6.88418e-05
5.29378e-05
3.36071e-05
2.93724e-05
7.18568e-05
0.000334007
0.000376499
0.000156679
0.000558478
0.000618362
0.000805939
0.00118251
0.00151364
0.00160201
0.00152231
0.0014214
0.00131465
0.00123639
0.000992807
0.000717939
0.000657977
0.000623643
0.000491161
0.000312222
0.000194037
9.74612e-05
6.90667e-05
0.000187219
0.000463696
0.000619473
0.000311431
0.000778713
0.000941447
0.00133695
0.00231773
0.0028627
0.00314232
0.00306926
0.00255938
0.00240625
0.00217558
0.00178746
0.00139804
0.00170705
0.00158183
0.0012399
0.000825987
0.000778275
0.000648784
0.000530698
0.000431754
0.000561518
0.00073919
0.00073919
0.00118418
0.00143874
0.00219297
0.00311282
0.00347754
0.00357723
0.00357723
0.0029353
0.00178139
0.0016648
0.00186487
0.00268539
0.00266131
0.00241833
0.00209234
0.00169443
0.0015948
0.00147137
0.00126431
0.00104352
0.000800089
0.000626011
0.000675921
0.00165299
0.00199738
0.00256166
0.00308467
0.00322251
0.00337038
0.00325726
0.00285753
0.00245257
0.00242584
0.00301796
0.00302406
0.00301173
0.0027651
0.00254223
0.00193316
0.00166102
0.00163986
0.00166959
0.00158459
0.00129999
0.000998631
0.000667108
0.00201083
0.0023165
0.00270355
0.00308444
0.00305696
0.00285551
0.00281316
0.00253224
0.00250708
0.00257223
0.00264674
0.00302406
0.00253893
0.00215902
0.00216876
0.00207012
0.00202376
0.00206317
0.00197357
0.00219174
0.00225173
0.00213164
0.00195704
0.00217285
0.0024385
0.00274494
0.00301084
0.00261168
0.00221031
0.00218009
0.00223963
0.00240766
0.00246328
0.00247465
0.00270725
0.00232864
0.00159006
0.00155071
0.00165987
0.00221699
0.00221699
0.00216582
0.0026125
0.00291155
0.00298262
0.003258
0.00221242
0.00237786
0.0026073
0.00277894
0.00264113
0.00230656
0.00171075
0.00145155
0.00183773
0.0022067
0.00229265
0.00259105
0.00255218
0.0023718
0.00180426
0.00148417
0.00152636
0.00212812
0.00211286
0.00220288
0.00263182
0.00316308
0.003258
0.00212355
0.00220905
0.00237463
0.00257355
0.00249029
0.00232896
0.00208142
0.00170132
0.00118726
0.00123177
0.00163225
0.00197869
0.00204163
0.00198853
0.00190758
0.00190758
0.00181838
0.00165513
0.00170402
0.00206462
0.00202798
0.00211639
0.00240286
0.00204605
0.00209368
0.00217628
0.00230059
0.00231071
0.00218534
0.00203119
0.00182669
0.00156764
0.00123696
0.000798249
0.000939149
0.00121108
0.00140048
0.00155703
0.00170747
0.00173056
0.00173056
0.00142087
0.00144839
0.00133249
0.00141553
0.00126978
0.0019413
0.00196426
0.00199883
0.00205945
0.00207135
0.00202255
0.00190786
0.00179407
0.00163459
0.00139499
0.00108774
0.000783513
0.000598367
0.000737804
0.000826299
0.000934337
0.00124796
0.00141267
0.00139936
0.0015567
0.0015567
0.00128359
0.00092908
0.00182272
0.00183052
0.00183875
0.00185818
0.0018505
0.00181472
0.00176263
0.00168099
0.00155802
0.00141156
0.0012019
0.000946805
0.00069131
0.000492587
0.00039364
0.000356279
0.0004953
0.000619654
0.000881091
0.00111469
0.00124816
0.00127271
0.00127271
0.00170553
0.00170547
0.00170221
0.00169824
0.00167695
0.0016313
0.00157483
0.00153574
0.00145062
0.00132354
0.00117222
0.000990469
0.000810919
0.000653199
0.000522119
0.000388149
0.000272613
0.000236177
0.000339852
0.000523515
0.000640088
0.000729777
0.000790575
0.00159734
0.00159263
0.00158141
0.00156452
0.00153519
0.0014894
0.00142352
0.00137237
0.00131317
0.00121053
0.00108289
0.0009403
0.00078159
0.000621498
0.000479901
0.000358725
0.000283117
0.000213574
0.000172777
0.000247354
0.000304536
0.000381985
0.000381985
0.00150075
0.0014938
0.00147845
0.00145475
0.00141909
0.00137152
0.00130429
0.00123952
0.0011679
0.00108531
0.000966267
0.00084222
0.000714283
0.000587163
0.000472691
0.000371833
0.000294037
0.000247662
0.000243839
0.000244082
0.000245461
0.000292027
0.00030807
0.00141729
0.00140889
0.00139059
0.00136298
0.0013235
0.00127475
0.00120749
0.00113862
0.0010563
0.000967703
0.000862019
0.000751591
0.000631756
0.000508586
0.000396489
0.000298572
0.00023526
0.000186381
0.000175332
0.000199637
0.000218655
0.000262478
0.000262478
0.0013474
0.00133846
0.00131856
0.00128903
0.00124712
0.00119723
0.00113015
0.00106008
0.000979581
0.000892662
0.000797954
0.000696229
0.000590917
0.000487036
0.000389444
0.0002998
0.000226263
0.000168579
0.000131
0.000133699
0.000154355
0.000199033
0.000223257
0.00128951
0.00128014
0.00125946
0.00122949
0.001187
0.00113731
0.00107621
0.00100876
0.000932347
0.000846071
0.000752654
0.000652506
0.00054885
0.000445405
0.000347367
0.000255519
0.000173846
0.000101775
6.9049e-05
0.000106698
0.000163366
0.000214629
0.000214629
0.0012447
0.00123485
0.00121385
0.00118383
0.00114151
0.00109377
0.00103843
0.000974038
0.000901824
0.000821547
0.000735665
0.00064525
0.00055243
0.000459265
0.000369444
0.000282324
0.000203388
0.000130048
7.59365e-05
8.30677e-05
0.000124544
0.000174425
0.00022222
0.00121021
0.00120042
0.00117992
0.0011506
0.00111486
0.00107132
0.00101787
0.000955537
0.000885215
0.000806871
0.000722986
0.000634657
0.000544519
0.000454967
0.000369509
0.00028954
0.00021726
0.00016427
0.000141641
0.000149393
0.00019045
0.000237081
0.000265146
0.0011867
0.00117749
0.00115782
0.0011317
0.00109842
0.00105664
0.0010059
0.000947968
0.000883664
0.000813236
0.000738457
0.000659689
0.000579712
0.000498191
0.000418889
0.000343058
0.000280456
0.000237561
0.000218195
0.000220211
0.000244727
0.000279548
0.000320074
0.0011727
0.00116339
0.00114787
0.00112648
0.00109571
0.00105674
0.00100882
0.000953658
0.000891446
0.00082319
0.000750613
0.000674471
0.000598196
0.00052372
0.000459138
0.000400003
0.000354199
0.000321931
0.000309488
0.000316954
0.000341595
0.000376282
0.000418974
0.00117437
0.00116464
0.00114888
0.00112758
0.00109854
0.00106223
0.00101821
0.000968585
0.000913275
0.000853517
0.000790368
0.000724057
0.000657464
0.000589754
0.000531315
0.000482826
0.000447265
0.000426262
0.000423067
0.000437449
0.00046744
0.000507706
0.000551533
0.00118643
0.0011783
0.00116395
0.00114173
0.00111378
0.00108046
0.00103967
0.0009929
0.000940023
0.000885895
0.000827328
0.00077138
0.000713977
0.000662395
0.000616202
0.000582301
0.000559551
0.000555108
0.000563987
0.000595194
0.000633694
0.000674837
0.000706813
0.00120656
0.00119974
0.00118705
0.00116697
0.00114095
0.0011096
0.00107208
0.00103174
0.000984992
0.000939003
0.000888505
0.000841734
0.000794622
0.00075528
0.00072166
0.000702698
0.000693888
0.000706007
0.0007325
0.000770925
0.000797881
0.000820959
0.000828357
0.00123475
0.00122896
0.00121787
0.00120034
0.00117768
0.00115026
0.00111785
0.00108263
0.00104268
0.00100353
0.000961562
0.000924142
0.00088758
0.000861912
0.000843636
0.000841051
0.000851537
0.000882624
0.000908191
0.000921718
0.000920737
0.00091658
0.000910545
0.00127152
0.00126661
0.00125692
0.00124181
0.00122229
0.00119874
0.00117162
0.00114227
0.0011102
0.00107932
0.00104776
0.00102138
0.000997963
0.000986194
0.00098421
0.00100002
0.00102818
0.00104612
0.00103339
0.00101463
0.000983622
0.000966356
0.000960599
0.00131622
0.00131231
0.00130424
0.00129208
0.00127638
0.00125742
0.00123616
0.00121308
0.00118904
0.00116629
0.00114471
0.00112903
0.00111853
0.00112203
0.00113781
0.00116639
0.00117285
0.00114029
0.00109824
0.00105625
0.00101812
0.000993018
0.000997059
0.00136961
0.00136655
0.00135984
0.00135035
0.0013383
0.0013242
0.0013092
0.00129333
0.00127812
0.0012648
0.00125443
0.0012509
0.0012554
0.00127565
0.00130133
0.00130357
0.00124843
0.00118624
0.00113289
0.00107672
0.00102558
0.00100805
0.00102258
0.00143158
0.00142962
0.00142486
0.00141852
0.00141047
0.00140124
0.00139211
0.00138269
0.00137542
0.00137048
0.00137084
0.0013783
0.00139683
0.0014255
0.00142482
0.0013657
0.00130859
0.00123085
0.00115089
0.00107471
0.00102824
0.00101752
0.00103305
0.00150131
0.00150027
0.0014973
0.00149403
0.0014901
0.00148617
0.00148323
0.00148066
0.00148103
0.0014841
0.00149385
0.0015122
0.0015398
0.00154465
0.00146989
0.00140034
0.00130235
0.00120847
0.00111509
0.00104649
0.00101035
0.00101438
0.00103305
0.00158136
0.00158112
0.00158007
0.00157961
0.00157937
0.00157997
0.00158202
0.00158488
0.00159128
0.00160093
0.00161869
0.00164502
0.00165896
0.00159725
0.00152785
0.00141326
0.00130299
0.00118635
0.00108318
0.00101226
0.000987645
0.000996816
0.00102804
0.00166606
0.00166698
0.00166845
0.00167093
0.00167412
0.00167898
0.00168572
0.00169377
0.00170641
0.00172237
0.00174538
0.00176522
0.00171899
0.00163783
0.00150992
0.00138131
0.00125152
0.00112466
0.0010274
0.000969815
0.000957563
0.000986951
0.00101995
0.00176474
0.00176611
0.00176821
0.00177174
0.00177748
0.00178518
0.00179461
0.00180627
0.00182362
0.00184111
0.00186098
0.00184226
0.00176888
0.00164657
0.00149859
0.00135352
0.00120067
0.00106504
0.000964741
0.000919514
0.000918879
0.000961561
0.00100844
0.00186388
0.00186615
0.00186965
0.00187547
0.00188396
0.00189423
0.00190653
0.00192214
0.00194276
0.00195868
0.00195942
0.00188116
0.00177308
0.00160831
0.00144512
0.00127727
0.00111758
0.000991228
0.000904578
0.000872809
0.000902502
0.000969497
0.0010081
0.00197995
0.00198242
0.00198618
0.0019921
0.00200043
0.0020114
0.00202418
0.00204087
0.00205754
0.00206161
0.00201001
0.0019272
0.00176374
0.00158175
0.00140007
0.00121426
0.00105
0.000919459
0.000843478
0.000826352
0.000869024
0.000950853
0.00102082
0.00209106
0.00209388
0.00209856
0.00210556
0.00211536
0.00212819
0.00214323
0.00216016
0.00217092
0.00214831
0.00205339
0.00190855
0.00171011
0.00150811
0.0013065
0.00111951
0.000965129
0.000852982
0.000790647
0.000813739
0.000887074
0.000982756
0.00103824
0.00222513
0.00222776
0.00223208
0.00223807
0.00224637
0.00225762
0.00227031
0.00227881
0.00227054
0.00220232
0.00209995
0.0019017
0.00168002
0.00146371
0.00125235
0.00106188
0.000901081
0.000781637
0.000742294
0.000775427
0.000865029
0.000973704
0.00106522
0.0023454
0.00234801
0.00235234
0.0023589
0.00236835
0.00238075
0.00239245
0.00239448
0.00235675
0.00224674
0.0020696
0.00183293
0.00159487
0.00136446
0.00115143
0.000967481
0.000824943
0.000732672
0.000727355
0.000802178
0.000906866
0.00102623
0.00109328
0.00249982
0.00250261
0.00250728
0.00251396
0.00252147
0.00252903
0.00253021
0.00250692
0.00241789
0.00230257
0.00207767
0.00181908
0.00156803
0.00132868
0.00111107
0.000921726
0.00077086
0.00067476
0.000689696
0.000778512
0.00089402
0.00102151
0.00112951
0.00263593
0.00263683
0.00263788
0.00263788
0.0026378
0.00263535
0.00262527
0.00258963
0.0024869
0.00227605
0.00199754
0.00171911
0.00145847
0.00122027
0.00101022
0.000834002
0.000705691
0.000650216
0.000719754
0.000828094
0.000956245
0.00109177
0.00112951
0.000251581
0.000112249
7.15256e-05
7.89292e-05
0.000251581
0.000118841
0.000143453
0.000189508
0.00030332
0.00039129
0.000476113
0.00041347
0.000711437
0.000607883
0.0006168
0.000836917
0.000711437
0.000607883
0.0006168
0.000657389
0.000545094
0.000433946
0.000340775
0.00033568
0.00153709
0.00142102
0.00120875
0.00123033
0.00314763
0.00308496
0.00299854
0.00296917
0.00314763
0.00308496
0.00299854
0.00304857
0.00256469
0.00271439
0.00277858
0.00275856
0.0013539
0.0014719
0.00141811
0.00136719
0.000872258
0.000882058
0.00103831
0.00077082
0.000955931
0.00087555
0.00100684
0.000848091
0.000820517
0.000794965
0.00080248
0.000806514
0.00038928
0.000428384
0.000486576
0.000495977
0.000322796
0.000330777
0.000349789
0.000355887
0.000254334
0.000260413
0.000277222
0.000276609
0.000242591
0.000249216
0.000256414
0.000250805
0.000237468
0.000251838
0.000262127
0.000264497
0.0002527
0.000270353
0.000284193
0.000292415
0.000294731
0.000312275
0.000328415
0.000340299
0.000350097
0.00036767
0.000386014
0.000400641
0.000450589
0.000468813
0.000488305
0.000503891
0.000580893
0.000597422
0.000615329
0.000629548
0.000726715
0.000737705
0.000750656
0.000761887
0.000837571
0.000843635
0.000853296
0.000863664
0.000916198
0.000922927
0.000934279
0.000947238
0.000971001
0.000981809
0.0009968
0.00101348
0.00101444
0.00102925
0.0010467
0.00106513
0.00104565
0.00106241
0.00108061
0.00109926
0.00106026
0.00107899
0.00109843
0.00111879
0.00106026
0.00108241
0.00110431
0.00112849
0.0010596
0.00108709
0.00111335
0.00114163
0.0010596
0.00109058
0.00112201
0.00115537
0.00106417
0.00110303
0.00113935
0.00117793
0.00107435
0.00111836
0.00115961
0.00120293
0.00109473
0.0011433
0.00118855
0.00123608
0.00111832
0.00117104
0.00121942
0.00127052
0.00115051
0.00120666
0.0012577
0.00131159
0.00118248
0.00124114
0.00129424
0.00134999
0.00122241
0.00128321
0.00133839
0.00139573
0.00122241
0.00128321
0.00133839
0.00139573
0.000293336
0.000741152
0.000834196
0.000834196
0.00071001
0.00104329
0.000880557
0.000470433
0.000147514
0.000118528
0.000275818
0.000589736
0.000884023
0.000884023
0.000808606
0.000518789
0.000325
0.000338148
0.000559156
0.000435456
0.000691853
0.000499911
0.000697047
0.00203695
0.00225156
0.00169143
0.00112819
0.000687298
0.000577647
0.000470504
0.000115323
0.000149367
0.000430036
0.000692831
0.00039324
0.00060093
0.000803715
0.000803715
0.000899616
0.000657859
0.000301283
0.00196774
0.00350772
0.00350772
0.00275606
0.00180186
0.000756577
0.000162017
0.00011492
8.84635e-05
0.000142641
0.000632106
0.00109835
0.000947391
0.00085525
0.000782302
0.000200002
0.000899616
0.00075879
0.0016635
0.00365709
0.00365709
0.00239962
0.00160161
0.00107021
0.00133763
0.000746442
0.000528703
0.000214808
0.000195209
0.000706711
0.00122694
0.00122694
0.000862723
0.000554226
0.000112309
0.000749489
0.000974344
0.00276503
0.00353517
0.00279191
0.000992679
0.00060323
0.00118001
0.00135634
0.00133978
0.000960655
0.000960655
0.000997019
0.000392101
0.000381903
0.000703565
0.00049051
0.000309887
0.000211983
0.000371496
0.00198388
0.00347646
0.00353517
0.00242418
0.000962631
0.000565571
0.000488325
0.0016732
0.0016732
0.00156863
0.00110439
0.0014395
0.0014395
0.000959716
0.000406886
0.000368277
0.000826333
0.0010495
0.00089366
0.0022343
0.00385824
0.00385824
0.00243458
0.00111468
0.000621515
0.000489319
0.000753437
0.00155381
0.00126888
0.00126888
0.00113097
0.00160937
0.00170646
0.00170646
0.00150666
0.00146219
0.00161717
0.00267665
0.00369469
0.00369469
0.00346924
0.00182723
0.00112581
0.000588053
0.000832932
0.000897716
0.000651643
0.00078108
0.000937704
0.00155702
0.00142646
0.00194022
0.00196625
0.00196625
0.00184719
0.00225315
0.00383386
0.00383386
0.00341521
0.00208142
0.00117574
0.00107186
0.000938511
0.00099903
0.00099903
0.00117978
0.00126873
0.0018001
0.00241561
0.00197027
0.00174352
0.00225438
0.00254358
0.00273203
0.0027486
0.00275339
0.00218416
0.00169362
0.00107829
0.00100556
0.000690494
0.000904235
0.00100267
0.00146863
0.00202366
0.00256421
0.00291567
0.00291567
0.0021578
0.00167384
0.00202956
0.0024172
0.00286118
0.00307177
0.00132111
0.0011305
0.000880284
0.000702245
0.000284382
0.00054974
0.000913825
0.00128466
0.00198113
0.00266423
0.00286341
0.00286341
0.00238523
0.00146266
0.00144292
0.00170362
0.00200507
0.0028354
0.00342933
0.000694183
0.000600961
0.000616513
0.000441466
0.000672428
0.00109592
0.00150364
0.00192892
0.00210819
0.00210819
0.00221622
0.00220265
0.00143616
0.00123438
0.00153186
0.00170681
0.00200894
0.00318528
0.00346722
0.00114915
0.00114915
0.00097428
0.000723971
0.00104271
0.00184319
0.0022378
0.0022378
0.0020694
0.00193749
0.00181054
0.00142335
0.00106002
0.00140563
0.00162914
0.00180001
0.00199307
0.00288437
0.00346722
0.000823703
0.000814576
0.00084813
0.00107187
0.0015705
0.00185329
0.00193032
0.00193032
0.00176806
0.00151602
0.00114048
0.000859175
0.00116773
0.0015341
0.00172382
0.00184188
0.00196113
0.002798
0.00339513
0.000543693
0.000566263
0.000666988
0.000746866
0.000960511
0.00134952
0.00149031
0.00141937
0.00117427
0.000833543
0.000505651
0.000908648
0.00135881
0.00164856
0.00176437
0.00179945
0.00188349
0.00276304
0.00339449
0.000380653
0.000385726
0.000437812
0.000536405
0.000601975
0.000793759
0.000945552
0.0008268
0.00067044
0.000751128
0.00094478
0.00126141
0.00155068
0.00171055
0.00173408
0.00173408
0.00174851
0.0027557
0.00340628
0.000276606
0.000273197
0.000243755
0.000221324
0.000329267
0.000577689
0.000771365
0.000945386
0.00105726
0.00112113
0.00129124
0.00153025
0.00170346
0.00175011
0.00175011
0.00165139
0.00160176
0.00283728
0.00340628
0.000245977
0.000218464
0.000183531
0.000245714
0.000430992
0.000660328
0.000907489
0.00113623
0.00131699
0.00147175
0.00163657
0.00176012
0.00180144
0.00180144
0.0017415
0.00156577
0.00135757
0.00244842
0.00314271
0.000306084
0.000306084
0.000311609
0.000408675
0.000595614
0.000848541
0.0011213
0.00137386
0.00156355
0.00168339
0.00177292
0.0018172
0.0018172
0.00177353
0.00164416
0.00145299
0.00127785
0.00221224
0.00289556
0.00031451
0.000330219
0.000359848
0.000443444
0.00059184
0.00080573
0.00105387
0.00129503
0.00149916
0.00164682
0.00173898
0.00174341
0.00174341
0.00165276
0.00151139
0.00133932
0.00118103
0.00189368
0.00251194
0.000412491
0.000447783
0.000501578
0.000593306
0.000730329
0.000908478
0.00111445
0.00131109
0.0014752
0.00160161
0.0016551
0.0016551
0.00162497
0.0015341
0.00139528
0.00123979
0.00109805
0.00155174
0.00205335
0.000437823
0.000482777
0.000543801
0.000630203
0.000752824
0.000913791
0.00110363
0.00128174
0.00143637
0.00155749
0.00160174
0.00160174
0.00156915
0.00147253
0.00132655
0.00116707
0.00101059
0.00122899
0.0016145
0.000565029
0.000614376
0.000675582
0.000749103
0.000849255
0.000983877
0.00113109
0.00128709
0.00142771
0.00152342
0.00156489
0.00156489
0.0015348
0.00143709
0.00128544
0.00111094
0.000924226
0.000937919
0.0012352
0.00067203
0.000722531
0.000780957
0.000837368
0.000910483
0.00100816
0.00112046
0.00124687
0.00135359
0.00142755
0.00146185
0.00146185
0.00144919
0.00137379
0.00122943
0.00104743
0.000839495
0.000686513
0.000906576
0.000837234
0.000887886
0.000944253
0.000987153
0.00104658
0.00113216
0.00122162
0.0013134
0.00137102
0.00139987
0.00139987
0.00139556
0.00136443
0.00131027
0.00119669
0.00102694
0.000822418
0.000596109
0.000618392
0.000953746
0.00100873
0.00106146
0.00109287
0.00115909
0.00126461
0.00136329
0.00144014
0.00146302
0.00146302
0.00144519
0.00139028
0.00130434
0.00122973
0.00115232
0.00101731
0.00084406
0.000637852
0.000392222
0.00106362
0.00111948
0.00116772
0.00120177
0.00129334
0.00143405
0.00155931
0.00164452
0.00164452
0.00164402
0.00158392
0.00147591
0.00132558
0.0011905
0.00111543
0.00103069
0.000903746
0.000744546
0.000425057
0.00114427
0.00119651
0.00123996
0.00127803
0.00139142
0.00156966
0.00173663
0.00184127
0.00184127
0.00183092
0.00174992
0.00160216
0.00139508
0.00118948
0.00108969
0.00106687
0.00101377
0.00090949
0.000626034
0.00121483
0.00126464
0.0013066
0.00135274
0.0014868
0.00169837
0.00190713
0.00203923
0.00203923
0.00203758
0.00195457
0.00177705
0.00151887
0.001245
0.0011162
0.00114636
0.00114636
0.00110215
0.000866243
0.00125769
0.00130463
0.00134982
0.00141093
0.00156511
0.00180108
0.00204627
0.00220734
0.00222865
0.00222865
0.00215988
0.00196407
0.0016577
0.00131943
0.00118793
0.00130557
0.00131981
0.00131981
0.00112507
0.00129019
0.00134144
0.00139623
0.00147133
0.00163779
0.00188801
0.00216183
0.00236075
0.0024213
0.0024213
0.00238266
0.00219145
0.00184704
0.00144114
0.00127776
0.00148076
0.00155866
0.00155866
0.00140979
0.00131244
0.00137254
0.00143738
0.00153043
0.00171455
0.00197213
0.00226386
0.00250224
0.00260716
0.00260716
0.00260038
0.0024197
0.00204376
0.00156668
0.00138181
0.00166903
0.0018128
0.0018128
0.00170981
0.00133137
0.00140197
0.00147865
0.00158492
0.00178728
0.00205455
0.00235581
0.00263363
0.00278732
0.00282213
0.00282213
0.00267006
0.00227871
0.00173695
0.00150595
0.00187448
0.00208022
0.00208022
0.00201384
0.00136879
0.00145056
0.00153816
0.00165286
0.00186918
0.00215022
0.0024578
0.00276323
0.0029614
0.00304021
0.00304021
0.00292233
0.00251475
0.00190199
0.0016389
0.00209844
0.00236298
0.00236298
0.00231946
0.00139157
0.00148562
0.00158676
0.00170955
0.00193665
0.00223471
0.0025519
0.00288189
0.00312429
0.00325987
0.00325987
0.00319355
0.00277402
0.00208146
0.00177669
0.00233305
0.00265146
0.00265146
0.00261936
0.00144764
0.00155059
0.00166193
0.00179009
0.00202117
0.00233103
0.00265738
0.003005
0.00328385
0.00347325
0.00347325
0.00345633
0.00301475
0.00222266
0.00190991
0.00257621
0.00295778
0.00295778
0.00295324
0.00147579
0.00158888
0.00171216
0.00184873
0.00208302
0.00240697
0.00274623
0.00311304
0.00343139
0.00367564
0.00371184
0.00371184
0.00326109
0.00237284
0.00201056
0.00280284
0.00323888
0.00324487
0.00324487
0.00154563
0.00166467
0.00179352
0.00193569
0.00216909
0.00249683
0.00284385
0.00322032
0.00356568
0.00385028
0.003924
0.003924
0.00345749
0.00242463
0.00210769
0.00302307
0.00351806
0.00354729
0.00354729
0.0015724
0.00169874
0.00183432
0.00198488
0.00221916
0.00255282
0.00291284
0.00329981
0.00367164
0.00399233
0.00410453
0.00410453
0.00364247
0.00247477
0.00210286
0.00319221
0.0037281
0.00375923
0.00375923
0.00165374
0.0017845
0.00192188
0.00207502
0.00230783
0.00263691
0.00299734
0.00338298
0.00376395
0.0041002
0.00423473
0.00423473
0.00375793
0.00241751
0.00214344
0.00332807
0.00391668
0.00397703
0.00397703
0.00166935
0.00180515
0.00194558
0.00210336
0.00233805
0.00266736
0.00303354
0.00342243
0.00381299
0.0041627
0.0043162
0.0043162
0.00384163
0.00242759
0.00211754
0.00342141
0.00401432
0.00406633
0.00406633
0.00176555
0.00190489
0.00204682
0.00220455
0.00243802
0.00275918
0.00312018
0.00350132
0.00388613
0.00423265
0.00438301
0.00438301
0.00389467
0.00233433
0.00221972
0.0034524
0.00409771
0.00420424
0.00420424
)
;

boundaryField
{
    leftWall
    {
        type            calculated;
        value           uniform 0;
    }
    rightWall
    {
        type            calculated;
        value           uniform 0;
    }
    lowerWall
    {
        type            calculated;
        value           uniform 0;
    }
    atmosphere
    {
        type            calculated;
        value           uniform 0;
    }
    defaultFaces
    {
        type            empty;
    }
}


// ************************************************************************* //
