/*--------------------------------*- C++ -*----------------------------------*\
| =========                 |                                                 |
| \\      /  F ield         | OpenFOAM: The Open Source CFD Toolbox           |
|  \\    /   O peration     | Version:  2012                                  |
|   \\  /    A nd           | Website:  www.openfoam.com                      |
|    \\/     M anipulation  |                                                 |
\*---------------------------------------------------------------------------*/
FoamFile
{
    version     2.0;
    format      ascii;
    class       volScalarField;
    location    "0.81";
    object      minKappa;
}
// * * * * * * * * * * * * * * * * * * * * * * * * * * * * * * * * * * * * * //

dimensions      [0 0 0 0 0 0 0];


internalField   nonuniform List<scalar> 
2268
(
1.08499e-06
2.33684e-06
3.71215e-06
5.05797e-06
6.28225e-06
7.27911e-06
8.11736e-06
8.74924e-06
9.11306e-06
9.23913e-06
9.16608e-06
8.89092e-06
8.40866e-06
7.86231e-06
7.1058e-06
6.32976e-06
5.23128e-06
4.0605e-06
2.68144e-06
1.29101e-06
4.24684e-07
6.9232e-07
1.24885e-06
1.08499e-06
2.33684e-06
3.71215e-06
5.05797e-06
6.28225e-06
7.27911e-06
8.11736e-06
8.74924e-06
9.11306e-06
9.23913e-06
9.16608e-06
8.89092e-06
8.40866e-06
7.86231e-06
7.1058e-06
6.32976e-06
5.23128e-06
4.0605e-06
2.68144e-06
1.29101e-06
4.24684e-07
6.9232e-07
1.24885e-06
1.62551e-06
2.62715e-06
3.91095e-06
5.2024e-06
6.39909e-06
7.38958e-06
8.22586e-06
8.8454e-06
9.2013e-06
9.32444e-06
9.23587e-06
8.94666e-06
8.47215e-06
7.9282e-06
7.18746e-06
6.41073e-06
5.34148e-06
4.20616e-06
2.89353e-06
1.66268e-06
9.099e-07
1.069e-06
1.32076e-06
2.28624e-06
3.05695e-06
4.22334e-06
5.43514e-06
6.58401e-06
7.55823e-06
8.39112e-06
8.99531e-06
9.33464e-06
9.44819e-06
9.34563e-06
9.04229e-06
8.57911e-06
8.03036e-06
7.33066e-06
6.57191e-06
5.58615e-06
4.4987e-06
3.30602e-06
2.20403e-06
1.5566e-06
1.70882e-06
1.92129e-06
2.98499e-06
3.57715e-06
4.63679e-06
5.76706e-06
6.85818e-06
7.81204e-06
8.63451e-06
9.21496e-06
9.53519e-06
9.62966e-06
9.50089e-06
9.18474e-06
8.72973e-06
8.17869e-06
7.52361e-06
6.79753e-06
5.9008e-06
4.90183e-06
3.83971e-06
2.946e-06
2.45256e-06
2.58626e-06
2.72935e-06
3.71528e-06
4.17331e-06
5.13051e-06
6.17082e-06
7.19367e-06
8.12306e-06
8.94321e-06
9.50119e-06
9.79161e-06
9.86091e-06
9.70047e-06
9.36405e-06
8.89852e-06
8.35124e-06
7.76086e-06
7.09036e-06
6.31766e-06
5.43273e-06
4.54606e-06
3.90351e-06
3.57835e-06
3.65751e-06
4.00567e-06
4.45989e-06
4.82888e-06
5.7012e-06
6.66142e-06
7.6122e-06
8.50373e-06
9.30028e-06
9.83303e-06
1.01102e-05
1.01457e-05
9.94131e-06
9.58465e-06
9.10564e-06
8.58532e-06
8.06472e-06
7.46715e-06
6.79784e-06
6.05517e-06
5.4098e-06
5.1031e-06
4.81535e-06
4.52659e-06
5.62162e-06
5.2361e-06
5.54555e-06
6.3328e-06
7.21901e-06
8.12332e-06
9.02869e-06
9.82959e-06
1.03124e-05
1.05144e-05
1.04833e-05
1.02395e-05
9.84368e-06
9.3212e-06
8.83653e-06
8.39957e-06
7.89893e-06
7.32551e-06
6.76505e-06
6.41368e-06
6.52741e-06
6.17718e-06
5.6039e-06
7.45752e-06
4.72714e-05
8.49358e-05
0.000113012
0.000175796
0.000282686
0.00022211
0.000208556
0.000234436
0.000287705
0.000357683
0.000444566
0.000522758
0.000549239
0.00046186
0.000322281
0.000187929
8.67317e-05
2.39157e-05
1.15339e-05
4.72714e-05
7.9445e-05
0.000104323
0.000175796
0.000275975
0.000191774
0.000194879
0.000234436
0.000287705
0.000357683
0.000444566
0.000522758
0.000549239
0.00046186
0.000322281
0.000187929
8.67317e-05
1.83164e-05
1.15169e-05
6.04469e-05
7.76871e-05
0.000104323
0.000199079
0.000132395
0.000147498
0.000194879
0.000261418
0.000622739
0.0010342
0.0012609
0.00106341
0.000483771
0.000326588
0.000289958
0.000198373
7.59095e-05
1.83164e-05
1.15169e-05
7.71013e-05
7.76871e-05
0.000138085
0.000199079
9.77315e-05
3.16229e-05
0.00026936
0.000599078
0.000749547
0.000871394
0.000699683
0.000444829
0.00023446
8.96085e-05
5.58266e-05
4.32167e-05
2.64769e-05
1.89342e-05
1.01104e-05
8.96368e-05
0.000108394
0.00035338
0.000383893
9.77315e-05
1.27409e-05
3.47241e-05
0.000364672
0.000392685
0.000457739
0.000422056
0.000167369
8.1877e-05
6.01233e-05
4.74662e-05
4.22444e-05
2.64769e-05
1.61224e-05
7.53701e-06
0.000100416
0.000196302
0.000438749
0.000434558
0.000176701
1.27409e-05
1.90231e-05
0.000135096
0.00032339
0.000282166
0.000121463
8.78759e-05
8.1877e-05
6.01233e-05
4.74662e-05
4.22444e-05
2.85912e-05
1.61224e-05
6.70428e-06
0.000108839
0.00027616
0.000438749
0.000280073
0.000267088
4.2436e-05
1.90231e-05
4.70112e-05
0.000104431
3.95661e-05
3.65166e-05
8.78759e-05
8.77307e-05
0.000115117
0.000232084
0.000188463
8.66908e-05
1.97818e-05
6.70428e-06
0.000115568
0.000276323
0.000460211
0.000280073
0.000281217
0.000121739
2.92726e-05
4.70112e-05
5.35643e-05
2.06968e-05
3.65166e-05
8.94922e-05
0.000236788
0.000380308
0.000318095
0.00016184
6.15752e-05
3.2266e-05
1.46209e-05
9.95533e-06
1.00624e-05
1.09062e-05
1.21552e-05
1.34753e-05
1.48654e-05
1.60651e-05
1.67881e-05
1.71074e-05
1.69866e-05
1.65084e-05
1.5755e-05
1.48576e-05
1.41618e-05
1.36345e-05
1.30619e-05
1.23835e-05
1.18156e-05
1.16682e-05
1.26274e-05
1.58616e-05
2.26159e-05
2.2864e-05
5.68736e-05
4.81856e-05
4.26359e-05
4.1796e-05
3.91674e-05
3.52831e-05
3.1927e-05
2.9256e-05
2.75461e-05
2.65112e-05
2.584e-05
2.50042e-05
2.29531e-05
2.1168e-05
2.12821e-05
2.23697e-05
2.20373e-05
2.07806e-05
2.13473e-05
2.74003e-05
7.18568e-05
0.000156679
0.000100449
0.000392319
0.000392985
0.000386524
0.000375904
0.000335963
0.000272907
0.000197825
0.00014164
0.000126237
0.000120568
0.000116033
0.000112514
8.6872e-05
6.61324e-05
6.44484e-05
6.88418e-05
5.29378e-05
3.36071e-05
2.93724e-05
4.6801e-05
0.000187219
0.000241121
0.000101544
0.000547378
0.000618362
0.000805939
0.00118251
0.00151364
0.00160201
0.00152231
0.0014214
0.00131465
0.00123639
0.000992807
0.000717939
0.000657977
0.000623643
0.000491161
0.000312222
0.000194037
9.74612e-05
6.90667e-05
0.000138663
0.000262064
0.000561518
0.000311431
0.000778713
0.000941447
0.00133695
0.00219297
0.0028627
0.00314232
0.0029353
0.00178139
0.00147533
0.00140562
0.00140562
0.00139804
0.00170705
0.00158183
0.0012399
0.000825987
0.000778275
0.000648784
0.000530698
0.000431754
0.000464034
0.000532006
0.000480812
0.00118418
0.00143427
0.00199738
0.00256166
0.00304405
0.00285551
0.00281316
0.00245257
0.00173674
0.0016648
0.00186487
0.00268539
0.00249751
0.00215902
0.00190912
0.0015439
0.00143437
0.00138049
0.00123839
0.00104352
0.000800089
0.000580876
0.000293545
0.00165299
0.00190689
0.0023165
0.00270355
0.00259045
0.00221031
0.00218009
0.00223963
0.00240766
0.00242026
0.00247465
0.00253893
0.00194136
0.00154124
0.00155071
0.00165987
0.00166102
0.00163986
0.00166959
0.00158459
0.00129999
0.000998631
0.000454975
0.00199834
0.00217285
0.0024385
0.00261168
0.0021144
0.00177316
0.00151229
0.00145155
0.00183773
0.0022067
0.00224668
0.00229599
0.00157608
0.00140381
0.00139785
0.00137926
0.00152636
0.00201024
0.00194514
0.00216582
0.00225173
0.00213164
0.00195704
0.00212355
0.00220905
0.00237463
0.00257355
0.00230656
0.00171075
0.00112067
0.00112067
0.00113192
0.00123177
0.00163225
0.00197869
0.00204163
0.00159006
0.00138907
0.0013024
0.0013024
0.00144404
0.00170402
0.00206462
0.00202798
0.00211639
0.00240286
0.00204605
0.00209368
0.00217628
0.00230059
0.00231071
0.00208142
0.00164875
0.00118225
0.000670883
0.000670883
0.00074434
0.000939149
0.00121108
0.00140048
0.00155703
0.00148417
0.00136438
0.00152205
0.00140609
0.00144839
0.00133249
0.00141553
0.00111196
0.0019413
0.00196426
0.00199883
0.00205945
0.00207135
0.00202255
0.00182669
0.00156764
0.00116572
0.000751008
0.000433441
0.000433441
0.000482167
0.000737804
0.000826299
0.000934337
0.00124796
0.00141267
0.00124478
0.00118617
0.00118617
0.00113475
0.000831827
0.00182272
0.00183052
0.00183875
0.00185818
0.0018505
0.00181472
0.00176263
0.00163459
0.00139499
0.00108774
0.000738392
0.000485973
0.000545767
0.000471961
0.000380653
0.000356279
0.0004953
0.000619654
0.000881091
0.00111469
0.00124816
0.00084588
0.000504761
0.00170553
0.00170547
0.00170221
0.00169824
0.00167695
0.0016313
0.00157483
0.00153574
0.00141156
0.0012019
0.000946805
0.00069131
0.000483529
0.000358885
0.000318303
0.000296207
0.000196664
0.000179823
0.000282543
0.000523515
0.000640088
0.000729777
0.000790575
0.00159734
0.00159263
0.00158141
0.00156452
0.00153519
0.0014894
0.00142352
0.00137237
0.00131317
0.00117222
0.000990469
0.000810919
0.000651384
0.000492587
0.000388149
0.000272613
0.000236177
0.000179823
0.000169749
0.000247354
0.000249355
0.000239192
0.000231472
0.00150075
0.0014938
0.00147845
0.00145475
0.00141909
0.00137152
0.00130429
0.00123952
0.0011679
0.00108289
0.0009403
0.00078159
0.000621498
0.000479901
0.000358725
0.000283117
0.000213574
0.000135531
0.000135531
0.000140593
0.000212769
0.000290827
0.00030807
0.00141729
0.00140889
0.00139059
0.00136298
0.0013235
0.00127475
0.00120749
0.00113786
0.00105494
0.000957831
0.00084222
0.000714283
0.000587163
0.000472691
0.000371833
0.000289609
0.00023526
0.000186381
0.000172777
0.000199637
0.000213217
0.000215427
0.000153484
0.0013474
0.00133846
0.00131856
0.00128903
0.00124712
0.00119438
0.00112535
0.00104782
0.000959788
0.000862019
0.000751591
0.000631756
0.000508586
0.000396489
0.000298572
0.000227859
0.000171614
0.000126873
0.000118169
0.000129091
0.000154355
0.000199033
0.000213561
0.00128951
0.00128014
0.00125946
0.00122949
0.00118344
0.00112508
0.00105676
0.000979581
0.000892662
0.000797954
0.000696229
0.000590917
0.000487036
0.000389444
0.0002998
0.000226263
0.000166959
0.000101775
6.9049e-05
0.000101114
0.000119995
0.000133018
0.000132933
0.0012447
0.00123485
0.00121385
0.00117999
0.00113374
0.00107621
0.00100876
0.000932347
0.000846071
0.000752654
0.000652506
0.00054885
0.000445405
0.000347367
0.000255519
0.000173846
9.87395e-05
3.89071e-05
2.93348e-05
4.78137e-05
0.000106698
0.000163366
0.000186826
0.00121021
0.00120009
0.00117475
0.00113882
0.00109377
0.00103843
0.000974038
0.000901824
0.000821547
0.000735665
0.00064525
0.00055243
0.000459265
0.000369444
0.000282324
0.000203388
0.000130048
6.66096e-05
2.93348e-05
3.87153e-05
5.79776e-05
0.000107011
0.000148417
0.0011867
0.0011743
0.00114966
0.00111486
0.00107132
0.00101787
0.000955537
0.000885215
0.000806871
0.000722986
0.000634657
0.000544519
0.000454967
0.000369509
0.00028954
0.00021726
0.000157813
0.000112809
7.59365e-05
8.30677e-05
0.000124544
0.000174425
0.000207617
0.00116912
0.00115516
0.0011317
0.00109842
0.00105664
0.0010059
0.000947968
0.000883664
0.000813236
0.000738457
0.000659689
0.000579712
0.000498191
0.000418889
0.000343058
0.00027592
0.000216093
0.00016427
0.000141641
0.000149393
0.000180178
0.00020933
0.000210393
0.00116128
0.00114787
0.00112648
0.00109571
0.00105674
0.00100882
0.000953658
0.000891446
0.00082319
0.000750613
0.000674471
0.000598196
0.000523489
0.000453954
0.00039079
0.000334644
0.000280456
0.000237561
0.000218195
0.000220211
0.000244727
0.000279548
0.000288461
0.0011619
0.00114831
0.00112758
0.00109854
0.00106223
0.00101821
0.000968585
0.000913275
0.000853517
0.000790368
0.000724057
0.000657464
0.000589754
0.00052372
0.000459138
0.000400003
0.000354199
0.000321931
0.000309488
0.000316954
0.000341595
0.000376282
0.000356728
0.00117143
0.00115947
0.00114039
0.00111378
0.00108046
0.00103967
0.0009929
0.000940023
0.000882881
0.00082266
0.000760467
0.000699338
0.000641491
0.000587708
0.000531315
0.000482826
0.000447265
0.000426262
0.000423067
0.000437449
0.00046744
0.000507706
0.000480052
0.00118643
0.00117695
0.00115934
0.00113477
0.00110456
0.00106859
0.00102826
0.000983126
0.000934815
0.000884072
0.000827328
0.00077138
0.000713977
0.000662395
0.000616202
0.000582301
0.000559551
0.000555108
0.000563987
0.000595194
0.000633694
0.000674837
0.000574296
0.00120656
0.00119974
0.00118705
0.00116691
0.00113958
0.00110651
0.00106883
0.00102673
0.000982185
0.000936348
0.000888505
0.000841734
0.000794622
0.00075528
0.00072166
0.000702698
0.000693888
0.000706007
0.0007325
0.000770925
0.000797881
0.000820959
0.000647129
0.00123475
0.00122896
0.00121787
0.00120034
0.00117768
0.00115026
0.00111785
0.00108263
0.00104268
0.00100353
0.000961562
0.000924142
0.00088758
0.000861912
0.000843636
0.000841051
0.000851537
0.000882624
0.000908191
0.000921718
0.000920737
0.00091658
0.000690968
0.00127152
0.00126661
0.00125692
0.00124181
0.00122229
0.00119874
0.00117162
0.00114227
0.0011102
0.00107932
0.00104776
0.00102138
0.000997963
0.000986194
0.00098421
0.00100002
0.00102818
0.00104612
0.00103339
0.00101463
0.000983622
0.000966356
0.000725205
0.00131622
0.00131231
0.00130424
0.00129208
0.00127638
0.00125742
0.00123616
0.00121308
0.00118904
0.00116629
0.00114471
0.00112903
0.00111853
0.00112203
0.00113781
0.00116639
0.00117285
0.00113289
0.00107672
0.00102558
0.00100041
0.000993018
0.000751382
0.00136961
0.00136655
0.00135984
0.00135035
0.0013383
0.0013242
0.0013092
0.00129333
0.00127812
0.0012648
0.00125443
0.0012509
0.0012554
0.00127565
0.00130133
0.00130357
0.00123085
0.00115089
0.00107471
0.00102824
0.00101029
0.00100805
0.000768356
0.00143158
0.00142962
0.00142486
0.00141852
0.00141047
0.00140124
0.00139211
0.00138269
0.00137542
0.00137048
0.00137084
0.0013783
0.00139683
0.0014255
0.00140034
0.00130235
0.00120847
0.00111509
0.00104649
0.0010079
0.000987645
0.000995518
0.000771071
0.00150131
0.00150027
0.0014973
0.00149403
0.0014901
0.00148617
0.00148323
0.00148066
0.00148103
0.0014841
0.00149385
0.0015122
0.0015398
0.00152785
0.00141326
0.00130299
0.00118635
0.00108318
0.00101226
0.000969815
0.000957563
0.000972003
0.000765628
0.00158136
0.00158112
0.00158007
0.00157961
0.00157937
0.00157997
0.00158202
0.00158488
0.00159128
0.00160093
0.00161869
0.00164502
0.00163783
0.00150992
0.00138131
0.00125152
0.00112466
0.0010274
0.000961853
0.000919514
0.000918879
0.000948718
0.000767738
0.00166606
0.00166698
0.00166845
0.00167093
0.00167412
0.00167898
0.00168572
0.00169377
0.00170641
0.00172237
0.00174538
0.00176522
0.00164657
0.00149859
0.00135352
0.00120067
0.00106504
0.000964741
0.000903642
0.000872809
0.000887291
0.000909731
0.000758536
0.00176474
0.00176611
0.00176821
0.00177174
0.00177748
0.00178518
0.00179461
0.00180627
0.00182362
0.00184111
0.00186098
0.00177308
0.00160831
0.00144512
0.00127727
0.00111758
0.000991228
0.000904578
0.000843478
0.000826352
0.00085949
0.000902502
0.000774027
0.00186388
0.00186615
0.00186965
0.00187547
0.00188396
0.00189423
0.00190653
0.00192214
0.00194276
0.00195868
0.0019272
0.00176374
0.00158175
0.00140007
0.00121426
0.00105
0.000919459
0.000831346
0.000790647
0.000792866
0.00081305
0.000869024
0.000769756
0.00197995
0.00198242
0.00198618
0.0019921
0.00200043
0.0020114
0.00202418
0.00204087
0.00205754
0.00205339
0.00190855
0.00171011
0.00150811
0.0013065
0.00111951
0.000965129
0.000852982
0.000777173
0.000742294
0.000764149
0.000813739
0.000887074
0.00080077
0.00209106
0.00209388
0.00209856
0.00210556
0.00211536
0.00212819
0.00214323
0.00216016
0.00217092
0.00209995
0.0019017
0.00168002
0.00146371
0.00125235
0.00106188
0.000901081
0.000781637
0.000720894
0.000708248
0.000721154
0.000775427
0.000865029
0.000801833
0.00222513
0.00222776
0.00223208
0.00223807
0.00224637
0.00225762
0.00227031
0.00227881
0.00224674
0.0020696
0.00183293
0.00159487
0.00136446
0.00115143
0.000967481
0.000824943
0.000732672
0.00067476
0.000682746
0.000727355
0.000802178
0.000906866
0.000846018
0.0023454
0.00234801
0.00235234
0.0023589
0.00236835
0.00238075
0.00239245
0.00239448
0.00230257
0.00207767
0.00181908
0.00156803
0.00132868
0.00111107
0.000921726
0.00077086
0.000673917
0.000637502
0.000648787
0.000689696
0.000778512
0.00089402
0.000847174
0.00249982
0.00250261
0.00250728
0.00251396
0.00252147
0.00252903
0.00253021
0.0024869
0.00227605
0.00199754
0.00171911
0.00145847
0.00122027
0.00101022
0.000834002
0.000705691
0.000640721
0.000637502
0.000650216
0.000719754
0.000828094
0.000956245
0.000903406
0.000112249
5.46824e-05
1.79648e-05
1.79648e-05
4.40993e-05
2.78179e-05
2.78179e-05
5.27885e-05
8.9204e-05
8.9204e-05
0.000116346
0.000117493
0.00030332
0.000358735
0.000428632
0.00041347
0.000265244
0.000210762
0.000205549
0.000205549
0.000182644
0.000163561
0.00013009
0.00013009
0.000241802
0.000174485
0.000124849
0.000124849
0.00113977
0.00104734
0.000998453
0.000998453
0.00177433
0.00177433
0.00183043
0.00183274
0.000750214
0.000750214
0.000795404
0.000814009
0.000554611
0.000554611
0.000483663
0.000483663
0.000311112
0.000311112
0.0003398
0.0003398
0.00057994
0.000529631
0.000505993
0.000505993
0.000178996
0.000178996
0.000220642
0.000249895
0.000205794
0.000205794
0.000209804
0.000212317
0.000101787
0.000101787
0.000110485
0.00011974
0.00014036
0.00014036
0.000140804
0.000140804
9.09986e-05
9.09986e-05
9.54255e-05
9.78121e-05
0.000126159
0.000126159
0.000130732
0.00013213
0.00010402
0.00010402
0.000111056
0.000115617
0.000142025
0.000142025
0.000149822
0.000155657
0.000143481
0.000143481
0.00015155
0.000158921
0.000194064
0.000194064
0.000202917
0.000211087
0.000238198
0.000238198
0.000247121
0.00025549
0.000315568
0.000315568
0.000322892
0.000329696
0.000372442
0.000372442
0.000376485
0.000381166
0.000417304
0.000417304
0.000420808
0.000425707
0.000446612
0.000446612
0.000451797
0.000458515
0.00047078
0.00047078
0.000477916
0.000486273
0.000489375
0.000489375
0.000497591
0.000506283
0.000501108
0.000501108
0.000509515
0.000518331
0.000504193
0.000504193
0.000513932
0.000524029
0.000502609
0.000502609
0.00051413
0.000525909
0.000506691
0.000506691
0.00052066
0.000534748
0.000503542
0.000503542
0.000520147
0.000536758
0.000515999
0.000515999
0.000534988
0.000553847
0.000515824
0.000515824
0.00053719
0.00055837
0.000537641
0.000537641
0.00056068
0.000583421
0.000540245
0.000540245
0.00056505
0.000589404
0.000569891
0.000569891
0.000595821
0.000621146
0.000571721
0.000571721
0.000598685
0.000624901
0.000608879
0.000608879
0.000636825
0.000663904
6.14779e-05
0.000293336
0.000372782
0.000564733
0.000452217
0.000307517
0.000132877
7.82482e-05
3.70621e-05
2.06968e-05
5.06195e-05
0.000111869
0.000149367
0.000402342
0.000367205
0.000193031
9.00354e-05
4.93563e-05
0.000146882
0.000147985
0.000414287
0.00017294
0.000411255
0.000625798
0.00104329
0.000880557
0.000470433
0.000147514
0.000118528
0.000104486
7.28914e-05
8.09264e-05
0.000128506
0.00039324
0.000294491
0.00030755
0.000338148
0.000200002
0.000257993
0.000300271
0.000117102
0.000220415
0.00196774
0.00214889
0.00160161
0.000756577
0.000162017
8.17627e-05
8.07189e-05
7.28914e-05
8.09264e-05
0.000142641
0.000632106
0.000375444
0.000505152
0.000184152
7.65661e-05
0.000749489
0.000157457
0.000117102
0.0016635
0.00231962
0.000750961
0.00060323
0.00053381
0.000384338
0.000143535
0.00011492
8.38978e-05
9.02854e-05
0.000169086
0.000381903
0.000703565
0.000452005
0.000112309
7.45693e-05
0.000348462
0.000302437
0.000678521
0.00276503
0.000992679
0.000500548
0.000342685
0.000337319
0.00118001
0.000488376
0.000528703
0.000214808
0.000195209
0.000263566
0.000263566
0.0002613
0.000207132
0.000123986
7.45693e-05
0.000204868
0.000367708
0.00198388
0.00242418
0.000962631
0.000565571
0.000435471
0.000337319
0.000488325
0.00133978
0.00053986
0.00053986
0.000997019
0.000392101
0.000288218
0.00021714
0.000207132
0.000271131
0.000211983
0.000209847
0.000477571
0.0022343
0.00243458
0.000984357
0.000621515
0.00042794
0.000427591
0.000489319
0.000513468
0.000747356
0.000899644
0.000827343
0.00113097
0.000959716
0.000406886
0.000368277
0.000826333
0.0010495
0.00089366
0.00176863
0.00341521
0.00159991
0.000984357
0.000588053
0.00042794
0.000467775
0.000651643
0.000464376
0.000464376
0.000616741
0.000823402
0.00104219
0.00142646
0.00161274
0.00146016
0.00139043
0.00161717
0.00267665
0.00218416
0.00169362
0.00107829
0.000964148
0.000525072
0.000485609
0.000755672
0.000897716
0.000536402
0.000539746
0.000814915
0.00155702
0.00116673
0.00138448
0.00170891
0.00188503
0.0018297
0.00225315
0.00132111
0.000981933
0.000552546
0.000702245
0.000284382
0.00035378
0.000690494
0.000822786
0.000985243
0.00117978
0.00126873
0.0018001
0.0021578
0.00108181
0.00127095
0.00145309
0.00179381
0.0020268
0.0027486
0.000640724
0.000555951
0.000442871
9.00829e-05
9.00829e-05
0.000189712
0.000523862
0.000880517
0.00119022
0.00193528
0.00221622
0.00220265
0.00126088
0.000941536
0.00117282
0.00144292
0.00162405
0.00199423
0.0028354
0.000457152
0.000439284
0.000439284
0.000226296
0.00017698
0.00054974
0.000849389
0.00125009
0.00159247
0.00179662
0.00168946
0.00142335
0.00077167
0.000941536
0.00123313
0.00145165
0.00162405
0.0019916
0.00318528
0.000694183
0.000600961
0.000616513
0.000419391
0.000444907
0.00104271
0.00150364
0.00178702
0.00163873
0.00149265
0.00114048
0.000859175
0.00077167
0.00105585
0.00132641
0.00152503
0.00163626
0.00186983
0.00288437
0.000430102
0.000562859
0.000666988
0.000638752
0.000889221
0.00134952
0.00149031
0.00141937
0.00117427
0.000833543
0.000505651
0.0006407
0.000786892
0.00116773
0.00143582
0.00158922
0.00166928
0.00179591
0.002798
0.000366511
0.000385726
0.000437812
0.000536405
0.000588304
0.000793759
0.000945552
0.0008268
0.000602201
0.000385376
0.000385376
0.00047558
0.000908648
0.00134737
0.00153417
0.00157921
0.00156691
0.00170745
0.00276304
0.000206322
0.00024528
0.000243755
0.000221324
0.000329267
0.000499923
0.000664398
0.000507621
0.000507621
0.000493638
0.000501795
0.000790206
0.00117159
0.0014562
0.00157795
0.00147035
0.0013779
0.00167494
0.0027557
0.000229708
0.000189369
0.000103491
8.59957e-05
0.000113867
0.00031515
0.000577689
0.00064568
0.00067044
0.000751128
0.000911422
0.00111947
0.00140537
0.00154193
0.00155842
0.00134995
0.00118245
0.00157061
0.00283728
0.0001631
0.000151596
0.000125584
8.59957e-05
0.000239367
0.000430992
0.000660328
0.000835427
0.00105221
0.00110057
0.00124747
0.0014048
0.00156961
0.00158697
0.00147665
0.00125409
0.00108767
0.00134962
0.00244842
0.000222921
0.000218464
0.000183531
0.000216354
0.000375955
0.000553592
0.000813531
0.0010252
0.00125148
0.00136094
0.00149788
0.0015909
0.00160749
0.00149578
0.0013609
0.00116619
0.00103706
0.00120021
0.00221224
0.000200699
0.000269986
0.000280149
0.000321
0.000443444
0.00059184
0.00080573
0.00105387
0.00127824
0.00141792
0.00152695
0.00154942
0.00150304
0.0013841
0.00124812
0.00108684
0.000975747
0.00105285
0.00189368
0.000270716
0.000330219
0.000359848
0.000412928
0.000525096
0.00067165
0.000880774
0.00108367
0.00125217
0.00138591
0.00147719
0.00147441
0.00142027
0.00130405
0.00116149
0.0010182
0.000890605
0.000895978
0.00155174
0.000280026
0.000398067
0.000443201
0.000502066
0.000604606
0.000737375
0.000912123
0.001089
0.00123645
0.00135718
0.00143388
0.00143548
0.00137756
0.00125939
0.00110742
0.000956288
0.000795699
0.000723163
0.00122899
0.00036788
0.000471135
0.000520503
0.000581575
0.000665352
0.000783375
0.000933257
0.00107876
0.00121335
0.0013035
0.0013682
0.00137342
0.00133068
0.00121705
0.0010624
0.000893561
0.000704108
0.000562365
0.000906576
0.000442947
0.000579082
0.000629319
0.000686757
0.000746527
0.000843541
0.000956968
0.00107876
0.00120572
0.00125748
0.00130027
0.00128613
0.00126267
0.00117006
0.00102942
0.000839495
0.000634186
0.000459398
0.000618392
0.000564291
0.00070259
0.000753239
0.000805646
0.000842295
0.000925064
0.00100764
0.00110781
0.00120572
0.00125748
0.00128675
0.00123311
0.00118316
0.00111857
0.00101127
0.000822418
0.000596109
0.000449626
0.000362201
0.000648501
0.000831025
0.00088367
0.000928858
0.000950203
0.00104171
0.00112181
0.00121096
0.00127481
0.00128488
0.00128675
0.00123311
0.00113459
0.00105777
0.000998073
0.000842265
0.000637852
0.000392222
0.00021319
0.000723813
0.000935591
0.000988567
0.00102619
0.00104722
0.00116802
0.00126813
0.00136835
0.00141404
0.00138992
0.00134573
0.00124504
0.00113459
0.0010085
0.000990118
0.000858265
0.000724906
0.000425057
0.00021319
0.000780947
0.00102273
0.00107138
0.00110503
0.00113605
0.00128923
0.00142214
0.00155078
0.00159164
0.00154219
0.0014667
0.001314
0.00114655
0.000995192
0.000987171
0.000910591
0.000825548
0.000626034
0.000279937
0.00082931
0.00109095
0.00113454
0.00116755
0.00121002
0.00138978
0.00155958
0.00172619
0.00177058
0.00171606
0.00162536
0.00142576
0.00120854
0.000995192
0.000987171
0.000990681
0.000964364
0.000854828
0.000494799
0.000862573
0.00114142
0.00118182
0.00121943
0.00127786
0.00147815
0.00167919
0.0018847
0.00194068
0.00190238
0.0018067
0.00156942
0.00130117
0.00101971
0.000998201
0.00108889
0.00112939
0.00105981
0.000739983
0.000883134
0.00117536
0.00121694
0.00126479
0.00133895
0.00155254
0.00177493
0.00201741
0.00209632
0.00209045
0.00200232
0.00174583
0.00142005
0.00107784
0.00102985
0.00120321
0.00131674
0.00128427
0.00100424
0.000894568
0.00120294
0.00125015
0.00131002
0.00140087
0.00162457
0.0018561
0.00213106
0.00224671
0.00227918
0.00220844
0.00194887
0.00156433
0.00115664
0.00107936
0.00132899
0.00151868
0.00153091
0.00128432
0.00090085
0.00122562
0.00128149
0.00135236
0.00146021
0.00169907
0.00193052
0.0022299
0.00239162
0.00246223
0.00241923
0.0021674
0.00173418
0.00125307
0.00114551
0.00146918
0.00173327
0.00179101
0.00156792
0.000919175
0.0012555
0.00132131
0.00140269
0.00151943
0.00177822
0.00201059
0.00232295
0.002532
0.00263928
0.00263618
0.00240123
0.00190199
0.00136273
0.00122133
0.00162584
0.00196319
0.00205495
0.0018521
0.000926602
0.00128786
0.00136369
0.00145703
0.00157656
0.00185464
0.00209515
0.00241332
0.00266422
0.00280883
0.00285844
0.002648
0.00208146
0.00147669
0.00129732
0.00177669
0.00220684
0.00231403
0.00213058
0.00095887
0.00132822
0.00141281
0.00151869
0.0016377
0.0019294
0.00218193
0.00250495
0.00278922
0.00297235
0.00308246
0.0029018
0.00222266
0.00158392
0.00136853
0.00190991
0.00245985
0.00259334
0.00242292
0.000970199
0.00137084
0.00146258
0.00158118
0.00169976
0.00199819
0.00226698
0.00259416
0.00290694
0.00312912
0.00329737
0.00314959
0.00237284
0.00167307
0.00141486
0.00201056
0.00271064
0.00286782
0.00270775
0.00101464
0.00141925
0.00151626
0.00164528
0.00176593
0.00206423
0.00234904
0.00267909
0.00301444
0.00327306
0.00348959
0.00337374
0.00242463
0.00164693
0.00138344
0.00210769
0.00294933
0.00312841
0.00297664
0.0010274
0.00146635
0.00156758
0.00170338
0.00182976
0.00212219
0.00242196
0.0027555
0.00310501
0.00339667
0.00364765
0.00356422
0.00247477
0.00152255
0.0013051
0.00210286
0.00315963
0.00335352
0.00321021
0.00108208
0.00151777
0.00162335
0.00176237
0.00189529
0.00218053
0.00248901
0.00282553
0.0031799
0.00349795
0.00376767
0.00371888
0.00241751
0.00139985
0.00122364
0.00214344
0.00332595
0.00354002
0.00340473
0.00108983
0.00156329
0.00167334
0.00181222
0.00195172
0.00223086
0.00254159
0.00288115
0.0032339
0.00356982
0.00384658
0.00382679
0.00242759
0.00124173
0.00122364
0.00211754
0.00342141
0.00367329
0.0035446
0.00115647
0.00161438
0.00172978
0.00186728
0.00201217
0.0022866
0.00259493
0.00293713
0.00328294
0.00362884
0.00390403
0.00389467
0.00233433
0.00124173
0.0012367
0.00221972
0.0034524
0.00376934
0.0036482
)
;

boundaryField
{
    leftWall
    {
        type            calculated;
        value           uniform 0;
    }
    rightWall
    {
        type            calculated;
        value           uniform 0;
    }
    lowerWall
    {
        type            calculated;
        value           uniform 0;
    }
    atmosphere
    {
        type            calculated;
        value           uniform 0;
    }
    defaultFaces
    {
        type            empty;
    }
}


// ************************************************************************* //
