/*--------------------------------*- C++ -*----------------------------------*\
| =========                 |                                                 |
| \\      /  F ield         | OpenFOAM: The Open Source CFD Toolbox           |
|  \\    /   O peration     | Version:  2012                                  |
|   \\  /    A nd           | Website:  www.openfoam.com                      |
|    \\/     M anipulation  |                                                 |
\*---------------------------------------------------------------------------*/
FoamFile
{
    version     2.0;
    format      ascii;
    class       surfaceScalarField;
    location    "0.81";
    object      phi;
}
// * * * * * * * * * * * * * * * * * * * * * * * * * * * * * * * * * * * * * //

dimensions      [0 3 -1 0 0 0 0];
oriented        oriented;


internalField   nonuniform List<scalar> 
4432
(
-4.2517e-06
4.25169e-06
-8.32735e-06
4.07565e-06
-1.23205e-05
3.99312e-06
-1.60551e-05
3.73463e-06
-1.92599e-05
3.20479e-06
-2.18904e-05
2.63047e-06
-2.40028e-05
2.11239e-06
-2.54483e-05
1.44552e-06
-2.61558e-05
7.07488e-07
-2.62253e-05
6.9551e-08
-2.57376e-05
-4.87693e-07
-2.4659e-05
-1.07859e-06
-2.31796e-05
-1.47942e-06
-2.12976e-05
-1.88199e-06
-1.90914e-05
-2.20624e-06
-1.6381e-05
-2.71042e-06
-1.30898e-05
-3.29118e-06
-9.35681e-06
-3.73299e-06
-5.22781e-06
-4.129e-06
-1.4304e-06
-3.79741e-06
1.02588e-06
-2.45629e-06
2.65497e-06
-1.62909e-06
2.65497e-06
-4.27902e-06
8.53071e-06
-8.37454e-06
8.17116e-06
-1.23756e-05
7.9942e-06
-1.61166e-05
7.4756e-06
-1.93459e-05
6.43409e-06
-2.20096e-05
5.29412e-06
-2.41306e-05
4.23347e-06
-2.55517e-05
2.8666e-06
-2.62542e-05
1.40992e-06
-2.63345e-05
1.49938e-07
-2.58196e-05
-1.00266e-06
-2.47201e-05
-2.17804e-06
-2.32466e-05
-2.95294e-06
-2.13838e-05
-3.74475e-06
-1.91779e-05
-4.41218e-06
-1.64658e-05
-5.42253e-06
-1.31656e-05
-6.59142e-06
-9.40498e-06
-7.49356e-06
-5.26311e-06
-8.27087e-06
-1.43295e-06
-7.62756e-06
1.09389e-06
-4.98313e-06
2.21385e-06
-2.74905e-06
4.86882e-06
-4.36803e-06
1.28987e-05
-8.49551e-06
1.22986e-05
-1.2515e-05
1.20137e-05
-1.63016e-05
1.12622e-05
-1.96104e-05
9.74287e-06
-2.2343e-05
8.02678e-06
-2.44973e-05
6.3877e-06
-2.59425e-05
4.31182e-06
-2.66444e-05
2.11183e-06
-2.6666e-05
1.71485e-07
-2.60811e-05
-1.58757e-06
-2.49609e-05
-3.29819e-06
-2.34768e-05
-4.43708e-06
-2.16022e-05
-5.61932e-06
-1.9358e-05
-6.65642e-06
-1.65751e-05
-8.20534e-06
-1.31988e-05
-9.96778e-06
-9.27643e-06
-1.14159e-05
-4.92816e-06
-1.26191e-05
-5.25003e-07
-1.20307e-05
2.66774e-06
-8.17587e-06
3.46309e-06
-3.5444e-06
8.33192e-06
-4.41866e-06
1.73174e-05
-8.58638e-06
1.64663e-05
-1.26522e-05
1.60795e-05
-1.64744e-05
1.50844e-05
-1.98489e-05
1.31174e-05
-2.26702e-05
1.0848e-05
-2.48806e-05
8.59815e-06
-2.63059e-05
5.73711e-06
-2.69788e-05
2.78475e-06
-2.69937e-05
1.86397e-07
-2.63693e-05
-2.212e-06
-2.5216e-05
-4.45148e-06
-2.37004e-05
-5.95271e-06
-2.18551e-05
-7.46463e-06
-1.96765e-05
-8.83494e-06
-1.69933e-05
-1.08886e-05
-1.36511e-05
-1.331e-05
-9.63416e-06
-1.54328e-05
-4.99957e-06
-1.72537e-05
6.40336e-08
-1.70943e-05
4.07879e-06
-1.21906e-05
4.71536e-06
-4.18097e-06
1.30473e-05
-4.55189e-06
2.18693e-05
-8.83769e-06
2.07521e-05
-1.30063e-05
2.02481e-05
-1.69292e-05
1.90073e-05
-2.04289e-05
1.66171e-05
-2.33602e-05
1.37793e-05
-2.5616e-05
1.0854e-05
-2.70729e-05
7.19392e-06
-2.77209e-05
3.43278e-06
-2.762e-05
8.55052e-08
-2.68878e-05
-2.9442e-06
-2.56984e-05
-5.64088e-06
-2.41571e-05
-7.494e-06
-2.2307e-05
-9.31477e-06
-2.01112e-05
-1.10307e-05
-1.73469e-05
-1.36529e-05
-1.38978e-05
-1.67591e-05
-9.58282e-06
-1.97478e-05
-4.52621e-06
-2.23104e-05
1.64662e-06
-2.32671e-05
6.99663e-06
-1.75406e-05
7.11343e-06
-4.29778e-06
2.01607e-05
-4.60124e-06
2.64705e-05
-8.99286e-06
2.51438e-05
-1.32149e-05
2.44701e-05
-1.71909e-05
2.29833e-05
-2.08032e-05
2.02294e-05
-2.39214e-05
1.68976e-05
-2.63222e-05
1.32548e-05
-2.7766e-05
8.63771e-06
-2.83572e-05
4.02401e-06
-2.82072e-05
-6.45115e-08
-2.7383e-05
-3.76838e-06
-2.60653e-05
-6.95857e-06
-2.44351e-05
-9.12423e-06
-2.26575e-05
-1.10923e-05
-2.06011e-05
-1.30871e-05
-1.80297e-05
-1.62244e-05
-1.46722e-05
-2.01166e-05
-1.03591e-05
-2.40609e-05
-4.84688e-06
-2.78226e-05
2.50869e-06
-3.06227e-05
9.19362e-06
-2.42256e-05
9.34841e-06
-4.45257e-06
2.95091e-05
-4.78089e-06
3.12514e-05
-9.45327e-06
2.98161e-05
-1.38506e-05
2.88674e-05
-1.79423e-05
2.70749e-05
-2.16463e-05
2.39334e-05
-2.48245e-05
2.00758e-05
-2.72721e-05
1.57024e-05
-2.88348e-05
1.02004e-05
-2.94261e-05
4.61529e-06
-2.91038e-05
-3.86779e-07
-2.81226e-05
-4.74964e-06
-2.67504e-05
-8.33078e-06
-2.51582e-05
-1.07164e-05
-2.34801e-05
-1.27705e-05
-2.1483e-05
-1.50842e-05
-1.87952e-05
-1.89121e-05
-1.52703e-05
-2.36415e-05
-1.07564e-05
-2.85748e-05
-4.86262e-06
-3.37164e-05
3.48555e-06
-3.89709e-05
1.11699e-05
-3.191e-05
1.13457e-05
-4.62828e-06
4.08548e-05
-4.79502e-06
3.60464e-05
-9.63099e-06
3.46521e-05
-1.41686e-05
3.3405e-05
-1.84683e-05
3.13747e-05
-2.2578e-05
2.8043e-05
-2.62322e-05
2.373e-05
-2.88544e-05
1.83246e-05
-3.0172e-05
1.15181e-05
-3.04597e-05
4.90297e-06
-2.99877e-05
-8.58799e-07
-2.88598e-05
-5.87756e-06
-2.72076e-05
-9.98297e-06
-2.54667e-05
-1.24572e-05
-2.39129e-05
-1.43243e-05
-2.21125e-05
-1.68847e-05
-1.9579e-05
-2.14455e-05
-1.62078e-05
-2.70127e-05
-1.20858e-05
-3.26967e-05
-6.46652e-06
-3.93357e-05
1.92315e-06
-4.73606e-05
1.06391e-05
-4.06258e-05
1.15632e-05
-5.55263e-06
5.2418e-05
-6.6661e-05
6.66306e-05
-0.0001068
4.00949e-05
-0.000128198
2.13674e-05
-0.000136051
7.84223e-06
-0.000136484
4.7408e-07
-0.000137234
6.97686e-07
-0.00014793
1.06722e-05
-0.000160977
1.30189e-05
-0.000169263
8.25931e-06
-0.000174976
5.68567e-06
-0.000178951
3.96141e-06
-0.000180505
1.53759e-06
-0.000174937
-5.51398e-06
-0.000158258
-1.67116e-05
-0.000133198
-2.50565e-05
-0.000100229
-3.29647e-05
-6.474e-05
-3.54637e-05
-3.20405e-05
-3.26874e-05
-3.20207e-05
-5.56351e-05
0.00012224
-9.35387e-05
7.79617e-05
-0.000114175
4.19778e-05
-0.000121612
1.52646e-05
-0.000120229
-8.56348e-07
-0.000117478
-2.08729e-06
-0.000126098
1.92571e-05
-0.000139163
2.60592e-05
-0.000151735
2.077e-05
-0.000167297
2.11405e-05
-0.000182156
1.87401e-05
-0.000189736
9.10889e-06
-0.000170063
-2.50908e-05
-0.000131101
-5.57522e-05
-9.79351e-05
-5.82379e-05
-6.79182e-05
-6.294e-05
-4.25611e-05
-6.07617e-05
-2.35361e-05
-5.1709e-05
-5.55546e-05
-5.04773e-05
0.000172726
-7.97229e-05
0.000107191
-9.24999e-05
5.47321e-05
-9.28494e-05
1.56008e-05
-8.98957e-05
-3.7692e-06
-9.5619e-05
3.60399e-06
-0.000113608
3.71972e-05
-0.000134931
4.72745e-05
-0.000161741
4.74607e-05
-0.000188555
4.7842e-05
-0.000197684
2.77604e-05
-0.000122143
-6.64569e-05
-2.5051e-05
-0.000122178
1.98141e-05
-0.000100766
2.51157e-05
-6.35602e-05
1.77806e-05
-5.56892e-05
4.66056e-06
-4.75083e-05
-2.91869e-06
-4.41123e-05
-5.84714e-05
-3.71305e-05
0.00020986
-6.14882e-05
0.000131524
-7.23746e-05
6.5576e-05
-6.67672e-05
9.98018e-06
-5.17274e-05
-1.87985e-05
-5.16118e-05
3.45873e-06
-7.9903e-05
6.53102e-05
-0.000115744
8.30147e-05
-0.000142502
7.41033e-05
-0.000126999
3.22208e-05
-4.45904e-05
-5.47671e-05
2.69903e-05
-0.000138136
4.40703e-05
-0.000139314
5.32331e-05
-0.000109978
5.5095e-05
-6.54487e-05
4.78577e-05
-4.84709e-05
3.28591e-05
-3.2502e-05
1.52301e-05
-2.64659e-05
-4.32377e-05
-2.82447e-05
0.000238117
-4.93372e-05
0.000152602
-7.05308e-05
8.67781e-05
-6.36903e-05
3.16579e-06
-3.07157e-05
-5.17867e-05
-7.4027e-06
-1.98581e-05
-9.64815e-06
6.74895e-05
-2.99455e-05
0.000103221
-5.20922e-05
9.61418e-05
-1.23765e-05
-7.59958e-06
3.97149e-05
-0.00010693
4.3273e-05
-0.000141641
5.1774e-05
-0.000147811
6.02461e-05
-0.000118455
6.32153e-05
-6.84176e-05
5.75854e-05
-4.28417e-05
4.41794e-05
-1.90944e-05
2.54787e-05
-7.7645e-06
-1.77577e-05
-1.65764e-05
0.000254699
-1.63289e-05
0.000152329
-4.38828e-05
0.00011425
-4.84615e-05
7.73161e-06
-5.16403e-06
-9.51284e-05
7.34744e-06
-3.23815e-05
1.56636e-05
5.91661e-05
2.37768e-05
9.49891e-05
3.56548e-05
8.41626e-05
4.43624e-05
-1.63981e-05
3.56805e-05
-9.82011e-05
4.07824e-05
-0.000146737
5.27596e-05
-0.000159795
6.34826e-05
-0.000129185
6.57205e-05
-7.06651e-05
5.95486e-05
-3.6694e-05
4.62645e-05
-5.80748e-06
2.62964e-05
1.22037e-05
8.53978e-06
-6.24585e-06
0.000260951
1.08538e-05
0.000135254
3.3901e-06
0.000121652
-2.2535e-06
1.33457e-05
2.38423e-05
-0.000121282
2.27414e-05
-3.13319e-05
2.14775e-05
6.04265e-05
2.38508e-05
9.25612e-05
2.83749e-05
7.94984e-05
2.82701e-05
-1.63466e-05
2.51427e-05
-9.50681e-05
2.82977e-05
-0.000149893
4.23085e-05
-0.00017381
5.53638e-05
-0.000142315
5.45946e-05
-6.9836e-05
4.52609e-05
-2.74173e-05
3.39499e-05
5.53714e-06
1.95194e-05
2.6631e-05
2.80616e-05
2.29922e-06
0.000258647
7.4467e-06
0.00013007
2.54051e-05
0.000103631
3.86416e-05
8.8125e-08
3.72512e-05
-0.00011995
3.55683e-05
-2.97467e-05
2.87933e-05
6.71874e-05
2.33565e-05
9.79872e-05
2.23281e-05
8.04804e-05
1.54046e-05
-9.42473e-06
7.0245e-06
-8.66841e-05
3.60786e-06
-0.000146448
6.87652e-06
-0.00017705
1.54033e-05
-0.000150768
1.40372e-05
-6.84312e-05
8.11471e-06
-2.14902e-05
1.07479e-05
2.93003e-06
9.09038e-06
2.82936e-05
3.71906e-05
-1.06077e-05
4.66523e-05
-2.13019e-05
4.53456e-05
-3.11207e-05
4.32238e-05
-4.02215e-05
4.04755e-05
-4.88798e-05
3.67013e-05
-5.67126e-05
3.15628e-05
-6.30365e-05
2.46485e-05
-6.75265e-05
1.6008e-05
-6.89861e-05
6.36263e-06
-6.73667e-05
-2.47823e-06
-6.3657e-05
-9.58723e-06
-5.93874e-05
-1.42526e-05
-5.58923e-05
-1.59523e-05
-5.33067e-05
-1.69099e-05
-5.02461e-05
-1.99453e-05
-4.53538e-05
-2.63378e-05
-3.88509e-05
-3.35157e-05
-3.01008e-05
-4.14468e-05
-1.72571e-05
-5.21794e-05
1.49247e-06
-6.61102e-05
2.53318e-05
-6.4471e-05
4.79609e-05
-2.82029e-05
3.18508e-05
6.85415e-05
-1.26505e-05
5.94079e-05
-2.51819e-05
5.79714e-05
-3.70732e-05
5.51728e-05
-4.82792e-05
5.16971e-05
-5.84606e-05
4.68705e-05
-6.79341e-05
4.10326e-05
-7.41774e-05
3.08776e-05
-7.49614e-05
1.67929e-05
-7.22372e-05
3.63684e-06
-6.79716e-05
-6.74244e-06
-6.26379e-05
-1.49216e-05
-5.72545e-05
-1.96339e-05
-5.40543e-05
-1.91515e-05
-5.32131e-05
-1.77515e-05
-5.19253e-05
-2.12333e-05
-4.87157e-05
-2.95485e-05
-4.40282e-05
-3.82037e-05
-3.83229e-05
-4.71521e-05
-3.03447e-05
-6.01576e-05
-2.24493e-05
-7.40062e-05
-9.239e-06
-7.77049e-05
7.33685e-06
-4.47818e-05
2.61862e-06
3.66108e-05
-1.53194e-05
7.48128e-05
-3.11513e-05
7.38941e-05
-4.87008e-05
7.28469e-05
-6.73316e-05
7.05001e-05
-8.37066e-05
6.3402e-05
-9.86878e-05
5.61548e-05
-0.000116434
4.8792e-05
-0.000131526
3.18016e-05
-0.000131397
3.54879e-06
-0.00011868
-1.9503e-05
-0.000103332
-3.01902e-05
-9.0653e-05
-3.22272e-05
-8.09191e-05
-2.89114e-05
-7.62891e-05
-2.23662e-05
-7.32414e-05
-2.43092e-05
-6.86756e-05
-3.40944e-05
-6.57907e-05
-4.1086e-05
-6.51172e-05
-4.78262e-05
-6.85033e-05
-5.67718e-05
-7.49814e-05
-6.75423e-05
-8.17676e-05
-7.09599e-05
-8.00329e-05
-4.63785e-05
-1.15754e-05
-6.58559e-05
-3.82598e-05
0.000113062
-8.16145e-05
0.000117239
-0.000148925
0.000140155
-0.000236996
0.000158591
-0.000309609
0.000136189
-0.000351484
9.85731e-05
-0.000357262
5.44707e-05
-0.000336452
1.11576e-05
-0.000304578
-2.82093e-05
-0.000269637
-5.40124e-05
-0.00023567
-6.3828e-05
-0.000207816
-6.01538e-05
-0.000187084
-4.98117e-05
-0.000170184
-3.93849e-05
-0.000152518
-4.18606e-05
-0.000135513
-5.11578e-05
-0.000120895
-5.5781e-05
-0.000109909
-5.88849e-05
-0.00010382
-6.29334e-05
-0.000106555
-6.48857e-05
-0.000119475
-5.81692e-05
-0.000129853
-3.60673e-05
-7.80141e-06
-0.000133545
-5.78598e-05
0.000170909
-0.000126516
0.00018588
-0.000223737
0.000237366
-0.000317049
0.000251921
-0.000386328
0.000205474
-0.000424921
0.000137287
-0.000403874
3.42779e-05
-0.000360277
-3.16478e-05
-0.000324929
-6.34545e-05
-0.000297853
-8.13456e-05
-0.000282155
-8.01177e-05
-0.000286312
-5.6331e-05
-0.000272034
-6.43008e-05
-0.000233716
-7.75339e-05
-0.000202924
-7.27915e-05
-0.000190964
-6.31879e-05
-0.000178422
-6.83851e-05
-0.00015447
-8.29207e-05
-0.000127432
-9.00928e-05
-0.000106652
-8.5779e-05
-9.73769e-05
-6.75825e-05
-9.5668e-05
-3.79009e-05
-6.18704e-07
-0.000102881
-7.12897e-05
0.000242186
-0.000150069
0.000264649
-0.000227471
0.00031476
-0.000284475
0.000308921
-0.000327284
0.000248281
-0.00035327
0.000163272
-0.000355725
3.68817e-05
-0.000348741
-3.79222e-05
-0.000343232
-6.91182e-05
-0.00034258
-8.28269e-05
-0.000368444
-5.44127e-05
-0.000360228
-6.4605e-05
-0.000324968
-9.9326e-05
-0.000290192
-0.000112189
-0.000253091
-0.000109766
-0.000218775
-9.75045e-05
-0.000195519
-9.16678e-05
-0.000179196
-9.92736e-05
-0.00015412
-0.000115201
-0.00012457
-0.000115361
-0.00010559
-8.64703e-05
-7.77742e-05
-6.57562e-05
-2.00984e-05
-5.8378e-05
-5.13538e-05
0.00029353
-0.000103376
0.000316662
-0.000152561
0.000363941
-0.00021183
0.000368191
-0.000265883
0.000302332
-0.000309338
0.000206716
-0.000347082
7.46034e-05
-0.00036227
-2.27428e-05
-0.000365443
-6.59568e-05
-0.000376343
-7.19415e-05
-0.00035981
-7.09454e-05
-0.00031704
-0.000107
-0.000299639
-0.000115928
-0.000291965
-0.000119622
-0.000282437
-0.000119508
-0.00026571
-0.00011403
-0.000248398
-0.000108952
-0.000253453
-9.42454e-05
-0.000267568
-0.000101117
-0.000244735
-0.000138222
-0.000197126
-0.000134112
-0.000148502
-0.000114415
-8.45283e-05
-8.41014e-05
-2.00078e-05
0.00031353
-3.63429e-05
0.00033299
-4.72184e-05
0.00037481
-7.6812e-05
0.000397785
-0.0001228
0.000348317
-0.000179794
0.000263698
-0.000253125
0.000147921
-0.000311397
3.5516e-05
-0.000337875
-3.94873e-05
-0.000334629
-7.51973e-05
-0.00030581
-9.97669e-05
-0.000290186
-0.000122262
-0.000280757
-0.00012447
-0.000274907
-0.00012575
-0.000270893
-0.000123613
-0.000267199
-0.000118342
-0.000267594
-0.000108421
-0.000273191
-8.86274e-05
-0.000297598
-7.67419e-05
-0.000348898
-8.69515e-05
-0.000400573
-8.24727e-05
-0.000418735
-9.62872e-05
-0.000119207
-0.000384088
8.15896e-07
0.000312706
8.67625e-06
0.000325121
3.5101e-05
0.000348378
5.98024e-05
0.000373081
5.50382e-05
0.000353077
2.03733e-05
0.000298356
-5.34164e-05
0.000221699
-0.000152385
0.000134472
-0.000244495
5.26113e-05
-0.000297184
-2.2518e-05
-0.00030516
-9.17992e-05
-0.000287774
-0.000139643
-0.000268827
-0.000143242
-0.000257032
-0.000136911
-0.000248908
-0.00013194
-0.000245281
-0.000122352
-0.000249095
-0.000105299
-0.000251763
-8.62392e-05
-0.000258683
-6.95764e-05
-0.000307441
-3.81988e-05
-0.000387098
-2.83722e-06
-0.000466247
-1.71733e-05
-6.07854e-05
-0.000524696
1.10601e-05
0.000301637
2.82491e-05
0.000307925
5.8553e-05
0.000318066
0.000101729
0.000329898
0.000136454
0.000318345
0.000148882
0.000285924
0.000131732
0.000238842
7.63699e-05
0.000189824
-7.21981e-06
0.000136189
-9.18507e-05
6.21014e-05
-0.000151682
-3.19777e-05
-0.000194156
-9.71771e-05
-0.000223162
-0.000114245
-0.000238884
-0.000121201
-0.000238501
-0.000132257
-0.000231893
-0.000128466
-0.000235171
-0.000102134
-0.000241591
-7.99473e-05
-0.000243519
-6.81125e-05
-0.000225868
-5.59091e-05
-0.000193633
-3.49757e-05
-0.000173766
-3.70443e-05
-5.20954e-05
-0.000182392
1.58343e-05
0.000285794
3.56153e-05
0.000288135
6.30184e-05
0.000290653
9.93906e-05
0.000293517
0.00013366
0.000284068
0.000156706
0.00026287
0.000163969
0.000231571
0.000157873
0.000195911
0.000140093
0.000153958
0.000103137
9.90457e-05
3.9009e-05
3.21385e-05
-2.79264e-05
-3.0254e-05
-7.52553e-05
-6.6928e-05
-0.000109934
-8.65311e-05
-0.000147109
-9.50923e-05
-0.000205618
-6.99677e-05
-0.000240648
-6.67969e-05
-0.000225944
-9.40342e-05
-0.000213331
-8.10505e-05
-0.00020326
-6.62768e-05
-0.00018537
-5.35561e-05
-0.00016408
-5.78374e-05
-5.77339e-05
-0.000158196
1.73812e-05
0.000268403
3.71561e-05
0.000268351
6.08891e-05
0.000266911
8.98437e-05
0.000264554
0.000119292
0.00025461
0.000144367
0.000237786
0.000159145
0.000216784
0.000162111
0.000192936
0.00015562
0.000160439
0.000139685
0.000114969
0.000112309
5.9502e-05
7.54639e-05
6.58056e-06
4.15378e-05
-3.30131e-05
8.58251e-06
-5.35873e-05
-3.2775e-05
-5.37464e-05
-7.62094e-05
-2.65435e-05
-0.000104981
-3.80353e-05
-0.000138267
-6.07593e-05
-0.000178291
-4.1045e-05
-0.000192433
-5.21207e-05
-0.000181809
-6.33723e-05
-0.00016403
-7.54882e-05
-8.19754e-05
-0.000140172
1.74342e-05
0.00025096
3.59555e-05
0.00024982
5.59389e-05
0.000246918
7.83567e-05
0.000242126
0.000100529
0.000232428
0.000121111
0.000217194
0.000139317
0.000198568
0.00015108
0.000181162
0.000154784
0.000156726
0.000148593
0.00012115
0.000129908
7.81764e-05
0.000100859
3.56184e-05
6.69641e-05
8.7078e-07
3.39079e-05
-2.05415e-05
1.25648e-05
-3.24143e-05
1.6202e-05
-3.01913e-05
4.26274e-06
-2.61071e-05
-3.90041e-05
-1.75033e-05
-8.36443e-05
3.58536e-06
-0.000119071
-1.67045e-05
-0.000140567
-4.18869e-05
-0.000149673
-6.64e-05
-7.79379e-05
-0.000153732
1.58912e-05
0.000235059
3.23097e-05
0.000233392
4.95529e-05
0.000229666
6.78827e-05
0.000223787
8.58414e-05
0.00021446
0.000101806
0.00020122
0.000116344
0.00018402
0.000130051
0.000167446
0.000139042
0.000147725
0.000139918
0.000120264
0.000132034
8.6049e-05
0.000116268
5.13742e-05
9.65184e-05
2.06095e-05
7.53861e-05
5.80167e-07
5.47765e-05
-1.18155e-05
3.60579e-05
-1.14834e-05
2.31099e-05
-1.31699e-05
2.39696e-05
-1.83737e-05
3.73226e-05
-9.77827e-06
3.97415e-05
-1.91339e-05
2.59476e-05
-2.81034e-05
2.98497e-08
-4.04923e-05
-4.72203e-05
-3.06982e-05
1.42925e-05
0.000220757
2.87398e-05
0.000218936
4.33791e-05
0.000215017
5.82516e-05
0.000208905
7.273e-05
0.000199972
8.581e-05
0.00018813
9.71402e-05
0.00017268
0.000107932
0.000156644
0.000117531
0.000138117
0.000121474
0.00011631
0.000117413
9.00998e-05
0.000106287
6.24906e-05
8.94487e-05
3.7437e-05
7.08919e-05
1.91266e-05
5.29629e-05
6.10283e-06
4.1532e-05
-6.28872e-08
3.11216e-05
-2.77006e-06
1.96834e-05
-6.94612e-06
1.5707e-05
-5.81236e-06
1.33019e-05
-1.67396e-05
1.02747e-05
-2.50869e-05
6.10757e-06
-3.63361e-05
-4.26756e-05
1.55226e-06
1.22465e-05
0.000208501
2.45208e-05
0.000206652
3.6831e-05
0.000202697
4.90555e-05
0.000196671
6.08325e-05
0.000188185
7.14324e-05
0.00017752
8.04266e-05
0.000163676
8.81123e-05
0.000148949
9.44902e-05
0.000131729
9.81873e-05
0.000112603
9.71243e-05
9.11527e-05
9.05249e-05
6.90799e-05
7.97446e-05
4.8207e-05
6.70321e-05
3.18288e-05
5.42515e-05
1.88729e-05
4.34153e-05
1.0763e-05
3.64428e-05
4.1919e-06
3.37137e-05
-4.22736e-06
3.46583e-05
-6.76753e-06
3.33573e-05
-1.5449e-05
2.87708e-05
-2.05108e-05
2.10267e-05
-2.86025e-05
-3.29629e-05
1.13034e-05
1.03217e-05
0.00019817
2.05604e-05
0.000196404
3.06734e-05
0.000192575
4.05051e-05
0.00018683
4.98444e-05
0.000178837
5.82401e-05
0.000169115
6.52863e-05
0.00015662
7.09412e-05
0.000143284
7.49694e-05
0.000127691
7.66272e-05
0.000110936
7.48071e-05
9.29628e-05
6.92359e-05
7.46411e-05
6.03428e-05
5.70901e-05
5.02952e-05
4.18663e-05
4.0104e-05
2.90541e-05
3.21308e-05
1.8726e-05
2.51795e-05
1.11332e-05
1.84477e-05
2.49418e-06
1.44408e-05
-2.77078e-06
1.12401e-05
-1.22586e-05
9.56847e-06
-1.88494e-05
8.20342e-06
-2.72478e-05
-3.19171e-05
7.14732e-06
8.48848e-06
0.000189673
1.68998e-05
0.000187984
2.51366e-05
0.000184329
3.29864e-05
0.000178971
4.02869e-05
0.000171527
4.6714e-05
0.000162679
5.1972e-05
0.000151353
5.5976e-05
0.000139271
5.84826e-05
0.000125175
5.91465e-05
0.000110262
5.77003e-05
9.43994e-05
5.39679e-05
7.83638e-05
4.82312e-05
6.28169e-05
4.12639e-05
4.88238e-05
3.40561e-05
3.62519e-05
2.76815e-05
2.50907e-05
2.28352e-05
1.59695e-05
1.92559e-05
6.06341e-06
1.73132e-05
-8.38241e-07
1.47431e-05
-9.69853e-06
1.16262e-05
-1.57427e-05
8.28257e-06
-2.39144e-05
-2.93698e-05
5.72508e-06
6.61402e-06
0.00018305
1.31851e-05
0.000181404
1.95566e-05
0.000177949
2.55674e-05
0.000172952
3.10461e-05
0.000166039
3.57452e-05
0.000157971
3.93934e-05
0.000147696
4.19066e-05
0.000136748
4.30169e-05
0.000124055
4.25705e-05
0.000110699
4.03785e-05
9.6582e-05
3.64578e-05
8.22749e-05
3.1105e-05
6.81602e-05
2.51387e-05
5.47804e-05
1.89024e-05
4.24786e-05
1.31961e-05
3.07873e-05
8.21779e-06
2.09381e-05
3.71925e-06
1.05522e-05
8.30669e-07
2.04066e-06
-1.3028e-06
-7.57487e-06
-2.125e-06
-1.49302e-05
-2.61438e-06
-2.34348e-05
-3.02728e-05
-1.7212e-06
5.054e-06
0.000177987
1.0015e-05
0.000176434
1.47349e-05
0.00017322
1.90894e-05
0.000168588
2.29473e-05
0.000162172
2.61333e-05
0.000154776
2.84821e-05
0.000145338
2.99059e-05
0.000135316
3.02807e-05
0.000123671
2.94859e-05
0.000111485
2.75329e-05
9.85258e-05
2.44074e-05
8.53912e-05
2.03708e-05
7.21876e-05
1.57632e-05
5.93787e-05
1.096e-05
4.72724e-05
6.39161e-06
3.53462e-05
2.5692e-06
2.47511e-05
-6.72824e-07
1.37847e-05
-2.8254e-06
4.18366e-06
-4.41356e-06
-5.99631e-06
-5.29889e-06
-1.40546e-05
-5.67593e-06
-2.30675e-05
-3.09719e-05
-4.98652e-06
3.47321e-06
0.000174505
6.80119e-06
0.000173097
9.88825e-06
0.000170124
1.26485e-05
0.000165819
1.49487e-05
0.000159864
1.67255e-05
0.00015299
1.77885e-05
0.000144266
1.80144e-05
0.000135081
1.73335e-05
0.000124343
1.56033e-05
0.000113206
1.29508e-05
0.000101169
9.42755e-06
8.89055e-05
5.17924e-06
7.64268e-05
6.80321e-07
6.38685e-05
-3.85538e-06
5.1799e-05
-8.11899e-06
3.96007e-05
-1.16896e-05
2.83125e-05
-1.47184e-05
1.68043e-05
-1.64987e-05
5.95478e-06
-1.72636e-05
-5.24062e-06
-1.65463e-05
-1.4781e-05
-1.48606e-05
-2.47625e-05
-3.38074e-05
-1.20342e-05
2.04392e-06
0.000172453
4.06983e-06
0.000171063
5.79712e-06
0.000168389
7.20539e-06
0.000164403
8.16443e-06
0.000158896
8.69281e-06
0.000152453
8.63188e-06
0.000144319
7.93067e-06
0.000135774
6.5904e-06
0.000125675
4.46923e-06
0.000115319
1.7805e-06
0.000103849
-1.50255e-06
9.21799e-05
-5.18375e-06
8.00994e-05
-9.10018e-06
6.77763e-05
-1.30387e-05
5.57287e-05
-1.6747e-05
4.33002e-05
-1.98934e-05
3.14501e-05
-2.24643e-05
1.93663e-05
-2.41664e-05
7.64799e-06
-2.50954e-05
-4.3206e-06
-2.49398e-05
-1.49456e-05
-2.35692e-05
-2.61419e-05
-3.62646e-05
-2.1121e-05
4.74917e-07
0.00017197
1.07836e-06
0.000170452
1.4675e-06
0.000167992
1.62069e-06
0.000164242
1.34489e-06
0.000159164
6.67438e-07
0.000153123
-5.78901e-07
0.000145557
-2.37893e-06
0.000137565
-4.72981e-06
0.000128018
-7.71411e-06
0.000118295
-1.11701e-05
0.000107297
-1.50991e-05
9.61006e-05
-1.93111e-05
8.43029e-05
-2.361e-05
7.20668e-05
-2.76973e-05
5.98075e-05
-3.14892e-05
4.70837e-05
-3.4646e-05
3.45984e-05
-3.71601e-05
2.18719e-05
-3.87391e-05
9.21847e-06
-3.95923e-05
-3.47583e-06
-3.92212e-05
-1.53254e-05
-3.77437e-05
-2.76281e-05
-3.83802e-05
-3.56369e-05
-7.16317e-07
0.000172679
-1.50707e-06
0.000171235
-2.40394e-06
0.000168881
-3.47514e-06
0.000165305
-4.8799e-06
0.000160561
-6.61741e-06
0.000154852
-8.81388e-06
0.000147746
-1.13956e-05
0.000140139
-1.44047e-05
0.000131019
-1.7833e-05
0.000121715
-2.16135e-05
0.00011107
-2.56868e-05
0.000100166
-2.99318e-05
8.85398e-05
-3.43131e-05
7.64402e-05
-3.85493e-05
6.40356e-05
-4.25926e-05
5.11189e-05
-4.62144e-05
3.82122e-05
-4.93747e-05
2.50241e-05
-5.20902e-05
1.19258e-05
-5.4284e-05
-1.29036e-06
-5.56844e-05
-1.39335e-05
-5.69639e-05
-2.63569e-05
-3.73904e-05
-5.79621e-05
-1.76636e-06
0.000174438
-3.74654e-06
0.000173207
-5.88265e-06
0.000171009
-8.19408e-06
0.000167609
-1.07868e-05
0.000163146
-1.37027e-05
0.000157761
-1.70774e-05
0.000151113
-2.08128e-05
0.000143867
-2.4975e-05
0.000135174
-2.94591e-05
0.000126192
-3.42911e-05
0.000115894
-3.93427e-05
0.00010521
-4.44467e-05
9.36361e-05
-4.95381e-05
8.15238e-05
-5.45461e-05
6.90359e-05
-5.96087e-05
5.6174e-05
-6.44054e-05
4.30011e-05
-6.90205e-05
2.96313e-05
-7.31929e-05
1.60901e-05
-7.73084e-05
2.81722e-06
-8.12631e-05
-9.98657e-06
-8.4476e-05
-2.31519e-05
-3.64852e-05
-8.5389e-05
-2.96548e-06
0.000177396
-6.08334e-06
0.000176318
-9.36361e-06
0.000174283
-1.28304e-05
0.000171069
-1.65209e-05
0.00016683
-2.04296e-05
0.000161663
-2.4668e-05
0.000155344
-2.91413e-05
0.000148333
-3.39846e-05
0.00014001
-3.90485e-05
0.000131248
-4.44516e-05
0.00012129
-5.01047e-05
0.000110856
-5.60495e-05
9.95736e-05
-6.23247e-05
8.7792e-05
-6.87208e-05
7.54248e-05
-7.5252e-05
6.26976e-05
-8.1906e-05
4.96474e-05
-8.85202e-05
3.62378e-05
-9.5616e-05
2.31785e-05
-0.000102627
9.82127e-06
-0.000107499
-5.12281e-06
-0.00010899
-2.16678e-05
-3.89282e-05
-0.000106555
-4.14878e-06
0.000181538
-8.39556e-06
0.000180558
-1.27736e-05
0.000178654
-1.73646e-05
0.000175653
-2.22274e-05
0.000171686
-2.73732e-05
0.000166802
-3.28959e-05
0.00016086
-3.86956e-05
0.000154126
-4.4909e-05
0.000146216
-5.13836e-05
0.000137716
-5.82073e-05
0.000128107
-6.52606e-05
0.000117903
-7.24442e-05
0.00010675
-7.99139e-05
9.52547e-05
-8.78026e-05
8.33063e-05
-9.59632e-05
7.08508e-05
-0.000104562
5.82395e-05
-0.000114088
4.57566e-05
-0.0001226
3.16836e-05
-0.000127629
1.48439e-05
-0.000128621
-4.13858e-06
-0.000125409
-2.48868e-05
-4.54632e-05
-0.000118881
-5.40417e-06
0.000186936
-1.08709e-05
0.000186019
-1.64066e-05
0.000184183
-2.20884e-05
0.000181328
-2.79402e-05
0.000177531
-3.39789e-05
0.000172834
-4.0308e-05
0.000167183
-4.68955e-05
0.000160707
-5.38995e-05
0.000153214
-6.12363e-05
0.000145047
-6.90658e-05
0.00013593
-7.73807e-05
0.000126211
-8.63086e-05
0.000115672
-9.57771e-05
0.000104716
-0.000105715
9.32379e-05
-0.000116558
8.16868e-05
-0.000128034
6.97095e-05
-0.000137384
5.50999e-05
-0.000142104
3.63976e-05
-0.000142666
1.53993e-05
-0.000139377
-7.43502e-06
-0.000133195
-3.1075e-05
-5.33524e-05
-0.000125313
-6.59872e-06
0.000193529
-1.32682e-05
0.000192682
-2.00287e-05
0.000190938
-2.69978e-05
0.000188292
-3.42255e-05
0.000184753
-4.17352e-05
0.000180338
-4.96089e-05
0.00017505
-5.77947e-05
0.000168887
-6.63985e-05
0.000161812
-7.53002e-05
0.000153942
-8.45436e-05
0.000145167
-9.41491e-05
0.00013581
-0.000104276
0.000125792
-0.000115343
0.000115777
-0.00012744
0.000105329
-0.000140121
9.43624e-05
-0.000150006
7.95883e-05
-0.000154092
5.91791e-05
-0.000154146
3.64459e-05
-0.000150454
1.17003e-05
-0.000143961
-1.39338e-05
-0.000136491
-3.85511e-05
-6.1593e-05
-0.000128257
-7.8336e-06
0.000201357
-1.5703e-05
0.000200546
-2.35874e-05
0.000198817
-3.15854e-05
0.000196284
-3.97371e-05
0.000192899
-4.81228e-05
0.000188718
-5.68412e-05
0.000183763
-6.59473e-05
0.000177988
-7.55577e-05
0.000171417
-8.56849e-05
0.000164064
-9.63981e-05
0.000155875
-0.000107625
0.000147031
-0.000119626
0.000137788
-0.000132643
0.000128789
-0.000146179
0.00011886
-0.000156525
0.000104703
-0.000160374
8.3431e-05
-0.000160644
5.94434e-05
-0.000157591
3.3387e-05
-0.000151487
5.59077e-06
-0.000144751
-2.06759e-05
-0.000137598
-4.57103e-05
-6.88009e-05
-0.000130396
-9.1736e-06
0.000210526
-1.84239e-05
0.000209791
-2.77875e-05
0.000208175
-3.73506e-05
0.000205842
-4.71395e-05
0.000202683
-5.71826e-05
0.000198756
-6.75167e-05
0.000194092
-7.81383e-05
0.000188604
-8.91858e-05
0.000182459
-0.000100708
0.000175581
-0.00011301
0.000168171
-0.000126106
0.000160122
-0.000140002
0.000151678
-0.000154049
0.000142832
-0.000164698
0.000129503
-0.000168041
0.000108041
-0.000167474
8.28585e-05
-0.000164148
5.61127e-05
-0.000157945
2.71785e-05
-0.00015153
-8.29892e-07
-0.000144647
-2.75637e-05
-0.000137424
-5.29397e-05
-7.61419e-05
-0.000130088
-1.0215e-05
0.000220736
-2.04633e-05
0.000220035
-3.0768e-05
0.000218475
-4.12173e-05
0.000216287
-5.18676e-05
0.000213329
-6.27965e-05
0.00020968
-7.40351e-05
0.000205326
-8.5613e-05
0.000200178
-9.75506e-05
0.000194392
-0.000109946
0.000187972
-0.000123024
0.000181244
-0.000137298
0.000174391
-0.000152443
0.000166818
-0.000164569
0.000154954
-0.000168572
0.000133501
-0.000167946
0.000107411
-0.000165658
8.05652e-05
-0.000160374
5.08241e-05
-0.000154337
2.11362e-05
-0.000147745
-7.42666e-06
-0.000140585
-3.47286e-05
-0.000133168
-6.03624e-05
-8.39862e-05
-0.000125328
-1.18725e-05
0.000232604
-2.37787e-05
0.000231937
-3.57907e-05
0.000230483
-4.79521e-05
0.000228444
-6.03061e-05
0.000225678
-7.29026e-05
0.000222273
-8.57379e-05
0.000218157
-9.88156e-05
0.000213251
-0.000112157
0.000207729
-0.000125747
0.000201558
-0.000139843
0.000195336
-0.000154453
0.000188997
-0.000167126
0.000179488
-0.000172007
0.000159831
-0.000170971
0.000132461
-0.00016862
0.000105055
-0.000163235
7.51757e-05
-0.000156408
4.39923e-05
-0.000149378
1.41021e-05
-0.000141864
-1.49455e-05
-0.000134067
-4.25304e-05
-0.000126074
-6.836e-05
-9.21891e-05
-0.000117875
-1.24318e-05
0.000245033
-2.49295e-05
0.000244431
-3.75959e-05
0.000243146
-5.04174e-05
0.000241262
-6.34029e-05
0.00023866
-7.66153e-05
0.000235482
-9.0094e-05
0.000231632
-0.000103915
0.000227069
-0.000118193
0.000222003
-0.00013293
0.000216292
-0.000148137
0.000210539
-0.000162406
0.000203263
-0.000169758
0.000186836
-0.000169369
0.000159438
-0.000167597
0.000130685
-0.000163602
0.000101056
-0.000156951
6.85202e-05
-0.000149824
3.68621e-05
-0.000142156
6.42977e-06
-0.000134282
-2.28241e-05
-0.000126263
-5.05535e-05
-0.000118151
-7.64757e-05
-0.000100443
-0.000109902
-1.46006e-05
0.00025963
-2.91836e-05
0.000259011
-4.36922e-05
0.000257652
-5.81304e-05
0.000255697
-7.26456e-05
0.000253172
-8.72517e-05
0.000250085
-0.000101897
0.000246275
-0.000116743
0.000241911
-0.000131924
0.000237181
-0.000147021
0.000231387
-0.00016126
0.000224775
-0.000170222
0.000212221
-0.000170824
0.000187434
-0.000168157
0.000156768
-0.000164041
0.000126566
-0.000156856
9.38676e-05
-0.00014889
6.05508e-05
-0.000140964
2.89319e-05
-0.000132703
-1.83516e-06
-0.000124518
-3.10127e-05
-0.000116251
-5.88238e-05
-0.000107986
-8.47451e-05
-0.00010883
-9.96024e-05
-1.46688e-05
0.000274296
-2.93869e-05
0.000273727
-4.41463e-05
0.000272409
-5.89977e-05
0.000270546
-7.39592e-05
0.000268131
-8.89922e-05
0.000265115
-0.000104116
0.000261397
-0.000119529
0.000257321
-0.000135228
0.000252877
-0.000150866
0.000247022
-0.00016394
0.000237847
-0.000168115
0.000216393
-0.000165876
0.000185193
-0.000162606
0.000153495
-0.000156683
0.00012064
-0.000148997
8.61785e-05
-0.000141154
5.27051e-05
-0.000133092
2.08673e-05
-0.000124825
-1.01059e-05
-0.000116499
-3.93414e-05
-0.000108252
-6.70742e-05
-0.000100021
-9.29795e-05
-0.000117102
-9.17524e-05
-1.7029e-05
0.000291323
-3.40174e-05
0.000290713
-5.09218e-05
0.000289311
-6.76466e-05
0.000287269
-8.41415e-05
0.000284624
-0.000100481
0.000281452
-0.000116662
0.000277575
-0.000132704
0.000273361
-0.00014806
0.000268232
-0.000161517
0.000260477
-0.000168204
0.000244533
-0.000166995
0.000215182
-0.000162675
0.00018087
-0.000156618
0.000147436
-0.000148081