/*--------------------------------*- C++ -*----------------------------------*\
| =========                 |                                                 |
| \\      /  F ield         | OpenFOAM: The Open Source CFD Toolbox           |
|  \\    /   O peration     | Version:  3.0.1                                 |
|   \\  /    A nd           | Web:      www.OpenFOAM.org                      |
|    \\/     M anipulation  |                                                 |
\*---------------------------------------------------------------------------*/
FoamFile
{
    version     2.0;
    format      ascii;
    class       volScalarField;
    location    "0.0001";
    object      maxKappa;
}
// * * * * * * * * * * * * * * * * * * * * * * * * * * * * * * * * * * * * * //

dimensions      [0 0 0 0 0 0 0];

internalField   nonuniform List<scalar> 
1000
(
0.495791
0.495791
0.495791
0.495791
0.495791
0.495791
0.495791
0.495791
0.495791
0.495791
0.495791
0.495791
0.495791
0.495791
0.495791
0.495791
0.495792
0.495792
0.495792
0.495792
0.495793
0.495793
0.495794
0.495795
0.495797
0.495801
0.495805
0.495811
0.49582
0.495834
0.495857
0.495887
0.495933
0.495998
0.496094
0.49623
0.496415
0.496689
0.49703
0.497571
0.498193
0.498925
0.499853
0.500954
0.502198
0.504158
0.505925
0.507414
0.508597
0.489339
0.490511
0.48668
0.48506
0.485368
0.486629
0.488189
0.489433
0.490666
0.491865
0.492919
0.493681
0.49429
0.494733
0.495073
0.495271
0.495419
0.495531
0.495618
0.495671
0.495707
0.495735
0.495751
0.495764
0.495773
0.495779
0.495783
0.495786
0.495788
0.495789
0.49579
0.49579
0.495791
0.495791
0.495791
0.495791
0.495791
0.495791
0.495791
0.495791
0.495791
0.495791
0.495791
0.495791
0.495791
0.495791
0.495791
0.495791
0.495791
0.495791
0.495791
0.495791
0.495791
0.495791
0.495791
0.495791
0.495791
0.495791
0.495791
0.495791
0.495791
0.495791
0.495791
0.495791
0.495791
0.495791
0.495791
0.495792
0.495792
0.495792
0.495792
0.495793
0.495793
0.495794
0.495795
0.495797
0.495801
0.495805
0.495811
0.49582
0.495834
0.495857
0.495887
0.495933
0.495998
0.496094
0.49623
0.496415
0.496689
0.49703
0.497571
0.498193
0.498929
0.499926
0.501203
0.502198
0.504158
0.505993
0.507414
0.508597
0.513645
0.495402
0.489753
0.485797
0.485621
0.486629
0.488189
0.489433
0.490666
0.491956
0.492919
0.493681
0.494297
0.494735
0.495073
0.495293
0.495419
0.495547
0.495618
0.495673
0.495707
0.495735
0.495753
0.495765
0.495774
0.49578
0.495784
0.495786
0.495788
0.495789
0.49579
0.49579
0.495791
0.495791
0.495791
0.495791
0.495791
0.495791
0.495791
0.495791
0.495791
0.495791
0.495791
0.495791
0.495791
0.495791
0.495791
0.495791
0.495791
0.495791
0.495791
0.495791
0.495791
0.495791
0.495791
0.495791
0.495791
0.495791
0.495791
0.495791
0.495791
0.495791
0.495791
0.495791
0.495791
0.495791
0.495791
0.495792
0.495792
0.495792
0.495792
0.495793
0.495793
0.495794
0.495795
0.495798
0.495801
0.495806
0.495812
0.49582
0.495838
0.495856
0.495892
0.495933
0.496007
0.496097
0.496234
0.496421
0.496679
0.497007
0.497519
0.498163
0.498929
0.499926
0.501269
0.502751
0.504158
0.505993
0.506654
0.50426
0.513645
0.495402
0.489753
0.485797
0.485621
0.486702
0.488048
0.48938
0.490628
0.491956
0.492881
0.493659
0.494297
0.494735
0.495064
0.495293
0.495419
0.495547
0.495617
0.495673
0.495707
0.495734
0.495753
0.495766
0.495774
0.49578
0.495784
0.495786
0.495788
0.495789
0.49579
0.49579
0.495791
0.495791
0.495791
0.495791
0.495791
0.495791
0.495791
0.495791
0.495791
0.495791
0.495791
0.495791
0.495791
0.495791
0.495791
0.495791
0.495791
0.495791
0.495791
0.495791
0.495791
0.495791
0.495791
0.495791
0.495791
0.495791
0.495791
0.495791
0.495791
0.495791
0.495791
0.495791
0.495791
0.495791
0.495791
0.495792
0.495792
0.495792
0.495792
0.495793
0.495793
0.495794
0.495796
0.495798
0.495801
0.495806
0.495813
0.495826
0.49584
0.495864
0.495896
0.495941
0.496013
0.496111
0.496245
0.496424
0.496693
0.497018
0.497491
0.49813
0.498915
0.499922
0.501269
0.502751
0.503315
0.504791
0.505556
0.502667
0.508158
0.495402
0.486198
0.484912
0.485509
0.486702
0.488147
0.489495
0.490669
0.491872
0.492873
0.493622
0.494224
0.494697
0.495048
0.49526
0.495411
0.495534
0.495613
0.495672
0.495706
0.495734
0.495753
0.495766
0.495774
0.49578
0.495784
0.495786
0.495788
0.495789
0.49579
0.49579
0.495791
0.495791
0.495791
0.495791
0.495791
0.495791
0.495791
0.495791
0.495791
0.495791
0.495791
0.495791
0.495791
0.495791
0.495791
0.495791
0.495791
0.495791
0.495791
0.495791
0.495791
0.495791
0.495791
0.495791
0.495791
0.495791
0.495791
0.495791
0.495791
0.495791
0.495791
0.495791
0.495791
0.495791
0.495791
0.495792
0.495792
0.495792
0.495792
0.495793
0.495794
0.495795
0.495796
0.495799
0.495802
0.495807
0.495814
0.495826
0.495841
0.495865
0.495901
0.495947
0.496014
0.496122
0.496251
0.496424
0.496693
0.497018
0.497419
0.498023
0.498889
0.499867
0.501171
0.503019
0.504513
0.505057
0.504371
0.501482
0.502295
0.49222
0.48792
0.48602
0.485544
0.48666
0.488147
0.489495
0.490669
0.49188
0.492858
0.493606
0.494246
0.49468
0.494998
0.495243
0.495401
0.495532
0.495613
0.495664
0.495706
0.495732
0.495753
0.495766
0.495774
0.49578
0.495783
0.495786
0.495788
0.495789
0.49579
0.49579
0.495791
0.495791
0.495791
0.495791
0.495791
0.495791
0.495791
0.495791
0.495791
0.495791
0.495791
0.495791
0.495791
0.495791
0.495791
0.495791
0.495791
0.495791
0.495791
0.495791
0.495791
0.495791
0.495791
0.495791
0.495791
0.495791
0.495791
0.495791
0.495791
0.495791
0.495791
0.495791
0.495791
0.495791
0.495792
0.495792
0.495792
0.495792
0.495792
0.495793
0.495794
0.495795
0.495796
0.495799
0.495802
0.495808
0.495815
0.495827
0.495843
0.495867
0.495903
0.495949
0.496014
0.496122
0.496251
0.496424
0.496689
0.496996
0.497384
0.497974
0.498942
0.499999
0.501171
0.503019
0.504513
0.50593
0.508134
0.503962
0.503759
0.494353
0.48792
0.48602
0.485544
0.486777
0.488155
0.489495
0.490833
0.491942
0.492896
0.493606
0.494246
0.49468
0.494998
0.495232
0.495394
0.495527
0.495613
0.495664
0.495704
0.49573
0.495752
0.495764
0.495773
0.495779
0.495783
0.495786
0.495788
0.495789
0.49579
0.49579
0.495791
0.495791
0.495791
0.495791
0.495791
0.495791
0.495791
0.495791
0.495791
0.495791
0.495791
0.495791
0.495791
0.495791
0.495791
0.495791
0.495791
0.495791
0.495791
0.495791
0.495791
0.495791
0.495791
0.495791
0.495791
0.495791
0.495791
0.495791
0.495791
0.495791
0.495791
0.495791
0.495791
0.495791
0.495792
0.495792
0.495792
0.495792
0.495792
0.495793
0.495794
0.495795
0.495796
0.495799
0.495803
0.495809
0.495816
0.495827
0.495844
0.495871
0.495904
0.495949
0.496012
0.496117
0.496225
0.496423
0.496653
0.496982
0.497408
0.498048
0.498955
0.500018
0.501097
0.502803
0.50385
0.50593
0.508134
0.503962
0.503759
0.494353
0.48675
0.485005
0.485544
0.486854
0.488155
0.489401
0.490833
0.491942
0.492896
0.49359
0.494229
0.494678
0.494995
0.495235
0.495385
0.49552
0.495597
0.495664
0.495701
0.49573
0.49575
0.495764
0.495773
0.495779
0.495783
0.495786
0.495787
0.495789
0.49579
0.49579
0.495791
0.495791
0.495791
0.495791
0.495791
0.495791
0.495791
0.495791
0.495791
0.495791
0.495791
0.495791
0.495791
0.495791
0.495791
0.495791
0.495791
0.495791
0.495791
0.495791
0.495791
0.495791
0.495791
0.495791
0.495791
0.495791
0.495791
0.495791
0.495791
0.495791
0.495791
0.495791
0.495791
0.495791
0.495791
0.495792
0.495792
0.495792
0.495792
0.495793
0.495794
0.495795
0.495796
0.495799
0.495803
0.495809
0.495816
0.495826
0.495844
0.495873
0.495909
0.495949
0.496026
0.49613
0.496233
0.496401
0.496655
0.496945
0.497415
0.498109
0.498975
0.500033
0.501546
0.502922
0.504287
0.505878
0.506114
0.502949
0.50977
0.497313
0.485327
0.484937
0.485526
0.486854
0.488155
0.489401
0.490742
0.491855
0.492665
0.493513
0.494109
0.494665
0.494998
0.495235
0.495389
0.495515
0.495592
0.495662
0.4957
0.495729
0.495749
0.495764
0.495773
0.495779
0.495783
0.495785
0.495787
0.495789
0.49579
0.49579
0.495791
0.495791
0.495791
0.495791
0.495791
0.495791
0.495791
0.495791
0.495791
0.495791
0.495791
0.495791
0.495791
0.495791
0.495791
0.495791
0.495791
0.495791
0.495791
0.495791
0.495791
0.495791
0.495791
0.495791
0.495791
0.495791
0.495791
0.495791
0.495791
0.495791
0.495791
0.495791
0.495791
0.495791
0.495792
0.495792
0.495792
0.495792
0.495792
0.495793
0.495793
0.495795
0.495796
0.495799
0.495803
0.495809
0.495816
0.495827
0.495846
0.495874
0.495911
0.495957
0.496026
0.496132
0.496256
0.496426
0.496666
0.497091
0.497457
0.498239
0.498975
0.500047
0.501705
0.502922
0.504287
0.50561
0.50715
0.507286
0.50977
0.497313
0.4871
0.485335
0.485526
0.486691
0.487987
0.48936
0.490729
0.491873
0.492713
0.493422
0.494123
0.494638
0.494998
0.495221
0.495389
0.495505
0.495587
0.495657
0.495697
0.495725
0.495748
0.495762
0.495773
0.495779
0.495783
0.495785
0.495787
0.495789
0.495789
0.49579
0.495791
0.495791
0.495791
0.495791
0.495791
0.495791
0.495791
0.495791
0.495791
0.495791
0.495791
0.495791
0.495791
0.495791
0.495791
0.495791
0.495791
0.495791
0.495791
0.495791
0.495791
0.495791
0.495791
0.495791
0.495791
0.495791
0.495791
0.495791
0.495791
0.495791
0.495791
0.495791
0.495791
0.495791
0.495792
0.495792
0.495792
0.495792
0.495792
0.495793
0.495793
0.495795
0.495796
0.495799
0.495803
0.495809
0.495816
0.495827
0.495846
0.495874
0.495911
0.495957
0.496025
0.496132
0.496256
0.496426
0.496666
0.497091
0.497457
0.498239
0.498783
0.500047
0.501705
0.502585
0.504224
0.50561
0.50715
0.507286
0.495356
0.493262
0.4871
0.485335
0.485416
0.486691
0.487987
0.48936
0.490622
0.491873
0.492713
0.493422
0.494123
0.494591
0.494977
0.495198
0.495372
0.495495
0.495585
0.495653
0.495694
0.495724
0.495746
0.495762
0.495771
0.495778
0.495782
0.495785
0.495787
0.495788
0.495789
0.49579
0.495791
0.495791
0.495791
0.495791
0.495791
0.495791
0.495791
0.495791
0.495791
0.495791
0.495791
0.495791
0.495791
0.495791
0.495791
0.495791
0.495791
0.495791
0.495791
)
;

boundaryField
{
    sides1
    {
        type            calculated;
        value           uniform 0;
    }
    sides2
    {
        type            calculated;
        value           uniform 0;
    }
    empty
    {
        type            empty;
    }
}


// ************************************************************************* //
