/*--------------------------------*- C++ -*----------------------------------*\
| =========                 |                                                 |
| \\      /  F ield         | OpenFOAM: The Open Source CFD Toolbox           |
|  \\    /   O peration     | Version:  3.0.1                                 |
|   \\  /    A nd           | Web:      www.OpenFOAM.org                      |
|    \\/     M anipulation  |                                                 |
\*---------------------------------------------------------------------------*/
FoamFile
{
    version     2.0;
    format      ascii;
    class       volScalarField;
    location    "0.0001";
    object      rho;
}
// * * * * * * * * * * * * * * * * * * * * * * * * * * * * * * * * * * * * * //

dimensions      [1 -3 0 0 0 0 0];

internalField   nonuniform List<scalar> 
1000
(
0.83124
0.83124
0.83124
0.83124
0.83124
0.83124
0.83124
0.83124
0.83124
0.831239
0.831239
0.831239
0.831238
0.831238
0.831236
0.831235
0.831232
0.831229
0.831223
0.831215
0.831204
0.831188
0.831165
0.831132
0.831084
0.831016
0.830921
0.830783
0.830593
0.830325
0.82995
0.829438
0.828735
0.827791
0.826543
0.824898
0.822776
0.82008
0.816741
0.81276
0.808421
0.80359
0.79796
0.792001
0.78658
0.78374
0.782272
0.784541
0.784489
0.756624
0.757689
0.755504
0.754042
0.754443
0.754873
0.753357
0.749961
0.745317
0.740347
0.735363
0.730508
0.726253
0.722648
0.719709
0.717453
0.715702
0.714345
0.713317
0.712613
0.712089
0.711704
0.711433
0.711224
0.711076
0.71097
0.710892
0.710836
0.710798
0.710772
0.710755
0.710743
0.710735
0.71073
0.710726
0.710723
0.710722
0.71072
0.71072
0.710719
0.710719
0.710718
0.710718
0.710718
0.710718
0.710718
0.710718
0.710718
0.710718
0.710718
0.710718
0.83124
0.83124
0.83124
0.83124
0.83124
0.83124
0.83124
0.83124
0.83124
0.831239
0.831239
0.831239
0.831238
0.831238
0.831236
0.831235
0.831232
0.831229
0.831223
0.831216
0.831203
0.831185
0.831162
0.83113
0.831082
0.831014
0.830917
0.83078
0.830593
0.83032
0.829943
0.82944
0.828744
0.827803
0.826559
0.824965
0.822888
0.820223
0.816971
0.813055
0.808727
0.804164
0.798531
0.792118
0.785616
0.782125
0.780879
0.788188
0.80632
0.79914
0.772132
0.758686
0.754542
0.754575
0.754555
0.752839
0.749567
0.745371
0.740441
0.735291
0.730583
0.72622
0.722573
0.719644
0.717389
0.715755
0.714318
0.713224
0.712608
0.712093
0.711705
0.711432
0.711222
0.711081
0.710982
0.710893
0.710835
0.710796
0.710771
0.710754
0.710742
0.710734
0.710729
0.710726
0.710723
0.710722
0.71072
0.71072
0.710719
0.710719
0.710718
0.710718
0.710718
0.710718
0.710718
0.710718
0.710718
0.710718
0.710718
0.710718
0.83124
0.83124
0.83124
0.83124
0.83124
0.83124
0.83124
0.83124
0.83124
0.831239
0.831239
0.831239
0.831238
0.831238
0.831236
0.831234
0.831232
0.831228
0.831223
0.831215
0.831201
0.831179
0.831154
0.831121
0.83107
0.830998
0.830898
0.830755
0.830551
0.830273
0.82988
0.829351
0.828642
0.827683
0.826439
0.824847
0.822822
0.820253
0.817273
0.813644
0.809031
0.804094
0.798375
0.792593
0.787437
0.783486
0.781865
0.781138
0.780724
0.79342
0.770835
0.761437
0.755673
0.754218
0.754341
0.752691
0.749354
0.74515
0.74042
0.735524
0.730767
0.726406
0.722823
0.719852
0.717562
0.715877
0.714401
0.713277
0.712627
0.712099
0.711719
0.711451
0.71124
0.711092
0.710992
0.710895
0.710837
0.710797
0.710771
0.710754
0.710743
0.710736
0.71073
0.710726
0.710724
0.710722
0.71072
0.71072
0.710719
0.710719
0.710718
0.710718
0.710718
0.710718
0.710718
0.710718
0.710718
0.710718
0.710718
0.710718
0.83124
0.83124
0.83124
0.83124
0.83124
0.83124
0.83124
0.83124
0.83124
0.831239
0.831239
0.831239
0.831238
0.831237
0.831236
0.831234
0.831231
0.831228
0.831223
0.831213
0.831199
0.831177
0.831146
0.831108
0.831055
0.830977
0.830871
0.830718
0.83052
0.830261
0.829862
0.829306
0.828576
0.827624
0.826451
0.824827
0.822663
0.820417
0.817748
0.813574
0.808743
0.803609
0.797907
0.793051
0.788136
0.782258
0.78017
0.777832
0.774134
0.781762
0.768074
0.754268
0.752958
0.75352
0.754233
0.753002
0.749597
0.745266
0.740193
0.735733
0.731237
0.726667
0.72305
0.719997
0.717593
0.715869
0.714508
0.713431
0.712655
0.712136
0.711738
0.711463
0.711258
0.7111
0.710985
0.710895
0.710837
0.710797
0.710772
0.710755
0.710744
0.710737
0.710731
0.710726
0.710724
0.710722
0.710721
0.71072
0.710719
0.710719
0.710718
0.710718
0.710718
0.710718
0.710718
0.710718
0.710718
0.710718
0.710718
0.710718
0.83124
0.83124
0.83124
0.83124
0.83124
0.83124
0.83124
0.83124
0.83124
0.831239
0.831239
0.831239
0.831238
0.831237
0.831236
0.831234
0.831231
0.831228
0.831221
0.831211
0.831197
0.831176
0.831145
0.831104
0.831048
0.830968
0.830854
0.830701
0.830498
0.830224
0.829793
0.829248
0.828573
0.827637
0.826518
0.824817
0.822749
0.820543
0.81773
0.813305
0.808295
0.803174
0.79784
0.7928
0.788663
0.784235
0.78087
0.777942
0.774715
0.776795
0.763032
0.755436
0.755868
0.754532
0.754074
0.752635
0.749149
0.744978
0.740115
0.735714
0.731621
0.726747
0.723079
0.719933
0.717601
0.71593
0.714649
0.713571
0.712722
0.712196
0.711772
0.71146
0.711253
0.711101
0.710985
0.710899
0.710839
0.710798
0.710775
0.71076
0.710746
0.710738
0.710732
0.710727
0.710724
0.710722
0.710721
0.71072
0.710719
0.710719
0.710718
0.710718
0.710718
0.710718
0.710718
0.710718
0.710718
0.710718
0.710718
0.710718
0.83124
0.83124
0.83124
0.83124
0.83124
0.83124
0.83124
0.83124
0.83124
0.831239
0.831239
0.831239
0.831238
0.831237
0.831236
0.831234
0.831231
0.831227
0.831221
0.831211
0.831196
0.831176
0.831148
0.83111
0.831054
0.830976
0.830865
0.830722
0.830523
0.83024
0.829802
0.829255
0.828576
0.827673
0.826521
0.824857
0.822797
0.820297
0.817212
0.813054
0.808221
0.803306
0.797845
0.793008
0.788477
0.784186
0.783186
0.784531
0.785076
0.783655
0.768061
0.757105
0.754211
0.753454
0.753633
0.752711
0.749624
0.745222
0.740578
0.735868
0.731096
0.726669
0.723192
0.72031
0.717764
0.715829
0.714651
0.713752
0.712932
0.712253
0.711786
0.711466
0.711249
0.711092
0.710983
0.710903
0.710842
0.710804
0.710778
0.71076
0.710747
0.710738
0.710731
0.710726
0.710724
0.710722
0.710721
0.71072
0.710719
0.710719
0.710718
0.710718
0.710718
0.710718
0.710718
0.710718
0.710718
0.710718
0.710718
0.710718
0.83124
0.83124
0.83124
0.83124
0.83124
0.83124
0.83124
0.83124
0.83124
0.831239
0.831239
0.831239
0.831238
0.831237
0.831236
0.831234
0.831231
0.831227
0.831221
0.831211
0.831198
0.831179
0.831153
0.831114
0.831058
0.83098
0.830871
0.83073
0.830538
0.830256
0.829858
0.829286
0.828579
0.827695
0.826499
0.82483
0.822707
0.820088
0.816943
0.812882
0.808377
0.803365
0.797459
0.791957
0.786413
0.782375
0.78356
0.784584
0.778766
0.779862
0.766627
0.754301
0.752738
0.753672
0.753988
0.752752
0.749883
0.745542
0.741071
0.736015
0.731126
0.726741
0.72331
0.720463
0.717889
0.715822
0.714647
0.713819
0.712949
0.712269
0.711804
0.711476
0.711248
0.711084
0.710978
0.710904
0.710848
0.710807
0.710778
0.710758
0.710746
0.710738
0.710731
0.710727
0.710724
0.710722
0.710721
0.71072
0.710719
0.710719
0.710718
0.710718
0.710718
0.710718
0.710718
0.710718
0.710718
0.710718
0.710718
0.710718
0.83124
0.83124
0.83124
0.83124
0.83124
0.83124
0.83124
0.83124
0.83124
0.831239
0.831239
0.831239
0.831238
0.831237
0.831236
0.831234
0.831231
0.831227
0.831221
0.831212
0.831199
0.831181
0.831154
0.831118
0.831062
0.830987
0.830884
0.830724
0.83051
0.83022
0.82982
0.829268
0.828551
0.827647
0.826366
0.824718
0.822581
0.819915
0.816801
0.812868
0.808575
0.803374
0.797269
0.791851
0.785492
0.782551
0.781653
0.780453
0.777907
0.785241
0.76874
0.752894
0.752936
0.754153
0.754183
0.75271
0.74927
0.745211
0.740745
0.736005
0.731449
0.726824
0.723388
0.720507
0.71804
0.716137
0.71475
0.713681
0.712847
0.712263
0.711821
0.711492
0.711254
0.711088
0.710981
0.710909
0.710852
0.710808
0.710779
0.710759
0.710746
0.710738
0.710731
0.710727
0.710724
0.710722
0.710721
0.71072
0.710719
0.710719
0.710718
0.710718
0.710718
0.710718
0.710718
0.710718
0.710718
0.710718
0.710718
0.710718
0.83124
0.83124
0.83124
0.83124
0.83124
0.83124
0.83124
0.83124
0.83124
0.831239
0.831239
0.831239
0.831238
0.831237
0.831236
0.831234
0.831231
0.831227
0.831222
0.831213
0.831201
0.831182
0.831156
0.831119
0.831065
0.830989
0.830885
0.83072
0.830498
0.830204
0.829796
0.829237
0.828533
0.827631
0.826254
0.824699
0.822657
0.81975
0.81684
0.812884
0.808591
0.803173
0.797107
0.791314
0.784837
0.781582
0.779231
0.785758
0.80082
0.796909
0.772336
0.755808
0.754743
0.754687
0.753633
0.751889
0.748634
0.744849
0.74056
0.736067
0.73168
0.727458
0.723668
0.720504
0.718131
0.716326
0.714828
0.713662
0.712848
0.712271
0.711831
0.711507
0.711268
0.7111
0.710988
0.710912
0.71085
0.710806
0.710779
0.71076
0.710746
0.710737
0.710731
0.710727
0.710724
0.710722
0.710721
0.71072
0.710719
0.710719
0.710718
0.710718
0.710718
0.710718
0.710718
0.710718
0.710718
0.710718
0.710718
0.710718
0.83124
0.83124
0.83124
0.83124
0.83124
0.83124
0.83124
0.83124
0.83124
0.831239
0.831239
0.831239
0.831238
0.831237
0.831236
0.831234
0.831231
0.831227
0.831221
0.831213
0.831201
0.831182
0.831155
0.831117
0.831062
0.830984
0.830873
0.830714
0.830492
0.830185
0.829767
0.829181
0.82849
0.827582
0.826204
0.824648
0.822697
0.819868
0.816633
0.812872
0.808175
0.802317
0.796784
0.791389
0.785366
0.782724
0.780647
0.782776
0.783318
0.764954
0.761328
0.754768
0.753103
0.75394
0.754808
0.753155
0.749359
0.744897
0.740341
0.735999
0.731818
0.727954
0.723922
0.720547
0.718244
0.716406
0.714881
0.713727
0.712857
0.712293
0.711858
0.711522
0.711283
0.711106
0.710992
0.710912
0.710851
0.710809
0.71078
0.710761
0.710747
0.710738
0.710731
0.710727
0.710724
0.710722
0.710721
0.71072
0.710719
0.710719
0.710718
0.710718
0.710718
0.710718
0.710718
0.710718
0.710718
0.710718
0.710718
0.710718
)
;

boundaryField
{
    sides1
    {
        type            calculated;
        value           nonuniform List<scalar> 
20
(
0.710718
0.710718
0.710718
0.710718
0.710718
0.710718
0.710718
0.710718
0.710718
0.710718
0.83124
0.83124
0.83124
0.83124
0.83124
0.83124
0.83124
0.83124
0.83124
0.83124
)
;
    }
    sides2
    {
        type            calculated;
        value           nonuniform List<scalar> 
200
(
0.83124
0.83124
0.83124
0.83124
0.83124
0.83124
0.83124
0.83124
0.83124
0.831239
0.831239
0.831239
0.831238
0.831238
0.831236
0.831235
0.831232
0.831229
0.831223
0.831215
0.831204
0.831188
0.831165
0.831132
0.831084
0.831016
0.830921
0.830783
0.830593
0.830325
0.82995
0.829438
0.828735
0.827791
0.826543
0.824898
0.822776
0.82008
0.816741
0.81276
0.808421
0.80359
0.79796
0.792001
0.78658
0.78374
0.782272
0.784541
0.784489
0.756624
0.757689
0.755504
0.754042
0.754443
0.754873
0.753357
0.749961
0.745317
0.740347
0.735363
0.730508
0.726253
0.722648
0.719709
0.717453
0.715702
0.714345
0.713317
0.712613
0.712089
0.711704
0.711433
0.711224
0.711076
0.71097
0.710892
0.710836
0.710798
0.710772
0.710755
0.710743
0.710735
0.71073
0.710726
0.710723
0.710722
0.71072
0.71072
0.710719
0.710719
0.710718
0.710718
0.710718
0.710718
0.710718
0.710718
0.710718
0.710718
0.710718
0.710718
0.83124
0.83124
0.83124
0.83124
0.83124
0.83124
0.83124
0.83124
0.83124
0.831239
0.831239
0.831239
0.831238
0.831237
0.831236
0.831234
0.831231
0.831227
0.831221
0.831213
0.831201
0.831182
0.831155
0.831117
0.831062
0.830984
0.830873
0.830714
0.830492
0.830185
0.829767
0.829181
0.82849
0.827582
0.826204
0.824648
0.822697
0.819868
0.816633
0.812872
0.808175
0.802317
0.796784
0.791389
0.785366
0.782724
0.780647
0.782776
0.783318
0.764954
0.761328
0.754768
0.753103
0.75394
0.754808
0.753155
0.749359
0.744897
0.740341
0.735999
0.731818
0.727954
0.723922
0.720547
0.718244
0.716406
0.714881
0.713727
0.712857
0.712293
0.711858
0.711522
0.711283
0.711106
0.710992
0.710912
0.710851
0.710809
0.71078
0.710761
0.710747
0.710738
0.710731
0.710727
0.710724
0.710722
0.710721
0.71072
0.710719
0.710719
0.710718
0.710718
0.710718
0.710718
0.710718
0.710718
0.710718
0.710718
0.710718
0.710718
)
;
    }
    empty
    {
        type            empty;
    }
}


// ************************************************************************* //
