/*--------------------------------*- C++ -*----------------------------------*\
| =========                 |                                                 |
| \\      /  F ield         | OpenFOAM: The Open Source CFD Toolbox           |
|  \\    /   O peration     | Version:  2012                                  |
|   \\  /    A nd           | Website:  www.openfoam.com                      |
|    \\/     M anipulation  |                                                 |
\*---------------------------------------------------------------------------*/
FoamFile
{
    version     2.0;
    format      ascii;
    class       volScalarField;
    location    "5e-05";
    object      pcorr;
}
// * * * * * * * * * * * * * * * * * * * * * * * * * * * * * * * * * * * * * //

dimensions      [1 -1 -2 0 0 0 0];


internalField   nonuniform List<scalar> 
5000
(
7.388763097e-07
7.388249034e-07
3.801813668e-07
-2.756716774e-09
5.959405687e-09
1.431263658e-08
2.109143021e-09
-1.121844761e-08
-3.176037028e-09
4.497411859e-09
3.042540223e-08
5.416715822e-08
5.495793391e-08
5.583112196e-08
2.50842145e-08
-4.576925216e-09
-2.132906412e-08
-3.796917168e-08
-3.477289144e-08
-3.132975833e-08
-2.304707762e-08
-1.345915188e-08
6.220679271e-09
2.457124213e-08
3.192625334e-08
3.892375111e-08
1.548785578e-08
-7.956945788e-09
-1.929463221e-08
-3.177594086e-08
-8.440066959e-09
1.391220955e-08
2.825092232e-08
4.027395227e-08
2.771296872e-08
1.48266396e-08
-1.149145014e-08
-3.941826895e-08
-5.384379357e-08
-6.819546621e-08
-4.115441096e-08
-1.314043431e-08
1.756285478e-08
4.729633345e-08
4.498569715e-08
4.269686042e-08
2.508099353e-08
7.472164797e-09
-5.286249767e-10
-7.857719246e-09
-4.89433772e-09
-1.916613878e-09
-8.436841645e-09
-1.475762401e-08
-2.515472529e-08
-3.71623496e-08
-2.960601477e-08
-2.297127005e-08
3.226298043e-09
2.952495844e-08
3.520311942e-08
4.123431162e-08
2.127172282e-08
1.688923122e-09
3.315485446e-09
4.882783956e-09
4.295640303e-09
3.759425794e-09
-2.602794185e-08
-5.848785411e-08
-5.952200006e-08
-6.058285624e-08
-2.88567846e-08
1.688748213e-09
1.046447148e-08
1.997128007e-08
1.62434911e-08
1.201266585e-08
2.298181833e-08
3.332160367e-08
3.243749807e-08
3.165740128e-08
2.073146412e-08
9.963008227e-09
1.092053926e-08
1.19473099e-08
1.140318756e-08
1.087188164e-08
1.264697427e-08
1.443927908e-08
2.042086228e-08
2.624033577e-08
1.221782034e-08
-4.053207546e-09
-1.921065906e-08
-3.296009342e-08
-3.521181523e-08
-3.738123815e-08
-3.939605736e-08
-4.137124846e-08
-2.363161738e-08
-5.628239594e-09
1.819071341e-08
4.033357119e-08
3.659605712e-08
3.256507175e-08
1.355172202e-08
-4.67903553e-09
-9.77553015e-09
-1.546734656e-08
-1.572181621e-08
-1.599177354e-08
-2.238280465e-08
-2.845039911e-08
-2.080034529e-08
-1.330516504e-08
7.361603506e-09
2.944444008e-08
3.018363859e-08
3.096159648e-08
1.264843087e-08
-4.804101441e-09
-9.629603246e-09
-1.465876625e-08
-7.577899489e-09
4.583965988e-10
2.9072154e-10
1.396857441e-10
4.550348942e-09
9.360402576e-09
8.590589107e-10
-7.614001877e-09
-3.528096652e-08
-6.087392597e-08
-5.409637261e-08
-4.786728064e-08
-1.172473006e-08
2.655410035e-08
4.605648869e-08
6.668406868e-08
5.365122707e-08
4.06933324e-08
2.067603765e-08
1.446607115e-11
-1.189834566e-08
-2.287045521e-08
-2.563800985e-08
-2.834345399e-08
-3.181416407e-08
-3.569583877e-08
-2.991862689e-08
-2.444402926e-08
-1.410228346e-08
-3.652334981e-09
-1.017660489e-08
-1.77763529e-08
-2.328074413e-08
-2.85955863e-08
-1.135496858e-08
4.661236841e-09
2.018776255e-08
3.404262918e-08
3.527088369e-08
3.659748518e-08
3.58858568e-08
3.517949925e-08
2.806900261e-08
2.011608572e-08
3.003043748e-09
-1.294182476e-08
-1.945035111e-08
-2.567655079e-08
-2.331933276e-08
-2.097229411e-08
-1.789950778e-08
-1.47927061e-08
-4.736615765e-09
5.699421933e-09
1.111777813e-08
1.725605418e-08
1.775943151e-08
1.824748959e-08
2.817319332e-08
3.781048813e-08
2.739185931e-08
1.738751644e-08
-7.157586986e-09
-3.220066952e-08
-3.102639852e-08
-2.983678446e-08
-1.5615637e-08
-1.969295606e-09
7.200973687e-09
1.770161832e-08
1.881903065e-08
1.995294488e-08
2.325203954e-08
2.655383944e-08
4.065338158e-08
5.444416159e-08
3.616005155e-08
2.082625156e-08
-1.005589842e-08
-4.215801778e-08
-3.591350843e-08
-2.942413874e-08
-8.43945755e-09
1.175848769e-08
2.122492512e-08
3.045163124e-08
3.066665851e-08
3.092889576e-08
1.21311427e-08
-6.226407948e-09
-2.137507612e-08
-3.741054491e-08
-2.700229397e-08
-1.75944008e-08
-6.256872557e-09
6.499892002e-09
1.727252625e-09
-2.723163839e-09
-1.190286169e-08
-2.163514339e-08
-1.876315217e-08
-1.608047795e-08
4.862606917e-09
2.6562175e-08
3.141038318e-08
3.623313255e-08
1.668133896e-08
-2.017086291e-09
-1.554261599e-08
-2.870875812e-08
-2.993740917e-08
-3.129704212e-08
-1.311466217e-08
6.66446805e-09
1.660924448e-08
2.674216208e-08
1.352629364e-08
2.146320807e-09
2.658328836e-09
3.198736866e-09
-2.240804601e-09
-7.588182501e-09
-1.651025691e-08
-2.52365564e-08
-1.137977904e-08
3.49257884e-09
6.383365418e-09
9.159637417e-09
-6.235783962e-09
-2.063314181e-08
-1.580135101e-08
-1.066911043e-08
1.945552535e-10
1.02287366e-08
9.751453892e-09
9.273644405e-09
8.433483402e-09
7.581192184e-09
2.728078168e-09
-2.044173003e-09
2.832004972e-09
7.641949129e-09
1.115663128e-08
1.479620173e-08
7.838702277e-09
6.561508546e-10
-7.726926446e-10
-2.480664651e-09
-1.676361576e-08
-2.880789519e-08
-3.750854727e-08
-4.630296925e-08
-3.732366449e-08
-2.814375946e-08
-2.008251643e-08
-1.265387858e-08
-1.337692156e-08
-1.412047031e-08
-1.002499093e-08
-5.739230016e-09
1.251160144e-08
3.027364e-08
3.806473047e-08
4.629457348e-08
4.017626319e-08
3.421377877e-08
2.744367422e-08
2.059533453e-08
2.678282447e-09
-1.483404444e-08
-1.883345566e-08
-2.292163111e-08
4.666924934e-09
2.993829553e-08
4.059110425e-08
5.220414058e-08
3.403041744e-08
1.554816838e-08
-2.787352713e-09
-2.398264517e-08
-2.88915257e-08
-3.327187607e-08
-3.797020718e-08
-4.2487395e-08
-3.930484289e-08
-3.603858013e-08
-2.760444277e-08
-2.013010009e-08
-9.726093868e-09
1.835421055e-09
2.001274235e-08
3.768736282e-08
3.679948983e-08
3.586187147e-08
2.298030086e-08
9.836755153e-09
-5.425704445e-09
-1.84596812e-08
-3.18838879e-08
-4.580087769e-08
-3.193413313e-08
-1.882511631e-08
3.461681266e-09
2.732414311e-08
2.867975156e-08
2.99440845e-08
8.250439361e-09
-1.329030583e-08
-3.177596248e-08
-4.972661751e-08
-3.415577445e-08
-1.749448504e-08
5.621257606e-09
2.86996319e-08
3.025811818e-08
3.193799612e-08
1.910924698e-08
6.313604246e-09
1.233414383e-09
-3.434560872e-09
7.476934747e-09
1.823176561e-08
3.087762468e-08
4.346857072e-08
3.684724759e-08
2.940447382e-08
1.118836563e-08
-5.635061575e-09
-5.056535536e-09
-4.476153545e-09
-9.407819879e-09
-1.437201231e-08
-2.611289875e-08
-3.733284199e-08
-1.911554521e-08
-5.137697109e-10
2.155232629e-08
4.27115081e-08
3.513381027e-08
2.617398771e-08
9.918521182e-09
-6.465407221e-09
-9.142102938e-09
-1.132533711e-08
-1.603499315e-09
8.672902237e-09
1.099840007e-08
1.345418146e-08
9.551987282e-09
5.572532529e-09
1.114620829e-08
1.647833355e-08
1.337004041e-08
9.91196776e-09
-4.097318404e-09
-1.668382089e-08
-2.034073738e-08
-2.393072679e-08
-1.886267646e-08
-1.323859121e-08
5.456052821e-10
1.411369775e-08
2.434186488e-08
3.461501537e-08
2.475450808e-08
1.544649392e-08
-1.339924389e-09
-1.735753809e-08
-2.353941256e-08
-3.007939176e-08
-2.874285206e-08
-2.736119891e-08
-2.077667161e-08
-1.435391439e-08
-1.41025817e-08
-1.381464113e-08
-1.744122409e-08
-2.10645647e-08
-2.222570631e-08
-2.340089903e-08
-1.752884257e-08
-1.173905585e-08
1.725430749e-09
1.555591025e-08
8.612417266e-09
2.225228878e-09
-1.028746146e-08
-2.192726162e-08
-7.491488122e-09
8.152057413e-09
2.639330163e-08
4.379496552e-08
4.175394434e-08
3.974202574e-08
2.468600411e-08
8.197042103e-09
-8.120720323e-09
-2.456137779e-08
-2.510709314e-08
-2.565523366e-08
-1.257828221e-08
1.472397645e-09
6.582915287e-09
1.11357059e-08
2.600667891e-09
-5.458982932e-09
-5.417254973e-09
-5.366996518e-09
-7.226802822e-09
-9.224241116e-09
-6.549394802e-09
-3.740608169e-09
9.992618689e-09
2.265737305e-08
1.448905169e-08
6.189687304e-09
-1.083865793e-08
-2.695618849e-08
-2.17722259e-08
-1.637796901e-08
-2.301208902e-09
1.173954595e-08
2.352359227e-08
3.616760379e-08
3.725918575e-08
3.828670579e-08
3.076944778e-08
2.2701758e-08
2.30278122e-08
2.333212325e-08
1.363824466e-08
4.223686406e-09
-1.258242748e-08
-3.059164477e-08
-2.978589545e-08
-2.9038354e-08
-2.042313976e-08
-1.174833142e-08
-6.784600203e-09
-1.393893224e-09
8.502097637e-10
3.069697993e-09
5.282840305e-09
7.737897186e-09
1.048049542e-08
1.292088665e-08
9.639210995e-09
6.436789521e-09
9.836765755e-09
1.321963989e-08
2.192733182e-08
3.100952509e-08
1.748369602e-08
4.30779228e-09
-9.664843613e-09
-2.314475471e-08
-1.750929514e-08
-1.132437975e-08
-5.166893642e-09
9.169246425e-10
-5.237336447e-09
-1.087367819e-08
-2.530362254e-08
-4.201243658e-08
-5.484085648e-08
-6.549143083e-08
-4.816469332e-08
-2.862670228e-08
9.022646257e-09
4.316462801e-08
4.724359695e-08
5.121886809e-08
3.49202361e-08
1.732174808e-08
-2.253935874e-09
-2.122289653e-08
-2.842077307e-08
-3.638951485e-08
-2.301568244e-08
-9.88881773e-09
2.720682855e-09
1.401291183e-08
1.638608913e-08
1.884934039e-08
2.120522251e-08
2.344410579e-08
2.077112018e-08
1.787678295e-08
1.233033106e-08
6.911104148e-09
5.52015584e-09
3.981436795e-09
3.084192762e-10
-2.97319939e-09
-9.619470191e-09
-1.62906974e-08
-1.503502363e-08
-1.377564578e-08
-8.744851717e-09
-3.251667553e-09
-7.792804263e-09
-1.228936604e-08
-9.346443059e-09
-6.447533218e-09
-2.560728399e-09
1.530629131e-09
-7.745512761e-09
-1.640158565e-08
-1.27504454e-08
-9.080260383e-09
-4.156217588e-09
9.640403105e-10
-3.911619543e-09
-8.374230424e-09
-6.124321796e-09
-3.68446996e-09
-1.002207124e-08
-1.596848767e-08
-2.192057847e-08
-2.847104025e-08
-7.296982046e-09
1.300874261e-08
2.428655446e-08
3.502881123e-08
2.149027656e-08
7.870533762e-09
4.986193062e-09
1.802867037e-09
2.980892397e-09
4.124766047e-09
-1.356870505e-09
-6.559104026e-09
-7.211686002e-09
-7.824216769e-09
-2.409442942e-09
3.016644813e-09
8.619087716e-09
1.48058689e-08
7.695212102e-09
9.458007702e-10
-8.940384802e-09
-1.944489725e-08
-1.153937272e-08
-2.730324875e-09
4.826241855e-09
1.164364805e-08
4.67533107e-09
-2.095521838e-09
-5.940863736e-09
-1.001669134e-08
-9.740707566e-09
-9.480588131e-09
-1.20900944e-08
-1.47297855e-08
-1.011481081e-08
-5.715857865e-09
1.25888653e-08
3.177634009e-08
3.882059951e-08
4.530383864e-08
2.970544824e-08
1.431776697e-08
5.768413422e-10
-1.425449183e-08
-1.108456903e-08
-7.690847625e-09
1.313138574e-09
9.508067701e-09
1.047405684e-08
1.148463189e-08
6.76846314e-09
2.092296271e-09
-1.260030285e-09
-4.563041889e-09
3.325601022e-10
4.998410191e-09
1.7717993e-08
3.06799995e-08
2.852270127e-08
2.63600893e-08
1.348925859e-08
9.86013375e-10
-4.488525595e-10
-1.931280307e-09
-9.254060367e-09
-1.80750727e-08
-2.653991429e-08
-3.393118094e-08
-3.089994371e-08
-2.797269628e-08
-2.638832778e-08
-2.487799087e-08
-2.16595906e-08
-1.819222421e-08
-2.2732361e-08
-2.686934453e-08
-1.796559341e-08
-7.988504372e-09
1.49574806e-08
3.507012668e-08
3.10254577e-08
2.654802364e-08
5.782239755e-09
-1.638456013e-08
-2.560702491e-08
-3.385965861e-08
-1.920432108e-08
-4.959644394e-09
5.594973279e-09
1.629763239e-08
8.004179233e-09
-1.237667916e-09
-8.238592712e-09
-1.483575878e-08
-6.227113408e-09
3.082648644e-09
8.543534651e-09
1.336275354e-08
4.975643089e-09
-3.441108713e-09
-2.887229314e-09
-2.332514457e-09
5.919299272e-09
1.423606968e-08
9.83324265e-09
5.528713747e-09
6.289462696e-09
6.981768435e-09
8.310763215e-09
9.78053582e-09
4.639803867e-09
-1.267640204e-09
7.699823872e-09
1.543799136e-08
1.961911557e-08
2.358180312e-08
2.044798091e-08
1.713128789e-08
1.175863273e-08
6.24693532e-09
-1.551764043e-08
-3.796387349e-08
-4.746644129e-08
-5.719797688e-08
-4.616266561e-08
-3.494853938e-08
-2.608340878e-08
-1.804929702e-08
-1.29497749e-08
-7.841338715e-09
-4.534262143e-09
-1.494709356e-09
8.499179311e-09
1.95392656e-08
2.548015883e-08
3.173440372e-08
2.579536469e-08
2.032712358e-08
1.538303605e-08
1.081098425e-08
-3.708756934e-09
-1.803576873e-08
-2.601971229e-08
-3.500881831e-08
-2.04303538e-08
-7.356808192e-09
2.33534338e-09
1.230068707e-08
1.178721593e-08
1.128156239e-08
1.58255567e-08
2.071389344e-08
1.980372002e-08
1.889342849e-08
1.36071206e-08
8.834349174e-09
1.127845072e-08
1.400873399e-08
6.353003488e-09
-1.24824745e-09
-9.567004624e-09
-1.751054607e-08
-9.776336171e-09
-7.547094565e-10
3.204830755e-09
6.742534919e-09
1.124687524e-08
1.621259901e-08
1.246168198e-08
8.993788511e-09
-8.851395278e-09
-2.557571536e-08
-2.82838531e-08
-3.107307477e-08
-3.248319108e-08
-3.401391485e-08
-3.43953132e-08
-3.476143263e-08
-1.572246972e-08
2.622747057e-09
7.599563016e-09
1.25032496e-08
2.483429145e-09
-8.439313049e-09
-3.353382613e-09
1.118058753e-09
8.391793223e-09
1.591888691e-08
1.564719672e-08
1.54055272e-08
1.060948626e-08
5.818737718e-09
4.330724371e-09
2.867147368e-09
1.197814054e-08
2.047806571e-08
1.854590654e-08
1.662771523e-08
2.101046906e-09
-1.334883379e-08
-1.502383814e-08
-1.672683656e-08
-6.178022185e-09
4.899755963e-09
1.37515028e-08
2.266848238e-08
1.68857487e-08
1.168318428e-08
3.319997523e-09
-6.013990127e-09
-3.024070686e-09
5.937252861e-11
-8.465494789e-09
-1.602210074e-08
-1.939495776e-08
-2.316213426e-08
-1.271709721e-08
-2.087704103e-09
-3.399506255e-09
-4.551873453e-09
-7.386041862e-09
-1.03579221e-08
-3.360475312e-09
3.904578294e-09
7.012208291e-09
1.026092573e-08
2.897892202e-09
-4.784364846e-09
-1.338477534e-08
-2.219922892e-08
-2.73597863e-08
-3.201100939e-08
-3.045613678e-08
-2.870000663e-08
-1.987104032e-08
-1.207031384e-08
-6.107018294e-09
-2.5490324e-11
5.640064268e-09
1.077664146e-08
1.138462758e-08
1.205352171e-08
6.111106384e-09
3.049616796e-10
8.925962309e-09
1.703614062e-08
2.317821834e-08
2.957523234e-08
2.571728359e-08
2.166645837e-08
2.618955188e-08
3.036263917e-08
2.981089348e-08
2.92391033e-08
2.270416563e-08
1.594248243e-08
1.335780952e-08
1.083313236e-08
3.888080924e-10
-8.980798968e-09
-1.580290698e-08
-2.232432695e-08
-1.842939152e-08
-1.396124505e-08
-1.445877365e-08
-1.49890113e-08
-1.190718368e-08
-8.699482109e-09
-1.483196763e-09
4.883685724e-09
4.283959355e-09
3.59096861e-09
4.218719554e-09
4.806576746e-09
6.416735477e-09
8.32318409e-09
-2.671537934e-09
-1.211574972e-08
-1.624879807e-08
-2.027238549e-08
-8.416526093e-09
4.122313915e-09
1.042111968e-08
1.605229523e-08
1.624904339e-08
1.647569088e-08
1.188783908e-08
7.411671613e-09
-5.450587945e-09
-1.990896202e-08
-2.027666294e-08
-2.063722739e-08
-3.736787659e-09
1.574648095e-08
2.273382834e-08
2.932195041e-08
1.97480943e-08
1.090530084e-08
-1.722862315e-09
-1.376471258e-08
-2.093164148e-08
-2.881853056e-08
-2.756701656e-08
-2.655595422e-08
-2.194020045e-08
-1.709632514e-08
-1.459804317e-08
-1.214865824e-08
-7.509288911e-09
-2.532787867e-09
5.774206576e-09
1.400855157e-08
1.43802734e-08
1.478260176e-08
1.349196193e-08
1.212465995e-08
1.434161084e-08
1.658101996e-08
1.142242171e-08
6.495777684e-09
-2.332878381e-09
-1.14496454e-08
-6.989047385e-09
-2.317239581e-09
4.600623012e-09
1.150721483e-08
4.106359315e-09
-2.465107553e-09
-1.331281745e-08
-2.533665262e-08
-2.761617718e-08
-2.988006559e-08
-2.230288207e-08
-1.490467968e-08
-9.941514272e-09
-4.74276864e-09
3.098236851e-09
1.085693884e-08
1.172660175e-08
1.256308797e-08
-1.790367507e-09
-1.715018613e-08
-2.061241588e-08
-2.439344584e-08
-2.013780814e-08
-1.573311977e-08
-2.480280623e-08
-3.294852148e-08
-2.911001631e-08
-2.559633398e-08
-1.624511073e-10
2.598903137e-08
3.657981561e-08
4.694065817e-08
4.105712984e-08
3.569846427e-08
3.197400827e-08
2.796684868e-08
1.968778239e-08
9.925157178e-09
3.089065047e-09
-3.433424394e-09
5.480624579e-10
4.29173341e-09
6.600102751e-09
8.706555864e-09
7.264648715e-09
5.685579003e-09
4.000951915e-09
2.091631455e-09
2.196824843e-09
2.298512884e-09
6.544140135e-09
1.062630552e-08
1.303411902e-08
1.573280188e-08
1.038194925e-08
5.704500524e-09
6.495019816e-10
-4.797189075e-09
-7.07885314e-09
-9.223194836e-09
-1.275372866e-08
-1.679539821e-08
-1.757087509e-08
-1.827337568e-08
-1.316973495e-08
-8.25336517e-09
3.448783146e-10
8.792768071e-09
2.065621352e-08
3.399251384e-08
3.00003239e-08
2.631161103e-08
1.052366457e-08
-5.247122799e-09
-1.070101301e-08
-1.642080199e-08
-2.01790002e-08
-2.393586995e-08
-1.558901051e-08
-6.693655387e-09
7.432824735e-09
2.260709297e-08
1.528655352e-08
9.095173335e-09
6.836035919e-09
4.72237567e-09
1.076078511e-08
1.795998785e-08
9.151846582e-09
1.183654582e-09
-1.241502609e-08
-2.491683595e-08
-2.726856139e-08
-2.987683324e-08
-2.312138602e-08
-1.669395203e-08
-1.317026105e-08
-9.440225345e-09
-3.381490256e-09
2.553778461e-09
1.502245254e-08
2.782145798e-08
2.842541197e-08
2.904373612e-08
1.859733672e-08
6.902346996e-09
-4.797876958e-10
-7.599374152e-09
-8.621286637e-09
-9.602194668e-09
-1.339299507e-08
-1.709337725e-08
-1.867778894e-08
-2.026814962e-08
-1.606940688e-08
-1.134926362e-08
-1.785880751e-08
-2.404798253e-08
-3.468109613e-08
-4.408610544e-08
-4.621451792e-08
-4.859892379e-08
-5.500992132e-08
-6.126005539e-08
-7.23408743e-08
-8.453073181e-08
-8.076765949e-08
-7.713952965e-08
-1.126506915e-07
-1.47335611e-07
-1.150722514e-07
-7.989369844e-08
-1.050462134e-07
-1.31838299e-07
-1.514959426e-07
-1.690438817e-07
-8.266474262e-08
0
0
0
0
0
0
0
0
0
0
0
0
0
0
0
0
0
0
0
0
0
0
0
0
0
0
0
0
0
0
0
0
0
0
0
0
0
0
0
0
0
0
0
0
0
0
0
0
0
0
0
0
0
0
0
0
0
0
0
0
0
0
0
0
0
0
0
0
0
0
0
0
0
0
0
0
0
0
0
0
0
0
0
0
0
0
0
0
0
0
0
0
0
0
0
0
0
0
0
0
0
0
0
0
0
0
0
0
0
0
0
0
0
0
0
0
0
0
0
0
0
0
0
0
0
0
0
0
0
0
0
0
0
0
0
0
0
0
0
0
0
0
0
0
0
0
0
0
0
0
0
0
0
0
0
0
0
0
0
0
0
0
0
0
0
0
0
0
0
0
0
0
0
0
0
0
0
0
0
0
0
0
0
0
0
0
0
0
0
0
0
0
0
0
0
0
0
0
0
0
0
0
0
0
0
0
0
0
0
0
0
0
0
0
0
0
0
0
0
0
0
0
0
0
0
0
0
0
0
0
0
0
0
0
0
0
0
0
0
0
0
0
0
0
0
0
0
0
0
0
0
0
0
0
0
0
0
0
0
0
0
0
0
0
0
0
0
0
0
0
0
0
0
0
0
0
0
0
0
0
0
0
0
0
0
0
0
0
0
0
0
0
0
0
0
0
0
0
0
0
0
0
0
0
0
0
0
0
0
0
0
0
0
0
0
0
0
0
0
0
0
0
0
0
0
0
0
0
0
0
0
0
0
0
0
0
0
0
0
0
0
0
0
0
0
0
0
0
0
0
0
0
0
0
0
0
0
0
0
0
0
0
0
0
0
0
0
0
0
0
0
0
0
0
0
0
0
0
0
0
0
0
0
0
0
0
0
0
0
0
0
0
0
0
0
0
0
-8.800171495e-08
-1.652206172e-07
1.089188853e-07
4.174358237e-07
7.495624049e-07
1.168412756e-06
1.825778987e-06
2.42388099e-06
3.278413662e-06
4.16162551e-06
5.320053274e-06
6.556370906e-06
7.803888656e-06
9.406816352e-06
1.162841781e-05
1.369472021e-05
1.574723646e-05
1.769179491e-05
1.999167913e-05
2.237961485e-05
2.441773174e-05
2.627993127e-05
2.843962387e-05
3.056568936e-05
3.252826226e-05
3.400789227e-05
3.540856156e-05
3.688643978e-05
3.854588278e-05
4.021859671e-05
4.160426e-05
4.290455576e-05
4.431350074e-05
4.560708144e-05
4.68721729e-05
4.839390742e-05
4.993651118e-05
5.115565593e-05
5.247329124e-05
5.36497611e-05
5.477697682e-05
5.622238e-05
5.790229747e-05
5.928134508e-05
6.052301213e-05
6.188665206e-05
6.321861193e-05
6.450334683e-05
6.58203091e-05
6.707207016e-05
6.796847895e-05
6.873250093e-05
6.969262396e-05
7.0554805e-05
7.139498784e-05
7.247516314e-05
7.356189353e-05
7.455282348e-05
7.561188788e-05
7.690497142e-05
7.830079241e-05
7.986166155e-05
8.165823989e-05
8.379193925e-05
8.556526957e-05
8.699271803e-05
8.844296826e-05
9.004575927e-05
9.135663126e-05
9.289706609e-05
9.421920261e-05
9.538115807e-05
9.653906804e-05
9.792852513e-05
9.925136214e-05
0.0001005155229
0.0001017707939
0.000102805896
0.0001037536283
0.0001048031019
0.0001060413847
0.0001075189081
0.0001091788945
0.0001106386469
0.0001120873371
0.0001137512043
0.0001156230728
0.0001174897628
0.0001193881485
0.000121273639
0.0001230068919
0.0001249062946
0.0001271356417
0.0001297059398
0.0001317382796
0.0001334616207
0.0001351832125
0.0001372145488
0.0001391209066
0.0001410307261
0.0001431662564
1388.470834
2789.706396
2822.95759
2855.634709
3985.939798
5071.884519
6078.843352
7241.927645
8381.036087
9398.407519
10418.92944
11360.02515
12379.74772
13519.47788
14688.21693
15852.04501
16864.87715
17829.48611
18872.18886
19899.47463
20962.09234
22198.29262
23609.8311
24949.35073
26276.78484
27566.40491
28778.74079
29893.24062
31037.2692
32226.30768
33455.35917
34766.05108
36117.0743
37374.31377
38550.60929
39756.27455
40941.00721
42126.84217
43292.42449
44417.67026
45553.52347
46777.58359
47974.81171
49177.79972
50369.5399
51494.96452
52594.23854
53623.36186
54715.15149
55850.31596
57023.37069
58317.81529
59793.69589
61245.58923
62536.67208
63806.79693
65100.14819
66295.47659
67387.52436
68486.91331
69522.04717
70555.75605
71620.43242
72713.14651
73858.40611
75083.40049
76377.1045
77625.21528
78909.87143
80207.44351
81523.88717
82949.66397
84490.6331
85852.99142
86998.50114
88075.72341
89147.95152
90291.79658
91480.42239
92745.88583
93960.23117
95059.76324
96141.24387
97176.82592
98296.43365
99511.37499
100701.0751
101852.1909
103053.3422
104376.2474
105813.9441
107112.9768
108340.1645
109609.099
110826.4686
112097.218
113524.4375
114897.5064
116173.9298
117494.9637
118782.7534
120099.5541
121401.8072
122631.153
123746.7706
124829.8194
125881.8013
126976.9749
128138.7337
129302.7185
130746.0156
132152.4486
133383.7817
134623.7778
135862.3656
137123.6558
138648.7883
140356.648
141944.5577
143449.2485
144905.4088
146301.5358
147520.2725
148770.2967
150215.5226
151856.6724
153601.1966
155216.952
156756.7652
158323.6163
159600.1154
160753.0243
161872.5947
162963.9482
164182.4527
165492.2488
166809.3438
168025.5575
169206.744
170449.0933
171837.0009
173261.3906
174588.4751
175857.4003
176964.9206
178050.5457
179133.8714
180290.7112
181625.8424
182895.9842
184186.7627
185477.1387
186663.2093
187874.4452
189106.8744
190304.2776
191589.9706
192786.2216
193897.2029
195098.3751
196451.9073
197982.8456
199503.9906
200927.2624
202304.3846
203608.875
205065.7132
206602.8542
207917.302
209193.0875
210464.4846
211827.3447
213238.417
214531.8383
215857.0955
217409.2348
219196.9022
221004.1215
222641.9996
224059.8879
225252.6908
226375.8154
227583.2459
228890.5298
230219.8312
231431.2234
232458.9242
233469.675
234547.577
235653.5984
236829.835
238067.7012
239406.5818
240749.8914
241983.7822
243226.2542
244442.2042
245583.9976
246750.9177
248017.6937
249267.2553
250461.858
251726.4166
253052.7132
254369.3082
255723.1979
257016.0639
258353.2613
259827.6201
261305.9238
262630.5153
263801.9339
265047.7299
266368.7296
267625.7866
268907.8402
270037.2305
271084.9097
272239.0698
273497.1114
274772.2438
275976.3687
277268.7038
278563.7117
279831.0899
280984.8228
282001.7924
283048.6955
284066.8727
285182.3199
286297.1932
287366.329
288377.1639
289370.3715
290316.2531
291205.8625
292113.1587
293076.7613
294064.4863
295043.679
296228.0397
297470.6412
298592.7873
299660.5227
300671.6603
301653.9583
302668.7792
303691.0997
304712.9621
305935.2872
307159.539
308193.8729
309245.2245
310345.4686
311416.8333
312572.0818
313956.4501
315389.5996
316650.328
317779.3386
318930.5302
320068.0677
321228.9403
322404.4302
323709.8247
325151.379
326699.3864
328264.8609
329735.9226
331017.4748
332030.5116
333030.6427
334039.7043
335133.9167
336357.1453
337584.7571
338829.6748
340005.8223
341190.4841
342401.7223
343791.6557
345347.6216
346640.4428
347721.0187
348737.1608
349975.5495
351539.3724
353047.7647
354398.8775
355673.2578
356873.1102
358095.9968
359318.8639
360595.073
361743.9334
362793.5723
363828.6984
364891.8574
365983.8289
367024.6431
368081.6732
369164.8484
370314.5159
371551.1413
372869.5473
374079.9323
375383.9566
376757.1801
377903.7609
379036.1995
380139.8038
381196.7183
382310.2452
383328.2229
384353.3981
385466.773
386791.234
388370.7614
389943.2271
391302.0352
392408.6454
393463.1113
394461.4661
395507.9729
396652.8187
397786.8297
398874.1868
399981.2423
400943.4627
401920.8514
403017.1285
404062.0688
405108.9555
406167.4003
407272.0558
408313.8829
409441.0024
410762.1546
412320.1052
413958.8143
415335.3464
416473.9894
417486.2875
418495.3179
419484.1666
420509.0714
421599.5476
422745.7356
423896.1404
424957.526
425994.759
427116.2624
428328.6382
429703.6853
431207.0506
432710.499
434069.9531
435292.8872
436389.2184
437415.2004
438618.2288
439907.3825
441093.5082
442181.8591
443349.0073
444686.775
446116.415
447401.4894
448649.7497
449878.0581
451160.9641
452440.2986
453598.3311
454843.7651
456046.3428
457272.0985
458616.7048
459922.6029
461120.5471
462203.8459
463066.6499
463972.4691
465140.2906
466364.7501
467675.1673
469003.4727
470275.5916
471517.3887
472795.6053
474030.4082
475343.0148
476700.9016
477873.9655
479079.3809
480592.072
482268.685
483787.4144
485143.0845
486464.7747
487843.8187
489025.1367
490143.2386
491246.2661
492341.2025
493497.8197
494687.4629
495781.0978
496767.2361
497690.0444
498647.5559
499652.4773
500767.5212
501922.9432
502941.3579
503905.4914
504823.6108
505644.683
506502.5003
507386.3653
508293.9908
509384.9846
510509.6753
511846.3198
513200.2078
514459.7093
515740.1675
517000.1506
518303.4034
519552.1811
520729.555
521851.6535
522867.4191
523775.4461
524779.0938
526031.7951
527357.2132
528693.9318
529979.74
531259.0242
532556.755
533934.0073
535322.6802
536690.1838
537956.7079
539133.8061
540258.2104
541332.2677
542406.1112
543463.7833
544633.0475
545985.4203
547249.8371
548469.3483
549713.7026
550909.3588
552160.933
553445.0932
554699.4629
555885.8957
557065.5295
558372.7442
559645.0006
560865.29
562029.1697
563086.2949
564173.2826
565213.6044
566282.2135
567381.2936
568497.7889
569811.9965
571143.7564
572331.9117
573501.4671
574656.5194
575743.0047
576651.3654
577560.5754
578633.5611
579788.5432
581056.7546
582296.2823
583471.8272
584623.3199
585771.9902
586858.4274
587826.809
588845.2204
590070.3517
591480.9767
592738.7756
593816.2779
594854.2433
595934.0009
597166.1473
598436.248
599508.7971
600569.0283
601787.8166
603153.2228
604358.9492
605392.2367
606532.3775
607758.9532
609126.3286
610514.2074
611820.5951
613067.0188
614159.5075
615222.6853
616379.2467
617592.8532
618857.7229
620134.2558
621214.1183
622255.5861
623436.2415
624580.1238
625845.8618
627227.5335
628604.7709
629833.5757
630868.1931
631875.5407
632943.2185
634110.7803
635317.891
636622.3358
637996.7139
639351.5335
640691.1805
642108.5974
643306.5504
644340.4549
645378.603
646506.5117
647653.0988
648830.567
650070.1367
651278.8123
652597.7441
653960.0152
655305.4182
656578.4232
657788.72
659006.9415
660281.6725
661522.7994
662649.0875
663761.6805
664947.4752
666203.6131
667493.1784
668738.0253
670084.2351
671606.4855
672916.2251
674012.5077
675153.6231
676423.0391
677658.2082
678825.8195
679924.4468
681043.1808
682166.4719
683327.0697
684621.4891
685876.7249
687012.2439
688170.5292
689489.5874
690922.7215
692224.3651
693341.6953
694415.6115
695582.572
696870.7984
698046.0389
699083.8196
700071.8493
701051.0013
702065.5027
703047.5673
704031.4692
705030.827
706153.014
707278.9055
708298.594
709282.3045
710285.218
711344.0861
712402.7659
713497.6967
714669.3513
715794.2567
716845.9623
717882.9525
718927.2123
720171.6704
721492.5917
722884.3908
724271.4637
725711.1411
727254.5979
728636.5508
729954.4087
731189.4635
732401.3675
733610.6681
734985.5609
736515.8966
737943.2666
739437.0926
740742.308
741797.5949
742964.0144
744132.1509
745224.6949
746310.5622
747509.6134
748982.1421
750454.7658
751758.397
752930.5593
754116.3732
755326.4529
756631.8064
757956.3582
759203.5759
760410.4576
761621.4858
762827.9449
763984.347
765168.5849
766383.8632
767603.7132
768901.6722
770231.2348
771460.6519
772748.5698
774004.0978
775220.346
776477.0744
777717.9884
778848.6372
779857.0219
780843.1443
781885.5208
783023.0024
784232.7761
785475.1714
786625.8633
787755.3355
788883.6055
789917.2952
790983.4456
792118.8014
793160.567
794189.7406
795369.7526
796548.2571
797673.3916
798712.2737
799694.1991
800684.164
801738.4011
802971.1681
804242.3221
805548.513
806900.2866
808298.2053
809777.3686
811244.0659
812589.4096
813835.8353
814985.962
816007.7928
817052.0717
818044.8084
818989.7169
819905.8665
820888.0187
822016.2152
823155.5623
824216.5536
825187.3661
826279.9323
827484.8922
828927.5887
830501.1566
831918.5486
833225.6963
834534.0444
835728.9505
836831.372
837927.3646
838934.0105
839941.5814
840942.2461
842048.76
843345.8627
844696.5149
845987.9771
847274.0513
848481.6418
849601.3224
850735.3075
851896.3506
852999.3517
854149.6345
855184.8198
856138.9152
857136.6079
858097.5685
859029.4427
859977.641
860951.2596
862050.8546
863157.8742
864078.5241
864937.7634
865823.4383
866688.1596
867588.6223
868540.0248
869566.6379
870707.4529
871792.994
872937.0223
874063.6073
875214.1306
876439.0077
877727.376
878988.8933
880224.8159
881403.6213
882494.9127
883552.8334
884592.574
885575.734
886578.9315
887679.5759
888822.0786
890038.7994
891224.6777
892310.1674
893313.1966
894334.8303
895328.6337
896367.7843
897531.8167
898706.914
899827.8129
900832.3171
901807.5842
902909.0097
904127.5161
905377.2805
906657.2534
907831.6315
909180.9447
910753.8174
912213.8583
913543.6294
914722.7458
915900.1648
916972.3712
918013.4062
919100.7839
920234.9007
921298.2839
922316.8778
923339.8744
924398.6218
925531.6679
926598.3341
927563.5733
928459.2343
929514.1498
930608.1003
931707.938
932892.6105
933982.8173
935082.8515
935946.3267
936794.8451
937710.7967
938643.2132
939711.798
940872.0874
942117.5822
943282.5341
944379.4662
945562.1189
947028.2175
948419.1972
949687.1073
950869.147
951860.1408
952815.5218
953688.7136
954566.4934
955577.5974
956597.4833
957665.2003
958751.5616
959954.2344
961328.5681
962912.7059
964271.3127
965403.0423
966568.5824
967665.6241
968669.3425
969734.0778
970874.5389
972239.302
973647.7857
974978.0147
976325.4553
977695.9238
979043.1015
980418.4774
981817.2813
983072.4972
984258.8394
985353.905
986510.6599
987734.5609
988946.4154
990112.8402
991217.6375
992658.0797
994413.4977
996266.9407
997881.8471
999125.8992
1000338.321
1001543.161
1002693.487
1003820.567
1004980.318
1006236.597
1007561.623
1008865.895
1010214.679
1011497.803
1012863.079
1014269.2
1015528.648
1016862.548
1018305.234
1019601.932
1020880.845
1022040.747
1023224.836
1024575.128
1025776.409
1026903.224
1028090.329
1029301.999
1030450.88
1031570.877
1032737.429
1033818.06