/*--------------------------------*- C++ -*----------------------------------*\
| =========                 |                                                 |
| \\      /  F ield         | OpenFOAM: The Open Source CFD Toolbox           |
|  \\    /   O peration     | Version:  2012                                  |
|   \\  /    A nd           | Website:  www.openfoam.com                      |
|    \\/     M anipulation  |                                                 |
\*---------------------------------------------------------------------------*/
FoamFile
{
    version     2.0;
    format      ascii;
    class       volScalarField;
    location    "0.61";
    object      maxKappa;
}
// * * * * * * * * * * * * * * * * * * * * * * * * * * * * * * * * * * * * * //

dimensions      [0 0 0 0 0 0 0];


internalField   nonuniform List<scalar> 
2268
(
5.33147e-07
1.07955e-06
1.55473e-06
1.91371e-06
2.2e-06
2.55147e-06
2.81993e-06
2.89184e-06
2.91729e-06
2.91729e-06
2.85439e-06
2.68073e-06
2.44428e-06
2.20962e-06
2.00344e-06
1.78666e-06
1.54742e-06
1.31338e-06
1.12189e-06
9.64221e-07
8.4002e-07
7.24923e-07
6.99571e-07
6.34682e-07
1.12544e-06
1.58255e-06
1.945e-06
2.23825e-06
2.58265e-06
2.83655e-06
2.90526e-06
2.95216e-06
2.95216e-06
2.88498e-06
2.69206e-06
2.47079e-06
2.23056e-06
2.00073e-06
1.77386e-06
1.53937e-06
1.32128e-06
1.13119e-06
9.38803e-07
7.36887e-07
4.85278e-07
3.24689e-07
8.49971e-07
1.26269e-06
1.66947e-06
2.02187e-06
2.32398e-06
2.65031e-06
2.86133e-06
2.92171e-06
2.95772e-06
2.95772e-06
2.88012e-06
2.70556e-06
2.5102e-06
2.2832e-06
2.04206e-06
1.79673e-06
1.55692e-06
1.35603e-06
1.20364e-06
1.05515e-06
8.89718e-07
6.59512e-07
4.54771e-07
1.02765e-06
1.40143e-06
1.75637e-06
2.09984e-06
2.41831e-06
2.73135e-06
2.91439e-06
2.99766e-06
3.04409e-06
3.04409e-06
2.9644e-06
2.786e-06
2.557e-06
2.28297e-06
1.99969e-06
1.75145e-06
1.53059e-06
1.34833e-06
1.18671e-06
1.03987e-06
9.10079e-07
7.97669e-07
6.57263e-07
1.30539e-06
1.62427e-06
1.91112e-06
2.23007e-06
2.56426e-06
2.85129e-06
2.97903e-06
3.05628e-06
3.07415e-06
3.07415e-06
2.96764e-06
2.81407e-06
2.61609e-06
2.36659e-06
2.09586e-06
1.82446e-06
1.563e-06
1.37366e-06
1.23824e-06
1.11356e-06
9.81297e-07
8.56677e-07
7.26519e-07
1.51458e-06
1.79717e-06
2.03762e-06
2.34146e-06
2.6955e-06
2.96833e-06
3.08885e-06
3.21665e-06
3.2532e-06
3.2532e-06
3.12358e-06
2.93419e-06
2.67887e-06
2.34836e-06
2.02645e-06
1.76824e-06
1.52141e-06
1.3436e-06
1.21505e-06
1.1332e-06
1.05538e-06
1.03019e-06
1.01777e-06
1.82736e-06
2.05419e-06
2.25093e-06
2.54064e-06
2.90582e-06
3.14011e-06
3.22332e-06
3.32843e-06
3.32843e-06
3.29153e-06
3.12834e-06
2.9752e-06
2.78183e-06
2.50985e-06
2.20024e-06
1.88614e-06
1.54554e-06
1.32572e-06
1.22138e-06
1.18084e-06
1.10141e-06
1.17092e-06
1.17092e-06
3.49958e-06
3.71114e-06
3.77158e-06
3.92555e-06
4.17529e-06
4.34833e-06
4.08886e-06
3.99086e-06
3.63345e-06
3.55827e-06
3.40163e-06
3.1819e-06
2.85925e-06
2.47371e-06
2.12049e-06
1.85669e-06
1.53329e-06
1.29593e-06
1.22411e-06
1.22411e-06
1.22946e-06
1.52289e-06
1.53243e-06
0.000765878
0.000896822
0.000896822
0.000820422
0.000658841
0.000555112
0.000490298
0.000463295
0.000490855
0.000514127
0.000541146
0.000563263
0.000575551
0.000575551
0.000547636
0.000525274
0.000511129
0.000447046
0.000308542
0.000869026
0.00139292
0.00139292
0.00136183
0.000795181
0.000322779
0.000432201
0.000570977
0.000570977
0.000543934
0.000581639
0.000745948
0.00079361
0.00079361
0.000736013
0.000624444
0.000531894
0.000373693
0.000275025
0.000617146
0.00108495
0.00144172
0.00144172
0.000759182
0.000186353
0.000115626
0.000390323
0.000390323
0.000369121
0.000698558
0.00134981
0.00173067
0.00173067
0.0017165
0.00159496
0.00143773
0.000934631
0.000358646
0.00106423
0.00200273
0.00200273
0.00162529
0.000712759
0.000476695
5.60406e-05
0.000190701
0.000598838
0.00120739
0.00149862
0.00149862
0.00102441
0.00109634
0.00225167
0.00225167
0.00224131
0.00149417
0.000490913
0.00128133
0.00128133
0.00113455
0.000736127
0.000736127
0.00053795
0.00010859
5.26603e-05
7.03196e-05
0.000159012
0.000941313
0.00188388
0.00188388
0.00183364
0.00161999
0.00168661
0.00168661
0.00162003
0.0004903
0.00189441
0.00189441
0.00130287
0.000844069
0.000844069
0.000450024
8.30213e-05
6.6738e-05
0.000133191
0.000232591
0.000592858
0.0015201
0.00182089
0.00182089
0.00165145
0.000767927
0.00143611
0.00143611
0.000541064
0.00152964
0.00152964
0.0010434
0.000919473
0.000919473
0.000335944
5.93554e-05
0.000119951
0.000654585
0.00102753
0.00123943
0.00158131
0.00172435
0.00172435
0.00171215
0.00117148
0.00118542
0.00118542
0.000584757
0.0011948
0.0011948
0.00106374
0.000764524
0.00069159
0.000137747
6.96888e-05
0.000427665
0.00106208
0.00141989
0.00160496
0.00166588
0.00171364
0.00171364
0.00167031
0.00114251
0.00101054
0.00107756
0.000624856
4.28137e-05
4.40445e-05
4.64066e-05
4.4233e-05
3.90439e-05
3.47598e-05
3.28491e-05
3.31257e-05
2.90873e-05
2.28716e-05
1.27933e-05
7.60205e-06
6.1036e-06
4.00374e-06
2.57497e-06
2.14107e-06
1.60779e-06
1.29306e-06
1.54522e-06
1.85508e-06
2.25802e-06
2.6801e-06
2.91587e-06
6.16269e-05
6.40106e-05
6.85051e-05
6.85051e-05
6.23139e-05
6.16676e-05
6.79752e-05
9.16461e-05
0.000109526
0.000156239
0.000127083
7.79508e-05
4.04792e-05
2.08972e-05
6.78941e-06
5.3463e-06
2.66662e-06
1.74879e-06
1.44156e-06
1.70864e-06
2.15264e-06
3.02796e-06
3.70807e-06
3.71282e-05
4.91992e-05
6.57341e-05
7.43534e-05
7.92401e-05
8.66026e-05
0.000108779
0.000141206
0.000197093
0.000236154
0.000236154
0.000174046
0.00016379
0.00016367
0.000105648
6.99549e-05
5.82286e-05
1.36989e-05
3.28621e-06
3.0479e-06
6.03959e-06
5.9753e-06
5.86537e-06
4.2722e-05
4.2722e-05
4.79044e-05
5.43845e-05
5.60557e-05
6.49611e-05
9.25966e-05
0.000126219
0.000150876
0.000184346
0.000182449
0.000210977
0.000258496
0.000258496
0.000235318
0.000190565
0.000260824
0.000201889
0.000126862
0.000110582
6.93534e-05
2.18453e-05
1.10661e-05
3.61328e-05
3.97626e-05
5.03225e-05
5.96612e-05
6.54644e-05
6.76782e-05
7.49931e-05
7.90748e-05
9.34917e-05
8.41664e-05
0.000107657
0.000172962
0.000226426
0.000225146
0.000222918
0.000300727
0.000349749
0.000349749
0.000288313
0.000329889
0.000372922
0.000348639
0.000355496
2.30503e-05
2.69883e-05
3.36708e-05
4.33423e-05
5.42766e-05
6.99239e-05
8.82706e-05
0.000102513
0.000102513
0.000101192
0.000100822
0.00012119
0.000140247
0.000122061
0.000158551
0.000218108
0.000271018
0.000290538
0.000361845
0.000497413
0.00061425
0.000663123
0.000663123
1.76337e-05
2.2914e-05
2.86053e-05
3.44085e-05
4.13541e-05
4.88718e-05
6.22926e-05
6.6999e-05
7.76823e-05
7.1795e-05
8.77061e-05
0.000105583
0.000105583
8.52034e-05
0.000113361
0.000164765
0.000111307
0.0001536
0.00025772
0.000327834
0.000463676
0.000548788
0.000656226
9.60977e-06
1.44084e-05
2.20312e-05
3.04665e-05
4.07035e-05
5.16501e-05
6.15734e-05
6.92799e-05
7.33537e-05
7.42058e-05
7.97677e-05
9.56636e-05
9.60903e-05
0.000112704
0.000143093
0.000146919
0.00015539
0.000197781
0.000243055
0.000267826
0.000313738
0.000369466
0.000513933
7.8466e-06
1.02579e-05
1.62227e-05
2.01568e-05
2.9901e-05
3.50618e-05
4.58953e-05
5.0716e-05
6.03403e-05
6.49464e-05
7.65744e-05
8.97231e-05
9.57679e-05
0.000104729
0.000126364
0.000146919
0.000165679
0.000226653
0.000290303
0.000348065
0.000409585
0.000483684
0.000546546
1.17294e-05
1.56781e-05
2.07701e-05
2.72218e-05
3.4253e-05
4.16888e-05
4.91227e-05
5.58979e-05
6.23718e-05
6.85854e-05
7.66935e-05
8.69599e-05
9.78398e-05
0.000113154
0.000133197
0.00015282
0.000173641
0.000209355
0.000256137
0.00031007
0.000388104
0.000496339
0.000595376
1.10976e-05
1.20248e-05
1.59406e-05
1.82076e-05
2.57943e-05
3.03109e-05
3.89804e-05
4.50364e-05
5.37104e-05
6.29898e-05
7.48951e-05
8.77724e-05
0.00010075
0.000115398
0.000136348
0.000161003
0.000192188
0.000238141
0.000292437
0.0003581
0.00044275
0.000557507
0.000626655
1.64526e-05
1.86069e-05
2.15973e-05
2.57154e-05
3.07117e-05
3.61051e-05
4.25097e-05
4.93439e-05
5.65584e-05
6.50317e-05
7.45765e-05
8.62723e-05
9.95489e-05
0.000115488
0.000135154
0.000159585
0.000189296
0.000229292
0.00028059
0.000345821
0.000431665
0.000550184
0.000626655
1.35443e-05
1.41883e-05
1.69396e-05
1.94134e-05
2.46577e-05
2.93465e-05
3.57705e-05
4.39099e-05
5.31722e-05
6.39275e-05
7.58446e-05
8.95167e-05
0.000105082
0.000123148
0.000145327
0.00017178
0.000204116
0.000245785
0.000296854
0.000361693
0.000442662
0.00055179
0.000621707
1.70796e-05
1.85274e-05
2.08342e-05
2.39467e-05
2.84288e-05
3.32231e-05
3.94612e-05
4.67589e-05
5.47191e-05
6.45646e-05
7.55624e-05
8.86181e-05
0.000103719
0.000121572
0.000143227
0.000169459
0.000201197
0.000240031
0.000288417
0.000348167
0.000423889
0.000518177
0.000595441
1.36377e-05
1.44838e-05
1.69514e-05
1.97489e-05
2.4562e-05
3.01569e-05
3.72981e-05
4.53906e-05
5.46697e-05
6.55345e-05
7.7855e-05
9.22132e-05
0.000108744
0.000127995
0.000150813
0.000177778
0.000210502
0.00024952
0.000296632
0.000352529
0.000420278
0.000499801
0.00055708
1.39963e-05
1.57111e-05
1.85979e-05
2.19795e-05
2.69713e-05
3.21577e-05
3.89586e-05
4.66777e-05
5.54771e-05
6.60356e-05
7.79026e-05
9.18292e-05
0.000107935
0.000126916
0.000149262
0.000175626
0.000207109
0.000244092
0.000288907
0.000341375
0.00040432
0.000476194
0.000528295
1.00711e-05
1.16687e-05
1.5059e-05
1.97302e-05
2.56132e-05
3.17542e-05
3.93019e-05
4.75577e-05
5.7244e-05
6.82093e-05
8.10453e-05
9.57158e-05
0.00011279
0.000132483
0.000155435
0.000182213
0.000213688
0.000250141
0.000292815
0.000341626
0.000397948
0.000460729
0.00050367
8.11684e-06
1.13111e-05
1.5864e-05
2.06564e-05
2.66883e-05
3.29468e-05
4.06175e-05
4.89404e-05
5.8618e-05
6.95186e-05
8.21438e-05
9.65424e-05
0.000113538
0.000132991
0.000155694
0.000182032
0.000212665
0.000248173
0.000289322
0.000336247
0.000389212
0.000447392
0.000485582
5.02763e-06
9.55696e-06
1.4656e-05
2.01549e-05
2.65392e-05
3.34623e-05
4.15722e-05
5.04606e-05
6.0883e-05
7.2305e-05
8.57641e-05
0.000100612
0.000118243
0.000138004
0.000161128
0.000187674
0.000218084
0.000253066
0.000292588
0.000337495
0.000387446
0.000442731
0.000475117
7.38206e-06
9.75164e-06
1.40286e-05
1.9381e-05
2.56793e-05
3.26805e-05
4.08917e-05
5.00742e-05
6.07465e-05
7.26684e-05
8.64776e-05
0.000101976
0.000120131
0.000140364
0.000163956
0.000190627
0.000221131
0.000255989
0.00029467
0.000338288
0.00038599
0.000438282
0.000469765
1.18496e-05
1.35347e-05
1.64401e-05
2.04533e-05
2.56443e-05
3.20497e-05
3.97274e-05
4.88504e-05
5.95651e-05
7.18273e-05
8.61322e-05
0.000102249
0.000121079
0.000142092
0.000166631
0.000193873
0.000225149
0.000260302
0.000299173
0.000342567
0.00038958
0.000440868
0.000472349
1.48601e-05
1.47017e-05
1.60452e-05
1.73588e-05
2.10862e-05
2.67284e-05
3.38869e-05
4.28087e-05
5.35159e-05
6.62472e-05
8.11216e-05
9.8359e-05
0.000118204
0.000140819
0.000166826
0.000195695
0.000228854
0.000265084
0.00030542
0.000349639
0.000396776
0.000447256
0.000479462
1.80085e-05
1.83365e-05
1.91292e-05
2.04161e-05
2.28051e-05
2.65115e-05
3.15868e-05
3.85668e-05
4.73919e-05
5.85199e-05
7.21771e-05
8.86491e-05
0.00010821
0.000131318
0.000158104
0.000188441
0.000223641
0.00026185
0.000305256
0.000352008
0.000401657
0.000454527
0.00049065
1.81192e-05
1.75045e-05
1.8364e-05
1.80358e-05
1.9249e-05
2.0808e-05
2.46874e-05
2.93689e-05
3.72429e-05
4.60389e-05
5.95113e-05
7.62738e-05
9.65205e-05
0.000120889
0.000149034
0.000181678
0.000218992
0.000259969
0.000307116
0.000356961
0.000410377
0.000466838
0.00049767
1.97991e-05
2.00741e-05
2.05488e-05
2.12738e-05
2.25235e-05
2.44519e-05
2.71071e-05
3.12184e-05
3.68004e-05
4.46846e-05
5.51709e-05
6.87255e-05
8.59647e-05
0.000107433
0.000133207
0.000164414
0.000200808
0.000242625
0.000291604
0.000343655
0.000401862
0.000463952
0.000502565
1.75763e-05
1.7281e-05
1.86455e-05
1.91997e-05
2.2289e-05
2.43406e-05
2.81808e-05
3.07919e-05
3.6276e-05
4.06944e-05
4.98107e-05
5.88275e-05
7.50388e-05
9.66053e-05
0.00012296
0.000155114
0.000192485
0.000236401
0.000286649
0.000340696
0.000403512
0.00047075
0.000502565
1.63613e-05
1.7824e-05
2.00726e-05
2.30083e-05
2.64217e-05
3.03168e-05
3.45535e-05
3.96231e-05
4.54825e-05
5.2892e-05
6.214e-05
7.38017e-05
8.82974e-05
0.00010615
0.000128024
0.000155237
0.000187886
0.000227873
0.000274321
0.000327074
0.000390563
0.000458654
0.000503413
1.21775e-05
1.35825e-05
1.76299e-05
2.26047e-05
2.76981e-05
3.28291e-05
3.98573e-05
4.52922e-05
5.35359e-05
6.02423e-05
7.0936e-05
8.08171e-05
9.59984e-05
0.000111667
0.00013407
0.000157868
0.000191952
0.00023417
0.000282266
0.00033778
0.000402951
0.000472028
0.00051334
9.08039e-06
1.3952e-05
1.97565e-05
2.60291e-05
3.25219e-05
3.94404e-05
4.69669e-05
5.47728e-05
6.39031e-05
7.40873e-05
8.62116e-05
0.000100619
0.000117779
0.000138232
0.000161943
0.000189112
0.000220277
0.000257531
0.00030058
0.000352258
0.000413159
0.000478511
0.00053443
9.52378e-06
1.60061e-05
2.30469e-05
3.03913e-05
3.7789e-05
4.5584e-05
5.36158e-05
6.23941e-05
7.29944e-05
8.33678e-05
9.84234e-05
0.000112565
0.000132506
0.000152364
0.000179239
0.000207519
0.000244353
0.000282509
0.000330176
0.000382727
0.000446007
0.000513731
0.000565691
1.61735e-05
2.07091e-05
2.74285e-05
3.45564e-05
4.30359e-05
5.12077e-05
6.15277e-05
7.11864e-05
8.43206e-05
9.80533e-05
0.000114716
0.000134222
0.000156951
0.000183468
0.000214404
0.000250077
0.00028967
0.00033273
0.000379116
0.000429915
0.000485351
0.000544444
0.000602598
2.52672e-05
3.00734e-05
3.65364e-05
4.4147e-05
5.2452e-05
6.17734e-05
7.18849e-05
8.34663e-05
9.64543e-05
0.000111751
0.000129609
0.000150229
0.000177469
0.00020556
0.000242367
0.00028035
0.000328656
0.000378664
0.000437676
0.000493746
0.000552623
0.000612032
0.000675658
3.54003e-05
3.86406e-05
4.38922e-05
5.09248e-05
5.91823e-05
6.87463e-05
8.01043e-05
9.27101e-05
0.000108485
0.000126109
0.00014869
0.000175481
0.000206682
0.000243334
0.000285777
0.000335056
0.000391081
0.000451775
0.000517378
0.000587375
0.000660832
0.000735897
0.000812018
4.59585e-05
4.97471e-05
5.58511e-05
6.35155e-05
7.25393e-05
8.31057e-05
9.52193e-05
0.000109492
0.00012606
0.000145971
0.000169614
0.000198261
0.000232471
0.000273448
0.000323858
0.000382786
0.0004548
0.000535212
0.000626357
0.00071432
0.000798819
0.000893328
0.000981324
5.7005e-05
5.9808e-05
6.43121e-05
7.11525e-05
7.91416e-05
8.97538e-05
0.000101999
0.000117468
0.000135925
0.00015856
0.000186672
0.000222955
0.00026649
0.000318725
0.000381049
0.0004556
0.000544673
0.000646178
0.000746582
0.0008403
0.000937278
0.00104681
0.00114408
6.803e-05
7.14553e-05
7.75933e-05
8.56101e-05
9.56249e-05
0.000107733
0.000122237
0.000139641
0.000160478
0.000185714
0.000216319
0.00025388
0.000300008
0.000357264
0.000428028
0.000514448
0.000621622
0.000741568
0.000848651
0.000934596
0.00105557
0.00118431
0.00129234
7.82645e-05
8.09933e-05
8.52553e-05
9.21587e-05
0.000100096
0.000111464
0.000124313
0.00014189
0.000162603
0.000190352
0.000224446
0.000269119
0.000329516
0.000404611
0.000497321
0.000610624
0.000738203
0.000853881
0.00094311
0.00104525
0.00117738
0.00130236
0.00142301
8.82519e-05
9.19654e-05
9.83776e-05
0.000106861
0.000117838
0.000131487
0.000148514
0.000169617
0.000195967
0.000228859
0.000269875
0.000320352
0.000382994
0.000461032
0.000562228
0.000686901
0.000809139
0.000900088
0.000981485
0.00112063
0.00127664
0.00141462
0.00153018
9.62859e-05
9.90833e-05
0.000103436
0.000110674
0.000118933
0.000131199
0.000144973
0.00016468
0.000187761
0.000220062
0.000259498
0.000313711
0.000381592
0.000475139
0.00059771
0.000733726
0.000861178
0.000953771
0.00104675
0.00119313
0.00135516
0.00150057
0.00161072
0.000104002
0.000108102
0.000114764
0.000123723
0.000135587
0.000150632
0.000169918
0.000194459
0.000226032
0.000266696
0.000319306
0.000386733
0.000471553
0.000572305
0.000691079
0.000820047
0.000962524
0.00101363
0.00105663
0.00122729
0.00140681
0.00156414
0.00166348
0.000108767
0.000111777
0.000116555
0.000124545
0.000133806
0.000147584
0.000163282
0.000185809
0.0002127
0.000250771
0.000299251
0.000367821
0.000460863
0.000593281
0.000780816
0.000992402
0.00111756
0.00107064
0.00109876
0.00125935
0.00143833
0.00159963
0.00169802
0.000113737
0.000118111
0.000125274
0.000135028
0.000148064
0.000164799
0.000186514
0.000214696
0.00025194
0.000302105
0.000370971
0.000467945
0.000605708
0.000799673
0.00101368
0.00115444
0.00115444
0.00112636
0.00108229
0.00126595
0.00145754
0.00163007
0.00169802
4.42406e-06
5.17352e-06
6.37335e-06
8.98933e-05
5.47615e-06
5.88371e-06
7.26778e-06
1.49762e-05
6.73183e-06
7.38007e-06
8.60613e-06
9.00414e-06
1.42918e-05
1.81281e-05
2.13267e-05
2.45784e-05
0.000382416
0.00038154
0.000366519
0.000342823
0.000739728
0.000782156
0.00080397
0.000801421
0.000739728
0.000782156
0.00080397
0.000873988
0.000618054
0.000701321
0.000791836
0.000873988
0.00064664
0.000724924
0.000816945
0.000868691
0.000732355
0.000843242
0.000956357
0.000996995
0.0007715
0.000905761
0.00102881
0.00107309
0.0007715
0.000905761
0.00102881
0.00110891
0.000747942
0.000888253
0.00102485
0.00110891
0.000704687
0.000807744
0.000945721
0.00107161
0.000650753
0.000709261
0.000803873
0.000896259
0.000603212
0.000644504
0.000701487
0.000742557
0.000566026
0.000601048
0.000647738
0.000675006
0.000536694
0.000566123
0.000604704
0.000629807
0.000519901
0.000546387
0.000579439
0.000604587
0.000511213
0.000536096
0.000565853
0.000590571
0.000511988
0.000536393
0.000562862
0.000586766
0.000520101
0.000544678
0.000571261
0.000595195
0.000533999
0.000559633
0.000587541
0.000612335
0.000545183
0.000572865
0.000603248
0.000630089
0.000555167
0.000585858
0.00061966
0.000649652
0.000558219
0.000591796
0.000628821
0.00066232
0.000561665
0.000597504
0.000636802
0.00067402
0.000571229
0.000609246
0.000650022
0.000690705
0.000592796
0.000634368
0.000675839
0.00071975
0.000622423
0.000663928
0.000702182
0.000746806
0.000653084
0.000689696
0.000722456
0.000763973
0.000720481
0.000750534
0.000775784
0.000807592
0.000854672
0.000877222
0.000896996
0.000917231
0.00102877
0.00104792
0.00106789
0.00107976
0.00119955
0.00122041
0.00124238
0.00125161
0.00135614
0.00138119
0.00140596
0.00141858
0.001494
0.00152537
0.00155355
0.0015715
0.00160754
0.00164555
0.00167708
0.00170098
0.00169414
0.00173732
0.00177203
0.00180059
0.00175355
0.00180012
0.00183777
0.00186896
0.00179447
0.00184345
0.00188383
0.00191664
0.00179447
0.00184345
0.00188383
0.00191664
0.000598505
0.000826724
0.000771055
0.000692545
0.000330144
6.47042e-05
9.98938e-05
0.000761647
0.00109048
0.0011527
0.0012155
0.00140479
0.00179996
0.00187922
0.00170572
0.000867473
0.000875073
0.00133591
0.000625134
0.000181178
0.000273074
0.000201779
7.12908e-05
5.00518e-05
7.09769e-05
0.000527962
0.000898617
0.000898617
0.000853349
0.000854149
0.00138752
0.00197355
0.00197355
0.00138553
0.000556063
0.000767301
0.00133591
0.000607377
1.84984e-05
2.6142e-05
2.17416e-05
2.15014e-05
2.71821e-05
8.92054e-05
0.000758641
0.000875774
0.000875774
0.000765063
0.00112326
0.00195876
0.00196113
0.00193888
0.00106395
0.000371933
0.000748449
0.00128341
0.000560865
2.58159e-05
2.71803e-05
2.2323e-05
1.55645e-05
2.76607e-05
0.000209889
0.000907678
0.000917814
0.000896574
0.00111921
0.00192625
0.00214045
0.00214045
0.00160108
0.000678445
0.000198567
0.000760171
0.00122421
0.000530285
0.00030493
0.000172129
0.000122539
8.46224e-05
4.71152e-05
0.000361615
0.000896957
0.000917814
0.00110946
0.00173162
0.00206392
0.00206392
0.00195986
0.00120417
0.000396352
0.000230235
0.000757663
0.00115668
0.000480725
0.0007799
0.000572809
0.000423551
0.000296043
0.000124969
0.000309224
0.000836453
0.00101655
0.00129759
0.00168806
0.00192021
0.00192021
0.0015483
0.000703342
0.000250323
0.000344585
0.000764702
0.0010665
0.000383879
0.00107423
0.00107423
0.000829191
0.0005964
0.000318521
0.000369317
0.000982952
0.00109421
0.00127281
0.00153483
0.00160835
0.00160835
0.00105995
0.000416481
0.000411563
0.000429884
0.000715553
0.000929821
0.000263615
0.00108225
0.00110737
0.00102976
0.000723951
0.00053286
0.000372429
0.000958586
0.00120937
0.00120937
0.00118571
0.00136144
0.00108841
0.000787384
0.000695681
0.000598083
0.00044949
0.0006004
0.000707101
0.00016139
0.00126699
0.00134334
0.00134334
0.00114831
0.000787562
0.000456509
0.000472203
0.000986158
0.00111662
0.00107596
0.00106418
0.00076624
0.000593933
0.000593884
0.000551902
0.000509286
0.000543921
0.000494962
0.000100879
0.00122876
0.00142038
0.00142038
0.0014129
0.00119109
0.000718632
0.000345191
0.000496632
0.000816042
0.000823407
0.000502826
0.000377664
0.000436521
0.000442915
0.000557956
0.000622133
0.000622133
0.000369135
6.76159e-05
0.00125954
0.00140282
0.00140282
0.00111865
0.00103029
0.000889173
0.000492911
0.000246079
0.000343368
0.000401251
0.000110011
0.000171408
0.000212153
0.000259487
0.000363543
0.000424419
0.000367838
0.000251151
7.92025e-05
0.00113685
0.00151352
0.00151352
0.00121914
0.000842168
0.000721893
0.000608662
0.000350275
0.000221252
0.000185317
0.000190623
0.000347686
0.000371242
0.000296488
0.000238106
0.000308476
0.000308476
0.000280838
7.85534e-05
0.000972103
0.00118954
0.00146676
0.00146676
0.00145391
0.00101615
0.00060663
0.000402013
0.000341057
0.000310693
0.000310652
0.000510498
0.000510498
0.000503358
0.000418781
0.000290509
0.000221703
0.000102766
1.07273e-05
0.000997284
0.000894855
0.000879528
0.00114432
0.00107166
0.00107166
0.00104032
0.000961204
0.000822747
0.000719488
0.000591368
0.000335851
0.000242463
0.000180297
0.000101419
4.83061e-05
3.1138e-05
1.7604e-05
6.91953e-06
0.000997284
0.000953694
0.000724022
0.000575648
0.000764765
0.000966344
0.001152
0.00120865
0.00120865
0.00111507
0.000947462
0.00083736
0.000734747
0.00053788
0.000418884
0.000202885
4.27035e-05
1.75013e-05
5.44033e-06
0.00085187
0.000841536
0.000699918
0.000407502
0.000585717
0.000982991
0.00126836
0.00140086
0.00140086
0.00138642
0.0012626
0.00111288
0.00097047
0.000820433
0.000717407
0.000619374
9.47132e-05
2.53527e-05
1.04592e-05
0.000812166
0.000812166
0.000793679
0.000706583
0.00062745
0.000625836
0.000813022
0.000979713
0.00105101
0.00106278
0.000989978
0.000971069
0.00095053
0.000895062
0.000825456
0.000825456
0.00042801
5.65003e-05
1.51993e-05
0.000752632
0.000777607
0.000786234
0.000823831
0.000832598
0.000791858
0.000637225
0.000395625
0.000590534
0.000760632
0.000778412
0.000854416
0.000921057
0.000921057
0.000891748
0.000888727
0.000703457
9.9459e-05
3.38466e-05
0.000747362
0.00080078
0.000847414
0.000924315
0.000977221
0.000977221
0.000932465
0.000802284
0.000663451
0.000562689
0.000572866
0.000665714
0.000913369
0.00105468
0.00105938
0.00112509
0.000960607
0.000577071
0.000274305
0.000727092
0.000786272
0.000843598
0.00092845
0.00101726
0.00104399
0.00104399
0.000988971
0.000858005
0.000663388
0.000472936
0.000381225
0.000632168
0.00101536
0.00132926
0.00132926
0.00123064
0.00103011
0.000807865
0.000730081
0.000792782
0.00084823
0.000913529
0.000981859
0.00101963
0.00101963
0.000993105
0.00089177
0.000718617
0.000513854
0.000301796
0.000288369
0.000631253
0.000981152
0.00115542
0.00115542
0.00113361
0.00104058
0.000731744
0.00079581
0.000851952
0.000912148
0.000961153
0.000982057
0.000982057
0.000961833
0.00087909
0.000732246
0.000549304
0.000338071
0.000163815
0.00048232
0.000855364
0.00115331
0.00135391
0.00141634
0.00129341
0.000744924
0.00080744
0.000860236
0.000911942
0.000954042
0.000964575
0.000964575
0.000939137
0.000870586
0.000754378
0.000612198
0.000465809
0.000329064
0.000457652
0.000921362
0.00147377
0.00160751
0.00160751
0.00132475
0.000769813
0.000832891
0.000885746
0.000930565
0.000964434
0.000969591
0.000969591
0.000941491
0.000882429
0.000785668
0.000681143
0.000577876
0.00051875
0.000531543
0.00100899
0.00149902
0.00149902
0.00138269
0.0011915
0.000794002
0.000861876
0.00091785
0.000962375
0.000995268
0.00100466
0.00100466
0.000985053
0.00094288
0.000869429
0.00079721
0.000719187
0.000720948
0.000649783
0.00103667
0.00133227
0.00129865
0.00129865
0.00117743
0.000831272
0.000906743
0.000968484
0.00101386
0.00104446
0.00105502
0.00105502
0.00104174
0.00101549
0.000964423
0.000921828
0.000869113
0.000929041
0.000808733
0.0011204
0.00142515
0.00142515
0.0013306
0.00119028
0.000848458
0.000939857
0.00101757
0.0010752
0.00111172
0.00113048
0.00113048
0.00112555
0.00111082
0.00107667
0.00105721
0.00106693
0.00110489
0.000982178
0.00111399
0.00138485
0.00143536
0.00143536
0.00120052
0.000886802
0.000988887
0.00107864
0.00115057
0.00119611
0.0012201
0.00122071
0.00122071
0.00121735
0.00119721
0.00119171
0.00122558
0.00123376
0.00115394
0.000839903
0.00129927
0.00141028
0.00141028
0.00116826
0.000906906
0.00102061
0.00112792
0.00122201
0.0012902
0.00133307
0.00134313
0.00134313
0.00134223
0.00132564
0.00132083
0.00136317
0.00136317
0.00131816
0.000775582
0.00126106
0.00142299
0.00142299
0.00107684
0.000964019
0.00108912
0.00120645
0.00130864
0.00138985
0.00144766
0.00146758
0.00147255
0.00147255
0.00145946
0.00145214
0.00147907
0.00147907
0.00144463
0.000847591
0.00125669
0.00144921
0.00144921
0.00101783
0.000975421
0.00111651
0.00125988
0.00139904
0.00150922
0.0015861
0.00161748
0.00162103
0.00162103
0.00160203
0.00158175
0.00159509
0.00159509
0.0015739
0.00104327
0.00117686
0.00151722
0.00151722
0.00103465
0.000989092
0.00112484
0.0012858
0.0014691
0.00163393
0.00174081
0.00177371
0.00177371
0.00177238
0.00174779
0.00171356
0.00169945
0.00169945
0.00168504
0.00126158
0.00105685
0.00157978
0.00157978
0.00105811
0.00100497
0.00108451
0.00120466
0.00139332
0.00164926
0.00188707
0.00197562
0.00197562
0.00195837
0.00190923
0.0018525
0.00181911
0.00180623
0.00178773
0.00146098
0.000920355
0.00159543
0.00159543
0.0010801
0.00115944
0.00119213
0.00123547
0.00135434
0.00157087
0.00186482
0.00208562
0.00213266
0.00213266
0.00206488
0.00197662
0.00191657
0.00188761
0.00186505
0.00160148
0.000918416
0.00155494
0.00155494
0.0012839
0.00132436
0.00132436
0.00129258
0.00128307
0.00152005
0.00179888
0.00208085
0.00224582
0.00224582
0.00223563
0.00212567
0.00202926
0.00197458
0.00194225
0.0017367
0.00113555
0.00144311
0.00153885
0.00130099
0.00151295
0.00151295
0.00144342
0.00132724
0.00129868
0.00157443
0.00192093
0.00218221
0.00226553
0.00226553
0.0022069
0.00210213
0.00202039
0.00197308
0.0017978
0.00128268
0.00127621
0.00148578
0.00121773
0.00167517
0.00167517
0.00159482
0.00143782
0.00123125
0.00113869
0.00172939
0.00209112
0.00224438
0.00224438
0.00223626
0.00216428
0.00207893
0.0020155
0.00184909
0.00137424
0.00110435
0.00138695
0.00111249
0.0018521
0.0018521
0.00178928
0.00164737
0.00143317
0.000904474
0.00127205
0.00182046
0.00209456
0.00216298
0.00216298
0.0021364
0.0020843
0.0020307
0.00189319
0.00146514
0.0009393
0.0012659
0.000997824
0.00197798
0.00197798
0.00192342
0.00178211
0.0015041
0.000943189
0.000933844
0.00157608
0.00194539
0.00208723
0.00211025
0.00211025
0.00208904
0.00205289
0.00193859
0.0015544
0.000881583
0.00112547
0.000852677
0.00208862
0.00208862
0.00204839
0.00191923
0.00165554
0.00116746
0.000631167
0.00119971
0.0016729
0.00190492
0.00199603
0.00202655
0.00202655
0.00202358
0.00194773
0.001581
0.000851193
0.00103713
0.000690515
0.00214451
0.00214451
0.00210968
0.00198033
0.00171709
0.00124862
0.000720917
0.00102315
0.00154078
0.00182171
0.00196177
0.00203137
0.00204835
0.00204835
0.00199748
0.00168026
0.000910053
0.00124962
0.00095579
0.0022069
0.0022069
0.00218227
0.00206216
0.00181411
0.00137645
0.000830938
0.00065798
0.00120445
0.00155539
0.00176951
0.00191145
0.00198535
0.00198535
0.00194865
0.00171021
0.00100043
0.00129888
0.00129888
)
;

boundaryField
{
    leftWall
    {
        type            calculated;
        value           uniform 0;
    }
    rightWall
    {
        type            calculated;
        value           uniform 0;
    }
    lowerWall
    {
        type            calculated;
        value           uniform 0;
    }
    atmosphere
    {
        type            calculated;
        value           uniform 0;
    }
    defaultFaces
    {
        type            empty;
    }
}


// ************************************************************************* //
