/*--------------------------------*- C++ -*----------------------------------*\
| =========                 |                                                 |
| \\      /  F ield         | OpenFOAM: The Open Source CFD Toolbox           |
|  \\    /   O peration     | Version:  2012                                  |
|   \\  /    A nd           | Website:  www.openfoam.com                      |
|    \\/     M anipulation  |                                                 |
\*---------------------------------------------------------------------------*/
FoamFile
{
    version     2.0;
    format      ascii;
    class       volScalarField;
    location    "0.61";
    object      minKappa;
}
// * * * * * * * * * * * * * * * * * * * * * * * * * * * * * * * * * * * * * //

dimensions      [0 0 0 0 0 0 0];


internalField   nonuniform List<scalar> 
2268
(
1.49073e-07
4.02837e-07
6.3924e-07
8.4345e-07
9.80199e-07
1.11736e-06
1.30909e-06
1.36424e-06
1.37555e-06
1.39844e-06
1.31407e-06
1.22517e-06
1.09774e-06
1.00072e-06
8.91675e-07
7.91041e-07
6.67786e-07
5.77358e-07
4.87448e-07
4.11918e-07
3.33323e-07
2.38612e-07
2.46055e-07
1.49073e-07
4.02837e-07
6.3924e-07
8.4345e-07
9.80199e-07
1.11736e-06
1.30909e-06
1.36424e-06
1.37555e-06
1.39844e-06
1.31407e-06
1.22517e-06
1.09774e-06
1.00072e-06
8.91675e-07
7.91014e-07
6.67786e-07
5.77358e-07
4.87448e-07
4.11918e-07
3.33323e-07
2.04188e-07
1.64725e-07
2.41532e-07
4.60104e-07
6.68518e-07
8.68394e-07
1.00636e-06
1.14978e-06
1.32337e-06
1.36952e-06
1.38439e-06
1.40871e-06
1.31596e-06
1.23501e-06
1.11905e-06
1.01419e-06
8.90953e-07
7.85925e-07
6.72302e-07
5.92999e-07
5.10443e-07
4.31895e-07
3.36834e-07
2.04188e-07
1.64725e-07
3.43045e-07
5.44303e-07
7.14743e-07
9.04311e-07
1.04362e-06
1.19761e-06
1.34581e-06
1.38387e-06
1.41371e-06
1.42283e-06
1.33937e-06
1.256e-06
1.1388e-06
1.0192e-06
8.90953e-07
7.85925e-07
6.73238e-07
6.04844e-07
5.24832e-07
4.65267e-07
3.8531e-07
3.03344e-07
2.22933e-07
4.53049e-07
6.49523e-07
7.80401e-07
9.52847e-07
1.09348e-06
1.26131e-06
1.3771e-06
1.4082e-06
1.45298e-06
1.43859e-06
1.36497e-06
1.28168e-06
1.16316e-06
1.03425e-06
9.01328e-07
7.88653e-07
6.67071e-07
6.13031e-07
5.32999e-07
4.84704e-07
4.09154e-07
3.72679e-07
2.81896e-07
5.73088e-07
7.59597e-07
8.57345e-07
1.00881e-06
1.1517e-06
1.33409e-06
1.41632e-06
1.45144e-06
1.51324e-06
1.47716e-06
1.40163e-06
1.31506e-06
1.18739e-06
1.04093e-06
9.07291e-07
7.90618e-07
6.51894e-07
6.09622e-07
5.41827e-07
5.19491e-07
4.43036e-07
4.48682e-07
3.75651e-07
7.07369e-07
8.7196e-07
9.48127e-07
1.0786e-06
1.22867e-06
1.41854e-06
1.46836e-06
1.51485e-06
1.57846e-06
1.51468e-06
1.44005e-06
1.35278e-06
1.22798e-06
1.06802e-06
9.29515e-07
7.97542e-07
6.39736e-07
5.99248e-07
5.41827e-07
5.51783e-07
4.67508e-07
5.24834e-07
5.09519e-07
8.90618e-07
1.02847e-06
1.09131e-06
1.20202e-06
1.35972e-06
1.53727e-06
1.55699e-06
1.62074e-06
1.66188e-06
1.57544e-06
1.5107e-06
1.3992e-06
1.26681e-06
1.08843e-06
9.53544e-07
8.15309e-07
6.39736e-07
5.99248e-07
5.4379e-07
5.92785e-07
5.0036e-07
5.86158e-07
6.86912e-07
0.000304154
0.000354294
0.000435598
0.000311982
0.000224438
0.000160329
0.000160973
0.000177907
0.000203059
0.000207047
0.000217706
0.000241674
0.00025553
0.000257212
0.000233642
0.000219638
0.000202113
0.000147779
0.00010075
0.000304154
0.000309497
0.000435598
0.000311982
0.000224438
5.73589e-05
6.92057e-05
0.000177907
0.000203059
0.000161241
0.000192357
0.000241674
0.00025553
0.000257212
0.000233642
0.000219638
0.000202113
0.000147779
0.00010075
0.000397047
0.000309497
0.00075181
0.000325443
0.000186353
4.21034e-05
1.26624e-05
7.29594e-05
0.000161095
0.000161241
0.000192357
0.000332263
0.00048598
0.000460078
0.000430143
0.00035028
0.000292978
0.000153194
0.000114456
0.000432204
0.000383389
0.000662991
0.000311259
0.000301682
4.21034e-05
1.26624e-05
2.20069e-05
4.42367e-05
8.42502e-05
0.000341664
0.000528916
0.000484647
0.000437257
0.000721091
0.000888892
0.000704016
0.000342669
0.00013516
0.000439091
0.000706735
0.000204181
0.000311259
0.000292587
0.00010859
1.5133e-05
2.00059e-05
3.08115e-05
4.15891e-05
0.000159012
0.000581061
0.000591059
0.000437257
0.000618603
0.000392078
0.000684066
0.0004903
0.00013516
0.000548814
0.000844505
0.000120707
0.000379935
0.000292587
8.08677e-05
1.72268e-05
2.00059e-05
3.08115e-05
4.15891e-05
0.000164387
0.000541282
0.000768615
0.000773807
0.000614615
0.000208825
0.000429395
0.000541064
0.000141952
0.000431912
0.000745857
0.000120707
0.00040929
0.000280907
3.61576e-05
1.72268e-05
2.20565e-05
7.95108e-05
0.000153673
0.0002006
0.000541282
0.00072979
0.000793921
0.000614615
0.000208825
0.000265062
0.000584757
0.000152869
0.000431912
0.000745857
0.000155552
0.00040929
0.000137747
3.41576e-05
1.74999e-05
3.50156e-05
0.000266656
0.000464856
0.000567167
0.000656222
0.00072979
0.000793921
0.000640755
0.000342736
0.000265062
0.000624856
0.000164788
3.49958e-06
3.71114e-06
3.77158e-06
3.92555e-06
4.17529e-06
4.34833e-06
4.08886e-06
3.99086e-06
3.62365e-06
3.03938e-06
2.67085e-06
2.30005e-06
2.09325e-06
1.78285e-06
1.55912e-06
1.31914e-06
9.82002e-07
9.10505e-07
9.04104e-07
1.05668e-06
1.03802e-06
1.26501e-06
1.53243e-06
3.71282e-05
4.40445e-05
4.64066e-05
4.4233e-05
3.90439e-05
3.47598e-05
3.28491e-05
3.31257e-05
2.90873e-05
2.28716e-05
1.27933e-05
7.60205e-06
6.1036e-06
3.98334e-06
2.51819e-06
1.83396e-06
1.08602e-06
8.34133e-07
8.34133e-07
1.04764e-06
1.39678e-06
2.15264e-06
2.83506e-06
2.42639e-05
2.42639e-05
4.69772e-05
5.43845e-05
5.60557e-05
6.16676e-05
6.79752e-05
9.16461e-05
0.000109526
0.000156239
0.000127083
7.79508e-05
4.04792e-05
2.08972e-05
6.78941e-06
5.3463e-06
2.66662e-06
1.74879e-06
1.44156e-06
1.70864e-06
2.11608e-06
2.96539e-06
3.70807e-06
2.95315e-05
3.75418e-05
3.60407e-05
3.55301e-05
3.55301e-05
4.11585e-05
6.20552e-05
7.90748e-05
9.34917e-05
8.41664e-05
0.000107657
0.000146408
0.00016379
0.00016367
0.000105648
6.99549e-05
5.82286e-05
1.36989e-05
3.28621e-06
3.0479e-06
6.03959e-06
5.9753e-06
5.38541e-06
2.30503e-05
2.69883e-05
3.36708e-05
4.33423e-05
4.979e-05
5.73952e-05
5.87097e-05
4.54585e-05
4.04793e-05
4.04793e-05
4.20386e-05
9.65742e-05
0.000140247
0.000122061
0.000158551
0.000190565
0.000260824
0.000201889
0.000126862
0.000110582
6.93534e-05
2.18453e-05
1.06911e-05
1.76032e-05
1.92027e-05
2.05845e-05
2.62921e-05
3.74485e-05
4.88718e-05
6.22926e-05
6.6999e-05
7.59909e-05
6.64368e-05
7.71897e-05
8.71838e-05
6.66994e-05
5.89112e-05
7.60494e-05
0.000151699
0.000111307
0.0001536
0.00025772
0.000327834
0.000372922
0.000348639
0.000355496
9.60977e-06
1.44084e-05
2.20312e-05
2.78974e-05
3.44085e-05
3.82105e-05
4.0337e-05
4.0337e-05
4.13997e-05
4.74926e-05
5.78303e-05
8.58629e-05
8.52034e-05
5.89112e-05
7.86959e-05
8.91679e-05
5.49928e-05
5.49928e-05
0.000128585
0.00022036
0.000289303
0.000369466
0.000513933
4.22867e-06
6.26024e-06
1.33361e-05
2.01568e-05
2.9901e-05
3.50618e-05
4.58953e-05
5.0716e-05
5.95932e-05
6.18877e-05
7.08422e-05
7.97677e-05
8.52196e-05
7.90355e-05
0.000112704
0.000139464
9.42363e-05
0.000117325
0.000197781
0.000217783
0.000230272
0.000266643
0.000327956
4.22867e-06
5.87426e-06
1.02579e-05
1.46551e-05
1.9329e-05
2.39193e-05
2.88833e-05
3.45338e-05
4.11957e-05
5.12806e-05
6.24974e-05
7.65744e-05
8.97231e-05
9.46224e-05
0.000104729
0.000126364
0.000139083
0.000165679
0.000226653
0.000267826
0.000313738
0.000366339
0.000426172
7.8466e-06
9.84856e-06
1.50986e-05
1.82076e-05
2.57943e-05
3.03109e-05
3.89804e-05
4.42199e-05
5.33777e-05
6.08626e-05
6.85854e-05
7.66935e-05
8.69599e-05
9.78398e-05
0.000113154
0.000133197
0.00015282
0.000173641
0.000209355
0.000256137
0.00031007
0.000388104
0.000473284
6.55095e-06
6.55095e-06
9.21447e-06
1.23638e-05
1.65523e-05
2.15623e-05
2.72446e-05
3.44616e-05
4.23407e-05
5.20043e-05
6.29898e-05
7.48951e-05
8.77724e-05
0.00010075
0.000115398
0.000136348
0.000161003
0.000192188
0.000238141
0.000292437
0.0003581
0.00044275
0.000535212
1.10976e-05
1.20248e-05
1.59406e-05
1.81961e-05
2.42901e-05
2.82534e-05
3.54224e-05
4.19437e-05
4.93439e-05
5.65584e-05
6.50317e-05
7.45765e-05
8.62723e-05
9.95489e-05
0.000115488
0.000135154
0.000159585
0.000189296
0.000229292
0.00028059
0.000345821
0.000431665
0.000527692
1.05106e-05
1.05106e-05
1.21514e-05
1.45691e-05
1.81298e-05
2.30163e-05
2.8564e-05
3.57705e-05
4.39099e-05
5.31722e-05
6.39275e-05
7.58446e-05
8.95167e-05
0.000105082
0.000123148
0.000145327
0.00017178
0.000204116
0.000245785
0.000296854
0.000361693
0.000442662
0.000510305
1.35443e-05
1.41883e-05
1.66487e-05
1.89369e-05
2.33556e-05
2.83528e-05
3.32231e-05
3.94612e-05
4.67589e-05
5.47191e-05
6.45646e-05
7.55624e-05
8.86181e-05
0.000103719
0.000121572
0.000143227
0.000169459
0.000201197
0.000240031
0.000288417
0.000348167
0.000423889
0.00047273
1.08975e-05
1.08975e-05
1.27465e-05
1.56779e-05
1.93841e-05
2.4562e-05
3.01569e-05
3.72981e-05
4.53906e-05
5.46697e-05
6.55345e-05
7.7855e-05
9.22132e-05
0.000108744
0.000127995
0.000150813
0.000177778
0.000210502
0.00024952
0.000296632
0.000352529
0.000420278
0.000438314
1.00711e-05
1.16687e-05
1.49198e-05
1.85979e-05
2.19795e-05
2.69713e-05
3.21577e-05
3.89586e-05
4.66777e-05
5.54771e-05
6.60356e-05
7.79026e-05
9.18292e-05
0.000107935
0.000126916
0.000149262
0.000175626
0.000207109
0.000244092
0.000288907
0.000341375
0.00040432
0.000411291
6.75501e-06
7.63146e-06
1.07403e-05
1.5059e-05
1.97302e-05
2.56132e-05
3.17542e-05
3.93019e-05
4.75577e-05
5.7244e-05
6.82093e-05
8.10453e-05
9.57158e-05
0.00011279
0.000132483
0.000155435
0.000182213
0.000213688
0.000250141
0.000292815
0.000341626
0.000397948
0.000389286
4.91286e-06
8.11684e-06
1.13111e-05
1.5864e-05
2.06564e-05
2.66883e-05
3.29468e-05
4.06175e-05
4.89404e-05
5.8618e-05
6.95186e-05
8.21438e-05
9.65424e-05
0.000113538
0.000132991
0.000155694
0.000182032
0.000212665
0.000248173
0.000289322
0.000336247
0.000389212
0.000373276
3.10477e-06
5.02763e-06
9.55696e-06
1.4656e-05
2.01549e-05
2.65392e-05
3.34623e-05
4.15722e-05
5.04606e-05
6.0883e-05
7.2305e-05
8.57641e-05
0.000100612
0.000118243
0.000138004
0.000161128
0.000187674
0.000218084
0.000253066
0.000292588
0.000337495
0.000387446
0.000367402
3.10477e-06
5.19548e-06
9.16783e-06
1.40286e-05
1.9381e-05
2.56793e-05
3.26805e-05
4.08917e-05
5.00742e-05
6.07465e-05
7.26684e-05
8.64776e-05
0.000101976
0.000120131
0.000140364
0.000163956
0.000190627
0.000221131
0.000255989
0.00029467
0.000338288
0.00038599
0.000361894
7.38206e-06
9.75164e-06
1.30693e-05
1.64401e-05
2.04533e-05
2.56443e-05
3.20497e-05
3.97274e-05
4.88504e-05
5.95651e-05
7.18273e-05
8.61322e-05
0.000102249
0.000121079
0.000142092
0.000166631
0.000193873
0.000225149
0.000260302
0.000299173
0.000342567
0.00038958
0.000363418
1.13842e-05
1.14013e-05
1.2252e-05
1.41023e-05
1.68696e-05
2.10862e-05
2.67284e-05
3.38869e-05
4.28087e-05
5.35159e-05
6.62472e-05
8.11216e-05
9.8359e-05
0.000118204
0.000140819
0.000166826
0.000195695
0.000228854
0.000265084
0.00030542
0.000349639
0.000396776
0.000367459
1.48601e-05
1.47017e-05
1.60452e-05
1.73588e-05
1.89597e-05
2.0808e-05
2.46874e-05
2.93689e-05
3.72429e-05
4.60389e-05
5.85199e-05
7.21771e-05
8.86491e-05
0.00010821
0.000131318
0.000158104
0.000188441
0.000223641
0.00026185
0.000305256
0.000352008
0.000401657
0.000374617
1.56421e-05
1.56106e-05
1.56106e-05
1.56645e-05
1.58199e-05
1.67565e-05
1.87473e-05
2.2187e-05
2.7695e-05
3.54491e-05
4.59874e-05
5.95113e-05
7.62738e-05
9.65205e-05
0.000120889
0.000149034
0.000181678
0.000218992
0.000259969
0.000307116
0.000356961
0.000410377
0.000386319
1.75763e-05
1.7281e-05
1.8364e-05
1.80358e-05
1.9249e-05
2.02336e-05
2.31887e-05
2.63605e-05
3.12184e-05
3.63745e-05
4.46846e-05
5.51709e-05
6.87255e-05
8.59647e-05
0.000107433
0.000133207
0.000164414
0.000200808
0.000242625
0.000291604
0.000343655
0.000401862
0.000388802
1.48796e-05
1.48796e-05
1.56682e-05
1.68238e-05
1.82663e-05
1.99675e-05
2.19342e-05
2.41165e-05
2.71023e-05
3.10975e-05
3.71564e-05
4.59528e-05
5.82886e-05
7.50388e-05
9.66053e-05
0.00012296
0.000155114
0.000192485
0.000236401
0.000286649
0.000340696
0.000403512
0.000398337
1.21775e-05
1.35825e-05
1.74026e-05
1.91997e-05
2.2289e-05
2.43406e-05
2.81808e-05
3.07919e-05
3.6276e-05
4.06944e-05
4.98107e-05
5.88275e-05
7.38017e-05
8.82974e-05
0.00010615
0.000128024
0.000155237
0.000187886
0.000227873
0.000274321
0.000327074
0.000390563
0.000391473
7.73894e-06
9.26603e-06
1.30011e-05
1.76299e-05
2.26047e-05
2.76519e-05
3.28291e-05
3.80027e-05
4.35414e-05
4.94776e-05
5.64195e-05
6.47743e-05
7.53173e-05
8.88757e-05
0.000106331
0.000128617
0.000157176
0.000191952
0.00023417
0.000282266
0.00033778
0.000402951
0.00040279
7.07156e-06
9.08039e-06
1.3952e-05
1.97565e-05
2.60291e-05
3.25219e-05
3.94404e-05
4.52922e-05
5.35359e-05
6.02423e-05
7.0936e-05
8.08171e-05
9.59984e-05
0.000111667
0.00013407
0.000157868
0.000189112
0.000220277
0.000257531
0.00030058
0.000352258
0.000413159
0.00040596
7.07156e-06
9.52378e-06
1.60061e-05
2.30469e-05
3.03913e-05
3.7789e-05
4.5584e-05
5.36158e-05
6.23941e-05
7.19351e-05
8.27805e-05
9.51723e-05
0.00010959
0.000126483
0.000146506
0.000170515
0.000199738
0.000234904
0.00027738
0.000326219
0.000382727
0.000446007
0.000434537
7.78868e-06
1.14254e-05
1.78146e-05
2.5125e-05
3.30369e-05
4.12913e-05
5.03584e-05
6.00971e-05
7.11864e-05
8.33678e-05
9.80533e-05
0.000112565
0.000132506
0.000152364
0.000179239
0.000207519
0.000244353
0.000282509
0.000330176
0.000378107
0.000429915
0.000485351
0.000450682
1.61735e-05
2.07091e-05
2.74285e-05
3.45564e-05
4.30359e-05
5.12077e-05
6.15277e-05
7.11676e-05
8.34663e-05
9.64543e-05
0.000111751
0.000129407
0.000150229
0.000174298
0.000202237
0.000234256
0.000270927
0.000312877
0.000360887
0.000414483
0.000471475
0.000531189
0.000483272
2.50295e-05
2.80317e-05
3.23633e-05
3.8477e-05
4.60186e-05
5.4717e-05
6.49534e-05
7.66638e-05
9.06011e-05
0.000106774
0.000126109
0.00014869
0.000175481
0.00020556
0.000242367
0.00028035
0.000328656
0.000378664
0.000437676
0.000493746
0.000552623
0.000612032
0.000553621
3.54003e-05
3.86406e-05
4.38922e-05
5.09248e-05
5.91823e-05
6.87463e-05
8.01043e-05
9.27101e-05
0.000108485
0.000125647
0.000145971
0.000169614
0.000198261
0.000232471
0.000273448
0.000321483
0.000377126
0.00043959
0.000508598
0.00058637
0.000660832
0.000735897
0.000681415
4.59585e-05
4.86879e-05
5.20396e-05
5.7184e-05
6.39151e-05
7.23984e-05
8.30183e-05
9.60698e-05
0.00011239
0.000132394
0.000156945
0.000186672
0.000222955
0.00026649
0.000318725
0.000381049
0.0004548
0.000535212
0.000626357
0.00071432
0.000798819
0.000893328
0.00080741
5.7005e-05
5.9808e-05
6.43121e-05
7.11525e-05
7.91416e-05
8.97538e-05
0.000101999
0.000117468
0.000135925
0.00015856
0.000185714
0.000216319
0.00025388
0.000300008
0.000357264
0.000428028
0.000514448
0.000614951
0.000723934
0.000827711
0.000934143
0.00104681
0.000928724
6.803e-05
7.0515e-05
7.34605e-05
7.81536e-05
8.44314e-05
9.26557e-05
0.000103092
0.000116324
0.000133296
0.000155131
0.000183715
0.000220979
0.000268899
0.000329516
0.000404611
0.000497321
0.000610624
0.000738203
0.000848651
0.000934596
0.00104525
0.00117738
0.00103331
7.82645e-05
8.09933e-05
8.52553e-05
9.21587e-05
0.000100096
0.000111464
0.000124313
0.00014189
0.000162603
0.000190352
0.000224446
0.000269119
0.000320352
0.000382994
0.000461032
0.000562228
0.000686901
0.000809139
0.000895542
0.000981485
0.00112063
0.00127664
0.00112745
8.82519e-05
9.04196e-05
9.34311e-05
9.83004e-05
0.00010476
0.000113319
0.000124183
0.000138209
0.00015624
0.000179767
0.00021047
0.000251018
0.000305025
0.00037786
0.000475139
0.00059771
0.000733726
0.000861178
0.000953771
0.00104675
0.00119313
0.00135516
0.00119668
9.62859e-05
9.90833e-05
0.000103436
0.000110674
0.000118933
0.000131199
0.000144973
0.00016468
0.000187761
0.000220062
0.000259498
0.000313711
0.000381592
0.000471553
0.000572305
0.000691079
0.000820047
0.000914399
0.000964718
0.00105663
0.00122729
0.00140681
0.00125153
0.000103933
0.000105748
0.000109123
0.000114666
0.000122082
0.000131978
0.000144583
0.00016092
0.000181936
0.000209371
0.000245388
0.000293094
0.000357101
0.00044397
0.00056879
0.000751862
0.00094517
0.00101363
0.00101612
0.00109876
0.00125935
0.00143833
0.00128061
0.000108767
0.000111777
0.000116555
0.000124545
0.000133806
0.000147584
0.000163282
0.000185809
0.0002127
0.000250771
0.000299251
0.000367821
0.000460863
0.000593281
0.000780816
0.000992402
0.00111756
0.00102797
0.00102251
0.00108229
0.00126595
0.00145754
0.00130886
2.40821e-06
2.40821e-06
2.77772e-06
6.37335e-06
2.1038e-06
2.1038e-06
2.41952e-06
2.72119e-06
3.2368e-06
3.2368e-06
3.76333e-06
4.17089e-06
3.5558e-06
3.5558e-06
3.85017e-06
4.21538e-06
1.42918e-05
1.81281e-05
2.13267e-05
2.45784e-05
0.000330342
0.000314527
0.000287724
0.000287724
0.000383467
0.000383467
0.000429424
0.000465317
0.000235807
0.000235807
0.000271134
0.000316016
0.000298049
0.000298049
0.000329988
0.000363631
0.000346292
0.000346292
0.00039429
0.000427818
0.000394633
0.000394633
0.000452064
0.000490252
0.000394711
0.000394711
0.000458451
0.000499101
0.000376021
0.000376021
0.000442887
0.000506508
0.000336735
0.000336735
0.000383559
0.00044443
0.000303962
0.000303962
0.000329305
0.000356802
0.000283447
0.000283447
0.00030435
0.000322988
0.000265713
0.000265713
0.000283223
0.000299362
0.000253001
0.000253001
0.000267447
0.000281243
0.000248364
0.000248364
0.000261886
0.000275445
0.000243926
0.000243926
0.000256065
0.000268101
0.000245051
0.000245051
0.000257153
0.00026914
0.000247468
0.000247468
0.00025925
0.000270917
0.000252613
0.000252613
0.000264842
0.000276889
0.000260878
0.000260878
0.00027377
0.000286455
0.000263922
0.000263922
0.000278263
0.000292422
0.000271524
0.000271524
0.000287419
0.000303174
0.000268075
0.000268075
0.000285201
0.00030247
0.000275989
0.000275989
0.000294002
0.000312497
0.000278292
0.000278292
0.000297135
0.000316719
0.000298187
0.000298187
0.000318199
0.000338532
0.000306488
0.000306488
0.0003238
0.00034221
0.00032535
0.00032535
0.00034048
0.000356783
0.000367595
0.000367595
0.000378392
0.000388748
0.000448931
0.000448931
0.000458252
0.000466509
0.000530508
0.000530508
0.000540007
0.000546835
0.000610894
0.000610894
0.000622018
0.000630306
0.00068003
0.00068003
0.00069285
0.000702624
0.000743623
0.000743623
0.000759353
0.000771784
0.000789958
0.000789958
0.000807489
0.000821641
0.000827536
0.000827536
0.000847193
0.000863308
0.000847423
0.000847423
0.000867928
0.000884688
0.000867408
0.000867408
0.000889489
0.000907655
8.98933e-05
0.000273074
0.000201779
7.12908e-05
5.00518e-05
3.41576e-05
2.81461e-05
9.98938e-05
0.000613469
0.000823029
0.000854149
0.000967366
0.00109307
0.00130144
0.000867473
0.000369874
0.000267207
0.000625134
0.000295887
9.92536e-06
2.6142e-05
2.17416e-05
1.89459e-05
2.37369e-05
2.99612e-05
6.84515e-05
0.000527962
0.000786355
0.000662046
0.000577348
0.000784675
0.00138752
0.00138553
0.000556063
0.000281528
0.000194111
0.000607377
0.000387432
7.95949e-06
1.35946e-05
1.45158e-05
1.51976e-05
1.83387e-05
2.71821e-05
8.92054e-05
0.000758641
0.000761701
0.000546081
0.000577348
0.00112326
0.00186751
0.00106395
0.000335028
0.000153158
0.000194111
0.000560865
0.000359533
7.64102e-06
1.35946e-05
1.45158e-05
1.38894e-05
1.43645e-05
2.76607e-05
0.000209889
0.000861315
0.000675378
0.000546081
0.00100427
0.00174989
0.00160108
0.000678445
0.000153714
7.42851e-05
0.000198567
0.000530285
0.000328365
2.58159e-05
2.71803e-05
2.2323e-05
1.38894e-05
1.43645e-05
4.71152e-05
0.000361615
0.000867047
0.000675378
0.000948541
0.00163206
0.0018961
0.00120417
0.000396352
8.38636e-05
7.42851e-05
0.000230235
0.000480725
0.000269275
0.00030493
0.000172129
0.000122539
8.46224e-05
3.32709e-05
0.000103791
0.000309224
0.000836453
0.000817895
0.00129759
0.00158772
0.0015483
0.000703342
0.000247993
0.000133653
0.000121966
0.000344585
0.000383879
0.000183698
0.0007799
0.000572809
0.000423551
0.000296043
0.000124969
0.000144817
0.000369317
0.000903238
0.00101071
0.00109728
0.00136144
0.00105995
0.000416481
0.000255122
0.000250323
0.000235947
0.000429884
0.000263615
0.000105958
0.000609771
0.000987979
0.000704466
0.000488934
0.000279243
0.000177365
0.000372429
0.000875733
0.0010929
0.000896296
0.00106418
0.000612484
0.000593933
0.000411308
0.000411563
0.000302035
0.000444842
0.00016139
5.77148e-05
0.000682854
0.00110737
0.000983093
0.000708578
0.000456509
0.00025335
0.000280136
0.000472203
0.000816042
0.000823407
0.000502826
0.000377664
0.000436521
0.000442915
0.000414491
0.00033494
0.000494962
0.000100879
3.98764e-05
0.000759702
0.00122876
0.00121935
0.00103133
0.000715097
0.000345191
0.000274999
0.000222885
0.000343368
0.000401251
9.63367e-05
0.000170088
0.000212153
0.000229341
0.000305739
0.000424419
0.000346765
6.76159e-05
2.93368e-05
0.000835677
0.00125954
0.00111865
0.000929398
0.000741414
0.000492911
0.000246079
0.00018524
0.00013857
8.74755e-05
8.74755e-05
0.000110011
0.000151039
0.000164934
0.000211589
0.000307768
0.000251151
7.92025e-05
2.93368e-05
0.000781773
0.00113685
0.00121914
0.000842168
0.000721893
0.000582972
0.000350275
0.000209127
0.000150565
9.06526e-05
0.000104251
0.000171408
0.000188637
0.000162578
0.000162578
0.000218526
0.000221703
7.85534e-05
1.06467e-05
0.000819618
0.000702358
0.000879528
0.00107025
0.000800834
0.00060663
0.000397202
0.00027705
0.000217924
0.000185317
0.000190623
0.000271086
0.000224648
0.000180297
9.4987e-05
4.83061e-05
3.1138e-05
1.07273e-05
2.15114e-06
0.000812704
0.000545936
0.000477895
0.000575648
0.000764765
0.00079742
0.000556529
0.000402013
0.000341057
0.000310693
0.000290984
0.00022106
0.000166636
0.000101419
4.04421e-05
2.63757e-05
1.6504e-05
6.91953e-06
1.77899e-06
0.000650481
0.00067133
0.000396723
0.00021169
0.000412718
0.000718939
0.00096239
0.000928501
0.000822747
0.000719488
0.000591368
0.000335851
0.000242463
0.000180094
0.000100665
4.0845e-05
1.75013e-05
5.44033e-06
1.77899e-06
0.000571786
0.000699918
0.000407502
0.00021169
0.000295012
0.000585717
0.000813022
0.000979713
0.00105101
0.00106278
0.000920401
0.00083736
0.000682048
0.00053788
0.000418884
9.47132e-05
2.53527e-05
1.04592e-05
3.6967e-06
0.000528826
0.000723677
0.000608419
0.000399474
0.000402994
0.000551031
0.000523184
0.000395625
0.000590534
0.000760632
0.000778412
0.000795005
0.000830589
0.000721116
0.000669971
0.00042801
5.65003e-05
1.51993e-05
6.95501e-06
0.000492898
0.00069908
0.000698154
0.000652523
0.00062745
0.000589915
0.00030236
0.000246927
0.000246927
0.000542906
0.000572866
0.000605115
0.000768961
0.000803755
0.00076277
0.000703457
9.9459e-05
2.39775e-05
1.32679e-05
0.000484744
0.00069051
0.000729306
0.000748991
0.000832598
0.000768177
0.000637225
0.000363545
0.000461306
0.000479667
0.000421492
0.000381225
0.00056046
0.000836967
0.00088499
0.000888727
0.000561171
7.24222e-05
3.38466e-05
0.000470428
0.000685767
0.000743876
0.000784556
0.000879932
0.000912886
0.000876629
0.000743343
0.000630609
0.000472936
0.000353211
0.000222861
0.000269771
0.000564909
0.000927706
0.00111742
0.000862791
0.000577071
0.000274305
0.000471823
0.000685767
0.000743876
0.000787904
0.00086255
0.00089734
0.000916236
0.000855519
0.000718617
0.000513854
0.000301796
0.000168409
9.62797e-05
0.000288369
0.000631253
0.000968887
0.00104089
0.000914709
0.000778768
0.000473935
0.000689849
0.000748766
0.000790934
0.000856994
0.000877982
0.000885708
0.000836832
0.000732246
0.000549304
0.000338071
0.000138705
9.62797e-05
0.000163815
0.00048232
0.000855364
0.00111719
0.00111587
0.000980445
0.000484119
0.00069674
0.000755538
0.000795425
0.000856994
0.000877982
0.000874286
0.000829511
0.000748665
0.000598288
0.000453553
0.000274121
0.000146355
0.000282279
0.000457652
0.000921362
0.00125251
0.00127979
0.000988206
0.000501036
0.000713594
0.000772645
0.000809277
0.000860093
0.000878045
0.000874286
0.000829511
0.000758435
0.000636286
0.000534399
0.000409935
0.000329064
0.000409047
0.000498935
0.00100899
0.00119568
0.0011915
0.000988206
0.000513478
0.000737024
0.00079898
0.000835559
0.000879824
0.000895846
0.000892773
0.000852337
0.000800613
0.000697732
0.000639848
0.000533258
0.00051875
0.000526355
0.000523368
0.00103667
0.00116497
0.00117743
0.00100411
0.000534137
0.000767982
0.00083542
0.000874547
0.000916677
0.000931752
0.000934316
0.00090145
0.000871676
0.000788052
0.000766818
0.000669177
0.000720948
0.000596685
0.000612931
0.0011204
0.00116497
0.00119028
0.000904337
0.000536115
0.000798659
0.000876008
0.000924913
0.000969051
0.000985243
0.000994952
0.000967984
0.000956953
0.000889958
0.000899675
0.000816385
0.000929041
0.000687938
0.000551983
0.00111399
0.00122824
0.00120052
0.000884965
0.000555599
0.000831143
0.00091859
0.00098284
0.00103565
0.00105654
0.00107349
0.00105159
0.00105597
0.00100131
0.00103212
0.00096505
0.00110489
0.000742638
0.000406805
0.000839903
0.00125302
0.00116826
0.000826205
0.0005649
0.000862907
0.000960824
0.00104153
0.00111086
0.00114373
0.00117025
0.00115205
0.00116498
0.0011174
0.00115427
0.0011037
0.00123376
0.000775582
0.000328934
0.000731824
0.00126106
0.00107684
0.000759203
0.000602402
0.000901973
0.00101289
0.00110631
0.00119036
0.00124068
0.00128009
0.0012661
0.00128199
0.00123754
0.00126944
0.00123071
0.00133575
0.000847591
0.000328934
0.000680835
0.00125669
0.00101783
0.000721711
0.000606866
0.000939015
0.00106255
0.00117713
0.00128147
0.00134929
0.00140157
0.00139349
0.00140701
0.00136244
0.00138028
0.00135257
0.0014233
0.00104327
0.000432259
0.000612463
0.00117686
0.00103465
0.000685225
0.000626788
0.000950043
0.0010514
0.00120837
0.00137541
0.00147817
0.00153945
0.00153338
0.00153853
0.0014915
0.00148723
0.00146832
0.00150641
0.00126158
0.00068216
0.00039724
0.00105685
0.00105811
0.000649423
0.000668767
0.000950043
0.0010514
0.00115978
0.00133095
0.00159019
0.00170111
0.00169625
0.00168077
0.00162662
0.00159628
0.00157825
0.00158676
0.00146098
0.000751335
0.000352791
0.000920355
0.0010801
0.000649423
0.000794039
0.00100784
0.00105174
0.00112893
0.00126553
0.00149973
0.00179814
0.00186987
0.0018324
0.00176084
0.00169897
0.0016746
0.00165997
0.00160148
0.00090173
0.000352791
0.000918416
0.0012839
0.00066054
0.000924999
0.00113617
0.00110859
0.00112893
0.00118858
0.00136959
0.00169335
0.00194776
0.00198449
0.00190149
0.00180359
0.00175865
0.00172711
0.00170803
0.00113555
0.000533071
0.000957904
0.00130099
0.000818668
0.00106651
0.00128058
0.00118713
0.00113564
0.00106156
0.00099405
0.0014654
0.00184278
0.00202701
0.00201003
0.00190166
0.00182704
0.00177792
0.00175451
0.00128268
0.000749275
0.000760065
0.00121773
0.000745995
0.00118815
0.00142977
0.00130711
0.00120228
0.000969895
0.000608861
0.00105171
0.00165376
0.00191323
0.0020002
0.00196575
0.00188291
0.00181488
0.0017828
0.00137424
0.000888801
0.000578395
0.00110435
0.000666162
0.0013073
0.00158429
0.00146369
0.00133199
0.000904474
0.000489151
0.000627349
0.00127205
0.00173435
0.00190772
0.00192312
0.00190508
0.00184326
0.00180552
0.00146514
0.000847376
0.000476528
0.0009393
0.000570233
0.00139281
0.00172745
0.00161798
0.00147972
0.000943189
0.000489151
0.000404809
0.000933844
0.00149955
0.0017616
0.00183566
0.00186518
0.00184421
0.00182416
0.0015544
0.000881583
0.000414629
0.000834612
0.000463864
0.00146542
0.00183948
0.00174035
0.00159556
0.00116746
0.000614949
0.000382505
0.000631167
0.00119971
0.00161505
0.00174308
0.00182382
0.00183286
0.00183176
0.001581
0.000851193
0.000367861
0.000682265
0.000463864
0.00150205
0.00191856
0.00182994
0.00168589
0.00124862
0.000720917
0.000382505
0.000472359
0.00102315
0.00143046
0.00161208
0.00174987
0.00180208
0.00183209
0.00168026
0.000910053
0.000367861
0.000870291
0.000491504
0.00154233
0.00197447
0.00189445
0.00175007
0.00137645
0.000830938
0.000448871
0.000448871
0.00065798
0.00120445
0.00155539
0.00174987
0.00180208
0.00183209
0.00171021
0.00100043
0.000392245
0.000942312
0.000861962
)
;

boundaryField
{
    leftWall
    {
        type            calculated;
        value           uniform 0;
    }
    rightWall
    {
        type            calculated;
        value           uniform 0;
    }
    lowerWall
    {
        type            calculated;
        value           uniform 0;
    }
    atmosphere
    {
        type            calculated;
        value           uniform 0;
    }
    defaultFaces
    {
        type            empty;
    }
}


// ************************************************************************* //
