/*--------------------------------*- C++ -*----------------------------------*\
| =========                 |                                                 |
| \\      /  F ield         | OpenFOAM: The Open Source CFD Toolbox           |
|  \\    /   O peration     | Version:  2012                                  |
|   \\  /    A nd           | Website:  www.openfoam.com                      |
|    \\/     M anipulation  |                                                 |
\*---------------------------------------------------------------------------*/
FoamFile
{
    version     2.0;
    format      ascii;
    class       volScalarField;
    location    "0.61";
    object      p_rgh;
}
// * * * * * * * * * * * * * * * * * * * * * * * * * * * * * * * * * * * * * //

dimensions      [1 -1 -2 0 0 0 0];


internalField   nonuniform List<scalar> 
2268
(
101890
101892
101896
101902
101910
101920
101932
101947
101964
101983
102005
102029
102053
102080
102105
102132
102158
102183
102206
102228
102245
102259
102267
101890
101892
101896
101901
101909
101919
101932
101946
101963
101983
102004
102028
102053
102080
102105
102133
102158
102184
102206
102228
102246
102260
102267
101889
101891
101895
101900
101908
101918
101930
101945
101962
101982
102003
102028
102052
102079
102105
102133
102158
102184
102208
102230
102249
102264
102273
101888
101889
101893
101899
101907
101917
101929
101944
101961
101981
102002
102027
102052
102079
102105
102133
102159
102185
102208
102231
102250
102266
102274
101885
101887
101891
101896
101904
101914
101926
101941
101958
101979
102000
102025
102051
102078
102105
102134
102160
102187
102211
102236
102256
102275
102287
101883
101885
101889
101894
101902
101912
101925
101939
101956
101977
101999
102023
102050
102078
102105
102134
102160
102188
102212
102237
102257
102277
102288
101880
101882
101885
101891
101898
101908
101920
101935
101952
101973
101996
102021
102048
102077
102105
102135
102162
102191
102216
102243
102267
102292
102310
101874
101876
101880
101886
101894
101904
101917
101932
101950
101970
101993
102018
102046
102076
102106
102135
102163
102192
102217
102245
102268
102294
102310
102687
102025
102023
102003
102127
102360
102690
102576
102454
102259
102104
101944
101888
101875
101880
101920
102028
102519
103187
102424
101934
101984
101956
102092
102369
102785
102591
102430
102220
102046
101928
101867
101856
101866
101889
101958
102380
102997
102097
101916
101970
101939
102046
102342
102723
102580
102414
102200
102063
101858
101799
101795
101798
101798
101841
102221
102873
102181
101923
101970
101934
101974
102257
102765
102639
102454
102195
101939
101841
101794
101782
101780
101773
101787
101976
102654
102166
101924
101969
101936
101970
102077
102686
102596
102457
102327
102093
101876
101784
101780
101777
101772
101780
101881
102494
102099
101921
101971
101935
101975
102234
102644
102512
102341
102188
102057
101890
101780
101778
101776
101771
101775
101815
102337
102074
101933
101973
101937
102037
102289
102552
102439
102154
101938
101895
101837
101771
101775
101775
101771
101773
101786
102211
102127
101930
101976
101936
102155
102373
102512
102302
101934
101794
101773
101772
101769
101771
101774
101771
101773
101778
102162
101661
101666
101681
101700
101726
101755
101796
101838
101886
101937
101979
102014
102044
102075
102105
102136
102165
102197
102225
102257
102287
102329
102368
101331
101331
101331
101337
101348
101362
101385
101414
101460
101525
101621
101750
101895
102030
102107
102139
102167
102200
102226
102259
102284
102332
102360
101331
101331
101331
101331
101331
101331
101331
101331
101331
101331
101337
101357
101413
101514
101686
101872
102031
102195
102236
102264
102295
102331
102365
101331
101331
101331
101331
101331
101331
101331
101331
101331
101331
101331
101331
101331
101336
101352
101406
101468
101605
101799
101971
102141
102262
102323
101331
101331
101331
101331
101331
101331
101331
101331
101331
101331
101331
101331
101331
101331
101331
101332
101332
101332
101343
101351
101402
101504
101602
101331
101331
101331
101331
101331
101331
101331
101331
101331
101331
101331
101331
101331
101331
101331
101332
101332
101332
101332
101333
101333
101333
101334
101331
101331
101331
101331
101331
101331
101331
101331
101331
101331
101331
101331
101331
101331
101331
101332
101332
101332
101332
101332
101333
101333
101334
101331
101331
101331
101331
101331
101331
101331
101331
101331
101331
101331
101331
101331
101331
101331
101332
101332
101332
101332
101332
101333
101333
101333
101330
101330
101330
101330
101331
101331
101331
101331
101331
101331
101331
101331
101331
101331
101331
101331
101332
101332
101332
101332
101332
101333
101333
101330
101330
101330
101330
101330
101331
101331
101331
101331
101331
101331
101331
101331
101331
101331
101331
101331
101332
101332
101332
101332
101332
101333
101330
101330
101330
101330
101330
101330
101330
101331
101331
101331
101331
101331
101331
101331
101331
101331
101331
101331
101332
101332
101332
101332
101332
101330
101330
101330
101330
101330
101330
101330
101330
101330
101331
101331
101331
101331
101331
101331
101331
101331
101331
101331
101331
101332
101332
101332
101330
101330
101330
101330
101330
101330
101330
101330
101330
101330
101330
101331
101331
101331
101331
101331
101331
101331
101331
101331
101331
101331
101331
101330
101330
101330
101330
101330
101330
101330
101330
101330
101330
101330
101330
101331
101331
101331
101331
101331
101331
101331
101331
101331
101331
101331
101330
101330
101330
101330
101330
101330
101330
101330
101330
101330
101330
101330
101330
101330
101330
101331
101331
101331
101331
101331
101331
101331
101330
101330
101330
101330
101330
101330
101330
101330
101330
101330
101330
101330
101330
101330
101330
101330
101330
101330
101331
101331
101331
101330
101330
101330
101330
101330
101330
101330
101330
101330
101330
101330
101330
101330
101330
101330
101330
101330
101330
101330
101330
101330
101330
101330
101330
101330
101330
101330
101330
101330
101330
101330
101330
101330
101330
101330
101330
101330
101330
101330
101330
101330
101330
101330
101330
101330
101330
101330
101330
101330
101330
101330
101330
101330
101330
101330
101330
101330
101330
101330
101330
101330
101330
101330
101330
101330
101330
101330
101330
101330
101330
101330
101330
101329
101329
101329
101329
101329
101329
101329
101330
101330
101330
101330
101330
101330
101330
101330
101330
101330
101330
101330
101330
101330
101330
101330
101329
101329
101329
101329
101329
101329
101329
101329
101329
101329
101329
101330
101330
101330
101330
101330
101330
101330
101330
101330
101330
101330
101330
101329
101329
101329
101329
101329
101329
101329
101329
101329
101329
101329
101329
101329
101329
101330
101330
101330
101330
101330
101330
101330
101330
101330
101329
101329
101329
101329
101329
101329
101329
101329
101329
101329
101329
101329
101329
101329
101329
101329
101329
101329
101329
101329
101329
101329
101329
101329
101329
101329
101329
101329
101329
101329
101329
101329
101329
101329
101329
101329
101329
101329
101329
101329
101329
101329
101329
101329
101329
101329
101329
101329
101329
101329
101329
101329
101329
101329
101329
101329
101329
101329
101329
101329
101329
101329
101329
101329
101329
101329
101329
101329
101329
101329
101329
101329
101329
101329
101329
101329
101329
101329
101329
101329
101329
101329
101329
101329
101329
101329
101329
101329
101329
101329
101329
101329
101328
101328
101328
101328
101328
101328
101328
101328
101329
101329
101329
101329
101329
101329
101329
101329
101329
101329
101329
101329
101329
101329
101329
101328
101328
101328
101328
101328
101328
101328
101328
101328
101328
101328
101329
101329
101329
101329
101329
101329
101329
101329
101329
101329
101329
101329
101328
101328
101328
101328
101328
101328
101328
101328
101328
101328
101328
101328
101328
101328
101329
101329
101329
101329
101329
101329
101329
101329
101329
101328
101328
101328
101328
101328
101328
101328
101328
101328
101328
101328
101328
101328
101328
101328
101329
101329
101329
101329
101329
101329
101329
101329
101328
101328
101328
101328
101328
101328
101328
101328
101328
101328
101328
101328
101328
101328
101328
101328
101328
101328
101329
101329
101329
101329
101329
101327
101327
101327
101327
101328
101328
101328
101328
101328
101328
101328
101328
101328
101328
101328
101328
101328
101328
101328
101329
101329
101329
101328
101327
101327
101327
101327
101327
101327
101327
101327
101327
101327
101328
101328
101328
101328
101328
101328
101328
101328
101328
101328
101328
101328
101328
101327
101327
101327
101327
101327
101327
101327
101327
101327
101327
101327
101327
101328
101328
101328
101328
101328
101328
101328
101328
101328
101328
101328
101327
101327
101327
101327
101327
101327
101327
101327
101327
101327
101327
101327
101327
101327
101328
101328
101328
101328
101328
101328
101328
101328
101328
101327
101327
101327
101327
101327
101327
101327
101327
101327
101327
101327
101327
101327
101327
101327
101327
101328
101328
101328
101328
101328
101328
101328
101326
101326
101326
101326
101326
101326
101326
101326
101327
101327
101327
101327
101327
101327
101327
101327
101327
101327
101327
101327
101327
101327
101327
101326
101326
101326
101326
101326
101326
101326
101326
101326
101326
101326
101327
101327
101327
101327
101327
101327
101327
101327
101327
101327
101327
101327
101326
101326
101326
101326
101326
101326
101326
101326
101326
101326
101326
101326
101326
101326
101326
101327
101327
101327
101327
101327
101327
101326
101326
101326
101326
101326
101326
101326
101326
101326
101326
101326
101326
101326
101326
101326
101326
101326
101326
101326
101326
101326
101326
101326
101326
101326
101325
101325
101325
101325
101325
101325
101325
101325
101325
101325
101325
101326
101326
101326
101326
101326
101326
101326
101326
101326
101326
101326
101326
101325
101325
101325
101325
101325
101325
101325
101325
101325
101325
101325
101325
101325
101325
101326
101326
101326
101325
101325
101325
101325
101325
101325
102428
102459
102493
102443
102440
102458
102511
102521
102398
102414
102439
102452
102369
102379
102405
102412
101707
101742
101787
101802
101334
101334
101334
101334
101334
101334
101335
101335
101334
101334
101334
101335
101334
101334
101334
101335
101333
101333
101333
101333
101332
101332
101332
101332
101332
101331
101331
101331
101331
101331
101330
101330
101331
101330
101330
101330
101330
101330
101330
101330
101330
101330
101330
101330
101330
101330
101330
101330
101330
101330
101330
101330
101330
101330
101330
101330
101330
101330
101330
101330
101330
101329
101329
101329
101329
101329
101329
101329
101329
101329
101329
101329
101329
101329
101329
101329
101329
101329
101329
101329
101329
101329
101329
101329
101329
101329
101329
101329
101329
101329
101329
101329
101329
101329
101329
101329
101329
101329
101329
101329
101329
101329
101328
101328
101328
101328
101328
101328
101328
101328
101328
101328
101328
101328
101328
101328
101328
101328
101328
101327
101327
101327
101327
101327
101327
101327
101327
101327
101327
101326
101326
101326
101326
101326
101326
101326
101326
101326
101326
101326
101326
101326
101325
101325
101325
101325
101325
101325
102156
101955
102006
102048
102382
102418
102481
102075
101788
101766
101765
101766
101769
101771
101773
101772
101773
101778
102194
102531
102415
102530
102536
102576
102526
102301
101821
101765
101765
101765
101765
101767
101770
101772
101771
101772
101792
102279
102508
102494
102550
102575
102641
102607
102023
101767
101765
101765
101765
101766
101768
101770
101771
101771
101772
101801
102385
102469
102476
102525
102581
102674
102651
101853
101766
101765
101765
101765
101766
101768
101770
101770
101770
101771
101805
102484
101977
102055
102172
102341
102663
102604
101807
101766
101765
101766
101766
101767
101768
101769
101770
101770
101771
101808
102593
101335
101351
101448
101745
102404
102612
101797
101766
101767
101766
101768
101767
101767
101769
101769
101769
101770
101827
102750
101336
101337
101339
101464
102113
102671
101783
101767
101767
101768
101768
101767
101768
101768
101769
101769
101770
101937
102950
101335
101336
101338
101354
101733
102553
101926
101766
101768
101768
101769
101768
101768
101768
101769
101769
101770
102253
103156
101336
101339
101339
101342
101453
102082
102563
101832
101768
101769
101769
101769
101769
101768
101769
101769
101770
102604
103342
101333
101347
101402
101424
101429
101910
102528
102541
101812
101769
101781
101827
101899
101830
101798
101804
102025
102941
103459
101331
101334
101575
101917
101872
101882
102501
102796
102670
102450
102478
102582
102646
102658
102524
102416
102752
103018
103469
101330
101331
101502
102048
102309
102384
102459
102896
102979
103013
102976
102398
102112
102107
102338
102276
102166
102157
103147
101329
101328
101328
101332
101679
102227
102644
102861
102926
102954
102974
102339
102252
102210
102360
102579
102595
102876
103602
101329
101328
101328
101329
101330
101329
101387
101868
102120
102203
102424
102982
103155
103270
103521
103670
103685
103607
103681
101329
101329
101329
101329
101329
101329
101329
101329
101329
101329
101329
101495
101891
102234
102767
103525
103719
103749
103746
101330
101329
101329
101330
101330
101329
101329
101328
101329
101329
101330
101330
101330
101330
101331
102222
103751
103803
103768
101330
101329
101329
101329
101329
101329
101329
101328
101328
101329
101329
101330
101330
101330
101331
101495
103286
103900
103896
101330
101329
101329
101329
101329
101329
101328
101328
101328
101329
101329
101330
101330
101330
101330
101346
102261
103960
103971
101329
101329
101329
101329
101329
101329
101328
101328
101328
101329
101329
101329
101330
101330
101330
101344
101583
102827
103596
101329
101329
101329
101329
101329
101329
101329
101328
101329
101329
101329
101330
101330
101330
101331
101331
101331
101402
101857
101329
101329
101329
101329
101329
101329
101329
101329
101329
101329
101329
101329
101330
101330
101330
101330
101331
101332
101509
101329
101329
101329
101329
101329
101329
101329
101329
101329
101329
101329
101329
101330
101329
101329
101330
101331
101349
101611
101329
101329
101329
101329
101329
101329
101329
101329
101329
101329
101329
101329
101329
101329
101329
101332
101339
101426
101660
101329
101329
101329
101329
101329
101329
101329
101329
101329
101329
101329
101328
101329
101328
101330
101410
101608
102015
101584
101329
101329
101329
101329
101329
101329
101328
101328
101328
101328
101328
101328
101328
101328
101330
101492
102154
102159
101599
101329
101329
101329
101329
101328
101328
101328
101328
101328
101328
101328
101328
101328
101327
101330
101475
101915
102183
101771
101329
101329
101329
101328
101328
101328
101328
101328
101328
101328
101328
101327
101327
101327
101330
101345
101325
101629
102335
101329
101329
101328
101328
101328
101328
101328
101328
101328
101328
101327
101327
101326
101326
101330
101325
101324
101325
102476
101329
101328
101328
101328
101328
101328
101328
101328
101327
101327
101327
101327
101326
101326
101328
101325
101325
101325
102879
101328
101328
101328
101328
101328
101327
101327
101327
101327
101327
101327
101326
101326
101326
101326
101325
101325
101325
103034
101328
101328
101328
101328
101327
101327
101327
101327
101327
101327
101326
101326
101326
101326
101326
101325
101324
101325
103085
101328
101328
101327
101327
101327
101327
101326
101326
101326
101326
101326
101326
101325
101325
101325
101325
101324
101325
103136
101328
101328
101327
101327
101326
101326
101326
101326
101326
101326
101326
101326
101325
101325
101325
101325
101324
101325
103187
101327
101327
101326
101326
101326
101325
101325
101325
101325
101325
101325
101325
101325
101325
101325
101325
101324
101325
102371
101327
101327
101326
101326
101326
101325
101324
101324
101325
101325
101325
101325
101325
101325
101325
101325
101324
101325
101870
101327
101326
101325
101325
101325
101324
101323
101323
101324
101324
101325
101325
101325
101325
101325
101325
101325
101325
101844
101326
101326
101325
101324
101324
101323
101323
101323
101324
101324
101325
101325
101325
101325
101325
101325
101325
101325
101960
101326
101325
101325
101324
101324
101322
101322
101323
101323
101324
101324
101325
101325
101325
101325
101325
101325
101325
101964
101326
101325
101325
101324
101323
101323
101323
101323
101324
101324
101324
101325
101325
101325
101325
101325
101325
101325
101892
101325
101325
101324
101324
101323
101323
101323
101323
101324
101324
101324
101325
101325
101325
101325
101326
101326
101325
101709
101325
101325
101325
101325
101324
101324
101324
101324
101325
101325
101325
101325
101325
101325
101325
101325
101324
101325
101382
101325
101325
101325
101324
101324
101324
101324
101324
101324
101324
101325
101325
101325
101325
101325
101325
101325
101325
101331
)
;

boundaryField
{
    leftWall
    {
        type            zeroGradient;
    }
    rightWall
    {
        type            zeroGradient;
    }
    lowerWall
    {
        type            zeroGradient;
    }
    atmosphere
    {
        type            fixedValue;
        value           uniform 101325;
    }
    defaultFaces
    {
        type            empty;
    }
}


// ************************************************************************* //
