/*--------------------------------*- C++ -*----------------------------------*\
| =========                 |                                                 |
| \\      /  F ield         | OpenFOAM: The Open Source CFD Toolbox           |
|  \\    /   O peration     | Version:  2012                                  |
|   \\  /    A nd           | Website:  www.openfoam.com                      |
|    \\/     M anipulation  |                                                 |
\*---------------------------------------------------------------------------*/
FoamFile
{
    version     2.0;
    format      ascii;
    class       volScalarField;
    location    "0.61";
    object      pcorr;
}
// * * * * * * * * * * * * * * * * * * * * * * * * * * * * * * * * * * * * * //

dimensions      [1 -1 -2 0 0 0 0];


internalField   nonuniform List<scalar> 
2268
(
101387
101387
101388
101390
101392
101395
101400
101406
101414
101426
101440
101460
101485
101517
101557
101605
101664
101732
101810
101893
101975
102044
102085
101387
101387
101388
101390
101392
101395
101399
101405
101414
101425
101439
101459
101483
101515
101554
101603
101661
101730
101809
101893
101978
102050
102094
101387
101387
101388
101389
101391
101394
101399
101404
101412
101423
101437
101456
101480
101512
101550
101599
101657
101726
101806
101894
101983
102063
102113
101386
101387
101388
101389
101391
101394
101398
101403
101410
101421
101434
101452
101476
101506
101544
101592
101650
101720
101801
101894
101991
102082
102142
101386
101386
101387
101388
101390
101393
101396
101401
101408
101417
101430
101447
101470
101499
101536
101583
101640
101711
101795
101892
102001
102108
102186
101386
101386
101387
101387
101389
101391
101394
101399
101405
101413
101425
101441
101462
101490
101526
101571
101628
101698
101785
101889
102011
102141
102247
101385
101385
101386
101387
101388
101390
101392
101396
101401
101409
101419
101434
101454
101480
101514
101557
101612
101682
101771
101881
102018
102179
102331
101385
101385
101385
101386
101387
101388
101390
101393
101397
101403
101412
101425
101443
101467
101499
101540
101594
101662
101752
101868
102021
102220
102449
106191
106197
106195
106210
106286
106422
106516
106555
106507
106426
106298
106187
106150
106139
106141
106152
106191
106281
106298
106207
106190
106188
106195
106249
106378
106497
106545
106490
106406
106266
106145
106111
106101
106104
106108
106133
106229
106272
106193
106189
106187
106188
106197
106298
106446
106516
106480
106399
106224
106117
106091
106079
106076
106077
106082
106155
106227
106190
106188
106187
106188
106190
106216
106370
106459
106468
106378
106156
106114
106089
106078
106076
106076
106079
106093
106176
106183
106186
106186
106187
106189
106192
106307
106371
106363
106287
106159
106113
106085
106077
106075
106075
106077
106087
106136
106172
106183
106185
106186
106189
106195
106260
106290
106253
106167
106115
106094
106080
106075
106073
106074
106075
106080
106108
106159
106177
106183
106186
106188
106194
106219
106220
106166
106091
106069
106072
106074
106072
106072
106073
106074
106077
106091
106129
106163
106181
106185
106186
106181
106182
106165
106097
106060
106059
106062
106068
106070
106070
106071
106073
106076
106084
101384
101384
101384
101384
101385
101385
101386
101388
101390
101394
101400
101410
101425
101445
101473
101510
101559
101624
101712
101834
102009
102272
102714
101384
101384
101384
101384
101385
101385
101386
101386
101387
101388
101389
101392
101398
101409
101429
101457
101495
101549
101625
101735
101902
102164
102584
101384
101384
101384
101384
101385
101385
101386
101386
101387
101388
101389
101390
101391
101393
101398
101408
101423
101453
101503
101579
101701
101895
102193
101384
101384
101384
101384
101385
101385
101386
101386
101387
101388
101389
101390
101391
101393
101395
101398
101400
101402
101408
101418
101453
101534
101665
101383
101384
101384
101384
101384
101385
101385
101386
101387
101388
101389
101390
101392
101393
101395
101398
101400
101402
101405
101410
101415
101421
101427
101383
101383
101383
101384
101384
101385
101385
101386
101387
101388
101389
101390
101392
101393
101395
101397
101400
101402
101406
101410
101415
101420
101426
101383
101383
101383
101383
101384
101384
101385
101386
101386
101387
101389
101390
101391
101393
101395
101397
101400
101402
101406
101409
101414
101419
101424
101382
101382
101383
101383
101383
101384
101384
101385
101386
101387
101388
101389
101391
101393
101394
101397
101399
101402
101405
101408
101412
101417
101422
101382
101382
101382
101382
101383
101383
101384
101385
101385
101386
101387
101389
101390
101392
101394
101396
101398
101401
101404
101407
101411
101415
101419
101381
101381
101381
101382
101382
101382
101383
101384
101385
101386
101387
101388
101389
101391
101393
101395
101397
101399
101402
101405
101408
101412
101416
101380
101380
101380
101381
101381
101382
101382
101383
101384
101385
101386
101387
101388
101390
101391
101393
101395
101398
101400
101403
101405
101408
101412
101379
101379
101380
101380
101380
101381
101381
101382
101383
101384
101385
101386
101387
101389
101390
101392
101394
101396
101398
101400
101403
101405
101408
101378
101378
101379
101379
101379
101380
101380
101381
101382
101383
101383
101385
101386
101387
101389
101390
101392
101394
101396
101398
101400
101402
101404
101377
101377
101378
101378
101378
101379
101379
101380
101380
101381
101382
101383
101384
101386
101387
101388
101390
101392
101393
101395
101397
101398
101400
101376
101376
101376
101377
101377
101377
101378
101378
101379
101380
101381
101382
101383
101384
101385
101386
101388
101389
101391
101392
101394
101395
101397
101375
101375
101375
101375
101376
101376
101377
101377
101378
101378
101379
101380
101381
101382
101383
101384
101386
101387
101388
101390
101391
101392
101393
101374
101374
101374
101374
101374
101375
101375
101376
101376
101377
101378
101378
101379
101380
101381
101382
101384
101385
101386
101387
101388
101389
101390
101372
101372
101372
101373
101373
101373
101374
101374
101375
101375
101376
101377
101378
101378
101379
101380
101381
101382
101384
101385
101386
101387
101387
101371
101371
101371
101371
101371
101372
101372
101373
101373
101374
101374
101375
101376
101377
101377
101378
101379
101380
101381
101382
101383
101384
101385
101369
101369
101369
101370
101370
101370
101370
101371
101371
101372
101372
101373
101374
101375
101375
101376
101377
101378
101379
101380
101380
101381
101382
101368
101368
101368
101368
101368
101368
101369
101369
101370
101370
101371
101371
101372
101373
101373
101374
101375
101375
101376
101377
101378
101378
101379
101366
101366
101366
101366
101366
101367
101367
101367
101368
101368
101369
101369
101370
101370
101371
101372
101372
101373
101374
101375
101375
101376
101377
101364
101364
101364
101365
101365
101365
101365
101366
101366
101366
101367
101367
101368
101368
101369
101370
101370
101371
101371
101372
101373
101373
101374
101362
101363
101363
101363
101363
101363
101363
101364
101364
101364
101365
101365
101366
101366
101367
101367
101368
101369
101369
101370
101370
101371
101371
101361
101361
101361
101361
101361
101361
101362
101362
101362
101362
101363
101363
101364
101364
101365
101365
101366
101366
101367
101367
101368
101368
101369
101359
101359
101359
101359
101359
101359
101360
101360
101360
101360
101361
101361
101362
101362
101362
101363
101363
101364
101364
101365
101365
101366
101366
101357
101357
101357
101357
101357
101357
101358
101358
101358
101358
101359
101359
101359
101360
101360
101361
101361
101361
101362
101362
101363
101363
101364
101355
101355
101355
101355
101355
101356
101356
101356
101356
101356
101357
101357
101357
101358
101358
101358
101359
101359
101360
101360
101360
101361
101361
101353
101353
101353
101353
101353
101354
101354
101354
101354
101354
101355
101355
101355
101355
101356
101356
101356
101357
101357
101357
101358
101358
101358
101351
101351
101351
101351
101351
101352
101352
101352
101352
101352
101352
101353
101353
101353
101354
101354
101354
101354
101355
101355
101355
101356
101356
101349
101349
101349
101349
101349
101349
101350
101350
101350
101350
101350
101351
101351
101351
101351
101352
101352
101352
101352
101353
101353
101353
101353
101347
101347
101347
101347
101347
101347
101348
101348
101348
101348
101348
101348
101349
101349
101349
101349
101350
101350
101350
101350
101350
101351
101351
101345
101345
101345
101345
101345
101345
101345
101346
101346
101346
101346
101346
101346
101347
101347
101347
101347
101347
101348
101348
101348
101348
101348
101343
101343
101343
101343
101343
101343
101343
101343
101344
101344
101344
101344
101344
101344
101344
101345
101345
101345
101345
101345
101346
101346
101346
101341
101341
101341
101341
101341
101341
101341
101341
101341
101342
101342
101342
101342
101342
101342
101342
101343
101343
101343
101343
101343
101343
101343
101339
101339
101339
101339
101339
101339
101339
101339
101339
101339
101339
101340
101340
101340
101340
101340
101340
101340
101340
101341
101341
101341
101341
101337
101337
101337
101337
101337
101337
101337
101337
101337
101337
101337
101337
101337
101338
101338
101338
101338
101338
101338
101338
101338
101338
101339
101335
101335
101335
101335
101335
101335
101335
101335
101335
101335
101335
101335
101335
101335
101335
101335
101336
101336
101336
101336
101336
101336
101336
101332
101332
101332
101333
101333
101333
101333
101333
101333
101333
101333
101333
101333
101333
101333
101333
101333
101333
101333
101333
101333
101334
101334
101330
101330
101330
101330
101330
101330
101330
101330
101331
101331
101331
101331
101331
101331
101331
101331
101331
101331
101331
101331
101331
101331
101331
101328
101328
101328
101328
101328
101328
101328
101328
101328
101328
101328
101328
101328
101328
101328
101328
101329
101329
101329
101329
101329
101329
101329
101326
101326
101326
101326
101326
101326
101326
101326
101326
101326
101326
101326
101326
101326
101326
101326
101326
101326
101326
101326
101326
101326
101326
103396
103903
104508
105185
103083
103460
103895
104384
102517
102756
103024
103315
101816
101924
102047
102183
101433
101436
101440
101444
101431
101434
101437
101441
101429
101432
101436
101440
101427
101430
101433
101437
101423
101426
101429
101432
101419
101421
101423
101425
101414
101416
101417
101418
101409
101410
101411
101412
101405
101406
101406
101407
101401
101402
101402
101402
101397
101398
101398
101399
101394
101395
101395
101395
101391
101391
101392
101392
101388
101388
101389
101389
101385
101386
101386
101386
101382
101383
101383
101383
101380
101380
101380
101381
101377
101377
101378
101378
101374
101375
101375
101375
101372
101372
101372
101372
101369
101369
101369
101370
101366
101367
101367
101367
101364
101364
101364
101364
101361
101361
101362
101362
101359
101359
101359
101359
101356
101356
101356
101357
101354
101354
101354
101354
101351
101351
101351
101351
101349
101349
101349
101349
101346
101346
101346
101346
101344
101344
101344
101344
101341
101341
101341
101341
101339
101339
101339
101339
101336
101336
101336
101336
101334
101334
101334
101334
101331
101331
101331
101331
101329
101329
101329
101329
101326
101326
101326
101326
105952
106110
106172
106185
106159
106152
106130
106092
106055
106054
106055
106058
106062
106066
106068
106069
106071
106074
106081
105224
105907
106031
106130
105974
106122
106094
106052
106050
106051
106053
106055
106058
106062
106064
106066
106068
106072
106089
103826
104351
104670
105046
105517
106241
106053
106044
106045
106047
106049
106052
106055
106058
106061
106063
106065
106069
106090
102450
102794
103219
103886
104854
105919
106039
106038
106040
106043
106046
106049
106052
106055
106058
106060
106062
106066
106086
101452
101509
101838
102655
104106
105882
106030
106032
106035
106038
106042
106046
106049
106052
106055
106058
106060
106064
106083
101446
101459
101493
101854
103194
105836
106018
106025
106029
106034
106038
106042
106046
106050
106053
106055
106058
106061
106082
101447
101459
101477
101515
102318
105758
106002
106017
106024
106029
106034
106039
106043
106047
106051
106053
106056
106059
106083
101444
101458
101476
101503
101671
104345
105986
106011
106019
106025
106031
106036
106041
106046
106049
106052
106054
106056
106072
101438
101454
101478
101509
101572
102660
105525
106005
106016
106021
106028
106034
106040
106044
106048
106051
106053
106055
106034
101429
101438
101473
101522
101727
102272
104146
105840
106009
106017
106022
106031
106037
106042
106047
106051
106054
106020
105948
101420
101423
101432
101523
101775
102313
103313
104691
105808
106011
105994
105899
105802
105912
106004
106012
105917
105814
105775
101413
101412
101408
101408
101587
101983
102570
103380
104190
104628
104798
104862
105012
105186
105393
105576
105621
105604
105537
101407
101406
101404
101403
101404
101407
101526
102053
102497
102794
103130
103691
104156
104470
104732
105025
105201
105215
105049
101403
101402
101402
101401
101401
101403
101406
101408
101411
101414
101420
101890
102576
103064
103408
103879
104246
104352
104286
101399
101399
101399
101399
101399
101400
101402
101403
101405
101407
101410
101413
101416
101417
101426
102210
102955
103332
103449
101396
101396
101396
101397
101397
101398
101399
101400
101402
101404
101405
101407
101408
101410
101413
101423
101985
102501
102706
101393
101393
101393
101394
101395
101395
101396
101398
101399
101400
101402
101403
101404
101406
101407
101409
101508
101920
102123
101390
101390
101391
101391
101392
101393
101394
101395
101396
101397
101398
101399
101400
101401
101402
101402
101408
101558
101698
101387
101387
101388
101388
101389
101390
101391
101392
101393
101394
101395
101395
101396
101397
101397
101396
101393
101388
101420
101384
101384
101385
101386
101386
101387
101388
101388
101389
101390
101391
101392
101393
101393
101393
101393
101392
101392
101387
101381
101382
101382
101383
101383
101384
101385
101385
101386
101387
101388
101388
101389
101390
101390
101391
101391
101391
101392
101378
101379
101379
101380
101380
101381
101382
101382
101383
101383
101384
101385
101386
101386
101388
101389
101391
101392
101392
101375
101376
101377
101377
101378
101378
101379
101379
101380
101380
101381
101381
101382
101383
101384
101387
101391
101395
101395
101373
101373
101374
101374
101375
101375
101376
101376
101376
101377
101377
101378
101378
101379
101380
101384
101395
101398
101403
101370
101370
101371
101371
101372
101372
101372
101373
101373
101373
101374
101374
101374
101374
101375
101375
101372
101385
101407
101367
101368
101368
101369
101369
101369
101369
101370
101370
101370
101370
101370
101370
101370
101369
101365
101353
101350
101412
101365
101365
101365
101366
101366
101366
101366
101367
101367
101367
101367
101366
101366
101365
101364
101358
101354
101353
101380
101362
101362
101363
101363
101363
101363
101363
101364
101364
101364
101363
101363
101362
101361
101359
101356
101354
101353
101354
101359
101360
101360
101360
101360
101361
101361
101361
101361
101360
101360
101360
101359
101358
101356
101354
101353
101352
101352
101357
101357
101357
101357
101358
101358
101358
101358
101358
101357
101357
101357
101356
101355
101354
101352
101351
101351
101350
101354
101354
101355
101355
101355
101355
101355
101355
101355
101355
101354
101354
101353
101352
101351
101350
101349
101349
101348
101352
101352
101352
101352
101352
101352
101352
101352
101352
101352
101351
101351
101350
101350
101349
101348
101347
101347
101346
101349
101349
101349
101349
101350
101350
101350
101349
101349
101349
101349
101348
101348
101347
101346
101346
101345
101345
101343
101346
101347
101347
101347
101347
101347
101347
101347
101347
101346
101346
101346
101345
101345
101344
101344
101343
101342
101340
101344
101344
101344
101344
101344
101344
101344
101344
101344
101344
101343
101343
101343
101342
101342
101341
101341
101341
101340
101341
101341
101342
101342
101342
101342
101342
101341
101341
101341
101341
101341
101340
101340
101340
101339
101339
101339
101338
101339
101339
101339
101339
101339
101339
101339
101339
101339
101339
101338
101338
101338
101338
101337
101337
101337
101336
101336
101336
101336
101336
101336
101336
101336
101336
101336
101336
101336
101336
101336
101336
101335
101335
101335
101335
101334
101334
101334
101334
101334
101334
101334
101334
101334
101334
101334
101334
101333
101333
101333
101333
101333
101333
101332
101332
101332
101331
101331
101331
101331
101331
101331
101331
101331
101331
101331
101331
101331
101331
101331
101331
101330
101330
101330
101329
101329
101329
101329
101329
101329
101329
101329
101329
101329
101329
101329
101329
101329
101328
101328
101328
101328
101328
101327
101326
101326
101326
101326
101326
101326
101326
101326
101326
101326
101326
101326
101326
101326
101326
101326
101326
101326
101326
)
;

boundaryField
{
    leftWall
    {
        type            zeroGradient;
    }
    rightWall
    {
        type            zeroGradient;
    }
    lowerWall
    {
        type            zeroGradient;
    }
    atmosphere
    {
        type            fixedValue;
        value           uniform 101325;
    }
    defaultFaces
    {
        type            empty;
    }
}


// ************************************************************************* //
