/*--------------------------------*- C++ -*----------------------------------*\
| =========                 |                                                 |
| \\      /  F ield         | OpenFOAM: The Open Source CFD Toolbox           |
|  \\    /   O peration     | Version:  2012                                  |
|   \\  /    A nd           | Website:  www.openfoam.com                      |
|    \\/     M anipulation  |                                                 |
\*---------------------------------------------------------------------------*/
FoamFile
{
    version     2.0;
    format      ascii;
    class       surfaceScalarField;
    location    "0.61";
    object      phi;
}
// * * * * * * * * * * * * * * * * * * * * * * * * * * * * * * * * * * * * * //

dimensions      [0 3 -1 0 0 0 0];
oriented        oriented;


internalField   nonuniform List<scalar> 
4432
(
1.0275e-06
-1.0275e-06
2.18362e-06
-1.15611e-06
3.16644e-06
-9.8282e-07
3.90446e-06
-7.3802e-07
4.48961e-06
-5.85156e-07
5.20744e-06
-7.17831e-07
5.7571e-06
-5.49654e-07
5.9034e-06
-1.46302e-07
5.9528e-06
-4.93961e-08
5.82068e-06
1.3212e-07
5.45885e-06
3.61828e-07
4.96979e-06
4.89062e-07
4.48294e-06
4.86853e-07
4.05608e-06
4.26857e-07
3.60391e-06
4.52169e-07
3.10751e-06
4.96408e-07
2.61743e-06
4.90078e-07
2.21757e-06
3.9987e-07
1.88347e-06
3.34098e-07
1.62361e-06
2.59865e-07
1.37019e-06
2.53422e-07
1.27332e-06
9.68757e-08
1.27334e-06
1.01466e-06
-2.04216e-06
2.17434e-06
-2.3158e-06
3.17986e-06
-1.98833e-06
3.95082e-06
-1.50898e-06
4.55439e-06
-1.18873e-06
5.25994e-06
-1.42338e-06
5.78803e-06
-1.07774e-06
5.93131e-06
-2.89586e-07
6.02383e-06
-1.4191e-07
5.88122e-06
2.74731e-07
5.47863e-06
7.64421e-07
5.02023e-06
9.47457e-07
4.5212e-06
9.85883e-07
4.04258e-06
9.05477e-07
3.56015e-06
9.34603e-07
3.0633e-06
9.93264e-07
2.59842e-06
9.54953e-07
2.19727e-06
8.01028e-07
1.78689e-06
7.44475e-07
1.34622e-06
7.00544e-07
7.41083e-07
8.58562e-07
4.1831e-08
7.96133e-07
1.31521e-06
1.00425e-06
-3.0464e-06
2.18562e-06
-3.49717e-06
3.21936e-06
-3.02208e-06
4.03812e-06
-2.32773e-06
4.67523e-06
-1.82584e-06
5.35353e-06
-2.10169e-06
5.82112e-06
-1.54532e-06
5.96241e-06
-4.30883e-07
6.0344e-06
-2.13891e-07
5.86324e-06
4.45892e-07
5.48442e-06
1.14324e-06
5.06963e-06
1.36225e-06
4.59614e-06
1.45938e-06
4.09838e-06
1.40323e-06
3.58706e-06
1.44593e-06
3.09012e-06
1.49021e-06
2.67806e-06
1.36701e-06
2.3677e-06
1.1114e-06
2.05713e-06
1.05504e-06
1.70863e-06
1.04904e-06
1.23618e-06
1.33102e-06
5.63622e-07
1.46869e-06
1.87886e-06
1.01895e-06
-4.06535e-06
2.2188e-06
-4.69702e-06
3.26598e-06
-4.06926e-06
4.13934e-06
-3.20109e-06
4.83296e-06
-2.51946e-06
5.4971e-06
-2.76582e-06
5.92575e-06
-1.97398e-06
6.11953e-06
-6.24665e-07
6.20988e-06
-3.04238e-07
6.03006e-06
6.25706e-07
5.64327e-06
1.53003e-06
5.15929e-06
1.84622e-06
4.58165e-06
2.03703e-06
3.98085e-06
2.00403e-06
3.43561e-06
1.99117e-06
2.9599e-06
1.96592e-06
2.58004e-06
1.74687e-06
2.24095e-06
1.45049e-06
1.90454e-06
1.39145e-06
1.55e-06
1.40359e-06
1.12479e-06
1.75624e-06
3.64964e-07
2.22852e-06
2.24386e-06
1.07019e-06
-5.13554e-06
2.25333e-06
-5.88016e-06
3.32141e-06
-5.13734e-06
4.25561e-06
-4.13529e-06
5.02776e-06
-3.2916e-06
5.66904e-06
-3.40711e-06
6.02772e-06
-2.33265e-06
6.23232e-06
-8.29264e-07
6.26936e-06
-3.41281e-07
6.02064e-06
8.74427e-07
5.65408e-06
1.89659e-06
5.20571e-06
2.2946e-06
4.66635e-06
2.57638e-06
4.10454e-06
2.56585e-06
3.54571e-06
2.55e-06
3.01686e-06
2.49477e-06
2.6477e-06
2.11603e-06
2.37874e-06
1.71946e-06
2.10684e-06
1.66335e-06
1.78109e-06
1.72935e-06
1.38091e-06
2.15642e-06
8.19519e-07
2.78992e-06
3.06339e-06
1.18055e-06
-6.31608e-06
2.29407e-06
-6.99368e-06
3.37471e-06
-6.21797e-06
4.37115e-06
-5.13174e-06
5.24044e-06
-4.16089e-06
5.89121e-06
-4.05787e-06
6.25538e-06
-2.69682e-06
6.56431e-06
-1.13819e-06
6.63197e-06
-4.08944e-07
6.33008e-06
1.17632e-06
5.89716e-06
2.3295e-06
5.33281e-06
2.85896e-06
4.61158e-06
3.2976e-06
3.90558e-06
3.27186e-06
3.31347e-06
3.14211e-06
2.79497e-06
3.01327e-06
2.46794e-06
2.44307e-06
2.21309e-06
1.9743e-06
1.99057e-06
1.88588e-06
1.67753e-06
2.0424e-06
1.3373e-06
2.49666e-06
8.11596e-07
3.31562e-06
3.875e-06
1.29365e-06
-7.60973e-06
2.36728e-06
-8.06732e-06
3.45346e-06
-7.30416e-06
4.53449e-06
-6.21277e-06
5.51201e-06
-5.13841e-06
6.14638e-06
-4.69224e-06
6.48404e-06
-3.03448e-06
6.77647e-06
-1.43062e-06
6.70516e-06
-3.37633e-07
6.30929e-06
1.57219e-06
5.89501e-06
2.74378e-06
5.39497e-06
3.359e-06
4.76486e-06
3.92771e-06
4.12829e-06
3.90844e-06
3.49993e-06
3.77047e-06
2.8406e-06
3.6726e-06
2.45827e-06
2.8254e-06
2.2749e-06
2.15767e-06
2.15988e-06
2.00091e-06
1.87827e-06
2.32401e-06
1.54233e-06
2.83261e-06
1.29066e-06
3.56729e-06
5.16566e-06
1.40207e-06
-9.01174e-06
2.49951e-06
-9.1647e-06
3.61657e-06
-8.42116e-06
4.78831e-06
-7.38447e-06
5.86182e-06
-6.21189e-06
6.52669e-06
-5.35709e-06
6.97711e-06
-3.48488e-06
7.33567e-06
-1.78917e-06
7.22939e-06
-2.31355e-07
6.8538e-06
1.94778e-06
6.33004e-06
3.26754e-06
5.57783e-06
4.11122e-06
4.68972e-06
4.81582e-06
3.87914e-06
4.71902e-06
3.21991e-06
4.42969e-06
2.56525e-06
4.32727e-06
2.23471e-06
3.15594e-06
2.12096e-06
2.27142e-06
2.1123e-06
2.00958e-06
1.86707e-06
2.56923e-06
1.63673e-06
3.06296e-06
1.51418e-06
3.68985e-06
6.67985e-06
-0.000132134
0.000131985
-0.000161421
2.94874e-05
-0.000165938
4.69815e-06
-0.000154521
-1.12325e-05
-0.000141438
-1.28676e-05
-0.000128748
-1.23646e-05
-0.000120264
-8.28866e-06
-0.000124
3.92029e-06
-0.000131968
8.13679e-06
-0.000138351
6.57139e-06
-0.000145744
7.58354e-06
-0.000151614
6.08039e-06
-0.000154304
2.9467e-06
-0.000155489
1.44605e-06
-0.000155921
6.82095e-07
-0.000152532
-3.13242e-06
-0.000133329
-1.88855e-05
-8.95283e-05
-4.34047e-05
-8.9344e-05
-9.27108e-05
0.000225068
-0.00011726
5.45786e-05
-0.000119382
7.24741e-06
-9.65757e-05
-3.35885e-05
-8.23747e-05
-2.6765e-05
-7.01973e-05
-2.43179e-05
-6.85532e-05
-9.65337e-06
-8.57975e-05
2.1554e-05
-0.000105483
2.81387e-05
-0.000117082
1.84181e-05
-0.000125301
1.60731e-05
-0.000129915
1.10277e-05
-0.000132383
5.85637e-06
-0.000133739
3.2465e-06
-0.000133327
6.56394e-07
-0.000127468
-8.65588e-06
-0.000103993
-4.20183e-05
-6.80454e-05
-7.90342e-05
-0.000157228
-3.96514e-05
0.000265179
-9.67625e-05
0.000112155
-0.000104868
1.57812e-05
-6.82445e-05
-6.96907e-05
-3.86358e-05
-5.60131e-05
2.56809e-06
-6.54169e-05
3.21443e-05
-3.91287e-05
3.42149e-05
1.99901e-05
2.01579e-05
4.30737e-05
-1.76038e-05
5.71085e-05
-6.68636e-05
6.59926e-05
-0.000112139
5.70625e-05
-0.00014268
3.7389e-05
-0.000145899
7.41335e-06
-0.000139278
-5.02014e-06
-0.000129363
-1.7644e-05
-0.000102573
-6.78464e-05
-5.47193e-05
-0.000126332
-0.00021181
3.91513e-06
0.000261371
-0.000101193
0.000217782
-0.000124404
3.93424e-05
-6.53204e-05
-0.000128432
-3.15196e-05
-8.9295e-05
1.17242e-05
-0.000108528
3.90055e-05
-6.63905e-05
7.63182e-05
-1.72448e-05
0.000116609
3.04604e-06
0.000131526
4.28633e-05
0.00012059
7.81923e-05
7.61361e-05
0.000102464
1.9278e-06
0.000112524
-0.000103797
0.000113932
-0.000212074
0.000103985
-0.000200859
-2.81218e-05
-0.000124557
-0.000143132
-4.68528e-05
-0.000203128
-0.000258522
5.05618e-06
0.000256679
1.52904e-05
0.00020809
2.08184e-05
3.42049e-05
-1.8116e-05
-8.91399e-05
3.21713e-06
-0.00011028
3.17052e-05
-0.000136632
5.07611e-05
-8.54316e-05
7.82943e-05
-4.47689e-05
0.00010287
-2.15198e-05
0.000123322
2.24266e-05
0.00014034
6.15156e-05
0.000157877
8.58074e-05
0.000151614
0.000119884
7.05806e-06
0.00025924
-0.000137335
0.000249119
-0.000140669
-2.40135e-05
-9.49711e-05
-0.000187834
-3.31115e-05
-0.000264063
-0.000291536
4.09581e-05
0.000216256
8.01433e-05
0.000169516
8.36e-05
3.11124e-05
5.47435e-05
-5.99176e-05
4.43003e-05
-9.93038e-05
4.4962e-05
-0.000137186
5.88179e-05
-9.92793e-05
8.38643e-05
-6.98058e-05
0.000101775
-3.93855e-05
0.000114217
1.00798e-05
0.000126942
4.89907e-05
0.000134994
7.85926e-05
0.000135824
0.000120127
5.09582e-05
0.000344863
-2.23789e-05
0.000323218
-4.47568e-05
-8.83588e-07
-5.87707e-05
-0.00017298
-2.27592e-05
-0.000299095
-0.0003142
5.25824e-05
0.000164335
5.31701e-05
0.000169537
6.53025e-05
1.9333e-05
6.55307e-05
-5.98072e-05
5.62794e-05
-8.962e-05
5.14176e-05
-0.000132267
6.24176e-05
-0.000110277
8.16518e-05
-8.90283e-05
9.85478e-05
-5.58996e-05
0.000113236
-3.83347e-06
0.000124102
3.89424e-05
0.000126424
7.72676e-05
0.000107822
0.000139784
5.79247e-05
0.000395525
5.01942e-05
0.000331708
2.55253e-05
2.4542e-05
-2.55699e-05
-0.00012112
-1.42958e-05
-0.000309339
-0.000328355
2.24034e-05
0.000142071
6.4512e-05
0.000127982
7.66602e-05
7.60233e-06
6.30257e-05
-4.5795e-05
5.66946e-05
-8.30277e-05
5.31477e-05
-0.000128706
6.23507e-05
-0.000119479
7.79697e-05
-0.000104493
9.51414e-05
-7.22294e-05
0.000111986
-1.9609e-05
0.000122198
2.97826e-05
0.000118025
8.25223e-05
6.98956e-05
0.000188915
3.56422e-05
0.000430559
6.17761e-05
0.000306333
5.04282e-05
3.66476e-05
7.72846e-06
-7.76661e-05
-5.03115e-06
-0.000295537
-0.000333175
3.22152e-06
-1.2245e-05
5.68905e-06
-1.16433e-05
8.28677e-06
-1.10287e-05
1.10645e-05
-1.01706e-05
1.3554e-05
-8.70736e-06
1.51402e-05
-6.94665e-06
1.64205e-05
-4.76613e-06
1.71122e-05
-2.47993e-06
1.64843e-05
3.97695e-07
1.54143e-05
3.01853e-06
1.39931e-05
4.68896e-06
1.24135e-05
5.6909e-06
1.09188e-05
6.31049e-06
9.49065e-06
6.14715e-06
7.91502e-06
6.00533e-06
5.85564e-06
6.38665e-06
4.73429e-06
4.27729e-06
5.20248e-06
1.80324e-06
6.23434e-06
9.77721e-07
7.37303e-06
1.43055e-06
8.76471e-06
1.67128e-06
8.37648e-06
4.07809e-06
9.58176e-06
5.47459e-06
-4.39001e-06
-7.84362e-06
-6.33121e-06
-9.6908e-06
-5.06357e-06
-1.22844e-05
-1.80463e-06
-1.34123e-05
1.99388e-06
-1.24903e-05
5.69767e-06
-1.06369e-05
9.70158e-06
-8.75945e-06
1.26325e-05
-5.40169e-06
1.43663e-05
-1.32404e-06
1.54781e-05
1.92006e-06
1.52383e-05
4.93977e-06
1.44414e-05
6.49322e-06
1.34474e-05
7.30584e-06
1.11931e-05
8.40196e-06
7.6735e-06
9.52489e-06
4.01455e-06
1.00456e-05
2.69636e-06
5.59548e-06
3.29238e-06
1.20722e-06
4.31391e-06
-4.38e-08
5.73682e-06
7.64028e-09
8.43694e-06
-1.02883e-06
9.13386e-06
3.38118e-06
7.97432e-06
1.07413e-05
-1.36467e-06
-6.46646e-06
-2.84867e-06
-8.19428e-06
-4.75848e-06
-1.03621e-05
-7.16638e-06
-1.09919e-05
-1.06648e-05
-8.97917e-06
-1.49298e-05
-6.35933e-06
-2.25349e-05
-1.14159e-06
-3.18095e-05
3.88578e-06
-4.28388e-05
9.73267e-06
-4.4938e-05
4.04193e-06
-3.15933e-05
-8.37196e-06
-1.76474e-05
-7.40753e-06
-8.52315e-06
-1.76548e-06
-3.79039e-06
3.72064e-06
-1.04872e-06
6.82098e-06
2.29942e-06
6.71422e-06
7.33127e-06
5.67049e-07
9.20039e-06
-6.6151e-07
8.85258e-06
3.04026e-07
9.94766e-06
-1.08742e-06
1.2213e-05
-3.29417e-06
1.58088e-05
-2.14627e-07
2.28515e-06
2.14982e-05
9.89014e-07
-7.44309e-06
1.71823e-07
-7.3647e-06
-2.59512e-06
-7.58291e-06
-6.10893e-06
-7.46551e-06
-9.66311e-06
-5.41244e-06
-1.31309e-05
-2.8789e-06
-1.6933e-05
2.67335e-06
-2.06528e-05
7.61832e-06
-2.57268e-05
1.48198e-05
-3.08521e-05
9.18073e-06
-3.30911e-05
-6.11992e-06
-4.42433e-05
3.75773e-06
-5.4627e-05
8.6342e-06
-4.36594e-05
-7.21672e-06
-3.066e-05
-6.13392e-06
-2.90529e-05
5.16614e-06
-2.54153e-05
-3.02582e-06
-1.2351e-05
-1.37153e-05
-1.19622e-07
-1.1936e-05
1.12538e-05
-1.24802e-05
2.01729e-05
-1.22253e-05
2.38494e-05
-3.89046e-06
-8.45817e-07
2.6982e-05
-2.85594e-06
-4.57475e-06
-5.34194e-06
-4.86627e-06
-8.137e-06
-4.77541e-06
-1.09437e-05
-4.64625e-06
-1.31999e-05
-3.14368e-06
-1.46998e-05
-1.36631e-06
-1.3714e-05
1.70029e-06
-1.05601e-05
4.47736e-06
-4.09105e-06
8.36371e-06
-2.52208e-06
7.62493e-06
-1.0727e-05
2.09824e-06
-2.449e-05
1.75341e-05
-3.93052e-05
2.3464e-05
-4.71618e-05
6.53781e-07
-5.10311e-05
-2.24209e-06
-6.94339e-05
2.35897e-05
-7.90509e-05
6.60632e-06
-5.86733e-05
-3.40731e-05
-4.40696e-05
-2.65175e-05
-3.45643e-05
-2.19562e-05
-1.68446e-05
-2.99265e-05
-4.51626e-07
-2.02849e-05
-1.76876e-05
1.63696e-05
-1.45156e-06
-3.11089e-06
-3.39553e-06
-2.90998e-06
-5.89909e-06
-2.25952e-06
-8.87355e-06
-1.65935e-06
-1.20686e-05
6.39078e-08
-1.54335e-05
2.01118e-06
-1.87712e-05
5.0507e-06
-2.16281e-05
7.34713e-06
-2.24276e-05
9.17625e-06
-2.34495e-05
8.65999e-06
-2.41281e-05
2.79022e-06
-1.70576e-05
1.04772e-05
-9.90054e-06
1.63208e-05
-1.60291e-05
6.79657e-06
-2.56758e-05
7.41902e-06
-3.28835e-05
3.08124e-05
-4.06721e-05
1.44105e-05
-5.73484e-05
-1.73814e-05
-8.43555e-05
5.05967e-07
-0.000114854
8.56017e-06
-0.000141051
-3.71016e-06
-0.000153636
-7.68148e-06
-7.6587e-06
-0.000163643
-2.09177e-06
-1.00686e-06
-4.13212e-06
-8.57345e-07
-6.03543e-06
-3.43894e-07
-7.83607e-06
1.53678e-07
-9.19816e-06
1.43846e-06
-1.00039e-05
2.82949e-06
-9.80939e-06
4.86884e-06
-9.13611e-06
6.68664e-06
-8.22893e-06
8.282e-06
-9.79669e-06
1.02409e-05
-1.62294e-05
9.23625e-06
-1.95266e-05
1.37879e-05
-1.83353e-05
1.51434e-05
-2.01943e-05
8.6697e-06
-2.20823e-05
9.32155e-06
-1.29302e-05
2.16752e-05
-1.09436e-05
1.24391e-05
-2.97073e-05
1.39814e-06
-4.5108e-05
1.5923e-05
-6.21838e-05
2.56533e-05
-9.20361e-05
2.61601e-05
-0.000127518
2.78192e-05
3.53357e-05
-0.000170492
-1.54298e-06
5.48254e-07
-3.2138e-06
8.25635e-07
-4.96377e-06
1.41827e-06
-6.87262e-06
2.0748e-06
-8.84756e-06
3.42575e-06
-1.07652e-05
4.75957e-06
-1.25112e-05
6.62734e-06
-1.41249e-05
8.31311e-06
-1.5257e-05
9.42692e-06
-1.61593e-05
1.11561e-05
-1.7683e-05
1.07732e-05
-1.75471e-05
1.36655e-05
-1.79703e-05
1.55803e-05
-2.45961e-05
1.53096e-05
-3.09755e-05
1.57154e-05
-3.16117e-05
2.23263e-05
-3.79189e-05
1.87616e-05
-4.91236e-05
1.26187e-05
-5.35183e-05
2.03342e-05
-5.55056e-05
2.76579e-05
-6.08922e-05
3.15647e-05
-7.46157e-05
4.15615e-05
5.55532e-05
-9.48136e-05
-1.32346e-06
1.88375e-06
-2.55901e-06
2.07325e-06
-3.74498e-06
2.61635e-06
-4.83511e-06
3.17708e-06
-5.75033e-06
4.3532e-06
-6.43074e-06
5.45229e-06
-6.794e-06
7.00301e-06
-7.16039e-06
8.69206e-06
-7.81168e-06
1.00909e-05
-9.06382e-06
1.24212e-05
-1.20084e-05
1.3731e-05
-1.45358e-05
1.62062e-05
-1.68046e-05
1.78629e-05
-1.98865e-05
1.84055e-05
-2.38096e-05
1.96527e-05
-2.57518e-05
2.42832e-05
-3.2296e-05
2.53209e-05
-4.66055e-05
2.69439e-05
-6.03258e-05
3.40706e-05
-7.39102e-05
4.12592e-05
-8.88332e-05
4.65052e-05
-0.00010366
5.64066e-05
7.31519e-05
-0.000121239
-1.13818e-06
3.03381e-06
-2.2893e-06
3.23626e-06
-3.49528e-06
3.83427e-06
-4.74251e-06
4.4363e-06
-5.98605e-06
5.60879e-06
-7.24554e-06
6.72392e-06
-8.37208e-06
8.14181e-06
-9.50544e-06
9.83782e-06
-1.05294e-05
1.11274e-05
-1.13496e-05
1.32541e-05
-1.24691e-05
1.48635e-05
-1.37138e-05
1.74641e-05
-1.56098e-05
1.97723e-05
-1.92854e-05
2.20949e-05
-2.3892e-05
2.42735e-05
-2.80918e-05
2.84975e-05
-3.40456e-05
3.12896e-05
-4.17767e-05
3.46904e-05
-4.98922e-05
4.22021e-05
-5.95117e-05
5.08953e-05
-7.38827e-05
6.08936e-05
-9.32235e-05
7.57656e-05
9.72372e-05
-0.000117289
-7.24896e-07
3.77043e-06
-1.42572e-06
3.94883e-06
-2.09254e-06
4.51286e-06
-2.69622e-06
5.0518e-06
-3.21398e-06
6.13844e-06
-3.6816e-06
7.20352e-06
-4.06695e-06
8.53925e-06
-4.51937e-06
1.03025e-05
-5.22579e-06
1.18462e-05
-6.02872e-06
1.40696e-05
-7.34001e-06
1.61875e-05
-8.64202e-06
1.87791e-05
-1.04087e-05
2.15522e-05
-1.27186e-05
2.44184e-05
-1.61468e-05
2.77155e-05
-2.00932e-05
3.24582e-05
-2.60416e-05
3.72527e-05
-3.49556e-05
4.36196e-05
-4.4933e-05
5.21952e-05
-5.65732e-05
6.25517e-05
-7.11684e-05
7.55059e-05
-8.86085e-05
9.32234e-05
0.000119904
-0.000111256
-6.58717e-07
4.44067e-06
-1.3229e-06
4.62454e-06
-1.98736e-06
5.1889e-06
-2.67132e-06
5.74737e-06
-3.30779e-06
6.78661e-06
-3.99235e-06
7.89987e-06
-4.59246e-06
9.15127e-06
-5.22788e-06
1.09499e-05
-5.87124e-06
1.25018e-05
-6.4745e-06
1.46853e-05
-7.16009e-06
1.68857e-05
-7.96835e-06
1.96002e-05
-9.05701e-06
2.26539e-05
-1.07638e-05
2.61385e-05
-1.31628e-05
3.01282e-05
-1.59626e-05
3.5272e-05
-1.97735e-05
4.10779e-05
-2.46516e-05
4.85125e-05
-3.07012e-05
5.826e-05
-3.84252e-05
7.02916e-05
-4.86166e-05
8.57136e-05
-6.09681e-05
0.000105592
0.000134679
-7.57248e-05
-2.06295e-07
4.65829e-06
-3.81257e-07
4.81084e-06
-5.42121e-07
5.36113e-06
-6.75529e-07
5.8922e-06
-7.67492e-07
6.89006e-06
-8.87676e-07
8.03163e-06
-9.89728e-07
9.26501e-06
-1.13661e-06
1.11086e-05
-1.43474e-06
1.28119e-05
-1.80961e-06
1.50722e-05
-2.46097e-06
1.75493e-05
-3.20445e-06
2.03562e-05
-4.2267e-06
2.36889e-05
-5.49692e-06
2.74218e-05
-7.2522e-06
3.18968e-05
-9.40406e-06
3.74375e-05
-1.21148e-05
4.38027e-05
-1.55106e-05
5.19227e-05
-1.90544e-05
6.18187e-05
-2.31253e-05
7.43778e-05
-2.73011e-05
8.99052e-05
-3.16012e-05
0.000109909
0.000136137
-3.30423e-05
-1.74697e-07
4.84407e-06
-3.41515e-07
4.98876e-06
-5.01179e-07
5.53193e-06
-6.78702e-07
6.08091e-06
-7.84128e-07
7.00674e-06
-9.39264e-07
8.1981e-06
-9.91472e-07
9.32865e-06
-1.07035e-06
1.1199e-05
-1.08205e-06
1.28353e-05
-1.11685e-06
1.51189e-05
-1.16435e-06
1.76089e-05
-1.2867e-06
2.04908e-05
-1.54858e-06
2.39632e-05
-1.95469e-06
2.78406e-05
-2.62941e-06
3.25845e-05
-3.37612e-06
3.81975e-05
-4.46371e-06
4.49039e-05
-5.63489e-06
5.31079e-05
-6.61617e-06
6.28144e-05
-7.22961e-06
7.50061e-05
-6.53209e-06
8.92229e-05
-4.11027e-06
0.000107503
0.00012824
3.80293e-06
2.61514e-07
4.5934e-06
5.42382e-07
4.71876e-06
8.09628e-07
5.27559e-06
1.07848e-06
5.82301e-06
1.38357e-06
6.71266e-06
1.66753e-06
7.92521e-06
1.98605e-06
9.0213e-06
2.27997e-06
1.09164e-05
2.60662e-06
1.252e-05
2.86713e-06
1.487e-05
3.14449e-06
1.73433e-05
3.37533e-06
2.02719e-05
3.58646e-06
2.37643e-05
3.76725e-06
2.76722e-05
3.87367e-06
3.24907e-05
4.08312e-06
3.8001e-05
4.35507e-06
4.46452e-05
4.87396e-06
5.26025e-05
5.88952e-06
6.18127e-05
7.75358e-06
7.31563e-05
1.11798e-05
8.58113e-05
1.72772e-05
0.000101421
0.000117753
2.77796e-05
3.16289e-07
4.28769e-06
6.43068e-07
4.40258e-06
9.84843e-07
4.94444e-06
1.30861e-06
5.50991e-06
1.71318e-06
6.31882e-06
2.09714e-06
7.55204e-06
2.59918e-06
8.53014e-06
3.08823e-06
1.04384e-05
3.72502e-06
1.18944e-05
4.34615e-06
1.42601e-05
5.12888e-06
1.6572e-05
5.91618e-06
1.94962e-05
6.84199e-06
2.28503e-05
7.84225e-06
2.6684e-05
8.95172e-06
3.13935e-05
1.03396e-05
3.66256e-05
1.19208e-05
4.30767e-05
1.41478e-05
5.03887e-05
1.70084e-05
5.89655e-05
2.11228e-05
6.90556e-05
2.68134e-05
8.01348e-05
3.5074e-05
9.31745e-05
0.000106112
4.67291e-05
6.79122e-07
3.61887e-06
1.37518e-06
3.71685e-06
2.07056e-06
4.25941e-06
2.75965e-06
4.83121e-06
3.49166e-06
5.59724e-06
4.24199e-06
6.81221e-06
5.05508e-06
7.72765e-06
5.88935e-06
9.61479e-06
6.85531e-06
1.09392e-05
7.81647e-06
1.33099e-05
9.01218e-06
1.53874e-05
1.0216e-05
1.83037e-05
1.1694e-05
2.13837e-05
1.32491e-05
2.51405e-05
1.51366e-05
2.95179e-05
1.73318e-05
3.44426e-05
1.99568e-05
4.04641e-05
2.32577e-05
4.71004e-05
2.72507e-05
5.49854e-05
3.25552e-05
6.37643e-05
3.92098e-05
7.34937e-05
4.82724e-05
8.41257e-05
9.47319e-05
5.96669e-05
7.48528e-07
2.88034e-06
1.51284e-06
2.96257e-06
2.30211e-06
3.48019e-06
3.09386e-06
4.04953e-06
3.96445e-06
4.73677e-06
4.88053e-06
5.90633e-06
5.90314e-06
6.71532e-06
6.98593e-06
8.54237e-06
8.24941e-06
9.68625e-06
9.57264e-06
1.19973e-05
1.11824e-05
1.37884e-05
1.28834e-05
1.66136e-05
1.4983e-05
1.92953e-05
1.72271e-05
2.29076e-05
1.99381e-05
2.68183e-05
2.30188e-05
3.13736e-05
2.66266e-05
3.68681e-05
3.09923e-05
4.27468e-05
3.60642e-05
4.99259e-05
4.2381e-05
5.746e-05
4.97369e-05
6.61506e-05
5.88519e-05
7.50239e-05
8.45075e-05
6.90896e-05
9.54952e-07
1.93509e-06
1.92015e-06
2.00708e-06
2.93037e-06
2.4797e-06
3.97015e-06
3.01951e-06
5.08365e-06
3.63307e-06
6.29913e-06
4.70073e-06
7.59597e-06
5.42844e-06
9.03248e-06
7.1159e-06
1.0642e-05
8.08688e-06
1.23649e-05
1.02846e-05
1.43842e-05
1.17794e-05
1.6524e-05
1.44843e-05
1.91005e-05
1.67295e-05
2.18311e-05
2.01879e-05
2.51662e-05
2.34942e-05
2.88573e-05
2.76937e-05
3.3181e-05
3.25558e-05
3.82263e-05
3.77131e-05
4.39748e-05
4.41892e-05
5.08969e-05
5.05501e-05
5.87557e-05
5.83041e-05
6.80794e-05
6.57128e-05
7.43229e-05
7.82767e-05
9.24125e-07
1.02032e-06
1.82787e-06
1.11271e-06
2.8389e-06
1.47806e-06
3.90026e-06
1.96757e-06
5.07684e-06
2.46597e-06
6.40203e-06
3.38506e-06
7.86212e-06
3.97794e-06
9.53814e-06
5.44955e-06
1.14228e-05
6.21198e-06
1.35311e-05
8.18618e-06
1.59576e-05
9.36299e-06
1.86528e-05
1.17992e-05
2.17872e-05
1.36053e-05
2.521e-05
1.67755e-05
2.92824e-05
1.94324e-05
3.36999e-05
2.3287e-05
3.88502e-05
2.74165e-05
4.46622e-05
3.19122e-05
5.10968e-05
3.77659e-05
5.85465e-05
4.31118e-05
6.66738e-05
5.01885e-05
7.59111e-05
5.64873e-05
6.45576e-05
8.56885e-05
9.42774e-07
8.65613e-08
1.83758e-06
2.26935e-07
2.88132e-06
4.43364e-07
3.98985e-06
8.68108e-07
5.22262e-06
1.24232e-06
6.64886e-06
1.96799e-06
8.23091e-06
2.40513e-06
1.01126e-05
3.57716e-06
1.22147e-05
4.1193e-06
1.46427e-05
5.76759e-06
1.74067e-05
6.60864e-06
2.05262e-05
8.68952e-06
2.41023e-05
1.0039e-05
2.8073e-05
1.28149e-05
3.27112e-05
1.48043e-05
3.77047e-05
1.83038e-05
4.35619e-05
2.15697e-05
4.99387e-05
2.5546e-05
5.70604e-05
3.0655e-05
6.50414e-05
3.51418e-05
7.3642e-05
4.15991e-05
8.31002e-05
4.70405e-05
5.4651e-05
9.30183e-05
6.75241e-07
-5.8003e-07
1.31647e-06
-4.05639e-07
2.12544e-06
-3.56928e-07
3.02378e-06
-2.15367e-08
4.10931e-06
1.65525e-07
5.4375e-06
6.48587e-07
7.00286e-06
8.48622e-07
8.94455e-06
1.64438e-06
1.11947e-05
1.87812e-06
1.38974e-05
3.07398e-06
1.70022e-05
3.51311e-06
2.06192e-05
5.08175e-06
2.47223e-05
5.94531e-06
2.94182e-05
8.12855e-06
3.47711e-05
9.46102e-06
4.06306e-05
1.24541e-05
4.74022e-05
1.4808e-05
5.45707e-05
1.83876e-05
6.26306e-05
2.26053e-05
7.13362e-05
2.64467e-05
8.04975e-05
3.24483e-05
9.02309e-05
3.73179e-05
4.46179e-05
0.000100275
5.28444e-07
-1.10019e-06
1.05e-06
-9.18895e-07
1.69835e-06
-9.96979e-07
2.4343e-06
-7.49148e-07
3.34558e-06
-7.3738e-07
4.48626e-06
-4.83678e-07
5.86339e-06
-5.20033e-07
7.61732e-06
-1.01015e-07
9.70328e-06
-1.99232e-07
1.22907e-05
4.95304e-07
1.53551e-05
4.57426e-07
1.90454e-05
1.40039e-06
2.33428e-05
1.65684e-06
2.84209e-05
3.05951e-06
3.42239e-05
3.66718e-06
4.07662e-05
5.92114e-06
4.83122e-05
7.27141e-06
5.63369e-05
1.03726e-05
6.55132e-05
1.34387e-05
7.5156e-05
1.68138e-05
8.52942e-05
2.23202e-05
9.59246e-05
2.66977e-05
3.37744e-05
0.000106778
8.27807e-08
-1.17507e-06
2.00676e-07
-1.02888e-06
4.1054e-07
-1.19892e-06
7.43433e-07
-1.0741e-06
1.27266e-06
-1.25862e-06
2.05134e-06
-1.25433e-06
3.12219e-06
-1.58281e-06
4.61287e-06
-1.58357e-06
6.53593e-06
-2.11409e-06
9.0619e-06
-2.0224e-06
1.21786e-05
-2.65096e-06
1.60376e-05
-2.45012e-06
2.06344e-05
-2.93152e-06
2.61644e-05
-2.46182e-06
3.25116e-05
-2.67136e-06
3.98629e-05
-1.42128e-06
4.82054e-05
-1.06223e-06
5.72997e-05
1.28739e-06
6.77254e-05
3.0222e-06
7.85238e-05
6.02466e-06
9.00203e-05
1.08331e-05
0.000101935
1.4793e-05
2.17137e-05
0.000114005
-1.14748e-07
-1.0528e-06
-1.84792e-07
-9.51308e-07
-2.07977e-07
-1.1682e-06
-1.19317e-07
-1.15519e-06
1.28177e-07
-1.49852e-06
5.83843e-07
-1.70236e-06
1.30247e-06
-2.29376e-06
2.3878e-06
-2.66119e-06
3.87864e-06
-3.59717e-06
5.93769e-06
-4.0736e-06
8.58545e-06
-5.29082e-06
1.19809e-05
-5.83758e-06
1.61688e-05
-7.11139e-06
2.13428e-05
-7.62768e-06
2.74968e-05
-8.81708e-06
3.48865e-05
-8.80258e-06
4.34242e-05
-9.59154e-06
5.31662e-05
-8.44609e-06
6.44214e-05
-8.22435e-06
7.62767e-05
-5.8218e-06
8.93815e-05
-2.26289e-06
0.000103056
1.12715e-06
7.79243e-06
0.000116987
-5.77809e-07
-4.67866e-07
-1.11458e-06
-4.0741e-07
-1.61408e-06
-6.61575e-07
-1.99836e-06
-7.63756e-07
-2.23017e-06
-1.25953e-06
-2.25608e-06
-1.66924e-06
-2.01363e-06
-2.52897e-06
-1.40499e-06
-3.26255e-06
-3.70566e-07
-4.62425e-06
1.25712e-06
-5.69389e-06
3.54753e-06
-7.57377e-06
6.71414e-06
-8.99666e-06
1.08227e-05
-1.12123e-05
1.60188e-05
-1.28161e-05
2.23139e-05
-1.51045e-05
2.99646e-05
-1.64454e-05
3.89012e-05
-1.85203e-05
4.93714e-05
-1.89083e-05
6.13337e-05
-2.01786e-05
7.42929e-05
-1.87728e-05
8.90888e-05
-1.70505e-05
0.000104698
-1.44735e-05
-8.3352e-06
0.000120834
-7.746e-07
3.13462e-07
-1.52172e-06
3.46438e-07
-2.24923e-06
7.26716e-08
-2.888e-06
-1.1823e-07
-3.40342e-06
-7.37324e-07
-3.74525e-06
-1.32062e-06
-3.84825e-06
-2.41914e-06
-3.63503e-06
-3.46889e-06
-3.03815e-06
-5.21421e-06
-1.92681e-06
-6.79825e-06
-2.35278e-07
-9.25828e-06
2.21766e-06
-1.14425e-05
5.54021e-06
-1.45278e-05
9.91912e-06
-1.71878e-05
1.5441e-05
-2.06192e-05
2.23732e-05
-2.33702e-05
3.07812e-05
-2.69209e-05
4.10171e-05
-2.91368e-05
5.29712e-05
-3.21251e-05
6.6578e-05
-3.2372e-05
8.24439e-05
-3.29088e-05
9.94376e-05
-3.14594e-05
-2.63512e-05
0.000117462
-1.19977e-06
1.51954e-06
-2.37873e-06
1.53171e-06
-3.53961e-06
1.23988e-06
-4.63408e-06
9.82578e-07
-5.62391e-06
2.58862e-07
-6.47052e-06
-4.67623e-07
-7.10603e-06
-1.77721e-06
-7.45973e-06
-3.10874e-06
-7.46188e-06
-5.20557e-06
-6.97656e-06
-7.27705e-06
-5.92755e-06
-1.03007e-05
-4.11455e-06
-1.32489e-05
-1.40177e-06
-1.72339e-05
2.50013e-06
-2.1083e-05
7.81429e-06
-2.59265e-05
1.47538e-05
-3.03028e-05
2.33456e-05
-3.55059e-05
3.38779e-05
-3.96621e-05
4.63292e-05
-4.45694e-05
6.09361e-05
-4.69718e-05
7.7906e-05
-4.98715e-05
9.64138e-05
-4.996e-05
-4.6388e-05
0.000116458
-1.36852e-06
2.89396e-06
-2.72998e-06
2.8991e-06
-4.08454e-06
2.60037e-06
-5.40089e-06
2.30486e-06
-6.63614e-06
1.50006e-06
-7.76951e-06
6.7173e-07
-8.73066e-06
-8.10071e-07
-9.47308e-06
-2.36029e-06
-9.91854e-06
-4.75405e-06
-9.95865e-06
-7.23084e-06
-9.50663e-06
-1.07466e-05
-8.39415e-06
-1.43552e-05
-6.50825e-06
-1.91136e-05
-3.64468e-06
-2.39403e-05
4.11084e-07
-2.9976e-05
5.98535e-06
-3.58708e-05
1.33369e-05
-4.28512e-05
2.28773e-05
-4.91961e-05
3.47741e-05
-5.64597e-05
4.94826e-05
-6.16739e-05
6.68886e-05
-6.7271e-05
8.65596e-05
-6.96245e-05
-6.83925e-05
0.000108571
-1.7367e-06
4.63615e-06
-3.47667e-06
4.64459e-06
-5.21923e-06
4.34844e-06
-6.95414e-06
4.04528e-06
-8.64682e-06
3.19827e-06
-1.02914e-05
2.32186e-06
-1.18216e-05
7.25662e-07
-1.32121e-05
-9.6418e-07
-1.43839e-05
-3.57667e-06
-1.5252e-05
-6.35711e-06
-1.57126e-05
-1.02803e-05
-1.56054e-05
-1.44567e-05
-1.47705e-05
-1.99427e-05
-1.29503e-05
-2.57548e-05
-9.89073e-06
-3.30298e-05
-5.10154e-06
-4.06541e-05
1.84675e-06
-4.97936e-05
1.12698e-05
-5.86133e-05
2.3302e-05
-6.84859e-05
3.84469e-05
-7.68128e-05
5.65672e-05
-8.53855e-05
7.78649e-05
-9.09163e-05
-9.30648e-05
0.000102543
-1.85361e-06
6.49483e-06
-3.72062e-06
6.51669e-06
-5.60513e-06
6.23803e-06
-7.51119e-06
5.95641e-06
-9.41672e-06
5.10888e-06
-1.13392e-05
4.24946e-06
-1.32196e-05
2.61114e-06
-1.50685e-05
8.89901e-07
-1.67925e-05
-1.84754e-06
-1.83573e-05
-4.78705e-06
-1.96255e-05
-9.00687e-06
-2.04996e-05
-1.35773e-05
-2.07726e-05
-1.96644e-05
-2.02556e-05
-2.62664e-05
-1.86752e-05
-3.46048e-05
-1.57372e-05
-4.35868e-05
-1.11475e-05
-5.43779e-05
-4.33163e-06
-6.54239e-05
5.14815e-06
-7.79603e-05
1.7943e-05
-8.96024e-05
3.41011e-05
-0.000101538
5.47132e-05
-0.000111523
-0.000118893
8.05475e-05
-2.20381e-06
8.7033e-06
-4.42635e-06
8.74389e-06
-6.68349e-06
8.49982e-06
-8.99589e-06
8.27346e-06
-1.13613e-05
7.47899e-06
-1.3807e-05
6.69981e-06
-1.62976e-05
5.1064e-06
-1.88583e-05
3.45535e-06
-2.1427e-05
7.25913e-07
-2.4015e-05
-2.19429e-06
-2.65085e-05
-6.50862e-06
-2.88551e-05
-1.12259e-05
-3.08387e-05
-1.7676e-05
-3.22968e-05
-2.48035e-05
-3.2839e-05
-3.40578e-05
-3.21338e-05
-4.42871e-05
-2.95664e-05
-5.69405e-05
-2.45715e-05
-7.04139e-05
-1.72807e-05
-8.52464e-05
-8.04532e-06
-9.8833e-05
3.46185e-06
-0.00011304
2.06121e-05
-0.000128667
-0.000143829
4.55542e-05
-2.19937e-06
1.09069e-05
-4.43269e-06
1.09814e-05
-6.7344e-06
1.08057e-05
-9.14173e-06
1.0685e-05
-1.16856e-05
1.00271e-05
-1.44088e-05
9.42716e-06
-1.73173e-05
8.01923e-06
-2.04602e-05
6.60251e-06
-2.38118e-05
4.08177e-06
-2.74101e-05
1.40822e-06
-3.11705e-05
-2.74388e-06
-3.50814e-05
-7.3107e-06
-3.89587e-05
-1.37944e-05
-4.27069e-05
-2.10509e-05
-4.59878e-05
-3.07726e-05
-4.8659e-05
-4.16115e-05
-5.0544e-05
-5.50513e-05
-5.23591e-05
-6.85945e-05
-5.47516e-05
-8.28495e-05
-5.5932e-05
-9.76476e-05
-4.98804e-05
-0.000119087
-3.2316e-05
-0.000146227
-0.000171924
-4.2172e-06
-2.53965e-06
1.34503e-05
-5.12376e-06
1.35693e-05
-7.80038e-06
1.34861e-05
-1.06081e-05
1.34965e-05
-1.35897e-05
1.30125e-05
-1.68063e-05
1.26476e-05
-2.02917e-05
1.15084e-05
-2.41129e-05
1.04276e-05
-2.82886e-05
8.26133e-06
-3.29106e-05
6.03405e-06
-3.79894e-05
2.33876e-06
-4.36047e-05
-1.6915e-06
-4.9727e-05
-7.66812e-06
-5.63681e-05
-1.44059e-05
-6.33698e-05
-2.37671e-05
-7.07759e-05
-3.42016e-05
-7.88909e-05
-4.69324e-05
-8.84613e-05
-5.90201e-05
-9.86376e-05
-7.26687e-05
-0.000102612
-9.36684e-05
-9.2044e-05
-0.00012965
-6.78013e-05
-0.000170467
-0.000204342
-3.53809e-05
-2.32281e-06
1.57764e-05
-4.70244e-06
1.59522e-05
-7.20875e-06
1.59958e-05
-9.91232e-06
1.62034e-05
-1.28926e-05
1.59962e-05
-1.62422e-05
1.60005e-05
-2.00547e-05
1.53242e-05
-2.44449e-05
1.4821e-05
-2.95014e-05
1.33212e-05
-3.53123e-05
1.18484e-05
-4.19938e-05
9.02359e-06
-4.97205e-05
6.03858e-06
-5.85427e-05
1.15745e-06
-6.85824e-05
-4.36288e-06
-7.99948e-05
-1.23512e-05
-9.33871e-05
-2.0806e-05
-0.000109765
-3.05508e-05
-0.000128802
-3.99791e-05
-0.00014303
-5.84358e-05
-0.00013987
-9.6826e-05
-0.000119207
-0.000150312
-9.16501e-05
-0.000198021
-0.000234376
-6.16129e-05
-2.64162e-06
1.84209e-05
-5.35377e-06
1.86672e-05
-8.19972e-06
1.88445e-05
-1.12557e-05
1.92622e-05
-1.46131e-05
1.93564e-05
-1.83646e-05
1.97549e-05
-2.26176e-05
1.958e-05
-2.7507e-05
1.97133e-05
-3.31816e-05
1.89986e-05
-3.97989e-05
1.84685e-05
-4.75193e-05
1.67469e-05
-5.66292e-05
1.51514e-05
-6.74041e-05
1.19352e-05
-8.03026e-05
8.53854e-06
-9.57905e-05
3.13959e-06
-0.000114578
-2.0153e-06
-0.000136323
-8.80204e-06
-0.000157949
-1.8349e-05
-0.000167812
-4.85697e-05
-0.000157538
-0.000107099
-0.000137081
-0.000170766
-0.000115377
-0.000219724
-0.000257875
-9.18758e-05
-2.12626e-06
2.05494e-05
-4.34003e-06
2.08833e-05
-6.72805e-06
2.12349e-05
-9.37004e-06
2.19065e-05
-1.23583e-05
2.2347e-05
-1.58191e-05
2.3218e-05
-1.98952e-05
2.36584e-05
-2.4792e-05
2.46124e-05
-3.07655e-05
2.49745e-05
-3.82114e-05
2.59167e-05
-4.75294e-05
2.60671e-05
-5.90944e-05
2.67188e-05
-7.33507e-05
2.61939e-05
-9.06898e-05
2.58799e-05
-0.000111789
2.42414e-05
-0.000137335
2.35335e-05
-0.000165612
1.94784e-05
-0.000187927
3.97033e-06
-0.000189624
-4.68714e-05
-0.000175838
-0.000120884
-0.000161137
-0.000185468
-0.000145777
-0.000235081
-0.000275931
-0.000127719
-2.40813e-06
2.29593e-05
-4.89504e-06
2.3372e-05
-7.55406e-06
2.38956e-05