/*--------------------------------*- C++ -*----------------------------------*\
| =========                 |                                                 |
| \\      /  F ield         | OpenFOAM: The Open Source CFD Toolbox           |
|  \\    /   O peration     | Version:  2012                                  |
|   \\  /    A nd           | Website:  www.openfoam.com                      |
|    \\/     M anipulation  |                                                 |
\*---------------------------------------------------------------------------*/
FoamFile
{
    version     2.0;
    format      ascii;
    class       volScalarField;
    location    "0.61";
    object      rho;
}
// * * * * * * * * * * * * * * * * * * * * * * * * * * * * * * * * * * * * * //

dimensions      [1 -3 0 0 0 0 0];


internalField   nonuniform List<scalar> 
2268
(
1000.05
1000.05
1000.05
1000.05
1000.05
1000.05
1000.05
1000.05
1000.05
1000.05
1000.05
1000.05
1000.05
1000.05
1000.05
1000.05
1000.05
1000.05
1000.05
1000.05
1000.05
1000.05
999.84
1000.05
1000.05
1000.05
1000.05
1000.05
1000.05
1000.05
1000.05
1000.05
1000.05
1000.05
1000.05
1000.05
1000.05
1000.05
1000.05
1000.05
1000.05
1000.05
1000.05
1000.05
1000.05
999.766
1000.05
1000.05
1000.05
1000.05
1000.05
1000.05
1000.05
1000.05
1000.05
1000.05
1000.05
1000.05
1000.05
1000.05
1000.05
1000.05
1000.05
1000.05
1000.05
1000.05
1000.05
1000.05
999.766
1000.05
1000.05
1000.05
1000.05
1000.05
1000.05
1000.05
1000.05
1000.05
1000.05
1000.05
1000.05
1000.05
1000.05
1000.05
1000.05
1000.05
1000.05
1000.05
1000.05
1000.05
1000.05
999.766
1000.05
1000.05
1000.05
1000.05
1000.05
1000.05
1000.05
1000.05
1000.05
1000.05
1000.05
1000.05
1000.05
1000.05
1000.05
1000.05
1000.05
1000.05
1000.05
1000.05
1000.05
1000.05
999.929
1000.05
1000.05
1000.05
1000.05
1000.05
1000.05
1000.05
1000.05
1000.05
1000.05
1000.05
1000.05
1000.05
1000.05
1000.05
1000.05
1000.05
1000.05
1000.05
1000.05
1000.05
1000.05
1000.05
1000.05
1000.05
1000.05
1000.05
1000.05
1000.05
1000.05
1000.05
1000.05
1000.05
1000.05
1000.05
1000.05
1000.05
1000.05
1000.05
1000.05
1000.05
1000.05
1000.05
1000.05
1000.05
1000.05
992.32
992.551
993.68
995.017
996.376
997.355
998.574
999.343
999.796
1000.05
1000.05
1000.05
1000.05
1000.05
1000.05
1000.05
1000.05
1000.05
1000.05
1000.05
1000.05
1000.05
1000.05
593.012
593.001
605.726
679.076
718.714
736.643
741.125
741.124
747.916
747.915
747.914
747.914
745.87
746.442
770.175
776.509
776.509
776.283
766.686
482.082
95.677
94.3784
180.615
551.874
784.48
620.33
456.36
558.73
665.449
695.109
608.614
562.671
568.523
638.175
693.998
729.389
776.282
775.943
490.701
2.94972
2.95041
21.5088
347.685
848.947
876.745
468.245
62.6962
62.6963
284.649
104.505
67.6539
80.7478
118.864
140.796
192.405
509.256
768.967
492.606
6.78909
1.29946
1.29923
17.3189
600.715
973.275
915.532
763.824
491.521
110.932
3.30085
2.95054
1.55934
1.2968
1.29707
2.32764
206.979
763.709
403.14
14.9367
1.73888
1.29923
1.30014
461.872
973.273
990.245
990.245
985.761
726.233
209.933
8.74384
1.29906
1.29705
1.30003
3.9366
136.76
829.303
56.3898
12.5784
1.77674
1.29925
15.1599
765.816
985.759
990.245
957.099
919.763
831.446
319.856
7.24198
1.29831
1.29727
1.29756
1.80662
86.1197
829.303
29.242
16.0583
1.53794
1.29927
176.05
895.23
997.117
987.683
659.015
341.576
306.129
168.44
11.0503
1.29904
1.29736
1.29736
1.33359
29.779
829.302
122.541
25.5811
4.36879
1.29965
448.426
975.833
997.834
844.564
280.617
54.4155
18.3296
14.987
7.57601
1.32044
1.29739
1.29737
1.29733
13.9271
801.43
554.736
564.161
589.352
619.011
658.547
702.097
762.081
821.905
886.129
947.658
983.379
1000.01
1000.05
1000.05
1000.05
1000.05
1000.05
1000.05
1000.05
1000.05
1000.05
1000.05
1000.05
1.29337
1.29338
2.15393
10.1852
24.8171
45.212
76.3341
116.927
180.274
270.18
402.576
575.898
764.838
928.811
1000.05
1000.05
1000.05
1000.05
1000.05
1000.05
1000.05
1000.05
1000.05
1.29331
1.29331
1.29331
1.29331
1.29331
1.29332
1.29334
1.29337
1.29338
1.95269
8.01676
32.0461
97.2404
216.643
418.127
629.911
807.95
984.376
999.888
999.784
999.857
1000.04
1000.05
1.29327
1.29327
1.29327
1.29327
1.29327
1.29328
1.29328
1.2933
1.29332
1.29333
1.2933
1.29332
1.31999
6.50961
22.8882
78.0945
141.369
281.99
480.428
655.587
825.734
934.393
975.812
1.29325
1.29325
1.29325
1.29326
1.29326
1.29326
1.29326
1.29326
1.29327
1.29327
1.29328
1.29334
1.29332
1.29329
1.29329
1.47588
1.29335
1.29335
11.5851
18.2192
64.8749
156.813
245.649
1.29325
1.29325
1.29325
1.29325
1.29325
1.29325
1.29325
1.29325
1.29325
1.29326
1.2934
1.2944
1.29438
1.29532
1.29509
1.29385
1.29335
1.29327
1.2933
1.29332
1.29333
1.29334
1.29337
1.29325
1.29325
1.29325
1.29325
1.29325
1.29325
1.29325
1.29325
1.29325
1.29325
1.29326
1.29441
1.29536
1.29536
1.29416
1.29334
1.29328
1.29327
1.29327
1.29364
1.29466
1.29358
1.29333
1.29325
1.29325
1.29325
1.29325
1.29325
1.29325
1.29325
1.29325
1.29325
1.29326
1.29329
1.29331
1.29361
1.29331
1.29326
1.29327
1.29329
1.29329
1.29327
1.29337
1.29367
1.29337
1.29342
1.29324
1.29324
1.29324
1.29325
1.29325
1.29325
1.29325
1.29325
1.29325
1.29325
1.29325
1.29325
1.29325
1.29325
1.29325
1.29325
1.29328
1.29329
1.29329
1.29327
1.29326
1.29327
1.2933
1.29324
1.29324
1.29324
1.29324
1.29324
1.29324
1.29324
1.29324
1.29325
1.29325
1.29325
1.29325
1.29325
1.29325
1.29325
1.29325
1.29326
1.29327
1.29327
1.29326
1.29326
1.29326
1.29328
1.29324
1.29324
1.29324
1.29324
1.29324
1.29324
1.29324
1.29324
1.29324
1.29324
1.29324
1.29324
1.29325
1.29325
1.29325
1.29325
1.29325
1.29325
1.29325
1.29325
1.29325
1.29326
1.29327
1.29324
1.29324
1.29324
1.29324
1.29324
1.29324
1.29324
1.29324
1.29324
1.29324
1.29324
1.29324
1.29324
1.29324
1.29324
1.29325
1.29325
1.29325
1.29325
1.29325
1.29325
1.29325
1.29325
1.29323
1.29323
1.29323
1.29324
1.29324
1.29324
1.29324
1.29324
1.29324
1.29324
1.29324
1.29324
1.29324
1.29324
1.29324
1.29324
1.29324
1.29324
1.29324
1.29325
1.29324
1.29325
1.29324
1.29323
1.29323
1.29323
1.29323
1.29323
1.29323
1.29323
1.29323
1.29323
1.29323
1.29324
1.29324
1.29324
1.29324
1.29324
1.29324
1.29324
1.29324
1.29324
1.29324
1.29324
1.29324
1.29324
1.29323
1.29323
1.29323
1.29323
1.29323
1.29323
1.29323
1.29323
1.29323
1.29323
1.29323
1.29323
1.29323
1.29323
1.29323
1.29324
1.29324
1.29324
1.29324
1.29324
1.29324
1.29324
1.29323
1.29322
1.29322
1.29322
1.29323
1.29323
1.29323
1.29323
1.29323
1.29323
1.29323
1.29323
1.29323
1.29323
1.29323
1.29323
1.29323
1.29323
1.29323
1.29323
1.29323
1.29323
1.29323
1.29323
1.29322
1.29322
1.29322
1.29322
1.29322
1.29322
1.29322
1.29322
1.29322
1.29322
1.29322
1.29323
1.29323
1.29323
1.29323
1.29323
1.29323
1.29323
1.29323
1.29323
1.29323
1.29323
1.29323
1.29321
1.29321
1.29321
1.29322
1.29322
1.29322
1.29322
1.29322
1.29322
1.29322
1.29322
1.29322
1.29322
1.29322
1.29322
1.29322
1.29323
1.29323
1.29323
1.29323
1.29323
1.29323
1.29322
1.29321
1.29321
1.29321
1.29321
1.29321
1.29321
1.29321
1.29321
1.29321
1.29321
1.29321
1.29322
1.29322
1.29322
1.29322
1.29322
1.29322
1.29322
1.29322
1.29322
1.29322
1.29322
1.29322
1.29319
1.29319
1.2932
1.2932
1.2932
1.2932
1.2932
1.2932
1.2932
1.2932
1.29321
1.29321
1.29321
1.29321
1.29321
1.29321
1.29322
1.29322
1.29322
1.29322
1.29322
1.29322
1.29322
1.29318
1.29318
1.29318
1.29318
1.29318
1.29318
1.29318
1.29319
1.29319
1.29319
1.29319
1.2932
1.2932
1.2932
1.2932
1.29321
1.29321
1.29321
1.29321
1.29321
1.29321
1.29321
1.29321
1.29316
1.29316
1.29316
1.29316
1.29316
1.29316
1.29316
1.29317
1.29317
1.29317
1.29317
1.29318
1.29318
1.29318
1.29319
1.29319
1.2932
1.2932
1.2932
1.29321
1.29321
1.29321
1.29321
1.29314
1.29314
1.29314
1.29314
1.29314
1.29314
1.29314
1.29315
1.29315
1.29315
1.29315
1.29316
1.29316
1.29316
1.29317
1.29317
1.29318
1.29318
1.29319
1.29319
1.2932
1.2932
1.2932
1.29313
1.29313
1.29313
1.29313
1.29313
1.29313
1.29313
1.29313
1.29313
1.29313
1.29314
1.29314
1.29314
1.29314
1.29314
1.29315
1.29315
1.29316
1.29316
1.29317
1.29317
1.29318
1.29319
1.29312
1.29312
1.29312
1.29312
1.29312
1.29312
1.29312
1.29312
1.29312
1.29312
1.29312
1.29312
1.29313
1.29313
1.29313
1.29313
1.29313
1.29314
1.29314
1.29314
1.29315
1.29316
1.29316
1.29311
1.29311
1.29311
1.29311
1.29311
1.29311
1.29311
1.29311
1.29311
1.29311
1.29312
1.29312
1.29312
1.29312
1.29312
1.29312
1.29312
1.29313
1.29313
1.29313
1.29313
1.29314
1.29314
1.2931
1.2931
1.29311
1.29311
1.29311
1.29311
1.29311
1.29311
1.29311
1.29311
1.29311
1.29311
1.29311
1.29311
1.29311
1.29312
1.29312
1.29312
1.29312
1.29312
1.29312
1.29313
1.29313
1.2931
1.2931
1.2931
1.2931
1.2931
1.2931
1.2931
1.2931
1.2931
1.2931
1.29311
1.29311
1.29311
1.29311
1.29311
1.29311
1.29311
1.29312
1.29312
1.29312
1.29312
1.29312
1.29313
1.2931
1.2931
1.2931
1.2931
1.2931
1.2931
1.2931
1.2931
1.2931
1.2931
1.2931
1.2931
1.29311
1.29311
1.29311
1.29311
1.29311
1.29312
1.29312
1.29312
1.29312
1.29313
1.29313
1.2931
1.2931
1.2931
1.2931
1.2931
1.2931
1.2931
1.2931
1.2931
1.2931
1.2931
1.2931
1.29311
1.29311
1.29311
1.29311
1.29312
1.29312
1.29312
1.29313
1.29313
1.29314
1.29315
1.2931
1.2931
1.2931
1.2931
1.2931
1.2931
1.2931
1.2931
1.2931
1.2931
1.29311
1.29311
1.29311
1.29311
1.29312
1.29312
1.29312
1.29313
1.29313
1.29314
1.29315
1.29316
1.29316
1.2931
1.2931
1.2931
1.2931
1.2931
1.2931
1.2931
1.2931
1.29311
1.29311
1.29311
1.29311
1.29311
1.29312
1.29312
1.29312
1.29313
1.29313
1.29315
1.29316
1.29317
1.29318
1.29322
1.2931
1.2931
1.2931
1.2931
1.2931
1.2931
1.2931
1.29311
1.29311
1.29311
1.29311
1.29311
1.29311
1.29312
1.29312
1.29312
1.29313
1.29314
1.29316
1.29317
1.29332
1.2953
1.29688
1.2931
1.2931
1.2931
1.2931
1.2931
1.29311
1.29311
1.29311
1.29311
1.29311
1.29311
1.29311
1.29311
1.29312
1.29312
1.29313
1.29314
1.29315
1.29317
1.29339
1.29675
1.2994
1.29913
1.2931
1.2931
1.2931
1.2931
1.2931
1.2931
1.29311
1.29311
1.29311
1.29311
1.29311
1.29311
1.29311
1.29312
1.29312
1.29313
1.29315
1.29316
1.29332
1.29682
1.29938
1.29907
1.2941
1.2931
1.2931
1.29311
1.29311
1.29311
1.29311
1.29311
1.29311
1.29311
1.29311
1.29311
1.29311
1.29311
1.29312
1.29312
1.29314
1.29315
1.29315
1.29491
1.29927
1.29897
1.29374
1.29307
1.2931
1.2931
1.2931
1.29311
1.29311
1.29311
1.29311
1.29311
1.29311
1.29311
1.29311
1.29311
1.29311
1.29312
1.29313
1.29314
1.29314
1.29312
1.29567
1.29786
1.29364
1.29303
1.29308
1.29311
1.29311
1.29311
1.29311
1.29311
1.29311
1.29311
1.29311
1.29311
1.29311
1.29311
1.29311
1.29311
1.29312
1.29313
1.29314
1.29313
1.29342
1.29376
1.29296
1.29297
1.29304
1.29307
1.29311
1.29311
1.29311
1.29311
1.29311
1.29311
1.29311
1.29311
1.29311
1.29311
1.29311
1.29312
1.29312
1.29312
1.29313
1.29313
1.29316
1.29315
1.29296
1.29292
1.29297
1.29303
1.29307
1.29312
1.29312
1.29312
1.29312
1.29312
1.29312
1.29312
1.29312
1.29312
1.29312
1.29312
1.29313
1.29313
1.29313
1.29314
1.29314
1.29311
1.29299
1.2929
1.29289
1.29297
1.29302
1.29306
1.29313
1.29313
1.29313
1.29313
1.29313
1.29313
1.29313
1.29313
1.29313
1.29313
1.29314
1.29314
1.29314
1.29314
1.29315
1.29312
1.29303
1.2929
1.29285
1.29287
1.29296
1.29301
1.29305
1.29314
1.29314
1.29314
1.29314
1.29314
1.29314
1.29314
1.29315
1.29315
1.29315
1.29316
1.29317
1.29317
1.29318
1.29318
1.29311
1.29299
1.29289
1.29282
1.29286
1.29295
1.293
1.29304
1000.05
1000
999.515
841.55
1000.05
1000.04
1000.05
993.039
1000.05
1000.05
1000.05
1000.05
995.94
994.634
997.767
995.705
341.19
373.248
413.667
426.773
1.2934
1.29341
1.29341
1.29341
1.29336
1.29336
1.29337
1.29338
1.29337
1.2933
1.29331
1.29468
1.2948
1.29589
1.29567
1.29595
1.2942
1.29589
1.29574
1.29388
1.29338
1.29362
1.29361
1.29384
1.29325
1.29326
1.29423
1.29644
1.29324
1.29324
1.29514
1.30038
1.29324
1.29323
1.29415
1.29682
1.29323
1.29323
1.29335
1.29331
1.29323
1.29323
1.29323
1.29323
1.29323
1.29323
1.29322
1.29322
1.29322
1.29322
1.29322
1.29322
1.29322
1.29322
1.29322
1.29322
1.29322
1.29322
1.29322
1.29322
1.29321
1.29321
1.29321
1.29321
1.29321
1.29321
1.29321
1.29321
1.2932
1.2932
1.29321
1.29321
1.29319
1.29319
1.2932
1.2932
1.29317
1.29317
1.29318
1.29318
1.29314
1.29315
1.29315
1.29315
1.29313
1.29313
1.29313
1.29313
1.29313
1.29313
1.29313
1.29313
1.29313
1.29313
1.29313
1.29313
1.29315
1.29315
1.29315
1.29315
1.29316
1.29319
1.29319
1.29317
1.29366
1.29344
1.29328
1.29319
1.29482
1.29336
1.29325
1.29321
1.29356
1.29312
1.29313
1.29325
1.2931
1.29311
1.29313
1.29314
1.2931
1.29311
1.29311
1.29311
1.29309
1.2931
1.2931
1.2931
1.29309
1.29309
1.29309
1.2931
1.29308
1.29308
1.29309
1.29309
1.29307
1.29308
1.29308
1.29308
1.29307
1.29307
1.29307
1.29307
1.29306
1.29306
1.29306
1.29307
252.814
47.8664
52.1054
230.216
805.302
996.275
997.811
494.383
34.8948
1.81878
1.47284
1.75062
2.78587
1.32522
1.2974
1.29738
1.29732
11.096
774.857
838.971
818.301
935.834
1000.05
1000.05
1000.05
713.119
81.1527
1.4505
1.29757
1.29742
1.51081
1.32359
1.30654
1.29743
1.29736
1.29729
32.2464
771.318
999.448
999.861
1000.05
1000.05
1000.05
1000.05
315.215
3.2503
1.29749
1.29734
1.31492
1.38603
1.2973
1.29773
1.29743
1.29734
1.29723
39.9006
782.071
999.489
997.048
995.918
995.067
1000.05
946.926
96.4148
1.34749
1.29735
1.30744
1.33338
1.30587
1.29732
1.29745
1.29739
1.29733
1.29711
39.0271
783.172
585.963
652.455
717.241
776.681
959.65
800.591
41.3071
1.29723
1.29893
1.32571
1.33338
1.29721
1.29739
1.29744
1.29738
1.29732
1.29691
37.9448
793.524
1.87817
13.0754
90.0607
286.228
781.437
738.095
27.0027
1.29717
1.30016
1.315
1.31552
1.29729
1.29745
1.29742
1.29736
1.2973
1.2967
50.7466
839.95
1.29338
1.29338
2.37072
90.0456
568.111
719.286
14.4449
1.29714
1.2973
1.29781
1.29741
1.29735
1.29745
1.29741
1.29737
1.29732
1.29651
132.077
902.617
1.29737
1.29605
1.32485
10.4237
277.777
673.598
114.876
1.29713
1.29727
1.29721
1.29728
1.29737
1.29738
1.29737
1.2973
1.29754
1.2963
344.253
951.225
1.48826
2.18958
1.64739
2.18808
72.8645
445.267
545.306
43.5924
1.29742
1.29726
1.29726
1.29735
1.39422
1.31283
1.29694
1.3373
1.2965
543.422
974.575
1.30002
8.78576
40.6509
49.1221
49.1143
313.153
587.238
481.695
28.5932
1.29703
7.99352
37.6554
83.2193
39.8283
19.3826
23.4579
156.16
700.597
974.576
1.2965
2.5885
136.207
332.863
285.623
285.974
554.883
668.359
529.216
396.973
413.555
478.981
522.867
522.957
441.32
378.79
570.222
709.771
913.881
1.30105
2.37573
89.6395
370.002
520.601
530.208
530.197
706.152
707.78
707.829
696.824
397.808
246.326
246.314
342.619
307.5
263.566
263.658
765.937
1.31578
1.62154
1.29316
2.87211
167.989
431.284
628.211
707.779
707.828
707.779
705.66
378.335
327.649
292.615
354.642
453.671
464.613
604.83
952.393
1.29889
1.31868
1.29313
1.29316
1.29321
1.29322
27.5259
243.998
356.606
393.823
492.543
733.762
796.411
839.026
935.882
990.018
990.018
951.201
982.546
1.29347
1.29323
1.2932
1.30398
1.30332
1.2932
1.29318
1.29315
1.29313
1.2931
1.29305
71.558
239.904
385.893
610.936
917.277
990.018
990.018
979.836
1.29322
1.29321
1.2932
1.30063
1.30737
1.3011
1.29317
1.29404
1.2944
1.29446
1.29312
1.29305
1.29297
1.29285
1.29276
367.051
990.018
988.547
968.111
1.29322
1.29322
1.29321
1.29327
1.30244
1.32558
1.32038
1.30664
1.30969
1.29615
1.29328
1.29323
1.29632
1.30076
1.52906
65.6241
768.51
988.547
977.12
1.29322
1.29322
1.29322
1.2932
1.29317
1.31613
1.33524
1.33523
1.33523
1.29666
1.29444
1.29326
1.29665
1.30165
1.51866
7.67557
351.899
982.406
979.513
1.29322
1.29322
1.29321
1.29321
1.29319
1.29407
1.30453
1.33092
1.31696
1.29533
1.2932
1.29337
1.29397
1.29465
1.35252
6.49023
90.0997
528.642
787.731
1.29322
1.29321
1.29321
1.29321
1.2932
1.29318
1.29345
1.29635
1.294
1.29327
1.2932
1.29321
1.29322
1.29974
1.47313
1.49554
1.29593
24.5673
174.278
1.29321
1.29321
1.29321
1.29321
1.29321
1.2932
1.29319
1.29318
1.29319
1.29319
1.2932
1.29321
1.29325
1.30347
1.30686
1.29524
1.29598
1.29595
56.7605
1.29321
1.29321
1.29321
1.29321
1.29321
1.2932
1.2932
1.2932
1.2932
1.2932
1.29321
1.29321
1.29326
1.29485
1.29489
1.29522
1.31274
6.6568
88.5119
1.29321
1.29321
1.29321
1.29321
1.2932
1.2932
1.2932
1.2932
1.2932
1.2932
1.2932
1.2932
1.29321
1.2945
1.35114
2.20989
3.60476
30.2075
99.3006
1.2932
1.2932
1.2932
1.2932
1.2932
1.2932
1.2932
1.2932
1.2932
1.2932
1.2932
1.2932
1.2932
1.29397
1.6948
25.7122
83.5017
205.765
76.8002
1.29319
1.29319
1.2932
1.2932
1.2932
1.2932
1.2932
1.2932
1.2932
1.2932
1.2932
1.29319
1.2932
1.29384
1.97422
47.6709
235.907
235.907
76.8207
1.29316
1.29317
1.29318
1.29319
1.29319
1.29319
1.29319
1.29319
1.29319
1.29319
1.29319
1.29319
1.29319
1.29375
2.28939
41.8268
160.01
235.907
123.235
1.29314
1.29315
1.29316
1.29317
1.29318
1.29319
1.29319
1.29319
1.29319
1.29319
1.29319
1.29318
1.29318
1.29331
2.62759
6.4081
1.29346
81.3967
268.676
1.29313
1.29313
1.29314
1.29315
1.29316
1.29317
1.29318
1.29318
1.29318
1.29318
1.29318
1.29318
1.29317
1.29316
2.51577
1.29333
1.29318
1.29345
295.515
1.29313
1.29313
1.29313
1.29313
1.29314
1.29315
1.29317
1.29317
1.29318
1.29318
1.29318
1.29317
1.29317
1.29316
2.10473
1.30371
1.29463
1.29326
386.064
1.29315
1.29315
1.29314
1.29313
1.29313
1.29314
1.29315
1.29316
1.29317
1.29317
1.29317
1.29317
1.29318
1.29315
1.65788
1.30866
1.29465
1.293
411.804
1.29316
1.29316
1.29316
1.29315
1.29314
1.29314
1.29314
1.29315
1.29316
1.29317
1.29316
1.29317
1.29318
1.29315
1.59791
1.31897
1.29279
1.2928
411.757
1.29315
1.29315
1.29324
1.29323
1.29317
1.29315
1.29314
1.29314
1.29315
1.29316
1.29316
1.29316
1.29317
1.29315
1.5033
1.32663
1.29277
1.29266
411.804
1.29322
1.29313
1.29333
1.29366
1.29332
1.29318
1.29314
1.29314
1.29314
1.29315
1.29315
1.29316
1.29316
1.29315
1.39247
1.32306
1.29308
1.2926
411.721
1.29326
1.2932
1.29313
1.2994
1.31471
1.29311
1.29312
1.29313
1.29313
1.29314
1.29315
1.29316
1.29315
1.29314
1.30369
1.29924
1.29327
1.29259
225.667
1.29317
1.29322
1.29312
1.31178
1.46201
1.47119
1.32444
1.29344
1.29313
1.29314
1.29314
1.29315
1.29314
1.29314
1.29314
1.29366
1.29331
1.29261
115.195
1.29311
1.29321
1.29311
1.35233
1.47723
1.47722
1.43399
1.30321
1.29325
1.29313
1.29313
1.29314
1.29314
1.29314
1.29313
1.29324
1.2942
1.29265
106.948
1.2931
1.29312
1.29319
1.33228
1.47722
1.47721
1.47721
1.37133
1.29335
1.29312
1.29313
1.29314
1.29314
1.29314
1.29313
1.29578
1.29486
1.29282
127.146
1.29309
1.2931
1.29373
1.32991
1.4658
1.44699
1.46612
1.36274
1.29337
1.29311
1.29313
1.29313
1.29314
1.29314
1.29708
1.3044
1.29509
1.29273
124.806
1.29309
1.2931
1.29332
1.30309
1.31823
1.32546
1.31541
1.31182
1.29393
1.29311
1.29313
1.29313
1.29313
1.29482
1.30802
1.30701
1.29474
1.29279
108.397
1.29308
1.29308
1.29307
1.29306
1.29523
1.33497
1.3013
1.29309
1.29337
1.29312
1.29312
1.29313
1.29313
1.30068
1.30804
1.30431
1.29536
1.29285
71.5143
1.29307
1.29307
1.29306
1.29306
1.30197
1.3332
1.31
1.2931
1.29316
1.29311
1.29312
1.29313
1.29313
1.29693
1.30311
1.30255
1.29629
1.29291
11.754
1.29307
1.29306
1.29306
1.29305
1.29305
1.29305
1.29821
1.29309
1.29314
1.29316
1.29313
1.29312
1.29312
1.29319
1.29432
1.30257
1.29521
1.29292
2.33813
)
;

boundaryField
{
    leftWall
    {
        type            calculated;
        value           nonuniform List<scalar> 
50
(
1000.05
1000.05
1000.05
1000.05
1000.05
1000.05
1000.05
992.32
554.736
1.29337
1.29331
1.29327
1.29325
1.29325
1.29325
1.29325
1.29324
1.29324
1.29324
1.29324
1.29323
1.29323
1.29323
1.29322
1.29322
1.29321
1.29321
1.29319
1.29318
1.29316
1.29314
1.29313
1.29312
1.29311
1.2931
1.2931
1.2931
1.2931
1.2931
1.2931
1.2931
1.2931
1.2931
1.2931
1.2931
1.29311
1.29311
1.29312
1.29313
1.29314
)
;
    }
    rightWall
    {
        type            calculated;
        value           nonuniform List<scalar> 
50
(
766.686
775.943
768.967
763.709
829.303
829.303
829.302
801.43
774.857
771.318
782.071
783.172
793.524
839.95
902.617
951.225
974.575
974.576
913.881
765.937
952.393
982.546
979.836
968.111
977.12
979.513
787.731
174.278
56.7605
88.5119
99.3006
76.8002
76.8207
123.235
268.676
295.515
386.064
411.804
411.757
411.804
411.721
225.667
115.195
106.948
127.146
124.806
108.397
71.5143
11.754
2.33813
)
;
    }
    lowerWall
    {
        type            calculated;
        value           nonuniform List<scalar> 
62
(
1000.05
1000.05
1000.05
1000.05
1000.05
1000.05
1000.05
1000.05
1000.05
1000.05
1000.05
1000.05
1000.05
1000.05
1000.05
1000.05
1000.05
1000.05
1000.05
1000.05
1000.05
1000.05
999.84
999.84
999.766
999.766
999.766
999.929
1000.05
1000.05
1000.05
1000.05
1000
999.515
841.55
593.012
482.082
490.701
492.606
403.14
56.3898
29.242
122.541
593.012
593.001
605.726
679.076
718.714
736.643
741.125
741.124
747.916
747.915
747.914
747.914
745.87
746.442
770.175
776.509
776.509
776.283
766.686
)
;
    }
    atmosphere
    {
        type            calculated;
        value           nonuniform List<scalar> 
46
(
1.29323
1.29323
1.29323
1.29323
1.29323
1.29323
1.29323
1.29324
1.29324
1.29324
1.29325
1.29326
1.29326
1.29327
1.29326
1.2932
1.29307
1.29298
1.29291
1.29295
1.29304
1.2931
1.29313
1.29315
1.29316
1.29316
1.29316
1.29316
1.29316
1.29316
1.29315
1.29315
1.29315
1.29315
1.29319
1.29325
1.29326
1.29323
1.29322
1.29322
1.29328
1.29441
1.30266
1.29316
1.29302
2.33822
)
;
    }
    defaultFaces
    {
        type            empty;
    }
}


// ************************************************************************* //
