/*--------------------------------*- C++ -*----------------------------------*\
| =========                 |                                                 |
| \\      /  F ield         | OpenFOAM: The Open Source CFD Toolbox           |
|  \\    /   O peration     | Version:  2012                                  |
|   \\  /    A nd           | Website:  www.openfoam.com                      |
|    \\/     M anipulation  |                                                 |
\*---------------------------------------------------------------------------*/
FoamFile
{
    version     2.0;
    format      ascii;
    class       volScalarField;
    location    "0.61";
    object      rhogh;
}
// * * * * * * * * * * * * * * * * * * * * * * * * * * * * * * * * * * * * * //

dimensions      [1 -1 -2 0 0 0 0];


internalField   nonuniform List<scalar> 
2268
(
-29.4294
-29.4294
-29.4294
-29.4294
-29.4294
-29.4294
-29.4294
-29.4294
-29.4294
-29.4294
-29.4294
-29.4294
-29.4294
-29.4294
-29.4294
-29.4294
-29.4294
-29.4294
-29.4294
-29.4294
-29.4294
-29.4294
-29.4231
-88.2881
-88.2881
-88.2881
-88.2881
-88.2881
-88.2881
-88.2881
-88.2881
-88.2881
-88.2881
-88.2881
-88.2881
-88.2881
-88.2881
-88.2881
-88.2881
-88.2881
-88.2881
-88.2881
-88.2881
-88.2881
-88.2881
-88.2627
-147.147
-147.147
-147.147
-147.147
-147.147
-147.147
-147.147
-147.147
-147.147
-147.147
-147.147
-147.147
-147.147
-147.147
-147.147
-147.147
-147.147
-147.147
-147.147
-147.147
-147.147
-147.147
-147.104
-206.006
-206.006
-206.006
-206.006
-206.006
-206.006
-206.006
-206.006
-206.006
-206.006
-206.006
-206.006
-206.006
-206.006
-206.006
-206.006
-206.006
-206.006
-206.006
-206.006
-206.006
-206.006
-205.946
-264.864
-264.864
-264.864
-264.864
-264.864
-264.864
-264.864
-264.864
-264.864
-264.864
-264.864
-264.864
-264.864
-264.864
-264.864
-264.864
-264.864
-264.864
-264.864
-264.864
-264.864
-264.864
-264.831
-323.723
-323.723
-323.723
-323.723
-323.723
-323.723
-323.723
-323.723
-323.723
-323.723
-323.723
-323.723
-323.723
-323.723
-323.723
-323.723
-323.723
-323.723
-323.723
-323.723
-323.723
-323.723
-323.723
-382.581
-382.581
-382.581
-382.581
-382.582
-382.582
-382.582
-382.582
-382.582
-382.582
-382.582
-382.582
-382.582
-382.582
-382.582
-382.582
-382.582
-382.582
-382.582
-382.582
-382.582
-382.582
-382.582
-438.022
-438.124
-438.623
-439.215
-439.815
-440.248
-440.787
-441.126
-441.326
-441.44
-441.44
-441.44
-441.44
-441.44
-441.44
-441.44
-441.44
-441.44
-441.44
-441.44
-441.44
-441.44
-441.44
-17.4353
-17.4351
-17.8101
-19.9714
-21.1394
-21.6676
-21.7997
-21.7996
-21.9998
-21.9998
-21.9998
-21.9998
-21.9396
-21.9564
-22.6557
-22.8424
-22.8424
-22.8357
-22.5528
-42.5
-8.34276
-8.22791
-15.8511
-48.6697
-69.2316
-54.7208
-40.2261
-49.2756
-58.7095
-61.3315
-53.6855
-49.6242
-50.1416
-56.2987
-61.2333
-64.3618
-68.5069
-68.4768
-72.1036
-0.243175
-0.243131
-2.97739
-51.0329
-124.884
-128.979
-68.7946
-9.04469
-9.04506
-41.7458
-15.2054
-9.77617
-11.7053
-17.321
-20.5522
-28.1557
-74.8371
-113.1
-101.338
-1.13238
-4.35645e-17
-1.50635e-17
-3.30407
-123.637
-200.482
-188.572
-157.28
-101.114
-22.613
-0.412917
-0.340854
-0.0541111
-2.97315e-06
-2.99716e-06
-0.212424
-42.4238
-157.256
-106.566
-3.6166
-0.116485
-1.71348e-05
-1.71368e-05
-122.141
-257.762
-262.263
-262.263
-261.074
-192.249
-55.3285
-1.97465
-0.000472279
-3.82231e-06
-0.000720466
-0.699851
-35.9234
-219.582
-17.8556
-3.65584
-0.154673
-1.24998e-19
-4.49215
-247.8
-319.09
-320.544
-309.8
-297.699
-269.073
-103.253
-1.92667
-0.000306166
-4.66946e-06
-9.38764e-05
-0.165059
-27.4929
-268.378
-10.703
-5.6535
-0.0913285
-2.6888e-20
-66.9392
-342.428
-381.457
-377.843
-251.944
-130.346
-116.768
-64.0251
-3.73581
-0.000646564
-3.98696e-06
-1.19794e-07
-0.0138832
-10.91
-317.174
-53.5868
-10.7323
-1.35641
-8.36827e-17
-197.626
-430.735
-440.459
-372.715
-123.456
-23.4771
-7.52753
-6.05017
-2.77492
-0.0102097
-1.72017e-06
-1.38221e-07
-1.15694e-13
-5.58221
-353.65
-295.61
-300.644
-314.099
-329.941
-351.058
-374.32
-406.359
-438.312
-472.617
-505.481
-524.561
-533.443
-533.467
-533.467
-533.467
-533.467
-533.467
-533.467
-533.467
-533.467
-533.467
-533.467
-533.467
-4.41575e-36
-3.15039e-20
-0.567515
-5.86399
-15.5134
-28.9634
-49.4877
-76.2581
-118.034
-177.325
-264.637
-378.94
-503.542
-611.679
-658.662
-658.662
-658.662
-658.662
-658.662
-658.662
-658.662
-658.662
-658.662
-5.9074e-17
-1.67645e-15
-1.20467e-30
-1.05175e-30
7.52239e-29
-1.25116e-28
1.71611e-29
-6.8799e-31
1.2913e-19
-0.517447
-5.2767
-24.1356
-75.302
-169.013
-327.143
-493.357
-633.087
-771.552
-783.726
-783.645
-783.702
-783.843
-783.856
-4.42144e-15
-2.15513e-13
-6.71787e-12
-1.16488e-10
-1.32254e-09
-6.92035e-09
-8.65099e-09
-5.89029e-09
-6.30369e-08
-1.72073e-06
-1.5519e-20
-1.78505e-20
-0.0242404
-4.74773
-19.6551
-69.9027
-127.494
-255.484
-436.099
-595.524
-750.389
-849.288
-886.987
-1.49032e-14
-7.62545e-13
-2.06253e-11
-3.33659e-10
-3.48062e-09
-1.87514e-08
-3.16296e-08
-4.34151e-08
-3.10341e-08
-3.29099e-08
-9.83058e-06
-6.67287e-05
-8.74831e-06
-2.30355e-19
1.48882e-20
-0.189034
-1.23809e-09
-1.23809e-09
-10.6574
-17.5271
-65.8405
-161.045
-253.037
-1.09473e-14
-6.18311e-13
-1.80688e-11
-3.1772e-10
-3.69638e-09
-2.33062e-08
-4.59235e-08
-1.00193e-07
-1.10384e-07
-2.44813e-07
-0.000167309
-0.00132243
-0.0012931
-0.0023867
-0.00212207
-0.000669486
-8.37583e-05
-1.38796e-09
-1.38796e-09
-1.38796e-09
-1.38796e-09
-1.38796e-09
-1.38796e-09
-8.88923e-15
-4.60381e-13
-1.19097e-11
-1.89095e-10
-2.38172e-09
-1.67999e-08
-2.47064e-08
-1.25375e-07
-4.57578e-07
-3.23139e-07
-6.3226e-06
-0.00148856
-0.00270272
-0.00270272
-0.00116696
-0.000108416
-2.14736e-05
-1.10298e-05
-3.60399e-06
-0.000482272
-0.00178249
-0.000380069
-1.5379e-09
-4.462e-15
-2.23126e-13
-5.84585e-12
-9.27292e-11
-1.20247e-09
-8.82573e-09
-1.44336e-08
-1.69258e-07
-1.03004e-06
-7.88998e-06
-6.06955e-05
-8.86147e-05
-0.000501758
-7.80509e-05
-3.89966e-06
-1.73882e-05
-4.33468e-05
-4.30387e-05
-1.6462e-05
-0.000155711
-0.00056564
-0.000147391
-0.000194818
-1.7551e-15
-8.08677e-14
-2.06877e-12
-3.03672e-11
-3.44914e-10
-3.29818e-09
-3.01459e-09
-1.04665e-07
-1.222e-06
-5.21216e-06
-5.58275e-06
-4.6197e-07
-4.31567e-07
-1.85421e-07
-1.85417e-07
-1.92889e-06
-3.89079e-05
-5.25564e-05
-4.89205e-05
-1.32214e-05
-1.00194e-06
-2.89915e-06
-5.04024e-05
-6.58848e-16
-2.94488e-14
-7.4527e-13
-1.08221e-11
-1.16842e-10
-1.11472e-09
-2.22715e-09
-1.01525e-07
-8.00044e-07
-3.48614e-06
-2.14638e-06
-6.41765e-07
-2.25973e-07
-4.09036e-07
-6.64924e-07
-8.13636e-07
-6.30695e-06
-2.65342e-05
-2.51414e-05
-5.29819e-06
-7.93252e-07
-2.45294e-06
-2.93862e-05
-1.94546e-16
-8.13501e-15
-2.01034e-13
-2.81214e-12
-2.67374e-11
-2.77094e-10
-5.01305e-10
-3.71247e-08
-2.33029e-07
-2.6883e-07
-3.22224e-07
-2.7817e-07
-2.2823e-07
-3.96743e-07
-7.66469e-07
-8.2306e-07
-6.44376e-07
-1.44171e-06
-1.73053e-06
-1.26736e-06
-8.53077e-07
-2.65567e-06
-2.60814e-05
-5.11973e-17
-2.07323e-15
-5.03097e-14
-6.94981e-13
-6.60194e-12
-5.6254e-11
-2.84437e-10
-9.13042e-09
-4.43564e-08
-5.31114e-08
-7.00384e-08
-7.68184e-08
-9.30114e-08
-1.35941e-07
-3.36674e-07
-5.70428e-07
-5.15442e-07
-4.70346e-07
-4.1142e-07
-4.73619e-07
-5.91322e-07
-1.19671e-06
-4.80197e-06
-1.0746e-17
-4.10391e-16
-9.65265e-15
-1.30106e-13
-1.24186e-12
-9.56794e-12
-8.04416e-11
-1.4935e-09
-5.0668e-09
-1.06836e-08
-1.69803e-08
-1.87897e-08
-2.18125e-08
-2.83411e-08
-5.60848e-08
-1.2444e-07
-2.49068e-07
-3.22742e-07
-3.45723e-07
-3.71967e-07
-3.96902e-07
-3.52872e-07
-5.45615e-07
-1.84398e-18
-6.90018e-17
-1.61125e-15
-2.18189e-14
-2.15345e-13
-1.64641e-12
-2.13171e-11
-1.82954e-10
-6.73108e-10
-1.63211e-09
-2.72693e-09
-3.16007e-09
-3.84833e-09
-5.08071e-09
-9.09399e-09
-1.95524e-08
-4.81505e-08
-1.00333e-07
-1.88455e-07
-2.30253e-07
-2.42294e-07
-2.03937e-07
-1.72561e-07
-2.48848e-19
-8.99393e-18
-2.07745e-16
-2.83601e-15
-2.90383e-14
-2.27657e-13
-3.74699e-12
-1.82747e-11
-5.8698e-11
-1.40927e-10
-2.47623e-10
-3.25259e-10
-4.54965e-10
-6.99604e-10
-1.38893e-09
-3.03341e-09
-7.54603e-09
-1.73605e-08
-4.00696e-08
-6.24999e-08
-8.38655e-08
-8.90741e-08
-8.23301e-08
-2.59138e-20
-9.36072e-19
-2.19964e-17
-3.11069e-16
-3.35937e-15
-2.72536e-14
-4.61468e-13
-1.88136e-12
-4.76159e-12
-8.11747e-12
-1.31211e-11
-2.02935e-11
-3.74286e-11
-7.79975e-11
-1.91045e-10
-4.46193e-10
-1.08391e-09
-2.47913e-09
-6.13299e-09
-1.15125e-08
-1.93033e-08
-2.63787e-08
-3.10712e-08
-2.01782e-21
-7.34114e-20
-1.77588e-18
-2.63444e-17
-3.00147e-16
-2.47948e-15
-3.44061e-14
-1.52284e-13
-3.80538e-13
-5.68144e-13
-8.045e-13
-1.30373e-12
-2.953e-12
-7.84425e-12
-2.24373e-11
-5.64068e-11
-1.388e-10
-3.11805e-10
-7.75644e-10
-1.65528e-09
-3.33383e-09
-5.64625e-09
-8.35676e-09
-1.12542e-22
-4.30477e-21
-1.10813e-19
-1.76104e-18
-2.116e-17
-1.75239e-16
-1.62204e-15
-7.17645e-15
-1.91046e-14
-3.34868e-14
-5.15839e-14
-9.14058e-14
-2.26018e-13
-6.6137e-13
-2.02637e-12
-5.45852e-12
-1.42569e-11
-3.31186e-11
-8.38191e-11
-1.96104e-10
-4.58023e-10
-9.30398e-10
-1.68829e-09
-4.23163e-24
-1.76505e-22
-4.95424e-21
-8.47495e-20
-1.05744e-18
-8.6628e-18
-5.48525e-17
-2.0495e-16
-4.87755e-16
-9.47417e-16
-1.7827e-15
-4.19925e-15
-1.21802e-14
-3.9215e-14
-1.25794e-13
-3.65492e-13
-1.0537e-12
-2.68457e-12
-7.35092e-12
-1.89444e-11
-5.06935e-11
-1.21054e-10
-2.64826e-10
-9.85075e-26
-4.78266e-24
-1.50846e-22
-2.78751e-21
-3.57232e-20
-2.85543e-19
-1.53805e-18
-5.04191e-18
-1.16465e-17
-2.51549e-17
-5.62281e-17
-1.59195e-16
-4.88273e-16
-1.59724e-15
-5.15634e-15
-1.61072e-14
-5.23698e-14
-1.53147e-13
-4.85803e-13
-1.4235e-12
-4.42711e-12
-1.23778e-11
-3.24709e-11
-1.32746e-27
-7.21152e-26
-2.46946e-24
-4.78389e-23
-6.1961e-22
-4.84972e-21
-2.23991e-20
-7.59756e-20
-2.08847e-19
-5.93757e-19
-1.66828e-18
-4.99206e-18
-1.44241e-17
-4.44004e-17
-1.30598e-16
-4.33798e-16
-1.61914e-15
-5.68741e-15
-2.24273e-14
-7.80513e-14
-2.93562e-13
-9.73597e-13
-3.09208e-12
-1.7106e-29
-6.54339e-28
-1.67378e-26
-2.84009e-25
-3.98696e-24
-3.98606e-23
-2.35266e-22
-1.07978e-21
-4.11348e-21
-1.47613e-20
-4.50973e-20
-1.29269e-19
-3.23422e-19
-8.38642e-19
-2.09655e-18
-6.7581e-18
-2.76001e-17
-1.24241e-16
-6.58495e-16
-2.87157e-15
-1.38941e-14
-5.6298e-14
-2.22326e-13
-4.72045e-31
-1.89023e-29
-4.84456e-28
-8.04312e-27
-1.06814e-25
-1.02968e-24
-6.11813e-24
-2.78734e-23
-1.04164e-22
-3.51767e-22
-9.85987e-22
-2.51922e-21
-5.57306e-21
-1.19092e-20
-2.27609e-20
-6.04883e-20
-2.24508e-19
-1.29549e-18
-1.01879e-17
-6.1288e-17
-4.27243e-16
-2.23713e-15
-1.16334e-14
-6.43073e-33
-2.72314e-31
-6.95043e-30
-1.09526e-28
-1.23977e-27
-1.01962e-26
-6.52198e-26
-3.34216e-25
-1.34277e-24
-4.53073e-24
-1.21516e-23
-2.89111e-23
-6.00436e-23
-1.17989e-22
-2.03112e-22
-3.90195e-22
-1.39063e-21
-1.65281e-20
-2.92602e-19
-3.02309e-18
-1.64987e-17
-5.99538e-17
-4.16113e-16
-1.90591e-38
-5.6988e-37
-9.94869e-36
-1.06403e-34
-7.63167e-34
-2.9362e-33
-8.63615e-33
-3.91384e-32
-2.04009e-31
-9.04277e-31
-3.6557e-30
-6.31672e-29
-5.74591e-27
-4.34369e-25
-3.13856e-23
-1.52569e-21
-6.83461e-20
-1.82922e-18
-4.87717e-17
-7.92774e-16
-6.79447e-15
-1.13857e-14
-5.46338e-15
-1.00246e-42
-4.23634e-41
-1.07463e-39
-1.83191e-38
-2.44823e-37
-3.02572e-36
-6.24694e-35
-8.84902e-34
-9.14056e-33
-4.22214e-31
-5.10309e-29
-5.10643e-27
-4.88173e-25
-3.47811e-23
-2.28017e-21
-1.08259e-19
-4.61322e-18
-1.32759e-16
-3.66214e-15
-6.90615e-14
-7.49691e-13
-1.63411e-12
-1.283e-12
-4.04108e-46
-1.72235e-44
-4.19312e-43
-7.37913e-42
-3.32395e-40
-6.95225e-38
-1.49373e-35
-2.56465e-33
-3.77296e-31
-4.40953e-29
-4.73062e-27
-4.17007e-25
-3.40796e-23
-2.18566e-21
-1.25834e-19
-5.51594e-18
-2.14394e-16
-6.04711e-15
-1.58016e-13
-2.99847e-12
-3.22089e-11
-6.66209e-11
-6.13521e-11
-4.70389e-49
-3.54592e-46
-2.62882e-43
-1.23353e-40
-4.15277e-38
-1.05523e-35
-2.13198e-33
-3.42662e-31
-4.56582e-29
-4.90213e-27
-4.47667e-25
-3.28868e-23
-2.13796e-21
-1.17352e-19
-5.75587e-18
-2.2255e-16
-7.58225e-15
-1.96959e-13
-4.60788e-12
-8.02962e-11
-7.6535e-10
-1.33447e-09
-1.25171e-09
-2.84162e-47
-4.21485e-44
-2.99582e-41
-1.34825e-38
-4.33575e-36
-1.05336e-33
-2.02974e-31
-3.10891e-29
-3.90051e-27
-3.93647e-25
-3.30345e-23
-2.22581e-21
-1.25633e-19
-5.68587e-18
-2.24909e-16
-7.35198e-15
-2.11991e-13
-4.85589e-12
-9.79385e-11
-1.45104e-09
-1.1179e-08
-1.47655e-08
-1.30596e-08
-3.76412e-45
-5.28302e-42
-3.53685e-39
-1.49675e-36
-4.48977e-34
-1.01328e-31
-1.79061e-29
-2.52707e-27
-2.89637e-25
-2.67194e-23
-2.0213e-21
-1.23006e-19
-6.1412e-18
-2.45181e-16
-8.05941e-15
-2.12736e-13
-4.92945e-12
-9.51277e-11
-1.59926e-09
-1.8399e-08
-9.8103e-08
-8.99802e-08
-6.70793e-08
-2.78979e-43
-3.76916e-40
-2.42433e-37
-9.84228e-35
-2.82292e-32
-6.06779e-30
-1.01337e-27
-1.34281e-25
-1.44155e-23
-1.23735e-21
-8.60288e-20
-4.77676e-18
-2.14754e-16
-7.6856e-15
-2.2295e-13
-5.16349e-12
-9.8367e-11
-1.5255e-09
-2.08913e-08
-1.67696e-07
-5.00382e-07
-3.74288e-07
-3.29409e-07
-2.46584e-41
-3.13065e-38
-1.88476e-35
-7.12867e-33
-1.89267e-30
-3.73913e-28
-5.68641e-26
-6.80372e-24
-6.50551e-22
-4.99917e-20
-3.08902e-18
-1.51952e-16
-5.99386e-15
-1.87612e-13
-4.71388e-12
-9.46348e-11
-1.55367e-09
-2.08215e-08
-2.34251e-07
-1.35695e-06
-8.02335e-06
-7.71849e-05
-0.000282962
-9.01697e-40
-1.12628e-36
-6.66915e-34
-2.47481e-31
-6.41802e-29
-1.22913e-26
-1.79431e-24
-2.03512e-22
-1.81548e-20
-1.28099e-18
-7.20364e-17
-3.1833e-15
-1.11078e-13
-3.04146e-12
-6.61629e-11
-1.15264e-09
-1.6843e-08
-2.05333e-07
-2.74129e-06
-3.86622e-05
-0.000708573
-0.00977784
-0.017094
-5.05721e-38
-5.8445e-35
-3.18091e-32
-1.07691e-29
-2.53059e-27
-4.36265e-25
-5.69306e-23
-5.7278e-21
-4.49189e-19
-2.76073e-17
-1.33295e-15
-5.04727e-14
-1.49308e-12
-3.42668e-11
-6.15836e-10
-8.79825e-09
-1.02767e-07
-1.30126e-06
-4.94728e-05
-0.00109105
-0.0169624
-0.0294945
-0.0282342
-5.4441e-37
-6.56115e-34
-3.72782e-31
-1.31356e-28
-3.1878e-26
-5.60452e-24
-7.33448e-22
-7.24201e-20
-5.43171e-18
-3.0978e-16
-1.34309e-14
-4.39804e-13
-1.07901e-11
-1.95263e-10
-2.56206e-09
-2.39115e-08
-1.68196e-07
-6.44854e-06
-0.000847435
-0.0178313
-0.0302951
-0.0288632
-0.00491046
-1.71844e-35
-1.83519e-32
-9.1682e-30
-2.82553e-27
-5.96526e-25
-9.07657e-23
-1.02318e-20
-8.65829e-19
-5.52949e-17
-2.65849e-15
-9.56671e-14
-2.54477e-12
-4.91376e-11
-6.68342e-10
-6.13931e-09
-3.57185e-08
-1.56896e-07
-3.84118e-05
-0.00893588
-0.0306479
-0.0292852
-0.00349922
-8.80892e-07
-2.60483e-35
-3.22902e-32
-1.86584e-29
-6.58937e-27
-1.57639e-24
-2.6817e-22
-3.32171e-20
-3.02522e-18
-2.02768e-16
-9.93171e-15
-3.50677e-13
-8.74423e-12
-1.50417e-10
-1.72241e-09
-1.25237e-08
-5.38018e-08
-1.68433e-07
-5.33305e-05
-0.0132966
-0.0245752
-0.00331604
-5.88915e-08
-9.03518e-07
-3.95494e-34
-4.29567e-31
-2.16847e-28
-6.675e-26
-1.38817e-23
-2.04734e-21
-2.19453e-19
-1.72588e-17
-9.96848e-16
-4.19724e-14
-1.27113e-12
-2.72681e-11
-4.07952e-10
-4.12049e-09
-2.77081e-08
-1.41945e-07
-8.69885e-06
-0.00187579
-0.00401055
-1.04516e-08
-1.04513e-08
-6.03547e-08
-2.68052e-07
-6.3266e-35
-4.8327e-32
-3.22617e-29
-1.32932e-26
-3.71825e-24
-7.36787e-22
-1.05169e-19
-1.08718e-17
-8.11616e-16
-4.35637e-14
-1.6821e-12
-4.75088e-11
-1.02505e-09
-1.79545e-08
-2.59416e-07
-6.79492e-06
-0.000315992
-0.000787004
-0.000117217
-1.07046e-08
-5.46577e-08
-3.79282e-08
-2.21553e-07
-5.38307e-34
-6.87198e-31
-4.07915e-28
-1.473e-25
-3.58245e-23
-6.15212e-21
-7.64866e-19
-6.96291e-17
-4.67316e-15
-2.3192e-13
-8.56588e-12
-2.36553e-10
-4.92169e-09
-7.74623e-08
-1.02445e-06
-1.96578e-05
-0.000139054
-0.000140158
-3.73377e-06
-5.57255e-08
-9.97961e-08
-3.85009e-08
-2.44142e-07
-1.89458e-35
-1.95412e-32
-1.33205e-29
-5.85138e-27
-1.83892e-24
-4.38907e-22
-8.03071e-20
-1.12677e-17
-1.18189e-15
-9.03905e-14
-4.8764e-12
-1.80205e-10
-4.47446e-09
-7.54749e-08
-9.156e-07
-4.13263e-06
-3.11134e-06
-3.15401e-06
-1.22638e-05
-1.89679e-06
-2.25689e-08
-1.73335e-08
-1.24804e-07
-1.06616e-34
-1.44794e-31
-9.27792e-29
-3.69855e-26
-1.01973e-23
-2.0474e-21
-3.07688e-19
-3.50099e-17
-3.02156e-15
-1.95944e-13
-9.37467e-12
-3.21236e-10
-7.58635e-09
-1.18638e-07
-1.26532e-06
-1.73765e-05
-0.000191456
-0.0003028
-4.54476e-05
-3.13473e-28
-4.78831e-10
-3.43576e-09
-1.82451e-08
-533.467
-533.438
-533.179
-448.805
-658.662
-658.656
-658.662
-654.036
-783.856
-783.856
-783.856
-783.856
-905.306
-904.117
-906.97
-905.093
-351.973
-385.169
-427.025
-440.596
-1.38796e-09
-1.38796e-09
-1.38796e-09
-1.38796e-09
-1.53783e-09
-6.53388e-07
-7.40452e-06
-1.47074e-05
-0.000116997
-9.24961e-08
-9.24945e-08
-0.00191559
-0.00234452
-0.00401414
-0.00365307
-0.00407424
-0.00156014
-0.00435098
-0.00410632
-0.00101901
-0.000212431
-0.000639888
-0.000639374
-0.00105446
-3.59617e-06
-2.7987e-05
-0.00188417
-0.00615117
-2.79205e-07
-7.202e-06
-0.00387764
-0.0145815
-1.52854e-07
-2.18399e-08
-0.00197669
-0.0077746
-3.41442e-08
-2.31854e-08
-0.000264935
-0.000183401
-2.39199e-08
-2.69106e-07
-1.71611e-06
-6.23703e-07
-1.107e-08
-8.16015e-08
-1.14018e-07
-9.99885e-08
-2.44972e-09
-8.37819e-09
-1.73641e-08
-2.3873e-08
-4.15444e-10
-8.64352e-10
-1.9469e-09
-3.58569e-09
-5.53417e-11
-9.37442e-11
-1.93081e-10
-3.86814e-10
-5.73499e-12
-9.39086e-12
-1.77164e-11
-3.55332e-11
-4.5036e-13
-7.68496e-13
-1.4242e-12
-2.84139e-12
-2.60309e-14
-4.79869e-14
-9.29094e-14
-1.90916e-13
-1.04996e-15
-2.18166e-15
-4.58565e-15
-1.03283e-14
-1.7016e-15
-5.54392e-16
-4.83935e-16
-5.86627e-16
-9.03983e-13
-5.72563e-13
-3.19968e-13
-1.09984e-13
-5.31397e-11
-4.65144e-11
-4.36959e-11
-4.06639e-11
-1.11173e-09
-1.20118e-09
-1.64044e-09
-2.62632e-09
-1.13148e-08
-1.88288e-08
-4.07248e-08
-8.61421e-08
-6.08221e-08
-5.4558e-07
-1.40284e-06
-2.3774e-06
-3.28753e-06
-0.000113221
-0.000125501
-6.6027e-05
-0.00225745
-0.0012989
-0.000594794
-0.000184793
-0.00774156
-0.00105749
-0.000575779
-0.000368473
-0.00212743
-4.27511e-05
-8.97802e-05
-0.000635613
-1.02634e-05
-4.39009e-05
-8.22658e-05
-0.000147721
-1.05322e-05
-2.64316e-05
-7.62595e-06
-1.7233e-07
-2.27069e-06
-6.25612e-07
-6.25458e-07
-1.4273e-06
-5.35318e-07
-1.27907e-06
-3.17195e-06
-6.65915e-06
-8.97315e-07
-2.39562e-06
-5.43854e-06
-1.12231e-05
-9.83883e-07
-2.62858e-06
-5.89774e-06
-1.19946e-05
-5.89156e-07
-1.73971e-06
-2.69344e-06
-2.58313e-06
-4.54735e-08
-3.90805e-08
-2.18118e-09
1.81758e-25
-134.341
-24.8728
-27.1366
-122.272
-429.444
-531.448
-532.269
-263.372
-17.9447
-0.27805
-0.0935358
-0.24182
-0.794921
-0.014909
-6.87472e-08
-2.98306e-07
-1.39467e-13
-5.23376
-413.182
-552.43
-538.799
-616.309
-658.662
-658.662
-658.662
-469.433
-52.6622
-0.100578
-4.67419e-06
-4.67419e-06
-0.140736
-0.0172882
-0.00608109
-8.48801e-08
-5.87313e-07
-1.72624e-13
-20.4103
-507.815
-783.381
-783.705
-783.855
-783.855
-783.856
-783.856
-246.371
-1.53206
-5.56263e-06
-5.56263e-06
-0.013869
-0.0697129
-5.01962e-08
-0.000271996
-1.01014e-07
-7.98288e-07
-2.04927e-13
-30.2972
-612.776
-908.537
-906.315
-905.287
-904.511
-909.05
-860.695
-86.5729
-0.045585
-0.000125523
-0.00935255
-0.0329771
-0.0079193
-5.82133e-08
-2.90808e-07
-2.07899e-07
-5.55126e-07
-2.38246e-13
-34.3412
-711.648
-605.442
-674.296
-741.384
-802.935
-992.406
-827.695
-41.4302
-2.81032e-13
-0.00184502
-0.0295573
-0.0374977
-6.5982e-08
-8.40266e-08
-2.50506e-07
-2.82983e-07
-3.38749e-07
-2.70175e-13
-37.9501
-820.377
-0.678839
-13.6774
-103.048
-330.774
-905.651
-855.335
-29.8399
-3.14998e-13
-0.00347531
-0.0206926
-0.0212279
-7.42476e-08
-3.02759e-07
-8.38983e-07
-3.38831e-07
-1.65756e-06
-3.03816e-13
-57.4055
-973.578
-1.0872e-05
-1.09779e-05
-1.38569
-114.156
-729.057
-923.501
-16.9101
-3.49069e-13
-0.000163303
-0.000790222
-0.000156738
-1.12266e-06
-1.24697e-06
-8.70567e-07
-4.59159e-07
-8.2703e-05
-3.35584e-13
-168.214
-1159.31
-0.00570341
-0.00385377
-0.0444697
-12.8882
-390.279
-949.01
-160.325
-3.83021e-13
-3.29413e-07
-4.31548e-07
-3.09687e-07
-4.85016e-07
-1.02269e-06
-2.51402e-05
-8.87853e-06
-0.000574533
-3.69333e-13
-484.111
-1340.9
-0.299635
-1.37752
-0.544211
-1.37518
-110
-682.355
-836.106
-65.0033
-3.37248e-07
-3.37188e-07
-3.37248e-07
-3.37188e-07
-0.14913
-0.0243329
-9.66687e-06
-0.0620744
-4.01029e-13
-833.211
-1495.86
-0.0112593
-12.4547
-65.4234
-79.5048
-79.4916
-518.398
-974.001
-798.557
-45.3729
-3.64754e-07
-11.1303
-60.4354
-136.178
-64.0485
-30.0617
-36.8356
-257.425
-1162.44
-1617.87
-0.00590027
-2.31561
-241.176
-592.723
-508.276
-508.903
-989.611
-1192.46
-943.727
-707.323
-736.967
-853.924
-932.377
-932.539
-786.601
-674.82
-1017.03
-1266.49
-1631.37
-0.0150887
-2.07103
-169.005
-705.331
-993.425
-1011.8
-1011.78
-1348.38
-1351.49
-1351.59
-1330.53
-758.519
-468.737
-468.714
-652.944
-585.761
-501.716
-501.893
-1462.75
-0.0460777
-0.669414
-7.81908e-07
-3.21834
-339.781
-876.462
-1277.86
-1440.05
-1440.15
-1440.05
-1435.73
-768.531
-665.217
-593.805
-720.235
-922.089
-944.393
-1230.2
-1938.65
-0.0123143
-0.055224
-8.29993e-07
-8.29993e-07
-8.29993e-07
-8.29993e-07
-56.7591
-525.135
-768.783
-849.309
-1062.91
-1584.83
-1720.38
-1812.58
-2022.15
-2139.28
-2139.28
-2055.3
-2123.11
-0.000571188
-9.39818e-05
-8.09858e-05
-0.024787
-0.0232079
-8.78078e-07
-8.78078e-07
-8.78078e-07
-8.78078e-07
-8.78078e-07
-8.78078e-07
-160.838
-546.186
-880.359
-1395.49
-2096.71
-2263.22
-2263.22
-2239.91
-5.53279e-07
-5.66135e-07
-9.1664e-08
-0.0180214
-0.0342632
-0.019098
-9.26162e-07
-0.00214541
-0.00299118
-0.00316955
-9.26162e-07
-9.26162e-07
-9.26162e-07
-9.26162e-07
-9.26162e-07
-883.079
-2387.16
-2383.6
-2334.26
-5.10633e-08
-1.65153e-07
-9.64232e-08
-0.000216508
-0.0235494
-0.0822561
-0.0690651
-0.034198
-0.041941
-0.0075513
-0.000232176
-0.0001386
-0.00805101
-0.0195221
-0.599773
-163.384
-1948.52
-2507.36
-2478.34
-2.0034e-08
-7.21191e-08
-1.04087e-07
-3.09863e-06
-1.31874e-07
-0.0611992
-0.112103
-0.112103
-0.112103
-0.00927375
-0.00331358
-0.000145438
-0.00917736
-0.0226257
-0.601305
-17.0108
-934.393
-2614.74
-2607.03
-4.35818e-09
-2.29057e-08
-7.89605e-08
-2.72919e-07
-1.38086e-07
-0.002527
-0.031723
-0.105363
-0.0663882
-0.00603013
-2.01476e-05
-0.000458581
-0.00211248
-0.00408782
-0.165752
-14.5026
-247.809
-1471.53
-2194.5
-6.77584e-10
-5.35165e-09
-3.95792e-08
-1.7797e-07
-1.44289e-07
-1.44289e-07
-0.000811903
-0.0092881
-0.0024132
-0.000273232
-2.10536e-05
-4.89912e-07
-4.94762e-07
-0.0190443
-0.524672
-0.590098
-0.00817754
-67.8627
-504.385
-8.33973e-11
-9.20239e-10
-1.09284e-08
-5.79935e-08
-1.1805e-07
-1.55873e-07
-3.57164e-06
-2.94624e-06
-9.90318e-07
-1.79315e-07
-1.79314e-07
-5.10221e-07
-0.000111638
-0.031206
-0.0414812
-0.00620228
-0.00852954
-0.00852909
-168.683
-8.5667e-12
-1.21645e-10
-2.11035e-09
-1.42912e-08
-5.80653e-08
-1.61883e-07
-2.25355e-07
-1.71184e-07
-1.51954e-07
-1.86705e-07
-3.88348e-07
-3.88346e-07
-0.000165808
-0.0051978
-0.00530918
-0.0064587
-0.0620752
-16.984
-276.176
-8.11818e-13
-1.39526e-11
-3.16184e-10
-2.85923e-09
-1.66776e-08
-8.74417e-08
-1.393e-07
-1.42664e-07
-1.56631e-07
-2.30013e-07
-6.33065e-07
-1.28024e-06
-6.56646e-06
-0.00428077
-0.190748
-3.01786
-7.60963
-95.1815
-322.623
-9.61956e-14
-2.15795e-12
-4.50488e-11
-5.13244e-10
-3.9278e-09
-2.12685e-08
-4.84572e-08
-8.39665e-08
-1.40033e-07
-3.00436e-07
-1.03519e-06
-1.51906e-06
-1.87473e-06
-0.00265873
-1.37242
-83.4443
-280.922
-698.716
-258.021
-1.5539e-14
-5.73514e-13
-8.83992e-12
-1.05568e-10
-9.45994e-10
-5.51957e-09
-1.82103e-08
-4.76114e-08
-1.20378e-07
-4.26562e-07
-1.19918e-06
-1.27731e-06
-2.5488e-06
-0.00232335
-2.41265
-164.294
-831.125
-831.125
-267.559
-2.53187e-14
-1.48061e-13
-2.11141e-12
-2.59727e-11
-2.58913e-10
-1.77273e-09
-8.44094e-09
-3.17307e-08
-1.07352e-07
-4.24766e-07
-1.23848e-06
-2.05659e-07
-8.32856e-06
-0.00210563
-3.65402
-148.672
-582.153
-860.534
-447.268
-1.77994e-11
-2.83144e-12
-1.65345e-12
-7.77833e-12
-7.9268e-11
-6.66124e-10
-4.30406e-09
-2.1566e-08
-9.31235e-08
-4.02772e-07
-1.18493e-06
-2.12757e-07
-1.66213e-07
-0.000546132
-5.0617
-19.4016
-0.00060315
-303.85
-1014.25
-2.14207e-09
-8.24458e-10
-1.65113e-10
-3.71409e-11
-4.68779e-11
-2.5931e-10
-2.13361e-09
-1.42095e-08
-7.63975e-08
-3.74013e-07
-1.00445e-06
-3.15943e-07
-1.71086e-07
-1.71706e-07
-4.79077
-0.000623081
-0.000622093
-2.8398e-17
-1152.93
-6.77633e-08
-5.24171e-08
-1.94278e-08
-4.27845e-09
-9.01889e-10
-4.83441e-10
-1.28463e-09
-7.88457e-09
-5.64596e-08
-3.47947e-07
-6.6043e-07
-1.94756e-07
-2.67362e-05
-1.76558e-07
-3.28183
-0.0430856
-0.00718166
1.41643e-22
-1555.99
-1.09166e-06
-1.14963e-06
-6.58638e-07
-1.35434e-07
-4.28902e-08
-1.2124e-08
-4.56444e-09
-7.68629e-09
-4.31004e-08
-3.01921e-07
-2.11113e-07
-1.83119e-07
-9.54465e-05
-1.82691e-07
-1.52053
-0.0652122
-0.00775788
9.97618e-23
-1711.53
-8.48902e-06
-5.34275e-06
-7.39421e-06
-3.12247e-06
-9.63274e-09
-9.62782e-09
-2.87454e-08
-2.13564e-08
-3.57149e-08
-1.84607e-07
-1.36244e-07
-7.52788e-06
-0.0001001
-1.87504e-07
-1.30876
-0.111509
-8.76855e-05
-3.05409e-25
-1762.79
-3.31966e-05
-5.49872e-06
-0.000438474
-0.000362013
-9.95959e-05
-1.10968e-05
-1.69773e-06
-3.98278e-07
-1.22968e-07
-1.40225e-07
-1.40225e-07
-2.37689e-05
-8.28912e-05
-1.93676e-07
-0.928846
-0.148583
1.05355e-21
1.74358e-24
-1814.45
-0.000422366
-6.00385e-06
-0.000886186
-0.00241112
-0.000879964
-0.000232527
-7.39992e-06
-1.02426e-06
-7.34988e-07
-3.95252e-07
-1.44197e-07
-3.37252e-05
-3.9419e-05
-1.9845e-07
-0.451435
-0.136425
-0.00124371
-1.09167e-23
-1865.53
-0.000636076
-0.000346746
-3.07239e-05
-0.0293506
-0.100895
-5.52506e-07
-5.52474e-07
-5.49008e-07
-5.49096e-07
-5.49022e-07
-1.4821e-07
-2.92099e-05
-2.26444e-05
-2.04662e-07
-0.0492679
-0.028835
-0.00178331
-1.31797e-22
-1047.98
-0.000266729
-0.000498196
-3.12538e-05
-0.0895656
-0.810102
-0.854139
-0.150299
-0.00156344
-6.549e-06
-9.71235e-07
-6.85146e-07
-1.2584e-05
-1.04623e-05
-2.40988e-06
-3.63979e-05
-0.00265246
-0.00176144
6.00752e-22
-546.278
-1.73955e-07
-0.000501944
-3.2373e-05
-0.291521
-0.90629
-0.906282
-0.693517
-0.049778
-0.0006949
-2.63961e-06
-1.20188e-06
-3.80054e-06
-4.33285e-06
-2.0474e-06
-1.61687e-06
-0.000576796
-0.00604662
6.72662e-21
-519.971
-5.15155e-06
-0.000105761
-0.000500009
-0.197815
-0.929365
-0.929373
-0.929365
-0.394915
-0.00127071
-2.98841e-06
-1.6114e-06
-2.38099e-06
-2.16789e-06
-1.65805e-06
-1.65841e-06
-0.013414
-0.00945629
-0.000666663
-635.148
-1.405e-05
-6.48265e-05
-0.00338792
-0.190553
-0.893444
-0.796218
-0.895165
-0.360348
-0.00142308
-3.20601e-06
-2.58672e-06
-3.1682e-06
-1.94237e-06
-1.6996e-06
-0.0203961
-0.0583279
-0.0107838
-1.98731e-21
-638.821
-2.93222e-05
-0.000107514
-0.00131142
-0.0531109
-0.13331
-0.171671
-0.118402
-0.0993053
-0.00446106
-4.24534e-06
-6.33044e-06
-9.09898e-06
-1.74079e-06
-0.00895506
-0.0788845
-0.0735769
-0.00919365
1.88894e-21
-567.379
-3.03741e-05
-4.65267e-05
-1.64968e-05
-5.93315e-06
-0.0118361
-0.22729
-0.0447087
-0.00012095
-0.00150518
-9.36264e-05
-1.06465e-05
-1.18759e-05
-1.7816e-06
-0.0409325
-0.0808354
-0.0606766
-0.0127307
2.07508e-21
-380.796
-6.87568e-07
1.32581e-24
2.98264e-24
-6.06908e-06
-0.0494456
-0.222695
-0.0939376
-0.000123746
-0.000348638
-1.32879e-05
-9.96875e-06
-9.96829e-06
-1.82318e-06
-0.0210852
-0.0553955
-0.0523112
-0.018011
4.95695e-22
-58.0404
6.90233e-25
4.47702e-24
2.64103e-23
1.23165e-22
9.1843e-23
-1.05628e-21
-0.0292449
-0.000126542
-0.000369346
-0.000352666
-0.000152574
-4.70407e-05
-3.8826e-06
-0.000353057
-0.00673578
-0.0535727
-0.0121732
-2.42565e-21
-5.93118
)
;

boundaryField
{
    leftWall
    {
        type            calculated;
        value           nonuniform List<scalar> 
50
(
-29.4294
-88.2881
-147.147
-206.006
-264.864
-323.723
-382.581
-438.022
-295.61
-4.41575e-36
-5.9074e-17
-4.42144e-15
-1.49032e-14
-1.09473e-14
-8.88923e-15
-4.462e-15
-1.7551e-15
-6.58848e-16
-1.94546e-16
-5.11973e-17
-1.0746e-17
-1.84398e-18
-2.48848e-19
-2.59138e-20
-2.01782e-21
-1.12542e-22
-4.23163e-24
-9.85075e-26
-1.32746e-27
-1.7106e-29
-4.72045e-31
-6.43073e-33
-1.90591e-38
-1.00246e-42
-4.04108e-46
-4.70389e-49
-2.84162e-47
-3.76412e-45
-2.78979e-43
-2.46584e-41
-9.01697e-40
-5.05721e-38
-5.4441e-37
-1.71844e-35
-2.60483e-35
-3.95494e-34
-6.3266e-35
-5.38307e-34
-1.89458e-35
-1.06616e-34
)
;
    }
    rightWall
    {
        type            calculated;
        value           nonuniform List<scalar> 
50
(
-22.5528
-68.4768
-113.1
-157.256
-219.582
-268.378
-317.174
-353.65
-413.182
-507.815
-612.776
-711.648
-820.377
-973.578
-1159.31
-1340.9
-1495.86
-1617.87
-1631.37
-1462.75
-1938.65
-2123.11
-2239.91
-2334.26
-2478.34
-2607.03
-2194.5
-504.385
-168.683
-276.176
-322.623
-258.021
-267.559
-447.268
-1014.25
-1152.93
-1555.99
-1711.53
-1762.79
-1814.45
-1865.53
-1047.98
-546.278
-519.971
-635.148
-638.821
-567.379
-380.796
-58.0404
-5.93118
)
;
    }
    lowerWall
    {
        type            calculated;
        value           nonuniform List<scalar> 
62
(
0
0
0
0
0
0
0
0
0
0
0
0
0
0
0
0
0
0
0
0
0
0
0
-29.4231
-88.2627
-147.104
-205.946
-264.831
-323.723
-382.582
-441.44
-470.87
-470.844
-470.616
-396.142
-17.4353
-42.5
-72.1036
-101.338
-106.566
-17.8556
-10.703
-53.5868
0
0
0
0
0
0
0
0
0
0
0
0
0
0
0
0
0
0
0
)
;
    }
    atmosphere
    {
        type            calculated;
        value           nonuniform List<scalar> 
46
(
-1.07793e-34
-1.46394e-31
-9.38041e-29
-3.73941e-26
-1.03099e-23
-2.07002e-21
-3.11087e-19
-3.53966e-17
-3.05494e-15
-1.98109e-13
-9.47823e-12
-3.24784e-10
-7.67016e-09
-1.19949e-07
-1.27929e-06
-1.75684e-05
-0.000193571
-0.000306145
-0
-0
-0
-0
-0
-0
-0
-0
-0
-0
-0
-0
-0
-0
-0
-0
-0.00012794
-0.000373426
-0.000356562
-0.00015426
-4.75604e-05
-3.92549e-06
-0.000356957
-0.00681019
-0.0541645
-0
-0
-5.99671
)
;
    }
    defaultFaces
    {
        type            empty;
    }
}


// ************************************************************************* //
