/*--------------------------------*- C++ -*----------------------------------*\
| =========                 |                                                 |
| \\      /  F ield         | OpenFOAM: The Open Source CFD Toolbox           |
|  \\    /   O peration     | Version:  2012                                  |
|   \\  /    A nd           | Website:  www.openfoam.com                      |
|    \\/     M anipulation  |                                                 |
\*---------------------------------------------------------------------------*/
FoamFile
{
    version     2.0;
    format      ascii;
    class       volVectorField;
    location    "0.61";
    object      U;
}
// * * * * * * * * * * * * * * * * * * * * * * * * * * * * * * * * * * * * * //

dimensions      [0 1 -1 0 0 0 0];


internalField   nonuniform List<vector> 
2268
(
(0.00468455 -0.00333292 0)
(0.0187846 -0.00364192 0)
(0.0310905 -0.00317194 0)
(0.0412354 -0.00253556 0)
(0.0479585 -0.00216983 0)
(0.0546154 -0.00257697 0)
(0.0643782 -0.00211104 0)
(0.0671985 -0.00106581 0)
(0.067768 -0.000405604 0)
(0.0683949 0.000183313 0)
(0.0648214 0.00125052 0)
(0.0602516 0.00212544 0)
(0.0537569 0.00206585 0)
(0.0493099 0.00160525 0)
(0.0441558 0.0012411 0)
(0.0392135 0.000557653 0)
(0.033005 0.000351712 0)
(0.0282796 -0.000887615 0)
(0.0240395 -0.00119126 0)
(0.0208081 -0.00229645 0)
(0.0180519 -0.0028279 0)
(0.0147585 -0.00493718 0)
(0.0152147 0.00768735 0)
(0.00451177 -0.00775633 0)
(0.0186637 -0.00883556 0)
(0.0309994 -0.00743643 0)
(0.0416322 -0.00543209 0)
(0.0486193 -0.00414964 0)
(0.0554319 -0.00517573 0)
(0.0647586 -0.00383017 0)
(0.0675218 -0.000528336 0)
(0.0680785 -0.000150067 0)
(0.0697025 0.00120953 0)
(0.0648907 0.00260892 0)
(0.0606289 0.0030945 0)
(0.0545261 0.00311877 0)
(0.0494084 0.00291908 0)
(0.0437444 0.00354587 0)
(0.0386208 0.00469491 0)
(0.0325872 0.00482946 0)
(0.0282689 0.00510371 0)
(0.0236022 0.00472724 0)
(0.0190764 0.00509955 0)
(0.0135053 0.00566856 0)
(0.00501787 0.00623414 0)
(-0.00310126 0.00641764 0)
(0.00414337 -0.014292 0)
(0.0187939 -0.0161663 0)
(0.031126 -0.0140346 0)
(0.0424057 -0.0108718 0)
(0.0498372 -0.00870559 0)
(0.056969 -0.010221 0)
(0.0653544 -0.00784775 0)
(0.0676764 -0.00265667 0)
(0.0686266 -0.00145425 0)
(0.0693892 0.00166924 0)
(0.0647837 0.00553897 0)
(0.0608589 0.00701083 0)
(0.0554124 0.00737725 0)
(0.0502225 0.00668705 0)
(0.044192 0.00634925 0)
(0.0387804 0.00582058 0)
(0.0330355 0.00526822 0)
(0.0296486 0.00335799 0)
(0.0261447 0.00320213 0)
(0.0227698 0.00250723 0)
(0.0182025 0.00391492 0)
(0.0117803 0.00302641 0)
(0.00219103 0.00876292 0)
(0.00394593 -0.0185843 0)
(0.0193259 -0.0215753 0)
(0.0313504 -0.0185832 0)
(0.0432431 -0.0142559 0)
(0.0513079 -0.0110103 0)
(0.0590948 -0.0124753 0)
(0.0665011 -0.0088548 0)
(0.0689108 -0.00203566 0)
(0.0709689 -0.00091968 0)
(0.0710425 0.00304566 0)
(0.0669244 0.00666312 0)
(0.0623291 0.00751539 0)
(0.0559743 0.00816299 0)
(0.0493112 0.00820824 0)
(0.042405 0.00897442 0)
(0.0370934 0.00994281 0)
(0.0317433 0.00915031 0)
(0.0287153 0.00831845 0)
(0.0242238 0.00794062 0)
(0.0213104 0.00876389 0)
(0.0162076 0.0107241 0)
(0.0114895 0.0135893 0)
(-0.00182783 0.0127075 0)
(0.00471933 -0.0253084 0)
(0.0197207 -0.0291354 0)
(0.0317431 -0.0253584 0)
(0.0441122 -0.0203282 0)
(0.05309 -0.0162326 0)
(0.0617525 -0.0174456 0)
(0.0677629 -0.0125427 0)
(0.0699656 -0.00482647 0)
(0.0724765 -0.00250893 0)
(0.0708781 0.00353583 0)
(0.0668557 0.00964862 0)
(0.0626251 0.0121747 0)
(0.0567142 0.0135367 0)
(0.0504833 0.0130877 0)
(0.044031 0.0121274 0)
(0.0379632 0.0108535 0)
(0.0321597 0.0092626 0)
(0.0298537 0.00692648 0)
(0.0262813 0.00679961 0)
(0.0239913 0.00638717 0)
(0.0190406 0.00879466 0)
(0.0148675 0.011847 0)
(0.00557329 0.0137936 0)
(0.00673227 -0.0301102 0)
(0.0202259 -0.0343197 0)
(0.0321657 -0.0300863 0)
(0.0449028 -0.0243072 0)
(0.0549325 -0.0193042 0)
(0.0647583 -0.0193421 0)
(0.0698214 -0.0126653 0)
(0.0730911 -0.00418462 0)
(0.0769158 -0.00127473 0)
(0.0746966 0.00574353 0)
(0.0700792 0.0105956 0)
(0.0649231 0.0122944 0)
(0.057293 0.0139155 0)
(0.0486225 0.0141861 0)
(0.0413227 0.0149191 0)
(0.0353373 0.0155249 0)
(0.0296993 0.0129823 0)
(0.0282171 0.0110346 0)
(0.0241792 0.0106298 0)
(0.0235896 0.0120252 0)
(0.0173544 0.0147574 0)
(0.0160818 0.0195333 0)
(0.00477363 0.0216814 0)
(0.0084364 -0.0380819 0)
(0.0211022 -0.0411862 0)
(0.0329593 -0.0370559 0)
(0.0459023 -0.0311293 0)
(0.0576575 -0.0256775 0)
(0.0682226 -0.0245596 0)
(0.0721729 -0.0165817 0)
(0.0759437 -0.00827933 0)
(0.0788885 -0.00335624 0)
(0.0743706 0.00669764 0)
(0.0699047 0.0142528 0)
(0.0650189 0.0182206 0)
(0.0585798 0.0212559 0)
(0.0508003 0.0206279 0)
(0.0441876 0.0184005 0)
(0.0366951 0.016338 0)
(0.0293489 0.0126731 0)
(0.0283388 0.0095607 0)
(0.0255096 0.00914142 0)
(0.0262588 0.00976614 0)
(0.0196049 0.0127577 0)
(0.0191782 0.0183329 0)
(0.0136756 0.0245701 0)
(0.00964438 -0.0440279 0)
(0.0223673 -0.0458632 0)
(0.03471 -0.0417637 0)
(0.0478702 -0.0359181 0)
(0.0614783 -0.0297814 0)
(0.0723802 -0.0260879 0)
(0.076686 -0.0161979 0)
(0.0826704 -0.00722566 0)
(0.0849091 -0.000408845 0)
(0.0802885 0.0100601 0)
(0.0763853 0.0150455 0)
(0.0684304 0.0176119 0)
(0.0593072 0.020631 0)
(0.0483125 0.0209649 0)
(0.0409473 0.0216244 0)
(0.0334883 0.022513 0)
(0.0262219 0.0169296 0)
(0.0263432 0.0127661 0)
(0.0239995 0.0114859 0)
(0.0268233 0.0145749 0)
(0.0191061 0.0176711 0)
(0.0226995 0.0216347 0)
(0.0169258 0.0359338 0)
(-1.29608 0.424497 0)
(-1.73133 0.0221727 0)
(-1.94853 -0.0105426 0)
(-1.84079 -0.0815009 0)
(-1.68471 -0.0942744 0)
(-1.54077 -0.0901508 0)
(-1.39267 -0.0749241 0)
(-1.355 0.0476063 0)
(-1.47693 0.0899193 0)
(-1.53899 0.0846263 0)
(-1.62287 0.041032 0)
(-1.7083 0.011724 0)
(-1.75385 0.0120663 0)
(-1.76927 0.00683344 0)
(-1.78081 0.00298684 0)
(-1.77904 -0.0141915 0)
(-1.70451 -0.0552169 0)
(-1.33597 -0.11711 0)
(-0.702168 -0.247778 0)
(-1.05913 0.855478 0)
(-1.0898 0.254788 0)
(-1.55779 0.0532583 0)
(-1.17495 -0.0317462 0)
(-1.02366 -0.0339429 0)
(-0.852873 -0.0318779 0)
(-0.740567 -0.00164099 0)
(-0.827792 -0.00874126 0)
(-1.13272 -0.0135122 0)
(-1.27905 -0.0241 0)
(-1.39831 0.0277453 0)
(-1.46611 0.0443772 0)
(-1.50114 0.0136049 0)
(-1.52144 0.00432841 0)
(-1.53193 0.00105187 0)
(-1.51221 -0.0194082 0)
(-1.39942 -0.133015 0)
(-0.971209 -0.309752 0)
(-0.576158 -0.625411 0)
(-1.07212 1.31762 0)
(-0.105088 0.222424 0)
(-1.71758 0.00149749 0)
(-0.834702 -0.298606 0)
(-0.700937 -0.231862 0)
(-0.175691 -0.2094 0)
(0.241195 -0.100556 0)
(0.492617 0.214216 0)
(0.290312 0.306536 0)
(0.133366 0.224858 0)
(-0.564603 0.131971 0)
(-0.981717 0.0543072 0)
(-1.58209 0.0332141 0)
(-1.67554 0.0193355 0)
(-1.65576 -0.00179109 0)
(-1.5255 -0.0730751 0)
(-1.43362 -0.28457 0)
(-0.898019 -0.461691 0)
(-0.34248 -0.901788 0)
(-1.06381 1.26871 0)
(1.00337 0.921247 0)
(-2.86912 0.152649 0)
(-0.533077 -0.426053 0)
(-0.711529 -0.328644 0)
(0.037806 -0.429289 0)
(0.238905 -0.280446 0)
(0.650965 -0.0239837 0)
(1.09181 0.0841244 0)
(1.56689 0.295402 0)
(1.4083 0.472739 0)
(1.21899 0.523739 0)
(0.35438 0.37771 0)
(-0.382119 0.0633687 0)
(-1.9804 -0.0250696 0)
(-2.94514 -0.105298 0)
(-1.73935 -0.444553 0)
(-0.859893 -0.782686 0)
(-0.191616 -1.16036 0)
(-1.02235 1.26638 0)
(1.07762 1.17173 0)
(-0.442979 0.17466 0)
(0.453524 -0.786553 0)
(-0.408971 -0.556337 0)
(0.322447 -0.634218 0)
(0.413005 -0.368978 0)
(0.744586 -0.148051 0)
(1.04256 -0.0590773 0)
(1.30486 0.118326 0)
(1.50699 0.299002 0)
(1.69398 0.424451 0)
(1.86204 0.605431 0)
(1.5478 0.964671 0)
(-1.40553 0.961723 0)
(-1.78231 -0.198923 0)
(-1.42604 -0.922483 0)
(-0.667282 -1.18776 0)
(-0.069315 -1.35225 0)
(-0.905422 1.23205 0)
(1.7538 0.823976 0)
(0.407728 0.145934 0)
(1.02322 -0.140297 0)
(0.516907 -0.509574 0)
(0.490522 -0.686288 0)
(0.541909 -0.461913 0)
(0.799382 -0.290892 0)
(1.11438 -0.156063 0)
(1.20738 0.0910925 0)
(1.39877 0.293253 0)
(1.49934 0.404459 0)
(1.55973 0.54565 0)
(1.51371 1.5037 0)
(-0.366235 1.41642 0)
(-0.181191 -0.093795 0)
(-0.81218 -0.950056 0)
(-0.497192 -1.38291 0)
(-0.00229583 -1.48072 0)
(-0.453194 0.833446 0)
(1.59464 0.829741 0)
(-0.0370216 0.109415 0)
(1.05628 -0.423489 0)
(0.714742 -0.453871 0)
(0.567726 -0.647486 0)
(0.609726 -0.50537 0)
(0.813995 -0.390104 0)
(1.04815 -0.231643 0)
(1.19811 1.19057e-05 0)
(1.3864 0.180159 0)
(1.44762 0.354911 0)
(1.43594 0.576712 0)
(1.0406 1.74967 0)
(0.2669 1.6643 0)
(0.858404 0.061372 0)
(-0.24176 -0.764259 0)
(-0.331871 -1.52176 0)
(0.0291867 -1.57243 0)
(-0.6085 0.749266 0)
(1.08965 0.763813 0)
(0.572176 0.0318707 0)
(0.924611 -0.223028 0)
(0.705486 -0.417639 0)
(0.587663 -0.636821 0)
(0.627871 -0.566927 0)
(0.793848 -0.477939 0)
(0.981921 -0.320861 0)
(1.18044 -0.0570752 0)
(1.37715 0.180719 0)
(1.4186 0.378939 0)
(1.28495 0.757255 0)
(0.331722 1.98539 0)
(0.507341 1.51355 0)
(0.878354 0.12425 0)
(0.317524 -0.43909 0)
(-0.134444 -1.48523 0)
(0.0378455 -1.61657 0)
(0.0108582 -0.058566 0)
(0.0237185 -0.0572537 0)
(0.037351 -0.0534436 0)
(0.0516035 -0.0484115 0)
(0.0671836 -0.0417155 0)
(0.0783167 -0.0352046 0)
(0.0842382 -0.0246995 0)
(0.0920504 -0.0152342 0)
(0.0916935 -0.00350554 0)
(0.0853377 0.0109451 0)
(0.0802601 0.0225526 0)
(0.0701733 0.0312411 0)
(0.0633883 0.0365412 0)
(0.0542827 0.0340046 0)
(0.0481897 0.0274984 0)
(0.0376 0.0237041 0)
(0.0262925 0.015641 0)
(0.0259922 0.00944648 0)
(0.0317514 0.00780339 0)
(0.0378626 0.0109891 0)
(0.0450381 0.0139832 0)
(0.0548984 0.0194225 0)
(0.044438 0.0499542 0)
(-0.0105487 -0.0720277 0)
(-0.0354089 -0.0666694 0)
(-0.031859 -0.0649092 0)
(-0.0207712 -0.061374 0)
(0.00225895 -0.0523099 0)
(0.0195023 -0.039858 0)
(0.0419011 -0.026903 0)
(0.0623692 -0.0117883 0)
(0.0733363 0.00743291 0)
(0.0809308 0.0211469 0)
(0.0852904 0.0274436 0)
(0.0784244 0.0294796 0)
(0.0768 0.0307992 0)
(0.0678607 0.0315012 0)
(0.0527501 0.0363703 0)
(0.0302572 0.044069 0)
(0.0136228 0.0291085 0)
(0.0165693 0.00833728 0)
(0.0203691 0.000743839 0)
(0.0284291 0.00219998 0)
(0.0366481 0.00149115 0)
(0.0598823 0.021997 0)
(0.0468109 0.0500515 0)
(-0.00312813 -0.0157823 0)
(-0.0102803 -0.0410239 0)
(-0.0174659 -0.0685524 0)
(-0.0292689 -0.0823847 0)
(-0.0411236 -0.0817227 0)
(-0.0652456 -0.0747217 0)
(-0.0857894 -0.0675875 0)
(-0.145171 -0.0470356 0)
(-0.185905 -0.0228156 0)
(-0.265993 -0.00196484 0)
(-0.208554 0.025544 0)
(-0.127865 0.0399714 0)
(-0.0607961 0.0472037 0)
(-0.0302776 0.0581239 0)
(-0.00996794 0.0652136 0)
(-0.000780962 0.0629127 0)
(0.0258749 0.0295145 0)
(0.0535855 0.00259681 0)
(0.0463032 -0.00379534 0)
(0.0503627 -0.00547613 0)
(0.059086 -0.0168115 0)
(0.0762909 0.00866412 0)
(0.0998735 0.0276936 0)
(0.00439649 -0.0544322 0)
(0.00779269 -0.047553 0)
(-0.00304442 -0.043839 0)
(-0.0201844 -0.0377156 0)
(-0.0391346 -0.0171329 0)
(-0.0561316 0.00467167 0)
(-0.0757094 0.054037 0)
(-0.0944067 0.0891323 0)
(-0.115565 0.130026 0)
(-0.145292 0.0510169 0)
(-0.169538 -0.113675 0)
(-0.164106 -0.120184 0)
(-0.293928 -0.0681994 0)
(-0.278333 -0.0195882 0)
(-0.184763 0.00705832 0)
(-0.142158 0.00805294 0)
(-0.169312 -0.0253957 0)
(-0.10315 -0.0121633 0)
(-0.0289716 0.0038705 0)
(0.0280442 -0.0107419 0)
(0.0937948 -0.0248556 0)
(0.124795 -0.0192635 0)
(0.13414 -0.0149062 0)
(-0.00901805 -0.0305923 0)
(-0.0201005 -0.0365213 0)
(-0.034034 -0.0419184 0)
(-0.0485488 -0.0463238 0)
(-0.062378 -0.0442417 0)
(-0.0710977 -0.0389615 0)
(-0.0768848 -0.0279456 0)
(-0.0586671 -0.00985559 0)
(-0.0414028 0.0278668 0)
(0.0126767 0.0457753 0)
(-0.0212799 0.0492543 0)
(-0.0725112 0.163384 0)
(-0.168167 0.167816 0)
(-0.224469 -0.0503826 0)
(-0.248621 -0.0720266 0)
(-0.262129 0.0458722 0)
(-0.446443 -0.0111804 0)
(-0.370277 -0.140501 0)
(-0.232587 -0.135972 0)
(-0.232596 -0.128815 0)
(-0.134095 -0.113828 0)
(-0.0450617 -0.0319139 0)
(0.0408881 -0.00761244 0)
(-0.00311933 -0.0230755 0)
(-0.0107819 -0.0202264 0)
(-0.022556 -0.0141208 0)
(-0.0357021 -0.00831185 0)
(-0.0531722 0.00555502 0)
(-0.0676955 0.0199185 0)
(-0.0882537 0.0419645 0)
(-0.100802 0.0547868 0)
(-0.117954 0.0592958 0)
(-0.105943 0.0349167 0)
(-0.127807 -0.0293221 0)
(-0.108851 0.0237392 0)
(-0.0502866 0.08439 0)
(-0.0274431 0.0557186 0)
(-0.110653 0.0481073 0)
(-0.128157 0.207898 0)
(-0.183634 0.0846493 0)
(-0.208634 -0.215332 0)
(-0.35014 -0.13604 0)
(-0.484228 -0.107782 0)
(-0.670153 -0.212503 0)
(-0.753408 -0.194625 0)
(-0.797098 -0.196999 0)
(-0.00617695 -0.0178133 0)
(-0.0146395 -0.0184816 0)
(-0.0264197 -0.0172658 0)
(-0.0333836 -0.0165783 0)
(-0.0440589 -0.0114752 0)
(-0.046158 -0.00495715 0)
(-0.0510217 0.00624024 0)
(-0.0419494 0.0180525 0)
(-0.0419918 0.0338828 0)
(-0.0296549 0.0525381 0)
(-0.0566536 0.0548217 0)
(-0.0951274 0.0852873 0)
(-0.0901383 0.0880879 0)
(-0.0773263 0.0146146 0)
(-0.107319 0.0263672 0)
(-0.0923145 0.118646 0)
(-0.00582749 0.0640083 0)
(-0.0639611 0.0232738 0)
(-0.200223 0.135026 0)
(-0.21786 0.189919 0)
(-0.375567 0.157584 0)
(-0.528107 0.0923699 0)
(-0.744708 0.0935506 0)
(-0.00402598 -0.00100652 0)
(-0.010835 0.00130644 0)
(-0.0204575 0.00547074 0)
(-0.0276736 0.0102365 0)
(-0.0395729 0.0187909 0)
(-0.0466304 0.0275146 0)
(-0.0588666 0.038163 0)
(-0.0627673 0.0463501 0)
(-0.0748374 0.047628 0)
(-0.0718491 0.0505158 0)
(-0.0828707 0.0370134 0)
(-0.0846527 0.0554763 0)
(-0.0790876 0.0673296 0)
(-0.0853099 0.0701531 0)
(-0.146655 0.0660642 0)
(-0.14964 0.106393 0)
(-0.148965 0.0619529 0)
(-0.212027 -0.0179696 0)
(-0.262228 0.0254678 0)
(-0.251452 0.0697641 0)
(-0.275499 0.101109 0)
(-0.30045 0.176755 0)
(-0.411632 0.247825 0)
(-0.00487784 -0.00344602 0)
(-0.00767157 -0.0027878 0)
(-0.0165149 -0.000437315 0)
(-0.0186562 0.0018037 0)
(-0.0265939 0.00799014 0)
(-0.026555 0.0134991 0)
(-0.0322601 0.0231626 0)
(-0.0282312 0.0329448 0)
(-0.0344866 0.0437973 0)
(-0.0325412 0.0593147 0)
(-0.0460857 0.0687161 0)
(-0.0607522 0.0813596 0)
(-0.0712895 0.0894606 0)
(-0.0808895 0.083271 0)
(-0.101962 0.0899516 0)
(-0.118215 0.119634 0)
(-0.119627 0.123162 0)
(-0.18248 0.135225 0)
(-0.268728 0.17118 0)
(-0.322612 0.201758 0)
(-0.408655 0.206651 0)
(-0.475084 0.232447 0)
(-0.559201 0.304484 0)
(-0.00350372 0.0123217 0)
(-0.00704372 0.0137085 0)
(-0.0143405 0.0170934 0)
(-0.0181224 0.0209033 0)
(-0.0263058 0.0271979 0)
(-0.0293609 0.033553 0)
(-0.0384348 0.0403612 0)
(-0.0390515 0.0487662 0)
(-0.0491388 0.0526815 0)
(-0.0472965 0.0620934 0)
(-0.0562596 0.0663573 0)
(-0.056213 0.0797479 0)
(-0.0675188 0.0889934 0)
(-0.073142 0.0998303 0)
(-0.104262 0.105861 0)
(-0.118781 0.124417 0)
(-0.145998 0.130527 0)
(-0.178176 0.132709 0)
(-0.224898 0.169922 0)
(-0.260148 0.210867 0)
(-0.323302 0.255143 0)
(-0.409225 0.325697 0)
(-0.525208 0.420702 0)
(-0.0027941 0.00687448 0)
(-0.00336931 0.00763089 0)
(-0.00875438 0.0107063 0)
(-0.00880641 0.0132619 0)
(-0.0136969 0.0195964 0)
(-0.012472 0.0250406 0)
(-0.0171814 0.0334246 0)
(-0.0144572 0.0429741 0)
(-0.020479 0.0527025 0)
(-0.0195242 0.0657575 0)
(-0.0274881 0.078292 0)
(-0.0306111 0.0923016 0)
(-0.0397745 0.106803 0)
(-0.0460961 0.119927 0)
(-0.0626419 0.135443 0)
(-0.0790251 0.160513 0)
(-0.102743 0.181528 0)
(-0.138577 0.21288 0)
(-0.195847 0.252156 0)
(-0.241329 0.299756 0)
(-0.318073 0.356186 0)
(-0.394385 0.437375 0)
(-0.503229 0.56193 0)
(-0.00212623 0.0190257 0)
(-0.00335081 0.0201662 0)
(-0.00777809 0.0230516 0)
(-0.00873595 0.0262213 0)
(-0.0137181 0.0313696 0)
(-0.013631 0.0372449 0)
(-0.0196925 0.0429144 0)
(-0.0179127 0.0520778 0)
(-0.0251062 0.0585038 0)
(-0.0224096 0.0688792 0)
(-0.0300679 0.078492 0)
(-0.0271023 0.0914713 0)
(-0.0370523 0.105906 0)
(-0.0358875 0.122191 0)
(-0.0534721 0.140749 0)
(-0.0585212 0.164595 0)
(-0.0814873 0.192865 0)
(-0.0961533 0.226668 0)
(-0.131863 0.275773 0)
(-0.158127 0.334237 0)
(-0.213233 0.410752 0)
(-0.266042 0.511547 0)
(-0.345601 0.663876 0)
(-0.00112197 0.0122218 0)
(0.000438783 0.0130091 0)
(-0.00153056 0.0161487 0)
(0.000339371 0.0188306 0)
(-0.00153145 0.0247413 0)
(0.00112126 0.0305706 0)
(-0.00141377 0.0381108 0)
(0.00199243 0.0478896 0)
(-0.00159792 0.0576993 0)
(0.00101322 0.0702101 0)
(-0.00424091 0.0834927 0)
(-0.00346683 0.0988319 0)
(-0.0108577 0.115993 0)
(-0.0116672 0.135847 0)
(-0.0231275 0.158297 0)
(-0.0275766 0.187709 0)
(-0.0449441 0.219082 0)
(-0.0537574 0.2621 0)
(-0.0804672 0.3138 0)
(-0.0893427 0.380141 0)
(-0.124209 0.463713 0)
(-0.133234 0.570093 0)
(-0.172625 0.722498 0)
(-0.000738505 0.020135 0)
(0.000345192 0.020944 0)
(-0.0011379 0.0236047 0)
(0.000228751 0.0264965 0)
(-0.00171717 0.0310736 0)
(0.00083317 0.0372728 0)
(-0.00209446 0.0426052 0)
(0.00216779 0.052247 0)
(-0.00166386 0.0601926 0)
(0.00410478 0.0713278 0)
(-0.000750588 0.0839021 0)
(0.00581135 0.0977356 0)
(-0.000774178 0.115317 0)
(0.00533899 0.134135 0)
(-0.00390474 0.15823 0)
(0.000493125 0.186346 0)
(-0.0109398 0.221128 0)
(-0.00886358 0.262572 0)
(-0.0231697 0.313997 0)
(-0.0175203 0.378755 0)
(-0.030802 0.457599 0)
(-0.00930011 0.561289 0)
(-0.00856154 0.685412 0)
(0.000378305 0.012491 0)
(0.00383913 0.0131761 0)
(0.00474603 0.0162677 0)
(0.00819581 0.0190928 0)
(0.00894102 0.0242694 0)
(0.0130627 0.0305625 0)
(0.0132587 0.0370242 0)
(0.0182086 0.0470187 0)
(0.017636 0.0560925 0)
(0.0235985 0.0688165 0)
(0.0215884 0.0821551 0)
(0.0286083 0.0983208 0)
(0.0251289 0.116823 0)
(0.0330095 0.138293 0)
(0.0279643 0.163447 0)
(0.0362908 0.193718 0)
(0.0307603 0.228651 0)
(0.0411838 0.272744 0)
(0.036163 0.322589 0)
(0.0535859 0.385512 0)
(0.054652 0.455884 0)
(0.0907903 0.5448 0)
(0.116274 0.64017 0)
(0.000779758 0.0162979 0)
(0.00396098 0.0169024 0)
(0.00556317 0.0196712 0)
(0.00905776 0.0225561 0)
(0.010258 0.0266755 0)
(0.0149212 0.0331122 0)
(0.0155531 0.038 0)
(0.0219282 0.0479047 0)
(0.0219324 0.0554548 0)
(0.0304738 0.0672815 0)
(0.0296727 0.0796979 0)
(0.0406568 0.0940055 0)
(0.0390952 0.111926 0)
(0.0524042 0.131097 0)
(0.0505984 0.15625 0)
(0.0660774 0.183429 0)
(0.0658494 0.217964 0)
(0.0846467 0.257176 0)
(0.0893163 0.303865 0)
(0.116589 0.360243 0)
(0.131654 0.423044 0)
(0.178283 0.499372 0)
(0.216315 0.577003 0)
(0.0018128 0.00757718 0)
(0.00674598 0.00813915 0)
(0.0105056 0.0110842 0)
(0.015535 0.0140758 0)
(0.0190816 0.0184061 0)
(0.0247823 0.0248854 0)
(0.0282686 0.0300954 0)
(0.0349727 0.0402013 0)
(0.0382941 0.0476843 0)
(0.0468781 0.060576 0)
(0.04959 0.0721475 0)
(0.0613016 0.0882975 0)
(0.0633459 0.105265 0)
(0.0787588 0.126001 0)
(0.0806306 0.149952 0)
(0.100531 0.177328 0)
(0.104366 0.210238 0)
(0.130015 0.247559 0)
(0.13927 0.290866 0)
(0.173793 0.340617 0)
(0.194598 0.39469 0)
(0.245516 0.456229 0)
(0.288812 0.516044 0)
(0.00206664 0.00811942 0)
(0.00716555 0.00854539 0)
(0.0114162 0.0113022 0)
(0.0168889 0.0142661 0)
(0.0210122 0.0178902 0)
(0.0275379 0.0241445 0)
(0.0318945 0.0283264 0)
(0.0398628 0.0380162 0)
(0.0445101 0.044142 0)
(0.0547999 0.0560345 0)
(0.0596271 0.0659679 0)
(0.0734488 0.0802208 0)
(0.0786676 0.0953059 0)
(0.0973042 0.113736 0)
(0.103302 0.135527 0)
(0.127614 0.159596 0)
(0.136508 0.189835 0)
(0.167352 0.222128 0)
(0.182856 0.261797 0)
(0.222507 0.304628 0)
(0.249182 0.353365 0)
(0.301845 0.404721 0)
(0.344272 0.457595 0)
(0.00278931 -0.00191169 0)
(0.00858124 -0.00152547 0)
(0.0142331 0.00116029 0)
(0.0205795 0.00411003 0)
(0.02644 0.00760857 0)
(0.0337175 0.0135804 0)
(0.0404882 0.0176646 0)
(0.0488466 0.0271146 0)
(0.0568475 0.0326691 0)
(0.0673389 0.0449334 0)
(0.0761909 0.0534305 0)
(0.0902039 0.0686451 0)
(0.0998717 0.0813352 0)
(0.118972 0.100595 0)
(0.129672 0.119559 0)
(0.155744 0.14307 0)
(0.169425 0.170412 0)
(0.202917 0.199741 0)
(0.223173 0.235662 0)
(0.265097 0.272195 0)
(0.296342 0.315408 0)
(0.349603 0.357975 0)
(0.394476 0.406011 0)
(0.00289729 -0.00283018 0)
(0.00806982 -0.00250961 0)
(0.0136066 -0.00024502 0)
(0.0200025 0.00241452 0)
(0.0259671 0.00523261 0)
(0.033735 0.0104098 0)
(0.041113 0.013708 0)
(0.050516 0.02192 0)
(0.059968 0.0261923 0)
(0.071832 0.036899 0)
(0.083386 0.0436838 0)
(0.0989007 0.0566946 0)
(0.112987 0.0671717 0)
(0.133455 0.0840404 0)
(0.150213 0.0994782 0)
(0.177909 0.119881 0)
(0.197812 0.143535 0)
(0.233723 0.168303 0)
(0.259921 0.200689 0)
(0.303095 0.231237 0)
(0.339008 0.270204 0)
(0.390429 0.306302 0)
(0.436655 0.350025 0)
(0.00320834 -0.0132374 0)
(0.00788446 -0.0126335 0)
(0.0137576 -0.0110978 0)
(0.0200811 -0.00869815 0)
(0.0265675 -0.00642544 0)
(0.0343146 -0.00206291 0)
(0.0427452 0.000592999 0)
(0.0522882 0.0077183 0)
(0.0637555 0.0110575 0)
(0.075808 0.0209352 0)
(0.0905535 0.0260459 0)
(0.106357 0.0384179 0)
(0.124662 0.0464302 0)
(0.1455 0.0626734 0)
(0.167743 0.0747127 0)
(0.195864 0.0946341 0)
(0.221553 0.114191 0)
(0.259105 0.136546 0)
(0.289834 0.165895 0)
(0.335729 0.191634 0)
(0.374849 0.227661 0)
(0.428067 0.258263 0)
(0.475275 0.300461 0)
(0.00243974 -0.0134105 0)
(0.00571168 -0.0125663 0)
(0.0101966 -0.0119091 0)
(0.0153179 -0.00993235 0)
(0.020676 -0.00845357 0)
(0.027898 -0.00533637 0)
(0.0357236 -0.00371329 0)
(0.0456137 0.00130373 0)
(0.0572991 0.00321599 0)
(0.0706353 0.0104541 0)
(0.0869704 0.0136533 0)
(0.104741 0.0228919 0)
(0.126361 0.0285092 0)
(0.149421 0.0412053 0)
(0.177203 0.0495529 0)
(0.207318 0.0662315 0)
(0.240354 0.0807263 0)
(0.280217 0.100038 0)
(0.317275 0.124598 0)
(0.366762 0.14606 0)
(0.410306 0.178581 0)
(0.46502 0.205656 0)
(0.514023 0.244648 0)
(0.00190718 -0.0218595 0)
(0.00459931 -0.0208899 0)
(0.00831679 -0.021156 0)
(0.0124047 -0.0197214 0)
(0.0169952 -0.0194507 0)
(0.0230287 -0.0177044 0)
(0.0299759 -0.0175782 0)
(0.0386303 -0.0145023 0)
(0.0494836 -0.014447 0)
(0.0617906 -0.0094215 0)
(0.0778639 -0.00858607 0)
(0.0953674 -0.00168194 0)
(0.117988 0.00117029 0)
(0.142047 0.0111176 0)
(0.17289 0.0161697 0)
(0.2047 0.0307645 0)
(0.243366 0.0405999 0)
(0.285828 0.0588219 0)
(0.32956 0.0786666 0)
(0.384269 0.0975816 0)
(0.432815 0.12875 0)
(0.492961 0.153245 0)
(0.546369 0.19203 0)
(0.000340981 -0.0192559 0)
(0.00131741 -0.0183323 0)
(0.00235252 -0.0190384 0)
(0.00435169 -0.0179906 0)
(0.00663685 -0.0183968 0)
(0.0108108 -0.0177274 0)
(0.0156612 -0.0186432 0)
(0.0230602 -0.0176535 0)
(0.0322711 -0.0193046 0)
(0.0444059 -0.0174299 0)
(0.0599233 -0.019348 0)
(0.0784782 -0.0168093 0)
(0.101796 -0.0177017 0)
(0.128312 -0.0133739 0)
(0.1615 -0.0127909 0)
(0.196756 -0.00402808 0)
(0.240647 -0.000289056 0)
(0.286373 0.0139294 0)
(0.338403 0.0261716 0)
(0.398107 0.0426609 0)
(0.45427 0.0699756 0)
(0.521238 0.0918075 0)
(0.581864 0.128526 0)
(-0.000333269 -0.0241147 0)
(-0.000191445 -0.0235237 0)
(-0.000398081 -0.0247755 0)
(0.000273975 -0.0246651 0)
(0.00121007 -0.0264958 0)
(0.00363587 -0.0274341 0)
(0.00671643 -0.0304316 0)
(0.0120269 -0.0318701 0)
(0.0189288 -0.0364349 0)
(0.0286539 -0.0378821 0)
(0.0415267 -0.0433559 0)
(0.0576158 -0.0444011 0)
(0.0783891 -0.0494154 0)
(0.102991 -0.0494417 0)
(0.134245 -0.053083 0)
(0.169315 -0.0491882 0)
(0.213783 -0.0499098 0)
(0.261012 -0.039637 0)
(0.318502 -0.0340395 0)
(0.381618 -0.0189907 0)
(0.445824 0.00472492 0)
(0.521936 0.024822 0)
(0.592481 0.0619328 0)
(-0.00172626 -0.0178761 0)
(-0.00382759 -0.0174295 0)
(-0.00685988 -0.0186348 0)
(-0.00853298 -0.0187778 0)
(-0.0103888 -0.0208878 0)
(-0.010372 -0.0224382 0)
(-0.0101133 -0.0261755 0)
(-0.007147 -0.029106 0)
(-0.00307829 -0.0351107 0)
(0.00452733 -0.0393234 0)
(0.0148335 -0.0475678 0)
(0.0296026 -0.0530544 0)
(0.0491888 -0.0624805 0)
(0.0740829 -0.0687614 0)
(0.105244 -0.0787467 0)
(0.14189 -0.0833078 0)
(0.187563 -0.0919542 0)
(0.237853 -0.0907366 0)
(0.30011 -0.0948041 0)
(0.366018 -0.0847967 0)
(0.439392 -0.0709214 0)
(0.524371 -0.055262 0)
(0.607017 -0.021273 0)
(-0.00226428 -0.0193121 0)
(-0.00545879 -0.019163 0)
(-0.00970896 -0.0208113 0)
(-0.0126718 -0.02194 0)
(-0.0160184 -0.0254006 0)
(-0.0176184 -0.0285525 0)
(-0.0191791 -0.0344205 0)
(-0.0181667 -0.0397954 0)
(-0.016429 -0.0489172 0)
(-0.0112546 -0.0567392 0)
(-0.00409326 -0.0693096 0)
(0.00732811 -0.0797591 0)
(0.0225787 -0.0948482 0)
(0.0433127 -0.106519 0)
(0.0698533 -0.121881 0)
(0.102773 -0.132465 0)
(0.144458 -0.146888 0)
(0.193047 -0.152979 0)
(0.254481 -0.163316 0)
(0.321143 -0.158842 0)
(0.400726 -0.154833 0)
(0.490952 -0.143359 0)
(0.583346 -0.111813 0)
(-0.00345188 -0.00907246 0)
(-0.00888763 -0.00891679 0)
(-0.0155846 -0.0103265 0)
(-0.0208049 -0.0114114 0)
(-0.0268382 -0.01484 0)
(-0.0308943 -0.0182374 0)
(-0.0354698 -0.0245334 0)
(-0.0372066 -0.0308405 0)
(-0.0388553 -0.0409597 0)
(-0.0367693 -0.0506784 0)
(-0.0332844 -0.0651526 0)
(-0.0251241 -0.0788075 0)
(-0.0135172 -0.0975972 0)
(0.00427956 -0.115253 0)
(0.0286088 -0.137596 0)
(0.0614806 -0.157408 0)
(0.103281 -0.182054 0)
(0.153713 -0.200642 0)
(0.216481 -0.223329 0)
(0.287159 -0.231237 0)
(0.373468 -0.241785 0)
(0.468812 -0.238356 0)
(0.572423 -0.215572 0)
(-0.00390168 -0.00790832 0)
(-0.0103 -0.00798331 0)
(-0.018041 -0.00982288 0)
(-0.0243499 -0.0116662 0)
(-0.0317198 -0.0162453 0)
(-0.03713 -0.020937 0)
(-0.0434677 -0.0290639 0)
(-0.0469948 -0.0374692 0)
(-0.0510582 -0.0503572 0)
(-0.0513729 -0.0634239 0)
(-0.051152 -0.082041 0)
(-0.0461913 -0.100709 0)
(-0.038919 -0.125451 0)
(-0.0257163 -0.149894 0)
(-0.00794048 -0.18038 0)
(0.0179342 -0.208357 0)
(0.0520971 -0.240391 0)
(0.0968173 -0.267188 0)
(0.154665 -0.29798 0)
(0.224312 -0.316528 0)
(0.312734 -0.337815 0)
(0.410649 -0.342747 0)
(0.524238 -0.32752 0)
(-0.00491403 0.00645098 0)
(-0.013287 0.00653663 0)
(-0.0231626 0.00506166 0)
(-0.0315493 0.00358174 0)
(-0.0413794 -0.000704715 0)
(-0.0492861 -0.00517387 0)
(-0.0586576 -0.0133064 0)
(-0.0653032 -0.0219376 0)
(-0.0732446 -0.0352328 0)
(-0.0775184 -0.0492781 0)
(-0.0822606 -0.0690247 0)
(-0.0821692 -0.089748 0)
(-0.0808441 -0.116842 0)
(-0.0730064 -0.144994 0)
(-0.0610762 -0.180194 0)
(-0.0400743 -0.216421 0)
(-0.00948657 -0.260383 0)
(0.0344757 -0.302742 0)
(0.0918155 -0.351058 0)
(0.163433 -0.389491 0)
(0.254563 -0.429314 0)
(0.357497 -0.450434 0)
(0.483447 -0.453181 0)
(-0.00520407 0.00915976 0)
(-0.0142969 0.00911955 0)
(-0.0248589 0.00730767 0)
(-0.0341299 0.00537936 0)
(-0.0449519 0.000345749 0)
(-0.0542005 -0.00486713 0)
(-0.0652462 -0.0142214 0)
(-0.0740272 -0.0241303 0)
(-0.0847794 -0.0393641 0)
(-0.0922211 -0.0557028 0)
(-0.101291 -0.078698 0)
(-0.105592 -0.103489 0)
(-0.110413 -0.136062 0)
(-0.108374 -0.17113 0)
(-0.104621 -0.214938 0)
(-0.0913822 -0.261504 0)
(-0.0728522 -0.316607 0)
(-0.0422035 -0.369849 0)
(0.000515154 -0.428424 0)
(0.0593185 -0.480234 0)
(0.138087 -0.533286 0)
(0.23223 -0.572286 0)
(0.359753 -0.592978 0)
(-0.00614599 0.0275036 0)
(-0.0171561 0.0277407 0)
(-0.0296575 0.0264669 0)
(-0.0410318 0.0252397 0)
(-0.0541499 0.0209721 0)
(-0.066083 0.0167172 0)
(-0.0800943 0.00816105 0)
(-0.0925044 -0.000770672 0)
(-0.107296 -0.0153783 0)
(-0.119809 -0.0310953 0)
(-0.134811 -0.054002 0)
(-0.146371 -0.0789202 0)
(-0.159751 -0.112449 0)
(-0.167545 -0.149049 0)
(-0.175171 -0.195679 0)
(-0.173333 -0.246494 0)
(-0.167407 -0.308401 0)
(-0.145837 -0.374931 0)
(-0.113647 -0.452352 0)
(-0.0677387 -0.526841 0)
(-0.0143418 -0.603232 0)
(0.0554166 -0.672504 0)
(0.169849 -0.732256 0)
(-0.00609858 0.0311426 0)
(-0.0171958 0.0313026 0)
(-0.029764 0.0298601 0)
(-0.0415907 0.0285212 0)
(-0.0553114 0.0240514 0)
(-0.0685986 0.0196947 0)
(-0.0842664 0.0108149 0)
(-0.0995494 0.0016534 0)
(-0.117743 -0.0135015 0)
(-0.135298 -0.0296314 0)
(-0.156117 -0.0536421 0)
(-0.175505 -0.0800182 0)
(-0.197846 -0.116499 0)
(-0.217059 -0.15725 0)
(-0.23782 -0.210927 0)
(-0.252326 -0.270976 0)
(-0.266218 -0.346013 0)
(-0.272733 -0.425259 0)
(-0.285414 -0.508077 0)
(-0.298605 -0.580328 0)
(-0.297948 -0.657505 0)
(-0.234141 -0.757355 0)
(-0.109091 -0.861331 0)
(-0.0070015 0.0525468 0)
(-0.0199829 0.0531566 0)
(-0.0344682 0.0526346 0)
(-0.0484406 0.0525683 0)
(-0.0643458 0.0498043 0)
(-0.0801877 0.047518 0)
(-0.098625 0.0410067 0)
(-0.117372 0.0346475 0)
(-0.139403 0.0223391 0)
(-0.162015 0.00932248 0)
(-0.188772 -0.0117863 0)
(-0.216419 -0.0350366 0)
(-0.248794 -0.0688865 0)
(-0.282116 -0.106828 0)
(-0.319801 -0.158451 0)
(-0.357355 -0.215757 0)
(-0.399005 -0.286192 0)
(-0.444618 -0.353523 0)
(-0.501458 -0.425198 0)
(-0.554226 -0.51356 0)
(-0.543886 -0.668373 0)
(-0.440999 -0.861589 0)
(-0.283735 -1.03552 0)
(-0.00639409 0.0566477 0)
(-0.0182985 0.0572849 0)
(-0.0317005 0.0568352 0)
(-0.044964 0.0569011 0)
(-0.0604943 0.0542917 0)
(-0.0767329 0.0524537 0)
(-0.0962327 0.0464478 0)
(-0.117462 0.0408914 0)
(-0.143143 0.0295392 0)
(-0.17159 0.0182188 0)
(-0.205299 -0.000883322 0)
(-0.243228 -0.0214664 0)
(-0.287989 -0.0524693 0)
(-0.337933 -0.0875962 0)
(-0.395474 -0.137387 0)
(-0.46056 -0.193081 0)
(-0.538869 -0.260429 0)
(-0.636687 -0.323982 0)
(-0.742867 -0.399778 0)
(-0.789599 -0.537738 0)
(-0.708729 -0.770994 0)
(-0.568376 -1.01865 0)
(-0.412595 -1.21054 0)
(-0.00721125 0.0791309 0)
(-0.0209375 0.0803591 0)
(-0.0361197 0.0812162 0)
(-0.0512849 0.0833007 0)
(-0.0687244 0.0835589 0)
(-0.0871401 0.0852961 0)
(-0.108798 0.0838334 0)
(-0.132638 0.0837522 0)
(-0.16108 0.0786887 0)
(-0.193448 0.0738452 0)
(-0.231886 0.062181 0)
(-0.276292 0.0502177 0)
(-0.329411 0.0281993 0)
(-0.392023 0.00336452 0)
(-0.467521 -0.0333917 0)
(-0.558493 -0.0693401 0)
(-0.66876 -0.10744 0)
(-0.79225 -0.145882 0)
(-0.900536 -0.269849 0)
(-0.898391 -0.546724 0)
(-0.790188 -0.891714 0)
(-0.679001 -1.15932 0)
(-0.556919 -1.3603 0)
(-0.00581635 0.0831901 0)
(-0.0168332 0.0845878 0)
(-0.0294065 0.0855767 0)
(-0.0423004 0.0878993 0)
(-0.0576017 0.0885134 0)
(-0.0742232 0.0908992 0)
(-0.0945847 0.0902565 0)
(-0.117848 0.0915333 0)
(-0.146975 0.0886082 0)
(-0.181886 0.0874499 0)
(-0.226707 0.0802372 0)
(-0.28189 0.0746957 0)
(-0.350612 0.0617184 0)
(-0.434973 0.0496299 0)
(-0.536458 0.027767 0)
(-0.661552 0.00780105 0)
(-0.81041 -0.0279294 0)
(-0.965645 -0.0931105 0)
(-1.04886 -0.295182 0)
(-0.985184 -0.649927 0)
(-0.899519 -0.991417 0)
(-0.828531 -1.25226 0)
(-0.733986 -1.46314 0)
(-0.00655807 0.103748 0)
(-0.0191508 0.10592 0)
(-0.03311 0.108672 0)
(-0.0475614 0.113518 0)
(-0.0643821 0.117558 0)
(-0.0828728 0.124444 0)
(-0.105051 0.129695 0)
(-0.13079 0.138541 0)
(-0.162264 0.145186 0)
(-0.200228 0.156292 0)
(-0.247026 0.164875 0)
(-0.30518 0.177141 0)
(-0.376073 0.184065 0)
(-0.465834 0.192309 0)
(-0.574498 0.196087 0)
(-0.718898 0.207894 0)
(-0.886173 0.199794 0)
(-1.03946 0.0972359 0)