/*--------------------------------*- C++ -*----------------------------------*\
| =========                 |                                                 |
| \\      /  F ield         | OpenFOAM: The Open Source CFD Toolbox           |
|  \\    /   O peration     | Version:  2012                                  |
|   \\  /    A nd           | Website:  www.openfoam.com                      |
|    \\/     M anipulation  |                                                 |
\*---------------------------------------------------------------------------*/
FoamFile
{
    version     2.0;
    format      ascii;
    class       volVectorField;
    location    "620";
    object      U;
}
// * * * * * * * * * * * * * * * * * * * * * * * * * * * * * * * * * * * * * //

dimensions      [0 1 -1 0 0 0 0];


internalField   nonuniform List<vector> 
20400
(
(3.53593e-06 -3.46038e-06 0)
(5.2055e-06 -1.17732e-06 0)
(-4.63828e-06 3.70588e-06 0)
(-2.49703e-05 6.37031e-06 0)
(-5.82567e-05 7.8232e-06 0)
(-9.8525e-05 7.16958e-06 0)
(-0.000144735 6.41026e-06 0)
(-0.000193647 5.48908e-06 0)
(-0.000243332 4.72883e-06 0)
(-0.000294215 4.20496e-06 0)
(-0.00034378 4.26248e-06 0)
(-0.000393834 4.19811e-06 0)
(-0.00044307 4.02021e-06 0)
(-0.000492166 3.61904e-06 0)
(-0.000540973 3.0417e-06 0)
(-0.000589621 2.24068e-06 0)
(-0.000638147 1.19928e-06 0)
(-0.000686593 -2.60628e-08 0)
(-0.000734977 -1.3602e-06 0)
(-0.000783215 -2.50919e-06 0)
(-0.000831201 -3.67419e-06 0)
(-0.000878945 -4.80404e-06 0)
(-0.000926476 -5.8129e-06 0)
(-0.000973785 -6.62552e-06 0)
(-0.00102086 -7.16322e-06 0)
(-0.00106769 -7.3666e-06 0)
(-0.00111427 -7.15826e-06 0)
(-0.00116062 -6.50712e-06 0)
(-0.00120676 -5.34958e-06 0)
(-0.00125274 -3.67689e-06 0)
(-0.00129853 -1.4077e-06 0)
(-0.00134398 1.69243e-06 0)
(-0.00138861 6.56762e-06 0)
(-0.00143238 9.61964e-06 0)
(-0.00147669 1.22439e-05 0)
(-0.00152142 1.60846e-05 0)
(-0.00156552 1.99653e-05 0)
(-0.00160935 2.36626e-05 0)
(-0.00165281 2.70184e-05 0)
(-0.00169601 2.98959e-05 0)
(-0.00173898 3.22184e-05 0)
(-0.00178179 3.39277e-05 0)
(-0.00182448 3.50285e-05 0)
(-0.00186714 3.55259e-05 0)
(-0.00190976 3.54611e-05 0)
(-0.00195241 3.48597e-05 0)
(-0.00199502 3.37249e-05 0)
(-0.00203776 3.20403e-05 0)
(-0.00208032 2.97695e-05 0)
(-0.0021233 2.67449e-05 0)
(-0.00216578 2.2998e-05 0)
(-0.00220946 1.82961e-05 0)
(-0.00225173 1.28213e-05 0)
(-0.00229581 7.46321e-06 0)
(-0.00233733 -1.53696e-06 0)
(-0.00238427 -8.59768e-06 0)
(-0.00242724 -1.64536e-05 0)
(-0.00247469 -2.20697e-05 0)
(-0.00251868 -2.76091e-05 0)
(-0.0025665 -3.07944e-05 0)
(-0.0026113 -3.36864e-05 0)
(-0.00265975 -3.47885e-05 0)
(-0.0027053 -3.56876e-05 0)
(-0.00275466 -3.53885e-05 0)
(-0.002801 -3.51327e-05 0)
(-0.0028516 -3.36971e-05 0)
(-0.00289902 -3.28712e-05 0)
(-0.00295108 -3.0325e-05 0)
(-0.00299999 -2.90077e-05 0)
(-0.00305373 -2.53497e-05 0)
(-0.00310447 -2.32045e-05 0)
(-0.00316043 -1.80892e-05 0)
(-0.00321322 -1.46079e-05 0)
(-0.00327198 -7.22943e-06 0)
(-0.00332703 -1.67731e-06 0)
(-0.00338754 9.52924e-06 0)
(-0.00344329 1.51865e-05 0)
(-0.00350648 2.43321e-05 0)
(-0.00356237 2.9113e-05 0)
(-0.00362687 3.55208e-05 0)
(-0.00368504 3.61815e-05 0)
(-0.00375221 3.83551e-05 0)
(-0.00381356 3.56352e-05 0)
(-0.00388356 3.45569e-05 0)
(-0.00394773 2.98712e-05 0)
(-0.00402033 2.66562e-05 0)
(-0.00408707 2.12522e-05 0)
(-0.00416163 1.70306e-05 0)
(-0.00423018 1.27399e-05 0)
(-0.00430453 6.12102e-06 0)
(-0.00437585 5.99901e-07 0)
(-0.00445232 -3.73166e-06 0)
(-0.00452522 -6.92653e-06 0)
(-0.004603 -7.83811e-06 0)
(-0.00467554 -4.69133e-06 0)
(-0.00475234 1.12176e-06 0)
(-0.00482139 1.40583e-05 0)
(-0.00489265 2.66258e-05 0)
(-0.0049585 4.54319e-05 0)
(-0.00502575 6.18284e-05 0)
(-0.00508447 8.27447e-05 0)
(-0.00514524 0.000101683 0)
(-0.00519162 0.000124038 0)
(-0.00524407 0.000141553 0)
(-0.00527804 0.000164717 0)
(-0.00531719 0.00017823 0)
(-0.00533782 0.000198146 0)
(-0.00535846 0.000203055 0)
(-0.00536133 0.00021486 0)
(-0.00535472 0.000201285 0)
(-0.00532736 0.000185663 0)
(-0.00529112 0.000129024 0)
(-0.00524145 6.82554e-05 0)
(-0.00517852 -3.93681e-05 0)
(-0.00511822 -0.00013754 0)
(-0.00506999 -0.00023661 0)
(-0.0049919 -0.00031325 0)
(-0.00491516 -0.000372248 0)
(-0.00480466 -0.000427132 0)
(-0.00470095 -0.00046003 0)
(-0.00456118 -0.000493972 0)
(-0.0044343 -0.000502395 0)
(-0.00427293 -0.000504914 0)
(-0.00412556 -0.000464835 0)
(-0.00394411 -0.00040608 0)
(-0.00376627 -0.000292453 0)
(-0.00355697 -0.000141444 0)
(-0.00334608 2.80833e-05 0)
(-0.00310543 0.000244928 0)
(-0.00280245 0.00034972 0)
(-0.00251859 0.000443578 0)
(-0.00220309 0.000446355 0)
(-0.00189378 0.000439744 0)
(-0.00150767 0.000326325 0)
(-0.00120326 0.000163102 0)
(-0.000942609 -3.17192e-05 0)
(-0.000722204 -9.04159e-05 0)
(-0.000405075 -0.000138436 0)
(-0.000148414 -0.000140942 0)
(0.000187321 -0.000133284 0)
(0.000455647 -0.000114933 0)
(0.000798042 -0.000101433 0)
(0.00106436 -8.47903e-05 0)
(0.0013955 -7.52661e-05 0)
(0.00165682 -6.35321e-05 0)
(0.00197022 -5.86831e-05 0)
(0.00222387 -4.99354e-05 0)
(0.00251403 -4.78185e-05 0)
(0.0027582 -4.11358e-05 0)
(0.00302225 -3.9891e-05 0)
(0.00325533 -3.61072e-05 0)
(0.00349112 -3.41673e-05 0)
(0.00370991 -3.23042e-05 0)
(0.00392012 -2.96789e-05 0)
(0.00411855 -2.69485e-05 0)
(0.00430617 -2.45129e-05 0)
(0.0044825 -2.27335e-05 0)
(0.00464742 -2.11942e-05 0)
(0.0048009 -1.97695e-05 0)
(0.00494306 -1.83279e-05 0)
(0.00507417 -1.69136e-05 0)
(0.00519447 -1.55226e-05 0)
(0.00530416 -1.42574e-05 0)
(0.00540368 -1.29245e-05 0)
(0.00549304 -1.1797e-05 0)
(0.00557312 -1.04819e-05 0)
(0.00564295 -9.45939e-06 0)
(0.00570533 -7.99479e-06 0)
(0.00575709 -6.91046e-06 0)
(0.00580325 -5.14651e-06 0)
(0.00583898 -4.14811e-06 0)
(0.00587025 -2.51835e-06 0)
(0.00589164 -1.63642e-06 0)
(0.0059093 -2.15348e-07 0)
(0.00591821 6.19252e-07 0)
(0.00592393 1.71906e-06 0)
(0.00592239 2.30768e-06 0)
(0.00591623 3.08623e-06 0)
(0.00590538 4.22821e-06 0)
(0.00589007 4.90139e-06 0)
(0.00587059 5.09987e-06 0)
(0.00584717 5.11722e-06 0)
(0.00582013 5.09248e-06 0)
(0.00578982 5.0348e-06 0)
(0.00575653 4.95137e-06 0)
(0.00572058 4.85325e-06 0)
(0.00568222 4.75292e-06 0)
(0.00564169 4.66962e-06 0)
(0.00559915 4.64796e-06 0)
(0.0055549 4.84502e-06 0)
(0.00550921 5.17209e-06 0)
(0.00546229 5.54002e-06 0)
(0.0054143 5.90138e-06 0)
(0.00536541 6.2082e-06 0)
(0.00531578 6.40308e-06 0)
(0.00526551 6.38552e-06 0)
(0.00521467 6.15217e-06 0)
(0.00516336 5.78104e-06 0)
(0.00511163 5.34162e-06 0)
(0.00505964 4.9455e-06 0)
(0.00500764 4.58571e-06 0)
(0.00495538 4.25289e-06 0)
(0.00490338 4.04134e-06 0)
(0.00485138 3.72601e-06 0)
(0.00479975 3.76813e-06 0)
(0.00474813 3.48564e-06 0)
(0.00469724 3.50836e-06 0)
(0.00464639 3.23053e-06 0)
(0.0045964 3.09126e-06 0)
(0.00454664 2.89079e-06 0)
(0.0044977 2.73167e-06 0)
(0.00444922 2.53259e-06 0)
(0.00440149 2.38448e-06 0)
(0.00435436 2.21742e-06 0)
(0.00430797 2.09936e-06 0)
(0.00426228 2.0234e-06 0)
(0.00421736 1.9681e-06 0)
(0.00417322 1.92248e-06 0)
(0.00412986 1.88448e-06 0)
(0.00408731 1.85463e-06 0)
(0.00404556 1.83525e-06 0)
(0.00400462 1.82111e-06 0)
(0.00396449 1.80837e-06 0)
(0.00392517 1.78839e-06 0)
(0.00388667 1.79594e-06 0)
(0.00384902 1.72366e-06 0)
(0.00381211 1.75748e-06 0)
(0.00377619 1.66973e-06 0)
(0.00374082 1.76098e-06 0)
(0.00370661 1.71905e-06 0)
(0.00367282 1.89262e-06 0)
(0.00364031 1.94169e-06 0)
(0.00360808 2.19379e-06 0)
(0.00357723 2.27924e-06 0)
(0.00354652 2.552e-06 0)
(0.00351727 2.55742e-06 0)
(0.00348805 2.79799e-06 0)
(0.00346036 2.70007e-06 0)
(0.00343263 2.93948e-06 0)
(0.00340649 2.78603e-06 0)
(0.00338026 3.0228e-06 0)
(0.00335568 2.72039e-06 0)
(0.0033309 2.9782e-06 0)
(0.00330781 2.59268e-06 0)
(0.00328441 2.89328e-06 0)
(0.00326274 2.45036e-06 0)
(0.00324065 2.78606e-06 0)
(0.00322035 2.30007e-06 0)
(0.00319953 2.65621e-06 0)
(0.00318053 2.14039e-06 0)
(0.00316094 2.50082e-06 0)
(0.00314319 1.96345e-06 0)
(0.0031248 2.31223e-06 0)
(0.00310824 1.76216e-06 0)
(0.00309098 2.09357e-06 0)
(0.00307554 1.54405e-06 0)
(0.0030593 1.86733e-06 0)
(0.00304492 1.32776e-06 0)
(0.00302969 1.6536e-06 0)
(0.00301635 1.10375e-06 0)
(0.0030021 1.41385e-06 0)
(0.00298976 8.16883e-07 0)
(0.00297648 1.10783e-06 0)
(0.0029651 5.10244e-07 0)
(0.00295276 8.05508e-07 0)
(0.00294231 2.40795e-07 0)
(0.00293087 5.52503e-07 0)
(0.00292129 2.68184e-08 0)
(0.00291071 3.57917e-07 0)
(0.00290196 -1.36783e-07 0)
(0.00289218 2.11627e-07 0)
(0.00288423 -2.58739e-07 0)
(0.00287521 1.03378e-07 0)
(0.00286801 -3.44641e-07 0)
(0.00285972 2.90057e-08 0)
(0.00285322 -3.92908e-07 0)
(0.00284562 -8.14908e-09 0)
(0.00283979 -3.93658e-07 0)
(0.00283284 2.57338e-09 0)
(0.00282764 -3.32406e-07 0)
(0.00282131 7.27545e-08 0)
(0.00281671 -2.01663e-07 0)
(0.00281097 1.99505e-07 0)
(0.00280692 -3.10233e-08 0)
(0.00280173 3.35181e-07 0)
(0.00279819 9.15067e-08 0)
(0.0027935 3.76853e-07 0)
(0.00279044 1.17013e-07 0)
(0.00278622 3.28758e-07 0)
(0.00278359 8.56199e-08 0)
(0.00277985 2.57985e-07 0)
(0.00277762 2.3652e-08 0)
(0.00277434 1.80093e-07 0)
(0.00277251 -3.68297e-08 0)
(0.00276968 1.04968e-07 0)
(0.0027682 -9.26375e-08 0)
(0.00276581 3.37237e-08 0)
(0.00276466 -1.4115e-07 0)
(0.00276268 -3.13318e-08 0)
(0.00276181 -1.81799e-07 0)
(0.00276023 -9.26022e-08 0)
(0.00275959 -2.15242e-07 0)
(0.00275841 -1.50709e-07 0)
(0.00275794 -2.44381e-07 0)
(0.00275718 -2.11203e-07 0)
(0.00275683 -2.58385e-07 0)
(0.0027565 -2.64629e-07 0)
(0.00275628 -2.82128e-07 0)
(0.00275619 -3.05623e-07 0)
(0.0027562 -3.12735e-07 0)
(0.00275639 -3.42642e-07 0)
(0.00275658 -3.41101e-07 0)
(0.00275701 -3.77875e-07 0)
(0.00275736 -3.66076e-07 0)
(0.00275801 -4.03459e-07 0)
(0.00275851 -3.87182e-07 0)
(0.00275933 -4.2302e-07 0)
(0.00275999 -4.04632e-07 0)
(0.00276097 -4.40004e-07 0)
(0.00276177 -4.21168e-07 0)
(0.0027629 -4.58561e-07 0)
(0.00276385 -4.40073e-07 0)
(0.00276515 -4.78964e-07 0)
(0.00276626 -4.60734e-07 0)
(0.00276773 -5.09269e-07 0)
(0.00276901 -4.81893e-07 0)
(0.00277061 -5.23797e-07 0)
(0.00277204 -4.99444e-07 0)
(0.00277376 -5.37048e-07 0)
(0.00277533 -5.15577e-07 0)
(0.00277716 -5.47806e-07 0)
(0.00277886 -5.29075e-07 0)
(0.0027808 -5.51474e-07 0)
(0.00278261 -5.41765e-07 0)
(0.00278469 -5.35113e-07 0)
(0.00278657 -5.53677e-07 0)
(0.00278884 -5.06427e-07 0)
(0.00279075 -5.4399e-07 0)
(0.00279322 -4.8145e-07 0)
(0.00279515 -5.17855e-07 0)
(0.00279778 -4.65473e-07 0)
(0.00279977 -4.93771e-07 0)
(0.00280252 -4.46565e-07 0)
(0.00280461 -4.73926e-07 0)
(0.00280747 -4.24168e-07 0)
(0.00280968 -4.60766e-07 0)
(0.00281265 -4.00711e-07 0)
(0.00281497 -4.46767e-07 0)
(0.00281802 -3.77542e-07 0)
(0.00282045 -4.27934e-07 0)
(0.00282357 -3.58269e-07 0)
(0.0028261 -4.12656e-07 0)
(0.00282927 -3.50687e-07 0)
(0.0028319 -4.0659e-07 0)
(0.00283513 -3.56421e-07 0)
(0.00283788 -4.12161e-07 0)
(0.00284117 -3.74086e-07 0)
(0.00284402 -4.30908e-07 0)
(0.00284737 -3.95902e-07 0)
(0.00285034 -4.48601e-07 0)
(0.00285377 -4.09352e-07 0)
(0.00285686 -4.46901e-07 0)
(0.00286039 -4.04312e-07 0)
(0.00286361 -4.24551e-07 0)
(0.00286722 -3.81913e-07 0)
(0.00287057 -3.95033e-07 0)
(0.00287425 -3.59164e-07 0)
(0.00287774 -3.63189e-07 0)
(0.00288148 -3.4215e-07 0)
(0.00288512 -3.30814e-07 0)
(0.0028889 -3.36355e-07 0)
(0.00289272 -2.91782e-07 0)
(0.00289652 -3.35873e-07 0)
(0.00290055 -2.67698e-07 0)
(0.00290436 -3.28725e-07 0)
(0.00290858 -2.6087e-07 0)
(0.00291246 -3.18189e-07 0)
(0.0029168 -2.59029e-07 0)
(0.00292077 -3.13257e-07 0)
(0.00292524 -2.57202e-07 0)
(0.00292931 -3.11893e-07 0)
(0.00293389 -2.56477e-07 0)
(0.00293809 -3.12891e-07 0)
(0.00294277 -2.56462e-07 0)
(0.00294709 -3.13468e-07 0)
(0.00295189 -2.557e-07 0)
(0.00295633 -3.13127e-07 0)
(0.00296125 -2.55192e-07 0)
(0.00296582 -3.13257e-07 0)
(0.00297084 -2.55986e-07 0)
(0.00297555 -3.14732e-07 0)
(0.00298069 -2.58377e-07 0)
(0.00298551 -3.17731e-07 0)
(0.00299077 -2.61909e-07 0)
(0.00299572 -3.2165e-07 0)
(0.00300109 -2.65988e-07 0)
(0.00300617 -3.25838e-07 0)
(0.00301166 -2.70159e-07 0)
(0.00301686 -3.29848e-07 0)
(0.00302247 -2.7429e-07 0)
(0.0030278 -3.33678e-07 0)
(0.00303352 -2.78533e-07 0)
(0.00303897 -3.37588e-07 0)
(0.00304481 -2.83058e-07 0)
(0.00305039 -3.41794e-07 0)
(0.00305633 -2.87875e-07 0)
(0.00306204 -3.46324e-07 0)
(0.0030681 -2.92858e-07 0)
(0.00307392 -3.51209e-07 0)
(0.00308009 -2.98134e-07 0)
(0.00308603 -3.56864e-07 0)
(0.00309232 -3.04201e-07 0)
(0.00309838 -3.63493e-07 0)
(0.00310477 -3.11106e-07 0)
(0.00311095 -3.70519e-07 0)
(0.00311746 -3.18321e-07 0)
(0.00312376 -3.77629e-07 0)
(0.00313037 -3.25809e-07 0)
(0.00313679 -3.84871e-07 0)
(0.00314352 -3.33718e-07 0)
(0.00315006 -3.92314e-07 0)
(0.0031569 -3.42129e-07 0)
(0.00316356 -3.99969e-07 0)
(0.00317051 -3.51005e-07 0)
(0.00317729 -4.0774e-07 0)
(0.00318435 -3.6021e-07 0)
(0.00319124 -4.15491e-07 0)
(0.00319842 -3.69529e-07 0)
(0.00320542 -4.2306e-07 0)
(0.00321271 -3.78761e-07 0)
(0.00321981 -4.30366e-07 0)
(0.00322721 -3.8774e-07 0)
(0.00323442 -4.37355e-07 0)
(0.00324191 -3.96425e-07 0)
(0.00324923 -4.44101e-07 0)
(0.00325682 -4.04903e-07 0)
(0.00326423 -4.50842e-07 0)
(0.00327191 -4.13539e-07 0)
(0.00327942 -4.5799e-07 0)
(0.00328719 -4.22693e-07 0)
(0.00329478 -4.65553e-07 0)
(0.00330265 -4.32174e-07 0)
(0.00331033 -4.7319e-07 0)
(0.00331828 -4.4173e-07 0)
(0.00332604 -4.8068e-07 0)
(0.00333407 -4.51215e-07 0)
(0.00334191 -4.87941e-07 0)
(0.00335002 -4.60556e-07 0)
(0.00335794 -4.94937e-07 0)
(0.00336613 -4.69723e-07 0)
(0.00337412 -5.0166e-07 0)
(0.00338238 -4.78728e-07 0)
(0.00339044 -5.08149e-07 0)
(0.00339877 -4.87654e-07 0)
(0.00340689 -5.14567e-07 0)
(0.00341529 -4.9544e-07 0)
(0.00342347 -5.21207e-07 0)
(0.00343193 -5.02661e-07 0)
(0.00344016 -5.27932e-07 0)
(0.00344868 -5.09644e-07 0)
(0.00345696 -5.34468e-07 0)
(0.00346554 -5.16585e-07 0)
(0.00347387 -5.40696e-07 0)
(0.0034825 -5.24218e-07 0)
(0.00349088 -5.46766e-07 0)
(0.00349956 -5.33012e-07 0)
(0.00350798 -5.52478e-07 0)
(0.00351671 -5.41814e-07 0)
(0.00352517 -5.57874e-07 0)
(0.00353394 -5.5004e-07 0)
(0.00354244 -5.6328e-07 0)
(0.00355125 -5.58293e-07 0)
(0.00355978 -5.68672e-07 0)
(0.00356863 -5.66071e-07 0)
(0.0035772 -5.74016e-07 0)
(0.00358609 -5.73639e-07 0)
(0.0035947 -5.79244e-07 0)
(0.00360361 -5.82073e-07 0)
(0.00361227 -5.82672e-07 0)
(0.0036212 -5.94903e-07 0)
(0.00362989 -5.83993e-07 0)
(0.00363887 -6.04724e-07 0)
(0.00364751 -5.8387e-07 0)
(0.00365664 -6.16103e-07 0)
(0.00366513 -5.80679e-07 0)
(0.00367451 -6.3079e-07 0)
(0.00368269 -5.70421e-07 0)
(0.00369249 -6.51713e-07 0)
(0.00370013 -5.46084e-07 0)
(0.00371059 -6.84841e-07 0)
(0.00371739 -4.93865e-07 0)
(0.00372883 -7.43454e-07 0)
(0.00373439 -3.89356e-07 0)
(0.00374729 -8.70431e-07 0)
(0.00375125 -2.24527e-07 0)
(0.00376648 -1.26404e-06 0)
(0.00376891 -2.44853e-07 0)
(0.00378873 -3.08848e-06 0)
(0.00379107 -1.70033e-06 0)
(0.00382322 -8.99587e-06 0)
(1.09291e-06 -5.29336e-06 0)
(-1.30783e-05 1.23887e-05 0)
(-5.73176e-05 4.04955e-05 0)
(-0.000130497 6.4141e-05 0)
(-0.000228844 8.26965e-05 0)
(-0.000344366 9.25958e-05 0)
(-0.000472518 9.84606e-05 0)
(-0.00060746 0.000100137 0)
(-0.000746303 0.000100038 0)
(-0.000887019 9.86204e-05 0)
(-0.00102732 9.69403e-05 0)
(-0.00116823 9.54264e-05 0)
(-0.00130798 9.42861e-05 0)
(-0.0014469 9.36784e-05 0)
(-0.00158472 9.3497e-05 0)
(-0.00172162 9.37093e-05 0)
(-0.00185762 9.4286e-05 0)
(-0.00199273 9.51652e-05 0)
(-0.00212704 9.60596e-05 0)
(-0.00226027 9.66003e-05 0)
(-0.00239216 9.71673e-05 0)
(-0.00252279 9.77926e-05 0)
(-0.00265219 9.8314e-05 0)
(-0.0027804 9.86182e-05 0)
(-0.00290738 9.86195e-05 0)
(-0.00303318 9.82314e-05 0)
(-0.00315778 9.74637e-05 0)
(-0.00328132 9.62345e-05 0)
(-0.0034038 9.46001e-05 0)
(-0.00352536 9.24267e-05 0)
(-0.00364595 8.95803e-05 0)
(-0.00376557 8.51407e-05 0)
(-0.0038839 7.78751e-05 0)
(-0.00400144 7.43244e-05 0)
(-0.00411964 7.2765e-05 0)
(-0.00423695 6.80561e-05 0)
(-0.00435409 6.29764e-05 0)
(-0.00447074 5.82463e-05 0)
(-0.00458687 5.40621e-05 0)
(-0.00470249 5.04825e-05 0)
(-0.00481758 4.7656e-05 0)
(-0.00493215 4.55566e-05 0)
(-0.00504621 4.42682e-05 0)
(-0.00515986 4.36603e-05 0)
(-0.00527312 4.37285e-05 0)
(-0.00538613 4.43111e-05 0)
(-0.00549895 4.55472e-05 0)
(-0.00561179 4.71604e-05 0)
(-0.00572455 4.97135e-05 0)
(-0.00583795 5.25816e-05 0)
(-0.00595082 5.71099e-05 0)
(-0.00606519 6.13741e-05 0)
(-0.00617806 6.76419e-05 0)
(-0.00629302 7.16815e-05 0)
(-0.00640559 8.32501e-05 0)
(-0.00651906 9.21903e-05 0)
(-0.006631 0.000100139 0)
(-0.00674268 0.000106867 0)
(-0.00685457 0.000112548 0)
(-0.00696689 0.000116628 0)
(-0.00708026 0.000119798 0)
(-0.00719513 0.000121778 0)
(-0.00731054 0.000123048 0)
(-0.00742822 0.000123736 0)
(-0.007546 0.000124031 0)
(-0.00766621 0.000123961 0)
(-0.00778687 0.000123761 0)
(-0.00790908 0.000123131 0)
(-0.00803339 0.000122551 0)
(-0.00815741 0.000121311 0)
(-0.00828548 0.000120154 0)
(-0.00841199 0.000118055 0)
(-0.0085437 0.000115897 0)
(-0.0086733 0.000112105 0)
(-0.00880939 0.000107811 0)
(-0.00894253 9.73102e-05 0)
(-0.00908486 9.4826e-05 0)
(-0.00922337 8.44548e-05 0)
(-0.00937259 8.12837e-05 0)
(-0.00951659 7.74572e-05 0)
(-0.00966902 7.81253e-05 0)
(-0.00981685 8.04064e-05 0)
(-0.00997041 8.38439e-05 0)
(-0.010121 8.87385e-05 0)
(-0.010275 9.38202e-05 0)
(-0.0104279 0.000100255 0)
(-0.0105809 0.000105713 0)
(-0.010735 0.000111719 0)
(-0.0108866 0.000113993 0)
(-0.0110383 0.000123845 0)
(-0.0111857 0.000128956 0)
(-0.0113328 0.000134615 0)
(-0.0114734 0.000138566 0)
(-0.0116108 0.000137898 0)
(-0.0117383 0.000136331 0)
(-0.0118632 0.000125198 0)
(-0.011975 0.00011153 0)
(-0.0120913 9.57224e-05 0)
(-0.0121878 8.02972e-05 0)
(-0.0122884 5.42281e-05 0)
(-0.0123674 4.02341e-05 0)
(-0.0124409 2.85577e-06 0)
(-0.0124966 -8.95258e-06 0)
(-0.0125413 -4.63968e-05 0)
(-0.012564 -5.90885e-05 0)
(-0.0125785 -9.50371e-05 0)
(-0.0125634 -0.000108437 0)
(-0.0125449 -0.000145219 0)
(-0.0124897 -0.000152202 0)
(-0.0124405 -0.000177101 0)
(-0.0123379 -0.000172582 0)
(-0.0122515 -0.000170722 0)
(-0.0120954 -0.000120304 0)
(-0.0119485 -8.95611e-05 0)
(-0.0117045 1.66589e-05 0)
(-0.0114363 4.10505e-05 0)
(-0.0111173 9.26204e-05 0)
(-0.0107885 7.87041e-05 0)
(-0.0104187 0.000103555 0)
(-0.0100307 8.29287e-05 0)
(-0.00960164 8.98297e-05 0)
(-0.00914312 6.67002e-05 0)
(-0.00864475 5.24274e-05 0)
(-0.00808301 1.86157e-05 0)
(-0.00752543 -3.59345e-05 0)
(-0.00684241 -0.000113574 0)
(-0.00623978 -0.000214231 0)
(-0.0055763 -0.000318732 0)
(-0.00504775 -0.000470227 0)
(-0.00453664 -0.000544431 0)
(-0.0039214 -0.000583805 0)
(-0.0033353 -0.000620595 0)
(-0.00269596 -0.000644814 0)
(-0.00209134 -0.000693157 0)
(-0.00144509 -0.000753662 0)
(-0.000606693 -0.000801759 0)
(0.000152598 -0.000788603 0)
(0.000984559 -0.000769755 0)
(0.00170239 -0.000742555 0)
(0.00250928 -0.000720621 0)
(0.00320201 -0.000674296 0)
(0.00397151 -0.000651166 0)
(0.00464836 -0.000618163 0)
(0.00539536 -0.000606385 0)
(0.00605559 -0.000573787 0)
(0.00677004 -0.000561548 0)
(0.00740869 -0.000529335 0)
(0.0080807 -0.000515216 0)
(0.00869367 -0.000486439 0)
(0.00931521 -0.000468563 0)
(0.00989738 -0.000444296 0)
(0.0104684 -0.000422472 0)
(0.0110102 -0.000400566 0)
(0.0115319 -0.000379159 0)
(0.0120276 -0.000358206 0)
(0.012498 -0.000336948 0)
(0.0129434 -0.000314859 0)
(0.0133639 -0.000292702 0)
(0.0137592 -0.000270775 0)
(0.0141292 -0.000249613 0)
(0.0144742 -0.000229099 0)
(0.0147944 -0.000209051 0)
(0.0150902 -0.000189911 0)
(0.0153621 -0.000170905 0)
(0.0156105 -0.000153325 0)
(0.0158363 -0.000134981 0)
(0.0160392 -0.000119519 0)
(0.0162218 -0.000102095 0)
(0.0163818 -8.90039e-05 0)
(0.0165239 -7.33584e-05 0)
(0.016644 -6.18115e-05 0)
(0.0167485 -4.74606e-05 0)
(0.0168322 -3.71094e-05 0)
(0.0169021 -2.4343e-05 0)
(0.0169529 -1.49602e-05 0)
(0.0169914 -4.22689e-06 0)
(0.0170129 4.15183e-06 0)
(0.0170236 1.34069e-05 0)
(0.0170189 2.15611e-05 0)
(0.0170024 2.93363e-05 0)
(0.0169746 3.71143e-05 0)
(0.016936 4.46012e-05 0)
(0.0168874 5.14444e-05 0)
(0.0168293 5.76851e-05 0)
(0.0167626 6.33646e-05 0)
(0.0166879 6.85236e-05 0)
(0.0166058 7.32056e-05 0)
(0.016517 7.74598e-05 0)
(0.0164222 8.13129e-05 0)
(0.0163218 8.43157e-05 0)
(0.0162163 8.66683e-05 0)
(0.0161062 8.86368e-05 0)
(0.0159919 9.03076e-05 0)
(0.015874 9.17245e-05 0)
(0.0157526 9.29468e-05 0)
(0.0156284 9.42711e-05 0)
(0.0155017 9.57222e-05 0)
(0.0153729 9.71308e-05 0)
(0.0152425 9.84496e-05 0)
(0.0151107 9.93194e-05 0)
(0.0149777 9.99486e-05 0)
(0.0148435 0.000100407 0)
(0.0147088 0.000100757 0)
(0.0145732 0.000100465 0)
(0.0144381 0.00010079 0)
(0.0143019 9.98521e-05 0)
(0.0141672 9.99973e-05 0)
(0.0140316 9.87641e-05 0)
(0.0138979 9.85438e-05 0)
(0.0137641 9.72756e-05 0)
(0.0136318 9.65671e-05 0)
(0.0135003 9.53933e-05 0)
(0.0133702 9.44076e-05 0)
(0.0132412 9.32012e-05 0)
(0.0131137 9.19916e-05 0)
(0.0129876 9.05896e-05 0)
(0.0128632 8.9155e-05 0)
(0.0127403 8.764e-05 0)
(0.0126192 8.61053e-05 0)
(0.0124998 8.4542e-05 0)
(0.0123822 8.29628e-05 0)
(0.0122664 8.13616e-05 0)
(0.0121525 7.97409e-05 0)
(0.0120406 7.8135e-05 0)
(0.0119305 7.64094e-05 0)
(0.0118225 7.49205e-05 0)
(0.0117163 7.31343e-05 0)
(0.0116125 7.1657e-05 0)
(0.0115102 6.9833e-05 0)
(0.0114105 6.82459e-05 0)
(0.0113122 6.63599e-05 0)
(0.0112167 6.46459e-05 0)
(0.0111223 6.27454e-05 0)
(0.0110308 6.09932e-05 0)
(0.0109403 5.91737e-05 0)
(0.0108528 5.74955e-05 0)
(0.0107662 5.57941e-05 0)
(0.0106828 5.41541e-05 0)
(0.0106001 5.25652e-05 0)
(0.0105206 5.08535e-05 0)
(0.0104418 4.93809e-05 0)
(0.0103664 4.77386e-05 0)
(0.0102915 4.6464e-05 0)
(0.01022 4.48441e-05 0)
(0.0101487 4.37385e-05 0)
(0.0100809 4.21102e-05 0)
(0.0100132 4.11494e-05 0)
(0.00994905 3.95031e-05 0)
(0.00988487 3.86773e-05 0)
(0.00982415 3.70109e-05 0)
(0.00976337 3.63185e-05 0)
(0.009706 3.46396e-05 0)
(0.00964851 3.40887e-05 0)
(0.00959438 3.24199e-05 0)
(0.00954006 3.20272e-05 0)
(0.00948904 3.04073e-05 0)
(0.00943769 3.0146e-05 0)
(0.00938964 2.85025e-05 0)
(0.00934116 2.82753e-05 0)
(0.00929598 2.66366e-05 0)
(0.00925027 2.64947e-05 0)
(0.00920787 2.49082e-05 0)
(0.00916493 2.48374e-05 0)
(0.00912525 2.32685e-05 0)
(0.00908499 2.32479e-05 0)
(0.00904793 2.16761e-05 0)
(0.00901024 2.16897e-05 0)
(0.00897567 2.01176e-05 0)
(0.00894042 2.01529e-05 0)
(0.00890823 1.86025e-05 0)
(0.00887531 1.86525e-05 0)
(0.00884539 1.71338e-05 0)
(0.00881468 1.71961e-05 0)
(0.00878691 1.57123e-05 0)
(0.00875833 1.57844e-05 0)
(0.00873261 1.43319e-05 0)
(0.00870604 1.44087e-05 0)
(0.00868227 1.29769e-05 0)
(0.00865764 1.30518e-05 0)
(0.00863572 1.16252e-05 0)
(0.00861292 1.16956e-05 0)
(0.00859274 1.02715e-05 0)
(0.00857168 1.0352e-05 0)
(0.00855311 8.96256e-06 0)
(0.00853364 9.09192e-06 0)
(0.00851657 7.8131e-06 0)
(0.0084986 8.01402e-06 0)
(0.008483 6.81834e-06 0)
(0.00846647 7.11394e-06 0)
(0.00845226 5.94943e-06 0)
(0.00843713 6.26024e-06 0)
(0.00842424 5.15844e-06 0)
(0.00841049 5.43204e-06 0)
(0.00839884 4.40414e-06 0)
(0.0083864 4.64042e-06 0)
(0.00837593 3.68874e-06 0)
(0.00836475 3.88647e-06 0)
(0.00835536 3.033e-06 0)
(0.00834536 3.19194e-06 0)
(0.00833696 2.4428e-06 0)
(0.00832808 2.54292e-06 0)
(0.00832057 1.9178e-06 0)
(0.00831278 1.94367e-06 0)
(0.00830605 1.43147e-06 0)
(0.00829932 1.37471e-06 0)
(0.0082933 9.95319e-07 0)
(0.00828758 8.2918e-07 0)
(0.00828228 6.07587e-07 0)
(0.00827738 3.70696e-07 0)
(0.00827287 1.8008e-07 0)
(0.00826874 -6.3342e-08 0)
(0.00826496 -2.07985e-07 0)
(0.00826154 -4.52685e-07 0)
(0.00825844 -5.57742e-07 0)
(0.00825568 -7.96908e-07 0)
(0.00825319 -8.74502e-07 0)
(0.00825102 -1.10056e-06 0)
(0.00824911 -1.16392e-06 0)
(0.0082475 -1.38501e-06 0)
(0.00824615 -1.44707e-06 0)
(0.00824511 -1.67737e-06 0)
(0.00824432 -1.74642e-06 0)
(0.00824386 -1.98538e-06 0)
(0.00824363 -2.06257e-06 0)
(0.00824371 -2.29484e-06 0)
(0.00824411 -2.33668e-06 0)
(0.00824467 -2.55873e-06 0)
(0.00824557 -2.59492e-06 0)
(0.00824663 -2.80212e-06 0)
(0.008248 -2.83477e-06 0)
(0.00824953 -3.0274e-06 0)
(0.00825136 -3.0654e-06 0)
(0.00825336 -3.23271e-06 0)
(0.00825558 -3.30425e-06 0)
(0.00825811 -3.4535e-06 0)
(0.00826062 -3.57612e-06 0)
(0.00826378 -3.68068e-06 0)
(0.00826656 -3.83134e-06 0)
(0.00827021 -3.89363e-06 0)
(0.00827335 -4.05317e-06 0)
(0.00827743 -4.11617e-06 0)
(0.00828095 -4.27273e-06 0)
(0.00828542 -4.34568e-06 0)
(0.00828935 -4.50835e-06 0)
(0.0082942 -4.58504e-06 0)
(0.00829857 -4.769e-06 0)
(0.00830381 -4.81086e-06 0)
(0.00830858 -4.99789e-06 0)
(0.00831419 -5.01376e-06 0)
(0.00831931 -5.19273e-06 0)
(0.00832525 -5.18883e-06 0)
(0.00833072 -5.36837e-06 0)
(0.00833696 -5.34831e-06 0)
(0.00834279 -5.54193e-06 0)
(0.00834934 -5.49795e-06 0)
(0.00835554 -5.71207e-06 0)
(0.00836241 -5.63174e-06 0)
(0.00836899 -5.86723e-06 0)
(0.0083762 -5.78183e-06 0)
(0.00838317 -6.03972e-06 0)
(0.00839075 -5.97026e-06 0)
(0.00839812 -6.25075e-06 0)
(0.00840607 -6.19577e-06 0)
(0.00841385 -6.48616e-06 0)
(0.00842215 -6.43904e-06 0)
(0.00843032 -6.71039e-06 0)
(0.00843897 -6.67819e-06 0)
(0.00844754 -6.93163e-06 0)
(0.00845653 -6.91852e-06 0)
(0.00846549 -7.1547e-06 0)
(0.00847484 -7.15726e-06 0)
(0.00848423 -7.36919e-06 0)
(0.00849387 -7.40376e-06 0)
(0.00850377 -7.56405e-06 0)
(0.00851367 -7.66174e-06 0)
(0.00852404 -7.74982e-06 0)
(0.00853427 -7.92085e-06 0)
(0.00854506 -7.93841e-06 0)
(0.00855564 -8.15615e-06 0)
(0.00856684 -8.1485e-06 0)
(0.0085778 -8.38089e-06 0)
(0.00858938 -8.37283e-06 0)
(0.00860074 -8.60575e-06 0)
(0.00861272 -8.60581e-06 0)
(0.00862448 -8.83503e-06 0)
(0.00863685 -8.84445e-06 0)
(0.00864902 -9.06857e-06 0)
(0.00866177 -9.08524e-06 0)
(0.00867435 -9.30341e-06 0)
(0.0086875 -9.32547e-06 0)
(0.00870048 -9.53718e-06 0)
(0.00871402 -9.56332e-06 0)
(0.00872741 -9.76849e-06 0)
(0.00874134 -9.79921e-06 0)
(0.00875512 -9.99846e-06 0)
(0.00876944 -1.00347e-05 0)
(0.00878362 -1.0229e-05 0)
(0.00879833 -1.02707e-05 0)
(0.00881291 -1.04604e-05 0)
(0.008828 -1.05067e-05 0)
(0.00884297 -1.06917e-05 0)
(0.00885845 -1.07414e-05 0)
(0.00887381 -1.09215e-05 0)
(0.00888967 -1.09733e-05 0)
(0.00890542 -1.11483e-05 0)
(0.00892165 -1.12018e-05 0)
(0.00893778 -1.13717e-05 0)
(0.00895439 -1.14274e-05 0)
(0.0089709 -1.15924e-05 0)
(0.00898787 -1.16506e-05 0)
(0.00900475 -1.18109e-05 0)
(0.00902209 -1.18723e-05 0)
(0.00903934 -1.20277e-05 0)
(0.00905704 -1.20927e-05 0)
(0.00907467 -1.22439e-05 0)
(0.00909274 -1.23128e-05 0)
(0.00911074 -1.24604e-05 0)
(0.00912916 -1.25332e-05 0)
(0.00914753 -1.26777e-05 0)
(0.00916632 -1.27537e-05 0)
(0.00918505 -1.28952e-05 0)
(0.0092042 -1.29733e-05 0)
(0.00922329 -1.31124e-05 0)
(0.00924279 -1.31912e-05 0)
(0.00926224 -1.33279e-05 0)
(0.00928209 -1.34059e-05 0)
(0.00930189 -1.35404e-05 0)
(0.00932209 -1.36157e-05 0)
(0.00934222 -1.37481e-05 0)
(0.00936275 -1.38192e-05 0)
(0.00938321 -1.39497e-05 0)
(0.00940406 -1.40155e-05 0)
(0.00942484 -1.41438e-05 0)
(0.009446 -1.42039e-05 0)
(0.00946708 -1.43302e-05 0)
(0.00948854 -1.43846e-05 0)
(0.00950992 -1.4509e-05 0)
(0.00953165 -1.45581e-05 0)
(0.00955332 -1.46808e-05 0)
(0.00957533 -1.47251e-05 0)
(0.00959727 -1.48464e-05 0)
(0.00961955 -1.4886e-05 0)
(0.00964175 -1.50061e-05 0)
(0.00966429 -1.50409e-05 0)
(0.00968674 -1.51602e-05 0)
(0.00970952 -1.51896e-05 0)
(0.00973221 -1.53082e-05 0)
(0.00975523 -1.53315e-05 0)
(0.00977815 -1.54497e-05 0)
(0.00980139 -1.54662e-05 0)
(0.00982452 -1.55842e-05 0)
(0.00984797 -1.55932e-05 0)
(0.0098713 -1.57115e-05 0)
(0.00989495 -1.57121e-05 0)
(0.00991846 -1.58307e-05 0)
(0.0099423 -1.58265e-05 0)
(0.00996598 -1.59409e-05 0)
(0.00999 -1.59348e-05 0)
(0.0100138 -1.60432e-05 0)
(0.010038 -1.60367e-05 0)
(0.010062 -1.61386e-05 0)
(0.0100863 -1.61325e-05 0)
(0.0101104 -1.62276e-05 0)
(0.0101349 -1.62222e-05 0)
(0.0101591 -1.63103e-05 0)
(0.0101837 -1.6306e-05 0)
(0.010208 -1.63867e-05 0)
(0.0102327 -1.63855e-05 0)
(0.0102572 -1.64574e-05 0)
(0.0102819 -1.64615e-05 0)
(0.0103065 -1.65221e-05 0)
(0.0103313 -1.6533e-05 0)
(0.0103559 -1.65822e-05 0)
(0.0103809 -1.66011e-05 0)
(0.0104055 -1.66412e-05 0)
(0.0104305 -1.66667e-05 0)
(0.0104552 -1.67004e-05 0)
(0.0104802 -1.67317e-05 0)
(0.010505 -1.67479e-05 0)
(0.01053 -1.67973e-05 0)
(0.0105548 -1.67956e-05 0)
(0.0105799 -1.68423e-05 0)
(0.0106046 -1.68414e-05 0)
(0.0106298 -1.68819e-05 0)
(0.0106543 -1.68759e-05 0)
(0.0106798 -1.69112e-05 0)
(0.0107039 -1.68859e-05 0)
(0.0107298 -1.69331e-05 0)
(0.0107532 -1.68467e-05 0)
(0.0107798 -1.69678e-05 0)
(0.0108021 -1.67163e-05 0)
(0.0108299 -1.70921e-05 0)
(0.0108506 -1.64507e-05 0)
(0.0108804 -1.75714e-05 0)
(0.0108987 -1.61505e-05 0)
(0.0109319 -1.93636e-05 0)
(0.0109472 -1.68039e-05 0)
(0.0109873 -2.46327e-05 0)
(0.0109988 -2.19412e-05 0)
(0.0110511 -4.32419e-05 0)
(-4.4297e-06 5.84155e-06 0)
(-4.63529e-05 5.895e-05 0)
(-0.000133729 0.000123923 0)
(-0.000263004 0.000181971 0)
(-0.000426616 0.000227518 0)
(-0.000614699 0.000256852 0)
(-0.000819895 0.000275285 0)
(-0.00103512 0.00028382 0)
(-0.00125582 0.000287257 0)
(-0.00147897 0.000287113 0)
(-0.00170186 0.000285568 0)
(-0.0019241 0.000282798 0)
(-0.00214423 0.000279653 0)
(-0.00236239 0.000276664 0)
(-0.00257839 0.000273763 0)
(-0.00279217 0.000270783 0)
(-0.00300377 0.000267581 0)
(-0.00321302 0.00026458 0)
(-0.00341955 0.000261063 0)
(-0.00362389 0.000256844 0)
(-0.00382661 0.000252508 0)
(-0.00402747 0.000248257 0)
(-0.00422657 0.000244202 0)
(-0.00442375 0.00024038 0)
(-0.00461902 0.000236955 0)
(-0.00481234 0.000233927 0)
(-0.00500367 0.000231668 0)
(-0.00519311 0.000229999 0)
(-0.00538057 0.000229295 0)
(-0.00556622 0.000229181 0)
(-0.00574997 0.000229903 0)
(-0.00593219 0.00023073 0)
(-0.00611335 0.000232786 0)
(-0.00629381 0.000237144 0)
(-0.00647061 0.000240586 0)
(-0.00664459 0.000244581 0)
(-0.00681715 0.000248443 0)
(-0.00698803 0.000251915 0)
(-0.00715728 0.000254964 0)
(-0.00732502 0.000257377 0)
(-0.00749129 0.000259181 0)
(-0.00765644 0.000260187 0)
(-0.00782054 0.000260616 0)
(-0.00798397 0.000260343 0)
(-0.0081467 0.000259612 0)
(-0.0083089 0.000258353 0)
(-0.00847038 0.000256905 0)
(-0.00863145 0.000254762 0)
(-0.00879145 0.000252653 0)
(-0.00895131 0.000249391 0)
(-0.00910967 0.000246096 0)
(-0.00926839 0.000240817 0)
(-0.00942564 0.000235211 0)
(-0.00958607 0.000227924 0)
(-0.00974402 0.000217515 0)
(-0.00990711 0.000208243 0)
(-0.0100671 0.000197248 0)
(-0.0102345 0.000190805 0)