/*--------------------------------*- C++ -*----------------------------------*\
| =========                 |                                                 |
| \\      /  F ield         | OpenFOAM: The Open Source CFD Toolbox           |
|  \\    /   O peration     | Version:  3.0.1                                 |
|   \\  /    A nd           | Web:      www.OpenFOAM.org                      |
|    \\/     M anipulation  |                                                 |
\*---------------------------------------------------------------------------*/
FoamFile
{
    version     2.0;
    format      ascii;
    class       surfaceScalarField;
    location    "0.00025";
    object      phi;
}
// * * * * * * * * * * * * * * * * * * * * * * * * * * * * * * * * * * * * * //

dimensions      [1 0 -1 0 0 0 0];

internalField   nonuniform List<scalar> 
1890
(
2.49449e-12
-1.58619e-16
8.83652e-12
-1.19926e-16
2.99533e-11
-1.21227e-16
9.91054e-11
-1.2055e-16
3.19351e-10
-1.56003e-16
1.00093e-09
-2.22926e-16
3.05007e-09
-3.07737e-16
9.02376e-09
-3.36441e-16
2.59013e-08
-3.25491e-16
7.2026e-08
-4.3013e-16
1.93835e-07
-6.94879e-16
5.04038e-07
-1.44398e-15
1.26459e-06
-3.36362e-15
3.05537e-06
-7.51913e-15
7.09419e-06
-1.59857e-14
1.57871e-05
-3.2263e-14
3.35532e-05
-6.09102e-14
6.77301e-05
-1.05359e-13
0.00012832
-1.62004e-13
0.000221272
-2.088e-13
0.000353103
-2.09684e-13
0.0005248
-1.37348e-13
0.000730287
1.21427e-14
0.000956512
2.81389e-13
0.00118616
5.83002e-13
0.00140159
8.43682e-13
0.00158954
9.98355e-13
0.00174909
1.01683e-12
0.0018792
9.42764e-13
0.00196964
7.78942e-13
0.00201193
5.16073e-13
0.00196633
2.78444e-13
0.00191688
1.20673e-13
0.00187049
1.00222e-13
0.00180612
2.0705e-13
0.00176091
3.36718e-13
0.00174382
5.5589e-13
0.00175717
5.10695e-13
0.00177596
4.58308e-13
0.00178372
2.52823e-13
0.0017962
7.08682e-14
0.00179915
-9.20011e-14
0.00179326
-1.45503e-13
0.00179816
-3.01071e-13
0.00180566
-2.53732e-13
0.00179245
-2.96033e-13
0.00178742
-3.17058e-13
0.0018074
-3.24113e-13
0.00180224
-2.67892e-13
0.00178464
-2.60626e-13
0.00178736
-3.09904e-13
0.00175831
-2.3472e-13
0.00170969
-2.40673e-13
0.00170784
-2.67263e-13
0.00173321
-2.30033e-13
0.00172541
-1.58653e-13
0.00170362
-1.75218e-13
0.00171745
-1.82326e-13
0.00173648
-1.26597e-13
0.00171538
-7.61802e-14
0.00170067
-1.10192e-13
0.00172933
-1.13499e-13
0.00173779
-8.58532e-14
0.00171126
-9.3194e-14
0.00171108
-1.57929e-13
0.00172725
-1.99437e-13
0.00172259
-2.54382e-13
0.00171723
-2.972e-13
0.00171924
-2.69896e-13
0.00173163
-3.85515e-13
0.00173493
-2.70179e-13
0.00173528
-1.6545e-13
0.00173579
-1.43225e-13
0.00175343
-2.34998e-13
0.00178127
3.63397e-16
0.00180461
7.06188e-14
0.00170656
-2.94096e-13
0.00116943
-4.06764e-13
0.000616744
-1.12273e-13
0.000318313
2.32899e-14
0.000159616
4.78927e-14
7.76317e-05
3.70963e-14
3.65213e-05
2.242e-14
1.65833e-05
1.19086e-14
7.26316e-06
5.68588e-15
3.06858e-06
2.57284e-15
1.25161e-06
1.03295e-15
4.93241e-07
4.23022e-16
1.88033e-07
1.30782e-16
6.93961e-08
-3.07168e-17
2.48272e-08
1.03745e-17
8.61538e-09
-1.04808e-16
2.90372e-09
2.71051e-18
9.50899e-10
-1.09199e-16
3.02979e-10
3.30885e-17
9.39426e-11
-2.11853e-16
2.83841e-11
-1.88096e-16
8.37436e-12
-3.01754e-16
2.3663e-12
-2.63631e-16
-2.4732e-16
2.49496e-12
-5.00441e-16
8.83671e-12
-5.53174e-16
2.99534e-11
-4.75748e-16
9.91052e-11
-4.90398e-16
3.19351e-10
-3.38474e-16
1.00093e-09
-4.67467e-16
3.05006e-09
-3.96926e-16
9.02376e-09
-3.73562e-16
2.59013e-08
-2.79304e-16
7.2026e-08
-2.8688e-16
1.93835e-07
-4.4127e-16
5.04038e-07
-9.26654e-16
1.26459e-06
-2.11417e-15
3.05537e-06
-4.70846e-15
7.09419e-06
-1.02795e-14
1.57871e-05
-2.09969e-14
3.35532e-05
-4.0431e-14
6.77301e-05
-7.17352e-14
0.00012832
-1.1482e-13
0.000221272
-1.57816e-13
0.000353103
-1.78411e-13
0.0005248
-1.52059e-13
0.000730287
-3.55274e-14
0.000956512
1.54188e-13
0.00118616
4.01276e-13
0.00140159
6.66647e-13
0.00158954
8.999e-13
0.00174909
1.06771e-12
0.0018792
1.17855e-12
0.00196964
1.21849e-12
0.00201193
1.13623e-12
0.00196633
9.43083e-13
0.00191688
7.82554e-13
0.00187049
6.52762e-13
0.00180612
5.81585e-13
0.00176091
5.26382e-13
0.00174382
4.96804e-13
0.00175717
3.64586e-13
0.00177596
2.58712e-13
0.00178372
5.39167e-14
0.0017962
-1.08144e-13
0.00179915
-2.33371e-13
0.00179326
-2.80821e-13
0.00179816
-3.83277e-13
0.00180566
-3.53034e-13
0.00179245
-3.95479e-13
0.00178742
-3.93238e-13
0.0018074
-3.87503e-13
0.00180224
-3.34884e-13
0.00178464
-3.45025e-13
0.00178736
-3.35916e-13
0.00175831
-2.82915e-13
0.00170969
-2.89015e-13
0.00170784
-2.79743e-13
0.00173321
-2.355e-13
0.00172541
-2.05009e-13
0.00170362
-2.01551e-13
0.00171745
-1.91351e-13
0.00173648
-1.48433e-13
0.00171538
-1.3197e-13
0.00170067
-1.53283e-13
0.00172933
-1.53695e-13
0.00173779
-1.41728e-13
0.00171126
-1.68789e-13
0.00171108
-2.17981e-13
0.00172725
-2.6076e-13
0.00172259
-3.2212e-13
0.00171723
-3.63497e-13
0.00171924
-4.0236e-13
0.00173163
-4.71566e-13
0.00173493
-4.32159e-13
0.00173528
-4.31697e-13
0.00173579
-4.5924e-13
0.00175343
-4.86384e-13
0.00178127
-3.68958e-13
0.00180461
-3.2995e-13
0.00170656
-4.56116e-13
0.00116943
-3.4349e-13
0.000616744
-1.05684e-13
0.000318313
-5.65492e-15
0.000159616
1.82119e-14
7.76317e-05
1.68646e-14
3.65213e-05
1.08149e-14
1.65833e-05
5.90549e-15
7.26316e-06
2.84369e-15
3.06858e-06
1.25937e-15
1.25161e-06
5.21664e-16
4.93241e-07
1.22291e-16
1.88033e-07
2.91041e-17
6.93961e-08
-1.04551e-16
2.48272e-08
-3.98648e-17
8.61538e-09
-1.00356e-17
2.90372e-09
-1.95495e-17
9.50899e-10
-7.7595e-17
3.02979e-10
-1.14227e-16
9.39419e-11
-2.06127e-16
2.83836e-11
-1.66046e-16
8.37395e-12
-3.53714e-16
2.36602e-12
-3.67389e-16
-3.32315e-16
2.49439e-12
-7.35387e-16
8.8365e-12
-6.02274e-16
2.99533e-11
-5.83287e-16
9.91053e-11
-5.07759e-16
3.19351e-10
-5.21461e-16
1.00093e-09
-3.69821e-16
3.05007e-09
-2.54977e-16
9.02376e-09
-1.65869e-16
2.59013e-08
-2.30488e-16
7.2026e-08
-2.43051e-16
1.93835e-07
-3.52027e-16
5.04038e-07
-6.37917e-16
1.26459e-06
-1.30859e-15
3.05537e-06
-2.70252e-15
7.09419e-06
-5.87253e-15
1.57871e-05
-1.2206e-14
3.35532e-05
-2.39256e-14
6.77301e-05
-4.37703e-14
0.00012832
-7.30569e-14
0.000221272
-1.06219e-13
0.000353103
-1.29216e-13
0.0005248
-1.2153e-13
0.000730287
-5.71718e-14
0.000956512
7.36175e-14
0.00118616
2.88718e-13
0.00140159
5.63542e-13
0.00158954
8.62166e-13
0.00174909
1.14729e-12
0.0018792
1.41417e-12
0.00196964
1.61307e-12
0.00201193
1.70276e-12
0.00196633
1.53817e-12
0.00191688
1.37385e-12
0.00187049
1.09946e-12
0.00180612
7.96156e-13
0.00176091
5.06575e-13
0.00174382
1.88651e-13
0.00175717
-3.68332e-14
0.00177596
-1.97202e-13
0.00178372
-3.21559e-13
0.0017962
-3.50078e-13
0.00179915
-3.73765e-13
0.00179326
-3.50265e-13
0.00179816
-3.69388e-13
0.00180566
-3.40304e-13
0.00179245
-3.52666e-13
0.00178742
-3.19341e-13
0.0018074
-3.18827e-13
0.00180224
-2.58335e-13
0.00178464
-2.82801e-13
0.00178736
-2.41363e-13
0.00175831
-2.07169e-13
0.00170969
-1.95853e-13
0.00170784
-1.8484e-13
0.00173321
-1.50774e-13
0.00172541
-1.43754e-13
0.00170362
-1.25532e-13
0.00171745
-1.33438e-13
0.00173648
-1.08426e-13
0.00171538
-1.10499e-13
0.00170067
-1.31655e-13
0.00172933
-1.49948e-13
0.00173779
-1.38899e-13
0.00171126
-1.68207e-13
0.00171108
-2.08218e-13
0.00172725
-2.28155e-13
0.00172259
-2.56114e-13
0.00171723
-3.04682e-13
0.00171924
-3.81483e-13
0.00173163
-4.17919e-13
0.00173493
-5.19033e-13
0.00173528
-6.25993e-13
0.00173579
-6.89809e-13
0.00175343
-7.06773e-13
0.00178127
-7.74754e-13
0.00180461
-7.72191e-13
0.00170656
-6.29532e-13
0.00116943
-4.02082e-13
0.000616744
-1.68464e-13
0.000318313
-5.87228e-14
0.000159616
-1.81599e-14
7.76317e-05
-4.58721e-15
3.65213e-05
-6.63919e-16
1.65833e-05
1.99161e-16
7.26316e-06
1.90833e-16
3.06858e-06
1.27463e-17
1.25161e-06
-8.78204e-17
4.93241e-07
-2.10322e-16
1.88033e-07
-2.14855e-16
6.93961e-08
-2.37549e-16
2.48272e-08
-2.21489e-16
8.61538e-09
-2.10511e-16
2.90372e-09
-2.20235e-16
9.50899e-10
-1.92737e-16
3.02979e-10
-2.36437e-16
9.39419e-11
-2.01221e-16
2.83836e-11
-1.9391e-16
8.37426e-12
-1.55685e-16
2.36674e-12
-1.89532e-16
-2.00354e-16
2.49512e-12
-1.83257e-16
8.83701e-12
-2.10159e-16
2.99539e-11
-2.00401e-16
9.91058e-11
-1.98992e-16
3.19351e-10
-2.57213e-16
1.00093e-09
-1.71114e-16
3.05007e-09
-1.96186e-16
9.02376e-09
-1.06645e-16
2.59013e-08
-1.82512e-16
7.2026e-08
-1.36881e-16
1.93835e-07
-2.30149e-16
5.04038e-07
-2.96855e-16
1.26459e-06
-6.16897e-16
3.05537e-06
-1.31587e-15
7.09419e-06
-2.96636e-15
1.57871e-05
-6.38464e-15
3.35532e-05
-1.2566e-14
6.77301e-05
-2.31762e-14
0.00012832
-3.86625e-14
0.000221272
-5.5921e-14
0.000353103
-6.561e-14
0.0005248
-5.47102e-14
0.000730287
4.41308e-15
0.000956512
1.19616e-13
0.00118616
3.08548e-13
0.00140159
5.65956e-13
0.00158954
8.71052e-13
0.00174909
1.19235e-12
0.0018792
1.51687e-12
0.00196964
1.80013e-12
0.00201193
1.99016e-12
0.00196633
1.92283e-12
0.00191688
1.73793e-12
0.00187049
1.3517e-12
0.00180612
8.70845e-13
0.00176091
3.63825e-13
0.00174382
-1.74417e-13
0.00175717
-4.58727e-13
0.00177596
-6.22945e-13
0.00178372
-6.30501e-13
0.0017962
-5.01682e-13
0.00179915
-3.96105e-13
0.00179326
-2.80296e-13
0.00179816
-2.00802e-13
0.00180566
-1.63947e-13
0.00179245
-1.40923e-13
0.00178742
-1.20758e-13
0.0018074
-1.20698e-13
0.00180224
-8.7396e-14
0.00178464
-1.02771e-13
0.00178736
-8.31819e-14
0.00175831
-6.44742e-14
0.00170969
-6.42144e-14
0.00170784
-6.78631e-14
0.00173321
-4.15671e-14
0.00172541
-2.82324e-14
0.00170362
-2.02453e-14
0.00171745
-5.08789e-14
0.00173648
-2.65419e-14
0.00171538
-1.8088e-14
0.00170067
-4.90692e-14
0.00172933
-8.56824e-14
0.00173779
-5.29961e-14
0.00171126
-6.49478e-14
0.00171108
-1.09541e-13
0.00172725
-1.31265e-13
0.00172259
-1.22583e-13
0.00171723
-1.64288e-13
0.00171924
-2.31052e-13
0.00173163
-2.81176e-13
0.00173493
-4.42375e-13
0.00173528
-6.05014e-13
0.00173579
-7.34929e-13
0.00175343
-8.38082e-13
0.00178127
-1.0652e-12
0.00180461
-1.13995e-12
0.00170656
-9.73282e-13
0.00116943
-6.73149e-13
0.000616744
-3.25105e-13
0.000318313
-1.44166e-13
0.000159616
-6.30213e-14
7.76317e-05
-2.71574e-14
3.65213e-05
-1.15278e-14
1.65833e-05
-4.83824e-15
7.26316e-06
-2.04417e-15
3.06858e-06
-9.74054e-16
1.25161e-06
-5.62017e-16
4.93241e-07
-3.92197e-16
1.88033e-07
-2.53405e-16
6.93961e-08
-1.53774e-16
2.48272e-08
-1.043e-16
8.61538e-09
-9.3072e-17
2.90372e-09
-9.67854e-17
9.50899e-10
-2.46724e-17
3.02979e-10
-6.45304e-17
9.39417e-11
4.49334e-17
2.83832e-11
4.11319e-18
8.37365e-12
1.29989e-16
2.36596e-12
7.1476e-17
1.6177e-16
2.49497e-12
2.22668e-17
8.83704e-12
-6.15827e-17
2.99537e-11
-6.83589e-17
9.91055e-11
-1.35959e-16
3.19351e-10
-1.07878e-16
1.00093e-09
-6.03901e-17
3.05007e-09
-3.13063e-17
9.02376e-09
-1.69e-17
2.59013e-08
-4.33003e-17
7.2026e-08
-3.9099e-17
1.93835e-07
-9.8947e-17
5.04038e-07
-4.02103e-17
1.26459e-06
-1.73025e-16
3.05537e-06
-3.99352e-16
7.09419e-06
-9.9775e-16
1.57871e-05
-2.02774e-15
3.35532e-05
-3.75473e-15
6.77301e-05
-6.18138e-15
0.00012832
-8.13935e-15
0.000221272
-5.99964e-15
0.000353103
7.53023e-15
0.0005248
4.40709e-14
0.000730287
1.18766e-13
0.000956512
2.46719e-13
0.00118616
4.37863e-13
0.00140159
6.9061e-13
0.00158954
9.89029e-13
0.00174909
1.30568e-12
0.0018792
1.62661e-12
0.00196964
1.90385e-12
0.00201193
2.07775e-12
0.00196633
1.94051e-12
0.00191688
1.70335e-12
0.00187049
1.228e-12
0.00180612
6.81839e-13
0.00176091
1.43691e-13
0.00174382
-4.44639e-13
0.00175717
-6.8709e-13
0.00177596
-7.9601e-13
0.00178372
-6.73383e-13
0.0017962
-4.10198e-13
0.00179915
-2.52861e-13
0.00179326
-1.03593e-13
0.00179816
1.33851e-14
0.00180566
3.71249e-14
0.00179245
7.87681e-14
0.00178742
8.87015e-14
0.0018074
7.54013e-14
0.00180224
5.77054e-14
0.00178464
5.85811e-14
0.00178736
5.26817e-14
0.00175831
3.11322e-14
0.00170969
3.01641e-14
0.00170784
3.66985e-14
0.00173321
3.55846e-14
0.00172541
3.08418e-14
0.00170362
5.44821e-14
0.00171745
2.49078e-14
0.00173648
2.17928e-14
0.00171538
2.75525e-14
0.00170067
3.62029e-14
0.00172933
-3.19482e-15
0.00173779
1.51553e-14
0.00171126
3.09711e-14
0.00171108
-2.64979e-16
0.00172725
-3.26033e-14
0.00172259
-1.68644e-15
0.00171723
-1.91739e-14
0.00171924
-6.23096e-14
0.00173163
-1.2082e-13
0.00173493
-2.63614e-13
0.00173528
-4.37109e-13
0.00173579
-6.26671e-13
0.00175343
-8.39481e-13
0.00178127
-1.2005e-12
0.00180461
-1.43634e-12
0.00170656
-1.41922e-12
0.00116943
-1.12406e-12
0.000616744
-5.95619e-13
0.000318313
-2.85531e-13
0.000159616
-1.34903e-13
7.76317e-05
-6.26406e-14
3.65213e-05
-2.84932e-14
1.65833e-05
-1.26357e-14
7.26316e-06
-5.5111e-15
3.06858e-06
-2.39009e-15
1.25161e-06
-1.06694e-15
4.93241e-07
-5.20986e-16
1.88033e-07
-2.43851e-16
6.93961e-08
-1.37335e-16
2.48272e-08
-4.07931e-17
8.61538e-09
-1.84382e-17
2.90372e-09
-1.51043e-17
9.509e-10
-8.44458e-17
3.02979e-10
-5.62633e-17
9.39425e-11
-1.03873e-16
2.8384e-11
-1.33797e-16
8.37439e-12
-1.45364e-16
2.36685e-12
-1.50243e-16
-1.76257e-16
2.49445e-12
2.57091e-16
8.83645e-12
2.38823e-16
2.99533e-11
2.03993e-16
9.91054e-11
2.47307e-16
3.19351e-10
2.57227e-16
1.00093e-09
2.04684e-16
3.05007e-09
2.35204e-16
9.02376e-09
1.07106e-16
2.59013e-08
7.05951e-17
7.2026e-08
1.33763e-17
1.93835e-07
7.19368e-17
5.04038e-07
6.21926e-17
1.26459e-06
1.21065e-16
3.05537e-06
2.18968e-16
7.09419e-06
4.25536e-16
1.57871e-05
1.21482e-15
3.35532e-05
3.2425e-15
6.77301e-05
8.23171e-15
0.00012832
1.95885e-14
0.000221272
4.31651e-14
0.000353103
8.66658e-14
0.0005248
1.60893e-13
0.000730287
2.76549e-13
0.000956512
4.41899e-13
0.00118616
6.57468e-13
0.00140159
9.12021e-13
0.00158954
1.18188e-12
0.00174909
1.43821e-12
0.0018792
1.67182e-12
0.00196964
1.83863e-12
0.00201193
1.88566e-12
0.00196633
1.65044e-12
0.00191688
1.3112e-12
0.00187049
8.02872e-13
0.00180612
2.83457e-13
0.00176091
-1.32398e-13
0.00174382
-4.50588e-13
0.00175717
-4.18292e-13
0.00177596
-3.14916e-13
0.00178372
-1.39644e-13
0.0017962
9.95499e-14
0.00179915
9.23463e-14
0.00179326
1.74353e-13
0.00179816
1.66798e-13
0.00180566
1.24531e-13
0.00179245
1.10167e-13
0.00178742
1.55507e-13
0.0018074
9.29603e-14
0.00180224
7.36347e-15
0.00178464
4.04361e-14
0.00178736
4.20882e-14
0.00175831
-6.97839e-14
0.00170969
-2.94912e-14
0.00170784
6.06105e-14
0.00173321
-3.09564e-15
0.00172541
-8.86758e-14
0.00170362
-6.44543e-15
0.00171745
4.20386e-14
0.00173648
-4.54692e-14
0.00171538
-9.55133e-14
0.00170067
4.18973e-14
0.00172933
4.71144e-14
0.00173779
-3.41576e-14
0.00171126
-8.41722e-15
0.00171108
5.14669e-14
0.00172725
3.69375e-14
0.00172259
4.49216e-14
0.00171723
5.28864e-14
0.00171924
7.09251e-14
0.00173163
1.11402e-14
0.00173493
-5.09978e-14
0.00173528
-1.48934e-13
0.00173579
-3.53974e-13
0.00175343
-6.84556e-13
0.00178127
-1.1145e-12
0.00180461
-1.53804e-12
0.00170656
-1.91e-12
0.00116943
-1.72584e-12
0.000616744
-9.78474e-13
0.000318313
-4.9431e-13
0.000159616
-2.44017e-13
7.76317e-05
-1.17726e-13
3.65213e-05
-5.5369e-14
1.65833e-05
-2.5282e-14
7.26316e-06
-1.12699e-14
3.06858e-06
-4.86589e-15
1.25161e-06
-2.09515e-15
4.93241e-07
-9.29331e-16
1.88033e-07
-4.31004e-16
6.93961e-08
-2.78572e-16
2.48272e-08
-1.56776e-16
8.61538e-09
-7.18487e-17
2.90372e-09
2.70237e-17
9.50899e-10
1.01644e-17
3.02979e-10
3.79403e-17
9.39418e-11
-1.67577e-17
2.83834e-11
1.86212e-17
8.37376e-12
3.01815e-17
2.36613e-12
2.48486e-17
3.83672e-17
2.49498e-12
7.17105e-16
8.83702e-12
6.42593e-16
2.99539e-11
6.64114e-16
9.91059e-11
5.87665e-16
3.19352e-10
5.03775e-16
1.00093e-09
3.77709e-16
3.05007e-09
2.4938e-16
9.02376e-09
1.65842e-16
2.59013e-08
1.75465e-16
7.2026e-08
9.6887e-17
1.93835e-07
1.38737e-16
5.04038e-07
1.02389e-16
1.26459e-06
3.72152e-16
3.05537e-06
7.7248e-16
7.09419e-06
1.87236e-15
1.57871e-05
4.42318e-15
3.35532e-05
1.01786e-14
6.77301e-05
2.28269e-14
0.00012832
4.85653e-14
0.000221272
9.60652e-14
0.000353103
1.74634e-13
0.0005248
2.9524e-13
0.000730287
4.64591e-13
0.000956512
6.81894e-13
0.00118616
9.34233e-13
0.00140159
1.19507e-12
0.00158954
1.42738e-12
0.00174909
1.60066e-12
0.0018792
1.71512e-12
0.00196964
1.72375e-12
0.00201193
1.57412e-12
0.00196633
1.16396e-12
0.00191688
7.4642e-13
0.00187049
2.69947e-13
0.00180612
-1.16521e-13
0.00176091
-3.20826e-13
0.00174382
-3.44192e-13
0.00175717
-7.47135e-14
0.00177596
1.99383e-13
0.00178372
3.90386e-13
0.0017962
5.60672e-13
0.00179915
3.48721e-13
0.00179326
3.43472e-13
0.00179816
2.30893e-13
0.00180566
1.38355e-13
0.00179245
6.14629e-14
0.00178742
1.42479e-13
0.0018074
7.87646e-14
0.00180224
-5.40173e-14
0.00178464
6.07817e-16
0.00178736
1.9331e-14
0.00175831
-1.44874e-13
0.00170969
-8.95597e-14
0.00170784
6.20874e-14
0.00173321
-3.00318e-14
0.00172541
-1.87842e-13
0.00170362
-6.52343e-14
0.00171745
5.09476e-14
0.00173648
-8.46797e-14
0.00171538
-2.16876e-13
0.00170067
2.04768e-14
0.00172933
8.50345e-14
0.00173779
-9.38067e-14
0.00171126
-7.88844e-14
0.00171108
8.46618e-14
0.00172725
1.0484e-13
0.00172259
7.60457e-14
0.00171723
9.41623e-14
0.00171924
1.56404e-13
0.00173163
1.33933e-13
0.00173493
8.37348e-14
0.00173528
6.34376e-14
0.00173579
-6.50271e-14
0.00175343
-3.14827e-13
0.00178127
-7.87936e-13
0.00180461
-1.43524e-12
0.00170656
-2.36209e-12
0.00116943
-2.50356e-12
0.000616744
-1.53e-12
0.000318313
-8.00628e-13
0.000159616
-4.06126e-13
7.76317e-05
-2.00357e-13
3.65213e-05
-9.60392e-14
1.65833e-05
-4.4595e-14
7.26316e-06
-2.00845e-14
3.06858e-06
-8.76087e-15
1.25161e-06
-3.79386e-15
4.93241e-07
-1.61656e-15
1.88033e-07
-7.77109e-16
6.93961e-08
-3.83232e-16
2.48272e-08
-2.89035e-16
8.61538e-09
-2.01777e-16
2.90372e-09
-9.41765e-17
9.50899e-10
-7.66599e-17
3.02979e-10
-9.19539e-18
9.3942e-11
5.87976e-17
2.83837e-11
1.35573e-16
8.37418e-12
1.82363e-16
2.36655e-12
1.79456e-16
1.54228e-16
2.49396e-12
2.14049e-16
8.83619e-12
3.83252e-16
2.99531e-11
3.76476e-16
9.9105e-11
4.58116e-16
3.19351e-10
3.83252e-16
1.00093e-09
3.96723e-16
3.05007e-09
2.13154e-16
9.02376e-09
1.75044e-16
2.59013e-08
1.95604e-16
7.2026e-08
1.17134e-16
1.93835e-07
1.07878e-16
5.04038e-07
1.04544e-16
1.26459e-06
4.30713e-16
3.05537e-06
1.10922e-15
7.09419e-06
3.00787e-15
1.57871e-05
7.16946e-15
3.35532e-05
1.6372e-14
6.77301e-05
3.58601e-14
0.00012832
7.45968e-14
0.000221272
1.44005e-13
0.000353103
2.55741e-13
0.0005248
4.21419e-13
0.000730287
6.45611e-13
0.000956512
9.19352e-13
0.00118616
1.21471e-12
0.00140159
1.4856e-12
0.00158954
1.67864e-12
0.00174909
1.75987e-12
0.0018792
1.7415e-12
0.00196964
1.61731e-12
0.00201193
1.3393e-12
0.00196633
8.36969e-13
0.00191688
3.28547e-13
0.00187049
-1.24615e-13
0.00180612
-3.63442e-13
0.00176091
-3.74022e-13
0.00174382
-2.34215e-13
0.00175717
4.70853e-14
0.00177596
2.69404e-13
0.00178372
3.36253e-13
0.0017962
3.60877e-13
0.00179915
2.29513e-13
0.00179326
2.11849e-13
0.00179816
4.77312e-14
0.00180566
8.53329e-14
0.00179245
-4.91544e-14
0.00178742
7.11203e-14
0.0018074
-3.84716e-16
0.00180224
5.46264e-14
0.00178464
-2.2737e-14
0.00178736
2.12854e-14
0.00175831
3.94734e-15
0.00170969
6.22547e-14
0.00170784
1.64157e-13
0.00173321
3.38423e-14
0.00172541
-3.95723e-14
0.00170362
1.75662e-14
0.00171745
9.14301e-14
0.00173648
-4.0905e-14
0.00171538
-9.67705e-14
0.00170067
3.84258e-14
0.00172933
9.18688e-14
0.00173779
-6.80317e-14
0.00171126
-8.22314e-14
0.00171108
1.55997e-13
0.00172725
2.13201e-13
0.00172259
1.54805e-13
0.00171723
1.70044e-13
0.00171924
1.87661e-13
0.00173163
2.48798e-13
0.00173493
2.9547e-14
0.00173528
1.84959e-14
0.00173579
1.90319e-13
0.00175343
4.31882e-13
0.00178127
-4.71998e-14
0.00180461
-1.26834e-12
0.00170656
-2.88251e-12
0.00116943
-3.44936e-12
0.000616744
-2.26746e-12
0.000318313
-1.20977e-12
0.000159616
-6.18275e-13
7.76317e-05
-3.07316e-13
3.65213e-05
-1.49043e-13
1.65833e-05
-7.02936e-14
7.26316e-06
-3.2181e-14
3.06858e-06
-1.42657e-14
1.25161e-06
-6.17047e-15
4.93241e-07
-2.55747e-15
1.88033e-07
-1.1196e-15
6.93961e-08
-4.34494e-16
2.48272e-08
-2.73117e-16
8.61538e-09
-1.42241e-16
2.90372e-09
-1.21275e-16
9.50899e-10
-1.25076e-16
3.02979e-10
-2.07801e-16
9.39425e-11
-2.39717e-16
2.83839e-11
-2.70834e-16
8.37409e-12
-2.69729e-16
2.36652e-12
-2.1022e-16
-2.80937e-16
2.49504e-12
6.86571e-17
8.83707e-12
2.03396e-16
2.99536e-11
1.34563e-16
9.91052e-11
2.00333e-16
3.19351e-10
2.43878e-16
1.00093e-09
3.28378e-16
3.05006e-09
2.55167e-16
9.02376e-09
2.54069e-16
2.59013e-08
2.81405e-16
7.2026e-08
2.22085e-16
1.93835e-07
2.33483e-16
5.04038e-07
2.43336e-16
1.26459e-06
7.15655e-16
3.05537e-06
1.72207e-15
7.09419e-06
4.38313e-15
1.57871e-05
1.02915e-14
3.35532e-05
2.32208e-14
6.77301e-05
5.00984e-14
0.00012832
1.02748e-13
0.000221272
1.94957e-13
0.000353103
3.41113e-13
0.0005248
5.53816e-13
0.000730287
8.35207e-13
0.000956512
1.16795e-12
0.00118616
1.50716e-12
0.00140159
1.78564e-12
0.00158954
1.93381e-12
0.00174909
1.91522e-12
0.0018792
1.7558e-12
0.00196964
1.49459e-12
0.00201193
1.10554e-12
0.00196633
5.4543e-13
0.00191688
5.22065e-14
0.00187049
-3.94195e-13
0.00180612
-5.85816e-13
0.00176091
-4.69893e-13
0.00174382
-2.01753e-13
0.00175717
7.55513e-16
0.00177596
1.75475e-13
0.00178372
1.47279e-13
0.0017962
8.05372e-14
0.00179915
2.25027e-14
0.00179326
2.278e-14
0.00179816
-1.42793e-13
0.00180566
2.73712e-14
0.00179245
-1.39002e-13
0.00178742
-1.10517e-14
0.0018074
-6.56491e-14
0.00180224
1.6759e-13
0.00178464
-6.0011e-14
0.00178736
8.52096e-15
0.00175831
1.38808e-13
0.00170969
1.78569e-13
0.00170784
2.06642e-13
0.00173321
1.01748e-13
0.00172541
1.05402e-13
0.00170362
5.57334e-14
0.00171745
1.17352e-13
0.00173648
4.00217e-14
0.00171538
1.03922e-15
0.00170067
1.72625e-14
0.00172933
1.08193e-13
0.00173779
1.01823e-14
0.00171126
-8.31948e-14
0.00171108
1.32232e-13
0.00172725
3.24168e-13
0.00172259
2.21396e-13
0.00171723
1.98311e-13
0.00171924
1.53823e-13
0.00173163
2.98719e-13
0.00173493
-2.16679e-14
0.00173528
-4.12611e-14
0.00173579
2.70929e-13
0.00175343
9.95987e-13
0.00178127
6.00539e-13
0.00180461
-7.64654e-13
0.00170656
-2.65886e-12
0.00116943
-4.42068e-12
0.000616744
-3.26996e-12
0.000318313
-1.75435e-12
0.000159616
-8.9496e-13
7.76317e-05
-4.4448e-13
3.65213e-05
-2.16279e-13
1.65833e-05
-1.02776e-13
7.26316e-06
-4.7488e-14
3.06858e-06
-2.12221e-14
1.25161e-06
-9.14608e-15
4.93241e-07
-3.75832e-15
1.88033e-07
-1.52664e-15
6.93961e-08
-5.46099e-16
2.48272e-08
-2.03694e-16
8.61538e-09
-5.02257e-17
2.90372e-09
-3.66596e-17
9.50899e-10
1.69407e-17
3.02979e-10
-1.03487e-16
9.3942e-11
-9.5918e-17
2.83837e-11
-1.38968e-16
8.37399e-12
-5.19197e-17
2.36606e-12
-4.41338e-17
7.14896e-18
2.49495e-12
8.83687e-12
2.99536e-11
9.91054e-11
3.19351e-10
1.00093e-09
3.05006e-09
9.02376e-09
2.59013e-08
7.2026e-08
1.93835e-07
5.04038e-07
1.26459e-06
3.05537e-06
7.09419e-06
1.57871e-05
3.35532e-05
6.77301e-05
0.00012832
0.000221272
0.000353103
0.0005248
0.000730287
0.000956512
0.00118616
0.00140159
0.00158954
0.00174909
0.0018792
0.00196964
0.00201193
0.00196633
0.00191688
0.00187049
0.00180612
0.00176091
0.00174382
0.00175717
0.00177596
0.00178372
0.0017962
0.00179915
0.00179326
0.00179816
0.00180566
0.00179245
0.00178742
0.0018074
0.00180224
0.00178464
0.00178736
0.00175831
0.00170969
0.00170784
0.00173321
0.00172541
0.00170362
0.00171745
0.00173648
0.00171538
0.00170067
0.00172933
0.00173779
0.00171126
0.00171108
0.00172725
0.00172259
0.00171723
0.00171924
0.00173163
0.00173493
0.00173528
0.00173579
0.00175343
0.00178127
0.00180461
0.00170656
0.00116943
0.000616744
0.000318313
0.000159616
7.76317e-05
3.65213e-05
1.65833e-05
7.26316e-06
3.06858e-06
1.25161e-06
4.93241e-07
1.88033e-07
6.93961e-08
2.48272e-08
8.61538e-09
2.90372e-09
9.50899e-10
3.02979e-10
9.39423e-11
2.83841e-11
8.37437e-12
2.36655e-12
)
;

boundaryField
{
    sides1
    {
        type            calculated;
        value           nonuniform List<scalar> 
20
(
9.33774e-13
9.3346e-13
9.34147e-13
9.33315e-13
9.3438e-13
9.33686e-13
9.34001e-13
9.34165e-13
9.33396e-13
9.34061e-13
-9.82637e-13
-9.83235e-13
-9.82342e-13
-9.83245e-13
-9.82967e-13
-9.82539e-13
-9.83042e-13
-9.8199e-13
-9.83171e-13
-9.83149e-13
)
;
    }
    sides2
    {
        type            calculated;
        value           uniform 0;
    }
    empty
    {
        type            empty;
        value           nonuniform 0();
    }
}


// ************************************************************************* //
