/*--------------------------------*- C++ -*----------------------------------*\
| =========                 |                                                 |
| \\      /  F ield         | OpenFOAM: The Open Source CFD Toolbox           |
|  \\    /   O peration     | Version:  2012                                  |
|   \\  /    A nd           | Website:  www.openfoam.com                      |
|    \\/     M anipulation  |                                                 |
\*---------------------------------------------------------------------------*/
FoamFile
{
    version     2.0;
    format      ascii;
    class       volVectorField;
    location    "1120";
    object      U;
}
// * * * * * * * * * * * * * * * * * * * * * * * * * * * * * * * * * * * * * //

dimensions      [0 1 -1 0 0 0 0];


internalField   nonuniform List<vector> 
20400
(
(3.52987e-06 -3.45424e-06 0)
(5.18227e-06 -1.17087e-06 0)
(-4.66922e-06 3.70726e-06 0)
(-2.50018e-05 6.36553e-06 0)
(-5.82736e-05 7.81449e-06 0)
(-9.85196e-05 7.15999e-06 0)
(-0.000144695 6.39958e-06 0)
(-0.000193561 5.48135e-06 0)
(-0.000243212 4.7136e-06 0)
(-0.000294005 4.21386e-06 0)
(-0.000343532 4.26776e-06 0)
(-0.000393468 4.19596e-06 0)
(-0.000442625 4.0198e-06 0)
(-0.000491596 3.62643e-06 0)
(-0.000540266 3.06006e-06 0)
(-0.000588753 2.27328e-06 0)
(-0.000637094 1.24236e-06 0)
(-0.000685326 2.61516e-08 0)
(-0.000733465 -1.33202e-06 0)
(-0.000781423 -2.5109e-06 0)
(-0.000829101 -3.72596e-06 0)
(-0.000876501 -4.93179e-06 0)
(-0.000923655 -6.04512e-06 0)
(-0.000970548 -6.99369e-06 0)
(-0.00101717 -7.70184e-06 0)
(-0.00106349 -8.10873e-06 0)
(-0.00110951 -8.14193e-06 0)
(-0.00115524 -7.76492e-06 0)
(-0.00120069 -6.91669e-06 0)
(-0.00124589 -5.57979e-06 0)
(-0.00129087 -3.7043e-06 0)
(-0.00133561 -1.24344e-06 0)
(-0.0013799 2.12654e-06 0)
(-0.00142321 7.19789e-06 0)
(-0.00146543 9.70732e-06 0)
(-0.00150888 1.24792e-05 0)
(-0.00155176 1.60987e-05 0)
(-0.00159447 1.97572e-05 0)
(-0.00163659 2.32207e-05 0)
(-0.00167829 2.63095e-05 0)
(-0.00171961 2.89211e-05 0)
(-0.00176061 3.09848e-05 0)
(-0.00180132 3.24836e-05 0)
(-0.00184181 3.34303e-05 0)
(-0.00188209 3.3876e-05 0)
(-0.00192221 3.38829e-05 0)
(-0.00196217 3.35126e-05 0)
(-0.00200196 3.28101e-05 0)
(-0.00204158 3.1798e-05 0)
(-0.00208104 3.04701e-05 0)
(-0.00212034 2.87983e-05 0)
(-0.00215948 2.67095e-05 0)
(-0.00219845 2.41557e-05 0)
(-0.00223736 2.09951e-05 0)
(-0.00227608 1.72089e-05 0)
(-0.00231495 1.27624e-05 0)
(-0.00235338 8.16183e-06 0)
(-0.00239166 2.70658e-06 0)
(-0.00242988 -4.91187e-06 0)
(-0.00246957 -1.08339e-05 0)
(-0.00250852 -1.62603e-05 0)
(-0.00254784 -2.03543e-05 0)
(-0.00258695 -2.34105e-05 0)
(-0.00262608 -2.53738e-05 0)
(-0.00266511 -2.65102e-05 0)
(-0.00270406 -2.69033e-05 0)
(-0.00274296 -2.67995e-05 0)
(-0.00278183 -2.62692e-05 0)
(-0.00282068 -2.54441e-05 0)
(-0.0028596 -2.43705e-05 0)
(-0.0028985 -2.31371e-05 0)
(-0.00293759 -2.17081e-05 0)
(-0.00297659 -2.01979e-05 0)
(-0.00301591 -1.84876e-05 0)
(-0.00305506 -1.67382e-05 0)
(-0.00309467 -1.47611e-05 0)
(-0.00313401 -1.2767e-05 0)
(-0.00317394 -1.05082e-05 0)
(-0.0032135 -8.24729e-06 0)
(-0.00325383 -5.66325e-06 0)
(-0.00329369 -3.08127e-06 0)
(-0.0033345 -8.87855e-08 0)
(-0.00337463 3.09175e-06 0)
(-0.00341488 7.29739e-06 0)
(-0.00345418 9.26979e-06 0)
(-0.00349546 1.14155e-05 0)
(-0.00353483 1.28223e-05 0)
(-0.00357582 1.35932e-05 0)
(-0.00361546 1.30361e-05 0)
(-0.0036566 1.19321e-05 0)
(-0.00369659 9.99955e-06 0)
(-0.0037373 8.05546e-06 0)
(-0.00377674 5.0007e-06 0)
(-0.00381693 6.63811e-07 0)
(-0.0038565 -3.65216e-06 0)
(-0.00389685 -8.30668e-06 0)
(-0.00393605 -1.30783e-05 0)
(-0.00397559 -1.81986e-05 0)
(-0.00401389 -2.30168e-05 0)
(-0.00405222 -2.8224e-05 0)
(-0.00408929 -3.24976e-05 0)
(-0.00412614 -3.68886e-05 0)
(-0.00416136 -3.86168e-05 0)
(-0.00419682 -4.02364e-05 0)
(-0.00422976 -3.61425e-05 0)
(-0.00426466 -3.22187e-05 0)
(-0.00429399 -1.8088e-05 0)
(-0.00432721 -5.51731e-06 0)
(-0.00434768 2.04291e-05 0)
(-0.0043723 3.90565e-05 0)
(-0.00438784 6.49045e-05 0)
(-0.00440879 7.74702e-05 0)
(-0.00441725 0.000100805 0)
(-0.0044324 0.000109211 0)
(-0.00443461 0.00013169 0)
(-0.00444212 0.000138617 0)
(-0.00443707 0.000160191 0)
(-0.00443513 0.000166094 0)
(-0.00442285 0.000185917 0)
(-0.00440997 0.000190785 0)
(-0.004388 0.000206484 0)
(-0.00436348 0.000207681 0)
(-0.00432733 0.000214294 0)
(-0.00428894 0.000204754 0)
(-0.00423402 0.00019395 0)
(-0.00417717 0.000156806 0)
(-0.00410274 0.000117766 0)
(-0.00403464 3.57147e-05 0)
(-0.00395281 -2.93558e-05 0)
(-0.00388833 -0.000135826 0)
(-0.00381134 -0.000191577 0)
(-0.00373858 -0.000262243 0)
(-0.00364802 -0.000294049 0)
(-0.0035547 -0.000337981 0)
(-0.00345141 -0.000355408 0)
(-0.0033422 -0.000379677 0)
(-0.0032292 -0.000385893 0)
(-0.00310925 -0.00039023 0)
(-0.00298999 -0.000374284 0)
(-0.00286536 -0.000342725 0)
(-0.00273738 -0.000283214 0)
(-0.00260199 -0.000184034 0)
(-0.0024576 -7.39515e-05 0)
(-0.00230688 6.90785e-05 0)
(-0.00211165 0.000183644 0)
(-0.0019386 0.000258897 0)
(-0.00173642 0.000295807 0)
(-0.00156033 0.000313381 0)
(-0.00134162 0.000303575 0)
(-0.00115938 0.000256106 0)
(-0.00088906 0.000167404 0)
(-0.000748042 6.87633e-06 0)
(-0.000617648 -3.82987e-05 0)
(-0.000447426 -7.50474e-05 0)
(-0.000272344 -8.38854e-05 0)
(-0.000101272 -8.73968e-05 0)
(8.92831e-05 -8.0555e-05 0)
(0.000255524 -7.15789e-05 0)
(0.000451419 -6.31106e-05 0)
(0.000611959 -5.38867e-05 0)
(0.000803328 -4.79108e-05 0)
(0.000958671 -4.07194e-05 0)
(0.00114253 -3.78376e-05 0)
(0.00129231 -3.19727e-05 0)
(0.001466 -3.11606e-05 0)
(0.00161007 -2.60324e-05 0)
(0.0017715 -2.65372e-05 0)
(0.00190998 -2.18464e-05 0)
(0.0020572 -2.31387e-05 0)
(0.00218999 -1.87834e-05 0)
(0.00232236 -2.06818e-05 0)
(0.00244819 -1.5801e-05 0)
(0.0025679 -1.90554e-05 0)
(0.00268484 -1.37305e-05 0)
(0.00279245 -1.66983e-05 0)
(0.00289938 -1.26541e-05 0)
(0.002996 -1.37161e-05 0)
(0.00309106 -1.17714e-05 0)
(0.00317793 -1.16268e-05 0)
(0.00326093 -1.09036e-05 0)
(0.00333832 -1.01883e-05 0)
(0.00341057 -9.37159e-06 0)
(0.00347785 -8.55842e-06 0)
(0.00354025 -7.7891e-06 0)
(0.00359789 -7.08169e-06 0)
(0.00365089 -6.47398e-06 0)
(0.00369937 -5.92305e-06 0)
(0.00374348 -5.43017e-06 0)
(0.00378341 -4.8967e-06 0)
(0.0038192 -4.50503e-06 0)
(0.00385135 -3.92515e-06 0)
(0.00387925 -3.59696e-06 0)
(0.00390443 -3.04428e-06 0)
(0.00392512 -2.71658e-06 0)
(0.00394391 -2.0495e-06 0)
(0.0039582 -1.85009e-06 0)
(0.00397113 -1.08039e-06 0)
(0.00397981 -9.7484e-07 0)
(0.00398742 -2.09017e-07 0)
(0.00399125 -7.00179e-08 0)
(0.00399411 5.59297e-07 0)
(0.0039941 6.4131e-07 0)
(0.00399218 1.04054e-06 0)
(0.0039884 1.47207e-06 0)
(0.00398283 1.6673e-06 0)
(0.00397556 1.71114e-06 0)
(0.00396671 1.7233e-06 0)
(0.00395642 1.72137e-06 0)
(0.00394482 1.71392e-06 0)
(0.00393202 1.71377e-06 0)
(0.00391811 1.74823e-06 0)
(0.00390324 1.90672e-06 0)
(0.00388756 2.10896e-06 0)
(0.00387111 2.33018e-06 0)
(0.0038541 2.54463e-06 0)
(0.00383616 2.74997e-06 0)
(0.00381846 2.94896e-06 0)
(0.00379927 2.88888e-06 0)
(0.00378099 3.25143e-06 0)
(0.00376089 3.05357e-06 0)
(0.00374226 3.23634e-06 0)
(0.00372156 3.08846e-06 0)
(0.00370273 3.09374e-06 0)
(0.00368175 3.00024e-06 0)
(0.00366284 2.86093e-06 0)
(0.00364183 2.78888e-06 0)
(0.0036229 2.55949e-06 0)
(0.00360218 2.50158e-06 0)
(0.00358327 2.204e-06 0)
(0.00356315 2.1114e-06 0)
(0.00354426 1.87225e-06 0)
(0.00352489 1.74916e-06 0)
(0.00350616 1.60797e-06 0)
(0.0034875 1.47348e-06 0)
(0.00346917 1.3701e-06 0)
(0.00345115 1.26003e-06 0)
(0.00343346 1.19366e-06 0)
(0.00341616 1.0623e-06 0)
(0.00339915 1.0253e-06 0)
(0.00338264 8.83871e-07 0)
(0.00336633 8.71816e-07 0)
(0.00335065 7.2091e-07 0)
(0.0033351 7.35584e-07 0)
(0.00332027 5.73552e-07 0)
(0.00330551 6.17456e-07 0)
(0.00329156 4.39727e-07 0)
(0.00327761 5.16149e-07 0)
(0.00326454 3.14791e-07 0)
(0.00325143 4.29832e-07 0)
(0.00323926 1.9625e-07 0)
(0.00322699 3.53694e-07 0)
(0.00321572 8.58518e-08 0)
(0.00320429 2.83636e-07 0)
(0.00319392 -1.65626e-08 0)
(0.00318333 2.17442e-07 0)
(0.00317385 -1.10788e-07 0)
(0.00316409 1.53841e-07 0)
(0.00315548 -1.95466e-07 0)
(0.00314655 9.31328e-08 0)
(0.00313879 -2.68742e-07 0)
(0.00313066 3.62287e-08 0)
(0.00312374 -3.2635e-07 0)
(0.0031164 -1.16026e-08 0)
(0.00311029 -3.65958e-07 0)
(0.00310372 -4.29164e-08 0)
(0.00309839 -3.79758e-07 0)
(0.00309256 -4.74599e-08 0)
(0.00308799 -3.53393e-07 0)
(0.00308289 -1.14781e-08 0)
(0.00307905 -2.71368e-07 0)
(0.00307465 7.50378e-08 0)
(0.00307151 -1.37231e-07 0)
(0.00306779 1.92693e-07 0)
(0.00306531 -1.32906e-08 0)
(0.00306224 2.36374e-07 0)
(0.00306038 1.45659e-09 0)
(0.00305792 1.62481e-07 0)
(0.00305663 -6.98061e-08 0)
(0.00305478 6.21849e-08 0)
(0.00305401 -1.66356e-07 0)
(0.00305278 -4.18891e-08 0)
(0.00305248 -2.65761e-07 0)
(0.00305186 -1.37554e-07 0)
(0.003052 -3.56359e-07 0)
(0.00305196 -1.92898e-07 0)
(0.0030526 -4.39752e-07 0)
(0.003053 -2.60681e-07 0)
(0.00305411 -4.94493e-07 0)
(0.00305495 -3.3415e-07 0)
(0.0030565 -5.57527e-07 0)
(0.00305779 -4.24144e-07 0)
(0.00305967 -5.81341e-07 0)
(0.0030614 -4.69397e-07 0)
(0.00306352 -5.31341e-07 0)
(0.00306572 -4.78939e-07 0)
(0.00306815 -4.90589e-07 0)
(0.00307074 -4.53497e-07 0)
(0.00307347 -4.65881e-07 0)
(0.00307635 -4.46878e-07 0)
(0.00307938 -4.55695e-07 0)
(0.00308251 -4.57055e-07 0)
(0.00308585 -4.42869e-07 0)
(0.00308911 -4.96847e-07 0)
(0.00309291 -4.15458e-07 0)
(0.00309622 -4.9437e-07 0)
(0.00310037 -4.10732e-07 0)
(0.00310379 -4.89266e-07 0)
(0.00310821 -3.97597e-07 0)
(0.00311176 -4.80518e-07 0)
(0.00311642 -3.85883e-07 0)
(0.00312009 -4.69426e-07 0)
(0.00312495 -3.79752e-07 0)
(0.00312874 -4.6093e-07 0)
(0.00313375 -3.76981e-07 0)
(0.00313767 -4.55326e-07 0)
(0.0031428 -3.75332e-07 0)
(0.00314682 -4.52698e-07 0)
(0.00315206 -3.75235e-07 0)
(0.00315618 -4.48685e-07 0)
(0.00316151 -3.74585e-07 0)
(0.0031657 -4.42296e-07 0)
(0.0031711 -3.7284e-07 0)
(0.00317536 -4.34388e-07 0)
(0.0031808 -3.70095e-07 0)
(0.00318511 -4.2567e-07 0)
(0.00319058 -3.66051e-07 0)
(0.00319495 -4.16445e-07 0)
(0.00320043 -3.60377e-07 0)
(0.00320482 -4.06006e-07 0)
(0.00321031 -3.53966e-07 0)
(0.00321473 -3.94518e-07 0)
(0.00322022 -3.49178e-07 0)
(0.00322464 -3.82995e-07 0)
(0.00323011 -3.457e-07 0)
(0.00323454 -3.71527e-07 0)
(0.00323997 -3.42194e-07 0)
(0.00324441 -3.59598e-07 0)
(0.0032498 -3.38626e-07 0)
(0.00325423 -3.47742e-07 0)
(0.00325955 -3.34442e-07 0)
(0.00326399 -3.41535e-07 0)
(0.00326923 -3.27712e-07 0)
(0.00327367 -3.33446e-07 0)
(0.00327883 -3.21817e-07 0)
(0.00328326 -3.25549e-07 0)
(0.00328833 -3.16995e-07 0)
(0.00329275 -3.18601e-07 0)
(0.00329772 -3.1251e-07 0)
(0.00330214 -3.12355e-07 0)
(0.003307 -3.08756e-07 0)
(0.0033114 -3.07037e-07 0)
(0.00331615 -3.06717e-07 0)
(0.00332054 -3.03837e-07 0)
(0.00332517 -3.07291e-07 0)
(0.00332954 -3.03402e-07 0)
(0.00333405 -3.10049e-07 0)
(0.0033384 -3.10765e-07 0)
(0.00334279 -3.15898e-07 0)
(0.0033471 -3.21298e-07 0)
(0.00335138 -3.26219e-07 0)
(0.00335563 -3.33303e-07 0)
(0.00335983 -3.40655e-07 0)
(0.003364 -3.49258e-07 0)
(0.00336812 -3.58299e-07 0)
(0.0033722 -3.6842e-07 0)
(0.00337625 -3.79659e-07 0)
(0.00338025 -3.92216e-07 0)
(0.0033842 -4.06332e-07 0)
(0.00338812 -4.21456e-07 0)
(0.003392 -4.37913e-07 0)
(0.00339584 -4.54705e-07 0)
(0.00339963 -4.69859e-07 0)
(0.00340338 -4.81339e-07 0)
(0.00340709 -4.88662e-07 0)
(0.00341076 -4.92875e-07 0)
(0.00341439 -4.94868e-07 0)
(0.00341799 -4.95331e-07 0)
(0.00342154 -4.94658e-07 0)
(0.00342505 -4.93138e-07 0)
(0.00342852 -4.9093e-07 0)
(0.00343196 -4.88175e-07 0)
(0.00343535 -4.84965e-07 0)
(0.00343871 -4.81386e-07 0)
(0.00344202 -4.77508e-07 0)
(0.0034453 -4.7339e-07 0)
(0.00344854 -4.69081e-07 0)
(0.00345174 -4.64623e-07 0)
(0.0034549 -4.60053e-07 0)
(0.00345802 -4.55399e-07 0)
(0.00346111 -4.50687e-07 0)
(0.00346416 -4.45939e-07 0)
(0.00346717 -4.4117e-07 0)
(0.00347014 -4.36396e-07 0)
(0.00347308 -4.31629e-07 0)
(0.00347598 -4.2688e-07 0)
(0.00347885 -4.22161e-07 0)
(0.00348168 -4.17495e-07 0)
(0.00348448 -4.1287e-07 0)
(0.00348724 -4.08262e-07 0)
(0.00348997 -4.03676e-07 0)
(0.00349266 -3.9912e-07 0)
(0.00349532 -3.94602e-07 0)
(0.00349794 -3.90126e-07 0)
(0.00350054 -3.85695e-07 0)
(0.0035031 -3.8131e-07 0)
(0.00350562 -3.76971e-07 0)
(0.00350812 -3.72681e-07 0)
(0.00351059 -3.68438e-07 0)
(0.00351302 -3.64243e-07 0)
(0.00351542 -3.60096e-07 0)
(0.00351779 -3.55997e-07 0)
(0.00352013 -3.51945e-07 0)
(0.00352245 -3.47941e-07 0)
(0.00352473 -3.43985e-07 0)
(0.00352698 -3.40076e-07 0)
(0.00352921 -3.36213e-07 0)
(0.0035314 -3.32397e-07 0)
(0.00353357 -3.28627e-07 0)
(0.00353571 -3.24902e-07 0)
(0.00353783 -3.21224e-07 0)
(0.00353991 -3.1759e-07 0)
(0.00354197 -3.14e-07 0)
(0.003544 -3.10455e-07 0)
(0.00354601 -3.06954e-07 0)
(0.00354799 -3.03495e-07 0)
(0.00354995 -3.00078e-07 0)
(0.00355188 -2.96701e-07 0)
(0.00355379 -2.93364e-07 0)
(0.00355567 -2.90064e-07 0)
(0.00355752 -2.86802e-07 0)
(0.00355936 -2.83577e-07 0)
(0.00356117 -2.80388e-07 0)
(0.00356295 -2.77234e-07 0)
(0.00356472 -2.74114e-07 0)
(0.00356645 -2.71028e-07 0)
(0.00356817 -2.67973e-07 0)
(0.00356987 -2.64946e-07 0)
(0.00357154 -2.61944e-07 0)
(0.00357319 -2.58958e-07 0)
(0.00357481 -2.55979e-07 0)
(0.00357642 -2.52976e-07 0)
(0.00357801 -2.50004e-07 0)
(0.00357957 -2.4709e-07 0)
(0.00358111 -2.44227e-07 0)
(0.00358263 -2.41403e-07 0)
(0.00358413 -2.38611e-07 0)
(0.00358561 -2.35844e-07 0)
(0.00358707 -2.331e-07 0)
(0.00358851 -2.30377e-07 0)
(0.00358993 -2.27673e-07 0)
(0.00359133 -2.24988e-07 0)
(0.00359271 -2.22321e-07 0)
(0.00359407 -2.19671e-07 0)
(0.00359541 -2.17039e-07 0)
(0.00359673 -2.14424e-07 0)
(0.00359803 -2.11828e-07 0)
(0.00359931 -2.09251e-07 0)
(0.00360058 -2.06697e-07 0)
(0.00360182 -2.04171e-07 0)
(0.00360305 -2.01684e-07 0)
(0.00360426 -1.99242e-07 0)
(0.00360545 -1.96863e-07 0)
(0.00360662 -1.94505e-07 0)
(0.00360777 -1.92148e-07 0)
(0.00360891 -1.89786e-07 0)
(0.00361002 -1.87425e-07 0)
(0.00361112 -1.85067e-07 0)
(0.00361221 -1.82713e-07 0)
(0.00361327 -1.80362e-07 0)
(0.00361432 -1.78007e-07 0)
(0.00361535 -1.75641e-07 0)
(0.00361637 -1.73259e-07 0)
(0.00361736 -1.70871e-07 0)
(0.00361834 -1.68498e-07 0)
(0.0036193 -1.66165e-07 0)
(0.00362025 -1.63777e-07 0)
(0.00362118 -1.61582e-07 0)
(0.00362209 -1.58286e-07 0)
(0.00362299 -1.60388e-07 0)
(0.00362387 -1.51691e-07 0)
(0.00362474 -1.56863e-07 0)
(0.00362558 -1.46087e-07 0)
(0.00362642 -1.53926e-07 0)
(0.00362722 -1.40166e-07 0)
(0.00362804 -1.50704e-07 0)
(0.00362878 -1.34061e-07 0)
(0.0036296 -1.4764e-07 0)
(0.00363026 -1.26984e-07 0)
(0.00363111 -1.45302e-07 0)
(0.00363165 -1.17139e-07 0)
(0.00363256 -1.44174e-07 0)
(0.00363293 -1.0128e-07 0)
(0.00363394 -1.4413e-07 0)
(0.00363409 -6.92153e-08 0)
(0.0036353 -1.50453e-07 0)
(0.00363504 -4.70391e-08 0)
(0.00363676 -1.67224e-07 0)
(0.00363557 -4.49145e-08 0)
(0.00363865 -2.7256e-07 0)
(0.00363558 -5.75357e-07 0)
(1.08717e-06 -5.27023e-06 0)
(-1.30975e-05 1.24107e-05 0)
(-5.73231e-05 4.04914e-05 0)
(-0.000130458 6.41069e-05 0)
(-0.000228724 8.26342e-05 0)
(-0.000344141 9.25139e-05 0)
(-0.000472152 9.83604e-05 0)
(-0.00060695 0.000100018 0)
(-0.000745556 9.99032e-05 0)
(-0.000886107 9.84532e-05 0)
(-0.0010261 9.67612e-05 0)
(-0.00116674 9.52118e-05 0)
(-0.00130614 9.40453e-05 0)
(-0.00144465 9.33959e-05 0)
(-0.001582 9.31624e-05 0)
(-0.00171839 9.33153e-05 0)
(-0.0018538 9.38284e-05 0)
(-0.00198826 9.46414e-05 0)
(-0.00212187 9.5486e-05 0)
(-0.00225431 9.59983e-05 0)
(-0.00238532 9.65495e-05 0)
(-0.002515 9.71878e-05 0)
(-0.00264336 9.77475e-05 0)
(-0.00277041 9.81179e-05 0)
(-0.00289614 9.82111e-05 0)
(-0.00302054 9.79476e-05 0)
(-0.00314362 9.73158e-05 0)
(-0.00326546 9.62398e-05 0)
(-0.00338605 9.47633e-05 0)
(-0.00350555 9.28149e-05 0)
(-0.00362392 9.03891e-05 0)
(-0.00374124 8.71839e-05 0)
(-0.00385736 8.22572e-05 0)
(-0.00397219 7.41607e-05 0)
(-0.00408641 7.17553e-05 0)
(-0.00420038 6.98584e-05 0)
(-0.00431347 6.50046e-05 0)
(-0.00442603 6.00014e-05 0)
(-0.00453781 5.53777e-05 0)
(-0.00464879 5.12914e-05 0)
(-0.00475889 4.78379e-05 0)
(-0.00486809 4.50521e-05 0)
(-0.00497636 4.29902e-05 0)
(-0.00508371 4.1597e-05 0)
(-0.00519014 4.07951e-05 0)
(-0.00529569 4.04696e-05 0)
(-0.00540042 4.05352e-05 0)
(-0.00550439 4.09334e-05 0)
(-0.00560768 4.1643e-05 0)
(-0.00571039 4.26615e-05 0)
(-0.00581259 4.40604e-05 0)
(-0.00591439 4.57832e-05 0)
(-0.0060158 4.82079e-05 0)
(-0.00611698 5.09855e-05 0)
(-0.00621771 5.48943e-05 0)
(-0.00631823 5.88611e-05 0)
(-0.00641805 6.30087e-05 0)
(-0.00651736 6.80507e-05 0)
(-0.00661514 7.70653e-05 0)
(-0.00671083 8.36964e-05 0)
(-0.00680614 8.86733e-05 0)
(-0.00689997 9.28136e-05 0)
(-0.0069941 9.57098e-05 0)
(-0.00708793 9.74686e-05 0)
(-0.00718206 9.83622e-05 0)
(-0.00727606 9.85484e-05 0)
(-0.0073703 9.82697e-05 0)
(-0.00746438 9.76085e-05 0)
(-0.00755848 9.67166e-05 0)
(-0.00765249 9.56189e-05 0)
(-0.00774638 9.43871e-05 0)
(-0.00784018 9.30415e-05 0)
(-0.00793381 9.15759e-05 0)
(-0.00802734 9.00463e-05 0)
(-0.00812068 8.8373e-05 0)
(-0.00821392 8.66498e-05 0)
(-0.00830693 8.47705e-05 0)
(-0.00839985 8.28321e-05 0)
(-0.00849251 8.07573e-05 0)
(-0.00858509 7.86255e-05 0)
(-0.00867734 7.63313e-05 0)
(-0.00876952 7.38207e-05 0)
(-0.00886131 7.0615e-05 0)
(-0.0089531 6.49164e-05 0)
(-0.00904484 6.43975e-05 0)
(-0.00913686 6.20083e-05 0)
(-0.00922859 6.03835e-05 0)
(-0.00932029 5.97733e-05 0)
(-0.00941095 6.0264e-05 0)
(-0.00950068 6.16998e-05 0)
(-0.00958894 6.32304e-05 0)
(-0.00967615 6.39192e-05 0)
(-0.00976167 6.63907e-05 0)
(-0.00984586 7.03221e-05 0)
(-0.00992806 7.44018e-05 0)
(-0.0100088 7.7698e-05 0)
(-0.0100867 8.17742e-05 0)
(-0.0101628 8.44862e-05 0)
(-0.010235 8.85624e-05 0)
(-0.010305 9.07783e-05 0)
(-0.0103697 9.43173e-05 0)
(-0.010431 9.47706e-05 0)
(-0.0104847 9.70219e-05 0)
(-0.0105349 9.39522e-05 0)
(-0.0105761 9.24314e-05 0)
(-0.0106112 8.34245e-05 0)
(-0.0106399 7.32907e-05 0)
(-0.0106596 5.09552e-05 0)
(-0.0106752 2.34517e-05 0)
(-0.0106981 2.70051e-06 0)
(-0.0107088 -2.21951e-05 0)
(-0.0107202 -4.02713e-05 0)
(-0.0107129 -6.13263e-05 0)
(-0.010702 -7.65508e-05 0)
(-0.0106743 -9.72452e-05 0)
(-0.0106432 -0.000110087 0)
(-0.0105928 -0.000131583 0)
(-0.0105406 -0.000143193 0)
(-0.0104666 -0.000164399 0)
(-0.0103934 -0.000175897 0)
(-0.0102949 -0.000193764 0)
(-0.0102018 -0.000205103 0)
(-0.0100787 -0.000217752 0)
(-0.00996648 -0.000223715 0)
(-0.00982056 -0.000225923 0)
(-0.00968709 -0.000215253 0)
(-0.00951645 -0.000189767 0)
(-0.00934734 -0.000146636 0)
(-0.00914287 -9.65323e-05 0)
(-0.00891356 -1.72324e-05 0)
(-0.00863856 5.90976e-06 0)
(-0.00836135 4.62416e-05 0)
(-0.00806585 4.22142e-05 0)
(-0.00776433 6.00355e-05 0)
(-0.00744837 5.14125e-05 0)
(-0.00711872 5.61976e-05 0)
(-0.0067738 4.65893e-05 0)
(-0.00641146 4.0813e-05 0)
(-0.00602222 2.68981e-05 0)
(-0.00563044 3.83434e-06 0)
(-0.00515461 -3.27873e-05 0)
(-0.00475146 -0.000100258 0)
(-0.00426981 -0.000158955 0)
(-0.00386889 -0.000274962 0)
(-0.00353785 -0.000322092 0)
(-0.00316225 -0.000363317 0)
(-0.00278053 -0.00038009 0)
(-0.00236231 -0.000395121 0)
(-0.00196438 -0.000405806 0)
(-0.00155634 -0.00042576 0)
(-0.0011687 -0.000453127 0)
(-0.000698829 -0.000500869 0)
(-0.000144728 -0.000485553 0)
(0.000312235 -0.000485243 0)
(0.000813855 -0.000458047 0)
(0.00125589 -0.00045322 0)
(0.00174494 -0.000431743 0)
(0.00217312 -0.000409968 0)
(0.00263832 -0.000392311 0)
(0.00305404 -0.000376474 0)
(0.0035063 -0.000367901 0)
(0.00391008 -0.000351973 0)
(0.00434607 -0.000344644 0)
(0.00473579 -0.000327558 0)
(0.00515122 -0.000321328 0)
(0.00552532 -0.000303327 0)
(0.00591649 -0.000298003 0)
(0.006274 -0.00027953 0)
(0.00663711 -0.000274335 0)
(0.00697641 -0.000256531 0)
(0.00731256 -0.000251272 0)
(0.00762985 -0.000232824 0)
(0.00794022 -0.000229252 0)
(0.00823302 -0.000210414 0)
(0.00851726 -0.000206408 0)
(0.00878521 -0.000189613 0)
(0.00904274 -0.000182996 0)
(0.00928615 -0.000169726 0)
(0.00951716 -0.000160292 0)
(0.00973503 -0.000150281 0)
(0.00994076 -0.000140377 0)
(0.010134 -0.000130823 0)
(0.010315 -0.000121531 0)
(0.0104839 -0.000112472 0)
(0.010641 -0.000103635 0)
(0.0107867 -9.49651e-05 0)
(0.0109213 -8.65125e-05 0)
(0.011045 -7.8461e-05 0)
(0.0111582 -7.04853e-05 0)
(0.0112612 -6.34309e-05 0)
(0.0113544 -5.54468e-05 0)
(0.0114378 -4.98683e-05 0)
(0.0115125 -4.17949e-05 0)
(0.0115779 -3.745e-05 0)
(0.0116356 -2.98554e-05 0)
(0.0116844 -2.6194e-05 0)
(0.0117266 -1.94139e-05 0)
(0.0117603 -1.61011e-05 0)
(0.0117883 -1.02484e-05 0)
(0.0118087 -7.17011e-06 0)
(0.0118238 -2.29762e-06 0)
(0.0118324 5.59073e-07 0)
(0.0118361 4.57138e-06 0)
(0.0118336 7.88851e-06 0)
(0.0118263 1.1172e-05 0)
(0.0118143 1.44474e-05 0)
(0.0117979 1.74822e-05 0)
(0.0117775 2.02527e-05 0)
(0.0117532 2.27816e-05 0)
(0.0117254 2.50953e-05 0)
(0.0116945 2.71899e-05 0)
(0.0116606 2.8794e-05 0)
(0.0116241 3.01366e-05 0)
(0.011585 3.13164e-05 0)
(0.0115438 3.23995e-05 0)
(0.0115004 3.33785e-05 0)
(0.0114557 3.3799e-05 0)
(0.0114084 3.49737e-05 0)
(0.0113614 3.51937e-05 0)
(0.011311 3.59967e-05 0)
(0.011262 3.6362e-05 0)
(0.0112097 3.67232e-05 0)
(0.0111591 3.71355e-05 0)
(0.0111057 3.71578e-05 0)
(0.011054 3.75801e-05 0)
(0.0110001 3.74487e-05 0)
(0.0109476 3.76827e-05 0)
(0.0108939 3.75148e-05 0)
(0.0108411 3.74556e-05 0)
(0.010788 3.73818e-05 0)
(0.0107354 3.70807e-05 0)
(0.010683 3.68986e-05 0)
(0.010631 3.65297e-05 0)
(0.0105795 3.61317e-05 0)
(0.0105286 3.56306e-05 0)
(0.0104783 3.511e-05 0)
(0.0104286 3.44562e-05 0)
(0.0103798 3.38996e-05 0)
(0.0103316 3.31841e-05 0)
(0.0102845 3.25667e-05 0)
(0.0102379 3.18054e-05 0)
(0.0101927 3.11269e-05 0)
(0.0101479 3.03353e-05 0)
(0.0101046 2.95988e-05 0)
(0.0100618 2.87914e-05 0)
(0.0100206 2.79992e-05 0)
(0.00997977 2.71933e-05 0)
(0.00994074 2.63453e-05 0)
(0.009902 2.55597e-05 0)
(0.00986518 2.46556e-05 0)
(0.00982858 2.39042e-05 0)
(0.009794 2.29499e-05 0)
(0.00975958 2.22406e-05 0)
(0.00972727 2.12434e-05 0)
(0.00969504 2.0581e-05 0)
(0.00966499 1.95479e-05 0)
(0.00963497 1.89356e-05 0)
(0.00960717 1.78715e-05 0)
(0.00957934 1.73121e-05 0)
(0.00955375 1.62201e-05 0)
(0.0095281 1.57164e-05 0)
(0.00950469 1.45967e-05 0)
(0.00948118 1.41494e-05 0)
(0.00945992 1.30031e-05 0)
(0.00943851 1.2608e-05 0)
(0.00941934 1.14338e-05 0)
(0.00939998 1.10829e-05 0)
(0.00938284 9.87503e-06 0)
(0.00936549 9.55863e-06 0)
(0.00935032 8.3115e-06 0)
(0.00933491 8.02615e-06 0)
(0.00932162 6.75248e-06 0)
(0.00930807 6.51029e-06 0)
(0.00929656 5.27489e-06 0)
(0.00928476 5.16856e-06 0)
(0.00927497 3.99415e-06 0)
(0.0092649 4.03826e-06 0)
(0.00925678 2.88889e-06 0)
(0.00924839 2.96366e-06 0)
(0.00924185 1.85241e-06 0)
(0.0092351 1.93706e-06 0)
(0.00923004 8.39243e-07 0)
(0.00922487 9.74816e-07 0)
(0.00922126 -1.53141e-07 0)
(0.00921761 1.1927e-07 0)
(0.0092154 -1.07298e-06 0)
(0.00921315 -7.57628e-07 0)
(0.00921222 -1.9214e-06 0)
(0.00921125 -1.65492e-06 0)
(0.00921148 -2.66481e-06 0)
(0.00921192 -2.44145e-06 0)
(0.00921315 -3.34938e-06 0)
(0.0092147 -3.19296e-06 0)
(0.009217 -3.98347e-06 0)
(0.00921968 -4.12951e-06 0)
(0.00922302 -4.62733e-06 0)
(0.00922669 -4.92411e-06 0)
(0.00923094 -5.20711e-06 0)
(0.00923556 -5.51955e-06 0)
(0.00924066 -5.79399e-06 0)
(0.00924611 -6.08361e-06 0)
(0.00925211 -6.26235e-06 0)
(0.00925824 -6.64546e-06 0)
(0.00926516 -6.71151e-06 0)
(0.00927186 -7.08107e-06 0)
(0.00927961 -7.13872e-06 0)
(0.00928686 -7.49608e-06 0)
(0.0092953 -7.53567e-06 0)
(0.00930307 -7.90057e-06 0)
(0.00931217 -7.89518e-06 0)
(0.00932044 -8.24225e-06 0)
(0.00933009 -8.21014e-06 0)
(0.00933882 -8.52822e-06 0)
(0.00934895 -8.4801e-06 0)
(0.00935811 -8.77555e-06 0)
(0.00936865 -8.70853e-06 0)
(0.00937819 -8.9914e-06 0)
(0.00938911 -8.90368e-06 0)
(0.00939898 -9.16491e-06 0)
(0.00941022 -9.07035e-06 0)
(0.00942038 -9.30476e-06 0)
(0.00943189 -9.20693e-06 0)
(0.00944229 -9.41411e-06 0)
(0.00945402 -9.31321e-06 0)
(0.00946464 -9.49586e-06 0)
(0.00947654 -9.39204e-06 0)
(0.00948734 -9.55477e-06 0)
(0.00949938 -9.44661e-06 0)
(0.00951033 -9.5936e-06 0)
(0.00952248 -9.48236e-06 0)
(0.00953353 -9.60824e-06 0)
(0.00954576 -9.49501e-06 0)
(0.00955689 -9.59952e-06 0)
(0.00956916 -9.48678e-06 0)
(0.00958035 -9.5712e-06 0)
(0.00959263 -9.46242e-06 0)
(0.00960385 -9.52577e-06 0)
(0.00961612 -9.42369e-06 0)
(0.00962735 -9.46036e-06 0)
(0.00963958 -9.37078e-06 0)
(0.00965081 -9.38251e-06 0)
(0.00966295 -9.30172e-06 0)
(0.00967418 -9.30005e-06 0)
(0.00968621 -9.21727e-06 0)
(0.00969742 -9.20671e-06 0)
(0.00970932 -9.12163e-06 0)
(0.0097205 -9.10031e-06 0)
(0.00973226 -9.01697e-06 0)
(0.00974339 -8.98337e-06 0)
(0.00975498 -8.90301e-06 0)
(0.00976606 -8.85661e-06 0)
(0.00977747 -8.77895e-06 0)
(0.00978848 -8.72026e-06 0)
(0.00979969 -8.6442e-06 0)
(0.00981062 -8.57255e-06 0)
(0.00982162 -8.49704e-06 0)
(0.00983245 -8.41922e-06 0)
(0.00984326 -8.33774e-06 0)
(0.00985396 -8.2569e-06 0)
(0.00986458 -8.16871e-06 0)
(0.00987511 -8.08178e-06 0)
(0.00988556 -7.99136e-06 0)
(0.00989592 -7.90054e-06 0)
(0.00990619 -7.8068e-06 0)
(0.00991636 -7.713e-06 0)
(0.00992644 -7.61723e-06 0)
(0.00993642 -7.52101e-06 0)
(0.00994631 -7.42445e-06 0)
(0.0099561 -7.32848e-06 0)
(0.0099658 -7.22563e-06 0)
(0.0099754 -7.12011e-06 0)
(0.00998491 -7.01875e-06 0)
(0.00999433 -6.92399e-06 0)
(0.0100037 -6.83538e-06 0)
(0.0100129 -6.75092e-06 0)
(0.010022 -6.66912e-06 0)
(0.0100311 -6.58897e-06 0)
(0.01004 -6.51e-06 0)
(0.0100488 -6.43197e-06 0)
(0.0100576 -6.35478e-06 0)
(0.0100662 -6.27838e-06 0)
(0.0100748 -6.20274e-06 0)
(0.0100833 -6.12784e-06 0)
(0.0100916 -6.05365e-06 0)
(0.0100999 -5.98015e-06 0)
(0.0101081 -5.90735e-06 0)
(0.0101162 -5.83522e-06 0)
(0.0101242 -5.76376e-06 0)
(0.0101321 -5.69298e-06 0)
(0.0101399 -5.62287e-06 0)
(0.0101476 -5.55343e-06 0)
(0.0101552 -5.48464e-06 0)
(0.0101628 -5.41651e-06 0)
(0.0101702 -5.34903e-06 0)
(0.0101776 -5.2822e-06 0)
(0.0101848 -5.21602e-06 0)
(0.010192 -5.15049e-06 0)
(0.0101991 -5.08561e-06 0)
(0.0102061 -5.02138e-06 0)
(0.010213 -4.95781e-06 0)
(0.0102199 -4.8949e-06 0)
(0.0102266 -4.83266e-06 0)
(0.0102333 -4.77109e-06 0)
(0.0102399 -4.71019e-06 0)
(0.0102464 -4.64997e-06 0)
(0.0102528 -4.59042e-06 0)
(0.0102591 -4.53155e-06 0)
(0.0102654 -4.47336e-06 0)
(0.0102716 -4.41584e-06 0)
(0.0102777 -4.359e-06 0)
(0.0102837 -4.30283e-06 0)
(0.0102896 -4.24734e-06 0)
(0.0102955 -4.19252e-06 0)
(0.0103013 -4.13836e-06 0)
(0.010307 -4.08487e-06 0)
(0.0103127 -4.03204e-06 0)
(0.0103183 -3.97987e-06 0)
(0.0103238 -3.92833e-06 0)
(0.0103292 -3.87743e-06 0)
(0.0103346 -3.82716e-06 0)
(0.0103399 -3.77751e-06 0)
(0.0103451 -3.72846e-06 0)
(0.0103503 -3.68e-06 0)
(0.0103554 -3.63213e-06 0)
(0.0103604 -3.58482e-06 0)
(0.0103654 -3.53807e-06 0)
(0.0103703 -3.49187e-06 0)
(0.0103751 -3.4462e-06 0)
(0.0103799 -3.40103e-06 0)
(0.0103846 -3.35637e-06 0)
(0.0103893 -3.3122e-06 0)
(0.0103938 -3.2685e-06 0)
(0.0103984 -3.22526e-06 0)
(0.0104028 -3.18248e-06 0)
(0.0104072 -3.14014e-06 0)
(0.0104116 -3.09822e-06 0)
(0.0104159 -3.05673e-06 0)
(0.0104201 -3.01564e-06 0)
(0.0104243 -2.97497e-06 0)
(0.0104284 -2.93473e-06 0)
(0.0104325 -2.89501e-06 0)
(0.0104365 -2.85566e-06 0)
(0.0104404 -2.81658e-06 0)
(0.0104443 -2.77778e-06 0)
(0.0104482 -2.73928e-06 0)
(0.0104519 -2.70109e-06 0)
(0.0104557 -2.66321e-06 0)
(0.0104594 -2.62565e-06 0)
(0.010463 -2.5884e-06 0)
(0.0104666 -2.55146e-06 0)
(0.0104701 -2.51482e-06 0)
(0.0104736 -2.47849e-06 0)
(0.010477 -2.44245e-06 0)
(0.0104803 -2.40671e-06 0)
(0.0104837 -2.37125e-06 0)
(0.0104869 -2.33608e-06 0)
(0.0104902 -2.30118e-06 0)
(0.0104933 -2.26655e-06 0)
(0.0104964 -2.23219e-06 0)
(0.0104995 -2.19806e-06 0)
(0.0105026 -2.16414e-06 0)
(0.0105055 -2.13033e-06 0)
(0.0105085 -2.09685e-06 0)
(0.0105113 -2.06371e-06 0)
(0.0105142 -2.03084e-06 0)
(0.010517 -1.99822e-06 0)
(0.0105197 -1.96581e-06 0)
(0.0105224 -1.93361e-06 0)
(0.0105251 -1.90162e-06 0)
(0.0105277 -1.86985e-06 0)
(0.0105303 -1.83831e-06 0)
(0.0105328 -1.807e-06 0)
(0.0105353 -1.77591e-06 0)
(0.0105377 -1.74499e-06 0)
(0.0105401 -1.71421e-06 0)
(0.0105425 -1.68334e-06 0)
(0.0105448 -1.6528e-06 0)
(0.010547 -1.61995e-06 0)
(0.0105493 -1.59958e-06 0)
(0.0105514 -1.55565e-06 0)
(0.0105536 -1.5405e-06 0)
(0.0105557 -1.49329e-06 0)
(0.0105577 -1.48438e-06 0)
(0.0105597 -1.42972e-06 0)
(0.0105617 -1.42406e-06 0)
(0.0105636 -1.36784e-06 0)
(0.0105656 -1.36084e-06 0)
(0.0105673 -1.30339e-06 0)
(0.0105692 -1.29541e-06 0)
(0.0105708 -1.23045e-06 0)
(0.0105727 -1.22738e-06 0)
(0.010574 -1.13931e-06 0)
(0.0105761 -1.1633e-06 0)
(0.010577 -1.01529e-06 0)
(0.0105792 -1.11931e-06 0)
(0.0105796 -8.59265e-07 0)
(0.0105823 -1.04523e-06 0)
(0.0105817 -8.88807e-07 0)
(0.0105855 -9.89304e-07 0)
(0.0105824 -9.62571e-07 0)
(-4.42812e-06 5.86796e-06 0)
(-4.63309e-05 5.89518e-05 0)
(-0.000133637 0.00012386 0)
(-0.000262791 0.000181837 0)
(-0.000426231 0.000227314 0)
(-0.000614096 0.000256591 0)
(-0.000819029 0.000274965 0)
(-0.00103395 0.000283454 0)
(-0.0012543 0.000286825 0)
(-0.00147701 0.000286594 0)
(-0.00169945 0.00028498 0)
(-0.00192115 0.000282119 0)
(-0.00214065 0.000278884 0)
(-0.00235812 0.000275796 0)
(-0.00257332 0.000272795 0)
(-0.00278621 0.00026972 0)
(-0.00299681 0.000266397 0)
(-0.00320496 0.000263305 0)
(-0.00341023 0.000259641 0)
(-0.00361309 0.000255248 0)
(-0.00381424 0.000250705 0)
(-0.00401335 0.000246201 0)
(-0.00421055 0.000241847 0)
(-0.00440567 0.000237666 0)
(-0.00459868 0.000233804 0)
(-0.00478955 0.000230292 0)
(-0.00497825 0.000227427 0)
(-0.00516484 0.000225096 0)
(-0.00534925 0.000223634 0)
(-0.0055316 0.000222801 0)
(-0.0057118 0.000222816 0)
(-0.00588996 0.0002233 0)
(-0.00606621 0.000224255 0)
(-0.00624124 0.00022689 0)
(-0.006415 0.000230145 0)
(-0.00658466 0.000232678 0)
(-0.00675141 0.000236047 0)
(-0.00691636 0.000239115 0)
(-0.00707929 0.000241748 0)
(-0.0072402 0.000243815 0)
(-0.00739914 0.000245254 0)
(-0.00755626 0.000245932 0)
(-0.0077117 0.000245922 0)
(-0.00786572 0.000245211 0)
(-0.00801845 0.000243928 0)
(-0.00816999 0.000242178 0)
(-0.00832031 0.000240086 0)
(-0.00846938 0.000237744 0)
(-0.00861716 0.000235217 0)
(-0.00876363 0.000232512 0)
(-0.00890876 0.000229646 0)
(-0.00905256 0.000226376 0)
(-0.00919478 0.000222986 0)
(-0.0093359 0.000218589 0)
(-0.00947508 0.000214045 0)
(-0.0096138 0.000207806 0)
(-0.00975081 0.000201458 0)