x,p,T,maxKappa,minKappa
-0.152,68970,289,0.163934,0.163934
-0.14945,68970,289,1,1
-0.1464,68970,289,1,1
-0.14335,68970,289,1,1
-0.1403,68970,289,1,1
-0.13725,68970,289,1,1
-0.1342,68970,289,1,1
-0.13115,68970,289,1,1
-0.1281,68970,289,1,1
-0.12505,68970,289,1,1
-0.122,68970,289,1,1
-0.11895,68970,289,1,1
-0.1159,68970,289,1,1
-0.11285,68970,289,1,1
-0.1098,68970,289,1,1
-0.10675,68970,289,1,1
-0.1037,68970,289,1,1
-0.10065,68970,289,1,1
-0.0976,68970,289,1,1
-0.09455,68970,289,1,1
-0.0915,68970,289,1,1
-0.08845,68970,289,1,1
-0.0854,68970,289,1,1
-0.08235,68970,289,1,1
-0.0793,68970,289,1,1
-0.07625,68970,289,1,1
-0.0732,68970,289,1,1
-0.07015,68970,289,1,1
-0.0671,68970,289,1,1
-0.06405,68970,289,1,1
-0.061,68970,289,1,1
-0.05795,68970,289,1,1
-0.0549,68970,289,1,1
-0.05185,68970,289,1,1
-0.0488,68970,289,1,1
-0.04575,68970,289,1,1
-0.0427,68963.7,288.988,1,1
-0.03965,68806.9,288.747,1,1
-0.0366,68012.6,287.718,1,1
-0.03355,66563.4,285.975,1,1
-0.0305,65213.7,284.376,1,1
-0.02745,64380.5,283.363,1,1
-0.0244,63967,282.844,1,1
-0.02135,63810.8,282.604,1,1
-0.0183,63761.8,282.489,1,1
-0.01525,63743.9,282.43,1,1
-0.0122,63747.3,282.438,1,1
-0.00915,63751.1,282.594,1,1
-0.0061,63750,283.146,1,1
-0.00305,63747.1,284.544,1,1
-8.27181e-25,63745.3,287.059,1,1
0.00305,63745.9,290.224,1,1
0.0061,63746.9,293.006,1,1
0.00915,63748.2,294.709,1,1
0.0122,63748.1,295.423,1,1
0.01525,63746,295.613,1,1
0.0183,63745,295.641,1,1
0.02135,63744.4,295.621,1,1
0.0244,63706.5,295.519,1,1
0.02745,63551.2,295.268,1,1
0.0305,63126.5,294.697,1,1
0.03355,62189.6,293.499,1,1
0.0366,60718.3,291.589,1,1
0.03965,59465.7,289.827,1,1
0.0427,59012.6,289.089,1,1
0.04575,58970.6,289.001,1,1
0.0488,58970,289,1,1
0.05185,58970,289,1,1
0.0549,58970,289,1,1
0.05795,58970,289,1,1
0.061,58970,289,1,1
0.06405,58970,289,1,1
0.0671,58970,289,1,1
0.07015,58970,289,1,1
0.0732,58970,289,1,1
0.07625,58970,289,1,1
0.0793,58970,289,1,1
0.08235,58970,289,1,1
0.0854,58970,289,1,1
0.08845,58970,289,1,1
0.0915,58970,289,1,1
0.09455,58970,289,1,1
0.0976,58970,289,1,1
0.10065,58970,289,1,1
0.1037,58970,289,1,1
0.10675,58970,289,1,1
0.1098,58970,289,1,1
0.11285,58970,289,1,1
0.1159,58970,289,1,1
0.11895,58970,289,1,1
0.122,58970,289,1,1
0.12505,58970,289,1,1
0.1281,58970,289,1,1
0.13115,58970,289,1,1
0.1342,58970,289,1,1
0.13725,58970,289,1,1
0.1403,58970,289,1,1
0.14335,58970,289,1,1
0.1464,58970,289,1,1
0.14945,58970,289,1,1
0.152,58970,289,0.163934,0.163934
