/*--------------------------------*- C++ -*----------------------------------*\
| =========                 |                                                 |
| \\      /  F ield         | OpenFOAM: The Open Source CFD Toolbox           |
|  \\    /   O peration     | Version:  2012                                  |
|   \\  /    A nd           | Website:  www.openfoam.com                      |
|    \\/     M anipulation  |                                                 |
\*---------------------------------------------------------------------------*/
FoamFile
{
    version     2.0;
    format      ascii;
    class       volScalarField;
    location    "0.65";
    object      rhogh;
}
// * * * * * * * * * * * * * * * * * * * * * * * * * * * * * * * * * * * * * //

dimensions      [1 -1 -2 0 0 0 0];


internalField   nonuniform List<scalar> 
2268
(
-29.4294
-29.4294
-29.4294
-29.4294
-29.4294
-29.4294
-29.4294
-29.4294
-29.4294
-29.4294
-29.4294
-29.4294
-29.4294
-29.4294
-29.4294
-29.4294
-29.4294
-29.4294
-29.4294
-29.4294
-29.4294
-29.4294
-29.4232
-88.2881
-88.2881
-88.2881
-88.2881
-88.2881
-88.2881
-88.2881
-88.2881
-88.2881
-88.2881
-88.2881
-88.2881
-88.2881
-88.2881
-88.2881
-88.2881
-88.2881
-88.2881
-88.2881
-88.2881
-88.2881
-88.2875
-88.2627
-147.147
-147.147
-147.147
-147.147
-147.147
-147.147
-147.147
-147.147
-147.147
-147.147
-147.147
-147.147
-147.147
-147.147
-147.147
-147.147
-147.147
-147.147
-147.147
-147.147
-147.147
-147.146
-147.104
-206.006
-206.006
-206.006
-206.006
-206.006
-206.006
-206.006
-206.006
-206.006
-206.006
-206.006
-206.006
-206.006
-206.006
-206.006
-206.006
-206.006
-206.006
-206.006
-206.006
-206.006
-206.005
-205.946
-264.864
-264.864
-264.864
-264.864
-264.864
-264.864
-264.864
-264.864
-264.864
-264.864
-264.864
-264.864
-264.864
-264.864
-264.864
-264.864
-264.864
-264.864
-264.864
-264.864
-264.864
-264.864
-264.834
-323.723
-323.723
-323.723
-323.723
-323.723
-323.723
-323.723
-323.723
-323.723
-323.723
-323.723
-323.723
-323.723
-323.723
-323.723
-323.723
-323.723
-323.723
-323.723
-323.723
-323.723
-323.723
-323.723
-382.573
-382.574
-382.578
-382.581
-382.581
-382.582
-382.582
-382.582
-382.582
-382.582
-382.582
-382.582
-382.582
-382.582
-382.582
-382.582
-382.582
-382.582
-382.582
-382.582
-382.582
-382.582
-382.582
-425.7
-426.926
-431.584
-436.464
-438.859
-439.692
-440.94
-441.44
-441.44
-441.44
-441.44
-441.44
-441.44
-441.44
-441.44
-441.44
-441.44
-441.44
-441.44
-441.44
-441.44
-441.44
-441.44
-23.4599
-23.4598
-23.8245
-23.8245
-22.0553
-19.5639
-20.0152
-22.9932
-22.9932
-22.9932
-22.9916
-22.8871
-23.8426
-24.4657
-24.4657
-24.4657
-24.4657
-24.4653
-24.2474
-67.0933
-42.9908
-64.4866
-71.3952
-70.2904
-58.6919
-59.2338
-63.3009
-68.9797
-64.627
-62.1794
-61.8875
-61.841
-60.627
-60.4981
-65.3201
-70.7357
-73.4066
-73.4066
-67.4617
-4.61114
-24.9346
-49.3698
-93.4845
-124.169
-137.529
-104.842
-25.2445
-24.085
-24.0851
-35.1063
-24.8399
-20.8206
-19.7844
-24.4138
-44.238
-94.679
-122.351
-83.6089
-4.2992
-0.0081485
-1.36326e-05
-6.90246
-89.2901
-192.541
-200.548
-151.509
-95.0635
-62.7181
-16.1173
-0.12098
-0.12098
-0.12098
-0.12098
-0.12098
-46.9468
-171.292
-144.29
-6.30256
-4.54231e-21
-1.75273e-05
-1.55662e-06
-50.2179
-227.784
-264.222
-263.65
-254.855
-233.14
-184.828
-109.46
-22.1761
-0.155545
-0.155545
-0.784082
-20.745
-177.811
-176.495
-6.11813
5.27164e-23
-0.000313672
-1.71037e-06
-158.244
-312.657
-322.938
-322.938
-322.286
-322.286
-322.286
-315.278
-266.316
-140.228
-16.0741
-1.11954
-16.0468
-176.286
-168.224
-6.20001
-8.34532e-23
-0.000556676
-2.24845e-06
-268.605
-378.618
-381.719
-377.342
-339.97
-330.829
-336.432
-349.365
-349.365
-347.98
-145.157
-3.51089
-17.4178
-258.028
-111.395
-9.24369
-0.69606
-0.000642323
-89.2764
-389.18
-440.196
-440.445
-331.589
-194.968
-125.018
-119.34
-132.277
-201.86
-247.089
-168.184
-9.15008
-12.7541
-297.796
-229.923
-236.55
-252.67
-278.406
-314.501
-348.161
-390.62
-435.404
-479.09
-517.263
-533.467
-533.467
-533.467
-533.467
-533.467
-533.467
-533.467
-533.467
-533.467
-533.467
-533.467
-533.467
-533.467
6.47473e-38
4.15519e-35
1.02739e-35
2.33836e-19
-2.22959
-17.8396
-40.496
-74.7146
-130.914
-210.366
-318.792
-437.872
-544.055
-635.627
-658.662
-658.662
-658.662
-658.653
-658.661
-658.662
-658.662
-658.662
-658.662
-2.03722e-16
-9.47627e-15
-2.21882e-13
-1.80435e-12
-3.14399e-28
1.28151e-28
-2.46371e-28
8.47649e-21
-0.670498
-4.47431
-17.7839
-59.3264
-136.792
-260.345
-436.044
-566.247
-643.905
-755.255
-778.427
-782.088
-782.298
-783.818
-783.856
-4.65394e-15
-2.22589e-13
-6.82695e-12
-1.31546e-10
-1.8975e-09
-8.46702e-09
-6.97781e-08
-1.67961e-05
-0.000451396
-0.00839849
-0.110835
-0.918506
-4.62313
-16.4148
-49.6072
-108.813
-143.271
-227.292
-364.581
-493.735
-611.595
-794.848
-871.532
-5.8311e-14
-2.78733e-12
-6.39966e-11
-8.36782e-10
-6.35312e-09
-2.23835e-08
-4.82995e-08
-4.28136e-07
-2.97951e-07
-5.40874e-06
-6.45757e-05
-0.000313128
-0.000553465
2.617e-23
-1.24537e-22
1.63685e-24
2.94592e-26
-0
2.06183e-21
3.53095e-19
-17.858
-108.043
-181.63
-2.37231e-14
-1.29299e-12
-3.75867e-11
-6.49e-10
-6.35583e-09
-3.0013e-08
-6.40242e-08
-9.42928e-08
-9.52212e-08
-2.7328e-06
-0.000305318
-0.000617667
-0.00116319
-0.00235529
-0.000705635
-0.000176719
-1.02325e-05
-3.28889e-42
-1.50838e-23
-7.60333e-06
-1.38796e-09
-1.38796e-09
-1.38796e-09
-2.72381e-14
-1.37817e-12
-3.35632e-11
-5.03098e-10
-4.73018e-09
-2.22832e-08
-4.67956e-08
-1.69515e-07
-3.11176e-07
-1.10043e-06
-0.000320429
-0.00245199
-0.00270272
-0.00270272
-0.000515022
-1.33849e-05
-1.3385e-05
-0.000140876
-0.000575936
-0.000257344
-1.53783e-09
-2.94302e-05
-0.912896
-1.09786e-14
-5.63398e-13
-1.41419e-11
-2.25437e-10
-2.36041e-09
-1.31382e-08
-4.51669e-08
-3.0172e-07
-1.20364e-06
-7.33921e-06
-0.000146496
-0.000920995
-0.00136452
-0.00045522
-7.15765e-05
-1.78327e-05
-1.80126e-05
-0.00012982
-0.000632108
-0.000632023
-0.000104812
-0.000179186
-0.000705737
-4.35791e-15
-2.09347e-13
-5.07374e-12
-7.75591e-11
-8.33898e-10
-5.2507e-09
-2.36736e-08
-2.70797e-07
-1.83941e-06
-8.58665e-06
-1.80177e-05
-6.9121e-06
-3.81245e-06
-4.11952e-06
-3.47192e-06
-2.43547e-05
-4.48809e-05
-6.228e-05
-0.000342056
-0.000580098
-0.000129426
-3.44204e-09
-3.42386e-09
-1.44733e-15
-6.85542e-14
-1.6728e-12
-2.52357e-11
-2.8079e-10
-2.28285e-09
-1.79401e-08
-2.37162e-07
-1.74165e-06
-4.69046e-06
-2.18822e-06
-3.843e-07
-2.37166e-07
-3.90483e-07
-1.27276e-06
-1.42377e-05
-4.49334e-05
-4.6756e-05
-1.80993e-05
-6.86253e-05
-0.000245338
-0.000339428
-3.72277e-09
-4.28216e-16
-1.93072e-14
-4.58486e-13
-6.58196e-12
-7.11071e-11
-6.6699e-10
-6.8794e-09
-1.0911e-07
-6.20861e-07
-1.00446e-06
-6.51953e-07
-3.4153e-07
-2.5505e-07
-4.78247e-07
-9.38597e-07
-3.07715e-06
-1.47567e-05
-2.09195e-05
-3.87531e-06
-2.45666e-06
-0.000270082
-0.00142129
-0.00095327
-1.1093e-16
-4.83446e-15
-1.14193e-13
-1.60518e-12
-1.67881e-11
-1.61907e-10
-1.78597e-09
-2.81633e-08
-1.24246e-07
-1.86221e-07
-1.83569e-07
-1.76197e-07
-2.00348e-07
-3.89313e-07
-7.1371e-07
-1.05408e-06
-2.14194e-06
-3.56181e-06
-2.26482e-06
-9.8775e-07
-7.225e-05
-0.00150917
-0.00271359
-2.38932e-17
-9.8994e-16
-2.31909e-14
-3.21504e-13
-3.27528e-12
-3.04222e-11
-3.3579e-10
-5.20563e-09
-2.13575e-08
-3.57774e-08
-4.68189e-08
-5.30684e-08
-7.55171e-08
-1.46129e-07
-3.3304e-07
-4.88785e-07
-6.8438e-07
-9.62758e-07
-1.02969e-06
-8.25812e-07
-3.22554e-06
-0.000289611
-0.00218098
-4.43193e-18
-1.77072e-16
-4.14649e-15
-5.75541e-14
-5.88004e-13
-5.40085e-12
-6.25274e-11
-8.02992e-10
-3.21961e-09
-6.56733e-09
-1.03032e-08
-1.28011e-08
-1.80031e-08
-3.23175e-08
-8.1892e-08
-1.60701e-07
-2.6551e-07
-4.03946e-07
-5.27918e-07
-6.23047e-07
-4.42994e-07
-1.31622e-05
-0.000329066
-6.79605e-19
-2.61643e-17
-6.15236e-16
-8.62256e-15
-8.98204e-14
-8.21908e-13
-1.07262e-11
-1.03397e-10
-4.09766e-10
-9.86878e-10
-1.75647e-09
-2.37788e-09
-3.48039e-09
-6.09954e-09
-1.56229e-08
-3.75504e-08
-7.7951e-08
-1.44484e-07
-2.3783e-07
-3.34042e-07
-3.92852e-07
-1.58735e-06
-3.00884e-06
-8.65222e-20
-3.24606e-18
-7.71668e-17
-1.10287e-15
-1.18558e-14
-1.08114e-13
-1.60315e-12
-1.16289e-11
-4.39047e-11
-1.15636e-10
-2.24517e-10
-3.35184e-10
-5.31659e-10
-9.75694e-10
-2.51178e-09
-6.80252e-09
-1.70305e-08
-3.80142e-08
-7.68283e-08
-1.25642e-07
-1.89251e-07
-3.75705e-07
-2.74183e-07
-8.98703e-21
-3.31777e-19
-8.03889e-18
-1.18315e-16
-1.32256e-15
-1.20104e-14
-1.89792e-13
-1.16001e-12
-4.05021e-12
-1.07979e-11
-2.20007e-11
-3.6395e-11
-6.39832e-11
-1.29515e-10
-3.46621e-10
-1.00636e-09
-2.87336e-09
-7.39936e-09
-1.76551e-08
-3.3538e-08
-5.50517e-08
-9.23842e-08
-1.09476e-07
-7.57531e-22
-2.79393e-20
-6.96277e-19
-1.06533e-17
-1.24079e-16
-1.13471e-15
-1.72296e-14
-9.86679e-14
-3.21699e-13
-8.33752e-13
-1.71957e-12
-3.13747e-12
-6.16712e-12
-1.42002e-11
-4.0775e-11
-1.24559e-10
-3.86967e-10
-1.09972e-09
-2.98457e-09
-6.45329e-09
-1.19394e-08
-1.98725e-08
-2.98396e-08
-5.13381e-23
-1.91999e-21
-4.96355e-20
-7.94199e-19
-9.60195e-18
-8.91676e-17
-1.20611e-15
-6.828e-15
-2.13022e-14
-5.38978e-14
-1.10223e-13
-2.20157e-13
-4.82421e-13
-1.27533e-12
-3.97606e-12
-1.27458e-11
-4.1843e-11
-1.26683e-10
-3.79121e-10
-9.13802e-10
-1.91074e-09
-3.41687e-09
-5.8265e-09
-2.78412e-24
-1.06986e-22
-2.88634e-21
-4.8378e-20
-6.02978e-19
-5.68161e-18
-6.63795e-17
-3.76949e-16
-1.14189e-15
-2.8856e-15
-5.82677e-15
-1.26927e-14
-3.06432e-14
-9.23965e-14
-3.10415e-13
-1.04636e-12
-3.58268e-12
-1.13087e-11
-3.64401e-11
-9.60851e-11
-2.26219e-10
-4.45829e-10
-8.40704e-10
-1.21755e-25
-4.84919e-24
-1.36379e-22
-2.38598e-21
-3.039e-20
-2.89102e-19
-2.91834e-18
-1.65477e-17
-4.88183e-17
-1.25612e-16
-2.51579e-16
-5.96036e-16
-1.55475e-15
-5.24864e-15
-1.8589e-14
-6.59498e-14
-2.34115e-13
-7.63238e-13
-2.61146e-12
-7.42252e-12
-1.96091e-11
-4.2942e-11
-9.12199e-11
-4.41482e-27
-1.83551e-25
-5.32403e-24
-9.62916e-23
-1.23857e-21
-1.18196e-20
-1.04127e-19
-5.82707e-19
-1.66545e-18
-4.39754e-18
-8.75244e-18
-2.23924e-17
-6.12444e-17
-2.24839e-16
-8.11281e-16
-3.01423e-15
-1.09584e-14
-3.67559e-14
-1.32568e-13
-4.01242e-13
-1.18896e-12
-2.90272e-12
-7.12727e-12
-1.36649e-28
-5.92274e-27
-1.74799e-25
-3.23321e-24
-4.15127e-23
-3.9359e-22
-3.06521e-21
-1.6654e-20
-4.55564e-20
-1.22811e-19
-2.40579e-19
-6.52013e-19
-1.78866e-18
-6.85288e-18
-2.39878e-17
-9.17412e-17
-3.30943e-16
-1.13337e-15
-4.26941e-15
-1.35315e-14
-4.52667e-14
-1.24103e-13
-3.66153e-13
-3.77252e-30
-1.69925e-28
-5.02999e-27
-9.39357e-26
-1.18875e-24
-1.10488e-23
-7.66464e-23
-3.96209e-22
-1.02279e-21
-2.76461e-21
-5.19982e-21
-1.43426e-20
-3.68149e-20
-1.37501e-19
-4.26808e-19
-1.57232e-18
-5.17479e-18
-2.29505e-17
-3.21114e-16
-3.79497e-15
-1.90278e-14
-5.94162e-14
-5.16311e-14
-9.60405e-32
-4.45227e-30
-1.30552e-28
-2.42993e-27
-2.99684e-26
-2.69405e-25
-1.67215e-24
-8.06263e-24
-1.92843e-23
-5.06165e-23
-8.75778e-23
-2.28568e-22
-4.87618e-22
-1.58233e-21
-1.25559e-20
-1.27374e-18
-1.29397e-16
-4.89628e-15
-1.09607e-13
-8.94609e-13
-3.94295e-12
-9.81775e-12
-1.00223e-11
-2.33309e-33
-1.10217e-31
-3.16789e-30
-5.80054e-29
-6.89995e-28
-5.92122e-27
-3.29445e-26
-1.45507e-25
-3.16436e-25
-7.66954e-25
-1.20739e-24
-6.6864e-24
-3.98294e-22
-4.35392e-20
-5.66577e-18
-4.33621e-16
-2.11338e-14
-5.16642e-13
-7.61813e-12
-4.44161e-11
-1.58713e-10
-3.23905e-10
-3.38076e-10
-5.52884e-35
-2.63372e-33
-7.36251e-32
-1.3124e-30
-1.49338e-29
-1.20709e-28
-5.97971e-28
-2.59509e-27
-2.02689e-26
-1.10661e-24
-7.92256e-23
-5.82593e-21
-4.05357e-19
-2.51777e-17
-1.39207e-15
-5.08646e-14
-1.44266e-12
-2.49986e-11
-2.55219e-10
-1.05607e-09
-2.86867e-09
-4.58967e-09
-4.66707e-09
-1.27401e-36
-6.17315e-35
-1.64881e-33
-2.98456e-32
-5.28935e-31
-2.61549e-29
-2.04963e-27
-1.51193e-25
-9.9999e-24
-6.09796e-22
-3.50267e-20
-1.86932e-18
-9.01105e-17
-3.78906e-15
-1.37494e-13
-3.43914e-12
-6.22767e-11
-7.42031e-10
-5.11796e-09
-1.43068e-08
-2.78364e-08
-3.44418e-08
-3.9068e-08
-8.43221e-38
-9.59594e-36
-2.37742e-33
-4.27032e-31
-5.68771e-29
-5.81041e-27
-4.76639e-25
-3.26864e-23
-1.94377e-21
-1.03017e-19
-4.93324e-18
-2.1163e-16
-7.98396e-15
-2.57675e-13
-6.9353e-12
-1.32405e-10
-1.79369e-09
-1.5085e-08
-6.5934e-08
-1.22111e-07
-2.19915e-07
-4.95624e-07
-5.19294e-06
-4.52168e-36
-2.50788e-33
-6.6438e-31
-1.11578e-28
-1.33608e-26
-1.21753e-24
-8.82482e-23
-5.2617e-21
-2.65484e-19
-1.15812e-17
-4.42692e-16
-1.48201e-14
-4.30526e-13
-1.06162e-11
-2.173e-10
-3.247e-09
-3.4186e-08
-2.1667e-07
-8.34773e-07
-7.72019e-06
-6.49687e-05
-0.000257808
-0.00218684
-5.22586e-34
-2.71293e-31
-6.71577e-29
-1.05281e-26
-1.17359e-24
-9.90841e-23
-6.60031e-21
-3.57388e-19
-1.61004e-17
-6.14254e-16
-2.00896e-14
-5.64546e-13
-1.35314e-11
-2.70897e-10
-4.44802e-09
-5.4568e-08
-4.95932e-07
-4.62054e-06
-8.01586e-05
-0.00143014
-0.00785743
-0.0110444
-0.0107587
-6.21145e-32
-2.90564e-29
-6.4999e-27
-9.22368e-25
-9.30354e-23
-7.08672e-21
-4.23235e-19
-2.03238e-17
-7.9908e-16
-2.60473e-14
-7.10314e-13
-1.62377e-11
-3.10181e-10
-4.89534e-09
-6.3041e-08
-6.66396e-07
-9.19764e-06
-0.000185737
-0.00355793
-0.0155811
-0.0187217
-0.0187195
-0.00485826
-2.44e-30
-1.09909e-27
-2.3617e-25
-3.20692e-23
-3.07601e-21
-2.2082e-19
-1.22837e-17
-5.41039e-16
-1.91448e-14
-5.48594e-13
-1.27884e-11
-2.42067e-10
-3.70227e-09
-4.512e-08
-4.43099e-07
-7.23827e-06
-0.000223993
-0.00523101
-0.0184928
-0.0184892
-0.0130414
-0.000354565
-6.00287e-08
-8.44538e-29
-3.32616e-26
-6.21382e-24
-7.28588e-22
-5.9897e-20
-3.65416e-18
-1.71037e-16
-6.25958e-15
-1.81163e-13
-4.15934e-12
-7.56804e-11
-1.08193e-09
-1.18033e-08
-9.45161e-08
-9.86796e-07
-0.000113117
-0.00487799
-0.0190028
-0.0189991
-0.00857276
-1.24605e-07
-1.24592e-07
-2.08024e-06
-6.07748e-28
-2.32967e-25
-4.18664e-23
-4.65141e-21
-3.55425e-19
-1.96829e-17
-8.1339e-16
-2.54668e-14
-6.09195e-13
-1.1142e-11
-1.55106e-10
-1.61132e-09
-1.20497e-08
-6.14662e-08
-3.43872e-06
-0.00192331
-0.0164633
-0.019509
-0.00801145
-1.54426e-07
-2.70774e-07
-1.28901e-06
-3.75465e-06
-5.26345e-27
-1.75055e-24
-2.73581e-22
-2.63301e-20
-1.73264e-18
-8.22348e-17
-2.90201e-15
-7.73879e-14
-1.57514e-12
-2.45379e-11
-2.92397e-10
-2.64148e-09
-1.78627e-08
-9.46861e-08
-7.82964e-06
-0.0037495
-0.0168916
-0.0102771
-7.19473e-08
-1.58453e-07
-6.04757e-07
-1.71068e-06
-2.92666e-06
-9.11883e-27
-3.31264e-24
-5.57403e-22
-5.7196e-20
-3.96695e-18
-1.95332e-16
-7.01697e-15
-1.86759e-13
-3.73065e-12
-5.67388e-11
-6.72054e-10
-6.40077e-09
-5.23911e-08
-2.03677e-06
-0.000753474
-0.00467095
-0.00434301
-1.63624e-08
-7.37776e-08
-2.3415e-07
-5.79561e-07
-8.96449e-07
-1.01873e-06
-4.55043e-26
-1.59899e-23
-2.6163e-21
-2.63623e-19
-1.84815e-17
-9.69187e-16
-3.92179e-14
-1.21768e-12
-2.90748e-11
-5.30476e-10
-7.29032e-09
-7.29555e-08
-5.27976e-07
-1.31385e-05
-0.000903077
-0.00178929
-0.000152893
-1.67689e-08
-8.15923e-08
-1.39405e-07
-1.85742e-07
-2.32215e-07
-2.18856e-07
-4.66046e-26
-1.18255e-23
-2.48291e-21
-3.24702e-19
-2.92569e-17
-1.89797e-15
-9.04496e-14
-3.20368e-12
-8.39533e-11
-1.61061e-09
-2.25145e-08
-2.36923e-07
-3.46896e-06
-0.000148618
-0.000769829
-0.000421268
-1.71753e-08
-4.46198e-08
-7.39805e-08
-3.71391e-08
-3.77639e-08
-4.06759e-08
-3.0608e-08
-6.63089e-26
-3.19071e-23
-7.42635e-21
-1.06178e-18
-1.01909e-16
-6.82609e-15
-3.25134e-13
-1.10664e-11
-2.67829e-10
-4.58947e-09
-5.82648e-08
-5.64581e-07
-7.39181e-06
-0.000177368
-0.000404749
-7.17163e-05
-1.75816e-08
-1.7756e-07
-5.35522e-08
-6.95241e-09
-4.99458e-09
-4.35119e-09
-2.20701e-09
-1.71017e-26
-9.43891e-24
-2.50607e-21
-4.15181e-19
-4.72069e-17
-3.83409e-15
-2.25946e-13
-9.67974e-12
-3.04455e-10
-7.07538e-09
-1.16082e-07
-1.47049e-06
-1.96483e-05
-8.94791e-05
-6.38863e-05
-7.36778e-06
-9.87218e-07
-3.83911e-07
-1.66538e-08
-5.7992e-10
-3.16478e-10
-1.85667e-10
-8.73621e-11
-2.3374e-27
-1.6126e-24
-5.45191e-22
-1.16115e-19
-1.70095e-17
-1.77151e-15
-1.32269e-13
-7.0515e-12
-2.60496e-10
-6.46272e-09
-1.07534e-07
-1.24282e-06
-1.08866e-05
-3.15173e-05
-3.97057e-05
-3.43175e-05
-7.80442e-06
4.5171e-31
-1.14984e-31
-1.45653e-12
-5.7214e-13
-9.43857e-14
-4.70089e-15
-533.467
-532.852
-445.916
-207.765
-658.662
-658.601
-641.916
-420.814
-783.856
-783.856
-783.507
-772.736
-909.051
-909.051
-909.051
-909.051
-318.7
-363.454
-471.985
-520.839
-0.467819
-4.03894
-15.3101
-36.2759
-4.63019
-4.62073
-4.62327
-1.68839
-0.000645887
-4.13001
-55.902
-94.306
-8.09834e-06
-0.0380854
-19.2916
-193.545
-2.84746e-07
-0.000747793
-0.894485
-80.0853
-3.25321e-05
-0.0259289
-0.337122
-0.00523837
-0.00528282
-0.0893077
-0.0869482
-0.00562165
-0.00114043
-0.0149771
-0.0760315
-0.0607415
-0.000562233
-0.00116023
-0.00410038
-0.0046737
-1.26643e-05
-1.36828e-05
-6.11543e-06
-2.02276e-06
-2.72941e-07
-4.97573e-07
-9.59211e-09
-2.1332e-06
-1.0409e-07
-1.2594e-07
-9.99277e-09
-7.21631e-06
-3.13763e-08
-3.06424e-08
-1.04888e-08
-3.97989e-06
-6.93643e-09
-7.03168e-09
-1.09815e-08
-4.24054e-07
-1.11559e-09
-1.28571e-09
-3.97075e-09
-3.51502e-08
-1.32726e-10
-1.68982e-10
-4.52462e-10
-2.4061e-09
-1.1263e-11
-1.55154e-11
-3.4719e-11
-1.25178e-10
-6.29422e-13
-9.33923e-13
-1.84344e-12
-5.07196e-12
-5.16323e-14
-5.25183e-14
-6.83079e-14
-1.40314e-13
-1.04039e-11
-1.15168e-11
-1.68455e-11
-3.08248e-11
-4.08332e-10
-6.11078e-10
-1.24365e-09
-2.73079e-09
-7.12557e-09
-1.71431e-08
-3.96285e-08
-8.83367e-08
-7.60711e-08
-8.43619e-07
-2.0911e-06
-4.42479e-06
-6.08812e-06
-0.000193005
-0.000326295
-0.000322627
-0.00256971
-0.00227077
-0.00145328
-0.000682899
-0.00518893
-0.00168719
-0.000335888
-0.00013608
-0.000321075
-3.29203e-07
-3.26089e-07
-3.29203e-07
-6.00308e-08
-6.17836e-07
-3.49915e-06
-3.42886e-06
-5.42298e-06
-7.81232e-06
-9.30897e-06
-9.66884e-06
-6.93077e-06
-8.3826e-06
-9.39355e-06
-1.05046e-05
-3.39121e-06
-3.60109e-06
-4.05021e-06
-5.21358e-06
-9.68663e-07
-9.52111e-07
-1.14943e-06
-1.57658e-06
-1.90338e-07
-2.06013e-07
-2.9769e-07
-3.90245e-07
-2.53702e-08
-3.27462e-08
-5.8485e-08
-1.07504e-07
-1.58869e-09
-4.00313e-09
-1.47051e-08
-5.33217e-08
-2.49519e-10
-1.17986e-09
-4.67651e-09
-1.23759e-08
2.98348e-26
4.57619e-26
6.81964e-26
9.79859e-26
-84.0113
-11.17
-22.9607
-124.723
-370.328
-529.575
-531.963
-337.998
-101.502
-12.2482
-4.7959
-2.55367
-2.54886
-5.3755
-12.0141
-27.3649
-8.9918
-0.51912
-353.303
-184.335
-171.228
-433.419
-658.662
-658.662
-658.662
-428.397
-42.8793
-4.67419e-06
-4.67419e-06
-4.67419e-06
-0.00566294
-0.040444
-0.0623861
-0.108828
-0.932322
-4.90168
-1.65814e-13
-417.486
-664.687
-735.414
-783.559
-783.83
-783.599
-774.415
-133.219
-0.0037044
-0.00370441
-0.000570842
-0.010935
-0.041733
-0.00012057
-0.000594359
-0.00245493
-0.0123174
-0.0233371
-1.97522e-13
-567.825
-909.051
-909.051
-908.168
-887.449
-900.582
-401.388
-3.78026
-0.0897054
-0.0122181
-0.00580569
-0.00666864
-0.00681912
-1.04169e-07
-3.85548e-07
-9.0068e-07
-7.91749e-07
-7.92844e-07
-2.28838e-13
-711.079
-734.269
-779.654
-833.643
-767.785
-798.757
-4.12484
-0.00722009
-0.0156797
-0.00811149
-6.5982e-08
-1.58341e-05
-3.18023e-06
-1.18516e-07
-8.21775e-08
-3.15403e-08
-2.30817e-08
-0.0049127
-15.6269
-845.646
-102.586
-171.595
-474.244
-768.519
-360.653
-3.12696e-13
-0.00903666
-0.0218236
-0.00966238
-7.3969e-08
-9.59282e-08
-3.149e-07
-4.09145e-07
-3.02275e-07
-2.91801e-13
-2.91871e-13
-2.91792e-13
-92.8091
-988.301
-1.68813
-58.6871
-502.387
-740.167
-118.645
-3.45488e-13
-0.00954595
-0.0241667
-0.00817972
-8.19561e-08
-8.19561e-08
-8.19561e-08
-1.408e-06
-4.94464e-06
-2.02316e-05
-3.25249e-05
-3.23377e-13
-205.73
-1134.87
-57.5101
-57.4943
-276.111
-561.448
-125.885
-3.80219e-13
-0.0022186
-0.0046642
-3.54599e-05
-3.5459e-05
-2.72592e-05
-5.98487e-05
-0.00067848
-0.000652892
-0.000740763
-0.000340549
-3.54807e-13
-320.497
-1265.47
-367.997
-359.505
-285.075
-361.139
-599.108
-53.1577
-7.92064e-06
-7.94834e-06
-0.548242
-3.32857
-2.56097
-1.37978
-6.65388
-5.76591
-6.03069
-2.09127
-3.86407e-13
-432.666
-1377.85
-410.257
-690.026
-690.025
-589.701
-906.909
-783.947
-79.6876
-5.84812
-129.519
-370.713
-345.448
-244.859
-315.434
-335.579
-312.048
-143.158
-31.0097
-536.142
-1479.59
-0.498707
-289.893
-988.362
-1263.44
-1263.44
-1263.44
-1153.88
-961.138
-1061.96
-1254.03
-1134.71
-684.817
-630.434
-775.627
-908.068
-835.586
-542.683
-666.422
-1346.72
-0.00560575
-0.00562171
-236.898
-1005.18
-1340.15
-1352.04
-1352.04
-1352.04
-1352.04
-1352.04
-1275.93
-779.89
-932.623
-1333.77
-1573.49
-1641.61
-1411.49
-971.017
-1387.72
-0.00599007
-0.00694016
-7.81908e-07
-7.81908e-07
-382.392
-910.201
-1066.49
-1043.27
-896.236
-726.058
-574.22
-928.661
-1496.18
-1647.94
-1882.91
-2015.45
-2015.45
-1833.33
-1998.59
-0.024909
-0.0359303
-0.00513254
-0.00321362
-8.29993e-07
-8.29993e-07
-8.29993e-07
-8.29993e-07
-8.29993e-07
-8.29993e-07
-134.406
-319.902
-274.144
-261.647
-664.056
-1878.53
-2139.39
-2139.39
-2126.57
-0.0104444
-0.0160384
-0.00798601
-0.0105889
-0.0028936
-8.78078e-07
-2.56055e-06
-1.88777e-06
-3.13255e-06
-8.78078e-07
-8.78078e-07
-8.78078e-07
-8.78078e-07
-8.78078e-07
-8.78078e-07
-898.283
-2263.33
-2263.33
-2252.85
-0.000287931
-0.000185185
-5.31481e-08
-0.0111687
-0.0123281
-9.26162e-07
-0.00615878
-0.0139051
-0.00244462
-9.26162e-07
-2.93977e-05
-0.000268397
-0.0032227
-0.0238078
-6.10095
-323.667
-2011.21
-2387.27
-2373.64
-2.44795e-05
-1.13248e-05
-5.59068e-08
-0.000975267
-0.028545
-0.028545
-0.0572256
-0.10683
-0.0610921
-9.74247e-07
-6.64402e-05
-0.000195793
-0.00936462
-0.111856
-2.50488
-28.3943
-660.006
-2080.65
-2317.2
-3.59285e-06
-1.31804e-06
-1.71955e-07
-3.51177e-08
-0.00739628
-0.020663
-0.112103
-0.112103
-0.112103
-0.0110747
-6.97212e-05
-0.000184937
-0.0170891
-0.340001
-1.90597
-7.99529
-48.1122
-435.735
-690.972
-4.68739e-07
-2.48145e-07
-8.96602e-08
-3.67697e-08
-3.17239e-08
-0.00525763
-0.0207354
-0.0921777
-0.0962362
-0.0239699
-7.79602e-05
-0.000903891
-0.0274555
-0.502763
-3.96317
-40.664
-74.6937
-47.9643
-17.5081
-5.04284e-08
-3.55024e-08
-3.16972e-08
-3.3152e-08
-3.31515e-08
-0.000151054
-0.000573208
-0.00898209
-0.00373401
-0.000680184
-1.3751e-07
-0.00528505
-0.0448479
-0.0182994
-2.28322
-184.036
-608.411
-647.267
-68.3473
-4.30713e-09
-4.52896e-09
-8.14865e-09
-2.6742e-08
-4.16208e-08
-4.20724e-07
-6.65077e-06
-9.38108e-06
-8.79909e-06
-1.72999e-06
-1.43428e-07
-0.000180556
-0.00776311
-0.0116851
-2.04988
-234.155
-700.243
-699.765
-184.381
-2.81099e-10
-5.04295e-10
-1.65765e-09
-1.01062e-08
-2.74849e-08
-5.46586e-08
-2.31068e-07
-2.11499e-07
-1.85505e-07
-1.50627e-07
-1.49333e-07
-2.03613e-06
-1.20427e-05
-1.38249e-07
-2.66917
-86.4912
-269.447
-396.596
-294.322
-1.45376e-11
-4.57354e-11
-2.62447e-10
-1.89233e-09
-7.84027e-09
-2.0816e-08
-6.34494e-08
-1.30577e-07
-1.52713e-07
-1.54903e-07
-1.78508e-07
-2.07908e-07
-1.04021e-06
-1.43752e-07
-3.12797
-0.00105574
-0.00105551
-0.00105574
-1009.11
-5.27371e-13
-3.14822e-12
-3.17338e-11
-2.85369e-10
-1.61816e-09
-6.32653e-09
-2.18672e-08
-5.54665e-08
-1.02532e-07
-1.35538e-07
-1.89197e-07
-2.64924e-07
-5.78558e-07
-1.49194e-07
-3.24536
-0.075304
-0.00224744
-25.381
-1366.15
-3.36709e-11
-7.01783e-12
-4.83845e-12
-3.4622e-11
-2.81727e-10
-1.57851e-09
-6.77629e-09
-2.07862e-08
-4.90284e-08
-9.38123e-08
-1.89222e-07
-4.5024e-07
-3.75289e-07
-1.547e-07
-2.9449
-0.459466
-0.00468729
-18.2269
-1416.27
-4.89328e-09
-2.73417e-09
-3.67592e-10
-5.85406e-11
-5.7145e-11
-3.21527e-10
-1.86328e-09
-7.1939e-09
-2.16245e-08
-5.67804e-08
-2.08794e-07
-4.98755e-07
-3.70858e-07
-1.6014e-07
-2.60071
-0.720968
-0.00215592
-1.46271
-1466.38
-1.87658e-07
-1.26792e-07
-3.74149e-08
-5.72706e-09
-7.53956e-10
-2.72909e-10
-5.07645e-10
-2.43118e-09
-9.96967e-09
-3.67577e-08
-1.73547e-07
-5.15794e-07
-3.94765e-07
-1.65647e-07
-1.77824
-0.795308
-0.000964482
-4.14156e-23
-1369.47
-5.82113e-06
-2.3919e-06
-7.14038e-07
-1.9618e-07
-4.00432e-08
-7.22445e-09
-1.44864e-09
-1.3382e-09
-4.72587e-09
-2.49199e-08
-1.37022e-07
-4.92305e-07
-3.94194e-07
-1.71086e-07
-1.20133
-0.672649
-0.0043903
5.19472e-22
-1278.49
-0.00011373
-1.25854e-05
-4.25281e-06
-2.0718e-06
-6.4233e-07
-1.54388e-07
-3.53896e-08
-7.24479e-09
-5.0241e-09
-1.5003e-08
-1.05228e-07
-4.37794e-07
-3.67001e-07
-1.76595e-07
-0.825517
-0.576682
-0.0182911
2.94924e-18
-1409.18
-0.000200363
-6.61055e-05
-2.42735e-05
-1.81649e-05
-8.95745e-06
-2.20209e-06
-6.62073e-07
-1.82646e-07
-4.3579e-08
-2.43612e-08
-8.5111e-08
-3.70026e-07
-3.17836e-07
-1.82031e-07
-0.605913
-0.543495
-0.0658617
-1.74408
-1452.87
-0.00025699
-0.000259799
-9.49098e-05
-7.00504e-05
-7.42608e-05
-3.5719e-05
-5.08482e-09
-5.08621e-09
-5.08482e-09
-1.08087e-08
-5.38034e-08
-2.79602e-07
-2.6763e-07
-1.87543e-07
-0.383638
-0.459142
-0.0678295
-15.7098
-765.134
-0.000110474
-0.000267121
-7.87817e-05
-6.28132e-05
-0.000669994
-0.000698569
-0.000444179
-6.83261e-05
-5.67108e-06
-9.01724e-07
-2.1651e-07
-2.18398e-07
-3.02056e-07
-1.92977e-07
-0.159796
-0.477255
-0.0907676
-5.76867
-5.76868
-3.42894e-06
-0.000147091
-0.000101604
-6.41473e-05
-0.00094777
-0.00577315
-0.00150215
-0.000440413
-1.67301e-05
-1.76213e-06
-6.69674e-07
-2.88021e-07
-5.72092e-07
-2.36889e-07
-1.9845e-07
-0.490456
-0.170198
9.43698e-21
-30.802
-9.79327e-06
-9.79334e-06
-0.000820386
-0.000111963
-7.42669e-05
-0.0416316
-0.0466452
-4.47392e-07
-4.47406e-07
-4.47392e-07
-5.14878e-07
-3.5735e-07
-1.15895e-06
-4.24573e-07
-2.03965e-07
-0.232177
-0.0997468
4.45577e-21
-417.876
-1.36382e-05
-3.81045e-05
-0.00120101
-0.00205615
-0.000143825
-7.27225e-05
-0.713421
-0.698236
-0.0994293
-0.00217839
-4.60311e-06
-3.75314e-07
-1.43224e-06
-3.4144e-07
-0.00113361
-0.00185902
-0.00201391
-5.14913e-22
-537.265
-9.71585e-06
-5.15997e-05
-0.00052163
-0.0101614
-0.00466307
-7.46455e-05
-0.754744
-0.935882
-0.512352
-0.0143409
-1.29113e-05
-3.85107e-07
-1.96967e-06
-3.44892e-07
-0.000916524
-0.000164966
-0.000463818
-1.90559e-22
-551.296
-2.59557e-06
-1.05233e-05
-0.000124435
-0.0102903
-0.0281068
-0.011212
-0.229594
-0.959744
-0.852857
-0.076382
-0.000214836
-5.74594e-07
-2.96842e-06
-3.19835e-06
-5.94673e-05
-8.77539e-06
-0.000749712
3.64855e-22
-519.048
-5.41455e-07
-8.83342e-07
-3.66133e-05
-0.00293325
-0.028914
-0.0223216
-0.00402183
-0.867342
-0.983582
-0.24177
-0.00195846
-1.41182e-06
-3.22355e-06
-7.43825e-06
-4.58795e-06
-2.33863e-06
-2.33869e-06
-0.457803
-71.8729
-3.523e-07
-2.43584e-06
-2.35931e-05
-0.000779319
-0.0109091
-0.0162021
-0.00411896
-0.863909
-1.00739
-0.536287
-0.00235359
-1.7238e-06
-3.52086e-06
-8.03989e-06
-5.25105e-06
-1.74041e-06
-0.000350853
-0.0368314
-0.00107089
-3.23699e-07
-2.92347e-06
-7.56847e-06
2.81463e-23
-3.85504e-22
-0.000960854
-0.00421656
-0.162549
-1.03126
-0.545879
-0.00171008
-1.66619e-06
-3.16627e-06
-8.01402e-06
-5.50694e-06
-1.78159e-06
-0.000274183
-0.00189372
-0.00109461
-1.80681e-08
-4.04565e-09
1.30056e-24
3.1571e-24
1.51681e-24
6.87879e-23
-0.000300439
-2.5597e-05
-0.258042
-0.239806
-0.0173136
-1.70472e-06
-2.1039e-06
-6.1017e-06
-4.16932e-06
-1.82278e-06
-2.055e-06
-0.00855456
-0.00112161
1.34082e-25
2.39594e-25
3.49122e-25
3.25111e-25
-5.12701e-27
-3.33936e-26
4.03122e-25
-2.6176e-05
-0.000186484
-0.000967229
-0.00824575
-0.000688252
-4.26663e-06
-2.48433e-06
-1.86396e-06
-0.00572944
-0.0213035
-0.00713004
-0.33361
)
;

boundaryField
{
    leftWall
    {
        type            calculated;
        value           nonuniform List<scalar> 
50
(
-29.4294
-88.2881
-147.147
-206.006
-264.864
-323.723
-382.573
-425.7
-229.923
6.47473e-38
-2.03722e-16
-4.65394e-15
-5.8311e-14
-2.37231e-14
-2.72381e-14
-1.09786e-14
-4.35791e-15
-1.44733e-15
-4.28216e-16
-1.1093e-16
-2.38932e-17
-4.43193e-18
-6.79605e-19
-8.65222e-20
-8.98703e-21
-7.57531e-22
-5.13381e-23
-2.78412e-24
-1.21755e-25
-4.41482e-27
-1.36649e-28
-3.77252e-30
-9.60405e-32
-2.33309e-33
-5.52884e-35
-1.27401e-36
-8.43221e-38
-4.52168e-36
-5.22586e-34
-6.21145e-32
-2.44e-30
-8.44538e-29
-6.07748e-28
-5.26345e-27
-9.11883e-27
-4.55043e-26
-4.66046e-26
-6.63089e-26
-1.71017e-26
-2.3374e-27
)
;
    }
    rightWall
    {
        type            calculated;
        value           nonuniform List<scalar> 
50
(
-24.2474
-73.4066
-122.351
-171.292
-177.811
-176.286
-258.028
-297.796
-353.303
-417.486
-567.825
-711.079
-845.646
-988.301
-1134.87
-1265.47
-1377.85
-1479.59
-1346.72
-1387.72
-1998.59
-2126.57
-2252.85
-2373.64
-2317.2
-690.972
-17.5081
-68.3473
-184.381
-294.322
-1009.11
-1366.15
-1416.27
-1466.38
-1369.47
-1278.49
-1409.18
-1452.87
-765.134
-5.76868
-30.802
-417.876
-537.265
-551.296
-519.048
-71.8729
-0.00107089
-0.00109461
-0.00112161
-0.33361
)
;
    }
    lowerWall
    {
        type            calculated;
        value           nonuniform List<scalar> 
62
(
0
0
0
0
0
0
0
0
0
0
0
0
0
0
0
0
0
0
0
0
0
0
0
-29.4232
-88.2627
-147.104
-205.946
-264.834
-323.723
-382.582
-441.44
-470.87
-470.327
-393.592
-183.386
-23.4599
-67.0933
-67.4617
-83.6089
-144.29
-176.495
-168.224
-111.395
0
0
0
0
0
0
0
0
0
0
0
0
0
0
0
0
0
0
0
)
;
    }
    atmosphere
    {
        type            calculated;
        value           nonuniform List<scalar> 
46
(
-2.36322e-27
-1.63041e-24
-5.51214e-22
-1.17398e-19
-1.71974e-17
-1.79108e-15
-1.3373e-13
-7.12939e-12
-2.63373e-10
-6.53411e-09
-1.08722e-07
-1.25655e-06
-1.10069e-05
-3.18654e-05
-4.01443e-05
-3.46966e-05
-0
-0
-0
-0
-0
-0
-0
-0
-0
-0
-0
-0
-0
-0
-0
-0
-0
-0
-0
-0.000188544
-0.000977914
-0.00833685
-0.000695855
-4.31376e-06
-2.51177e-06
-1.88455e-06
-0.00579273
-0.0215388
-0.0072088
-0.337295
)
;
    }
    defaultFaces
    {
        type            empty;
    }
}


// ************************************************************************* //
