/*--------------------------------*- C++ -*----------------------------------*\
| =========                 |                                                 |
| \\      /  F ield         | OpenFOAM: The Open Source CFD Toolbox           |
|  \\    /   O peration     | Version:  2012                                  |
|   \\  /    A nd           | Website:  www.openfoam.com                      |
|    \\/     M anipulation  |                                                 |
\*---------------------------------------------------------------------------*/
FoamFile
{
    version     2.0;
    format      ascii;
    class       volVectorField;
    location    "0.65";
    object      U;
}
// * * * * * * * * * * * * * * * * * * * * * * * * * * * * * * * * * * * * * //

dimensions      [0 1 -1 0 0 0 0];


internalField   nonuniform List<vector> 
2268
(
(0.00121928 -0.00174429 0)
(0.00811207 -0.00207752 0)
(0.0135564 -0.00169812 0)
(0.0166326 -0.00111813 0)
(0.0160703 -0.000812044 0)
(0.0151394 -0.00125341 0)
(0.0170607 -0.00100868 0)
(0.0135054 -4.44087e-05 0)
(0.00694693 0.00059109 0)
(0.00177675 0.00117787 0)
(-0.00690379 0.0020271 0)
(-0.0147793 0.00273057 0)
(-0.0242604 0.00237307 0)
(-0.0289406 0.00160988 0)
(-0.033934 0.000943691 0)
(-0.035909 0.000122261 0)
(-0.039294 -0.000211702 0)
(-0.0388079 -0.00158854 0)
(-0.0370224 -0.00187531 0)
(-0.0321166 -0.00328248 0)
(-0.0232813 -0.00365539 0)
(-0.014258 -0.00611885 0)
(0.0068521 0.006114 0)
(0.00102905 -0.0026647 0)
(0.00797216 -0.00375065 0)
(0.0133784 -0.00232714 0)
(0.0169243 -6.44449e-05 0)
(0.0166629 0.00152149 0)
(0.015884 0.00079287 0)
(0.0174057 0.00178708 0)
(0.0138087 0.00482798 0)
(0.00718602 0.00495865 0)
(0.00290513 0.00536333 0)
(-0.00683205 0.00580653 0)
(-0.0147199 0.00545979 0)
(-0.0238116 0.00433829 0)
(-0.0291137 0.00293575 0)
(-0.0345409 0.00238115 0)
(-0.0366074 0.00236499 0)
(-0.0398395 0.0016314 0)
(-0.0388954 0.000444538 0)
(-0.0375965 -0.00122008 0)
(-0.0338886 -0.00330626 0)
(-0.0279396 -0.00471971 0)
(-0.0238933 -0.00821284 0)
(-0.0108765 -0.00961044 0)
(0.000689095 -0.00600207 0)
(0.00823587 -0.00791811 0)
(0.0136584 -0.00593787 0)
(0.0178678 -0.00268073 0)
(0.01812 -0.000338016 0)
(0.0175512 -0.00162096 0)
(0.0180395 -4.71479e-05 0)
(0.013762 0.00476969 0)
(0.00704142 0.00573691 0)
(0.00197357 0.00779411 0)
(-0.00777344 0.0103634 0)
(-0.015262 0.0107408 0)
(-0.0237721 0.00919332 0)
(-0.0290918 0.00665754 0)
(-0.0349487 0.00452193 0)
(-0.0372958 0.00259441 0)
(-0.0403711 0.000930516 0)
(-0.0387418 -0.00268339 0)
(-0.0366911 -0.00415771 0)
(-0.0322932 -0.00786071 0)
(-0.0259622 -0.00828156 0)
(-0.0198509 -0.014136 0)
(-0.00705692 -0.0102492 0)
(0.000540752 -0.00687694 0)
(0.00872952 -0.00987043 0)
(0.0137024 -0.00686698 0)
(0.0184155 -0.00215135 0)
(0.0193319 0.00169615 0)
(0.0194457 0.00086376 0)
(0.0191083 0.00360961 0)
(0.0148627 0.010051 0)
(0.00913301 0.0105512 0)
(0.00353157 0.0123643 0)
(-0.00611812 0.0139626 0)
(-0.0145788 0.0130093 0)
(-0.0241557 0.0108926 0)
(-0.0309237 0.00818813 0)
(-0.0373751 0.00628539 0)
(-0.039279 0.00486688 0)
(-0.0420229 0.00235654 0)
(-0.0398806 -0.00140419 0)
(-0.0389774 -0.00420801 0)
(-0.0339921 -0.00856314 0)
(-0.0284414 -0.0105484 0)
(-0.0207102 -0.017396 0)
(-0.0105858 -0.0223947 0)
(0.00153937 -0.0103915 0)
(0.00938937 -0.0141496 0)
(0.0144249 -0.0105354 0)
(0.0196345 -0.00536774 0)
(0.0215339 -0.000865272 0)
(0.0224279 -0.00155712 0)
(0.0204215 0.00207119 0)
(0.0153484 0.00944502 0)
(0.009365 0.0110686 0)
(0.00200858 0.014989 0)
(-0.00780759 0.0189296 0)
(-0.0157811 0.019253 0)
(-0.0250038 0.0169377 0)
(-0.0313199 0.0128858 0)
(-0.0375085 0.00851103 0)
(-0.0400742 0.00477163 0)
(-0.0434766 0.00128521 0)
(-0.0410882 -0.00412467 0)
(-0.0401038 -0.00684217 0)
(-0.0354082 -0.0127775 0)
(-0.0315032 -0.0144244 0)
(-0.0233125 -0.0223791 0)
(-0.00572489 -0.0248736 0)
(0.00370514 -0.0120332 0)
(0.00991886 -0.015943 0)
(0.0145702 -0.0116867 0)
(0.0199731 -0.00547256 0)
(0.0229018 0.000423536 0)
(0.0250815 0.00145104 0)
(0.0222585 0.00701634 0)
(0.0181156 0.01533 0)
(0.0135258 0.0168946 0)
(0.00569112 0.0204835 0)
(-0.0052614 0.0223758 0)
(-0.0148869 0.0211202 0)
(-0.0263074 0.0182498 0)
(-0.034914 0.0140641 0)
(-0.0412208 0.0104481 0)
(-0.043041 0.00761174 0)
(-0.0463542 0.00287631 0)
(-0.0430555 -0.00315189 0)
(-0.0428156 -0.00682215 0)
(-0.0364051 -0.0129298 0)
(-0.0344117 -0.0161897 0)
(-0.0234362 -0.0300616 0)
(-0.00597546 -0.0362792 0)
(0.0055101 -0.0168404 0)
(0.0112669 -0.0193009 0)
(0.0160632 -0.0153167 0)
(0.0216662 -0.00934768 0)
(0.0264763 -0.00334534 0)
(0.029235 -0.00132347 0)
(0.0247947 0.00528102 0)
(0.0200767 0.0135013 0)
(0.0136468 0.0168965 0)
(0.00314412 0.0238519 0)
(-0.00787075 0.0286709 0)
(-0.0169115 0.0291988 0)
(-0.0273363 0.0264303 0)
(-0.0352055 0.0199181 0)
(-0.0410746 0.0123909 0)
(-0.0441113 0.00718977 0)
(-0.0492847 0.00136731 0)
(-0.0460747 -0.00576653 0)
(-0.0458635 -0.00988093 0)
(-0.0396243 -0.0166015 0)
(-0.0423729 -0.0203929 0)
(-0.0316089 -0.0354005 0)
(-0.00179452 -0.0384746 0)
(0.00686706 -0.0199553 0)
(0.0127642 -0.020911 0)
(0.0180513 -0.016572 0)
(0.0236387 -0.0103394 0)
(0.0299754 -0.00308033 0)
(0.0331071 0.00234096 0)
(0.028962 0.011443 0)
(0.0263545 0.0206927 0)
(0.0195638 0.0249598 0)
(0.008528 0.0306577 0)
(-0.00282048 0.0318438 0)
(-0.0155871 0.0302853 0)
(-0.0299543 0.0268962 0)
(-0.0404983 0.0205202 0)
(-0.0456248 0.0146856 0)
(-0.0474214 0.0114012 0)
(-0.0527257 0.00385225 0)
(-0.0485212 -0.00497254 0)
(-0.0480803 -0.00976711 0)
(-0.0400039 -0.0150263 0)
(-0.0445628 -0.0198046 0)
(-0.029714 -0.0501209 0)
(-0.00313837 -0.0523284 0)
(-1.10095 0.386743 0)
(-1.46894 0.0330772 0)
(-1.67472 -0.00971259 0)
(-1.6702 -0.041623 0)
(-1.65682 -0.0493007 0)
(-1.54803 -0.0666335 0)
(-1.34615 -0.0433415 0)
(-1.20769 0.0743697 0)
(-1.21491 0.125255 0)
(-1.46233 0.0821936 0)
(-1.6101 0.0303222 0)
(-1.70901 0.0103497 0)
(-1.77709 0.00564992 0)
(-1.80737 -0.00484308 0)
(-1.8158 -0.0124017 0)
(-1.76839 -0.0270488 0)
(-1.64715 -0.0591136 0)
(-1.28631 -0.113206 0)
(-0.688162 -0.241095 0)
(-0.914319 0.701951 0)
(-0.989461 0.212245 0)
(-1.17478 0.0923809 0)
(-1.08523 0.0344865 0)
(-1.08937 -0.00355393 0)
(-0.998578 -0.0637826 0)
(-0.85813 -0.0989746 0)
(-0.812593 -0.1296 0)
(-1.01531 -0.0189187 0)
(-1.22694 0.0855969 0)
(-1.36695 0.0736092 0)
(-1.43933 0.061434 0)
(-1.49322 0.0360266 0)
(-1.52234 0.0213983 0)
(-1.52988 -0.00410726 0)
(-1.47306 -0.0454271 0)
(-1.34066 -0.145835 0)
(-0.926834 -0.294462 0)
(-0.545172 -0.603032 0)
(-0.836391 1.18726 0)
(-0.338103 0.153908 0)
(-0.954914 0.0287295 0)
(-0.800485 -0.0773824 0)
(-0.750813 -0.0869549 0)
(-0.491127 -0.163277 0)
(-0.193732 -0.131309 0)
(0.193868 0.139842 0)
(-0.257134 0.318299 0)
(-0.417041 0.239146 0)
(-0.739399 0.121578 0)
(-1.04602 0.061025 0)
(-1.35377 0.0402958 0)
(-1.49795 0.00920958 0)
(-1.5452 -0.0346015 0)
(-1.39747 -0.108509 0)
(-1.28138 -0.292009 0)
(-0.813585 -0.449064 0)
(-0.312697 -0.864982 0)
(-0.828939 1.19508 0)
(0.885121 0.292497 0)
(-1.18049 0.250109 0)
(-1.0336 -0.0393773 0)
(-0.945307 -0.138963 0)
(-0.388466 -0.298488 0)
(-0.0290702 -0.385446 0)
(0.326462 -0.0996495 0)
(0.719221 0.202802 0)
(1.09732 0.285895 0)
(1.07805 0.336389 0)
(0.894268 0.337275 0)
(0.534749 0.285986 0)
(0.127287 0.181734 0)
(-0.325889 0.0264521 0)
(-1.20497 -0.202211 0)
(-1.30032 -0.425093 0)
(-0.772838 -0.709014 0)
(-0.17776 -1.08584 0)
(-0.834313 1.14965 0)
(0.917421 0.44658 0)
(-1.50939 0.554988 0)
(0.245193 0.0987055 0)
(-0.838653 -0.470199 0)
(0.133691 -0.554427 0)
(0.234157 -0.440282 0)
(0.453294 -0.181267 0)
(0.744037 0.0120987 0)
(1.09659 0.0967241 0)
(1.2494 0.207852 0)
(1.37004 0.258011 0)
(1.47475 0.265969 0)
(1.58256 0.255626 0)
(1.47362 0.312027 0)
(1.41788 0.424302 0)
(-0.366878 -0.32774 0)
(-0.705321 -0.95712 0)
(-0.0740651 -1.27287 0)
(-0.823348 1.14158 0)
(0.865037 0.704374 0)
(-2.04169 0.20973 0)
(1.27329 0.0905655 0)
(-0.156683 -0.238939 0)
(0.395447 -0.715417 0)
(0.39386 -0.520789 0)
(0.599657 -0.314851 0)
(0.859836 -0.0797668 0)
(1.10463 0.0676461 0)
(1.21605 0.217877 0)
(1.31363 0.250797 0)
(1.40339 0.252108 0)
(1.50214 0.258884 0)
(1.51505 0.275866 0)
(1.52263 0.434541 0)
(1.6814 0.379975 0)
(-0.552436 -0.791715 0)
(-0.00380023 -1.42569 0)
(-0.782489 1.1209 0)
(0.823837 1.09994 0)
(-1.49375 0.0190826 0)
(0.605309 -0.343381 0)
(0.550095 -0.412606 0)
(0.520202 -0.682563 0)
(0.506279 -0.532482 0)
(0.656286 -0.380439 0)
(0.844038 -0.197285 0)
(1.05837 -0.0527271 0)
(1.17139 0.120227 0)
(1.25724 0.177451 0)
(1.33846 0.1856 0)
(1.43279 0.205738 0)
(1.47863 0.25809 0)
(1.45975 0.395891 0)
(1.56932 0.682791 0)
(-0.316705 -0.247368 0)
(0.0291287 -1.51735 0)
(-0.691112 1.11146 0)
(0.770377 1.1399 0)
(0.259482 -0.0357806 0)
(0.672004 -0.330722 0)
(0.641786 -0.428984 0)
(0.542703 -0.6437 0)
(0.543402 -0.576782 0)
(0.688249 -0.458184 0)
(0.844864 -0.255096 0)
(1.02006 -0.0731174 0)
(1.1253 0.13114 0)
(1.21033 0.179419 0)
(1.30332 0.176759 0)
(1.41353 0.199101 0)
(1.45963 0.263916 0)
(1.42642 0.421345 0)
(1.43417 0.915355 0)
(-0.150055 -0.0945542 0)
(0.0536669 -1.55913 0)
(0.00864808 -0.0296974 0)
(0.0151355 -0.0267798 0)
(0.0225052 -0.0227941 0)
(0.0292177 -0.0177767 0)
(0.0363683 -0.0107148 0)
(0.0396627 -0.00286395 0)
(0.0385944 0.00655613 0)
(0.0380686 0.0161859 0)
(0.0288959 0.0254022 0)
(0.0148443 0.0365314 0)
(-0.000269036 0.0447576 0)
(-0.0178515 0.0486828 0)
(-0.0305508 0.0446444 0)
(-0.0395614 0.031135 0)
(-0.0437635 0.0162594 0)
(-0.0477365 0.0100682 0)
(-0.0573881 0.000895445 0)
(-0.0542404 -0.00954716 0)
(-0.0480425 -0.016094 0)
(-0.0394291 -0.0197254 0)
(-0.0468161 -0.028105 0)
(-0.0356045 -0.0564717 0)
(-0.0968752 -0.0544284 0)
(-0.0295919 -0.0390008 0)
(-0.101369 -0.0312869 0)
(-0.147022 -0.0271631 0)
(-0.23868 -0.0200077 0)
(-0.23022 -0.0105973 0)
(-0.136546 0.00197571 0)
(-0.0729192 0.0148334 0)
(-0.0344927 0.0320707 0)
(-0.0146055 0.0480808 0)
(-0.00980062 0.0577355 0)
(-0.0133104 0.0599551 0)
(-0.0199216 0.0539721 0)
(-0.0219769 0.0423198 0)
(-0.0261223 0.0299167 0)
(-0.0386889 0.0224126 0)
(-0.0523764 0.0254018 0)
(-0.068834 0.0116312 0)
(-0.0641288 -0.0131253 0)
(-0.0594694 -0.0219643 0)
(-0.0523685 -0.0155177 0)
(-0.0636068 -0.0195439 0)
(-0.0560578 -6.30598e-05 0)
(-0.130363 0.0254433 0)
(-0.0108377 0.0986607 0)
(-0.0214804 0.0872575 0)
(-0.0416334 0.112349 0)
(-0.0519912 0.0607302 0)
(-0.0678872 -0.111862 0)
(-0.0886629 -0.16051 0)
(-0.119341 -0.0953257 0)
(-0.159832 -0.0419322 0)
(-0.161801 0.00127591 0)
(-0.130762 0.0358642 0)
(-0.150176 0.0551804 0)
(-0.150144 0.0574785 0)
(-0.138917 0.0509399 0)
(-0.124902 0.0479457 0)
(-0.101078 0.0426929 0)
(-0.0737084 0.0403827 0)
(-0.0475386 0.0127946 0)
(-0.0203828 -0.0188913 0)
(-0.0290054 -0.0279154 0)
(-0.0255799 -0.0153194 0)
(-0.0342982 -0.0245531 0)
(-0.0188063 0.0113384 0)
(-0.0286669 0.0398834 0)
(0.00185746 -0.00240031 0)
(0.0124229 0.00408515 0)
(0.0107841 0.007137 0)
(0.0533678 0.0109114 0)
(0.0226251 0.0267797 0)
(-0.0662205 0.0518821 0)
(-0.133909 0.0839893 0)
(-0.179939 0.0738042 0)
(-0.226048 0.0187079 0)
(-0.261251 0.0435046 0)
(-0.281653 0.0781676 0)
(-0.337024 0.0414313 0)
(-0.369121 0.0165963 0)
(-0.334129 -0.008233 0)
(-0.282101 -0.0290535 0)
(-0.237578 -0.0285576 0)
(-0.255408 -0.0418454 0)
(-0.178271 -0.0319993 0)
(-0.0939239 -0.0165369 0)
(-0.0304587 -0.0109579 0)
(0.0104208 -0.0256979 0)
(0.045034 -0.00762618 0)
(0.0357698 0.000818254 0)
(-0.0145175 0.0811723 0)
(-0.0313376 0.0749942 0)
(-0.0564119 0.068638 0)
(-0.075774 0.0464868 0)
(-0.102053 0.00696513 0)
(-0.116816 -0.000171207 0)
(-0.134639 0.019804 0)
(-0.130674 0.0526899 0)
(-0.167363 0.0844031 0)
(-0.210485 0.0955581 0)
(-0.232365 0.135488 0)
(-0.265117 0.149412 0)
(-0.379426 0.0502422 0)
(-0.423734 -0.0378419 0)
(-0.534497 -0.0521182 0)
(-0.630484 0.0146497 0)
(-0.740168 -0.0457206 0)
(-0.70195 -0.179207 0)
(-0.698461 -0.17426 0)
(-0.541296 -0.119111 0)
(-0.344974 -0.099957 0)
(-0.166081 -0.0141263 0)
(-0.0754668 0.0451265 0)
(-0.00573069 0.046376 0)
(-0.00649823 0.0489515 0)
(-0.022022 0.0537609 0)
(-0.0256564 0.0586482 0)
(-0.0574329 0.0686059 0)
(-0.0931639 0.0839071 0)
(-0.134564 0.0968055 0)
(-0.159369 0.104968 0)
(-0.181599 0.0978055 0)
(-0.188661 0.104143 0)
(-0.212582 0.128908 0)
(-0.188902 0.183578 0)
(-0.227686 0.172172 0)
(-0.273978 0.142949 0)
(-0.396219 0.173041 0)
(-0.509674 0.173614 0)
(-0.617766 0.0277933 0)
(-0.769799 -0.0811855 0)
(-1.06501 -0.186232 0)
(-1.24637 -0.368439 0)
(-1.39267 -0.40025 0)
(-1.44506 -0.273154 0)
(-1.48847 -0.209891 0)
(-0.011511 0.0914639 0)
(-0.0263645 0.0895101 0)
(-0.049074 0.0863318 0)
(-0.0632547 0.0812361 0)
(-0.0864062 0.0741176 0)
(-0.0986418 0.0785072 0)
(-0.118477 0.0869799 0)
(-0.127512 0.10196 0)
(-0.151991 0.115727 0)
(-0.174674 0.130133 0)
(-0.210818 0.140096 0)
(-0.221124 0.169197 0)
(-0.232416 0.1419 0)
(-0.262502 0.136022 0)
(-0.316209 0.192922 0)
(-0.35916 0.242804 0)
(-0.450226 0.223509 0)
(-0.652923 0.276692 0)
(-0.977113 0.319246 0)
(-1.45283 0.215698 0)
(-2.04974 0.101682 0)
(-2.56707 0.0714253 0)
(-2.90964 -0.195642 0)
(-0.00791809 0.08619 0)
(-0.0129256 0.0884114 0)
(-0.0307814 0.0921071 0)
(-0.0385818 0.0971793 0)
(-0.0623659 0.104591 0)
(-0.0786296 0.115817 0)
(-0.103902 0.125243 0)
(-0.118987 0.137192 0)
(-0.141802 0.143801 0)
(-0.153393 0.160264 0)
(-0.181388 0.172704 0)
(-0.194497 0.200996 0)
(-0.217464 0.209564 0)
(-0.268663 0.221909 0)
(-0.318611 0.26465 0)
(-0.347194 0.301887 0)
(-0.405761 0.317101 0)
(-0.49188 0.437895 0)
(-0.60267 0.608311 0)
(-0.795237 0.695146 0)
(-1.1833 0.715929 0)
(-1.60376 0.575817 0)
(-1.9129 0.0546058 0)
(-0.0100286 0.111169 0)
(-0.019334 0.111385 0)
(-0.0388476 0.111149 0)
(-0.0480147 0.112511 0)
(-0.0676002 0.114036 0)
(-0.0763909 0.12076 0)
(-0.0947653 0.128126 0)
(-0.103314 0.141355 0)
(-0.124511 0.152031 0)
(-0.137491 0.17211 0)
(-0.163729 0.184451 0)
(-0.182143 0.20854 0)
(-0.206551 0.220977 0)
(-0.238619 0.241359 0)
(-0.282868 0.27797 0)
(-0.311596 0.334991 0)
(-0.377342 0.376876 0)
(-0.448355 0.481321 0)
(-0.492199 0.635476 0)
(-0.523705 0.80738 0)
(-0.667498 0.922967 0)
(-0.839731 0.817184 0)
(-1.16859 0.123636 0)
(-0.00801569 0.116851 0)
(-0.0123145 0.118472 0)
(-0.0290032 0.121828 0)
(-0.0353328 0.126724 0)
(-0.0538238 0.133502 0)
(-0.0626679 0.143015 0)
(-0.081884 0.152042 0)
(-0.0904579 0.166122 0)
(-0.110059 0.177152 0)
(-0.118302 0.197735 0)
(-0.139045 0.215769 0)
(-0.151946 0.241165 0)
(-0.176226 0.263653 0)
(-0.199713 0.294702 0)
(-0.238479 0.334495 0)
(-0.260861 0.391747 0)
(-0.303906 0.450511 0)
(-0.344046 0.546566 0)
(-0.384416 0.678558 0)
(-0.376276 0.864595 0)
(-0.426785 1.02709 0)
(-0.493889 1.06248 0)
(-0.824722 0.513895 0)
(-0.0077878 0.130832 0)
(-0.0139825 0.131787 0)
(-0.0294536 0.133681 0)
(-0.0355359 0.137104 0)
(-0.0508415 0.141322 0)
(-0.0564552 0.149129 0)
(-0.0717157 0.156523 0)
(-0.0769319 0.170402 0)
(-0.0934274 0.181314 0)
(-0.0998141 0.202549 0)
(-0.116294 0.22044 0)
(-0.124281 0.247736 0)
(-0.142935 0.272183 0)
(-0.156961 0.306292 0)
(-0.18278 0.343716 0)
(-0.198722 0.403803 0)
(-0.224507 0.46593 0)
(-0.24279 0.565947 0)
(-0.261898 0.675702 0)
(-0.243808 0.8526 0)
(-0.21705 1.05067 0)
(-0.206431 1.21991 0)
(-0.381129 0.859881 0)
(-0.00663057 0.139535 0)
(-0.00997594 0.141 0)
(-0.0234089 0.14417 0)
(-0.0271876 0.148715 0)
(-0.0410256 0.154914 0)
(-0.0451014 0.164017 0)
(-0.0592965 0.172577 0)
(-0.0625697 0.187369 0)
(-0.0768358 0.199587 0)
(-0.0796605 0.219494 0)
(-0.0926037 0.239269 0)
(-0.094529 0.266076 0)
(-0.107102 0.29489 0)
(-0.110052 0.332117 0)
(-0.125831 0.374344 0)
(-0.128976 0.430181 0)
(-0.140184 0.49227 0)
(-0.137255 0.57943 0)
(-0.132094 0.676263 0)
(-0.102988 0.813713 0)
(-0.0353796 0.985344 0)
(0.0728681 1.21811 0)
(0.138331 1.27487 0)
(-0.00576156 0.147007 0)
(-0.00913181 0.14817 0)
(-0.0204189 0.150576 0)
(-0.023498 0.154495 0)
(-0.0346263 0.159212 0)
(-0.0368944 0.167483 0)
(-0.0480689 0.174424 0)
(-0.0491923 0.188394 0)
(-0.0601448 0.199409 0)
(-0.0604592 0.219145 0)
(-0.0702401 0.236916 0)
(-0.06885 0.263427 0)
(-0.0766863 0.289979 0)
(-0.0722958 0.326653 0)
(-0.0773965 0.365622 0)
(-0.0671973 0.420246 0)
(-0.0654976 0.477873 0)
(-0.0436915 0.560423 0)
(-0.0232515 0.645815 0)
(0.025582 0.758569 0)
(0.0961122 0.879253 0)
(0.228221 1.04939 0)
(0.425485 1.19895 0)
(-0.00490776 0.155125 0)
(-0.006519 0.156309 0)
(-0.0161694 0.159164 0)
(-0.0176708 0.163402 0)
(-0.0272061 0.168753 0)
(-0.027796 0.177621 0)
(-0.0371275 0.185025 0)
(-0.0359376 0.199193 0)
(-0.0444862 0.210645 0)
(-0.0411362 0.22889 0)
(-0.0476446 0.247066 0)
(-0.0412639 0.271348 0)
(-0.0447723 0.297345 0)
(-0.0337976 0.331097 0)
(-0.0323874 0.36786 0)
(-0.0136991 0.415921 0)
(-0.00124633 0.46694 0)
(0.0322587 0.534011 0)
(0.0703408 0.604375 0)
(0.133745 0.690464 0)
(0.2213 0.778159 0)
(0.346059 0.883646 0)
(0.548283 0.971586 0)
(-0.00394561 0.158107 0)
(-0.00509274 0.159111 0)
(-0.0127343 0.161491 0)
(-0.0136126 0.165306 0)
(-0.0209464 0.169299 0)
(-0.0205431 0.177369 0)
(-0.0274279 0.182835 0)
(-0.0248321 0.195956 0)
(-0.0304391 0.205249 0)
(-0.0245476 0.22275 0)
(-0.0281525 0.238074 0)
(-0.0176371 0.261244 0)
(-0.0175046 0.28394 0)
(-0.000706155 0.315229 0)
(0.00609503 0.347304 0)
(0.0323539 0.390305 0)
(0.0516062 0.433955 0)
(0.0928981 0.490227 0)
(0.134363 0.546567 0)
(0.201864 0.608875 0)
(0.28092 0.669468 0)
(0.391 0.722505 0)
(0.537757 0.757544 0)
(-0.00311432 0.16473 0)
(-0.00319328 0.165627 0)
(-0.00911646 0.168207 0)
(-0.00883116 0.172019 0)
(-0.0143688 0.176081 0)
(-0.012666 0.184281 0)
(-0.0174435 0.189503 0)
(-0.0132413 0.202091 0)
(-0.0164167 0.210288 0)
(-0.00831384 0.226173 0)
(-0.0088704 0.239799 0)
(0.00461255 0.259926 0)
(0.00849968 0.279748 0)
(0.0291135 0.306321 0)
(0.0407341 0.333812 0)
(0.0709574 0.368775 0)
(0.0965442 0.405041 0)
(0.140827 0.44904 0)
(0.189314 0.493424 0)
(0.255308 0.541108 0)
(0.33364 0.58588 0)
(0.427967 0.623629 0)
(0.539836 0.647449 0)
(-0.00226045 0.164125 0)
(-0.00203236 0.164818 0)
(-0.00620585 0.166908 0)
(-0.00551532 0.17032 0)
(-0.00917085 0.173047 0)
(-0.00697563 0.180326 0)
(-0.00932358 0.183515 0)
(-0.00447227 0.194965 0)
(-0.00465459 0.200641 0)
(0.00445436 0.215388 0)
(0.00737559 0.225681 0)
(0.0229112 0.244198 0)
(0.0307561 0.260168 0)
(0.0544726 0.283468 0)
(0.0702823 0.306322 0)
(0.104264 0.335105 0)
(0.133054 0.36498 0)
(0.180003 0.398199 0)
(0.227915 0.43296 0)
(0.292093 0.465298 0)
(0.362904 0.497712 0)
(0.446843 0.51682 0)
(0.540484 0.53471 0)
(-0.00169561 0.169521 0)
(-0.000790325 0.170041 0)
(-0.00375202 0.17216 0)
(-0.00228628 0.175363 0)
(-0.00440672 0.177921 0)
(-0.00142783 0.184657 0)
(-0.00170509 0.187232 0)
(0.00368781 0.197443 0)
(0.0061632 0.201415 0)
(0.0156236 0.213951 0)
(0.0219067 0.221182 0)
(0.0376432 0.236119 0)
(0.0495568 0.247776 0)
(0.0738792 0.266101 0)
(0.0940281 0.283335 0)
(0.128895 0.304989 0)
(0.161725 0.328322 0)
(0.208962 0.352736 0)
(0.2586 0.379992 0)
(0.319587 0.404219 0)
(0.386723 0.42933 0)
(0.459228 0.443863 0)
(0.539471 0.46211 0)
(-0.00113566 0.166308 0)
(-0.000475348 0.166561 0)
(-0.00236408 0.168144 0)
(-0.000892466 0.170691 0)
(-0.00169339 0.172009 0)
(0.00143899 0.177405 0)
(0.00313482 0.178324 0)
(0.00856041 0.186962 0)
(0.0138889 0.18873 0)
(0.0233197 0.199592 0)
(0.0333051 0.20377 0)
(0.0489737 0.216586 0)
(0.0650821 0.224099 0)
(0.0893946 0.239126 0)
(0.113491 0.251488 0)
(0.148721 0.267619 0)
(0.184006 0.285067 0)
(0.231456 0.301613 0)
(0.280626 0.322423 0)
(0.340829 0.337524 0)
(0.404178 0.358032 0)
(0.474347 0.364493 0)
(0.547526 0.386039 0)
(-0.000962414 0.171619 0)
(-0.00094676 0.171736 0)
(-0.00275951 0.173049 0)
(-0.00142662 0.175102 0)
(-0.00189022 0.176006 0)
(0.00125858 0.180143 0)
(0.00391906 0.180433 0)
(0.00958445 0.186879 0)
(0.0170348 0.186847 0)
(0.026679 0.194585 0)
(0.0397064 0.195541 0)
(0.0551848 0.204223 0)
(0.0753629 0.207146 0)
(0.0990234 0.21738 0)
(0.127499 0.223551 0)
(0.162341 0.233921 0)
(0.20072 0.244883 0)
(0.247573 0.255258 0)
(0.297791 0.269695 0)
(0.355599 0.279503 0)
(0.417072 0.29474 0)
(0.482208 0.299227 0)
(0.549621 0.318159 0)
(-0.000820754 0.167887 0)
(-0.00203083 0.168017 0)
(-0.00386409 0.168312 0)
(-0.00321964 0.169474 0)
(-0.00358239 0.169032 0)
(-0.000924723 0.171249 0)
(0.00207801 0.169725 0)
(0.00761032 0.173517 0)
(0.0157826 0.171377 0)
(0.0254145 0.176623 0)
(0.0399155 0.175032 0)
(0.0554614 0.180702 0)
(0.0777657 0.18003 0)
(0.101438 0.186845 0)
(0.132823 0.187904 0)
(0.16775 0.194326 0)
(0.208501 0.19951 0)
(0.256378 0.204519 0)
(0.307732 0.213992 0)
(0.366733 0.218248 0)
(0.428328 0.230858 0)
(0.495132 0.232029 0)
(0.562159 0.25225 0)
(-0.00164979 0.174978 0)
(-0.00476765 0.175278 0)
(-0.00823655 0.174742 0)
(-0.00927853 0.175289 0)
(-0.0110519 0.174205 0)
(-0.0094936 0.174911 0)
(-0.00732866 0.172353 0)
(-0.00234934 0.173544 0)
(0.00561492 0.169418 0)
(0.0155311 0.170725 0)
(0.0309016 0.165705 0)
(0.0477753 0.166485 0)
(0.0717572 0.161164 0)
(0.0969623 0.162256 0)
(0.13115 0.156974 0)
(0.167098 0.157988 0)
(0.211149 0.155733 0)
(0.26 0.155556 0)
(0.313755 0.158629 0)
(0.373629 0.158233 0)
(0.437041 0.165534 0)
(0.504168 0.164669 0)
(0.571609 0.18124 0)
(-0.00242356 0.173975 0)
(-0.00697078 0.174262 0)
(-0.0117358 0.172489 0)
(-0.014539 0.171909 0)
(-0.0177678 0.16888 0)
(-0.0180067 0.167087 0)
(-0.0176113 0.162159 0)
(-0.0143159 0.160075 0)
(-0.00822127 0.153018 0)
(0.000160688 0.15081 0)
(0.013609 0.142289 0)
(0.0293374 0.139357 0)
(0.0520495 0.130334 0)
(0.0771076 0.127034 0)
(0.111368 0.117206 0)
(0.147824 0.113999 0)
(0.194073 0.105952 0)
(0.244653 0.101653 0)
(0.301862 0.0996126 0)
(0.366109 0.0947252 0)
(0.434293 0.0994501 0)
(0.506953 0.0972867 0)
(0.579829 0.114265 0)
(-0.00417793 0.184919 0)
(-0.0111665 0.185133 0)
(-0.0190543 0.182866 0)
(-0.024674 0.181859 0)
(-0.0308013 0.178246 0)
(-0.0338374 0.175293 0)
(-0.0364448 0.169243 0)
(-0.0355229 0.164679 0)
(-0.032139 0.155478 0)
(-0.0253019 0.149363 0)
(-0.0135151 0.136935 0)
(0.00167172 0.128368 0)
(0.0237912 0.113584 0)
(0.0496917 0.10306 0)
(0.0846495 0.0861746 0)
(0.122806 0.0752164 0)
(0.171727 0.0585069 0)
(0.224107 0.0475175 0)
(0.285535 0.0365109 0)
(0.353642 0.025356 0)
(0.427254 0.0238501 0)
(0.505324 0.0185996 0)
(0.586101 0.0307248 0)
(-0.00539826 0.189018 0)
(-0.0143773 0.188824 0)
(-0.0245835 0.185678 0)
(-0.0327256 0.183295 0)
(-0.0412486 0.177673 0)
(-0.0470638 0.172288 0)
(-0.0524688 0.163382 0)
(-0.0546295 0.155229 0)
(-0.0548142 0.142231 0)
(-0.0515601 0.131566 0)
(-0.0439828 0.114659 0)
(-0.0328543 0.101409 0)
(-0.0152164 0.0816031 0)
(0.00660717 0.0655647 0)
(0.0373424 0.0433153 0)
(0.0728853 0.0263644 0)
(0.120132 0.00376768 0)
(0.172279 -0.0126188 0)
(0.23663 -0.0309372 0)
(0.308369 -0.0474201 0)
(0.387506 -0.0533444 0)
(0.473149 -0.0619028 0)
(0.565146 -0.0521595 0)
(-0.0070507 0.205307 0)
(-0.0189595 0.204929 0)
(-0.0325353 0.201837 0)
(-0.0439362 0.199137 0)
(-0.0560376 0.193223 0)
(-0.0655058 0.187138 0)
(-0.0748399 0.177472 0)
(-0.0808318 0.167661 0)
(-0.0852157 0.15306 0)
(-0.0856903 0.13915 0)
(-0.082057 0.11879 0)
(-0.0738986 0.100119 0)
(-0.0586837 0.0744809 0)
(-0.0383026 0.0508158 0)
(-0.00896075 0.0199664 0)
(0.0256489 -0.00748949 0)
(0.0719499 -0.0411878 0)
(0.123909 -0.0691468 0)
(0.189959 -0.100285 0)
(0.262854 -0.125934 0)
(0.346494 -0.14192 0)
(0.439437 -0.159649 0)
(0.54292 -0.158801 0)
(-0.00827559 0.214742 0)
(-0.0227791 0.214017 0)
(-0.0389268 0.210357 0)
(-0.0530697 0.206476 0)
(-0.0679433 0.198906 0)
(-0.0804293 0.190707 0)
(-0.0928853 0.178289 0)
(-0.102275 0.165128 0)
(-0.110435 0.146551 0)
(-0.114911 0.127821 0)
(-0.116273 0.102196 0)
(-0.113479 0.0773801 0)
(-0.104915 0.0452303 0)
(-0.091179 0.0151871 0)
(-0.0685109 -0.021497 0)
(-0.0399325 -0.0551937 0)
(0.00156288 -0.0954568 0)
(0.0502371 -0.131219 0)
(0.114985 -0.170998 0)
(0.187892 -0.204496 0)
(0.275551 -0.23121 0)
(0.374943 -0.258875 0)
(0.48812 -0.264282 0)
(-0.00972561 0.237073 0)
(-0.0271607 0.236295 0)
(-0.0463796 0.232844 0)
(-0.0637251 0.228865 0)
(-0.0821659 0.2213 0)
(-0.0984436 0.212793 0)
(-0.115133 0.200042 0)
(-0.12892 0.185934 0)
(-0.141997 0.166419 0)
(-0.151363 0.145718 0)
(-0.158081 0.118034 0)
(-0.160165 0.0894369 0)
(-0.15682 0.0526941 0)
(-0.147727 0.0149104 0)
(-0.129231 -0.031066 0)
(-0.102921 -0.077297 0)
(-0.0639376 -0.131547 0)
(-0.0170088 -0.182641 0)
(0.0468169 -0.238634 0)
(0.120137 -0.28693 0)
(0.211912 -0.330067 0)
(0.316734 -0.373067 0)
(0.437781 -0.390958 0)
(-0.0109201 0.25132 0)
(-0.0309728 0.250369 0)
(-0.0527112 0.246614 0)
(-0.072772 0.241954 0)
(-0.0940129 0.233303 0)
(-0.113237 0.223343 0)
(-0.133172 0.208402 0)
(-0.150381 0.191604 0)
(-0.167568 0.168535 0)
(-0.1811 0.143426 0)
(-0.193068 0.110396 0)
(-0.200457 0.0755389 0)
(-0.2041 0.0320578 0)
(-0.202028 -0.0130293 0)
(-0.193021 -0.0671502 0)
(-0.176675 -0.121166 0)
(-0.148337 -0.182331 0)
(-0.10983 -0.24264 0)
(-0.0536058 -0.309234 0)
(0.0133984 -0.370245 0)
(0.102544 -0.429192 0)
(0.204893 -0.485444 0)
(0.330931 -0.513979 0)
(-0.0121379 0.279823 0)
(-0.0346972 0.278948 0)
(-0.0590957 0.275493 0)
(-0.0820287 0.271014 0)
(-0.106591 0.262597 0)
(-0.12956 0.252783 0)
(-0.153898 0.237998 0)
(-0.176063 0.221151 0)
(-0.198994 0.197936 0)
(-0.21871 0.172047 0)
(-0.237946 0.138168 0)
(-0.252648 0.10129 0)
(-0.264408 0.0549472 0)
(-0.269765 0.00454451 0)
(-0.269031 -0.0560048 0)
(-0.259232 -0.121467 0)
(-0.237754 -0.198411 0)
(-0.206033 -0.277229 0)
(-0.160342 -0.36249 0)
(-0.110012 -0.443459 0)
(-0.0392411 -0.522568 0)
(0.0529811 -0.602494 0)
(0.178306 -0.656511 0)
(-0.0131982 0.297761 0)
(-0.0381345 0.296948 0)
(-0.0648092 0.293568 0)
(-0.0903234 0.289095 0)
(-0.117584 0.280483 0)
(-0.143673 0.270326 0)
(-0.171505 0.254569 0)
(-0.197609 0.236385 0)
(-0.225295 0.210813 0)
(-0.250278 0.182021 0)
(-0.276112 0.143861 0)
(-0.297821 0.101551 0)
(-0.318936 0.04855 0)
(-0.334553 -0.00894693 0)
(-0.347629 -0.0783983 0)
(-0.35276 -0.153092 0)
(-0.355377 -0.236324 0)
(-0.351592 -0.320756 0)
(-0.346514 -0.405925 0)
(-0.329743 -0.491828 0)
(-0.266389 -0.593463 0)
(-0.164772 -0.70372 0)
(-0.0311885 -0.791457 0)
(-0.0142119 0.332231 0)
(-0.0412467 0.331637 0)
(-0.0701268 0.328739 0)
(-0.0981276 0.324838 0)
(-0.128306 0.31696 0)
(-0.157855 0.307711 0)
(-0.189949 0.292894 0)
(-0.221265 0.275908 0)
(-0.2554 0.251523 0)
(-0.288224 0.223818 0)
(-0.323391 0.186614 0)
(-0.356285 0.145087 0)
(-0.390398 0.0925559 0)
(-0.419982 0.0342112 0)
(-0.448584 -0.0371257 0)
(-0.472175 -0.112787 0)
(-0.497742 -0.199262 0)
(-0.528898 -0.285232 0)
(-0.560617 -0.38479 0)
(-0.531414 -0.523789 0)
(-0.440802 -0.688399 0)
(-0.315994 -0.838891 0)
(-0.173739 -0.958451 0)
(-0.0148886 0.352631 0)
(-0.0435338 0.352296 0)
(-0.0740431 0.349899 0)
(-0.104179 0.346771 0)
(-0.136947 0.339742 0)
(-0.169969 0.331568 0)
(-0.206193 0.317612 0)
(-0.242869 0.301547 0)
(-0.282964 0.277488 0)
(-0.323266 0.249796 0)
(-0.366783 0.211644 0)
(-0.410168 0.168332 0)
(-0.456116 0.111883 0)
(-0.502269 0.0489346 0)
(-0.553766 -0.026614 0)
(-0.612974 -0.104326 0)
(-0.688047 -0.17975 0)
(-0.758609 -0.258346 0)
(-0.754331 -0.403112 0)
(-0.66582 -0.611933 0)
(-0.556103 -0.810081 0)
(-0.437254 -0.971773 0)
(-0.310103 -1.10189 0)
(-0.0157365 0.392065 0)
(-0.0461271 0.392202 0)
(-0.0785238 0.390766 0)
(-0.11079 0.389107 0)
(-0.14588 0.384063 0)
(-0.181611 0.378249 0)
(-0.220982 0.367016 0)
(-0.261783 0.353876 0)
(-0.307153 0.333051 0)
(-0.35507 0.308768 0)
(-0.408648 0.27461 0)
(-0.465679 0.235567 0)
(-0.528646 0.185774 0)
(-0.597027 0.133144 0)
(-0.674136 0.0747359 0)
(-0.761325 0.0231653 0)
(-0.853975 -0.0526764 0)
(-0.900969 -0.217406 0)
(-0.835037 -0.478479 0)
(-0.742941 -0.723164 0)
(-0.655264 -0.918517 0)
(-0.563366 -1.08652 0)
(-0.455087 -1.22833 0)
(-0.0155031 0.413549 0)
(-0.045715 0.414159 0)
(-0.0780028 0.413672 0)
(-0.11093 0.413305 0)
(-0.147443 0.409808 0)
(-0.186197 0.406028 0)
(-0.230033 0.397242 0)
(-0.277571 0.387329 0)
(-0.331286 0.370498 0)
(-0.389599 0.351178 0)
(-0.454412 0.322214 0)
(-0.524971 0.288413 0)
(-0.602976 0.243329 0)
(-0.692042 0.194611 0)
(-0.797357 0.13791 0)
(-0.92035 0.0756951 0)
(-1.01211 -0.0398511 0)
(-0.984783 -0.278176 0)
(-0.899479 -0.562179 0)
(-0.848214 -0.792125 0)
(-0.774577 -0.990639 0)
(-0.696227 -1.17224 0)
(-0.593495 -1.33475 0)
(-0.0163138 0.455181 0)
(-0.0482044 0.456597 0)
(-0.0823229 0.457854 0)
(-0.117287 0.460411 0)
(-0.155677 0.461153 0)
(-0.196272 0.46263 0)
(-0.241666 0.460112 0)
(-0.290891 0.456771 0)
(-0.346158 0.446639 0)
(-0.4072 0.433324 0)
(-0.47619 0.411412 0)
(-0.5554 0.38546 0)
(-0.647535 0.354367 0)
(-0.756763 0.329077 0)
(-0.880928 0.304832 0)
(-1.00581 0.239917 0)
(-1.06274 0.0127634 0)
(-1.012 -0.330047 0)
(-0.969361 -0.615166 0)
(-0.92347 -0.849183 0)
(-0.856406 -1.07141 0)
(-0.778144 -1.26892 0)
(-0.684947 -1.44831 0)
(-0.0144528 0.476569 0)
(-0.04298 0.478687 0)
(-0.0735822 0.481305 0)
(-0.10584 0.485266 0)
(-0.142559 0.48746 0)
(-0.183187 0.490789 0)
(-0.230626 0.490767 0)
(-0.284945 0.490937 0)
(-0.349241 0.486179 0)
(-0.42366 0.480889 0)
(-0.511423 0.470406 0)
(-0.612797 0.460012 0)
(-0.728296 0.445194 0)
(-0.859585 0.428643 0)
(-0.995224 0.387482 0)
(-1.10962 0.257974 0)
(-1.11115 -0.0350152 0)
(-1.0562 -0.371988 0)
(-1.03357 -0.651983 0)
(-0.974392 -0.905142 0)
(-0.918809 -1.13663 0)
(-0.844626 -1.34378 0)
(-0.76806 -1.53339 0)
(-0.0152175 0.515102 0)
(-0.0452027 0.518229 0)
(-0.0777205 0.523226 0)
(-0.11117 0.531944 0)
(-0.148698 0.54111 0)
(-0.190156 0.553363 0)
(-0.238478 0.564589 0)
(-0.293884 0.578043 0)
(-0.359385 0.587991 0)
(-0.435182 0.597838 0)
(-0.52304 0.602939 0)
(-0.625381 0.604252 0)
(-0.745993 0.603491 0)
(-0.888445 0.597866 0)
(-1.0283 0.557347 0)
(-1.12313 0.357205 0)
(-1.10723 -0.0400964 0)
(-1.07541 -0.406856 0)
(-1.04785 -0.697689 0)
(-0.993204 -0.964287 0)
(-0.946013 -1.20264 0)
(-0.878264 -1.42102 0)
(-0.812816 -1.62068 0)
(-0.0116864 0.534827 0)
(-0.0348047 0.539022 0)
(-0.0603496 0.545104 0)
(-0.0882538 0.554058 0)
(-0.120165 0.564208 0)
(-0.156694 0.578278 0)
(-0.200628 0.592197 0)
(-0.253077 0.609596 0)
(-0.318292 0.625483 0)
(-0.398619 0.642907 0)
(-0.499434 0.659542 0)
(-0.618332 0.682406 0)
(-0.763215 0.708513 0)
(-0.917084 0.710604 0)
(-1.06297 0.62284 0)
(-1.13054 0.334907 0)
(-1.11412 -0.0826528 0)