/*--------------------------------*- C++ -*----------------------------------*\
| =========                 |                                                 |
| \\      /  F ield         | OpenFOAM: The Open Source CFD Toolbox           |
|  \\    /   O peration     | Version:  2012                                  |
|   \\  /    A nd           | Website:  www.openfoam.com                      |
|    \\/     M anipulation  |                                                 |
\*---------------------------------------------------------------------------*/
FoamFile
{
    version     2.0;
    format      ascii;
    class       volVectorField;
    location    "0.65";
    object      Uc;
}
// * * * * * * * * * * * * * * * * * * * * * * * * * * * * * * * * * * * * * //

dimensions      [0 1 -1 0 0 0 0];


internalField   nonuniform List<vector> 
2268
(
(0.00233015 -0.00110121 0)
(0.00774112 -0.00145597 0)
(0.0129488 -0.00100515 0)
(0.0156985 -0.000294297 0)
(0.0159422 0.000179133 0)
(0.0158013 -0.000112544 0)
(0.0156195 0.000198428 0)
(0.0126569 0.0012017 0)
(0.00716101 0.00139561 0)
(0.000724164 0.0016464 0)
(-0.00693297 0.0019723 0)
(-0.0154749 0.00206455 0)
(-0.0234369 0.00169822 0)
(-0.0294861 0.00116063 0)
(-0.03376 0.000859154 0)
(-0.0369601 0.000653212 0)
(-0.039162 0.000387382 0)
(-0.039442 -0.000255016 0)
(-0.037307 -0.000753962 0)
(-0.0322295 -0.0016456 0)
(-0.0242372 -0.0021315 0)
(-0.0119763 -0.00366286 0)
(-0.00211288 -0.000998471 0)
(0.00224771 -0.00326467 0)
(0.00757934 -0.00436937 0)
(0.0128981 -0.00306649 0)
(0.0159485 -0.000973971 0)
(0.0164983 0.000483786 0)
(0.016409 -0.000308403 0)
(0.0160555 0.000647273 0)
(0.0129563 0.00361762 0)
(0.00764057 0.0040892 0)
(0.00136847 0.00495896 0)
(-0.0065975 0.00604311 0)
(-0.0153121 0.00614904 0)
(-0.0232376 0.00512206 0)
(-0.0296089 0.00360664 0)
(-0.0342782 0.0026396 0)
(-0.0375955 0.00195289 0)
(-0.0396319 0.00109067 0)
(-0.039772 -0.000759686 0)
(-0.0380738 -0.00206082 0)
(-0.0344515 -0.00445018 0)
(-0.0294581 -0.00546384 0)
(-0.0224325 -0.00944513 0)
(-0.0089739 -0.00623786 0)
(0.00222883 -0.00538024 0)
(0.00769668 -0.00735755 0)
(0.0133408 -0.00525929 0)
(0.0168557 -0.00188389 0)
(0.0178813 0.000649173 0)
(0.0177676 -0.000377835 0)
(0.0167802 0.00135044 0)
(0.0130587 0.00613784 0)
(0.00732761 0.00678964 0)
(0.000635866 0.00838514 0)
(-0.00743105 0.010194 0)
(-0.0158025 0.0100729 0)
(-0.0233414 0.00850656 0)
(-0.0296831 0.00623017 0)
(-0.0346425 0.00456652 0)
(-0.0381698 0.00326075 0)
(-0.0400328 0.00162564 0)
(-0.0396122 -0.00142716 0)
(-0.0372148 -0.0033289 0)
(-0.0329872 -0.00689186 0)
(-0.0271445 -0.00814314 0)
(-0.019053 -0.0139101 0)
(-0.00704493 -0.0138081 0)
(0.00231542 -0.00752782 0)
(0.00791808 -0.0104418 0)
(0.0136242 -0.00753906 0)
(0.0174453 -0.00307106 0)
(0.0191003 0.000569522 0)
(0.0192882 -0.000333221 0)
(0.0180676 0.00234932 0)
(0.0144044 0.00862893 0)
(0.00904437 0.00954012 0)
(0.00235883 0.0119567 0)
(-0.00603508 0.0144017 0)
(-0.0151339 0.0141215 0)
(-0.0238105 0.0121213 0)
(-0.0312912 0.00914787 0)
(-0.0367993 0.00659569 0)
(-0.0401739 0.00449343 0)
(-0.0416388 0.00196567 0)
(-0.041182 -0.00218181 0)
(-0.0391085 -0.00468716 0)
(-0.0351117 -0.00942037 0)
(-0.0291539 -0.0111914 0)
(-0.0211322 -0.0184768 0)
(-0.00821607 -0.0210202 0)
(0.00273045 -0.00991245 0)
(0.00867921 -0.0135163 0)
(0.0144568 -0.0098917 0)
(0.0187884 -0.0045713 0)
(0.0212551 0.000121861 0)
(0.0216625 -0.000166908 0)
(0.0195967 0.00373616 0)
(0.0150404 0.0111266 0)
(0.00890884 0.0124733 0)
(0.00124222 0.0158062 0)
(-0.00755 0.0186742 0)
(-0.0163571 0.0183113 0)
(-0.0246209 0.0159374 0)
(-0.0317203 0.0122222 0)
(-0.0371501 0.00869051 0)
(-0.040956 0.00579213 0)
(-0.0428648 0.0022613 0)
(-0.0424446 -0.00289187 0)
(-0.040382 -0.00593173 0)
(-0.036972 -0.0116762 0)
(-0.0318777 -0.0141586 0)
(-0.022217 -0.0238661 0)
(-0.00775672 -0.0285687 0)
(0.00340461 -0.0128118 0)
(0.00952283 -0.0163196 0)
(0.0147483 -0.0122883 0)
(0.0193387 -0.00639114 0)
(0.0226911 -0.000808367 0)
(0.0237958 4.86943e-05 0)
(0.0218772 0.00540358 0)
(0.0179321 0.0134768 0)
(0.0126122 0.0155349 0)
(0.00477238 0.0200728 0)
(-0.00511924 0.0232374 0)
(-0.0155843 0.0228559 0)
(-0.0259309 0.0201879 0)
(-0.0347534 0.0154962 0)
(-0.0406271 0.0107584 0)
(-0.0440706 0.00715032 0)
(-0.0455283 0.0024941 0)
(-0.0448407 -0.00364817 0)
(-0.0425327 -0.00724092 0)
(-0.0390087 -0.0136439 0)
(-0.033857 -0.017033 0)
(-0.0234101 -0.0304943 0)
(-0.00804416 -0.036036 0)
(0.00419346 -0.0164026 0)
(0.0110227 -0.0188477 0)
(0.0162573 -0.0147036 0)
(0.0214556 -0.00860189 0)
(0.025945 -0.00230357 0)
(0.0274067 0.000331073 0)
(0.0246823 0.00731544 0)
(0.0195872 0.0158373 0)
(0.0125378 0.0190201 0)
(0.00289046 0.0248519 0)
(-0.00755016 0.0280672 0)
(-0.0174873 0.0276681 0)
(-0.0270041 0.0247631 0)
(-0.0350971 0.0189151 0)
(-0.0408708 0.0128439 0)
(-0.0452767 0.00877436 0)
(-0.0480024 0.00284715 0)
(-0.047847 -0.00439963 0)
(-0.0456741 -0.00860704 0)
(-0.0435064 -0.0149676 0)
(-0.0410043 -0.0193264 0)
(-0.0289669 -0.0388268 0)
(-0.00932862 -0.0442462 0)
(0.00490736 -0.0207034 0)
(0.0126091 -0.0214137 0)
(0.0181214 -0.0172161 0)
(0.0238172 -0.0112375 0)
(0.0291608 -0.0043147 0)
(0.0312663 0.000656566 0)
(0.0293126 0.00920086 0)
(0.0252591 0.0182755 0)
(0.0184266 0.0231424 0)
(0.0083413 0.0300551 0)
(-0.00332879 0.0333134 0)
(-0.0161956 0.0331989 0)
(-0.0292819 0.0299144 0)
(-0.0395098 0.0224222 0)
(-0.0452653 0.0147855 0)
(-0.0488981 0.0106319 0)
(-0.0511339 0.00333438 0)
(-0.0504811 -0.00526882 0)
(-0.0475242 -0.0101621 0)
(-0.0449453 -0.0156557 0)
(-0.0420829 -0.0211736 0)
(-0.0296767 -0.0485314 0)
(-0.00972573 -0.0532511 0)
(-0.640777 0.272265 0)
(-1.4277 0.062346 0)
(-1.62299 0.0210377 0)
(-1.66804 -0.00150975 0)
(-1.63277 -0.0129265 0)
(-1.52361 -0.0324562 0)
(-1.35939 -0.0361323 0)
(-1.24057 -0.0136078 0)
(-1.27193 0.0273412 0)
(-1.43513 0.042472 0)
(-1.59597 0.0263825 0)
(-1.6999 0.018319 0)
(-1.76711 0.010806 0)
(-1.80167 0.00439469 0)
(-1.80176 -0.00386478 0)
(-1.74978 -0.0177036 0)
(-1.58755 -0.0506322 0)
(-1.22838 -0.101172 0)
(-0.494561 -0.210101 0)
(-0.473722 0.746134 0)
(-1.0163 0.154671 0)
(-1.10734 0.0517568 0)
(-1.10859 -0.011709 0)
(-1.06534 -0.0350967 0)
(-0.985205 -0.0888346 0)
(-0.87917 -0.0923326 0)
(-0.870648 -0.0100123 0)
(-1.01439 0.0990943 0)
(-1.20672 0.122824 0)
(-1.34791 0.0755865 0)
(-1.43308 0.0507505 0)
(-1.48646 0.0309785 0)
(-1.51675 0.0131548 0)
(-1.51368 -0.0125103 0)
(-1.45394 -0.0551719 0)
(-1.27053 -0.158734 0)
(-0.936231 -0.286267 0)
(-0.368935 -0.576916 0)
(-0.28249 1.06903 0)
(-0.614562 0.20684 0)
(-0.770001 0.107314 0)
(-0.826073 -0.0408384 0)
(-0.69837 -0.0770673 0)
(-0.480757 -0.171967 0)
(-0.168727 -0.185621 0)
(-0.0116668 0.0140595 0)
(-0.17482 0.20735 0)
(-0.446488 0.214497 0)
(-0.726496 0.165904 0)
(-1.0404 0.133105 0)
(-1.31145 0.089678 0)
(-1.47301 0.0393074 0)
(-1.49609 -0.0267791 0)
(-1.4044 -0.10197 0)
(-1.19343 -0.276517 0)
(-0.807358 -0.472257 0)
(-0.282841 -0.853768 0)
(0.0246765 1.18068 0)
(-0.111636 0.298658 0)
(-0.568478 0.279779 0)
(-0.987009 -0.00834056 0)
(-0.888379 -0.202765 0)
(-0.436904 -0.328473 0)
(-0.0274295 -0.335044 0)
(0.338775 -0.0585386 0)
(0.718656 0.189639 0)
(1.00178 0.23092 0)
(1.04639 0.253889 0)
(0.886648 0.251605 0)
(0.580428 0.221916 0)
(0.153326 0.162303 0)
(-0.397397 0.0990764 0)
(-0.947438 -0.0281186 0)
(-1.13478 -0.355637 0)
(-0.784253 -0.702005 0)
(-0.240398 -1.0761 0)
(0.0291763 1.15877 0)
(-0.186961 0.473776 0)
(-0.407111 0.396399 0)
(-0.420695 0.0618097 0)
(-0.383325 -0.327321 0)
(-0.0593662 -0.530233 0)
(0.268209 -0.445022 0)
(0.474324 -0.191759 0)
(0.761552 0.0396713 0)
(1.04829 0.140073 0)
(1.24291 0.245335 0)
(1.36702 0.278848 0)
(1.47622 0.28282 0)
(1.54052 0.260753 0)
(1.50918 0.253301 0)
(1.01724 0.26534 0)
(0.0243103 -0.142348 0)
(-0.459442 -0.853058 0)
(-0.200194 -1.26342 0)
(0.0183315 1.13918 0)
(-0.347526 0.743852 0)
(-0.436962 0.261794 0)
(0.0883052 -0.01831 0)
(0.280438 -0.341868 0)
(0.320077 -0.667206 0)
(0.449556 -0.500664 0)
(0.616721 -0.294728 0)
(0.858167 -0.0822218 0)
(1.07259 0.0488791 0)
(1.21341 0.194126 0)
(1.312 0.236071 0)
(1.40549 0.240858 0)
(1.48051 0.246311 0)
(1.51394 0.270785 0)
(1.56623 0.439654 0)
(1.1036 0.307731 0)
(0.15245 -0.686984 0)
(-0.14459 -1.40954 0)
(0.0169627 1.1253 0)
(-0.23398 1.02359 0)
(-0.352567 0.0743702 0)
(0.0945846 -0.241622 0)
(0.503367 -0.37121 0)
(0.566322 -0.67904 0)
(0.551886 -0.536794 0)
(0.669075 -0.379514 0)
(0.85293 -0.178314 0)
(1.03431 -0.0231565 0)
(1.16506 0.151078 0)
(1.25622 0.198827 0)
(1.34158 0.202387 0)
(1.42038 0.21987 0)
(1.46211 0.26663 0)
(1.48096 0.417496 0)
(1.08799 0.699245 0)
(0.262673 -0.31709 0)
(-0.0787824 -1.50372 0)
(0.0218992 1.11045 0)
(0.225477 1.06265 0)
(0.506144 -0.0296574 0)
(0.583963 -0.357817 0)
(0.580432 -0.424143 0)
(0.572904 -0.64753 0)
(0.58397 -0.566465 0)
(0.694802 -0.446816 0)
(0.852005 -0.255694 0)
(1.0038 -0.0859708 0)
(1.12048 0.11127 0)
(1.21235 0.163738 0)
(1.30752 0.163453 0)
(1.39725 0.189324 0)
(1.43937 0.263224 0)
(1.42651 0.421655 0)
(1.05103 1.02726 0)
(0.312503 0.0262535 0)
(-0.033285 -1.55112 0)
(0.00594584 -0.0290083 0)
(0.0153545 -0.0262216 0)
(0.0223386 -0.0220451 0)
(0.0293258 -0.0161298 0)
(0.035397 -0.00805151 0)
(0.0385564 0.000226247 0)
(0.0387097 0.0104095 0)
(0.0358744 0.021842 0)
(0.0276222 0.0311061 0)
(0.0144979 0.0400528 0)
(-0.00100862 0.0444187 0)
(-0.0168013 0.0440494 0)
(-0.0298689 0.0383841 0)
(-0.0386763 0.0276395 0)
(-0.0441235 0.0177638 0)
(-0.0496869 0.014963 0)
(-0.0549156 0.0053159 0)
(-0.0544475 -0.00802934 0)
(-0.0488253 -0.0144505 0)
(-0.0453577 -0.0160717 0)
(-0.0451645 -0.0223045 0)
(-0.0583548 -0.0400042 0)
(-0.0938145 -0.0355622 0)
(-0.0330318 -0.00176698 0)
(-0.0955667 -2.85893e-05 0)
(-0.159683 0.00922791 0)
(-0.21464 0.00105874 0)
(-0.209669 -0.0360689 0)
(-0.144642 -0.0401914 0)
(-0.0793522 -0.014836 0)
(-0.0391871 0.00970853 0)
(-0.0184265 0.0308383 0)
(-0.0119395 0.0471768 0)
(-0.0141744 0.0552919 0)
(-0.0189035 0.0539027 0)
(-0.0226694 0.0454885 0)
(-0.0284633 0.0352226 0)
(-0.0392769 0.0265276 0)
(-0.0534579 0.0260466 0)
(-0.0640948 0.0101806 0)
(-0.0649447 -0.0125102 0)
(-0.0600385 -0.0205529 0)
(-0.0587676 -0.0147325 0)
(-0.0618169 -0.0207728 0)
(-0.0812545 -0.00873753 0)
(-0.124583 0.0123706 0)
(-0.00835032 0.0398777 0)
(-0.0246947 0.0377113 0)
(-0.0405429 0.0519642 0)
(-0.0553587 0.0287543 0)
(-0.0718577 -0.0518566 0)
(-0.0947213 -0.066636 0)
(-0.125748 -0.0226736 0)
(-0.153814 0.00560375 0)
(-0.156571 0.017118 0)
(-0.14524 0.0432895 0)
(-0.146092 0.0626378 0)
(-0.147718 0.0533316 0)
(-0.138439 0.0408965 0)
(-0.12265 0.0300855 0)
(-0.100402 0.0203668 0)
(-0.074209 0.0202091 0)
(-0.0475771 -3.13279e-05 0)
(-0.0297925 -0.0193104 0)
(-0.0267458 -0.0217455 0)
(-0.0297988 -0.0117473 0)
(-0.030451 -0.0200363 0)
(-0.028702 0.00830752 0)
(-0.0228694 0.0330173 0)
(0.00325997 0.045042 0)
(0.00847113 0.0438331 0)
(0.0203269 0.0499503 0)
(0.0328273 0.0331907 0)
(0.00530205 -0.0119434 0)
(-0.0645664 -0.0132373 0)
(-0.13287 0.0238725 0)
(-0.184991 0.0397955 0)
(-0.229362 0.0304569 0)
(-0.264382 0.053936 0)
(-0.29716 0.0860466 0)
(-0.336634 0.0716097 0)
(-0.355692 0.0329219 0)
(-0.33141 -0.00172421 0)
(-0.28462 -0.0167705 0)
(-0.25344 1.41754e-05 0)
(-0.231811 -0.0281335 0)
(-0.176616 -0.0644804 0)
(-0.0992467 -0.0574514 0)
(-0.0362864 -0.0363536 0)
(0.00797861 -0.0393641 0)
(0.032323 0.00136265 0)
(0.0358197 0.0305942 0)
(-0.0117725 0.0536465 0)
(-0.0343664 0.0527972 0)
(-0.0565909 0.0515043 0)
(-0.079803 0.0424999 0)
(-0.102206 0.029032 0)
(-0.121368 0.0353786 0)
(-0.13377 0.0564798 0)
(-0.146215 0.0721892 0)
(-0.175472 0.0721747 0)
(-0.212831 0.0850752 0)
(-0.24415 0.119446 0)
(-0.296458 0.130606 0)
(-0.375096 0.0723185 0)
(-0.455617 0.015652 0)
(-0.547745 0.0117377 0)
(-0.652546 0.0458355 0)
(-0.72392 -0.0237054 0)
(-0.733142 -0.114989 0)
(-0.683107 -0.134996 0)
(-0.55042 -0.153566 0)
(-0.358487 -0.157588 0)
(-0.190255 -0.0738707 0)
(-0.0651414 -0.0232947 0)
(-0.00338633 0.0689318 0)
(-0.0111887 0.0681616 0)
(-0.0207181 0.0681546 0)
(-0.03509 0.0637251 0)
(-0.0615279 0.0569983 0)
(-0.0984914 0.0639269 0)
(-0.135172 0.0773662 0)
(-0.164372 0.0932627 0)
(-0.184526 0.100868 0)
(-0.200743 0.110336 0)
(-0.209982 0.135056 0)
(-0.215415 0.173139 0)
(-0.24236 0.136027 0)
(-0.307529 0.0984983 0)
(-0.410381 0.124996 0)
(-0.526621 0.154891 0)
(-0.649274 0.0623938 0)
(-0.828325 -0.011718 0)
(-1.0628 -0.0527441 0)
(-1.27034 -0.158508 0)
(-1.4144 -0.198603 0)
(-1.50543 -0.110216 0)
(-1.4943 -0.123679 0)
(-0.00980303 0.0822372 0)
(-0.0293534 0.0824461 0)
(-0.0486577 0.0829488 0)
(-0.0679347 0.0828501 0)
(-0.0868728 0.0835811 0)
(-0.104521 0.0923358 0)
(-0.120617 0.102106 0)
(-0.137119 0.114559 0)
(-0.158349 0.12127 0)
(-0.185981 0.13411 0)
(-0.213601 0.148433 0)
(-0.232068 0.183888 0)
(-0.249416 0.169908 0)
(-0.282367 0.163355 0)
(-0.329201 0.210713 0)
(-0.388713 0.245957 0)
(-0.497973 0.204564 0)
(-0.705694 0.23502 0)
(-1.04114 0.273544 0)
(-1.51434 0.19963 0)
(-2.0681 0.14488 0)
(-2.56561 0.138081 0)
(-2.84795 -0.0990843 0)
(-0.00555079 0.0977179 0)
(-0.0171719 0.0983932 0)
(-0.0299963 0.0993917 0)
(-0.0450369 0.100998 0)
(-0.0636922 0.103317 0)
(-0.0848833 0.111736 0)
(-0.106211 0.120422 0)
(-0.126671 0.133494 0)
(-0.145766 0.142968 0)
(-0.165338 0.15996 0)
(-0.186734 0.171955 0)
(-0.207324 0.199729 0)
(-0.236348 0.200785 0)
(-0.281631 0.211226 0)
(-0.328178 0.256817 0)
(-0.371303 0.303139 0)
(-0.431299 0.317635 0)
(-0.519017 0.419049 0)
(-0.647141 0.555633 0)
(-0.871961 0.619342 0)
(-1.22308 0.634935 0)
(-1.61147 0.53872 0)
(-1.87488 0.0491329 0)
(-0.00768058 0.111065 0)
(-0.022916 0.112136 0)
(-0.0379897 0.113785 0)
(-0.0530635 0.116969 0)
(-0.0680948 0.121302 0)
(-0.0827524 0.129881 0)
(-0.0971093 0.138243 0)
(-0.112146 0.151449 0)
(-0.129089 0.161336 0)
(-0.148447 0.180822 0)
(-0.17053 0.194896 0)
(-0.193578 0.220752 0)
(-0.219686 0.235284 0)
(-0.254192 0.257037 0)
(-0.292945 0.296858 0)
(-0.336277 0.350117 0)
(-0.395801 0.390914 0)
(-0.460524 0.499126 0)
(-0.510073 0.654279 0)
(-0.574792 0.811882 0)
(-0.699403 0.920765 0)
(-0.903657 0.848793 0)
(-1.14436 0.245958 0)
(-0.00541882 0.124278 0)
(-0.0164281 0.125395 0)
(-0.0281155 0.127518 0)
(-0.0407801 0.131211 0)
(-0.0545471 0.136101 0)
(-0.0691472 0.144585 0)
(-0.0839127 0.152906 0)
(-0.0987297 0.166889 0)
(-0.11364 0.178011 0)
(-0.128777 0.198919 0)
(-0.145457 0.215862 0)
(-0.164202 0.241895 0)
(-0.18658 0.262982 0)
(-0.215214 0.292911 0)
(-0.247289 0.332289 0)
(-0.280151 0.391387 0)
(-0.318625 0.448267 0)
(-0.360748 0.549297 0)
(-0.390285 0.683732 0)
(-0.409685 0.867121 0)
(-0.449791 1.03125 0)
(-0.576285 1.07095 0)
(-0.849753 0.540822 0)
(-0.00577228 0.135573 0)
(-0.0172927 0.136838 0)
(-0.0287693 0.139451 0)
(-0.0401853 0.143575 0)
(-0.0514689 0.149009 0)
(-0.0626369 0.157671 0)
(-0.0737373 0.165912 0)
(-0.0850651 0.180256 0)
(-0.0970494 0.191772 0)
(-0.109343 0.212827 0)
(-0.122091 0.231632 0)
(-0.135796 0.258842 0)
(-0.151613 0.28453 0)
(-0.170712 0.319447 0)
(-0.192126 0.359626 0)
(-0.213951 0.419131 0)
(-0.236376 0.48185 0)
(-0.257534 0.57944 0)
(-0.267784 0.693704 0)
(-0.256916 0.865852 0)
(-0.235712 1.05165 0)
(-0.264871 1.20715 0)
(-0.491699 0.907669 0)
(-0.00447106 0.145914 0)
(-0.0134575 0.1472 0)
(-0.0226035 0.149908 0)
(-0.0319648 0.154092 0)
(-0.0415233 0.159532 0)
(-0.0512539 0.168246 0)
(-0.0609082 0.176291 0)
(-0.0703866 0.190884 0)
(-0.0798167 0.202764 0)
(-0.0888062 0.223323 0)
(-0.0972877 0.242571 0)
(-0.105441 0.269972 0)
(-0.113796 0.297794 0)
(-0.123171 0.334905 0)
(-0.133403 0.376082 0)
(-0.14246 0.433824 0)
(-0.148796 0.496175 0)
(-0.149321 0.587023 0)
(-0.138977 0.686142 0)
(-0.106004 0.829467 0)
(-0.036903 0.997389 0)
(0.0524435 1.20104 0)
(0.0160518 1.1785 0)
(-0.0040308 0.154503 0)
(-0.0120314 0.155773 0)
(-0.0199093 0.158535 0)
(-0.0276768 0.162771 0)
(-0.0352203 0.168132 0)
(-0.0425762 0.17691 0)
(-0.0496829 0.184565 0)
(-0.056452 0.199032 0)
(-0.0629904 0.210757 0)
(-0.069035 0.230533 0)
(-0.0743823 0.249354 0)
(-0.0788049 0.275924 0)
(-0.0819999 0.303548 0)
(-0.083716 0.340398 0)
(-0.0832743 0.380529 0)
(-0.0795803 0.43487 0)
(-0.0711959 0.493175 0)
(-0.055022 0.574402 0)
(-0.0271473 0.660457 0)
(0.0203282 0.774399 0)
(0.10174 0.901276 0)
(0.236201 1.0723 0)
(0.395089 1.18423 0)
(-0.00315006 0.161764 0)
(-0.00940581 0.162928 0)
(-0.0156011 0.165612 0)
(-0.0217394 0.169758 0)
(-0.0276354 0.17474 0)
(-0.0332523 0.183428 0)
(-0.0383923 0.190444 0)
(-0.0428882 0.204564 0)
(-0.0466689 0.215686 0)
(-0.0493886 0.234504 0)
(-0.0508545 0.252323 0)
(-0.0507869 0.277425 0)
(-0.0488156 0.303371 0)
(-0.0444157 0.337973 0)
(-0.0368136 0.374966 0)
(-0.0244264 0.424367 0)
(-0.00546202 0.476288 0)
(0.0237917 0.545728 0)
(0.0671435 0.617639 0)
(0.130649 0.705766 0)
(0.22215 0.796207 0)
(0.358052 0.905711 0)
(0.551942 0.99632 0)
(-0.00253755 0.167523 0)
(-0.00754661 0.168576 0)
(-0.012433 0.171187 0)
(-0.0171731 0.175202 0)
(-0.0215263 0.179683 0)
(-0.025444 0.188154 0)
(-0.0287124 0.194255 0)
(-0.0311085 0.207766 0)
(-0.0323692 0.217638 0)
(-0.0322945 0.235298 0)
(-0.0305609 0.251348 0)
(-0.0267114 0.274552 0)
(-0.0203363 0.297944 0)
(-0.0106696 0.329351 0)
(0.00308124 0.362217 0)
(0.0224066 0.405334 0)
(0.048706 0.449919 0)
(0.0844725 0.506837 0)
(0.132535 0.56474 0)
(0.196744 0.630387 0)
(0.281281 0.694735 0)
(0.393508 0.757866 0)
(0.538384 0.803738 0)
(-0.00183896 0.171963 0)
(-0.00543588 0.172868 0)
(-0.00887153 0.175341 0)
(-0.0121157 0.179155 0)
(-0.0149161 0.183003 0)
(-0.0171671 0.191117 0)
(-0.0186095 0.19611 0)
(-0.0190182 0.208813 0)
(-0.0180539 0.216972 0)
(-0.0154432 0.233348 0)
(-0.0108244 0.246997 0)
(-0.00371936 0.267977 0)
(0.00630786 0.288118 0)
(0.0201004 0.315684 0)
(0.0382911 0.343866 0)
(0.0624529 0.380062 0)
(0.093731 0.417406 0)
(0.134365 0.462646 0)
(0.186308 0.508501 0)
(0.251297 0.556852 0)
(0.330989 0.603283 0)
(0.426298 0.640799 0)
(0.534527 0.666479 0)
(-0.00131871 0.175176 0)
(-0.00386543 0.175909 0)
(-0.00621385 0.178193 0)
(-0.00831257 0.181752 0)
(-0.00990946 0.184905 0)
(-0.0107971 0.192449 0)
(-0.0106952 0.196205 0)
(-0.009378 0.207886 0)
(-0.00645092 0.214069 0)
(-0.00166695 0.2289 0)
(0.00551691 0.239664 0)
(0.0155659 0.258151 0)
(0.0289267 0.27452 0)
(0.0463696 0.29797 0)
(0.06843 0.321205 0)
(0.0963755 0.350432 0)
(0.130894 0.380986 0)
(0.173543 0.415439 0)
(0.22539 0.45147 0)
(0.287391 0.486325 0)
(0.360175 0.520633 0)
(0.443678 0.543799 0)
(0.534349 0.563637 0)
(-0.000850763 0.177395 0)
(-0.00244062 0.177924 0)
(-0.00378637 0.179968 0)
(-0.00477611 0.183159 0)
(-0.00517872 0.185585 0)
(-0.00473495 0.192293 0)
(-0.00322408 0.194818 0)
(-0.000411415 0.2052 0)
(0.00411481 0.209342 0)
(0.0106275 0.222351 0)
(0.0196825 0.229969 0)
(0.03174 0.245704 0)
(0.0473912 0.257884 0)
(0.067286 0.277155 0)
(0.0919385 0.295147 0)
(0.122454 0.317809 0)
(0.159317 0.341941 0)
(0.20355 0.367236 0)
(0.255523 0.395399 0)
(0.315387 0.419984 0)
(0.382602 0.446334 0)
(0.456005 0.460465 0)
(0.53166 0.479868 0)
(-0.000615667 0.178906 0)
(-0.00174778 0.179223 0)
(-0.00258332 0.180935 0)
(-0.00293881 0.183618 0)
(-0.00260623 0.18527 0)
(-0.00122665 0.190849 0)
(0.00135601 0.192222 0)
(0.00543084 0.200947 0)
(0.0114277 0.203092 0)
(0.0196069 0.213909 0)
(0.030534 0.218402 0)
(0.0445753 0.231114 0)
(0.0623481 0.238954 0)
(0.0843141 0.254085 0)
(0.111063 0.266628 0)
(0.14339 0.283238 0)
(0.181635 0.301093 0)
(0.226478 0.318625 0)
(0.278048 0.340011 0)
(0.336426 0.356598 0)
(0.400897 0.377431 0)
(0.470357 0.385846 0)
(0.542202 0.406301 0)
(-0.000674538 0.180239 0)
(-0.00199175 0.180424 0)
(-0.00295311 0.181612 0)
(-0.0032421 0.18366 0)
(-0.00273793 0.184459 0)
(-0.00099076 0.18859 0)
(0.00217353 0.188777 0)
(0.00717615 0.195341 0)
(0.0143867 0.195496 0)
(0.0240019 0.203692 0)
(0.0364948 0.205151 0)
(0.0522554 0.214482 0)
(0.0718899 0.218059 0)
(0.0956722 0.22907 0)
(0.124381 0.235973 0)
(0.158397 0.24728 0)
(0.19796 0.258916 0)
(0.243532 0.269994 0)
(0.294869 0.285277 0)
(0.351804 0.295497 0)
(0.413448 0.311838 0)
(0.478414 0.316394 0)
(0.545009 0.336672 0)
(-0.000894817 0.181851 0)
(-0.00272917 0.182049 0)
(-0.00414818 0.182449 0)
(-0.0047304 0.183768 0)
(-0.00443904 0.18362 0)
(-0.00279443 0.186088 0)
(0.000418021 0.184938 0)
(0.00565408 0.188957 0)
(0.0132233 0.187092 0)
(0.0234141 0.192256 0)
(0.0366907 0.190754 0)
(0.0534183 0.196294 0)
(0.0741647 0.195728 0)
(0.0992395 0.202361 0)
(0.129448 0.203531 0)
(0.164844 0.210022 0)
(0.205875 0.215235 0)
(0.252837 0.220734 0)
(0.305279 0.230291 0)
(0.36311 0.235196 0)
(0.42549 0.247544 0)
(0.4912 0.249407 0)
(0.558877 0.268764 0)
(-0.00177188 0.184564 0)
(-0.00535456 0.184847 0)
(-0.00846092 0.184266 0)
(-0.0106188 0.184771 0)
(-0.0116993 0.183476 0)
(-0.0111367 0.184079 0)
(-0.00872574 0.18136 0)
(-0.00399792 0.182586 0)
(0.00342982 0.178456 0)
(0.0139594 0.180132 0)
(0.0281041 0.175381 0)
(0.0461598 0.176769 0)
(0.0684864 0.172023 0)
(0.0954684 0.173807 0)
(0.127737 0.169352 0)
(0.165177 0.171054 0)
(0.208368 0.16961 0)
(0.257234 0.170102 0)
(0.311337 0.173893 0)
(0.370636 0.173925 0)
(0.434208 0.182277 0)
(0.500607 0.181948 0)
(0.568647 0.19987 0)
(-0.00250225 0.188892 0)
(-0.0074837 0.18919 0)
(-0.0120083 0.187656 0)
(-0.0157069 0.187332 0)
(-0.0183767 0.184749 0)
(-0.0194909 0.183424 0)
(-0.0188069 0.178968 0)
(-0.015803 0.17727 0)
(-0.0100867 0.170623 0)
(-0.00124573 0.168557 0)
(0.0112935 0.160197 0)
(0.0280032 0.157071 0)
(0.0493921 0.147842 0)
(0.0760219 0.144161 0)
(0.10843 0.134049 0)
(0.146703 0.130314 0)
(0.191557 0.121913 0)
(0.2427 0.117336 0)
(0.300047 0.114695 0)
(0.36358 0.109718 0)
(0.431995 0.113876 0)
(0.5037 0.111593 0)
(0.57762 0.127592 0)
(-0.00397689 0.195435 0)
(-0.0118115 0.19559 0)
(-0.0191862 0.193277 0)
(-0.0257728 0.192109 0)
(-0.0312693 0.188241 0)
(-0.0352318 0.185096 0)
(-0.0373157 0.178763 0)
(-0.0369013 0.174098 0)
(-0.033495 0.164684 0)
(-0.0264959 0.158633 0)
(-0.0152857 0.146308 0)
(0.000610076 0.138246 0)
(0.0217978 0.123931 0)
(0.0488898 0.114133 0)
(0.0822951 0.0979833 0)
(0.122269 0.0877866 0)
(0.169341 0.0720979 0)
(0.223102 0.0617619 0)
(0.283975 0.0514953 0)
(0.351837 0.0409002 0)
(0.425277 0.0401613 0)
(0.503003 0.0351605 0)
(0.584156 0.0482078 0)
(-0.00507218 0.20456 0)
(-0.0150677 0.204446 0)
(-0.0247054 0.20158 0)
(-0.0337077 0.199534 0)
(-0.041703 0.194436 0)
(-0.0483289 0.189602 0)
(-0.0532534 0.18136 0)
(-0.0559487 0.173852 0)
(-0.0559706 0.161586 0)
(-0.0526865 0.151453 0)
(-0.0454717 0.135026 0)
(-0.0337596 0.121834 0)
(-0.016831 0.102085 0)
(0.00606155 0.0857915 0)
(0.0356923 0.0630181 0)
(0.0728942 0.045232 0)
(0.118418 0.0216324 0)
(0.172378 0.00400362 0)
(0.235559 -0.0153885 0)
(0.307344 -0.0325328 0)
(0.386338 -0.0395748 0)
(0.47203 -0.0493147 0)
(0.563622 -0.0409025 0)
(-0.00661916 0.216339 0)
(-0.0197255 0.215943 0)
(-0.0325722 0.212739 0)
(-0.0449185 0.209889 0)
(-0.0564085 0.203721 0)
(-0.0667161 0.197392 0)
(-0.0754542 0.187358 0)
(-0.0820765 0.177275 0)
(-0.0860679 0.162252 0)
(-0.0866648 0.14814 0)
(-0.0830784 0.127536 0)
(-0.074427 0.10891 0)
(-0.0597971 0.0833414 0)
(-0.0385695 0.0602396 0)
(-0.0102196 0.030342 0)
(0.0259383 0.00422082 0)
(0.0707138 -0.028072 0)
(0.124768 -0.0548137 0)
(0.189041 -0.0846352 0)
(0.262945 -0.109681 0)
(0.346301 -0.125567 0)
(0.439635 -0.143228 0)
(0.541549 -0.141449 0)
(-0.00786937 0.230929 0)
(-0.0235073 0.230299 0)
(-0.0389529 0.226874 0)
(-0.0539853 0.223327 0)
(-0.0682803 0.216254 0)
(-0.0815499 0.20861 0)
(-0.0934328 0.196919 0)
(-0.103459 0.1845 0)
(-0.11117 0.166842 0)
(-0.115942 0.149 0)
(-0.117179 0.124366 0)
(-0.114107 0.100346 0)
(-0.105794 0.068894 0)
(-0.0912093 0.038739 0)
(-0.0693561 0.0014292 0)
(-0.039078 -0.0335974 0)
(0.000966861 -0.075465 0)
(0.0518547 -0.112859 0)
(0.114655 -0.154275 0)
(0.189247 -0.189261 0)
(0.276218 -0.217151 0)
(0.376202 -0.245919 0)
(0.487097 -0.252625 0)
(-0.009317 0.248229 0)
(-0.0278938 0.24744 0)
(-0.0463885 0.243898 0)
(-0.0646624 0.239831 0)
(-0.0824701 0.232069 0)
(-0.0995673 0.223369 0)
(-0.115596 0.210265 0)
(-0.130091 0.195851 0)
(-0.142565 0.175828 0)
(-0.152336 0.154681 0)
(-0.158678 0.126353 0)
(-0.160676 0.0973278 0)
(-0.15734 0.060252 0)
(-0.147415 0.0227908 0)
(-0.12937 -0.0226805 0)
(-0.10189 -0.0674985 0)
(-0.0641018 -0.119756 0)
(-0.0149435 -0.169088 0)
(0.0470617 -0.223454 0)
(0.12265 -0.270999 0)
(0.213142 -0.313758 0)
(0.318839 -0.356022 0)
(0.437498 -0.373227 0)
(-0.0105592 0.268231 0)
(-0.0316534 0.267361 0)
(-0.0527226 0.263793 0)
(-0.073666 0.259403 0)
(-0.0942712 0.251155 0)
(-0.114336 0.241684 0)
(-0.133562 0.227435 0)
(-0.15159 0.21142 0)
(-0.168001 0.18934 0)
(-0.18218 0.165289 0)
(-0.193502 0.133547 0)
(-0.2012 0.099924 0)
(-0.204431 0.0575961 0)
(-0.202128 0.0131989 0)
(-0.193065 -0.0402927 0)
(-0.175599 -0.0950217 0)
(-0.147727 -0.158191 0)
(-0.107342 -0.22062 0)
(-0.0528264 -0.289008 0)
(0.0170563 -0.351632 0)
(0.104023 -0.411468 0)
(0.209071 -0.470114 0)
(0.3322 -0.502141 0)
(-0.0117859 0.290714 0)
(-0.0353901 0.289852 0)
(-0.0591167 0.286373 0)
(-0.0829747 0.2819 0)
(-0.106878 0.273441 0)
(-0.13073 0.263585 0)
(-0.154317 0.248613 0)
(-0.177346 0.231555 0)
(-0.1994 0.207912 0)
(-0.219911 0.18163 0)
(-0.23823 0.147044 0)
(-0.25342 0.109476 0)
(-0.264386 0.0623572 0)
(-0.269884 0.0116913 0)
(-0.268452 -0.0492932 0)
(-0.258034 -0.114009 0)
(-0.236928 -0.188395 0)
(-0.204277 -0.263792 0)
(-0.160894 -0.344204 0)
(-0.106598 -0.421222 0)
(-0.0354993 -0.500726 0)
(0.0597204 -0.582124 0)
(0.183226 -0.638008 0)
(-0.0129021 0.31555 0)
(-0.0387779 0.314793 0)
(-0.0648661 0.311546 0)
(-0.0912427 0.307263 0)
(-0.117905 0.298946 0)
(-0.14485 0.28918 0)
(-0.171935 0.273994 0)
(-0.198981 0.256551 0)
(-0.225701 0.231984 0)
(-0.251672 0.204321 0)
(-0.276348 0.167612 0)
(-0.299019 0.127006 0)
(-0.318971 0.0759449 0)
(-0.335388 0.020173 0)
(-0.347146 -0.0473568 0)
(-0.353675 -0.119817 0)
(-0.355322 -0.20211 0)
(-0.352834 -0.285363 0)
(-0.345137 -0.373941 0)
(-0.31958 -0.471714 0)
(-0.258266 -0.583295 0)
(-0.158149 -0.69587 0)
(-0.0242651 -0.782958 0)
(-0.0139262 0.342537 0)
(-0.0418944 0.341967 0)
(-0.0702164 0.339102 0)
(-0.0991021 0.335294 0)
(-0.128695 0.3275 0)
(-0.159151 0.318363 0)
(-0.190521 0.303608 0)
(-0.222839 0.286647 0)
(-0.256035 0.262153 0)
(-0.289861 0.234297 0)
(-0.323951 0.196745 0)
(-0.35779 0.154714 0)
(-0.390522 0.101232 0)
(-0.421043 0.0421047 0)
(-0.448677 -0.0296556 0)
(-0.47404 -0.105426 0)
(-0.500541 -0.188171 0)
(-0.530414 -0.271738 0)
(-0.546725 -0.378867 0)
(-0.517406 -0.521912 0)
(-0.433528 -0.679015 0)
(-0.312831 -0.822089 0)
(-0.168705 -0.936175 0)
(-0.0146603 0.371289 0)
(-0.0441653 0.371021 0)
(-0.0742241 0.368767 0)
(-0.105218 0.365855 0)
(-0.137495 0.359165 0)
(-0.171354 0.351382 0)
(-0.206986 0.337974 0)
(-0.244494 0.322505 0)
(-0.283869 0.299279 0)
(-0.325 0.272553 0)
(-0.367749 0.235762 0)
(-0.411871 0.194098 0)
(-0.457278 0.14043 0)
(-0.504766 0.0813553 0)
(-0.556878 0.0112881 0)
(-0.61817 -0.0592294 0)
(-0.688132 -0.137366 0)
(-0.741124 -0.239207 0)
(-0.734492 -0.401633 0)
(-0.661669 -0.601795 0)
(-0.554944 -0.790709 0)
(-0.436257 -0.951008 0)
(-0.30778 -1.08126 0)
(-0.0155144 0.401637 0)
(-0.0467746 0.401787 0)
(-0.0787326 0.400373 0)
(-0.111832 0.398708 0)
(-0.146467 0.393604 0)
(-0.183035 0.387769 0)
(-0.221936 0.376539 0)
(-0.263601 0.363556 0)
(-0.308538 0.343011 0)
(-0.357302 0.319215 0)
(-0.410389 0.285467 0)
(-0.468096 0.246783 0)
(-0.530981 0.196631 0)
(-0.60023 0.142529 0)
(-0.677706 0.0804082 0)
(-0.763753 0.0197921 0)
(-0.843644 -0.0657151 0)
(-0.873806 -0.227235 0)
(-0.829518 -0.464771 0)
(-0.74509 -0.696715 0)
(-0.655211 -0.8934 0)
(-0.560209 -1.0631 0)
(-0.452026 -1.20704 0)
(-0.0153467 0.432673 0)
(-0.0463612 0.433378 0)
(-0.0783729 0.433113 0)
(-0.112119 0.433189 0)
(-0.148375 0.430411 0)
(-0.187915 0.427495 0)
(-0.231479 0.419736 0)
(-0.279703 0.410744 0)
(-0.333089 0.394687 0)
(-0.391934 0.375738 0)
(-0.456615 0.347355 0)
(-0.527645 0.314331 0)
(-0.606598 0.271689 0)
(-0.696999 0.227982 0)
(-0.802672 0.17909 0)
(-0.91347 0.119019 0)
(-0.983275 -0.0144307 0)
(-0.971195 -0.260321 0)
(-0.908932 -0.538783 0)
(-0.843538 -0.773292 0)
(-0.774244 -0.976804 0)
(-0.69097 -1.15888 0)
(-0.591144 -1.32034 0)
(-0.0161661 0.464362 0)
(-0.0488712 0.465765 0)
(-0.0827157 0.46695 0)
(-0.118396 0.469164 0)
(-0.156548 0.469258 0)
(-0.197857 0.469944 0)
(-0.24307 0.466553 0)
(-0.292905 0.462523 0)
(-0.348161 0.452142 0)
(-0.409795 0.439417 0)
(-0.479403 0.418692 0)
(-0.55933 0.394763 0)
(-0.652545 0.364348 0)
(-0.761265 0.335509 0)
(-0.881868 0.299052 0)
(-0.989639 0.218803 0)
(-1.03659 0.00317168 0)
(-1.01482 -0.311936 0)
(-0.96937 -0.595435 0)
(-0.918942 -0.833049 0)
(-0.854361 -1.0516 0)
(-0.77512 -1.24743 0)
(-0.682649 -1.42507 0)
(-0.0143889 0.495088 0)
(-0.0435914 0.497292 0)
(-0.0741492 0.500183 0)
(-0.107167 0.505009 0)
(-0.143805 0.508615 0)
(-0.185212 0.513754 0)
(-0.232722 0.515971 0)
(-0.287862 0.518649 0)
(-0.352247 0.516303 0)
(-0.427509 0.512888 0)
(-0.51539 0.503553 0)
(-0.616918 0.492326 0)
(-0.732878 0.477074 0)
(-0.861305 0.461195 0)
(-0.990559 0.424562 0)
(-1.08207 0.293645 0)
(-1.09765 -0.00880457 0)
(-1.065 -0.354656 0)
(-1.02512 -0.638477 0)
(-0.975938 -0.89012 0)
(-0.914801 -1.12088 0)
(-0.844627 -1.32833 0)
(-0.764354 -1.51781 0)
(-0.0151307 0.52477 0)
(-0.0459119 0.527924 0)
(-0.0780793 0.532621 0)
(-0.112365 0.540244 0)
(-0.149904 0.547962 0)
(-0.192139 0.558504 0)
(-0.240561 0.567672 0)
(-0.296756 0.578884 0)
(-0.362348 0.58674 0)
(-0.438618 0.594792 0)
(-0.527124 0.598975 0)
(-0.630424 0.602821 0)
(-0.75199 0.605365 0)
(-0.888287 0.59904 0)
(-1.01762 0.546685 0)
(-1.09595 0.342274 0)
(-1.10378 -0.0338938 0)
(-1.07711 -0.389193 0)
(-1.04159 -0.67972 0)
(-0.995638 -0.94449 0)
(-0.941384 -1.1825 0)
(-0.879341 -1.39961 0)
(-0.808795 -1.59813 0)
(-0.0116428 0.55169 0)
(-0.0354713 0.555912 0)
(-0.0610391 0.562683 0)
(-0.0893921 0.573162 0)
(-0.121491 0.585059 0)
(-0.15875 0.60133 0)
(-0.202998 0.618013 0)
(-0.256536 0.638864 0)
(-0.322381 0.658897 0)
(-0.404067 0.681432 0)
(-0.50434 0.702115 0)
(-0.625207 0.725034 0)
(-0.765893 0.746793 0)
(-0.915441 0.744978 0)
(-1.04384 0.65985 0)
(-1.10992 0.374285 0)
(-1.11444 -0.053485 0)
(-1.09334 -0.417628 0)
(-1.05974 -0.720758 0)