/*--------------------------------*- C++ -*----------------------------------*\
| =========                 |                                                 |
| \\      /  F ield         | OpenFOAM: The Open Source CFD Toolbox           |
|  \\    /   O peration     | Version:  2012                                  |
|   \\  /    A nd           | Website:  www.openfoam.com                      |
|    \\/     M anipulation  |                                                 |
\*---------------------------------------------------------------------------*/
FoamFile
{
    version     2.0;
    format      ascii;
    class       volScalarField;
    location    "0.65";
    object      volumeFraction1;
}
// * * * * * * * * * * * * * * * * * * * * * * * * * * * * * * * * * * * * * //

dimensions      [0 0 0 0 0 0 0];


internalField   nonuniform List<scalar> 
2268
(
1
1
1
1
1
1
1
1
1
1
1
1
1
1
1
1
1
1
1
1
1
1
0.999791
1
1
1
1
1
1
1
1
1
1
1
1
1
1
1
1
1
1
1
1
1
0.999993
0.999712
1
1
1
1
1
1
1
1
1
1
1
1
1
1
1
1
1
1
1
1
1
0.999996
0.999712
1
1
1
1
1
1
1
1
1
1
1
1
1
1
1
1
1
1
1
1
1
0.999996
0.999712
1
1
1
1
1
1
1
1
1
1
1
1
1
1
1
1
1
1
1
1
1
0.999999
0.999885
1
1
1
1
1
1
1
1
1
1
1
1
1
1
1
1
1
1
1
1
1
1
1
0.999977
0.999979
0.99999
0.999997
0.999999
1
1
1
1
1
1
1
1
1
1
1
1
1
1
1
1
1
1
0.964344
0.967119
0.977673
0.988726
0.994152
0.996038
0.998866
1
1
1
1
1
1
1
1
1
1
1
1
1
1
1
1
0.797161
0.797155
0.809547
0.809547
0.74943
0.664775
0.680112
0.781302
0.781302
0.781302
0.781248
0.777698
0.810164
0.831336
0.831336
0.831336
0.831336
0.831324
0.82392
0.759936
0.486937
0.730411
0.808662
0.796148
0.664778
0.670915
0.716981
0.781302
0.732002
0.704278
0.700972
0.700445
0.686695
0.685235
0.739852
0.801192
0.831444
0.831443
0.458465
0.031337
0.169454
0.335514
0.635315
0.843847
0.934638
0.712499
0.17156
0.16368
0.163681
0.23858
0.16881
0.141496
0.134453
0.165915
0.300639
0.643432
0.831491
0.405858
0.0208694
3.95548e-05
6.61757e-08
0.0335062
0.433436
0.934638
0.97351
0.735459
0.461461
0.304449
0.0782373
0.000587264
0.000587264
0.000587264
0.000587264
0.000587264
0.227891
0.831491
0.544769
0.0237954
1.71496e-23
6.61747e-08
5.87705e-09
0.189599
0.860001
0.997576
0.995414
0.962211
0.880224
0.697823
0.413268
0.0837264
0.000587264
0.000587264
0.00296032
0.0783232
0.67133
0.545203
0.0188993
-1.62844e-25
9.68952e-07
5.28345e-09
0.488827
0.965815
0.997576
0.997576
0.995561
0.995561
0.995561
0.973912
0.822666
0.433172
0.049654
0.00345832
0.0495696
0.54456
0.439708
0.0162057
2.18132e-25
1.45505e-06
5.87705e-09
0.702086
0.989639
0.997745
0.986304
0.88862
0.864729
0.879374
0.913179
0.913179
0.909558
0.379414
0.00917683
0.0455271
0.674438
0.252344
0.0209398
0.00157679
1.45506e-06
0.202239
0.881613
0.997181
0.997745
0.751151
0.441663
0.283205
0.270343
0.299649
0.457275
0.559734
0.380988
0.0207278
0.0288919
0.674602
0.430997
0.443421
0.473638
0.52188
0.589542
0.652638
0.732229
0.816178
0.898068
0.969626
1
1
1
1
1
1
1
1
1
1
1
1
1
-9.83014e-41
-6.30854e-38
-1.55981e-38
-3.55017e-22
0.00338503
0.0270846
0.0614823
0.113434
0.198757
0.319384
0.484
0.664791
0.826002
0.965028
1
1
1
0.999987
1
1
1
1
1
2.59897e-19
1.20893e-17
2.83065e-16
2.30189e-15
4.01093e-31
-1.63487e-31
3.14307e-31
-1.08138e-23
0.000855384
0.00570808
0.0226877
0.0756853
0.174512
0.332134
0.556281
0.722387
0.821458
0.963512
0.993074
0.997744
0.998012
0.999951
1
5.11956e-18
2.44858e-16
7.50998e-15
1.44707e-13
2.08734e-12
9.31413e-12
7.67593e-11
1.84765e-08
4.96557e-07
9.23875e-06
0.000121924
0.0010104
0.00508567
0.0180571
0.0545703
0.119699
0.157605
0.250033
0.401056
0.543133
0.672785
0.874372
0.958727
5.63802e-17
2.69504e-15
6.18776e-14
8.09075e-13
6.14276e-12
2.16424e-11
4.67003e-11
4.1396e-10
2.88085e-10
5.22965e-09
6.24375e-08
3.0276e-07
5.35139e-07
-2.53035e-26
1.20414e-25
-1.58266e-27
-2.84838e-29
0
-1.99356e-24
-3.41403e-22
0.0172667
0.104466
0.175616
2.04609e-17
1.11518e-15
3.24179e-14
5.59753e-13
5.48181e-12
2.58858e-11
5.522e-11
8.13262e-11
8.21269e-11
2.357e-09
2.63332e-07
5.32729e-07
1.00323e-06
2.0314e-06
6.086e-07
1.52417e-07
8.82541e-09
2.83662e-45
1.30095e-26
6.55776e-09
1.1971e-12
1.1971e-12
1.1971e-12
2.1203e-17
1.07281e-15
2.61267e-14
3.91627e-13
3.68212e-12
1.7346e-11
3.64272e-11
1.31956e-10
2.42229e-10
8.56611e-10
2.49432e-07
1.90871e-06
2.10388e-06
2.10388e-06
4.0091e-07
1.04193e-08
1.04193e-08
1.09662e-07
4.48327e-07
2.00325e-07
1.1971e-12
2.29094e-08
0.000710627
7.78716e-18
3.99621e-16
1.00309e-14
1.59904e-13
1.67425e-12
9.31899e-12
3.20372e-11
2.14012e-10
8.53751e-10
5.20575e-09
1.0391e-07
6.53267e-07
9.67862e-07
3.2289e-07
5.07696e-08
1.26489e-08
1.27764e-08
9.20824e-08
4.48358e-07
4.48298e-07
7.43436e-08
1.27098e-07
5.00584e-07
2.83899e-18
1.3638e-16
3.30532e-15
5.05264e-14
5.43248e-13
3.4206e-12
1.54223e-11
1.76412e-10
1.19829e-09
5.59382e-09
1.17377e-08
4.50293e-09
2.48365e-09
2.68369e-09
2.26181e-09
1.5866e-08
2.92379e-08
4.05727e-08
2.22834e-07
3.77908e-07
8.4315e-08
2.24234e-12
2.23049e-12
8.71771e-19
4.12923e-17
1.00758e-15
1.52002e-14
1.69128e-13
1.37503e-12
1.08058e-11
1.4285e-10
1.04905e-09
2.82521e-09
1.31803e-09
2.31476e-10
1.42852e-10
2.352e-10
7.66621e-10
8.57582e-09
2.70647e-08
2.81626e-08
1.09017e-08
4.13351e-08
1.47775e-07
2.04448e-07
2.24234e-12
2.39841e-19
1.08138e-17
2.56796e-16
3.68652e-15
3.98267e-14
3.73578e-13
3.85312e-12
6.11119e-11
3.47741e-10
5.62595e-10
3.65156e-10
1.91289e-10
1.42852e-10
2.67864e-10
5.25703e-10
1.72349e-09
8.26515e-09
1.17169e-08
2.17054e-09
1.37596e-09
1.51271e-07
7.96058e-07
5.33921e-07
5.806e-20
2.53032e-18
5.97681e-17
8.40143e-16
8.7868e-15
8.4741e-14
9.34768e-13
1.47405e-11
6.50298e-11
9.74668e-11
9.60788e-11
9.22206e-11
1.04861e-10
2.03764e-10
3.73551e-10
5.517e-10
1.12108e-09
1.86423e-09
1.18539e-09
5.16982e-10
3.78152e-08
7.89891e-07
1.42028e-06
1.17365e-20
4.86265e-19
1.13915e-17
1.57925e-16
1.60884e-15
1.49436e-14
1.64942e-13
2.55704e-12
1.0491e-11
1.75741e-11
2.29978e-11
2.60676e-11
3.70945e-11
7.17798e-11
1.63591e-10
2.40095e-10
3.36172e-10
4.72913e-10
5.05792e-10
4.05645e-10
1.58441e-09
1.42259e-07
1.07131e-06
2.05087e-21
8.194e-20
1.91879e-18
2.66331e-17
2.72099e-16
2.49924e-15
2.89345e-14
3.71584e-13
1.48987e-12
3.03903e-12
4.76778e-12
5.92368e-12
8.33093e-12
1.49549e-11
3.78955e-11
7.43643e-11
1.22865e-10
1.86926e-10
2.44294e-10
2.88315e-10
2.04996e-10
6.09079e-09
1.52275e-07
2.97265e-22
1.14445e-20
2.6911e-19
3.77159e-18
3.92882e-17
3.5951e-16
4.69172e-15
4.52267e-14
1.79235e-13
4.31669e-13
7.68294e-13
1.04011e-12
1.52235e-12
2.66799e-12
6.83359e-12
1.64249e-11
3.40965e-11
6.31986e-11
1.04029e-10
1.46113e-10
1.71837e-10
6.94319e-10
1.31609e-09
3.58807e-23
1.34614e-21
3.2001e-20
4.57359e-19
4.91658e-18
4.48349e-17
6.64827e-16
4.82252e-15
1.82073e-14
4.79541e-14
9.31073e-14
1.39001e-13
2.20479e-13
4.0462e-13
1.04163e-12
2.821e-12
7.06253e-12
1.57645e-11
3.18607e-11
5.21035e-11
7.84823e-11
1.55804e-10
1.13703e-10
3.54297e-24
1.30797e-22
3.16919e-21
4.66435e-20
5.21395e-19
4.7349e-18
7.48221e-17
4.57311e-16
1.59672e-15
4.25686e-15
8.67338e-15
1.4348e-14
2.52242e-14
5.10588e-14
1.36649e-13
3.96741e-13
1.13277e-12
2.91706e-12
6.96018e-12
1.32218e-11
2.17031e-11
3.64208e-11
4.31591e-11
2.84596e-25
1.04965e-23
2.61584e-22
4.00232e-21
4.66152e-20
4.26297e-19
6.47297e-18
3.70685e-17
1.20859e-16
3.13232e-16
6.46024e-16
1.17871e-15
2.31692e-15
5.33486e-15
1.53187e-14
4.67955e-14
1.45379e-13
4.13153e-13
1.12127e-12
2.42443e-12
4.48551e-12
7.4659e-12
1.12104e-11
1.84208e-26
6.88917e-25
1.78099e-23
2.84969e-22
3.4453e-21
3.19945e-20
4.32767e-19
2.44997e-18
7.64349e-18
1.93392e-17
3.95493e-17
7.89952e-17
1.73099e-16
4.57606e-16
1.42666e-15
4.57337e-15
1.50138e-14
4.54554e-14
1.36034e-13
3.27884e-13
6.85597e-13
1.22602e-12
2.09062e-12
9.56033e-28
3.67378e-26
9.91132e-25
1.66124e-23
2.07055e-22
1.95099e-21
2.27939e-20
1.29439e-19
3.92109e-19
9.90879e-19
2.00084e-18
4.35852e-18
1.05225e-17
3.17278e-17
1.06593e-16
3.59307e-16
1.23025e-15
3.88325e-15
1.25131e-14
3.29944e-14
7.76806e-14
1.53092e-13
2.88687e-13
4.00858e-29
1.59652e-27
4.49005e-26
7.85544e-25
1.00054e-23
9.51822e-23
9.60815e-22
5.44805e-21
1.60726e-20
4.13557e-20
8.28284e-20
1.96235e-19
5.11877e-19
1.72803e-18
6.12012e-18
2.17129e-17
7.70784e-17
2.51284e-16
8.5978e-16
2.44374e-15
6.45598e-15
1.41379e-14
3.00326e-14
1.39597e-30
5.80388e-29
1.68346e-27
3.04474e-26
3.91637e-25
3.73736e-24
3.29248e-23
1.84252e-22
5.26614e-22
1.3905e-21
2.76752e-21
7.08048e-21
1.93655e-20
7.1094e-20
2.56527e-19
9.53099e-19
3.46507e-18
1.16222e-17
4.19182e-17
1.26873e-16
3.75949e-16
9.17842e-16
2.25364e-15
4.15631e-32
1.80146e-30
5.31667e-29
9.83412e-28
1.26265e-26
1.19714e-25
9.32313e-25
5.06548e-24
1.38564e-23
3.73541e-23
7.31746e-23
1.98316e-22
5.44037e-22
2.08437e-21
7.29612e-21
2.7904e-20
1.0066e-19
3.44725e-19
1.29858e-18
4.11575e-18
1.37683e-17
3.77471e-17
1.11369e-16
1.10536e-33
4.97883e-32
1.4738e-30
2.75234e-29
3.48306e-28
3.23733e-27
2.24576e-26
1.1609e-25
2.9968e-25
8.10038e-25
1.52356e-24
4.20243e-24
1.07869e-23
4.02881e-23
1.25056e-22
4.60695e-22
1.51623e-21
6.72456e-21
9.4087e-20
1.11194e-18
5.57519e-18
1.74091e-17
1.5128e-17
2.71444e-35
1.25837e-33
3.68984e-32
6.86782e-31
8.47012e-30
7.61433e-29
4.72608e-28
2.27878e-27
5.45042e-27
1.4306e-26
2.47525e-26
6.46012e-26
1.37818e-25
4.4722e-25
3.54872e-24
3.60004e-22
3.6572e-20
1.38386e-18
3.09789e-17
2.52848e-16
1.11441e-15
2.77484e-15
2.83265e-15
6.36877e-37
3.00867e-35
8.64757e-34
1.58341e-32
1.88352e-31
1.61635e-30
8.99305e-30
3.97197e-29
8.63794e-29
2.0936e-28
3.29587e-28
1.82522e-27
1.08725e-25
1.18852e-23
1.54662e-21
1.18368e-19
5.76901e-18
1.41031e-16
2.07956e-15
1.21245e-14
4.33249e-14
8.84181e-14
9.22864e-14
1.45937e-38
6.95185e-37
1.94337e-35
3.46414e-34
3.94185e-33
3.18617e-32
1.57837e-31
6.84986e-31
5.35008e-30
2.92095e-28
2.0912e-26
1.53778e-24
1.06996e-22
6.64577e-21
3.67444e-19
1.3426e-17
3.80798e-16
6.59851e-15
6.73664e-14
2.78755e-13
7.572e-13
1.21147e-12
1.2319e-12
3.25523e-40
1.57731e-38
4.2129e-37
7.6259e-36
1.35149e-34
6.68288e-33
5.23704e-31
3.86317e-29
2.55509e-27
1.5581e-25
8.94973e-24
4.77633e-22
2.30243e-20
9.68149e-19
3.51312e-17
8.78739e-16
1.59124e-14
1.89597e-13
1.3077e-12
3.65556e-12
7.11251e-12
8.80027e-12
9.98232e-12
2.08774e-41
2.37587e-39
5.88628e-37
1.05729e-34
1.40823e-32
1.43861e-30
1.18012e-28
8.09287e-27
4.81261e-25
2.5506e-23
1.22143e-21
5.23978e-20
1.97676e-18
6.37982e-17
1.71712e-15
3.27823e-14
4.44103e-13
3.73492e-12
1.63247e-11
3.02337e-11
5.4449e-11
1.22712e-10
1.28573e-09
1.08587e-39
6.02261e-37
1.59549e-34
2.67951e-32
3.20855e-30
2.92386e-28
2.11926e-26
1.26358e-24
6.37552e-23
2.78119e-21
1.06311e-19
3.55902e-18
1.0339e-16
2.54946e-15
5.21841e-14
7.7976e-13
8.20967e-12
5.20327e-11
2.00469e-10
1.85398e-09
1.56021e-08
6.19119e-08
5.25165e-07
1.21835e-37
6.32486e-35
1.5657e-32
2.4545e-30
2.7361e-28
2.31003e-26
1.53878e-24
8.33209e-23
3.75362e-21
1.43206e-19
4.68366e-18
1.31617e-16
3.15468e-15
6.31564e-14
1.037e-12
1.27219e-11
1.15621e-10
1.07722e-09
1.8688e-08
3.33421e-07
1.83187e-06
2.57486e-06
2.50827e-06
1.40706e-35
6.58203e-33
1.4724e-30
2.08941e-28
2.1075e-26
1.60533e-24
9.58739e-23
4.60388e-21
1.81013e-19
5.90039e-18
1.60905e-16
3.67828e-15
7.02642e-14
1.10892e-12
1.42804e-11
1.50956e-10
2.08351e-09
4.20742e-08
8.05965e-07
3.52954e-06
4.24096e-06
4.24045e-06
1.10052e-06
5.37481e-34
2.42107e-31
5.20233e-29
7.06418e-27
6.77581e-25
4.86421e-23
2.70585e-21
1.1918e-19
4.21721e-18
1.20844e-16
2.81702e-15
5.33224e-14
8.15533e-13
9.939e-12
9.76056e-11
1.59444e-09
4.93411e-08
1.15228e-06
4.07358e-06
4.07278e-06
2.87276e-06
7.81034e-08
1.32231e-11
1.81042e-32
7.13021e-30
1.33204e-27
1.56186e-25
1.284e-23
7.83333e-22
3.66649e-20
1.34185e-18
3.88355e-17
8.91628e-16
1.62234e-14
2.3193e-13
2.53023e-12
2.02612e-11
2.11537e-10
2.42486e-08
1.04568e-06
4.07358e-06
4.07278e-06
1.83772e-06
2.67113e-11
2.67084e-11
4.45937e-10
1.26876e-31
4.86354e-29
8.74023e-27
9.7105e-25
7.42002e-23
4.10911e-21
1.69807e-19
5.31656e-18
1.27178e-16
2.32606e-15
3.23806e-14
3.36387e-13
2.51555e-12
1.2832e-11
7.17884e-10
4.0152e-07
3.43696e-06
4.07278e-06
1.67251e-06
3.22386e-11
5.6528e-11
2.691e-10
7.83839e-10
1.07084e-30
3.56144e-28
5.56594e-26
5.35678e-24
3.52502e-22
1.67305e-20
5.90407e-19
1.57444e-17
3.20458e-16
4.99217e-15
5.94875e-14
5.37403e-13
3.63411e-12
1.92636e-11
1.59292e-09
7.62826e-07
3.43656e-06
2.09086e-06
1.46375e-11
3.22369e-11
1.23036e-10
3.48034e-10
5.95421e-10
1.80912e-30
6.57209e-28
1.10586e-25
1.13474e-23
7.87021e-22
3.87527e-20
1.39213e-18
3.7052e-17
7.40139e-16
1.12567e-14
1.33332e-13
1.26987e-12
1.03941e-11
4.04083e-10
1.49485e-07
9.2669e-07
8.61629e-07
3.24621e-12
1.46371e-11
4.6454e-11
1.14982e-10
1.7785e-10
2.0211e-10
8.809e-30
3.09543e-27
5.06479e-25
5.10336e-23
3.57777e-21
1.87621e-19
7.59203e-18
2.35726e-16
5.62847e-15
1.02693e-13
1.4113e-12
1.41232e-11
1.02209e-10
2.54344e-09
1.74823e-07
3.46382e-07
2.9598e-08
3.24622e-12
1.57951e-11
2.69869e-11
3.59571e-11
4.49536e-11
4.23675e-11
8.80851e-30
2.23508e-27
4.69283e-25
6.13704e-23
5.52971e-21
3.58726e-19
1.70954e-17
6.05512e-16
1.58676e-14
3.04414e-13
4.25535e-12
4.47798e-11
6.55652e-10
2.80896e-08
1.45502e-07
7.96218e-08
3.24622e-12
8.43338e-12
1.39827e-11
7.01949e-12
7.13757e-12
7.68796e-12
5.78507e-12
1.2243e-29
5.89121e-27
1.37117e-24
1.96043e-22
1.88162e-20
1.26034e-18
6.00315e-17
2.04326e-15
4.9451e-14
8.47383e-13
1.07578e-11
1.04242e-10
1.3648e-09
3.27486e-08
7.47313e-08
1.32414e-08
3.24621e-12
3.27841e-11
9.88767e-12
1.28367e-12
9.2218e-13
8.03388e-13
4.07494e-13
3.08626e-30
1.70339e-27
4.52257e-25
7.49256e-23
8.51918e-21
6.91918e-19
4.07754e-17
1.74685e-15
5.49434e-14
1.27686e-12
2.09487e-11
2.65372e-10
3.54583e-09
1.61478e-08
1.15292e-08
1.32962e-09
1.78158e-10
6.92823e-11
3.00543e-12
1.04655e-13
5.71132e-14
3.35063e-14
1.57658e-14
4.12498e-31
2.84587e-28
9.6214e-26
2.04918e-23
3.00179e-21
3.12632e-19
2.33426e-17
1.24443e-15
4.59716e-14
1.14052e-12
1.89773e-11
2.19331e-10
1.92124e-09
5.56209e-09
7.00717e-09
6.05626e-09
1.37731e-09
-7.97166e-35
2.02921e-35
2.57045e-16
1.0097e-16
1.6657e-17
8.29601e-19
1
0.998848
0.835883
0.389461
1
0.999908
0.974577
0.638893
1
0.999999
0.999554
0.985813
1
1
1
1
0.308148
0.35142
0.456357
0.503593
0.000403487
0.00348352
0.0132047
0.0312874
0.00360428
0.00359692
0.0035989
0.0013143
4.58132e-07
0.00292944
0.0396517
0.0668918
5.27571e-09
2.48109e-05
0.0125677
0.126086
1.71511e-10
4.50419e-07
0.000538775
0.0482378
1.82211e-08
1.45227e-05
0.00018882
2.93398e-06
2.765e-06
4.67431e-05
4.55082e-05
2.94234e-06
5.60185e-07
7.35688e-06
3.73472e-05
2.98366e-05
2.60173e-07
5.36897e-07
1.89745e-06
2.16275e-06
5.53946e-09
5.98499e-09
2.67494e-09
8.84775e-10
1.13189e-10
2.06343e-10
3.97784e-12
8.84635e-10
4.10354e-11
4.96495e-11
3.93947e-12
2.8449e-09
1.17877e-11
1.1512e-11
3.94053e-12
1.4952e-09
2.48888e-12
2.52306e-12
3.94032e-12
1.52156e-10
3.83078e-13
4.41496e-13
1.3635e-12
1.20701e-11
4.36978e-14
5.56346e-14
1.48966e-13
7.92168e-13
3.56137e-15
4.90597e-15
1.09782e-14
3.95814e-14
1.91445e-16
2.84062e-16
5.60699e-16
1.54268e-15
1.51284e-17
1.5388e-17
2.00144e-17
4.11124e-17
2.94052e-15
3.25506e-15
4.76113e-15
8.71216e-15
1.11465e-13
1.6681e-13
3.39487e-13
7.45438e-13
1.88083e-12
4.52501e-12
1.04601e-11
2.33169e-11
1.9437e-11
2.15554e-10
5.34299e-10
1.13058e-09
1.50737e-09
4.77864e-08
8.07878e-08
7.98796e-08
6.17109e-07
5.45321e-07
3.49001e-07
1.63997e-07
1.20974e-06
3.93349e-07
7.83084e-08
3.17255e-08
7.2732e-08
7.45732e-11
7.38678e-11
7.45732e-11
1.32235e-11
1.36096e-10
7.70789e-10
7.55307e-10
1.16251e-09
1.67471e-09
1.99554e-09
2.07269e-09
1.4469e-09
1.74999e-09
1.96104e-09
2.19299e-09
6.89932e-10
7.32631e-10
8.24005e-10
1.06069e-09
1.92177e-10
1.88893e-10
2.2804e-10
3.12784e-10
3.68468e-11
3.98811e-11
5.76285e-11
7.55459e-11
4.79509e-12
6.1892e-12
1.1054e-11
2.03189e-11
2.9333e-13
7.39123e-13
2.71509e-12
9.84512e-12
4.50293e-14
2.12924e-13
8.43945e-13
2.23342e-12
-5.26517e-30
-8.07596e-30
-1.20351e-29
-1.72923e-29
0.157482
0.0209386
0.0430405
0.233797
0.69419
0.992704
0.997181
0.633588
0.190268
0.0229596
0.00899005
0.00478693
0.00477792
0.0100765
0.0225208
0.0512963
0.0168554
0.000973106
0.662277
0.279863
0.259963
0.65803
1
1
1
0.650405
0.0651007
7.0965e-09
7.0965e-09
7.0965e-09
8.59764e-06
6.14033e-05
9.47164e-05
0.000165225
0.00141548
0.00744188
2.51743e-16
0.633839
0.847971
0.9382
0.999621
0.999967
0.999671
0.987955
0.169953
4.72586e-06
4.72588e-06
7.28248e-07
1.39502e-05
5.32406e-05
1.53816e-07
7.58251e-07
3.13187e-06
1.57138e-05
2.97722e-05
2.51988e-16
0.724399
1
1
0.999029
0.976237
0.990684
0.441547
0.00415848
9.86803e-05
1.34406e-05
6.38654e-06
7.33583e-06
7.50136e-06
1.14592e-10
4.24121e-10
9.90792e-10
8.70963e-10
8.72167e-10
2.51733e-16
0.782221
0.709956
0.753839
0.80604
0.742362
0.772309
0.00398826
6.98103e-06
1.51606e-05
7.84291e-06
6.37972e-11
1.53098e-08
3.07493e-09
1.14591e-10
7.94565e-11
3.04959e-11
2.23175e-11
4.75004e-06
0.0151095
0.817646
0.0884786
0.147998
0.409028
0.662837
0.311058
2.69696e-16
7.79399e-06
1.88226e-05
8.33367e-06
6.37972e-11
8.27367e-11
2.71597e-10
3.52881e-10
2.60707e-10
2.51674e-16
2.51735e-16
2.51667e-16
0.0800465
0.852395
0.0013141
0.0456839
0.391074
0.576169
0.0923573
2.68938e-16
7.43087e-06
1.88121e-05
6.36736e-06
6.37972e-11
6.37972e-11
6.37972e-11
1.09603e-09
3.84906e-09
1.57489e-08
2.53184e-08
2.51727e-16
0.160147
0.883416
0.0407922
0.0407811
0.195847
0.398238
0.0892908
2.69692e-16
1.57367e-06
3.30835e-06
2.51519e-08
2.51512e-08
1.93351e-08
4.24511e-08
4.8125e-07
4.631e-07
5.25428e-07
2.41553e-07
2.51667e-16
0.22733
0.897605
0.239734
0.234202
0.185714
0.235266
0.390292
0.0346299
5.15995e-09
5.178e-09
0.000357155
0.00216842
0.00166836
0.000898865
0.00433471
0.00375624
0.00392873
0.00136237
2.51727e-16
0.281863
0.897606
0.24711
0.415624
0.415623
0.355195
0.546259
0.472195
0.0479983
0.0035225
0.078013
0.223292
0.208074
0.147486
0.189996
0.20213
0.187956
0.0862282
0.0186781
0.322935
0.891205
0.000279323
0.162368
0.553576
0.707648
0.707649
0.707648
0.646282
0.538328
0.594796
0.702373
0.635545
0.383562
0.353103
0.434424
0.508604
0.468008
0.303954
0.373259
0.754293
2.93402e-06
2.94237e-06
0.123991
0.526103
0.701427
0.707649
0.707648
0.707649
0.707648
0.707649
0.667814
0.40819
0.488129
0.698087
0.823553
0.859211
0.738766
0.508225
0.726322
2.94237e-06
3.40905e-06
3.84079e-10
3.84079e-10
0.187833
0.447097
0.523865
0.512464
0.440237
0.356645
0.282061
0.456165
0.734934
0.809482
0.9249
0.990001
0.990001
0.900543
0.981723
1.15266e-05
1.66267e-05
2.37508e-06
1.4871e-06
3.84079e-10
3.84079e-10
3.84079e-10
3.84079e-10
3.84079e-10
3.84079e-10
0.0621965
0.148034
0.12686
0.121077
0.307291
0.869291
0.990001
0.990001
0.984068
4.56846e-06
7.01534e-06
3.49315e-06
4.63167e-06
1.26569e-06
3.84079e-10
1.12001e-09
8.25729e-10
1.3702e-09
3.84079e-10
3.84079e-10
3.84079e-10
3.84079e-10
3.84079e-10
3.84079e-10
0.392917
0.990001
0.990001
0.985417
1.19405e-07
7.67959e-08
2.20405e-11
4.63167e-06
5.11247e-06
3.84079e-10
2.55404e-06
5.76645e-06
1.01378e-06
3.84079e-10
1.21912e-08
1.11304e-07
1.33645e-06
9.87309e-06
0.00253006
0.134225
0.83405
0.99
0.984348
9.65058e-09
4.46461e-09
2.20402e-11
3.84481e-07
1.12534e-05
1.12533e-05
2.25601e-05
4.21158e-05
2.40844e-05
3.84079e-10
2.61928e-08
7.71877e-08
3.69183e-06
4.40972e-05
0.000987503
0.0111939
0.260195
0.820257
0.913515
1.3498e-09
4.95172e-10
6.46015e-11
1.31933e-11
2.7787e-06
7.76286e-06
4.21158e-05
4.21158e-05
4.21158e-05
4.16064e-06
2.61935e-08
6.9479e-08
6.4202e-06
0.000127735
0.000716053
0.00300374
0.0180752
0.163701
0.259591
1.6819e-10
8.90377e-11
3.21712e-11
1.31934e-11
1.1383e-11
1.88651e-06
7.44011e-06
3.30745e-05
3.45308e-05
8.60071e-06
2.79731e-08
3.24328e-07
9.85138e-06
0.000180398
0.00142203
0.0145908
0.0268011
0.0172102
0.00628212
1.73165e-11
1.21911e-11
1.08844e-11
1.1384e-11
1.13838e-11
5.187e-08
1.96832e-07
3.08433e-06
1.28221e-06
2.33567e-07
4.72192e-11
1.81482e-06
1.54002e-05
6.28379e-06
0.000784028
0.0631957
0.208921
0.222263
0.0234696
1.41805e-12
1.49109e-12
2.68281e-12
8.80435e-12
1.3703e-11
1.38516e-10
2.18966e-09
3.08857e-09
2.89696e-09
5.69572e-10
4.72213e-11
5.9445e-08
2.55588e-06
3.84713e-06
0.00067489
0.0770918
0.230544
0.230386
0.0607046
8.88837e-14
1.59458e-13
5.24149e-13
3.19558e-12
8.69072e-12
1.72831e-11
7.30638e-11
6.6876e-11
5.86568e-11
4.76282e-11
4.72192e-11
6.43824e-10
3.80789e-09
4.37143e-11
0.000843993
0.0273486
0.0851993
0.125404
0.0930649
4.42176e-15
1.39109e-14
7.98259e-14
5.75571e-13
2.38469e-12
6.33139e-12
1.92988e-11
3.97162e-11
4.64491e-11
4.71153e-11
5.42951e-11
6.32371e-11
3.16391e-10
4.37235e-11
0.000951402
3.21115e-07
3.21045e-07
3.21115e-07
0.30693
1.54521e-16
9.22435e-16
9.29808e-15
8.36139e-14
4.74124e-13
1.85369e-12
6.40716e-12
1.62518e-11
3.0042e-11
3.9713e-11
5.54353e-11
7.76233e-11
1.69519e-10
4.37143e-11
0.000950898
2.20643e-05
6.58506e-07
0.00743669
0.400286
9.51657e-15
1.98348e-15
1.36751e-15
9.78537e-15
7.96258e-14
4.46142e-13
1.91521e-12
5.87489e-12
1.38571e-11
2.65146e-11
5.34807e-11
1.27253e-10
1.0607e-10
4.37235e-11
0.000832332
0.000129861
1.32479e-06
0.00515155
0.400286
1.33575e-12
7.46361e-13
1.00344e-13
1.59802e-14
1.55992e-14
8.77691e-14
5.08631e-13
1.96376e-12
5.90296e-12
1.54997e-11
5.69956e-11
1.36148e-10
1.01235e-10
4.37143e-11
0.00070993
0.000196807
5.88513e-07
0.000399284
0.400286
4.95332e-11
3.34674e-11
9.87586e-12
1.51168e-12
1.9901e-13
7.20357e-14
1.33995e-13
6.41722e-13
2.63154e-12
9.70238e-12
4.58085e-11
1.36146e-10
1.042e-10
4.37235e-11
0.000469375
0.000209925
2.5458e-07
1.09319e-26
0.361477
1.48736e-09
6.11157e-10
1.82445e-10
5.01261e-11
1.02315e-11
1.84593e-12
3.70143e-13
3.41924e-13
1.20751e-12
6.36733e-12
3.50106e-11
1.2579e-10
1.00721e-10
4.37143e-11
0.000306955
0.00017187
1.12177e-06
-1.32731e-25
0.326668
2.81587e-08
3.11603e-09
1.05296e-09
5.1296e-10
1.59035e-10
3.82251e-11
8.76216e-12
1.79375e-12
1.24392e-12
3.7146e-12
2.60535e-11
1.08394e-10
9.08662e-11
4.37235e-11
0.000204391
0.000142781
4.52871e-06
-7.30206e-22
0.348901
4.81166e-08
1.58751e-08
5.82921e-09
4.36225e-09
2.15111e-09
5.28827e-10
1.58995e-10
4.38619e-11
1.04654e-11
5.85029e-12
2.04392e-11
8.88608e-11
7.63276e-11
4.37143e-11
0.000145509
0.000130519
1.58165e-05
0.000418837
0.348903
5.99141e-08
6.05689e-08
2.21271e-08
1.63314e-08
1.7313e-08
8.32745e-09
1.18547e-12
1.18579e-12
1.18547e-12
2.51991e-12
1.25436e-11
6.51859e-11
6.23948e-11
4.37235e-11
8.94406e-05
0.000107043
1.58136e-05
0.00366255
0.178382
2.50253e-08
6.05099e-08
1.78461e-08
1.42288e-08
1.51771e-07
1.58244e-07
1.00618e-07
1.54777e-08
1.28465e-09
2.04264e-10
4.90452e-11
4.94729e-11
6.84237e-11
4.37143e-11
3.6198e-05
0.000108111
2.05613e-05
0.00130676
0.00130676
7.55324e-10
3.24011e-08
2.23812e-08
1.41303e-08
2.08774e-07
1.27171e-06
3.30894e-07
9.70138e-08
3.6853e-09
3.88161e-10
1.47515e-10
6.3445e-11
1.2602e-10
5.21818e-11
4.37143e-11
0.000108037
3.74911e-05
-2.07877e-24
0.00678504
2.09936e-09
2.09937e-09
1.75864e-07
2.40013e-08
1.59204e-08
8.92445e-06
9.99921e-06
9.59064e-11
9.59093e-11
9.59064e-11
1.10373e-10
7.66042e-11
2.48442e-10
9.10146e-11
4.37235e-11
4.97711e-05
2.13825e-05
-9.55171e-25
0.089579
2.84718e-09
7.95487e-09
2.50729e-07
4.29251e-07
3.00256e-08
1.51819e-08
0.000148937
0.000145767
2.07573e-05
4.5477e-07
9.60967e-10
7.83522e-11
2.99001e-10
7.12807e-11
2.36658e-07
3.88099e-07
4.20434e-07
1.07496e-25
0.112162
1.97666e-09
1.04978e-08
1.06124e-07
2.0673e-06
9.4869e-07
1.51864e-08
0.000153551
0.000190403
0.000104237
2.91762e-06
2.62676e-09
7.83491e-11
4.00724e-10
7.01674e-11
1.86464e-07
3.3562e-08
9.43625e-08
3.87687e-26
0.11216
5.14947e-10
2.08777e-09
2.46872e-08
2.04153e-06
5.57623e-06
2.2244e-06
4.55502e-05
0.000190408
0.000169202
1.51537e-05
4.26222e-08
1.13996e-10
5.88918e-10
6.34534e-10
1.1798e-08
1.74099e-09
1.48739e-07
-7.23852e-26
0.102976
1.04818e-10
1.71003e-10
7.08782e-09
5.67835e-07
5.59735e-06
4.32115e-06
7.7857e-07
0.000167905
0.000190408
4.68032e-05
3.7913e-07
2.73308e-10
6.24033e-10
1.43994e-09
8.88163e-10
4.52725e-10
4.52737e-10
8.86241e-05
0.0139136
6.65866e-11
4.60386e-10
4.45922e-09
1.47295e-07
2.06188e-06
3.06229e-06
7.78505e-07
0.000163283
0.000190403
0.000101361
4.4484e-07
3.25807e-10
6.65461e-10
1.51958e-09
9.92475e-10
3.28947e-10
6.6313e-08
6.96134e-06
2.02404e-07
5.97667e-11
5.39779e-10
1.39741e-09
-5.19682e-27
7.1178e-26
1.77408e-07
7.7853e-07
3.00125e-05
0.000190408
0.000100789
3.15743e-07
3.0764e-10
5.84609e-10
1.47968e-09
1.01678e-09
3.28947e-10
5.06242e-08
3.4965e-07
2.02104e-07
3.26065e-12
7.30097e-13
-2.34706e-28
-5.69746e-28
-2.7373e-28
-1.24138e-26
5.42187e-08
4.61936e-09
4.65674e-05
4.32765e-05
3.12449e-06
3.07641e-10
3.79681e-10
1.10114e-09
7.52415e-10
3.28947e-10
3.70855e-10
1.5438e-06
2.02411e-07
-2.36625e-29
-4.22829e-29
-6.16123e-29
-5.73749e-29
9.04803e-31
5.89321e-30
-7.11421e-29
4.61948e-09
3.29103e-08
1.70694e-07
1.45519e-06
1.21461e-07
7.52964e-10
4.38428e-10
3.28947e-10
1.01112e-06
3.75958e-06
1.25829e-06
5.88746e-05
)
;

boundaryField
{
    leftWall
    {
        type            zeroGradient;
    }
    rightWall
    {
        type            zeroGradient;
    }
    lowerWall
    {
        type            zeroGradient;
    }
    atmosphere
    {
        type            inletOutlet;
        inletValue      uniform 0;
        value           nonuniform List<scalar> 
46
(
4.12498e-31
2.84587e-28
9.6214e-26
2.04918e-23
3.00179e-21
3.12632e-19
2.33426e-17
1.24443e-15
4.59716e-14
1.14052e-12
1.89773e-11
2.19331e-10
1.92124e-09
5.56209e-09
7.00717e-09
6.05626e-09
0
0
0
0
0
0
0
0
0
0
0
0
0
0
0
0
0
0
0
3.29103e-08
1.70694e-07
1.45519e-06
1.21461e-07
7.52964e-10
4.38428e-10
3.28947e-10
1.01112e-06
3.75958e-06
1.25829e-06
5.88746e-05
)
;
    }
    defaultFaces
    {
        type            empty;
    }
}


// ************************************************************************* //
